/*--------------------------------*- C++ -*----------------------------------*\
| =========                 |                                                 |
| \\      /  F ield         | foam-extend: Open Source CFD                    |
|  \\    /   O peration     | Version:     3.2                                |
|   \\  /    A nd           | Web:         http://www.foam-extend.org         |
|    \\/     M anipulation  | For copyright notice see file Copyright         |
\*---------------------------------------------------------------------------*/
FoamFile
{
    version     2.0;
    format      ascii;
    class       areaScalarField;
    location    "120";
    object      Hdep;
}
// * * * * * * * * * * * * * * * * * * * * * * * * * * * * * * * * * * * * * //

dimensions      [0 0 0 0 0 0 0];

internalField   nonuniform List<scalar> 
550
(
0
0
0
0
0
0
0
0
0
0
0
0
0
0
0
0
0
0
0
0
0
0
0
0
0
0
0
0
0
0
7.43776e-06
2.19347e-05
4.11962e-05
6.20195e-05
8.19457e-05
0.000100505
0.000117489
0.000132994
0.000147146
0.000160077
0.000171914
0.00018279
0.000192825
0.000202119
0.00021074
0.000218731
0.00022613
0.000232982
0.000239344
0.000245275
0.000250836
0.000256076
0.000261038
0.000265765
0.000270284
0.000274613
0.000278759
0.00028273
0.000286544
0.000290218
0.00029376
0.000297176
0.000300474
0.000303663
0.000306759
0.000309775
0.00031272
0.000315598
0.00031841
0.000321159
0.000323843
0.000326458
0.000329003
0.000331478
0.000333895
0.000336271
0.000338611
0.00034091
0.000343163
0.000345376
0.00034756
0.000349722
0.000351869
0.000354006
0.000356138
0.000358263
0.00036038
0.000362484
0.000364577
0.000366666
0.000368747
0.000370806
0.000372833
0.000374826
0.000376786
0.000378707
0.000380585
0.000382437
0.000384293
0.000386173
0.000388087
0.00039004
0.000392035
0.000394069
0.000396141
0.000398248
0.000400386
0.000402551
0.00040474
0.000406947
0.000409171
0.000411417
0.000413691
0.000415978
0.00041827
0.000420565
0.00042286
0.000425152
0.000427436
0.00042971
0.00043197
0.000434215
0.000436444
0.000438655
0.000440849
0.000443025
0.000445181
0.000447315
0.000449424
0.000451506
0.000453558
0.00045558
0.000457571
0.000459528
0.000461451
0.000463336
0.000465182
0.000466988
0.000468754
0.000470481
0.000472168
0.000473811
0.000475411
0.000476968
0.00047848
0.000479949
0.000481374
0.000482755
0.00048409
0.000485381
0.000486627
0.000487829
0.000488985
0.000490093
0.000491155
0.000492169
0.000493137
0.000494058
0.000494933
0.00049576
0.000496538
0.000497266
0.000497947
0.000498581
0.000499168
0.000499709
0.000500204
0.000500655
0.000501063
0.000501428
0.000501752
0.000502039
0.000502293
0.000502517
0.000502713
0.000502881
0.000503024
0.000503144
0.000503243
0.000503321
0.000503379
0.000503419
0.00050344
0.000503445
0.000503433
0.000503404
0.000503362
0.000503305
0.000503236
0.000503154
0.000503061
0.000502957
0.000502842
0.000502719
0.000502589
0.000502452
0.000502307
0.000502155
0.000501996
0.000501831
0.000501661
0.000501489
0.000501321
0.000501162
0.000501016
0.00050089
0.000500794
0.000500733
0.000500704
0.000500699
0.000500714
0.000500745
0.000500789
0.000500844
0.000500906
0.000500976
0.000501049
0.000501128
0.000501208
0.000501289
0.000501369
0.000501446
0.00050152
0.000501586
0.000501645
0.000501693
0.00050173
0.000501752
0.00050176
0.000501752
0.000501727
0.000501684
0.000501623
0.000501544
0.000501445
0.000501326
0.000501188
0.000501031
0.000500855
0.000500659
0.000500445
0.000500212
0.000499961
0.000499693
0.000499406
0.000499101
0.000498778
0.000498437
0.000498078
0.000497701
0.000497305
0.000496891
0.00049646
0.000496013
0.000495551
0.000495073
0.000494581
0.000494074
0.000493554
0.00049302
0.000492472
0.000491908
0.000491329
0.000490736
0.000490126
0.000489496
0.000488845
0.000488174
0.000487481
0.000486766
0.00048603
0.000485273
0.000484495
0.000483696
0.000482879
0.000482044
0.000481194
0.000480334
0.00047947
0.000478605
0.000477741
0.000476885
0.000476038
0.000475201
0.000474378
0.000473571
0.000472784
0.00047202
0.00047128
0.000470566
0.000469879
0.000469219
0.000468585
0.000467976
0.000467391
0.000466827
0.000466283
0.000465763
0.000465273
0.000464808
0.000464352
0.000463903
0.000463465
0.000463038
0.000462622
0.000462217
0.000461825
0.000461446
0.000461083
0.000460736
0.000460405
0.00046009
0.000459792
0.000459508
0.000459237
0.000458978
0.000458732
0.000458498
0.000458277
0.000458067
0.000457868
0.000457677
0.000457495
0.000457319
0.00045715
0.000456986
0.000456828
0.000456675
0.000456526
0.000456381
0.000456239
0.000456103
0.000455975
0.000455855
0.000455744
0.000455642
0.000455551
0.000455472
0.000455402
0.000455344
0.000455296
0.000455258
0.000455229
0.000455209
0.000455198
0.000455195
0.0004552
0.000455211
0.000455224
0.000455238
0.00045525
0.000455258
0.000455261
0.000455254
0.000455237
0.000455209
0.00045517
0.000455118
0.000455052
0.000454972
0.000454879
0.000454775
0.000454659
0.000454536
0.000454408
0.000454279
0.000454152
0.000454028
0.000453909
0.000453795
0.000453687
0.000453585
0.000453488
0.000453397
0.00045331
0.000453226
0.000453144
0.000453062
0.000452978
0.000452889
0.000452795
0.00045269
0.000452574
0.000452445
0.0004523
0.000452139
0.000451961
0.000451765
0.000451549
0.000451315
0.000451059
0.000450782
0.000450483
0.000450163
0.000449824
0.000449466
0.000449092
0.000448702
0.000448299
0.000447884
0.000447458
0.000447024
0.000446584
0.000446141
0.000445698
0.000445258
0.000444823
0.000444396
0.000443979
0.000443577
0.000443189
0.000442815
0.000442452
0.000442102
0.000441763
0.000441436
0.000441118
0.000440807
0.0004405
0.000440194
0.000439888
0.000439579
0.000439267
0.00043895
0.000438628
0.000438302
0.000437972
0.000437639
0.000437303
0.000436966
0.00043663
0.000436296
0.000435967
0.000435646
0.000435332
0.000435029
0.000434737
0.000434457
0.000434189
0.000433934
0.000433693
0.000433463
0.000433246
0.00043304
0.000432845
0.000432659
0.000432483
0.000432317
0.000432159
0.00043201
0.000431869
0.000431736
0.000431607
0.000431484
0.000431362
0.000431244
0.000431125
0.000431008
0.000430889
0.000430771
0.00043065
0.00043053
0.000430408
0.000430291
0.000430174
0.000430067
0.000429962
0.00042987
0.000429784
0.000429714
0.00042965
0.000429601
0.000429556
0.000429523
0.000429489
0.000429462
0.000429429
0.000429396
0.000429351
0.000429302
0.000429234
0.000429157
0.000429058
0.000428948
0.000428817
0.000428675
0.000428514
0.000428342
0.000428151
0.00042795
0.000427729
0.000427498
0.000427252
0.000427002
0.000426743
0.000426488
0.000426229
0.000425978
0.000425727
0.000425486
0.000425243
0.000425007
0.000424768
0.000424534
0.000424294
0.000424059
0.000423817
0.000423582
0.000423344
0.000423113
0.000422881
0.000422656
0.00042243
0.000422212
0.000421992
0.00042178
0.000421564
0.000421352
0.000421134
0.000420919
0.000420698
0.000420483
0.000420269
0.000420072
0.000419891
0.000419746
0.000419647
0.000419637
0.000419751
0.000420068
0.000420687
0.000421767
0.000423523
0.000426277
0.000430421
0.000436607
0.000442797
0.000450907
0.000345101
0
0
0
0
0
0
0
0
0
0
0
)
;

boundaryField
{
    inlet
    {
        type            calculated;
        value           uniform 0;
    }
    endWall
    {
        type            calculated;
        value           uniform 0;
    }
    sideWall
    {
        type            empty;
    }
}


// ************************************************************************* //
