/*--------------------------------*- C++ -*----------------------------------*\
| =========                 |                                                 |
| \\      /  F ield         | foam-extend: Open Source CFD                    |
|  \\    /   O peration     | Version:     3.2                                |
|   \\  /    A nd           | Web:         http://www.foam-extend.org         |
|    \\/     M anipulation  | For copyright notice see file Copyright         |
\*---------------------------------------------------------------------------*/
FoamFile
{
    version     2.0;
    format      ascii;
    class       volScalarField;
    location    "120";
    object      k;
}
// * * * * * * * * * * * * * * * * * * * * * * * * * * * * * * * * * * * * * //

dimensions      [0 2 -2 0 0 0 0];

internalField   nonuniform List<scalar> 
33000
(
0.000161146
0.000218469
0.00028644
0.000363799
0.000448365
0.000536963
0.00062626
0.000712631
0.000793173
0.000865347
0.000927706
0.000979335
0.00102028
0.00105088
0.001072
0.00108462
0.00108998
0.00108925
0.00108367
0.0010746
0.0010628
0.00104893
0.00103356
0.00101718
0.00100024
0.000983075
0.000966
0.000949306
0.000933112
0.00091745
0.000902494
0.000888356
0.000875079
0.00086262
0.000850903
0.00083989
0.00082954
0.00081982
0.000810698
0.000802142
0.000794122
0.000786608
0.000779572
0.000772982
0.000766812
0.000761033
0.000755621
0.000750555
0.000745813
0.000741374
0.000737219
0.000733329
0.000729685
0.000726267
0.000723058
0.000720039
0.000717193
0.000714506
0.000711964
0.000709556
0.00070727
0.000705096
0.000703025
0.00070105
0.000699162
0.000697354
0.000695619
0.000693951
0.000692341
0.000690786
0.000689279
0.000687816
0.000686394
0.000685007
0.000683654
0.000682333
0.00068104
0.00067977
0.000678521
0.000677293
0.000676086
0.000674897
0.000673727
0.000672574
0.000671438
0.000670319
0.000669214
0.000668124
0.000667047
0.000665983
0.000664928
0.000663882
0.000662842
0.000661809
0.000660783
0.000659762
0.000658747
0.00065774
0.000656741
0.000655748
0.000654761
0.000653776
0.000652792
0.000651806
0.000650818
0.000649824
0.000648824
0.000647816
0.000646799
0.000645773
0.000644737
0.000643692
0.000642637
0.00064157
0.000640493
0.000639406
0.000638308
0.000637202
0.000636086
0.000634962
0.00063383
0.000632691
0.000631546
0.000630394
0.000629238
0.000628076
0.00062691
0.000625742
0.00062457
0.000623397
0.000622224
0.000621051
0.000619879
0.000618711
0.000617546
0.000616386
0.000615231
0.000614083
0.000612942
0.000611809
0.000610684
0.000609567
0.000608459
0.000607361
0.000606272
0.000605194
0.000604126
0.000603069
0.000602023
0.000600988
0.000599965
0.000598953
0.000597954
0.000596967
0.000595992
0.000595029
0.000594079
0.000593142
0.000592219
0.000591308
0.000590412
0.00058953
0.000588663
0.000587811
0.000586975
0.000586156
0.000585353
0.000584568
0.0005838
0.000583051
0.000582319
0.000581606
0.000580911
0.000580234
0.000579577
0.000578937
0.000578317
0.000577714
0.00057713
0.000576564
0.000576016
0.000575485
0.000574972
0.000574475
0.000573995
0.00057353
0.000573081
0.000572647
0.000572227
0.000571822
0.000571431
0.000571053
0.000570689
0.000570338
0.00057
0.000569675
0.000569361
0.000569059
0.000568768
0.000568487
0.000568216
0.000567955
0.000567702
0.000567457
0.000567218
0.000566979
0.00056674
0.000566499
0.000566255
0.000566008
0.000565757
0.000565503
0.000565246
0.000564984
0.00056472
0.000564451
0.000564178
0.000563902
0.000563621
0.000563336
0.000563046
0.000562753
0.000562456
0.000562154
0.000561848
0.000561537
0.000561221
0.000560901
0.000560575
0.000560245
0.00055991
0.00055957
0.000559225
0.000558876
0.000558523
0.000558167
0.000557807
0.000557443
0.000557078
0.00055671
0.00055634
0.000555969
0.000555596
0.000555223
0.000554849
0.000554474
0.000554099
0.000553724
0.000553349
0.000552974
0.000552599
0.000552225
0.000551851
0.000551478
0.000551105
0.000550734
0.000550363
0.000549994
0.000549627
0.000549262
0.0005489
0.000548541
0.000548186
0.000547835
0.000547488
0.000547145
0.000546808
0.000546476
0.000546149
0.000545827
0.000545511
0.000545201
0.000544896
0.000544596
0.000544301
0.000544011
0.000543725
0.000543445
0.000543168
0.000542896
0.000542628
0.000542364
0.000542104
0.000541849
0.000541598
0.000541353
0.000541112
0.000540877
0.000540648
0.000540424
0.000540207
0.000539995
0.000539789
0.000539589
0.000539395
0.000539207
0.000539025
0.000538849
0.000538679
0.000538516
0.00053836
0.000538211
0.000538068
0.000537932
0.000537803
0.00053768
0.000537563
0.000537453
0.000537348
0.00053725
0.000537157
0.000537071
0.000536991
0.000536916
0.000536846
0.000536781
0.00053672
0.000536663
0.000536607
0.000536552
0.000536497
0.000536441
0.000536381
0.000536317
0.000536247
0.00053617
0.000536084
0.000535988
0.00053588
0.000535761
0.000535628
0.000535481
0.000535319
0.000535143
0.000534952
0.000534746
0.000534526
0.000534292
0.000534045
0.000533785
0.000533515
0.000533234
0.000532945
0.000532648
0.000532344
0.000532034
0.000531718
0.000531397
0.000531072
0.000530744
0.000530412
0.000530077
0.000529739
0.000529398
0.000529053
0.000528705
0.000528352
0.000527995
0.000527632
0.000527265
0.000526891
0.000526512
0.000526126
0.000525735
0.000525338
0.000524934
0.000524524
0.000524108
0.000523685
0.000523256
0.000522821
0.000522381
0.000521936
0.000521486
0.000521032
0.000520573
0.000520111
0.000519645
0.000519177
0.000518706
0.000518233
0.000517759
0.000517284
0.000516807
0.00051633
0.000515852
0.000515374
0.000514894
0.000514414
0.000513933
0.000513452
0.00051297
0.000512488
0.000512005
0.000511523
0.00051104
0.000510558
0.000510077
0.000509597
0.000509117
0.00050864
0.000508165
0.000507692
0.000507223
0.000506758
0.000506297
0.000505843
0.000505394
0.000504953
0.000504519
0.000504093
0.000503674
0.000503264
0.000502861
0.000502466
0.000502078
0.000501696
0.00050132
0.00050095
0.000500585
0.000500224
0.000499868
0.000499516
0.000499168
0.000498823
0.000498482
0.000498145
0.000497812
0.000497483
0.000497158
0.000496838
0.000496523
0.000496214
0.00049591
0.000495613
0.000495322
0.000495038
0.000494762
0.000494492
0.00049423
0.000493975
0.000493726
0.000493483
0.000493245
0.000493013
0.000492785
0.000492562
0.000492343
0.000492128
0.000491917
0.000491708
0.000491502
0.000491296
0.000491091
0.000490884
0.000490676
0.000490466
0.000490252
0.000490035
0.000489815
0.000489591
0.000489363
0.000489132
0.000488898
0.00048866
0.00048842
0.000488178
0.000487934
0.000487689
0.000487443
0.000487197
0.00048695
0.000486703
0.000486456
0.000486208
0.000485959
0.000485709
0.000485457
0.000485202
0.000484944
0.000484683
0.000484417
0.000484145
0.000483868
0.000483584
0.000483293
0.000482994
0.000482686
0.000482369
0.000482043
0.000481708
0.000481363
0.000481008
0.000480646
0.000480275
0.000479898
0.000479514
0.000479126
0.000478733
0.000478338
0.000477939
0.000477537
0.000477132
0.000476726
0.000476315
0.000475903
0.000475486
0.000475067
0.000474643
0.000474217
0.000473784
0.000473349
0.000472906
0.00047246
0.000472005
0.000471546
0.000471078
0.000470607
0.000470127
0.000469647
0.000469158
0.00046867
0.000468172
0.000467675
0.000467167
0.000466655
0.000466127
0.00046559
0.000465013
0.000464418
0.000463731
0.000462997
0.000462073
0.000461042
0.000459632
0.000458011
0.0004556
0.000453102
0.000446831
0.000435995
0.000422506
0.000405866
0.000381284
0.000348162
0.000302874
0.000243146
0.000153211
7.28502e-05
9.33952e-05
0.000158844
0.000113423
0.000116691
0.000122006
0.00012866
0.000137219
0.000146816
0.000157315
0.000168287
0.000180166
0.000192168
0.000204452
0.000216412
0.000227933
0.000238896
0.000249533
0.000259873
0.000270177
0.00028095
0.000292454
0.000304827
0.000318413
0.000333467
0.000348219
0.000363065
0.00037837
0.000394455
0.000411568
0.00042914
0.000446235
0.000462735
0.000478547
0.000493646
0.000508057
0.000521798
0.000534845
0.000547182
0.000558788
0.000569671
0.000579839
0.000589313
0.000598119
0.000606286
0.000613847
0.000620837
0.000627292
0.000633253
0.000638785
0.00064393
0.000648708
0.000653135
0.000657225
0.00066099
0.000664441
0.00066759
0.00067045
0.000673035
0.000675358
0.000677435
0.000679287
0.00068093
0.000682379
0.000683646
0.000684742
0.000685677
0.00068646
0.000687099
0.000687604
0.000687983
0.000688247
0.000688403
0.000688458
0.000688421
0.000688299
0.000688096
0.000687821
0.000687478
0.000687073
0.000686609
0.000686087
0.000685513
0.000684891
0.000684222
0.000683511
0.00068276
0.000681975
0.000681156
0.000680308
0.000679431
0.00067853
0.000677602
0.000676653
0.000675678
0.000674672
0.000673634
0.000672562
0.000671457
0.000670321
0.000669149
0.000667941
0.000666696
0.000665415
0.000664096
0.000662741
0.00066135
0.000659924
0.000658467
0.000656979
0.000655465
0.000653925
0.000652364
0.000650783
0.000649185
0.000647576
0.000645953
0.000644321
0.000642683
0.000641041
0.000639396
0.000637752
0.000636111
0.000634476
0.000632848
0.000631231
0.000629627
0.000628038
0.000626464
0.000624908
0.000623371
0.000621854
0.000620358
0.000618884
0.000617432
0.000616004
0.000614601
0.000613222
0.000611869
0.000610542
0.000609242
0.000607969
0.000606724
0.000605507
0.000604319
0.000603158
0.000602026
0.000600922
0.000599847
0.000598799
0.000597778
0.000596785
0.000595819
0.00059488
0.000593968
0.000593083
0.000592225
0.000591393
0.000590588
0.000589809
0.000589057
0.000588332
0.000587634
0.000586963
0.00058632
0.000585705
0.000585118
0.00058456
0.000584032
0.000583533
0.000583064
0.000582625
0.000582217
0.00058184
0.000581494
0.000581178
0.000580894
0.000580639
0.000580413
0.000580215
0.000580044
0.000579899
0.000579777
0.000579679
0.000579602
0.000579544
0.000579505
0.000579481
0.000579471
0.000579474
0.000579487
0.000579509
0.000579538
0.000579573
0.000579612
0.000579655
0.000579701
0.00057975
0.000579799
0.00057985
0.000579901
0.000579952
0.000580003
0.000580054
0.000580103
0.00058015
0.000580193
0.000580216
0.000580205
0.000580167
0.000580108
0.000580032
0.000579941
0.000579838
0.000579726
0.000579605
0.000579476
0.000579338
0.000579192
0.000579036
0.000578871
0.000578695
0.000578509
0.000578313
0.000578106
0.00057789
0.000577665
0.000577432
0.00057719
0.00057694
0.000576681
0.000576413
0.000576137
0.000575851
0.000575558
0.000575258
0.000574952
0.00057464
0.000574324
0.000574005
0.000573682
0.000573356
0.000573028
0.000572699
0.000572368
0.000572037
0.000571706
0.000571375
0.000571046
0.000570718
0.000570391
0.000570066
0.000569742
0.000569421
0.000569101
0.000568783
0.000568468
0.000568156
0.000567847
0.000567543
0.000567244
0.000566952
0.000566667
0.000566391
0.000566125
0.000565869
0.000565624
0.000565391
0.000565169
0.000564961
0.000564765
0.000564581
0.000564409
0.000564248
0.000564096
0.000563953
0.000563817
0.000563687
0.00056356
0.000563437
0.000563315
0.000563193
0.000563072
0.000562951
0.000562829
0.000562707
0.000562585
0.000562464
0.000562346
0.00056223
0.000562118
0.000562011
0.000561909
0.000561814
0.000561725
0.000561643
0.000561568
0.0005615
0.000561439
0.000561384
0.000561336
0.000561295
0.00056126
0.000561232
0.00056121
0.000561195
0.000561184
0.000561177
0.000561172
0.00056117
0.000561168
0.000561167
0.000561166
0.000561166
0.000561166
0.000561167
0.000561168
0.00056117
0.000561173
0.000561176
0.000561177
0.000561176
0.00056117
0.000561158
0.000561137
0.000561105
0.000561061
0.000561004
0.000560931
0.00056084
0.000560729
0.000560595
0.000560434
0.000560246
0.000560028
0.000559779
0.000559499
0.000559189
0.00055885
0.000558484
0.000558094
0.00055768
0.000557247
0.000556797
0.000556332
0.000555857
0.000555373
0.000554882
0.000554387
0.000553888
0.000553386
0.000552883
0.000552379
0.000551876
0.000551374
0.000550872
0.000550371
0.00054987
0.000549369
0.000548868
0.000548364
0.000547859
0.00054735
0.000546838
0.000546323
0.000545804
0.000545281
0.000544754
0.000544222
0.000543685
0.000543142
0.000542593
0.000542039
0.00054148
0.000540918
0.000540352
0.000539784
0.000539215
0.000538644
0.000538072
0.0005375
0.000536929
0.000536359
0.000535792
0.000535228
0.000534667
0.000534111
0.000533559
0.000533011
0.000532468
0.000531928
0.000531392
0.00053086
0.000530332
0.000529808
0.000529288
0.000528773
0.000528263
0.000527758
0.000527259
0.000526766
0.00052628
0.0005258
0.000525328
0.000524865
0.00052441
0.000523964
0.000523529
0.000523105
0.000522692
0.000522291
0.000521903
0.000521527
0.000521163
0.00052081
0.000520468
0.000520135
0.00051981
0.000519491
0.000519178
0.000518868
0.000518561
0.000518256
0.000517953
0.000517652
0.000517353
0.000517055
0.000516761
0.00051647
0.000516182
0.000515899
0.000515621
0.000515349
0.000515084
0.000514826
0.000514575
0.000514333
0.0005141
0.000513877
0.000513662
0.000513457
0.000513261
0.000513072
0.000512891
0.000512717
0.000512547
0.000512382
0.000512219
0.000512057
0.000511897
0.000511736
0.000511576
0.000511415
0.000511252
0.000511086
0.000510917
0.000510741
0.000510557
0.000510364
0.000510158
0.00050994
0.000509709
0.000509465
0.000509207
0.000508936
0.000508652
0.000508356
0.000508047
0.000507728
0.0005074
0.000507065
0.000506722
0.000506376
0.000506024
0.000505669
0.00050531
0.00050495
0.000504586
0.000504222
0.000503854
0.000503485
0.000503112
0.000502735
0.000502352
0.000501965
0.00050157
0.000501171
0.000500761
0.000500346
0.000499918
0.000499483
0.000499034
0.000498578
0.000498106
0.000497629
0.000497136
0.00049664
0.000496131
0.000495624
0.000495106
0.000494597
0.000494079
0.000493574
0.000493059
0.000492558
0.000492045
0.000491547
0.000491033
0.000490536
0.000490019
0.00048952
0.000488997
0.000488495
0.000487964
0.000487459
0.000486923
0.000486416
0.000485872
0.000485362
0.000484808
0.000484294
0.000483731
0.000483218
0.000482653
0.000482147
0.000481584
0.000481093
0.000480537
0.000480063
0.000479518
0.000479054
0.00047852
0.000478065
0.000477537
0.000477094
0.000476561
0.00047613
0.000475551
0.000474993
0.000474407
0.000471396
0.000470239
0.00047229
0.000472039
0.000471184
0.000467506
0.000463668
0.000448801
0.000416493
0.000375891
0.000278938
0.000149913
0.000188463
0.000111341
0.000111775
0.000112758
0.000113741
0.000114811
0.000115883
0.000117069
0.000118192
0.000119367
0.000120443
0.000121501
0.000122419
0.000123261
0.000123979
0.000124677
0.000125347
0.000126086
0.000126923
0.000127921
0.000129123
0.000130601
0.000132448
0.000134677
0.00013731
0.000140407
0.000144055
0.000148368
0.000153437
0.000159253
0.000165963
0.000173554
0.000182051
0.000191581
0.000201559
0.000211775
0.000222178
0.000232751
0.000243454
0.000254262
0.000265143
0.000276062
0.000286982
0.000297888
0.000308765
0.000319606
0.000330405
0.000341024
0.000351389
0.000361502
0.000371362
0.000380968
0.000390315
0.000399397
0.000408205
0.000416728
0.000424951
0.000432863
0.000440451
0.000447709
0.000454636
0.000461236
0.000467515
0.000473498
0.000479205
0.000484642
0.000489819
0.000494745
0.000499431
0.000503888
0.000508121
0.000512139
0.000515945
0.000519545
0.000522942
0.00052614
0.000529145
0.000531962
0.000534595
0.000537049
0.00053933
0.000541445
0.000543402
0.000545207
0.000546867
0.000548387
0.000549777
0.000551039
0.000552182
0.000553209
0.000554128
0.000554943
0.000555676
0.000556323
0.000556885
0.000557366
0.000557753
0.00055801
0.000558154
0.000558201
0.000558158
0.00055803
0.000557824
0.000557546
0.000557202
0.000556799
0.000556342
0.000555837
0.000555288
0.000554701
0.000554079
0.000553427
0.000552747
0.000552043
0.000551317
0.000550572
0.00054981
0.000549036
0.000548251
0.000547459
0.000546661
0.000545862
0.000545062
0.000544266
0.000543474
0.00054269
0.000541915
0.000541151
0.000540399
0.000539661
0.000538938
0.000538229
0.000537537
0.000536861
0.000536203
0.000535563
0.000534941
0.00053434
0.00053376
0.000533201
0.000532664
0.000532149
0.000531658
0.000531189
0.000530744
0.000530323
0.000529925
0.00052955
0.000529199
0.00052887
0.000528565
0.000528283
0.000528025
0.000527789
0.000527577
0.000527388
0.000527224
0.000527084
0.000526969
0.00052688
0.000526818
0.000526783
0.000526775
0.000526798
0.00052685
0.000526934
0.00052705
0.000527198
0.00052738
0.000527595
0.000527844
0.000528128
0.000528447
0.000528799
0.000529186
0.000529606
0.000530058
0.000530541
0.000531051
0.000531588
0.00053215
0.000532732
0.000533334
0.000533952
0.000534584
0.000535227
0.000535879
0.000536537
0.000537199
0.000537863
0.000538526
0.000539188
0.000539846
0.0005405
0.000541149
0.000541793
0.000542429
0.000543059
0.000543682
0.000544297
0.000544905
0.000545504
0.000546095
0.000546678
0.00054725
0.000547809
0.000548351
0.000548872
0.000549372
0.00054985
0.000550304
0.000550735
0.000551144
0.00055153
0.000551893
0.000552235
0.000552554
0.000552851
0.000553124
0.000553375
0.000553602
0.000553806
0.000553987
0.000554146
0.000554284
0.000554402
0.0005545
0.000554579
0.000554639
0.000554681
0.000554706
0.000554713
0.000554705
0.000554681
0.000554644
0.000554594
0.000554534
0.000554465
0.000554387
0.000554302
0.000554211
0.000554114
0.000554012
0.000553906
0.000553798
0.000553687
0.000553574
0.00055346
0.000553345
0.000553229
0.000553112
0.000552995
0.000552878
0.000552761
0.000552646
0.000552532
0.000552421
0.000552316
0.000552216
0.000552124
0.000552043
0.000551973
0.000551917
0.000551876
0.000551852
0.000551845
0.000551856
0.000551885
0.000551932
0.000551996
0.000552077
0.000552171
0.000552279
0.000552397
0.000552522
0.000552654
0.000552788
0.000552923
0.000553058
0.000553191
0.00055332
0.000553447
0.00055357
0.000553691
0.00055381
0.000553929
0.000554049
0.000554171
0.000554297
0.000554428
0.000554564
0.000554708
0.00055486
0.00055502
0.000555188
0.000555365
0.000555551
0.000555746
0.000555949
0.00055616
0.000556378
0.000556603
0.000556833
0.000557068
0.000557305
0.000557544
0.000557783
0.00055802
0.000558255
0.000558488
0.000558718
0.000558945
0.00055917
0.000559392
0.000559613
0.00055983
0.000560045
0.000560255
0.00056046
0.000560657
0.000560844
0.000561018
0.000561175
0.000561312
0.000561424
0.000561508
0.000561561
0.000561578
0.000561557
0.000561495
0.00056139
0.000561239
0.000561041
0.000560797
0.000560507
0.000560173
0.000559796
0.000559381
0.000558929
0.000558445
0.000557932
0.000557396
0.00055684
0.000556268
0.000555686
0.000555095
0.000554499
0.000553899
0.000553297
0.000552695
0.000552093
0.000551492
0.000550891
0.000550292
0.000549693
0.000549094
0.000548495
0.000547895
0.000547293
0.000546689
0.000546081
0.00054547
0.000544854
0.000544233
0.000543608
0.000542978
0.000542341
0.000541697
0.000541045
0.000540386
0.000539719
0.000539046
0.000538366
0.000537682
0.000536994
0.000536303
0.000535612
0.000534921
0.000534232
0.000533545
0.000532862
0.000532184
0.000531512
0.000530848
0.00053019
0.000529541
0.000528898
0.000528264
0.000527636
0.000527016
0.000526404
0.000525798
0.000525199
0.000524608
0.000524023
0.000523445
0.000522874
0.00052231
0.000521754
0.000521205
0.000520666
0.000520136
0.000519618
0.000519113
0.000518622
0.000518148
0.000517691
0.000517252
0.000516832
0.000516432
0.000516051
0.000515689
0.000515344
0.000515016
0.000514701
0.000514399
0.000514107
0.000513823
0.000513545
0.000513273
0.000513004
0.000512738
0.000512475
0.000512216
0.000511959
0.000511706
0.000511457
0.000511213
0.000510975
0.000510743
0.000510519
0.000510304
0.000510099
0.000509905
0.000509723
0.000509553
0.000509396
0.000509251
0.000509118
0.000508996
0.000508883
0.000508779
0.000508681
0.000508589
0.000508499
0.000508412
0.000508325
0.000508237
0.000508148
0.000508056
0.00050796
0.00050786
0.000507753
0.000507638
0.000507512
0.000507373
0.000507217
0.000507043
0.000506849
0.000506634
0.000506397
0.000506138
0.000505857
0.000505555
0.000505234
0.000504895
0.000504539
0.00050417
0.000503788
0.000503396
0.000502996
0.000502589
0.000502175
0.000501758
0.000501336
0.000500911
0.000500483
0.000500051
0.000499615
0.000499174
0.000498726
0.00049827
0.000497805
0.00049733
0.000496843
0.000496345
0.000495832
0.000495305
0.000494763
0.000494206
0.000493634
0.000493048
0.000492448
0.000491836
0.000491212
0.000490581
0.000489942
0.000489301
0.000488657
0.000488015
0.000487373
0.000486736
0.000486099
0.000485466
0.000484832
0.000484202
0.000483568
0.000482937
0.0004823
0.000481663
0.000481018
0.000480372
0.000479719
0.000479064
0.000478403
0.000477741
0.000477074
0.000476406
0.000475735
0.000475066
0.000474398
0.000473735
0.000473078
0.000472428
0.00047179
0.00047116
0.000470544
0.00046994
0.000469349
0.000468772
0.000468212
0.00046767
0.000467153
0.000466664
0.000466215
0.000465821
0.000465394
0.000465365
0.000463851
0.000462642
0.000465383
0.000468311
0.000470979
0.000474101
0.000477691
0.000480509
0.00047002
0.000458694
0.000409391
0.000268247
0.000226015
0.000111175
0.000111377
0.000111884
0.000112392
0.000112885
0.000113295
0.000113477
0.000113559
0.000113511
0.000113389
0.000113173
0.000112886
0.000112527
0.000112097
0.000111611
0.000111071
0.000110498
0.000109899
0.000109271
0.000108636
0.000108007
0.0001074
0.000106834
0.000106332
0.000105912
0.000105596
0.0001054
0.00010536
0.00010549
0.000105806
0.00010632
0.000107056
0.000108071
0.000109384
0.000111006
0.000112931
0.000115164
0.000117709
0.000120577
0.000123779
0.000127336
0.000131273
0.000135625
0.000140438
0.000145758
0.000151627
0.000157907
0.000164361
0.000170986
0.000177776
0.000184727
0.000191836
0.000199098
0.000206507
0.000214056
0.00022173
0.000229512
0.000237373
0.000245284
0.000253216
0.000261143
0.00026904
0.000276841
0.000284499
0.000292012
0.000299378
0.000306596
0.000313667
0.000320591
0.000327364
0.00033398
0.000340437
0.000346732
0.000352863
0.000358826
0.000364622
0.00037025
0.000375708
0.000380991
0.000386098
0.000391027
0.000395778
0.000400347
0.000404735
0.000408938
0.000412959
0.000416798
0.00042046
0.000423948
0.000427271
0.000430433
0.000433375
0.000436128
0.000438721
0.000441171
0.00044349
0.000445676
0.000447735
0.000449662
0.000451462
0.000453143
0.000454712
0.000456179
0.000457551
0.000458836
0.000460038
0.000461162
0.000462212
0.000463193
0.000464107
0.000464957
0.00046575
0.000466485
0.000467165
0.000467796
0.000468382
0.000468926
0.000469432
0.000469903
0.000470343
0.000470755
0.000471143
0.000471509
0.000471856
0.000472188
0.000472507
0.000472814
0.000473113
0.000473405
0.000473692
0.000473975
0.000474255
0.000474534
0.000474813
0.000475094
0.000475378
0.000475666
0.000475961
0.000476264
0.000476576
0.000476898
0.000477231
0.000477576
0.000477934
0.000478306
0.000478692
0.000479092
0.000479506
0.000479936
0.000480381
0.000480842
0.000481318
0.000481811
0.000482321
0.000482848
0.000483394
0.000483959
0.000484545
0.000485153
0.000485785
0.000486442
0.000487126
0.000487839
0.000488583
0.000489359
0.000490169
0.000491013
0.000491894
0.000492811
0.000493766
0.000494758
0.000495787
0.000496853
0.000497954
0.00049909
0.000500259
0.000501457
0.000502683
0.000503932
0.000505202
0.000506488
0.000507788
0.000509096
0.000510411
0.000511728
0.000513045
0.000514356
0.000515661
0.000516956
0.00051824
0.000519509
0.000520764
0.000522004
0.000523227
0.000524433
0.000525623
0.000526796
0.000527952
0.000529092
0.000530215
0.000531323
0.000532413
0.000533487
0.000534543
0.000535579
0.000536594
0.000537584
0.000538547
0.000539481
0.000540385
0.000541258
0.000542099
0.000542907
0.000543683
0.000544427
0.000545137
0.000545814
0.000546457
0.000547067
0.000547643
0.000548186
0.000548696
0.000549174
0.00054962
0.000550036
0.000550423
0.000550782
0.000551113
0.000551418
0.000551698
0.000551953
0.000552186
0.000552398
0.00055259
0.000552765
0.000552924
0.000553069
0.000553202
0.000553324
0.000553437
0.000553541
0.000553638
0.000553729
0.000553815
0.000553897
0.000553975
0.00055405
0.000554123
0.000554193
0.00055426
0.000554326
0.000554389
0.000554452
0.000554514
0.000554579
0.000554647
0.000554721
0.000554803
0.000554896
0.000555003
0.000555128
0.000555272
0.000555437
0.000555626
0.00055584
0.000556078
0.000556342
0.000556629
0.000556939
0.00055727
0.000557619
0.000557984
0.000558359
0.000558743
0.000559132
0.000559522
0.00055991
0.000560295
0.000560674
0.000561047
0.000561414
0.000561775
0.000562132
0.000562486
0.000562839
0.000563193
0.000563549
0.00056391
0.000564277
0.000564651
0.000565033
0.000565425
0.000565827
0.000566238
0.000566661
0.000567093
0.000567536
0.000567989
0.00056845
0.000568918
0.000569391
0.000569867
0.000570343
0.000570817
0.000571286
0.000571749
0.000572203
0.000572648
0.000573083
0.000573509
0.000573926
0.000574336
0.000574738
0.000575133
0.00057552
0.0005759
0.000576271
0.000576631
0.000576979
0.000577311
0.000577624
0.000577912
0.000578171
0.000578396
0.000578581
0.000578722
0.000578813
0.00057885
0.000578829
0.000578749
0.000578606
0.0005784
0.000578131
0.000577802
0.000577415
0.000576974
0.000576482
0.000575945
0.000575367
0.000574754
0.000574112
0.000573448
0.000572766
0.000572072
0.000571371
0.000570665
0.000569957
0.000569248
0.000568541
0.000567836
0.000567132
0.000566431
0.00056573
0.00056503
0.000564331
0.00056363
0.000562928
0.000562223
0.000561516
0.000560804
0.000560088
0.000559366
0.00055864
0.000557907
0.000557168
0.000556421
0.000555665
0.0005549
0.000554124
0.000553338
0.000552543
0.000551739
0.000550928
0.000550112
0.000549293
0.000548473
0.000547653
0.000546837
0.000546026
0.000545222
0.000544427
0.000543641
0.000542866
0.000542102
0.000541349
0.000540607
0.000539876
0.000539156
0.000538446
0.000537746
0.000537056
0.000536376
0.000535705
0.000535043
0.00053439
0.000533744
0.000533107
0.000532478
0.000531858
0.000531247
0.000530649
0.000530066
0.000529498
0.00052895
0.000528423
0.000527919
0.000527441
0.000526988
0.000526562
0.000526163
0.000525789
0.00052544
0.000525112
0.000524804
0.000524513
0.000524236
0.000523971
0.000523715
0.000523466
0.000523224
0.000522987
0.000522755
0.000522528
0.000522305
0.000522087
0.000521873
0.000521666
0.000521465
0.000521271
0.000521086
0.000520911
0.000520747
0.000520596
0.000520459
0.000520337
0.00052023
0.000520137
0.000520058
0.000519992
0.000519936
0.000519888
0.000519846
0.000519808
0.000519771
0.000519734
0.000519695
0.000519652
0.000519604
0.00051955
0.000519489
0.000519419
0.000519339
0.000519244
0.000519133
0.000519002
0.000518848
0.000518669
0.000518461
0.000518223
0.000517956
0.000517658
0.00051733
0.000516974
0.000516592
0.000516185
0.000515756
0.000515308
0.000514844
0.000514367
0.000513878
0.000513381
0.000512876
0.000512366
0.000511851
0.000511334
0.000510814
0.000510291
0.000509763
0.00050923
0.00050869
0.00050814
0.000507578
0.000507003
0.000506411
0.000505804
0.000505176
0.00050453
0.000503863
0.000503178
0.000502472
0.00050175
0.00050101
0.000500258
0.000499493
0.000498721
0.000497941
0.00049716
0.000496375
0.000495595
0.000494814
0.000494041
0.000493267
0.000492499
0.000491729
0.000490965
0.000490195
0.000489429
0.000488653
0.000487878
0.00048709
0.000486302
0.000485498
0.000484696
0.000483879
0.000483066
0.00048224
0.000481421
0.000480593
0.000479777
0.000478956
0.000478153
0.00047735
0.000476567
0.000475789
0.000475033
0.000474287
0.000473562
0.000472849
0.000472162
0.000471492
0.000470852
0.000470244
0.00046968
0.000469174
0.000468759
0.000468348
0.000468301
0.000467496
0.000466609
0.000469227
0.00047318
0.00047717
0.000481717
0.000487481
0.000496152
0.000494602
0.000496571
0.00048184
0.000377996
0.00027358
0.000111178
0.000111376
0.000111842
0.000112308
0.000112739
0.0001131
0.000113333
0.000113475
0.000113436
0.000113315
0.000113094
0.000112815
0.000112477
0.000112094
0.000111665
0.000111196
0.000110689
0.000110152
0.000109585
0.000108994
0.000108381
0.000107755
0.00010712
0.00010648
0.000105841
0.000105208
0.000104586
0.000103983
0.000103407
0.000102865
0.000102355
0.000101885
0.000101466
0.000101111
0.000100829
0.000100628
0.000100514
0.000100498
0.000100587
0.000100791
0.000101129
0.000101622
0.000102277
0.000103094
0.000104078
0.000105242
0.000106595
0.000108134
0.000109861
0.000111779
0.000113897
0.000116219
0.000118754
0.00012151
0.000124497
0.000127726
0.000131205
0.000134948
0.000138965
0.000143258
0.000147826
0.000152666
0.00015776
0.000163089
0.000168642
0.000174407
0.000180375
0.000186533
0.000192856
0.000199217
0.000205617
0.000212054
0.000218525
0.000225023
0.00023154
0.000238067
0.000244596
0.000251115
0.00025761
0.00026407
0.000270483
0.000276836
0.000283118
0.000289316
0.000295418
0.000301418
0.000307306
0.000313072
0.000318707
0.0003242
0.000329559
0.000334769
0.000339819
0.000344705
0.000349423
0.000353972
0.000358352
0.000362554
0.000366572
0.000370426
0.000374128
0.000377686
0.000381109
0.000384396
0.000387544
0.000390551
0.000393421
0.000396157
0.000398764
0.000401247
0.000403611
0.000405862
0.000408001
0.000410045
0.000411997
0.000413863
0.000415651
0.000417367
0.000419016
0.000420604
0.000422134
0.00042361
0.000425037
0.000426418
0.000427757
0.000429059
0.000430326
0.00043156
0.000432767
0.000433947
0.000435104
0.000436241
0.000437359
0.000438461
0.000439549
0.000440627
0.000441695
0.000442758
0.000443818
0.000444876
0.000445935
0.000446996
0.000448061
0.000449131
0.000450208
0.000451293
0.000452385
0.000453488
0.000454599
0.000455721
0.000456854
0.000457999
0.000459155
0.000460325
0.000461508
0.000462706
0.00046392
0.000465153
0.000466406
0.000467681
0.000468982
0.00047031
0.000471668
0.000473058
0.000474483
0.000475945
0.000477445
0.000478985
0.000480565
0.000482186
0.000483847
0.000485547
0.000487286
0.00048906
0.000490867
0.000492704
0.000494567
0.000496452
0.000498353
0.000500266
0.000502186
0.000504109
0.000506029
0.000507941
0.000509842
0.000511727
0.000513592
0.000515434
0.000517251
0.00051904
0.0005208
0.00052253
0.00052423
0.0005259
0.00052754
0.000529152
0.000530736
0.000532293
0.000533823
0.000535329
0.000536809
0.000538265
0.000539696
0.0005411
0.000542478
0.000543827
0.000545146
0.000546433
0.000547685
0.0005489
0.000550078
0.000551218
0.000552318
0.000553377
0.000554396
0.000555374
0.000556311
0.000557206
0.00055806
0.000558874
0.000559647
0.00056038
0.000561074
0.00056173
0.000562349
0.000562932
0.000563481
0.000563997
0.00056448
0.000564934
0.000565359
0.000565758
0.000566132
0.000566483
0.000566815
0.000567128
0.000567426
0.00056771
0.000567981
0.000568242
0.000568493
0.000568737
0.000568975
0.000569208
0.000569436
0.000569661
0.000569882
0.000570101
0.000570316
0.000570528
0.000570737