/*--------------------------------*- C++ -*----------------------------------*\
| =========                 |                                                 |
| \\      /  F ield         | foam-extend: Open Source CFD                    |
|  \\    /   O peration     | Version:     3.2                                |
|   \\  /    A nd           | Web:         http://www.foam-extend.org         |
|    \\/     M anipulation  | For copyright notice see file Copyright         |
\*---------------------------------------------------------------------------*/
FoamFile
{
    version     2.0;
    format      ascii;
    class       areaScalarField;
    location    "120";
    object      kTempA;
}
// * * * * * * * * * * * * * * * * * * * * * * * * * * * * * * * * * * * * * //

dimensions      [0 2 -2 0 0 0 0];

internalField   nonuniform List<scalar> 
550
(
0.000161146
0.000218469
0.00028644
0.000363799
0.000448365
0.000536963
0.00062626
0.000712631
0.000793173
0.000865347
0.000927707
0.000979336
0.00102029
0.00105089
0.001072
0.00108462
0.00108998
0.00108925
0.00108368
0.0010746
0.0010628
0.00104893
0.00103356
0.00101719
0.00100024
0.000983076
0.000966001
0.000949307
0.000933113
0.00091745
0.000902494
0.000888356
0.000875079
0.000862619
0.000850903
0.00083989
0.000829539
0.00081982
0.000810698
0.000802142
0.000794122
0.000786608
0.000779571
0.000772982
0.000766812
0.000761033
0.000755621
0.000750555
0.000745813
0.000741374
0.000737219
0.000733329
0.000729685
0.000726268
0.000723059
0.00072004
0.000717194
0.000714506
0.000711965
0.000709557
0.00070727
0.000705096
0.000703026
0.00070105
0.000699162
0.000697354
0.00069562
0.000693951
0.000692341
0.000690786
0.000689279
0.000687816
0.000686393
0.000685006
0.000683654
0.000682332
0.000681039
0.000679768
0.00067852
0.000677292
0.000676084
0.000674895
0.000673725
0.000672572
0.000671436
0.000670317
0.000669212
0.000668122
0.000667045
0.000665981
0.000664927
0.00066388
0.000662841
0.000661808
0.000660781
0.00065976
0.000658746
0.000657738
0.000656739
0.000655747
0.00065476
0.000653775
0.000652791
0.000651805
0.000650817
0.000649823
0.000648823
0.000647815
0.000646799
0.000645773
0.000644737
0.000643692
0.000642636
0.00064157
0.000640493
0.000639405
0.000638308
0.000637201
0.000636085
0.000634961
0.00063383
0.000632691
0.000631545
0.000630394
0.000629237
0.000628076
0.00062691
0.000625741
0.00062457
0.000623397
0.000622223
0.00062105
0.000619879
0.00061871
0.000617546
0.000616386
0.000615231
0.000614083
0.000612942
0.000611809
0.000610684
0.000609567
0.00060846
0.000607361
0.000606273
0.000605194
0.000604126
0.000603069
0.000602023
0.000600988
0.000599965
0.000598954
0.000597954
0.000596967
0.000595992
0.000595029
0.00059408
0.000593143
0.000592219
0.000591309
0.000590412
0.00058953
0.000588663
0.000587811
0.000586976
0.000586156
0.000585354
0.000584569
0.000583801
0.000583051
0.00058232
0.000581606
0.000580912
0.000580235
0.000579578
0.000578938
0.000578318
0.000577716
0.000577132
0.000576566
0.000576018
0.000575487
0.000574973
0.000574477
0.000573996
0.000573531
0.000573082
0.000572648
0.000572229
0.000571823
0.000571432
0.000571055
0.000570691
0.00057034
0.000570002
0.000569676
0.000569362
0.00056906
0.000568769
0.000568488
0.000568218
0.000567956
0.000567704
0.000567459
0.000567219
0.00056698
0.000566741
0.0005665
0.000566256
0.000566009
0.000565758
0.000565504
0.000565246
0.000564985
0.00056472
0.000564451
0.000564178
0.000563901
0.00056362
0.000563335
0.000563046
0.000562752
0.000562455
0.000562153
0.000561846
0.000561535
0.00056122
0.000560899
0.000560573
0.000560243
0.000559908
0.000559568
0.000559223
0.000558874
0.000558521
0.000558165
0.000557804
0.000557441
0.000557076
0.000556708
0.000556338
0.000555967
0.000555594
0.000555221
0.000554847
0.000554472
0.000554097
0.000553722
0.000553347
0.000552972
0.000552598
0.000552223
0.000551849
0.000551476
0.000551104
0.000550732
0.000550361
0.000549992
0.000549625
0.000549261
0.000548899
0.00054854
0.000548185
0.000547834
0.000547487
0.000547145
0.000546807
0.000546475
0.000546148
0.000545827
0.000545511
0.0005452
0.000544895
0.000544595
0.0005443
0.00054401
0.000543725
0.000543444
0.000543167
0.000542895
0.000542627
0.000542363
0.000542103
0.000541848
0.000541597
0.000541351
0.000541111
0.000540875
0.000540646
0.000540422
0.000540205
0.000539993
0.000539787
0.000539587
0.000539393
0.000539205
0.000539023
0.000538847
0.000538678
0.000538515
0.000538359
0.000538209
0.000538067
0.000537931
0.000537802
0.000537679
0.000537563
0.000537452
0.000537348
0.00053725
0.000537158
0.000537071
0.000536991
0.000536917
0.000536847
0.000536782
0.000536722
0.000536664
0.000536609
0.000536554
0.000536499
0.000536443
0.000536384
0.00053632
0.000536249
0.000536172
0.000536086
0.00053599
0.000535882
0.000535762
0.000535629
0.000535482
0.00053532
0.000535144
0.000534953
0.000534747
0.000534527
0.000534293
0.000534045
0.000533786
0.000533515
0.000533235
0.000532945
0.000532648
0.000532344
0.000532034
0.000531718
0.000531397
0.000531073
0.000530744
0.000530413
0.000530078
0.00052974
0.000529399
0.000529054
0.000528706
0.000528353
0.000527996
0.000527633
0.000527265
0.000526892
0.000526513
0.000526127
0.000525736
0.000525339
0.000524935
0.000524525
0.000524109
0.000523686
0.000523257
0.000522822
0.000522382
0.000521937
0.000521487
0.000521032
0.000520573
0.000520111
0.000519645
0.000519177
0.000518706
0.000518233
0.000517759
0.000517283
0.000516807
0.000516329
0.000515852
0.000515373
0.000514893
0.000514413
0.000513932
0.000513451
0.000512969
0.000512486
0.000512004
0.000511522
0.000511039
0.000510557
0.000510076
0.000509595
0.000509116
0.000508639
0.000508164
0.000507691
0.000507222
0.000506757
0.000506297
0.000505842
0.000505394
0.000504952
0.000504519
0.000504092
0.000503674
0.000503264
0.000502861
0.000502466
0.000502077
0.000501696
0.00050132
0.00050095
0.000500585
0.000500224
0.000499868
0.000499516
0.000499167
0.000498823
0.000498482
0.000498145
0.000497811
0.000497482
0.000497158
0.000496838
0.000496523
0.000496213
0.000495909
0.000495612
0.000495321
0.000495038
0.000494761
0.000494492
0.00049423
0.000493974
0.000493725
0.000493482
0.000493244
0.000493012
0.000492784
0.00049256
0.000492341
0.000492126
0.000491915
0.000491706
0.000491499
0.000491294
0.000491088
0.000490882
0.000490673
0.000490463
0.000490249
0.000490032
0.000489811
0.000489587
0.000489359
0.000489128
0.000488893
0.000488656
0.000488416
0.000488174
0.00048793
0.000487685
0.000487439
0.000487193
0.000486946
0.000486699
0.000486452
0.000486204
0.000485955
0.000485705
0.000485453
0.000485198
0.000484941
0.000484679
0.000484413
0.000484142
0.000483865
0.000483581
0.00048329
0.000482991
0.000482683
0.000482366
0.00048204
0.000481704
0.00048136
0.000481005
0.000480643
0.000480272
0.000479895
0.000479511
0.000479123
0.000478731
0.000478335
0.000477936
0.000477535
0.00047713
0.000476723
0.000476313
0.000475901
0.000475484
0.000475065
0.000474642
0.000474215
0.000473783
0.000473348
0.000472905
0.000472459
0.000472004
0.000471545
0.000471078
0.000470607
0.000470128
0.000469648
0.000469159
0.000468671
0.000468174
0.000467677
0.000467169
0.000466658
0.000466129
0.000465593
0.000465016
0.000464421
0.000463734
0.000463
0.000462076
0.000461044
0.000459634
0.000458014
0.000455603
0.000453104
0.000446834
0.000435998
0.00042251
0.000405869
0.000381287
0.000348165
0.000302876
0.000243148
0.000153213
7.28513e-05
9.33944e-05
0.000158843
)
;

boundaryField
{
    inlet
    {
        type            calculated;
        value           uniform 0;
    }
    endWall
    {
        type            calculated;
        value           uniform 0;
    }
    sideWall
    {
        type            empty;
    }
}


// ************************************************************************* //
