/*--------------------------------*- C++ -*----------------------------------*\
| =========                 |                                                 |
| \\      /  F ield         | foam-extend: Open Source CFD                    |
|  \\    /   O peration     | Version:     3.2                                |
|   \\  /    A nd           | Web:         http://www.foam-extend.org         |
|    \\/     M anipulation  | For copyright notice see file Copyright         |
\*---------------------------------------------------------------------------*/
FoamFile
{
    version     2.0;
    format      ascii;
    class       volScalarField;
    location    "120";
    object      Ktemp;
}
// * * * * * * * * * * * * * * * * * * * * * * * * * * * * * * * * * * * * * //

dimensions      [0 2 -2 0 0 0 0];

internalField   nonuniform List<scalar> 
33000
(
0.000161146
0.000218469
0.00028644
0.000363799
0.000448365
0.000536963
0.00062626
0.000712631
0.000793173
0.000865347
0.000927707
0.000979336
0.00102029
0.00105089
0.001072
0.00108462
0.00108998
0.00108925
0.00108368
0.0010746
0.0010628
0.00104893
0.00103356
0.00101719
0.00100024
0.000983076
0.000966001
0.000949307
0.000933113
0.00091745
0.000902494
0.000888356
0.000875079
0.000862619
0.000850903
0.00083989
0.000829539
0.00081982
0.000810698
0.000802142
0.000794122
0.000786608
0.000779571
0.000772982
0.000766812
0.000761033
0.000755621
0.000750555
0.000745813
0.000741374
0.000737219
0.000733329
0.000729685
0.000726268
0.000723059
0.00072004
0.000717194
0.000714506
0.000711965
0.000709557
0.00070727
0.000705096
0.000703026
0.00070105
0.000699162
0.000697354
0.00069562
0.000693951
0.000692341
0.000690786
0.000689279
0.000687816
0.000686393
0.000685006
0.000683654
0.000682332
0.000681039
0.000679768
0.00067852
0.000677292
0.000676084
0.000674895
0.000673725
0.000672572
0.000671436
0.000670317
0.000669212
0.000668122
0.000667045
0.000665981
0.000664927
0.00066388
0.000662841
0.000661808
0.000660781
0.00065976
0.000658746
0.000657738
0.000656739
0.000655747
0.00065476
0.000653775
0.000652791
0.000651805
0.000650817
0.000649823
0.000648823
0.000647815
0.000646799
0.000645773
0.000644737
0.000643692
0.000642636
0.00064157
0.000640493
0.000639405
0.000638308
0.000637201
0.000636085
0.000634961
0.00063383
0.000632691
0.000631545
0.000630394
0.000629237
0.000628076
0.00062691
0.000625741
0.00062457
0.000623397
0.000622223
0.00062105
0.000619879
0.00061871
0.000617546
0.000616386
0.000615231
0.000614083
0.000612942
0.000611809
0.000610684
0.000609567
0.00060846
0.000607361
0.000606273
0.000605194
0.000604126
0.000603069
0.000602023
0.000600988
0.000599965
0.000598954
0.000597954
0.000596967
0.000595992
0.000595029
0.00059408
0.000593143
0.000592219
0.000591309
0.000590412
0.00058953
0.000588663
0.000587811
0.000586976
0.000586156
0.000585354
0.000584569
0.000583801
0.000583051
0.00058232
0.000581606
0.000580912
0.000580235
0.000579578
0.000578938
0.000578318
0.000577716
0.000577132
0.000576566
0.000576018
0.000575487
0.000574973
0.000574477
0.000573996
0.000573531
0.000573082
0.000572648
0.000572229
0.000571823
0.000571432
0.000571055
0.000570691
0.00057034
0.000570002
0.000569676
0.000569362
0.00056906
0.000568769
0.000568488
0.000568218
0.000567956
0.000567704
0.000567459
0.000567219
0.00056698
0.000566741
0.0005665
0.000566256
0.000566009
0.000565758
0.000565504
0.000565246
0.000564985
0.00056472
0.000564451
0.000564178
0.000563901
0.00056362
0.000563335
0.000563046
0.000562752
0.000562455
0.000562153
0.000561846
0.000561535
0.00056122
0.000560899
0.000560573
0.000560243
0.000559908
0.000559568
0.000559223
0.000558874
0.000558521
0.000558165
0.000557804
0.000557441
0.000557076
0.000556708
0.000556338
0.000555967
0.000555594
0.000555221
0.000554847
0.000554472
0.000554097
0.000553722
0.000553347
0.000552972
0.000552598
0.000552223
0.000551849
0.000551476
0.000551104
0.000550732
0.000550361
0.000549992
0.000549625
0.000549261
0.000548899
0.00054854
0.000548185
0.000547834
0.000547487
0.000547145
0.000546807
0.000546475
0.000546148
0.000545827
0.000545511
0.0005452
0.000544895
0.000544595
0.0005443
0.00054401
0.000543725
0.000543444
0.000543167
0.000542895
0.000542627
0.000542363
0.000542103
0.000541848
0.000541597
0.000541351
0.000541111
0.000540875
0.000540646
0.000540422
0.000540205
0.000539993
0.000539787
0.000539587
0.000539393
0.000539205
0.000539023
0.000538847
0.000538678
0.000538515
0.000538359
0.000538209
0.000538067
0.000537931
0.000537802
0.000537679
0.000537563
0.000537452
0.000537348
0.00053725
0.000537158
0.000537071
0.000536991
0.000536917
0.000536847
0.000536782
0.000536722
0.000536664
0.000536609
0.000536554
0.000536499
0.000536443
0.000536384
0.00053632
0.000536249
0.000536172
0.000536086
0.00053599
0.000535882
0.000535762
0.000535629
0.000535482
0.00053532
0.000535144
0.000534953
0.000534747
0.000534527
0.000534293
0.000534045
0.000533786
0.000533515
0.000533235
0.000532945
0.000532648
0.000532344
0.000532034
0.000531718
0.000531397
0.000531073
0.000530744
0.000530413
0.000530078
0.00052974
0.000529399
0.000529054
0.000528706
0.000528353
0.000527996
0.000527633
0.000527265
0.000526892
0.000526513
0.000526127
0.000525736
0.000525339
0.000524935
0.000524525
0.000524109
0.000523686
0.000523257
0.000522822
0.000522382
0.000521937
0.000521487
0.000521032
0.000520573
0.000520111
0.000519645
0.000519177
0.000518706
0.000518233
0.000517759
0.000517283
0.000516807
0.000516329
0.000515852
0.000515373
0.000514893
0.000514413
0.000513932
0.000513451
0.000512969
0.000512486
0.000512004
0.000511522
0.000511039
0.000510557
0.000510076
0.000509595
0.000509116
0.000508639
0.000508164
0.000507691
0.000507222
0.000506757
0.000506297
0.000505842
0.000505394
0.000504952
0.000504519
0.000504092
0.000503674
0.000503264
0.000502861
0.000502466
0.000502077
0.000501696
0.00050132
0.00050095
0.000500585
0.000500224
0.000499868
0.000499516
0.000499167
0.000498823
0.000498482
0.000498145
0.000497811
0.000497482
0.000497158
0.000496838
0.000496523
0.000496213
0.000495909
0.000495612
0.000495321
0.000495038
0.000494761
0.000494492
0.00049423
0.000493974
0.000493725
0.000493482
0.000493244
0.000493012
0.000492784
0.00049256
0.000492341
0.000492126
0.000491915
0.000491706
0.000491499
0.000491294
0.000491088
0.000490882
0.000490673
0.000490463
0.000490249
0.000490032
0.000489811
0.000489587
0.000489359
0.000489128
0.000488893
0.000488656
0.000488416
0.000488174
0.00048793
0.000487685
0.000487439
0.000487193
0.000486946
0.000486699
0.000486452
0.000486204
0.000485955
0.000485705
0.000485453
0.000485198
0.000484941
0.000484679
0.000484413
0.000484142
0.000483865
0.000483581
0.00048329
0.000482991
0.000482683
0.000482366
0.00048204
0.000481704
0.00048136
0.000481005
0.000480643
0.000480272
0.000479895
0.000479511
0.000479123
0.000478731
0.000478335
0.000477936
0.000477535
0.00047713
0.000476723
0.000476313
0.000475901
0.000475484
0.000475065
0.000474642
0.000474215
0.000473783
0.000473348
0.000472905
0.000472459
0.000472004
0.000471545
0.000471078
0.000470607
0.000470128
0.000469648
0.000469159
0.000468671
0.000468174
0.000467677
0.000467169
0.000466658
0.000466129
0.000465593
0.000465016
0.000464421
0.000463734
0.000463
0.000462076
0.000461044
0.000459634
0.000458014
0.000455603
0.000453104
0.000446834
0.000435998
0.00042251
0.000405869
0.000381287
0.000348165
0.000302876
0.000243148
0.000153213
7.28513e-05
9.33944e-05
0.000158843
0.000113423
0.000116691
0.000122006
0.00012866
0.000137219
0.000146816
0.000157315
0.000168287
0.000180166
0.000192168
0.000204452
0.000216412
0.000227933
0.000238895
0.000249533
0.000259873
0.000270177
0.00028095
0.000292454
0.000304828
0.000318413
0.000333468
0.000348219
0.000363066
0.000378371
0.000394456
0.000411568
0.000429141
0.000446235
0.000462735
0.000478547
0.000493646
0.000508057
0.000521798
0.000534845
0.000547182
0.000558788
0.000569671
0.000579838
0.000589313
0.000598119
0.000606286
0.000613847
0.000620837
0.000627293
0.000633253
0.000638785
0.000643931
0.000648708
0.000653135
0.000657225
0.00066099
0.000664441
0.00066759
0.00067045
0.000673035
0.000675358
0.000677435
0.000679287
0.00068093
0.000682379
0.000683646
0.000684742
0.000685677
0.00068646
0.000687099
0.000687604
0.000687984
0.000688247
0.000688403
0.000688459
0.000688422
0.000688299
0.000688097
0.000687821
0.000687479
0.000687074
0.000686609
0.000686088
0.000685513
0.000684891
0.000684222
0.000683511
0.00068276
0.000681974
0.000681155
0.000680308
0.000679431
0.00067853
0.000677602
0.000676653
0.000675677
0.000674671
0.000673633
0.000672562
0.000671457
0.000670321
0.000669148
0.00066794
0.000666696
0.000665414
0.000664096
0.00066274
0.00066135
0.000659924
0.000658467
0.000656979
0.000655465
0.000653925
0.000652364
0.000650783
0.000649185
0.000647576
0.000645953
0.000644321
0.000642683
0.00064104
0.000639396
0.000637752
0.000636111
0.000634476
0.000632848
0.000631231
0.000629627
0.000628038
0.000626464
0.000624908
0.000623371
0.000621854
0.000620358
0.000618884
0.000617432
0.000616004
0.000614601
0.000613222
0.000611869
0.000610542
0.000609242
0.000607969
0.000606724
0.000605507
0.000604319
0.000603158
0.000602026
0.000600922
0.000599847
0.000598799
0.000597778
0.000596785
0.000595819
0.00059488
0.000593968
0.000593083
0.000592224
0.000591393
0.000590587
0.000589809
0.000589057
0.000588332
0.000587634
0.000586963
0.000586319
0.000585704
0.000585117
0.00058456
0.000584031
0.000583532
0.000583063
0.000582625
0.000582217
0.00058184
0.000581494
0.000581179
0.000580894
0.000580639
0.000580414
0.000580216
0.000580045
0.000579899
0.000579778
0.00057968
0.000579602
0.000579545
0.000579505
0.000579482
0.000579472
0.000579475
0.000579488
0.000579509
0.000579538
0.000579573
0.000579612
0.000579655
0.000579701
0.00057975
0.000579799
0.00057985
0.000579901
0.000579952
0.000580003
0.000580054
0.000580103
0.00058015
0.000580193
0.000580216
0.000580205
0.000580167
0.000580108
0.000580032
0.000579941
0.000579839
0.000579726
0.000579605
0.000579476
0.000579338
0.000579192
0.000579036
0.000578871
0.000578695
0.000578509
0.000578313
0.000578106
0.00057789
0.000577665
0.000577431
0.000577189
0.000576939
0.00057668
0.000576412
0.000576135
0.00057585
0.000575557
0.000575257
0.000574951
0.000574639
0.000574323
0.000574003
0.00057368
0.000573355
0.000573027
0.000572697
0.000572367
0.000572036
0.000571705
0.000571374
0.000571044
0.000570716
0.00057039
0.000570065
0.000569741
0.000569419
0.000569099
0.000568781
0.000568466
0.000568154
0.000567846
0.000567542
0.000567243
0.000566951
0.000566667
0.000566391
0.000566124
0.000565868
0.000565624
0.00056539
0.00056517
0.000564961
0.000564765
0.000564581
0.000564409
0.000564248
0.000564097
0.000563954
0.000563818
0.000563688
0.000563561
0.000563437
0.000563315
0.000563194
0.000563072
0.00056295
0.000562828
0.000562706
0.000562584
0.000562464
0.000562345
0.000562229
0.000562117
0.00056201
0.000561908
0.000561813
0.000561724
0.000561642
0.000561567
0.000561499
0.000561438
0.000561383
0.000561336
0.000561294
0.00056126
0.000561231
0.00056121
0.000561194
0.000561183
0.000561176
0.000561172
0.000561169
0.000561167
0.000561166
0.000561166
0.000561165
0.000561166
0.000561166
0.000561168
0.00056117
0.000561173
0.000561176
0.000561178
0.000561177
0.000561172
0.00056116
0.000561138
0.000561106
0.000561063
0.000561005
0.000560933
0.000560842
0.00056073
0.000560596
0.000560435
0.000560247
0.000560028
0.000559779
0.000559498
0.000559188
0.000558849
0.000558483
0.000558093
0.000557679
0.000557246
0.000556795
0.000556331
0.000555855
0.000555371
0.000554881
0.000554386
0.000553887
0.000553385
0.000552882
0.000552379
0.000551876
0.000551374
0.000550872
0.000550371
0.00054987
0.00054937
0.000548868
0.000548365
0.000547859
0.000547351
0.000546839
0.000546323
0.000545804
0.000545282
0.000544755
0.000544223
0.000543685
0.000543142
0.000542593
0.000542039
0.00054148
0.000540918
0.000540352
0.000539784
0.000539214
0.000538644
0.000538072
0.0005375
0.000536929
0.000536359
0.000535792
0.000535227
0.000534667
0.000534111
0.000533559
0.000533011
0.000532467
0.000531928
0.000531392
0.00053086
0.000530332
0.000529808
0.000529288
0.000528772
0.000528262
0.000527757
0.000527258
0.000526766
0.000526279
0.000525799
0.000525327
0.000524864
0.000524409
0.000523964
0.000523529
0.000523105
0.000522692
0.000522291
0.000521903
0.000521527
0.000521163
0.000520811
0.000520469
0.000520136
0.000519811
0.000519492
0.000519178
0.000518868
0.000518561
0.000518256
0.000517953
0.000517652
0.000517353
0.000517055
0.000516761
0.00051647
0.000516182
0.000515899
0.000515621
0.000515349
0.000515084
0.000514825
0.000514575
0.000514333
0.0005141
0.000513877
0.000513663
0.000513457
0.000513261
0.000513073
0.000512892
0.000512717
0.000512548
0.000512382
0.000512219
0.000512058
0.000511897
0.000511737
0.000511576
0.000511415
0.000511252
0.000511087
0.000510917
0.000510741
0.000510557
0.000510363
0.000510158
0.00050994
0.000509709
0.000509464
0.000509206
0.000508935
0.000508651
0.000508354
0.000508046
0.000507727
0.000507399
0.000507063
0.000506721
0.000506374
0.000506022
0.000505667
0.000505309
0.000504948
0.000504585
0.000504221
0.000503854
0.000503485
0.000503111
0.000502735
0.000502351
0.000501965
0.00050157
0.00050117
0.000500761
0.000500346
0.000499918
0.000499483
0.000499033
0.000498577
0.000498106
0.000497628
0.000497135
0.000496639
0.00049613
0.000495622
0.000495105
0.000494596
0.000494078
0.000493573
0.000493058
0.000492557
0.000492044
0.000491546
0.000491032
0.000490535
0.000490018
0.000489519
0.000488996
0.000488494
0.000487963
0.000487458
0.000486922
0.000486415
0.000485871
0.000485361
0.000484807
0.000484293
0.00048373
0.000483217
0.000482652
0.000482146
0.000481583
0.000481092
0.000480536
0.000480062
0.000479517
0.000479054
0.00047852
0.000478065
0.000477537
0.000477094
0.000476561
0.000476131
0.000475551
0.000474994
0.000474407
0.000471397
0.00047024
0.000472291
0.00047204
0.000471185
0.000467507
0.000463669
0.000448802
0.000416495
0.000375892
0.000278939
0.000149914
0.000188462
0.000111341
0.000111775
0.000112758
0.000113741
0.000114811
0.000115883
0.000117069
0.000118192
0.000119367
0.000120443
0.000121501
0.000122419
0.000123261
0.000123979
0.000124677
0.000125347
0.000126086
0.000126923
0.000127921
0.000129123
0.000130601
0.000132448
0.000134677
0.000137311
0.000140407
0.000144055
0.000148368
0.000153437
0.000159254
0.000165963
0.000173554
0.000182052
0.000191581
0.00020156
0.000211775
0.000222178
0.000232751
0.000243453
0.000254261
0.000265143
0.000276062
0.000286982
0.000297888
0.000308764
0.000319606
0.000330405
0.000341024
0.000351389
0.000361502
0.000371362
0.000380968
0.000390315
0.000399397
0.000408205
0.000416728
0.000424951
0.000432863
0.000440451
0.000447709
0.000454636
0.000461236
0.000467515
0.000473498
0.000479205
0.000484642
0.000489819
0.000494745
0.000499431
0.000503888
0.000508121
0.000512139
0.000515945
0.000519545
0.000522942
0.000526141
0.000529146
0.000531963
0.000534596
0.00053705
0.000539331
0.000541446
0.000543403
0.000545207
0.000546867
0.000548388
0.000549777
0.000551039
0.000552182
0.000553209
0.000554128
0.000554943
0.000555676
0.000556323
0.000556885
0.000557366
0.000557753
0.00055801
0.000558154
0.000558201
0.000558158
0.00055803
0.000557824
0.000557546
0.000557202
0.000556799
0.000556342
0.000555836
0.000555288
0.000554701
0.000554079
0.000553426
0.000552747
0.000552043
0.000551317
0.000550572
0.00054981
0.000549036
0.000548251
0.000547458
0.000546661
0.000545861
0.000545062
0.000544266
0.000543474
0.00054269
0.000541915
0.000541151
0.000540399
0.000539661
0.000538938
0.000538229
0.000537537
0.000536861
0.000536203
0.000535563
0.000534941
0.00053434
0.00053376
0.000533201
0.000532664
0.00053215
0.000531658
0.000531189
0.000530744
0.000530323
0.000529925
0.00052955
0.000529199
0.00052887
0.000528565
0.000528283
0.000528024
0.000527789
0.000527576
0.000527388
0.000527223
0.000527083
0.000526969
0.000526879
0.000526817
0.000526782
0.000526775
0.000526797
0.000526849
0.000526933
0.000527049
0.000527198
0.000527379
0.000527595
0.000527844
0.000528128
0.000528447
0.0005288
0.000529187
0.000529607
0.000530059
0.000530541
0.000531052
0.00053159
0.000532151
0.000532733
0.000533335
0.000533953
0.000534584
0.000535228
0.00053588
0.000536538
0.0005372
0.000537863
0.000538527
0.000539188
0.000539846
0.0005405
0.000541149
0.000541793
0.000542429
0.000543059
0.000543682
0.000544297
0.000544904
0.000545504
0.000546095
0.000546678
0.00054725
0.000547809
0.000548351
0.000548873
0.000549373
0.00054985
0.000550304
0.000550736
0.000551144
0.00055153
0.000551894
0.000552235
0.000552555
0.000552851
0.000553124
0.000553375
0.000553602
0.000553805
0.000553986
0.000554145
0.000554283
0.000554401
0.000554499
0.000554578
0.000554638
0.00055468
0.000554704
0.000554712
0.000554703
0.000554679
0.000554642
0.000554593
0.000554533
0.000554463
0.000554386
0.0005543
0.000554209
0.000554112
0.00055401
0.000553905
0.000553796
0.000553685
0.000553572
0.000553458
0.000553343
0.000553227
0.000553111
0.000552994
0.000552876
0.00055276
0.000552644
0.00055253
0.00055242
0.000552314
0.000552215
0.000552123
0.000552042
0.000551973
0.000551917
0.000551876
0.000551852
0.000551845
0.000551857
0.000551886
0.000551933
0.000551997
0.000552078
0.000552173
0.00055228
0.000552398
0.000552524
0.000552655
0.000552789
0.000552924
0.000553059
0.000553191
0.000553321
0.000553447
0.00055357
0.00055369
0.000553809
0.000553928
0.000554048
0.00055417
0.000554296
0.000554427
0.000554563
0.000554707
0.000554859
0.000555019
0.000555187
0.000555364
0.00055555
0.000555745
0.000555948
0.000556159
0.000556377
0.000556602
0.000556832
0.000557067
0.000557304
0.000557543
0.000557782
0.000558019
0.000558254
0.000558487
0.000558717
0.000558944
0.000559169
0.000559392
0.000559613
0.000559831
0.000560046
0.000560256
0.000560461
0.000560659
0.000560846
0.00056102
0.000561177
0.000561314
0.000561426
0.00056151
0.000561563
0.00056158
0.000561559
0.000561497
0.000561391
0.000561239
0.000561041
0.000560797
0.000560506
0.000560172
0.000559795
0.000559379
0.000558927
0.000558443
0.00055793
0.000557394
0.000556838
0.000556266
0.000555684
0.000555093
0.000554497
0.000553898
0.000553296
0.000552694
0.000552092
0.000551491
0.000550891
0.000550292
0.000549693
0.000549095
0.000548496
0.000547896
0.000547294
0.00054669
0.000546082
0.00054547
0.000544855
0.000544234
0.000543609
0.000542978
0.000542341
0.000541697
0.000541046
0.000540386
0.00053972
0.000539046
0.000538366
0.000537682
0.000536993
0.000536303
0.000535612
0.000534921
0.000534231
0.000533544
0.000532861
0.000532184
0.000531512
0.000530847
0.00053019
0.00052954
0.000528898
0.000528263
0.000527636
0.000527016
0.000526403
0.000525797
0.000525198
0.000524607
0.000524022
0.000523444
0.000522873
0.000522309
0.000521753
0.000521204
0.000520664
0.000520135
0.000519617
0.000519112
0.000518621
0.000518147
0.00051769
0.000517251
0.000516832
0.000516432
0.000516051
0.000515689
0.000515345
0.000515017
0.000514702
0.0005144
0.000514108
0.000513824
0.000513546
0.000513273
0.000513004
0.000512739
0.000512476
0.000512216
0.000511959
0.000511706
0.000511457
0.000511213
0.000510975
0.000510743
0.000510519
0.000510304
0.000510099
0.000509905
0.000509723
0.000509553
0.000509396
0.000509251
0.000509118
0.000508996
0.000508884
0.00050878
0.000508682
0.00050859
0.0005085
0.000508413
0.000508326
0.000508238
0.000508149
0.000508057
0.000507961
0.000507861
0.000507754
0.000507639
0.000507513
0.000507373
0.000507218
0.000507043
0.000506849
0.000506634
0.000506396
0.000506137
0.000505856
0.000505554
0.000505233
0.000504894
0.000504538
0.000504168
0.000503787
0.000503395
0.000502995
0.000502588
0.000502175
0.000501757
0.000501336
0.000500911
0.000500483
0.000500052
0.000499616
0.000499175
0.000498727
0.000498271
0.000497806
0.000497331
0.000496844
0.000496346
0.000495833
0.000495306
0.000494764
0.000494207
0.000493634
0.000493048
0.000492448
0.000491836
0.000491212
0.000490581
0.000489942
0.000489301
0.000488657
0.000488015
0.000487373
0.000486736
0.000486099
0.000485466
0.000484832
0.000484202
0.000483568
0.000482937
0.0004823
0.000481662
0.000481018
0.000480372
0.000479718
0.000479064
0.000478402
0.00047774
0.000477073
0.000476405
0.000475734
0.000475065
0.000474397
0.000473734
0.000473077
0.000472428
0.000471789
0.00047116
0.000470544
0.00046994
0.000469349
0.000468772
0.000468212
0.000467671
0.000467154
0.000466665
0.000466215
0.000465822
0.000465395
0.000465366
0.000463852
0.000462643
0.000465384
0.000468312
0.00047098
0.000474101
0.000477692
0.000480509
0.000470021
0.000458694
0.000409391
0.000268248
0.000226014
0.000111175
0.000111377
0.000111884
0.000112392
0.000112885
0.000113295
0.000113477
0.000113559
0.000113511
0.000113389
0.000113173
0.000112886
0.000112527
0.000112097
0.000111611
0.000111071
0.000110498
0.000109899
0.000109271
0.000108636
0.000108007
0.0001074
0.000106834
0.000106332
0.000105912
0.000105596
0.0001054
0.00010536
0.00010549
0.000105806
0.00010632
0.000107056
0.000108071
0.000109384
0.000111006
0.00011293
0.000115164
0.000117709
0.000120577
0.000123779
0.000127336
0.000131273
0.000135624
0.000140438
0.000145758
0.000151627
0.000157907
0.000164362
0.000170987
0.000177776
0.000184727
0.000191836
0.000199097
0.000206507
0.000214055
0.00022173
0.000229512
0.000237373
0.000245284
0.000253216
0.000261143
0.00026904
0.000276841
0.000284499
0.000292012
0.000299378
0.000306596
0.000313667
0.000320591
0.000327364
0.00033398
0.000340437
0.000346733
0.000352863
0.000358827
0.000364623
0.000370251
0.000375709
0.000380992
0.000386099
0.000391028
0.000395779
0.000400348
0.000404735
0.000408939
0.00041296
0.000416798
0.000420461
0.000423948
0.000427271
0.000430433
0.000433375
0.000436128
0.000438721
0.000441171
0.00044349
0.000445677
0.000447735
0.000449662
0.000451462
0.000453143
0.000454712
0.000456179
0.000457551
0.000458836
0.000460038
0.000461162
0.000462212
0.000463193
0.000464107
0.000464957
0.00046575
0.000466485
0.000467165
0.000467796
0.000468382
0.000468926
0.000469432
0.000469903
0.000470343
0.000470755
0.000471143
0.000471509
0.000471856
0.000472188
0.000472507
0.000472814
0.000473113
0.000473405
0.000473692
0.000473975
0.000474255
0.000474534
0.000474814
0.000475094
0.000475378
0.000475666
0.000475961
0.000476264
0.000476576
0.000476898
0.000477231
0.000477577
0.000477935
0.000478306
0.000478692
0.000479092
0.000479506
0.000479936
0.000480381
0.000480841
0.000481318
0.00048181
0.00048232
0.000482847
0.000483393
0.000483958
0.000484544
0.000485152
0.000485784
0.000486441
0.000487125
0.000487838
0.000488582
0.000489358
0.000490168
0.000491013
0.000491894
0.000492811
0.000493766
0.000494758
0.000495787
0.000496853
0.000497955
0.000499091
0.00050026
0.000501458
0.000502684
0.000503934
0.000505203
0.00050649
0.000507789
0.000509098
0.000510413
0.00051173
0.000513046
0.000514358
0.000515662
0.000516957
0.00051824
0.00051951
0.000520765
0.000522004
0.000523227
0.000524433
0.000525623
0.000526796
0.000527952
0.000529092
0.000530215
0.000531323
0.000532414
0.000533487
0.000534543
0.00053558
0.000536594
0.000537584
0.000538547
0.000539482
0.000540386
0.000541258
0.000542099
0.000542908
0.000543684
0.000544427
0.000545137
0.000545814
0.000546457
0.000547067
0.000547643
0.000548186
0.000548695
0.000549173
0.000549619
0.000550035
0.000550422
0.00055078
0.000551111
0.000551416
0.000551696
0.000551951
0.000552184
0.000552396
0.000552588
0.000552763
0.000552922
0.000553067
0.0005532
0.000553322
0.000553435
0.000553539
0.000553636
0.000553727
0.000553813
0.000553895
0.000553973
0.000554048
0.000554121
0.000554191
0.000554258
0.000554324
0.000554387
0.00055445
0.000554513
0.000554577
0.000554645
0.000554719
0.000554801
0.000554895
0.000555002
0.000555127
0.000555271
0.000555437
0.000555627
0.000555841
0.000556079
0.000556343
0.000556631
0.000556941
0.000557272
0.000557622
0.000557986
0.000558362
0.000558745
0.000559134
0.000559523
0.000559911
0.000560296
0.000560675
0.000561048
0.000561414
0.000561775
0.000562132
0.000562486
0.000562838
0.000563192
0.000563548
0.000563909
0.000564276
0.00056465
0.000565032
0.000565424
0.000565825
0.000566237
0.000566659
0.000567092
0.000567535
0.000567988
0.000568449
0.000568917
0.00056939
0.000569866
0.000570342
0.000570816
0.000571285
0.000571747
0.000572201
0.000572646
0.000573082
0.000573508
0.000573925
0.000574335
0.000574738
0.000575133
0.000575521
0.000575901
0.000576272
0.000576633
0.000576982
0.000577314
0.000577627
0.000577915
0.000578175
0.000578399
0.000578584
0.000578725
0.000578815
0.000578852
0.000578831
0.00057875
0.000578606
0.0005784
0.000578131
0.000577801
0.000577414
0.000576972
0.00057648
0.000575942
0.000575364
0.000574751
0.000574109
0.000573445
0.000572763
0.00057207
0.000571369
0.000570663
0.000569955
0.000569247
0.00056854
0.000567835
0.000567132
0.000566431
0.00056573
0.000565031
0.000564331
0.000563631
0.000562929
0.000562224
0.000561517
0.000560805
0.000560089
0.000559368
0.000558641
0.000557909
0.000557169
0.000556422
0.000555666
0.0005549
0.000554124
0.000553338
0.000552543
0.000551739
0.000550928
0.000550112
0.000549292
0.000548472
0.000547653
0.000546836
0.000546025
0.000545221
0.000544426
0.00054364
0.000542865
0.000542101
0.000541348
0.000540606
0.000539875
0.000539155
0.000538445
0.000537745
0.000537055
0.000536375
0.000535704
0.000535042
0.000534389
0.000533743
0.000533106
0.000532476
0.000531856
0.000531246
0.000530648
0.000530064
0.000529497
0.000528949
0.000528422
0.000527919
0.00052744
0.000526988
0.000526563
0.000526163
0.00052579
0.000525441
0.000525114
0.000524806
0.000524515
0.000524238
0.000523972
0.000523716
0.000523467
0.000523225
0.000522988
0.000522756
0.000522528
0.000522305
0.000522087
0.000521873
0.000521665
0.000521464
0.00052127
0.000521085
0.00052091
0.000520747
0.000520596
0.000520459
0.000520337
0.00052023
0.000520138
0.000520059
0.000519993
0.000519937
0.000519889
0.000519848
0.000519809
0.000519773
0.000519736
0.000519696
0.000519653
0.000519606
0.000519552
0.000519491
0.000519421
0.00051934
0.000519246
0.000519134
0.000519003
0.000518849
0.000518669
0.000518461
0.000518224
0.000517956
0.000517657
0.000517329
0.000516973
0.00051659
0.000516183
0.000515755
0.000515307
0.000514843
0.000514366
0.000513877
0.00051338
0.000512876
0.000512366
0.000511851
0.000511334
0.000510814
0.000510291
0.000509764
0.000509232
0.000508691
0.000508141
0.000507579
0.000507004
0.000506413
0.000505805
0.000505178
0.000504532
0.000503864
0.000503178
0.000502472
0.00050175
0.00050101
0.000500259
0.000499493
0.000498721
0.000497941
0.00049716
0.000496375
0.000495595
0.000494815
0.000494041
0.000493267
0.0004925
0.00049173
0.000490966
0.000490196
0.000489429
0.000488653
0.000487878
0.00048709
0.000486301
0.000485498
0.000484696
0.000483879
0.000483066
0.000482239
0.000481421
0.000480592
0.000479776
0.000478956
0.000478152
0.000477349
0.000476567
0.000475789
0.000475034
0.000474287
0.000473562
0.00047285
0.000472163
0.000471493
0.000470853
0.000470245
0.000469681
0.000469176
0.000468761
0.00046835
0.000468303
0.000467498
0.000466611
0.000469229
0.000473182
0.000477172
0.000481719
0.000487482
0.000496153
0.000494602
0.000496571
0.000481839
0.000377996
0.000273579
0.000111178
0.000111376
0.000111841
0.000112308
0.000112739
0.0001131
0.000113333
0.000113475
0.000113436
0.000113315
0.000113094
0.000112815
0.000112477
0.000112094
0.000111665
0.000111196
0.000110689
0.000110152
0.000109585
0.000108994
0.000108381
0.000107755
0.00010712
0.00010648
0.000105841
0.000105208
0.000104586
0.000103983
0.000103407
0.000102865
0.000102355
0.000101885
0.000101466
0.000101111
0.000100829
0.000100628
0.000100514
0.000100498
0.000100587
0.000100791
0.000101128
0.000101622
0.000102277
0.000103094
0.000104078
0.000105242
0.000106595
0.000108134
0.000109861
0.000111779
0.000113897
0.000116219
0.000118753
0.000121509
0.000124497
0.000127726
0.000131205
0.000134948
0.000138965
0.000143258
0.000147826
0.000152666
0.00015776
0.000163089
0.000168642
0.000174407
0.000180375
0.000186533
0.000192856
0.000199217
0.000205617
0.000212054
0.000218525
0.000225023
0.00023154
0.000238068
0.000244596
0.000251115
0.000257611
0.000264071
0.000270483
0.000276837
0.000283118
0.000289316
0.000295418
0.000301418
0.000307306
0.000313072
0.000318707
0.0003242
0.000329559
0.000334769
0.00033982
0.000344705
0.000349423
0.000353972
0.000358352
0.000362555
0.000366573
0.000370427
0.000374128
0.000377686
0.000381109
0.000384397
0.000387544
0.000390551
0.000393421
0.000396157
0.000398765
0.000401247
0.000403612
0.000405862
0.000408002
0.000410046
0.000411997
0.000413864
0.000415652
0.000417367
0.000419017
0.000420604
0.000422134
0.00042361
0.000425037
0.000426418
0.000427758
0.000429059
0.000430326
0.000431561
0.000432767
0.000433947
0.000435105
0.000436241
0.000437359
0.000438461
0.00043955
0.000440627
0.000441696
0.000442759
0.000443818
0.000444876
0.000445935
0.000446996
0.000448061
0.000449132
0.000450208
0.000451293
0.000452386
0.000453488
0.000454599
0.000455721
0.000456854
0.000457998
0.000459155
0.000460324
0.000461506
0.000462704
0.000463918
0.000465151
0.000466404
0.000467679
0.00046898
0.000470308
0.000471666
0.000473056
0.000474481
0.000475943
0.000477444
0.000478984
0.000480565
0.000482186
0.000483847
0.000485548
0.000487287
0.000489061
0.000490869
0.000492706
0.000494569
0.000496454
0.000498355
0.000500269
0.000502189
0.000504111
0.000506031
0.000507943
0.000509844
0.000511729
0.000513594
0.000515436
0.000517252
0.000519041
0.0005208
0.00052253
0.00052423
0.0005259
0.00052754
0.000529152
0.000530736
0.000532293
0.000533823
0.000535329
0.00053681
0.000538265
0.000539696
0.000541101
0.000542479
0.000543828
0.000545147
0.000546434
0.000547686
0.000548901
0.000550079
0.000551219
0.000552318
0.000553378
0.000554397
0.000555375
0.000556311
0.000557206
0.00055806
0.000558873
0.000559646
0.000560379
0.000561073
0.000561729
0.000562347
0.000562931
0.000563479
0.000563995
0.000564478
0.000564932
0.000565357
0.000565755
0.000566129
0.00056648
0.000566812
0.000567125
0.000567423
0.000567707
0.000567978
0.000568239
0.00056849
0.000568734
0.000568972
0.000569205
0.000569433
0.000569658
0.00056988
0.000570098
0.000570314