/*--------------------------------*- C++ -*----------------------------------*\
| =========                 |                                                 |
| \\      /  F ield         | foam-extend: Open Source CFD                    |
|  \\    /   O peration     | Version:     3.2                                |
|   \\  /    A nd           | Web:         http://www.foam-extend.org         |
|    \\/     M anipulation  | For copyright notice see file Copyright         |
\*---------------------------------------------------------------------------*/
FoamFile
{
    version     2.0;
    format      ascii;
    class       surfaceScalarField;
    location    "120";
    object      meshPhi;
}
// * * * * * * * * * * * * * * * * * * * * * * * * * * * * * * * * * * * * * //

dimensions      [0 3 -1 0 0 0 0];

internalField   nonuniform List<scalar> 
65390
(
-5.51699e-35
4.20539e-19
0
1.31418e-18
5.78241e-20
2.33925e-18
-1.15648e-19
3.5483e-18
-2.31296e-19
5.07275e-18
-1.15648e-19
7.01774e-18
-2.31296e-19
9.43584e-18
-2.31296e-19
1.26425e-17
0
1.67427e-17
2.31296e-19
2.23149e-17
4.62593e-19
2.95954e-17
2.31296e-19
3.92678e-17
0
5.23045e-17
-4.62593e-19
6.96781e-17
0
9.30968e-17
4.62593e-19
1.25005e-16
0
1.68662e-16
0
2.29092e-16
-4.62593e-19
3.13068e-16
0
4.30602e-16
-4.62593e-19
5.9819e-16
0
8.49853e-16
1.49372e-30
1.2352e-15
-4.62593e-19
1.74746e-15
-4.62593e-19
2.27993e-15
4.62593e-19
6.65894e-16
0
1.77741e-14
0
-8.14969e-13
0
-1.25832e-11
0
-2.33884e-11
9.25256e-19
6.80265e-12
8.05625e-28
7.47954e-11
0
1.48557e-10
0
2.20796e-10
-1.85033e-18
2.93227e-10
0
3.6314e-10
0
4.28426e-10
9.25168e-19
4.8873e-10
0
5.44153e-10
0
5.9504e-10
-5.25782e-28
6.41775e-10
-4.68434e-28
6.84787e-10
0
7.24495e-10
-3.87051e-28
7.6127e-10
9.25177e-19
7.95397e-10
-9.25178e-19
8.27073e-10
9.25178e-19
8.56459e-10
9.25179e-19
8.83725e-10
-9.2518e-19
9.09073e-10
9.25181e-19
9.32725e-10
0
9.54898e-10
-9.25182e-19
9.75788e-10
-9.25182e-19
9.95586e-10
-1.85037e-18
1.01447e-09
0
1.03257e-09
-1.85037e-18
1.04998e-09
1.85037e-18
1.06672e-09
0
1.08282e-09
0
1.09834e-09
-1.85037e-18
1.11332e-09
0
1.12781e-09
0
1.14181e-09
1.85037e-18
1.15538e-09
1.85037e-18
1.16854e-09
0
1.18136e-09
0
1.1939e-09
-1.01081e-28
1.20619e-09
-1.85037e-18
1.21826e-09
0
1.23013e-09
1.85037e-18
1.24178e-09
1.85037e-18
1.25322e-09
1.85037e-18
1.26443e-09
0
1.2754e-09
1.85037e-18
1.28612e-09
-7.38336e-29
1.29664e-09
0
1.30702e-09
1.85037e-18
1.31728e-09
0
1.32739e-09
0
1.33736e-09
1.85037e-18
1.34717e-09
1.85037e-18
1.35686e-09
1.85037e-18
1.36646e-09
4.85355e-29
1.37599e-09
0
1.38548e-09
1.85037e-18
1.39495e-09
-1.85037e-18
1.4044e-09
-1.85037e-18
1.41382e-09
-4.30365e-29
1.4232e-09
0
1.43256e-09
4.786e-29
1.44192e-09
1.85037e-18
1.45126e-09
0
1.46056e-09
1.85037e-18
1.46976e-09
7.41904e-29
1.47885e-09
1.85037e-18
1.48782e-09
1.85037e-18
1.49666e-09
-1.85037e-18
1.50535e-09
1.85037e-18
1.51395e-09
1.85037e-18
1.52254e-09
1.85037e-18
1.53121e-09
1.85037e-18
1.54001e-09
-1.85037e-18
1.54897e-09
-1.85037e-18
1.55812e-09
-1.85037e-18
1.56745e-09
-1.85037e-18
1.57696e-09
3.70074e-18
1.58663e-09
3.70074e-18
1.59646e-09
0
1.60643e-09
1.85037e-18
1.61651e-09
0
1.62669e-09
-3.70074e-18
1.63696e-09
-3.70074e-18
1.64733e-09
3.70074e-18
1.65781e-09
0
1.66837e-09
7.6493e-29
1.67899e-09
0
1.68963e-09
0
1.7003e-09
0
1.71096e-09
1.10145e-28
1.72162e-09
-3.70074e-18
1.73224e-09
0
1.74284e-09
0
1.7534e-09
0
1.76391e-09
0
1.77439e-09
0
1.78481e-09
3.70074e-18
1.79519e-09
0
1.80552e-09
3.70074e-18
1.81577e-09
0
1.82594e-09
0
1.83601e-09
3.70074e-18
1.84598e-09
0
1.85583e-09
-3.70074e-18
1.86556e-09
-1.70235e-28
1.87517e-09
0
1.88464e-09
1.76335e-28
1.89397e-09
0
1.90316e-09
-1.73646e-28
1.91219e-09
-3.70074e-18
1.92108e-09
3.70074e-18
1.92982e-09
0
1.93841e-09
0
1.94684e-09
-3.70074e-18
1.95512e-09
-3.70074e-18
1.96323e-09
3.70074e-18
1.97117e-09
0
1.97895e-09
-3.70074e-18
1.98657e-09
0
1.99402e-09
0
2.0013e-09
3.70074e-18
2.00841e-09
0
2.01535e-09
7.40148e-18
2.02212e-09
-3.70074e-18
2.02871e-09
3.70074e-18
2.03513e-09
-3.70074e-18
2.04136e-09
0
2.04742e-09
1.8531e-28
2.05329e-09
3.70074e-18
2.05897e-09
1.91526e-28
2.06448e-09
-1.93193e-28
2.06979e-09
-3.70074e-18
2.0749e-09
3.70074e-18
2.07981e-09
-3.70074e-18
2.08452e-09
-1.85326e-28
2.08903e-09
-3.70074e-18
2.09336e-09
1.80923e-28
2.09749e-09
0
2.10143e-09
0
2.10519e-09
-3.70074e-18
2.10878e-09
3.70074e-18
2.11219e-09
-1.5324e-28
2.11543e-09
-3.70074e-18
2.11853e-09
0
2.12149e-09
0
2.12434e-09
-3.70074e-18
2.12706e-09
-1.24342e-28
2.12969e-09
3.70074e-18
2.13221e-09
0
2.13464e-09
3.70074e-18
2.13699e-09
0
2.13926e-09
0
2.14145e-09
-3.70074e-18
2.14358e-09
-7.40148e-18
2.14563e-09
-1.05212e-28
2.14762e-09
-3.70074e-18
2.14955e-09
-3.70074e-18
2.15141e-09
1.0014e-28
2.15322e-09
3.70074e-18
2.15497e-09
-7.40148e-18
2.15666e-09
3.70074e-18
2.1583e-09
-7.40148e-18
2.15989e-09
3.70074e-18
2.16143e-09
7.40148e-18
2.16293e-09
-3.70074e-18
2.16439e-09
1.11022e-17
2.16582e-09
3.70074e-18
2.16721e-09
-3.70074e-18
2.16857e-09
3.70074e-18
2.1699e-09
-7.40148e-18
2.1712e-09
0
2.17248e-09
3.70074e-18
2.17374e-09
-5.26548e-29
2.17499e-09
-3.70074e-18
2.17626e-09
-3.70074e-18
2.17758e-09
3.70074e-18
2.17897e-09
3.70074e-18
2.18046e-09
0
2.18208e-09
-3.70074e-18
2.18386e-09
7.40149e-18
2.18577e-09
1.11022e-17
2.1878e-09
3.70074e-18
2.18992e-09
-3.70074e-18
2.19212e-09
4.4385e-29
2.19439e-09
0
2.19672e-09
-5.28231e-29
2.19909e-09
-3.70074e-18
2.20151e-09
-3.70074e-18
2.20395e-09
-3.70074e-18
2.20643e-09
-7.40148e-18
2.20892e-09
0
2.21143e-09
0
2.21394e-09
0
2.21644e-09
7.40148e-18
2.21894e-09
7.40148e-18
2.22142e-09
-7.40148e-18
2.22387e-09
-1.99858e-28
2.22629e-09
-7.40148e-18
2.22866e-09
7.40148e-18
2.23099e-09
0
2.23326e-09
-7.40148e-18
2.23546e-09
7.40148e-18
2.2376e-09
0
2.23966e-09
7.40148e-18
2.24164e-09
7.40148e-18
2.24355e-09
7.40148e-18
2.24537e-09
-7.40148e-18
2.2471e-09
-1.4803e-17
2.24876e-09
0
2.25033e-09
-7.40148e-18
2.25182e-09
1.4803e-17
2.25323e-09
7.40148e-18
2.25455e-09
0
2.25579e-09
2.23536e-28
2.25695e-09
0
2.25804e-09
0
2.25905e-09
-7.40148e-18
2.25998e-09
7.40148e-18
2.26084e-09
0
2.26162e-09
-7.40148e-18
2.26232e-09
0
2.26294e-09
-7.40148e-18
2.26349e-09
0
2.26395e-09
0
2.26433e-09
0
2.26464e-09
7.40148e-18
2.26488e-09
0
2.26505e-09
0
2.26514e-09
-7.40148e-18
2.26516e-09
0
2.2651e-09
7.40148e-18
2.26497e-09
0
2.26475e-09
0
2.26445e-09
0
2.26406e-09
0
2.26358e-09
0
2.26301e-09
0
2.26235e-09
-2.30892e-28
2.26161e-09
-2.3054e-28
2.26076e-09
2.27816e-28
2.25982e-09
0
2.25878e-09
-7.40148e-18
2.25764e-09
-7.40148e-18
2.2564e-09
1.4803e-17
2.25507e-09
7.40148e-18
2.25364e-09
0
2.25213e-09
-1.7886e-28
2.25055e-09
0
2.2489e-09
0
2.24719e-09
-1.4803e-17
2.24545e-09
0
2.24368e-09
7.40149e-18
2.24192e-09
-7.40149e-18
2.24018e-09
1.4803e-17
2.23848e-09
0
2.23685e-09
-7.40149e-18
2.23529e-09
5.90747e-30
2.23382e-09
-7.40149e-18
2.23246e-09
0
2.2312e-09
0
2.23007e-09
7.40149e-18
2.22906e-09
0
2.2282e-09
-7.40149e-18
2.22746e-09
-7.19014e-30
2.22686e-09
-8.07221e-30
2.22638e-09
0
2.22601e-09
-7.40149e-18
2.22574e-09
-6.84784e-29
2.22555e-09
-7.40149e-18
2.22543e-09
7.40149e-18
2.22535e-09
7.40149e-18
2.22533e-09
-7.40149e-18
2.22537e-09
0
2.22547e-09
0
2.22561e-09
-7.40149e-18
2.2258e-09
7.40149e-18
2.22603e-09
0
2.2263e-09
-7.95114e-29
2.22662e-09
-1.4803e-17
2.22699e-09
0
2.22739e-09
7.40149e-18
2.22785e-09
0
2.22837e-09
-7.40149e-18
2.22894e-09
-7.40149e-18
2.22958e-09
0
2.23028e-09
-7.40149e-18
2.23106e-09
-7.40149e-18
2.2319e-09
7.40149e-18
2.23282e-09
-7.40149e-18
2.23382e-09
7.40149e-18
2.23488e-09
-6.27211e-29
2.23601e-09
0
2.23722e-09
0
2.23849e-09
0
2.23981e-09
0
2.2412e-09
0
2.24264e-09
-7.40149e-18
2.24412e-09
0
2.24565e-09
-1.03827e-28
2.24723e-09
-1.4803e-17
2.24884e-09
0
2.25049e-09
7.40149e-18
2.25216e-09
0
2.25387e-09
-7.40149e-18
2.25562e-09
-7.40149e-18
2.25741e-09
0
2.25924e-09
0
2.26111e-09
0
2.26303e-09
0
2.26498e-09
-1.07472e-28
2.26698e-09
-7.40149e-18
2.26901e-09
7.40149e-18
2.27108e-09
-1.09947e-28
2.27318e-09
0
2.27532e-09
-1.05926e-28
2.27749e-09
0
2.2797e-09
-7.40149e-18
2.28194e-09
1.4803e-17
2.28423e-09
1.4803e-17
2.28653e-09
-1.4803e-17
2.28886e-09
-7.40148e-18
2.29119e-09
7.40148e-18
2.29352e-09
-1.7356e-28
2.29584e-09
-7.40148e-18
2.29815e-09
7.40148e-18
2.30042e-09
1.91023e-28
2.30267e-09
0
2.30488e-09
-1.4803e-17
2.30705e-09
0
2.30918e-09
2.08826e-28
2.31126e-09
-7.40148e-18
2.31329e-09
-7.40148e-18
2.31527e-09
-1.84748e-28
2.3172e-09
0
2.31909e-09
-7.40148e-18
2.32096e-09
0
2.32282e-09
7.40148e-18
2.32469e-09
0
2.32657e-09
-7.40149e-18
2.32848e-09
1.11817e-28
2.33043e-09
7.40149e-18
2.3324e-09
-7.40149e-18
2.33441e-09
7.40149e-18
2.33646e-09
0
2.33854e-09
1.24579e-28
2.34066e-09
7.40148e-18
2.3428e-09
-7.40148e-18
2.34497e-09
1.4803e-17
2.34715e-09
1.4803e-17
2.34933e-09
1.78439e-28
2.35151e-09
-1.4803e-17
2.35367e-09
7.40148e-18
2.35579e-09
0
2.35788e-09
-2.23128e-28
2.35992e-09
-7.40148e-18
2.36189e-09
0
2.3638e-09
7.40148e-18
2.36563e-09
0
2.36739e-09
0
2.36905e-09
-2.57528e-28
2.37063e-09
-7.40148e-18
2.37211e-09
7.40148e-18
2.3735e-09
0
2.37477e-09
-7.40148e-18
2.37594e-09
-7.40148e-18
2.37701e-09
0
2.37797e-09
-2.33559e-28
2.37885e-09
7.40148e-18
2.37963e-09
2.17301e-28
2.38034e-09
-7.40148e-18
2.38098e-09
1.4803e-17
2.38155e-09
1.4803e-17
2.38207e-09
1.4803e-17
2.38254e-09
1.52146e-28
2.38297e-09
0
2.38338e-09
1.21667e-28
2.38379e-09
0
2.38421e-09
-7.40149e-18
2.38465e-09
7.40149e-18
2.38512e-09
-7.35603e-29
2.38565e-09
6.05179e-29
2.38623e-09
-1.4803e-17
2.38687e-09
-7.40149e-18
2.3876e-09
7.40149e-18
2.3884e-09
-7.40149e-18
2.3893e-09
-7.40149e-18
2.39026e-09
7.40149e-18
2.39131e-09
0
2.39241e-09
-1.4803e-17
2.39357e-09
-1.4803e-17
2.39475e-09
-1.51044e-28
2.39595e-09
0
2.39716e-09
0
2.39835e-09
1.76228e-28
2.39953e-09
0
2.40068e-09
1.4803e-17
2.4018e-09
7.40148e-18
2.40289e-09
7.40148e-18
2.40395e-09
-7.40148e-18
2.40498e-09
0
2.40599e-09
-7.40149e-18
2.40699e-09
2.63996e-28
2.40798e-09
-1.4803e-17
2.40898e-09
7.40149e-18
2.40999e-09
1.4803e-17
2.41104e-09
-7.40149e-18
2.41212e-09
0
2.41325e-09
-7.40149e-18
2.41444e-09
-1.4803e-17
2.41569e-09
7.40149e-18
2.417e-09
1.4803e-17
2.41839e-09
-1.4803e-17
2.41984e-09
0
2.42137e-09
0
2.42297e-09
0
2.42463e-09
-1.4803e-17
2.42636e-09
0
2.42814e-09
-1.4803e-17
2.42997e-09
1.4803e-17
2.43187e-09
0
2.43381e-09
0
2.43581e-09
0
2.43786e-09
-1.4803e-17
2.43997e-09
0
2.44212e-09
0
2.44431e-09
2.74966e-28
2.44652e-09
0
2.44876e-09
-1.4803e-17
2.45101e-09
0
2.45328e-09
-1.4803e-17
2.45554e-09
0
2.45781e-09
0
2.46007e-09
0
2.46234e-09
0
2.46461e-09
0
2.46689e-09
0
2.46919e-09
-1.4803e-17
2.47152e-09
1.4803e-17
2.47389e-09
1.4803e-17
2.47631e-09
-1.4803e-17
2.47879e-09
0
2.48134e-09
0
2.48396e-09
0
2.48664e-09
-1.4803e-17
2.48939e-09
1.4803e-17
2.49218e-09
0
2.49501e-09
-1.4803e-17
2.49787e-09
0
2.50073e-09
4.12118e-28
2.50359e-09
1.4803e-17
2.50643e-09
1.4803e-17
2.50923e-09
0
2.51197e-09
1.4803e-17
2.51464e-09
-1.4803e-17
2.51723e-09
-1.4803e-17
2.51975e-09
0
2.52219e-09
0
2.52456e-09
0
2.52685e-09
-1.4803e-17
2.52907e-09
0
2.53121e-09
0
2.53327e-09
0
2.53525e-09
1.4803e-17
2.53715e-09
0
2.53899e-09
-1.4803e-17
2.54077e-09
1.4803e-17
2.54253e-09
-1.4803e-17
2.54428e-09
0
2.54603e-09
0
2.54779e-09
1.4803e-17
2.54959e-09
0
2.55141e-09
0
2.55325e-09
-1.4803e-17
2.55511e-09
0
2.55699e-09
-1.4803e-17
2.55888e-09
-1.4803e-17
2.56077e-09
0
2.56266e-09
-1.4803e-17
2.56457e-09
0
2.56649e-09
1.4803e-17
2.56842e-09
1.4803e-17
2.57039e-09
-1.4803e-17
2.57238e-09
0
2.5744e-09
1.4803e-17
2.57645e-09
0
2.57853e-09
-2.96059e-17
2.58064e-09
2.96059e-17
2.58277e-09
0
2.58491e-09
0
2.58705e-09
3.52045e-28
2.58918e-09
-1.4803e-17
2.59131e-09
0
2.59343e-09
-2.19936e-28
2.59556e-09
-1.4803e-17
2.59773e-09
-2.96059e-17
2.59999e-09
0
2.60238e-09
0
2.60498e-09
0
2.60791e-09
-1.4803e-17
2.61137e-09
-1.4803e-17
2.61565e-09
1.4803e-17
2.62118e-09
6.47475e-27
2.62863e-09
1.48031e-17
2.63894e-09
1.48032e-17
2.65345e-09
0
2.67404e-09
3.00315e-26
2.70271e-09
-1.48022e-17
2.74095e-09
0
2.76469e-09
2.9514e-17
2.73968e-09
0
2.07686e-09
0
7.70587e-10
-3.57879e-26
4.94698e-11
0
-2.66363e-13
0
3.62638e-13
2.54952e-27
1.18687e-13
0
6.01093e-14
-1.4803e-17
3.30589e-14
-4.64581e-28
1.92255e-14
1.4803e-17
1.11617e-14
0
5.85432e-15
1.82561e-15
2.89121e-20
4.46823e-18
-2.11652e-33
1.3615e-17
-5.78241e-20
2.39182e-17
1.15648e-19
3.59561e-17
1.35417e-32
5.08852e-17
1.83766e-32
6.96518e-17
0
9.4043e-17
2.31296e-19
1.25636e-16
0
1.67112e-16
-2.31296e-19
2.22201e-16
-2.31296e-19
2.94956e-16
2.31296e-19
3.91942e-16
2.31296e-19
5.21312e-16
-7.27039e-31
6.94678e-16
0
9.28182e-16
4.62593e-19
1.24522e-15
-4.62593e-19
1.68016e-15
0
2.28131e-15
0
3.11661e-15
4.54832e-30
4.28566e-15
6.34706e-30
5.95121e-15
9.10291e-30
8.44048e-15
4.62593e-19
1.22713e-14
-4.62593e-19
1.74465e-14
4.62594e-19
2.22119e-14
-4.62594e-19
1.9638e-14
9.25188e-19
-3.83437e-14
9.25178e-19
-1.6951e-12
0
-1.21536e-11
0
-1.91025e-11
9.25306e-19
1.08066e-11
0
7.56981e-11
-9.25184e-19
1.48583e-10
9.25165e-19
2.20842e-10
9.25153e-19
2.92948e-10
-1.8503e-18
3.62613e-10
-9.25153e-19
4.2783e-10
0
4.88126e-10
-1.85032e-18
5.43576e-10
-9.25161e-19
5.94501e-10
9.25163e-19
6.41282e-10
9.25166e-19
6.8434e-10
9.25168e-19
7.24091e-10
-7.25538e-28
7.60899e-10
1.36594e-27
7.95051e-10
-6.41957e-28
8.26748e-10
1.85034e-18
8.56155e-10
0
8.83446e-10
-9.25175e-19
9.08821e-10
9.25176e-19
9.32499e-10
0
9.54696e-10
0
9.75609e-10
-9.25179e-19
9.95428e-10
0
1.01433e-09
0
1.03244e-09
0
1.04985e-09
-1.85036e-18
1.0666e-09
1.85036e-18
1.08271e-09
-1.85036e-18
1.09823e-09
0
1.11322e-09
-1.85036e-18
1.1277e-09
-1.85036e-18
1.14172e-09
0
1.15528e-09
0
1.16845e-09
-1.85036e-18
1.18128e-09
-1.85036e-18
1.19382e-09
0
1.20612e-09
-1.85036e-18
1.21819e-09
0
1.23006e-09
1.85036e-18
1.24171e-09
1.85036e-18
1.25315e-09
1.85036e-18
1.26436e-09
1.85036e-18
1.27532e-09
-2.75717e-28
1.28605e-09
-2.55241e-28
1.29658e-09
0
1.30696e-09
1.85037e-18
1.31721e-09
0
1.32733e-09
-1.85037e-18
1.33729e-09
1.85037e-18
1.3471e-09
1.85037e-18
1.3568e-09
-1.85037e-18
1.3664e-09
-1.85037e-18
1.37594e-09
-1.85037e-18
1.38543e-09
0
1.3949e-09
0
1.40435e-09
0
1.41376e-09
-1.85037e-18
1.42315e-09
1.85037e-18
1.43251e-09
1.85037e-18
1.44186e-09
-1.85037e-18
1.45121e-09
0
1.4605e-09
1.85037e-18
1.4697e-09
-5.5511e-18
1.47879e-09
0
1.48776e-09
1.85037e-18
1.49659e-09
0
1.50529e-09
-1.85037e-18
1.5139e-09
-1.85037e-18
1.5225e-09
1.40964e-28
1.53117e-09
-3.70074e-18
1.53997e-09
-1.85037e-18
1.54894e-09
0
1.55809e-09
0
1.56742e-09
-1.85037e-18
1.57692e-09
1.51758e-28
1.5866e-09
1.62091e-28
1.59642e-09
3.70074e-18
1.60639e-09
0
1.61646e-09
0
1.62664e-09
0
1.63691e-09
0
1.64728e-09
0
1.65776e-09
0
1.66832e-09
0
1.67893e-09
0
1.68958e-09
0
1.70024e-09
-3.70073e-18
1.7109e-09
-3.70073e-18
1.72155e-09
0
1.73218e-09
0
1.74277e-09
0
1.75333e-09
0
1.76385e-09
0
1.77432e-09
0
1.78475e-09
-5.68126e-28
1.79512e-09
0
1.80544e-09
0
1.8157e-09
0
1.82586e-09
3.70073e-18
1.83593e-09
-3.70073e-18
1.8459e-09
-3.70073e-18
1.85575e-09
-3.70073e-18
1.86548e-09
0
1.87509e-09
3.70073e-18
1.88456e-09
-3.70073e-18
1.89389e-09
0
1.90307e-09
-3.70073e-18
1.91211e-09
0
1.92099e-09
0
1.92974e-09
3.70073e-18
1.93833e-09
0
1.94676e-09
3.70073e-18
1.95503e-09
0
1.96314e-09
7.06363e-28
1.97109e-09
3.70073e-18
1.97887e-09
0
1.98648e-09
0
1.99393e-09
0
2.00121e-09
0
2.00832e-09
3.70073e-18
2.01526e-09
-3.70073e-18
2.02203e-09
0
2.02862e-09
0
2.03504e-09
7.40145e-18
2.04127e-09
7.40145e-18
2.04732e-09
7.38131e-28
2.0532e-09
-3.70073e-18
2.05888e-09
-3.70073e-18
2.06438e-09
3.70073e-18
2.06969e-09
0
2.0748e-09
3.70073e-18
2.07971e-09
3.70073e-18
2.08442e-09
0
2.08894e-09
-3.70073e-18
2.09326e-09
-7.40145e-18
2.0974e-09
0
2.10134e-09
-7.31994e-28
2.1051e-09
0
2.10869e-09
0
2.1121e-09
7.40146e-18
2.11535e-09
0
2.11845e-09
-3.70073e-18
2.12141e-09
3.70073e-18
2.12425e-09
6.61902e-28
2.12698e-09
-6.52864e-28
2.1296e-09
-3.70073e-18
2.13213e-09
3.70073e-18
2.13456e-09
-3.70073e-18
2.13691e-09
6.32364e-28
2.13918e-09
3.70073e-18
2.14138e-09
0
2.1435e-09
3.70073e-18
2.14555e-09
-3.70073e-18
2.14754e-09
3.70073e-18
2.14947e-09
0
2.15133e-09
3.70073e-18
2.15314e-09
-3.70073e-18
2.15489e-09
3.70073e-18
2.15659e-09
3.70073e-18
2.15823e-09
0
2.15982e-09
-3.70073e-18
2.16136e-09
-3.70073e-18
2.16286e-09
-5.93303e-28
2.16432e-09
-3.70073e-18
2.16574e-09
0
2.16714e-09
3.70073e-18
2.1685e-09
-3.70073e-18
2.16983e-09
-3.70073e-18
2.17113e-09
3.70073e-18
2.17241e-09
5.54043e-28
2.17367e-09
3.70073e-18
2.17493e-09
3.70073e-18
2.1762e-09
7.40147e-18
2.17752e-09
-4.50833e-28
2.17891e-09
7.40147e-18
2.18041e-09
0
2.18203e-09
0
2.1838e-09
4.64455e-28
2.18572e-09
-4.81618e-28
2.18774e-09
7.40147e-18
2.18986e-09
5.07396e-28
2.19206e-09
-7.40147e-18
2.19433e-09
3.70073e-18
2.19666e-09
-3.70073e-18
2.19903e-09
5.42902e-28
2.20144e-09
7.40146e-18
2.20389e-09
0
2.20636e-09
3.70073e-18
2.20885e-09
0
2.21136e-09
7.40146e-18
2.21386e-09
-7.40146e-18
2.21637e-09
0
2.21887e-09
0
2.22134e-09
0
2.2238e-09
0
2.22621e-09
0
2.22859e-09
0
2.23091e-09
7.40146e-18
2.23318e-09
0
2.23538e-09
-7.40146e-18
2.23751e-09
0
2.23958e-09
0
2.24156e-09
-7.40146e-18
2.24346e-09
7.40146e-18
2.24528e-09
-7.40146e-18
2.24702e-09
-7.40146e-18
2.24868e-09
0
2.25025e-09
7.40146e-18
2.25174e-09
1.33051e-27
2.25314e-09
0
2.25447e-09
1.48029e-17
2.25571e-09
-7.40146e-18
2.25687e-09
0
2.25796e-09
0
2.25897e-09
0
2.2599e-09
0
2.26076e-09
0
2.26154e-09
0
2.26224e-09
-7.40146e-18
2.26286e-09
0
2.2634e-09
0
2.26387e-09
0
2.26425e-09
7.40146e-18
2.26456e-09
-1.3081e-27
2.2648e-09
0
2.26497e-09
7.40146e-18
2.26506e-09
0
2.26508e-09
-7.40146e-18
2.26502e-09
0
2.26489e-09
1.32808e-27
2.26467e-09
0
2.26437e-09
7.40146e-18
2.26398e-09
0
2.2635e-09
0
2.26293e-09
-1.34111e-27
2.26227e-09
0
2.26152e-09
0
2.26068e-09
1.34371e-27
2.25974e-09
0
2.25869e-09
7.40146e-18
2.25756e-09
1.3332e-27
2.25632e-09
0
2.25499e-09
7.40146e-18
2.25356e-09
-7.40146e-18
2.25205e-09
-7.40146e-18
2.25047e-09
0
2.24882e-09
0
2.24712e-09
0
2.24537e-09
0
2.24361e-09
-7.40147e-18
2.24185e-09
0
2.24011e-09
-7.40147e-18
2.23842e-09
0
2.23679e-09
0
2.23524e-09
7.40147e-18
2.23377e-09
7.40147e-18
2.2324e-09
0
2.23114e-09
7.40147e-18
2.23001e-09
0
2.22901e-09
0
2.22814e-09
0
2.22741e-09
-7.40147e-18
2.22681e-09
-7.40147e-18
2.22633e-09
-7.40147e-18
2.22595e-09
0
2.22568e-09
7.40147e-18
2.22549e-09
0
2.22537e-09
-1.01288e-27
2.22529e-09
1.48029e-17
2.22527e-09
7.40147e-18
2.22531e-09
-7.40147e-18
2.2254e-09
0
2.22555e-09
1.04795e-27
2.22573e-09
7.40147e-18
2.22596e-09
7.40147e-18
2.22624e-09
0
2.22656e-09
7.40147e-18
2.22692e-09
7.40147e-18
2.22733e-09
7.40147e-18
2.22779e-09
0
2.2283e-09
-7.40147e-18
2.22888e-09
7.40147e-18
2.22952e-09
-7.40147e-18
2.23022e-09
-7.40147e-18
2.23099e-09
7.40147e-18
2.23184e-09
-1.00466e-27
2.23276e-09
7.40147e-18
2.23375e-09
7.40147e-18
2.23482e-09
-7.40147e-18
2.23595e-09
7.40147e-18
2.23715e-09
-7.40147e-18
2.23842e-09
0
2.23975e-09
7.40147e-18
2.24114e-09
0
2.24257e-09
7.40147e-18
2.24406e-09
0
2.24559e-09
-1.0913e-27
2.24716e-09
0
2.24877e-09
7.40147e-18
2.25042e-09
7.40147e-18
2.2521e-09
-1.48029e-17
2.25381e-09
-7.40147e-18
2.25556e-09
-1.08636e-27
2.25734e-09
0
2.25917e-09
-1.08756e-27
2.26105e-09
0
2.26296e-09
0
2.26492e-09
7.40147e-18
2.26691e-09
0
2.26894e-09
7.40147e-18
2.27101e-09
0
2.27311e-09
-7.40147e-18
2.27525e-09
-7.40147e-18
2.27742e-09
-7.40147e-18
2.27963e-09
-1.48029e-17
2.28188e-09
-1.14661e-27
2.28416e-09
7.40147e-18
2.28646e-09
-7.40147e-18
2.28878e-09
-7.40147e-18
2.29112e-09
2.22044e-17
2.29344e-09
-1.2357e-27
2.29576e-09
1.25678e-27
2.29807e-09
-7.40146e-18
2.30035e-09
1.27098e-27
2.30259e-09
0
2.3048e-09
-7.40146e-18
2.30697e-09
-7.40146e-18
2.3091e-09
-1.48029e-17
2.31118e-09
7.40146e-18
2.31321e-09
7.40146e-18
2.31519e-09
0
2.31712e-09
1.23734e-27
2.31902e-09
0
2.32089e-09
-1.48029e-17
2.32275e-09
1.15921e-27
2.32461e-09
7.40147e-18
2.3265e-09
2.29515e-27
2.32841e-09
0
2.33036e-09
0
2.33233e-09
1.48029e-17
2.33434e-09
-7.40147e-18
2.33639e-09
7.40147e-18
2.33847e-09
1.16798e-27
2.34059e-09
-1.18127e-27
2.34273e-09
1.20214e-27
2.34489e-09
1.22648e-27
2.34707e-09
0
2.34925e-09
-1.48029e-17
2.35143e-09
7.40146e-18
2.35359e-09
1.31774e-27
2.35571e-09
2.67316e-27
2.3578e-09
0
2.35984e-09
0
2.36181e-09
-7.40146e-18
2.36372e-09
7.40146e-18
2.36555e-09
-7.40146e-18
2.3673e-09
-1.41178e-27
2.36897e-09
-7.40146e-18
2.37054e-09
1.48029e-17
2.37203e-09
-1.48029e-17
2.37341e-09
1.43606e-27
2.37468e-09
7.40146e-18
2.37585e-09
1.48029e-17
2.37692e-09
1.40614e-27
2.37789e-09
-7.40146e-18
2.37876e-09
-7.40146e-18
2.37955e-09
-7.40146e-18
2.38026e-09
7.40146e-18
2.3809e-09
0
2.38147e-09
7.40147e-18
2.38199e-09
-7.40147e-18
2.38246e-09
-1.48029e-17
2.38289e-09
-1.48029e-17
2.38331e-09
7.40147e-18
2.38372e-09
7.40147e-18
2.38414e-09
0
2.38458e-09
1.12026e-27
2.38505e-09
1.48029e-17
2.38558e-09
7.40147e-18
2.38616e-09
1.48029e-17
2.38681e-09
0
2.38753e-09
7.40147e-18
2.38834e-09
7.40147e-18
2.38923e-09
7.40147e-18
2.3902e-09
1.11996e-27
2.39124e-09
-1.48029e-17
2.39234e-09
-7.40147e-18
2.39349e-09
-7.40147e-18
2.39468e-09
1.48029e-17
2.39588e-09
1.26394e-27
2.39708e-09
-1.28027e-27
2.39828e-09
0
2.39945e-09
-7.40147e-18
2.4006e-09
-1.29852e-27
2.40172e-09
0
2.40281e-09
0
2.40387e-09
-7.40147e-18
2.4049e-09
1.25293e-27
2.40591e-09
-1.48029e-17
2.40691e-09
-7.40147e-18
2.4079e-09
-1.48029e-17
2.4089e-09
0
2.40992e-09
0
2.41097e-09
-1.14128e-27
2.41205e-09
1.12711e-27
2.41319e-09
-7.40147e-18
2.41437e-09
-1.48029e-17
2.41562e-09
-1.10208e-27
2.41693e-09
0
2.41832e-09
0
2.41978e-09
-1.48029e-17
2.42131e-09
1.48029e-17
2.4229e-09
0
2.42456e-09
2.28189e-27
2.42629e-09
0
2.42807e-09
0
2.4299e-09
0
2.43179e-09
0
2.43374e-09
-1.48029e-17
2.43574e-09
0
2.43779e-09
1.48029e-17
2.43989e-09
0
2.44204e-09
0
2.44423e-09
2.46256e-27
2.44645e-09
0
2.44868e-09
-2.51964e-27
2.45094e-09
1.48029e-17
2.4532e-09
1.48029e-17
2.45546e-09
0
2.45773e-09
1.48029e-17
2.46e-09
1.48029e-17
2.46226e-09
0
2.46453e-09
1.48029e-17
2.46681e-09
1.48029e-17
2.46911e-09
-1.48029e-17
2.47145e-09
-1.48029e-17
2.47382e-09
-1.48029e-17
2.47624e-09
1.48029e-17
2.47872e-09
1.48029e-17
2.48127e-09
0
2.48389e-09
0
2.48657e-09
0
2.48931e-09
0
2.4921e-09
-2.96059e-17
2.49493e-09
1.48029e-17
2.49779e-09
-1.48029e-17
2.50065e-09
1.48029e-17
2.50351e-09
1.48029e-17
2.50635e-09
0
2.50914e-09
2.90467e-27
2.51188e-09
0
2.51455e-09
1.48029e-17
2.51714e-09
0
2.51966e-09
-1.48029e-17
2.5221e-09
0
2.52447e-09
0
2.52676e-09
1.48029e-17
2.52898e-09
-1.48029e-17
2.53112e-09
-1.48029e-17
2.53318e-09
0
2.53516e-09
0
2.53706e-09
0
2.5389e-09
0
2.54069e-09
-1.48029e-17
2.54245e-09
0
2.5442e-09
0
2.54595e-09
0
2.54772e-09
0
2.54951e-09
0
2.55133e-09
0
2.55317e-09
-1.48029e-17
2.55503e-09
0
2.55691e-09
1.48029e-17
2.5588e-09
0
2.56069e-09
-1.48029e-17
2.56258e-09
-1.48029e-17
2.56449e-09
0
2.56641e-09
1.48029e-17
2.56835e-09
2.55717e-27
2.57031e-09
-1.48029e-17
2.5723e-09
0
2.57432e-09
-1.48029e-17
2.57637e-09
1.48029e-17
2.57845e-09
1.48029e-17
2.58056e-09
0
2.58269e-09
1.48029e-17
2.58483e-09
1.48029e-17
2.58697e-09
1.48029e-17
2.5891e-09
0
2.59122e-09
-1.48029e-17
2.59334e-09
0
2.59548e-09
0
2.59766e-09
-1.48029e-17
2.59992e-09
1.48029e-17
2.60231e-09
0
2.60492e-09
0
2.60787e-09
-1.4803e-17
2.61136e-09
0
2.61567e-09
0
2.62126e-09
-1.48031e-17
2.62878e-09
-1.48031e-17
2.63917e-09
0
2.65376e-09
-1.48031e-17
2.67428e-09
1.85648e-26
2.7025e-09
0
2.73702e-09
0
2.75493e-09
0
2.67623e-09
-3.9867e-26
2.01891e-09
-1.48607e-17
8.30608e-10
-5.2703e-25
1.18194e-10
-1.48047e-17
9.59032e-12
-1.48037e-17
2.84676e-12
-1.48033e-17
1.1804e-12
0
5.88482e-13
-1.48031e-17
3.26229e-13
0
1.90259e-13
-1.4803e-17
1.10662e-13
0
5.8107e-14
1.81292e-14
0
1.54023e-17
0
4.7626e-17
9.2886e-33
8.32667e-17
-1.15648e-19
1.25373e-16
-1.15648e-19
1.77205e-16
5.07563e-32
2.42913e-16
-2.31296e-19
3.27495e-16
-2.31296e-19
4.3799e-16
2.31296e-19
5.83289e-16
0
7.74792e-16
-4.62593e-19
1.02885e-15
5.66063e-31
1.3667e-15
2.31296e-19
1.81773e-15
4.62593e-19
2.42199e-15
-9.25186e-19
3.23557e-15
-3.61208e-30
4.34017e-15
4.62593e-19
5.85432e-15
0
7.9466e-15
0
1.08528e-14
0
1.49184e-14
4.62593e-19
2.07013e-14
0
2.93293e-14
-4.62594e-19
4.25907e-14
5.15045e-29
6.07695e-14
-9.2519e-19
7.82486e-14
4.62596e-19
7.4158e-14
-4.62597e-19
-1.16099e-13
0
-2.30542e-12
0
-1.10153e-11
-9.25382e-19
-1.40593e-11
9.25348e-19
1.5703e-11
0
7.74179e-11
9.25198e-19
1.48939e-10
-9.25162e-19
2.20935e-10
9.25144e-19
2.92617e-10
0
3.61941e-10
0
4.2702e-10
0
4.87278e-10
-1.65536e-27
5.42746e-10
9.25148e-19
5.93713e-10
9.25152e-19
6.4055e-10
-9.25155e-19
6.83668e-10
9.25158e-19
7.23474e-10
-9.25159e-19
7.60328e-10
1.05884e-27
7.94515e-10
1.85032e-18
8.26242e-10
9.32969e-28
8.5568e-10
9.25166e-19
8.83005e-10
1.85034e-18
9.08417e-10
0
9.32131e-10
-9.25171e-19
9.54362e-10
0
9.75307e-10
-9.25173e-19
9.95155e-10
0
1.01408e-09
0
1.03221e-09
-1.85035e-18
1.04963e-09
1.85035e-18
1.06638e-09
0
1.0825e-09
-3.7007e-18
1.09803e-09
-1.85035e-18
1.11302e-09
0
1.12751e-09
1.85035e-18
1.14153e-09
0
1.1551e-09
6.84137e-28
1.16828e-09
1.85036e-18
1.18112e-09
1.85036e-18
1.19366e-09
0
1.20596e-09
0
1.21804e-09
-1.85036e-18
1.2299e-09
0
1.24156e-09
0
1.25299e-09
1.85036e-18
1.2642e-09
0
1.27516e-09
0
1.2859e-09
-5.89156e-28
1.29643e-09
0
1.30681e-09
0
1.31707e-09
1.85036e-18
1.32718e-09
-5.9455e-28
1.33714e-09
1.85036e-18
1.34696e-09
5.62812e-28
1.35666e-09
-5.50688e-28
1.36626e-09
-1.85036e-18
1.3758e-09
5.34097e-28
1.3853e-09
5.38298e-28
1.39477e-09
0
1.40421e-09
0
1.41363e-09
-1.85036e-18
1.42301e-09
3.70072e-18
1.43237e-09
0
1.44173e-09
-1.85036e-18
1.45107e-09
0
1.46035e-09
-3.70071e-18
1.46955e-09
3.70071e-18
1.47863e-09
-3.70071e-18
1.4876e-09
3.70071e-18
1.49644e-09
-1.85036e-18
1.50514e-09
5.30565e-28
1.51376e-09
1.85036e-18
1.52237e-09
4.61571e-28
1.53105e-09
-1.85036e-18
1.53986e-09
1.85036e-18
1.54883e-09
3.70072e-18
1.55798e-09
4.53799e-28
1.56731e-09
-1.85036e-18
1.57681e-09
3.70072e-18
1.58648e-09
3.70072e-18
1.5963e-09
1.85036e-18
1.60626e-09
-3.70072e-18
1.61634e-09
0
1.62651e-09
-3.70072e-18
1.63678e-09
0
1.64715e-09
3.70072e-18
1.65763e-09
0
1.66818e-09
0
1.67879e-09
3.70072e-18
1.68943e-09
0
1.70009e-09
-1.28701e-27
1.71075e-09
0
1.72139e-09
0
1.73202e-09
7.40143e-18
1.74261e-09
-1.35465e-27
1.75317e-09
-3.70071e-18
1.76368e-09
0
1.77415e-09
0
1.78458e-09
-1.41835e-27
1.79495e-09
0
1.80527e-09
0
1.81552e-09
0
1.82568e-09
3.70071e-18
1.83575e-09
-3.70071e-18
1.84571e-09
-3.70071e-18
1.85556e-09
-3.70071e-18
1.86529e-09
0
1.8749e-09
-7.40142e-18
1.88436e-09
0
1.89369e-09
0
1.90287e-09
0
1.91191e-09
3.70071e-18
1.9208e-09
-3.70071e-18
1.92953e-09
-3.70071e-18
1.93812e-09
-3.70071e-18
1.94656e-09
-3.70071e-18
1.95483e-09
0
1.96294e-09
0
1.97088e-09
0
1.97866e-09
-3.70071e-18
1.98628e-09
3.70071e-18
1.99372e-09
-3.70071e-18
2.001e-09
0
2.00811e-09
0
2.01505e-09
0
2.02182e-09
0
2.02841e-09
3.7007e-18
2.03482e-09
-1.75186e-27
2.04106e-09
-3.7007e-18
2.04711e-09
-3.7007e-18
2.05298e-09
1.77244e-27
2.05867e-09
1.78336e-27
2.06417e-09
0
2.06947e-09
0
2.07458e-09
-3.7007e-18
2.07949e-09
3.7007e-18
2.0842e-09
0
2.08872e-09
-3.7007e-18
2.09304e-09
3.7007e-18
2.09718e-09
0
2.10112e-09
-7.40141e-18
2.10488e-09
3.70071e-18
2.10847e-09
3.70071e-18
2.11188e-09
-1.73102e-27
2.11513e-09
3.70071e-18
2.11823e-09
3.70071e-18
2.1212e-09
-3.70071e-18
2.12405e-09
-3.70071e-18
2.12678e-09
7.40142e-18
2.1294e-09
-1.65784e-27
2.13192e-09
-3.70071e-18
2.13436e-09
-3.70071e-18
2.13671e-09
3.70071e-18
2.13898e-09
0
2.14118e-09
-3.70071e-18
2.1433e-09
7.40142e-18
2.14535e-09
3.70071e-18
2.14734e-09
-3.70071e-18
2.14927e-09
3.70071e-18
2.15113e-09
3.70071e-18
2.15294e-09
1.61958e-27
2.15469e-09
7.40142e-18
2.15639e-09
0
2.15803e-09
1.61047e-27
2.15962e-09
-3.70071e-18
2.16116e-09
3.70071e-18
2.16266e-09
7.40142e-18
2.16412e-09
-1.59277e-27
2.16555e-09
0
2.16694e-09
-1.58729e-27
2.1683e-09
3.70071e-18
2.16963e-09
3.70071e-18
2.17093e-09
3.70071e-18
2.17221e-09
7.40142e-18
2.17348e-09
-7.40142e-18
2.17474e-09
1.4643e-27
2.17602e-09
-7.40143e-18
2.17734e-09
0
2.17874e-09
-1.35766e-27
2.18024e-09
0
2.18186e-09
-7.40143e-18
2.18364e-09
1.11021e-17
2.18554e-09
3.70071e-18
2.18757e-09
0
2.18968e-09
3.70071e-18
2.19188e-09
-3.70071e-18
2.19415e-09
0
2.19647e-09
-3.70071e-18
2.19884e-09
3.70071e-18
2.20125e-09
-3.70071e-18
2.2037e-09
-1.55608e-27
2.20617e-09
-3.70071e-18
2.20866e-09
0
2.21116e-09
7.40142e-18
2.21367e-09
7.40142e-18
2.21617e-09
7.40142e-18
2.21867e-09
0
2.22114e-09
0
2.22359e-09
-3.32314e-27
2.22601e-09
7.40142e-18
2.22838e-09
0
2.23071e-09
7.40142e-18
2.23297e-09
0
2.23517e-09
-7.40142e-18
2.23731e-09
0
2.23937e-09
0
2.24135e-09
7.40142e-18
2.24325e-09
0
2.24507e-09
0
2.24681e-09
0
2.24846e-09
0
2.25004e-09
7.40142e-18
2.25153e-09
-7.40142e-18
2.25293e-09
7.40142e-18
2.25425e-09
7.40142e-18
2.2555e-09
3.44857e-27
2.25666e-09
7.40142e-18
2.25775e-09
7.40142e-18
2.25876e-09
-1.48028e-17
2.25969e-09
7.40142e-18
2.26055e-09
7.40142e-18
2.26133e-09
0
2.26203e-09
0
2.26265e-09
-7.40142e-18
2.26319e-09
0
2.26365e-09
0
2.26404e-09
-1.48028e-17
2.26435e-09
0
2.26459e-09
0
2.26476e-09
0
2.26485e-09
7.40142e-18
2.26487e-09
1.48028e-17
2.26481e-09
-7.40142e-18
2.26467e-09
0
2.26446e-09
7.40142e-18
2.26415e-09
7.40142e-18
2.26377e-09
-7.40142e-18
2.26329e-09
7.40142e-18
2.26272e-09
0
2.26206e-09
-7.40142e-18
2.26131e-09
-7.40142e-18
2.26046e-09
7.40142e-18
2.25952e-09
0
2.25848e-09
0
2.25734e-09
-7.40142e-18
2.25611e-09
-3.44775e-27
2.25478e-09
0
2.25335e-09
-7.40142e-18
2.25185e-09
7.40142e-18
2.25026e-09
0
2.24861e-09
-3.2582e-27
2.24691e-09
-3.19431e-27
2.24518e-09
7.40143e-18
2.24342e-09
0
2.24166e-09
1.48029e-17
2.23993e-09
0
2.23824e-09
0
2.23661e-09
7.40143e-18
2.23506e-09
-7.40143e-18
2.23359e-09
0
2.23223e-09
0
2.23097e-09
-7.40143e-18
2.22984e-09
2.76505e-27
2.22884e-09
0
2.22797e-09
-2.7895e-27
2.22724e-09
0
2.22663e-09
0
2.22615e-09
1.48029e-17
2.22578e-09
0
2.2255e-09
0
2.22531e-09
7.40143e-18
2.22518e-09
0
2.22511e-09
-7.40143e-18
2.22509e-09
0
2.22512e-09
7.40143e-18
2.22522e-09
-7.40143e-18
2.22536e-09
-3.02622e-27
2.22555e-09
0
2.22578e-09
-7.40143e-18
2.22605e-09
-3.02634e-27
2.22637e-09
3.02412e-27
2.22674e-09
0
2.22715e-09
-7.40143e-18
2.2276e-09
0
2.22812e-09
-7.40143e-18
2.2287e-09