/*--------------------------------*- C++ -*----------------------------------*\
| =========                 |                                                 |
| \\      /  F ield         | foam-extend: Open Source CFD                    |
|  \\    /   O peration     | Version:     3.2                                |
|   \\  /    A nd           | Web:         http://www.foam-extend.org         |
|    \\/     M anipulation  | For copyright notice see file Copyright         |
\*---------------------------------------------------------------------------*/
FoamFile
{
    version     2.0;
    format      ascii;
    class       volScalarField;
    location    "120";
    object      nut;
}
// * * * * * * * * * * * * * * * * * * * * * * * * * * * * * * * * * * * * * //

dimensions      [0 2 -1 0 0 0 0];

internalField   nonuniform List<scalar> 
33000
(
6.20198e-06
7.46283e-06
8.74596e-06
1.00205e-05
1.12571e-05
1.24256e-05
1.35038e-05
1.44719e-05
1.53204e-05
1.60432e-05
1.66428e-05
1.71234e-05
1.74953e-05
1.77682e-05
1.79541e-05
1.80643e-05
1.81109e-05
1.81046e-05
1.79498e-05
1.72736e-05
1.66217e-05
1.60177e-05
1.5451e-05
1.49311e-05
1.44529e-05
1.40197e-05
1.36311e-05
1.32812e-05
1.29552e-05
1.26683e-05
1.24113e-05
1.21819e-05
1.19764e-05
1.17852e-05
1.16162e-05
1.1462e-05
1.13267e-05
1.12054e-05
1.10987e-05
1.10038e-05
1.0921e-05
1.08479e-05
1.07851e-05
1.0731e-05
1.06856e-05
1.06471e-05
1.06161e-05
1.05925e-05
1.05759e-05
1.05657e-05
1.05613e-05
1.05622e-05
1.0568e-05
1.05779e-05
1.05915e-05
1.06082e-05
1.06278e-05
1.06497e-05
1.06736e-05
1.06995e-05
1.07268e-05
1.07556e-05
1.07854e-05
1.08163e-05
1.0848e-05
1.08805e-05
1.09134e-05
1.09468e-05
1.09803e-05
1.10141e-05
1.10477e-05
1.10814e-05
1.11147e-05
1.11477e-05
1.11804e-05
1.12125e-05
1.12438e-05
1.12745e-05
1.13046e-05
1.1334e-05
1.13624e-05
1.13903e-05
1.14173e-05
1.14436e-05
1.14689e-05
1.14935e-05
1.1517e-05
1.15398e-05
1.15614e-05
1.15822e-05
1.16018e-05
1.16205e-05
1.16389e-05
1.16565e-05
1.16739e-05
1.16909e-05
1.17084e-05
1.17266e-05
1.17447e-05
1.1763e-05
1.17816e-05
1.18001e-05
1.18186e-05
1.18369e-05
1.18551e-05
1.1873e-05
1.18906e-05
1.19078e-05
1.19247e-05
1.1941e-05
1.1957e-05
1.19726e-05
1.19872e-05
1.20016e-05
1.20154e-05
1.20285e-05
1.20411e-05
1.2053e-05
1.20644e-05
1.20751e-05
1.20852e-05
1.20946e-05
1.21034e-05
1.21115e-05
1.21189e-05
1.21257e-05
1.21318e-05
1.21374e-05
1.21423e-05
1.21466e-05
1.21505e-05
1.21538e-05
1.21566e-05
1.2159e-05
1.21609e-05
1.21625e-05
1.21636e-05
1.21644e-05
1.21648e-05
1.21649e-05
1.21646e-05
1.2164e-05
1.21632e-05
1.21621e-05
1.21607e-05
1.2159e-05
1.21572e-05
1.21552e-05
1.21531e-05
1.21508e-05
1.21483e-05
1.21457e-05
1.2143e-05
1.21402e-05
1.21374e-05
1.21344e-05
1.21314e-05
1.21284e-05
1.21253e-05
1.21223e-05
1.21194e-05
1.21165e-05
1.21137e-05
1.2111e-05
1.21084e-05
1.2106e-05
1.21037e-05
1.21016e-05
1.20998e-05
1.20981e-05
1.20966e-05
1.20953e-05
1.20942e-05
1.20933e-05
1.20927e-05
1.20924e-05
1.20923e-05
1.20925e-05
1.20931e-05
1.2094e-05
1.20952e-05
1.20967e-05
1.20986e-05
1.21009e-05
1.21035e-05
1.21065e-05
1.21099e-05
1.21137e-05
1.21179e-05
1.21225e-05
1.21276e-05
1.21332e-05
1.21391e-05
1.21456e-05
1.21525e-05
1.21598e-05
1.21676e-05
1.21758e-05
1.21843e-05
1.21933e-05
1.22025e-05
1.22121e-05
1.22219e-05
1.22319e-05
1.22419e-05
1.22514e-05
1.22604e-05
1.2269e-05
1.2277e-05
1.22846e-05
1.22918e-05
1.22985e-05
1.23047e-05
1.23106e-05
1.23161e-05
1.23212e-05
1.2326e-05
1.23305e-05
1.23347e-05
1.23387e-05
1.23424e-05
1.23459e-05
1.23492e-05
1.23522e-05
1.2355e-05
1.23575e-05
1.23598e-05
1.23618e-05
1.23635e-05
1.2365e-05
1.23663e-05
1.23674e-05
1.23684e-05
1.23691e-05
1.23696e-05
1.237e-05
1.23702e-05
1.23702e-05
1.23701e-05
1.23698e-05
1.23694e-05
1.2369e-05
1.23684e-05
1.23677e-05
1.2367e-05
1.23661e-05
1.23652e-05
1.23641e-05
1.2363e-05
1.23619e-05
1.23606e-05
1.23593e-05
1.23579e-05
1.23565e-05
1.2355e-05
1.23535e-05
1.2352e-05
1.23505e-05
1.2349e-05
1.23474e-05
1.23459e-05
1.23444e-05
1.23429e-05
1.23414e-05
1.234e-05
1.23386e-05
1.23374e-05
1.23362e-05
1.2335e-05
1.2334e-05
1.2333e-05
1.23322e-05
1.23314e-05
1.23307e-05
1.23301e-05
1.23295e-05
1.2329e-05
1.23286e-05
1.23283e-05
1.2328e-05
1.23278e-05
1.23277e-05
1.23276e-05
1.23276e-05
1.23277e-05
1.23279e-05
1.23282e-05
1.23286e-05
1.23291e-05
1.23297e-05
1.23303e-05
1.23311e-05
1.23319e-05
1.23328e-05
1.23337e-05
1.23348e-05
1.2336e-05
1.23373e-05
1.23388e-05
1.23405e-05
1.23422e-05
1.23442e-05
1.23462e-05
1.23484e-05
1.23508e-05
1.23533e-05
1.23559e-05
1.23588e-05
1.23618e-05
1.23651e-05
1.23685e-05
1.23721e-05
1.23759e-05
1.23799e-05
1.23839e-05
1.23881e-05
1.23924e-05
1.23968e-05
1.24011e-05
1.24055e-05
1.24099e-05
1.24142e-05
1.24182e-05
1.24174e-05
1.24165e-05
1.24156e-05
1.24145e-05
1.24133e-05
1.24119e-05
1.24104e-05
1.24087e-05
1.24069e-05
1.24049e-05
1.24026e-05
1.24002e-05
1.23976e-05
1.23949e-05
1.23919e-05
1.23888e-05
1.23855e-05
1.23821e-05
1.23786e-05
1.23749e-05
1.23711e-05
1.23673e-05
1.23634e-05
1.23594e-05
1.23553e-05
1.23512e-05
1.23471e-05
1.23429e-05
1.23386e-05
1.23343e-05
1.233e-05
1.23256e-05
1.23212e-05
1.23167e-05
1.23122e-05
1.23076e-05
1.23029e-05
1.22982e-05
1.22933e-05
1.22884e-05
1.22835e-05
1.22784e-05
1.22733e-05
1.2268e-05
1.22627e-05
1.22573e-05
1.22519e-05
1.22463e-05
1.22407e-05
1.2235e-05
1.22293e-05
1.22235e-05
1.22176e-05
1.22117e-05
1.22057e-05
1.21997e-05
1.21937e-05
1.21876e-05
1.21816e-05
1.21755e-05
1.21693e-05
1.21632e-05
1.21571e-05
1.21509e-05
1.21447e-05
1.21386e-05
1.21324e-05
1.21262e-05
1.212e-05
1.21137e-05
1.2107e-05
1.20985e-05
1.20899e-05
1.20813e-05
1.20727e-05
1.2064e-05
1.20555e-05
1.20469e-05
1.20385e-05
1.20301e-05
1.20219e-05
1.20138e-05
1.20059e-05
1.19983e-05
1.19909e-05
1.19838e-05
1.1977e-05
1.19704e-05
1.1964e-05
1.19579e-05
1.1952e-05
1.19462e-05
1.19407e-05
1.19353e-05
1.193e-05
1.19249e-05
1.19198e-05
1.19149e-05
1.19101e-05
1.19054e-05
1.19007e-05
1.18961e-05
1.18916e-05
1.18871e-05
1.18826e-05
1.18783e-05
1.1874e-05
1.18698e-05
1.18657e-05
1.18618e-05
1.18581e-05
1.18545e-05
1.18511e-05
1.18479e-05
1.18448e-05
1.1842e-05
1.18393e-05
1.18368e-05
1.18344e-05
1.18321e-05
1.18299e-05
1.18278e-05
1.18259e-05
1.18241e-05
1.18225e-05
1.1821e-05
1.18195e-05
1.18181e-05
1.18166e-05
1.18152e-05
1.18137e-05
1.18121e-05
1.18105e-05
1.18089e-05
1.18071e-05
1.18054e-05
1.18034e-05
1.18015e-05
1.17993e-05
1.17972e-05
1.17949e-05
1.17926e-05
1.17903e-05
1.1788e-05
1.17857e-05
1.17835e-05
1.17812e-05
1.1779e-05
1.17767e-05
1.17747e-05
1.17723e-05
1.177e-05
1.17667e-05
1.17634e-05
1.176e-05
1.17567e-05
1.17532e-05
1.17498e-05
1.17462e-05
1.17426e-05
1.17389e-05
1.17352e-05
1.17313e-05
1.17273e-05
1.17232e-05
1.1719e-05
1.17146e-05
1.17102e-05
1.17054e-05
1.17001e-05
1.16929e-05
1.16874e-05
1.16797e-05
1.16742e-05
1.1666e-05
1.16604e-05
1.16516e-05
1.16461e-05
1.16367e-05
1.16313e-05
1.16214e-05
1.16162e-05
1.16057e-05
1.16008e-05
1.15897e-05
1.15851e-05
1.15734e-05
1.15692e-05
1.15567e-05
1.15528e-05
1.15391e-05
1.15356e-05
1.15208e-05
1.15177e-05
1.15018e-05
1.14995e-05
1.14826e-05
1.14812e-05
1.1463e-05
1.14626e-05
1.14428e-05
1.14432e-05
1.14214e-05
1.14216e-05
1.13984e-05
1.1396e-05
1.13692e-05
1.13606e-05
1.13244e-05
1.13046e-05
1.12482e-05
1.1213e-05
1.11205e-05
1.10903e-05
1.10332e-05
1.02795e-05
9.63889e-06
9.38615e-06
8.56472e-06
7.82384e-06
6.54616e-06
6.08869e-06
4.61706e-06
6.00968e-06
3.66559e-06
4.35383e-06
2.39142e-05
5.06367e-05
3.06586e-05
2.21288e-05
1.76449e-05
1.49768e-05
1.33147e-05
1.22499e-05
1.15563e-05
1.1123e-05
1.08582e-05
1.07248e-05
1.06782e-05
1.06962e-05
1.07628e-05
1.08745e-05
1.1025e-05
1.12153e-05
1.14545e-05
1.17464e-05
1.20923e-05
1.25026e-05
1.29881e-05
1.35114e-05
1.40843e-05
1.47181e-05
1.54212e-05
1.61942e-05
1.68135e-05
1.71954e-05
1.7586e-05
1.79824e-05
1.83767e-05
1.8769e-05
1.91471e-05
1.95184e-05
1.98789e-05
2.02338e-05
2.05799e-05
2.09187e-05
2.12491e-05
2.15719e-05
2.1887e-05
2.21948e-05
2.24958e-05
2.27901e-05
2.30781e-05
2.33612e-05
2.36399e-05
2.39141e-05
2.41838e-05
2.44486e-05
2.47085e-05
2.49631e-05
2.5212e-05
2.54547e-05
2.56912e-05
2.59215e-05
2.61452e-05
2.63626e-05
2.65742e-05
2.67802e-05
2.69805e-05
2.71755e-05
2.7366e-05
2.75518e-05
2.7733e-05
2.79094e-05
2.80811e-05
2.82478e-05
2.84096e-05
2.85664e-05
2.87183e-05
2.88652e-05
2.90073e-05
2.91444e-05
2.92762e-05
2.94029e-05
2.95249e-05
2.96423e-05
2.97551e-05
2.98629e-05
2.99667e-05
3.0066e-05
3.01617e-05
3.02531e-05
3.03412e-05
3.04252e-05
3.05065e-05
3.05836e-05
3.06588e-05
3.07293e-05
3.07991e-05
3.08678e-05
3.09352e-05
3.10012e-05
3.10657e-05
3.11285e-05
3.11899e-05
3.12487e-05
3.13052e-05
3.13594e-05
3.14111e-05
3.14605e-05
3.15074e-05
3.15519e-05
3.15938e-05
3.16334e-05
3.16705e-05
3.17054e-05
3.17378e-05
3.17683e-05
3.17965e-05
3.18219e-05
3.18461e-05
3.18681e-05
3.18879e-05
3.1906e-05
3.19221e-05
3.19367e-05
3.19496e-05
3.1961e-05
3.19709e-05
3.19794e-05
3.19866e-05
3.19926e-05
3.19974e-05
3.20013e-05
3.20042e-05
3.20063e-05
3.20076e-05
3.20084e-05
3.20086e-05
3.20084e-05
3.20078e-05
3.20069e-05
3.20057e-05
3.20044e-05
3.20029e-05
3.20013e-05
3.19997e-05
3.19981e-05
3.19966e-05
3.19952e-05
3.1994e-05
3.19929e-05
3.1992e-05
3.19914e-05
3.19911e-05
3.19911e-05
3.19914e-05
3.19922e-05
3.19933e-05
3.19949e-05
3.19969e-05
3.19995e-05
3.20025e-05
3.20062e-05
3.20104e-05
3.20153e-05
3.20209e-05
3.20273e-05
3.20346e-05
3.20428e-05
3.2052e-05
3.20622e-05
3.20735e-05
3.20859e-05
3.20995e-05
3.21144e-05
3.21305e-05
3.21479e-05
3.21666e-05
3.21867e-05
3.22081e-05
3.22309e-05
3.2255e-05
3.22805e-05
3.23073e-05
3.23355e-05
3.2365e-05
3.23959e-05
3.24279e-05
3.24611e-05
3.24955e-05
3.25308e-05
3.25672e-05
3.26044e-05
3.26426e-05
3.26815e-05
3.27213e-05
3.27617e-05
3.28029e-05
3.28448e-05
3.28873e-05
3.29303e-05
3.29739e-05
3.3018e-05
3.30626e-05
3.31076e-05
3.31529e-05
3.31985e-05
3.32443e-05
3.329e-05
3.33358e-05
3.3372e-05
3.33973e-05
3.34211e-05
3.34434e-05
3.34646e-05
3.34847e-05
3.3504e-05
3.35224e-05
3.35401e-05
3.3557e-05
3.35731e-05
3.35884e-05
3.36029e-05
3.36164e-05
3.36291e-05
3.36408e-05
3.36517e-05
3.36617e-05
3.36708e-05
3.36792e-05
3.36868e-05
3.36937e-05
3.36998e-05
3.37051e-05
3.37096e-05
3.37133e-05
3.37163e-05
3.37186e-05
3.37203e-05
3.37214e-05
3.3722e-05
3.37222e-05
3.3722e-05
3.37216e-05
3.37208e-05
3.37197e-05
3.37185e-05
3.3717e-05
3.37154e-05
3.37137e-05
3.3712e-05
3.37101e-05
3.37082e-05
3.37062e-05
3.37042e-05
3.37022e-05
3.37002e-05
3.36981e-05
3.3696e-05
3.36939e-05
3.36918e-05
3.36899e-05
3.3688e-05
3.36864e-05
3.36851e-05
3.36841e-05
3.36835e-05
3.36834e-05
3.36838e-05
3.36848e-05
3.36864e-05
3.36886e-05
3.36915e-05
3.36951e-05
3.36994e-05
3.37043e-05
3.37098e-05
3.37158e-05
3.37224e-05
3.37293e-05
3.37365e-05
3.37439e-05
3.37514e-05
3.37589e-05
3.37665e-05
3.37739e-05
3.37813e-05
3.37886e-05
3.37957e-05
3.38028e-05
3.38098e-05
3.38169e-05
3.3824e-05
3.38313e-05
3.38388e-05
3.38465e-05
3.38544e-05
3.38626e-05
3.38711e-05
3.38798e-05
3.38887e-05
3.3898e-05
3.39075e-05
3.39173e-05
3.39275e-05
3.39379e-05
3.39487e-05
3.39598e-05
3.39711e-05
3.39827e-05
3.39944e-05
3.40062e-05
3.40181e-05
3.40299e-05
3.40417e-05
3.40534e-05
3.40652e-05
3.4077e-05
3.40887e-05
3.41002e-05
3.41117e-05
3.41232e-05
3.41347e-05
3.41461e-05
3.41572e-05
3.41681e-05
3.41785e-05
3.41884e-05
3.41975e-05
3.42061e-05
3.4214e-05
3.42209e-05
3.42267e-05
3.42312e-05
3.42342e-05
3.42356e-05
3.42353e-05
3.4233e-05
3.42285e-05
3.42219e-05
3.42132e-05
3.42027e-05
3.41904e-05
3.41766e-05
3.41614e-05
3.4145e-05
3.41276e-05
3.41094e-05
3.40905e-05
3.40712e-05
3.40515e-05
3.40314e-05
3.40111e-05
3.39907e-05
3.39702e-05
3.39497e-05
3.39292e-05
3.39088e-05
3.38884e-05
3.38679e-05
3.38474e-05
3.38268e-05
3.3806e-05
3.3785e-05
3.37637e-05
3.3742e-05
3.37202e-05
3.3698e-05
3.36756e-05
3.36529e-05
3.36299e-05
3.36065e-05
3.35827e-05
3.35585e-05
3.3534e-05
3.35091e-05
3.34839e-05
3.34585e-05
3.34329e-05
3.34071e-05
3.33812e-05
3.33551e-05
3.3329e-05
3.33029e-05
3.32767e-05
3.32507e-05
3.32249e-05
3.31993e-05
3.3174e-05
3.31489e-05
3.31241e-05
3.30995e-05
3.30751e-05
3.30509e-05
3.30269e-05
3.30032e-05
3.29796e-05
3.29562e-05
3.29331e-05
3.29103e-05
3.28878e-05
3.28656e-05
3.28439e-05
3.28224e-05
3.28014e-05
3.27808e-05
3.27607e-05
3.27411e-05
3.27221e-05
3.27038e-05
3.26862e-05
3.26694e-05
3.26535e-05
3.26385e-05
3.26244e-05
3.26113e-05
3.25991e-05
3.25877e-05
3.25772e-05
3.25673e-05
3.25579e-05
3.25489e-05
3.25402e-05
3.25317e-05
3.25233e-05
3.2515e-05
3.25067e-05
3.24984e-05
3.24901e-05
3.24819e-05
3.24737e-05
3.24657e-05
3.24578e-05
3.24501e-05
3.24426e-05
3.24354e-05
3.24286e-05
3.24222e-05
3.24162e-05
3.24108e-05
3.2406e-05
3.24017e-05
3.23981e-05
3.2395e-05
3.23925e-05
3.23905e-05
3.2389e-05
3.23877e-05
3.23868e-05
3.23859e-05
3.23852e-05
3.23845e-05
3.23838e-05
3.23831e-05
3.23823e-05
3.23815e-05
3.23805e-05
3.23792e-05
3.23774e-05
3.23752e-05
3.23723e-05
3.23686e-05
3.23641e-05
3.23588e-05
3.23526e-05
3.23455e-05
3.23375e-05
3.23287e-05
3.2319e-05
3.23085e-05
3.22972e-05
3.22854e-05
3.22729e-05
3.22601e-05
3.22469e-05
3.22334e-05
3.22197e-05
3.22059e-05
3.21919e-05
3.21778e-05
3.21636e-05
3.21494e-05
3.21349e-05
3.21202e-05
3.21052e-05
3.20899e-05
3.20741e-05
3.20578e-05
3.20411e-05
3.20238e-05
3.20059e-05
3.19873e-05
3.19679e-05
3.19477e-05
3.19266e-05
3.19047e-05
3.18818e-05
3.18583e-05
3.18338e-05
3.1809e-05
3.17837e-05
3.17583e-05
3.17327e-05
3.17076e-05
3.16823e-05
3.16575e-05
3.16325e-05
3.16081e-05
3.15832e-05
3.15588e-05
3.15338e-05
3.15093e-05
3.1484e-05
3.14592e-05
3.14335e-05
3.14084e-05
3.13821e-05
3.13567e-05
3.133e-05
3.13041e-05
3.12768e-05
3.12505e-05
3.12225e-05
3.11959e-05
3.11675e-05
3.1141e-05
3.11125e-05
3.10864e-05
3.10582e-05
3.10327e-05
3.10045e-05
3.09791e-05
3.09504e-05
3.09227e-05
3.08906e-05
3.08566e-05
3.08147e-05
3.07672e-05
3.07046e-05
3.06298e-05
3.05289e-05
3.03908e-05
3.02639e-05
2.96657e-05
2.88037e-05
2.76167e-05
2.73612e-05
2.59853e-05
2.44604e-05
2.18003e-05
2.02479e-05
1.67763e-05
1.32355e-05
1.44635e-05
1.19433e-05
1.89171e-05
0.000145221
0.000109947
8.33156e-05
6.57784e-05
5.36656e-05
4.50714e-05
3.7675e-05
3.19488e-05
2.75704e-05
2.42742e-05
2.17119e-05
1.9709e-05
1.81081e-05
1.68182e-05
1.57689e-05
1.49119e-05
1.42082e-05
1.3631e-05
1.31607e-05
1.2782e-05
1.24849e-05
1.22648e-05
1.21217e-05
1.20555e-05
1.20648e-05
1.21471e-05
1.23004e-05
1.25195e-05
1.27951e-05
1.31266e-05
1.35079e-05
1.39374e-05
1.44181e-05
1.4923e-05
1.54425e-05
1.59751e-05
1.65207e-05
1.7079e-05
1.76502e-05
1.82347e-05
1.88328e-05
1.94448e-05
2.00723e-05
2.07165e-05
2.13796e-05
2.20635e-05
2.26593e-05
2.32038e-05
2.37484e-05
2.42936e-05
2.48398e-05
2.53871e-05
2.59349e-05
2.64831e-05
2.70306e-05
2.75763e-05
2.81186e-05
2.86565e-05
2.91892e-05
2.97159e-05
3.02359e-05
3.07488e-05
3.12552e-05
3.17549e-05
3.22478e-05
3.27336e-05
3.32122e-05
3.36836e-05
3.41476e-05
3.4604e-05
3.5053e-05
3.5494e-05
3.59275e-05
3.63528e-05
3.677e-05
3.71789e-05
3.75804e-05
3.79738e-05
3.83598e-05
3.87376e-05
3.91093e-05
3.94739e-05
3.98331e-05
4.01858e-05
4.05343e-05
4.08773e-05
4.12175e-05
4.15525e-05
4.18849e-05
4.22127e-05
4.25392e-05
4.28648e-05
4.31869e-05
4.35057e-05
4.38195e-05
4.41144e-05
4.43468e-05
4.45714e-05
4.47886e-05
4.49986e-05
4.52014e-05
4.53974e-05
4.55867e-05
4.57695e-05
4.59461e-05
4.61167e-05
4.62813e-05
4.64403e-05
4.65937e-05
4.67417e-05
4.68845e-05
4.70223e-05
4.7155e-05
4.72827e-05
4.74057e-05
4.75241e-05
4.76382e-05
4.7748e-05
4.78537e-05
4.79557e-05
4.80541e-05
4.81491e-05
4.82409e-05
4.83299e-05
4.8416e-05
4.84997e-05
4.85809e-05
4.86599e-05
4.87369e-05
4.8812e-05
4.88854e-05
4.89573e-05
4.90277e-05
4.90969e-05
4.91651e-05
4.92324e-05
4.92989e-05
4.93647e-05
4.94301e-05
4.9495e-05
4.95596e-05
4.96239e-05
4.96881e-05
4.97522e-05
4.98164e-05
4.98807e-05
4.9945e-05
5.00096e-05
5.00743e-05
5.01394e-05
5.02048e-05
5.02706e-05
5.03369e-05
5.04036e-05
5.04709e-05
5.05389e-05
5.06076e-05
5.06772e-05
5.07476e-05
5.08192e-05
5.0892e-05
5.09662e-05
5.10421e-05
5.11196e-05
5.11992e-05
5.12807e-05
5.13645e-05
5.14506e-05
5.15391e-05
5.16302e-05
5.17239e-05
5.18204e-05
5.19195e-05
5.20214e-05
5.2126e-05
5.22331e-05
5.23427e-05
5.24546e-05
5.25685e-05
5.26844e-05
5.2802e-05
5.2921e-05
5.30414e-05
5.31628e-05
5.3285e-05
5.34078e-05
5.35308e-05
5.36538e-05
5.37766e-05
5.38991e-05
5.40211e-05
5.41425e-05
5.42632e-05
5.43831e-05
5.45021e-05
5.46203e-05
5.47376e-05
5.48539e-05
5.49693e-05
5.50837e-05
5.51972e-05
5.53096e-05
5.54209e-05
5.55309e-05
5.56394e-05
5.57463e-05
5.58513e-05
5.59542e-05
5.60549e-05
5.61534e-05
5.62495e-05
5.63432e-05
5.64345e-05
5.65234e-05
5.66097e-05
5.66932e-05
5.6774e-05
5.68518e-05
5.69267e-05
5.69986e-05
5.70674e-05
5.71334e-05
5.71966e-05
5.7257e-05
5.73147e-05
5.73698e-05
5.74223e-05
5.74723e-05
5.75196e-05
5.75645e-05
5.76069e-05
5.76469e-05
5.76848e-05
5.77207e-05
5.77549e-05
5.77874e-05
5.78186e-05
5.78484e-05
5.78771e-05
5.79046e-05
5.79313e-05
5.7957e-05
5.79821e-05
5.80065e-05
5.80304e-05
5.80538e-05
5.80767e-05
5.80993e-05
5.81214e-05
5.81432e-05
5.81647e-05
5.81858e-05
5.82067e-05
5.82274e-05
5.8248e-05
5.82686e-05
5.82894e-05
5.83107e-05
5.83326e-05
5.83554e-05
5.83793e-05
5.84044e-05
5.84309e-05
5.8459e-05
5.84888e-05
5.85204e-05
5.85538e-05
5.85891e-05
5.86262e-05
5.8665e-05
5.87053e-05
5.87471e-05
5.87899e-05
5.88337e-05
5.88781e-05
5.89228e-05
5.89677e-05
5.90125e-05
5.90571e-05
5.91014e-05
5.91453e-05
5.91887e-05
5.92318e-05
5.92747e-05
5.93174e-05
5.93601e-05
5.94031e-05
5.94464e-05
5.94901e-05
5.95345e-05
5.95795e-05
5.96252e-05
5.96716e-05
5.97188e-05
5.97668e-05
5.98155e-05
5.9865e-05
5.99153e-05
5.99664e-05
6.00182e-05
6.00708e-05
6.0124e-05
6.01776e-05
6.02316e-05
6.02857e-05
6.03397e-05
6.03935e-05
6.04472e-05
6.05006e-05
6.05538e-05
6.06069e-05
6.066e-05
6.0713e-05
6.07659e-05
6.08187e-05
6.08713e-05
6.09237e-05
6.09755e-05
6.10266e-05
6.10767e-05
6.11252e-05
6.11719e-05
6.12162e-05
6.12577e-05
6.12961e-05
6.13308e-05
6.13615e-05
6.13878e-05
6.14091e-05
6.14253e-05
6.1436e-05
6.1441e-05
6.14405e-05
6.14343e-05
6.14227e-05
6.14059e-05
6.13844e-05
6.13585e-05
6.13287e-05
6.12955e-05
6.12594e-05
6.12211e-05
6.1181e-05
6.11395e-05
6.1097e-05
6.10537e-05
6.10098e-05
6.09655e-05
6.09211e-05
6.08766e-05
6.08322e-05
6.07878e-05
6.07434e-05
6.0699e-05
6.06544e-05
6.06094e-05
6.05641e-05
6.05181e-05
6.04714e-05
6.04239e-05
6.03756e-05
6.03266e-05
6.02768e-05
6.02262e-05
6.01746e-05
6.01221e-05
6.00683e-05
6.00135e-05
5.99574e-05
5.99002e-05
5.9842e-05
5.97829e-05
5.97231e-05
5.96626e-05
5.96016e-05
5.95402e-05
5.94785e-05
5.94167e-05
5.93549e-05
5.92935e-05
5.92324e-05
5.9172e-05
5.91122e-05
5.90531e-05
5.89947e-05
5.89371e-05
5.88801e-05
5.88237e-05
5.8768e-05
5.87128e-05
5.86583e-05
5.86044e-05
5.85511e-05
5.84985e-05
5.84465e-05
5.83953e-05
5.83447e-05
5.82948e-05
5.82457e-05
5.81975e-05
5.81505e-05
5.81047e-05
5.80604e-05
5.80179e-05
5.79772e-05
5.79387e-05
5.79025e-05
5.78688e-05
5.78376e-05
5.78091e-05
5.77832e-05
5.77598e-05
5.77386e-05
5.77195e-05
5.7702e-05
5.76859e-05
5.76708e-05
5.76566e-05
5.76431e-05
5.76299e-05
5.76171e-05
5.76047e-05
5.75925e-05
5.75807e-05
5.75692e-05
5.75581e-05
5.75475e-05
5.75375e-05
5.75281e-05
5.75196e-05
5.7512e-05
5.75054e-05
5.75002e-05
5.74962e-05
5.74938e-05
5.7493e-05
5.74937e-05
5.74959e-05
5.74995e-05
5.75044e-05
5.75103e-05
5.75171e-05
5.75244e-05
5.75321e-05
5.754e-05
5.75478e-05
5.75555e-05
5.75631e-05
5.75704e-05
5.75774e-05
5.75838e-05
5.75894e-05
5.75939e-05
5.7597e-05
5.75982e-05
5.75973e-05
5.75941e-05
5.75885e-05
5.75803e-05
5.75696e-05
5.75562e-05
5.75403e-05
5.7522e-05
5.75013e-05
5.74784e-05
5.74537e-05
5.74274e-05
5.73997e-05
5.73711e-05
5.73416e-05
5.73115e-05
5.72809e-05
5.72501e-05
5.72189e-05
5.71877e-05
5.71561e-05
5.71243e-05
5.70919e-05
5.70588e-05
5.70247e-05
5.69896e-05
5.69533e-05
5.69156e-05
5.68764e-05
5.68355e-05
5.67926e-05
5.67477e-05
5.67005e-05
5.66512e-05
5.65995e-05
5.65455e-05
5.64892e-05
5.64311e-05
5.63712e-05
5.63101e-05
5.62481e-05
5.61858e-05
5.61234e-05
5.60613e-05
5.59994e-05
5.59379e-05
5.58764e-05
5.58152e-05
5.57536e-05
5.56921e-05
5.56301e-05
5.55679e-05
5.55048e-05
5.54414e-05
5.5377e-05
5.53121e-05
5.52463e-05
5.518e-05
5.51128e-05
5.50449e-05
5.49761e-05
5.49069e-05
5.48371e-05
5.47672e-05
5.46973e-05
5.46277e-05
5.45586e-05
5.449e-05
5.44223e-05
5.43548e-05
5.42877e-05
5.422e-05
5.41497e-05
5.40766e-05
5.3996e-05
5.39062e-05
5.3801e-05
5.36744e-05
5.35162e-05
5.33183e-05
5.30304e-05
5.27429e-05
5.18131e-05
5.03312e-05
4.89498e-05
4.72656e-05
4.50265e-05
4.18655e-05
3.67022e-05
3.04194e-05
2.54684e-05
1.86435e-05
1.74899e-05
1.94762e-05
3.02529e-05
0.000178034
0.000141339
8.72557e-05
9.05889e-05
9.57682e-05
0.000104073
9.12542e-05
8.06207e-05
7.15631e-05
6.40733e-05
5.77901e-05
5.25333e-05
4.80447e-05
4.42589e-05
4.10118e-05
3.82184e-05
3.57762e-05
3.364e-05
3.17612e-05
3.01055e-05
2.8638e-05
2.73257e-05
2.61251e-05
2.4993e-05
2.39134e-05
2.28953e-05
2.19528e-05
2.10915e-05
2.03196e-05
1.96367e-05
1.90393e-05
1.85188e-05
1.80671e-05
1.76813e-05
1.73588e-05
1.70979e-05
1.68964e-05
1.67526e-05
1.66648e-05
1.6632e-05
1.66609e-05
1.67616e-05
1.6931e-05
1.71624e-05
1.7452e-05
1.77992e-05
1.81928e-05
1.86164e-05
1.90694e-05
1.95513e-05
2.00615e-05
2.05991e-05
2.11628e-05
2.17512e-05
2.23625e-05
2.29947e-05
2.36458e-05
2.43134e-05
2.49957e-05
2.56915e-05
2.64001e-05
2.71209e-05
2.77748e-05
2.83713e-05
2.89742e-05
2.95837e-05
3.02015e-05
3.08284e-05
3.14658e-05
3.21136e-05
3.27726e-05
3.34426e-05
3.41244e-05
3.48182e-05
3.55235e-05
3.62392e-05
3.6968e-05
3.77101e-05
3.84648e-05
3.92272e-05
3.99993e-05
4.07791e-05
4.15685e-05
4.23624e-05
4.31649e-05
4.39695e-05
4.47808e-05
4.55896e-05
4.64064e-05
4.72173e-05
4.80322e-05
4.86438e-05
4.92457e-05
4.98387e-05
5.04234e-05
5.09994e-05
5.15662e-05
5.21234e-05
5.267e-05
5.32055e-05
5.37296e-05
5.42424e-05
5.47441e-05
5.52345e-05
5.57138e-05
5.61817e-05
5.66382e-05
5.70832e-05
5.75167e-05
5.79388e-05
5.83494e-05
5.87489e-05
5.91369e-05
5.95136e-05
5.98795e-05
6.0235e-05
6.05803e-05
6.09156e-05
6.12415e-05
6.15583e-05
6.18664e-05
6.21662e-05
6.24582e-05
6.27427e-05
6.302e-05
6.32906e-05
6.35548e-05
6.38128e-05
6.4065e-05
6.43117e-05
6.45532e-05
6.47898e-05
6.50217e-05
6.52494e-05
6.54731e-05
6.56933e-05
6.59101e-05
6.61239e-05
6.63351e-05
6.65438e-05
6.67503e-05
6.69547e-05
6.71574e-05
6.73585e-05
6.75583e-05
6.77568e-05
6.79542e-05
6.81506e-05
6.83463e-05
6.85412e-05
6.87355e-05
6.89293e-05
6.91229e-05
6.93162e-05
6.95094e-05
6.97028e-05
6.98966e-05
7.00909e-05
7.02861e-05
7.04824e-05
7.06803e-05
7.088e-05
7.1082e-05
7.12867e-05
7.14945e-05
7.17056e-05
7.19203e-05
7.2139e-05
7.23618e-05
7.25889e-05
7.28206e-05
7.30568e-05
7.32977e-05
7.35431e-05
7.37929e-05
7.40468e-05
7.43044e-05
7.45653e-05
7.48291e-05
7.50953e-05
7.53634e-05
7.5633e-05
7.59036e-05
7.61745e-05
7.64454e-05
7.67155e-05
7.69845e-05
7.72519e-05
7.75173e-05
7.77803e-05
7.80408e-05
7.82986e-05
7.85535e-05
7.88056e-05
7.90547e-05
7.93009e-05
7.95442e-05
7.97847e-05
8.00225e-05
8.02577e-05
8.04902e-05
8.07201e-05
8.09473e-05
8.11714e-05
8.13924e-05
8.16098e-05
8.18235e-05
8.20331e-05
8.22384e-05
8.24393e-05
8.26357e-05
8.28275e-05
8.30145e-05
8.31966e-05
8.33737e-05
8.35456e-05
8.3712e-05
8.38728e-05
8.40279e-05
8.41773e-05
8.43209e-05
8.44588e-05
8.45913e-05
8.47184e-05
8.48404e-05
8.49573e-05
8.50693e-05
8.51764e-05
8.52786e-05
8.53762e-05
8.54692e-05
8.55578e-05
8.56424e-05
8.57234e-05
8.58011e-05
8.58758e-05
8.59479e-05
8.60176e-05
8.60852e-05
8.61508e-05
8.62146e-05
8.6277e-05
8.6338e-05
8.63979e-05
8.64568e-05
8.65149e-05
8.65722e-05
8.66288e-05
8.66847e-05
8.67398e-05
8.67943e-05
8.68481e-05
8.69015e-05
8.69545e-05
8.70074e-05
8.70606e-05
8.71143e-05
8.7169e-05
8.72254e-05
8.72838e-05
8.73447e-05
8.74084e-05
8.74755e-05
8.7546e-05
8.76202e-05
8.76982e-05
8.77802e-05
8.78659e-05
8.79553e-05
8.80479e-05
8.81436e-05
8.82417e-05
8.83417e-05
8.84432e-05
8.85455e-05
8.86482e-05
8.87507e-05
8.88527e-05
8.89539e-05
8.90541e-05
8.91534e-05
8.92517e-05
8.93492e-05
8.94463e-05
8.95431e-05
8.964e-05
8.97374e-05
8.98355e-05
8.99346e-05
9.00349e-05
9.01366e-05
9.02397e-05
9.03443e-05
9.04505e-05
9.05582e-05
9.06674e-05
9.07782e-05
9.08905e-05
9.10042e-05
9.11191e-05
9.1235e-05
9.13515e-05
9.14682e-05
9.15848e-05
9.17007e-05
9.18155e-05
9.19292e-05
9.20414e-05
9.21524e-05
9.22622e-05
9.2371e-05
9.24789e-05
9.25862e-05
9.26928e-05
9.27988e-05
9.29041e-05
9.30085e-05
9.31116e-05
9.32131e-05
9.33123e-05
9.34085e-05
9.35009e-05
9.35887e-05
9.36708e-05
9.37465e-05
9.3815e-05
9.38753e-05
9.39266e-05
9.39682e-05
9.39996e-05
9.40202e-05
9.403e-05
9.40291e-05
9.40177e-05
9.39961e-05
9.39651e-05
9.39252e-05
9.38774e-05
9.38225e-05
9.37617e-05
9.36959e-05
9.36262e-05
9.35537e-05
9.34791e-05
9.34031e-05
9.33261e-05
9.32486e-05
9.31709e-05
9.30932e-05
9.30156e-05
9.29384e-05
9.28614e-05
9.27845e-05
9.27077e-05
9.26306e-05
9.25531e-05
9.24748e-05
9.23956e-05
9.23153e-05
9.22336e-05
9.21506e-05
9.20663e-05
9.19807e-05
9.18936e-05
9.18049e-05
9.17143e-05
9.16217e-05
9.15267e-05
9.14295e-05
9.13301e-05
9.12286e-05
9.11252e-05
9.10202e-05
9.09139e-05
9.08065e-05
9.06984e-05
9.05899e-05
9.04813e-05
9.0373e-05
9.02653e-05
9.01587e-05
9.00533e-05
8.99494e-05
8.98469e-05
8.97459e-05
8.96464e-05
8.95483e-05
8.94516e-05
8.93561e-05
8.92619e-05
8.91688e-05
8.9077e-05
8.89862e-05
8.88966e-05
8.88081e-05
8.87206e-05
8.8634e-05
8.85485e-05
8.84641e-05
8.83812e-05
8.83e-05
8.82211e-05
8.81447e-05
8.80715e-05
8.80017e-05
8.79359e-05
8.78744e-05
8.78176e-05
8.77656e-05
8.77185e-05
8.76764e-05
8.76389e-05
8.76057e-05
8.75763e-05
8.75501e-05
8.75267e-05
8.75054e-05
8.74859e-05
8.74678e-05
8.74507e-05
8.74346e-05
8.74193e-05
8.74047e-05
8.73909e-05
8.73779e-05
8.73657e-05
8.73545e-05
8.73442e-05
8.73351e-05
8.73274e-05
8.73214e-05
8.73172e-05
8.73151e-05
8.73154e-05
8.73183e-05
8.73239e-05
8.73322e-05
8.73431e-05
8.73564e-05
8.73717e-05
8.73887e-05
8.74068e-05
8.74257e-05
8.74449e-05
8.7464e-05
8.74827e-05
8.75008e-05
8.75181e-05
8.75346e-05
8.755e-05
8.75641e-05
8.75764e-05
8.75863e-05
8.75932e-05
8.75964e-05
8.75955e-05
8.759e-05
8.75795e-05
8.7564e-05
8.75433e-05
8.75175e-05
8.74866e-05
8.74509e-05
8.74107e-05
8.73662e-05
8.73181e-05
8.72668e-05
8.72129e-05
8.71569e-05
8.70993e-05
8.70405e-05
8.69809e-05
8.69208e-05
8.68605e-05
8.68001e-05
8.67396e-05
8.66789e-05
8.66176e-05
8.65554e-05
8.64917e-05
8.64264e-05
8.63589e-05
8.6289e-05
8.62163e-05
8.61405e-05
8.60611e-05
8.5978e-05
8.58908e-05
8.57997e-05
8.57044e-05
8.56053e-05
8.55023e-05
8.53961e-05
8.52868e-05
8.51757e-05
8.50629e-05
8.49497e-05
8.48362e-05
8.47234e-05
8.46108e-05
8.44991e-05
8.43873e-05
8.42761e-05
8.41643e-05
8.40527e-05
8.39398e-05
8.38265e-05
8.37113e-05
8.35953e-05
8.3477e-05
8.33577e-05
8.32361e-05
8.31136e-05
8.29888e-05
8.28633e-05
8.27356e-05
8.26078e-05
8.24784e-05
8.23497e-05
8.22205e-05
8.20926e-05
8.19652e-05
8.18398e-05
8.17153e-05
8.15925e-05
8.14702e-05
8.1348e-05
8.12226e-05
8.10941e-05
8.09558e-05
8.0806e-05
8.06354e-05
8.04366e-05
8.01933e-05
7.98955e-05
7.94674e-05
7.89881e-05
7.7783e-05
7.59074e-05
7.38938e-05
7.10169e-05
6.61588e-05
5.91708e-05
5.04535e-05
3.98648e-05
3.49808e-05
2.46786e-05
2.11238e-05
2.35379e-05
3.35287e-05
0.000161939
0.000128881
8.3825e-05
8.49393e-05
9.01206e-05
9.98114e-05
0.000118067
0.000132756
0.00012373
0.000115314
0.000107589
0.000100598
9.42287e-05
8.85079e-05
8.33413e-05
7.86824e-05
7.44466e-05
7.05983e-05
6.70953e-05
6.39035e-05
6.09896e-05
5.83188e-05
5.58307e-05
5.3465e-05
5.11948e-05
4.90238e-05
4.69658e-05
4.50217e-05
4.32115e-05
4.1541e-05
4.00094e-05
3.86059e-05
3.73072e-05
3.61023e-05
3.49793e-05
3.39361e-05
3.29693e-05
3.20774e-05
3.12579e-05
3.05064e-05
2.97843e-05
2.90279e-05
2.82463e-05
2.74814e-05
2.67647e-05
2.61126e-05
2.55339e-05
2.50325e-05
2.46084e-05
2.42597e-05
2.39842e-05
2.37792e-05
2.36419e-05
2.35698e-05
2.35608e-05
2.3613e-05
2.37247e-05
2.38951e-05
2.41233e-05
2.44079e-05
2.47479e-05
2.51424e-05
2.55898e-05
2.60886e-05
2.66382e-05
2.72381e-05
2.78883e-05
2.85888e-05
2.93383e-05
3.01268e-05
3.0955e-05
3.18231e-05
3.27307e-05
3.36774e-05
3.46621e-05
3.56834e-05
3.67398e-05
3.78297e-05
3.89511e-05
4.01019e-05
4.12798e-05
4.24819e-05
4.37045e-05
4.49434e-05
4.61934e-05
4.74491e-05
4.87044e-05
4.99528e-05
5.11882e-05
5.24051e-05
5.36007e-05
5.47718e-05
5.59167e-05
5.70347e-05
5.81258e-05
5.91904e-05
6.02289e-05
6.12418e-05
6.2229e-05
6.31917e-05
6.41309e-05
6.50474e-05
6.59417e-05
6.68134e-05
6.76617e-05
6.84862e-05
6.92873e-05
7.00652e-05
7.08206e-05
7.15536e-05
7.22652e-05
7.29559e-05
7.36255e-05
7.42757e-05
7.49076e-05
7.55217e-05
7.61189e-05
7.67e-05
7.72658e-05
7.78168e-05
7.83536e-05
7.88769e-05
7.93872e-05
7.98851e-05
8.03713e-05
8.08462e-05
8.13103e-05
8.17641e-05
8.22082e-05
8.26431e-05
8.30692e-05
8.34872e-05
8.38973e-05
8.43003e-05
8.46965e-05
8.50866e-05
8.54712e-05
8.58506e-05
8.62256e-05
8.65963e-05
8.69634e-05
8.73271e-05
8.76878e-05
8.8046e-05
8.84018e-05
8.87555e-05
8.91074e-05
8.94576e-05
8.98063e-05
9.01537e-05
9.05001e-05
9.08455e-05
9.11901e-05
9.15342e-05
9.18779e-05
9.22215e-05
9.25654e-05
9.291e-05
9.32557e-05
9.36031e-05
9.39528e-05
9.43055e-05
9.46617e-05
9.50222e-05
9.53875e-05
9.57582e-05
9.61347e-05
9.65175e-05
9.69068e-05
9.73028e-05
9.77057e-05
9.81154e-05
9.85318e-05
9.89544e-05
9.93829e-05
9.98163e-05
0.000100254
0.000100695
0.000101139
0.000101584
0.00010203
0.000102476
0.000102921
0.000103363
0.000103803
0.000104239
0.00010467
0.000105095
0.000105515
0.000105929
0.000106336
0.000106737
0.000107131
0.000107518
0.000107899
0.000108274
0.000108643
0.000109007
0.000109365
0.000109718
0.000110066
0.000110409
0.000110747
0.00011108
0.000111408
0.000111729
0.000112045
0.000112354
0.000112656
0.000112951
0.000113239
0.00011352
0.000113793
0.000114059
0.000114317
0.000114566
0.000114808
0.000115041
0.000115265
0.000115481
0.000115688
0.000115886
0.000116077
0.00011626
0.000116435
0.000116603
0.000116763
0.000116917
0.000117063
0.000117203
0.000117337
0.000117464
0.000117586
0.000117703
0.000117816
0.000117925
0.00011803
0.000118133
0.000118232
0.00011833
0.000118425
0.000118518
0.00011861
0.000118701
0.000118791
0.00011888
0.000118968
0.000119056
0.000119142