/*--------------------------------*- C++ -*----------------------------------*\
| =========                 |                                                 |
| \\      /  F ield         | foam-extend: Open Source CFD                    |
|  \\    /   O peration     | Version:     3.2                                |
|   \\  /    A nd           | Web:         http://www.foam-extend.org         |
|    \\/     M anipulation  | For copyright notice see file Copyright         |
\*---------------------------------------------------------------------------*/
FoamFile
{
    version     2.0;
    format      ascii;
    class       volScalarField;
    location    "120";
    object      omega;
}
// * * * * * * * * * * * * * * * * * * * * * * * * * * * * * * * * * * * * * //

dimensions      [0 0 -1 0 0 0 0];

internalField   nonuniform List<scalar> 
33000
(
25.9829
29.2743
32.7512
36.3053
39.8294
43.2143
46.3767
49.2425
51.7722
53.9384
55.7423
57.1927
58.3175
59.144
59.7076
60.042
60.1835
60.1643
60.0171
59.7766
59.4626
59.0915
58.6775
58.2331
57.7695
57.2964
56.8216
56.3543
55.8946
55.4444
55.0146
54.6072
54.2226
53.8588
53.5129
53.1856
52.8759
52.5834
52.3074
52.0472
51.802
51.5713
51.3543
51.1503
50.9586
50.7783
50.6089
50.4498
50.3004
50.1602
50.0286
49.9051
49.7891
49.68
49.5775
49.4808
49.3894
49.303
49.2212
49.1435
49.0696
48.9993
48.9322
48.8681
48.8067
48.7479
48.6915
48.6371
48.5845
48.5337
48.4844
48.4366
48.3899
48.3444
48.3
48.2566
48.2141
48.1722
48.1311
48.0906
48.0507
48.0115
47.9728
47.9347
47.8971
47.86
47.8233
47.7871
47.7514
47.716
47.681
47.6461
47.6115
47.5771
47.5429
47.5088
47.4749
47.4412
47.4078
47.3745
47.3415
47.3085
47.2754
47.2424
47.2092
47.1758
47.1421
47.1082
47.074
47.0394
47.0044
46.9691
46.9335
46.8974
46.861
46.8242
46.787
46.7494
46.7116
46.6734
46.6349
46.5961
46.5571
46.5179
46.4784
46.4387
46.3989
46.3589
46.3188
46.2786
46.2384
46.1981
46.1579
46.1177
46.0776
46.0377
45.9979
45.9583
45.9189
45.8797
45.8408
45.8021
45.7638
45.7257
45.6879
45.6504
45.6133
45.5765
45.5401
45.504
45.4684
45.4331
45.3981
45.3636
45.3295
45.2958
45.2625
45.2297
45.1973
45.1653
45.1338
45.1028
45.0723
45.0423
45.0129
44.984
44.9557
44.928
44.9009
44.8744
44.8485
44.8232
44.7986
44.7747
44.7514
44.7287
44.7067
44.6853
44.6646
44.6445
44.625
44.6061
44.5879
44.5702
44.5531
44.5365
44.5205
44.5051
44.4901
44.4756
44.4617
44.4482
44.4352
44.4227
44.4106
44.399
44.3878
44.377
44.3666
44.3565
44.3468
44.3375
44.3284
44.3197
44.3111
44.3025
44.294
44.2853
44.2766
44.2677
44.2588
44.2496
44.2404
44.231
44.2215
44.2119
44.2021
44.1922
44.1821
44.1718
44.1614
44.1509
44.1402
44.1294
44.1183
44.1072
44.0958
44.0843
44.0726
44.0607
44.0486
44.0363
44.0239
44.0114
43.9986
43.9858
43.9728
43.9597
43.9465
43.9332
43.9198
43.9064
43.893
43.8795
43.8659
43.8524
43.8388
43.8253
43.8117
43.7981
43.7845
43.771
43.7574
43.7439
43.7304
43.7169
43.7034
43.69
43.6767
43.6635
43.6503
43.6373
43.6244
43.6116
43.599
43.5865
43.5742
43.5621
43.5502
43.5385
43.527
43.5157
43.5046
43.4936
43.4829
43.4723
43.4619
43.4516
43.4415
43.4316
43.4217
43.4121
43.4026
43.3933
43.3841
43.3751
43.3663
43.3577
43.3493
43.3411
43.3332
43.3254
43.3179
43.3106
43.3035
43.2966
43.2899
43.2834
43.2772
43.2713
43.2655
43.2601
43.2548
43.2499
43.2451
43.2406
43.2363
43.2323
43.2285
43.2249
43.2215
43.2183
43.2154
43.2126
43.2101
43.2077
43.2055
43.2034
43.2013
43.1993
43.1973
43.1952
43.1931
43.1907
43.1881
43.1853
43.1821
43.1786
43.1747
43.1702
43.1654
43.1599
43.154
43.1475
43.1405
43.1329
43.1248
43.1162
43.1071
43.0975
43.0876
43.0773
43.0666
43.0557
43.0444
43.033
43.0214
43.0096
42.9976
42.9855
42.9732
42.9609
42.9484
42.9358
42.923
42.9102
42.8971
42.8839
42.8705
42.8569
42.8431
42.829
42.8147
42.8002
42.7855
42.7705
42.7553
42.7399
42.7242
42.7082
42.6921
42.6757
42.6592
42.6424
42.6255
42.6085
42.5912
42.5739
42.5564
42.5389
42.5212
42.5035
42.4858
42.468
42.4502
42.4323
42.4144
42.3965
42.3785
42.3605
42.3424
42.3244
42.3063
42.2882
42.2701
42.252
42.2339
42.2158
42.1978
42.1797
42.1618
42.1439
42.1261
42.1084
42.0909
42.0736
42.0564
42.0395
42.0228
42.0064
41.9904
41.9745
41.959
41.9438
41.9289
41.9142
41.8997
41.8855
41.8715
41.8576
41.844
41.8305
41.8171
41.8039
41.7908
41.7779
41.7651
41.7524
41.7399
41.7275
41.7154
41.7034
41.6916
41.6801
41.6687
41.6577
41.6469
41.6363
41.6261
41.6161
41.6063
41.5968
41.5876
41.5785
41.5696
41.5609
41.5524
41.544
41.5358
41.5277
41.5198
41.5119
41.504
41.4962
41.4883
41.4803
41.4722
41.4641
41.4558
41.4473
41.4387
41.43
41.4212
41.4122
41.4031
41.3939
41.3846
41.3752
41.3658
41.3564
41.347
41.3375
41.328
41.3185
41.309
41.2995
41.2899
41.2802
41.2704
41.2605
41.2504
41.2402
41.2298
41.2191
41.2082
41.197
41.1854
41.1736
41.1614
41.1488
41.1359
41.1226
41.1089
41.0949
41.0806
41.066
41.0512
41.0362
41.021
41.0057
40.9903
40.9747
40.9591
40.9433
40.9274
40.9114
40.8953
40.879
40.8626
40.846
40.8292
40.8123
40.7951
40.7778
40.7601
40.7422
40.724
40.7057
40.687
40.6682
40.6492
40.6301
40.6107
40.5913
40.5714
40.5514
40.5307
40.5097
40.4871
40.4637
40.4366
40.4077
40.3713
40.3305
40.2747
40.2124
40.1152
40.0837
39.8418
39.2696
38.7179
38.0996
37.0611
35.6155
33.5377
30.5824
25.494
19.8741
21.4512
6.24894
2.23995
3.80613
5.51348
7.29165
9.1621
11.0266
12.8421
14.5623
16.1976
17.698
19.0635
20.2667
21.3096
22.1964
22.9466
23.5713
24.09
24.5275
24.8974
25.2085
25.4677
25.6748
25.7723
25.7781
25.7078
25.5788
25.4145
25.2495
25.1122
25.0146
24.956
24.925
24.9153
24.9216
24.9373
24.9564
24.9738
24.9866
24.9925
24.9902
24.9791
24.9588
24.9297
24.8923
24.8471
24.7952
24.7379
24.6763
24.6105
24.5409
24.4673
24.3899
24.3084
24.2229
24.1335
24.0404
23.9439
23.8444
23.7431
23.6407
23.5377
23.4348
23.3321
23.23
23.1284
23.0277
22.9281
22.8296
22.7324
22.6367
22.5424
22.4498
22.3588
22.2694
22.1817
22.0957
22.0116
21.9292
21.8485
21.7692
21.6916
21.6154
21.5406
21.4673
21.3953
21.3246
21.2552
21.187
21.1201
21.0542
20.9897
20.9261
20.8632
20.8008
20.7389
20.6775
20.6167
20.5565
20.497
20.4382
20.3801
20.3228
20.2661
20.2102
20.155
20.1004
20.0466
19.9934
19.941
19.8892
19.8381
19.7876
19.738
19.6891
19.6408
19.5932
19.5464
19.5002
19.4548
19.4101
19.366
19.3228
19.2802
19.2384
19.1973
19.157
19.1174
19.0785
19.0403
19.0027
18.9659
18.9296
18.894
18.859
18.8246
18.7908
18.7575
18.7248
18.6928
18.6612
18.6303
18.5999
18.5701
18.5408
18.512
18.4837
18.456
18.4287
18.4019
18.3756
18.3497
18.3243
18.2993
18.2748
18.2507
18.227
18.2038
18.1809
18.1584
18.1363
18.1146
18.0932
18.0721
18.0514
18.0309
18.0107
17.9909
17.9713
17.952
17.933
17.9142
17.8957
17.8774
17.8595
17.8417
17.8242
17.807
17.7899
17.7731
17.7565
17.7401
17.7239
17.7078
17.6919
17.6762
17.6607
17.6453
17.63
17.6149
17.5999
17.585
17.5702
17.5555
17.5409
17.5263
17.5119
17.4976
17.4833
17.4692
17.4551
17.4411
17.4272
17.4135
17.3998
17.3863
17.3728
17.3593
17.346
17.3327
17.3196
17.3066
17.2937
17.281
17.2684
17.256
17.2438
17.2317
17.2199
17.2082
17.1967
17.1853
17.174
17.1629
17.152
17.1412
17.1305
17.12
17.1096
17.0994
17.0893
17.0793
17.0695
17.0597
17.0501
17.0405
17.031
17.0216
17.0123
17.0031
16.9939
16.9847
16.9756
16.9666
16.9577
16.9487
16.9399
16.9311
16.9224
16.9138
16.9052
16.8967
16.8882
16.8798
16.8715
16.8633
16.8551
16.847
16.839
16.831
16.823
16.8151
16.8072
16.7994
16.7917
16.7839
16.7763
16.7686
16.761
16.7535
16.7459
16.7384
16.7309
16.7234
16.716
16.7085
16.7011
16.6937
16.6864
16.6791
16.6718
16.6646
16.6574
16.6502
16.6432
16.6361
16.6291
16.6222
16.6153
16.6085
16.6017
16.595
16.5883
16.5818
16.5753
16.5689
16.5626
16.5563
16.5501
16.544
16.5378
16.5318
16.5257
16.5197
16.5138
16.5079
16.502
16.4962
16.4905
16.4847
16.479
16.4733
16.4676
16.462
16.4564
16.4509
16.4455
16.44
16.4346
16.4292
16.4238
16.4185
16.4131
16.4078
16.4024
16.3969
16.3915
16.386
16.3806
16.3753
16.3699
16.3646
16.3593
16.3542
16.3491
16.3442
16.3393
16.3345
16.3297
16.3249
16.32
16.3152
16.3102
16.3053
16.3004
16.2954
16.2904
16.2855
16.2805
16.2755
16.2705
16.2655
16.2605
16.2555
16.2505
16.2455
16.2406
16.2358
16.231
16.2263
16.2216
16.217
16.2123
16.2077
16.2031
16.1985
16.194
16.1894
16.1849
16.1804
16.1759
16.1713
16.1668
16.1623
16.1578
16.1533
16.1488
16.1443
16.1398
16.1353
16.1307
16.1262
16.1216
16.1171
16.1125
16.1079
16.1033
16.0988
16.0942
16.0897
16.0851
16.0806
16.0761
16.0716
16.0671
16.0626
16.0581
16.0535
16.049
16.0444
16.0399
16.0353
16.0307
16.0261
16.0215
16.0168
16.0121
16.0072
16.0023
15.9973
15.9922
15.987
15.9818
15.9765
15.9711
15.9657
15.9603
15.9549
15.9496
15.9443
15.939
15.9337
15.9285
15.9234
15.9183
15.9132
15.9082
15.9032
15.8983
15.8934
15.8885
15.8836
15.8788
15.874
15.8692
15.8644
15.8596
15.8547
15.8499
15.845
15.8402
15.8354
15.8306
15.8258
15.8211
15.8164
15.8118
15.8072
15.8026
15.798
15.7934
15.7889
15.7844
15.78
15.7757
15.7714
15.7672
15.7631
15.7589
15.7548
15.7507
15.7466
15.7426
15.7385
15.7344
15.7304
15.7263
15.7222
15.718
15.7139
15.7097
15.7054
15.7011
15.6968
15.6925
15.6881
15.6837
15.6794
15.675
15.6707
15.6665
15.6622
15.6581
15.654
15.6499
15.6459
15.642
15.6381
15.6344
15.6307
15.6271
15.6235
15.6201
15.6166
15.6132
15.6096
15.6061
15.6024
15.5987
15.5948
15.5911
15.5871
15.5833
15.5793
15.5756
15.5716
15.568
15.5641
15.5605
15.5566
15.553
15.5491
15.5456
15.5418
15.5384
15.5346
15.5313
15.5275
15.5243
15.5204
15.5171
15.5131
15.5099
15.5059
15.5028
15.4989
15.4964
15.4931
15.492
15.4908
15.4931
15.497
15.5066
15.5208
15.5447
15.5771
15.6295
15.6757
15.8903
16.3256
16.7598
17.1963
17.8297
18.7086
19.8495
20.9883
22.4877
23.4011
19.2856
12.5521
6.79381
0.7667
1.01663
1.35338
1.72915
2.13937
2.57111
3.10735
3.69942
4.32953
4.96176
5.59607
6.21134
6.80697
7.37169
7.90652
8.40582
8.87416
9.31133
9.71997
10.102
10.4607
10.799
11.1103
11.3899
11.6378
11.8592
12.0621
12.2558
12.4465
12.6433
12.8483
13.0621
13.2875
13.5066
13.7137
13.9078
14.0884
14.2546
14.4056
14.5406
14.6586
14.7588
14.8408
14.9043
14.9491
14.9752
14.9833
14.9754
14.9534
14.9199
14.8776
14.8292
14.7776
14.7252
14.674
14.6253
14.5798
14.5378
14.4983
14.46
14.4224
14.3847
14.347
14.3092
14.2711
14.2325
14.1935
14.1539
14.1137
14.0729
14.0312
13.9887
13.9451
13.9002
13.854
13.8063
13.7571
13.7065
13.6544
13.6007
13.5457
13.4895
13.4322
13.374
13.3149
13.2552
13.1949
13.1342
13.0729
13.0114
12.9495
12.8879
12.8264
12.7651
12.7041
12.6434
12.5829
12.5227
12.463
12.4039
12.3454
12.2876
12.2305
12.1741
12.1185
12.0638
12.01
11.957
11.9051
11.8541
11.804
11.755
11.707
11.66
11.614
11.5691
11.5251
11.4822
11.4402
11.3993
11.3593
11.3203
11.2822
11.2451
11.2089
11.1736
11.1392
11.1056
11.0729
11.0411
11.01
10.9797
10.9502
10.9213
10.8931
10.8656
10.8388
10.8126
10.787
10.762
10.7376
10.7137
10.6905
10.6677
10.6455
10.6238
10.6027
10.5819
10.5617
10.5419
10.5226
10.5036
10.4851
10.467
10.4493
10.432
10.4151
10.3986
10.3824
10.3665
10.351
10.3358
10.3209
10.3062
10.2918
10.2777
10.2639
10.2502
10.2368
10.2236
10.2105
10.1977
10.185
10.1725
10.1601
10.1479
10.1359
10.124
10.1123
10.1007
10.0892
10.0779
10.0667
10.0556
10.0446
10.0337
10.023
10.0123
10.0018
9.99138
9.98106
9.97085
9.96073
9.9507
9.94076
9.93091
9.92115
9.91146
9.90184
9.8923
9.88282
9.87342
9.8641
9.85488
9.84571
9.83655
9.82739
9.81825
9.80912
9.80002
9.79094
9.7819
9.77291
9.76399
9.75514
9.74639
9.73775
9.72922
9.72083
9.71256
9.7044
9.69637
9.68845
9.68064
9.67294
9.66536
9.65789
9.65055
9.64333
9.63625
9.62929
9.62245
9.61572
9.60909
9.60256
9.59611
9.58974
9.58345
9.57724
9.57109
9.56502
9.55901
9.55306
9.54716
9.54132
9.53554
9.5298
9.52412
9.5185
9.51292
9.5074
9.50193
9.49652
9.49116
9.48586
9.4806
9.4754
9.47024
9.46511
9.46001
9.45495
9.44993
9.44494
9.43998
9.43505
9.43014
9.42526
9.42038
9.41552
9.41066
9.40581
9.40096
9.39611
9.39126
9.38641
9.38156
9.37671
9.37187
9.36704
9.36222
9.35741
9.35262
9.34786
9.34311
9.33839
9.33368
9.32899
9.32432
9.31966
9.31501
9.31039
9.3058
9.30123
9.2967
9.29221
9.28775
9.28332
9.27892
9.27453
9.27015
9.26578
9.26142
9.25706
9.25271
9.24837
9.24404
9.23973
9.23542
9.23111
9.22679
9.22246
9.2181
9.21372
9.20933
9.20491
9.20047
9.19602
9.19155
9.18708
9.18262
9.17817
9.17374
9.16933
9.16495
9.16059
9.15625
9.15196
9.14771
9.14352
9.13939
9.13534
9.13137
9.12749
9.12368
9.11996
9.11632
9.11275
9.10924
9.10577
9.10235
9.09894
9.09555
9.09218
9.08882
9.08547
9.08215
9.07885
9.07557
9.07231
9.06904
9.06578
9.06253
9.05928
9.05605
9.05284
9.04967
9.04654
9.04347
9.04046
9.03751
9.0346
9.03173
9.0289
9.02611
9.02336
9.02066
9.018
9.0154
9.01284
9.01031
9.00782
9.00535
9.00291
9.00051
8.99814
8.99581
8.99352
8.99127
8.98905
8.98686
8.98467
8.98251
8.98035
8.9782
8.97606
8.97395
8.97186
8.96979
8.96775
8.96573
8.96374
8.96177
8.95982
8.95789
8.95597
8.95406
8.95216
8.95027
8.94839
8.94652
8.94465
8.94278
8.9409
8.93901
8.93709
8.93514
8.93315
8.93111
8.929
8.92681
8.92454
8.92219
8.91977
8.91729
8.91476
8.91218
8.90958
8.90696
8.90433
8.90169
8.89905
8.89642
8.89379
8.89116
8.88854
8.88593
8.88333
8.88073
8.87815
8.87558
8.87302
8.87046
8.8679
8.86533
8.86275
8.86014
8.85751
8.85486
8.85217
8.84946
8.84674
8.844
8.84126
8.83853
8.8358
8.83309
8.83037
8.82766
8.82494
8.82221
8.81949
8.81678
8.81409
8.81144
8.80883
8.80626
8.80373
8.80122
8.79873
8.79626
8.79379
8.79134
8.78891
8.78649
8.78408
8.78167
8.77926
8.77683
8.77439
8.77192
8.76942
8.76689
8.76432
8.76171
8.75907
8.75641
8.75374
8.75107
8.74842
8.74578
8.74317
8.74058
8.73802
8.7355
8.73301
8.73058
8.72821
8.7259
8.72367
8.72153
8.71949
8.71755
8.71569
8.71389
8.71214
8.71038
8.70862
8.70683
8.70503
8.70319
8.70137
8.69954
8.69775
8.69598
8.69426
8.69257
8.69094
8.68933
8.68778
8.68625
8.68475
8.68327
8.68184
8.68044
8.67912
8.67783
8.67661
8.67541
8.67427
8.67315
8.67206
8.67101
8.67
8.66905
8.66823
8.6676
8.66728
8.66761
8.66867
8.67123
8.67563
8.68298
8.69434
8.71166
8.73661
8.77598
8.82327
8.95238
9.19195
9.50736
9.90807
10.46
11.3019
12.5285
14.2726
16.6619
19.4002
19.0525
13.7731
7.42738
0.612407
0.661184
0.735173
0.83184
0.951043
1.08862
1.24352
1.40855
1.58617
1.76968
1.95834
2.14885
2.34212
2.53275
2.72144
2.90622
3.08858
3.26693
3.4404
3.60852
3.77145
3.93037
4.08933
4.25446
4.42899
4.61211
4.80123
4.99536
5.19152
5.38819
5.58424
5.78092
5.98165
6.18643
6.39479
6.60495
6.81587
7.02632
7.23546
7.44223
7.64281
7.83178
8.01042
8.18288
8.35193
8.51875
8.67961
8.82887
8.96655
9.09282
9.20805
9.31283
9.40788
9.49404
9.57208
9.64265
9.70622
9.76308
9.81306
9.856
9.89172
9.92003
9.94084
9.95421
9.96023
9.95906
9.95091
9.93607
9.91497
9.88824
9.85657
9.82072
9.78143
9.73948
9.69558
9.65049
9.60484
9.5591
9.51355
9.46843
9.42384
9.37973
9.3359
9.29209
9.248
9.20329
9.15757
9.11063
9.06225
9.01248
8.96135
8.90915
8.85618
8.80281
8.74934
8.69599
8.6428
8.5899
8.53734
8.48526
8.43377
8.38296
8.33294
8.28379
8.23559
8.1884
8.14224
8.09717
8.05318
8.0103
7.9685
7.9278
7.88823
7.84973
7.81228
7.7759
7.74057
7.70626
7.67295
7.64061
7.60922
7.57876
7.54919
7.5205
7.49267
7.46567
7.43948
7.41408
7.38945
7.36556
7.34239
7.31991
7.29809
7.2769
7.25632
7.23633
7.2169
7.19802
7.17967
7.16184
7.14451
7.12767
7.1113
7.09538
7.0799
7.06485
7.05021
7.03598
7.02213
7.00865
6.99554
6.98278
6.97036
6.95827
6.94651
6.93507
6.92393
6.91309
6.90255
6.89228
6.88229
6.87255
6.86305
6.85377
6.84471
6.83585
6.82719
6.8187
6.81038
6.80222
6.7942
6.78632
6.77856
6.77091
6.76339
6.75598
6.74869
6.74151
6.73444
6.72747
6.72061
6.71383
6.70715
6.70055
6.69404
6.68762
6.6813
6.67506
6.66892
6.66286
6.65689
6.65101
6.6452
6.63946
6.6338
6.62821
6.62268
6.61721
6.61179
6.60642
6.60108
6.59579
6.59055
6.58536
6.58021
6.57511
6.57004
6.56499
6.55996
6.55494
6.54992
6.54491
6.53991
6.53492
6.52995
6.52502
6.52014
6.51531
6.51054
6.50583
6.50119
6.49661
6.49208
6.48761
6.48319
6.47882
6.47451
6.47026
6.46607
6.46196
6.45792
6.45395
6.45005
6.4462
6.4424
6.43865
6.43494
6.43127
6.42764
6.42405
6.4205
6.41699
6.4135
6.41005
6.40663
6.40323
6.39986
6.39652
6.39321
6.38992
6.38666
6.38343
6.38023
6.37706
6.37392
6.37082
6.36773
6.36467
6.36163
6.35861
6.3556
6.35261
6.34964
6.34668
6.34374
6.34081
6.33789
6.33498
6.33207
6.32917
6.32626
6.32336
6.32045
6.31754
6.31463
6.31171
6.3088
6.30588
6.30297
6.30007
6.29717
6.29428
6.29141
6.28854
6.28568
6.28283
6.27998
6.27714
6.2743
6.27147
6.26864
6.26582
6.263
6.2602
6.25742
6.25465
6.2519
6.24915
6.24641
6.24367
6.24093
6.23818
6.23542
6.23266
6.2299
6.22715
6.22439
6.22163
6.21886
6.21608
6.21328
6.21045
6.2076
6.20471
6.2018
6.19886
6.1959
6.1929
6.1899
6.18687
6.18384
6.18082
6.17779
6.17477
6.17176
6.16875
6.16576
6.16279
6.15984
6.15693
6.15405
6.15122
6.14843
6.14568
6.14297
6.1403
6.13767
6.13507
6.1325
6.12995
6.1274
6.12486
6.12233
6.11979
6.11726
6.11474
6.11223
6.10972
6.10723
6.10473
6.10224
6.09974
6.09725
6.09476
6.09227
6.08981
6.08736
6.08496
6.08259
6.08026
6.07796
6.07569
6.07345
6.07123
6.06904
6.06689
6.06478
6.0627
6.06067
6.05866
6.05669
6.05474
6.05281
6.05091
6.04905
6.04721
6.04541
6.04365
6.04192
6.04022
6.03854
6.03688
6.03524
6.03362
6.03202
6.03044
6.02888
6.02735
6.02584
6.02437
6.02292
6.02149
6.02009
6.01871
6.01736
6.01602
6.0147
6.01341
6.01213
6.01087
6.00962
6.00838
6.00715
6.00592
6.00469
6.00346
6.00221
6.00094
5.99965
5.99831
5.99693
5.99551
5.99404
5.99254
5.991
5.98944
5.98786
5.98627
5.98468
5.98307
5.98147
5.97987
5.97826
5.97665
5.97504
5.97343
5.97183
5.97023
5.96863
5.96703
5.96545
5.96386
5.96227
5.96068
5.95909
5.95747
5.95585
5.9542
5.95253
5.95085
5.94915
5.94743
5.94571
5.94399
5.94226
5.94055
5.93883
5.9371
5.93537
5.93363
5.93188
5.93012
5.92838
5.92664
5.92493
5.92323
5.92155
5.91989
5.91823
5.91657
5.91491
5.91325
5.91159
5.90994
5.90829
5.90663
5.90498
5.90331
5.90162
5.89992
5.89818
5.89642
5.89463
5.8928
5.89094
5.88905
5.88714
5.88521
5.88329
5.88137
5.87945
5.87754
5.87563
5.87373
5.87185
5.86998
5.86814
5.86632
5.86456
5.86284
5.86119
5.85961
5.85809
5.85663
5.85521
5.8538
5.8524
5.85098
5.84957
5.84813
5.8467
5.84527
5.84388
5.84249
5.84116
5.83985
5.8386
5.83736
5.83619
5.83502
5.83391
5.83279
5.83173
5.83066
5.82968
5.82869
5.8278
5.82689
5.82609
5.82527
5.82455
5.82381
5.82317
5.82252
5.82202
5.8216
5.82143
5.82165
5.82239
5.82406
5.82695
5.83173
5.83914
5.85055
5.86716
5.89359
5.92876
6.01026
6.14708
6.35002
6.63595
7.0414
7.6793
8.67503
10.2666
12.5698
15.7207
17.3609
14.6011
8.15956
0.589915
0.600165
0.6187
0.645835
0.683439
0.73167
0.788286
0.851769
0.916804
0.982661
1.05117
1.12145
1.19366
1.26649
1.33985
1.41322
1.48683
1.56027
1.63328
1.7056
1.77704
1.84769
1.91865
1.99159
2.06742
2.14605
2.22685
2.30962
2.39305
2.47624
2.55826
2.63911
2.71975
2.80067
2.88254
2.96521
3.04873
3.13297
3.21797
3.30394
3.39537
3.50084
3.62092
3.75141
3.88863
4.03032
4.17465
4.31975
4.46438
4.60762
4.74882
4.88743
5.02302
5.15531
5.28408
5.40914
5.53031
5.64753
5.76064
5.86934
5.97328
6.07204
6.16495
6.25134
6.33083
6.40306
6.46775
6.52469
6.57351
6.61261
6.64245
6.66354
6.67645
6.68173
6.67993
6.67166
6.65751
6.63803
6.61369
6.58498
6.55243
6.51658
6.47801
6.43733
6.39525
6.35244
6.30962
6.26736
6.22617
6.18641
6.14842
6.11207
6.07725
6.04378
6.01149
5.98023
5.94983
5.92005
5.8907
5.86194
5.83381
5.80631
5.77948
5.75328
5.72767
5.70262
5.67811
5.65411
5.63063
5.60764
5.58514
5.56311
5.54158
5.52058
5.50006
5.48006
5.46055
5.44155
5.42305
5.40505
5.38754
5.37052
5.35397
5.33789
5.32227
5.3071
5.29239
5.27811
5.26427
5.25086
5.23785
5.22524
5.21303
5.20118
5.1897
5.17856
5.16777
5.15731
5.14717
5.13735
5.12784
5.11864
5.10973
5.1011
5.09275
5.08467
5.07686
5.0693
5.062
5.05494
5.04811
5.04151
5.03514
5.02899
5.02306
5.01733
5.01181
5.00649
5.00136
4.99643
4.99167
4.98709
4.98267
4.97839
4.97427
4.97028
4.96641
4.96267
4.95904
4.95552
4.95208
4.94874
4.94547
4.94227
4.93916
4.93611
4.93313
4.93023
4.9274
4.92463
4.92193
4.91928
4.91668
4.91413
4.91164
4.90919
4.90679
4.90444
4.90214
4.89989
4.89768
4.8955
4.89336
4.89126
4.88918
4.88714
4.88512
4.88311
4.88112
4.87913
4.87716
4.87518
4.87321
4.87125
4.8693
4.86736
4.86542
4.86349
4.86156
4.85961
4.85766
4.85568
4.85369
4.85168
4.84965
4.84762
4.84559
4.84356
4.84155
4.83955
4.83756
4.83559
4.83363
4.83168
4.82973
4.82778
4.82585
4.82392
4.82202
4.82013
4.81827
4.81643
4.81461
4.8128
4.81101
4.80923
4.80746
4.8057
4.80394
4.80219
4.80046
4.79873
4.79701
4.7953
4.7936
4.7919
4.79021
4.78853
4.78686
4.78519
4.78354
4.7819
4.78026
4.77865
4.77704
4.77545
4.77387
4.7723
4.77074
4.76918
4.76762
4.76608
4.76454
4.76301
4.76149
4.75997
4.75847
4.75696
4.75546
4.75396
4.75247
4.75097
4.74948
4.74799
4.7465
4.745
4.74351
4.74202
4.74053
4.73905
4.73756
4.73608
4.7346
4.73313
4.73165
4.73017
4.7287
4.72721
4.72573
4.72424
4.72274
4.72124
4.71974
4.71823
4.71673
4.71523
4.71372
4.71222
4.7107
4.70918
4.70764
4.70608
4.70451
4.70293
4.70133
4.69973
4.69811
4.69647
4.69482
4.69315
4.69145
4.68972
4.68796
4.68617
4.68435
4.68249
4.6806
4.67868
4.67672
4.67475
4.67275
4.67074
4.66871
4.66667
4.66462
4.66255
4.66047
4.65838
4.65629
4.6542
4.65211
4.65002
4.64794
4.64586
4.64379
4.64172
4.63966
4.6376
4.63554
4.63347
4.6314
4.62931
4.62721
4.6251
4.62298
4.62085
4.61873
4.6166
4.61448
4.61235
4.61022
4.60809
4.60595
4.60381
4.60168
4.59955
4.59744
4.59534
4.59327
4.59123
4.5892
4.58719
4.5852
4.58323
4.58128
4.57935
4.57744
4.57557
4.57372
4.57189
4.57009
4.5683
4.56654
4.56479
4.56307
4.56136
4.55969
4.55804
4.55641
4.55482
4.55324
4.55169
4.55016
4.54864
4.54715
4.54568
4.54423
4.54281
4.54141
4.54004
4.53869
4.53738
4.53609
4.53482
4.53357
4.53235
4.53115
4.52998
4.52883
4.5277
4.52659
4.5255
4.52442
4.52336
4.5223
4.52126
4.52022
4.51919
4.51814
4.51709
4.51602
4.51493
4.51383
4.51271
4.51158
4.51045
4.50931
4.50818
4.50705
4.50592
4.5048
4.50369
4.50257
4.50146
4.50035
4.49924
4.49813
4.49703
4.49593
4.49483
4.49374
4.49265
4.49156
4.49047
4.48938
4.48827
4.48716
4.48603
4.48489
4.48373
4.48256
4.48138
4.48018
4.47898
4.47777
4.47656
4.47534
4.47411
4.47287
4.47162
4.47035
4.46907
4.46778
4.46649
4.46521
4.46392
4.46264
4.46135
4.46006
4.45875
4.45744
4.4561
4.45476
4.45341
4.45205
4.45068
4.4493
4.4479
4.44648
4.44505
4.44358
4.4421
4.44058
4.43903
4.43745
4.43584
4.43422
4.43257
4.43093
4.42927
4.42762
4.42595
4.42429
4.42262
4.42095
4.41928
4.41762
4.41596
4.41433
4.41271
4.41114
4.4096
4.40811
4.40665
4.40522
4.4038
4.40239
4.40096
4.39954
4.39809
4.39666
4.39523
4.39382
4.39242
4.39106
4.38971
4.38842
4.38714
4.38591
4.38469
4.38353
4.38235
4.38122
4.38009
4.37901
4.37793
4.37692
4.37591
4.37497
4.37403
4.37317
4.3723
4.37151
4.37072
4.37004
4.36942
4.36898
4.36882
4.36901
4.36984
4.3715
4.37446
4.37919
4.38673
4.3979
4.41607
4.44166
4.4964
4.58365
4.72004
4.9181
5.20868
5.68026
6.4279
7.74699
9.73371
12.7229
15.3524
14.566
8.90575
0.586611
0.589705
0.597247
0.607083
0.619831
0.636132
0.657114
0.683174
0.712112
0.743262
0.774752
0.806589
0.839315
0.872946
0.907291
0.942142
0.977498
1.01328
1.04941
1.08584
1.12251
1.15937
1.19649
1.23408
1.27234
1.31147
1.35151
1.39261
1.43445
1.47675
1.51925
1.56176
1.60455
1.64779
1.69179
1.73661
1.78228
1.82875
1.87601
1.9241
1.97438
2.02936
2.08924
2.15297
2.21955
2.28829
2.3587
2.43036
2.50293
2.57618
2.64987
2.7238
2.7978
2.8717
2.94535
3.01859
3.09129
3.16331
3.2345
3.30467
3.37368
3.44138
3.50763
3.57232
3.63532
3.69649
3.7557
3.81277
3.86753
3.91966
3.96889
4.01499
4.05772
4.09687
4.13226
4.16378
4.1914
4.21507
4.23472
4.25038
4.26221
4.2704
4.2752
4.27694
4.27601
4.27284
4.26787
4.26161
4.25445
4.24682
4.23948
4.23245
4.22576
4.21945
4.21349
4.20787
4.20253
4.19754
4.19301
4.18875
4.18463
4.18058
4.17656
4.17216
4.16704
4.16136
4.15521
4.14868
4.14183
4.1347
4.12736
4.11981
4.11216
4.10454
4.09687
4.08925
4.08171
4.07428
4.06698
4.05979
4.05273
4.0458
4.03899
4.03233
4.02582
4.01946
4.01326
4.00723
4.00138
3.9957
3.99021
3.98489
3.97977
3.97482
3.97005
3.96545
3.96103
3.95678
3.9527
3.94879
3.94505
3.94149
3.93809
3.93485
3.93178
3.92887
3.92612
3.92352
3.92107
3.91877
3.91662
3.91461
3.91274
3.911
3.9094
3.90793
3.90659
3.90537
3.90428
3.9033
3.90243
3.90166
3.90099
3.90041
3.89992
3.89951
3.89917
3.89889
3.89868
3.89853
3.89842
3.89836
3.89833
3.89833
3.89836
3.89843
3.89852
3.89864
3.89878
3.89895
3.89913
3.89932
3.89952
3.89972
3.89993
3.90014
3.90036
3.90057
3.90078
3.90099
3.90119
3.90138
3.90157
3.90174
3.90191
3.90206
3.90219
3.90231
3.90241
3.90248
3.90253
3.90255
3.90256
3.90254
3.9025
3.90244
3.90236
3.90227
3.90215
3.90201
3.90184
3.90164
3.9014
3.90113
3.90083
3.9005
3.90015
3.89977
3.89938
3.89898
3.89857
3.89814
3.8977
3.89724
3.89676
3.89626
3.89575
3.89522
3.89469
3.89414
3.8936
3.89305
3.89249
3.89194
3.89137
3.89079
3.89021
3.88962
3.88902
3.88841
3.8878
3.88719
3.88657
3.88596
3.88534
3.88471
3.88409
3.88347
3.88284
3.88222
3.8816
3.88099
3.88037
3.87977
3.87916
3.87856
3.87797
3.87738
3.87679
3.8762
3.87561
3.87503
3.87445
3.87388
3.87332
3.87276
3.87221
3.87167
3.87113
3.87061
3.87009
3.86957
3.86906
3.86855
3.86805
3.86754
3.86704
3.86654
3.86604
3.86554
3.86503
3.86452
3.864
3.86348
3.86296
3.86242
3.86187
3.86131
3.86073
3.86014
3.85953
3.85891
3.85827
3.85762
3.85695
3.85627
3.85556
3.85484
3.8541
3.85334
3.85254
3.85172
3.85087
3.84999
3.84908
3.84815
3.84718
3.84619
3.84517
3.84411
3.84302
3.84189
3.84071
3.8395
3.83825
3.83696
3.83563
3.83426
3.83286
3.83142
3.82996
3.82846
3.82695
3.8254
3.82383
3.82223
3.82061
3.81896
3.81728
3.81558
3.81386
3.81212
3.81037
3.80859
3.80679
3.80498
3.80315
3.80131
3.79945
3.79757
3.79567
3.79375
3.79181
3.78985
3.78788
3.7859
3.78392
3.78194
3.77996
3.77798
3.77599
3.77401
3.77202
3.77004
3.76806
3.76608
3.76411
3.76216
3.76023
3.75832
3.75641
3.75453
3.75265
3.75079
3.74895
3.74712
3.74532
3.74353
3.74176
3.74002
3.73829
3.73658
3.73489
3.7332
3.73154
3.72989
3.72827
3.72666
3.72508
3.72352
3.72198
3.72046
3.71897
3.71749
3.71604
3.71461
3.7132
3.71182
3.71047
3.70914
3.70784
3.70657
3.70532
3.70409
3.7029
3.70172
3.70058
3.69945
3.69836
3.69728
3.69623
3.6952
3.69419
3.69319
3.69222
3.69126
3.69031
3.68938
3.68846
3.68754
3.68663
3.68572
3.68481
3.6839
3.683
3.68211
3.68122
3.68035
3.67949
3.67864
3.6778
3.67697
3.67614
3.67532
3.6745
3.67369
3.67287
3.67206
3.67125
3.67044
3.66963
3.66883
3.66801
3.66719
3.66637
3.66553
3.66467
3.66381
3.66292
3.66201
3.66109
3.66015
3.65919
3.65821
3.65722
3.65621
3.65519
3.65414
3.65308
3.652
3.65089
3.64976
3.64862
3.64746
3.64629
3.64511
3.64391
3.6427
3.64148
3.64023
3.63896
3.63766
3.63635
3.63501
3.63366
3.63229
3.63091
3.6295
3.62808
3.62663
3.62516
3.62366
3.62215
3.6206
3.61904
3.61744
3.61583
3.61421
3.61258
3.61095
3.60931
3.60767
3.60602
3.60437
3.60271
3.60104
3.59938
3.59771
3.59605
3.5944
3.59276
3.59115
3.58957
3.588
3.58645
3.58492
3.58338
3.58184
3.5803
3.57875
3.57721
3.57567
3.57416
3.57265
3.57117
3.56971
3.56829
3.56689
3.56553
3.56419
3.56288
3.56158
3.56031
3.55903
3.5578
3.55657
3.55539
3.55421
3.55308
3.55196
3.5509
3.54985
3.54885
3.54787
3.54696
3.54611
3.5454
3.54488
3.54463
3.54483
3.54562
3.54735
3.55031
3.55533
3.56297
3.57568
3.59438
3.63209
3.6906
3.78456
3.92557
4.13446
4.48332
5.03992
6.08014
7.76299
10.3737
13.3804
14.1547
9.69715
0.586533
0.588896
0.594737
0.601459
0.608343
0.615775
0.623929
0.633912
0.64597
0.66032
0.675906
0.692599
0.709957
0.727774
0.746017
0.7647
0.7841
0.804421
0.825761
0.848243
0.871924
0.896766
0.922728
0.949982
0.978758
1.00915
1.0411
1.07456
1.1093
1.14513
1.18191
1.21953
1.25808
1.29812
1.34043
1.38522
1.43231
1.48137
1.53207
1.58412
1.6374
1.69195
1.7478
1.80492
1.86316
1.92232
1.98222
2.04263
2.10335
2.16413
2.22471
2.28482
2.34415
2.40237
2.45917
2.51419
2.56709
2.61749
2.66507
2.70965
2.75134
2.79062
2.82822
2.86472
2.90035
2.93515
2.96916
3.00238
3.03477
3.06623
3.09669
3.126
3.15408
3.18075
3.20597
3.22969
3.25195
3.27276
3.29206
3.30987
3.32602
3.34045
3.35294
3.3635
3.3722
3.37915
3.38448
3.38834
3.39088
3.39227
3.39271
3.39239
3.39146
3.39006
3.38828
3.38621
3.38394
3.38153
3.37905
3.37652
3.37397
3.3714
3.36885
3.36627
3.36361
3.36083
3.35792
3.35471
3.35124
3.34756
3.34368
3.33969
3.33569
3.33183
3.32819
3.32475
3.3215
3.31844
3.31546
3.31246
3.30948
3.30653
3.30364
3.30084
3.29812
3.29549
3.29295
3.29054
3.28827
3.28614
3.28416
3.28232
3.28062
3.27905
3.27762
3.27633
3.27517
3.27414
3.27324
3.27247
3.27184
3.27135
3.27098
3.27074
3.27063
3.27064
3.27078
3.27103
3.27141
3.27189
3.27249
3.2732
3.274
3.27491
3.27592
3.27702
3.2782
3.27946
3.28081
3.28222
3.28369
3.28523
3.28681
3.28844
3.2901
3.2918
3.29352
3.29527
3.29703
3.29881
3.30059
3.30236
3.30414
3.3059
3.30765
3.30939
3.31112
3.31282
3.31451
3.31617
3.31781
3.31942
3.32099
3.32253
3.32403
3.3255
3.32693
3.32832
3.32968
3.33099
3.33227
3.33351
3.33471
3.33587
3.33699
3.33808
3.33913
3.34015
3.34113
3.34207
3.34298
3.34385
3.34469
3.34549
3.34627
3.34702
3.34774
3.34843
3.3491
3.34973
3.35034
3.35091
3.35145
3.35195
3.35242
3.35285
3.35326
3.35364
3.35399
3.35433
3.35465
3.35494
3.35522
3.35547
3.3557
3.35591
3.3561
3.35626
3.35641
3.35655
3.35667
3.35679
3.35689
3.35698
3.35706
3.35713
3.35719
3.35724
3.35728
3.35731
3.35734
3.35736
3.35738
3.35739
3.35741
3.35743
3.35744
3.35746
3.35748
3.3575
3.35751
3.35754
3.35756
3.35758
3.35761
3.35764
3.35767
3.35771
3.35774
3.35778
3.35782
3.35786
3.35791
3.35797
3.35804
3.35812
3.35821
3.35831
3.35842
3.35855
3.35868
3.35883
3.35898
3.35914
3.35931
3.35947
3.35964
3.3598
3.35996
3.36011
3.36025
3.36038
3.3605
3.3606
3.36067
3.36073
3.36076
3.36077
3.36075
3.36069
3.36061
3.36049
3.36034
3.36016
3.35994
3.35969
3.3594
3.35908
3.35871
3.3583
3.35785
3.35736
3.35681
3.35623
3.35559
3.35492
3.3542
3.35343
3.35261
3.35175
3.35084
3.34988
3.34887
3.34781
3.34671
3.34556
3.34437
3.34314
3.34187
3.34056
3.33921
3.33784
3.33643
3.33499
3.33352
3.33202
3.33048
3.32891
3.3273
3.32566
3.32399
3.32229
3.32056
3.31881
3.31702
3.31521
3.31337
3.31151
3.30963
3.30773
3.30581
3.30387
3.30192
3.29995
3.29797
3.29599
3.29402
3.29204
3.29007
3.28811
3.28615
3.28419
3.28224
3.2803
3.27837
3.27644
3.27453
3.27263
3.27075
3.26889
3.26704
3.2652
3.26338
3.26157
3.25978
3.25801
3.25625
3.25452
3.25281
3.25112
3.24944
3.24778
3.24614
3.24451
3.2429
3.2413
3.23973
3.23817
3.23664
3.23512
3.23363
3.23216
3.23072
3.2293