/*--------------------------------*- C++ -*----------------------------------*\
| =========                 |                                                 |
| \\      /  F ield         | foam-extend: Open Source CFD                    |
|  \\    /   O peration     | Version:     3.2                                |
|   \\  /    A nd           | Web:         http://www.foam-extend.org         |
|    \\/     M anipulation  | For copyright notice see file Copyright         |
\*---------------------------------------------------------------------------*/
FoamFile
{
    version     2.0;
    format      ascii;
    class       volScalarField;
    location    "120";
    object      p;
}
// * * * * * * * * * * * * * * * * * * * * * * * * * * * * * * * * * * * * * //

dimensions      [1 -1 -2 0 0 0 0];

internalField   nonuniform List<scalar> 
33000
(
1145.23
1146.67
1147.23
1149.44
1150.26
1152.05
1152.76
1154.05
1154.66
1155.62
1156.15
1156.88
1157.35
1157.92
1158.37
1158.87
1159.3
1159.74
1160.15
1160.57
1160.96
1161.36
1161.74
1162.13
1162.51
1162.89
1163.27
1163.65
1164.03
1164.42
1164.72
1164.93
1165.08
1165.22
1165.37
1165.54
1165.73
1165.93
1166.15
1166.38
1166.63
1166.88
1167.14
1167.41
1167.69
1167.97
1168.26
1168.55
1168.85
1169.15
1169.46
1169.77
1170.08
1170.4
1170.71
1171.03
1171.35
1171.67
1171.99
1172.31
1172.63
1172.95
1173.28
1173.6
1173.92
1174.25
1174.57
1174.89
1175.22
1175.54
1175.86
1176.19
1176.51
1176.84
1177.16
1177.48
1177.81
1178.13
1178.46
1178.79
1179.11
1179.44
1179.76
1180.09
1180.42
1180.74
1181.07
1181.39
1181.72
1182.05
1182.37
1182.7
1183.03
1183.36
1183.69
1184.02
1184.35
1184.68
1185
1185.33
1185.66
1185.99
1186.32
1186.64
1186.97
1187.3
1187.62
1187.95
1188.27
1188.6
1188.92
1189.25
1189.57
1189.89
1190.21
1190.54
1190.86
1191.18
1191.5
1191.82
1192.14
1192.46
1192.79
1193.11
1193.43
1193.75
1194.07
1194.39
1194.72
1195.04
1195.36
1195.68
1196.01
1196.33
1196.66
1196.98
1197.31
1197.63
1197.96
1198.29
1198.62
1198.94
1199.27
1199.6
1199.93
1200.26
1200.59
1200.91
1201.24
1201.57
1201.9
1202.23
1202.56
1202.9
1203.23
1203.56
1203.89
1204.22
1204.56
1204.89
1205.23
1205.57
1205.9
1206.24
1206.58
1206.92
1207.26
1207.6
1207.94
1208.29
1208.63
1208.98
1209.32
1209.67
1210.02
1210.36
1210.71
1211.06
1211.41
1211.76
1212.11
1212.46
1212.81
1213.16
1213.51
1213.86
1214.21
1214.56
1214.91
1215.26
1215.61
1215.96
1216.32
1216.67
1217.02
1217.37
1217.72
1218.07
1218.42
1218.77
1219.12
1219.47
1219.82
1220.17
1220.52
1220.87
1221.22
1221.57
1221.91
1222.26
1222.6
1222.94
1223.29
1223.63
1223.97
1224.31
1224.65
1224.99
1225.33
1225.67
1226.01
1226.35
1226.69
1227.03
1227.37
1227.71
1228.05
1228.39
1228.74
1229.08
1229.43
1229.77
1230.12
1230.46
1230.81
1231.16
1231.51
1231.85
1232.2
1232.55
1232.9
1233.25
1233.6
1233.95
1234.3
1234.65
1235
1235.35
1235.7
1236.05
1236.41
1236.76
1237.11
1237.46
1237.82
1238.17
1238.52
1238.88
1239.23
1239.59
1239.94
1240.3
1240.65
1241.01
1241.36
1241.72
1242.08
1242.43
1242.79
1243.15
1243.5
1243.86
1244.21
1244.57
1244.92
1245.28
1245.63
1245.99
1246.34
1246.69
1247.05
1247.4
1247.75
1248.1
1248.45
1248.81
1249.16
1249.51
1249.86
1250.21
1250.56
1250.91
1251.26
1251.62
1251.97
1252.32
1252.67
1253.02
1253.37
1253.73
1254.08
1254.43
1254.79
1255.14
1255.49
1255.85
1256.2
1256.56
1256.91
1257.26
1257.62
1257.97
1258.33
1258.68
1259.04
1259.39
1259.74
1260.1
1260.45
1260.81
1261.16
1261.51
1261.86
1262.22
1262.57
1262.92
1263.27
1263.62
1263.97
1264.33
1264.68
1265.03
1265.38
1265.73
1266.07
1266.42
1266.77
1267.12
1267.47
1267.81
1268.16
1268.51
1268.86
1269.2
1269.55
1269.9
1270.25
1270.59
1270.94
1271.29
1271.64
1271.99
1272.34
1272.69
1273.04
1273.39
1273.74
1274.09
1274.44
1274.79
1275.14
1275.49
1275.85
1276.2
1276.55
1276.9
1277.26
1277.61
1277.96
1278.31
1278.66
1279.01
1279.36
1279.71
1280.06
1280.4
1280.75
1281.1
1281.45
1281.79
1282.14
1282.49
1282.83
1283.18
1283.53
1283.88
1284.22
1284.57
1284.92
1285.27
1285.62
1285.97
1286.32
1286.67
1287.02
1287.37
1287.72
1288.08
1288.43
1288.78
1289.14
1289.49
1289.85
1290.2
1290.56
1290.91
1291.26
1291.62
1291.97
1292.32
1292.67
1293.02
1293.37
1293.72
1294.07
1294.42
1294.77
1295.12
1295.47
1295.82
1296.17
1296.52
1296.87
1297.22
1297.57
1297.92
1298.27
1298.62
1298.97
1299.32
1299.67
1300.02
1300.37
1300.72
1301.07
1301.41
1301.76
1302.11
1302.45
1302.8
1303.14
1303.49
1303.83
1304.17
1304.51
1304.85
1305.19
1305.53
1305.87
1306.21
1306.54
1306.88
1307.21
1307.55
1307.89
1308.22
1308.56
1308.89
1309.23
1309.56
1309.9
1310.23
1310.57
1310.91
1311.24
1311.58
1311.92
1312.25
1312.59
1312.93
1313.27
1313.61
1313.95
1314.29
1314.63
1314.97
1315.31
1315.65
1315.99
1316.33
1316.67
1317.02
1317.36
1317.71
1318.05
1318.4
1318.74
1319.09
1319.44
1319.79
1320.14
1320.48
1320.83
1321.18
1321.53
1321.88
1322.23
1322.58
1322.93
1323.28
1323.63
1323.98
1324.34
1324.69
1325.04
1325.4
1325.75
1326.11
1326.47
1326.83
1327.19
1327.56
1327.92
1328.29
1328.65
1329.02
1329.39
1329.76
1330.12
1330.5
1330.86
1331.23
1331.6
1331.97
1332.33
1332.7
1333.06
1333.43
1333.79
1334.16
1334.51
1334.89
1335.22
1335.63
1335.92
1336.4
1336.63
1337.35
1338.43
1342.34
1344.13
1345.6
1346.38
1349.02
1350.18
1353.78
1353.86
1355.88
1354.68
1355.98
1096.29
1097.85
1098.37
1100.6
1101.41
1103.22
1103.92
1105.21
1105.81
1106.77
1107.31
1108.04
1108.51
1109.08
1109.53
1110.03
1110.46
1110.9
1111.31
1111.72
1112.11
1112.5
1112.89
1113.28
1113.66
1114.04
1114.42
1114.8
1115.18
1115.56
1115.85
1116.07
1116.23
1116.36
1116.52
1116.69
1116.88
1117.08
1117.3
1117.53
1117.78
1118.03
1118.29
1118.56
1118.84
1119.12
1119.41
1119.7
1120
1120.3
1120.61
1120.92
1121.23
1121.55
1121.86
1122.18
1122.5
1122.82
1123.14
1123.46
1123.78
1124.1
1124.43
1124.75
1125.07
1125.4
1125.72
1126.04
1126.36
1126.69
1127.01
1127.34
1127.66
1127.98
1128.31
1128.63
1128.96
1129.28
1129.61
1129.93
1130.26
1130.59
1130.91
1131.24
1131.56
1131.89
1132.22
1132.54
1132.87
1133.2
1133.52
1133.85
1134.18
1134.51
1134.83
1135.16
1135.49
1135.82
1136.15
1136.48
1136.81
1137.14
1137.47
1137.79
1138.12
1138.45
1138.77
1139.1
1139.42
1139.75
1140.07
1140.39
1140.72
1141.04
1141.36
1141.68
1142.01
1142.33
1142.65
1142.97
1143.29
1143.61
1143.93
1144.25
1144.58
1144.9
1145.22
1145.54
1145.86
1146.19
1146.51
1146.83
1147.16
1147.48
1147.81
1148.13
1148.46
1148.78
1149.11
1149.44
1149.76
1150.09
1150.42
1150.75
1151.08
1151.4
1151.73
1152.06
1152.39
1152.72
1153.05
1153.38
1153.71
1154.04
1154.37
1154.71
1155.04
1155.37
1155.71
1156.04
1156.38
1156.71
1157.05
1157.39
1157.73
1158.07
1158.41
1158.75
1159.09
1159.44
1159.78
1160.12
1160.47
1160.82
1161.16
1161.51
1161.86
1162.21
1162.56
1162.91
1163.26
1163.61
1163.96
1164.31
1164.66
1165.01
1165.36
1165.71
1166.06
1166.41
1166.76
1167.11
1167.46
1167.81
1168.16
1168.52
1168.87
1169.22
1169.57
1169.92
1170.27
1170.62
1170.97
1171.32
1171.67
1172.02
1172.37
1172.71
1173.06
1173.4
1173.75
1174.09
1174.43
1174.77
1175.11
1175.46
1175.8
1176.14
1176.48
1176.82
1177.16
1177.49
1177.83
1178.18
1178.52
1178.86
1179.2
1179.54
1179.88
1180.23
1180.57
1180.92
1181.26
1181.61
1181.96
1182.3
1182.65
1183
1183.35
1183.7
1184.05
1184.4
1184.75
1185.1
1185.45
1185.8
1186.15
1186.5
1186.85
1187.2
1187.55
1187.91
1188.26
1188.61
1188.96
1189.32
1189.67
1190.02
1190.38
1190.73
1191.09
1191.44
1191.8
1192.16
1192.51
1192.87
1193.22
1193.58
1193.94
1194.29
1194.65
1195
1195.36
1195.72
1196.07
1196.43
1196.78
1197.13
1197.49
1197.84
1198.19
1198.55
1198.9
1199.25
1199.6
1199.95
1200.3
1200.66
1201.01
1201.36
1201.71
1202.06
1202.41
1202.76
1203.11
1203.46
1203.82
1204.17
1204.52
1204.87
1205.23
1205.58
1205.93
1206.29
1206.64
1206.99
1207.35
1207.7
1208.06
1208.41
1208.77
1209.12
1209.47
1209.83
1210.18
1210.54
1210.89
1211.24
1211.6
1211.95
1212.3
1212.66
1213.01
1213.36
1213.72
1214.07
1214.42
1214.77
1215.12
1215.47
1215.82
1216.17
1216.52
1216.87
1217.22
1217.57
1217.92
1218.27
1218.61
1218.96
1219.31
1219.66
1220
1220.35
1220.7
1221.05
1221.39
1221.74
1222.09
1222.44
1222.78
1223.13
1223.48
1223.83
1224.18
1224.53
1224.88
1225.23
1225.59
1225.94
1226.29
1226.64
1226.99
1227.35
1227.7
1228.05
1228.4
1228.75
1229.1
1229.46
1229.81
1230.16
1230.5
1230.85
1231.2
1231.55
1231.9
1232.25
1232.59
1232.94
1233.29
1233.63
1233.98
1234.33
1234.68
1235.02
1235.37
1235.72
1236.07
1236.42
1236.76
1237.11
1237.46
1237.82
1238.17
1238.52
1238.87
1239.22
1239.58
1239.93
1240.29
1240.64
1240.99
1241.35
1241.7
1242.06
1242.41
1242.76
1243.11
1243.47
1243.82
1244.17
1244.52
1244.87
1245.22
1245.57
1245.92
1246.27
1246.62
1246.96
1247.31
1247.66
1248.01
1248.36
1248.71
1249.06
1249.41
1249.76
1250.11
1250.46
1250.82
1251.17
1251.51
1251.86
1252.21
1252.56
1252.91
1253.26
1253.6
1253.95
1254.29
1254.63
1254.98
1255.32
1255.66
1256
1256.34
1256.68
1257.02
1257.35
1257.69
1258.03
1258.36
1258.7
1259.03
1259.37
1259.7
1260.04
1260.37
1260.71
1261.04
1261.38
1261.72
1262.05
1262.39
1262.73
1263.06
1263.4
1263.74
1264.08
1264.42
1264.75
1265.09
1265.43
1265.77
1266.11
1266.45
1266.79
1267.14
1267.48
1267.82
1268.16
1268.51
1268.85
1269.2
1269.54
1269.89
1270.24
1270.59
1270.93
1271.28
1271.63
1271.98
1272.33
1272.68
1273.03
1273.38
1273.73
1274.08
1274.43
1274.78
1275.13
1275.48
1275.83
1276.19
1276.54
1276.9
1277.26
1277.62
1277.98
1278.34
1278.7
1279.07
1279.43
1279.8
1280.17
1280.53
1280.9
1281.27
1281.64
1282.01
1282.38
1282.75
1283.12
1283.48
1283.85
1284.21
1284.58
1284.94
1285.31
1285.65
1286.04
1286.37
1286.78
1287.07
1287.54
1287.78
1288.57
1289.76
1293.42
1295.07
1296.72
1297.5
1300.16
1301.29
1304.88
1305
1307.06
1305.73
1307
1047.34
1048.97
1049.49
1051.74
1052.57
1054.36
1055.06
1056.37
1056.96
1057.93
1058.44
1059.18
1059.65
1060.22
1060.66
1061.16
1061.59
1062.04
1062.44
1062.86
1063.26
1063.65
1064.04
1064.43
1064.81
1065.19
1065.57
1065.95
1066.33
1066.7
1066.99
1067.21
1067.38
1067.52
1067.67
1067.84
1068.03
1068.23
1068.45
1068.69
1068.93
1069.18
1069.44
1069.71
1069.99
1070.27
1070.56
1070.85
1071.15
1071.45
1071.76
1072.07
1072.38
1072.69
1073.01
1073.33
1073.65
1073.97
1074.29
1074.61
1074.93
1075.25
1075.57
1075.9
1076.22
1076.54
1076.87
1077.19
1077.51
1077.84
1078.16
1078.48
1078.81
1079.13
1079.46
1079.78
1080.1
1080.43
1080.75
1081.08
1081.41
1081.73
1082.06
1082.38
1082.71
1083.04
1083.36
1083.69
1084.02
1084.34
1084.67
1085
1085.32
1085.65
1085.98
1086.31
1086.64
1086.97
1087.3
1087.63
1087.96
1088.28
1088.61
1088.94
1089.27
1089.59
1089.92
1090.24
1090.57
1090.89
1091.22
1091.54
1091.86
1092.19
1092.51
1092.83
1093.15
1093.47
1093.8
1094.12
1094.44
1094.76
1095.08
1095.4
1095.72
1096.04
1096.37
1096.69
1097.01
1097.33
1097.66
1097.98
1098.3
1098.63
1098.95
1099.28
1099.6
1099.93
1100.26
1100.58
1100.91
1101.24
1101.57
1101.89
1102.22
1102.55
1102.88
1103.21
1103.54
1103.87
1104.2
1104.53
1104.86
1105.19
1105.52
1105.85
1106.19
1106.52
1106.85
1107.19
1107.52
1107.86
1108.2
1108.53
1108.87
1109.21
1109.55
1109.9
1110.24
1110.58
1110.93
1111.27
1111.62
1111.96
1112.31
1112.66
1113.01
1113.35
1113.7
1114.05
1114.4
1114.75
1115.1
1115.45
1115.8
1116.15
1116.5
1116.85
1117.21
1117.56
1117.91
1118.26
1118.61
1118.96
1119.31
1119.66
1120.01
1120.36
1120.72
1121.07
1121.42
1121.77
1122.12
1122.47
1122.82
1123.16
1123.51
1123.86
1124.2
1124.55
1124.89
1125.24
1125.58
1125.92
1126.26
1126.6
1126.94
1127.28
1127.62
1127.96
1128.3
1128.64
1128.98
1129.32
1129.66
1130
1130.35
1130.69
1131.03
1131.38
1131.72
1132.06
1132.41
1132.76
1133.1
1133.45
1133.8
1134.15
1134.5
1134.85
1135.19
1135.54
1135.89
1136.24
1136.59
1136.94
1137.3
1137.65
1138
1138.35
1138.7
1139.05
1139.4
1139.76
1140.11
1140.46
1140.82
1141.17
1141.53
1141.88
1142.24
1142.59
1142.95
1143.3
1143.66
1144.01
1144.37
1144.73
1145.08
1145.44
1145.8
1146.15
1146.51
1146.86
1147.22
1147.57
1147.93
1148.28
1148.63
1148.99
1149.34
1149.69
1150.04
1150.4
1150.75
1151.1
1151.45
1151.8
1152.15
1152.5
1152.85
1153.21
1153.56
1153.91
1154.26
1154.61
1154.96
1155.32
1155.67
1156.02
1156.37
1156.73
1157.08
1157.43
1157.79
1158.14
1158.49
1158.85
1159.2
1159.56
1159.91
1160.27
1160.62
1160.97
1161.33
1161.68
1162.04
1162.39
1162.74
1163.1
1163.45
1163.8
1164.16
1164.51
1164.86
1165.21
1165.57
1165.92
1166.27
1166.62
1166.97
1167.32
1167.67
1168.02
1168.37
1168.72
1169.06
1169.41
1169.76
1170.11
1170.46
1170.8
1171.15
1171.5
1171.84
1172.19
1172.54
1172.89
1173.23
1173.58
1173.93
1174.28
1174.63
1174.98
1175.33
1175.68
1176.03
1176.38
1176.73
1177.08
1177.44
1177.79
1178.14
1178.49
1178.84
1179.2
1179.55
1179.9
1180.25
1180.6
1180.95
1181.3
1181.65
1182
1182.35
1182.7
1183.04
1183.39
1183.74
1184.09
1184.43
1184.78
1185.13
1185.48
1185.82
1186.17
1186.52
1186.86
1187.21
1187.56
1187.91
1188.26
1188.61
1188.96
1189.31
1189.66
1190.02
1190.37
1190.72
1191.08
1191.43
1191.79
1192.14
1192.49
1192.85
1193.2
1193.56
1193.91
1194.26
1194.61
1194.96
1195.32
1195.67
1196.02
1196.37
1196.71
1197.06
1197.41
1197.76
1198.11
1198.46
1198.81
1199.16
1199.51
1199.86
1200.21
1200.56
1200.91
1201.26
1201.61
1201.96
1202.31
1202.66
1203.01
1203.36
1203.71
1204.06
1204.4
1204.75
1205.09
1205.44
1205.78
1206.12
1206.46
1206.81
1207.15
1207.49
1207.82
1208.16
1208.5
1208.84
1209.17
1209.51
1209.84
1210.18
1210.51
1210.85
1211.18
1211.52
1211.86
1212.19
1212.53
1212.86
1213.2
1213.54
1213.87
1214.21
1214.55
1214.89
1215.22
1215.56
1215.9
1216.24
1216.58
1216.92
1217.26
1217.6
1217.94
1218.28
1218.62
1218.97
1219.31
1219.65
1220
1220.34
1220.69
1221.04
1221.38
1221.73
1222.08
1222.43
1222.78
1223.13
1223.48
1223.82
1224.17
1224.52
1224.87
1225.22
1225.57
1225.93
1226.28
1226.63
1226.98
1227.33
1227.69
1228.05
1228.4
1228.76
1229.12
1229.48
1229.85
1230.21
1230.58
1230.94
1231.31
1231.68
1232.05
1232.42
1232.79
1233.16
1233.53
1233.89
1234.26
1234.63
1235
1235.36
1235.73
1236.08
1236.45
1236.8
1237.18
1237.51
1237.92
1238.21
1238.69
1238.93
1239.85
1241
1244.36
1246.04
1247.75
1248.51
1251.14
1252.17
1255.74
1255.92
1258.07
1256.76
1258.19
998.301
1000.09
1000.58
1002.91
1003.74
1005.56
1006.26
1007.56
1008.14
1009.1
1009.62
1010.34
1010.81
1011.38
1011.83
1012.33
1012.75
1013.2
1013.6
1014.02
1014.41
1014.8
1015.19
1015.58
1015.96
1016.34
1016.72
1017.09
1017.47
1017.83
1018.12
1018.34
1018.51
1018.66
1018.82
1018.99
1019.18
1019.39
1019.6
1019.84
1020.08
1020.33
1020.59
1020.86
1021.14
1021.42
1021.71
1022
1022.3
1022.6
1022.91
1023.22
1023.53
1023.85
1024.16
1024.48
1024.8
1025.12
1025.44
1025.76
1026.08
1026.4
1026.72
1027.05
1027.37
1027.69
1028.01
1028.34
1028.66
1028.98
1029.31
1029.63
1029.96
1030.28
1030.6
1030.93
1031.25
1031.58
1031.9
1032.23
1032.55
1032.88
1033.21
1033.53
1033.86
1034.18
1034.51
1034.84
1035.16
1035.49
1035.82
1036.14
1036.47
1036.8
1037.13
1037.46
1037.79
1038.12
1038.45
1038.78
1039.1
1039.43
1039.76
1040.09
1040.41
1040.74
1041.07
1041.39
1041.72
1042.04
1042.36
1042.69
1043.01
1043.33
1043.66
1043.98
1044.3
1044.62
1044.94
1045.26
1045.59
1045.91
1046.23
1046.55
1046.87
1047.19
1047.51
1047.84
1048.16
1048.48
1048.8
1049.13
1049.45
1049.78
1050.1
1050.43
1050.75
1051.08
1051.4
1051.73
1052.06
1052.39
1052.71
1053.04
1053.37
1053.7
1054.03
1054.36
1054.69
1055.02
1055.35
1055.68
1056.01
1056.34
1056.67
1057
1057.33
1057.67
1058
1058.34
1058.67
1059.01
1059.34
1059.68
1060.02
1060.36
1060.7
1061.04
1061.39
1061.73
1062.07
1062.42
1062.76
1063.11
1063.46
1063.81
1064.15
1064.5
1064.85
1065.2
1065.55
1065.9
1066.25
1066.6
1066.95
1067.3
1067.65
1068
1068.35
1068.7
1069.05
1069.41
1069.76
1070.11
1070.46
1070.81
1071.16
1071.51
1071.86
1072.21
1072.56
1072.92
1073.27
1073.61
1073.96
1074.31
1074.66
1075.01
1075.35
1075.7
1076.04
1076.38
1076.73
1077.07
1077.41
1077.75
1078.09
1078.43
1078.77
1079.11
1079.45
1079.79
1080.13
1080.47
1080.81
1081.15
1081.49
1081.84
1082.18
1082.52
1082.87
1083.21
1083.56
1083.9
1084.25
1084.6
1084.95
1085.3
1085.64
1085.99
1086.34
1086.69
1087.04
1087.39
1087.74
1088.09
1088.44
1088.79
1089.14
1089.5
1089.85
1090.2
1090.55
1090.9
1091.26
1091.61
1091.96
1092.32
1092.67
1093.03
1093.38
1093.74
1094.09
1094.45
1094.81
1095.16
1095.52
1095.87
1096.23
1096.59
1096.94
1097.3
1097.65
1098.01
1098.36
1098.72
1099.07
1099.43
1099.78
1100.13
1100.49
1100.84
1101.19
1101.54
1101.9
1102.25
1102.6
1102.95
1103.3
1103.65
1104
1104.35
1104.7
1105.06
1105.41
1105.76
1106.11
1106.46
1106.81
1107.17
1107.52
1107.87
1108.23
1108.58
1108.93
1109.29
1109.64
1110
1110.35
1110.7
1111.06
1111.41
1111.77
1112.12
1112.48
1112.83
1113.18
1113.54
1113.89
1114.25
1114.6
1114.95
1115.3
1115.66
1116.01
1116.36
1116.71
1117.06
1117.41
1117.77
1118.12
1118.47
1118.82
1119.17
1119.51
1119.86
1120.21
1120.56
1120.91
1121.25
1121.6
1121.95
1122.3
1122.64
1122.99
1123.34
1123.69
1124.03
1124.38
1124.73
1125.08
1125.43
1125.78
1126.13
1126.48
1126.83
1127.18
1127.53
1127.88
1128.23
1128.58
1128.94
1129.29
1129.64
1129.99
1130.34
1130.7
1131.05
1131.4
1131.75
1132.1
1132.45
1132.8
1133.15
1133.5
1133.84
1134.19
1134.54
1134.89
1135.23
1135.58
1135.93
1136.28
1136.62
1136.97
1137.32
1137.66
1138.01
1138.36
1138.71
1139.06
1139.41
1139.76
1140.11
1140.46
1140.81
1141.16
1141.52
1141.87
1142.22
1142.58
1142.93
1143.29
1143.64
1144
1144.35
1144.7
1145.06
1145.41
1145.76
1146.11
1146.46
1146.81
1147.16
1147.51
1147.86
1148.21
1148.56
1148.91
1149.26
1149.61
1149.96
1150.31
1150.66
1151.01
1151.36
1151.71
1152.06
1152.41
1152.76
1153.11
1153.46
1153.81
1154.16
1154.51
1154.86
1155.2
1155.55
1155.9
1156.24
1156.58
1156.93
1157.27
1157.61
1157.95
1158.29
1158.63
1158.97
1159.31
1159.65
1159.98
1160.32
1160.65
1160.99
1161.33
1161.66
1162
1162.33
1162.67
1163
1163.34
1163.67
1164.01
1164.35
1164.68
1165.02
1165.36
1165.69
1166.03
1166.37
1166.71
1167.05
1167.39
1167.73
1168.07
1168.41
1168.75
1169.09
1169.43
1169.77
1170.11
1170.46
1170.8
1171.15
1171.49
1171.84
1172.18
1172.53
1172.88
1173.23
1173.58
1173.92
1174.27
1174.62
1174.97
1175.32
1175.67
1176.02
1176.37
1176.72
1177.07
1177.42
1177.78
1178.13
1178.48
1178.84
1179.19
1179.55
1179.91
1180.27
1180.63
1181
1181.36
1181.73
1182.09
1182.46
1182.83
1183.2
1183.57
1183.94
1184.3
1184.67
1185.04
1185.41
1185.77
1186.14
1186.5
1186.87
1187.23
1187.6
1187.94
1188.33
1188.65
1189.07
1189.35
1189.84
1190.11
1191.1
1192.26
1195.38
1196.92
1198.75
1199.46
1202.07
1202.97
1206.48
1206.72
1209.05
1207.92
1209.37
949.216
951.176
951.654
954.06
954.91
956.729
957.428
958.735
959.315
960.268
960.776
961.499
961.965
962.533
962.975
963.47
963.895
964.339
964.745
965.161
965.554
965.951
966.338
966.725
967.106
967.487
967.865
968.241
968.612
968.965
969.253
969.479
969.656
969.812
969.975
970.146
970.336
970.54
970.758
970.989
971.231
971.483
971.743
972.011
972.287
972.569
972.857
973.15
973.449
973.751
974.058
974.367
974.679
974.992
975.308
975.625
975.944
976.263
976.583
976.904
977.226
977.548
977.871
978.193
978.516
978.839
979.163
979.486
979.809
980.132
980.456
980.78
981.104
981.428
981.752
982.077
982.401
982.726
983.052
983.378
983.703
984.029
984.355
984.681
985.007
985.334
985.66
985.986
986.313
986.639
986.966
987.294
987.621
987.95
988.278
988.607
988.937
989.266
989.595
989.924
990.252
990.58
990.908
991.235
991.562
991.888
992.214
992.539
992.864
993.189
993.513
993.836
994.159
994.482
994.805
995.127
995.449
995.77
996.092
996.413
996.734
997.055
997.376
997.697
998.018
998.34
998.661
998.983
999.306
999.628
999.951
1000.27
1000.6
1000.92
1001.25
1001.57
1001.9
1002.23
1002.55
1002.88
1003.21
1003.53
1003.86
1004.19
1004.52
1004.85
1005.18
1005.5
1005.83
1006.16
1006.49
1006.82
1007.15
1007.49
1007.82
1008.15
1008.48
1008.81
1009.15
1009.48
1009.82
1010.16
1010.49
1010.83
1011.17
1011.51
1011.85
1012.19
1012.53
1012.88
1013.22
1013.57
1013.91
1014.26
1014.61
1014.95
1015.3
1015.65
1016
1016.35
1016.7
1017.05
1017.4
1017.75
1018.1
1018.45
1018.8
1019.15
1019.5
1019.85
1020.2
1020.55
1020.9
1021.26
1021.61
1021.96
1022.31
1022.66
1023.01
1023.36
1023.71
1024.06
1024.41
1024.76
1025.11
1025.46
1025.81
1026.15
1026.5
1026.84
1027.19
1027.53
1027.87
1028.22
1028.56
1028.9
1029.24
1029.58
1029.92
1030.26
1030.6
1030.94
1031.28
1031.62
1031.96
1032.3
1032.64
1032.98
1033.33
1033.67
1034.01
1034.36
1034.71
1035.05
1035.4
1035.75
1036.09
1036.44
1036.79
1037.14
1037.49
1037.84
1038.19
1038.54
1038.89
1039.24
1039.59
1039.94
1040.29
1040.64
1040.99
1041.35
1041.7
1042.05
1042.4
1042.76
1043.11
1043.47
1043.82
1044.18
1044.53
1044.89
1045.24
1045.6
1045.95
1046.31
1046.67
1047.02
1047.38
1047.73
1048.09
1048.45
1048.8
1049.16
1049.51
1049.87
1050.22
1050.58
1050.93
1051.28
1051.64
1051.99
1052.34
1052.69
1053.04
1053.39
1053.75
1054.1
1054.45
1054.8
1055.15
1055.5
1055.85
1056.2
1056.55
1056.91
1057.26
1057.61
1057.96
1058.31
1058.67
1059.02
1059.37
1059.73
1060.08
1060.43
1060.79
1061.14
1061.5
1061.85
1062.21
1062.56
1062.91
1063.27
1063.62
1063.98
1064.33
1064.69
1065.04
1065.39
1065.75
1066.1
1066.45
1066.8
1067.16
1067.51
1067.86
1068.21
1068.56
1068.91
1069.26
1069.61
1069.96
1070.31
1070.66
1071.01
1071.36
1071.71
1072.05
1072.4
1072.75
1073.1
1073.44
1073.79
1074.14
1074.49
1074.83
1075.18
1075.53
1075.88
1076.23
1076.57
1076.92
1077.27
1077.62
1077.97
1078.32
1078.67
1079.03
1079.38
1079.73
1080.08
1080.43
1080.79
1081.14
1081.49
1081.84
1082.19
1082.55
1082.9
1083.25
1083.6
1083.95
1084.29
1084.64
1084.99
1085.34
1085.69
1086.03
1086.38
1086.73
1087.08
1087.42
1087.77
1088.12
1088.46
1088.81
1089.16
1089.51
1089.86
1090.21
1090.55
1090.9
1091.26
1091.61
1091.96
1092.31
1092.66
1093.02
1093.37
1093.73
1094.08
1094.43
1094.79
1095.14
1095.5
1095.85
1096.2
1096.56
1096.91
1097.26
1097.61
1097.96
1098.31
1098.66
1099.01
1099.36
1099.71
1100.06
1100.41
1100.75
1101.1
1101.45
1101.8
1102.15
1102.5
1102.85
1103.2
1103.56
1103.91
1104.26
1104.61
1104.96
1105.31
1105.65
1106
1106.35
1106.7
1107.04
1107.39
1107.73
1108.08
1108.42
1108.76
1109.1
1109.44
1109.78
1110.12
1110.46
1110.79
1111.13
1111.47
1111.8
1112.14
1112.47
1112.81
1113.14
1113.48
1113.81
1114.15
1114.49
1114.82
1115.16
1115.49
1115.83
1116.17
1116.5
1116.84
1117.18
1117.52
1117.86
1118.19
1118.53
1118.87
1119.21
1119.55
1119.89
1120.23
1120.58
1120.92
1121.26
1121.6
1121.95
1122.29
1122.64
1122.98
1123.33
1123.68
1124.03
1124.37
1124.72
1125.07
1125.42
1125.77
1126.12
1126.47
1126.82
1127.17
1127.52
1127.87
1128.22
1128.57
1128.92
1129.27
1129.63
1129.98
1130.34
1130.7
1131.06
1131.42
1131.78
1132.14
1132.51
1132.87
1133.24
1133.61
1133.97
1134.34
1134.71
1135.08
1135.45
1135.82
1136.19
1136.56
1136.92
1137.29
1137.65
1138.02
1138.37
1138.74
1139.09
1139.47
1139.79
1140.21
1140.49
1141
1141.28
1142.35
1143.46
1146.33
1147.8
1149.68
1150.31
1152.88
1153.64
1157.03
1157.31
1159.83
1158.92
1160.73
900.051
902.232
902.696
905.214
906.071
907.912
908.613
909.923
910.5
911.448
911.953
912.669
913.129
913.699
914.139
914.633
915.055
915.498
915.903
916.317
916.708
917.103
917.488
917.875
918.255
918.634
919.01
919.384
919.749
920.094
920.382
920.611
920.794
920.956
921.122
921.297
921.487
921.691
921.91
922.141
922.383
922.634
922.895
923.163
923.438
923.72
924.008
924.302
924.6
924.902
925.209
925.518
925.83
926.143
926.459
926.776
927.094
927.414
927.734
928.055
928.376
928.698
929.021
929.343
929.666
929.989
930.312
930.635
930.959
931.282
931.606
931.929
932.253
932.578
932.902
933.226
933.551
933.876
934.202
934.527
934.853
935.179
935.505
935.831
936.157
936.483
936.809
937.136
937.463
937.789
938.115
938.443
938.771
939.1
939.428
939.758
940.087
940.417
940.746
941.074
941.402
941.73
942.058
942.385
942.711
943.037
943.363
943.689
944.014
944.338
944.662
944.986
945.309
945.632
945.955
946.277
946.599
946.92
947.241
947.563
947.884
948.205
948.526
948.847
949.168
949.489
949.811
950.133
950.455
950.778
951.101
951.424
951.748
952.073
952.397
952.723
953.049
953.375
953.701
954.028
954.356
954.683
955.011
955.339
955.668
955.996
956.325
956.654
956.984
957.313
957.643
957.973
958.304
958.635
958.966
959.298
959.631
959.964
960.298
960.632
960.968
961.304
961.641
961.98
962.319
962.658
962.999
963.341
963.684
964.027
964.371
964.716
965.062
965.409
965.756
966.103
966.451
966.8
967.149
967.498
967.848
968.197
968.547
968.898
969.248
969.598
969.949
970.3
970.65
971.001
971.352
971.703
972.054
972.405
972.756
973.107
973.458
973.809
974.16
974.511
974.862
975.212
975.562
975.912
976.261
976.609
976.957
977.303
977.649
977.994
978.338
978.681
979.023
979.365
979.706
980.047
980.387
980.727
981.066
981.406
981.745
982.085
982.425
982.765
983.106
983.447
983.789
984.132
984.475
984.818
985.163
985.508
985.854
986.2
986.547
986.895
987.243
987.591
987.94
988.289
988.638
988.988
989.338
989.688
990.038
990.388
990.739
991.089
991.44
991.792
992.143
992.495
992.848
993.2
993.553
993.906
994.26
994.614
994.969
995.324
995.679
996.034
996.39
996.746
997.102
997.458
997.814
998.171
998.527
998.883
999.239
999.595
999.951
1000.31
1000.66
1001.02
1001.37
1001.72
1002.08
1002.43
1002.78
1003.14
1003.49
1003.84
1004.19
1004.54
1004.89
1005.24
1005.6
1005.95
1006.3
1006.65
1007
1007.35
1007.7
1008.05
1008.41
1008.76
1009.11
1009.46
1009.82
1010.17
1010.52
1010.88
1011.23
1011.58
1011.94
1012.29
1012.65
1013
1013.35
1013.71
1014.06
1014.42
1014.77
1015.13
1015.48
1015.83
1016.19
1016.54
1016.89
1017.25
1017.6
1017.95
1018.3
1018.66
1019.01
1019.36
1019.71
1020.06
1020.41
1020.76
1021.11
1021.46
1021.81
1022.16
1022.51
1022.85
1023.2
1023.55
1023.9
1024.25
1024.59
1024.94
1025.29
1025.63
1025.98
1026.33
1026.68
1027.02
1027.37
1027.72
1028.07
1028.42
1028.77
1029.12
1029.47
1029.82
1030.17
1030.53
1030.88
1031.23
1031.58
1031.94
1032.29
1032.64
1032.99
1033.34
1033.69
1034.04
1034.39
1034.74
1035.09
1035.44
1035.79
1036.14
1036.49
1036.84
1037.18
1037.53
1037.88
1038.22
1038.57
1038.92
1039.26
1039.61
1039.96
1040.31
1040.66
1041
1041.35
1041.7
1042.05
1042.4
1042.76
1043.11
1043.46
1043.81
1044.17
1044.52
1044.87
1045.23
1045.58
1045.94
1046.29
1046.65
1047
1047.35
1047.7
1048.06
1048.41
1048.76
1049.11
1049.46
1049.81
1050.16
1050.51
1050.86
1051.2
1051.55
1051.9
1052.25
1052.6
1052.95
1053.3
1053.65
1054
1054.35
1054.7
1055.05
1055.4
1055.75
1056.1
1056.45
1056.8
1057.15
1057.5
1057.85
1058.19
1058.54
1058.88
1059.22
1059.57
1059.91
1060.25
1060.59
1060.93
1061.27
1061.6
1061.94
1062.28
1062.61
1062.95
1063.29
1063.62
1063.96
1064.29
1064.63
1064.96
1065.3
1065.63
1065.97
1066.3
1066.64
1066.98
1067.31
1067.65
1067.99
1068.33
1068.66
1069
1069.34
1069.68
1070.02
1070.36
1070.7
1071.04
1071.38
1071.72
1072.07
1072.41
1072.75
1073.1
1073.44
1073.79
1074.13
1074.48
1074.83
1075.17
1075.52
1075.87
1076.22
1076.57
1076.92
1077.27
1077.62
1077.97
1078.32
1078.67
1079.02
1079.37
1079.72
1080.07
1080.42
1080.78
1081.13
1081.49
1081.84
1082.2
1082.56
1082.93
1083.29
1083.65
1084.02
1084.39
1084.75
1085.12
1085.49
1085.86
1086.23
1086.6
1086.97
1087.34
1087.71
1088.07
1088.44
1088.8
1089.17
1089.52
1089.89
1090.23
1090.62
1090.94
1091.36
1091.64
1092.17
1092.47
1093.59
1094.65
1097.32
1098.64
1100.57
1101.12
1103.61
1104.24
1107.48
1107.78
1110.48
1110.01
1112.1
850.83
853.315
853.751
856.396
857.258
859.117
859.804
861.111
861.677
862.621
863.12
863.833
864.29
864.856
865.293
865.783
866.203
866.645
867.05
867.464
867.856
868.252
868.638
869.024
869.404
869.783
870.157
870.529
870.89
871.23
871.515
871.747
871.936
872.104
872.274
872.451
872.642
872.846
873.064
873.295
873.536
873.787
874.047
874.315
874.59
874.872
875.159
875.452
875.75
876.052
876.358
876.667
876.979
877.292
877.608
877.925
878.243
878.563
878.883
879.204
879.526
879.848
880.17
880.493
880.816
881.139
881.462
881.785
882.109
882.432
882.756
883.079
883.403
883.728
884.053
884.376
884.7
885.025
885.352
885.678
886.003
886.329
886.655
886.981
887.307
887.633
887.96
888.286
888.613
888.939
889.266
889.594
889.921
890.25
890.578
890.907
891.237
891.566
891.895
892.223
892.552
892.88
893.207
893.534
893.861
894.187
894.513
894.838
895.163
895.488
895.812
896.136
896.458
896.782
897.105
897.426
897.748
898.07
898.391
898.712
899.033
899.354
899.675
899.996
900.318
900.639
900.961
901.282
901.605
901.927
902.25
902.574
902.898
903.222
903.547
903.873
904.198
904.525
904.851
905.178
905.505
905.833
906.161
906.489
906.818
907.146
907.475
907.804
908.133
908.463
908.793
909.123
909.453
909.784
910.116
910.448
910.78
911.113
911.447
911.782
912.118
912.454
912.791
913.129
913.468
913.808
914.149
914.491
914.833
915.177
915.521
915.866
916.212
916.558
916.905
917.253
917.601
917.95
918.299
918.648
918.997
919.347
919.697
920.047
920.398
920.748
921.099
921.449
921.8
922.151
922.502
922.853
923.203
923.555
923.906
924.257
924.608
924.959
925.31
925.661
926.011
926.362
926.712
927.061
927.41
927.759
928.106
928.453
928.798
929.143
929.487
929.83
930.173
930.514
930.855
931.196
931.536
931.876
932.216
932.555
932.895
933.234
933.574
933.914
934.255
934.596
934.938
935.281
935.624
935.967
936.312
936.657
937.003
937.349
937.696
938.044
938.392
938.74
939.089
939.438
939.788
940.137
940.487
940.837
941.187
941.537
941.888
942.239
942.59
942.941
943.292
943.644
943.997
944.349
944.702
945.056
945.409
945.763
946.118
946.473
946.828
947.183
947.539
947.895
948.251
948.607
948.964
949.32
949.676
950.033
950.389
950.745
951.1
951.456
951.811
952.165
952.52
952.874
953.227
953.58
953.933
954.285
954.637
954.988
955.34
955.691
956.042
956.393
956.744
957.095
957.446
957.797
958.148
958.499
958.851
959.203
959.554
959.907
960.259
960.611
960.964
961.317
961.67
962.024
962.378
962.732
963.086
963.44
963.794
964.149
964.503
964.857
965.212
965.566
965.92
966.274
966.629
966.982
967.336
967.69
968.043
968.396
968.749
969.101
969.454
969.805
970.157
970.508
970.859
971.21
971.56
971.91
972.26
972.609
972.958
973.307
973.655
974.003
974.351
974.699
975.046
975.394
975.741
976.088
976.436
976.783
977.13
977.478
977.825
978.173
978.522
978.87
979.22
979.569
979.919
980.269
980.62
980.971
981.323
981.675
982.027
982.379
982.732
983.084
983.436
983.788
984.14
984.492
984.843
985.193
985.544
985.893
986.243
986.592
986.94
987.289
987.636
987.984
988.331
988.679
989.026
989.373
989.719
990.066
990.413
990.761
991.108
991.456
991.804
992.153
992.502
992.851
993.202
993.552
993.904
994.256
994.608
994.961
995.315