/*--------------------------------*- C++ -*----------------------------------*\
| =========                 |                                                 |
| \\      /  F ield         | foam-extend: Open Source CFD                    |
|  \\    /   O peration     | Version:     3.2                                |
|   \\  /    A nd           | Web:         http://www.foam-extend.org         |
|    \\/     M anipulation  | For copyright notice see file Copyright         |
\*---------------------------------------------------------------------------*/
FoamFile
{
    version     2.0;
    format      ascii;
    class       areaScalarField;
    location    "120";
    object      Pef;
}
// * * * * * * * * * * * * * * * * * * * * * * * * * * * * * * * * * * * * * //

dimensions      [0 0 0 0 0 0 0];

internalField   nonuniform List<scalar> 
550
(
0
0
0
0
0.0174511
0.043996
0.0707503
0.0966265
0.120754
0.14237
0.161041
0.176494
0.188746
0.197898
0.204211
0.207984
0.209586
0.209369
0.207702
0.204988
0.20146
0.197313
0.192717
0.187818
0.182748
0.177613
0.172503
0.167506
0.162676
0.157653
0.153101
0.148798
0.14475
0.140976
0.137423
0.134083
0.130943
0.127994
0.125226
0.122632
0.120201
0.117926
0.115797
0.113805
0.111942
0.110198
0.108567
0.107042
0.105615
0.104279
0.103028
0.101857
0.100758
0.0997253
0.0987544
0.0978394
0.0969757
0.0961592
0.0953859
0.0946524
0.0939552
0.0932916
0.0926588
0.0920545
0.0914764
0.0909221
0.0903896
0.0898769
0.0893823
0.0889041
0.0884411
0.087992
0.0875559
0.0871319
0.0867192
0.0863168
0.0859238
0.0855391
0.0851624
0.084793
0.0844304
0.084074
0.0837233
0.0833777
0.0830368
0.0827
0.082367
0.0820376
0.0817115
0.0813885
0.0810679
0.0807498
0.080434
0.0801207
0.0798098
0.0795013
0.0791954
0.0788921
0.0785911
0.0782919
0.0779936
0.0776957
0.0773974
0.0770981
0.0767973
0.0764946
0.0761896
0.0758821
0.075572
0.075259
0.0749432
0.0746246
0.0743028
0.0739779
0.0736501
0.0733193
0.0729858
0.0726498
0.0723115
0.071971
0.0716287
0.0712847
0.0709393
0.0705926
0.0702447
0.0698959
0.0695462
0.0691959
0.0688451
0.0684942
0.0681434
0.0677929
0.067443
0.067094
0.0667461
0.0663995
0.0660547
0.0657117
0.0653708
0.0650322
0.064696
0.0643623
0.0640315
0.0637035
0.0633787
0.063057
0.0627386
0.0624236
0.0621122
0.0618043
0.0615002
0.0611999
0.0609035
0.060611
0.0603226
0.0600384
0.0597585
0.0594828
0.0592115
0.0589448
0.0586826
0.0584251
0.0581725
0.0579248
0.0576821
0.0574445
0.057212
0.0569846
0.0567624
0.0565454
0.0563336
0.056127
0.0559254
0.0557288
0.0555368
0.0553496
0.0551668
0.0549885
0.0548144
0.0546444
0.0544784
0.0543163
0.054158
0.0540033
0.0538522
0.0537046
0.0535603
0.0534193
0.0532815
0.0531468
0.0530151
0.0528863
0.0527605
0.0526373
0.0525169
0.0523989
0.0522835
0.0521704
0.0520597
0.0519512
0.0518448
0.0517405
0.0516379
0.0515369
0.0514371
0.0513379
0.0512389
0.0511392
0.0510384
0.0509363
0.0508327
0.0507276
0.0506209
0.0505129
0.0504034
0.0502927
0.0501808
0.0500677
0.0499537
0.0498387
0.0497229
0.0496065
0.0494895
0.0493721
0.0492544
0.0491365
0.0490186
0.0489008
0.0487833
0.0486661
0.0485495
0.0484335
0.0483182
0.0482038
0.0480904
0.047978
0.0478668
0.0477567
0.0476478
0.0475402
0.047434
0.0473291
0.0472256
0.0471234
0.0470227
0.0469233
0.0468254
0.0467289
0.0466338
0.0465402
0.046448
0.0463572
0.046268
0.0461802
0.0460938
0.0460088
0.0459252
0.045843
0.0457622
0.0456828
0.0456049
0.0455286
0.0454539
0.0453808
0.0453096
0.0452402
0.0451727
0.0451072
0.0450438
0.0449825
0.0449234
0.0448666
0.0448121
0.0447599
0.0447101
0.0446625
0.044617
0.0445737
0.0445322
0.0444924
0.044454
0.0444168
0.0443804
0.0443445
0.0443087
0.0442728
0.0442364
0.0441993
0.0441612
0.044122
0.0440813
0.0440391
0.0439951
0.0439494
0.043902
0.0438528
0.0438021
0.0437499
0.0436964
0.043642
0.0435867
0.0435305
0.0434737
0.0434162
0.0433582
0.0432997
0.0432407
0.0431813
0.0431215
0.0430613
0.0430007
0.0429395
0.0428778
0.0428156
0.0427527
0.0426891
0.0426246
0.0425593
0.0424931
0.0424258
0.0423575
0.042288
0.0422173
0.0421453
0.042072
0.0419974
0.0419214
0.0418438
0.0417648
0.0416841
0.0416019
0.0415181
0.0414326
0.0413452
0.041256
0.0411649
0.0410717
0.0409766
0.0408794
0.0407803
0.0406792
0.0405762
0.0404715
0.040365
0.0402569
0.0401472
0.0400359
0.0399233
0.0398093
0.0396943
0.0395783
0.0394616
0.0393444
0.0392268
0.039109
0.0389913
0.0388737
0.0387564
0.0386394
0.0385228
0.0384069
0.0382915
0.0381768
0.0380626
0.0379488
0.0378354
0.0377219
0.0376083
0.0374943
0.0373797
0.0372646
0.0371487
0.037032
0.0369143
0.0367958
0.0366765
0.0365562
0.0364353
0.0363137
0.0361916
0.0360693
0.0359469
0.0358246
0.0357027
0.0355814
0.0354608
0.0353412
0.0352227
0.0351054
0.0349896
0.0348752
0.0347625
0.0346516
0.0345426
0.0344355
0.0343304
0.0342271
0.0341257
0.034026
0.033928
0.0338316
0.0337367
0.0336432
0.0335508
0.0334594
0.0333688
0.0332788
0.0331891
0.0330995
0.0330097
0.0329197
0.0328292
0.0327379
0.0326457
0.0325526
0.0324583
0.032363
0.0322665
0.0321691
0.0320709
0.0319721
0.0318729
0.0317735
0.031674
0.0315748
0.0314758
0.0313773
0.0312793
0.0311818
0.0310849
0.0309885
0.0308925
0.0307968
0.0307013
0.0306057
0.03051
0.030414
0.0303175
0.0302204
0.0301225
0.0300238
0.0299241
0.0298234
0.0297216
0.0296186
0.0295147
0.0294096
0.0293034
0.0291962
0.029088
0.0289786
0.0288682
0.0287567
0.0286441
0.0285305
0.028416
0.0283006
0.0281844
0.0280675
0.0279501
0.0278321
0.0277137
0.0275948
0.0274755
0.0273556
0.0272351
0.0271139
0.0269919
0.0268688
0.0267445
0.0266189
0.0264918
0.0263632
0.0262331
0.0261016
0.0259688
0.0258349
0.0257001
0.0255646
0.0254287
0.0252928
0.0251571
0.0250219
0.0248876
0.0247542
0.0246219
0.0244906
0.0243606
0.0242318
0.0241042
0.023978
0.0238531
0.0237296
0.0236075
0.0234863
0.023366
0.0232462
0.0231269
0.0230074
0.0228879
0.0227679
0.0226478
0.022527
0.0224061
0.0222845
0.0221629
0.0220408
0.0219187
0.0217959
0.021673
0.0215491
0.021425
0.0212997
0.0211743
0.0210473
0.0209201
0.0207913
0.0206626
0.0205324
0.0204028
0.0202717
0.0201414
0.0200095
0.019878
0.019744
0.0196092
0.0194693
0.019327
0.019172
0.0190105
0.0188198
0.0186104
0.0183373
0.0180168
0.0175613
0.0169943
0.0162006
0.0150899
0.0157934
0.0135407
0.00970529
0.00471951
0
0
0
0
0
0
0
0
)
;

boundaryField
{
    inlet
    {
        type            calculated;
        value           uniform 0;
    }
    endWall
    {
        type            calculated;
        value           uniform 0;
    }
    sideWall
    {
        type            empty;
    }
}


// ************************************************************************* //
