/*--------------------------------*- C++ -*----------------------------------*\
| =========                 |                                                 |
| \\      /  F ield         | foam-extend: Open Source CFD                    |
|  \\    /   O peration     | Version:     3.2                                |
|   \\  /    A nd           | Web:         http://www.foam-extend.org         |
|    \\/     M anipulation  | For copyright notice see file Copyright         |
\*---------------------------------------------------------------------------*/
FoamFile
{
    version     2.0;
    format      ascii;
    class       surfaceScalarField;
    location    "120";
    object      phi;
}
// * * * * * * * * * * * * * * * * * * * * * * * * * * * * * * * * * * * * * //

dimensions      [0 3 -1 0 0 0 0];

internalField   nonuniform List<scalar> 
65390
(
3.3631e-05
5.69029e-07
3.31624e-05
4.68609e-07
3.25528e-05
6.09605e-07
3.19548e-05
5.9796e-07
3.13371e-05
6.17651e-07
3.07661e-05
5.71088e-07
3.01995e-05
5.66527e-07
2.96675e-05
5.32039e-07
2.91441e-05
5.23358e-07
2.86484e-05
4.95775e-07
2.81653e-05
4.83079e-07
2.7707e-05
4.58236e-07
2.72643e-05
4.42767e-07
2.68388e-05
4.25455e-07
2.64273e-05
4.11544e-07
2.60337e-05
3.93555e-07
2.56573e-05
3.76439e-07
2.5298e-05
3.59307e-07
2.49526e-05
3.45346e-07
2.46205e-05
3.32102e-07
2.43011e-05
3.19427e-07
2.39947e-05
3.06437e-07
2.37015e-05
2.93178e-07
2.34222e-05
2.79243e-07
2.3157e-05
2.65206e-07
2.29061e-05
2.50957e-07
2.26688e-05
2.37262e-07
2.24407e-05
2.28164e-07
2.22243e-05
2.16337e-07
2.20242e-05
2.00116e-07
2.18411e-05
1.83128e-07
2.16729e-05
1.68096e-07
2.15143e-05
1.58475e-07
2.1363e-05
1.51088e-07
2.12179e-05
1.4481e-07
2.10796e-05
1.3798e-07
2.09481e-05
1.31055e-07
2.08233e-05
1.24267e-07
2.07051e-05
1.1769e-07
2.05932e-05
1.1128e-07
2.04875e-05
1.05026e-07
2.03878e-05
9.90914e-08
2.02935e-05
9.34965e-08
2.02045e-05
8.82531e-08
2.01204e-05
8.3337e-08
2.00409e-05
7.87054e-08
1.99657e-05
7.43085e-08
1.98947e-05
7.01383e-08
1.98276e-05
6.61751e-08
1.97642e-05
6.242e-08
1.97044e-05
5.88673e-08
1.9648e-05
5.54768e-08
1.95947e-05
5.22898e-08
1.95443e-05
4.93667e-08
1.94966e-05
4.66823e-08
1.94513e-05
4.41905e-08
1.94085e-05
4.18227e-08
1.93678e-05
3.96029e-08
1.93291e-05
3.75791e-08
1.92923e-05
3.5703e-08
1.92572e-05
3.39464e-08
1.92238e-05
3.22872e-08
1.91919e-05
3.06902e-08
1.91616e-05
2.91755e-08
1.91326e-05
2.77664e-08
1.9105e-05
2.6462e-08
1.90785e-05
2.52651e-08
1.90531e-05
2.41589e-08
1.90288e-05
2.31406e-08
1.90053e-05
2.22011e-08
1.89827e-05
2.13349e-08
1.89609e-05
2.0535e-08
1.89398e-05
1.98013e-08
1.89195e-05
1.90742e-08
1.88998e-05
1.83674e-08
1.88807e-05
1.78017e-08
1.8862e-05
1.73781e-08
1.88437e-05
1.69786e-08
1.88259e-05
1.64985e-08
1.88085e-05
1.60196e-08
1.87916e-05
1.56058e-08
1.8775e-05
1.52181e-08
1.87587e-05
1.48496e-08
1.87429e-05
1.44948e-08
1.87273e-05
1.41687e-08
1.8712e-05
1.38667e-08
1.86971e-05
1.35609e-08
1.86824e-05
1.32481e-08
1.8668e-05
1.29566e-08
1.86538e-05
1.2766e-08
1.86397e-05
1.26519e-08
1.86257e-05
1.24706e-08
1.8612e-05
1.2235e-08
1.85986e-05
1.19954e-08
1.85853e-05
1.17615e-08
1.85723e-05
1.15123e-08
1.85596e-05
1.11888e-08
1.85473e-05
1.08047e-08
1.85352e-05
1.05318e-08
1.85233e-05
1.03727e-08
1.85116e-05
1.02417e-08
1.84999e-05
1.01469e-08
1.84882e-05
1.0078e-08
1.84766e-05
1.00397e-08
1.8465e-05
1.00281e-08
1.84534e-05
1.00455e-08
1.84417e-05
1.00869e-08
1.84299e-05
1.01482e-08
1.84181e-05
1.02236e-08
1.84062e-05
1.03119e-08
1.83942e-05
1.03602e-08
1.83821e-05
1.04499e-08
1.83698e-05
1.06478e-08
1.83573e-05
1.0762e-08
1.83448e-05
1.08398e-08
1.83322e-05
1.09638e-08
1.83194e-05
1.10844e-08
1.83065e-05
1.12128e-08
1.82934e-05
1.13396e-08
1.82802e-05
1.14689e-08
1.82669e-05
1.15973e-08
1.82534e-05
1.17267e-08
1.82398e-05
1.18563e-08
1.8226e-05
1.19873e-08
1.82121e-05
1.21178e-08
1.8198e-05
1.22462e-08
1.81839e-05
1.23721e-08
1.81696e-05
1.24927e-08
1.81551e-05
1.26037e-08
1.81406e-05
1.26993e-08
1.8126e-05
1.27765e-08
1.81113e-05
1.28348e-08
1.80965e-05
1.28758e-08
1.80818e-05
1.29002e-08
1.8067e-05
1.291e-08
1.80522e-05
1.2907e-08
1.80374e-05
1.28916e-08
1.80226e-05
1.28642e-08
1.80078e-05
1.28262e-08
1.79931e-05
1.27808e-08
1.79785e-05
1.2729e-08
1.79639e-05
1.26698e-08
1.79493e-05
1.26022e-08
1.79348e-05
1.25262e-08
1.79204e-05
1.24416e-08
1.79061e-05
1.235e-08
1.78918e-05
1.22535e-08
1.78777e-05
1.2153e-08
1.78636e-05
1.20479e-08
1.78497e-05
1.19396e-08
1.78358e-05
1.18305e-08
1.78221e-05
1.17229e-08
1.78084e-05
1.16174e-08
1.77949e-05
1.15151e-08
1.77814e-05
1.1415e-08
1.77681e-05
1.13169e-08
1.77548e-05
1.12193e-08
1.77416e-05
1.11224e-08
1.77285e-05
1.10247e-08
1.77155e-05
1.09245e-08
1.77026e-05
1.08168e-08
1.76899e-05
1.07015e-08
1.76772e-05
1.0577e-08
1.76647e-05
1.04458e-08
1.76523e-05
1.03079e-08
1.764e-05
1.01628e-08
1.76279e-05
1.00105e-08
1.76159e-05
9.85053e-09
1.76041e-05
9.68535e-09
1.75925e-05
9.51397e-09
1.75811e-05
9.33503e-09
1.75698e-05
9.14679e-09
1.75587e-05
8.94963e-09
1.75479e-05
8.74478e-09
1.75372e-05
8.53412e-09
1.75268e-05
8.31639e-09
1.75165e-05
8.09292e-09
1.75065e-05
7.86794e-09
1.74967e-05
7.64153e-09
1.74872e-05
7.4153e-09
1.74779e-05
7.18722e-09
1.74688e-05
6.95606e-09
1.74599e-05
6.72422e-09
1.74513e-05
6.49014e-09
1.74429e-05
6.2586e-09
1.74347e-05
6.02743e-09
1.74267e-05
5.80095e-09
1.7419e-05
5.57886e-09
1.74115e-05
5.36164e-09
1.74042e-05
5.14833e-09
1.73971e-05
4.9386e-09
1.73902e-05
4.73173e-09
1.73835e-05
4.52761e-09
1.7377e-05
4.32836e-09
1.73707e-05
4.13432e-09
1.73646e-05
3.94396e-09
1.73586e-05
3.75808e-09
1.73529e-05
3.57479e-09
1.73473e-05
3.39548e-09
1.73419e-05
3.2187e-09
1.73367e-05
3.04358e-09
1.73317e-05
2.8721e-09
1.73268e-05
2.70262e-09
1.73221e-05
2.56709e-09
1.73174e-05
2.49441e-09
1.73128e-05
2.45023e-09
1.73082e-05
2.40308e-09
1.73036e-05
2.36012e-09
1.72991e-05
2.32035e-09
1.72946e-05
2.28366e-09
1.72902e-05
2.24718e-09
1.72858e-05
2.21181e-09
1.72814e-05
2.17836e-09
1.72771e-05
2.15136e-09
1.72728e-05
2.13111e-09
1.72684e-05
2.12053e-09
1.72641e-05
2.12089e-09
1.72598e-05
2.13557e-09
1.72554e-05
2.16408e-09
1.7251e-05
2.20679e-09
1.72465e-05
2.26121e-09
1.7242e-05
2.3265e-09
1.72373e-05
2.40174e-09
1.72326e-05
2.48486e-09
1.72278e-05
2.57376e-09
1.72229e-05
2.66574e-09
1.7218e-05
2.7602e-09
1.72129e-05
2.85578e-09
1.72077e-05
2.95296e-09
1.72024e-05
3.05108e-09
1.7197e-05
3.1481e-09
1.71915e-05
3.24304e-09
1.71859e-05
3.33202e-09
1.71803e-05
3.41398e-09
1.71746e-05
3.48486e-09
1.71688e-05
3.54366e-09
1.71629e-05
3.59099e-09
1.71571e-05
3.62769e-09
1.71511e-05
3.65516e-09
1.71452e-05
3.67423e-09
1.71393e-05
3.68635e-09
1.71333e-05
3.6927e-09
1.71274e-05
3.69346e-09
1.71214e-05
3.69293e-09
1.71155e-05
3.69037e-09
1.71095e-05
3.68967e-09
1.71036e-05
3.68989e-09
1.70976e-05
3.69235e-09
1.70917e-05
3.69383e-09
1.70857e-05
3.69673e-09
1.70797e-05
3.70032e-09
1.70738e-05
3.7073e-09
1.70678e-05
3.71842e-09
1.70618e-05
3.73383e-09
1.70558e-05
3.75199e-09
1.70497e-05
3.77022e-09
1.70437e-05
3.78438e-09
1.70376e-05
3.79192e-09
1.70316e-05
3.78876e-09
1.70255e-05
3.78018e-09
1.70195e-05
3.76669e-09
1.70135e-05
3.74939e-09
1.70075e-05
3.72484e-09
1.70015e-05
3.69459e-09
1.69956e-05
3.65455e-09
1.69898e-05
3.60293e-09
1.6984e-05
3.53912e-09
1.69782e-05
3.4625e-09
1.69726e-05
3.37312e-09
1.69671e-05
3.27395e-09
1.69616e-05
3.16501e-09
1.69563e-05
3.04834e-09
1.69512e-05
2.92163e-09
1.69461e-05
2.78897e-09
1.69412e-05
2.6539e-09
1.69364e-05
2.51963e-09
1.69318e-05
2.38738e-09
1.69273e-05
2.2592e-09
1.69229e-05
2.1406e-09
1.69186e-05
2.03077e-09
1.69145e-05
1.92898e-09
1.69104e-05
1.84035e-09
1.69064e-05
1.764e-09
1.69025e-05
1.69709e-09
1.68986e-05
1.63612e-09
1.68948e-05
1.57839e-09
1.6891e-05
1.52288e-09
1.68873e-05
1.47053e-09
1.68837e-05
1.42089e-09
1.68801e-05
1.3756e-09
1.68765e-05
1.33338e-09
1.6873e-05
1.29579e-09
1.68695e-05
1.26196e-09
1.6866e-05
1.23119e-09
1.68626e-05
1.19921e-09
1.68592e-05
1.16624e-09
1.68559e-05
1.12529e-09
1.68526e-05
1.07235e-09
1.68493e-05
1.02167e-09
1.68461e-05
9.74756e-10
1.6843e-05
9.22338e-10
1.68399e-05
8.61371e-10
1.68369e-05
7.9077e-10
1.68339e-05
7.16317e-10
1.68311e-05
6.41222e-10
1.68283e-05
5.67365e-10
1.68255e-05
4.92696e-10
1.68229e-05
4.16572e-10
1.68203e-05
3.39233e-10
1.68178e-05
2.60205e-10
1.68154e-05
1.73627e-10
1.68131e-05
8.20963e-11
1.68109e-05
-1.07644e-11
1.68088e-05
-9.96438e-11
1.68067e-05
-1.88387e-10
1.68048e-05
-2.74758e-10
1.68029e-05
-3.58678e-10
1.68011e-05
-4.34363e-10
1.67994e-05
-5.02521e-10
1.67977e-05
-5.60803e-10
1.67961e-05
-6.07722e-10
1.67945e-05
-6.37986e-10
1.67929e-05
-6.40813e-10
1.67912e-05
-6.19733e-10
1.67896e-05
-5.89329e-10
1.67879e-05
-5.4976e-10
1.67862e-05
-5.02008e-10
1.67844e-05
-4.44622e-10
1.67825e-05
-3.74511e-10
1.67805e-05
-2.92363e-10
1.67785e-05
-1.97081e-10
1.67763e-05
-8.88725e-11
1.6774e-05
2.98705e-11
1.67716e-05
1.5925e-10
1.6769e-05
2.98606e-10
1.67663e-05
4.45361e-10
1.67635e-05
5.96392e-10
1.67605e-05
7.45996e-10
1.67573e-05
8.90124e-10
1.6754e-05
1.02413e-09
1.67506e-05
1.14699e-09
1.67471e-05
1.2589e-09
1.67434e-05
1.36307e-09
1.67397e-05
1.4626e-09
1.67358e-05
1.55888e-09
1.67319e-05
1.65415e-09
1.67279e-05
1.74925e-09
1.67237e-05
1.84295e-09
1.67195e-05
1.93285e-09
1.67152e-05
2.01649e-09
1.67108e-05
2.09431e-09
1.67064e-05
2.16676e-09
1.67018e-05
2.23771e-09
1.66972e-05
2.30885e-09
1.66925e-05
2.38043e-09
1.66878e-05
2.45559e-09
1.66829e-05
2.53558e-09
1.6678e-05
2.62224e-09
1.6673e-05
2.71125e-09
1.66679e-05
2.79985e-09
1.66627e-05
2.88062e-09
1.66574e-05
2.95558e-09
1.66521e-05
3.02141e-09
1.66467e-05
3.0835e-09
1.66412e-05
3.14233e-09
1.66357e-05
3.20141e-09
1.66301e-05
3.2594e-09
1.66244e-05
3.31817e-09
1.66187e-05
3.37543e-09
1.6613e-05
3.42979e-09
1.66072e-05
3.48161e-09
1.66013e-05
3.53157e-09
1.65954e-05
3.5839e-09
1.65894e-05
3.63556e-09
1.65834e-05
3.68866e-09
1.65773e-05
3.74183e-09
1.65711e-05
3.79703e-09
1.65649e-05
3.85105e-09
1.65587e-05
3.90307e-09
1.65524e-05
3.95034e-09
1.6546e-05
3.99386e-09
1.65396e-05
4.0333e-09
1.65332e-05
4.07256e-09
1.65267e-05
4.11262e-09
1.65202e-05
4.15523e-09
1.65136e-05
4.20226e-09
1.6507e-05
4.25447e-09
1.65003e-05
4.31038e-09
1.64936e-05
4.3711e-09
1.64868e-05
4.43578e-09
1.64799e-05
4.50199e-09
1.6473e-05
4.56699e-09
1.6466e-05
4.63077e-09
1.64589e-05
4.69755e-09
1.64517e-05
4.76386e-09
1.64445e-05
4.82522e-09
1.64373e-05
4.88292e-09
1.643e-05
4.93504e-09
1.64226e-05
4.97901e-09
1.64152e-05
5.01278e-09
1.64078e-05
5.03254e-09
1.64004e-05
5.03699e-09
1.6393e-05
5.02379e-09
1.63856e-05
4.99157e-09
1.63783e-05
4.93774e-09
1.6371e-05
4.86522e-09
1.63639e-05
4.77239e-09
1.63568e-05
4.66536e-09
1.63499e-05
4.53799e-09
1.63431e-05
4.39609e-09
1.63365e-05
4.23976e-09
1.633e-05
4.07693e-09
1.63237e-05
3.91065e-09
1.63176e-05
3.74863e-09
1.63116e-05
3.59604e-09
1.63057e-05
3.4574e-09
1.63e-05
3.337e-09
1.62944e-05
3.23482e-09
1.62888e-05
3.15206e-09
1.62834e-05
3.08576e-09
1.62779e-05
3.03233e-09
1.62725e-05
2.98754e-09
1.62672e-05
2.94737e-09
1.62619e-05
2.90883e-09
1.62566e-05
2.86972e-09
1.62514e-05
2.82854e-09
1.62462e-05
2.7827e-09
1.62411e-05
2.72983e-09
1.6236e-05
2.67171e-09
1.6231e-05
2.60565e-09
1.6226e-05
2.53223e-09
1.62212e-05
2.44845e-09
1.62164e-05
2.35591e-09
1.62117e-05
2.24923e-09
1.62072e-05
2.13205e-09
1.62028e-05
2.00212e-09
1.61985e-05
1.86265e-09
1.61944e-05
1.71496e-09
1.61904e-05
1.56435e-09
1.61866e-05
1.41207e-09
1.61829e-05
1.26445e-09
1.61793e-05
1.12253e-09
1.61759e-05
9.8732e-10
1.61726e-05
8.57258e-10
1.61695e-05
7.35651e-10
1.61664e-05
6.20535e-10
1.61635e-05
5.13323e-10
1.61606e-05
4.11563e-10
1.61579e-05
3.19506e-10
1.61552e-05
2.37329e-10
1.61526e-05
1.71315e-10
1.615e-05
1.22693e-10
1.61475e-05
9.60035e-11
1.6145e-05
8.81462e-11
1.61424e-05
9.91404e-11
1.61399e-05
1.22345e-10
1.61373e-05
1.56499e-10
1.61346e-05
1.97029e-10
1.61319e-05
2.42826e-10
1.61292e-05
2.93513e-10
1.61263e-05
3.50024e-10
1.61235e-05
4.12239e-10
1.61205e-05
4.8075e-10
1.61175e-05
5.49464e-10
1.61144e-05
6.17546e-10
1.61113e-05
6.84255e-10
1.6108e-05
7.47661e-10
1.61048e-05
8.05185e-10
1.61014e-05
8.57599e-10
1.6098e-05
9.03403e-10
1.60946e-05
9.44129e-10
1.60911e-05
9.79681e-10
1.60876e-05
1.01149e-09
1.60841e-05
1.03865e-09
1.60806e-05
1.06954e-09
1.60769e-05
1.10599e-09
1.60733e-05
1.14919e-09
1.60696e-05
1.19913e-09
1.60658e-05
1.26229e-09
1.6062e-05
1.33568e-09
1.6058e-05
1.42106e-09
1.6054e-05
1.51151e-09
1.60499e-05
1.60995e-09
1.60457e-05
1.71186e-09
1.60413e-05
1.82177e-09
1.60369e-05
1.93087e-09
1.60323e-05
2.04797e-09
1.60276e-05
2.16484e-09
1.60228e-05
2.29329e-09
1.60178e-05
2.42395e-09
1.60127e-05
2.57115e-09
1.60075e-05
2.71873e-09
1.6002e-05
2.87816e-09
1.59965e-05
3.01726e-09
1.59908e-05
3.15152e-09
1.5985e-05
3.26066e-09
1.59791e-05
3.36077e-09
1.59731e-05
3.43157e-09
1.5967e-05
3.50206e-09
1.59609e-05
3.55575e-09
1.59548e-05
3.62658e-09
1.59485e-05
3.69614e-09
1.59421e-05
3.79746e-09
1.59357e-05
3.90108e-09
1.59291e-05
4.0427e-09
1.59223e-05
4.17702e-09
1.59154e-05
4.34619e-09
1.59084e-05
4.49607e-09
1.59011e-05
4.68548e-09
1.58937e-05
4.84157e-09
1.58861e-05
5.04237e-09
1.58783e-05
5.19522e-09
1.58703e-05
5.40786e-09
1.58622e-05
5.55355e-09
1.58539e-05
5.7677e-09
1.58454e-05
5.87895e-09
1.58367e-05
6.0666e-09
1.5828e-05
6.11921e-09
1.58192e-05
6.28395e-09
1.58103e-05
6.29337e-09
1.58012e-05
6.47617e-09
1.57921e-05
6.48111e-09
1.57828e-05
6.73267e-09
1.57734e-05
6.77575e-09
1.57636e-05
7.17763e-09
1.57536e-05
7.44545e-09
1.5743e-05
7.97693e-09
1.57313e-05
9.11352e-09
1.57182e-05
1.0428e-08
1.57025e-05
1.31017e-08
1.56833e-05
1.65859e-08
1.56588e-05
2.18902e-08
1.56265e-05
2.9598e-08
1.55839e-05
3.99598e-08
1.5527e-05
5.42353e-08
1.5446e-05
7.8182e-08
1.53629e-05
8.03687e-08
1.50848e-05
2.75328e-07
1.4586e-05
4.9676e-07
1.40738e-05
5.11374e-07
1.34414e-05
6.32411e-07
1.25513e-05
8.90089e-07
1.12486e-05
1.30273e-06
9.58789e-06
1.66067e-06
7.394e-06
2.19389e-06
4.00776e-06
3.38624e-06
9.0527e-07
3.10249e-06
-9.7076e-07
1.87603e-06
-2.6516e-06
1.68084e-06
-2.6516e-06
3.39968e-05
7.72203e-07
3.37935e-05
6.71949e-07
3.34334e-05
9.69682e-07
3.30643e-05
9.67042e-07
3.27145e-05
9.67499e-07
3.23922e-05
8.93358e-07
3.20717e-05
8.87003e-07
3.18067e-05
7.97107e-07
3.15705e-05
7.59483e-07
3.13696e-05
6.96734e-07
3.1177e-05
6.75656e-07
3.09967e-05
6.38517e-07
3.08156e-05
6.2386e-07
3.06387e-05
6.0234e-07
3.04599e-05
5.90421e-07
3.02807e-05
5.72709e-07
3.00921e-05
5.65028e-07
2.9898e-05
5.534e-07
2.97028e-05
5.40533e-07
2.95089e-05
5.2602e-07
2.93164e-05
5.1196e-07
2.91244e-05
4.98446e-07
2.89335e-05
4.84064e-07
2.87439e-05
4.68804e-07
2.85561e-05
4.5306e-07
2.83695e-05
4.37549e-07
2.81848e-05
4.21993e-07
2.80017e-05
4.11224e-07
2.78232e-05
3.94873e-07
2.76504e-05
3.7292e-07
2.74864e-05
3.47056e-07
2.73313e-05
3.23244e-07
2.71821e-05
3.07634e-07
2.70375e-05
2.95716e-07
2.68953e-05
2.86955e-07
2.67564e-05
2.76887e-07
2.66206e-05
2.66857e-07
2.64885e-05
2.56383e-07
2.63601e-05
2.46157e-07
2.62354e-05
2.35886e-07
2.61149e-05
2.25601e-07
2.59983e-05
2.15681e-07
2.58855e-05
2.0632e-07
2.57763e-05
1.97443e-07
2.56706e-05
1.88965e-07
2.55685e-05
1.8089e-07
2.54693e-05
1.73508e-07
2.53728e-05
1.66591e-07
2.52791e-05
1.59928e-07
2.5188e-05
1.53493e-07
2.50996e-05
1.47296e-07
2.50138e-05
1.41258e-07
2.49306e-05
1.35441e-07
2.48501e-05
1.29938e-07
2.4772e-05
1.24743e-07
2.46964e-05
1.1983e-07
2.46231e-05
1.15077e-07
2.45522e-05
1.10508e-07
2.44835e-05
1.06273e-07
2.44169e-05
1.02288e-07
2.43524e-05
9.84879e-08
2.42898e-05
9.48415e-08
2.42292e-05
9.12949e-08
2.41705e-05
8.78899e-08
2.41136e-05
8.46825e-08
2.40584e-05
8.1657e-08
2.40048e-05
7.88272e-08
2.39528e-05
7.616e-08
2.39023e-05
7.36522e-08
2.38532e-05
7.12912e-08
2.38055e-05
6.90682e-08
2.37591e-05
6.69549e-08
2.37139e-05
6.49603e-08
2.367e-05
6.29918e-08
2.36273e-05
6.10141e-08
2.35859e-05
5.92847e-08
2.35454e-05
5.78677e-08
2.35058e-05
5.65315e-08
2.34673e-05
5.50499e-08
2.34298e-05
5.35283e-08
2.33932e-05
5.21782e-08
2.33575e-05
5.08847e-08
2.33227e-05
4.9633e-08
2.32888e-05
4.84046e-08
2.32558e-05
4.72196e-08
2.32235e-05
4.60986e-08
2.31921e-05
4.49718e-08
2.31616e-05
4.38358e-08
2.31318e-05
4.27267e-08
2.31027e-05
4.18205e-08
2.30743e-05
4.11083e-08
2.30463e-05
4.0428e-08
2.30189e-05
3.96556e-08
2.2992e-05
3.89362e-08
2.29654e-05
3.82712e-08
2.29392e-05
3.77122e-08
2.29132e-05
3.72156e-08
2.28875e-05
3.64838e-08
2.28622e-05
3.58813e-08
2.2837e-05
3.55606e-08
2.2812e-05
3.52815e-08
2.27871e-05
3.50433e-08
2.27623e-05
3.4845e-08
2.27376e-05
3.46928e-08
2.27131e-05
3.45836e-08
2.26886e-05
3.45287e-08
2.26642e-05
3.45079e-08
2.26398e-05
3.45265e-08
2.26155e-05
3.45605e-08
2.25912e-05
3.46134e-08
2.25669e-05
3.46145e-08
2.25428e-05
3.46022e-08
2.25186e-05
3.48513e-08
2.24943e-05
3.49846e-08
2.24702e-05
3.49606e-08
2.24461e-05
3.50582e-08
2.24221e-05
3.5145e-08
2.2398e-05
3.5239e-08
2.2374e-05
3.53341e-08
2.23501e-05
3.5423e-08
2.23262e-05
3.55068e-08
2.23023e-05
3.55812e-08
2.22785e-05
3.56521e-08
2.22548e-05
3.57213e-08
2.22311e-05
3.57916e-08
2.22075e-05
3.58604e-08
2.21839e-05
3.59288e-08
2.21604e-05
3.5991e-08
2.2137e-05
3.60392e-08
2.21136e-05
3.60617e-08
2.20904e-05
3.60515e-08
2.20672e-05
3.60049e-08
2.20442e-05
3.59252e-08
2.20212e-05
3.58148e-08
2.19985e-05
3.56772e-08
2.19759e-05
3.55148e-08
2.19534e-05
3.53289e-08
2.19312e-05
3.51212e-08
2.19091e-05
3.4895e-08
2.18872e-05
3.46566e-08
2.18655e-05
3.44074e-08
2.18441e-05
3.41463e-08
2.18228e-05
3.38705e-08
2.18017e-05
3.35818e-08
2.17809e-05
3.32818e-08
2.17603e-05
3.29738e-08
2.17399e-05
3.26621e-08
2.17197e-05
3.23473e-08
2.16997e-05
3.20267e-08
2.16799e-05
3.17012e-08
2.16604e-05
3.13744e-08
2.16411e-05
3.10536e-08
2.16219e-05
3.07406e-08
2.1603e-05
3.04385e-08
2.15843e-05
3.0144e-08
2.15658e-05
2.98568e-08
2.15474e-05
2.95756e-08
2.15292e-05
2.93007e-08
2.15112e-05
2.90312e-08
2.14934e-05
2.8763e-08
2.14757e-05
2.84842e-08
2.14582e-05
2.81924e-08
2.14409e-05
2.78828e-08
2.14238e-05
2.75619e-08
2.14069e-05
2.72297e-08
2.13901e-05
2.68871e-08
2.13736e-05
2.65324e-08
2.13573e-05
2.61642e-08
2.13412e-05
2.57842e-08
2.13253e-05
2.53921e-08
2.13097e-05
2.49838e-08
2.12943e-05
2.45588e-08
2.12791e-05
2.41169e-08
2.12642e-05
2.3661e-08
2.12495e-05
2.32013e-08
2.12351e-05
2.27316e-08
2.12209e-05
2.226e-08
2.1207e-05
2.17899e-08
2.11933e-05
2.13235e-08
2.11799e-05
2.08614e-08
2.11667e-05
2.03974e-08
2.11537e-05
1.99308e-08
2.1141e-05
1.94641e-08
2.11285e-05
1.89962e-08
2.11162e-05
1.85421e-08
2.11041e-05
1.80945e-08
2.10922e-05
1.76659e-08
2.10806e-05
1.7252e-08
2.10691e-05
1.68537e-08
2.10578e-05
1.64695e-08
2.10466e-05
1.60941e-08
2.10356e-05
1.5727e-08
2.10248e-05
1.53663e-08
2.10141e-05
1.50167e-08
2.10035e-05
1.46796e-08
2.09931e-05
1.43479e-08
2.09829e-05
1.40244e-08
2.09727e-05
1.37004e-08
2.09628e-05
1.33773e-08
2.09529e-05
1.30539e-08
2.09432e-05
1.27271e-08
2.09337e-05
1.24035e-08
2.09243e-05
1.20804e-08
2.09151e-05
1.17912e-08
2.09061e-05
1.15406e-08
2.08972e-05
1.13051e-08
2.08885e-05
1.10739e-08
2.088e-05
1.08577e-08
2.08717e-05
1.06547e-08
2.08635e-05
1.04657e-08
2.08555e-05
1.02833e-08
2.08476e-05
1.01089e-08
2.08398e-05
9.94331e-09
2.08322e-05
9.79613e-09
2.08246e-05
9.67025e-09
2.08172e-05
9.57391e-09
2.08098e-05
9.50996e-09
2.08025e-05
9.48353e-09
2.07951e-05
9.49188e-09
2.07878e-05
9.5334e-09
2.07805e-05
9.60161e-09
2.07731e-05
9.69286e-09
2.07657e-05
9.80337e-09
2.07582e-05
9.92773e-09
2.07508e-05
1.00618e-08
2.07432e-05
1.02015e-08
2.07356e-05
1.03476e-08
2.0728e-05
1.04994e-08
2.07203e-05
1.06593e-08
2.07125e-05
1.08251e-08
2.07047e-05
1.09927e-08
2.06968e-05
1.11577e-08
2.06888e-05
1.13109e-08
2.06807e-05
1.14494e-08
2.06727e-05
1.15645e-08
2.06645e-05
1.16559e-08
2.06564e-05
1.17253e-08
2.06483e-05
1.17749e-08
2.06401e-05
1.18074e-08
2.0632e-05
1.18254e-08
2.06238e-05
1.183e-08
2.06157e-05
1.18239e-08
2.06076e-05
1.18065e-08
2.05995e-05
1.17852e-08
2.05914e-05
1.1759e-08
2.05834e-05
1.17357e-08
2.05753e-05
1.17132e-08
2.05673e-05
1.16964e-08
2.05594e-05
1.16796e-08
2.05514e-05
1.1667e-08
2.05434e-05
1.16551e-08
2.05355e-05
1.16499e-08
2.05276e-05
1.16535e-08
2.05196e-05
1.16664e-08
2.05117e-05
1.16872e-08
2.05037e-05
1.17102e-08
2.04958e-05
1.1727e-08
2.04879e-05
1.17303e-08
2.04799e-05
1.17115e-08
2.0472e-05
1.16782e-08
2.04642e-05
1.16327e-08
2.04563e-05
1.15809e-08
2.04486e-05
1.15177e-08
2.04408e-05
1.14452e-08
2.04331e-05
1.13532e-08
2.04255e-05
1.12393e-08
2.04179e-05
1.10996e-08
2.04104e-05
1.09339e-08
2.04031e-05
1.07423e-08
2.03958e-05
1.05313e-08
2.03887e-05
1.03013e-08
2.03817e-05
1.00562e-08
2.03748e-05
9.7928e-09
2.03681e-05
9.51728e-09
2.03615e-05
9.23667e-09
2.0355e-05
8.95642e-09
2.03488e-05
8.68078e-09
2.03426e-05
8.41404e-09
2.03366e-05
8.16613e-09
2.03307e-05
7.93618e-09
2.03249e-05
7.72455e-09
2.03192e-05
7.53831e-09
2.03136e-05
7.37673e-09
2.0308e-05
7.23542e-09
2.03026e-05
7.10657e-09
2.02971e-05
6.98404e-09
2.02918e-05
6.86511e-09
2.02865e-05
6.75188e-09
2.02813e-05
6.64191e-09
2.02761e-05
6.53801e-09
2.0271e-05
6.43622e-09
2.0266e-05
6.34282e-09
2.0261e-05
6.2574e-09
2.0256e-05
6.18109e-09
2.02511e-05
6.10541e-09
2.02463e-05
6.03091e-09
2.02415e-05
5.94719e-09
2.02367e-05
5.8466e-09
2.0232e-05
5.7467e-09
2.02273e-05
5.6472e-09
2.02227e-05
5.53674e-09
2.02181e-05
5.40931e-09
2.02136e-05
5.26338e-09
2.02093e-05
5.11201e-09
2.02049e-05
4.96226e-09
2.02007e-05
4.81833e-09
2.01965e-05
4.67761e-09
2.01924e-05
4.53869e-09
2.01883e-05
4.39914e-09
2.01843e-05
4.25493e-09
2.01804e-05
4.09443e-09
2.01766e-05
3.92255e-09
2.01728e-05
3.74476e-09
2.01691e-05
3.57126e-09
2.01655e-05
3.39622e-09
2.0162e-05
3.225e-09
2.01586e-05
3.05642e-09
2.01553e-05
2.90158e-09
2.0152e-05
2.75915e-09
2.01488e-05
2.63867e-09
2.01457e-05
2.53812e-09
2.01426e-05
2.47254e-09
2.01395e-05
2.43764e-09
2.01365e-05
2.42899e-09
2.01334e-05
2.44705e-09
2.01304e-05
2.48721e-09
2.01273e-05
2.5509e-09
2.01242e-05
2.6393e-09
2.01211e-05
2.75899e-09
2.01179e-05
2.90695e-09
2.01146e-05
3.08499e-09
2.01112e-05
3.28972e-09
2.01078e-05
3.515e-09
2.01042e-05
3.76154e-09
2.01004e-05
4.02901e-09
2.00966e-05
4.31342e-09
2.00926e-05
4.60745e-09
2.00884e-05
4.90102e-09
2.00841e-05
5.18724e-09
2.00797e-05
5.4545e-09
2.00751e-05
5.69722e-09
2.00705e-05
5.91322e-09
2.00657e-05
6.1093e-09
2.00609e-05
6.29454e-09
2.0056e-05
6.47582e-09
2.0051e-05
6.66024e-09
2.00459e-05
6.84805e-09
2.00407e-05
7.03433e-09
2.00354e-05
7.21282e-09
2.003e-05
7.37657e-09
2.00246e-05
7.52735e-09
2.00191e-05
7.66438e-09
2.00135e-05
7.79476e-09
2.00079e-05
7.92084e-09
2.00023e-05
8.04567e-09
1.99965e-05
8.17662e-09
1.99908e-05
8.31903e-09
1.99849e-05
8.48008e-09
1.9979e-05
8.65109e-09
1.99729e-05
8.82652e-09
1.99668e-05
8.98567e-09
1.99607e-05
9.12904e-09
1.99544e-05
9.2481e-09
1.99482e-05
9.35834e-09
1.99418e-05
9.46353e-09
1.99355e-05
9.57444e-09
1.9929e-05
9.68783e-09
1.99226e-05
9.80518e-09
1.9916e-05
9.92029e-09
1.99094e-05
1.00283e-08
1.99028e-05
1.01296e-08
1.98961e-05
1.02247e-08
1.98893e-05
1.03229e-08
1.98825e-05
1.04192e-08
1.98757e-05
1.05208e-08
1.98688e-05
1.06264e-08
1.98619e-05
1.07401e-08
1.98549e-05
1.08555e-08
1.98478e-05
1.09683e-08
1.98407e-05
1.10711e-08
1.98335e-05
1.11637e-08
1.98263e-05
1.12461e-08
1.98191e-05
1.13241e-08
1.98118e-05
1.14019e-08
1.98044e-05
1.14852e-08
1.97971e-05
1.15773e-08
1.97896e-05
1.16805e-08
1.97822e-05
1.17926e-08
1.97746e-05
1.19165e-08
1.9767e-05
1.20477e-08
1.97593e-05
1.21837e-08
1.97516e-05
1.23164e-08
1.97438e-05
1.24452e-08
1.97359e-05
1.25663e-08
1.9728e-05
1.26787e-08
1.972e-05
1.27877e-08
1.9712e-05
1.28957e-08
1.97039e-05
1.29983e-08
1.96958e-05
1.30876e-08
1.96877e-05
1.31574e-08
1.96795e-05
1.32008e-08
1.96713e-05
1.32187e-08
1.96632e-05
1.32065e-08
1.9655e-05
1.31625e-08
1.96468e-05
1.30782e-08
1.96387e-05
1.29604e-08
1.96307e-05
1.28033e-08
1.96228e-05
1.26178e-08
1.96149e-05
1.23894e-08
1.96072e-05
1.21278e-08
1.95996e-05
1.1833e-08
1.95921e-05
1.1522e-08
1.95849e-05
1.12009e-08
1.95777e-05
1.08852e-08
1.95707e-05
1.05846e-08
1.95639e-05
1.03095e-08
1.95571e-05
1.007e-08
1.95505e-05
9.86688e-09
1.9544e-05
9.7025e-09
1.95375e-05
9.57053e-09
1.9531e-05
9.46475e-09
1.95247e-05
9.37389e-09
1.95183e-05
9.29081e-09
1.9512e-05
9.20756e-09
1.95058e-05
9.12262e-09
1.94996e-05
9.03232e-09
1.94934e-05
8.93363e-09
1.94873e-05
8.82287e-09
1.94813e-05
8.70115e-09
1.94753e-05
8.56733e-09
1.94694e-05
8.42074e-09
1.94636e-05
8.2561e-09
1.94579e-05
8.0763e-09
1.94523e-05
7.87054e-09
1.94468e-05
7.64348e-09
1.94414e-05
7.38977e-09
1.94361e-05
7.117e-09
1.9431e-05
6.82671e-09
1.94261e-05
6.52845e-09
1.94212e-05
6.22397e-09
1.94166e-05
5.92608e-09
1.94121e-05
5.63663e-09
1.94077e-05
5.36153e-09
1.94035e-05
5.10167e-09
1.93993e-05
4.86278e-09
1.93953e-05
4.64128e-09
1.93914e-05
4.43679e-09
1.93875e-05
4.24204e-09
1.93838e-05
4.06122e-09
1.93802e-05
3.89429e-09
1.93766e-05
3.75457e-09
1.9373e-05
3.64464e-09
1.93696e-05
3.57841e-09
1.93661e-05
3.55321e-09
1.93626e-05
3.57257e-09
1.93591e-05
3.62215e-09
1.93556e-05
3.69496e-09
1.9352e-05
3.78145e-09
1.93484e-05
3.87367e-09
1.93447e-05
3.97498e-09
1.9341e-05
4.08466e-09
1.93372e-05
4.20992e-09
1.93333e-05
4.34836e-09
1.93293e-05
4.49538e-09
1.93253e-05
4.64464e-09
1.93212e-05
4.79757e-09
1.9317e-05
4.94075e-09
1.93127e-05
5.07508e-09
1.93084e-05
5.19353e-09
1.9304e-05
5.30139e-09
1.92996e-05
5.3924e-09
1.92951e-05
5.47675e-09
1.92905e-05
5.54234e-09
1.9286e-05
5.59966e-09
1.92814e-05
5.64807e-09
1.92768e-05
5.70709e-09
1.92722e-05
5.77207e-09
1.92675e-05
5.86245e-09
1.92628e-05
5.97119e-09
1.9258e-05
6.11303e-09
1.92532e-05
6.26542e-09
1.92482e-05
6.43997e-09
1.92432e-05
6.61079e-09
1.92382e-05
6.80147e-09
1.9233e-05
6.98749e-09
1.92277e-05
7.19505e-09
1.92224e-05
7.3947e-09
1.92169e-05
7.61962e-09
1.92114e-05
7.838e-09
1.92057e-05
8.09643e-09
1.91999e-05
8.35891e-09
1.9194e-05
8.66832e-09
1.91879e-05
8.96091e-09
1.91816e-05
9.27118e-09
1.91753e-05
9.52867e-09
1.91687e-05
9.78559e-09
1.91621e-05
9.95851e-09
1.91554e-05
1.01253e-08
1.91487e-05
1.0218e-08
1.91419e-05
1.03488e-08
1.91351e-05
1.04357e-08
1.91282e-05
1.06096e-08
1.91213e-05
1.07579e-08
1.91141e-05
1.10165e-08
1.91069e-05
1.12448e-08
1.90995e-05
1.15756e-08
1.9092e-05
1.18566e-08
1.90843e-05
1.22342e-08
1.90764e-05
1.25516e-08
1.90683e-05
1.29469e-08
1.90601e-05
1.3271e-08
1.90516e-05
1.36513e-08
1.90431e-05
1.39695e-08
1.90343e-05
1.43468e-08
1.90254e-05
1.46601e-08
1.90163e-05
1.50014e-08
1.90071e-05
1.52744e-08
1.89977e-05
1.55184e-08
1.89882e-05
1.57443e-08
1.89786e-05
1.59116e-08
1.89689e-05
1.61466e-08
1.89591e-05
1.63209e-08
1.89492e-05
1.6633e-08
1.89391e-05
1.68732e-08
1.89288e-05
1.74409e-08
1.89182e-05
1.80245e-08
1.89072e-05
1.8989e-08
1.88953e-05
2.10584e-08
1.88823e-05
2.34038e-08
1.88672e-05
2.82428e-08
1.88494e-05
3.43835e-08
1.8827e-05
4.42472e-08
1.87987e-05
5.79318e-08
1.87604e-05
7.82364e-08
1.87104e-05
1.04243e-07
1.86316e-05
1.56917e-07
1.85375e-05
1.7455e-07
1.83339e-05
4.78967e-07
1.80224e-05
8.0833e-07
1.75925e-05
9.41253e-07
1.70183e-05
1.20648e-06
1.62635e-05
1.64485e-06
1.51791e-05
2.3872e-06
1.35429e-05
3.29684e-06
1.12873e-05
4.44954e-06
8.05198e-06
6.62152e-06
3.79746e-06
7.35701e-06
3.33222e-07
5.34027e-06
-1.55218e-06
3.56624e-06
-4.20378e-06
3.3999e-05
9.73249e-07
3.38018e-05
8.69129e-07
3.34443e-05
1.32719e-06
3.31215e-05
1.28985e-06
3.27989e-05
1.2901e-06
3.25282e-05
1.16404e-06
3.22979e-05
1.1173e-06
3.21024e-05
9.92583e-07
3.19423e-05
9.19634e-07
3.18038e-05
8.35172e-07
3.16922e-05
7.87287e-07
3.15905e-05
7.4021e-07
3.14902e-05
7.2421e-07
3.14083e-05
6.84166e-07
3.13373e-05
6.61481e-07
3.12729e-05
6.37103e-07
3.12097e-05
6.2824e-07
3.11476e-05
6.15469e-07
3.10852e-05
6.02901e-07
3.10221e-05
5.8912e-07
3.09571e-05
5.76988e-07
3.08902e-05
5.65316e-07
3.08208e-05
5.53511e-07
3.07484e-05
5.41133e-07
3.06727e-05
5.28817e-07
3.05932e-05
5.17068e-07
3.05096e-05
5.05556e-07
3.04207e-05
5.00112e-07
3.03268e-05
4.88796e-07
3.0229e-05
4.70733e-07
3.0131e-05
4.45014e-07
3.00334e-05
4.20891e-07
2.99349e-05
4.0606e-07
2.98351e-05
3.95561e-07
2.97322e-05
3.89843e-07
2.9627e-05
3.8211e-07
2.95195e-05
3.74377e-07
2.94105e-05
3.65368e-07
2.93004e-05
3.56279e-07
2.91897e-05
3.46553e-07
2.90789e-05
3.36376e-07
2.89684e-05
3.2625e-07
2.88582e-05
3.16503e-07
2.87486e-05
3.07003e-07
2.86399e-05
2.97678e-07
2.85323e-05
2.88518e-07
2.8426e-05
2.79751e-07
2.83213e-05
2.71282e-07
2.82183e-05
2.62965e-07
2.8117e-05
2.54767e-07
2.80176e-05
2.46731e-07
2.79201e-05
2.38765e-07
2.78246e-05
2.30951e-07
2.77311e-05
2.23415e-07
2.76397e-05
2.16163e-07
2.75503e-05
2.09213e-07
2.7463e-05
2.02374e-07
2.73778e-05
1.95684e-07
2.72947e-05
1.89416e-07
2.72135e-05
1.83487e-07
2.71342e-05
1.77758e-07
2.70568e-05
1.72217e-07
2.69812e-05
1.66955e-07
2.69071e-05
1.6194e-07
2.68347e-05
1.57126e-07
2.67639e-05
1.5249e-07
2.66946e-05
1.48059e-07
2.6627e-05
1.43788e-07
2.6561e-05
1.39681e-07
2.64965e-05
1.35735e-07
2.64336e-05
1.31952e-07
2.63723e-05
1.2829e-07
2.63125e-05
1.24775e-07
2.62542e-05
1.21287e-07
2.61975e-05
1.17726e-07
2.61423e-05
1.14506e-07
2.60883e-05
1.11793e-07
2.60356e-05
1.0924e-07
2.59842e-05
1.06468e-07
2.59341e-05
1.03599e-07
2.58853e-05
1.01034e-07
2.58376e-05
9.85922e-08
2.5791e-05
9.62435e-08
2.57454e-05
9.39432e-08
2.57009e-05
9.17376e-08
2.56574e-05
8.96288e-08
2.56148e-05
8.75656e-08
2.55731e-05
8.5474e-08
2.55324e-05
8.35085e-08
2.54924e-05
8.17941e-08
2.5453e-05
8.05107e-08
2.54138e-05
7.96361e-08
2.53749e-05
7.8571e-08
2.53363e-05
7.75376e-08
2.5298e-05
7.65517e-08
2.52601e-05
7.56308e-08
2.52226e-05
7.47124e-08
2.51856e-05
7.34352e-08
2.51492e-05
7.23164e-08
2.51131e-05
7.16377e-08
2.50774e-05
7.10292e-08
2.50419e-05
7.04864e-08
2.50068e-05
7.00068e-08
2.49719e-05
6.95923e-08
2.49372e-05
6.9235e-08
2.49028e-05
6.89542e-08
2.48686e-05
6.8713e-08
2.48346e-05
6.85292e-08
2.48008e-05
6.83553e-08
2.47672e-05
6.82037e-08
2.47338e-05
6.79859e-08
2.47007e-05
6.76876e-08
2.46678e-05
6.78229e-08
2.46349e-05
6.78087e-08
2.46024e-05
6.74906e-08
2.45701e-05
6.73733e-08
2.4538e-05
6.72463e-08
2.45061e-05
6.71218e-08
2.44744e-05
6.70012e-08
2.4443e-05
6.6866e-08
2.44118e-05
6.67221e-08
2.43808e-05
6.65593e-08
2.43501e-05
6.63914e-08
2.43196e-05
6.62201e-08
2.42893e-05
6.60538e-08
2.42593e-05
6.58889e-08