/*--------------------------------*- C++ -*----------------------------------*\
| =========                 |                                                 |
| \\      /  F ield         | foam-extend: Open Source CFD                    |
|  \\    /   O peration     | Version:     3.2                                |
|   \\  /    A nd           | Web:         http://www.foam-extend.org         |
|    \\/     M anipulation  | For copyright notice see file Copyright         |
\*---------------------------------------------------------------------------*/
FoamFile
{
    version     2.0;
    format      ascii;
    class       volVectorField;
    location    "120";
    object      q_b_slide;
}
// * * * * * * * * * * * * * * * * * * * * * * * * * * * * * * * * * * * * * //

dimensions      [0 2 -1 0 0 0 0];

internalField   uniform (0 0 0);

boundaryField
{
    inlet
    {
        type            calculated;
        value           uniform (0 0 0);
    }
    outlet
    {
        type            calculated;
        value           uniform (0 0 0);
    }
    sideWall
    {
        type            empty;
    }
    bed
    {
        type            calculated;
        value           nonuniform List<vector> 
550
(
(0 0 0)
(0 0 0)
(0 0 0)
(0 0 0)
(1.48949e-07 -4.14024e-29 -2.97899e-10)
(4.77606e-07 0 -9.55212e-10)
(9.20291e-07 -2.97099e-34 -1.84058e-09)
(1.4443e-06 3.92733e-34 -2.88859e-09)
(2.01084e-06 -5.35719e-28 -4.02169e-09)
(2.57808e-06 6.49071e-34 -5.15615e-09)
(3.11099e-06 8.10966e-34 -6.22197e-09)
(3.5809e-06 0 -7.1618e-09)
(3.97144e-06 -9.77134e-28 -7.94288e-09)
(4.2733e-06 1.30349e-33 -8.5466e-09)
(4.48647e-06 0 -8.97294e-09)
(4.61579e-06 -9.76684e-28 -9.23159e-09)
(4.67114e-06 9.13248e-28 -9.34228e-09)
(4.66363e-06 -8.40607e-28 -9.32725e-09)
(4.60608e-06 -7.70465e-28 -9.21216e-09)
(4.513e-06 0 -9.02601e-09)
(4.3931e-06 -6.44345e-28 -8.7862e-09)
(4.25377e-06 5.89611e-28 -8.50754e-09)
(4.10139e-06 0 -8.20278e-09)
(3.94135e-06 -4.85441e-28 -7.8827e-09)
(3.77831e-06 0 -7.55663e-09)
(3.61594e-06 0 -7.23241e-09)
(3.45711e-06 -3.4621e-28 -6.9142e-09)
(3.3045e-06 0 -6.60839e-09)
(3.15951e-06 0 -6.60947e-09)
(3.0112e-06 -2.65949e-28 -5.46903e-09)
(2.87939e-06 1.12942e-28 -3.92378e-09)
(2.75693e-06 -1.00422e-28 -2.88199e-09)
(2.64363e-06 9.06403e-29 -2.21023e-09)
(2.53968e-06 0 -2.21808e-09)
(2.44331e-06 0 -2.28387e-09)
(2.35406e-06 -7.85242e-29 -2.40997e-09)
(2.27132e-06 7.32657e-29 -2.51657e-09)
(2.19467e-06 6.81844e-29 -2.60377e-09)
(2.12368e-06 0 -2.66926e-09)
(2.05795e-06 1.13371e-34 -2.71783e-09)
(1.99711e-06 5.3218e-29 -2.75041e-09)
(1.94081e-06 0 -2.76854e-09)
(1.88869e-06 1.96852e-34 -2.77563e-09)
(1.84043e-06 -1.91926e-34 -2.77551e-09)
(1.79572e-06 7.28569e-29 -2.77187e-09)
(1.75429e-06 0 -2.76709e-09)
(1.71586e-06 -5.89085e-29 -2.76058e-09)
(1.68022e-06 1.87964e-34 -2.75126e-09)
(1.64713e-06 -4.60234e-29 -2.73883e-09)
(1.6164e-06 0 -2.72314e-09)
(1.58783e-06 1.76287e-34 -2.70507e-09)
(1.56124e-06 -1.72965e-34 -2.68539e-09)
(1.53646e-06 2.66687e-29 -2.66427e-09)
(1.51333e-06 0 -2.64239e-09)
(1.49169e-06 -2.01509e-29 -2.62059e-09)
(1.47141e-06 1.75674e-29 -2.59998e-09)
(1.45237e-06 1.50665e-34 -2.58086e-09)
(1.43446e-06 0 -2.56215e-09)
(1.41757e-06 0 -2.54351e-09)
(1.40163e-06 1.12581e-29 -2.5253e-09)
(1.38654e-06 0 -2.50784e-09)
(1.37224e-06 -1.30708e-34 -2.49127e-09)
(1.35865e-06 0 -2.47521e-09)
(1.34573e-06 0 -2.45913e-09)
(1.3334e-06 -8.13397e-30 -2.44286e-09)
(1.32163e-06 -7.94812e-30 -2.42672e-09)
(1.31036e-06 7.77301e-30 -2.41096e-09)
(1.29955e-06 -1.08213e-34 -2.39576e-09)
(1.28915e-06 7.44933e-30 -2.38113e-09)
(1.27912e-06 -7.29887e-30 -2.36715e-09)
(1.26944e-06 -7.13676e-30 -2.35384e-09)
(1.26008e-06 -7.00141e-30 -2.34129e-09)
(1.25102e-06 0 -2.32949e-09)
(1.24223e-06 -6.62173e-30 -2.31762e-09)
(1.2337e-06 6.4632e-30 -2.30504e-09)
(1.2254e-06 6.34414e-30 -2.29189e-09)
(1.21732e-06 -6.13086e-30 -2.27912e-09)
(1.20943e-06 -8.57531e-35 -2.26743e-09)
(1.20171e-06 -5.52511e-30 -2.25605e-09)
(1.19417e-06 0 -2.24413e-09)
(1.18678e-06 7.44736e-35 -2.23184e-09)
(1.17954e-06 0 -2.21938e-09)
(1.17243e-06 5.28117e-30 -2.20682e-09)
(1.16544e-06 -5.19316e-30 -2.19413e-09)
(1.15855e-06 0 -2.18141e-09)
(1.15177e-06 0 -2.16908e-09)
(1.14508e-06 0 -2.15723e-09)
(1.13848e-06 -4.93707e-30 -2.1457e-09)
(1.13195e-06 0 -2.13382e-09)
(1.12551e-06 -4.82297e-30 -2.12171e-09)
(1.11912e-06 0 -2.11059e-09)
(1.1128e-06 4.94869e-35 -2.10052e-09)
(1.10654e-06 0 -2.09076e-09)
(1.10034e-06 4.94565e-35 -2.08101e-09)
(1.0942e-06 -4.94569e-35 -2.07153e-09)
(1.08813e-06 0 -2.06264e-09)
(1.08211e-06 4.49881e-30 -2.05365e-09)
(1.07616e-06 3.87389e-30 -2.04302e-09)
(1.07027e-06 -3.42827e-30 -2.03079e-09)
(1.06442e-06 0 -2.01788e-09)
(1.05861e-06 0 -2.00465e-09)
(1.05281e-06 -4.60819e-35 -1.99131e-09)
(1.04702e-06 3.18144e-30 -1.97801e-09)
(1.04122e-06 0 -1.96485e-09)
(1.03541e-06 -3.20148e-30 -1.95178e-09)
(1.02957e-06 -3.2304e-30 -1.93888e-09)
(1.0237e-06 0 -1.9262e-09)
(1.01779e-06 3.31127e-30 -1.91369e-09)
(1.01185e-06 3.37859e-30 -1.90131e-09)
(1.00587e-06 -4.42667e-35 -1.88919e-09)
(9.99844e-07 0 -1.87692e-09)
(9.93781e-07 0 -1.86395e-09)
(9.87673e-07 3.67583e-30 -1.85126e-09)
(9.81518e-07 0 -1.83938e-09)
(9.75323e-07 -3.86568e-30 -1.82762e-09)
(9.69088e-07 -3.97726e-30 -1.8158e-09)
(9.62816e-07 -4.07962e-30 -1.80413e-09)
(9.56512e-07 4.2089e-35 -1.79261e-09)
(9.5018e-07 0 -1.78122e-09)
(9.43825e-07 4.37995e-30 -1.76994e-09)
(9.37451e-07 4.11135e-35 -1.75875e-09)
(9.31062e-07 4.06616e-35 -1.74758e-09)
(9.24663e-07 4.69087e-30 -1.73642e-09)
(9.18256e-07 4.79286e-30 -1.72525e-09)
(9.11845e-07 -4.89244e-30 -1.71411e-09)
(9.05432e-07 0 -1.70298e-09)
(8.99021e-07 5.07824e-30 -1.69192e-09)
(8.92615e-07 5.16431e-30 -1.68102e-09)
(8.86218e-07 -5.24351e-30 -1.6703e-09)
(8.79835e-07 -3.75482e-35 -1.65966e-09)
(8.73471e-07 0 -1.64906e-09)
(8.67131e-07 3.68524e-35 -1.63854e-09)
(8.60818e-07 0 -1.62815e-09)
(8.54538e-07 -3.6183e-35 -1.6179e-09)
(8.48296e-07 5.48865e-30 -1.60775e-09)
(8.42096e-07 -5.49646e-30 -1.59776e-09)
(8.35942e-07 0 -1.58792e-09)
(8.29839e-07 0 -1.57816e-09)
(8.23789e-07 -5.48051e-30 -1.56843e-09)
(8.17796e-07 -5.46335e-30 -1.55881e-09)
(8.11862e-07 5.44366e-30 -1.54936e-09)
(8.0599e-07 5.41946e-30 -1.54007e-09)
(8.00182e-07 -5.39063e-30 -1.5309e-09)
(7.94441e-07 -3.23865e-35 -1.52184e-09)
(7.88769e-07 0 -1.51288e-09)
(7.83167e-07 5.27359e-30 -1.504e-09)
(7.77637e-07 5.22807e-30 -1.49526e-09)
(7.7218e-07 0 -1.48668e-09)
(7.66799e-07 0 -1.47823e-09)
(7.61493e-07 -5.07979e-30 -1.46986e-09)
(7.56265e-07 2.89796e-35 -1.4616e-09)
(7.51115e-07 4.97252e-30 -1.45352e-09)
(7.46045e-07 2.802e-35 -1.44562e-09)
(7.41054e-07 0 -1.43788e-09)
(7.36145e-07 0 -1.43027e-09)
(7.31319e-07 0 -1.42278e-09)
(7.26575e-07 0 -1.4154e-09)
(7.21916e-07 -4.6613e-30 -1.40816e-09)
(7.17341e-07 0 -1.4011e-09)
(7.12852e-07 0 -1.39424e-09)
(7.08451e-07 0 -1.38756e-09)
(7.04137e-07 0 -1.38098e-09)
(6.99915e-07 0 -1.37455e-09)
(6.95783e-07 0 -1.3682e-09)
(6.91743e-07 0 -1.36202e-09)
(6.87795e-07 4.16021e-30 -1.356e-09)
(6.8394e-07 4.08509e-30 -1.3501e-09)
(6.80178e-07 2.21941e-35 -1.34432e-09)
(6.7651e-07 -2.18812e-35 -1.33865e-09)
(6.72934e-07 -2.15969e-35 -1.33314e-09)
(6.6945e-07 -3.76794e-30 -1.32768e-09)
(6.66058e-07 -3.68242e-30 -1.32224e-09)
(6.62755e-07 -2.05837e-35 -1.31681e-09)
(6.59539e-07 0 -1.31148e-09)
(6.56406e-07 0 -1.30624e-09)
(6.53355e-07 -3.31076e-30 -1.30115e-09)
(6.50383e-07 1.94676e-35 -1.29607e-09)
(6.47489e-07 0 -1.29108e-09)
(6.44668e-07 -1.89911e-35 -1.28621e-09)
(6.4192e-07 -2.89566e-30 -1.28142e-09)
(6.39241e-07 -2.79215e-30 -1.27677e-09)
(6.3663e-07 2.68707e-30 -1.27219e-09)
(6.34084e-07 -2.58175e-30 -1.2677e-09)
(6.31602e-07 -2.47671e-30 -1.26335e-09)
(6.29181e-07 0 -1.25905e-09)
(6.2682e-07 -2.2649e-30 -1.25488e-09)
(6.24517e-07 -2.1611e-30 -1.25075e-09)
(6.22271e-07 0 -1.24669e-09)
(6.20079e-07 -1.95914e-30 -1.24274e-09)
(6.1794e-07 0 -1.23886e-09)
(6.15852e-07 0 -1.23505e-09)
(6.13815e-07 -1.58779e-35 -1.23136e-09)
(6.11826e-07 0 -1.22765e-09)
(6.09885e-07 -1.54351e-35 -1.22402e-09)
(6.07988e-07 0 -1.22045e-09)
(6.06135e-07 0 -1.21698e-09)
(6.04324e-07 0 -1.21359e-09)
(6.02553e-07 0 -1.21026e-09)
(6.00822e-07 0 -1.20701e-09)
(5.99128e-07 -1.01457e-30 -1.20381e-09)
(5.9747e-07 9.44464e-31 -1.2006e-09)
(5.95846e-07 0 -1.1973e-09)
(5.94252e-07 8.08142e-31 -1.19391e-09)
(5.92685e-07 -1.34587e-35 -1.19038e-09)
(5.91138e-07 1.27275e-35 -1.18677e-09)
(5.89602e-07 0 -1.18289e-09)
(5.8807e-07 8.20895e-31 -1.17869e-09)
(5.8653e-07 1.13653e-35 -1.17445e-09)
(5.84974e-07 8.60636e-31 -1.17045e-09)
(5.83398e-07 -8.8113e-31 -1.1666e-09)
(5.81802e-07 1.08338e-35 -1.16284e-09)
(5.80184e-07 0 -1.15915e-09)
(5.78544e-07 0 -1.15549e-09)
(5.76884e-07 -1.01167e-35 -1.15189e-09)
(5.75205e-07 9.52688e-31 -1.14832e-09)
(5.73507e-07 9.65765e-31 -1.14476e-09)
(5.71793e-07 -9.32237e-36 -1.14119e-09)
(5.70064e-07 -9.95668e-31 -1.13763e-09)
(5.6832e-07 0 -1.13411e-09)
(5.66564e-07 -1.03664e-30 -1.13061e-09)
(5.64798e-07 0 -1.12714e-09)
(5.63023e-07 -1.09033e-30 -1.12369e-09)
(5.61241e-07 0 -1.1203e-09)
(5.59453e-07 -1.15651e-30 -1.11696e-09)
(5.57663e-07 0 -1.11368e-09)
(5.55871e-07 -1.22965e-30 -1.11042e-09)
(5.5408e-07 0 -1.10725e-09)
(5.52292e-07 0 -1.10411e-09)
(5.50509e-07 0 -1.10102e-09)
(5.48732e-07 0 -1.09796e-09)
(5.46964e-07 0 -1.09495e-09)
(5.45207e-07 -1.43683e-30 -1.09195e-09)
(5.43461e-07 8.82397e-36 -1.08903e-09)
(5.41729e-07 8.93879e-36 -1.08612e-09)
(5.40012e-07 -1.51983e-30 -1.08328e-09)
(5.38312e-07 0 -1.08043e-09)
(5.36628e-07 0 -1.0776e-09)
(5.34964e-07 0 -1.07482e-09)
(5.33318e-07 1.57709e-30 -1.07208e-09)
(5.31692e-07 -9.33212e-36 -1.06939e-09)
(5.30086e-07 -1.58668e-30 -1.0667e-09)
(5.28502e-07 -9.32657e-36 -1.06404e-09)
(5.26938e-07 0 -1.06141e-09)
(5.25396e-07 0 -1.05881e-09)
(5.23876e-07 -9.20795e-36 -1.05628e-09)
(5.22377e-07 0 -1.05377e-09)
(5.20899e-07 1.58812e-30 -1.05131e-09)
(5.19444e-07 -8.99055e-36 -1.04889e-09)
(5.1801e-07 0 -1.04652e-09)
(5.16598e-07 0 -1.04417e-09)
(5.15208e-07 -1.59178e-30 -1.04189e-09)
(5.1384e-07 0 -1.03963e-09)
(5.12495e-07 -1.59813e-30 -1.03737e-09)
(5.11172e-07 0 -1.03514e-09)
(5.0987e-07 0 -1.03291e-09)
(5.0859e-07 0 -1.03074e-09)
(5.0733e-07 0 -1.02859e-09)
(5.06092e-07 8.52437e-36 -1.0265e-09)
(5.04874e-07 0 -1.02439e-09)
(5.03679e-07 -1.60998e-30 -1.02232e-09)
(5.02506e-07 0 -1.02036e-09)
(5.01357e-07 0 -1.01848e-09)
(5.00232e-07 0 -1.0166e-09)
(4.99132e-07 -8.59851e-36 -1.01476e-09)
(4.98059e-07 0 -1.01309e-09)
(4.97015e-07 1.55442e-30 -1.01154e-09)
(4.95998e-07 0 -1.01002e-09)
(4.95011e-07 0 -1.0086e-09)
(4.94055e-07 0 -1.00723e-09)
(4.93131e-07 -8.61284e-36 -1.00593e-09)
(4.92239e-07 0 -1.00469e-09)
(4.91381e-07 -1.3903e-30 -1.00351e-09)
(4.90557e-07 0 -1.0024e-09)
(4.89767e-07 0 -1.00132e-09)
(4.89011e-07 0 -1.00026e-09)
(4.88288e-07 0 -9.99227e-10)
(4.87596e-07 0 -9.98153e-10)
(4.86934e-07 0 -9.9698e-10)
(4.863e-07 0 -9.95728e-10)
(4.8569e-07 0 -9.94512e-10)
(4.85102e-07 1.06017e-30 -9.93192e-10)
(4.84531e-07 0 -9.91742e-10)
(4.83972e-07 -5.95989e-36 -9.90364e-10)
(4.83421e-07 0 -9.88948e-10)
(4.82873e-07 -5.50907e-36 -9.87419e-10)
(4.82324e-07 0 -9.85807e-10)
(4.8177e-07 9.26069e-31 -9.84102e-10)
(4.81207e-07 0 -9.8232e-10)
(4.80633e-07 0 -9.80485e-10)
(4.80043e-07 8.79129e-31 -9.78589e-10)
(4.79434e-07 -8.67216e-31 -9.76634e-10)
(4.78806e-07 0 -9.7464e-10)
(4.78155e-07 0 -9.7264e-10)
(4.77481e-07 0 -9.70634e-10)
(4.76785e-07 0 -9.68635e-10)
(4.76067e-07 4.19733e-36 -9.66621e-10)
(4.75328e-07 8.07537e-31 -9.64604e-10)
(4.7457e-07 0 -9.62362e-10)
(4.73797e-07 0 -9.59927e-10)
(4.73012e-07 0 -9.57943e-10)
(4.72217e-07 -4.25296e-36 -9.56212e-10)
(4.71412e-07 -7.26462e-31 -9.54323e-10)
(4.70599e-07 0 -9.52405e-10)
(4.69779e-07 -6.84107e-31 -9.50453e-10)
(4.68954e-07 0 -9.48485e-10)
(4.68123e-07 6.3891e-31 -9.46509e-10)
(4.67289e-07 -6.1536e-31 -9.44501e-10)
(4.6645e-07 0 -9.42436e-10)
(4.65606e-07 5.65084e-31 -9.40303e-10)
(4.6476e-07 0 -9.38182e-10)
(4.63909e-07 0 -9.36072e-10)
(4.63053e-07 -3.63181e-36 -9.33906e-10)
(4.62191e-07 0 -9.31744e-10)
(4.61323e-07 0 -9.29675e-10)
(4.60448e-07 -4.07187e-31 -9.27622e-10)
(4.59564e-07 -3.4506e-36 -9.2551e-10)
(4.58671e-07 0 -9.2339e-10)
(4.57767e-07 3.36688e-31 -9.2125e-10)
(4.56851e-07 0 -9.19113e-10)
(4.55922e-07 -3.0098e-31 -9.16977e-10)
(4.5498e-07 0 -9.14823e-10)
(4.54021e-07 0 -9.12683e-10)
(4.53047e-07 -2.82538e-31 -9.10554e-10)
(4.52055e-07 0 -9.08392e-10)
(4.51046e-07 -3.10885e-31 -9.06219e-10)
(4.50017e-07 0 -9.04023e-10)
(4.48968e-07 0 -9.01776e-10)
(4.47898e-07 0 -8.9951e-10)
(4.46805e-07 -3.97717e-31 -8.97214e-10)
(4.45691e-07 0 -8.94902e-10)
(4.44553e-07 4.52064e-31 -8.92512e-10)
(4.43391e-07 0 -8.90008e-10)
(4.42205e-07 0 -8.8744e-10)
(4.40993e-07 0 -8.84792e-10)
(4.39754e-07 0 -8.82078e-10)
(4.38487e-07 0 -8.79296e-10)
(4.37192e-07 0 -8.76436e-10)
(4.35868e-07 7.11156e-31 -8.73516e-10)
(4.34516e-07 0 -8.70556e-10)
(4.33137e-07 3.41405e-36 -8.67545e-10)
(4.31732e-07 0 -8.64485e-10)
(4.303e-07 -3.55406e-36 -8.61387e-10)
(4.28845e-07 -8.65921e-31 -8.5827e-10)
(4.27367e-07 0 -8.55097e-10)
(4.25868e-07 0 -8.51892e-10)
(4.24348e-07 0 -8.48659e-10)
(4.22808e-07 0 -8.45413e-10)
(4.21251e-07 -9.80771e-31 -8.42205e-10)
(4.19678e-07 0 -8.39022e-10)
(4.18091e-07 0 -8.35883e-10)
(4.16494e-07 -4.03139e-36 -8.32743e-10)
(4.14889e-07 0 -8.29644e-10)
(4.13279e-07 0 -8.26584e-10)
(4.11664e-07 0 -8.23583e-10)
(4.1005e-07 1.11313e-30 -8.20609e-10)
(4.08437e-07 -4.41434e-36 -8.17634e-10)
(4.06828e-07 -1.15165e-30 -8.1467e-10)
(4.05223e-07 0 -8.11746e-10)
(4.03623e-07 1.19182e-30 -8.08858e-10)
(4.02031e-07 -1.21076e-30 -8.05977e-10)
(4.00448e-07 0 -8.03083e-10)
(3.98873e-07 0 -8.00163e-10)
(3.97307e-07 1.25976e-30 -7.97244e-10)
(3.95749e-07 0 -7.94255e-10)
(3.94198e-07 0 -7.91195e-10)
(3.92652e-07 0 -7.88081e-10)
(3.91106e-07 5.43118e-36 -7.84923e-10)
(3.89559e-07 0 -7.8172e-10)
(3.88008e-07 0 -7.78514e-10)
(3.86452e-07 0 -7.75272e-10)
(3.84888e-07 0 -7.72007e-10)
(3.83316e-07 5.61485e-36 -7.68721e-10)
(3.81735e-07 0 -7.65429e-10)
(3.80143e-07 -5.6432e-36 -7.62144e-10)
(3.78542e-07 -1.37366e-30 -7.58865e-10)
(3.7693e-07 0 -7.55563e-10)
(3.7531e-07 5.70353e-36 -7.52299e-10)
(3.73682e-07 1.39273e-30 -7.49065e-10)
(3.72048e-07 0 -7.4586e-10)
(3.7041e-07 0 -7.42671e-10)
(3.6877e-07 1.40748e-30 -7.39551e-10)
(3.67132e-07 1.41175e-30 -7.36486e-10)
(3.65497e-07 0 -7.33444e-10)
(3.6387e-07 0 -7.30466e-10)
(3.62252e-07 5.72521e-36 -7.27545e-10)
(3.60645e-07 5.6984e-36 -7.24654e-10)
(3.59054e-07 -1.43642e-30 -7.21806e-10)
(3.57478e-07 0 -7.19002e-10)
(3.5592e-07 0 -7.16232e-10)
(3.54382e-07 0 -7.13537e-10)
(3.52864e-07 0 -7.10904e-10)
(3.5137e-07 0 -7.0831e-10)
(3.49899e-07 -1.48312e-30 -7.05757e-10)
(3.48455e-07 -1.49238e-30 -7.03234e-10)
(3.47036e-07 0 -7.00726e-10)
(3.45643e-07 -1.5126e-30 -6.98261e-10)
(3.44275e-07 0 -6.9579e-10)
(3.42932e-07 0 -6.93349e-10)
(3.41613e-07 1.53146e-30 -6.9092e-10)
(3.40316e-07 0 -6.88504e-10)
(3.39041e-07 -1.53233e-30 -6.86107e-10)
(3.37786e-07 -1.52719e-30 -6.8371e-10)
(3.3655e-07 5.94982e-36 -6.8129e-10)
(3.35331e-07 5.98751e-36 -6.78848e-10)
(3.34126e-07 1.48316e-30 -6.76375e-10)
(3.32932e-07 1.45944e-30 -6.73889e-10)
(3.31748e-07 0 -6.71374e-10)
(3.30571e-07 1.40078e-30 -6.68828e-10)
(3.29397e-07 0 -6.66233e-10)
(3.28225e-07 5.69669e-36 -6.63575e-10)
(3.27051e-07 -5.56416e-36 -6.60939e-10)
(3.25875e-07 -5.42617e-36 -6.58354e-10)
(3.24692e-07 0 -6.55755e-10)
(3.23501e-07 0 -6.5313e-10)
(3.22301e-07 1.14479e-30 -6.50497e-10)
(3.2109e-07 -4.68217e-36 -6.47871e-10)
(3.19869e-07 0 -6.45257e-10)
(3.18636e-07 1.06422e-30 -6.42678e-10)
(3.17395e-07 1.04463e-30 -6.40127e-10)
(3.16147e-07 1.02819e-30 -6.37603e-10)
(3.14894e-07 0 -6.35106e-10)
(3.13638e-07 1.00223e-30 -6.32629e-10)
(3.12382e-07 0 -6.30172e-10)
(3.11129e-07 3.97503e-36 -6.27721e-10)
(3.0988e-07 9.71043e-31 -6.25277e-10)
(3.08637e-07 -9.60518e-31 -6.22843e-10)
(3.074e-07 0 -6.20416e-10)
(3.06173e-07 0 -6.17981e-10)
(3.04954e-07 -3.95317e-36 -6.15551e-10)
(3.03745e-07 0 -6.13126e-10)
(3.02543e-07 0 -6.10675e-10)
(3.01349e-07 8.68305e-31 -6.08197e-10)
(3.00161e-07 -8.46162e-31 -6.05692e-10)
(2.98977e-07 0 -6.03177e-10)
(2.97795e-07 -7.9545e-31 -6.00641e-10)
(2.96614e-07 0 -5.98089e-10)
(2.95433e-07 7.37564e-31 -5.95516e-10)
(2.94248e-07 -7.06849e-31 -5.92933e-10)
(2.93059e-07 0 -5.90328e-10)
(2.91864e-07 0 -5.87709e-10)
(2.90662e-07 0 -5.8508e-10)
(2.8945e-07 0 -5.82452e-10)
(2.8823e-07 0 -5.79807e-10)
(2.86999e-07 5.35765e-31 -5.77164e-10)
(2.85758e-07 3.02626e-36 -5.74501e-10)
(2.84507e-07 0 -5.71845e-10)
(2.83245e-07 2.82533e-36 -5.69151e-10)
(2.81974e-07 -4.41229e-31 -5.66464e-10)
(2.80693e-07 -4.21807e-31 -5.63746e-10)
(2.79402e-07 -2.49113e-36 -5.61035e-10)
(2.781e-07 -3.91856e-31 -5.5829e-10)
(2.76789e-07 2.27342e-36 -5.55568e-10)
(2.75466e-07 3.76141e-31 -5.52832e-10)
(2.74134e-07 2.10699e-36 -5.50109e-10)
(2.72792e-07 0 -5.47373e-10)
(2.71441e-07 0 -5.44652e-10)
(2.70081e-07 0 -5.41909e-10)
(2.68715e-07 -3.86387e-31 -5.39174e-10)
(2.67341e-07 0 -5.36427e-10)
(2.65963e-07 0 -5.33677e-10)
(2.6458e-07 0 -5.30909e-10)
(2.63194e-07 0 -5.28149e-10)
(2.61804e-07 0 -5.25329e-10)
(2.60411e-07 0 -5.22506e-10)
(2.59014e-07 0 -5.19628e-10)
(2.57611e-07 0 -5.16735e-10)
(2.56203e-07 0 -5.13794e-10)
(2.54787e-07 1.75402e-36 -5.10831e-10)
(2.53361e-07 4.74979e-31 -5.07812e-10)
(2.51924e-07 0 -5.04773e-10)
(2.50474e-07 0 -5.01714e-10)
(2.4901e-07 0 -4.98656e-10)
(2.47532e-07 -4.89936e-31 -4.9559e-10)
(2.46041e-07 0 -4.92525e-10)
(2.44535e-07 4.96584e-31 -4.89471e-10)
(2.43019e-07 -5.01568e-31 -4.86434e-10)
(2.41492e-07 1.82855e-36 -4.83406e-10)
(2.39957e-07 5.16071e-31 -4.80418e-10)
(2.38418e-07 -5.25762e-31 -4.77442e-10)
(2.36877e-07 -5.3611e-31 -4.7451e-10)
(2.35337e-07 0 -4.71606e-10)
(2.33802e-07 -5.61396e-31 -4.68735e-10)
(2.32276e-07 0 -4.65889e-10)
(2.3076e-07 0 -4.63048e-10)
(2.29256e-07 0 -4.60238e-10)
(2.27766e-07 0 -4.57431e-10)
(2.2629e-07 0 -4.54653e-10)
(2.24828e-07 0 -4.51897e-10)
(2.2338e-07 0 -4.4917e-10)
(2.21948e-07 -6.84987e-31 -4.46473e-10)
(2.20531e-07 7.04524e-31 -4.43805e-10)
(2.1913e-07 0 -4.41145e-10)
(2.17745e-07 -7.38841e-31 -4.38475e-10)
(2.16376e-07 2.64353e-36 -4.35788e-10)
(2.15018e-07 -2.63812e-36 -4.33085e-10)
(2.13672e-07 -2.71367e-36 -4.30377e-10)
(2.12333e-07 7.86579e-31 -4.27641e-10)
(2.10999e-07 7.90678e-31 -4.24915e-10)
(2.09667e-07 7.99814e-31 -4.22169e-10)
(2.08336e-07 0 -4.19443e-10)
(2.07002e-07 0 -4.16734e-10)
(2.05668e-07 2.44562e-36 -4.14017e-10)
(2.0433e-07 0 -4.11313e-10)
(2.02992e-07 2.3662e-36 -4.08629e-10)
(2.0165e-07 0 -4.05935e-10)
(2.00309e-07 2.33167e-36 -4.03245e-10)
(1.98965e-07 -8.7284e-31 -4.00543e-10)
(1.97623e-07 0 -3.97816e-10)
(1.96276e-07 0 -3.95082e-10)
(1.9493e-07 0 -3.92347e-10)
(1.93575e-07 0 -3.89583e-10)
(1.92221e-07 0 -3.86826e-10)
(1.90856e-07 0 -3.84046e-10)
(1.89491e-07 2.94461e-36 -3.81268e-10)
(1.88112e-07 -1.00401e-30 -3.78453e-10)
(1.86733e-07 -1.00462e-30 -3.75657e-10)
(1.85339e-07 0 -3.7286e-10)
(1.83949e-07 -1.01784e-30 -3.70067e-10)
(1.82545e-07 0 -3.67267e-10)
(1.81149e-07 -1.0229e-30 -3.64473e-10)
(1.79741e-07 -1.04275e-30 -3.6165e-10)
(1.78344e-07 -4.07385e-36 -3.58804e-10)
(1.76932e-07 0 -3.55882e-10)
(1.75528e-07 0 -3.52911e-10)
(1.74099e-07 0 -3.49781e-10)
(1.72666e-07 1.1293e-30 -3.46561e-10)
(1.71182e-07 0 -3.42951e-10)
(1.69676e-07 -3.22574e-36 -3.39005e-10)
(1.68041e-07 2.81246e-36 -3.3429e-10)
(1.66341e-07 -2.30435e-36 -3.28691e-10)
(1.64344e-07 0 -3.214e-10)
(1.6216e-07 2.84212e-30 -3.12278e-10)
(1.59327e-07 -4.52442e-36 -2.99694e-10)
(1.56026e-07 0 -2.83386e-10)
(1.51372e-07 0 -2.61558e-10)
(1.45644e-07 -7.06115e-30 -2.31812e-10)
(1.37702e-07 -9.40672e-30 -2.37869e-10)
(1.26865e-07 0 -1.75135e-10)
(1.32824e-07 0 -1.89384e-09)
(1.10744e-07 0 -1.6447e-09)
(7.58525e-08 0 -1.51705e-10)
(3.46434e-08 4.04736e-35 -6.92867e-11)
(0 0 0)
(0 0 0)
(0 0 0)
(0 0 0)
(0 0 0)
(0 0 0)
(0 0 0)
(0 0 0)
)
;
    }
    endWall
    {
        type            calculated;
        value           uniform (0 0 0);
    }
    topWall
    {
        type            calculated;
        value           uniform (0 0 0);
    }
}


// ************************************************************************* //
