/*--------------------------------*- C++ -*----------------------------------*\
| =========                 |                                                 |
| \\      /  F ield         | foam-extend: Open Source CFD                    |
|  \\    /   O peration     | Version:     3.2                                |
|   \\  /    A nd           | Web:         http://www.foam-extend.org         |
|    \\/     M anipulation  | For copyright notice see file Copyright         |
\*---------------------------------------------------------------------------*/
FoamFile
{
    version     2.0;
    format      ascii;
    class       areaScalarField;
    location    "120";
    object      SSd1;
}
// * * * * * * * * * * * * * * * * * * * * * * * * * * * * * * * * * * * * * //

dimensions      [0 1 -2 -1 0 0 0];

internalField   nonuniform List<scalar> 
550
(
1.00105e-05
1.00105e-05
1.00105e-05
1.00105e-05
1.00105e-05
1.00105e-05
1.00105e-05
1.00105e-05
1.00105e-05
1.00105e-05
1.00105e-05
1.00105e-05
1.00105e-05
1.00105e-05
1.00105e-05
1.00105e-05
1.00105e-05
1.00105e-05
1.00105e-05
1.00105e-05
1.00105e-05
1.00105e-05
1.00105e-05
1.00105e-05
1.00105e-05
1.00105e-05
1.00105e-05
1.00178e-05
1.00174e-05
1.00221e-05
1.00382e-05
1.00509e-05
1.00615e-05
1.007e-05
1.00766e-05
1.00816e-05
1.00848e-05
1.00867e-05
1.00872e-05
1.00866e-05
1.0085e-05
1.00825e-05
1.00793e-05
1.00754e-05
1.0071e-05
1.00661e-05
1.00608e-05
1.00552e-05
1.00493e-05
1.00432e-05
1.00369e-05
1.00304e-05
1.00238e-05
1.00171e-05
1.00104e-05
1.00037e-05
9.99698e-06
9.99029e-06
9.98364e-06
9.97704e-06
9.97052e-06
9.96407e-06
9.9577e-06
9.95141e-06
9.94521e-06
9.9391e-06
9.93307e-06
9.92712e-06
9.92125e-06
9.91547e-06
9.90977e-06
9.90414e-06
9.89859e-06
9.89312e-06
9.88772e-06
9.88239e-06
9.87712e-06
9.87193e-06
9.86679e-06
9.86172e-06
9.85671e-06
9.85174e-06
9.84683e-06
9.84197e-06
9.83715e-06
9.83237e-06
9.82762e-06
9.8229e-06
9.81822e-06
9.81355e-06
9.8089e-06
9.80427e-06
9.79966e-06
9.79505e-06
9.79045e-06
9.78586e-06
9.78127e-06
9.77668e-06
9.77209e-06
9.7675e-06
9.7629e-06
9.7583e-06
9.75368e-06
9.74904e-06
9.74438e-06
9.73971e-06
9.73501e-06
9.73028e-06
9.72552e-06
9.72073e-06
9.71591e-06
9.71106e-06
9.70617e-06
9.70125e-06
9.69629e-06
9.69129e-06
9.68626e-06
9.68119e-06
9.67607e-06
9.67093e-06
9.66574e-06
9.66052e-06
9.65526e-06
9.64996e-06
9.64464e-06
9.63927e-06
9.63388e-06
9.62845e-06
9.623e-06
9.61751e-06
9.612e-06
9.60646e-06
9.60089e-06
9.59531e-06
9.5897e-06
9.58407e-06
9.57843e-06
9.57277e-06
9.56709e-06
9.5614e-06
9.5557e-06
9.55e-06
9.54428e-06
9.53856e-06
9.53283e-06
9.52711e-06
9.52138e-06
9.51565e-06
9.50993e-06
9.50421e-06
9.4985e-06
9.49279e-06
9.4871e-06
9.48142e-06
9.47574e-06
9.47009e-06
9.46444e-06
9.45882e-06
9.45321e-06
9.44763e-06
9.44206e-06
9.43652e-06
9.43101e-06
9.42552e-06
9.42006e-06
9.41463e-06
9.40923e-06
9.40387e-06
9.39854e-06
9.39324e-06
9.38798e-06
9.38276e-06
9.37757e-06
9.37243e-06
9.36733e-06
9.36226e-06
9.35724e-06
9.35226e-06
9.34731e-06
9.34241e-06
9.33756e-06
9.33274e-06
9.32797e-06
9.32323e-06
9.31854e-06
9.31389e-06
9.30928e-06
9.30471e-06
9.30018e-06
9.29569e-06
9.29124e-06
9.28684e-06
9.28247e-06
9.27814e-06
9.27385e-06
9.2696e-06
9.26539e-06
9.26122e-06
9.25709e-06
9.253e-06
9.24894e-06
9.24493e-06
9.24094e-06
9.237e-06
9.23308e-06
9.2292e-06
9.22533e-06
9.22149e-06
9.21768e-06
9.21389e-06
9.21012e-06
9.20637e-06
9.20264e-06
9.19892e-06
9.19523e-06
9.19155e-06
9.18789e-06
9.18424e-06
9.18061e-06
9.17699e-06
9.17339e-06
9.1698e-06
9.16622e-06
9.16266e-06
9.15911e-06
9.15557e-06
9.15205e-06
9.14854e-06
9.14504e-06
9.14155e-06
9.13807e-06
9.1346e-06
9.13115e-06
9.1277e-06
9.12426e-06
9.12084e-06
9.11741e-06
9.114e-06
9.11059e-06
9.10719e-06
9.10379e-06
9.1004e-06
9.09701e-06
9.09362e-06
9.09023e-06
9.08683e-06
9.08344e-06
9.08004e-06
9.07663e-06
9.07322e-06
9.0698e-06
9.06638e-06
9.06294e-06
9.05949e-06
9.05603e-06
9.05256e-06
9.04908e-06
9.04558e-06
9.04207e-06
9.03855e-06
9.03502e-06
9.03148e-06
9.02793e-06
9.02436e-06
9.0208e-06
9.01722e-06
9.01364e-06
9.01006e-06
9.00648e-06
9.0029e-06
8.99932e-06
8.99574e-06
8.99216e-06
8.98859e-06
8.98503e-06
8.98147e-06
8.97791e-06
8.97437e-06
8.97083e-06
8.9673e-06
8.96378e-06
8.96026e-06
8.95675e-06
8.95325e-06
8.94976e-06
8.94627e-06
8.9428e-06
8.93933e-06
8.93586e-06
8.93241e-06
8.92896e-06
8.92551e-06
8.92208e-06
8.91864e-06
8.91521e-06
8.91179e-06
8.90836e-06
8.90495e-06
8.90154e-06
8.89813e-06
8.89472e-06
8.89133e-06
8.88793e-06
8.88455e-06
8.88116e-06
8.87779e-06
8.87442e-06
8.87105e-06
8.86769e-06
8.86434e-06
8.861e-06
8.85766e-06
8.85433e-06
8.851e-06
8.84768e-06
8.84437e-06
8.84107e-06
8.83777e-06
8.83448e-06
8.8312e-06
8.82792e-06
8.82464e-06
8.82137e-06
8.81809e-06
8.81482e-06
8.81155e-06
8.80828e-06
8.80501e-06
8.80174e-06
8.79847e-06
8.79519e-06
8.79192e-06
8.78864e-06
8.78536e-06
8.78208e-06
8.77879e-06
8.7755e-06
8.77221e-06
8.76892e-06
8.76563e-06
8.76233e-06
8.75904e-06
8.75575e-06
8.75246e-06
8.74917e-06
8.74588e-06
8.7426e-06
8.73933e-06
8.73605e-06
8.73279e-06
8.72953e-06
8.72628e-06
8.72304e-06
8.7198e-06
8.71657e-06
8.71336e-06
8.71015e-06
8.70695e-06
8.70377e-06
8.70059e-06
8.69742e-06
8.69427e-06
8.69113e-06
8.688e-06
8.68488e-06
8.68177e-06
8.67868e-06
8.67559e-06
8.67252e-06
8.66946e-06
8.6664e-06
8.66335e-06
8.66031e-06
8.65728e-06
8.65425e-06
8.65123e-06
8.6482e-06
8.64518e-06
8.64215e-06
8.63913e-06
8.6361e-06
8.63306e-06
8.63002e-06
8.62698e-06
8.62392e-06
8.62086e-06
8.6178e-06
8.61472e-06
8.61163e-06
8.60853e-06
8.60542e-06
8.60229e-06
8.59916e-06
8.59601e-06
8.59285e-06
8.58968e-06
8.58649e-06
8.58329e-06
8.58008e-06
8.57686e-06
8.57362e-06
8.57038e-06
8.56712e-06
8.56385e-06
8.56058e-06
8.55729e-06
8.554e-06
8.5507e-06
8.54739e-06
8.54408e-06
8.54076e-06
8.53744e-06
8.53411e-06
8.53077e-06
8.52742e-06
8.52407e-06
8.52071e-06
8.51733e-06
8.51395e-06
8.51056e-06
8.50715e-06
8.50374e-06
8.50031e-06
8.49688e-06
8.49343e-06
8.48998e-06
8.48652e-06
8.48305e-06
8.47958e-06
8.47609e-06
8.47261e-06
8.46912e-06
8.46563e-06
8.46213e-06
8.45863e-06
8.45513e-06
8.45164e-06
8.44814e-06
8.44464e-06
8.44115e-06
8.43765e-06
8.43416e-06
8.43067e-06
8.42718e-06
8.42369e-06
8.4202e-06
8.41672e-06
8.41324e-06
8.40976e-06
8.40629e-06
8.40282e-06
8.39935e-06
8.39589e-06
8.39242e-06
8.38896e-06
8.38551e-06
8.38205e-06
8.3786e-06
8.37515e-06
8.3717e-06
8.36826e-06
8.36481e-06
8.36137e-06
8.35793e-06
8.35449e-06
8.35106e-06
8.34763e-06
8.3442e-06
8.34078e-06
8.33736e-06
8.33394e-06
8.33053e-06
8.32713e-06
8.32372e-06
8.32033e-06
8.31693e-06
8.31354e-06
8.31015e-06
8.30676e-06
8.30338e-06
8.3e-06
8.29662e-06
8.29324e-06
8.28987e-06
8.2865e-06
8.28314e-06
8.27977e-06
8.27641e-06
8.27305e-06
8.2697e-06
8.26634e-06
8.26299e-06
8.25964e-06
8.2563e-06
8.25296e-06
8.24962e-06
8.24629e-06
8.24297e-06
8.23965e-06
8.23634e-06
8.23305e-06
8.22975e-06
8.22647e-06
8.22319e-06
8.21992e-06
8.21665e-06
8.21339e-06
8.21013e-06
8.20688e-06
8.20364e-06
8.2004e-06
8.19716e-06
8.19392e-06
8.19069e-06
8.18746e-06
8.18423e-06
8.18101e-06
8.17778e-06
8.17455e-06
8.17132e-06
8.16809e-06
8.16486e-06
8.16163e-06
8.15839e-06
8.15515e-06
8.1519e-06
8.14863e-06
8.14534e-06
8.14201e-06
8.1386e-06
8.1351e-06
8.13146e-06
8.12761e-06
8.12346e-06
8.1189e-06
8.11367e-06
8.10814e-06
8.10088e-06
8.09302e-06
8.11953e-06
8.14253e-06
8.16268e-06
8.18028e-06
8.19512e-06
8.20835e-06
8.21883e-06
8.23096e-06
8.30823e-06
8.38516e-06
8.3886e-06
)
;

boundaryField
{
    inlet
    {
        type            calculated;
        value           uniform 0;
    }
    endWall
    {
        type            calculated;
        value           uniform 0;
    }
    sideWall
    {
        type            empty;
    }
}


// ************************************************************************* //
