/*--------------------------------*- C++ -*----------------------------------*\
| =========                 |                                                 |
| \\      /  F ield         | foam-extend: Open Source CFD                    |
|  \\    /   O peration     | Version:     3.2                                |
|   \\  /    A nd           | Web:         http://www.foam-extend.org         |
|    \\/     M anipulation  | For copyright notice see file Copyright         |
\*---------------------------------------------------------------------------*/
FoamFile
{
    version     2.0;
    format      ascii;
    class       areaScalarField;
    location    "120";
    object      SSe1;
}
// * * * * * * * * * * * * * * * * * * * * * * * * * * * * * * * * * * * * * //

dimensions      [0 1 -2 -1 0 0 0];

internalField   nonuniform List<scalar> 
550
(
6.69827e-07
1.19964e-06
1.94843e-06
2.93621e-06
4.16023e-06
5.58657e-06
7.1594e-06
8.79963e-06
1.04276e-05
1.19626e-05
1.33444e-05
1.45259e-05
1.54864e-05
1.62175e-05
1.67284e-05
1.70364e-05
1.71677e-05
1.71499e-05
1.70133e-05
1.67917e-05
1.65051e-05
1.61705e-05
1.58023e-05
1.5413e-05
1.50136e-05
1.46128e-05
1.42175e-05
1.38346e-05
1.34654e-05
1.30657e-05
1.27406e-05
1.24315e-05
1.21384e-05
1.18599e-05
1.15978e-05
1.13523e-05
1.1123e-05
1.09094e-05
1.07105e-05
1.05255e-05
1.03536e-05
1.01939e-05
1.00455e-05
9.90765e-06
9.77944e-06
9.66016e-06
9.54915e-06
9.44583e-06
9.34963e-06
9.25999e-06
9.17638e-06
9.09827e-06
9.02519e-06
8.9567e-06
8.89239e-06
8.83186e-06
8.77478e-06
8.7209e-06
8.66996e-06
8.6217e-06
8.57589e-06
8.53233e-06
8.49086e-06
8.4513e-06
8.41351e-06
8.37732e-06
8.34258e-06
8.30917e-06
8.27698e-06
8.2459e-06
8.21585e-06
8.18676e-06
8.15857e-06
8.13125e-06
8.10476e-06
8.07902e-06
8.05394e-06
8.02947e-06
8.00559e-06
7.98226e-06
7.95942e-06
7.93704e-06
7.91504e-06
7.89339e-06
7.87204e-06
7.85093e-06
7.83004e-06
7.80936e-06
7.78888e-06
7.76858e-06
7.74842e-06
7.72841e-06
7.70858e-06
7.68893e-06
7.66947e-06
7.6502e-06
7.63113e-06
7.6123e-06
7.59367e-06
7.57517e-06
7.55674e-06
7.53832e-06
7.51988e-06
7.50137e-06
7.48275e-06
7.46402e-06
7.44515e-06
7.42612e-06
7.40694e-06
7.3876e-06
7.36811e-06
7.34848e-06
7.32868e-06
7.30868e-06
7.28853e-06
7.26822e-06
7.24778e-06
7.22721e-06
7.20652e-06
7.18574e-06
7.16488e-06
7.14396e-06
7.12299e-06
7.10198e-06
7.08093e-06
7.05987e-06
7.03879e-06
7.01769e-06
6.9966e-06
6.97553e-06
6.95449e-06
6.9335e-06
6.91256e-06
6.8917e-06
6.87092e-06
6.85024e-06
6.82968e-06
6.80925e-06
6.78896e-06
6.76883e-06
6.74885e-06
6.72905e-06
6.70943e-06
6.69001e-06
6.67079e-06
6.65179e-06
6.633e-06
6.61443e-06
6.59609e-06
6.578e-06
6.56014e-06
6.54253e-06
6.52517e-06
6.50807e-06
6.49123e-06
6.47466e-06
6.45837e-06
6.44235e-06
6.42662e-06
6.41117e-06
6.39601e-06
6.38114e-06
6.36658e-06
6.35233e-06
6.33839e-06
6.32474e-06
6.31141e-06
6.29839e-06
6.28567e-06
6.27326e-06
6.26115e-06
6.24934e-06
6.23782e-06
6.22658e-06
6.21559e-06
6.20486e-06
6.19437e-06
6.18411e-06
6.17407e-06
6.16424e-06
6.15461e-06
6.14517e-06
6.13592e-06
6.12686e-06
6.11797e-06
6.10925e-06
6.1007e-06
6.09231e-06
6.08408e-06
6.076e-06
6.06807e-06
6.06029e-06
6.05264e-06
6.04514e-06
6.03776e-06
6.0305e-06
6.02336e-06
6.01633e-06
6.00942e-06
6.00262e-06
5.99593e-06
5.98934e-06
5.98284e-06
5.97643e-06
5.97009e-06
5.9638e-06
5.95755e-06
5.95127e-06
5.94492e-06
5.93848e-06
5.93194e-06
5.92531e-06
5.91859e-06
5.91177e-06
5.90488e-06
5.89792e-06
5.89089e-06
5.88381e-06
5.87668e-06
5.86952e-06
5.86232e-06
5.8551e-06
5.84787e-06
5.84065e-06
5.83343e-06
5.82624e-06
5.81908e-06
5.81196e-06
5.80491e-06
5.79792e-06
5.79101e-06
5.78419e-06
5.77746e-06
5.77083e-06
5.7643e-06
5.75789e-06
5.75159e-06
5.7454e-06
5.73933e-06
5.73337e-06
5.72754e-06
5.72182e-06
5.71622e-06
5.71073e-06
5.70536e-06
5.70009e-06
5.69494e-06
5.6899e-06
5.68497e-06
5.68015e-06
5.67545e-06
5.67085e-06
5.66636e-06
5.66199e-06
5.65772e-06
5.65354e-06
5.64947e-06
5.6455e-06
5.64162e-06
5.63783e-06
5.63414e-06
5.63054e-06
5.62705e-06
5.62366e-06
5.62037e-06
5.6172e-06
5.61414e-06
5.61119e-06
5.60837e-06
5.60568e-06
5.60312e-06
5.6007e-06
5.59842e-06
5.59629e-06
5.5943e-06
5.59246e-06
5.59076e-06
5.5892e-06
5.58775e-06
5.58641e-06
5.58516e-06
5.58398e-06
5.58283e-06
5.58169e-06
5.58053e-06
5.57934e-06
5.57808e-06
5.57674e-06
5.57528e-06
5.5737e-06
5.57197e-06
5.57008e-06
5.56803e-06
5.5658e-06
5.56339e-06
5.56082e-06
5.55809e-06
5.55522e-06
5.55221e-06
5.54907e-06
5.54582e-06
5.54246e-06
5.53901e-06
5.53547e-06
5.53185e-06
5.52816e-06
5.5244e-06
5.52057e-06
5.51668e-06
5.51272e-06
5.5087e-06
5.5046e-06
5.50043e-06
5.49619e-06
5.49187e-06
5.48747e-06
5.48299e-06
5.47843e-06
5.47379e-06
5.46907e-06
5.46428e-06
5.45942e-06
5.45449e-06
5.4495e-06
5.44444e-06
5.43934e-06
5.43419e-06
5.42899e-06
5.42375e-06
5.41847e-06
5.41316e-06
5.40782e-06
5.40243e-06
5.39701e-06
5.39153e-06
5.38601e-06
5.38042e-06
5.37477e-06
5.36905e-06
5.36326e-06
5.35739e-06
5.35144e-06
5.34541e-06
5.3393e-06
5.33312e-06
5.32686e-06
5.32052e-06
5.31411e-06
5.30762e-06
5.30108e-06
5.29449e-06
5.28787e-06
5.28123e-06
5.27458e-06
5.26795e-06
5.26133e-06
5.25476e-06
5.24823e-06
5.24175e-06
5.23534e-06
5.22901e-06
5.22275e-06
5.21656e-06
5.21046e-06
5.20442e-06
5.19844e-06
5.1925e-06
5.18658e-06
5.18067e-06
5.17476e-06
5.16883e-06
5.16288e-06
5.15689e-06
5.15087e-06
5.1448e-06
5.1387e-06
5.13255e-06
5.12636e-06
5.12014e-06
5.11391e-06
5.10765e-06
5.1014e-06
5.09516e-06
5.08895e-06
5.08278e-06
5.07667e-06
5.07063e-06
5.06467e-06
5.0588e-06
5.05302e-06
5.04735e-06
5.0418e-06
5.03637e-06
5.03107e-06
5.02591e-06
5.02087e-06
5.01597e-06
5.01119e-06
5.00652e-06
5.00197e-06
4.99751e-06
4.99315e-06
4.98887e-06
4.98466e-06
4.98049e-06
4.97636e-06
4.97224e-06
4.96812e-06
4.96397e-06
4.95979e-06
4.95554e-06
4.95122e-06
4.94682e-06
4.94232e-06
4.93771e-06
4.933e-06
4.92819e-06
4.92327e-06
4.91826e-06
4.91316e-06
4.90801e-06
4.90281e-06
4.89758e-06
4.89234e-06
4.88709e-06
4.88184e-06
4.87661e-06
4.87141e-06
4.86622e-06
4.86106e-06
4.85591e-06
4.85078e-06
4.84565e-06
4.8405e-06
4.83533e-06
4.83013e-06
4.82488e-06
4.81958e-06
4.81421e-06
4.80876e-06
4.80323e-06
4.79762e-06
4.79192e-06
4.78612e-06
4.78024e-06
4.77428e-06
4.76823e-06
4.7621e-06
4.75589e-06
4.74961e-06
4.74325e-06
4.73681e-06
4.73031e-06
4.72375e-06
4.71713e-06
4.71047e-06
4.70377e-06
4.69703e-06
4.69028e-06
4.6835e-06
4.67672e-06
4.66993e-06
4.66313e-06
4.65632e-06
4.64951e-06
4.64267e-06
4.63581e-06
4.6289e-06
4.62195e-06
4.61493e-06
4.60784e-06
4.60066e-06
4.5934e-06
4.58606e-06
4.57864e-06
4.57115e-06
4.5636e-06
4.55601e-06
4.54839e-06
4.54077e-06
4.53317e-06
4.52561e-06
4.51811e-06
4.51069e-06
4.50335e-06
4.49612e-06
4.48899e-06
4.48197e-06
4.47506e-06
4.46826e-06
4.46158e-06
4.45502e-06
4.44857e-06
4.44224e-06
4.436e-06
4.42984e-06
4.42373e-06
4.41767e-06
4.41162e-06
4.40558e-06
4.39952e-06
4.39345e-06
4.38737e-06
4.38128e-06
4.37516e-06
4.36905e-06
4.36293e-06
4.35681e-06
4.35067e-06
4.34454e-06
4.33836e-06
4.33219e-06
4.32596e-06
4.31974e-06
4.31345e-06
4.30716e-06
4.3008e-06
4.29445e-06
4.28804e-06
4.28167e-06
4.27523e-06
4.26885e-06
4.2624e-06
4.25598e-06
4.24945e-06
4.2429e-06
4.23611e-06
4.22923e-06
4.22177e-06
4.21404e-06
4.20495e-06
4.19504e-06
4.18212e-06
4.16705e-06
4.14549e-06
4.11879e-06
4.07741e-06
4.02491e-06
3.90691e-06
3.7855e-06
3.75914e-06
3.52758e-06
3.17756e-06
2.7259e-06
2.14692e-06
1.45752e-06
6.04936e-07
9.33094e-08
1.91585e-07
6.42738e-07
)
;

boundaryField
{
    inlet
    {
        type            calculated;
        value           uniform 0;
    }
    endWall
    {
        type            calculated;
        value           uniform 0;
    }
    sideWall
    {
        type            empty;
    }
}


// ************************************************************************* //
