/*--------------------------------*- C++ -*----------------------------------*\
| =========                 |                                                 |
| \\      /  F ield         | foam-extend: Open Source CFD                    |
|  \\    /   O peration     | Version:     3.2                                |
|   \\  /    A nd           | Web:         http://www.foam-extend.org         |
|    \\/     M anipulation  | For copyright notice see file Copyright         |
\*---------------------------------------------------------------------------*/
FoamFile
{
    version     2.0;
    format      ascii;
    class       areaScalarField;
    location    "120";
    object      tauCSS1;
}
// * * * * * * * * * * * * * * * * * * * * * * * * * * * * * * * * * * * * * //

dimensions      [1 1 2 0 0 0 0];

internalField   nonuniform List<scalar> 
550
(
0.0120735
0.0120735
0.0120735
0.0120735
0.0120735
0.0120735
0.0120735
0.0120735
0.0120735
0.0120735
0.0120735
0.0120735
0.0120735
0.0120735
0.0120735
0.0120735
0.0120735
0.0120735
0.0120735
0.0120735
0.0120735
0.0120735
0.0120735
0.0120735
0.0120735
0.0120735
0.0120735
0.0120736
0.0120718
0.0121064
0.012114
0.0121212
0.0121287
0.0121331
0.0121377
0.012142
0.0121461
0.0121501
0.0121537
0.0121571
0.01216
0.0121625
0.0121647
0.0121666
0.0121681
0.0121694
0.0121704
0.0121712
0.0121719
0.0121725
0.0121731
0.0121738
0.0121746
0.0121755
0.0121764
0.0121775
0.0121787
0.0121799
0.0121811
0.0121823
0.0121836
0.0121849
0.0121861
0.0121874
0.0121887
0.01219
0.0121914
0.0121927
0.012194
0.0121952
0.0121964
0.0121975
0.0121985
0.0121994
0.0122002
0.0122008
0.0122014
0.0122018
0.0122021
0.0122022
0.0122023
0.0122023
0.0122023
0.0122024
0.0122024
0.0122026
0.0122028
0.0122031
0.0122034
0.0122039
0.0122043
0.0122048
0.0122053
0.0122057
0.012206
0.0122063
0.0122065
0.0122066
0.0122068
0.012207
0.0122073
0.0122076
0.012208
0.0122084
0.0122088
0.0122094
0.0122099
0.0122105
0.0122111
0.0122116
0.0122122
0.0122128
0.0122134
0.0122139
0.0122144
0.012215
0.0122155
0.0122159
0.0122163
0.0122167
0.012217
0.0122173
0.0122176
0.0122177
0.0122179
0.012218
0.012218
0.012218
0.012218
0.012218
0.0122179
0.0122178
0.0122177
0.0122176
0.0122175
0.0122174
0.0122173
0.0122172
0.0122171
0.012217
0.0122169
0.0122168
0.0122167
0.0122166
0.0122164
0.0122163
0.0122161
0.0122159
0.0122157
0.0122155
0.0122153
0.012215
0.0122147
0.0122143
0.0122139
0.0122135
0.012213
0.0122125
0.0122119
0.0122113
0.0122107
0.01221
0.0122092
0.0122084
0.0122077
0.0122068
0.012206
0.0122052
0.0122044
0.0122036
0.0122029
0.0122021
0.0122015
0.0122008
0.0122003
0.0121999
0.0121996
0.0121993
0.0121993
0.0121993
0.0121995
0.0121998
0.0122003
0.0122009
0.0122016
0.0122025
0.0122035
0.0122046
0.0122059
0.0122072
0.0122087
0.0122103
0.0122121
0.0122139
0.0122159
0.012218
0.0122202
0.0122226
0.012225
0.0122275
0.0122301
0.0122328
0.0122356
0.0122384
0.0122413
0.0122442
0.012247
0.0122498
0.0122527
0.0122556
0.0122585
0.0122615
0.0122646
0.0122676
0.0122707
0.0122738
0.012277
0.0122801
0.0122831
0.0122862
0.0122892
0.0122921
0.012295
0.0122978
0.0123004
0.012303
0.0123054
0.0123076
0.0123097
0.0123116
0.0123132
0.0123147
0.0123159
0.012317
0.0123177
0.0123183
0.0123187
0.0123188
0.0123187
0.0123185
0.012318
0.0123173
0.0123165
0.0123155
0.0123143
0.012313
0.0123115
0.0123099
0.0123081
0.0123062
0.0123041
0.0123019
0.0122995
0.012297
0.0122944
0.0122917
0.0122889
0.012286
0.0122829
0.0122799
0.0122767
0.0122735
0.0122702
0.0122669
0.0122635
0.0122601
0.0122566
0.0122531
0.0122496
0.012246
0.0122423
0.0122385
0.0122347
0.0122308
0.0122269
0.0122228
0.0122186
0.0122144
0.0122101
0.0122058
0.0122015
0.0121972
0.0121929
0.0121887
0.0121846
0.0121807
0.012177
0.0121736
0.0121704
0.0121675
0.012165
0.0121628
0.012161
0.0121595
0.0121584
0.0121577
0.0121573
0.0121572
0.0121575
0.0121581
0.012159
0.0121602
0.0121616
0.0121634
0.0121654
0.0121676
0.0121701
0.0121728
0.0121758
0.012179
0.0121824
0.012186
0.0121899
0.0121941
0.0121984
0.012203
0.0122078
0.0122128
0.0122179
0.0122231
0.0122285
0.0122339
0.0122394
0.0122449
0.0122503
0.0122556
0.0122608
0.0122658
0.0122706
0.0122753
0.0122796
0.0122837
0.0122875
0.0122911
0.0122944
0.0122974
0.0123002
0.0123028
0.0123052
0.0123074
0.0123095
0.0123114
0.0123133
0.0123151
0.0123168
0.0123186
0.0123203
0.012322
0.0123237
0.0123255
0.0123272
0.0123289
0.0123305
0.0123321
0.0123336
0.012335
0.0123362
0.0123373
0.0123382
0.0123388
0.0123392
0.0123394
0.0123393
0.012339
0.0123385
0.0123377
0.0123367
0.0123356
0.0123343
0.0123328
0.0123312
0.0123296
0.0123279
0.0123261
0.0123243
0.0123224
0.0123205
0.0123186
0.0123166
0.0123147
0.0123127
0.0123106
0.0123085
0.0123064
0.0123041
0.0123018
0.0122993
0.0122967
0.012294
0.0122911
0.012288
0.0122847
0.0122812
0.0122776
0.0122737
0.0122696
0.0122654
0.012261
0.0122564
0.0122517
0.0122469
0.012242
0.012237
0.012232
0.0122271
0.0122222
0.0122174
0.0122128
0.0122084
0.0122043
0.0122004
0.0121968
0.0121935
0.0121906
0.012188
0.0121857
0.0121837
0.012182
0.0121806
0.0121795
0.0121785
0.0121778
0.0121771
0.0121766
0.0121762
0.0121759
0.0121756
0.0121754
0.0121753
0.0121753
0.0121753
0.0121755
0.0121758
0.0121763
0.0121769
0.0121778
0.012179
0.0121804
0.0121821
0.0121841
0.0121863
0.0121889
0.0121918
0.012195
0.0121984
0.0122021
0.012206
0.0122102
0.0122146
0.0122193
0.0122241
0.0122291
0.0122342
0.0122395
0.0122448
0.0122502
0.0122556
0.012261
0.0122663
0.0122716
0.0122769
0.0122821
0.0122872
0.0122922
0.0122973
0.0123023
0.0123073
0.0123124
0.0123175
0.0123227
0.0123281
0.0123336
0.0123392
0.012345
0.0123509
0.0123569
0.012363
0.0123692
0.0123753
0.0123813
0.0123873
0.0123931
0.0123987
0.012404
0.012409
0.0124136
0.0124179
0.0124218
0.0124253
0.0124284
0.012431
0.0124333
0.0124351
0.0124365
0.0124375
0.0124382
0.0124388
0.0124391
0.0124393
0.0124394
0.0124394
0.0124394
0.0124394
0.0124393
0.0124391
0.0124389
0.0124387
0.0124383
0.0124379
0.0124374
0.0124368
0.0124362
0.0124354
0.0124346
0.0124337
0.0124326
0.0124314
0.0124302
0.0124288
0.0124273
0.0124258
0.0124241
0.0124224
0.0124206
0.0124187
0.0124168
0.0124149
0.012413
0.0124112
0.0124094
0.0124079
0.0124068
0.0124064
0.0124076
0.012411
0.0124194
0.0124268
0.0124642
0.0121975
0.0120948
0.0120735
0.0120735
0.0120735
0.0120735
0.0120735
0.0120735
0.0120735
0.0120735
0.0121481
0.0121481
)
;

boundaryField
{
    inlet
    {
        type            calculated;
        value           uniform 0;
    }
    endWall
    {
        type            calculated;
        value           uniform 0;
    }
    sideWall
    {
        type            empty;
    }
}


// ************************************************************************* //
