/*--------------------------------*- C++ -*----------------------------------*\
| =========                 |                                                 |
| \\      /  F ield         | foam-extend: Open Source CFD                    |
|  \\    /   O peration     | Version:     3.2                                |
|   \\  /    A nd           | Web:         http://www.foam-extend.org         |
|    \\/     M anipulation  | For copyright notice see file Copyright         |
\*---------------------------------------------------------------------------*/
FoamFile
{
    version     2.0;
    format      ascii;
    class       areaScalarField;
    location    "120";
    object      thetaCB;
}
// * * * * * * * * * * * * * * * * * * * * * * * * * * * * * * * * * * * * * //

dimensions      [0 0 0 0 0 0 0];

internalField   nonuniform List<scalar> 
550
(
0.0367204
0.0367204
0.0367204
0.0367204
0.0367204
0.0367204
0.0367204
0.0367204
0.0367204
0.0367204
0.0367204
0.0367204
0.0367204
0.0367204
0.0367204
0.0367204
0.0367204
0.0367204
0.0367204
0.0367204
0.0367204
0.0367204
0.0367204
0.0367204
0.0367204
0.0367204
0.0367204
0.0367204
0.0367152
0.0368202
0.0368436
0.0368654
0.0368881
0.0369016
0.0369155
0.0369285
0.0369412
0.0369532
0.0369643
0.0369744
0.0369833
0.036991
0.0369977
0.0370034
0.0370081
0.0370119
0.037015
0.0370175
0.0370195
0.0370214
0.0370233
0.0370254
0.0370277
0.0370304
0.0370334
0.0370367
0.0370401
0.0370437
0.0370475
0.0370513
0.0370551
0.037059
0.0370629
0.0370668
0.0370707
0.0370747
0.0370787
0.0370827
0.0370867
0.0370905
0.0370941
0.0370975
0.0371005
0.0371032
0.0371055
0.0371075
0.0371092
0.0371105
0.0371113
0.0371118
0.037112
0.0371121
0.0371121
0.0371122
0.0371124
0.0371128
0.0371134
0.0371143
0.0371154
0.0371168
0.0371182
0.0371197
0.037121
0.0371223
0.0371233
0.0371241
0.0371248
0.0371252
0.0371258
0.0371264
0.0371272
0.0371281
0.0371292
0.0371305
0.0371319
0.0371335
0.0371352
0.0371369
0.0371387
0.0371404
0.0371422
0.0371439
0.0371457
0.0371473
0.037149
0.0371505
0.037152
0.0371534
0.0371547
0.0371559
0.0371569
0.0371577
0.0371584
0.037159
0.0371594
0.0371597
0.0371598
0.0371598
0.0371598
0.0371596
0.0371594
0.0371591
0.0371588
0.0371584
0.0371581
0.0371578
0.0371575
0.0371572
0.0371569
0.0371566
0.0371564
0.0371561
0.0371558
0.0371554
0.037155
0.0371546
0.0371541
0.0371535
0.0371529
0.0371522
0.0371514
0.0371506
0.0371496
0.0371486
0.0371474
0.0371461
0.0371446
0.037143
0.0371413
0.0371394
0.0371374
0.0371353
0.037133
0.0371307
0.0371283
0.0371258
0.0371234
0.0371209
0.0371184
0.037116
0.0371137
0.0371115
0.0371095
0.0371076
0.037106
0.0371047
0.0371037
0.037103
0.0371028
0.0371029
0.0371034
0.0371044
0.0371058
0.0371077
0.0371099
0.0371126
0.0371156
0.037119
0.0371228
0.037127
0.0371316
0.0371365
0.0371418
0.0371474
0.0371534
0.0371598
0.0371666
0.0371736
0.037181
0.0371887
0.0371967
0.0372048
0.0372133
0.037222
0.0372307
0.0372394
0.037248
0.0372566
0.0372653
0.0372741
0.037283
0.0372921
0.0373014
0.0373107
0.0373202
0.0373296
0.0373391
0.0373485
0.0373579
0.0373671
0.0373762
0.0373852
0.0373939
0.0374024
0.0374105
0.0374182
0.0374256
0.0374324
0.0374387
0.0374443
0.0374494
0.0374539
0.0374576
0.0374607
0.0374631
0.0374649
0.0374659
0.0374663
0.0374661
0.0374653
0.0374639
0.0374619
0.0374593
0.0374563
0.0374527
0.0374487
0.0374442
0.0374392
0.0374338
0.0374279
0.0374216
0.0374148
0.0374077
0.0374001
0.0373922
0.037384
0.0373754
0.0373665
0.0373573
0.0373479
0.0373383
0.0373285
0.0373186
0.0373085
0.0372982
0.0372878
0.0372773
0.0372666
0.0372558
0.0372448
0.0372336
0.0372222
0.0372106
0.0371988
0.0371867
0.0371743
0.0371617
0.0371489
0.0371359
0.0371227
0.0371095
0.0370964
0.0370833
0.0370706
0.0370582
0.0370464
0.0370352
0.0370247
0.037015
0.0370063
0.0369986
0.0369919
0.0369864
0.0369819
0.0369786
0.0369763
0.0369751
0.0369749
0.0369758
0.0369776
0.0369803
0.0369839
0.0369883
0.0369936
0.0369997
0.0370065
0.0370141
0.0370224
0.0370314
0.0370411
0.0370515
0.0370626
0.0370744
0.037087
0.0371002
0.0371141
0.0371287
0.0371438
0.0371594
0.0371754
0.0371917
0.0372083
0.0372249
0.0372415
0.0372579
0.0372741
0.0372898
0.0373051
0.0373199
0.0373339
0.0373472
0.0373596
0.0373713
0.0373821
0.0373921
0.0374014
0.0374099
0.0374177
0.0374249
0.0374317
0.0374379
0.0374439
0.0374496
0.037455
0.0374604
0.0374656
0.0374709
0.0374761
0.0374813
0.0374866
0.0374918
0.0374969
0.037502
0.0375068
0.0375114
0.0375156
0.0375193
0.0375226
0.0375252
0.0375272
0.0375284
0.037529
0.0375288
0.0375278
0.0375262
0.0375238
0.0375209
0.0375173
0.0375133
0.0375089
0.0375042
0.0374992
0.0374939
0.0374885
0.0374829
0.0374773
0.0374715
0.0374657
0.0374597
0.0374537
0.0374477
0.0374415
0.0374351
0.0374286
0.0374218
0.0374146
0.0374072
0.0373992
0.0373909
0.037382
0.0373726
0.0373626
0.0373521
0.0373409
0.0373291
0.0373168
0.0373039
0.0372904
0.0372765
0.0372622
0.0372475
0.0372326
0.0372175
0.0372024
0.0371874
0.0371725
0.037158
0.037144
0.0371306
0.037118
0.0371062
0.0370952
0.0370853
0.0370763
0.0370684
0.0370614
0.0370555
0.0370504
0.0370462
0.0370426
0.0370397
0.0370374
0.0370355
0.0370339
0.0370326
0.0370316
0.0370309
0.0370303
0.0370299
0.0370298
0.03703
0.0370305
0.0370314
0.0370328
0.0370349
0.0370376
0.0370411
0.0370454
0.0370505
0.0370565
0.0370635
0.0370714
0.0370801
0.0370897
0.0371002
0.0371114
0.0371234
0.0371361
0.0371495
0.0371636
0.0371783
0.0371935
0.0372092
0.0372252
0.0372414
0.0372577
0.0372741
0.0372905
0.0373068
0.0373229
0.0373388
0.0373546
0.0373701
0.0373855
0.0374008
0.0374161
0.0374314
0.0374467
0.0374624
0.0374783
0.0374946
0.0375113
0.0375284
0.037546
0.037564
0.0375823
0.0376009
0.0376195
0.0376381
0.0376566
0.0376747
0.0376923
0.0377092
0.0377253
0.0377405
0.0377547
0.0377678
0.0377796
0.0377903
0.0377997
0.0378077
0.0378145
0.0378199
0.0378242
0.0378274
0.0378296
0.0378312
0.0378322
0.0378328
0.0378331
0.0378332
0.0378332
0.0378331
0.0378328
0.0378324
0.0378318
0.0378309
0.0378299
0.0378286
0.0378271
0.0378254
0.0378234
0.0378211
0.0378185
0.0378156
0.0378124
0.0378089
0.0378051
0.0378009
0.0377964
0.0377917
0.0377866
0.0377813
0.0377758
0.0377702
0.0377644
0.0377586
0.0377529
0.0377473
0.037742
0.0377373
0.0377339
0.0377328
0.0377364
0.0377468
0.0377724
0.0377948
0.0379085
0.0370973
0.0367851
0.0367204
0.0367204
0.0367204
0.0367204
0.0367204
0.0367204
0.0367204
0.0367204
0.0369471
0.0369471
)
;

boundaryField
{
    inlet
    {
        type            calculated;
        value           uniform 0;
    }
    endWall
    {
        type            calculated;
        value           uniform 0;
    }
    sideWall
    {
        type            empty;
    }
}


// ************************************************************************* //
