/*--------------------------------*- C++ -*----------------------------------*\
| =========                 |                                                 |
| \\      /  F ield         | foam-extend: Open Source CFD                    |
|  \\    /   O peration     | Version:     3.2                                |
|   \\  /    A nd           | Web:         http://www.foam-extend.org         |
|    \\/     M anipulation  | For copyright notice see file Copyright         |
\*---------------------------------------------------------------------------*/
FoamFile
{
    version     2.0;
    format      ascii;
    class       areaScalarField;
    location    "120";
    object      thetaC2B;
}
// * * * * * * * * * * * * * * * * * * * * * * * * * * * * * * * * * * * * * //

dimensions      [0 0 0 0 0 0 0];

internalField   nonuniform List<scalar> 
550
(
0.0368338
0.0368338
0.0368338
0.0368338
0.0368338
0.0368338
0.0368338
0.0368338
0.0368338
0.0368338
0.0368338
0.0368338
0.0368338
0.0368338
0.0368338
0.0368338
0.0368338
0.0368338
0.0368338
0.0368338
0.0368338
0.0368338
0.0368338
0.0368338
0.0368338
0.0368338
0.0368338
0.0368338
0.0368338
0.0369234
0.036921
0.0369249
0.0369356
0.0369512
0.0369687
0.0369868
0.0370043
0.0370208
0.037036
0.0370497
0.0370618
0.0370724
0.0370816
0.0370895
0.0370962
0.037102
0.0371069
0.037111
0.0371145
0.0371177
0.0371207
0.0371236
0.0371268
0.0371302
0.0371338
0.0371377
0.0371417
0.0371459
0.0371501
0.0371543
0.0371586
0.0371629
0.0371671
0.0371713
0.0371756
0.0371798
0.0371841
0.0371883
0.0371924
0.0371964
0.0372003
0.0372039
0.0372072
0.0372101
0.0372125
0.0372147
0.0372165
0.0372179
0.0372189
0.0372195
0.0372198
0.0372199
0.03722
0.03722
0.0372203
0.0372207
0.0372214
0.0372223
0.0372234
0.0372248
0.0372263
0.0372279
0.0372293
0.0372307
0.0372318
0.0372328
0.0372335
0.037234
0.0372345
0.0372351
0.0372357
0.0372365
0.0372375
0.0372387
0.03724
0.0372415
0.0372431
0.0372447
0.0372464
0.0372481
0.0372498
0.0372515
0.0372532
0.0372548
0.0372564
0.037258
0.0372595
0.0372609
0.0372622
0.0372634
0.0372645
0.0372654
0.0372662
0.0372668
0.0372672
0.0372676
0.0372678
0.0372679
0.0372679
0.0372678
0.0372677
0.0372675
0.0372673
0.0372671
0.0372668
0.0372666
0.0372665
0.0372663
0.0372661
0.037266
0.0372658
0.0372657
0.0372655
0.0372653
0.037265
0.0372647
0.0372644
0.037264
0.0372635
0.0372629
0.0372623
0.0372616
0.0372608
0.0372599
0.0372588
0.0372577
0.0372564
0.0372549
0.0372533
0.0372516
0.0372498
0.0372478
0.0372457
0.0372434
0.0372412
0.0372389
0.0372365
0.0372342
0.0372319
0.0372296
0.0372274
0.0372253
0.0372233
0.0372215
0.03722
0.0372188
0.0372178
0.0372173
0.0372171
0.0372173
0.0372179
0.0372189
0.0372204
0.0372223
0.0372246
0.0372273
0.0372304
0.0372339
0.0372377
0.037242
0.0372466
0.0372515
0.0372569
0.0372625
0.0372686
0.037275
0.0372818
0.0372889
0.0372964
0.0373041
0.0373121
0.0373203
0.0373287
0.0373374
0.0373462
0.0373548
0.0373633
0.0373718
0.0373804
0.0373892
0.0373981
0.0374072
0.0374164
0.0374258
0.0374352
0.0374447
0.0374542
0.0374636
0.037473
0.0374823
0.0374914
0.0375004
0.0375092
0.0375177
0.0375259
0.0375337
0.037541
0.0375479
0.0375543
0.03756
0.0375652
0.0375697
0.0375735
0.0375767
0.0375792
0.037581
0.0375821
0.0375826
0.0375824
0.0375816
0.0375803
0.0375783
0.0375758
0.0375728
0.0375693
0.0375653
0.0375609
0.0375559
0.0375505
0.0375447
0.0375384
0.0375317
0.0375246
0.0375171
0.0375092
0.037501
0.0374924
0.0374835
0.0374744
0.037465
0.0374554
0.0374457
0.0374357
0.0374256
0.0374154
0.037405
0.0373945
0.0373838
0.0373731
0.0373621
0.037351
0.0373396
0.0373281
0.0373162
0.0373042
0.0372918
0.0372792
0.0372664
0.0372533
0.0372401
0.0372269
0.0372136
0.0372005
0.0371877
0.0371753
0.0371633
0.037152
0.0371414
0.0371316
0.0371228
0.037115
0.0371082
0.0371026
0.037098
0.0370946
0.0370922
0.037091
0.0370907
0.0370915
0.0370932
0.0370959
0.0370995
0.0371039
0.0371092
0.0371153
0.0371221
0.0371296
0.0371379
0.0371469
0.0371565
0.0371669
0.037178
0.0371898
0.0372024
0.0372157
0.0372296
0.0372441
0.0372592
0.0372748
0.0372909
0.0373072
0.0373238
0.0373404
0.0373571
0.0373735
0.0373897
0.0374055
0.0374208
0.0374356
0.0374497
0.037463
0.0374754
0.0374871
0.0374979
0.0375079
0.0375172
0.0375257
0.0375335
0.0375407
0.0375474
0.0375537
0.0375596
0.0375653
0.0375708
0.0375761
0.0375813
0.0375866
0.0375918
0.037597
0.0376023
0.0376075
0.0376127
0.0376178
0.0376227
0.0376273
0.0376315
0.0376353
0.0376386
0.0376413
0.0376434
0.0376447
0.0376452
0.0376451
0.0376441
0.0376425
0.0376401
0.0376371
0.0376336
0.0376296
0.0376251
0.0376203
0.0376153
0.03761
0.0376046
0.037599
0.0375933
0.0375875
0.0375816
0.0375757
0.0375697
0.0375636
0.0375575
0.0375511
0.0375446
0.0375378
0.0375307
0.0375233
0.0375154
0.0375071
0.0374982
0.0374889
0.0374789
0.0374684
0.0374573
0.0374455
0.0374332
0.0374203
0.0374068
0.0373929
0.0373786
0.0373639
0.037349
0.0373339
0.0373187
0.0373036
0.0372887
0.0372741
0.0372601
0.0372466
0.0372339
0.037222
0.037211
0.037201
0.0371919
0.0371839
0.0371769
0.0371709
0.0371658
0.0371615
0.037158
0.0371551
0.0371528
0.0371508
0.0371493
0.037148
0.0371471
0.0371463
0.0371457
0.0371454
0.0371452
0.0371454
0.0371459
0.0371468
0.0371482
0.0371502
0.0371529
0.0371564
0.0371606
0.0371658
0.0371718
0.0371787
0.0371866
0.0371953
0.0372049
0.0372153
0.0372266
0.0372385
0.0372513
0.0372647
0.0372788
0.0372935
0.0373088
0.0373245
0.0373405
0.0373568
0.0373732
0.0373896
0.037406
0.0374223
0.0374385
0.0374545
0.0374703
0.0374859
0.0375014
0.0375167
0.037532
0.0375473
0.0375627
0.0375783
0.0375942
0.0376105
0.0376273
0.0376445
0.0376621
0.0376801
0.0376985
0.0377171
0.0377358
0.0377545
0.037773
0.0377912
0.0378089
0.037826
0.0378422
0.0378575
0.0378718
0.0378849
0.0378969
0.0379076
0.0379171
0.0379252
0.037932
0.0379375
0.0379418
0.037945
0.0379473
0.0379488
0.0379498
0.0379504
0.0379507
0.0379508
0.0379508
0.0379507
0.0379504
0.03795
0.0379494
0.0379485
0.0379475
0.0379462
0.0379447
0.0379429
0.0379409
0.0379386
0.0379361
0.0379331
0.0379299
0.0379264
0.0379225
0.0379183
0.0379139
0.0379091
0.037904
0.0378987
0.0378931
0.0378874
0.0378815
0.0378754
0.0378693
0.0378633
0.0378572
0.0378512
0.0378461
0.0378424
0.0378422
0.0378474
0.0378651
0.0378955
0.0379892
0.0379331
0.0376494
0.0368338
0.0368338
0.0368338
0.0368338
0.0368338
0.0368338
0.0368338
0.0368338
0.0368338
0.0368338
)
;

boundaryField
{
    inlet
    {
        type            calculated;
        value           uniform 0;
    }
    endWall
    {
        type            calculated;
        value           uniform 0;
    }
    sideWall
    {
        type            empty;
    }
}


// ************************************************************************* //
