/*--------------------------------*- C++ -*----------------------------------*\
| =========                 |                                                 |
| \\      /  F ield         | foam-extend: Open Source CFD                    |
|  \\    /   O peration     | Version:     3.2                                |
|   \\  /    A nd           | Web:         http://www.foam-extend.org         |
|    \\/     M anipulation  | For copyright notice see file Copyright         |
\*---------------------------------------------------------------------------*/
FoamFile
{
    version     2.0;
    format      ascii;
    class       areaScalarField;
    location    "120";
    object      thetaSS1;
}
// * * * * * * * * * * * * * * * * * * * * * * * * * * * * * * * * * * * * * //

dimensions      [0 0 0 0 0 0 0];

internalField   nonuniform List<scalar> 
550
(
0.507316
0.687781
0.901768
1.14531
1.41154
1.69046
1.97159
2.2435
2.49706
2.72428
2.9206
3.08314
3.21205
3.30839
3.37485
3.41459
3.43147
3.42918
3.41162
3.38304
3.34589
3.30223
3.25385
3.20229
3.14894
3.09491
3.04115
2.9886
2.93761
2.88831
2.84122
2.79671
2.75491
2.71569
2.6788
2.64413
2.61154
2.58095
2.55223
2.52529
2.50004
2.47639
2.45424
2.43349
2.41407
2.39587
2.37884
2.36289
2.34796
2.33399
2.32091
2.30866
2.29719
2.28643
2.27633
2.26682
2.25786
2.2494
2.2414
2.23382
2.22662
2.21978
2.21326
2.20704
2.20109
2.1954
2.18994
2.18469
2.17962
2.17472
2.16998
2.16537
2.16089
2.15653
2.15227
2.14811
2.14403
2.14003
2.1361
2.13224
2.12843
2.12469
2.12101
2.11738
2.1138
2.11028
2.1068
2.10337
2.09998
2.09663
2.09331
2.09001
2.08674
2.08349
2.08026
2.07704
2.07385
2.07068
2.06753
2.06441
2.0613
2.0582
2.0551
2.052
2.04889
2.04576
2.04261
2.03944
2.03624
2.03301
2.02975
2.02646
2.02314
2.01978
2.01639
2.01297
2.00951
2.00603
2.00252
1.99898
1.99541
1.99183
1.98822
1.9846
1.98096
1.9773
1.97363
1.96995
1.96626
1.96257
1.95887
1.95518
1.95149
1.94782
1.94415
1.9405
1.93686
1.93325
1.92966
1.92609
1.92255
1.91903
1.91555
1.91209
1.90866
1.90527
1.9019
1.89858
1.89528
1.89203
1.8888
1.88562
1.88247
1.87936
1.8763
1.87326
1.87027
1.86732
1.86442
1.86155
1.85873
1.85595
1.85322
1.85054
1.84791
1.84533
1.8428
1.84033
1.83792
1.83556
1.83325
1.83101
1.82882
1.82669
1.82462
1.82261
1.82066
1.81876
1.81692
1.81514
1.81342
1.81175
1.81013
1.80856
1.80705
1.80559
1.80418
1.80281
1.80149
1.80021
1.79898
1.79779
1.79665
1.79554
1.79448
1.79345
1.79246
1.79151
1.7906
1.78971
1.78886
1.78804
1.78724
1.78647
1.78572
1.78496
1.78421
1.78345
1.78268
1.7819
1.78111
1.78031
1.7795
1.77868
1.77785
1.777
1.77614
1.77527
1.77438
1.77348
1.77257
1.77165
1.77071
1.76976
1.76879
1.76781
1.76682
1.76581
1.76478
1.76374
1.76269
1.76162
1.76053
1.75943
1.75832
1.7572
1.75607
1.75492
1.75377
1.75261
1.75145
1.75028
1.74911
1.74793
1.74676
1.74558
1.7444
1.74322
1.74204
1.74085
1.73968
1.7385
1.73732
1.73614
1.73497
1.7338
1.73264
1.73147
1.73032
1.72917
1.72803
1.7269
1.72579
1.72468
1.72359
1.72251
1.72145
1.7204
1.71937
1.71836
1.71737
1.71639
1.71543
1.71449
1.71356
1.71264
1.71175
1.71086
1.70999
1.70913
1.70829
1.70746
1.70664
1.70583
1.70504
1.70427
1.70351
1.70277
1.70205
1.70135
1.70066
1.69999
1.69935
1.69872
1.69811
1.69751
1.69694
1.69639
1.69585
1.69534
1.69485
1.69438
1.69393
1.69351
1.6931
1.69271
1.69235
1.692
1.69167
1.69136
1.69107
1.6908
1.69055
1.69032
1.6901
1.6899
1.68971
1.68952
1.68935
1.68918
1.68901
1.68883
1.68864
1.68844
1.68822
1.68798
1.68771
1.6874
1.68706
1.68669
1.68627
1.6858
1.68529
1.68474
1.68414
1.68349
1.68279
1.68205
1.68128
1.68046
1.67961
1.67872
1.67781
1.67688
1.67592
1.67494
1.67395
1.67294
1.67192
1.67088
1.66984
1.66879
1.66772
1.66665
1.66556
1.66447
1.66336
1.66223
1.66109
1.65993
1.65876
1.65756
1.65635
1.65512
1.65387
1.6526
1.65131
1.64999
1.64866
1.64731
1.64594
1.64456
1.64316
1.64174
1.64031
1.63886
1.63741
1.63594
1.63446
1.63298
1.63149
1.63
1.6285
1.627
1.6255
1.624
1.62249
1.62098
1.61947
1.61795
1.61644
1.61492
1.6134
1.61188
1.61036
1.60884
1.60733
1.60581
1.6043
1.60279
1.60129
1.59979
1.5983
1.59683
1.59536
1.59391
1.59248
1.59107
1.58968
1.58832
1.58698
1.58566
1.58437
1.5831
1.58186
1.58063
1.57943
1.57825
1.57708
1.57593
1.5748
1.57368
1.57257
1.57147
1.57039
1.56931
1.56825
1.5672
1.56617
1.56514
1.56414
1.56314
1.56217
1.56121
1.56028
1.55936
1.55847
1.5576
1.55675
1.55593
1.55512
1.55434
1.55357
1.55282
1.55209
1.55137
1.55067
1.54998
1.5493
1.54863
1.54798
1.54733
1.54668
1.54603
1.54538
1.54472
1.54406
1.54339
1.5427
1.54201
1.5413
1.54058
1.53985
1.53912
1.53837
1.53761
1.53685
1.53608
1.53531
1.53454
1.53376
1.53298
1.53221
1.53143
1.53065
1.52987
1.52908
1.52829
1.52748
1.52667
1.52585
1.52501
1.52416
1.52329
1.52239
1.52148
1.52054
1.51957
1.51857
1.51754
1.51649
1.5154
1.51428
1.51314
1.51198
1.51079
1.50958
1.50836
1.50712
1.50588
1.50462
1.50336
1.50209
1.50081
1.49952
1.49822
1.49691
1.49559
1.49426
1.49291
1.49155
1.49018
1.48879
1.48739
1.48596
1.48451
1.48304
1.48156
1.48005
1.47854
1.477
1.47547
1.4739
1.47234
1.47074
1.46913
1.46747
1.46578
1.46397
1.46209
1.45993
1.45762
1.45471
1.45146
1.44702
1.44192
1.43433
1.42647
1.40672
1.37261
1.33015
1.27776
1.20037
1.0961
0.95352
0.765484
0.482353
0.229353
0.29402
0.500066
)
;

boundaryField
{
    inlet
    {
        type            calculated;
        value           uniform 0;
    }
    endWall
    {
        type            calculated;
        value           uniform 0;
    }
    sideWall
    {
        type            empty;
    }
}


// ************************************************************************* //
