/*--------------------------------*- C++ -*----------------------------------*\
| =========                 |                                                 |
| \\      /  F ield         | foam-extend: Open Source CFD                    |
|  \\    /   O peration     | Version:     3.2                                |
|   \\  /    A nd           | Web:         http://www.foam-extend.org         |
|    \\/     M anipulation  | For copyright notice see file Copyright         |
\*---------------------------------------------------------------------------*/
FoamFile
{
    version     2.0;
    format      ascii;
    class       areaScalarField;
    location    "120";
    object      thetaC2SS2;
}
// * * * * * * * * * * * * * * * * * * * * * * * * * * * * * * * * * * * * * //

dimensions      [0 0 0 0 0 0 0];

internalField   nonuniform List<scalar> 
550
(
0.127601
0.127601
0.127601
0.127601
0.127601
0.127601
0.127601
0.127601
0.127601
0.127601
0.127601
0.127601
0.127601
0.127601
0.127601
0.127601
0.127601
0.127601
0.127601
0.127601
0.127601
0.127601
0.127601
0.127601
0.127601
0.127601
0.127601
0.127601
0.127601
0.127911
0.127903
0.127916
0.127954
0.128008
0.128068
0.128131
0.128191
0.128249
0.128301
0.128349
0.128391
0.128428
0.128459
0.128487
0.12851
0.12853
0.128547
0.128561
0.128573
0.128584
0.128595
0.128605
0.128616
0.128628
0.12864
0.128654
0.128668
0.128682
0.128697
0.128711
0.128726
0.128741
0.128756
0.12877
0.128785
0.1288
0.128814
0.128829
0.128843
0.128857
0.12887
0.128883
0.128894
0.128904
0.128913
0.12892
0.128927
0.128932
0.128935
0.128937
0.128938
0.128938
0.128939
0.128939
0.12894
0.128941
0.128944
0.128947
0.128951
0.128955
0.128961
0.128966
0.128971
0.128976
0.12898
0.128983
0.128986
0.128987
0.128989
0.128991
0.128993
0.128996
0.128999
0.129003
0.129008
0.129013
0.129019
0.129024
0.12903
0.129036
0.129042
0.129048
0.129054
0.129059
0.129065
0.12907
0.129076
0.129081
0.129085
0.129089
0.129093
0.129096
0.129099
0.129101
0.129102
0.129104
0.129104
0.129105
0.129105
0.129105
0.129104
0.129103
0.129103
0.129102
0.129101
0.1291
0.1291
0.129099
0.129099
0.129098
0.129098
0.129097
0.129096
0.129096
0.129095
0.129094
0.129093
0.129091
0.129089
0.129087
0.129085
0.129083
0.12908
0.129077
0.129073
0.129069
0.129065
0.12906
0.129054
0.129048
0.129042
0.129035
0.129028
0.12902
0.129012
0.129004
0.128996
0.128988
0.12898
0.128972
0.128964
0.128957
0.12895
0.128944
0.128939
0.128935
0.128931
0.128929
0.128929
0.128929
0.128931
0.128935
0.12894
0.128947
0.128955
0.128964
0.128975
0.128987
0.129
0.129015
0.129031
0.129048
0.129066
0.129086
0.129107
0.129129
0.129153
0.129178
0.129203
0.12923
0.129258
0.129286
0.129315
0.129345
0.129376
0.129406
0.129435
0.129465
0.129495
0.129525
0.129556
0.129587
0.129619
0.129652
0.129684
0.129717
0.12975
0.129783
0.129815
0.129847
0.129879
0.12991
0.129941
0.12997
0.129998
0.130025
0.130051
0.130075
0.130097
0.130117
0.130135
0.13015
0.130163
0.130174
0.130183
0.130189
0.130193
0.130195
0.130194
0.130192
0.130187
0.13018
0.130171
0.130161
0.130149
0.130135
0.13012
0.130103
0.130084
0.130064
0.130042
0.130019
0.129994
0.129968
0.129941
0.129912
0.129882
0.129852
0.12982
0.129787
0.129754
0.129721
0.129686
0.129651
0.129616
0.12958
0.129543
0.129506
0.129469
0.129431
0.129392
0.129353
0.129313
0.129272
0.12923
0.129188
0.129144
0.129099
0.129054
0.129009
0.128963
0.128917
0.128871
0.128827
0.128784
0.128742
0.128703
0.128666
0.128633
0.128602
0.128575
0.128552
0.128532
0.128516
0.128504
0.128496
0.128492
0.128491
0.128494
0.1285
0.128509
0.128521
0.128537
0.128555
0.128576
0.1286
0.128626
0.128654
0.128685
0.128719
0.128755
0.128793
0.128834
0.128878
0.128924
0.128972
0.129022
0.129075
0.129129
0.129184
0.129241
0.129298
0.129356
0.129414
0.129471
0.129527
0.129581
0.129635
0.129686
0.129734
0.12978
0.129824
0.129864
0.129902
0.129936
0.129968
0.129998
0.130025
0.13005
0.130073
0.130095
0.130115
0.130135
0.130154
0.130172
0.130191
0.130209
0.130227
0.130245
0.130263
0.130281
0.130299
0.130317
0.130334
0.13035
0.130364
0.130378
0.130389
0.130398
0.130405
0.13041
0.130412
0.130411
0.130408
0.130402
0.130394
0.130384
0.130372
0.130358
0.130342
0.130326
0.130308
0.13029
0.130271
0.130252
0.130232
0.130212
0.130192
0.130171
0.13015
0.130129
0.130108
0.130086
0.130063
0.13004
0.130015
0.129989
0.129962
0.129933
0.129903
0.12987
0.129836
0.129799
0.129761
0.12972
0.129677
0.129633
0.129586
0.129538
0.129488
0.129437
0.129386
0.129333
0.129281
0.129228
0.129177
0.129126
0.129078
0.129031
0.128987
0.128946
0.128908
0.128873
0.128842
0.128814
0.12879
0.128769
0.128751
0.128736
0.128724
0.128714
0.128706
0.128699
0.128694
0.12869
0.128686
0.128683
0.128681
0.12868
0.12868
0.12868
0.128682
0.128685
0.12869
0.128697
0.128706
0.128718
0.128733
0.128751
0.128772
0.128796
0.128823
0.128853
0.128886
0.128923
0.128961
0.129003
0.129047
0.129094
0.129143
0.129193
0.129246
0.129301
0.129356
0.129413
0.129469
0.129526
0.129583
0.12964
0.129696
0.129751
0.129806
0.12986
0.129914
0.129967
0.13002
0.130073
0.130126
0.13018
0.130235
0.130292
0.13035
0.130409
0.13047
0.130533
0.130596
0.130661
0.130726
0.13079
0.130855
0.130918
0.130979
0.131038
0.131094
0.131147
0.131197
0.131242
0.131284
0.131321
0.131354
0.131382
0.131405
0.131425
0.131439
0.13145
0.131458
0.131464
0.131467
0.131469
0.13147
0.131471
0.131471
0.13147
0.131469
0.131468
0.131465
0.131463
0.131459
0.131454
0.131449
0.131443
0.131436
0.131428
0.131419
0.131409
0.131398
0.131386
0.131372
0.131358
0.131342
0.131326
0.131308
0.13129
0.131271
0.131251
0.13123
0.131209
0.131188
0.131167
0.131146
0.131125
0.131108
0.131095
0.131094
0.131112
0.131174
0.131279
0.131604
0.131409
0.130426
0.127601
0.127601
0.127601
0.127601
0.127601
0.127601
0.127601
0.127601
0.127601
0.127601
)
;

boundaryField
{
    inlet
    {
        type            calculated;
        value           uniform 0;
    }
    endWall
    {
        type            calculated;
        value           uniform 0;
    }
    sideWall
    {
        type            empty;
    }
}


// ************************************************************************* //
