/*--------------------------------*- C++ -*----------------------------------*\
| =========                 |                                                 |
| \\      /  F ield         | foam-extend: Open Source CFD                    |
|  \\    /   O peration     | Version:     3.2                                |
|   \\  /    A nd           | Web:         http://www.foam-extend.org         |
|    \\/     M anipulation  | For copyright notice see file Copyright         |
\*---------------------------------------------------------------------------*/
FoamFile
{
    version     2.0;
    format      ascii;
    class       areaVectorField;
    location    "120";
    object      Ub2;
}
// * * * * * * * * * * * * * * * * * * * * * * * * * * * * * * * * * * * * * //

dimensions      [0 1 -1 0 0 0 0];

internalField   nonuniform List<vector> 
550
(
(0 0 0)
(0 0 0)
(0 0 0)
(0 0 0)
(0.0402497 -1.11879e-23 -8.04994e-05)
(0.0511921 0 -0.000102384)
(0.0613399 -1.98024e-29 -0.00012268)
(0.0704866 1.91667e-29 -0.000140973)
(0.078528 -2.09211e-23 -0.000157056)
(0.0853935 2.14992e-29 -0.000170787)
(0.0910979 2.37472e-29 -0.000182196)
(0.0956773 0 -0.000191355)
(0.0992241 -2.44131e-23 -0.000198448)
(0.101828 3.10608e-29 -0.000203657)
(0.103603 0 -0.000207206)
(0.104656 -2.21447e-23 -0.000209312)
(0.105101 2.05481e-23 -0.000210202)
(0.105041 -1.89333e-23 -0.000210082)
(0.104577 -1.74928e-23 -0.000209155)
(0.103821 0 -0.000207641)
(0.102832 -1.50826e-23 -0.000205664)
(0.101663 1.40914e-23 -0.000203327)
(0.100359 0 -0.000200718)
(0.0989585 -1.21883e-23 -0.000197917)
(0.0974971 0 -0.000194994)
(0.0960047 0 -0.000192023)
(0.0945067 -9.46432e-24 -0.000189013)
(0.0930294 0 -0.000186042)
(0.0915891 0 -0.000191598)
(0.0900709 -7.95506e-24 -0.000163589)
(0.088689 3.47877e-24 -0.000120858)
(0.0873727 -3.18257e-24 -9.13359e-05)
(0.0861248 2.9529e-24 -7.20054e-05)
(0.0849533 0 -7.41956e-05)
(0.0838427 0 -7.83716e-05)
(0.0827921 -2.76169e-24 -8.47583e-05)
(0.0817979 2.63854e-24 -9.06303e-05)
(0.0808587 2.51213e-24 -9.59311e-05)
(0.0799723 0 -0.000100518)
(0.0791369 4.3596e-30 -0.000104512)
(0.0783503 2.08784e-24 -0.000107904)
(0.0776104 0 -0.000110711)
(0.0769149 8.01659e-30 -0.000113035)
(0.0762614 -7.95279e-30 -0.000115008)
(0.0756475 3.0692e-24 -0.000116769)
(0.075071 0 -0.000118412)
(0.0745296 -2.55873e-24 -0.000119908)
(0.0740215 8.28069e-30 -0.000121206)
(0.0735446 -2.05495e-24 -0.000122289)
(0.0730969 0 -0.000123146)
(0.0726765 8.0688e-30 -0.000123813)
(0.0722815 -8.00782e-30 -0.000124327)
(0.0719101 1.24816e-24 -0.000124695)
(0.0715605 0 -0.00012495)
(0.0712309 -9.62242e-25 -0.000125138)
(0.0709198 8.4672e-25 -0.000125315)
(0.0706254 7.32646e-30 -0.000125501)
(0.0703467 0 -0.00012565)
(0.0700822 0 -0.000125746)
(0.0698309 5.60894e-25 -0.000125813)
(0.0695918 0 -0.000125871)
(0.0693637 -6.60704e-30 -0.000125929)
(0.069146 0 -0.000125971)
(0.0689378 0 -0.000125975)
(0.0687384 -4.19314e-25 -0.000125932)
(0.0685469 -4.12232e-25 -0.000125862)
(0.0683628 4.05525e-25 -0.000125782)
(0.0681853 -5.67779e-30 -0.000125702)
(0.0680138 3.93018e-25 -0.000125626)
(0.0678479 -3.87151e-25 -0.00012556)
(0.0676871 -3.80534e-25 -0.000125507)
(0.067531 -3.75222e-25 -0.000125475)
(0.0673791 0 -0.000125465)
(0.0672314 -3.58378e-25 -0.000125433)
(0.0670874 3.51462e-25 -0.000125346)
(0.0669468 3.46596e-25 -0.000125212)
(0.0668093 -3.36476e-25 -0.000125084)
(0.0666747 -4.7275e-30 -0.000125002)
(0.0665426 -3.05942e-25 -0.000124924)
(0.066413 0 -0.000124806)
(0.0662856 4.15959e-30 -0.000124655)
(0.0661602 0 -0.000124485)
(0.0660368 2.97461e-25 -0.000124299)
(0.065915 -2.93716e-25 -0.000124096)
(0.0657948 0 -0.000123883)
(0.065676 0 -0.000123685)
(0.0655585 0 -0.000123506)
(0.0654421 -2.83794e-25 -0.000123339)
(0.0653269 0 -0.000123146)
(0.0652126 -2.79446e-25 -0.000122934)
(0.0650992 0 -0.000122773)
(0.0649865 2.88999e-30 -0.000122668)
(0.0648746 0 -0.000122577)
(0.0647634 2.91088e-30 -0.000122483)
(0.064653 -2.92225e-30 -0.0001224)
(0.0645433 0 -0.000122348)
(0.0644345 2.67882e-25 -0.000122285)
(0.0643265 2.31558e-25 -0.000122119)
(0.0642192 -2.05706e-25 -0.000121853)
(0.0641125 0 -0.000121542)
(0.0640061 0 -0.000121206)
(0.0638997 -2.79692e-30 -0.000120862)
(0.0637931 1.9384e-25 -0.000120517)
(0.0636862 0 -0.00012018)
(0.0635786 -1.96585e-25 -0.000119848)
(0.0634703 -1.99146e-25 -0.000119527)
(0.0633611 0 -0.000119221)
(0.0632509 2.05779e-25 -0.000118927)
(0.0631397 2.10825e-25 -0.000118642)
(0.0630273 -2.77373e-30 -0.000118376)
(0.0629139 0 -0.000118102)
(0.0627994 0 -0.000117787)
(0.0626836 2.3329e-25 -0.000117492)
(0.0625666 0 -0.000117251)
(0.0624484 -2.47513e-25 -0.00011702)
(0.0623291 -2.55807e-25 -0.000116788)
(0.0622087 -2.63589e-25 -0.000116567)
(0.0620873 2.732e-30 -0.000116358)
(0.0619648 0 -0.00011616)
(0.0618415 2.86984e-25 -0.00011597)
(0.0617174 2.70672e-30 -0.000115788)
(0.0615926 2.68989e-30 -0.000115608)
(0.0614671 3.11827e-25 -0.000115429)
(0.061341 3.20171e-25 -0.00011525)
(0.0612144 -3.28441e-25 -0.000115072)
(0.0610872 0 -0.000114896)
(0.0609597 3.44339e-25 -0.000114723)
(0.0608317 3.51948e-25 -0.000114562)
(0.0607035 -3.59166e-25 -0.000114411)
(0.060575 -2.58512e-30 -0.000114265)
(0.0604465 0 -0.000114119)
(0.060318 2.56347e-30 -0.000113978)
(0.0601895 0 -0.000113842)
(0.0600613 -2.54312e-30 -0.000113714)
(0.0599333 3.8778e-25 -0.00011359)
(0.0598057 -3.90359e-25 -0.000113473)
(0.0596787 0 -0.000113363)
(0.0595521 0 -0.000113254)
(0.0594263 -3.95352e-25 -0.000113143)
(0.0593012 -3.96166e-25 -0.000113034)
(0.0591768 3.9679e-25 -0.000112934)
(0.0590533 3.97073e-25 -0.000112838)
(0.0589307 -3.97002e-25 -0.000112746)
(0.0588091 -2.39743e-30 -0.000112655)
(0.0586885 0 -0.000112566)
(0.0585689 3.94384e-25 -0.000112477)
(0.0584505 3.92964e-25 -0.00011239)
(0.0583332 0 -0.000112309)
(0.0582172 0 -0.000112231)
(0.0581023 -3.87591e-25 -0.000112151)
(0.0579888 2.22209e-30 -0.000112072)
(0.0578765 3.83153e-25 -0.000112)
(0.0577656 2.16957e-30 -0.000111933)
(0.057656 0 -0.000111871)
(0.0575479 0 -0.000111811)
(0.0574412 0 -0.000111752)
(0.057336 0 -0.000111693)
(0.0572324 -3.6954e-25 -0.000111636)
(0.0571302 0 -0.000111586)
(0.0570297 0 -0.000111542)
(0.0569307 0 -0.000111503)
(0.0568335 0 -0.000111464)
(0.0567379 0 -0.000111426)
(0.0566442 0 -0.000111386)
(0.0565522 0 -0.00011135)
(0.0564621 3.41518e-25 -0.000111316)
(0.0563738 3.36714e-25 -0.000111282)
(0.0562875 1.83665e-30 -0.000111248)
(0.056203 -1.81785e-30 -0.000111212)
(0.0561205 -1.80111e-30 -0.00011118)
(0.0560398 -3.15415e-25 -0.00011114)
(0.0559611 -3.09391e-25 -0.000111093)
(0.0558843 -1.73565e-30 -0.000111035)
(0.0558094 0 -0.000110976)
(0.0557362 0 -0.000110915)
(0.0556649 -2.82072e-25 -0.000110856)
(0.0555953 1.6641e-30 -0.000110789)
(0.0555273 0 -0.00011072)
(0.055461 -1.63381e-30 -0.000110653)
(0.0553964 -2.4989e-25 -0.000110584)
(0.0553333 -2.41691e-25 -0.000110519)
(0.0552717 2.33289e-25 -0.000110451)
(0.0552116 -2.24801e-25 -0.000110382)
(0.055153 -2.16272e-25 -0.000110319)
(0.0550958 0 -0.000110252)
(0.0550399 -1.98877e-25 -0.000110188)
(0.0549855 -1.90274e-25 -0.000110122)
(0.0549323 0 -0.000110054)
(0.0548803 -1.73394e-25 -0.000109989)
(0.0548296 0 -0.000109924)
(0.0547802 0 -0.000109858)
(0.0547319 -1.41578e-30 -0.000109796)
(0.0546847 0 -0.000109727)
(0.0546387 -1.38281e-30 -0.000109658)
(0.0545938 0 -0.000109589)
(0.0545498 0 -0.000109523)
(0.0545069 0 -0.000109459)
(0.054465 0 -0.000109396)
(0.054424 0 -0.000109334)
(0.0543839 -9.20942e-26 -0.000109272)
(0.0543447 8.59066e-26 -0.000109204)
(0.0543063 0 -0.000109124)
(0.0542686 7.38015e-26 -0.00010903)
(0.0542315 -1.2315e-30 -0.000108921)
(0.054195 1.16684e-30 -0.000108802)
(0.0541586 0 -0.000108656)
(0.0541223 7.555e-26 -0.00010848)
(0.0540857 1.04803e-30 -0.000108299)
(0.0540488 7.95186e-26 -0.000108144)
(0.0540113 -8.15754e-26 -0.000108005)
(0.0539733 1.00504e-30 -0.000107875)
(0.0539347 0 -0.000107756)
(0.0538956 0 -0.000107642)
(0.0538559 -9.4446e-31 -0.000107536)
(0.0538157 8.91328e-26 -0.000107436)
(0.053775 9.05551e-26 -0.000107338)
(0.0537339 -8.76063e-31 -0.000107243)
(0.0536923 -9.37784e-26 -0.000107149)
(0.0536503 0 -0.000107062)
(0.0536079 -9.80863e-26 -0.000106977)
(0.0535652 0 -0.000106897)
(0.0535222 -1.03649e-25 -0.000106821)
(0.0534789 0 -0.00010675)
(0.0534354 -1.10462e-25 -0.000106685)
(0.0533916 0 -0.000106626)
(0.0533478 -1.18011e-25 -0.000106569)
(0.0533038 0 -0.00010652)
(0.0532598 0 -0.000106474)
(0.0532157 0 -0.000106431)
(0.0531717 0 -0.000106391)
(0.0531277 0 -0.000106354)
(0.0530838 -1.39897e-25 -0.000106317)
(0.0530401 8.61191e-31 -0.000106285)
(0.0529965 8.74467e-31 -0.000106253)
(0.0529531 -1.49033e-25 -0.000106225)
(0.05291 0 -0.000106194)
(0.0528672 0 -0.000106162)
(0.0528247 0 -0.000106133)
(0.0527824 1.56084e-25 -0.000106104)
(0.0527406 -9.2569e-31 -0.000106077)
(0.0526991 -1.57741e-25 -0.000106047)
(0.052658 -9.29267e-31 -0.000106018)
(0.0526174 0 -0.000105987)
(0.0525771 0 -0.000105956)
(0.0525372 -9.23426e-31 -0.00010593)
(0.0524978 0 -0.000105902)
(0.0524588 1.59936e-25 -0.000105875)
(0.0524203 -9.07292e-31 -0.00010585)
(0.0523822 0 -0.000105826)
(0.0523445 0 -0.0001058)
(0.0523073 -1.61608e-25 -0.00010578)
(0.0522706 0 -0.000105757)
(0.0522343 -1.62883e-25 -0.00010573)
(0.0521985 0 -0.000105704)
(0.0521631 0 -0.000105674)
(0.0521282 0 -0.000105647)
(0.0520938 0 -0.000105618)
(0.0520598 8.7687e-31 -0.000105592)
(0.0520263 0 -0.000105562)
(0.0519933 -1.66193e-25 -0.000105531)
(0.0519608 0 -0.000105509)
(0.0519289 0 -0.00010549)
(0.0518975 0 -0.000105469)
(0.0518668 -8.93505e-31 -0.000105448)
(0.0518367 0 -0.000105439)
(0.0518073 1.62028e-25 -0.000105439)
(0.0517785 0 -0.000105439)
(0.0517506 0 -0.000105444)
(0.0517234 0 -0.000105449)
(0.051697 -9.0292e-31 -0.000105456)
(0.0516714 0 -0.000105464)
(0.0516466 -1.46128e-25 -0.000105474)
(0.0516227 0 -0.000105485)
(0.0515996 0 -0.000105494)
(0.0515774 0 -0.0001055)
(0.051556 0 -0.000105504)
(0.0515354 0 -0.000105498)
(0.0515155 0 -0.000105476)
(0.0514964 0 -0.000105442)
(0.0514778 0 -0.000105407)
(0.0514598 1.12463e-25 -0.000105358)
(0.0514423 0 -0.000105293)
(0.0514251 -6.33277e-31 -0.000105232)
(0.0514082 0 -0.000105167)
(0.0513913 -5.86322e-31 -0.000105089)
(0.0513746 0 -0.000105003)
(0.0513578 9.87212e-26 -0.000104908)
(0.0513409 0 -0.000104805)
(0.0513237 0 -0.0001047)
(0.0513063 9.39602e-26 -0.00010459)
(0.0512886 -9.27724e-26 -0.000104478)
(0.0512705 0 -0.000104364)
(0.051252 0 -0.000104254)
(0.051233 0 -0.000104147)
(0.0512136 0 -0.000104045)
(0.0511937 4.51358e-31 -0.000103945)
(0.0511735 8.69388e-26 -0.000103849)
(0.0511529 0 -0.000103731)
(0.051132 0 -0.000103595)
(0.051111 0 -0.00010351)
(0.0510898 -4.60133e-31 -0.000103454)
(0.0510685 -7.86982e-26 -0.000103383)
(0.0510471 0 -0.00010331)
(0.0510256 -7.43051e-26 -0.000103235)
(0.0510041 0 -0.000103159)
(0.0509826 6.95828e-26 -0.000103083)
(0.0509611 -6.71093e-26 -0.000103004)
(0.0509396 0 -0.000102921)
(0.050918 6.17967e-26 -0.00010283)
(0.0508965 0 -0.000102742)
(0.0508749 0 -0.000102655)
(0.0508533 -3.98852e-31 -0.000102563)
(0.0508317 0 -0.000102473)
(0.05081 0 -0.000102394)
(0.0507883 -4.49135e-26 -0.000102318)
(0.0507663 -3.81175e-31 -0.000102238)
(0.0507443 0 -0.000102158)
(0.050722 3.73061e-26 -0.000102077)
(0.0506994 0 -0.000101999)
(0.0506766 -3.34544e-26 -0.000101924)
(0.0506534 0 -0.000101848)
(0.0506298 0 -0.000101777)
(0.0506057 -3.15597e-26 -0.00010171)
(0.0505812 0 -0.000101641)
(0.0505561 -3.4846e-26 -0.000101575)
(0.0505304 0 -0.000101509)
(0.0505041 0 -0.00010144)
(0.050477 0 -0.000101373)
(0.0504493 -4.49066e-26 -0.000101305)
(0.0504207 0 -0.00010124)
(0.0503914 5.12427e-26 -0.000101169)
(0.0503612 0 -0.000101089)
(0.0503301 0 -0.000101005)
(0.0502982 0 -0.000100917)
(0.0502653 0 -0.000100824)
(0.0502315 0 -0.000100729)
(0.0501967 0 -0.000100629)
(0.0501609 8.18418e-26 -0.000100527)
(0.0501242 0 -0.000100424)
(0.0500866 3.9479e-31 -0.00010032)
(0.0500481 0 -0.000100215)
(0.0500088 -4.13047e-31 -0.000100109)
(0.0499687 -1.00896e-25 -0.000100005)
(0.0499278 0 -9.9898e-05)
(0.0498863 0 -9.97908e-05)
(0.0498441 0 -9.96838e-05)
(0.0498012 0 -9.95784e-05)
(0.0497578 -1.15848e-25 -9.94806e-05)
(0.0497139 0 -9.93883e-05)
(0.0496695 0 -9.93034e-05)
(0.0496248 -4.80335e-31 -9.92203e-05)
(0.0495797 0 -9.91433e-05)
(0.0495344 0 -9.90719e-05)
(0.0494888 0 -9.90083e-05)
(0.0494432 1.34219e-25 -9.89477e-05)
(0.0493974 -5.33881e-31 -9.88866e-05)
(0.0493516 -1.39705e-25 -9.88262e-05)
(0.0493057 0 -9.87697e-05)
(0.0492598 1.45455e-25 -9.87163e-05)
(0.0492139 -1.48213e-25 -9.86621e-05)
(0.049168 0 -9.86048e-05)
(0.0491222 0 -9.85422e-05)
(0.0490765 1.55609e-25 -9.84778e-05)
(0.0490307 0 -9.84029e-05)
(0.0489849 0 -9.83176e-05)
(0.0489391 0 -9.82244e-05)
(0.0488931 6.78964e-31 -9.8125e-05)
(0.0488468 0 -9.80199e-05)
(0.0488003 0 -9.79147e-05)
(0.0487535 0 -9.78057e-05)
(0.0487062 0 -9.76947e-05)
(0.0486586 7.12757e-31 -9.75824e-05)
(0.0486106 0 -9.74708e-05)
(0.0485622 -7.20903e-31 -9.73617e-05)
(0.0485133 -1.76046e-25 -9.72551e-05)
(0.0484641 0 -9.7147e-05)
(0.0484144 7.35747e-31 -9.70455e-05)
(0.0483645 1.80257e-25 -9.69492e-05)
(0.0483142 0 -9.68575e-05)
(0.0482637 0 -9.67687e-05)
(0.048213 1.84014e-25 -9.6689e-05)
(0.0481623 1.85201e-25 -9.66162e-05)
(0.0481115 0 -9.65454e-05)
(0.0480608 0 -9.64818e-05)
(0.0480103 7.58778e-31 -9.64237e-05)
(0.0479599 7.57793e-31 -9.6367e-05)
(0.0479098 -1.91666e-25 -9.63132e-05)
(0.04786 0 -9.62617e-05)
(0.0478106 0 -9.62112e-05)
(0.0477616 0 -9.61666e-05)
(0.047713 0 -9.61258e-05)
(0.0476649 0 -9.60856e-05)
(0.0476174 -2.01837e-25 -9.60456e-05)
(0.0475704 -2.03737e-25 -9.60043e-05)
(0.0475241 0 -9.59594e-05)
(0.0474783 -2.07774e-25 -9.59148e-05)
(0.0474331 0 -9.58637e-05)
(0.0473885 0 -9.58114e-05)
(0.0473445 2.12246e-25 -9.57553e-05)
(0.047301 0 -9.5696e-05)
(0.047258 -2.13587e-25 -9.56346e-05)
(0.0472156 -2.1347e-25 -9.55686e-05)
(0.0471736 8.33976e-31 -9.54952e-05)
(0.0471321 8.41569e-31 -9.54149e-05)
(0.047091 2.09034e-25 -9.53268e-05)
(0.0470502 2.06249e-25 -9.52344e-05)
(0.0470097 0 -9.51356e-05)
(0.0469695 1.99031e-25 -9.50311e-05)
(0.0469294 0 -9.49186e-05)
(0.0468895 8.13817e-31 -9.47969e-05)
(0.0468497 -7.97059e-31 -9.46787e-05)
(0.0468098 -7.79436e-31 -9.45684e-05)
(0.04677 0 -9.44576e-05)
(0.04673 0 -9.43451e-05)
(0.0466898 1.65838e-25 -9.42338e-05)
(0.0466495 -6.80248e-31 -9.41257e-05)
(0.046609 0 -9.40222e-05)
(0.0465682 1.55534e-25 -9.39264e-05)
(0.0465273 1.53133e-25 -9.38369e-05)
(0.0464862 1.51185e-25 -9.37531e-05)
(0.0464451 0 -9.36745e-05)
(0.0464039 1.48284e-25 -9.35996e-05)
(0.0463627 0 -9.35279e-05)
(0.0463216 5.91811e-31 -9.34566e-05)
(0.0462806 1.45025e-25 -9.33853e-05)
(0.0462398 -1.43905e-25 -9.33142e-05)
(0.0461993 0 -9.32425e-05)
(0.046159 0 -9.31675e-05)
(0.0461189 -5.97847e-31 -9.30913e-05)
(0.0460792 0 -9.30135e-05)
(0.0460397 0 -9.29299e-05)
(0.0460005 1.32545e-25 -9.28404e-05)
(0.0459615 -1.29567e-25 -9.27452e-05)
(0.0459227 0 -9.26477e-05)
(0.045884 -1.22562e-25 -9.25462e-05)
(0.0458455 0 -9.24421e-05)
(0.045807 1.1436e-25 -9.23351e-05)
(0.0457685 -1.09946e-25 -9.22272e-05)
(0.0457301 0 -9.21171e-05)
(0.0456916 0 -9.20062e-05)
(0.0456529 0 -9.18958e-05)
(0.0456142 0 -9.17879e-05)
(0.0455752 0 -9.16797e-05)
(0.045536 8.50059e-26 -9.15743e-05)
(0.0454966 4.81822e-31 -9.14687e-05)
(0.045457 0 -9.13666e-05)
(0.0454172 4.5303e-31 -9.12609e-05)
(0.0453771 -7.10054e-26 -9.11591e-05)
(0.0453368 -6.81292e-26 -9.10549e-05)
(0.0452962 -4.03858e-31 -9.09543e-05)
(0.0452554 -6.3767e-26 -9.08508e-05)
(0.0452142 3.7137e-31 -9.07537e-05)
(0.0451728 6.1682e-26 -9.06569e-05)
(0.045131 3.46876e-31 -9.0565e-05)
(0.0450888 0 -9.04734e-05)
(0.0450463 0 -9.03865e-05)
(0.0450034 0 -9.02979e-05)
(0.0449602 -6.46487e-26 -9.02124e-05)
(0.0449167 0 -9.01265e-05)
(0.044873 0 -9.00413e-05)
(0.0448289 0 -8.9954e-05)
(0.0447846 0 -8.98688e-05)
(0.04474 0 -8.97741e-05)
(0.0446952 0 -8.96795e-05)
(0.0446502 0 -8.95762e-05)
(0.0446048 0 -8.94715e-05)
(0.0445592 0 -8.936e-05)
(0.0445133 3.06441e-31 -8.92463e-05)
(0.044467 8.33628e-26 -8.91253e-05)
(0.0444202 0 -8.90036e-05)
(0.044373 0 -8.88818e-05)
(0.0443254 0 -8.8764e-05)
(0.0442772 -8.76371e-26 -8.86485e-05)
(0.0442286 0 -8.8537e-05)
(0.0441795 8.97163e-26 -8.84313e-05)
(0.0441299 -9.10802e-26 -8.8332e-05)
(0.04408 3.33769e-31 -8.82371e-05)
(0.0440297 9.46936e-26 -8.81516e-05)
(0.0439791 -9.69832e-26 -8.80701e-05)
(0.0439282 -9.94204e-26 -8.79969e-05)
(0.0438773 0 -8.79283e-05)
(0.0438263 -1.05234e-25 -8.78644e-05)
(0.0437753 0 -8.78028e-05)
(0.0437244 0 -8.77383e-05)
(0.0436736 0 -8.76759e-05)
(0.0436229 0 -8.76095e-05)
(0.0435724 0 -8.7544e-05)
(0.0435219 0 -8.74778e-05)
(0.0434716 0 -8.74123e-05)
(0.0434214 -1.34009e-25 -8.7347e-05)
(0.0433713 1.38557e-25 -8.72823e-05)
(0.0433214 0 -8.72132e-05)
(0.0432717 -1.46827e-25 -8.71365e-05)
(0.043222 5.28059e-31 -8.70508e-05)
(0.0431725 -5.29696e-31 -8.69571e-05)
(0.043123 -5.4767e-31 -8.68581e-05)
(0.0430735 1.59564e-25 -8.67507e-05)
(0.043024 1.61224e-25 -8.66427e-05)
(0.0429743 1.63934e-25 -8.65297e-05)
(0.0429245 0 -8.64199e-05)
(0.0428743 0 -8.63141e-05)
(0.0428241 5.09226e-31 -8.62063e-05)
(0.0427735 0 -8.61024e-05)
(0.0427228 4.98003e-31 -8.60024e-05)
(0.0426718 0 -8.59014e-05)
(0.0426206 4.96118e-31 -8.58002e-05)
(0.0425692 -1.86747e-25 -8.56975e-05)
(0.0425176 0 -8.55882e-05)
(0.0424657 0 -8.5479e-05)
(0.0424136 0 -8.53686e-05)
(0.0423611 0 -8.52545e-05)
(0.0423083 0 -8.51412e-05)
(0.0422549 0 -8.50267e-05)
(0.0422013 6.55791e-31 -8.49118e-05)
(0.042147 -2.24952e-25 -8.47935e-05)
(0.0420924 -2.26457e-25 -8.46786e-05)
(0.042037 0 -8.45689e-05)
(0.0419816 -2.32295e-25 -8.4458e-05)
(0.0419253 0 -8.43506e-05)
(0.0418692 -2.36425e-25 -8.42409e-05)
(0.0418123 -2.4257e-25 -8.4129e-05)
(0.0417557 -9.5381e-31 -8.40067e-05)
(0.0416982 0 -8.38718e-05)
(0.0416408 0 -8.37218e-05)
(0.0415823 0 -8.35426e-05)
(0.0415234 2.71578e-25 -8.33421e-05)
(0.0414622 0 -8.30668e-05)
(0.0414001 -7.87065e-31 -8.27156e-05)
(0.0413325 6.91773e-31 -8.22246e-05)
(0.0412623 -5.71611e-31 -8.15343e-05)
(0.0411798 0 -8.05334e-05)
(0.0410898 7.20167e-25 -7.91284e-05)
(0.0409733 -1.16352e-30 -7.70706e-05)
(0.0408382 0 -7.41734e-05)
(0.0406476 0 -7.02355e-05)
(0.0404144 -1.95938e-24 -6.4325e-05)
(0.0400827 -2.73813e-24 -6.92395e-05)
(0.0396461 0 -5.47308e-05)
(0.0396595 0 -0.000565473)
(0.0385677 0 -0.000572786)
(0.036856 0 -7.37119e-05)
(0.0346154 4.0441e-29 -6.92308e-05)
(0 0 0)
(0 0 0)
(0 0 0)
(0 0 0)
(0 0 0)
(0 0 0)
(0 0 0)
(0 0 0)
)
;

boundaryField
{
    inlet
    {
        type            calculated;
        value           uniform (0 0 0);
    }
    endWall
    {
        type            calculated;
        value           uniform (0 0 0);
    }
    sideWall
    {
        type            empty;
    }
}


// ************************************************************************* //
