/*--------------------------------*- C++ -*----------------------------------*\
| =========                 |                                                 |
| \\      /  F ield         | foam-extend: Open Source CFD                    |
|  \\    /   O peration     | Version:     3.2                                |
|   \\  /    A nd           | Web:         http://www.foam-extend.org         |
|    \\/     M anipulation  | For copyright notice see file Copyright         |
\*---------------------------------------------------------------------------*/
FoamFile
{
    version     2.0;
    format      ascii;
    class       areaScalarField;
    location    "120";
    object      Uf;
}
// * * * * * * * * * * * * * * * * * * * * * * * * * * * * * * * * * * * * * //

dimensions      [0 1 -1 0 0 0 0];

internalField   nonuniform List<scalar> 
550
(
0.00695296
0.00809572
0.00926996
0.010447
0.0115978
0.0126921
0.0137069
0.0146215
0.0154257
0.0161122
0.0166827
0.0171406
0.0174953
0.0177557
0.0179332
0.0180385
0.018083
0.0180769
0.0180306
0.0179549
0.0178561
0.0177392
0.0176088
0.0174687
0.0173226
0.0171733
0.0170235
0.0168758
0.0167312
0.0165902
0.0164544
0.016325
0.0162026
0.0160868
0.0159772
0.0158735
0.0157754
0.0156827
0.0155952
0.0155127
0.0154349
0.0153617
0.0152929
0.0152281
0.0151672
0.0151099
0.0150561
0.0150055
0.0149581
0.0149135
0.0148716
0.0148324
0.0147955
0.0147608
0.0147281
0.0146973
0.0146683
0.0146408
0.0146147
0.01459
0.0145664
0.014544
0.0145227
0.0145022
0.0144827
0.014464
0.014446
0.0144286
0.0144119
0.0143957
0.01438
0.0143647
0.0143498
0.0143353
0.0143212
0.0143073
0.0142938
0.0142804
0.0142673
0.0142544
0.0142417
0.0142291
0.0142168
0.0142046
0.0141926
0.0141808
0.0141691
0.0141576
0.0141461
0.0141349
0.0141237
0.0141125
0.0141015
0.0140905
0.0140796
0.0140687
0.0140579
0.0140471
0.0140364
0.0140258
0.0140153
0.0140047
0.0139942
0.0139836
0.013973
0.0139623
0.0139516
0.0139408
0.0139298
0.0139188
0.0139076
0.0138963
0.0138849
0.0138734
0.0138617
0.01385
0.0138381
0.0138261
0.013814
0.0138018
0.0137894
0.0137771
0.0137646
0.013752
0.0137394
0.0137267
0.013714
0.0137012
0.0136884
0.0136755
0.0136626
0.0136497
0.0136369
0.013624
0.0136112
0.0135984
0.0135856
0.013573
0.0135603
0.0135478
0.0135353
0.013523
0.0135107
0.0134985
0.0134864
0.0134744
0.0134625
0.0134507
0.013439
0.0134275
0.013416
0.0134047
0.0133935
0.0133825
0.0133715
0.0133607
0.0133501
0.0133395
0.0133291
0.0133189
0.0133088
0.0132988
0.0132891
0.0132794
0.01327
0.0132607
0.0132516
0.0132428
0.0132341
0.0132256
0.0132173
0.0132092
0.0132013
0.0131936
0.0131861
0.0131788
0.0131718
0.0131649
0.0131582
0.0131518
0.0131455
0.0131395
0.0131336
0.0131279
0.0131225
0.0131171
0.013112
0.013107
0.0131022
0.0130976
0.0130931
0.0130888
0.0130846
0.0130806
0.0130767
0.013073
0.0130694
0.0130659
0.0130626
0.0130593
0.0130562
0.0130532
0.0130503
0.0130475
0.0130448
0.013042
0.0130393
0.0130365
0.0130337
0.0130308
0.0130279
0.013025
0.0130221
0.013019
0.013016
0.0130129
0.0130097
0.0130066
0.0130033
0.013
0.0129967
0.0129933
0.0129899
0.0129864
0.0129828
0.0129792
0.0129756
0.0129719
0.0129681
0.0129643
0.0129604
0.0129565
0.0129525
0.0129484
0.0129444
0.0129402
0.012936
0.0129318
0.0129276
0.0129233
0.012919
0.0129147
0.0129104
0.0129061
0.0129017
0.0128973
0.012893
0.0128886
0.0128843
0.0128799
0.0128755
0.0128712
0.0128668
0.0128625
0.0128581
0.0128538
0.0128495
0.0128451
0.0128409
0.0128366
0.0128324
0.0128282
0.012824
0.0128199
0.0128159
0.0128118
0.0128079
0.012804
0.0128002
0.0127964
0.0127927
0.0127891
0.0127855
0.012782
0.0127785
0.0127751
0.0127717
0.0127684
0.0127652
0.012762
0.0127588
0.0127557
0.0127527
0.0127497
0.0127467
0.0127438
0.012741
0.0127382
0.0127355
0.0127329
0.0127303
0.0127278
0.0127254
0.0127231
0.0127208
0.0127186
0.0127164
0.0127143
0.0127123
0.0127104
0.0127086
0.0127068
0.0127051
0.0127035
0.012702
0.0127005
0.0126992
0.0126979
0.0126966
0.0126955
0.0126944
0.0126934
0.0126924
0.0126915
0.0126907
0.0126899
0.0126892
0.0126885
0.0126879
0.0126872
0.0126866
0.0126859
0.0126852
0.0126845
0.0126836
0.0126827
0.0126817
0.0126806
0.0126793
0.0126779
0.0126763
0.0126746
0.0126727
0.0126706
0.0126683
0.0126659
0.0126633
0.0126605
0.0126575
0.0126545
0.0126513
0.0126479
0.0126445
0.012641
0.0126374
0.0126337
0.0126299
0.0126261
0.0126223
0.0126184
0.0126144
0.0126104
0.0126064
0.0126024
0.0125983
0.0125941
0.0125899
0.0125857
0.0125813
0.0125769
0.0125725
0.012568
0.0125634
0.0125587
0.012554
0.0125491
0.0125442
0.0125392
0.0125342
0.012529
0.0125238
0.0125186
0.0125132
0.0125078
0.0125024
0.0124969
0.0124913
0.0124857
0.0124801
0.0124744
0.0124688
0.012463
0.0124573
0.0124516
0.0124458
0.0124401
0.0124343
0.0124285
0.0124227
0.0124169
0.0124111
0.0124053
0.0123994
0.0123936
0.0123878
0.0123819
0.0123761
0.0123702
0.0123644
0.0123586
0.0123528
0.012347
0.0123413
0.0123356
0.0123299
0.0123243
0.0123188
0.0123133
0.012308
0.0123027
0.0122975
0.0122924
0.0122874
0.0122824
0.0122776
0.0122729
0.0122682
0.0122636
0.0122591
0.0122546
0.0122502
0.0122458
0.0122415
0.0122372
0.012233
0.0122288
0.0122247
0.0122206
0.0122166
0.0122126
0.0122087
0.0122048
0.012201
0.0121972
0.0121936
0.01219
0.0121865
0.0121831
0.0121798
0.0121766
0.0121734
0.0121704
0.0121674
0.0121644
0.0121616
0.0121587
0.012156
0.0121533
0.0121506
0.012148
0.0121454
0.0121429
0.0121404
0.0121378
0.0121353
0.0121327
0.0121301
0.0121274
0.0121247
0.012122
0.0121192
0.0121164
0.0121136
0.0121107
0.0121077
0.0121047
0.0121017
0.0120987
0.0120957
0.0120926
0.0120896
0.0120865
0.0120834
0.0120804
0.0120773
0.0120742
0.0120711
0.012068
0.0120648
0.0120616
0.0120583
0.012055
0.0120517
0.0120482
0.0120447
0.0120411
0.0120373
0.0120335
0.0120295
0.0120255
0.0120213
0.012017
0.0120126
0.012008
0.0120034
0.0119987
0.0119939
0.011989
0.0119841
0.0119792
0.0119742
0.0119691
0.0119641
0.011959
0.0119538
0.0119486
0.0119434
0.0119382
0.0119328
0.0119275
0.011922
0.0119166
0.011911
0.0119054
0.0118996
0.0118938
0.0118879
0.011882
0.011876
0.0118699
0.0118637
0.0118575
0.0118513
0.011845
0.0118385
0.011832
0.0118253
0.0118185
0.0118112
0.0118037
0.0117949
0.0117856
0.0117738
0.0117607
0.0117427
0.011722
0.0116911
0.011659
0.011578
0.0114368
0.0112585
0.0110345
0.0106951
0.01022
0.0095322
0.00854076
0.00677968
0.00467497
0.00529323
0.00690311
)
;

boundaryField
{
    inlet
    {
        type            calculated;
        value           uniform 0;
    }
    endWall
    {
        type            calculated;
        value           uniform 0;
    }
    sideWall
    {
        type            empty;
    }
}


// ************************************************************************* //
