/*--------------------------------*- C++ -*----------------------------------*\
| =========                 |                                                 |
| \\      /  F ield         | foam-extend: Open Source CFD                    |
|  \\    /   O peration     | Version:     3.2                                |
|   \\  /    A nd           | Web:         http://www.foam-extend.org         |
|    \\/     M anipulation  | For copyright notice see file Copyright         |
\*---------------------------------------------------------------------------*/
FoamFile
{
    version     2.0;
    format      ascii;
    class       areaScalarField;
    location    "120";
    object      Uf2;
}
// * * * * * * * * * * * * * * * * * * * * * * * * * * * * * * * * * * * * * //

dimensions      [0 1 -1 0 0 0 0];

internalField   nonuniform List<scalar> 
550
(
0.0338422
0.0334319
0.0328774
0.0322469
0.0316483
0.0310388
0.0304831
0.0299239
0.0294048
0.0288884
0.0284046
0.0279289
0.0274831
0.0270468
0.0266299
0.0262254
0.0258415
0.0254733
0.0251223
0.0247831
0.0244577
0.0241445
0.0238447
0.0235583
0.0232861
0.0230279
0.0227842
0.0225533
0.0223288
0.0221171
0.0219264
0.0217523
0.0215913
0.0214376
0.0212892
0.0211475
0.0210125
0.0208845
0.020763
0.0206479
0.0205392
0.0204365
0.0203396
0.020248
0.0201615
0.0200797
0.0200024
0.0199294
0.0198604
0.0197952
0.0197336
0.0196755
0.0196207
0.0195689
0.0195199
0.0194735
0.0194294
0.0193877
0.0193481
0.0193103
0.0192744
0.0192402
0.0192075
0.0191765
0.0191468
0.0191185
0.0190915
0.0190656
0.0190407
0.0190168
0.0189938
0.0189717
0.0189502
0.0189295
0.0189095
0.0188902
0.0188713
0.0188528
0.0188347
0.0188171
0.0187999
0.0187832
0.0187668
0.0187507
0.018735
0.0187196
0.0187045
0.0186896
0.0186751
0.0186609
0.0186467
0.0186327
0.0186189
0.0186053
0.0185919
0.0185788
0.0185659
0.0185534
0.0185412
0.0185293
0.0185174
0.0185057
0.0184941
0.0184824
0.0184709
0.0184592
0.0184476
0.0184359
0.0184241
0.0184122
0.0184002
0.0183882
0.018376
0.0183636
0.0183511
0.0183385
0.0183258
0.018313
0.0183
0.0182868
0.0182736
0.0182602
0.0182466
0.0182329
0.0182191
0.0182051
0.018191
0.0181768
0.0181624
0.0181479
0.0181333
0.0181187
0.018104
0.0180892
0.0180744
0.0180596
0.0180448
0.01803
0.0180153
0.0180005
0.0179858
0.0179712
0.0179566
0.0179421
0.0179276
0.0179132
0.017899
0.0178848
0.0178707
0.0178567
0.0178428
0.017829
0.0178153
0.0178017
0.0177882
0.0177748
0.0177615
0.0177482
0.0177351
0.0177221
0.0177091
0.0176963
0.0176836
0.017671
0.0176585
0.0176462
0.017634
0.017622
0.0176101
0.0175984
0.0175868
0.0175755
0.0175643
0.0175533
0.0175426
0.017532
0.0175217
0.0175116
0.0175017
0.017492
0.0174826
0.0174734
0.0174644
0.0174556
0.0174471
0.0174388
0.0174307
0.0174229
0.0174153
0.0174079
0.0174007
0.0173937
0.0173869
0.0173803
0.0173739
0.0173677
0.0173617
0.0173558
0.0173502
0.0173447
0.0173394
0.0173342
0.0173293
0.0173245
0.0173198
0.0173151
0.0173105
0.0173059
0.0173014
0.0172969
0.0172924
0.017288
0.0172836
0.0172792
0.0172749
0.0172706
0.0172662
0.0172619
0.0172576
0.0172532
0.0172487
0.0172442
0.0172396
0.017235
0.0172302
0.0172254
0.0172205
0.0172154
0.0172103
0.0172051
0.0171997
0.0171943
0.0171888
0.0171832
0.0171775
0.0171717
0.0171659
0.01716
0.0171541
0.0171482
0.0171423
0.0171363
0.0171304
0.0171244
0.0171185
0.0171125
0.0171066
0.0171006
0.0170947
0.0170887
0.0170828
0.0170768
0.0170708
0.0170648
0.0170588
0.0170528
0.0170468
0.0170407
0.0170347
0.0170286
0.0170226
0.0170165
0.0170105
0.0170046
0.0169986
0.0169927
0.0169869
0.0169811
0.0169754
0.0169698
0.0169644
0.016959
0.0169537
0.0169486
0.0169436
0.0169388
0.0169341
0.0169295
0.0169251
0.0169207
0.0169165
0.0169124
0.0169083
0.0169044
0.0169005
0.0168966
0.0168928
0.0168891
0.0168855
0.0168818
0.0168782
0.0168747
0.0168712
0.0168677
0.0168643
0.0168609
0.0168575
0.0168542
0.0168509
0.0168477
0.0168446
0.0168414
0.0168384
0.0168354
0.0168325
0.0168297
0.0168269
0.0168243
0.0168217
0.0168191
0.0168167
0.0168143
0.0168121
0.0168099
0.0168078
0.0168058
0.0168039
0.0168021
0.0168003
0.0167986
0.016797
0.0167953
0.0167938
0.0167921
0.0167905
0.0167888
0.0167871
0.0167853
0.0167835
0.0167816
0.0167796
0.0167775
0.0167752
0.0167729
0.0167704
0.0167678
0.016765
0.016762
0.0167589
0.0167557
0.0167524
0.0167489
0.0167453
0.0167416
0.0167378
0.0167339
0.0167299
0.0167259
0.0167217
0.0167174
0.0167131
0.0167087
0.0167042
0.0166996
0.016695
0.0166903
0.0166855
0.0166806
0.0166756
0.0166705
0.0166654
0.0166601
0.0166548
0.0166495
0.016644
0.0166385
0.016633
0.0166273
0.0166217
0.0166159
0.0166101
0.0166043
0.0165984
0.0165924
0.0165864
0.0165803
0.0165742
0.016568
0.0165618
0.0165555
0.0165492
0.0165428
0.0165364
0.01653
0.0165235
0.0165169
0.0165103
0.0165037
0.016497
0.0164902
0.0164834
0.0164765
0.0164695
0.0164625
0.0164553
0.0164482
0.0164409
0.0164337
0.0164263
0.0164189
0.0164115
0.0164041
0.0163967
0.0163893
0.0163819
0.0163746
0.0163674
0.0163603
0.0163533
0.0163465
0.0163397
0.0163332
0.0163268
0.0163206
0.0163145
0.0163086
0.0163028
0.0162972
0.0162916
0.0162861
0.0162806
0.0162752
0.0162699
0.0162645
0.0162592
0.016254
0.0162488
0.0162436
0.0162385
0.0162335
0.0162285
0.0162236
0.0162188
0.016214
0.0162094
0.0162049
0.0162006
0.0161964
0.0161923
0.0161884
0.0161846
0.016181
0.0161775
0.0161742
0.016171
0.0161678
0.0161648
0.0161619
0.0161591
0.0161564
0.0161538
0.0161512
0.0161487
0.0161461
0.0161436
0.016141
0.0161384
0.0161358
0.0161331
0.0161304
0.0161276
0.0161248
0.0161219
0.0161189
0.0161159
0.0161128
0.0161096
0.0161063
0.016103
0.0160997
0.0160963
0.0160928
0.0160893
0.0160858
0.0160823
0.0160787
0.0160751
0.0160714
0.0160677
0.0160639
0.01606
0.0160561
0.016052
0.0160478
0.0160435
0.0160391
0.0160346
0.01603
0.0160252
0.0160204
0.0160153
0.0160102
0.0160048
0.0159993
0.0159937
0.0159879
0.0159821
0.0159761
0.0159701
0.0159641
0.0159579
0.0159517
0.0159454
0.015939
0.0159325
0.0159259
0.015919
0.0159121
0.0159049
0.0158976
0.0158901
0.0158825
0.0158745
0.0158666
0.0158582
0.0158499
0.0158413
0.0158327
0.0158238
0.0158151
0.0158059
0.015797
0.0157876
0.0157785
0.0157687
0.015759
0.0157484
0.015738
0.0157246
0.0157123
0.0156924
0.0156747
0.0156417
0.0156123
0.0155531
0.0155028
0.0153866
0.0153433
0.0149052
0.0142866
0.0137596
0.0131341
0.0119537
0.0105682
0.0085884
0.00626022
0.00175908
0.000198938
0.00209934
0.00323096
)
;

boundaryField
{
    inlet
    {
        type            calculated;
        value           uniform 0;
    }
    endWall
    {
        type            calculated;
        value           uniform 0;
    }
    sideWall
    {
        type            empty;
    }
}


// ************************************************************************* //
