/*--------------------------------*- C++ -*----------------------------------*\
| =========                 |                                                 |
| \\      /  F ield         | foam-extend: Open Source CFD                    |
|  \\    /   O peration     | Version:     3.2                                |
|   \\  /    A nd           | Web:         http://www.foam-extend.org         |
|    \\/     M anipulation  | For copyright notice see file Copyright         |
\*---------------------------------------------------------------------------*/
FoamFile
{
    version     2.0;
    format      ascii;
    class       areaVectorField;
    location    "120";
    object      Wt;
}
// * * * * * * * * * * * * * * * * * * * * * * * * * * * * * * * * * * * * * //

dimensions      [1 1 -2 0 0 0 0];

internalField   nonuniform List<vector> 
550
(
(5.45265e-10 0 -1.09053e-12)
(5.45265e-10 0 -1.09053e-12)
(5.45265e-10 0 -1.09053e-12)
(5.45265e-10 0 -1.09053e-12)
(5.45265e-10 1.98454e-26 -1.09053e-12)
(5.45265e-10 0 -1.09053e-12)
(5.45265e-10 0 -1.09053e-12)
(5.45265e-10 0 -1.09053e-12)
(5.45265e-10 1.98454e-26 -1.09053e-12)
(5.45265e-10 0 -1.09053e-12)
(5.45265e-10 0 -1.09053e-12)
(5.45265e-10 0 -1.09053e-12)
(5.45265e-10 1.98454e-26 -1.09053e-12)
(5.45265e-10 0 -1.09053e-12)
(5.45265e-10 0 -1.09053e-12)
(5.45265e-10 1.98454e-26 -1.09053e-12)
(5.45265e-10 -1.98454e-26 -1.09053e-12)
(5.45265e-10 1.98454e-26 -1.09053e-12)
(5.45265e-10 1.98454e-26 -1.09053e-12)
(5.45265e-10 0 -1.09053e-12)
(5.45265e-10 1.98454e-26 -1.09053e-12)
(5.45265e-10 -1.98454e-26 -1.09053e-12)
(5.45265e-10 0 -1.09053e-12)
(5.45265e-10 1.98454e-26 -1.09053e-12)
(5.45265e-10 0 -1.09053e-12)
(5.45305e-10 0 -1.09069e-12)
(5.45263e-10 1.98454e-26 -1.09052e-12)
(5.45215e-10 0 -1.09033e-12)
(5.70327e-10 0 -1.19308e-12)
(4.95163e-10 1.98455e-26 -8.99329e-13)
(3.71521e-10 -9.92274e-27 -5.06276e-13)
(2.85e-10 9.92275e-27 -2.97928e-13)
(2.27937e-10 -9.92275e-27 -1.90569e-13)
(2.3811e-10 0 -2.07958e-13)
(2.54843e-10 0 -2.38213e-13)
(2.79108e-10 9.92275e-27 -2.85737e-13)
(3.02072e-10 -9.92275e-27 -3.34689e-13)
(3.23453e-10 -9.92275e-27 -3.83746e-13)
(3.42674e-10 0 -4.30709e-13)
(3.60052e-10 0 -4.75502e-13)
(3.75469e-10 -9.92274e-27 -5.17094e-13)
(3.88909e-10 0 -5.54775e-13)
(4.00664e-10 0 -5.88818e-13)
(4.11151e-10 0 -6.20047e-13)
(4.20834e-10 -1.98455e-26 -6.49597e-13)
(4.30032e-10 0 -6.78302e-13)
(4.38628e-10 1.98455e-26 -7.05689e-13)
(4.46422e-10 0 -7.30991e-13)
(4.5333e-10 1.98455e-26 -7.5379e-13)
(4.59302e-10 0 -7.73782e-13)
(4.64464e-10 0 -7.91272e-13)
(4.68938e-10 0 -8.06589e-13)
(4.72754e-10 -1.98455e-26 -8.19772e-13)
(4.76039e-10 0 -8.31202e-13)
(4.7896e-10 1.98455e-26 -8.41435e-13)
(4.81741e-10 -1.98455e-26 -8.51234e-13)
(4.84467e-10 0 -8.60895e-13)
(4.86962e-10 0 -8.69787e-13)
(4.89177e-10 0 -8.77715e-13)
(4.91199e-10 -1.98455e-26 -8.84986e-13)
(4.93111e-10 0 -8.91891e-13)
(4.9496e-10 0 -8.98591e-13)
(4.96686e-10 0 -9.0487e-13)
(4.982e-10 0 -9.10392e-13)
(4.99477e-10 1.98455e-26 -9.15068e-13)
(5.00594e-10 1.98455e-26 -9.19166e-13)
(5.01622e-10 -1.98455e-26 -9.22943e-13)
(5.02607e-10 0 -9.26571e-13)
(5.03569e-10 -1.98455e-26 -9.30121e-13)
(5.04535e-10 1.98455e-26 -9.33694e-13)
(5.05523e-10 1.98455e-26 -9.37353e-13)
(5.06563e-10 1.98455e-26 -9.41215e-13)
(5.07662e-10 0 -9.45303e-13)
(5.08649e-10 1.98455e-26 -9.48982e-13)
(5.09385e-10 -1.98455e-26 -9.51733e-13)
(5.0991e-10 -1.98455e-26 -9.53695e-13)
(5.10436e-10 1.98455e-26 -9.55661e-13)
(5.11132e-10 0 -9.58269e-13)
(5.11829e-10 1.98455e-26 -9.60885e-13)
(5.12342e-10 0 -9.62812e-13)
(5.12707e-10 0 -9.64184e-13)
(5.12976e-10 0 -9.65197e-13)
(5.13166e-10 -1.98455e-26 -9.65914e-13)
(5.13277e-10 1.98455e-26 -9.66331e-13)
(5.13333e-10 0 -9.6654e-13)
(5.13437e-10 0 -9.66932e-13)
(5.13616e-10 0 -9.67608e-13)
(5.13834e-10 1.98455e-26 -9.68427e-13)
(5.13932e-10 0 -9.688e-13)
(5.13945e-10 1.98455e-26 -9.68848e-13)
(5.14167e-10 0 -9.69686e-13)
(5.14621e-10 0 -9.71397e-13)
(5.15126e-10 0 -9.73304e-13)
(5.15612e-10 0 -9.75143e-13)
(5.16143e-10 0 -9.77151e-13)
(5.16799e-10 0 -9.79639e-13)
(5.17408e-10 -1.98454e-26 -9.81946e-13)
(5.17574e-10 -1.98454e-26 -9.82579e-13)
(5.17309e-10 1.98454e-26 -9.81571e-13)
(5.16845e-10 0 -9.79811e-13)
(5.16277e-10 0 -9.77658e-13)
(5.15666e-10 0 -9.75346e-13)
(5.15054e-10 -1.98455e-26 -9.73032e-13)
(5.14475e-10 0 -9.70846e-13)
(5.13924e-10 1.98455e-26 -9.68767e-13)
(5.13421e-10 1.98455e-26 -9.66871e-13)
(5.12987e-10 0 -9.65239e-13)
(5.12613e-10 -1.98454e-26 -9.63834e-13)
(5.12289e-10 -1.98455e-26 -9.62613e-13)
(5.12051e-10 0 -9.6172e-13)
(5.11788e-10 0 -9.60733e-13)
(5.11353e-10 0 -9.59099e-13)
(5.11012e-10 -1.98455e-26 -9.57822e-13)
(5.10919e-10 0 -9.57471e-13)
(5.10875e-10 1.98455e-26 -9.57308e-13)
(5.10839e-10 1.98455e-26 -9.57171e-13)
(5.10861e-10 1.98455e-26 -9.57253e-13)
(5.10944e-10 0 -9.57567e-13)
(5.1108e-10 0 -9.58077e-13)
(5.11263e-10 -1.98455e-26 -9.58762e-13)
(5.11485e-10 0 -9.59594e-13)
(5.11724e-10 0 -9.60493e-13)
(5.11977e-10 -1.98455e-26 -9.61441e-13)
(5.12232e-10 -1.98454e-26 -9.62401e-13)
(5.12501e-10 1.98455e-26 -9.63412e-13)
(5.1278e-10 0 -9.64459e-13)
(5.13082e-10 -1.98455e-26 -9.65598e-13)
(5.13436e-10 -1.98455e-26 -9.66931e-13)
(5.13844e-10 1.98455e-26 -9.68466e-13)
(5.14276e-10 0 -9.70095e-13)
(5.14714e-10 0 -9.71749e-13)
(5.1517e-10 0 -9.73472e-13)
(5.15656e-10 0 -9.75309e-13)
(5.16175e-10 0 -9.77273e-13)
(5.16713e-10 -1.98454e-26 -9.79311e-13)
(5.17281e-10 1.98454e-26 -9.81466e-13)
(5.17882e-10 0 -9.83749e-13)
(5.18484e-10 0 -9.86035e-13)
(5.19072e-10 1.98454e-26 -9.88272e-13)
(5.19667e-10 1.98454e-26 -9.9054e-13)
(5.20294e-10 -1.98454e-26 -9.92933e-13)
(5.20943e-10 -1.98454e-26 -9.9541e-13)
(5.21598e-10 1.98454e-26 -9.97917e-13)
(5.22257e-10 0 -1.00044e-12)
(5.22917e-10 0 -1.00297e-12)
(5.23567e-10 -1.98454e-26 -1.00546e-12)
(5.24224e-10 -1.98454e-26 -1.00799e-12)
(5.24901e-10 0 -1.0106e-12)
(5.25581e-10 0 -1.01321e-12)
(5.26244e-10 1.98454e-26 -1.01577e-12)
(5.26903e-10 0 -1.01832e-12)
(5.27586e-10 -1.98454e-26 -1.02096e-12)
(5.28285e-10 0 -1.02367e-12)
(5.28995e-10 0 -1.02642e-12)
(5.29703e-10 0 -1.02917e-12)
(5.30407e-10 0 -1.03191e-12)
(5.31101e-10 0 -1.03461e-12)
(5.31793e-10 1.98454e-26 -1.03731e-12)
(5.32501e-10 0 -1.04007e-12)
(5.3323e-10 0 -1.04292e-12)
(5.33973e-10 0 -1.04583e-12)
(5.34697e-10 0 -1.04867e-12)
(5.35417e-10 0 -1.05149e-12)
(5.36111e-10 0 -1.05422e-12)
(5.36806e-10 0 -1.05695e-12)
(5.375e-10 -1.98454e-26 -1.05969e-12)
(5.38179e-10 -1.98454e-26 -1.06237e-12)
(5.38836e-10 0 -1.06497e-12)
(5.39473e-10 0 -1.06748e-12)
(5.4011e-10 0 -1.07001e-12)
(5.40696e-10 1.98454e-26 -1.07233e-12)
(5.41223e-10 1.98454e-26 -1.07442e-12)
(5.41687e-10 0 -1.07626e-12)
(5.42126e-10 0 -1.07801e-12)
(5.42537e-10 0 -1.07965e-12)
(5.42946e-10 1.98454e-26 -1.08127e-12)
(5.43298e-10 0 -1.08268e-12)
(5.43622e-10 0 -1.08397e-12)
(5.43942e-10 0 -1.08524e-12)
(5.44239e-10 1.98454e-26 -1.08643e-12)
(5.44537e-10 1.98454e-26 -1.08762e-12)
(5.44809e-10 -1.98454e-26 -1.0887e-12)
(5.45064e-10 1.98454e-26 -1.08972e-12)
(5.45329e-10 1.98454e-26 -1.09079e-12)
(5.45565e-10 0 -1.09173e-12)
(5.45803e-10 1.98454e-26 -1.09268e-12)
(5.46012e-10 1.98454e-26 -1.09352e-12)
(5.46205e-10 0 -1.09429e-12)
(5.464e-10 1.98454e-26 -1.09507e-12)
(5.46582e-10 0 -1.0958e-12)
(5.46747e-10 0 -1.09647e-12)
(5.4692e-10 0 -1.09716e-12)
(5.47046e-10 0 -1.09766e-12)
(5.47164e-10 0 -1.09814e-12)
(5.47271e-10 0 -1.09857e-12)
(5.47382e-10 0 -1.09901e-12)
(5.47494e-10 0 -1.09946e-12)
(5.47596e-10 0 -1.09988e-12)
(5.47701e-10 0 -1.1003e-12)
(5.47793e-10 1.98454e-26 -1.10066e-12)
(5.47847e-10 -1.98454e-26 -1.10088e-12)
(5.47831e-10 0 -1.10082e-12)
(5.47743e-10 -1.98454e-26 -1.10046e-12)
(5.47568e-10 0 -1.09976e-12)
(5.47336e-10 0 -1.09883e-12)
(5.46969e-10 0 -1.09736e-12)
(5.46449e-10 -1.98454e-26 -1.09527e-12)
(5.4591e-10 0 -1.09311e-12)
(5.45499e-10 -1.98454e-26 -1.09147e-12)
(5.45175e-10 1.98454e-26 -1.09017e-12)
(5.44905e-10 0 -1.08909e-12)
(5.44692e-10 0 -1.08824e-12)
(5.44513e-10 0 -1.08752e-12)
(5.44376e-10 0 -1.08697e-12)
(5.44277e-10 -1.98454e-26 -1.08658e-12)
(5.44191e-10 -1.98454e-26 -1.08624e-12)
(5.44123e-10 0 -1.08596e-12)
(5.44071e-10 1.98454e-26 -1.08576e-12)
(5.44053e-10 0 -1.08569e-12)
(5.44052e-10 1.98454e-26 -1.08568e-12)
(5.44079e-10 0 -1.08579e-12)
(5.44126e-10 1.98454e-26 -1.08598e-12)
(5.44205e-10 0 -1.08629e-12)
(5.44318e-10 1.98454e-26 -1.08675e-12)
(5.44461e-10 0 -1.08732e-12)
(5.44619e-10 1.98454e-26 -1.08795e-12)
(5.44816e-10 0 -1.08873e-12)
(5.45032e-10 0 -1.0896e-12)
(5.45264e-10 0 -1.09053e-12)
(5.45511e-10 0 -1.09152e-12)
(5.45773e-10 0 -1.09256e-12)
(5.46033e-10 1.98454e-26 -1.0936e-12)
(5.4632e-10 0 -1.09475e-12)
(5.46604e-10 0 -1.09589e-12)
(5.46906e-10 1.98454e-26 -1.09711e-12)
(5.47191e-10 0 -1.09825e-12)
(5.4747e-10 0 -1.09937e-12)
(5.47761e-10 0 -1.10053e-12)
(5.48048e-10 -1.98454e-26 -1.10169e-12)
(5.48344e-10 0 -1.10288e-12)
(5.4862e-10 1.98454e-26 -1.10399e-12)
(5.48897e-10 0 -1.10511e-12)
(5.49161e-10 0 -1.10617e-12)
(5.49424e-10 0 -1.10723e-12)
(5.49702e-10 0 -1.10835e-12)
(5.49973e-10 0 -1.10944e-12)
(5.50242e-10 -1.98454e-26 -1.11053e-12)
(5.50516e-10 0 -1.11163e-12)
(5.50789e-10 0 -1.11274e-12)
(5.51054e-10 0 -1.11381e-12)
(5.51338e-10 1.98454e-26 -1.11496e-12)
(5.51605e-10 0 -1.11604e-12)
(5.51852e-10 1.98454e-26 -1.11704e-12)
(5.52091e-10 0 -1.118e-12)
(5.52307e-10 0 -1.11888e-12)
(5.52536e-10 0 -1.11981e-12)
(5.52753e-10 0 -1.12069e-12)
(5.52978e-10 0 -1.1216e-12)
(5.53174e-10 0 -1.12239e-12)
(5.53365e-10 1.98454e-26 -1.12317e-12)
(5.53594e-10 0 -1.1241e-12)
(5.53836e-10 0 -1.12509e-12)
(5.54062e-10 0 -1.126e-12)
(5.54275e-10 0 -1.12687e-12)
(5.54554e-10 0 -1.128e-12)
(5.54868e-10 -1.98454e-26 -1.12928e-12)
(5.55174e-10 0 -1.13053e-12)
(5.55498e-10 0 -1.13185e-12)
(5.55818e-10 0 -1.13315e-12)
(5.56138e-10 0 -1.13445e-12)
(5.56458e-10 0 -1.13576e-12)
(5.56776e-10 1.98454e-26 -1.13706e-12)
(5.57095e-10 0 -1.13836e-12)
(5.5739e-10 0 -1.13957e-12)
(5.57663e-10 0 -1.14069e-12)
(5.57913e-10 0 -1.14171e-12)
(5.58103e-10 0 -1.14249e-12)
(5.58205e-10 0 -1.14291e-12)
(5.58232e-10 0 -1.14301e-12)
(5.58249e-10 0 -1.14308e-12)
(5.58184e-10 -1.98454e-26 -1.14282e-12)
(5.58027e-10 0 -1.14218e-12)
(5.57895e-10 0 -1.14163e-12)
(5.57732e-10 0 -1.14097e-12)
(5.57502e-10 0 -1.14003e-12)
(5.57226e-10 0 -1.1389e-12)
(5.56901e-10 -1.98454e-26 -1.13757e-12)
(5.56543e-10 0 -1.13611e-12)
(5.56167e-10 0 -1.13457e-12)
(5.55774e-10 -1.98454e-26 -1.13297e-12)
(5.55367e-10 1.98454e-26 -1.13131e-12)
(5.54961e-10 0 -1.12966e-12)
(5.54576e-10 0 -1.12809e-12)
(5.54213e-10 0 -1.12662e-12)
(5.53879e-10 0 -1.12526e-12)
(5.53562e-10 0 -1.12397e-12)
(5.53265e-10 -1.98454e-26 -1.12277e-12)
(5.52861e-10 0 -1.12112e-12)
(5.52362e-10 0 -1.1191e-12)
(5.52135e-10 0 -1.11818e-12)
(5.52065e-10 0 -1.1179e-12)
(5.51915e-10 1.98454e-26 -1.11729e-12)
(5.51758e-10 0 -1.11666e-12)
(5.51588e-10 1.98454e-26 -1.11597e-12)
(5.51415e-10 0 -1.11527e-12)
(5.51242e-10 -1.98454e-26 -1.11457e-12)
(5.51055e-10 1.98454e-26 -1.11381e-12)
(5.50839e-10 0 -1.11294e-12)
(5.50588e-10 -1.98454e-26 -1.11192e-12)
(5.50347e-10 0 -1.11095e-12)
(5.50116e-10 0 -1.11002e-12)
(5.49858e-10 0 -1.10898e-12)
(5.49608e-10 0 -1.10797e-12)
(5.4942e-10 0 -1.10721e-12)
(5.49248e-10 1.98454e-26 -1.10652e-12)
(5.49051e-10 0 -1.10573e-12)
(5.4886e-10 0 -1.10496e-12)
(5.48669e-10 -1.98454e-26 -1.10419e-12)
(5.48494e-10 0 -1.10348e-12)
(5.48334e-10 1.98454e-26 -1.10284e-12)
(5.4818e-10 0 -1.10222e-12)
(5.48051e-10 0 -1.1017e-12)
(5.47949e-10 1.98454e-26 -1.10129e-12)
(5.47847e-10 0 -1.10088e-12)
(5.4776e-10 1.98454e-26 -1.10053e-12)
(5.47682e-10 0 -1.10022e-12)
(5.47597e-10 0 -1.09988e-12)
(5.47526e-10 0 -1.09959e-12)
(5.47464e-10 1.98454e-26 -1.09934e-12)
(5.47419e-10 0 -1.09916e-12)
(5.47354e-10 -1.98454e-26 -1.0989e-12)
(5.47248e-10 0 -1.09848e-12)
(5.47133e-10 0 -1.09802e-12)
(5.47e-10 0 -1.09748e-12)
(5.46859e-10 0 -1.09691e-12)
(5.46709e-10 0 -1.09631e-12)
(5.46545e-10 0 -1.09566e-12)
(5.46379e-10 -1.98454e-26 -1.09499e-12)
(5.46221e-10 0 -1.09436e-12)
(5.46065e-10 0 -1.09373e-12)
(5.4591e-10 0 -1.09311e-12)
(5.45763e-10 0 -1.09252e-12)
(5.45634e-10 1.98454e-26 -1.092e-12)
(5.45497e-10 0 -1.09146e-12)
(5.45365e-10 0 -1.09093e-12)
(5.45242e-10 0 -1.09044e-12)
(5.45134e-10 0 -1.09e-12)
(5.45073e-10 1.98454e-26 -1.08976e-12)
(5.45049e-10 0 -1.08966e-12)
(5.45069e-10 0 -1.08975e-12)
(5.45105e-10 0 -1.08989e-12)
(5.45177e-10 0 -1.09018e-12)
(5.45283e-10 0 -1.0906e-12)
(5.45434e-10 0 -1.0912e-12)
(5.45604e-10 -1.98454e-26 -1.09188e-12)
(5.45772e-10 0 -1.09256e-12)
(5.45945e-10 1.98454e-26 -1.09325e-12)
(5.46141e-10 0 -1.09404e-12)
(5.46354e-10 -1.98454e-26 -1.09489e-12)
(5.46563e-10 1.98454e-26 -1.09573e-12)
(5.46755e-10 0 -1.0965e-12)
(5.46918e-10 0 -1.09715e-12)
(5.4707e-10 -1.98454e-26 -1.09776e-12)
(5.47164e-10 0 -1.09814e-12)
(5.472e-10 0 -1.09828e-12)
(5.47194e-10 0 -1.09826e-12)
(5.47154e-10 0 -1.0981e-12)
(5.47086e-10 0 -1.09783e-12)
(5.4702e-10 0 -1.09756e-12)
(5.46936e-10 0 -1.09722e-12)
(5.46845e-10 0 -1.09686e-12)
(5.4675e-10 0 -1.09648e-12)
(5.46665e-10 0 -1.09614e-12)
(5.46598e-10 0 -1.09587e-12)
(5.46549e-10 1.98454e-26 -1.09567e-12)
(5.46496e-10 0 -1.09546e-12)
(5.46485e-10 0 -1.09542e-12)
(5.46507e-10 -1.98454e-26 -1.0955e-12)
(5.46558e-10 0 -1.09571e-12)
(5.46628e-10 0 -1.09599e-12)
(5.46752e-10 -1.98454e-26 -1.09649e-12)
(5.46916e-10 -1.98454e-26 -1.09714e-12)
(5.47092e-10 0 -1.09785e-12)
(5.47308e-10 0 -1.09872e-12)
(5.47555e-10 0 -1.09971e-12)
(5.47807e-10 0 -1.10072e-12)
(5.48074e-10 1.98454e-26 -1.10179e-12)
(5.48351e-10 0 -1.10291e-12)
(5.4863e-10 0 -1.10403e-12)
(5.48938e-10 0 -1.10527e-12)
(5.49264e-10 0 -1.10658e-12)
(5.49588e-10 0 -1.10789e-12)
(5.49908e-10 1.98454e-26 -1.10918e-12)
(5.50214e-10 1.98454e-26 -1.11041e-12)
(5.50493e-10 0 -1.11154e-12)
(5.50767e-10 1.98454e-26 -1.11265e-12)
(5.50998e-10 0 -1.11358e-12)
(5.51216e-10 0 -1.11446e-12)
(5.51406e-10 -1.98454e-26 -1.11523e-12)
(5.51571e-10 0 -1.1159e-12)
(5.51718e-10 1.98454e-26 -1.11649e-12)
(5.51833e-10 1.98454e-26 -1.11696e-12)
(5.519e-10 0 -1.11723e-12)
(5.51921e-10 0 -1.11732e-12)
(5.51893e-10 -1.98454e-26 -1.1172e-12)
(5.51836e-10 -1.98454e-26 -1.11697e-12)
(5.51739e-10 0 -1.11658e-12)
(5.51604e-10 -1.98454e-26 -1.11603e-12)
(5.51421e-10 0 -1.11529e-12)
(5.51183e-10 0 -1.11433e-12)
(5.50964e-10 0 -1.11345e-12)
(5.50791e-10 0 -1.11275e-12)
(5.50615e-10 0 -1.11203e-12)
(5.50429e-10 0 -1.11128e-12)
(5.50252e-10 -1.98454e-26 -1.11057e-12)
(5.50097e-10 0 -1.10994e-12)
(5.4997e-10 0 -1.10943e-12)
(5.4989e-10 -1.98454e-26 -1.10911e-12)
(5.49849e-10 -1.98454e-26 -1.10894e-12)
(5.49844e-10 -1.98454e-26 -1.10892e-12)
(5.49869e-10 0 -1.10902e-12)
(5.49918e-10 -1.98454e-26 -1.10922e-12)
(5.49985e-10 0 -1.10949e-12)
(5.50052e-10 0 -1.10976e-12)
(5.50119e-10 -1.98454e-26 -1.11003e-12)
(5.50185e-10 1.98454e-26 -1.1103e-12)
(5.50245e-10 0 -1.11054e-12)
(5.50283e-10 0 -1.11069e-12)
(5.5031e-10 0 -1.1108e-12)
(5.50325e-10 0 -1.11086e-12)
(5.50301e-10 0 -1.11077e-12)
(5.5024e-10 -1.98454e-26 -1.11052e-12)
(5.50143e-10 1.98454e-26 -1.11013e-12)
(5.50029e-10 0 -1.10967e-12)
(5.49889e-10 1.98454e-26 -1.1091e-12)
(5.49732e-10 0 -1.10847e-12)
(5.49557e-10 -1.98454e-26 -1.10777e-12)
(5.49376e-10 1.98454e-26 -1.10704e-12)
(5.49182e-10 0 -1.10625e-12)
(5.48983e-10 0 -1.10545e-12)
(5.48788e-10 0 -1.10467e-12)
(5.4861e-10 0 -1.10395e-12)
(5.48431e-10 0 -1.10323e-12)
(5.48272e-10 -1.98454e-26 -1.10259e-12)
(5.48114e-10 0 -1.10195e-12)
(5.47979e-10 0 -1.10141e-12)
(5.47826e-10 0 -1.1008e-12)
(5.47698e-10 1.98454e-26 -1.10028e-12)
(5.47558e-10 1.98454e-26 -1.09972e-12)
(5.47443e-10 0 -1.09926e-12)
(5.47314e-10 1.98454e-26 -1.09874e-12)
(5.47226e-10 0 -1.09839e-12)
(5.47144e-10 -1.98454e-26 -1.09806e-12)
(5.47096e-10 0 -1.09787e-12)
(5.47054e-10 0 -1.0977e-12)
(5.47044e-10 0 -1.09766e-12)
(5.47028e-10 0 -1.09759e-12)
(5.47035e-10 1.98454e-26 -1.09762e-12)
(5.47044e-10 0 -1.09766e-12)
(5.4706e-10 0 -1.09772e-12)
(5.47066e-10 0 -1.09775e-12)
(5.47089e-10 0 -1.09784e-12)
(5.47057e-10 0 -1.09771e-12)
(5.47028e-10 0 -1.09759e-12)
(5.4695e-10 0 -1.09728e-12)
(5.46865e-10 0 -1.09694e-12)
(5.46743e-10 0 -1.09645e-12)
(5.46611e-10 0 -1.09592e-12)
(5.46439e-10 -1.98454e-26 -1.09523e-12)
(5.46267e-10 0 -1.09454e-12)
(5.46099e-10 0 -1.09387e-12)
(5.45961e-10 0 -1.09332e-12)
(5.45844e-10 1.98454e-26 -1.09285e-12)
(5.45757e-10 0 -1.0925e-12)
(5.45712e-10 -1.98454e-26 -1.09232e-12)
(5.45711e-10 1.98454e-26 -1.09231e-12)
(5.45743e-10 0 -1.09244e-12)
(5.45837e-10 -1.98454e-26 -1.09282e-12)
(5.45959e-10 1.98454e-26 -1.09331e-12)
(5.46137e-10 1.98454e-26 -1.09402e-12)
(5.46345e-10 0 -1.09485e-12)
(5.46583e-10 1.98454e-26 -1.09581e-12)
(5.46835e-10 0 -1.09682e-12)
(5.4707e-10 0 -1.09776e-12)
(5.47317e-10 0 -1.09875e-12)
(5.47537e-10 0 -1.09964e-12)
(5.47763e-10 0 -1.10055e-12)
(5.47983e-10 0 -1.10143e-12)
(5.48207e-10 0 -1.10233e-12)
(5.48431e-10 1.98454e-26 -1.10323e-12)
(5.48657e-10 -1.98454e-26 -1.10414e-12)
(5.48854e-10 0 -1.10493e-12)
(5.49002e-10 1.98454e-26 -1.10553e-12)
(5.49092e-10 0 -1.10589e-12)
(5.4913e-10 0 -1.10605e-12)
(5.49134e-10 0 -1.10606e-12)
(5.49086e-10 -1.98454e-26 -1.10587e-12)
(5.49033e-10 -1.98454e-26 -1.10565e-12)
(5.48952e-10 -1.98454e-26 -1.10533e-12)
(5.48892e-10 0 -1.10508e-12)
(5.4886e-10 0 -1.10496e-12)
(5.48819e-10 0 -1.10479e-12)
(5.48805e-10 0 -1.10474e-12)
(5.48818e-10 0 -1.10479e-12)
(5.4883e-10 0 -1.10483e-12)
(5.4884e-10 0 -1.10488e-12)
(5.48846e-10 1.98454e-26 -1.1049e-12)
(5.48811e-10 0 -1.10476e-12)
(5.48781e-10 0 -1.10464e-12)
(5.48745e-10 0 -1.10449e-12)
(5.48691e-10 0 -1.10428e-12)
(5.48646e-10 0 -1.10409e-12)
(5.486e-10 0 -1.10391e-12)
(5.48554e-10 0 -1.10373e-12)
(5.48497e-10 1.98454e-26 -1.10349e-12)
(5.48463e-10 1.98454e-26 -1.10336e-12)
(5.48474e-10 0 -1.10341e-12)
(5.48479e-10 1.98454e-26 -1.10342e-12)
(5.48517e-10 0 -1.10357e-12)
(5.48538e-10 1.98454e-26 -1.10366e-12)
(5.48554e-10 1.98454e-26 -1.10372e-12)
(5.48499e-10 0 -1.10351e-12)
(5.48374e-10 0 -1.103e-12)
(5.48146e-10 0 -1.10209e-12)
(5.47744e-10 0 -1.10047e-12)
(5.47204e-10 -1.98454e-26 -1.0983e-12)
(5.46201e-10 0 -1.09428e-12)
(5.44708e-10 0 -1.0883e-12)
(5.4236e-10 0 -1.07894e-12)
(5.38722e-10 0 -1.06452e-12)
(5.33175e-10 0 -1.0427e-12)
(5.2502e-10 -1.98454e-26 -1.01105e-12)
(5.12821e-10 0 -9.64614e-13)
(4.95177e-10 0 -8.99378e-13)
(4.71085e-10 0 -8.13993e-13)
(4.33932e-10 1.98455e-26 -6.9066e-13)
(4.70951e-10 1.98455e-26 -8.13528e-13)
(3.76366e-10 0 -5.19567e-13)
(3.88648e-09 0 -5.54142e-11)
(4.04811e-09 0 -6.01204e-11)
(5.45265e-10 0 -1.09053e-12)
(5.45265e-10 0 -1.09053e-12)
(5.45265e-10 0 -1.09053e-12)
(5.45265e-10 0 -1.09053e-12)
(5.45265e-10 0 -1.09053e-12)
(5.45265e-10 -1.98454e-26 -1.09053e-12)
(5.45265e-10 0 -1.09053e-12)
(5.45265e-10 0 -1.09053e-12)
(5.45265e-10 0 -1.09053e-12)
(5.45265e-10 0 -1.09053e-12)
)
;

boundaryField
{
    inlet
    {
        type            calculated;
        value           uniform (0 0 0);
    }
    endWall
    {
        type            calculated;
        value           uniform (0 0 0);
    }
    sideWall
    {
        type            empty;
    }
}


// ************************************************************************* //
