/*--------------------------------*- C++ -*----------------------------------*\
| =========                 |                                                 |
| \\      /  F ield         | foam-extend: Open Source CFD                    |
|  \\    /   O peration     | Version:     3.2                                |
|   \\  /    A nd           | Web:         http://www.foam-extend.org         |
|    \\/     M anipulation  | For copyright notice see file Copyright         |
\*---------------------------------------------------------------------------*/
FoamFile
{
    version     2.0;
    format      ascii;
    class       areaScalarField;
    location    "120";
    object      zCo;
}
// * * * * * * * * * * * * * * * * * * * * * * * * * * * * * * * * * * * * * //

dimensions      [0 1 0 0 0 0 0];

internalField   nonuniform List<scalar> 
550
(
-1.81818e-05
-5.45455e-05
-9.09091e-05
-0.000127273
-0.000163636
-0.0002
-0.000236364
-0.000272727
-0.000309091
-0.000345455
-0.000381818
-0.000418182
-0.000454545
-0.000490909
-0.000527273
-0.000563636
-0.0006
-0.000636364
-0.000672727
-0.000709091
-0.000745455
-0.000781818
-0.000818182
-0.000854545
-0.000890909
-0.000927274
-0.000963639
-0.001
-0.0010372
-0.00107273
-0.00110163
-0.00112352
-0.00114062
-0.00115616
-0.0011726
-0.0011904
-0.00120978
-0.00123064
-0.00125285
-0.00127629
-0.00130081
-0.0013263
-0.00135263
-0.0013797
-0.00140744
-0.00143581
-0.00146478
-0.00149429
-0.00152429
-0.00155472
-0.00158553
-0.00161665
-0.00164805
-0.00167969
-0.00171153
-0.00174357
-0.00177578
-0.00180818
-0.00184073
-0.00187342
-0.00190624
-0.00193919
-0.00197225
-0.00200543
-0.00203869
-0.00207204
-0.00210546
-0.00213895
-0.0021725
-0.00220611
-0.00223979
-0.00227354
-0.00230736
-0.00234125
-0.00237519
-0.00240918
-0.00244321
-0.00247727
-0.00251138
-0.00254553
-0.00257971
-0.00261391
-0.00264813
-0.00268236
-0.00271659
-0.00275083
-0.00278507
-0.00281933
-0.0028536
-0.00288788
-0.00292216
-0.00295646
-0.0029908
-0.00302517
-0.00305958
-0.00309402
-0.0031285
-0.00316302
-0.00319752
-0.00323201
-0.00326646
-0.00330087
-0.00333524
-0.00336957
-0.00340386
-0.00343811
-0.00347234
-0.00350654
-0.00354071
-0.00357487
-0.00360901
-0.00364313
-0.00367722
-0.00371129
-0.00374536
-0.00377943
-0.0038135
-0.00384757
-0.00388165
-0.00391574
-0.00394985
-0.00398397
-0.0040181
-0.00405225
-0.00408642
-0.00412061
-0.00415482
-0.00418905
-0.0042233
-0.00425758
-0.0042919
-0.00432624
-0.00436061
-0.00439502
-0.00442946
-0.00446394
-0.00449845
-0.00453301
-0.00456761
-0.00460224
-0.00463692
-0.00467164
-0.00470641
-0.00474121
-0.00477606
-0.00481096
-0.0048459
-0.00488088
-0.00491591
-0.00495098
-0.0049861
-0.00502126
-0.00505647
-0.00509172
-0.00512703
-0.00516237
-0.00519777
-0.00523321
-0.0052687
-0.00530424
-0.00533982
-0.00537546
-0.00541114
-0.00544687
-0.00548265
-0.00551847
-0.00555434
-0.00559025
-0.00562621
-0.00566221
-0.00569825
-0.00573432
-0.00577043
-0.00580657
-0.00584274
-0.00587893
-0.00591516
-0.0059514
-0.00598766
-0.00602395
-0.00606025
-0.00609658
-0.00613292
-0.00616928
-0.00620565
-0.00624205
-0.00627845
-0.00631487
-0.00635131
-0.00638775
-0.00642421
-0.00646068
-0.00649715
-0.00653364
-0.00657013
-0.00660664
-0.00664314
-0.00667966
-0.00671618
-0.00675271
-0.00678925
-0.00682578
-0.00686231
-0.00689884
-0.00693534
-0.00697183
-0.00700829
-0.00704472
-0.00708111
-0.00711748
-0.00715383
-0.00719016
-0.00722648
-0.00726279
-0.00729909
-0.00733539
-0.00737168
-0.00740796
-0.00744424
-0.00748053
-0.00751681
-0.0075531
-0.00758939
-0.00762568
-0.00766199
-0.0076983
-0.00773463
-0.00777097
-0.00780733
-0.0078437
-0.00788009
-0.0079165
-0.00795292
-0.00798936
-0.00802583
-0.00806231
-0.00809881
-0.00813533
-0.00817187
-0.00820843
-0.00824501
-0.0082816
-0.00831822
-0.00835485
-0.0083915
-0.00842817
-0.00846486
-0.00850156
-0.00853828
-0.00857502
-0.00861178
-0.00864856
-0.00868536
-0.00872217
-0.00875899
-0.00879583
-0.00883269
-0.00886956
-0.00890644
-0.00894334
-0.00898025
-0.00901718
-0.00905412
-0.00909108
-0.00912805
-0.00916505
-0.00920206
-0.0092391
-0.00927615
-0.00931323
-0.00935033
-0.00938745
-0.00942459
-0.00946176
-0.00949894
-0.00953614
-0.00957335
-0.00961057
-0.0096478
-0.00968503
-0.00972226
-0.00975948
-0.00979669
-0.00983389
-0.00987108
-0.00990825
-0.0099454
-0.00998252
-0.0100196
-0.0100567
-0.0100938
-0.0101308
-0.0101678
-0.0102048
-0.0102417
-0.0102786
-0.0103155
-0.0103524
-0.0103893
-0.0104261
-0.0104629
-0.0104997
-0.0105365
-0.0105733
-0.0106101
-0.0106469
-0.0106836
-0.0107204
-0.0107571
-0.0107938
-0.0108305
-0.0108672
-0.0109038
-0.0109405
-0.0109771
-0.0110137
-0.0110504
-0.011087
-0.0111235
-0.0111601
-0.0111967
-0.0112332
-0.0112698
-0.0113063
-0.0113428
-0.0113794
-0.0114159
-0.0114524
-0.0114889
-0.0115254
-0.0115619
-0.0115984
-0.0116349
-0.0116714
-0.0117079
-0.0117444
-0.0117808
-0.0118173
-0.0118537
-0.0118901
-0.0119265
-0.0119629
-0.0119993
-0.0120357
-0.0120721
-0.0121084
-0.0121448
-0.0121812
-0.0122175
-0.0122539
-0.0122902
-0.0123266
-0.0123629
-0.0123993
-0.0124357
-0.0124721
-0.0125085
-0.0125449
-0.0125813
-0.0126178
-0.0126542
-0.0126907
-0.0127272
-0.0127636
-0.0128001
-0.0128366
-0.0128731
-0.0129096
-0.0129461
-0.0129826
-0.013019
-0.0130555
-0.013092
-0.0131284
-0.0131649
-0.0132013
-0.0132378
-0.0132742
-0.0133107
-0.0133471
-0.0133836
-0.01342
-0.0134565
-0.013493
-0.0135295
-0.013566
-0.0136026
-0.0136391
-0.0136757
-0.0137123
-0.0137489
-0.0137856
-0.0138222
-0.0138589
-0.0138956
-0.0139324
-0.0139691
-0.0140058
-0.0140426
-0.0140794
-0.0141162
-0.014153
-0.0141898
-0.0142266
-0.0142634
-0.0143002
-0.014337
-0.0143738
-0.0144106
-0.0144473
-0.0144841
-0.0145208
-0.0145575
-0.0145943
-0.014631
-0.0146677
-0.0147043
-0.014741
-0.0147777
-0.0148144
-0.014851
-0.0148877
-0.0149244
-0.014961
-0.0149977
-0.0150344
-0.0150711
-0.0151078
-0.0151445
-0.0151812
-0.0152179
-0.0152546
-0.0152913
-0.015328
-0.0153647
-0.0154013
-0.015438
-0.0154746
-0.0155113
-0.0155479
-0.0155845
-0.0156211
-0.0156577
-0.0156942
-0.0157308
-0.0157673
-0.0158039
-0.0158404
-0.0158769
-0.0159134
-0.0159499
-0.0159864
-0.0160229
-0.0160594
-0.0160959
-0.0161324
-0.0161689
-0.0162054
-0.0162418
-0.0162783
-0.0163148
-0.0163513
-0.0163878
-0.0164243
-0.0164607
-0.0164972
-0.0165337
-0.0165701
-0.0166066
-0.016643
-0.0166794
-0.0167159
-0.0167523
-0.0167887
-0.0168251
-0.0168614
-0.0168978
-0.0169342
-0.0169706
-0.0170071
-0.0170435
-0.0170799
-0.0171164
-0.0171529
-0.0171894
-0.0172259
-0.0172624
-0.0172989
-0.0173355
-0.017372
-0.0174086
-0.0174452
-0.0174818
-0.0175185
-0.0175551
-0.0175917
-0.0176283
-0.0176649
-0.0177015
-0.0177381
-0.0177748
-0.0178114
-0.017848
-0.0178846
-0.0179212
-0.0179578
-0.0179944
-0.018031
-0.0180676
-0.0181042
-0.0181408
-0.0181773
-0.0182139
-0.0182505
-0.0182871
-0.0183237
-0.0183603
-0.0183968
-0.0184334
-0.01847
-0.0185066
-0.0185432
-0.0185797
-0.0186163
-0.0186528
-0.0186893
-0.0187258
-0.0187622
-0.0187984
-0.0188345
-0.0188702
-0.0189055
-0.0189401
-0.0189737
-0.0190059
-0.0190361
-0.0190663
-0.0190945
-0.0192367
-0.0195014
-0.0196545
-0.0196909
-0.0197273
-0.0197636
-0.0198
-0.0198364
-0.0198727
-0.0199091
-0.0199455
-0.0199818
)
;

boundaryField
{
    inlet
    {
        type            calculated;
        value           uniform 0;
    }
    endWall
    {
        type            calculated;
        value           uniform 0;
    }
    sideWall
    {
        type            empty;
    }
}


// ************************************************************************* //
