/*--------------------------------*- C++ -*----------------------------------*\
| =========                 |                                                 |
| \\      /  F ield         | foam-extend: Open Source CFD                    |
|  \\    /   O peration     | Version:     3.2                                |
|   \\  /    A nd           | Web:         http://www.foam-extend.org         |
|    \\/     M anipulation  | For copyright notice see file Copyright         |
\*---------------------------------------------------------------------------*/
FoamFile
{
    version     2.0;
    format      ascii;
    class       areaScalarField;
    location    "120";
    object      zDimA;
}
// * * * * * * * * * * * * * * * * * * * * * * * * * * * * * * * * * * * * * //

dimensions      [0 1 0 0 0 0 0];

internalField   nonuniform List<scalar> 
550
(
0.00503636
0.00503636
0.00503636
0.00503636
0.00503636
0.00503636
0.00503636
0.00503636
0.00503636
0.00503636
0.00503636
0.00503636
0.00503636
0.00503636
0.00503636
0.00503636
0.00503636
0.00503636
0.00503636
0.00503636
0.00503636
0.00503636
0.00503636
0.00503636
0.00503636
0.00503637
0.00503636
0.00503637
0.00503792
0.00503336
0.00502533
0.00501939
0.00501545
0.00501583
0.00501692
0.0050185
0.00502003
0.00502147
0.00502276
0.00502393
0.00502496
0.00502587
0.00502666
0.00502737
0.00502802
0.00502863
0.00502921
0.00502973
0.0050302
0.0050306
0.00503095
0.00503125
0.00503151
0.00503173
0.00503193
0.00503211
0.00503229
0.00503246
0.00503261
0.00503275
0.00503287
0.005033
0.00503311
0.00503322
0.0050333
0.00503338
0.00503345
0.00503351
0.00503358
0.00503364
0.00503371
0.00503378
0.00503385
0.00503391
0.00503396
0.005034
0.00503404
0.00503408
0.00503413
0.00503416
0.00503419
0.00503421
0.00503422
0.00503423
0.00503423
0.00503424
0.00503425
0.00503426
0.00503427
0.00503427
0.00503429
0.00503432
0.00503435
0.00503438
0.00503442
0.00503446
0.0050345
0.00503451
0.0050345
0.00503447
0.00503443
0.00503439
0.00503435
0.00503431
0.00503427
0.00503424
0.00503421
0.00503419
0.00503416
0.00503415
0.00503413
0.0050341
0.00503408
0.00503407
0.00503407
0.00503407
0.00503407
0.00503407
0.00503408
0.00503409
0.00503411
0.00503412
0.00503414
0.00503416
0.00503417
0.00503419
0.00503421
0.00503424
0.00503426
0.00503429
0.00503432
0.00503435
0.00503438
0.00503442
0.00503445
0.00503449
0.00503453
0.00503457
0.00503461
0.00503465
0.00503469
0.00503474
0.00503478
0.00503482
0.00503487
0.00503491
0.00503495
0.005035
0.00503505
0.00503509
0.00503513
0.00503518
0.00503523
0.00503527
0.00503532
0.00503537
0.00503541
0.00503546
0.00503551
0.00503556
0.0050356
0.00503565
0.0050357
0.00503575
0.00503579
0.00503584
0.00503589
0.00503593
0.00503597
0.00503602
0.00503605
0.00503609
0.00503612
0.00503615
0.00503618
0.00503621
0.00503623
0.00503625
0.00503627
0.00503629
0.00503631
0.00503633
0.00503635
0.00503636
0.00503638
0.0050364
0.00503641
0.00503642
0.00503644
0.00503645
0.00503646
0.00503647
0.00503648
0.00503649
0.0050365
0.0050365
0.00503651
0.00503652
0.00503652
0.00503653
0.00503653
0.00503653
0.00503653
0.00503652
0.0050365
0.00503648
0.00503644
0.00503641
0.00503638
0.00503636
0.00503634
0.00503632
0.00503631
0.0050363
0.0050363
0.00503629
0.00503629
0.00503628
0.00503628
0.00503628
0.00503628
0.00503629
0.00503629
0.0050363
0.00503631
0.00503632
0.00503633
0.00503635
0.00503636
0.00503638
0.00503639
0.00503641
0.00503643
0.00503645
0.00503647
0.00503649
0.00503651
0.00503653
0.00503655
0.00503657
0.00503658
0.0050366
0.00503662
0.00503664
0.00503666
0.00503667
0.00503669
0.00503671
0.00503673
0.00503675
0.00503677
0.00503678
0.0050368
0.00503682
0.00503683
0.00503685
0.00503686
0.00503688
0.00503689
0.0050369
0.00503692
0.00503693
0.00503695
0.00503696
0.00503698
0.005037
0.00503702
0.00503704
0.00503706
0.00503709
0.00503711
0.00503713
0.00503715
0.00503717
0.00503719
0.0050372
0.00503722
0.00503722
0.00503723
0.00503723
0.00503722
0.00503721
0.00503721
0.00503719
0.00503718
0.00503716
0.00503714
0.00503712
0.00503709
0.00503707
0.00503704
0.00503701
0.00503699
0.00503696
0.00503694
0.00503692
0.0050369
0.00503687
0.00503684
0.00503682
0.00503682
0.00503681
0.0050368
0.00503678
0.00503677
0.00503676
0.00503675
0.00503673
0.00503672
0.0050367
0.00503669
0.00503667
0.00503665
0.00503664
0.00503663
0.00503662
0.0050366
0.00503659
0.00503658
0.00503657
0.00503656
0.00503655
0.00503654
0.00503653
0.00503653
0.00503652
0.00503652
0.00503651
0.00503651
0.00503651
0.0050365
0.00503649
0.00503649
0.00503648
0.00503647
0.00503646
0.00503645
0.00503644
0.00503643
0.00503642
0.00503641
0.0050364
0.00503639
0.00503638
0.00503637
0.00503636
0.00503635
0.00503635
0.00503635
0.00503635
0.00503635
0.00503636
0.00503636
0.00503637
0.00503638
0.0050364
0.00503641
0.00503642
0.00503643
0.00503645
0.00503646
0.00503647
0.00503648
0.00503649
0.00503649
0.00503649
0.00503649
0.00503648
0.00503648
0.00503647
0.00503647
0.00503646
0.00503646
0.00503645
0.00503645
0.00503644
0.00503644
0.00503644
0.00503645
0.00503645
0.00503646
0.00503647
0.00503648
0.0050365
0.00503651
0.00503653
0.00503655
0.00503657
0.00503659
0.00503661
0.00503663
0.00503665
0.00503667
0.00503669
0.00503671
0.00503673
0.00503674
0.00503676
0.00503677
0.00503678
0.00503679
0.0050368
0.0050368
0.00503681
0.0050368
0.0050368
0.00503679
0.00503679
0.00503677
0.00503676
0.00503674
0.00503673
0.00503672
0.00503671
0.0050367
0.00503669
0.00503668
0.00503667
0.00503667
0.00503667
0.00503667
0.00503667
0.00503668
0.00503668
0.00503669
0.00503669
0.00503669
0.0050367
0.0050367
0.0050367
0.0050367
0.00503669
0.00503669
0.00503668
0.00503667
0.00503666
0.00503665
0.00503664
0.00503662
0.00503661
0.0050366
0.00503659
0.00503657
0.00503656
0.00503655
0.00503654
0.00503653
0.00503653
0.00503652
0.00503651
0.0050365
0.00503649
0.00503649
0.00503648
0.00503648
0.00503648
0.00503648
0.00503648
0.00503648
0.00503648
0.00503648
0.00503648
0.00503648
0.00503648
0.00503647
0.00503647
0.00503646
0.00503645
0.00503644
0.00503643
0.00503642
0.00503641
0.0050364
0.0050364
0.00503639
0.00503639
0.00503639
0.0050364
0.00503641
0.00503642
0.00503643
0.00503645
0.00503647
0.00503648
0.0050365
0.00503651
0.00503653
0.00503654
0.00503656
0.00503657
0.00503659
0.0050366
0.00503661
0.00503662
0.00503662
0.00503662
0.00503662
0.00503661
0.00503661
0.0050366
0.0050366
0.0050366
0.0050366
0.0050366
0.0050366
0.0050366
0.0050366
0.0050366
0.0050366
0.00503659
0.00503659
0.00503659
0.00503658
0.00503658
0.00503658
0.00503658
0.00503658
0.00503658
0.00503658
0.00503658
0.00503658
0.00503658
0.00503657
0.00503656
0.00503653
0.00503649
0.00503643
0.00503633
0.00503618
0.00503594
0.00503558
0.00503505
0.00503425
0.00503309
0.00503151
0.00502908
0.00503114
0.00502568
0.00524371
0.00526985
0.00505238
0.00503619
0.00503645
0.00503639
0.00503638
0.00503637
0.00503637
0.00503637
0.00503636
0.00503636
)
;

boundaryField
{
    inlet
    {
        type            calculated;
        value           uniform 0;
    }
    endWall
    {
        type            calculated;
        value           uniform 0;
    }
    sideWall
    {
        type            empty;
    }
}


// ************************************************************************* //
