/*--------------------------------*- C++ -*----------------------------------*\
| =========                 |                                                 |
| \\      /  F ield         | foam-extend: Open Source CFD                    |
|  \\    /   O peration     | Version:     3.2                                |
|   \\  /    A nd           | Web:         http://www.foam-extend.org         |
|    \\/     M anipulation  | For copyright notice see file Copyright         |
\*---------------------------------------------------------------------------*/
FoamFile
{
    version     2.0;
    format      ascii;
    class       areaScalarField;
    location    "2000";
    object      a;
}
// * * * * * * * * * * * * * * * * * * * * * * * * * * * * * * * * * * * * * //

dimensions      [1 -1 0 0 0 0 0];

internalField   nonuniform List<scalar> 
300
(
0.000207762
0.000207762
0.000207762
0.000207762
0.000207762
0.000207762
0.000207762
0.000207762
0.000207762
0.000207762
0.000207762
0.000207762
0.000207762
0.000207762
0.000207762
0.000207762
0.000207762
0.000207762
0.000207762
0.000207762
0.000207762
0.000207762
0.000207762
0.000207762
0.000207762
0.000207762
0.000207762
0.000207762
0.000207762
0.000207762
0.000207762
0.000207762
0.000207762
0.000207762
0.000207762
0.000207762
0.000207762
0.000207762
0.000207762
0.000207762
0.000207762
0.000207762
0.000207762
0.000207762
0.000207762
0.000207762
0.000207762
0.000207762
0.000207762
0.000207762
0.000207762
0.000207762
0.000207762
0.000207762
0.000207762
0.000207762
0.000207762
0.000207762
0.000207762
0.000207762
0.000207762
0.000207762
0.000207762
0.000207762
0.000207762
0.000207762
0.000207762
0.000207762
0.000207709
0.000207762
0.000207762
0.000207762
0.000207762
0.000207762
0.000207762
0.000207762
0.000207762
0.000207762
0.000207762
0.000207762
0.000207762
0.000207762
0.000207762
0.000207762
0.000207762
0.000207762
0.000207762
0.000207762
0.000207762
0.000207762
0.000207762
0.000207762
0.000207762
0.000207762
0.000207762
0.000207762
0.000207762
0.000207762
0.000207762
0.000207762
0.000207762
0.000207761
0.000207762
0.000207761
0.000207762
0.000207762
0.000207761
0.000207762
0.000207762
0.000207762
0.000207762
0.000207762
0.000207762
0.000207761
0.000207762
0.000207762
0.000207762
0.000207762
0.000207762
0.000207761
0.000207762
0.000207762
0.000207762
0.000207762
0.000207759
0.000207762
0.000207761
0.000207762
0.000207762
0.000207762
0.000207762
0.000207762
0.000207762
0.000207762
0.000207762
0.000207762
0.000207762
0.000207749
0.000207762
0.000207762
0.000207741
0.00020775
0.000207762
0.000207762
0.000207754
0.00020776
0.000207762
0.000207762
0.000207762
0.000207762
0.000207762
0.000207762
0.000207762
0.000207762
0.000207762
0.000207762
0.000207762
0.000207762
0.000207762
0.000207762
0.000207762
0.000207762
0.000207762
0.000207762
0.000207762
0.000207762
0.000207762
0.000207762
0.000207762
0.000207762
0.000207762
0.000207762
0.000207762
0.000207762
0.000207762
0.000207762
0.000207762
0.000207762
0.000207762
0.000207762
0.000207762
0.000207762
0.000207762
0.000207762
0.000207762
0.000207762
0.000207762
0.000207762
0.000207762
0.000207762
0.000207762
0.000207762
0.000207762
0.000207762
0.000207762
0.000207762
0.000207762
0.000207762
0.000207762
0.000207762
0.000207751
0.00020776
0.000207762
0.000207762
0.000207762
0.000207762
0.000207606
0.000207633
0.000207518
0.000207546
0.000207762
0.000207762
0.000207762
0.000207762
0.000207125
0.000207114
0.000206957
0.000206933
0.000207762
0.000207762
0.000207762
0.000207762
0.000206328
0.000206226
0.000206095
0.000205983
0.000207762
0.000207762
0.000207762
0.000207762
0.000205311
0.000205093
0.000205048
0.000204827
0.000207762
0.000207762
0.000207762
0.000207762
0.000204187
0.000203858
0.000203915
0.000203596
0.000207762
0.000207762
0.000207762
0.000207762
0.000203058
0.000202634
0.000202809
0.000202404
0.000207762
0.000207762
0.000207762
0.000207762
0.000202021
0.000201505
0.00020181
0.000201319
0.000207762
0.000207762
0.000207762
0.000207762
0.000201109
0.000200447
0.000200918
0.000200276
0.000207762
0.000207762
0.000207762
0.000207762
0.000200263
0.000199376
0.000200092
0.000199196
0.000207762
0.000207762
0.000207762
0.000207762
0.000199419
0.00019821
0.000199201
0.000197999
0.000207762
0.000207762
0.000207762
0.000207762
0.000200013
0.000195381
0.000199992
0.000196299
0.000196594
0.000196281
0.000199813
0.000197535
0.000207762
0.000207762
0.000207762
0.000207762
0.000207762
0.000207762
)
;

boundaryField
{
    inlet
    {
        type            calculated;
        value           uniform 0;
    }
    outlet
    {
        type            calculated;
        value           uniform 0;
    }
    sideWall
    {
        type            empty;
    }
}


// ************************************************************************* //
