/*--------------------------------*- C++ -*----------------------------------*\
| =========                 |                                                 |
| \\      /  F ield         | foam-extend: Open Source CFD                    |
|  \\    /   O peration     | Version:     3.2                                |
|   \\  /    A nd           | Web:         http://www.foam-extend.org         |
|    \\/     M anipulation  | For copyright notice see file Copyright         |
\*---------------------------------------------------------------------------*/
FoamFile
{
    version     2.0;
    format      ascii;
    class       surfaceScalarField;
    location    "2000";
    object      AdSS2;
}
// * * * * * * * * * * * * * * * * * * * * * * * * * * * * * * * * * * * * * //

dimensions      [0 3 -1 0 0 0 0];

internalField   nonuniform List<scalar> 
4492
(
1.71518e-05
2.97853e-06
1.40279e-05
7.54177e-07
1.2101e-05
-4.42794e-07
1.12036e-05
-1.47232e-06
1.0844e-05
-2.01007e-06
1.07123e-05
-2.23802e-06
1.06828e-05
-2.34019e-06
1.06959e-05
-2.38277e-06
1.0729e-05
-2.40278e-06
1.07721e-05
-2.41278e-06
1.08176e-05
-2.41521e-06
1.08597e-05
-2.41177e-06
1.09033e-05
-2.41331e-06
1.09462e-05
-2.41262e-06
1.09868e-05
-2.41029e-06
1.1031e-05
-2.41391e-06
1.10756e-05
-2.41423e-06
1.11202e-05
-2.41427e-06
1.11651e-05
-2.41458e-06
1.12099e-05
-2.41451e-06
1.12547e-05
-2.4145e-06
1.13017e-05
-2.41671e-06
1.13522e-05
-2.42014e-06
1.14033e-05
-2.42082e-06
1.1451e-05
-2.41742e-06
1.14944e-05
-2.41312e-06
1.1533e-05
-2.40826e-06
1.15667e-05
-2.40338e-06
1.15957e-05
-2.39869e-06
1.16206e-05
-2.39455e-06
1.1642e-05
-2.39111e-06
1.166e-05
-2.38771e-06
1.16748e-05
-2.38447e-06
1.16866e-05
-2.38154e-06
1.16962e-05
-2.37931e-06
1.17043e-05
-2.37776e-06
1.17111e-05
-2.37646e-06
1.17168e-05
-2.37542e-06
1.17217e-05
-2.37454e-06
1.17258e-05
-2.37382e-06
1.17293e-05
-2.3732e-06
1.17323e-05
-2.37269e-06
1.17348e-05
-2.37225e-06
1.1737e-05
-2.37186e-06
1.17389e-05
-2.37154e-06
1.17405e-05
-2.37128e-06
1.17418e-05
-2.37102e-06
1.1743e-05
-2.3709e-06
1.1744e-05
-2.37069e-06
1.17448e-05
-2.37052e-06
1.17456e-05
-2.3705e-06
1.17461e-05
-2.3702e-06
1.17467e-05
-2.37023e-06
1.1747e-05
-2.37002e-06
1.17475e-05
-2.37013e-06
1.17464e-05
-2.36861e-06
1.17406e-05
-2.36394e-06
1.16346e-05
-2.26364e-06
1.18132e-05
-2.54837e-06
1.34078e-05
-3.96428e-06
1.37436e-05
-2.70543e-06
1.25807e-05
-1.20686e-06
1.25627e-05
-2.3516e-06
1.2563e-05
-2.37004e-06
1.25255e-05
-2.33218e-06
1.24926e-05
-2.33679e-06
1.2471e-05
-2.34809e-06
1.24648e-05
-2.36352e-06
1.24648e-05
-2.36973e-06
1.24676e-05
-2.37243e-06
1.24699e-05
-2.37197e-06
1.24729e-05
-2.37273e-06
1.24757e-05
-2.37248e-06
1.24788e-05
-2.37284e-06
1.24816e-05
-2.37245e-06
1.24845e-05
-2.37258e-06
1.2487e-05
-2.37226e-06
1.24894e-05
-2.37202e-06
1.24913e-05
-2.37158e-06
1.24928e-05
-2.37126e-06
1.2494e-05
-2.3709e-06
1.2495e-05
-2.37068e-06
1.24957e-05
-2.37041e-06
1.24964e-05
-2.37038e-06
1.24969e-05
-2.37015e-06
1.24973e-05
-2.37012e-06
1.24977e-05
-2.3701e-06
1.2498e-05
-2.36999e-06
1.24983e-05
-2.37e-06
1.24985e-05
-2.36985e-06
1.24987e-05
-2.36989e-06
1.24987e-05
-2.36974e-06
1.24989e-05
-2.36983e-06
1.24989e-05
-2.36978e-06
1.2499e-05
-2.36979e-06
1.2499e-05
-2.36965e-06
1.24991e-05
-2.36975e-06
1.24991e-05
-2.36972e-06
1.24991e-05
-2.36975e-06
1.24992e-05
-2.36973e-06
1.24992e-05
-2.36975e-06
1.24992e-05
-2.3697e-06
1.24992e-05
-2.36962e-06
1.24992e-05
-2.3697e-06
1.24992e-05
-2.3697e-06
1.24992e-05
-2.3697e-06
1.24992e-05
-2.36972e-06
1.24992e-05
-2.36971e-06
1.24993e-05
-2.36972e-06
1.24993e-05
-2.36971e-06
1.24993e-05
-2.36972e-06
1.24992e-05
-2.36958e-06
1.24992e-05
-2.36969e-06
1.24992e-05
-2.36968e-06
1.24992e-05
-2.3697e-06
1.24992e-05
-2.36969e-06
1.24992e-05
-2.36971e-06
1.24992e-05
-2.36969e-06
1.24993e-05
-2.36972e-06
1.24993e-05
-2.36969e-06
1.24993e-05
-2.36972e-06
1.24993e-05
-2.36969e-06
1.24993e-05
-2.36973e-06
1.24993e-05
-2.36969e-06
1.24992e-05
-2.36959e-06
1.24992e-05
-2.36969e-06
1.24992e-05
-2.36966e-06
1.24992e-05
-2.36972e-06
1.24992e-05
-2.36965e-06
1.24992e-05
-2.36975e-06
1.24992e-05
-2.36963e-06
1.24993e-05
-2.36979e-06
1.24992e-05
-2.36959e-06
1.24993e-05
-2.36983e-06
1.24992e-05
-2.36955e-06
1.24993e-05
-2.36987e-06
1.24992e-05
-2.36954e-06
1.24993e-05
-2.36985e-06
1.24992e-05
-2.3696e-06
1.24992e-05
-2.3697e-06
1.24994e-05
-2.36988e-06
1.24991e-05
-2.36936e-06
1.24996e-05
-2.37015e-06
1.24989e-05
-2.36898e-06
1.24995e-05
-2.37038e-06
1.24987e-05
-2.36881e-06
1.24997e-05
-2.37072e-06
1.24984e-05
-2.36845e-06
1.24999e-05
-2.37113e-06
1.24982e-05
-2.368e-06
1.25002e-05
-2.37164e-06
1.24979e-05
-2.36745e-06
1.25005e-05
-2.37225e-06
1.24976e-05
-2.36678e-06
1.25008e-05
-2.37297e-06
1.24971e-05
-2.366e-06
1.25013e-05
-2.37381e-06
1.24967e-05
-2.3651e-06
1.25017e-05
-2.37477e-06
1.24961e-05
-2.36408e-06
1.25023e-05
-2.37585e-06
1.24955e-05
-2.36295e-06
1.25029e-05
-2.37703e-06
1.24949e-05
-2.36171e-06
1.25035e-05
-2.37831e-06
1.24942e-05
-2.36038e-06
1.25042e-05
-2.37968e-06
1.24935e-05
-2.35898e-06
1.25049e-05
-2.3811e-06
1.24927e-05
-2.35754e-06
1.25056e-05
-2.38255e-06
1.2492e-05
-2.35609e-06
1.25063e-05
-2.38399e-06
1.24914e-05
-2.35478e-06
1.25071e-05
-2.38541e-06
1.24907e-05
-2.35333e-06
1.25078e-05
-2.38672e-06
1.24901e-05
-2.35204e-06
1.25084e-05
-2.38794e-06
1.24896e-05
-2.35089e-06
1.25089e-05
-2.389e-06
1.24891e-05
-2.3499e-06
1.25093e-05
-2.38991e-06
1.24887e-05
-2.34906e-06
1.25096e-05
-2.39068e-06
1.24883e-05
-2.34837e-06
1.25099e-05
-2.3913e-06
1.24881e-05
-2.34783e-06
1.25101e-05
-2.39175e-06
1.24879e-05
-2.34746e-06
1.25102e-05
-2.39204e-06
1.24878e-05
-2.34726e-06
1.25102e-05
-2.39214e-06
1.24879e-05
-2.34737e-06
1.25103e-05
-2.39208e-06
1.24881e-05
-2.34745e-06
1.25102e-05
-2.39181e-06
1.24883e-05
-2.34778e-06
1.251e-05
-2.39138e-06
1.24886e-05
-2.34829e-06
1.25096e-05
-2.39077e-06
1.2489e-05
-2.34901e-06
1.25093e-05
-2.39e-06
1.24894e-05
-2.34986e-06
1.25088e-05
-2.38911e-06
1.24901e-05
-2.35092e-06
1.25085e-05
-2.38813e-06
1.24907e-05
-2.35189e-06
1.25081e-05
-2.38704e-06
1.24914e-05
-2.353e-06
1.25076e-05
-2.38589e-06
1.2492e-05
-2.35416e-06
1.2507e-05
-2.38469e-06
1.24927e-05
-2.35534e-06
1.25065e-05
-2.38349e-06
1.24935e-05
-2.35666e-06
1.25061e-05
-2.38232e-06
1.24942e-05
-2.3578e-06
1.25056e-05
-2.38111e-06
1.24948e-05
-2.35893e-06
1.25051e-05
-2.37992e-06
1.24954e-05
-2.36001e-06
1.25045e-05
-2.37884e-06
1.24961e-05
-2.36121e-06
1.25042e-05
-2.37785e-06
1.24967e-05
-2.36216e-06
1.25039e-05
-2.37685e-06
1.24972e-05
-2.36303e-06
1.25034e-05
-2.37588e-06
1.24975e-05
-2.36386e-06
1.2503e-05
-2.37518e-06
1.2498e-05
-2.36469e-06
1.25027e-05
-2.3744e-06
1.24985e-05
-2.36549e-06
1.25024e-05
-2.37358e-06
1.24989e-05
-2.3662e-06
1.2502e-05
-2.37274e-06
1.24992e-05
-2.36686e-06
1.25017e-05
-2.37226e-06
1.24994e-05
-2.36736e-06
1.25016e-05
-2.37187e-06
1.24997e-05
-2.36786e-06
1.25014e-05
-2.37138e-06
1.24999e-05
-2.36815e-06
1.25012e-05
-2.37101e-06
1.24999e-05
-2.36838e-06
1.25009e-05
-2.37072e-06
1.25e-05
-2.36874e-06
1.25009e-05
-2.37059e-06
1.25002e-05
-2.36906e-06
1.25009e-05
-2.3704e-06
1.25004e-05
-2.36911e-06
1.25007e-05
-2.37004e-06
1.25001e-05
-2.3691e-06
1.25004e-05
-2.37001e-06
1.25002e-05
-2.36941e-06
1.25006e-05
-2.3701e-06
1.25004e-05
-2.36955e-06
1.25007e-05
-2.36994e-06
1.25004e-05
-2.36941e-06
1.25004e-05
-2.36973e-06
1.25001e-05
-2.36942e-06
1.25003e-05
-2.36983e-06
1.25001e-05
-2.36953e-06
1.25004e-05
-2.36994e-06
1.25004e-05
-2.36968e-06
1.25006e-05
-2.36998e-06
1.25004e-05
-2.36945e-06
1.25005e-05
-2.36974e-06
1.25e-05
-2.36925e-06
1.25001e-05
-2.3698e-06
1.25001e-05
-2.36969e-06
1.25002e-05
-2.3698e-06
1.25004e-05
-2.36991e-06
1.25007e-05
-2.36994e-06
1.25004e-05
-2.36936e-06
1.25007e-05
-2.37002e-06
1.24999e-05
-2.36894e-06
1.25005e-05
-2.37023e-06
1.25001e-05
-2.36934e-06
1.25004e-05
-2.36997e-06
1.25007e-05
-2.37003e-06
1.2501e-05
-2.36994e-06
1.25011e-05
-2.36979e-06
1.24996e-05
-2.36819e-06
1.25037e-05
-2.37387e-06
1.25e-05
-2.36599e-06
1.24986e-05
-2.36824e-06
1.24918e-05
-2.36289e-06
1.25009e-05
-2.37877e-06
1.25326e-05
-2.40146e-06
1.24298e-05
-2.2668e-06
1.25524e-05
-2.49234e-06
1.24674e-05
-2.28468e-06
1.26792e-05
-2.58148e-06
1.23605e-05
-2.05104e-06
1.07078e-05
-7.16931e-07
1.11959e-05
-2.85782e-06
1.14966e-05
-2.67034e-06
-2.44304e-06
2.19836e-05
3.49492e-06
2.09465e-05
1.79132e-06
1.98344e-05
6.69222e-07
1.8948e-05
-5.85828e-07
1.83739e-05
-1.436e-06
1.80028e-05
-1.86692e-06
1.77611e-05
-2.09853e-06
1.76009e-05
-2.22251e-06
1.74895e-05
-2.29142e-06
1.74214e-05
-2.34464e-06
1.73851e-05
-2.37894e-06
1.73699e-05
-2.39659e-06
1.73722e-05
-2.41556e-06
1.73847e-05
-2.42515e-06
1.74068e-05
-2.43243e-06
1.74395e-05
-2.44658e-06
1.74798e-05
-2.45447e-06
1.75271e-05
-2.46158e-06
1.75798e-05
-2.46731e-06
1.76366e-05
-2.47128e-06
1.76962e-05
-2.47412e-06
1.77583e-05
-2.47884e-06
1.78228e-05
-2.48464e-06
1.7887e-05
-2.48504e-06
1.79472e-05
-2.47757e-06
1.80023e-05
-2.46827e-06
1.8052e-05
-2.45794e-06
1.80962e-05
-2.44757e-06
1.8135e-05
-2.43753e-06
1.8169e-05
-2.42855e-06
1.81989e-05
-2.421e-06
1.82247e-05
-2.41356e-06
1.82466e-05
-2.40636e-06
1.82648e-05
-2.39967e-06
1.82799e-05
-2.3944e-06
1.82927e-05
-2.39061e-06
1.83037e-05
-2.38745e-06
1.83131e-05
-2.38482e-06
1.83212e-05
-2.3826e-06
1.83281e-05
-2.38073e-06
1.8334e-05
-2.37912e-06
1.8339e-05
-2.37774e-06
1.83434e-05
-2.37659e-06
1.83471e-05
-2.37554e-06
1.83502e-05
-2.37472e-06
1.83529e-05
-2.37397e-06
1.83552e-05
-2.37334e-06
1.83572e-05
-2.37289e-06
1.83589e-05
-2.3724e-06
1.83605e-05
-2.37211e-06
1.83618e-05
-2.37175e-06
1.83628e-05
-2.37124e-06
1.83636e-05
-2.37099e-06
1.83643e-05
-2.3708e-06
1.83646e-05
-2.37042e-06
1.83643e-05
-2.3683e-06
1.83548e-05
-2.35438e-06
1.82582e-05
-2.16707e-06
1.84285e-05
-2.71872e-06
1.98072e-05
-5.34288e-06
2.04367e-05
-3.33499e-06
1.98314e-05
-6.01597e-07
1.97554e-05
-2.2756e-06
1.9706e-05
-2.32056e-06
1.96502e-05
-2.27638e-06
1.95814e-05
-2.26805e-06
1.95236e-05
-2.29023e-06
1.94859e-05
-2.32587e-06
1.94603e-05
-2.34412e-06
1.94434e-05
-2.35551e-06
1.9431e-05
-2.35956e-06
1.94227e-05
-2.36447e-06
1.94172e-05
-2.3669e-06
1.94139e-05
-2.36956e-06
1.94121e-05
-2.37063e-06
1.94117e-05
-2.37218e-06
1.94119e-05
-2.37249e-06
1.94127e-05
-2.37281e-06
1.94137e-05
-2.37257e-06
1.94147e-05
-2.37233e-06
1.94158e-05
-2.37191e-06
1.94167e-05
-2.37165e-06
1.94176e-05
-2.37124e-06
1.94184e-05
-2.37122e-06
1.94191e-05
-2.37082e-06
1.94197e-05
-2.37077e-06
1.94204e-05
-2.37073e-06
1.94209e-05
-2.37053e-06
1.94215e-05
-2.37055e-06
1.94218e-05
-2.37023e-06
1.94223e-05
-2.3703e-06
1.94225e-05
-2.37e-06
1.94228e-05
-2.37011e-06
1.9423e-05
-2.37003e-06
1.94233e-05
-2.37001e-06
1.94234e-05
-2.36974e-06
1.94235e-05
-2.36987e-06
1.94236e-05
-2.3698e-06
1.94237e-05
-2.36986e-06
1.94238e-05
-2.36981e-06
1.94238e-05
-2.36984e-06
1.94239e-05
-2.36977e-06
1.94239e-05
-2.3696e-06
1.94239e-05
-2.36971e-06
1.94239e-05
-2.36972e-06
1.94239e-05
-2.36972e-06
1.94239e-05
-2.36974e-06
1.9424e-05
-2.36972e-06
1.9424e-05
-2.36975e-06
1.9424e-05
-2.36974e-06
1.9424e-05
-2.36973e-06
1.9424e-05
-2.36951e-06
1.9424e-05
-2.36968e-06
1.94239e-05
-2.36965e-06
1.94239e-05
-2.3697e-06
1.94239e-05
-2.36969e-06
1.94239e-05
-2.36972e-06
1.94239e-05
-2.3697e-06
1.9424e-05
-2.36975e-06
1.9424e-05
-2.3697e-06
1.9424e-05
-2.36975e-06
1.9424e-05
-2.3697e-06
1.9424e-05
-2.36975e-06
1.9424e-05
-2.36969e-06
1.9424e-05
-2.36952e-06
1.9424e-05
-2.36968e-06
1.94239e-05
-2.36962e-06
1.94239e-05
-2.36973e-06
1.94239e-05
-2.36961e-06
1.94239e-05
-2.36978e-06
1.94239e-05
-2.36959e-06
1.94239e-05
-2.36985e-06
1.94239e-05
-2.36954e-06
1.9424e-05
-2.36992e-06
1.94239e-05
-2.36946e-06
1.9424e-05
-2.37002e-06
1.94239e-05
-2.36944e-06
1.9424e-05
-2.36994e-06
1.94241e-05
-2.36963e-06
1.9424e-05
-2.36961e-06
1.94241e-05
-2.37005e-06
1.94239e-05
-2.36913e-06
1.94242e-05
-2.37046e-06
1.94237e-05
-2.36849e-06
1.94242e-05
-2.37086e-06
1.94235e-05
-2.36816e-06
1.94243e-05
-2.37145e-06
1.94234e-05
-2.36757e-06
1.94244e-05
-2.37216e-06
1.94232e-05
-2.36682e-06
1.94246e-05
-2.37303e-06
1.94231e-05
-2.3659e-06
1.94249e-05
-2.37406e-06
1.94229e-05
-2.36477e-06
1.94252e-05
-2.37529e-06
1.94226e-05
-2.36345e-06
1.94256e-05
-2.37672e-06
1.94224e-05
-2.36193e-06
1.9426e-05
-2.37835e-06
1.94221e-05
-2.36021e-06
1.94264e-05
-2.38019e-06
1.94218e-05
-2.35829e-06
1.9427e-05
-2.38222e-06
1.94214e-05
-2.35618e-06
1.94275e-05
-2.3844e-06
1.94211e-05
-2.35392e-06
1.94281e-05
-2.38673e-06
1.94207e-05
-2.35154e-06
1.94288e-05
-2.38917e-06
1.94203e-05
-2.34908e-06
1.94294e-05
-2.39166e-06
1.94199e-05
-2.34658e-06
1.94301e-05
-2.39416e-06
1.94196e-05
-2.34434e-06
1.94308e-05
-2.39663e-06
1.94194e-05
-2.34186e-06
1.94315e-05
-2.3989e-06
1.94191e-05
-2.33959e-06
1.94322e-05
-2.401e-06
1.94189e-05
-2.33757e-06
1.94328e-05
-2.40292e-06
1.94186e-05
-2.33573e-06
1.94332e-05
-2.40455e-06
1.94184e-05
-2.33424e-06
1.94336e-05
-2.40588e-06
1.94183e-05
-2.33303e-06
1.94339e-05
-2.40695e-06
1.94182e-05
-2.33209e-06
1.94342e-05
-2.40773e-06
1.94181e-05
-2.33143e-06
1.94343e-05
-2.40822e-06
1.94181e-05
-2.33108e-06
1.94344e-05
-2.40841e-06
1.94183e-05
-2.33125e-06
1.94345e-05
-2.40831e-06
1.94185e-05
-2.33139e-06
1.94345e-05
-2.40785e-06
1.94186e-05
-2.33192e-06
1.94344e-05
-2.40711e-06
1.94189e-05
-2.33278e-06
1.94341e-05
-2.40605e-06
1.94191e-05
-2.33399e-06
1.94338e-05
-2.40473e-06
1.94194e-05
-2.33542e-06
1.94335e-05
-2.40319e-06
1.94198e-05
-2.33726e-06
1.94332e-05
-2.40154e-06
1.94203e-05
-2.33894e-06
1.94329e-05
-2.39965e-06
1.94207e-05
-2.34083e-06
1.94325e-05
-2.39766e-06
1.94211e-05
-2.3428e-06
1.94321e-05
-2.3956e-06
1.94215e-05
-2.34482e-06
1.94316e-05
-2.39353e-06
1.9422e-05
-2.3471e-06
1.94312e-05
-2.39155e-06
1.94225e-05
-2.34906e-06
1.94308e-05
-2.38946e-06
1.94229e-05
-2.35098e-06
1.94304e-05
-2.3874e-06
1.94232e-05
-2.35283e-06
1.94299e-05
-2.38553e-06
1.94236e-05
-2.35491e-06
1.94296e-05
-2.38384e-06
1.9424e-05
-2.35658e-06
1.94292e-05
-2.38208e-06
1.94243e-05
-2.35808e-06
1.94288e-05
-2.38037e-06
1.94244e-05
-2.3595e-06
1.94284e-05
-2.37919e-06
1.94247e-05
-2.36099e-06
1.94282e-05
-2.37786e-06
1.9425e-05
-2.36233e-06
1.94279e-05
-2.37646e-06
1.94252e-05
-2.36357e-06
1.94273e-05
-2.37478e-06
1.94253e-05
-2.36491e-06
1.9427e-05
-2.37397e-06
1.94255e-05
-2.36578e-06
1.94269e-05
-2.37333e-06
1.94257e-05
-2.3666e-06
1.94268e-05
-2.37247e-06
1.94256e-05
-2.36703e-06
1.94265e-05
-2.37183e-06
1.94255e-05
-2.36744e-06
1.94262e-05
-2.37141e-06
1.94256e-05
-2.3681e-06
1.94262e-05
-2.37123e-06
1.94258e-05
-2.36865e-06
1.94262e-05
-2.37083e-06
1.94258e-05
-2.36865e-06
1.94259e-05
-2.37018e-06
1.94254e-05
-2.36863e-06
1.94257e-05
-2.37025e-06
1.94255e-05
-2.36927e-06
1.94259e-05
-2.37049e-06
1.94259e-05
-2.36952e-06
1.9426e-05
-2.37006e-06
1.94257e-05
-2.36911e-06
1.94256e-05
-2.36962e-06
1.94253e-05
-2.36911e-06
1.94254e-05
-2.36997e-06
1.94254e-05
-2.36948e-06
1.94257e-05
-2.37029e-06
1.94259e-05
-2.36985e-06
1.94261e-05
-2.37014e-06
1.94258e-05
-2.36915e-06
1.94256e-05
-2.36957e-06
1.94251e-05
-2.36872e-06
1.94252e-05
-2.36989e-06
1.94253e-05
-2.36984e-06
1.94257e-05
-2.37018e-06
1.94261e-05
-2.37032e-06
1.94263e-05
-2.37013e-06
1.9426e-05
-2.36902e-06
1.94258e-05
-2.36983e-06
1.94249e-05
-2.36805e-06
1.94253e-05
-2.37063e-06
1.94254e-05
-2.36945e-06
1.94262e-05
-2.37074e-06
1.94269e-05
-2.37081e-06
1.94269e-05
-2.36985e-06
1.94264e-05
-2.3693e-06
1.94255e-05
-2.36733e-06
1.94285e-05
-2.3769e-06
1.9426e-05
-2.36349e-06
1.94234e-05
-2.36557e-06
1.94256e-05
-2.36509e-06
1.943e-05
-2.38319e-06
1.94396e-05
-2.4111e-06
1.93742e-05
-2.20134e-06
1.94609e-05
-2.57906e-06
1.94142e-05
-2.23799e-06
1.95758e-05
-2.74314e-06
1.92068e-05
-1.68201e-06
1.78322e-05
6.57704e-07
1.8e-05
-3.02563e-06
1.81215e-05
-2.79181e-06
-2.48328e-06
2.32751e-05
2.71983e-06
2.35716e-05
1.4948e-06
2.34021e-05
8.38783e-07
2.29418e-05
-1.25602e-07
2.2413e-05
-9.07143e-07
2.19499e-05
-1.40388e-06
2.15928e-05
-1.74139e-06
2.13185e-05
-1.94819e-06
2.1106e-05
-2.07892e-06
2.09557e-05
-2.19437e-06
2.08529e-05
-2.2761e-06
2.07828e-05
-2.32652e-06
2.07414e-05
-2.37418e-06
2.07254e-05
-2.40917e-06
2.07285e-05
-2.43552e-06
2.0746e-05
-2.46404e-06
2.0777e-05
-2.48552e-06
2.08196e-05
-2.50418e-06
2.08705e-05
-2.51819e-06
2.09279e-05
-2.52864e-06
2.09892e-05
-2.53543e-06
2.1052e-05
-2.54166e-06
2.11155e-05
-2.54812e-06
2.11777e-05
-2.5472e-06
2.12357e-05
-2.53557e-06
2.12888e-05
-2.52141e-06
2.13367e-05
-2.50587e-06
2.13795e-05
-2.4903e-06
2.14171e-05
-2.47519e-06
2.14502e-05
-2.46161e-06
2.14793e-05
-2.45015e-06
2.15046e-05
-2.43886e-06
2.15261e-05
-2.42785e-06
2.1544e-05
-2.41754e-06
2.15589e-05
-2.40934e-06
2.15717e-05
-2.40335e-06
2.15826e-05
-2.39838e-06
2.1592e-05
-2.39419e-06
2.16e-05
-2.39065e-06
2.16069e-05
-2.38761e-06
2.16128e-05
-2.38502e-06
2.16178e-05
-2.38278e-06
2.16221e-05
-2.38091e-06
2.16258e-05
-2.37922e-06
2.1629e-05
-2.37788e-06
2.16317e-05
-2.37665e-06
2.1634e-05
-2.37564e-06
2.16359e-05
-2.37486e-06
2.16376e-05
-2.3741e-06
2.16392e-05
-2.37368e-06
2.16405e-05
-2.373e-06
2.16415e-05
-2.37227e-06
2.16423e-05
-2.37179e-06
2.1643e-05
-2.37149e-06
2.16435e-05
-2.37097e-06
2.16432e-05
-2.368e-06
2.16391e-05
-2.35027e-06
2.15819e-05
-2.10987e-06
2.17025e-05
-2.83928e-06
2.27029e-05
-6.34336e-06
2.33066e-05
-3.93868e-06
2.30361e-05
-3.31034e-07
2.29719e-05
-2.21145e-06
2.29325e-05
-2.2811e-06
2.28867e-05
-2.23059e-06
2.28255e-05
-2.20693e-06
2.27699e-05
-2.23463e-06
2.27297e-05
-2.2856e-06
2.27001e-05
-2.31458e-06
2.26792e-05
-2.33458e-06
2.26636e-05
-2.34396e-06
2.26525e-05
-2.35332e-06
2.26445e-05
-2.35893e-06
2.26391e-05
-2.36421e-06
2.26356e-05
-2.3671e-06
2.26336e-05
-2.37021e-06
2.26327e-05
-2.37155e-06
2.26325e-05
-2.37261e-06
2.26327e-05
-2.3728e-06
2.26332e-05
-2.37282e-06
2.26338e-05
-2.3725e-06
2.26344e-05
-2.37229e-06
2.26351e-05
-2.37185e-06
2.26357e-05
-2.37186e-06
2.26363e-05
-2.37139e-06
2.26368e-05
-2.37133e-06
2.26374e-05
-2.37128e-06
2.26379e-05
-2.37103e-06
2.26384e-05
-2.37105e-06
2.26388e-05
-2.37062e-06
2.26391e-05
-2.37069e-06
2.26394e-05
-2.37028e-06
2.26397e-05
-2.37039e-06
2.264e-05
-2.37028e-06
2.26402e-05
-2.37024e-06
2.26403e-05
-2.36987e-06
2.26404e-05
-2.37001e-06
2.26405e-05
-2.3699e-06
2.26406e-05
-2.36996e-06
2.26407e-05
-2.3699e-06
2.26408e-05
-2.36992e-06
2.26409e-05
-2.36984e-06
2.26409e-05
-2.36961e-06
2.26409e-05
-2.36972e-06
2.26409e-05
-2.36973e-06
2.26409e-05
-2.36973e-06
2.2641e-05
-2.36976e-06
2.2641e-05
-2.36974e-06
2.2641e-05
-2.36978e-06
2.2641e-05
-2.36976e-06
2.2641e-05
-2.36975e-06
2.2641e-05
-2.36947e-06
2.2641e-05
-2.36966e-06
2.2641e-05
-2.36963e-06
2.26409e-05
-2.3697e-06
2.26409e-05
-2.36968e-06
2.26409e-05
-2.36973e-06
2.26409e-05
-2.3697e-06
2.2641e-05
-2.36976e-06
2.2641e-05
-2.3697e-06
2.2641e-05
-2.36977e-06
2.2641e-05
-2.36971e-06
2.2641e-05
-2.36977e-06
2.2641e-05
-2.3697e-06
2.2641e-05
-2.36948e-06
2.2641e-05
-2.36966e-06
2.26409e-05
-2.36958e-06
2.26409e-05
-2.36973e-06
2.26409e-05
-2.36958e-06
2.26409e-05
-2.3698e-06
2.26409e-05
-2.36956e-06
2.26409e-05
-2.36988e-06
2.26409e-05
-2.36952e-06
2.2641e-05
-2.36996e-06
2.26409e-05
-2.36943e-06
2.2641e-05
-2.3701e-06
2.2641e-05
-2.36938e-06
2.2641e-05
-2.37e-06
2.26411e-05
-2.36967e-06
2.2641e-05
-2.36952e-06
2.26411e-05
-2.37017e-06
2.2641e-05
-2.369e-06
2.26411e-05
-2.37065e-06
2.26409e-05
-2.36821e-06
2.26411e-05
-2.37111e-06
2.26407e-05
-2.36778e-06
2.26411e-05
-2.37185e-06
2.26407e-05
-2.36708e-06
2.26412e-05
-2.37272e-06
2.26406e-05
-2.36618e-06
2.26414e-05
-2.3738e-06
2.26405e-05
-2.36506e-06
2.26415e-05
-2.37507e-06
2.26405e-05
-2.3637e-06
2.26417e-05
-2.37657e-06
2.26404e-05
-2.3621e-06
2.2642e-05
-2.37832e-06
2.26403e-05
-2.36025e-06
2.26423e-05
-2.38032e-06
2.26402e-05
-2.35815e-06
2.26426e-05
-2.38256e-06
2.26401e-05
-2.35582e-06
2.26429e-05
-2.38504e-06
2.264e-05
-2.35326e-06
2.26433e-05
-2.38771e-06
2.26399e-05
-2.35052e-06
2.26437e-05
-2.39055e-06
2.26398e-05
-2.34762e-06
2.26442e-05
-2.39353e-06
2.26397e-05
-2.34463e-06
2.26446e-05
-2.39656e-06
2.26396e-05
-2.34158e-06
2.26451e-05
-2.39963e-06
2.26396e-05
-2.33885e-06
2.26456e-05
-2.40266e-06
2.26396e-05
-2.33585e-06
2.26462e-05
-2.40543e-06
2.26396e-05
-2.33307e-06
2.26466e-05
-2.40799e-06
2.26397e-05
-2.33059e-06
2.26471e-05
-2.41032e-06
2.26397e-05
-2.32833e-06
2.26474e-05
-2.41231e-06
2.26396e-05
-2.32647e-06
2.26477e-05
-2.41396e-06
2.26396e-05
-2.32495e-06
2.2648e-05
-2.41529e-06
2.26397e-05
-2.32375e-06
2.26482e-05
-2.41628e-06
2.26397e-05
-2.3229e-06
2.26484e-05
-2.41691e-06
2.26397e-05
-2.32241e-06
2.26485e-05
-2.41718e-06
2.26398e-05
-2.32257e-06
2.26486e-05
-2.41713e-06
2.26399e-05
-2.32272e-06
2.26487e-05
-2.41658e-06
2.264e-05
-2.3233e-06
2.26486e-05
-2.4157e-06
2.26401e-05
-2.32428e-06
2.26485e-05
-2.41443e-06
2.26402e-05
-2.3257e-06
2.26484e-05
-2.41285e-06
2.26404e-05
-2.32742e-06
2.26482e-05
-2.41099e-06
2.26405e-05
-2.32965e-06
2.2648e-05
-2.40902e-06
2.26408e-05
-2.3317e-06
2.26478e-05
-2.40671e-06
2.2641e-05
-2.33398e-06
2.26476e-05
-2.40427e-06
2.26412e-05
-2.33637e-06
2.26473e-05
-2.40173e-06
2.26413e-05
-2.33883e-06
2.2647e-05
-2.39919e-06
2.26415e-05
-2.34163e-06
2.26467e-05
-2.39679e-06
2.26418e-05
-2.34407e-06
2.26465e-05
-2.39418e-06
2.26419e-05
-2.34644e-06
2.26461e-05
-2.39158e-06
2.26421e-05
-2.34878e-06
2.26457e-05
-2.38917e-06
2.26423e-05
-2.35147e-06
2.26454e-05
-2.38701e-06
2.26426e-05
-2.35373e-06
2.26451e-05
-2.38463e-06
2.26427e-05
-2.35565e-06
2.26448e-05
-2.38242e-06
2.26427e-05
-2.3574e-06
2.26444e-05
-2.38097e-06
2.26428e-05
-2.35937e-06
2.26444e-05
-2.3794e-06
2.2643e-05
-2.36095e-06
2.26442e-05
-2.37769e-06
2.26429e-05
-2.36224e-06
2.26439e-05
-2.37576e-06
2.26427e-05
-2.36374e-06
2.26436e-05
-2.37492e-06
2.26428e-05
-2.36492e-06
2.26437e-05
-2.37421e-06
2.2643e-05
-2.36595e-06
2.26436e-05
-2.37301e-06
2.26428e-05
-2.36631e-06
2.26432e-05
-2.37215e-06
2.26425e-05
-2.3668e-06
2.26429e-05
-2.37181e-06
2.26426e-05
-2.36783e-06
2.26431e-05
-2.37171e-06
2.2643e-05
-2.36853e-06
2.26432e-05
-2.37101e-06
2.26428e-05
-2.36825e-06
2.26427e-05
-2.37005e-06
2.26422e-05
-2.36818e-06
2.26424e-05
-2.37042e-06
2.26425e-05
-2.36935e-06
2.26429e-05
-2.37094e-06
2.26431e-05
-2.36974e-06
2.26431e-05
-2.37006e-06
2.26428e-05
-2.36875e-06
2.26424e-05
-2.36924e-06
2.26419e-05
-2.36864e-06
2.26421e-05
-2.3701e-06
2.26422e-05
-2.36965e-06
2.26428e-05
-2.37087e-06
2.26433e-05
-2.37038e-06
2.26434e-05
-2.37018e-06
2.26429e-05
-2.36868e-06
2.26423e-05
-2.36898e-06
2.26415e-05
-2.36793e-06
2.26416e-05
-2.36997e-06
2.2642e-05
-2.37031e-06
2.26429e-05
-2.37101e-06
2.26437e-05
-2.37119e-06
2.26439e-05
-2.37029e-06
2.26432e-05
-2.36837e-06
2.26424e-05
-2.36896e-06
2.26411e-05
-2.36677e-06
2.26412e-05
-2.37076e-06
2.2642e-05
-2.37023e-06
2.26437e-05
-2.37242e-06
2.26452e-05
-2.37229e-06
2.26447e-05
-2.3694e-06
2.26436e-05
-2.36818e-06
2.26427e-05
-2.36648e-06
2.26446e-05
-2.37871e-06
2.26431e-05
-2.36207e-06
2.26414e-05
-2.36383e-06
2.26442e-05
-2.36791e-06
2.26427e-05
-2.38168e-06
2.26477e-05
-2.41605e-06
2.26167e-05
-2.17042e-06
2.26628e-05
-2.62511e-06
2.26374e-05
-2.21258e-06
2.26743e-05
-2.78005e-06
2.24571e-05
-1.4648e-06
2.15676e-05
1.54714e-06
2.14719e-05
-2.92984e-06
2.14901e-05
-2.81004e-06
-2.49343e-06
2.35087e-05
1.71113e-06
2.41984e-05
8.05112e-07
2.4683e-05
3.54167e-07
2.48476e-05
-2.90225e-07
2.47726e-05
-8.32112e-07
2.45545e-05
-1.18575e-06
2.42669e-05
-1.4538e-06
2.39811e-05
-1.66245e-06
2.37367e-05
-1.83451e-06
2.35377e-05
-1.99538e-06
2.33769e-05
-2.11524e-06
2.32506e-05
-2.20023e-06
2.31603e-05
-2.28384e-06
2.31024e-05
-2.35133e-06
2.30705e-05
-2.40365e-06
2.30618e-05
-2.45527e-06
2.30702e-05
-2.49397e-06
2.30932e-05
-2.52719e-06
2.31291e-05
-2.55403e-06
2.31736e-05
-2.57313e-06
2.32237e-05
-2.58553e-06
2.32746e-05
-2.59261e-06
2.33237e-05
-2.59723e-06
2.33703e-05
-2.59375e-06
2.3413e-05
-2.57831e-06
2.34517e-05
-2.56008e-06
2.34862e-05
-2.54039e-06
2.35167e-05
-2.52078e-06
2.35433e-05
-2.5018e-06
2.35665e-05
-2.48484e-06
2.35869e-05
-2.47056e-06
2.36045e-05
-2.45645e-06
2.36193e-05
-2.44266e-06
2.36315e-05
-2.42973e-06
2.36417e-05
-2.4195e-06
2.36504e-05
-2.41207e-06
2.36579e-05
-2.40588e-06
2.36643e-05
-2.40062e-06
2.36698e-05
-2.39616e-06
2.36745e-05
-2.39232e-06
2.36786e-05
-2.38905e-06
2.3682e-05
-2.38621e-06
2.36849e-05
-2.38384e-06
2.36875e-05
-2.38172e-06
2.36896e-05
-2.38002e-06
2.36914e-05
-2.37847e-06
2.3693e-05
-2.3772e-06
2.36943e-05
-2.37621e-06
2.36955e-05
-2.37525e-06
2.36965e-05
-2.37472e-06
2.36974e-05
-2.37383e-06
2.3698e-05
-2.37293e-06
2.36986e-05
-2.37238e-06
2.36991e-05
-2.37195e-06
2.36995e-05
-2.37145e-06
2.36995e-05
-2.36797e-06
2.37003e-05
-2.3511e-06
2.37e-05
-2.1095e-06
2.37611e-05
-2.90038e-06
2.42319e-05
-6.8142e-06
2.46227e-05
-4.32948e-06
2.46218e-05
-3.30148e-07
2.46009e-05
-2.19052e-06
2.45889e-05
-2.26908e-06
2.4569e-05
-2.21072e-06
2.45367e-05
-2.17462e-06
2.45032e-05
-2.20111e-06
2.44756e-05
-2.25803e-06
2.44536e-05
-2.29257e-06
2.44368e-05
-2.31784e-06
2.44239e-05
-2.33101e-06
2.4414e-05
-2.34347e-06
2.44066e-05
-2.35148e-06
2.44011e-05
-2.35875e-06
2.43972e-05
-2.36315e-06
2.43944e-05
-2.36748e-06
2.43926e-05
-2.36976e-06
2.43916e-05
-2.37152e-06
2.4391e-05
-2.3722e-06
2.43907e-05
-2.37255e-06
2.43906e-05
-2.37244e-06
2.43907e-05
-2.37236e-06
2.43909e-05
-2.37201e-06
2.43911e-05
-2.37208e-06
2.43913e-05
-2.37163e-06
2.43916e-05
-2.37158e-06
2.43918e-05
-2.37155e-06
2.43921e-05
-2.37131e-06
2.43924e-05
-2.37134e-06
2.43927e-05
-2.37087e-06
2.43929e-05
-2.37094e-06
2.43931e-05
-2.37047e-06
2.43933e-05
-2.37058e-06
2.43935e-05
-2.37045e-06
2.43936e-05
-2.3704e-06
2.43937e-05
-2.36997e-06
2.43938e-05
-2.3701e-06
2.43939e-05
-2.36998e-06
2.4394e-05
-2.37004e-06
2.4394e-05
-2.36996e-06
2.43941e-05
-2.36998e-06
2.43942e-05
-2.3699e-06
2.43942e-05
-2.36963e-06
2.43942e-05
-2.36973e-06
2.43942e-05
-2.36974e-06
2.43942e-05
-2.36974e-06
2.43942e-05
-2.36977e-06
2.43942e-05
-2.36976e-06
2.43943e-05
-2.36979e-06
2.43943e-05
-2.36977e-06
2.43943e-05
-2.36976e-06
2.43943e-05
-2.36946e-06
2.43943e-05
-2.36965e-06
2.43943e-05
-2.36961e-06
2.43942e-05
-2.36969e-06
2.43942e-05
-2.36967e-06
2.43942e-05
-2.36973e-06
2.43942e-05
-2.36971e-06
2.43942e-05
-2.36977e-06
2.43943e-05
-2.36971e-06
2.43943e-05
-2.36979e-06
2.43943e-05
-2.36972e-06
2.43943e-05
-2.36977e-06
2.43943e-05
-2.36971e-06
2.43943e-05
-2.36947e-06
2.43943e-05
-2.36964e-06
2.43942e-05
-2.36956e-06
2.43942e-05
-2.36973e-06
2.43942e-05
-2.36957e-06
2.43942e-05
-2.3698e-06
2.43942e-05
-2.36956e-06
2.43942e-05
-2.36989e-06
2.43942e-05
-2.36952e-06
2.43942e-05
-2.36998e-06
2.43942e-05
-2.36943e-06
2.43943e-05
-2.37013e-06
2.43942e-05
-2.36937e-06
2.43943e-05
-2.37003e-06
2.43943e-05
-2.3697e-06
2.43943e-05
-2.36948e-06
2.43943e-05
-2.37023e-06
2.43943e-05
-2.36896e-06
2.43943e-05
-2.37071e-06
2.43942e-05
-2.36812e-06
2.43943e-05
-2.37118e-06
2.43942e-05
-2.36766e-06
2.43943e-05
-2.37196e-06
2.43942e-05
-2.36694e-06
2.43943e-05
-2.37289e-06
2.43942e-05
-2.36601e-06
2.43944e-05
-2.37402e-06
2.43942e-05
-2.36485e-06
2.43945e-05
-2.37535e-06
2.43942e-05
-2.36343e-06
2.43946e-05
-2.37693e-06
2.43942e-05
-2.36177e-06
2.43947e-05
-2.37877e-06
2.43943e-05
-2.35985e-06
2.43948e-05
-2.38086e-06
2.43943e-05
-2.35767e-06
2.4395e-05
-2.3832e-06
2.43944e-05
-2.35524e-06
2.43951e-05
-2.38579e-06
2.43944e-05
-2.35258e-06
2.43953e-05
-2.38858e-06
2.43945e-05
-2.34973e-06
2.43955e-05
-2.39154e-06
2.43946e-05
-2.34672e-06
2.43957e-05
-2.39464e-06
2.43947e-05
-2.34362e-06
2.43959e-05
-2.39779e-06
2.43948e-05
-2.34046e-06
2.43962e-05
-2.40098e-06
2.4395e-05
-2.33764e-06
2.43965e-05
-2.40416e-06
2.43951e-05
-2.33453e-06
2.43967e-05
-2.40702e-06
2.43953e-05
-2.33165e-06
2.4397e-05
-2.40966e-06
2.43955e-05
-2.32908e-06
2.43972e-05
-2.41205e-06
2.43956e-05
-2.32674e-06
2.43974e-05
-2.41409e-06
2.43957e-05
-2.32482e-06
2.43976e-05
-2.41578e-06
2.43959e-05
-2.32325e-06
2.43977e-05
-2.41714e-06
2.4396e-05
-2.32201e-06
2.43978e-05
-2.41814e-06
2.43961e-05
-2.32113e-06
2.43979e-05
-2.41876e-06
2.43961e-05
-2.32064e-06
2.4398e-05
-2.41901e-06
2.43962e-05
-2.32083e-06
2.4398e-05
-2.41894e-06
2.43963e-05
-2.32103e-06
2.43981e-05
-2.41832e-06
2.43964e-05
-2.32165e-06
2.43981e-05
-2.41735e-06
2.43965e-05
-2.32269e-06
2.4398e-05
-2.41597e-06
2.43965e-05
-2.32418e-06
2.4398e-05
-2.4143e-06
2.43965e-05
-2.32596e-06
2.43979e-05
-2.41238e-06
2.43965e-05
-2.32827e-06
2.43978e-05
-2.41034e-06
2.43965e-05
-2.33041e-06
2.43978e-05
-2.40795e-06
2.43966e-05
-2.33276e-06
2.43977e-05
-2.4054e-06
2.43966e-05
-2.33522e-06
2.43976e-05
-2.40276e-06
2.43965e-05
-2.33776e-06
2.43975e-05
-2.40014e-06
2.43965e-05
-2.34067e-06
2.43974e-05
-2.39767e-06
2.43965e-05
-2.3432e-06
2.43973e-05
-2.39496e-06
2.43965e-05
-2.34561e-06
2.43971e-05
-2.39225e-06
2.43964e-05
-2.34801e-06
2.4397e-05
-2.38979e-06
2.43963e-05
-2.35082e-06
2.43969e-05
-2.38761e-06
2.43964e-05
-2.35316e-06
2.43968e-05
-2.38512e-06
2.43963e-05
-2.35506e-06
2.43966e-05
-2.38277e-06
2.43961e-05
-2.35686e-06
2.43965e-05
-2.38137e-06
2.43961e-05
-2.35899e-06
2.43965e-05
-2.37982e-06
2.43962e-05
-2.36065e-06
2.43964e-05
-2.37793e-06
2.4396e-05
-2.3618e-06
2.43961e-05
-2.3759e-06
2.43957e-05
-2.36327e-06
2.4396e-05
-2.37521e-06
2.43957e-05
-2.36472e-06
2.43961e-05
-2.37459e-06
2.4396e-05
-2.36585e-06
2.43961e-05
-2.3731e-06
2.43958e-05
-2.36595e-06
2.43956e-05
-2.37203e-06
2.43953e-05
-2.36642e-06
2.43954e-05
-2.37197e-06
2.43955e-05
-2.36787e-06
2.43958e-05
-2.37209e-06
2.4396e-05
-2.36871e-06
2.4396e-05
-2.37097e-06
2.43956e-05
-2.36792e-06
2.43953e-05
-2.36967e-06
2.43948e-05
-2.36775e-06
2.4395e-05
-2.37055e-06
2.43952e-05
-2.36961e-06
2.43958e-05
-2.37149e-06
2.43962e-05
-2.37017e-06
2.43961e-05
-2.36995e-06
2.43957e-05
-2.36833e-06
2.4395e-05
-2.36861e-06
2.43944e-05
-2.36803e-06
2.43946e-05
-2.37023e-06
2.43949e-05
-2.37001e-06
2.43957e-05
-2.37167e-06
2.43966e-05
-2.37124e-06
2.43965e-05
-2.37011e-06
2.43959e-05
-2.36802e-06
2.43949e-05
-2.36801e-06
2.43938e-05
-2.36688e-06
2.43939e-05
-2.37002e-06
2.43946e-05
-2.37106e-06
2.43959e-05
-2.37225e-06
2.43972e-05
-2.37251e-06
2.43973e-05
-2.3704e-06
2.43963e-05
-2.36741e-06
2.43948e-05
-2.36744e-06
2.43931e-05
-2.36504e-06
2.4393e-05
-2.37065e-06
2.43944e-05