/*--------------------------------*- C++ -*----------------------------------*\
| =========                 |                                                 |
| \\      /  F ield         | foam-extend: Open Source CFD                    |
|  \\    /   O peration     | Version:     3.2                                |
|   \\  /    A nd           | Web:         http://www.foam-extend.org         |
|    \\/     M anipulation  | For copyright notice see file Copyright         |
\*---------------------------------------------------------------------------*/
FoamFile
{
    version     2.0;
    format      ascii;
    class       areaVectorField;
    location    "2000";
    object      aMeshCentreN;
}
// * * * * * * * * * * * * * * * * * * * * * * * * * * * * * * * * * * * * * //

dimensions      [0 0 0 0 0 0 0];

internalField   nonuniform List<vector> 
300
(
(0.025 0.01 -0.000125)
(0.075 0.01 -0.000375)
(0.125 0.01 -0.000625)
(0.175 0.01 -0.000875)
(0.225 0.01 -0.001125)
(0.275 0.01 -0.001375)
(0.325 0.01 -0.001625)
(0.375 0.01 -0.001875)
(0.425 0.01 -0.002125)
(0.475 0.01 -0.002375)
(0.525 0.01 -0.002625)
(0.575 0.01 -0.002875)
(0.625 0.01 -0.003125)
(0.675 0.01 -0.003375)
(0.725 0.01 -0.003625)
(0.775 0.01 -0.003875)
(0.825 0.01 -0.004125)
(0.875 0.01 -0.004375)
(0.925 0.01 -0.004625)
(0.975 0.01 -0.004875)
(1.025 0.01 -0.005125)
(1.075 0.01 -0.005375)
(1.125 0.01 -0.005625)
(1.175 0.01 -0.005875)
(1.225 0.01 -0.006125)
(1.275 0.01 -0.006375)
(1.325 0.01 -0.006625)
(1.375 0.01 -0.006875)
(1.425 0.01 -0.007125)
(1.475 0.01 -0.007375)
(1.525 0.01 -0.007625)
(1.575 0.01 -0.007875)
(1.625 0.01 -0.008125)
(1.675 0.01 -0.008375)
(1.725 0.01 -0.008625)
(1.775 0.01 -0.008875)
(1.825 0.01 -0.009125)
(1.875 0.01 -0.009375)
(1.925 0.01 -0.009625)
(1.975 0.01 -0.009875)
(2.025 0.01 -0.010125)
(2.075 0.01 -0.010375)
(2.125 0.01 -0.010625)
(2.175 0.01 -0.010875)
(2.225 0.01 -0.011125)
(2.275 0.01 -0.011375)
(2.325 0.01 -0.011625)
(2.375 0.01 -0.011875)
(2.425 0.01 -0.012125)
(2.475 0.01 -0.012375)
(2.525 0.01 -0.012625)
(2.575 0.01 -0.012875)
(2.625 0.01 -0.013125)
(2.675 0.01 -0.013375)
(2.725 0.01 -0.013625)
(2.775 0.01 -0.013875)
(2.825 0.01 -0.014125)
(2.875 0.01 -0.014375)
(2.925 0.01 -0.014625)
(2.975 0.01 -0.0142194)
(3.025 0.01 -0.013419)
(3.075 0.01 -0.0135149)
(3.125 0.01 -0.0139829)
(3.175 0.01 -0.01421)
(3.225 0.01 -0.0144701)
(3.275 0.01 -0.0147486)
(3.325 0.01 -0.0150352)
(3.375 0.01 -0.0153184)
(3.425 0.01 -0.0155956)
(3.475 0.01 -0.0158678)
(3.525 0.01 -0.0161364)
(3.575 0.01 -0.0164023)
(3.625 0.01 -0.0166656)
(3.675 0.01 -0.0169265)
(3.725 0.01 -0.0171853)
(3.775 0.01 -0.0174423)
(3.825 0.01 -0.0176978)
(3.875 0.01 -0.0179519)
(3.925 0.01 -0.018205)
(3.975 0.01 -0.0184574)
(4.025 0.01 -0.0187091)
(4.075 0.01 -0.0189605)
(4.125 0.01 -0.0192114)
(4.175 0.01 -0.0194621)
(4.225 0.01 -0.0197125)
(4.275 0.01 -0.0199628)
(4.325 0.01 -0.0202128)
(4.375 0.01 -0.0204628)
(4.425 0.01 -0.0207127)
(4.475 0.01 -0.0209625)
(4.525 0.01 -0.0212123)
(4.575 0.01 -0.0214621)
(4.625 0.01 -0.0217119)
(4.675 0.01 -0.0219617)
(4.725 0.01 -0.0222115)
(4.775 0.01 -0.0224613)
(4.825 0.01 -0.0227112)
(4.875 0.01 -0.0229611)
(4.925 0.01 -0.023211)
(4.975 0.01 -0.0234609)
(5.025 0.01 -0.0237107)
(5.075 0.01 -0.0239606)
(5.125 0.01 -0.0242106)
(5.175 0.01 -0.0244606)
(5.225 0.01 -0.0247105)
(5.275 0.01 -0.0249605)
(5.325 0.01 -0.0252105)
(5.375 0.01 -0.0254605)
(5.425 0.01 -0.0257104)
(5.475 0.01 -0.0259604)
(5.525 0.01 -0.0262104)
(5.575 0.01 -0.0264604)
(5.625 0.01 -0.0267104)
(5.675 0.01 -0.0269604)
(5.725 0.01 -0.0272105)
(5.775 0.01 -0.0274605)
(5.825 0.01 -0.0277105)
(5.875 0.01 -0.0279605)
(5.925 0.01 -0.0282105)
(5.975 0.01 -0.0284605)
(6.025 0.01 -0.0287104)
(6.075 0.01 -0.0289604)
(6.125 0.01 -0.0292104)
(6.175 0.01 -0.0294604)
(6.225 0.01 -0.0297104)
(6.275 0.01 -0.0299604)
(6.325 0.01 -0.0302105)
(6.375 0.01 -0.0304605)
(6.425 0.01 -0.0307105)
(6.475 0.01 -0.0309605)
(6.525 0.01 -0.0312105)
(6.575 0.01 -0.0314605)
(6.625 0.01 -0.0317105)
(6.675 0.01 -0.0319605)
(6.725 0.01 -0.0322105)
(6.775 0.01 -0.0324605)
(6.825 0.01 -0.0327105)
(6.875 0.01 -0.0329605)
(6.925 0.01 -0.0332104)
(6.975 0.01 -0.0334604)
(7.025 0.01 -0.0337104)
(7.075 0.01 -0.0339604)
(7.125 0.01 -0.0342103)
(7.175 0.01 -0.0344604)
(7.225 0.01 -0.0347104)
(7.275 0.01 -0.0349605)
(7.325 0.01 -0.0352105)
(7.375 0.01 -0.0354605)
(7.425 0.01 -0.0357104)
(7.475 0.01 -0.0359605)
(7.525 0.01 -0.0362104)
(7.575 0.01 -0.0364605)
(7.625 0.01 -0.0367103)
(7.675 0.01 -0.0369604)
(7.725 0.01 -0.0372102)
(7.775 0.01 -0.0374603)
(7.825 0.01 -0.0377101)
(7.875 0.01 -0.0379602)
(7.925 0.01 -0.03821)
(7.975 0.01 -0.0384601)
(8.025 0.01 -0.0387098)
(8.075 0.01 -0.0389599)
(8.125 0.01 -0.0392096)
(8.175 0.01 -0.0394597)
(8.225 0.01 -0.0397093)
(8.275 0.01 -0.0399595)
(8.325 0.01 -0.0402091)
(8.375 0.01 -0.0404593)
(8.425 0.01 -0.0407088)
(8.475 0.01 -0.040959)
(8.525 0.01 -0.0412085)
(8.575 0.01 -0.0414587)
(8.625 0.01 -0.0417082)
(8.675 0.01 -0.0419583)
(8.725 0.01 -0.0422078)
(8.775 0.01 -0.0424579)
(8.825 0.01 -0.0427074)
(8.875 0.01 -0.0429575)
(8.925 0.01 -0.043207)
(8.975 0.01 -0.0434571)
(9.025 0.01 -0.0437067)
(9.075 0.01 -0.0439567)
(9.125 0.01 -0.0442064)
(9.175 0.01 -0.0444564)
(9.225 0.01 -0.0447061)
(9.275 0.01 -0.0449561)
(9.325 0.01 -0.0452058)
(9.375 0.01 -0.0454558)
(9.425 0.01 -0.0457056)
(9.475 0.01 -0.0459555)
(9.525 0.01 -0.0462054)
(9.575 0.01 -0.0464553)
(9.625 0.01 -0.0467052)
(9.675 0.01 -0.0469551)
(9.725 0.01 -0.047205)
(9.775 0.01 -0.0474549)
(9.825 0.01 -0.0477049)
(9.875 0.01 -0.0479547)
(9.925 0.01 -0.0482048)
(9.975 0.01 -0.0484546)
(10.025 0.01 -0.0487047)
(10.075 0.01 -0.0489546)
(10.125 0.01 -0.0492047)
(10.175 0.01 -0.0494546)
(10.225 0.01 -0.0497048)
(10.275 0.01 -0.0499546)
(10.325 0.01 -0.0502047)
(10.375 0.01 -0.0504545)
(10.425 0.01 -0.0507047)
(10.475 0.01 -0.0509545)
(10.525 0.01 -0.0512048)
(10.575 0.01 -0.0514546)
(10.625 0.01 -0.0517049)
(10.675 0.01 -0.0519547)
(10.725 0.01 -0.052205)
(10.775 0.01 -0.0524548)
(10.825 0.01 -0.052705)
(10.875 0.01 -0.0529548)
(10.925 0.01 -0.0532051)
(10.975 0.01 -0.053455)
(11.025 0.01 -0.0537053)
(11.075 0.01 -0.0539551)
(11.125 0.01 -0.0542055)
(11.175 0.01 -0.0544553)
(11.225 0.01 -0.0547056)
(11.275 0.01 -0.0549554)
(11.325 0.01 -0.0552057)
(11.375 0.01 -0.0554556)
(11.425 0.01 -0.0557059)
(11.475 0.01 -0.0559558)
(11.525 0.01 -0.0562061)
(11.575 0.01 -0.056456)
(11.625 0.01 -0.0567062)
(11.675 0.01 -0.0569561)
(11.725 0.01 -0.0572064)
(11.775 0.01 -0.0574563)
(11.825 0.01 -0.0577066)
(11.875 0.01 -0.0579566)
(11.925 0.01 -0.0582068)
(11.975 0.01 -0.0584568)
(12.025 0.01 -0.0587069)
(12.075 0.01 -0.0589569)
(12.125 0.01 -0.0592071)
(12.175 0.01 -0.0594571)
(12.225 0.01 -0.0597073)
(12.275 0.01 -0.0599573)
(12.325 0.01 -0.0602075)
(12.375 0.01 -0.0604575)
(12.425 0.01 -0.0607076)
(12.475 0.01 -0.0609576)
(12.525 0.01 -0.0612077)
(12.575 0.01 -0.0614577)
(12.625 0.01 -0.0617078)
(12.675 0.01 -0.0619579)
(12.725 0.01 -0.062208)
(12.775 0.01 -0.062458)
(12.825 0.01 -0.062708)
(12.875 0.01 -0.062958)
(12.925 0.01 -0.063208)
(12.975 0.01 -0.063458)
(13.025 0.01 -0.0637081)
(13.075 0.01 -0.0639582)
(13.125 0.01 -0.0642082)
(13.175 0.01 -0.0644582)
(13.225 0.01 -0.0647082)
(13.275 0.01 -0.0649582)
(13.325 0.01 -0.0652082)
(13.375 0.01 -0.0654581)
(13.425 0.01 -0.0657082)
(13.475 0.01 -0.0659582)
(13.525 0.01 -0.0662083)
(13.575 0.01 -0.0664583)
(13.625 0.01 -0.0667083)
(13.675 0.01 -0.0669582)
(13.725 0.01 -0.0672081)
(13.775 0.01 -0.0674581)
(13.825 0.01 -0.0677081)
(13.875 0.01 -0.0679581)
(13.925 0.01 -0.0682081)
(13.975 0.01 -0.068458)
(14.025 0.01 -0.068708)
(14.075 0.01 -0.0689579)
(14.125 0.01 -0.0692078)
(14.175 0.01 -0.0694577)
(14.225 0.01 -0.069708)
(14.275 0.01 -0.0699568)
(14.325 0.01 -0.0702062)
(14.375 0.01 -0.0704586)
(14.425 0.01 -0.0707083)
(14.475 0.01 -0.0709606)
(14.525 0.01 -0.0712013)
(14.575 0.01 -0.0714742)
(14.625 0.01 -0.0717125)
(14.675 0.01 -0.0719501)
(14.725 0.01 -0.072217)
(14.775 0.01 -0.0724852)
(14.825 0.01 -0.0734484)
(14.875 0.01 -0.074375)
(14.925 0.01 -0.074625)
(14.975 0.01 -0.074875)
)
;

boundaryField
{
    inlet
    {
        type            calculated;
        value           uniform (0 0 0);
    }
    outlet
    {
        type            calculated;
        value           uniform (0 0 0);
    }
    sideWall
    {
        type            empty;
    }
}


// ************************************************************************* //
