/*--------------------------------*- C++ -*----------------------------------*\
| =========                 |                                                 |
| \\      /  F ield         | foam-extend: Open Source CFD                    |
|  \\    /   O peration     | Version:     3.2                                |
|   \\  /    A nd           | Web:         http://www.foam-extend.org         |
|    \\/     M anipulation  | For copyright notice see file Copyright         |
\*---------------------------------------------------------------------------*/
FoamFile
{
    version     2.0;
    format      ascii;
    class       areaScalarField;
    location    "2000";
    object      angBeta;
}
// * * * * * * * * * * * * * * * * * * * * * * * * * * * * * * * * * * * * * //

dimensions      [0 0 0 0 0 0 0];

internalField   nonuniform List<scalar> 
300
(
0.00499996
0.00499996
0.00499996
0.00499996
0.00499996
0.00499996
0.00499996
0.00499996
0.00499996
0.00499996
0.00499996
0.00499996
0.00499996
0.00499996
0.00499996
0.00499996
0.00499996
0.00499996
0.00499996
0.00499996
0.00499996
0.00499996
0.00499996
0.00499996
0.00499996
0.00499996
0.00499996
0.00499996
0.00499996
0.00499996
0.00499996
0.00499996
0.00499996
0.00499996
0.00499996
0.00499996
0.00499996
0.00499996
0.00499996
0.00499996
0.00499996
0.00499996
0.00499996
0.00499996
0.00499996
0.00499996
0.00499996
0.00499996
0.00499996
0.00499996
0.00499996
0.00499996
0.00499996
0.00499996
0.00499996
0.00499996
0.00499996
0.00499996
0.00499996
0.0212199
0.0107941
0.0146307
0.00408715
0.00499842
0.00540592
0.00573284
0.00573149
0.00559394
0.00549469
0.00539538
0.00534903
0.00528596
0.00524315
0.00519371
0.00515948
0.00512193
0.00509507
0.00507068
0.00505397
0.00503985
0.00503042
0.00502169
0.00501665
0.00500966
0.00500725
0.00500341
0.00499981
0.0049987
0.00499594
0.00499715
0.00499499
0.00499705
0.00499546
0.00499595
0.0049954
0.0049981
0.00499693
0.00499784
0.00499732
0.00499783
0.0049978
0.0049979
0.00499983
0.00499942
0.00499946
0.00499951
0.0049993
0.00499949
0.00499922
0.0049995
0.0049992
0.00500129
0.00500014
0.00500058
0.00500003
0.00500025
0.00499977
0.00500001
0.0049995
0.00499995
0.00499934
0.00499983
0.0049995
0.00499957
0.00500129
0.00500011
0.00500108
0.00499963
0.005001
0.00499912
0.00500112
0.0049985
0.00500141
0.0049979
0.0050019
0.00499688
0.00500233
0.00499769
0.00499909
0.00500265
0.00499488
0.00500637
0.0049913
0.00501208
0.00498742
0.00501607
0.00498158
0.00502181
0.00497442
0.00502907
0.00496564
0.00503801
0.00495524
0.0050488
0.00494304
0.00506143
0.00492891
0.00507599
0.00491288
0.00509243
0.00489497
0.00511067
0.00487534
0.00513058
0.00485424
0.00515187
0.0048319
0.00517424
0.00480871
0.00519724
0.00478516
0.00522045
0.00476156
0.00524169
0.00473824
0.0052642
0.00471704
0.00528502
0.00469773
0.00530365
0.00468078
0.00532
0.00466626
0.00533383
0.00465425
0.0053452
0.00464471
0.00535407
0.00463786
0.00536023
0.00463385
0.00536354
0.00463262
0.00536234
0.00463392
0.00536032
0.00463887
0.00535535
0.0046466
0.00534739
0.00465722
0.00533636
0.00467008
0.00532312
0.00468474
0.00530643
0.00470053
0.00529028
0.00471845
0.0052728
0.00473743
0.00525446
0.00475709
0.0052356
0.00477671
0.00521478
0.00479569
0.00519598
0.0048154
0.00517771
0.00483486
0.00515987
0.00485306
0.00514067
0.00486981
0.00512405
0.00488679
0.00510911
0.00490252
0.0050954
0.0049146
0.00508168
0.00492708
0.0050698
0.00493933
0.00505947
0.00495052
0.00504929
0.00495818
0.00504122
0.00496557
0.00503351
0.0049734
0.00502782
0.00497856
0.00502258
0.00498352
0.00501749
0.00498697
0.0050131
0.00498953
0.00501044
0.00499376
0.00500941
0.00499495
0.00500554
0.00499465
0.00500412
0.00499634
0.00500486
0.0049983
0.00500419
0.00499725
0.0050033
0.00499666
0.00500202
0.00499637
0.00500315
0.00499754
0.00500566
0.00499785
0.00500084
0.00499811
0.00499984
0.00499599
0.00500385
0.00499397
0.00500868
0.00498936
0.00500501
0.00499794
0.00499623
0.00500079
0.00499326
0.00502046
0.00492909
0.00504846
0.00504652
0.00494152
0.00515081
0.00447864
0.00643769
0.00309084
0.0064164
0.00425906
0.00646604
0.0320527
0.00499996
0.00499996
0.00499996
)
;

boundaryField
{
    inlet
    {
        type            calculated;
        value           uniform 0;
    }
    outlet
    {
        type            calculated;
        value           uniform 0;
    }
    sideWall
    {
        type            empty;
    }
}


// ************************************************************************* //
