/*--------------------------------*- C++ -*----------------------------------*\
| =========                 |                                                 |
| \\      /  F ield         | foam-extend: Open Source CFD                    |
|  \\    /   O peration     | Version:     3.2                                |
|   \\  /    A nd           | Web:         http://www.foam-extend.org         |
|    \\/     M anipulation  | For copyright notice see file Copyright         |
\*---------------------------------------------------------------------------*/
FoamFile
{
    version     2.0;
    format      ascii;
    class       areaVectorField;
    location    "2000";
    object      aUf;
}
// * * * * * * * * * * * * * * * * * * * * * * * * * * * * * * * * * * * * * //

dimensions      [0 1 -1 0 0 0 0];

internalField   nonuniform List<vector> 
300
(
(0.334947 0 0.00478654)
(0.370832 0 0.00280058)
(0.340999 0 0.000328444)
(0.313246 0 -0.00100721)
(0.296204 -2.61107e-26 -0.00137037)
(0.288865 -2.71422e-42 -0.00148766)
(0.28598 -1.60282e-26 -0.001524)
(0.285622 4.54769e-43 -0.0015211)
(0.286107 1.18239e-26 -0.00152007)
(0.287095 3.21758e-42 -0.00151912)
(0.288282 5.70983e-27 -0.00151481)
(0.289484 3.80999e-27 -0.0015091)
(0.290645 0 -0.00151216)
(0.291863 1.69582e-27 -0.00151503)
(0.293028 2.19205e-27 -0.00151653)
(0.294203 -1.4295e-28 -0.00152483)
(0.295441 -5.52485e-28 -0.00152916)
(0.296674 1.16316e-27 -0.00153368)
(0.297931 -1.65275e-27 -0.00153909)
(0.299192 0 -0.00154425)
(0.300451 0 -0.00154976)
(0.301708 2.46166e-27 -0.0015586)
(0.302996 2.6336e-27 -0.00156916)
(0.304316 0 -0.00157644)
(0.305591 0 -0.00157862)
(0.306761 2.58512e-27 -0.00157955)
(0.307814 0 -0.00157932)
(0.308738 0 -0.00157851)
(0.309538 0 -0.00157734)
(0.310221 1.82082e-27 -0.00157628)
(0.310805 0 -0.00157553)
(0.311304 0 -0.00157435)
(0.311719 -1.2956e-27 -0.00157295)
(0.312059 0 -0.00157159)
(0.312332 0 -0.00157072)
(0.312556 0 -0.00157036)
(0.312742 -6.91728e-28 -0.00157002)
(0.312899 0 -0.0015698)
(0.31303 0 -0.00156961)
(0.313143 0 -0.00156951)
(0.313237 -3.82477e-28 -0.0015694)
(0.313319 -5.05126e-43 -0.00156934)
(0.313386 0 -0.00156926)
(0.313447 0 -0.00156922)
(0.313495 -2.06741e-28 -0.00156915)
(0.313541 0 -0.00156916)
(0.313573 -5.06862e-43 -0.00156905)
(0.313609 0 -0.00156918)
(0.313631 0 -0.00156904)
(0.313661 0 -0.00156903)
(0.313668 0 -0.00156905)
(0.313711 -2.01524e-36 -0.00156907)
(0.31367 0 -0.00156859)
(0.313793 -3.21556e-34 -0.0015698)
(0.313568 0 -0.00156707)
(0.314069 0 -0.0015715)
(0.313005 -2.77617e-27 -0.00155311)
(0.315033 -9.17073e-28 -0.00145971)
(0.307574 0 -0.00180826)
(0.321771 0 0.00472988)
(0.354921 1.78757e-25 0.00416629)
(0.348187 0 -0.0035595)
(0.335314 0 -0.00163065)
(0.336328 -2.42116e-26 -0.00172771)
(0.335149 0 -0.00178399)
(0.334622 -7.8959e-27 -0.00189217)
(0.333977 0 -0.00190225)
(0.33364 -3.06875e-27 -0.00187021)
(0.333513 1.84998e-27 -0.00184368)
(0.333492 0 -0.0018094)
(0.333512 0 -0.00179118)
(0.333533 0 -0.00177022)
(0.33357 -3.86472e-28 -0.00175479)
(0.333605 1.66584e-28 -0.00173835)
(0.333647 1.45648e-28 -0.00172632)
(0.333685 1.21028e-28 -0.00171337)
(0.333727 0 -0.00170404)
(0.333764 0 -0.0016956)
(0.333799 1.55057e-28 -0.00168946)
(0.333828 0 -0.0016844)
(0.333851 0 -0.00168085)
(0.333869 -1.26226e-28 -0.00167773)
(0.333883 -1.12364e-28 -0.00167577)
(0.333894 0 -0.00167346)
(0.333905 1.55478e-32 -0.0016724)
(0.33391 0 -0.00167114)
(0.333919 0 -0.00166995)
(0.333923 -6.31255e-29 -0.00166945)
(0.33393 0 -0.0016686)
(0.333934 3.85757e-29 -0.00166882)
(0.333939 3.9747e-29 -0.00166824)
(0.333941 1.84419e-29 -0.00166868)
(0.333943 -5.63461e-29 -0.00166835)
(0.333946 -2.04087e-29 -0.00166844)
(0.333949 0 -0.00166829)
(0.33395 1.64746e-32 -0.00166902)
(0.333951 0 -0.00166881)
(0.333952 4.55496e-33 -0.00166904)
(0.333953 -1.84656e-29 -0.00166895)
(0.333954 -2.61905e-30 -0.00166908)
(0.333955 2.53942e-33 -0.00166911)
(0.333957 0 -0.00166906)
(0.333957 -1.11636e-29 -0.00166966)
(0.333956 0 -0.00166962)
(0.333957 -1.6218e-31 -0.00166963)
(0.333957 -4.22871e-31 -0.00166965)
(0.333958 0 -0.0016696)
(0.333958 0 -0.00166964)
(0.333959 2.9783e-30 -0.00166958)
(0.333959 1.82332e-30 -0.00166966)
(0.33396 -4.60015e-30 -0.00166958)
(0.333959 9.73437e-30 -0.00167009)
(0.333958 9.22174e-30 -0.00166987)
(0.333958 8.75198e-30 -0.00166997)
(0.333958 -3.10343e-30 -0.00166984)
(0.333958 0 -0.00166988)
(0.333958 0 -0.00166976)
(0.333958 0 -0.00166981)
(0.333959 0 -0.00166968)
(0.333959 -7.26978e-31 -0.00166978)
(0.333959 4.10364e-30 -0.00166963)
(0.33396 0 -0.00166974)
(0.33396 1.90515e-30 -0.00166969)
(0.333961 0 -0.00166967)
(0.333959 -8.79385e-30 -0.00167009)
(0.333959 -7.01199e-30 -0.00166986)
(0.333957 -4.87937e-30 -0.00167014)
(0.333959 4.08164e-30 -0.00166972)
(0.333957 0 -0.00167008)
(0.333959 -4.8187e-30 -0.00166959)
(0.333956 -3.03417e-30 -0.00167008)
(0.333959 0 -0.00166944)
(0.333957 -2.9617e-30 -0.00167012)
(0.333959 0 -0.00166931)
(0.333957 -7.48456e-30 -0.00167022)
(0.333959 -2.66139e-29 -0.00166905)
(0.33396 0 -0.00167032)
(0.333957 2.82553e-29 -0.00166927)
(0.333963 -6.65871e-30 -0.00166937)
(0.333953 3.16124e-29 -0.00167073)
(0.333969 0 -0.00166832)
(0.333949 3.20458e-29 -0.0016715)
(0.333972 3.28519e-29 -0.00166753)
(0.333945 -1.01485e-28 -0.00167287)
(0.333973 0 -0.00166659)
(0.333938 -1.32854e-28 -0.00167392)
(0.333976 -7.91776e-29 -0.00166512)
(0.333932 0 -0.00167529)
(0.333981 0 -0.00166333)
(0.333926 0 -0.00167703)
(0.333987 -1.36363e-28 -0.00166116)
(0.333918 -1.46343e-28 -0.00167917)
(0.333994 0 -0.00165862)
(0.33391 1.83886e-28 -0.00168174)
(0.334001 -2.14049e-28 -0.00165565)
(0.333901 0 -0.00168474)
(0.334009 -1.48542e-30 -0.00165224)
(0.333891 -2.73607e-28 -0.00168818)
(0.334018 0 -0.00164838)
(0.33388 -6.55221e-28 -0.00169205)
(0.334027 0 -0.0016441)
(0.333869 0 -0.00169633)
(0.334037 0 -0.00163944)
(0.333858 0 -0.00170097)
(0.334046 0 -0.00163445)
(0.333846 0 -0.00170592)
(0.334055 5.64029e-28 -0.0016292)
(0.333835 1.15266e-27 -0.00171109)
(0.334064 -6.30541e-28 -0.00162379)
(0.333825 0 -0.00171637)
(0.334071 0 -0.00161833)
(0.333816 -7.01253e-28 -0.00172166)
(0.334078 0 -0.00161287)
(0.333808 -1.52208e-27 -0.00172649)
(0.334086 0 -0.00160747)
(0.333803 -1.63977e-27 -0.00173152)
(0.334092 0 -0.0016027)
(0.333799 8.6786e-28 -0.00173621)
(0.334095 0 -0.0015984)
(0.333797 0 -0.00174037)
(0.334096 0 -0.00159467)
(0.333795 0 -0.00174414)
(0.334096 1.00798e-27 -0.00159127)
(0.333796 -1.03144e-27 -0.00174743)
(0.334095 0 -0.00158843)
(0.333798 0 -0.00175017)
(0.334092 1.12332e-27 -0.00158617)
(0.333801 -1.15157e-27 -0.00175234)
(0.334088 0 -0.00158454)
(0.333806 1.19755e-27 -0.00175388)
(0.334083 0 -0.00158358)
(0.333812 2.46276e-27 -0.00175476)
(0.334076 0 -0.00158327)
(0.33382 -1.25688e-27 -0.00175459)
(0.334072 0 -0.00158351)
(0.33383 2.5455e-27 -0.00175416)
(0.334065 0 -0.00158467)
(0.33384 0 -0.00175313)
(0.334057 1.27901e-27 -0.00158651)
(0.333851 1.2789e-27 -0.00175139)
(0.334049 1.26128e-27 -0.00158902)
(0.333861 1.2629e-27 -0.00174894)
(0.334041 -1.24528e-27 -0.00159203)
(0.333872 1.24113e-27 -0.00174595)
(0.334033 1.20727e-27 -0.00159545)
(0.333884 -1.19887e-27 -0.00174213)
(0.334029 -1.15907e-27 -0.00159912)
(0.333897 1.15388e-27 -0.00173837)
(0.334023 -1.1132e-27 -0.00160334)
(0.333909 -1.09974e-27 -0.00173437)
(0.334018 0 -0.00160784)
(0.33392 1.0337e-27 -0.00173015)
(0.334012 -1.97939e-27 -0.00161248)
(0.33393 -9.73376e-28 -0.00172577)
(0.334007 0 -0.00161713)
(0.33394 9.09166e-28 -0.00172095)
(0.334006 -8.5559e-28 -0.00162162)
(0.33395 0 -0.00171652)
(0.334003 7.78626e-28 -0.0016263)
(0.333959 -7.34671e-28 -0.0017122)
(0.334 0 -0.00163097)
(0.333966 6.50871e-28 -0.00170788)
(0.333997 -5.77486e-28 -0.00163546)
(0.333972 5.56499e-28 -0.00170329)
(0.333998 0 -0.00163964)
(0.333979 -2.61985e-30 -0.00169915)
(0.333997 -3.83384e-28 -0.00164381)
(0.333984 -3.2454e-28 -0.00169549)
(0.333995 0 -0.00164753)
(0.333987 0 -0.00169225)
(0.333994 0 -0.00165053)
(0.333992 -4.87026e-28 -0.00168898)
(0.333995 -2.21119e-28 -0.00165343)
(0.333995 -1.83541e-28 -0.00168637)
(0.333995 0 -0.00165649)
(0.333995 5.44801e-28 -0.00168377)
(0.333993 0 -0.00165871)
(0.333997 0 -0.0016814)
(0.333994 0 -0.00166053)
(0.333998 0 -0.00167963)
(0.333995 5.76355e-28 -0.00166237)
(0.333998 -6.22295e-31 -0.001678)
(0.333995 -4.49046e-28 -0.00166414)
(0.333997 -3.70595e-28 -0.00167659)
(0.333994 0 -0.00166513)
(0.333997 -3.55619e-28 -0.0016752)
(0.333994 2.62914e-28 -0.00166631)
(0.333996 2.83245e-28 -0.00167413)
(0.333993 0 -0.00166728)
(0.333994 -3.07251e-28 -0.00167327)
(0.333993 2.13608e-31 -0.00166773)
(0.333995 -1.1807e-28 -0.00167248)
(0.333992 0 -0.00166849)
(0.333993 0 -0.00167207)
(0.33399 0 -0.00166886)
(0.333991 0 -0.0016713)
(0.333991 0 -0.00166895)
(0.333991 -1.35794e-29 -0.00167109)
(0.333991 8.35625e-32 -0.00166921)
(0.33399 -1.29844e-30 -0.00167115)
(0.333988 0 -0.00166951)
(0.333988 -6.47368e-29 -0.00167079)
(0.33399 -2.83574e-30 -0.00166928)
(0.333988 0 -0.00167073)
(0.33399 6.94882e-29 -0.00166931)
(0.333986 -4.33625e-29 -0.00167067)
(0.333989 0 -0.0016692)
(0.333987 -1.92099e-29 -0.00167065)
(0.333988 -3.21302e-29 -0.00166919)
(0.333988 1.00866e-28 -0.00167107)
(0.333986 2.504e-29 -0.00166942)
(0.333987 -6.45974e-29 -0.00167014)
(0.333989 4.39107e-32 -0.00166956)
(0.333982 4.23498e-29 -0.00167026)
(0.333992 -4.97663e-29 -0.00166895)
(0.333983 -4.19208e-29 -0.00167084)
(0.333992 -5.41586e-29 -0.00166837)
(0.333988 0 -0.00167155)
(0.333988 -6.52781e-29 -0.00166728)
(0.333995 -1.6041e-28 -0.00167096)
(0.333986 0 -0.00166976)
(0.333994 9.52409e-29 -0.00166929)
(0.333985 0 -0.00167057)
(0.334009 -3.39846e-29 -0.00166796)
(0.333978 0 -0.00167468)
(0.333986 7.96962e-28 -0.00165216)
(0.334095 -7.21846e-28 -0.00168105)
(0.33386 4.27188e-28 -0.00168258)
(0.334184 1.95418e-27 -0.00164314)
(0.333314 4.49815e-30 -0.00173028)
(0.334958 0 -0.00154302)
(0.333354 -8.91715e-27 -0.0019967)
(0.333196 -3.12125e-29 -0.00122718)
(0.335398 4.20293e-26 -0.00201057)
(0.331044 2.29342e-26 -0.00166445)
(0.343669 0 -0.00189026)
(0.316989 -1.37366e-24 -0.00788434)
(0.299546 0 -0.00250545)
(0.307924 1.10936e-26 -0.00197958)
(0.309939 -1.64678e-26 -0.00143481)
)
;

boundaryField
{
    inlet
    {
        type            calculated;
        value           uniform (0 0 0);
    }
    outlet
    {
        type            calculated;
        value           uniform (0 0 0);
    }
    sideWall
    {
        type            empty;
    }
}


// ************************************************************************* //
