/*--------------------------------*- C++ -*----------------------------------*\
| =========                 |                                                 |
| \\      /  F ield         | foam-extend: Open Source CFD                    |
|  \\    /   O peration     | Version:     3.2                                |
|   \\  /    A nd           | Web:         http://www.foam-extend.org         |
|    \\/     M anipulation  | For copyright notice see file Copyright         |
\*---------------------------------------------------------------------------*/
FoamFile
{
    version     2.0;
    format      ascii;
    class       areaScalarField;
    location    "2000";
    object      Ce2;
}
// * * * * * * * * * * * * * * * * * * * * * * * * * * * * * * * * * * * * * //

dimensions      [1 -3 0 0 0 0 0];

internalField   nonuniform List<scalar> 
300
(
0.0317642
0.0437167
0.0335986
0.0256839
0.0214859
0.0198244
0.0191948
0.0191176
0.0192222
0.0194367
0.0196963
0.0199613
0.0202195
0.0204929
0.0207564
0.0210243
0.0213092
0.0215954
0.0218895
0.0221873
0.0224873
0.0227891
0.0231013
0.0234241
0.0237386
0.0240296
0.0242935
0.0245265
0.0247296
0.0249037
0.0250532
0.0251813
0.0252883
0.0253764
0.0254468
0.025505
0.0255533
0.0255941
0.0256282
0.0256576
0.0256821
0.0257036
0.0257211
0.025737
0.0257493
0.0257614
0.0257698
0.0257791
0.0257849
0.0257928
0.0257947
0.0258058
0.0257953
0.0258274
0.0257686
0.0258996
0.0256216
0.0261526
0.0242376
0.0201737
0.0274721
0.0275163
0.0273896
0.0274006
0.0274062
0.0274105
0.0274106
0.0274088
0.0274075
0.0274061
0.0273963
0.0273906
0.0273859
0.0273835
0.027382
0.027381
0.0273804
0.0273817
0.0273837
0.0273864
0.0273891
0.0273913
0.0273934
0.0273941
0.0273957
0.0273962
0.0273964
0.0273968
0.0273971
0.0273977
0.0273981
0.0273987
0.0273989
0.0273985
0.0273989
0.0273996
0.0273997
0.0273995
0.0273996
0.0273995
0.0273995
0.0273997
0.0274005
0.0274002
0.0274001
0.0274
0.0274001
0.0273999
0.0274001
0.0273998
0.0274001
0.0274008
0.0274007
0.0274004
0.0274004
0.0274002
0.0274003
0.0274001
0.0274002
0.0274
0.0274002
0.0274001
0.0274
0.0274003
0.0274009
0.0274009
0.0274002
0.0274008
0.0273999
0.0274008
0.0273996
0.0274009
0.0273995
0.027401
0.0273994
0.027401
0.0273997
0.0274002
0.0274014
0.0273978
0.0274038
0.0273957
0.0274057
0.0273946
0.0274083
0.0273916
0.0274107
0.0273884
0.0274138
0.0273847
0.0274177
0.0273803
0.0274223
0.0273752
0.0274275
0.0273694
0.0274335
0.0273629
0.0274401
0.0273558
0.0274474
0.027348
0.0274552
0.0273398
0.0274634
0.0273312
0.0274719
0.0273224
0.0274805
0.0273137
0.027489
0.0273051
0.0274972
0.0272961
0.0275044
0.027289
0.0275118
0.0272826
0.027518
0.027277
0.0275231
0.0272725
0.0275272
0.0272692
0.0275303
0.0272668
0.0275323
0.0272655
0.0275333
0.0272653
0.0275332
0.0272662
0.027532
0.0272673
0.0275294
0.0272707
0.0275266
0.0272749
0.0275226
0.02728
0.0275177
0.027286
0.0275123
0.0272927
0.0275066
0.0272989
0.0275
0.0273069
0.027494
0.027315
0.0274877
0.0273231
0.0274813
0.0273311
0.027475
0.0273381
0.0274683
0.0273462
0.0274626
0.0273537
0.0274569
0.0273608
0.0274516
0.0273665
0.0274462
0.027373
0.0274417
0.0273786
0.0274375
0.0273835
0.027433
0.0273875
0.0274301
0.0273918
0.0274272
0.0273952
0.0274243
0.0273973
0.0274216
0.0274004
0.0274201
0.0274028
0.0274183
0.0274044
0.0274158
0.027405
0.0274151
0.0274067
0.0274144
0.0274078
0.0274125
0.0274076
0.0274119
0.0274081
0.0274117
0.0274079
0.027411
0.0274087
0.0274108
0.0274086
0.0274103
0.0274076
0.0274101
0.0274084
0.0274108
0.0274087
0.0274096
0.0274081
0.0274093
0.0274087
0.0274108
0.0274074
0.027412
0.0274076
0.0274101
0.0274084
0.0274092
0.0274098
0.0274093
0.0274103
0.0274126
0.0274102
0.0274068
0.0274185
0.0273944
0.0274324
0.0274034
0.027403
0.0274015
0.0274042
0.0273952
0.0274208
0.0273763
0.0274204
0.0273922
0.0274212
0.0207106
0.022217
0.0243265
0.024831
)
;

boundaryField
{
    inlet
    {
        type            calculated;
        value           uniform 0;
    }
    outlet
    {
        type            calculated;
        value           uniform 0;
    }
    sideWall
    {
        type            empty;
    }
}


// ************************************************************************* //
