/*--------------------------------*- C++ -*----------------------------------*\
| =========                 |                                                 |
| \\      /  F ield         | foam-extend: Open Source CFD                    |
|  \\    /   O peration     | Version:     3.2                                |
|   \\  /    A nd           | Web:         http://www.foam-extend.org         |
|    \\/     M anipulation  | For copyright notice see file Copyright         |
\*---------------------------------------------------------------------------*/
FoamFile
{
    version     2.0;
    format      ascii;
    class       areaScalarField;
    location    "2000";
    object      dd;
}
// * * * * * * * * * * * * * * * * * * * * * * * * * * * * * * * * * * * * * //

dimensions      [0 1 0 0 0 0 0];

internalField   nonuniform List<scalar> 
300
(
0.000405
0.000405
0.000405
0.000405
0.000405
0.000405
0.000405
0.000405
0.000405
0.000405
0.000405
0.000405
0.000405
0.000405
0.000405
0.000405
0.000405
0.000405
0.000405
0.000405
0.000405
0.000405
0.000405
0.000405
0.000405
0.000405
0.000405
0.000405
0.000405
0.000405
0.000405
0.000405
0.000405
0.000405
0.000405
0.000405
0.000405
0.000405
0.000405
0.000405
0.000405
0.000405
0.000405
0.000405
0.000405
0.000405
0.000405
0.000405
0.000405
0.000405
0.000405
0.000405
0.000405
0.000405
0.000405
0.000405
0.000405
0.000405
0.000405
0.00106058
0.00211102
0.00226509
0.00204711
0.00206997
0.00205986
0.00203139
0.00199478
0.00196164
0.00193442
0.00191217
0.00189355
0.00187768
0.00186445
0.00185352
0.00184469
0.00183765
0.00183222
0.00182808
0.00182496
0.00182261
0.00182085
0.00181955
0.00181859
0.00181793
0.0018175
0.00181724
0.00181715
0.00181719
0.00181732
0.00181749
0.00181768
0.00181788
0.00181807
0.00181828
0.00181849
0.00181865
0.00181878
0.00181891
0.00181902
0.00181914
0.00181925
0.00181936
0.00181941
0.00181943
0.00181945
0.00181948
0.0018195
0.00181953
0.00181956
0.00181959
0.00181962
0.00181961
0.00181957
0.00181955
0.00181953
0.00181952
0.00181952
0.00181952
0.00181953
0.00181955
0.00181956
0.00181958
0.0018196
0.00181962
0.00181959
0.00181956
0.00181952
0.0018195
0.00181949
0.00181948
0.00181947
0.00181948
0.00181948
0.0018195
0.0018195
0.00181953
0.00181955
0.00181954
0.00181962
0.00181958
0.00181963
0.0018196
0.00181966
0.00181957
0.00181958
0.00181949
0.00181955
0.00181946
0.00181955
0.00181947
0.0018196
0.0018195
0.00181967
0.00181957
0.00181977
0.00181965
0.00181989
0.00181977
0.00182004
0.00181991
0.00182022
0.00182008
0.00182043
0.00182028
0.00182066
0.0018205
0.0018209
0.00182075
0.00182117
0.00182102
0.00182146
0.00182132
0.00182176
0.00182168
0.00182218
0.00182212
0.00182259
0.00182253
0.00182296
0.00182292
0.00182331
0.00182329
0.00182363
0.00182363
0.00182392
0.00182393
0.00182418
0.00182421
0.00182441
0.00182446
0.0018246
0.00182467
0.00182476
0.00182489
0.00182498
0.00182512
0.00182514
0.00182528
0.00182523
0.00182538
0.00182526
0.00182542
0.00182525
0.00182542
0.00182522
0.00182544
0.00182527
0.00182549
0.00182527
0.00182549
0.00182523
0.00182543
0.00182514
0.00182532
0.00182501
0.00182522
0.00182496
0.00182516
0.00182488
0.00182505
0.00182473
0.00182486
0.00182454
0.00182469
0.00182443
0.00182458
0.00182431
0.00182441
0.00182411
0.00182416
0.00182391
0.001824
0.00182378
0.00182386
0.00182363
0.00182366
0.0018234
0.00182341
0.00182322
0.00182323
0.00182306
0.00182308
0.0018229
0.00182287
0.00182271
0.00182268
0.00182253
0.0018225
0.00182238
0.00182238
0.00182231
0.00182231
0.0018222
0.00182212
0.00182201
0.001822
0.00182199
0.00182202
0.00182201
0.00182197
0.00182189
0.00182183
0.00182179
0.00182177
0.00182177
0.0018218
0.00182184
0.00182185
0.00182183
0.00182175
0.00182166
0.00182169
0.00182172
0.00182176
0.00182187
0.00182187
0.00182192
0.00182185
0.0018219
0.00182204
0.00182196
0.00182211
0.00182218
0.00182233
0.00182198
0.00182324
0.0018238
0.00182142
0.00182172
0.00181941
0.00182867
0.00180576
0.00181754
0.00182986
0.00181297
0.00179484
0.00108159
0.000405
0.000405
0.000405
)
;

boundaryField
{
    inlet
    {
        type            calculated;
        value           uniform 0;
    }
    outlet
    {
        type            calculated;
        value           uniform 0;
    }
    sideWall
    {
        type            empty;
    }
}


// ************************************************************************* //
