/*--------------------------------*- C++ -*----------------------------------*\
| =========                 |                                                 |
| \\      /  F ield         | foam-extend: Open Source CFD                    |
|  \\    /   O peration     | Version:     3.2                                |
|   \\  /    A nd           | Web:         http://www.foam-extend.org         |
|    \\/     M anipulation  | For copyright notice see file Copyright         |
\*---------------------------------------------------------------------------*/
FoamFile
{
    version     2.0;
    format      ascii;
    class       areaScalarField;
    location    "2000";
    object      ddmax;
}
// * * * * * * * * * * * * * * * * * * * * * * * * * * * * * * * * * * * * * //

dimensions      [0 1 0 0 0 0 0];

internalField   nonuniform List<scalar> 
300
(
0.000405
0.000405
0.000405
0.000405
0.000405
0.000405
0.000405
0.000405
0.000405
0.000405
0.000405
0.000405
0.000405
0.000405
0.000405
0.000405
0.000405
0.000405
0.000405
0.000405
0.000405
0.000405
0.000405
0.000405
0.000405
0.000405
0.000405
0.000405
0.000405
0.000405
0.000405
0.000405
0.000405
0.000405
0.000405
0.000405
0.000405
0.000405
0.000405
0.000405
0.000405
0.000405
0.000405
0.000405
0.000405
0.000405
0.000405
0.000405
0.000405
0.000405
0.000405
0.000405
0.000405
0.000405
0.000405
0.000405
0.000405
0.000405
0.000405
0.0010607
0.00211144
0.0022655
0.00204729
0.00207012
0.00205999
0.00203149
0.00199486
0.00196171
0.00193448
0.00191221
0.00189359
0.00187771
0.00186447
0.00185355
0.00184471
0.00183767
0.00183224
0.0018281
0.00182498
0.00182263
0.00182087
0.00181956
0.0018186
0.00181794
0.00181751
0.00181724
0.00181716
0.00181719
0.00181732
0.00181749
0.00181769
0.00181788
0.00181807
0.00181828
0.0018185
0.00181866
0.00181878
0.00181891
0.00181903
0.00181914
0.00181925
0.00181936
0.00181941
0.00181943
0.00181945
0.00181948
0.0018195
0.00181953
0.00181956
0.00181959
0.00181962
0.00181961
0.00181957
0.00181955
0.00181953
0.00181952
0.00181952
0.00181953
0.00181953
0.00181955
0.00181956
0.00181958
0.0018196
0.00181962
0.0018196
0.00181956
0.00181952
0.0018195
0.00181949
0.00181948
0.00181947
0.00181948
0.00181948
0.0018195
0.0018195
0.00181953
0.00181955
0.00181956
0.00181962
0.00181959
0.00181966
0.00181961
0.00181968
0.00181959
0.00181959
0.00181949
0.00181955
0.00181946
0.00181955
0.00181947
0.0018196
0.0018195
0.00181967
0.00181957
0.00181977
0.00181965
0.00181989
0.00181977
0.00182004
0.00181991
0.00182022
0.00182008
0.00182043
0.00182028
0.00182066
0.0018205
0.0018209
0.00182075
0.00182117
0.00182102
0.00182146
0.00182132
0.00182176
0.00182168
0.00182218
0.00182212
0.00182259
0.00182253
0.00182296
0.00182292
0.00182331
0.00182329
0.00182363
0.00182363
0.00182392
0.00182393
0.00182418
0.00182421
0.00182441
0.00182446
0.0018246
0.00182467
0.00182476
0.00182489
0.00182498
0.00182512
0.00182514
0.00182528
0.00182523
0.00182538
0.00182527
0.00182542
0.00182529
0.00182544
0.00182531
0.0018255
0.00182542
0.00182562
0.00182551
0.0018257
0.00182557
0.00182576
0.00182561
0.00182579
0.00182564
0.00182586
0.00182575
0.00182598
0.00182584
0.00182606
0.00182591
0.00182612
0.00182595
0.0018262
0.00182607
0.00182633
0.00182617
0.00182643
0.00182624
0.00182649
0.00182633
0.00182664
0.00182647
0.00182677
0.00182656
0.00182685
0.00182663
0.00182697
0.00182677
0.00182712
0.00182689
0.00182723
0.00182697
0.00182732
0.00182708
0.00182749
0.00182723
0.00182764
0.00182734
0.00182776
0.00182748
0.00182795
0.00182765
0.00182812
0.00182778
0.00182831
0.00182798
0.00182852
0.00182816
0.00182872
0.0018283
0.00182893
0.00182851
0.00182919
0.00182869
0.0018294
0.00182889
0.0018297
0.00182912
0.00182997
0.00182927
0.00183024
0.00182951
0.00183051
0.00182976
0.00183088
0.00183007
0.00183129
0.00183041
0.00183185
0.0018307
0.00183214
0.00183106
0.00183263
0.00183143
0.0018331
0.00183168
0.00183434
0.00182962
0.00183129
0.00184029
0.00181757
0.00182561
0.00184045
0.00182134
0.00180342
0.00108437
0.000405
0.000405
0.000405
)
;

boundaryField
{
    inlet
    {
        type            calculated;
        value           uniform 0;
    }
    outlet
    {
        type            calculated;
        value           uniform 0;
    }
    sideWall
    {
        type            empty;
    }
}


// ************************************************************************* //
