/*--------------------------------*- C++ -*----------------------------------*\
| =========                 |                                                 |
| \\      /  F ield         | foam-extend: Open Source CFD                    |
|  \\    /   O peration     | Version:     3.2                                |
|   \\  /    A nd           | Web:         http://www.foam-extend.org         |
|    \\/     M anipulation  | For copyright notice see file Copyright         |
\*---------------------------------------------------------------------------*/
FoamFile
{
    version     2.0;
    format      ascii;
    class       areaScalarField;
    location    "2000";
    object      deltaHb;
}
// * * * * * * * * * * * * * * * * * * * * * * * * * * * * * * * * * * * * * //

dimensions      [0 1 -1 0 0 0 0];

internalField   nonuniform List<scalar> 
300
(
0
0
0
0
0
0
0
0
0
0
0
0
0
0
0
0
0
0
0
0
0
0
0
0
0
0
0
0
0
0
0
0
0
0
0
0
0
0
0
0
0
0
0
0
0
0
0
0
0
0
0
0
0
0
0
0
0
0
0
0
0
0
0
0
0
0
0
0
0
0
-2.70868e-09
-4.08626e-09
-5.24676e-09
-5.69808e-09
-5.95885e-09
-6.0561e-09
-6.10588e-09
-5.56424e-09
-4.90114e-09
-4.0072e-09
-3.22967e-09
-2.52639e-09
-1.92035e-09
-1.67537e-09
-1.2511e-09
-1.06893e-09
-1.04968e-09
-9.09376e-10
-8.48942e-10
-6.63146e-10
-5.65095e-10
-3.89096e-10
-3.66238e-10
-4.37558e-10
-3.59396e-10
-1.36527e-10
-1.43384e-10
-1.9144e-10
-1.989e-10
-1.99839e-10
-2.08063e-10
-1.27342e-10
4.42542e-11
1.89234e-12
-6.01906e-11
-5.35159e-11
-7.17665e-11
-9.14806e-11
-7.55373e-11
-1.33764e-10
-5.55139e-11
1.71745e-10
1.26519e-10
3.27819e-11
2.57069e-12
-3.27921e-11
-2.72148e-11
-3.85666e-11
-4.33654e-11
-4.17857e-11
-7.76853e-11
-2.97245e-11
-1.0642e-10
5.17928e-11
1.75633e-10
1.31482e-10
1.88872e-11
3.35052e-11
-7.18555e-12
1.82766e-11
-1.70272e-11
-2.02518e-11
-4.8605e-12
-6.4263e-11
4.8777e-11
-1.73426e-10
3.43162e-10
-2.72538e-10
6.16773e-11
-6.40353e-11
4.70508e-10
-6.13444e-10
9.83695e-11
1.15822e-10
5.58614e-10
-3.75668e-10
4.36933e-10
-3.46728e-10
5.04809e-10
-4.23053e-10
5.46613e-10
-4.9154e-10
6.06839e-10
-5.39643e-10
6.7187e-10
-5.85731e-10
7.20515e-10
-6.21141e-10
7.62508e-10
-6.42699e-10
7.88426e-10
-6.52547e-10
7.96866e-10
-6.39155e-10
7.95371e-10
-6.09094e-10
7.63836e-10
-5.57268e-10
7.05826e-10
-4.87768e-10
6.19251e-10
-3.9025e-10
5.11516e-10
-5.61186e-10
2.46207e-10
-3.15537e-10
2.12624e-10
-1.53586e-10
1.10147e-10
-2.44045e-11
2.23859e-12
8.65993e-11
-1.0958e-10
1.8921e-10
-2.10271e-10
2.75378e-10
-3.18434e-10
3.63079e-10
-4.17808e-10
4.46258e-10
-5.11038e-10
5.27015e-10
-6.04098e-10
3.16731e-10
-8.11785e-10
5.0956e-10
-7.77126e-10
6.05904e-10
-8.05302e-10
8.12614e-10
-7.66428e-10
4.06689e-10
-8.46636e-10
5.51823e-10
-8.22008e-10
2.80204e-09
1.12605e-09
1.7696e-09
5.78222e-10
-3.64416e-09
-4.31563e-09
3.2848e-10
-7.20314e-10
1.07305e-08
9.92533e-09
2.77153e-09
2.21043e-09
-1.3065e-08
-1.41504e-08
1.3372e-10
-4.7049e-10
2.36726e-08
2.47946e-08
3.70958e-09
3.58325e-09
-2.73995e-08
-2.95102e-08
3.29375e-11
-1.65956e-10
4.03786e-08
4.36367e-08
4.27913e-09
4.293e-09
-4.48185e-08
-4.8418e-08
5.0812e-11
-6.79672e-11
5.89785e-08
6.45578e-08
4.50555e-09
4.46455e-09
-6.36868e-08
-6.88877e-08
2.93082e-11
-1.98444e-11
7.80596e-08
8.53809e-08
4.24387e-09
4.08563e-09
-8.22646e-08
-8.91868e-08
-3.80472e-12
1.16425e-10
9.58213e-08
1.04644e-07
3.56295e-09
3.22194e-09
-9.92455e-08
-1.0757e-07
1.4617e-10
1.19987e-10
1.11191e-07
1.22658e-07
3.28449e-09
3.16135e-09
-1.14495e-07
-1.25732e-07
3.44527e-11
-6.98455e-11
1.26036e-07
1.41289e-07
2.7169e-09
3.51996e-09
-1.29044e-07
-1.44389e-07
2.62919e-11
-4.45608e-10
1.40759e-07
1.61027e-07
3.92111e-09
3.83108e-09
-1.44159e-07
-1.66466e-07
4.9464e-10
2.14859e-09
1.20669e-07
0
0
0
0
0
0
0
0
0
0
0
0
0
0
)
;

boundaryField
{
    inlet
    {
        type            zeroGradient;
    }
    outlet
    {
        type            zeroGradient;
    }
    sideWall
    {
        type            empty;
    }
}


// ************************************************************************* //
