/*--------------------------------*- C++ -*----------------------------------*\
| =========                 |                                                 |
| \\      /  F ield         | foam-extend: Open Source CFD                    |
|  \\    /   O peration     | Version:     3.2                                |
|   \\  /    A nd           | Web:         http://www.foam-extend.org         |
|    \\/     M anipulation  | For copyright notice see file Copyright         |
\*---------------------------------------------------------------------------*/
FoamFile
{
    version     2.0;
    format      ascii;
    class       areaScalarField;
    location    "2000";
    object      deltaHs1;
}
// * * * * * * * * * * * * * * * * * * * * * * * * * * * * * * * * * * * * * //

dimensions      [0 1 -1 0 0 0 0];

internalField   nonuniform List<scalar> 
300
(
-1.32546e-06
-4.94728e-06
-1.88213e-06
5.22535e-07
1.80171e-06
2.30892e-06
2.5013e-06
2.5249e-06
2.49294e-06
2.42737e-06
2.34808e-06
2.26711e-06
2.18826e-06
2.10478e-06
2.02434e-06
1.94257e-06
1.85561e-06
1.7683e-06
1.67857e-06
1.58775e-06
1.49629e-06
1.40425e-06
1.30911e-06
1.21073e-06
1.11491e-06
1.02626e-06
9.45868e-07
8.7491e-07
8.13053e-07
7.6003e-07
7.14519e-07
6.75524e-07
6.42943e-07
6.16148e-07
5.94698e-07
5.76984e-07
5.623e-07
5.49868e-07
5.39493e-07
5.30541e-07
5.23101e-07
5.16555e-07
5.11226e-07
5.06374e-07
5.02628e-07
4.98962e-07
4.96387e-07
4.93562e-07
4.91803e-07
4.89399e-07
4.88834e-07
4.85439e-07
4.88639e-07
4.78865e-07
4.9676e-07
4.56884e-07
5.41501e-07
3.79922e-07
9.62833e-07
2.2532e-06
4.52541e-12
7.83552e-12
-5.3942e-12
8.81511e-12
-7.18844e-12
9.47267e-12
-8.00267e-12
9.39996e-12
-9.01242e-12
8.19792e-12
2.72198e-09
4.12077e-09
5.2597e-09
5.72682e-09
5.96188e-09
6.08031e-09
6.10834e-09
5.58982e-09
4.90142e-09
4.0301e-09
3.2265e-09
2.54777e-09
1.91526e-09
1.69621e-09
1.24392e-09
1.0884e-09
1.04106e-09
9.28618e-10
8.36386e-10
6.79393e-10
5.51069e-10
4.03503e-10
3.52188e-10
4.60222e-10
3.48402e-10
1.5279e-10
1.29021e-10
2.10249e-10
1.85635e-10
2.13174e-10
2.08526e-10
1.59935e-10
-6.85903e-11
7.82842e-12
3.52304e-11
7.73539e-11
5.94397e-11
1.04415e-10
6.1625e-11
1.3622e-10
3.58893e-11
-1.49421e-10
-1.19383e-10
-2.42397e-11
-2.3489e-11
3.55706e-11
9.45012e-12
6.8189e-11
2.33577e-11
7.60028e-11
2.90531e-11
5.86591e-11
7.51123e-11
-2.97152e-13
-1.60798e-10
-1.86379e-10
3.99974e-11
-1.51534e-10
1.31923e-10
-1.58964e-10
2.04249e-10
-1.86516e-10
2.53958e-10
-2.03003e-10
2.76341e-10
-2.07626e-10
1.85746e-10
2.30961e-11
-3.33213e-10
7.65938e-10
-1.06969e-09
1.39085e-09
-1.62747e-09
1.74999e-09
-2.41926e-09
2.64289e-09
-3.16347e-09
3.61698e-09
-4.12092e-09
4.76253e-09
-5.30768e-09
6.09651e-09
-6.70349e-09
7.64751e-09
-8.31727e-09
9.42399e-09
-1.01456e-08
1.14097e-08
-1.21884e-08
1.35995e-08
-1.44202e-08
1.59763e-08
-1.68181e-08
1.84987e-08
-1.93573e-08
2.11335e-08
-2.19758e-08
2.38259e-08
-2.46255e-08
2.65221e-08
-2.72453e-08
2.91467e-08
-2.97775e-08
3.19261e-08
-3.20172e-08
3.41046e-08
-3.42837e-08
3.61108e-08
-3.6209e-08
3.78304e-08
-3.78047e-08
3.92282e-08
-3.90883e-08
4.02891e-08
-4.00375e-08
4.10436e-08
-4.06769e-08
4.14615e-08
-4.09991e-08
4.15449e-08
-4.09884e-08
4.12878e-08
-4.06418e-08
4.09801e-08
-3.9853e-08
3.99432e-08
-3.89903e-08
3.86963e-08
-3.77683e-08
3.71464e-08
-3.6268e-08
3.53217e-08
-3.46182e-08
3.32909e-08
-3.28435e-08
3.13798e-08
-3.08093e-08
2.89381e-08
-2.8954e-08
2.64853e-08
-2.69943e-08
2.40294e-08
-2.49925e-08
2.15873e-08
-2.30113e-08
1.9445e-08
-2.09345e-08
1.69676e-08
-1.91332e-08
1.46849e-08
-1.73525e-08
1.25506e-08
-1.56686e-08
1.07971e-08
-1.39752e-08
8.80525e-09
-1.25532e-08
7.11412e-09
-1.12123e-08
5.63477e-09
-9.80046e-09
4.38113e-09
-8.87368e-09
3.08545e-09
-7.94994e-09
2.06728e-09
-7.01604e-09
1.40622e-09
-6.16074e-09
4.82005e-10
-5.67782e-09
-2.61699e-10
-5.08857e-09
-7.4008e-10
-4.29895e-09
-9.31558e-10
-4.06247e-09
-1.4361e-09
-3.84217e-09
-1.78061e-09
-3.2573e-09
-1.72086e-09
-3.03353e-09
-1.85122e-09
-2.96546e-09
-1.80925e-09
-2.75787e-09
-2.02339e-09
-2.67855e-09
-1.98559e-09
-2.51961e-09
-1.67279e-09
-2.46956e-09
-1.93034e-09
-2.67377e-09
-1.99722e-09
-2.29927e-09
-1.82302e-09
-2.18112e-09
-1.9615e-09
-2.60829e-09
-1.59168e-09
-2.9654e-09
-1.65446e-09
-2.41303e-09
-1.85782e-09
-2.11982e-09
-2.23369e-09
-2.17586e-09
-2.4085e-09
-3.0869e-09
-2.38807e-09
-1.35374e-09
-4.83764e-09
2.42733e-09
-9.19432e-09
-7.4192e-11
-1.13095e-11
-9.82976e-12
-5.78192e-12
-5.20545e-12
-1.41846e-12
-2.07865e-12
1.00195e-12
-1.86362e-13
2.21952e-12
2.11684e-06
1.57975e-06
9.36038e-07
7.82475e-07
)
;

boundaryField
{
    inlet
    {
        type            zeroGradient;
    }
    outlet
    {
        type            zeroGradient;
    }
    sideWall
    {
        type            empty;
    }
}


// ************************************************************************* //
