/*--------------------------------*- C++ -*----------------------------------*\
| =========                 |                                                 |
| \\      /  F ield         | foam-extend: Open Source CFD                    |
|  \\    /   O peration     | Version:     3.2                                |
|   \\  /    A nd           | Web:         http://www.foam-extend.org         |
|    \\/     M anipulation  | For copyright notice see file Copyright         |
\*---------------------------------------------------------------------------*/
FoamFile
{
    version     2.0;
    format      ascii;
    class       volScalarField;
    location    "2000";
    object      DiSSt;
}
// * * * * * * * * * * * * * * * * * * * * * * * * * * * * * * * * * * * * * //

dimensions      [0 2 -1 0 0 0 0];

internalField   nonuniform List<scalar> 
2400
(
2.6441e-05
2.92269e-05
2.31522e-05
1.95026e-05
1.82815e-05
1.77735e-05
1.76646e-05
1.79725e-05
1.84277e-05
1.88878e-05
1.929e-05
1.96417e-05
1.99193e-05
2.01924e-05
2.04127e-05
2.06137e-05
2.08047e-05
2.09715e-05
2.11227e-05
2.12624e-05
2.13886e-05
2.151e-05
2.16385e-05
2.17756e-05
2.19088e-05
2.20301e-05
2.21378e-05
2.22295e-05
2.23066e-05
2.23696e-05
2.24215e-05
2.24634e-05
2.24963e-05
2.25211e-05
2.25397e-05
2.25538e-05
2.25651e-05
2.25735e-05
2.25807e-05
2.25861e-05
2.2591e-05
2.25947e-05
2.25982e-05
2.26007e-05
2.26032e-05
2.26049e-05
2.26068e-05
2.26079e-05
2.26097e-05
2.26105e-05
2.26098e-05
2.26147e-05
2.26059e-05
2.26264e-05
2.25851e-05
2.26736e-05
2.24852e-05
2.28687e-05
2.16137e-05
2.42842e-05
2.79333e-05
2.52673e-05
2.30918e-05
2.36384e-05
2.34665e-05
2.35139e-05
2.35597e-05
2.36296e-05
2.37118e-05
2.37863e-05
2.38478e-05
2.38964e-05
2.39361e-05
2.39673e-05
2.39934e-05
2.40124e-05
2.40288e-05
2.40411e-05
2.40505e-05
2.40571e-05
2.40618e-05
2.40649e-05
2.40668e-05
2.40681e-05
2.40689e-05
2.4069e-05
2.40694e-05
2.40693e-05
2.40694e-05
2.4069e-05
2.4069e-05
2.40684e-05
2.40682e-05
2.40679e-05
2.40679e-05
2.40675e-05
2.40673e-05
2.40672e-05
2.40672e-05
2.40671e-05
2.40671e-05
2.40672e-05
2.4067e-05
2.40668e-05
2.40669e-05
2.40669e-05
2.4067e-05
2.4067e-05
2.40671e-05
2.4067e-05
2.40673e-05
2.40671e-05
2.40669e-05
2.40669e-05
2.40669e-05
2.4067e-05
2.40671e-05
2.40671e-05
2.40671e-05
2.40672e-05
2.40672e-05
2.40672e-05
2.40672e-05
2.40675e-05
2.40671e-05
2.4067e-05
2.40668e-05
2.40672e-05
2.40668e-05
2.40673e-05
2.40667e-05
2.40674e-05
2.40668e-05
2.40673e-05
2.4067e-05
2.40671e-05
2.40673e-05
2.40667e-05
2.4068e-05
2.40653e-05
2.40698e-05
2.40641e-05
2.40707e-05
2.40632e-05
2.40709e-05
2.40618e-05
2.40721e-05
2.40605e-05
2.40733e-05
2.40589e-05
2.40746e-05
2.40572e-05
2.4076e-05
2.40552e-05
2.40775e-05
2.40531e-05
2.40789e-05
2.40509e-05
2.40804e-05
2.40487e-05
2.40818e-05
2.40464e-05
2.4083e-05
2.40441e-05
2.40841e-05
2.4042e-05
2.40848e-05
2.404e-05
2.40853e-05
2.40383e-05
2.40854e-05
2.4037e-05
2.40851e-05
2.4036e-05
2.4085e-05
2.40355e-05
2.40839e-05
2.40353e-05
2.40824e-05
2.40356e-05
2.40806e-05
2.40358e-05
2.40792e-05
2.40361e-05
2.40778e-05
2.40366e-05
2.40763e-05
2.40373e-05
2.40746e-05
2.40384e-05
2.40729e-05
2.40396e-05
2.4071e-05
2.40411e-05
2.40697e-05
2.40429e-05
2.40679e-05
2.40447e-05
2.40661e-05
2.40466e-05
2.40645e-05
2.40485e-05
2.40631e-05
2.40505e-05
2.4062e-05
2.40525e-05
2.40616e-05
2.40545e-05
2.40609e-05
2.40563e-05
2.40604e-05
2.4058e-05
2.40601e-05
2.40595e-05
2.40599e-05
2.4061e-05
2.40605e-05
2.40624e-05
2.40609e-05
2.40634e-05
2.40614e-05
2.40641e-05
2.40619e-05
2.40648e-05
2.40631e-05
2.40657e-05
2.40637e-05
2.40665e-05
2.40641e-05
2.4067e-05
2.40645e-05
2.40679e-05
2.4065e-05
2.40684e-05
2.40659e-05
2.40681e-05
2.40668e-05
2.40684e-05
2.40671e-05
2.40687e-05
2.40675e-05
2.40691e-05
2.40681e-05
2.40692e-05
2.40683e-05
2.40693e-05
2.40683e-05
2.40691e-05
2.40685e-05
2.40693e-05
2.40689e-05
2.40696e-05
2.4069e-05
2.40692e-05
2.40685e-05
2.40689e-05
2.40687e-05
2.40691e-05
2.40689e-05
2.40692e-05
2.40687e-05
2.40688e-05
2.40687e-05
2.40685e-05
2.40688e-05
2.40684e-05
2.4069e-05
2.40689e-05
2.40688e-05
2.40687e-05
2.40681e-05
2.40683e-05
2.40688e-05
2.40674e-05
2.40701e-05
2.40675e-05
2.40693e-05
2.40687e-05
2.40681e-05
2.40692e-05
2.40673e-05
2.40693e-05
2.40671e-05
2.40732e-05
2.40663e-05
2.40666e-05
2.40853e-05
2.40426e-05
2.41139e-05
2.38901e-05
2.42909e-05
2.39646e-05
2.39335e-05
2.43286e-05
2.34895e-05
2.58669e-05
2.15945e-05
1.95934e-05
2.17514e-05
2.21641e-05
1.83038e-05
2.113e-05
2.81248e-05
3.154e-05
3.40366e-05
3.64885e-05
3.86908e-05
4.05471e-05
4.21697e-05
4.35631e-05
4.47354e-05
4.57446e-05
4.66028e-05
4.73804e-05
4.80296e-05
4.8629e-05
4.91735e-05
4.96584e-05
5.01055e-05
5.05206e-05
5.09004e-05
5.12556e-05
5.15875e-05
5.18887e-05
5.21481e-05
5.23629e-05
5.25361e-05
5.26708e-05
5.27736e-05
5.28495e-05
5.2905e-05
5.29438e-05
5.29702e-05
5.29866e-05
5.29968e-05
5.3002e-05
5.3005e-05
5.30057e-05
5.30064e-05
5.30057e-05
5.30058e-05
5.30047e-05
5.30047e-05
5.30036e-05
5.30036e-05
5.30024e-05
5.30027e-05
5.30013e-05
5.30022e-05
5.30007e-05
5.3e-05
5.30018e-05
5.29961e-05
5.3008e-05
5.29827e-05
5.30357e-05
5.29184e-05
5.31002e-05
5.23499e-05
5.41504e-05
5.53495e-05
5.29232e-05
5.26206e-05
5.37816e-05
5.40522e-05
5.44567e-05
5.47898e-05
5.50664e-05
5.52895e-05
5.54561e-05
5.55768e-05
5.56653e-05
5.57284e-05
5.57729e-05
5.58032e-05
5.58222e-05
5.58339e-05
5.58397e-05
5.58414e-05
5.58403e-05
5.58374e-05
5.58337e-05
5.58294e-05
5.58251e-05
5.58209e-05
5.58169e-05
5.58135e-05
5.58103e-05
5.58076e-05
5.58052e-05
5.58035e-05
5.58017e-05
5.58007e-05
5.57996e-05
5.57991e-05
5.57984e-05
5.57981e-05
5.57979e-05
5.57979e-05
5.57978e-05
5.5798e-05
5.5798e-05
5.57979e-05
5.57981e-05
5.57983e-05
5.57984e-05
5.57986e-05
5.57987e-05
5.57988e-05
5.57988e-05
5.57991e-05
5.57989e-05
5.57989e-05
5.57991e-05
5.57991e-05
5.57992e-05
5.57992e-05
5.57992e-05
5.57993e-05
5.57993e-05
5.57993e-05
5.57993e-05
5.57993e-05
5.57995e-05
5.57992e-05
5.57992e-05
5.57991e-05
5.57994e-05
5.5799e-05
5.57995e-05
5.57989e-05
5.57995e-05
5.57989e-05
5.57993e-05
5.5799e-05
5.57991e-05
5.57991e-05
5.57988e-05
5.57997e-05
5.57976e-05
5.58015e-05
5.57962e-05
5.58022e-05
5.5795e-05
5.58024e-05
5.57936e-05
5.58033e-05
5.57919e-05
5.58042e-05
5.57899e-05
5.5805e-05
5.57875e-05
5.58058e-05
5.57848e-05
5.58066e-05
5.57818e-05
5.58074e-05
5.57785e-05
5.58081e-05
5.5775e-05
5.58087e-05
5.57714e-05
5.58091e-05
5.57676e-05
5.58092e-05
5.57637e-05
5.58091e-05
5.576e-05
5.58086e-05
5.57563e-05
5.58078e-05
5.5753e-05
5.58066e-05
5.575e-05
5.58056e-05
5.57474e-05
5.58036e-05
5.57453e-05
5.58016e-05
5.57438e-05
5.57993e-05
5.57427e-05
5.57972e-05
5.57422e-05
5.5795e-05
5.57422e-05
5.57928e-05
5.57427e-05
5.57906e-05
5.57436e-05
5.57885e-05
5.5745e-05
5.57864e-05
5.57469e-05
5.5785e-05
5.57491e-05
5.57832e-05
5.57516e-05
5.57817e-05
5.57545e-05
5.57804e-05
5.57577e-05
5.57797e-05
5.5761e-05
5.57793e-05
5.57644e-05
5.57796e-05
5.57677e-05
5.57798e-05
5.57711e-05
5.57804e-05
5.57744e-05
5.57813e-05
5.57776e-05
5.57824e-05
5.57807e-05
5.57841e-05
5.57835e-05
5.57858e-05
5.57859e-05
5.57877e-05
5.57878e-05
5.57896e-05
5.57898e-05
5.57919e-05
5.57916e-05
5.57937e-05
5.57936e-05
5.5795e-05
5.57953e-05
5.5796e-05
5.57971e-05
5.5797e-05
5.57989e-05
5.57986e-05
5.58e-05
5.57997e-05
5.5801e-05
5.58004e-05
5.58017e-05
5.58013e-05
5.58028e-05
5.58025e-05
5.58035e-05
5.58029e-05
5.58034e-05
5.58027e-05
5.58032e-05
5.5803e-05
5.58038e-05
5.58037e-05
5.58041e-05
5.58034e-05
5.58031e-05
5.58024e-05
5.58026e-05
5.58026e-05
5.58032e-05
5.58031e-05
5.58032e-05
5.58025e-05
5.58022e-05
5.58017e-05
5.58014e-05
5.58019e-05
5.58019e-05
5.58028e-05
5.58025e-05
5.5802e-05
5.58014e-05
5.58005e-05
5.58007e-05
5.58012e-05
5.58008e-05
5.58035e-05
5.5801e-05
5.58023e-05
5.58006e-05
5.57999e-05
5.58004e-05
5.57998e-05
5.58024e-05
5.58013e-05
5.5806e-05
5.5799e-05
5.57996e-05
5.58091e-05
5.57832e-05
5.583e-05
5.5659e-05
5.59958e-05
5.56221e-05
5.56592e-05
5.58637e-05
5.53122e-05
5.59423e-05
5.24379e-05
5.27392e-05
5.43726e-05
5.42284e-05
1.91875e-05
1.67339e-05
1.97071e-05
2.44473e-05
3.00305e-05
3.58306e-05
4.05448e-05
4.51497e-05
4.93331e-05
5.30605e-05
5.64128e-05
5.93758e-05
6.20236e-05
6.4324e-05
6.60677e-05
6.76023e-05
6.8991e-05
7.02495e-05
7.14033e-05
7.24577e-05
7.34213e-05
7.42803e-05
7.50229e-05
7.56428e-05
7.61452e-05
7.6544e-05
7.68539e-05
7.70919e-05
7.72716e-05
7.7407e-05
7.75083e-05
7.75826e-05
7.7636e-05
7.7674e-05
7.77024e-05
7.77251e-05
7.77438e-05
7.77596e-05
7.77729e-05
7.77841e-05
7.77935e-05
7.78015e-05
7.78083e-05
7.78138e-05
7.78189e-05
7.78227e-05
7.78266e-05
7.78293e-05
7.78322e-05
7.78339e-05
7.78359e-05
7.78363e-05
7.78389e-05
7.78375e-05
7.78447e-05
7.78315e-05
7.78459e-05
7.74946e-05
7.76292e-05
7.96308e-05
7.87651e-05
7.58679e-05
7.69845e-05
7.78253e-05
7.85001e-05
7.90413e-05
7.95383e-05
7.99792e-05
8.03404e-05
8.06233e-05
8.08382e-05
8.10017e-05
8.11233e-05
8.12125e-05
8.12755e-05
8.13179e-05
8.13458e-05
8.13629e-05
8.13719e-05
8.13753e-05
8.13749e-05
8.1372e-05
8.13676e-05
8.13627e-05
8.13572e-05
8.13523e-05
8.13473e-05
8.13431e-05
8.13391e-05
8.13358e-05
8.1333e-05
8.13307e-05
8.13289e-05
8.13276e-05
8.13265e-05
8.13256e-05
8.13251e-05
8.13248e-05
8.13246e-05
8.13246e-05
8.13246e-05
8.13247e-05
8.13247e-05
8.13249e-05
8.13251e-05
8.13253e-05
8.13255e-05
8.13257e-05
8.13259e-05
8.1326e-05
8.13261e-05
8.1326e-05
8.13262e-05
8.13263e-05
8.13264e-05
8.13265e-05
8.13266e-05
8.13266e-05
8.13266e-05
8.13267e-05
8.13267e-05
8.13267e-05
8.13267e-05
8.13267e-05
8.13265e-05
8.13266e-05
8.13266e-05
8.13266e-05
8.13266e-05
8.13266e-05
8.13266e-05
8.13265e-05
8.13265e-05
8.13265e-05
8.13263e-05
8.13265e-05
8.13261e-05
8.13264e-05
8.13262e-05
8.13266e-05
8.13262e-05
8.13263e-05
8.13257e-05
8.13253e-05
8.13248e-05
8.13247e-05
8.13241e-05
8.13239e-05
8.13231e-05
8.13227e-05
8.13218e-05
8.13212e-05
8.13202e-05
8.13193e-05
8.13183e-05
8.1317e-05
8.1316e-05
8.13144e-05
8.13134e-05
8.13113e-05
8.13105e-05
8.13079e-05
8.13073e-05
8.13041e-05
8.13038e-05
8.12999e-05
8.13001e-05
8.12954e-05
8.12961e-05
8.12907e-05
8.1292e-05
8.12858e-05
8.1288e-05
8.12813e-05
8.12841e-05
8.12764e-05
8.12801e-05
8.12717e-05
8.12764e-05
8.12674e-05
8.12731e-05
8.12632e-05
8.12705e-05
8.12594e-05
8.12685e-05
8.12562e-05
8.1267e-05
8.12535e-05
8.12659e-05
8.12514e-05
8.12654e-05
8.12498e-05
8.12654e-05
8.12493e-05
8.1266e-05
8.1249e-05
8.12669e-05
8.12494e-05
8.12683e-05
8.12504e-05
8.12702e-05
8.12522e-05
8.12726e-05
8.12546e-05
8.12755e-05
8.1258e-05
8.12788e-05
8.12614e-05
8.12821e-05
8.12652e-05
8.12856e-05
8.12694e-05
8.12893e-05
8.12736e-05
8.12931e-05
8.12785e-05
8.12971e-05
8.12831e-05
8.13009e-05
8.12876e-05
8.13044e-05
8.12917e-05
8.13078e-05
8.12963e-05
8.13112e-05
8.13007e-05
8.13142e-05
8.13047e-05
8.13167e-05
8.1308e-05
8.13192e-05
8.13113e-05
8.13214e-05
8.13149e-05
8.13237e-05
8.13181e-05
8.13256e-05
8.13208e-05
8.13272e-05
8.13229e-05
8.13286e-05
8.13256e-05
8.13299e-05
8.13276e-05
8.13306e-05
8.1328e-05
8.13306e-05
8.13285e-05
8.13311e-05
8.13302e-05
8.13318e-05
8.13306e-05
8.13311e-05
8.13296e-05
8.13302e-05
8.13292e-05
8.13302e-05
8.13304e-05
8.13309e-05
8.13302e-05
8.13299e-05
8.13289e-05
8.13286e-05
8.1328e-05
8.13286e-05
8.13296e-05
8.13301e-05
8.13295e-05
8.13289e-05
8.13273e-05
8.13271e-05
8.13268e-05
8.13275e-05
8.13294e-05
8.13297e-05
8.13292e-05
8.13282e-05
8.1326e-05
8.13266e-05
8.13256e-05
8.13276e-05
8.13299e-05
8.13304e-05
8.13281e-05
8.1328e-05
8.13319e-05
8.13187e-05
8.13228e-05
8.13077e-05
8.13543e-05
8.12634e-05
8.10918e-05
8.12588e-05
8.10003e-05
8.13367e-05
7.89413e-05
7.61158e-05
7.83302e-05
7.90425e-05
7.93094e-05
3.46901e-05
2.12127e-05
1.85458e-05
1.88816e-05
2.15179e-05
2.57509e-05
3.11334e-05
3.69747e-05
4.15944e-05
4.64909e-05
5.14366e-05
5.6116e-05
6.05107e-05
6.46149e-05
6.85073e-05
7.19892e-05
7.50615e-05
7.78925e-05
8.04511e-05
8.28541e-05
8.50417e-05
8.67788e-05
8.82661e-05
8.9545e-05
9.06242e-05
9.15267e-05
9.22769e-05
9.29004e-05
9.34174e-05
9.38478e-05
9.42057e-05
9.45018e-05
9.47463e-05
9.49489e-05
9.51204e-05
9.52671e-05
9.53932e-05
9.55015e-05
9.55945e-05
9.5674e-05
9.57424e-05
9.58006e-05
9.58509e-05
9.58934e-05
9.59306e-05
9.59615e-05
9.59891e-05
9.60115e-05
9.6032e-05
9.6048e-05
9.60626e-05
9.60737e-05
9.60857e-05
9.60926e-05
9.61068e-05
9.61008e-05
9.61236e-05
9.57903e-05
9.67053e-05
9.823e-05
9.71122e-05
9.40655e-05
9.4473e-05
9.50301e-05
9.5605e-05
9.61535e-05
9.67414e-05
9.73031e-05
9.78036e-05
9.82307e-05
9.8582e-05
9.88687e-05
9.90976e-05
9.92784e-05
9.94182e-05
9.95241e-05
9.96019e-05
9.96585e-05
9.96984e-05
9.97257e-05
9.97433e-05
9.9754e-05
9.97596e-05
9.97619e-05
9.97617e-05
9.97602e-05
9.97576e-05
9.9755e-05
9.97518e-05
9.9749e-05
9.97463e-05
9.97439e-05
9.9742e-05
9.97404e-05
9.9739e-05
9.9738e-05
9.97372e-05
9.97368e-05
9.97365e-05
9.97364e-05
9.97364e-05
9.97364e-05
9.97364e-05
9.97366e-05
9.97369e-05
9.97372e-05
9.97374e-05
9.97377e-05
9.97379e-05
9.97382e-05
9.97383e-05
9.97382e-05
9.97384e-05
9.97386e-05
9.97388e-05
9.97389e-05
9.9739e-05
9.97392e-05
9.97392e-05
9.97393e-05
9.97393e-05
9.97393e-05
9.97394e-05
9.97393e-05
9.97392e-05
9.97392e-05
9.97392e-05
9.97392e-05
9.97392e-05
9.97393e-05
9.97393e-05
9.97393e-05
9.97392e-05
9.97392e-05
9.9739e-05
9.97391e-05
9.97388e-05
9.9739e-05
9.97389e-05
9.9739e-05
9.97389e-05
9.97387e-05
9.97384e-05
9.97377e-05
9.97374e-05
9.97368e-05
9.97366e-05
9.97358e-05
9.97355e-05
9.97343e-05
9.97339e-05
9.97324e-05
9.9732e-05
9.973e-05
9.97296e-05
9.9727e-05
9.97267e-05
9.97236e-05
9.97234e-05
9.97196e-05
9.97195e-05
9.97151e-05
9.97152e-05
9.971e-05
9.97105e-05
9.97044e-05
9.97053e-05
9.96984e-05
9.96997e-05
9.96921e-05
9.96939e-05
9.96854e-05
9.96879e-05
9.9679e-05
9.96821e-05
9.96723e-05
9.9676e-05
9.96655e-05
9.96701e-05
9.96592e-05
9.96647e-05
9.96531e-05
9.96599e-05
9.96477e-05
9.96558e-05
9.9643e-05
9.96524e-05
9.96391e-05
9.96497e-05
9.96358e-05
9.96477e-05
9.96334e-05
9.96464e-05
9.96322e-05
9.96462e-05
9.96315e-05
9.96463e-05
9.96315e-05
9.96472e-05
9.96325e-05
9.96489e-05
9.96345e-05
9.96514e-05
9.96374e-05
9.96547e-05
9.96415e-05
9.96588e-05
9.96459e-05
9.96631e-05
9.96507e-05
9.96678e-05
9.9656e-05
9.96728e-05
9.96616e-05
9.96781e-05
9.96679e-05
9.96838e-05
9.9674e-05
9.96894e-05
9.96799e-05
9.96948e-05
9.96856e-05
9.97001e-05
9.96918e-05
9.97056e-05
9.96978e-05
9.97105e-05
9.97033e-05
9.97146e-05
9.97082e-05
9.97188e-05
9.97132e-05
9.97227e-05
9.97181e-05
9.97263e-05
9.97223e-05
9.97294e-05
9.97262e-05
9.97323e-05
9.97297e-05
9.97351e-05
9.97333e-05
9.97375e-05
9.97359e-05
9.97389e-05
9.97372e-05
9.97399e-05
9.97387e-05
9.97413e-05
9.9741e-05
9.97425e-05
9.97417e-05
9.97422e-05
9.97409e-05
9.97416e-05
9.97412e-05
9.97423e-05
9.97426e-05
9.97429e-05
9.97422e-05
9.97416e-05
9.97407e-05
9.97406e-05
9.97403e-05
9.97412e-05
9.97423e-05
9.97424e-05
9.97415e-05
9.97405e-05
9.97388e-05
9.97388e-05
9.9739e-05
9.97401e-05
9.97421e-05
9.97422e-05
9.97412e-05
9.97397e-05
9.9737e-05
9.97376e-05
9.97376e-05
9.97407e-05
9.9743e-05
9.97429e-05
9.97402e-05
9.97396e-05
9.97429e-05
9.97306e-05
9.97323e-05
9.97225e-05
9.97542e-05
9.96873e-05
9.95169e-05
9.96472e-05
9.94073e-05
9.967e-05
9.74285e-05
9.43388e-05
9.58747e-05
9.66732e-05
9.71603e-05
8.35512e-05
4.22181e-05
2.92973e-05
2.406e-05
2.1838e-05
2.15523e-05
2.33993e-05
2.67448e-05
3.12111e-05
3.65776e-05
4.11905e-05
4.55483e-05
5.01364e-05
5.48976e-05
5.97125e-05
6.43978e-05
6.8871e-05
7.31664e-05
7.74134e-05
8.16163e-05
8.58112e-05
8.99837e-05
9.31117e-05
9.53795e-05
9.73635e-05
9.91019e-05
0.000100625
0.000101961
0.000103126
0.000104142
0.000105021
0.000105778
0.000106428
0.000106985
0.000107468
0.000107885
0.000108245
0.000108556
0.000108823
0.000109053
0.00010925
0.000109419
0.000109565
0.00010969
0.000109797
0.000109889
0.000109968
0.000110035
0.000110093
0.000110142
0.000110184
0.00011022
0.000110252
0.000110277
0.000110306
0.000110316
0.000110356
0.000110101
0.000111093
0.000112337
0.000111265
0.000108654
0.000108553
0.000108749
0.000109083
0.000109491
0.000110023
0.000110584
0.000111125
0.000111616
0.000112044
0.000112411
0.000112719
0.000112974
0.000113181
0.000113347
0.000113477
0.000113577
0.000113653
0.000113711
0.000113753
0.000113784
0.000113805
0.000113821
0.00011383
0.000113837
0.000113841
0.000113843
0.000113844
0.000113844
0.000113843
0.000113843
0.000113842
0.000113842
0.000113841
0.000113841
0.00011384
0.00011384
0.00011384
0.00011384
0.000113841
0.000113841
0.000113841
0.000113842
0.000113842
0.000113842
0.000113843
0.000113843
0.000113843
0.000113844
0.000113844
0.000113844
0.000113844
0.000113844
0.000113845
0.000113845
0.000113845
0.000113845
0.000113845
0.000113845
0.000113846
0.000113846
0.000113846
0.000113846
0.000113845
0.000113845
0.000113845
0.000113845
0.000113845
0.000113846
0.000113846
0.000113846
0.000113845
0.000113845
0.000113845
0.000113845
0.000113845
0.000113845
0.000113845
0.000113845
0.000113845
0.000113845
0.000113845
0.000113844
0.000113844
0.000113843
0.000113843
0.000113842
0.000113842
0.00011384
0.00011384
0.000113838
0.000113838
0.000113835
0.000113835
0.000113832
0.000113832
0.000113828
0.000113828
0.000113824
0.000113824
0.000113818
0.000113819
0.000113813
0.000113813
0.000113806
0.000113807
0.000113799
0.000113801
0.000113791
0.000113794
0.000113783
0.000113786
0.000113775
0.000113779
0.000113767
0.000113771
0.000113759
0.000113764
0.00011375
0.000113756
0.000113743
0.00011375
0.000113736
0.000113744
0.000113729
0.000113739
0.000113724
0.000113734
0.000113719
0.000113731
0.000113716
0.000113728
0.000113714
0.000113727
0.000113712
0.000113726
0.000113711
0.000113726
0.000113712
0.000113727
0.000113714
0.000113729
0.000113717
0.000113733
0.000113721
0.000113737
0.000113726
0.000113742
0.000113731
0.000113747
0.000113737
0.000113753
0.000113744
0.000113759
0.000113751
0.000113766
0.000113759
0.000113772
0.000113766
0.000113779
0.000113773
0.000113786
0.00011378
0.000113793
0.000113788
0.000113799
0.000113795
0.000113805
0.000113801
0.00011381
0.000113807
0.000113816
0.000113813
0.000113821
0.000113819
0.000113825
0.000113824
0.000113829
0.000113828
0.000113833
0.000113833
0.000113837
0.000113836
0.000113839
0.000113838
0.000113841
0.000113841
0.000113844
0.000113844
0.000113845
0.000113845
0.000113846
0.000113845
0.000113846
0.000113846
0.000113847
0.000113848
0.000113848
0.000113847
0.000113846
0.000113845
0.000113846
0.000113846
0.000113847
0.000113848
0.000113848
0.000113847
0.000113846
0.000113844
0.000113844
0.000113845
0.000113846
0.000113848
0.000113848
0.000113847
0.000113845
0.000113842
0.000113842
0.000113843
0.000113846
0.000113849
0.000113848
0.000113845
0.000113844
0.000113847
0.000113837
0.000113837
0.000113831
0.000113853
0.000113808
0.000113661
0.000113749
0.000113548
0.000113724
0.000111944
0.000108908
0.000109773
0.000110359
0.000110815
0.000100377
9.60203e-05
6.44268e-05
4.65048e-05
3.63676e-05
3.03749e-05
2.71412e-05
2.56228e-05
2.60035e-05
2.80472e-05
3.13002e-05
3.54773e-05
4.03726e-05
4.50111e-05
4.9143e-05
5.3607e-05
5.84556e-05
6.3721e-05
6.93622e-05
7.52938e-05
8.17435e-05
8.64692e-05
9.04928e-05
9.41001e-05
9.73592e-05
0.000100319
0.000103
0.000105406
0.000107543
0.000109426
0.000111071
0.000112501
0.000113739
0.000114811
0.000115741
0.000116546
0.000117242
0.000117842
0.000118359
0.000118803
0.000119186
0.000119514
0.000119797
0.000120039
0.000120247
0.000120425
0.000120578
0.000120709
0.000120822
0.000120918
0.000121
0.00012107
0.000121131
0.000121182
0.000121233
0.000121265
0.000121334
0.00012118
0.000121885
0.000122906
0.000122026
0.000120036
0.000119683
0.000119608
0.000119707
0.000119929
0.000120308
0.000120782
0.000121285
0.000121778
0.000122231
0.000122638
0.00012299
0.000123292
0.000123544
0.000123753
0.000123922
0.000124058
0.000124164
0.000124248
0.000124312
0.000124362
0.0001244
0.000124428
0.000124449
0.000124465
0.000124476
0.000124484
0.00012449
0.000124495
0.000124498
0.0001245
0.000124502
0.000124503
0.000124504
0.000124505
0.000124506
0.000124506
0.000124507
0.000124508
0.000124509
0.000124509
0.00012451
0.000124511
0.000124511
0.000124512
0.000124513
0.000124513
0.000124514
0.000124514
0.000124514
0.000124515
0.000124515
0.000124515
0.000124515
0.000124516
0.000124516
0.000124516
0.000124516
0.000124516
0.000124516
0.000124516
0.000124517
0.000124517
0.000124516
0.000124516
0.000124516
0.000124517
0.000124517
0.000124517
0.000124517
0.000124517
0.000124517
0.000124517
0.000124516
0.000124516
0.000124516
0.000124516
0.000124516
0.000124516
0.000124516
0.000124516
0.000124516
0.000124515
0.000124515
0.000124514
0.000124514
0.000124513
0.000124513
0.000124511
0.000124511
0.000124509
0.000124509
0.000124507
0.000124506
0.000124503
0.000124503
0.000124499
0.000124499
0.000124494
0.000124494
0.000124489
0.000124489
0.000124483
0.000124483
0.000124476
0.000124476
0.000124468
0.000124468
0.00012446
0.00012446
0.000124451
0.000124452
0.000124442
0.000124443
0.000124432
0.000124435
0.000124423
0.000124426
0.000124413
0.000124417
0.000124404
0.000124409
0.000124396
0.000124401
0.000124388
0.000124394
0.000124382
0.000124389
0.000124376
0.000124384
0.000124371
0.00012438
0.000124368
0.000124377
0.000124365
0.000124375
0.000124364
0.000124374
0.000124364
0.000124375
0.000124365
0.000124377
0.000124367
0.000124379
0.000124371
0.000124383
0.000124376
0.000124388
0.000124382
0.000124394
0.000124388
0.0001244
0.000124395
0.000124407
0.000124403
0.000124414
0.000124411
0.000124422
0.000124419
0.00012443
0.000124427
0.000124437
0.000124436
0.000124445
0.000124444
0.000124453
0.000124452
0.00012446
0.000124459
0.000124467
0.000124467
0.000124474
0.000124474
0.00012448
0.00012448
0.000124485
0.000124486
0.000124491
0.000124491
0.000124496
0.000124497
0.0001245
0.000124501
0.000124504
0.000124504
0.000124507
0.000124507
0.00012451
0.000124511
0.000124512
0.000124512
0.000124513
0.000124513
0.000124514
0.000124515
0.000124516
0.000124516
0.000124517
0.000124516
0.000124516
0.000124515
0.000124515
0.000124516
0.000124516
0.000124517
0.000124517
0.000124516
0.000124515
0.000124513
0.000124514
0.000124515
0.000124516
0.000124517
0.000124517
0.000124516
0.000124514
0.000124511
0.000124511
0.000124513
0.000124515
0.000124517
0.000124517
0.000124514
0.000124513
0.000124515
0.000124508
0.000124508
0.000124504
0.00012452
0.00012449
0.000124381
0.000124433
0.00012428
0.000124377
0.00012311
0.000120549
0.000120819
0.000121078
0.000121359
0.000103914
0.000110528
0.000126391
9.06606e-05
6.99692e-05
5.63727e-05
4.50994e-05
3.7593e-05
3.2708e-05
3.00173e-05
2.914e-05
2.98386e-05
3.18883e-05
3.49875e-05
3.88911e-05
4.33525e-05
4.82166e-05
5.33698e-05
5.87567e-05
6.43728e-05
7.02015e-05
7.6072e-05
8.18691e-05
8.74544e-05
9.26715e-05
9.7401e-05
0.0001016
0.000105297
0.000108541
0.00011138
0.000113854
0.000116002
0.000117861
0.00011947
0.000120864
0.000122069
0.00012311
0.000124007
0.000124781
0.000125446
0.000126018
0.00012651
0.000126933
0.000127295
0.000127606
0.000127873
0.000128102
0.000128298
0.000128467
0.000128611
0.000128734
0.000128839
0.00012893
0.000129007
0.000129082
0.000129135
0.000129249
0.000129184
0.000129638
0.0001303
0.000129593
0.000128263
0.000127761
0.000127465
0.000127376
0.00012745
0.000127691
0.000128066
0.000128508
0.00012897
0.000129416
0.000129829
0.000130197
0.000130518
0.000130791
0.000131022
0.000131211
0.000131367
0.000131491
0.000131591
0.00013167
0.000131731
0.00013178
0.000131817
0.000131846
0.000131869
0.000131886
0.0001319
0.00013191
0.000131918
0.000131925
0.00013193
0.000131934
0.000131937
0.00013194
0.000131942
0.000131944
0.000131946
0.000131947
0.000131949
0.00013195
0.000131951
0.000131952
0.000131953
0.000131954
0.000131955
0.000131956
0.000131957
0.000131957
0.000131958
0.000131958
0.000131959
0.000131959
0.000131959
0.00013196
0.00013196
0.00013196
0.00013196
0.000131961
0.000131961
0.000131961
0.000131961
0.000131961
0.000131961
0.000131961
0.000131961
0.000131961
0.000131961
0.000131961
0.000131961
0.000131961
0.000131961
0.000131961
0.000131961
0.000131961
0.000131961
0.000131961
0.000131961
0.000131961
0.000131961
0.000131961
0.000131961
0.00013196
0.00013196
0.00013196
0.000131959
0.000131959
0.000131958
0.000131958
0.000131956
0.000131956
0.000131954
0.000131954
0.000131952
0.000131951
0.000131949
0.000131948
0.000131945
0.000131943
0.00013194
0.000131939
0.000131935
0.000131933
0.000131928
0.000131927
0.000131921
0.000131919
0.000131914
0.000131911
0.000131905
0.000131903
0.000131896
0.000131894
0.000131887
0.000131885
0.000131877
0.000131875
0.000131867
0.000131865
0.000131857
0.000131855
0.000131847
0.000131846
0.000131837
0.000131837
0.000131829
0.000131829
0.000131821
0.000131822
0.000131814
0.000131816
0.000131809
0.000131811
0.000131804
0.000131808
0.000131801
0.000131805
0.000131799
0.000131803
0.000131798
0.000131803
0.000131799
0.000131804
0.0001318
0.000131807
0.000131804
0.00013181
0.000131808
0.000131815
0.000131814
0.000131821
0.00013182
0.000131827
0.000131827
0.000131834
0.000131835
0.000131842
0.000131843
0.00013185
0.000131851
0.000131859
0.00013186
0.000131867
0.000131869
0.000131876
0.000131878
0.000131884
0.000131886
0.000131892
0.000131894
0.0001319
0.000131902
0.000131908
0.00013191
0.000131915
0.000131916
0.000131921
0.000131923
0.000131927
0.000131929
0.000131933
0.000131935
0.000131938
0.00013194
0.000131942
0.000131944
0.000131946
0.000131948
0.00013195
0.000131951
0.000131953
0.000131953
0.000131954
0.000131955
0.000131956
0.000131957
0.000131958
0.000131958
0.000131959
0.000131958
0.000131958
0.000131958
0.000131958
0.000131959
0.000131959
0.00013196
0.00013196
0.000131959
0.000131958
0.000131957
0.000131957
0.000131958
0.000131958
0.000131959
0.000131959
0.000131958
0.000131957
0.000131955
0.000131955
0.000131956
0.000131957
0.000131958
0.000131958
0.000131956
0.000131955
0.000131956
0.000131952
0.000131954
0.00013195
0.000131964
0.000131942
0.000131875
0.000131913
0.000131797
0.000131839
0.000131018
0.000129256
0.000129086
0.000128974
0.000129035
9.59235e-05
0.000108178
0.000137999
0.00013391
0.000103475
8.36416e-05
6.76252e-05
5.63628e-05
4.83498e-05
4.21415e-05
3.72435e-05
3.42769e-05
3.30804e-05
3.34168e-05
3.488e-05
3.74629e-05
4.10864e-05
4.56691e-05
5.09931e-05
5.68116e-05
6.30158e-05
6.94803e-05
7.60638e-05
8.25781e-05
8.87704e-05
9.4499e-05
9.96595e-05
0.000104231
0.000108244
0.000111743
0.000114787
0.00011742
0.000119693
0.000121655
0.000123351
0.000124818
0.000126084
0.000127175
0.000128114
0.000128922
0.000129617
0.000130214
0.000130727
0.000131167
0.000131545
0.000131869
0.000132147
0.000132385
0.000132589
0.000132764
0.000132914
0.000133041
0.000133152
0.000133245
0.00013334
0.000133403
0.000133578
0.000133538
0.000133881
0.000134268
0.000133723
0.00013269
0.000132075
0.000131612
0.000131415
0.00013141
0.000131584
0.000131901
0.000132306
0.000132745
0.000133182
0.000133593
0.000133963
0.000134289
0.000134568
0.000134805
0.000135002
0.000135164
0.000135295
0.000135401
0.000135486
0.000135553
0.000135606
0.000135648
0.000135681
0.000135707
0.000135727
0.000135743
0.000135756
0.000135766
0.000135774
0.000135781
0.000135786
0.000135791
0.000135794
0.000135797
0.0001358
0.000135803
0.000135805
0.000135807
0.000135809
0.00013581
0.000135811
0.000135813
0.000135814
0.000135815
0.000135816
0.000135817
0.000135817
0.000135818
0.000135818
0.000135819
0.000135819
0.00013582
0.00013582
0.00013582
0.000135821
0.000135821
0.000135821
0.000135821
0.000135821
0.000135821
0.000135821
0.000135821
0.000135822
0.000135821
0.000135822
0.000135822
0.000135822
0.000135822
0.000135822
0.000135822
0.000135822
0.000135822
0.000135822
0.000135822
0.000135821
0.000135821
0.000135821
0.000135821
0.000135821
0.000135821
0.000135821
0.000135821
0.00013582
0.00013582
0.000135819
0.000135819
0.000135818
0.000135818
0.000135817
0.000135816
0.000135815
0.000135813
0.000135812
0.00013581
0.000135808
0.000135807
0.000135804
0.000135802
0.000135799
0.000135797
0.000135794
0.000135791
0.000135787
0.000135784
0.00013578
0.000135776
0.000135772
0.000135768
0.000135763
0.000135759
0.000135754
0.00013575
0.000135744
0.00013574
0.000135734
0.00013573
0.000135724
0.000135719
0.000135714
0.000135709
0.000135704
0.0001357
0.000135695
0.000135691
0.000135686
0.000135682
0.000135679
0.000135675
0.000135672
0.000135669
0.000135667
0.000135664
0.000135662
0.00013566
0.000135659
0.000135658
0.000135657
0.000135656
0.000135657
0.000135656
0.000135657
0.000135658
0.000135659
0.00013566
0.000135663
0.000135665
0.000135667
0.00013567
0.000135673
0.000135675
0.000135679
0.000135682
0.000135686
0.00013569
0.000135694
0.000135698
0.000135703
0.000135706
0.000135711
0.000135715
0.00013572
0.000135724
0.000135729
0.000135733
0.000135737
0.000135741
0.000135746
0.00013575
0.000135754
0.000135758
0.000135762
0.000135766
0.000135769
0.000135773
0.000135776
0.00013578
0.000135783
0.000135786
0.000135789
0.000135792
0.000135795
0.000135797
0.000135799
0.000135802
0.000135804
0.000135806
0.000135808
0.000135809
0.000135811
0.000135812
0.000135813
0.000135814
0.000135815
0.000135816
0.000135817
0.000135817
0.000135817
0.000135817
0.000135817
0.000135818
0.000135818
0.000135819
0.000135819
0.000135819
0.000135818
0.000135818
0.000135818
0.000135817
0.000135818
0.000135818
0.000135818
0.000135818
0.000135818
0.000135817
0.000135816
0.000135815
0.000135816
0.000135816
0.000135816
0.000135816
0.000135816
0.000135815
0.000135814
0.000135815
0.000135813
0.000135817
0.000135812
0.000135829
0.000135806
0.000135776
0.000135827
0.000135708
0.00013574
0.000135186
0.00013423
0.00013375
0.000133337
0.000133267
)
;

boundaryField
{
    inlet
    {
        type            calculated;
        value           nonuniform List<scalar> 8(2.69658e-06 1.21548e-05 3.29507e-05 7.57651e-05 9.78371e-05 9.60751e-05 0.000101007 9.34045e-05);
    }
    outlet
    {
        type            calculated;
        value           nonuniform List<scalar> 8(2.44923e-05 5.55374e-05 7.93094e-05 9.71603e-05 0.000110815 0.000121359 0.000129035 0.000133267);
    }
    sideWall
    {
        type            empty;
    }
    bed
    {
        type            calculated;
        value           nonuniform List<scalar> 
300
(
1.29873e-05