/*--------------------------------*- C++ -*----------------------------------*\
| =========                 |                                                 |
| \\      /  F ield         | foam-extend: Open Source CFD                    |
|  \\    /   O peration     | Version:     3.2                                |
|   \\  /    A nd           | Web:         http://www.foam-extend.org         |
|    \\/     M anipulation  | For copyright notice see file Copyright         |
\*---------------------------------------------------------------------------*/
FoamFile
{
    version     2.0;
    format      ascii;
    class       areaScalarField;
    location    "2000";
    object      Fi;
}
// * * * * * * * * * * * * * * * * * * * * * * * * * * * * * * * * * * * * * //

dimensions      [0 1 -1 0 0 0 0];

internalField   nonuniform List<scalar> 
300
(
-1.32546e-06
-4.94728e-06
-1.88213e-06
5.22535e-07
1.80171e-06
2.30892e-06
2.5013e-06
2.5249e-06
2.49294e-06
2.42737e-06
2.34808e-06
2.26711e-06
2.18826e-06
2.10478e-06
2.02434e-06
1.94257e-06
1.85561e-06
1.7683e-06
1.67857e-06
1.58775e-06
1.49629e-06
1.40425e-06
1.30911e-06
1.21073e-06
1.11491e-06
1.02626e-06
9.45868e-07
8.7491e-07
8.13053e-07
7.6003e-07
7.14519e-07
6.75524e-07
6.42943e-07
6.16148e-07
5.94698e-07
5.76984e-07
5.623e-07
5.49868e-07
5.39493e-07
5.30541e-07
5.23101e-07
5.16555e-07
5.11226e-07
5.06374e-07
5.02628e-07
4.98962e-07
4.96387e-07
4.93562e-07
4.91803e-07
4.89399e-07
4.88834e-07
4.85439e-07
4.88639e-07
4.78865e-07
4.9676e-07
4.56884e-07
5.41501e-07
3.79922e-07
9.62833e-07
2.2532e-06
4.52541e-12
7.83552e-12
-5.3942e-12
8.81511e-12
-7.18844e-12
9.47267e-12
-8.00267e-12
9.39996e-12
-9.01242e-12
8.19792e-12
1.33009e-11
3.45162e-11
1.29419e-11
2.87398e-11
3.03756e-12
2.42112e-11
2.45894e-12
2.55827e-11
2.76778e-13
2.28948e-11
-3.17169e-12
2.13842e-11
-5.09314e-12
2.08399e-11
-7.178e-12
1.94683e-11
-8.6237e-12
1.92414e-11
-1.25562e-11
1.62466e-11
-1.40254e-11
1.44066e-11
-1.40502e-11
2.26637e-11
-1.09939e-11
1.62629e-11
-1.43626e-11
1.88083e-11
-1.32647e-11
1.33347e-11
4.63822e-13
3.25938e-11
-2.43362e-11
9.72077e-12
-2.49603e-11
2.38379e-11
-1.23269e-11
1.29344e-11
-1.39124e-11
2.45615e-12
-1.96246e-11
2.23232e-11
7.13541e-12
8.54217e-12
-2.09183e-11
2.7785e-12
-1.77647e-11
2.96224e-11
-2.00077e-11
3.42171e-11
-4.86323e-11
2.89345e-11
-3.13076e-11
5.14957e-11
1.48353e-11
-5.48971e-11
5.88846e-11
-1.18029e-10
1.24738e-10
-1.40688e-10
1.87222e-10
-2.06767e-10
2.49097e-10
-2.67266e-10
3.25118e-10
-3.81052e-10
5.28907e-10
-2.49442e-10
-2.71536e-10
7.01903e-10
-5.99185e-10
7.77407e-10
-1.5291e-09
1.86582e-09
-1.86065e-09
2.26722e-09
-2.72654e-09
3.27025e-09
-3.61611e-09
4.33948e-09
-4.76107e-09
5.60497e-09
-6.09665e-09
7.10787e-09
-7.6454e-09
8.83826e-09
-9.42512e-09
1.07886e-08
-1.14259e-08
1.29568e-08
-1.36318e-08
1.53238e-08
-1.60212e-08
1.78596e-08
-1.8562e-08
2.05244e-08
-2.12119e-08
2.32686e-08
-2.39197e-08
2.60343e-08
-2.66261e-08
2.87564e-08
-2.9266e-08
3.13649e-08
-3.1771e-08
3.37891e-08
-3.4071e-08
3.59572e-08
-3.60989e-08
3.78059e-08
-3.78025e-08
3.93148e-08
-3.91979e-08
4.04783e-08
-4.02478e-08
4.1319e-08
-4.09954e-08
4.18245e-08
-4.1417e-08
4.19912e-08
-4.14994e-08
4.18148e-08
-4.12459e-08
4.12968e-08
-4.06647e-08
4.04528e-08
-3.97675e-08
3.93022e-08
-3.85736e-08
3.7959e-08
-3.70344e-08
3.57284e-08
-3.54648e-08
3.38427e-08
-3.36655e-08
3.41818e-08
-2.96833e-08
3.07077e-08
-2.83758e-08
2.28412e-08
-3.13099e-08
2.43579e-08
-2.57128e-08
3.23178e-08
-1.3086e-08
2.22165e-08
-1.87241e-08
3.90257e-09
-3.32835e-08
1.48186e-08
-1.7823e-08
3.62232e-08
9.12604e-09
1.45067e-08
-1.03919e-08
-1.85943e-08
-4.20635e-08
7.14705e-09
-1.13782e-08
4.60133e-08
3.38363e-08
8.66025e-09
-4.58068e-09
-4.17331e-08
-5.63679e-08
2.11809e-09
-7.08401e-09
6.03847e-08
5.83971e-08
4.98755e-09
-1.21327e-09
-6.39485e-08
-7.39763e-08
-7.10772e-10
-4.31879e-09
7.7128e-08
8.13184e-08
2.80776e-09
2.43455e-10
-8.40452e-08
-9.24441e-08
-1.72466e-09
-2.9171e-09
9.397e-08
1.01678e-07
1.7537e-09
4.64073e-10
-1.01269e-07
-1.10249e-07
-1.83942e-09
-2.39962e-09
1.09518e-07
1.20188e-07
1.35415e-09
4.87582e-10
-1.16492e-07
-1.28031e-07
-1.78857e-09
-2.25096e-09
1.24074e-07
1.3868e-07
1.12522e-09
5.54557e-10
-1.30698e-07
-1.46802e-07
-1.83153e-09
-2.56543e-09
1.38525e-07
1.58851e-07
1.51261e-09
7.44174e-10
-1.46547e-07
-1.6782e-07
-4.343e-09
4.57593e-09
1.11474e-07
-7.4192e-11
-1.13095e-11
-9.82976e-12
-5.78192e-12
-5.20545e-12
-1.41846e-12
-2.07865e-12
1.00195e-12
-1.86362e-13
2.21952e-12
2.11684e-06
1.57975e-06
9.36038e-07
7.82475e-07
)
;

boundaryField
{
    inlet
    {
        type            calculated;
        value           uniform 0;
    }
    outlet
    {
        type            calculated;
        value           uniform 0;
    }
    sideWall
    {
        type            empty;
    }
}


// ************************************************************************* //
