/*--------------------------------*- C++ -*----------------------------------*\
| =========                 |                                                 |
| \\      /  F ield         | foam-extend: Open Source CFD                    |
|  \\    /   O peration     | Version:     3.2                                |
|   \\  /    A nd           | Web:         http://www.foam-extend.org         |
|    \\/     M anipulation  | For copyright notice see file Copyright         |
\*---------------------------------------------------------------------------*/
FoamFile
{
    version     2.0;
    format      ascii;
    class       areaScalarField;
    location    "2000";
    object      Fi1;
}
// * * * * * * * * * * * * * * * * * * * * * * * * * * * * * * * * * * * * * //

dimensions      [0 1 -1 0 0 0 0];

internalField   nonuniform List<scalar> 
300
(
-1.32546e-06
-4.94728e-06
-1.88213e-06
5.22535e-07
1.80171e-06
2.30892e-06
2.5013e-06
2.5249e-06
2.49294e-06
2.42737e-06
2.34808e-06
2.26711e-06
2.18826e-06
2.10478e-06
2.02434e-06
1.94257e-06
1.85561e-06
1.7683e-06
1.67857e-06
1.58775e-06
1.49629e-06
1.40425e-06
1.30911e-06
1.21073e-06
1.11491e-06
1.02626e-06
9.45868e-07
8.7491e-07
8.13053e-07
7.6003e-07
7.14519e-07
6.75524e-07
6.42943e-07
6.16148e-07
5.94698e-07
5.76984e-07
5.623e-07
5.49868e-07
5.39493e-07
5.30541e-07
5.23101e-07
5.16555e-07
5.11226e-07
5.06374e-07
5.02628e-07
4.98962e-07
4.96387e-07
4.93562e-07
4.91803e-07
4.89399e-07
4.88834e-07
4.85439e-07
4.88639e-07
4.78865e-07
4.9676e-07
4.56884e-07
5.41501e-07
3.79922e-07
9.62833e-07
2.2532e-06
4.52474e-12
7.83464e-12
-5.39378e-12
8.81426e-12
-7.18792e-12
9.47176e-12
-8.00193e-12
9.399e-12
-9.01602e-12
8.21854e-12
1.33934e-11
3.45492e-11
1.29446e-11
2.87315e-11
3.03588e-12
2.42234e-11
2.47635e-12
2.55931e-11
2.81923e-13
2.28974e-11
-3.16669e-12
2.13891e-11
-5.08683e-12
2.08433e-11
-7.17596e-12
1.94701e-11
-8.61961e-12
1.92367e-11
-1.25637e-11
1.62429e-11
-1.40333e-11
1.4406e-11
-1.40276e-11
2.26741e-11
-1.10068e-11
1.62517e-11
-1.43567e-11
1.88204e-11
-1.32223e-11
4.20273e-11
2.85523e-13
3.63233e-12
-3.6002e-11
9.98544e-12
-1.0622e-11
2.3826e-11
-1.58288e-11
5.7987e-12
-1.29593e-11
9.60889e-12
-1.49396e-12
2.23026e-11
-1.11685e-11
-1.43519e-12
-2.07581e-11
1.27601e-11
-3.79998e-12
2.94293e-11
-4.74047e-11
3.43576e-11
-3.51685e-11
6.55522e-11
-3.05739e-11
1.47577e-11
8.06274e-12
-7.39004e-11
6.46918e-11
-9.87519e-11
1.33793e-10
-1.32455e-10
1.77981e-10
-2.14881e-10
2.49032e-10
-2.67193e-10
3.24976e-10
-3.8069e-10
5.29163e-10
-2.38822e-10
-1.00538e-10
6.87233e-10
-9.6405e-10
7.78759e-10
-1.07789e-09
1.86389e-09
-2.11567e-09
2.26674e-09
-2.72388e-09
3.26907e-09
-3.61468e-09
4.33785e-09
-4.75947e-09
5.60313e-09
-6.09472e-09
7.10579e-09
-7.6432e-09
8.8359e-09
-9.42269e-09
1.0786e-08
-1.14232e-08
1.29539e-08
-1.36289e-08
1.53208e-08
-1.60182e-08
1.78564e-08
-1.85588e-08
2.05212e-08
-2.12087e-08
2.32654e-08
-2.39165e-08
2.60312e-08
-2.6623e-08
2.87534e-08
-2.92632e-08
3.13622e-08
-3.17684e-08
3.37867e-08
-3.40688e-08
3.59552e-08
-3.6097e-08
3.78044e-08
-3.78011e-08
3.93137e-08
-3.9197e-08
4.04777e-08
-4.02472e-08
4.13188e-08
-4.09952e-08
4.18247e-08
-4.14172e-08
4.19917e-08
-4.15001e-08
4.18157e-08
-4.12469e-08
4.12981e-08
-4.06661e-08
4.04544e-08
-3.97691e-08
3.93039e-08
-3.85759e-08
3.7788e-08
-3.70707e-08
3.59046e-08
-3.54317e-08
3.53045e-08
-3.26516e-08
3.27169e-08
-3.07442e-08
2.67298e-08
-3.18716e-08
2.68339e-08
-2.7771e-08
3.23043e-08
-1.78837e-08
2.43384e-08
-2.1084e-08
9.07316e-09
-3.21268e-08
1.70917e-08
-1.97099e-08
3.46607e-08
3.19917e-09
1.62907e-08
-1.22633e-08
-1.28066e-08
-3.92662e-08
8.82114e-09
-1.28136e-08
4.30676e-08
2.75899e-08
9.92432e-09
-5.74894e-09
-3.59577e-08
-5.24119e-08
3.06281e-09
-7.90671e-09
5.65216e-08
5.23261e-08
5.7243e-09
-1.90378e-09
-5.85113e-08
-6.94087e-08
-1.85791e-10
-4.87401e-09
7.28633e-08
7.58192e-08
3.20625e-09
1.61606e-11
-7.92593e-08
-8.78439e-08
-1.62546e-09
-3.17636e-09
8.98398e-08
9.68246e-08
1.97247e-09
5.209e-10
-9.72289e-08
-1.05876e-07
-1.84682e-09
-2.47685e-09
1.05738e-07
1.15553e-07
1.42922e-09
5.91519e-10
-1.12841e-07
-1.2357e-07
-1.78195e-09
-2.31406e-09
1.20453e-07
1.33922e-07
1.25693e-09
6.45746e-10
-1.27246e-07
-1.41998e-07
-1.74635e-09
-2.37318e-09
1.34668e-07
1.5352e-07
1.38039e-09
6.74782e-10
-1.42248e-07
-1.62531e-07
-2.13839e-09
-2.43768e-09
1.53362e-07
1.66933e-07
-4.64705e-08
-3.64312e-11
-1.05899e-11
-1.00547e-11
-5.75446e-12
-5.20944e-12
-1.42064e-12
-2.07903e-12
1.00285e-12
-1.85251e-13
2.2215e-12
2.11684e-06
1.57975e-06
9.36038e-07
7.82475e-07
)
;

boundaryField
{
    inlet
    {
        type            calculated;
        value           uniform 0;
    }
    outlet
    {
        type            calculated;
        value           uniform 0;
    }
    sideWall
    {
        type            empty;
    }
}


// ************************************************************************* //
