/*--------------------------------*- C++ -*----------------------------------*\
| =========                 |                                                 |
| \\      /  F ield         | foam-extend: Open Source CFD                    |
|  \\    /   O peration     | Version:     3.2                                |
|   \\  /    A nd           | Web:         http://www.foam-extend.org         |
|    \\/     M anipulation  | For copyright notice see file Copyright         |
\*---------------------------------------------------------------------------*/
FoamFile
{
    version     2.0;
    format      ascii;
    class       areaScalarField;
    location    "2000";
    object      Fi2;
}
// * * * * * * * * * * * * * * * * * * * * * * * * * * * * * * * * * * * * * //

dimensions      [0 1 -1 0 0 0 0];

internalField   nonuniform List<scalar> 
300
(
-1.32546e-06
-4.94728e-06
-1.88213e-06
5.22535e-07
1.80171e-06
2.30892e-06
2.5013e-06
2.5249e-06
2.49294e-06
2.42737e-06
2.34808e-06
2.26711e-06
2.18826e-06
2.10478e-06
2.02434e-06
1.94257e-06
1.85561e-06
1.7683e-06
1.67857e-06
1.58775e-06
1.49629e-06
1.40425e-06
1.30911e-06
1.21073e-06
1.11491e-06
1.02626e-06
9.45868e-07
8.7491e-07
8.13053e-07
7.6003e-07
7.14519e-07
6.75524e-07
6.42943e-07
6.16148e-07
5.94698e-07
5.76984e-07
5.623e-07
5.49868e-07
5.39493e-07
5.30541e-07
5.23101e-07
5.16555e-07
5.11226e-07
5.06374e-07
5.02628e-07
4.98962e-07
4.96387e-07
4.93562e-07
4.91803e-07
4.89399e-07
4.88834e-07
4.85439e-07
4.88639e-07
4.78865e-07
4.9676e-07
4.56884e-07
5.41501e-07
3.79922e-07
9.62833e-07
2.2532e-06
4.52406e-12
7.83375e-12
-5.39336e-12
8.8134e-12
-7.18741e-12
9.47084e-12
-8.00118e-12
9.39802e-12
-9.01961e-12
8.23929e-12
1.34861e-11
3.45821e-11
1.29471e-11
2.87232e-11
3.03425e-12
2.42356e-11
2.49379e-12
2.56035e-11
2.87044e-13
2.29001e-11
-3.16169e-12
2.13939e-11
-5.08053e-12
2.08465e-11
-7.17396e-12
1.94718e-11
-8.61557e-12
1.92319e-11
-1.25713e-11
1.62392e-11
-1.40414e-11
1.44053e-11
-1.40051e-11
2.26843e-11
-1.10198e-11
1.62406e-11
-1.43519e-11
1.88442e-11
4.45846e-12
4.18041e-11
-4.11734e-11
-3.62215e-12
-1.22163e-11
2.3346e-11
-1.06905e-11
6.96642e-12
-1.57675e-11
1.67584e-11
-1.03057e-11
2.33657e-11
-4.28874e-12
3.36133e-13
-2.38913e-11
6.77233e-12
2.24021e-12
2.03292e-11
-1.40321e-11
1.99842e-11
-4.72989e-11
4.71946e-11
-3.36781e-11
5.43515e-11
-3.25498e-11
-3.30077e-11
8.43493e-12
-2.58632e-11
6.45976e-11
-6.84717e-11
1.33624e-10
-1.62725e-10
1.77945e-10
-2.1471e-10
2.48965e-10
-2.6712e-10
3.24835e-10
-3.80329e-10
5.29399e-10
-2.39733e-10
-1.01055e-10
3.48328e-10
-9.61002e-10
1.45893e-09
-1.07964e-09
1.39463e-09
-2.13956e-09
2.39059e-09
-2.6958e-09
3.26786e-09
-3.61326e-09
4.33623e-09
-4.75787e-09
5.60128e-09
-6.09279e-09
7.10371e-09
-7.64101e-09
8.83353e-09
-9.42026e-09
1.07834e-08
-1.14205e-08
1.29511e-08
-1.3626e-08
1.53177e-08
-1.60152e-08
1.78533e-08
-1.85557e-08
2.05179e-08
-2.12055e-08
2.32622e-08
-2.39134e-08
2.6028e-08
-2.662e-08
2.87505e-08
-2.92603e-08
3.13595e-08
-3.17658e-08
3.37843e-08
-3.40666e-08
3.59532e-08
-3.60952e-08
3.78029e-08
-3.77997e-08
3.93126e-08
-3.9196e-08
4.0477e-08
-4.02467e-08
4.13185e-08
-4.09951e-08
4.18248e-08
-4.14174e-08
4.19923e-08
-4.15007e-08
4.18167e-08
-4.12479e-08
4.12994e-08
-4.06674e-08
4.0456e-08
-3.97708e-08
3.93056e-08
-3.85782e-08
3.77906e-08
-3.70721e-08
3.65691e-08
-3.50908e-08
3.46402e-08
-3.30221e-08
3.01843e-08
-3.2786e-08
2.92734e-08
-2.98054e-08
3.26336e-08
-2.22765e-08
2.64816e-08
-2.3509e-08
1.39769e-08
-3.14134e-08
1.94704e-08
-2.16662e-08
3.34641e-08
-2.5025e-09
1.82145e-08
-1.43198e-08
-7.09471e-09
-3.68433e-08
1.06647e-08
-1.43676e-08
4.04509e-08
2.13701e-08
1.12899e-08
-7.14526e-09
-3.01785e-08
-4.86691e-08
4.30326e-09
-8.92844e-09
5.27656e-08
4.61622e-08
6.58495e-09
-2.56337e-09
-5.2986e-08
-6.49783e-08
4.39776e-10
-5.49769e-09
6.85994e-08
7.01468e-08
3.75337e-09
-2.98802e-10
-7.43637e-08
-8.32085e-08
-1.35966e-09
-3.50443e-09
8.56214e-08
9.18259e-08
2.17994e-09
4.66325e-10
-9.30348e-08
-1.01473e-07
-1.80343e-09
-2.51087e-09
1.01897e-07
1.10927e-07
1.50411e-09
5.59734e-10
-1.09048e-07
-1.19137e-07
-1.86652e-09
-2.23623e-09
1.16914e-07
1.29281e-07
1.194e-09
5.18326e-10
-1.23663e-07
-1.37217e-07
-1.75816e-09
-2.31634e-09
1.31113e-07
1.48379e-07
1.17676e-09
7.42943e-10
-1.38049e-07
-1.57146e-07
-2.18713e-09
-2.66878e-09
1.47062e-07
1.69641e-07
3.84387e-09
-5.7697e-09
-4.64066e-08
7.93958e-12
-1.03592e-11
-1.01874e-11
-5.70133e-12
-5.21509e-12
-1.41919e-12
-2.07921e-12
1.00364e-12
-1.84124e-13
2.22355e-12
2.11684e-06
1.57975e-06
9.36038e-07
7.82475e-07
)
;

boundaryField
{
    inlet
    {
        type            calculated;
        value           uniform 0;
    }
    outlet
    {
        type            calculated;
        value           uniform 0;
    }
    sideWall
    {
        type            empty;
    }
}


// ************************************************************************* //
