/*--------------------------------*- C++ -*----------------------------------*\
| =========                 |                                                 |
| \\      /  F ield         | foam-extend: Open Source CFD                    |
|  \\    /   O peration     | Version:     3.2                                |
|   \\  /    A nd           | Web:         http://www.foam-extend.org         |
|    \\/     M anipulation  | For copyright notice see file Copyright         |
\*---------------------------------------------------------------------------*/
FoamFile
{
    version     2.0;
    format      ascii;
    class       areaScalarField;
    location    "2000";
    object      Hdep;
}
// * * * * * * * * * * * * * * * * * * * * * * * * * * * * * * * * * * * * * //

dimensions      [0 0 0 0 0 0 0];

internalField   nonuniform List<scalar> 
300
(
0
0
0
0
0
0
0
0
0
0
0
0
0
0
0
0
0
0
0
0
0
0
0
0
0
0
0
0
0
0
0
0
0
0
0
0
0
0
0
0
0
0
0
0
0
0
0
0
0
0
0
0
0
0
0
0
0
0
0
0
0.00170644
0.00185995
0.00164209
0.00166497
0.00165484
0.00162641
0.00158975
0.00155665
0.00152941
0.00150715
0.00148894
0.00147317
0.00145994
0.00144895
0.00144004
0.00143298
0.00142755
0.0014234
0.00142026
0.00141786
0.00141606
0.00141475
0.00141374
0.00141309
0.00141258
0.00141235
0.00141221
0.00141228
0.00141236
0.00141256
0.00141271
0.00141294
0.00141313
0.00141335
0.00141355
0.0014137
0.00141383
0.00141397
0.00141412
0.00141421
0.00141432
0.00141442
0.00141447
0.00141444
0.00141448
0.0014145
0.00141452
0.00141454
0.00141457
0.0014146
0.00141465
0.00141464
0.00141465
0.00141456
0.00141456
0.00141455
0.00141454
0.00141454
0.00141455
0.00141455
0.00141458
0.00141459
0.00141462
0.00141462
0.00141461
0.00141455
0.00141453
0.00141451
0.0014145
0.00141449
0.00141448
0.00141449
0.00141449
0.0014145
0.00141451
0.00141452
0.00141455
0.00141454
0.00141463
0.00141459
0.00141466
0.00141462
0.00141468
0.00141459
0.00141459
0.00141451
0.00141452
0.00141447
0.00141448
0.00141447
0.00141445
0.0014145
0.00141444
0.00141457
0.00141443
0.00141466
0.00141443
0.00141478
0.00141443
0.00141492
0.00141444
0.00141509
0.00141444
0.00141529
0.00141444
0.00141552
0.00141443
0.00141576
0.00141442
0.00141603
0.00141441
0.00141632
0.00141441
0.00141669
0.00141451
0.00141714
0.00141457
0.00141755
0.00141462
0.00141795
0.00141464
0.00141832
0.00141464
0.00141867
0.00141463
0.00141898
0.00141461
0.00141926
0.00141458
0.0014195
0.00141454
0.0014197
0.00141451
0.00141992
0.0014146
0.00142016
0.00141465
0.00142032
0.00141468
0.00142042
0.00141468
0.00142047
0.00141466
0.00142047
0.00141464
0.00142049
0.00141471
0.00142055
0.00141476
0.00142055
0.00141477
0.0014205
0.00141476
0.00142038
0.00141475
0.00142028
0.00141482
0.00142024
0.00141486
0.00142104
0.00141676
0.00142459
0.0014207
0.00142889
0.00142553
0.00143407
0.0014312
0.00144004
0.00143773
0.00144692
0.00144526
0.00145482
0.00145391
0.00146372
0.00146356
0.00147366
0.00147441
0.00148468
0.00148644
0.001497
0.0014997
0.00151251
0.00151422
0.00153418
0.00152997
0.00155681
0.00154659
0.00158205
0.00155555
0.00160931
0.00156721
0.00163787
0.00157916
0.00166864
0.00159188
0.00170052
0.00160718
0.00173556
0.00162257
0.00177267
0.00163988
0.00181092
0.00165853
0.00185119
0.00168045
0.00189327
0.0017083
0.00193654
0.00172364
0.00198785
0.00175303
0.0020272
0.00178957
0.0020664
0.00182571
0.0021067
0.00186558
0.00215193
0.00189517
0.00225558
0.00189947
0.00240197
0.00190993
0.00240697
0.00217829
0.00179073
0.00127901
0.00142499
0.00126533
0.00141977
0.00122639
0.00140716
0.00113563
0.00143144
0.000785179
0.00139775
0
0
0
0
)
;

boundaryField
{
    inlet
    {
        type            calculated;
        value           uniform 0;
    }
    outlet
    {
        type            calculated;
        value           uniform 0;
    }
    sideWall
    {
        type            empty;
    }
}


// ************************************************************************* //
