/*--------------------------------*- C++ -*----------------------------------*\
| =========                 |                                                 |
| \\      /  F ield         | foam-extend: Open Source CFD                    |
|  \\    /   O peration     | Version:     3.2                                |
|   \\  /    A nd           | Web:         http://www.foam-extend.org         |
|    \\/     M anipulation  | For copyright notice see file Copyright         |
\*---------------------------------------------------------------------------*/
FoamFile
{
    version     2.0;
    format      ascii;
    class       areaScalarField;
    location    "2000";
    object      He;
}
// * * * * * * * * * * * * * * * * * * * * * * * * * * * * * * * * * * * * * //

dimensions      [0 0 0 0 0 0 0];

internalField   nonuniform List<scalar> 
300
(
0
0
0
0
0
0
0
0
0
0
0
0
0
0
0
0
0
0
0
0
0
0
0
0
0
0
0
0
0
0
0
0
0
0
0
0
0
0
0
0
0
0
0
0
0
0
0
0
0
0
0
0
0
0
0
0
0
0
0
0
0
0
0
0
0
0
0
0
1.60046e-12
0
0
0
0
0
0
0
0
0
0
0
0
0
0
0
0
0
0
0
0
0
0
0
0
0
0
0
0
0
0
0
0
2.22715e-11
1.57737e-11
6.66331e-12
0
0
2.46076e-12
4.29768e-12
2.62778e-12
0
0
0
1.05359e-11
1.07259e-11
7.54782e-12
0
0
0
1.46104e-11
3.4645e-12
0
0
0
0
2.12546e-11
1.87616e-11
1.08172e-11
0
0
0
0
1.31453e-12
0
0
0
0
0
2.76982e-09
0
0
1.44214e-10
1.21106e-10
0
0
1.48651e-10
9.00575e-11
0
0
0
0
0
0
0
0
0
0
0
0
0
0
0
0
0
0
0
0
0
0
0
0
0
0
0
0
0
0
0
0
0
0
0
0
0
0
0
0
0
0
0
0
0
0
0
0
0
0
0
0
3.01575e-11
3.50267e-11
1.12242e-10
1.73363e-10
0
0
0
0
2.03904e-09
3.30023e-09
2.54492e-09
1.49376e-09
0
0
0
0
9.53402e-09
1.23009e-08
9.5222e-09
4.41334e-09
0
0
0
0
2.27898e-08
2.67561e-08
2.06295e-08
8.60938e-09
0
0
0
0
4.01862e-08
4.47668e-08
3.44297e-08
1.35482e-08
0
0
0
0
5.97743e-08
6.44829e-08
4.93787e-08
1.86636e-08
0
0
0
0
7.95403e-08
8.39447e-08
6.41431e-08
2.35678e-08
0
0
0
0
9.79996e-08
1.01851e-07
7.77071e-08
2.80117e-08
0
0
0
0
1.14854e-07
1.18442e-07
9.04405e-08
3.23619e-08
0
0
0
0
1.31138e-07
1.34723e-07
1.03247e-07
3.6966e-08
0
0
0
0
1.48512e-07
1.52635e-07
1.17362e-07
4.23113e-08
0
0
0
0
2.79092e-08
1.89571e-09
7.18094e-06
1.18828e-05
1.16164e-05
1.18132e-05
8.07003e-06
1.27523e-12
0
0
0
0
0
0
)
;

boundaryField
{
    inlet
    {
        type            calculated;
        value           uniform 0;
    }
    outlet
    {
        type            calculated;
        value           uniform 0;
    }
    sideWall
    {
        type            empty;
    }
}


// ************************************************************************* //
