/*--------------------------------*- C++ -*----------------------------------*\
| =========                 |                                                 |
| \\      /  F ield         | foam-extend: Open Source CFD                    |
|  \\    /   O peration     | Version:     3.2                                |
|   \\  /    A nd           | Web:         http://www.foam-extend.org         |
|    \\/     M anipulation  | For copyright notice see file Copyright         |
\*---------------------------------------------------------------------------*/
FoamFile
{
    version     2.0;
    format      ascii;
    class       volScalarField;
    location    "2000";
    object      k;
}
// * * * * * * * * * * * * * * * * * * * * * * * * * * * * * * * * * * * * * //

dimensions      [0 2 -2 0 0 0 0];

internalField   nonuniform List<scalar> 
2400
(
0.00374042
0.00458414
0.00387602
0.00327081
0.00292463
0.0027815
0.00272623
0.00271941
0.00272864
0.00274754
0.0027703
0.00279344
0.00281589
0.00283955
0.00286226
0.00288525
0.00290959
0.00293394
0.00295884
0.00298395
0.00300911
0.00303434
0.0030603
0.00308702
0.00311294
0.00313682
0.0031584
0.00317738
0.00319388
0.00320799
0.00322008
0.00323041
0.00323904
0.00324612
0.00325178
0.00325646
0.00326033
0.00326361
0.00326634
0.0032687
0.00327066
0.00327238
0.00327378
0.00327506
0.00327604
0.00327701
0.00327768
0.00327843
0.00327889
0.00327952
0.00327967
0.00328056
0.00327972
0.00328229
0.00327759
0.00328806
0.00326581
0.00330826
0.00315349
0.00345197
0.00419954
0.00404157
0.00374794
0.00377065
0.00374428
0.00373251
0.00371813
0.00371065
0.00370781
0.00370734
0.00370778
0.00370825
0.00370907
0.00370985
0.00371078
0.00371161
0.00371255
0.00371338
0.00371416
0.00371479
0.00371531
0.00371571
0.00371603
0.00371626
0.00371651
0.00371662
0.00371682
0.00371692
0.00371708
0.00371716
0.00371726
0.00371731
0.00371737
0.00371742
0.00371749
0.00371751
0.00371753
0.00371755
0.00371758
0.00371761
0.00371763
0.00371767
0.00371767
0.00371765
0.00371767
0.00371767
0.00371768
0.00371769
0.00371771
0.00371771
0.00371774
0.00371772
0.0037177
0.00371769
0.00371769
0.00371769
0.00371769
0.00371769
0.00371771
0.00371771
0.00371772
0.00371773
0.00371773
0.00371776
0.00371772
0.00371771
0.00371768
0.0037177
0.00371766
0.00371771
0.00371766
0.00371771
0.00371766
0.00371772
0.00371768
0.0037177
0.00371773
0.00371767
0.00371781
0.00371758
0.00371793
0.0037175
0.00371801
0.00371741
0.00371802
0.00371726
0.00371809
0.00371712
0.0037182
0.00371697
0.00371833
0.0037168
0.00371848
0.00371662
0.00371865
0.00371641
0.00371883
0.00371619
0.00371903
0.00371596
0.00371923
0.00371571
0.00371944
0.00371546
0.00371965
0.00371521
0.00371985
0.00371496
0.00372004
0.00371473
0.00372021
0.00371453
0.00372036
0.00371436
0.00372055
0.00371425
0.00372066
0.00371416
0.00372073
0.00371411
0.00372077
0.00371408
0.00372076
0.00371409
0.00372073
0.00371413
0.00372067
0.00371421
0.00372057
0.00371432
0.00372046
0.00371445
0.00372031
0.00371462
0.00372022
0.00371485
0.00372007
0.00371508
0.00371989
0.00371531
0.0037197
0.00371555
0.00371952
0.00371579
0.00371935
0.00371605
0.00371925
0.00371634
0.00371914
0.0037166
0.00371901
0.00371685
0.00371889
0.00371708
0.00371878
0.00371729
0.00371874
0.00371753
0.00371869
0.00371772
0.00371862
0.00371788
0.00371855
0.00371801
0.00371857
0.00371816
0.00371855
0.00371827
0.00371852
0.00371833
0.0037185
0.00371844
0.0037185
0.0037185
0.00371851
0.00371852
0.00371848
0.00371856
0.0037185
0.00371858
0.00371851
0.00371858
0.0037185
0.00371855
0.00371849
0.00371856
0.00371849
0.00371854
0.00371847
0.00371849
0.00371846
0.00371851
0.00371846
0.00371847
0.00371842
0.00371843
0.00371842
0.00371842
0.00371841
0.0037184
0.00371838
0.00371837
0.0037184
0.00371836
0.00371839
0.0037183
0.00371838
0.00371835
0.00371838
0.00371836
0.00371831
0.00371833
0.00371836
0.00371822
0.00371845
0.00371825
0.00371846
0.00371836
0.00371836
0.0037185
0.0037183
0.00371848
0.00371829
0.00371884
0.00371814
0.00371833
0.00372074
0.00371552
0.00372272
0.00370338
0.00373997
0.00370429
0.00370069
0.00374987
0.00365309
0.00393706
0.00335146
0.00299114
0.0031607
0.00320213
0.000845197
0.00134075
0.00176498
0.00205623
0.00222032
0.00232216
0.00239076
0.00243979
0.00247598
0.00250602
0.00253331
0.00255842
0.00258281
0.00260677
0.00263187
0.00265641
0.00268115
0.0027063
0.00273193
0.00275765
0.00278334
0.00280807
0.00283083
0.00285108
0.00286871
0.00288371
0.00289622
0.00290653
0.00291493
0.00292172
0.0029272
0.00293163
0.0029352
0.00293805
0.00294029
0.00294208
0.00294353
0.00294477
0.00294578
0.00294667
0.00294739
0.00294804
0.00294855
0.00294902
0.00294938
0.00294973
0.00294998
0.00295025
0.00295041
0.00295062
0.00295075
0.0029509
0.00295095
0.00295113
0.00295101
0.0029515
0.00295077
0.00295021
0.00295848
0.00292707
0.00305154
0.00319615
0.00324947
0.00327565
0.00329871
0.00331221
0.00331874
0.00332159
0.00332235
0.00332202
0.0033212
0.00332002
0.00331874
0.00331737
0.00331607
0.00331483
0.00331373
0.00331275
0.00331192
0.00331122
0.00331064
0.00331014
0.00330974
0.0033094
0.00330913
0.0033089
0.00330873
0.0033086
0.00330852
0.00330847
0.00330843
0.00330843
0.00330843
0.00330845
0.00330847
0.00330851
0.00330853
0.00330856
0.00330858
0.00330861
0.00330863
0.00330866
0.00330869
0.00330871
0.00330872
0.00330874
0.00330875
0.00330876
0.00330877
0.00330878
0.00330878
0.00330879
0.0033088
0.00330879
0.00330879
0.00330879
0.00330879
0.00330879
0.00330879
0.00330879
0.00330879
0.0033088
0.0033088
0.0033088
0.00330881
0.0033088
0.0033088
0.00330879
0.00330879
0.00330878
0.00330879
0.00330877
0.00330878
0.00330877
0.00330878
0.00330878
0.00330878
0.00330878
0.00330878
0.00330882
0.00330876
0.00330884
0.00330874
0.00330883
0.00330871
0.00330883
0.00330866
0.00330882
0.00330861
0.00330881
0.00330856
0.0033088
0.00330851
0.0033088
0.00330845
0.0033088
0.00330838
0.0033088
0.00330831
0.0033088
0.00330824
0.00330879
0.00330817
0.00330879
0.00330809
0.00330878
0.00330802
0.00330877
0.00330795
0.00330875
0.00330788
0.00330874
0.00330782
0.00330873
0.00330778
0.00330873
0.00330776
0.00330873
0.00330775
0.00330874
0.00330775
0.00330873
0.00330777
0.00330873
0.00330779
0.00330873
0.00330783
0.00330872
0.00330787
0.00330872
0.00330792
0.00330872
0.00330798
0.00330872
0.00330805
0.00330874
0.00330814
0.00330877
0.00330824
0.00330879
0.00330833
0.00330882
0.00330842
0.00330884
0.00330851
0.00330888
0.00330861
0.00330893
0.00330873
0.00330899
0.00330883
0.00330905
0.00330893
0.00330911
0.00330902
0.00330916
0.00330911
0.00330923
0.0033092
0.0033093
0.00330927
0.00330936
0.00330932
0.00330941
0.00330937
0.00330947
0.00330942
0.0033095
0.00330947
0.00330953
0.0033095
0.00330954
0.00330954
0.00330956
0.00330956
0.00330958
0.00330958
0.00330958
0.00330959
0.00330959
0.0033096
0.00330959
0.00330959
0.00330957
0.00330956
0.00330956
0.00330955
0.00330954
0.00330953
0.00330951
0.0033095
0.00330948
0.00330947
0.00330945
0.00330944
0.00330943
0.00330942
0.00330941
0.0033094
0.00330938
0.00330938
0.00330936
0.00330935
0.00330935
0.00330933
0.00330934
0.00330932
0.00330932
0.00330932
0.00330931
0.0033093
0.00330929
0.00330929
0.00330931
0.00330928
0.00330931
0.0033093
0.0033093
0.00330931
0.00330933
0.00330934
0.00330934
0.00330937
0.0033093
0.00330938
0.00330933
0.00330951
0.00330941
0.00330907
0.00331111
0.00330551
0.0033068
0.00330274
0.00330497
0.00329966
0.00324228
0.00322482
0.00314525
0.00307029
0.00303344
0.000302838
0.000441758
0.000626551
0.000854971
0.0010854
0.00130548
0.00148801
0.00163224
0.00174951
0.00184542
0.00192274
0.00198601
0.00203969
0.00208718
0.00212876
0.00216584
0.00220057
0.00223277
0.00226355
0.00229248
0.0023196
0.00234397
0.00236442
0.00238051
0.00239275
0.00240167
0.0024078
0.00241177
0.00241403
0.0024151
0.0024153
0.00241491
0.00241416
0.00241319
0.00241219
0.00241123
0.00241036
0.00240959
0.00240891
0.00240832
0.00240779
0.00240733
0.00240694
0.00240659
0.0024063
0.00240603
0.00240582
0.00240561
0.00240547
0.00240529
0.00240518
0.00240502
0.002405
0.00240481
0.00240505
0.00240449
0.00240629
0.00240469
0.00244203
0.00237014
0.00234969
0.0024434
0.00251112
0.0025529
0.00258962
0.002618
0.00264042
0.00265606
0.00266672
0.00267371
0.00267824
0.00268094
0.00268236
0.00268282
0.00268272
0.00268213
0.00268132
0.00268039
0.00267944
0.00267852
0.00267767
0.0026769
0.00267621
0.00267562
0.00267509
0.00267467
0.00267429
0.002674
0.00267375
0.00267357
0.00267343
0.00267333
0.00267326
0.00267321
0.00267317
0.00267317
0.00267316
0.00267317
0.00267317
0.00267319
0.0026732
0.00267322
0.00267324
0.00267326
0.00267327
0.00267329
0.0026733
0.00267331
0.00267332
0.00267333
0.00267333
0.00267334
0.00267335
0.00267335
0.00267335
0.00267335
0.00267335
0.00267335
0.00267335
0.00267335
0.00267335
0.00267335
0.00267336
0.00267335
0.00267336
0.00267336
0.00267336
0.00267336
0.00267336
0.00267335
0.00267336
0.00267334
0.00267335
0.00267333
0.00267335
0.00267334
0.00267334
0.00267334
0.00267334
0.00267336
0.00267332
0.00267339
0.00267329
0.0026734
0.00267326
0.00267341
0.00267322
0.00267343
0.00267316
0.00267344
0.00267309
0.00267346
0.00267301
0.00267348
0.00267292
0.00267351
0.00267282
0.00267354
0.00267271
0.00267358
0.00267259
0.00267363
0.00267245
0.00267368
0.00267231
0.00267373
0.00267217
0.00267378
0.00267202
0.00267384
0.00267186
0.0026739
0.00267172
0.00267396
0.00267159
0.00267402
0.00267146
0.00267408
0.00267136
0.00267414
0.00267128
0.00267417
0.00267125
0.0026742
0.00267124
0.00267421
0.00267125
0.00267422
0.00267127
0.00267422
0.00267132
0.00267421
0.00267138
0.0026742
0.00267145
0.00267419
0.00267156
0.00267418
0.00267167
0.00267417
0.00267181
0.00267415
0.00267195
0.00267412
0.00267209
0.00267411
0.00267224
0.00267409
0.0026724
0.00267408
0.00267256
0.00267407
0.00267272
0.00267406
0.00267288
0.00267406
0.00267303
0.00267405
0.00267317
0.00267404
0.00267331
0.00267403
0.00267343
0.00267404
0.00267354
0.00267403
0.00267363
0.00267403
0.0026737
0.00267404
0.00267378
0.00267403
0.00267383
0.00267403
0.00267388
0.002674
0.00267394
0.00267401
0.00267396
0.00267401
0.00267397
0.00267401
0.00267397
0.002674
0.00267396
0.00267398
0.00267395
0.00267396
0.00267394
0.00267394
0.00267391
0.00267391
0.00267389
0.00267389
0.00267387
0.00267387
0.00267384
0.00267384
0.00267382
0.00267382
0.00267381
0.00267381
0.00267379
0.00267379
0.00267376
0.00267377
0.00267374
0.00267375
0.00267374
0.00267375
0.00267375
0.00267374
0.00267373
0.00267374
0.00267369
0.00267373
0.00267369
0.00267374
0.00267374
0.00267375
0.00267375
0.00267371
0.00267372
0.00267364
0.00267385
0.00267368
0.00267365
0.00267403
0.0026735
0.00267537
0.00266747
0.00267518
0.00266964
0.00266771
0.00266706
0.00257889
0.00268563
0.00264962
0.00258393
0.00254335
0.000185028
0.000219425
0.000270196
0.000338414
0.000447158
0.000586124
0.000745035
0.000909949
0.0010636
0.001201
0.00132165
0.00142666
0.00151785
0.0015978
0.001666
0.00172414
0.00177503
0.00181982
0.00185952
0.00189423
0.00192436
0.00194868
0.00196786
0.00198213
0.00199185
0.00199773
0.00200056
0.00200115
0.00200016
0.00199819
0.0019956
0.00199267
0.00198963
0.00198667
0.00198399
0.00198162
0.00197957
0.00197778
0.00197624
0.00197489
0.00197373
0.00197272
0.00197186
0.0019711
0.00197048
0.0019699
0.00196947
0.00196902
0.00196871
0.00196836
0.00196811
0.00196784
0.00196772
0.00196746
0.00196761
0.00196709
0.00196886
0.00196909
0.00200394
0.00194281
0.0018826
0.00193548
0.00197828
0.00201374
0.00204786
0.00207834
0.00210611
0.00212773
0.00214419
0.00215634
0.00216516
0.00217136
0.00217555
0.00217817
0.00217969
0.00218035
0.00218042
0.00218011
0.00217956
0.00217889
0.00217817
0.00217745
0.00217677
0.00217614
0.00217557
0.00217508
0.00217463
0.00217427
0.00217395
0.0021737
0.00217349
0.00217334
0.00217321
0.00217312
0.00217305
0.00217301
0.00217298
0.00217296
0.00217296
0.00217295
0.00217296
0.00217296
0.00217298
0.00217299
0.002173
0.00217302
0.00217303
0.00217304
0.00217304
0.00217305
0.00217306
0.00217307
0.00217307
0.00217308
0.00217308
0.00217309
0.00217309
0.00217309
0.00217308
0.00217309
0.00217308
0.00217308
0.00217309
0.00217308
0.00217309
0.00217309
0.00217309
0.00217309
0.00217309
0.00217309
0.00217309
0.00217308
0.00217309
0.00217308
0.00217308
0.00217307
0.00217308
0.00217307
0.00217307
0.00217309
0.00217306
0.0021731
0.00217305
0.00217311
0.00217303
0.00217312
0.00217301
0.00217313
0.00217297
0.00217313
0.00217292
0.00217313
0.00217287
0.00217314
0.0021728
0.00217315
0.00217273
0.00217316
0.00217265
0.00217318
0.00217256
0.00217319
0.00217246
0.00217321
0.00217236
0.00217323
0.00217225
0.00217326
0.00217213
0.00217328
0.00217202
0.0021733
0.00217191
0.00217333
0.0021718
0.00217335
0.0021717
0.00217337
0.00217162
0.0021734
0.00217155
0.00217341
0.0021715
0.00217343
0.00217148
0.00217345
0.00217147
0.00217346
0.00217147
0.00217347
0.00217149
0.00217348
0.00217152
0.00217349
0.00217156
0.00217349
0.00217162
0.0021735
0.0021717
0.0021735
0.00217179
0.00217351
0.00217189
0.00217351
0.002172
0.00217352
0.00217211
0.00217352
0.00217222
0.00217353
0.00217235
0.00217354
0.00217247
0.00217354
0.0021726
0.00217356
0.00217272
0.00217356
0.00217284
0.00217356
0.00217296
0.00217356
0.00217308
0.00217357
0.00217317
0.00217356
0.00217325
0.00217357
0.00217332
0.00217359
0.00217339
0.00217359
0.00217343
0.0021736
0.00217347
0.00217359
0.00217351
0.0021736
0.00217354
0.00217361
0.00217355
0.0021736
0.00217356
0.0021736
0.00217356
0.00217359
0.00217356
0.00217358
0.00217355
0.00217355
0.00217352
0.00217353
0.00217352
0.00217353
0.00217351
0.0021735
0.00217347
0.00217347
0.00217344
0.00217345
0.00217345
0.00217346
0.00217344
0.00217344
0.00217341
0.0021734
0.00217337
0.00217339
0.00217339
0.00217341
0.00217341
0.0021734
0.00217337
0.00217336
0.00217332
0.00217335
0.00217334
0.0021734
0.0021734
0.00217339
0.00217336
0.0021733
0.00217331
0.00217328
0.00217344
0.0021733
0.00217327
0.00217361
0.00217324
0.00217418
0.00216944
0.00217481
0.00217051
0.00216922
0.00216744
0.00211525
0.00220574
0.00219099
0.00215053
0.00212004
0.000161778
0.000170245
0.000180434
0.000194656
0.000220785
0.000261088
0.000331185
0.000425814
0.000537212
0.000658801
0.000779829
0.000896716
0.00100581
0.00110611
0.00119734
0.0012782
0.001349
0.0014106
0.00146346
0.00150825
0.00154555
0.00157642
0.00160031
0.00161731
0.00162877
0.00163584
0.00163955
0.00164092
0.00164064
0.00163937
0.00163744
0.0016351
0.0016326
0.00163016
0.001628
0.0016261
0.00162445
0.00162302
0.00162177
0.00162068
0.00161975
0.00161893
0.00161823
0.00161761
0.00161711
0.00161665
0.00161628
0.00161594
0.00161567
0.00161541
0.00161518
0.00161498
0.00161487
0.00161469
0.00161479
0.00161446
0.00161584
0.00161691
0.00163802
0.00160033
0.00154786
0.00157624
0.00159702
0.00161958
0.00164474
0.00166985
0.00169501
0.00171641
0.00173412
0.00174826
0.0017593
0.0017677
0.00177392
0.00177837
0.00178145
0.00178343
0.0017846
0.00178517
0.00178533
0.0017852
0.00178489
0.00178448
0.00178402
0.00178355
0.00178309
0.00178267
0.00178228
0.00178194
0.00178163
0.00178138
0.00178116
0.00178099
0.00178085
0.00178074
0.00178065
0.00178059
0.00178055
0.00178052
0.0017805
0.00178049
0.00178048
0.00178048
0.00178049
0.0017805
0.00178051
0.00178052
0.00178053
0.00178053
0.00178054
0.00178055
0.00178055
0.00178056
0.00178057
0.00178058
0.00178058
0.00178058
0.00178059
0.00178059
0.00178059
0.00178059
0.00178059
0.00178059
0.00178059
0.00178059
0.00178059
0.00178059
0.00178059
0.00178059
0.0017806
0.00178059
0.00178059
0.00178059
0.00178059
0.00178058
0.00178059
0.00178058
0.00178058
0.00178058
0.00178058
0.00178059
0.00178057
0.00178059
0.00178057
0.0017806
0.00178056
0.0017806
0.00178054
0.00178061
0.00178052
0.00178061
0.00178049
0.0017806
0.00178046
0.0017806
0.00178041
0.00178059
0.00178036
0.00178059
0.00178031
0.00178059
0.00178025
0.00178058
0.00178018
0.00178058
0.00178011
0.00178058
0.00178004
0.00178057
0.00177996
0.00178057
0.00177988
0.00178056
0.0017798
0.00178055
0.00177972
0.00178055
0.00177965
0.00178054
0.00177958
0.00178053
0.00177953
0.00178052
0.00177949
0.00178052
0.00177946
0.00178052
0.00177944
0.00178052
0.00177944
0.00178053
0.00177944
0.00178053
0.00177946
0.00178054
0.00177948
0.00178054
0.00177951
0.00178055
0.00177956
0.00178056
0.00177962
0.00178058
0.00177968
0.0017806
0.00177976
0.00178062
0.00177983
0.00178064
0.00177991
0.00178066
0.00178
0.00178069
0.00178009
0.00178072
0.00178018
0.00178075
0.00178027
0.00178078
0.00178036
0.0017808
0.00178044
0.00178082
0.00178053
0.00178085
0.0017806
0.00178087
0.00178067
0.00178089
0.00178072
0.00178092
0.00178078
0.00178094
0.00178082
0.00178095
0.00178085
0.00178096
0.00178089
0.00178098
0.00178092
0.00178099
0.00178094
0.00178098
0.00178095
0.00178099
0.00178096
0.001781
0.00178097
0.00178099
0.00178096
0.00178096
0.00178094
0.00178095
0.00178094
0.00178096
0.00178094
0.00178093
0.00178091
0.00178089
0.00178088
0.00178089
0.00178089
0.0017809
0.00178089
0.00178089
0.00178085
0.00178083
0.00178081
0.00178083
0.00178084
0.00178087
0.00178087
0.00178085
0.00178082
0.00178079
0.00178076
0.00178079
0.00178079
0.00178086
0.00178087
0.00178085
0.00178079
0.00178072
0.00178073
0.00178074
0.00178085
0.00178075
0.00178075
0.00178099
0.00178074
0.00178124
0.00177875
0.00178206
0.00177889
0.00177847
0.00177657
0.00175295
0.00181566
0.00180309
0.00177821
0.0017578
0.000155981
0.000160329
0.000162708
0.000164834
0.000168596
0.000175841
0.000191591
0.000217743
0.000261028
0.000322742
0.000398943
0.000485937
0.000579265
0.000672813
0.000763389
0.000849897
0.00092996
0.0010021
0.0010661
0.00112249
0.00117197
0.00121356
0.0012473
0.00127311
0.00129247
0.00130675
0.00131716
0.00132473
0.00133018
0.00133409
0.00133676
0.00133846
0.00133951
0.00134019
0.00134072
0.00134112
0.00134142
0.00134164
0.0013418
0.00134191
0.00134201
0.00134206
0.00134211
0.00134214
0.00134217
0.00134219
0.00134221
0.00134223
0.00134224
0.00134225
0.00134223
0.00134222
0.00134226
0.00134224
0.00134239
0.0013423
0.00134345
0.00134468
0.00135512
0.00133907
0.0013077
0.00132279
0.00133178
0.00134438
0.00136073
0.00137868
0.00139764
0.0014155
0.00143146
0.00144515
0.00145655
0.00146582
0.00147314
0.0014788
0.00148306
0.00148616
0.00148833
0.00148979
0.00149069
0.00149119
0.0014914
0.0014914
0.00149127
0.00149106
0.00149081
0.00149054
0.00149026
0.00149001
0.00148977
0.00148956
0.00148937
0.00148921
0.00148908
0.00148898
0.00148889
0.00148883
0.00148878
0.00148874
0.00148872
0.0014887
0.00148869
0.00148869
0.00148869
0.0014887
0.0014887
0.00148871
0.00148872
0.00148873
0.00148874
0.00148874
0.00148875
0.00148876
0.00148876
0.00148877
0.00148877
0.00148878
0.00148878
0.00148878
0.00148878
0.00148879
0.00148879
0.00148879
0.00148879
0.00148879
0.00148879
0.00148879
0.00148879
0.00148879
0.00148879
0.00148879
0.00148879
0.00148879
0.00148879
0.00148879
0.00148879
0.00148878
0.00148878
0.00148878
0.00148878
0.00148878
0.00148878
0.00148879
0.00148877
0.00148879
0.00148877
0.00148879
0.00148876
0.00148879
0.00148875
0.00148879
0.00148873
0.00148879
0.00148871
0.00148878
0.00148868
0.00148877
0.00148864
0.00148876
0.00148861
0.00148875
0.00148856
0.00148873
0.00148852
0.00148872
0.00148847
0.0014887
0.00148841
0.00148868
0.00148836
0.00148866
0.0014883
0.00148864
0.00148824
0.00148862
0.00148818
0.0014886
0.00148812
0.00148857
0.00148807
0.00148855
0.00148802
0.00148853
0.00148798
0.00148851
0.00148795
0.0014885
0.00148792
0.00148849
0.00148791
0.00148848
0.0014879
0.00148847
0.0014879
0.00148848
0.00148791
0.00148848
0.00148793
0.00148848
0.00148795
0.00148849
0.00148799
0.00148851
0.00148803
0.00148853
0.00148808
0.00148855
0.00148813
0.00148858
0.00148819
0.00148861
0.00148825
0.00148864
0.00148832
0.00148868
0.00148839
0.00148872
0.00148846
0.00148876
0.00148853
0.0014888
0.0014886
0.00148883
0.00148867
0.00148887
0.00148873
0.0014889
0.00148879
0.00148894
0.00148884
0.00148897
0.00148889
0.001489
0.00148893
0.00148902
0.00148897
0.00148904
0.001489
0.00148907
0.00148903
0.00148908
0.00148905
0.00148909
0.00148907
0.0014891
0.00148909
0.00148911
0.0014891
0.00148911
0.00148909
0.00148909
0.00148908
0.00148909
0.00148909
0.0014891
0.00148909
0.00148908
0.00148906
0.00148905
0.00148904
0.00148905
0.00148905
0.00148907
0.00148906
0.00148905
0.00148902
0.001489
0.00148899
0.001489
0.00148901
0.00148904
0.00148904
0.00148902
0.00148899
0.00148896
0.00148894
0.00148897
0.00148898
0.00148904
0.00148904
0.00148901
0.00148896
0.00148891
0.00148892
0.00148894
0.00148901
0.00148895
0.00148897
0.00148911
0.00148896
0.00148925
0.00148804
0.00149003
0.0014881
0.00148809
0.00148674
0.00147754
0.00151636
0.00150193
0.00148387
0.0014691
0.000154044
0.00015765
0.000159425
0.000159543
0.000159081
0.000159029
0.000160829
0.000165376
0.000175016
0.000192106
0.000217793
0.000255928
0.000306602
0.000366975
0.000434606
0.000505621
0.000577065
0.00064691
0.000713471
0.000776106
0.000835028
0.000888128
0.000934393
0.000973374
0.00100602
0.00103321
0.00105564
0.00107402
0.00108898
0.00110112
0.00111087
0.00111865
0.00112489
0.00112997
0.0011342
0.0011377
0.00114062
0.00114305
0.00114509
0.00114679
0.00114824
0.00114944
0.00115048
0.00115134
0.00115209
0.00115271
0.00115325
0.00115371
0.00115411
0.00115444
0.00115472
0.00115495
0.00115516
0.00115533
0.00115564
0.00115574
0.00115716
0.00115808
0.00116366
0.00116338
0.00115014
0.00116114
0.00116586
0.00117263
0.00118267
0.00119471
0.00120807
0.00122188
0.00123521
0.00124745
0.00125826
0.00126754
0.00127524
0.0012815
0.00128645
0.00129028
0.00129316
0.00129527
0.00129676
0.00129777
0.00129841
0.00129878
0.00129894
0.00129898
0.00129891
0.0012988
0.00129864
0.00129848
0.00129831
0.00129816
0.00129801
0.00129788
0.00129778
0.00129768
0.00129761
0.00129755
0.0012975
0.00129747
0.00129745
0.00129743
0.00129742
0.00129742
0.00129742
0.00129742
0.00129743
0.00129743
0.00129744
0.00129745
0.00129746
0.00129746
0.00129747
0.00129748
0.00129748
0.00129749
0.00129749
0.0012975
0.0012975
0.0012975
0.00129751
0.00129751
0.00129751
0.00129751
0.00129751
0.00129751
0.00129751
0.00129751
0.00129751
0.00129751
0.00129751
0.00129751
0.00129751
0.00129751
0.00129751
0.00129751
0.00129751
0.00129751
0.00129751
0.00129751
0.00129751
0.00129751
0.00129751
0.00129751
0.0012975
0.00129751
0.0012975
0.00129751
0.0012975
0.00129751
0.00129749
0.00129751
0.00129748
0.0012975
0.00129746
0.00129749
0.00129744
0.00129748
0.00129742
0.00129747
0.00129739
0.00129745
0.00129736
0.00129743
0.00129732
0.00129741
0.00129729
0.00129739
0.00129725
0.00129737
0.0012972
0.00129734
0.00129716
0.00129731
0.00129711
0.00129728
0.00129706
0.00129725
0.00129701
0.00129721
0.00129696
0.00129718
0.00129692
0.00129715
0.00129688
0.00129712
0.00129685
0.0012971
0.00129682
0.00129708
0.0012968
0.00129706
0.00129678
0.00129705
0.00129677
0.00129705
0.00129677
0.00129704
0.00129678
0.00129705
0.00129679
0.00129705
0.00129681
0.00129706
0.00129683
0.00129708
0.00129687
0.00129711
0.00129691
0.00129714
0.00129695
0.00129717
0.001297
0.00129721
0.00129706
0.00129725
0.00129712
0.00129729
0.00129717
0.00129734
0.00129723
0.00129738
0.00129729
0.00129743
0.00129735
0.00129747
0.00129741
0.00129751
0.00129746
0.00129755
0.00129751
0.00129759
0.00129756
0.00129763
0.0012976
0.00129766
0.00129764
0.00129769
0.00129767
0.00129772
0.0012977
0.00129774
0.00129773
0.00129775
0.00129775
0.00129777
0.00129777
0.00129779
0.00129778
0.00129779
0.00129778
0.00129778
0.00129778
0.00129779
0.00129779
0.0012978
0.00129779
0.00129778
0.00129777
0.00129776
0.00129776
0.00129776
0.00129776
0.00129777
0.00129776
0.00129775
0.00129774
0.00129773
0.00129772
0.00129773
0.00129773
0.00129775
0.00129774
0.00129773
0.00129771
0.00129769
0.00129769
0.0012977
0.00129771
0.00129774
0.00129773
0.00129772
0.00129769
0.00129766
0.00129767
0.0012977
0.00129773
0.00129771
0.00129772
0.00129782
0.00129773
0.00129796
0.00129741
0.00129841
0.00129809
0.00129793
0.00129744
0.00129328
0.00131245
0.00129766
0.00128168
0.00126914
0.000153523
0.000156812
0.000158654
0.000158682
0.000157484
0.000156017
0.000154861
0.000154455
0.000155614
0.000159439
0.000167069
0.000180079
0.000200376
0.000229167
0.000264657
0.000308293
0.000359758
0.000417349
0.00047944
0.000544202
0.000609036
0.000671643
0.000730253
0.00078342
0.000829412
0.00086884
0.000902006
0.000929552
0.000952298
0.000970921
0.000986236
0.00099867
0.00100875
0.00101697
0.00102379
0.0010295
0.00103429
0.00103831
0.00104169
0.00104454
0.00104695
0.00104898
0.00105071
0.00105218
0.00105342
0.00105448
0.00105539
0.00105616
0.00105683
0.00105739
0.00105787
0.00105827
0.00105863
0.00105892
0.00105947
0.00105959
0.00106232
0.00106215
0.00106711
0.00107462
0.00107701
0.00108411
0.00108791
0.00109146
0.00109824
0.00110694
0.00111726
0.00112855
0.0011401
0.00115123
0.00116145
0.0011705
0.00117823
0.00118468
0.00118991
0.00119406
0.00119727
0.0011997
0.00120148
0.00120276
0.00120363
0.0012042
0.00120454
0.00120471
0.00120476
0.00120473
0.00120466
0.00120455
0.00120443
0.00120431
0.0012042
0.00120409
0.001204
0.00120392
0.00120385
0.0012038
0.00120375
0.00120372
0.0012037
0.00120369
0.00120368
0.00120367
0.00120367
0.00120368
0.00120368
0.00120369
0.0012037
0.00120371
0.00120371
0.00120372
0.00120373
0.00120374
0.00120374
0.00120375
0.00120375
0.00120375
0.00120376
0.00120376
0.00120376
0.00120376
0.00120377
0.00120377
0.00120377
0.00120377
0.00120377
0.00120377
0.00120377
0.00120377
0.00120377
0.00120377
0.00120377
0.00120377
0.00120377
0.00120377
0.00120377
0.00120377
0.00120377
0.00120377
0.00120377
0.00120377
0.00120377
0.00120377
0.00120377
0.00120377
0.00120377
0.00120377
0.00120376
0.00120377
0.00120375
0.00120376
0.00120374
0.00120375
0.00120373
0.00120374
0.00120372
0.00120373
0.0012037
0.00120372
0.00120368
0.0012037
0.00120365
0.00120368
0.00120362
0.00120366
0.00120359
0.00120363
0.00120356
0.0012036
0.00120352
0.00120357
0.00120348
0.00120354
0.00120344
0.0012035
0.00120339
0.00120347
0.00120335
0.00120343
0.00120331
0.0012034
0.00120327
0.00120336
0.00120323
0.00120333
0.00120319
0.0012033
0.00120316
0.00120327
0.00120314
0.00120325
0.00120312
0.00120324
0.00120311
0.00120323
0.0012031
0.00120322
0.0012031
0.00120322
0.00120311
0.00120323
0.00120312
0.00120324
0.00120314
0.00120326
0.00120316
0.00120328
0.0012032
0.00120331
0.00120324
0.00120335
0.00120328
0.00120338
0.00120333
0.00120343
0.00120338
0.00120347
0.00120343
0.00120352
0.00120349
0.00120357
0.00120354
0.00120362
0.0012036
0.00120367
0.00120365
0.00120371
0.0012037
0.00120376
0.00120375
0.0012038
0.0012038
0.00120384
0.00120384
0.00120388
0.00120388
0.00120391
0.00120391
0.00120394
0.00120394
0.00120396
0.00120397
0.00120399
0.00120399
0.00120401
0.00120401
0.00120402
0.00120402
0.00120403
0.00120403
0.00120403
0.00120403
0.00120404
0.00120404
0.00120404
0.00120403
0.00120403
0.00120402
0.00120402
0.00120402
0.00120403
0.00120402
0.00120402
0.00120401
0.001204
0.001204
0.00120399
0.00120399
0.001204
0.001204
0.001204
0.00120398
0.00120397
0.00120397
0.00120397
0.00120397
0.00120398
0.00120398
0.00120399
0.00120397
0.00120396
0.00120395
0.00120396
0.00120397
0.00120399
0.001204
0.001204
0.001204
0.00120413
0.00120404
0.0012044
0.00120401
0.00120454
0.00120605
0.00120498
0.0012058
0.00120194
0.00120918
0.00119488
0.0011781
0.00116707
)
;

boundaryField
{
    inlet
    {
        type            fixedValue;
        value           uniform 0.00014968;
    }
    outlet
    {
        type            zeroGradient;
    }
    sideWall
    {
        type            empty;
    }
    bed
    {
        type            kqRWallFunction;
        value           nonuniform List<scalar> 
300
(
0.00374042
0.00458414
0.00387602
0.00327081
0.00292463
0.0027815
0.00272623
0.00271941
0.00272864
0.00274754
0.0027703
0.00279344
0.00281589
0.00283955
0.00286226
0.00288525
0.00290959
0.00293394
0.00295884
0.00298395
0.00300911
0.00303434
0.0030603
0.00308702
0.00311294
0.00313682
0.0031584
0.00317738
0.00319388
0.00320799
0.00322008
0.00323041
0.00323904
0.00324612
0.00325178
0.00325646
0.00326033
0.00326361
0.00326634
0.0032687
0.00327066
0.00327238
0.00327378
0.00327506
0.00327604
0.00327701
0.00327768
0.00327843
0.00327889
0.00327952
0.00327967
0.00328056
0.00327972
0.00328229
0.00327759
0.00328806
0.00326581
0.00330826
0.00315349
0.00345197
0.00419954
0.00404157
0.00374794
0.00377065
0.00374428
0.00373251
0.00371813
0.00371065
0.00370781
0.00370734
0.00370778
0.00370825
0.00370907
0.00370985
0.00371078
0.00371161
0.00371255
0.00371338
0.00371416
0.00371479
0.00371531
0.00371571
0.00371603
0.00371626
0.00371651
0.00371662
0.00371682
0.00371692
0.00371708
0.00371716
0.00371726
0.00371731
0.00371737
0.00371742
0.00371749
0.00371751
0.00371753
0.00371755
0.00371758
0.00371761
0.00371763
0.00371767
0.00371767
0.00371765
0.00371767
0.00371767
0.00371768
0.00371769
0.00371771
0.00371771
0.00371774
0.00371772
0.0037177
0.00371769
0.00371769
0.00371769
0.00371769
0.00371769
0.00371771
0.00371771
0.00371772
0.00371773
0.00371773
0.00371776
0.00371772
0.00371771
0.00371768
0.0037177
0.00371766
0.00371771
0.00371766
0.00371771
0.00371766
0.00371772
0.00371768
0.0037177
0.00371773
0.00371767
0.00371781
0.00371758
0.00371793
0.0037175
0.00371801
0.00371741
0.00371802
0.00371726
0.00371809
0.00371712
0.0037182
0.00371697
0.00371833
0.0037168
0.00371848
0.00371662
0.00371865
0.00371641
0.00371883
0.00371619
0.00371903
0.00371596
0.00371923
0.00371571
0.00371944
0.00371546
0.00371965
0.00371521
0.00371985
0.00371496
0.00372004
0.00371473
0.00372021
0.00371453
0.00372036
0.00371436
0.00372055
0.00371425
0.00372066
0.00371416
0.00372073
0.00371411
0.00372077
0.00371408
0.00372076
0.00371409
0.00372073
0.00371413
0.00372067
0.00371421
0.00372057
0.00371432
0.00372046
0.00371445
0.00372031
0.00371462
0.00372022
0.00371485
0.00372007
0.00371508
0.00371989
0.00371531
0.0037197
0.00371555
0.00371952
0.00371579
0.00371935
0.00371605
0.00371925
0.00371634
0.00371914
0.0037166
0.00371901
0.00371685
0.00371889
0.00371708
0.00371878
0.00371729
0.00371874
0.00371753
0.00371869
0.00371772
0.00371862
0.00371788
0.00371855
0.00371801
0.00371857
0.00371816
0.00371855
0.00371827
0.00371852
0.00371833
0.0037185
0.00371844
0.0037185