/*--------------------------------*- C++ -*----------------------------------*\
| =========                 |                                                 |
| \\      /  F ield         | foam-extend: Open Source CFD                    |
|  \\    /   O peration     | Version:     3.2                                |
|   \\  /    A nd           | Web:         http://www.foam-extend.org         |
|    \\/     M anipulation  | For copyright notice see file Copyright         |
\*---------------------------------------------------------------------------*/
FoamFile
{
    version     2.0;
    format      ascii;
    class       areaScalarField;
    location    "2000";
    object      kTempA;
}
// * * * * * * * * * * * * * * * * * * * * * * * * * * * * * * * * * * * * * //

dimensions      [0 2 -2 0 0 0 0];

internalField   nonuniform List<scalar> 
300
(
0.00374042
0.00458414
0.00387602
0.00327081
0.00292463
0.0027815
0.00272623
0.00271941
0.00272864
0.00274754
0.0027703
0.00279344
0.00281589
0.00283955
0.00286226
0.00288525
0.00290959
0.00293394
0.00295884
0.00298395
0.00300911
0.00303434
0.0030603
0.00308702
0.00311294
0.00313682
0.0031584
0.00317738
0.00319388
0.00320799
0.00322008
0.00323041
0.00323904
0.00324612
0.00325178
0.00325646
0.00326033
0.00326361
0.00326634
0.0032687
0.00327066
0.00327238
0.00327378
0.00327506
0.00327604
0.00327701
0.00327768
0.00327843
0.00327889
0.00327952
0.00327967
0.00328056
0.00327972
0.00328229
0.00327759
0.00328806
0.00326581
0.00330826
0.00315349
0.00345197
0.00419954
0.00404157
0.00374794
0.00377065
0.00374428
0.00373251
0.00371813
0.00371065
0.00370781
0.00370734
0.00370778
0.00370825
0.00370907
0.00370985
0.00371078
0.00371161
0.00371255
0.00371338
0.00371416
0.00371479
0.00371531
0.00371571
0.00371603
0.00371626
0.00371651
0.00371662
0.00371682
0.00371692
0.00371708
0.00371716
0.00371726
0.00371731
0.00371737
0.00371742
0.00371749
0.00371751
0.00371753
0.00371755
0.00371758
0.00371761
0.00371763
0.00371767
0.00371767
0.00371765
0.00371767
0.00371767
0.00371768
0.00371769
0.00371771
0.00371771
0.00371774
0.00371772
0.0037177
0.00371769
0.00371769
0.00371769
0.00371769
0.00371769
0.00371771
0.00371771
0.00371772
0.00371773
0.00371773
0.00371776
0.00371772
0.00371771
0.00371768
0.0037177
0.00371766
0.00371771
0.00371766
0.00371771
0.00371766
0.00371772
0.00371768
0.0037177
0.00371773
0.00371767
0.00371781
0.00371758
0.00371793
0.0037175
0.00371801
0.00371741
0.00371802
0.00371726
0.00371809
0.00371712
0.0037182
0.00371697
0.00371833
0.0037168
0.00371848
0.00371662
0.00371865
0.00371641
0.00371883
0.00371619
0.00371903
0.00371596
0.00371923
0.00371571
0.00371944
0.00371546
0.00371965
0.00371521
0.00371985
0.00371496
0.00372004
0.00371473
0.00372021
0.00371453
0.00372036
0.00371436
0.00372054
0.00371425
0.00372066
0.00371416
0.00372073
0.00371411
0.00372077
0.00371408
0.00372076
0.00371409
0.00372073
0.00371413
0.00372067
0.00371421
0.00372057
0.00371432
0.00372046
0.00371445
0.00372031
0.00371462
0.00372022
0.00371485
0.00372007
0.00371508
0.00371989
0.00371531
0.0037197
0.00371555
0.00371952
0.00371579
0.00371935
0.00371605
0.00371925
0.00371634
0.00371914
0.0037166
0.00371901
0.00371685
0.00371889
0.00371708
0.00371878
0.00371729
0.00371874
0.00371753
0.00371869
0.00371772
0.00371862
0.00371788
0.00371855
0.00371801
0.00371857
0.00371816
0.00371855
0.00371827
0.00371852
0.00371833
0.0037185
0.00371845
0.0037185
0.00371851
0.00371851
0.00371852
0.00371848
0.00371855
0.0037185
0.00371858
0.00371851
0.00371858
0.0037185
0.00371855
0.00371849
0.00371856
0.00371849
0.00371854
0.00371848
0.0037185
0.00371846
0.0037185
0.00371845
0.00371847
0.00371841
0.00371843
0.00371843
0.00371843
0.00371842
0.0037184
0.00371837
0.00371836
0.00371839
0.00371836
0.00371839
0.00371831
0.00371838
0.00371834
0.00371837
0.00371835
0.00371831
0.00371833
0.00371837
0.00371823
0.00371845
0.00371825
0.00371845
0.00371836
0.00371836
0.0037185
0.00371831
0.00371849
0.0037183
0.00371883
0.00371813
0.00371832
0.00372073
0.00371552
0.00372272
0.00370338
0.00373997
0.00370429
0.00370069
0.00374987
0.00365309
0.00393706
0.00335146
0.00299114
0.0031607
0.00320213
)
;

boundaryField
{
    inlet
    {
        type            calculated;
        value           uniform 0;
    }
    outlet
    {
        type            calculated;
        value           uniform 0;
    }
    sideWall
    {
        type            empty;
    }
}


// ************************************************************************* //
