/*--------------------------------*- C++ -*----------------------------------*\
| =========                 |                                                 |
| \\      /  F ield         | foam-extend: Open Source CFD                    |
|  \\    /   O peration     | Version:     3.2                                |
|   \\  /    A nd           | Web:         http://www.foam-extend.org         |
|    \\/     M anipulation  | For copyright notice see file Copyright         |
\*---------------------------------------------------------------------------*/
FoamFile
{
    version     2.0;
    format      ascii;
    class       volVectorField;
    location    "2000";
    object      meshCentreN;
}
// * * * * * * * * * * * * * * * * * * * * * * * * * * * * * * * * * * * * * //

dimensions      [0 1 0 0 0 0 0];

internalField   nonuniform List<vector> 
2400
(
(0.025 0.01 0.00175)
(0.075 0.01 0.0015)
(0.125 0.01 0.00125)
(0.175 0.01 0.001)
(0.225 0.01 0.00075)
(0.275 0.01 0.0005)
(0.325 0.01 0.00025)
(0.375 0.01 -1.98179e-20)
(0.425 0.01 -0.00025)
(0.475 0.01 -0.0005)
(0.525 0.01 -0.00075)
(0.575 0.01 -0.001)
(0.625 0.01 -0.00125)
(0.675 0.01 -0.0015)
(0.725 0.01 -0.00175)
(0.775 0.01 -0.002)
(0.825 0.01 -0.00225)
(0.875 0.01 -0.0025)
(0.925 0.01 -0.00275)
(0.975 0.01 -0.003)
(1.025 0.01 -0.00325)
(1.075 0.01 -0.0035)
(1.125 0.01 -0.00375)
(1.175 0.01 -0.004)
(1.225 0.01 -0.00425)
(1.275 0.01 -0.0045)
(1.325 0.01 -0.00475)
(1.375 0.01 -0.005)
(1.425 0.01 -0.00525)
(1.475 0.01 -0.0055)
(1.525 0.01 -0.00575)
(1.575 0.01 -0.006)
(1.625 0.01 -0.00625)
(1.675 0.01 -0.0065)
(1.725 0.01 -0.00675)
(1.775 0.01 -0.007)
(1.825 0.01 -0.00725)
(1.875 0.01 -0.0075)
(1.925 0.01 -0.00775)
(1.975 0.01 -0.008)
(2.025 0.01 -0.00825)
(2.075 0.01 -0.0085)
(2.125 0.01 -0.00875)
(2.175 0.01 -0.009)
(2.225 0.01 -0.00925)
(2.275 0.01 -0.0095)
(2.325 0.01 -0.00975)
(2.375 0.01 -0.01)
(2.425 0.01 -0.01025)
(2.475 0.01 -0.0105)
(2.525 0.01 -0.01075)
(2.575 0.01 -0.011)
(2.625 0.01 -0.01125)
(2.675 0.01 -0.0115)
(2.725 0.01 -0.01175)
(2.775 0.01 -0.012)
(2.825 0.01 -0.01225)
(2.875 0.01 -0.0125002)
(2.92501 0.01 -0.012748)
(2.97498 0.01 -0.0123437)
(3.02499 0.01 -0.011548)
(3.07501 0.01 -0.0116425)
(3.12499 0.01 -0.0121083)
(3.175 0.01 -0.0123365)
(3.225 0.01 -0.0125965)
(3.275 0.01 -0.0128749)
(3.325 0.01 -0.0131615)
(3.375 0.01 -0.0134446)
(3.425 0.01 -0.0137218)
(3.475 0.01 -0.013994)
(3.525 0.01 -0.0142626)
(3.575 0.01 -0.0145285)
(3.625 0.01 -0.0147917)
(3.675 0.01 -0.0150526)
(3.725 0.01 -0.0153114)
(3.775 0.01 -0.0155685)
(3.825 0.01 -0.0158239)
(3.875 0.01 -0.016078)
(3.925 0.01 -0.0163312)
(3.975 0.01 -0.0165835)
(4.025 0.01 -0.0168353)
(4.075 0.01 -0.0170866)
(4.125 0.01 -0.0173375)
(4.175 0.01 -0.0175882)
(4.225 0.01 -0.0178386)
(4.275 0.01 -0.0180889)
(4.325 0.01 -0.018339)
(4.375 0.01 -0.0185889)
(4.425 0.01 -0.0188388)
(4.475 0.01 -0.0190886)
(4.525 0.01 -0.0193384)
(4.575 0.01 -0.0195882)
(4.625 0.01 -0.019838)
(4.675 0.01 -0.0200878)
(4.725 0.01 -0.0203376)
(4.775 0.01 -0.0205875)
(4.825 0.01 -0.0208373)
(4.875 0.01 -0.0210872)
(4.925 0.01 -0.0213371)
(4.975 0.01 -0.021587)
(5.025 0.01 -0.0218369)
(5.075 0.01 -0.0220868)
(5.125 0.01 -0.0223367)
(5.175 0.01 -0.0225867)
(5.225 0.01 -0.0228367)
(5.275 0.01 -0.0230866)
(5.325 0.01 -0.0233366)
(5.375 0.01 -0.0235866)
(5.425 0.01 -0.0238366)
(5.475 0.01 -0.0240865)
(5.525 0.01 -0.0243365)
(5.575 0.01 -0.0245865)
(5.625 0.01 -0.0248365)
(5.675 0.01 -0.0250866)
(5.725 0.01 -0.0253366)
(5.775 0.01 -0.0255866)
(5.825 0.01 -0.0258366)
(5.875 0.01 -0.0260866)
(5.925 0.01 -0.0263366)
(5.975 0.01 -0.0265866)
(6.025 0.01 -0.0268366)
(6.075 0.01 -0.0270865)
(6.125 0.01 -0.0273365)
(6.175 0.01 -0.0275865)
(6.225 0.01 -0.0278365)
(6.275 0.01 -0.0280866)
(6.325 0.01 -0.0283366)
(6.375 0.01 -0.0285866)
(6.425 0.01 -0.0288366)
(6.475 0.01 -0.0290866)
(6.525 0.01 -0.0293366)
(6.575 0.01 -0.0295866)
(6.625 0.01 -0.0298366)
(6.675 0.01 -0.0300866)
(6.725 0.01 -0.0303366)
(6.775 0.01 -0.0305866)
(6.825 0.01 -0.0308366)
(6.875 0.01 -0.0310866)
(6.925 0.01 -0.0313365)
(6.975 0.01 -0.0315865)
(7.025 0.01 -0.0318365)
(7.075 0.01 -0.0320865)
(7.125 0.01 -0.0323365)
(7.175 0.01 -0.0325865)
(7.225 0.01 -0.0328365)
(7.275 0.01 -0.0330866)
(7.325 0.01 -0.0333366)
(7.375 0.01 -0.0335867)
(7.425 0.01 -0.0338366)
(7.475 0.01 -0.0340867)
(7.525 0.01 -0.0343365)
(7.575 0.01 -0.0345866)
(7.625 0.01 -0.0348364)
(7.675 0.01 -0.0350866)
(7.725 0.01 -0.0353364)
(7.775 0.01 -0.0355865)
(7.825 0.01 -0.0358362)
(7.875 0.01 -0.0360863)
(7.925 0.01 -0.0363361)
(7.975 0.01 -0.0365862)
(8.025 0.01 -0.0368359)
(8.075 0.01 -0.037086)
(8.125 0.01 -0.0373357)
(8.175 0.01 -0.0375858)
(8.225 0.01 -0.0378355)
(8.275 0.01 -0.0380856)
(8.325 0.01 -0.0383352)
(8.375 0.01 -0.0385854)
(8.425 0.01 -0.0388349)
(8.475 0.01 -0.0390851)
(8.525 0.01 -0.0393347)
(8.575 0.01 -0.0395848)
(8.625 0.01 -0.0398344)
(8.675 0.01 -0.0400844)
(8.725 0.01 -0.0403339)
(8.775 0.01 -0.040584)
(8.825 0.01 -0.0408335)
(8.875 0.01 -0.0410836)
(8.925 0.01 -0.0413332)
(8.975 0.01 -0.0415832)
(9.025 0.01 -0.0418328)
(9.075 0.01 -0.0420828)
(9.125 0.01 -0.0423325)
(9.175 0.01 -0.0425825)
(9.225 0.01 -0.0428322)
(9.275 0.01 -0.0430822)
(9.325 0.01 -0.0433319)
(9.375 0.01 -0.0435819)
(9.425 0.01 -0.0438317)
(9.475 0.01 -0.0440817)
(9.525 0.01 -0.0443315)
(9.575 0.01 -0.0445815)
(9.625 0.01 -0.0448314)
(9.675 0.01 -0.0450812)
(9.725 0.01 -0.0453311)
(9.775 0.01 -0.045581)
(9.825 0.01 -0.045831)
(9.875 0.01 -0.0460808)
(9.925 0.01 -0.0463309)
(9.975 0.01 -0.0465808)
(10.025 0.01 -0.0468309)
(10.075 0.01 -0.0470807)
(10.125 0.01 -0.0473309)
(10.175 0.01 -0.0475807)
(10.225 0.01 -0.0478309)
(10.275 0.01 -0.0480807)
(10.325 0.01 -0.0483309)
(10.375 0.01 -0.0485806)
(10.425 0.01 -0.0488308)
(10.475 0.01 -0.0490806)
(10.525 0.01 -0.0493309)
(10.575 0.01 -0.0495807)
(10.625 0.01 -0.049831)
(10.675 0.01 -0.0500808)
(10.725 0.01 -0.0503311)
(10.775 0.01 -0.0505809)
(10.825 0.01 -0.0508312)
(10.875 0.01 -0.051081)
(10.925 0.01 -0.0513312)
(10.975 0.01 -0.0515811)
(11.025 0.01 -0.0518314)
(11.075 0.01 -0.0520813)
(11.125 0.01 -0.0523316)
(11.175 0.01 -0.0525814)
(11.225 0.01 -0.0528317)
(11.275 0.01 -0.0530815)
(11.325 0.01 -0.0533318)
(11.375 0.01 -0.0535817)
(11.425 0.01 -0.053832)
(11.475 0.01 -0.054082)
(11.525 0.01 -0.0543322)
(11.575 0.01 -0.0545821)
(11.625 0.01 -0.0548323)
(11.675 0.01 -0.0550823)
(11.725 0.01 -0.0553325)
(11.775 0.01 -0.0555825)
(11.825 0.01 -0.0558327)
(11.875 0.01 -0.0560827)
(11.925 0.01 -0.0563329)
(11.975 0.01 -0.0565829)
(12.025 0.01 -0.0568331)
(12.075 0.01 -0.057083)
(12.125 0.01 -0.0573332)
(12.175 0.01 -0.0575832)
(12.225 0.01 -0.0578334)
(12.275 0.01 -0.0580834)
(12.325 0.01 -0.0583336)
(12.375 0.01 -0.0585836)
(12.425 0.01 -0.0588337)
(12.475 0.01 -0.0590837)
(12.525 0.01 -0.0593338)
(12.575 0.01 -0.0595838)
(12.625 0.01 -0.0598339)
(12.675 0.01 -0.060084)
(12.725 0.01 -0.0603341)
(12.775 0.01 -0.0605841)
(12.825 0.01 -0.0608341)
(12.875 0.01 -0.0610841)
(12.925 0.01 -0.0613341)
(12.975 0.01 -0.0615841)
(13.025 0.01 -0.0618342)
(13.075 0.01 -0.0620843)
(13.125 0.01 -0.0623343)
(13.175 0.01 -0.0625843)
(13.225 0.01 -0.0628343)
(13.275 0.01 -0.0630843)
(13.325 0.01 -0.0633343)
(13.375 0.01 -0.0635843)
(13.425 0.01 -0.0638343)
(13.475 0.01 -0.0640844)
(13.525 0.01 -0.0643345)
(13.575 0.01 -0.0645844)
(13.625 0.01 -0.0648344)
(13.675 0.01 -0.0650844)
(13.725 0.01 -0.0653342)
(13.775 0.01 -0.0655842)
(13.825 0.01 -0.0658342)
(13.875 0.01 -0.0660843)
(13.925 0.01 -0.0663342)
(13.975 0.01 -0.0665841)
(14.025 0.01 -0.0668342)
(14.075 0.01 -0.067084)
(14.125 0.01 -0.0673339)
(14.175 0.01 -0.0675838)
(14.225 0.01 -0.0678341)
(14.275 0.01 -0.0680829)
(14.325 0.01 -0.0683323)
(14.375 0.01 -0.0685847)
(14.425 0.01 -0.0688344)
(14.475 0.01 -0.0690867)
(14.525 0.01 -0.0693276)
(14.575 0.01 -0.0696002)
(14.625 0.01 -0.0698386)
(14.675 0.01 -0.0700764)
(14.725 0.01 -0.070343)
(14.775 0.01 -0.0706131)
(14.825 0.01 -0.071574)
(14.875 0.01 -0.0724976)
(14.925 0.01 -0.0727502)
(14.975 0.01 -0.073)
(0.025 0.01 0.0055)
(0.075 0.01 0.00525)
(0.125 0.01 0.005)
(0.175 0.01 0.00475)
(0.225 0.01 0.0045)
(0.275 0.01 0.00425)
(0.325 0.01 0.004)
(0.375 0.01 0.00375)
(0.425 0.01 0.0035)
(0.475 0.01 0.00325)
(0.525 0.01 0.003)
(0.575 0.01 0.00275)
(0.625 0.01 0.0025)
(0.675 0.01 0.00225)
(0.725 0.01 0.002)
(0.775 0.01 0.00175)
(0.825 0.01 0.0015)
(0.875 0.01 0.00125)
(0.925 0.01 0.001)
(0.975 0.01 0.00075)
(1.025 0.01 0.0005)
(1.075 0.01 0.00025)
(1.125 0.01 -2.49877e-20)
(1.175 0.01 -0.00025)
(1.225 0.01 -0.0005)
(1.275 0.01 -0.00075)
(1.325 0.01 -0.001)
(1.375 0.01 -0.00125)
(1.425 0.01 -0.0015)
(1.475 0.01 -0.00175)
(1.525 0.01 -0.002)
(1.575 0.01 -0.00225)
(1.625 0.01 -0.0025)
(1.675 0.01 -0.00275)
(1.725 0.01 -0.003)
(1.775 0.01 -0.00325)
(1.825 0.01 -0.0035)
(1.875 0.01 -0.00375)
(1.925 0.01 -0.004)
(1.975 0.01 -0.00425)
(2.025 0.01 -0.0045)
(2.075 0.01 -0.00475)
(2.125 0.01 -0.005)
(2.175 0.01 -0.00525)
(2.225 0.01 -0.0055)
(2.275 0.01 -0.00575)
(2.325 0.01 -0.006)
(2.375 0.01 -0.00625)
(2.425 0.01 -0.0065)
(2.475 0.01 -0.00675)
(2.525 0.01 -0.007)
(2.575 0.01 -0.00725)
(2.625 0.01 -0.0075)
(2.675 0.01 -0.00775)
(2.725 0.01 -0.008)
(2.775 0.01 -0.00825)
(2.825 0.01 -0.00849995)
(2.875 0.01 -0.00875057)
(2.92502 0.01 -0.00899309)
(2.97496 0.01 -0.00859569)
(3.02498 0.01 -0.00781823)
(3.07503 0.01 -0.00790985)
(3.12499 0.01 -0.00836926)
(3.175 0.01 -0.00860022)
(3.225 0.01 -0.00885978)
(3.275 0.01 -0.00913791)
(3.325 0.01 -0.00942406)
(3.375 0.01 -0.00970687)
(3.425 0.01 -0.00998385)
(3.475 0.01 -0.0102559)
(3.525 0.01 -0.0105244)
(3.575 0.01 -0.0107901)
(3.625 0.01 -0.0110532)
(3.675 0.01 -0.011314)
(3.725 0.01 -0.0115728)
(3.775 0.01 -0.0118298)
(3.825 0.01 -0.0120851)
(3.875 0.01 -0.0123392)
(3.925 0.01 -0.0125923)
(3.975 0.01 -0.0128447)
(4.025 0.01 -0.0130964)
(4.075 0.01 -0.0133477)
(4.125 0.01 -0.0135987)
(4.175 0.01 -0.0138493)
(4.225 0.01 -0.0140997)
(4.275 0.01 -0.01435)
(4.325 0.01 -0.0146001)
(4.375 0.01 -0.01485)
(4.425 0.01 -0.0150999)
(4.475 0.01 -0.0153497)
(4.525 0.01 -0.0155996)
(4.575 0.01 -0.0158494)
(4.625 0.01 -0.0160992)
(4.675 0.01 -0.016349)
(4.725 0.01 -0.0165988)
(4.775 0.01 -0.0168486)
(4.825 0.01 -0.0170985)
(4.875 0.01 -0.0173483)
(4.925 0.01 -0.0175982)
(4.975 0.01 -0.0178481)
(5.025 0.01 -0.018098)
(5.075 0.01 -0.0183479)
(5.125 0.01 -0.0185978)
(5.175 0.01 -0.0188478)
(5.225 0.01 -0.0190978)
(5.275 0.01 -0.0193478)
(5.325 0.01 -0.0195977)
(5.375 0.01 -0.0198477)
(5.425 0.01 -0.0200977)
(5.475 0.01 -0.0203477)
(5.525 0.01 -0.0205976)
(5.575 0.01 -0.0208476)
(5.625 0.01 -0.0210977)
(5.675 0.01 -0.0213477)
(5.725 0.01 -0.0215977)
(5.775 0.01 -0.0218477)
(5.825 0.01 -0.0220977)
(5.875 0.01 -0.0223477)
(5.925 0.01 -0.0225977)
(5.975 0.01 -0.0228477)
(6.025 0.01 -0.0230977)
(6.075 0.01 -0.0233477)
(6.125 0.01 -0.0235977)
(6.175 0.01 -0.0238476)
(6.225 0.01 -0.0240977)
(6.275 0.01 -0.0243477)
(6.325 0.01 -0.0245977)
(6.375 0.01 -0.0248477)
(6.425 0.01 -0.0250978)
(6.475 0.01 -0.0253478)
(6.525 0.01 -0.0255978)
(6.575 0.01 -0.0258478)
(6.625 0.01 -0.0260978)
(6.675 0.01 -0.0263478)
(6.725 0.01 -0.0265978)
(6.775 0.01 -0.0268477)
(6.825 0.01 -0.0270977)
(6.875 0.01 -0.0273477)
(6.925 0.01 -0.0275976)
(6.975 0.01 -0.0278477)
(7.025 0.01 -0.0280976)
(7.075 0.01 -0.0283477)
(7.125 0.01 -0.0285976)
(7.175 0.01 -0.0288477)
(7.225 0.01 -0.0290977)
(7.275 0.01 -0.0293478)
(7.325 0.01 -0.0295977)
(7.375 0.01 -0.0298478)
(7.425 0.01 -0.0300977)
(7.475 0.01 -0.0303478)
(7.525 0.01 -0.0305977)
(7.575 0.01 -0.0308477)
(7.625 0.01 -0.0310976)
(7.675 0.01 -0.0313477)
(7.725 0.01 -0.0315975)
(7.775 0.01 -0.0318476)
(7.825 0.01 -0.0320974)
(7.875 0.01 -0.0323475)
(7.925 0.01 -0.0325972)
(7.975 0.01 -0.0328473)
(8.025 0.01 -0.033097)
(8.075 0.01 -0.0333472)
(8.125 0.01 -0.0335968)
(8.175 0.01 -0.033847)
(8.225 0.01 -0.0340966)
(8.275 0.01 -0.0343468)
(8.325 0.01 -0.0345964)
(8.375 0.01 -0.0348465)
(8.425 0.01 -0.0350961)
(8.475 0.01 -0.0353462)
(8.525 0.01 -0.0355958)
(8.575 0.01 -0.0358459)
(8.625 0.01 -0.0360955)
(8.675 0.01 -0.0363456)
(8.725 0.01 -0.0365951)
(8.775 0.01 -0.0368452)
(8.825 0.01 -0.0370947)
(8.875 0.01 -0.0373447)
(8.925 0.01 -0.0375943)
(8.975 0.01 -0.0378444)
(9.025 0.01 -0.038094)
(9.075 0.01 -0.038344)
(9.125 0.01 -0.0385937)
(9.175 0.01 -0.0388437)
(9.225 0.01 -0.0390934)
(9.275 0.01 -0.0393434)
(9.325 0.01 -0.0395931)
(9.375 0.01 -0.0398431)
(9.425 0.01 -0.0400929)
(9.475 0.01 -0.0403428)
(9.525 0.01 -0.0405927)
(9.575 0.01 -0.0408426)
(9.625 0.01 -0.0410925)
(9.675 0.01 -0.0413424)
(9.725 0.01 -0.0415923)
(9.775 0.01 -0.0418422)
(9.825 0.01 -0.0420922)
(9.875 0.01 -0.042342)
(9.925 0.01 -0.0425921)
(9.975 0.01 -0.0428419)
(10.025 0.01 -0.043092)
(10.075 0.01 -0.0433419)
(10.125 0.01 -0.043592)
(10.175 0.01 -0.0438419)
(10.225 0.01 -0.0440921)
(10.275 0.01 -0.0443419)
(10.325 0.01 -0.044592)
(10.375 0.01 -0.0448418)
(10.425 0.01 -0.045092)
(10.475 0.01 -0.0453418)
(10.525 0.01 -0.0455921)
(10.575 0.01 -0.0458419)
(10.625 0.01 -0.0460922)
(10.675 0.01 -0.046342)
(10.725 0.01 -0.0465923)
(10.775 0.01 -0.0468421)
(10.825 0.01 -0.0470923)
(10.875 0.01 -0.0473421)
(10.925 0.01 -0.0475924)
(10.975 0.01 -0.0478423)
(11.025 0.01 -0.0480926)
(11.075 0.01 -0.0483425)
(11.125 0.01 -0.0485928)
(11.175 0.01 -0.0488426)
(11.225 0.01 -0.0490929)
(11.275 0.01 -0.0493427)
(11.325 0.01 -0.049593)
(11.375 0.01 -0.0498429)
(11.425 0.01 -0.0500932)
(11.475 0.01 -0.0503431)
(11.525 0.01 -0.0505934)
(11.575 0.01 -0.0508433)
(11.625 0.01 -0.0510935)
(11.675 0.01 -0.0513434)
(11.725 0.01 -0.0515937)
(11.775 0.01 -0.0518436)
(11.825 0.01 -0.0520939)
(11.875 0.01 -0.0523439)
(11.925 0.01 -0.0525941)
(11.975 0.01 -0.0528441)
(12.025 0.01 -0.0530942)
(12.075 0.01 -0.0533442)
(12.125 0.01 -0.0535944)
(12.175 0.01 -0.0538444)
(12.225 0.01 -0.0540946)
(12.275 0.01 -0.0543446)
(12.325 0.01 -0.0545948)
(12.375 0.01 -0.0548448)
(12.425 0.01 -0.0550949)
(12.475 0.01 -0.0553449)
(12.525 0.01 -0.055595)
(12.575 0.01 -0.055845)
(12.625 0.01 -0.0560951)
(12.675 0.01 -0.0563452)
(12.725 0.01 -0.0565953)
(12.775 0.01 -0.0568453)
(12.825 0.01 -0.0570953)
(12.875 0.01 -0.0573452)
(12.925 0.01 -0.0575953)
(12.975 0.01 -0.0578453)
(13.025 0.01 -0.0580954)
(13.075 0.01 -0.0583455)
(13.125 0.01 -0.0585955)
(13.175 0.01 -0.0588455)
(13.225 0.01 -0.0590955)
(13.275 0.01 -0.0593455)
(13.325 0.01 -0.0595954)
(13.375 0.01 -0.0598454)
(13.425 0.01 -0.0600954)
(13.475 0.01 -0.0603455)
(13.525 0.01 -0.0605956)
(13.575 0.01 -0.0608456)
(13.625 0.01 -0.0610956)
(13.675 0.01 -0.0613455)
(13.725 0.01 -0.0615954)
(13.775 0.01 -0.0618454)
(13.825 0.01 -0.0620954)
(13.875 0.01 -0.0623455)
(13.925 0.01 -0.0625954)
(13.975 0.01 -0.0628453)
(14.025 0.01 -0.0630953)
(14.075 0.01 -0.0633451)
(14.125 0.01 -0.063595)
(14.175 0.01 -0.0638449)
(14.225 0.01 -0.0640953)
(14.275 0.01 -0.0643441)
(14.325 0.01 -0.0645935)
(14.375 0.01 -0.0648458)
(14.425 0.01 -0.0650956)
(14.475 0.01 -0.0653477)
(14.525 0.01 -0.065589)
(14.575 0.01 -0.065861)
(14.625 0.01 -0.0660997)
(14.675 0.01 -0.0663379)
(14.725 0.01 -0.0666036)
(14.775 0.01 -0.0668788)
(14.8251 0.01 -0.0678288)
(14.875 0.01 -0.068742)
(14.925 0.01 -0.0690007)
(14.975 0.01 -0.0692499)
(0.025 0.01 0.00925)
(0.075 0.01 0.009)
(0.125 0.01 0.00875)
(0.175 0.01 0.0085)
(0.225 0.01 0.00825)
(0.275 0.01 0.008)
(0.325 0.01 0.00775)
(0.375 0.01 0.0075)
(0.425 0.01 0.00725)
(0.475 0.01 0.007)
(0.525 0.01 0.00675)
(0.575 0.01 0.0065)
(0.625 0.01 0.00625)
(0.675 0.01 0.006)
(0.725 0.01 0.00575)
(0.775 0.01 0.0055)
(0.825 0.01 0.00525)
(0.875 0.01 0.005)
(0.925 0.01 0.00475)
(0.975 0.01 0.0045)
(1.025 0.01 0.00425)
(1.075 0.01 0.004)
(1.125 0.01 0.00375)
(1.175 0.01 0.0035)
(1.225 0.01 0.00325)
(1.275 0.01 0.003)
(1.325 0.01 0.00275)
(1.375 0.01 0.0025)
(1.425 0.01 0.00225)
(1.475 0.01 0.002)
(1.525 0.01 0.00175)
(1.575 0.01 0.0015)
(1.625 0.01 0.00125)
(1.675 0.01 0.001)
(1.725 0.01 0.00075)
(1.775 0.01 0.0005)
(1.825 0.01 0.00025)
(1.875 0.01 2.98991e-19)
(1.925 0.01 -0.00025)
(1.975 0.01 -0.0005)
(2.025 0.01 -0.00075)
(2.075 0.01 -0.001)
(2.125 0.01 -0.00125)
(2.175 0.01 -0.0015)
(2.225 0.01 -0.00175)
(2.275 0.01 -0.002)
(2.325 0.01 -0.00225)
(2.375 0.01 -0.0025)
(2.425 0.01 -0.00275)
(2.475 0.01 -0.003)
(2.525 0.01 -0.00325)
(2.575 0.01 -0.0035)
(2.625 0.01 -0.00375)
(2.675 0.01 -0.004)
(2.725 0.01 -0.00425)
(2.775 0.01 -0.00450001)
(2.825 0.01 -0.00474991)
(2.875 0.01 -0.00500108)
(2.92502 0.01 -0.00523723)
(2.97492 0.01 -0.00485939)
(3.02495 0.01 -0.0041221)
(3.07504 0.01 -0.00421307)
(3.12499 0.01 -0.00466096)
(3.175 0.01 -0.00489551)
(3.225 0.01 -0.00515438)
(3.275 0.01 -0.00543165)
(3.325 0.01 -0.00571665)
(3.375 0.01 -0.00599849)
(3.425 0.01 -0.0062747)
(3.475 0.01 -0.00654614)
(3.525 0.01 -0.00681406)
(3.575 0.01 -0.00707934)
(3.625 0.01 -0.00734208)
(3.675 0.01 -0.0076026)
(3.725 0.01 -0.0078611)
(3.775 0.01 -0.00811788)
(3.825 0.01 -0.00837311)
(3.875 0.01 -0.0086271)
(3.925 0.01 -0.00888011)
(3.975 0.01 -0.00913237)
(4.025 0.01 -0.00938407)
(4.075 0.01 -0.00963533)
(4.125 0.01 -0.00988625)
(4.175 0.01 -0.0101369)
(4.225 0.01 -0.0103873)
(4.275 0.01 -0.0106376)
(4.325 0.01 -0.0108876)
(4.375 0.01 -0.0111376)
(4.425 0.01 -0.0113875)
(4.475 0.01 -0.0116373)
(4.525 0.01 -0.0118871)
(4.575 0.01 -0.0121369)
(4.625 0.01 -0.0123868)
(4.675 0.01 -0.0126366)
(4.725 0.01 -0.0128863)
(4.775 0.01 -0.0131362)
(4.825 0.01 -0.0133861)
(4.875 0.01 -0.013636)
(4.925 0.01 -0.0138858)
(4.975 0.01 -0.0141357)
(5.025 0.01 -0.0143856)
(5.075 0.01 -0.0146355)
(5.125 0.01 -0.0148855)
(5.175 0.01 -0.0151355)
(5.225 0.01 -0.0153854)
(5.275 0.01 -0.0156354)
(5.325 0.01 -0.0158854)
(5.375 0.01 -0.0161353)
(5.425 0.01 -0.0163853)
(5.475 0.01 -0.0166353)
(5.525 0.01 -0.0168853)
(5.575 0.01 -0.0171353)
(5.625 0.01 -0.0173853)
(5.675 0.01 -0.0176353)
(5.725 0.01 -0.0178853)
(5.775 0.01 -0.0181354)
(5.825 0.01 -0.0183854)
(5.875 0.01 -0.0186354)
(5.925 0.01 -0.0188853)
(5.975 0.01 -0.0191353)
(6.025 0.01 -0.0193853)
(6.075 0.01 -0.0196353)
(6.125 0.01 -0.0198853)
(6.175 0.01 -0.0201353)
(6.225 0.01 -0.0203853)
(6.275 0.01 -0.0206353)
(6.325 0.01 -0.0208854)
(6.375 0.01 -0.0211354)
(6.425 0.01 -0.0213854)
(6.475 0.01 -0.0216354)
(6.525 0.01 -0.0218854)
(6.575 0.01 -0.0221354)
(6.625 0.01 -0.0223854)
(6.675 0.01 -0.0226354)
(6.725 0.01 -0.0228854)
(6.775 0.01 -0.0231354)
(6.825 0.01 -0.0233853)
(6.875 0.01 -0.0236353)
(6.925 0.01 -0.0238853)
(6.975 0.01 -0.0241353)
(7.025 0.01 -0.0243853)
(7.075 0.01 -0.0246353)
(7.125 0.01 -0.0248852)
(7.175 0.01 -0.0251353)
(7.225 0.01 -0.0253853)
(7.275 0.01 -0.0256354)
(7.325 0.01 -0.0258853)
(7.375 0.01 -0.0261354)
(7.425 0.01 -0.0263853)
(7.475 0.01 -0.0266354)
(7.525 0.01 -0.0268853)
(7.575 0.01 -0.0271354)
(7.625 0.01 -0.0273852)
(7.675 0.01 -0.0276353)
(7.725 0.01 -0.0278851)
(7.775 0.01 -0.0281352)
(7.825 0.01 -0.028385)
(7.875 0.01 -0.0286351)
(7.925 0.01 -0.0288849)
(7.975 0.01 -0.029135)
(8.025 0.01 -0.0293847)
(8.075 0.01 -0.0296348)
(8.125 0.01 -0.0298845)
(8.175 0.01 -0.0301346)
(8.225 0.01 -0.0303843)
(8.275 0.01 -0.0306344)
(8.325 0.01 -0.030884)
(8.375 0.01 -0.0311342)
(8.425 0.01 -0.0313838)
(8.475 0.01 -0.0316339)
(8.525 0.01 -0.0318835)
(8.575 0.01 -0.0321336)
(8.625 0.01 -0.0323832)
(8.675 0.01 -0.0326333)
(8.725 0.01 -0.0328828)
(8.775 0.01 -0.0331329)
(8.825 0.01 -0.0333824)
(8.875 0.01 -0.0336325)
(8.925 0.01 -0.0338821)
(8.975 0.01 -0.0341321)
(9.025 0.01 -0.0343817)
(9.075 0.01 -0.0346317)
(9.125 0.01 -0.0348814)
(9.175 0.01 -0.0351314)
(9.225 0.01 -0.0353811)
(9.275 0.01 -0.0356311)
(9.325 0.01 -0.0358809)
(9.375 0.01 -0.0361308)
(9.425 0.01 -0.0363806)
(9.475 0.01 -0.0366306)
(9.525 0.01 -0.0368805)
(9.575 0.01 -0.0371304)
(9.625 0.01 -0.0373803)
(9.675 0.01 -0.0376302)
(9.725 0.01 -0.0378801)
(9.775 0.01 -0.03813)
(9.825 0.01 -0.0383799)
(9.875 0.01 -0.0386298)
(9.925 0.01 -0.0388799)
(9.975 0.01 -0.0391297)
(10.025 0.01 -0.0393798)
(10.075 0.01 -0.0396297)
(10.125 0.01 -0.0398798)
(10.175 0.01 -0.0401297)
(10.225 0.01 -0.0403799)
(10.275 0.01 -0.0406297)
(10.325 0.01 -0.0408798)
(10.375 0.01 -0.0411296)
(10.425 0.01 -0.0413798)
(10.475 0.01 -0.0416296)
(10.525 0.01 -0.0418798)
(10.575 0.01 -0.0421297)
(10.625 0.01 -0.0423799)
(10.675 0.01 -0.0426298)
(10.725 0.01 -0.0428801)
(10.775 0.01 -0.0431299)
(10.825 0.01 -0.0433801)
(10.875 0.01 -0.0436299)
(10.925 0.01 -0.0438802)
(10.975 0.01 -0.0441301)
(11.025 0.01 -0.0443803)
(11.075 0.01 -0.0446302)
(11.125 0.01 -0.0448805)
(11.175 0.01 -0.0451304)
(11.225 0.01 -0.0453806)
(11.275 0.01 -0.0456305)
(11.325 0.01 -0.0458807)
(11.375 0.01 -0.0461307)
(11.425 0.01 -0.0463809)
(11.475 0.01 -0.0466309)
(11.525 0.01 -0.0468811)
(11.575 0.01 -0.0471311)
(11.625 0.01 -0.0473812)
(11.675 0.01 -0.0476312)
(11.725 0.01 -0.0478814)
(11.775 0.01 -0.0481314)
(11.825 0.01 -0.0483816)
(11.875 0.01 -0.0486316)
(11.925 0.01 -0.0488818)
(11.975 0.01 -0.0491318)
(12.025 0.01 -0.0493819)
(12.075 0.01 -0.0496319)
(12.125 0.01 -0.0498821)
(12.175 0.01 -0.0501321)
(12.225 0.01 -0.0503823)
(12.275 0.01 -0.0506323)
(12.325 0.01 -0.0508825)
(12.375 0.01 -0.0511325)
(12.425 0.01 -0.0513826)
(12.475 0.01 -0.0516326)
(12.525 0.01 -0.0518826)
(12.575 0.01 -0.0521327)
(12.625 0.01 -0.0523828)
(12.675 0.01 -0.0526329)
(12.725 0.01 -0.052883)
(12.775 0.01 -0.053133)
(12.825 0.01 -0.053383)
(12.875 0.01 -0.0536329)
(12.925 0.01 -0.0538829)
(12.975 0.01 -0.054133)
(13.025 0.01 -0.0543831)
(13.075 0.01 -0.0546332)
(13.125 0.01 -0.0548833)
(13.175 0.01 -0.0551333)
(13.225 0.01 -0.0553832)
(13.275 0.01 -0.0556331)
(13.325 0.01 -0.055883)
(13.375 0.01 -0.056133)
(13.425 0.01 -0.0563831)
(13.475 0.01 -0.0566333)
(13.525 0.01 -0.0568834)
(13.575 0.01 -0.0571334)
(13.625 0.01 -0.0573833)
(13.675 0.01 -0.0576331)
(13.725 0.01 -0.0578829)
(13.775 0.01 -0.058133)
(13.825 0.01 -0.058383)
(13.875 0.01 -0.0586332)
(13.925 0.01 -0.0588833)
(13.975 0.01 -0.0591331)
(14.025 0.01 -0.059383)
(14.075 0.01 -0.0596326)
(14.125 0.01 -0.0598825)
(14.175 0.01 -0.0601325)
(14.225 0.01 -0.0603829)
(14.275 0.01 -0.0606318)
(14.325 0.01 -0.0608813)
(14.375 0.01 -0.0611335)
(14.425 0.01 -0.0613833)
(14.475 0.01 -0.0616352)
(14.525 0.01 -0.0618772)
(14.575 0.01 -0.0621479)
(14.625 0.01 -0.0623872)
(14.675 0.01 -0.0626261)
(14.725 0.01 -0.0628905)
(14.775 0.01 -0.0631716)
(14.8251 0.01 -0.0640963)
(14.875 0.01 -0.0649854)
(14.925 0.01 -0.0652512)
(14.975 0.01 -0.0654999)
(0.025 0.01 0.013)
(0.075 0.01 0.01275)
(0.125 0.01 0.0125)
(0.175 0.01 0.01225)
(0.225 0.01 0.012)
(0.275 0.01 0.01175)
(0.325 0.01 0.0115)
(0.375 0.01 0.01125)
(0.425 0.01 0.011)
(0.475 0.01 0.01075)
(0.525 0.01 0.0105)
(0.575 0.01 0.01025)
(0.625 0.01 0.01)
(0.675 0.01 0.00975)
(0.725 0.01 0.0095)
(0.775 0.01 0.00925)
(0.825 0.01 0.009)
(0.875 0.01 0.00875)
(0.925 0.01 0.0085)
(0.975 0.01 0.00825)
(1.025 0.01 0.008)
(1.075 0.01 0.00775)
(1.125 0.01 0.0075)
(1.175 0.01 0.00725)
(1.225 0.01 0.007)
(1.275 0.01 0.00675)
(1.325 0.01 0.0065)
(1.375 0.01 0.00625)
(1.425 0.01 0.006)
(1.475 0.01 0.00575)
(1.525 0.01 0.0055)
(1.575 0.01 0.00525)
(1.625 0.01 0.005)
(1.675 0.01 0.00475)
(1.725 0.01 0.0045)
(1.775 0.01 0.00425)
(1.825 0.01 0.004)
(1.875 0.01 0.00375)
(1.925 0.01 0.0035)
(1.975 0.01 0.00325)
(2.025 0.01 0.003)
(2.075 0.01 0.00275)
(2.125 0.01 0.0025)
(2.175 0.01 0.00225)
(2.225 0.01 0.002)
(2.275 0.01 0.00175)
(2.325 0.01 0.0015)
(2.375 0.01 0.00125)
(2.425 0.01 0.001)
(2.475 0.01 0.00075)
(2.525 0.01 0.0005)
(2.575 0.01 0.00025)
(2.625 0.01 7.28555e-12)
(2.675 0.01 -0.00025)
(2.725 0.01 -0.000499999)
(2.775 0.01 -0.000750011)
(2.825 0.01 -0.000999868)
(2.875 0.01 -0.00125153)
(2.92501 0.01 -0.00148222)
(2.97488 0.01 -0.00114381)
(3.02492 0.01 -0.000477552)
(3.07506 0.01 -0.000573725)
(3.12499 0.01 -0.00100395)
(3.175 0.01 -0.00124226)
(3.225 0.01 -0.0015002)
(3.275 0.01 -0.00177568)
(3.325 0.01 -0.00205836)
(3.375 0.01 -0.00233817)
(3.425 0.01 -0.00261273)
(3.475 0.01 -0.00288282)
(3.525 0.01 -0.00314962)
(3.575 0.01 -0.00341394)
(3.625 0.01 -0.00367588)
(3.675 0.01 -0.00393573)
(3.725 0.01 -0.00419371)
(3.775 0.01 -0.00445006)
(3.825 0.01 -0.00470496)
(3.875 0.01 -0.00495871)
(3.925 0.01 -0.00521153)
(3.975 0.01 -0.00546365)
(4.025 0.01 -0.00571524)
(4.075 0.01 -0.00596642)
(4.125 0.01 -0.00621729)
(4.175 0.01 -0.00646788)
(4.225 0.01 -0.00671827)
(4.275 0.01 -0.00696851)
(4.325 0.01 -0.00721859)
(4.375 0.01 -0.00746856)
(4.425 0.01 -0.00771844)
(4.475 0.01 -0.00796829)
(4.525 0.01 -0.00821811)
(4.575 0.01 -0.00846793)
(4.625 0.01 -0.00871776)
(4.675 0.01 -0.00896757)
(4.725 0.01 -0.00921738)
(4.775 0.01 -0.00946724)
(4.825 0.01 -0.00971713)
(4.875 0.01 -0.00996701)
(4.925 0.01 -0.0102169)
(4.975 0.01 -0.0104668)
(5.025 0.01 -0.0107167)
(5.075 0.01 -0.0109666)
(5.125 0.01 -0.0112166)
(5.175 0.01 -0.0114665)
(5.225 0.01 -0.0117165)
(5.275 0.01 -0.0119665)
(5.325 0.01 -0.0122165)
(5.375 0.01 -0.0124664)
(5.425 0.01 -0.0127164)
(5.475 0.01 -0.0129664)
(5.525 0.01 -0.0132164)
(5.575 0.01 -0.0134664)
(5.625 0.01 -0.0137164)
(5.675 0.01 -0.0139664)
(5.725 0.01 -0.0142164)
(5.775 0.01 -0.0144665)
(5.825 0.01 -0.0147165)
(5.875 0.01 -0.0149665)
(5.925 0.01 -0.0152164)
(5.975 0.01 -0.0154664)
(6.025 0.01 -0.0157164)
(6.075 0.01 -0.0159664)
(6.125 0.01 -0.0162164)
(6.175 0.01 -0.0164664)
(6.225 0.01 -0.0167164)
(6.275 0.01 -0.0169664)
(6.325 0.01 -0.0172165)
(6.375 0.01 -0.0174665)
(6.425 0.01 -0.0177165)
(6.475 0.01 -0.0179665)
(6.525 0.01 -0.0182165)
(6.575 0.01 -0.0184665)
(6.625 0.01 -0.0187165)
(6.675 0.01 -0.0189665)
(6.725 0.01 -0.0192165)
(6.775 0.01 -0.0194664)
(6.825 0.01 -0.0197164)
(6.875 0.01 -0.0199664)
(6.925 0.01 -0.0202164)
(6.975 0.01 -0.0204664)
(7.025 0.01 -0.0207164)
(7.075 0.01 -0.0209664)
(7.125 0.01 -0.0212163)
(7.175 0.01 -0.0214664)
(7.225 0.01 -0.0217164)
(7.275 0.01 -0.0219665)
(7.325 0.01 -0.0222164)
(7.375 0.01 -0.0224665)
(7.425 0.01 -0.0227164)
(7.475 0.01 -0.0229665)
(7.525 0.01 -0.0232164)
(7.575 0.01 -0.0234665)
(7.625 0.01 -0.0237163)
(7.675 0.01 -0.0239664)
(7.725 0.01 -0.0242162)
(7.775 0.01 -0.0244663)
(7.825 0.01 -0.0247161)
(7.875 0.01 -0.0249662)
(7.925 0.01 -0.025216)
(7.975 0.01 -0.0254661)
(8.025 0.01 -0.0257158)
(8.075 0.01 -0.0259659)
(8.125 0.01 -0.0262156)
(8.175 0.01 -0.0264658)
(8.225 0.01 -0.0267154)
(8.275 0.01 -0.0269656)
(8.325 0.01 -0.0272152)
(8.375 0.01 -0.0274653)
(8.425 0.01 -0.027715)
(8.475 0.01 -0.0279651)
(8.525 0.01 -0.0282147)
(8.575 0.01 -0.0284648)
(8.625 0.01 -0.0287144)
(8.675 0.01 -0.0289645)
(8.725 0.01 -0.0292141)
(8.775 0.01 -0.0294641)
(8.825 0.01 -0.0297137)
(8.875 0.01 -0.0299637)
(8.925 0.01 -0.0302134)
(8.975 0.01 -0.0304634)
(9.025 0.01 -0.030713)
(9.075 0.01 -0.0309631)
(9.125 0.01 -0.0312127)
(9.175 0.01 -0.0314628)
(9.225 0.01 -0.0317125)
(9.275 0.01 -0.0319625)
(9.325 0.01 -0.0322122)
(9.375 0.01 -0.0324622)
(9.425 0.01 -0.032712)
(9.475 0.01 -0.032962)
(9.525 0.01 -0.0332119)
(9.575 0.01 -0.0334618)
(9.625 0.01 -0.0337117)
(9.675 0.01 -0.0339616)
(9.725 0.01 -0.0342115)
(9.775 0.01 -0.0344614)
(9.825 0.01 -0.0347114)
(9.875 0.01 -0.0349613)
(9.925 0.01 -0.0352113)
(9.975 0.01 -0.0354612)
(10.025 0.01 -0.0357113)
(10.075 0.01 -0.0359612)
(10.125 0.01 -0.0362113)
(10.175 0.01 -0.0364612)
(10.225 0.01 -0.0367113)
(10.275 0.01 -0.0369611)
(10.325 0.01 -0.0372112)
(10.375 0.01 -0.0374611)
(10.425 0.01 -0.0377112)
(10.475 0.01 -0.0379611)
(10.525 0.01 -0.0382113)
(10.575 0.01 -0.0384611)
(10.625 0.01 -0.0387114)
(10.675 0.01 -0.0389612)
(10.725 0.01 -0.0392115)
(10.775 0.01 -0.0394613)
(10.825 0.01 -0.0397115)
(10.875 0.01 -0.0399614)
(10.925 0.01 -0.0402116)
(10.975 0.01 -0.0404615)
(11.025 0.01 -0.0407117)
(11.075 0.01 -0.0409617)
(11.125 0.01 -0.0412119)
(11.175 0.01 -0.0414618)
(11.225 0.01 -0.041712)
(11.275 0.01 -0.0419619)
(11.325 0.01 -0.0422121)
(11.375 0.01 -0.0424621)
(11.425 0.01 -0.0427123)
(11.475 0.01 -0.0429623)
(11.525 0.01 -0.0432125)
(11.575 0.01 -0.0434624)
(11.625 0.01 -0.0437126)
(11.675 0.01 -0.0439625)
(11.725 0.01 -0.0442127)
(11.775 0.01 -0.0444627)
(11.825 0.01 -0.0447129)
(11.875 0.01 -0.044963)
(11.925 0.01 -0.0452131)
(11.975 0.01 -0.0454631)
(12.025 0.01 -0.0457133)
(12.075 0.01 -0.0459632)
(12.125 0.01 -0.0462133)
(12.175 0.01 -0.0464634)
(12.225 0.01 -0.0467136)
(12.275 0.01 -0.0469637)
(12.325 0.01 -0.0472138)
(12.375 0.01 -0.0474638)
(12.425 0.01 -0.0477139)
(12.475 0.01 -0.0479638)
(12.525 0.01 -0.0482138)
(12.575 0.01 -0.0484639)
(12.625 0.01 -0.048714)
(12.675 0.01 -0.0489642)
(12.725 0.01 -0.0492143)
(12.775 0.01 -0.0494643)
(12.825 0.01 -0.0497142)
(12.875 0.01 -0.0499641)
(12.925 0.01 -0.0502141)
(12.975 0.01 -0.0504641)
(13.025 0.01 -0.0507143)
(13.075 0.01 -0.0509645)
(13.125 0.01 -0.0512146)
(13.175 0.01 -0.0514646)
(13.225 0.01 -0.0517144)
(13.275 0.01 -0.0519642)
(13.325 0.01 -0.0522141)
(13.375 0.01 -0.0524642)
(13.425 0.01 -0.0527144)
(13.475 0.01 -0.0529646)
(13.525 0.01 -0.0532148)
(13.575 0.01 -0.0534647)
(13.625 0.01 -0.0537145)
(13.675 0.01 -0.0539642)
(13.725 0.01 -0.0542139)
(13.775 0.01 -0.054464)
(13.825 0.01 -0.0547143)
(13.875 0.01 -0.0549646)
(13.925 0.01 -0.0552148)
(13.975 0.01 -0.0554646)
(14.025 0.01 -0.0557142)
(14.075 0.01 -0.0559636)
(14.125 0.01 -0.0562134)
(14.175 0.01 -0.0564635)
(14.225 0.01 -0.0567141)
(14.275 0.01 -0.0569631)
(14.325 0.01 -0.0572127)
(14.375 0.01 -0.0574647)
(14.425 0.01 -0.0577146)
(14.475 0.01 -0.0579662)
(14.525 0.01 -0.0582091)
(14.575 0.01 -0.0584779)
(14.625 0.01 -0.0587182)
(14.675 0.01 -0.0589581)
(14.725 0.01 -0.0592208)
(14.775 0.01 -0.0595059)
(14.8251 0.01 -0.0603847)
(14.875 0.01 -0.0612298)
(14.925 0.01 -0.0615017)
(14.975 0.01 -0.0617498)
(0.025 0.01 0.01675)
(0.075 0.01 0.0165)
(0.125 0.01 0.01625)
(0.175 0.01 0.016)
(0.225 0.01 0.01575)
(0.275 0.01 0.0155)
(0.325 0.01 0.01525)
(0.375 0.01 0.015)
(0.425 0.01 0.01475)
(0.475 0.01 0.0145)
(0.525 0.01 0.01425)
(0.575 0.01 0.014)
(0.625 0.01 0.01375)
(0.675 0.01 0.0135)
(0.725 0.01 0.01325)
(0.775 0.01 0.013)
(0.825 0.01 0.01275)
(0.875 0.01 0.0125)
(0.925 0.01 0.01225)
(0.975 0.01 0.012)
(1.025 0.01 0.01175)
(1.075 0.01 0.0115)
(1.125 0.01 0.01125)
(1.175 0.01 0.011)
(1.225 0.01 0.01075)
(1.275 0.01 0.0105)
(1.325 0.01 0.01025)
(1.375 0.01 0.01)
(1.425 0.01 0.00975)