/*--------------------------------*- C++ -*----------------------------------*\
| =========                 |                                                 |
| \\      /  F ield         | foam-extend: Open Source CFD                    |
|  \\    /   O peration     | Version:     3.2                                |
|   \\  /    A nd           | Web:         http://www.foam-extend.org         |
|    \\/     M anipulation  | For copyright notice see file Copyright         |
\*---------------------------------------------------------------------------*/
FoamFile
{
    version     2.0;
    format      ascii;
    class       surfaceScalarField;
    location    "2000";
    object      meshPhi;
}
// * * * * * * * * * * * * * * * * * * * * * * * * * * * * * * * * * * * * * //

dimensions      [0 3 -1 0 0 0 0];

internalField   nonuniform List<scalar> 
4492
(
0
0
0
0
0
0
0
0
0
0
0
0
0
0
0
0
0
0
0
0
0
0
0
0
0
0
0
0
0
0
0
0
0
0
0
0
0
0
0
0
0
0
0
0
0
0
0
0
0
0
0
0
0
0
0
0
0
0
0
0
0
0
0
0
0
0
0
0
0
0
0
0
0
0
0
0
0
0
0
0
0
0
0
0
0
0
0
0
0
0
0
0
0
0
0
0
0
0
0
0
0
0
0
0
0
0
0
0
0
0
2.77555e-19
-8.67362e-20
2.7756e-19
1.04083e-18
0
-1.33285e-17
1.09059e-30
1.69692e-16
-2.77202e-19
2.86376e-14
4.8129e-30
1.04896e-13
-2.77665e-19
9.21909e-14
1.13463e-30
3.69373e-14
-2.77354e-19
3.14506e-14
0
2.44454e-14
-1.28139e-31
2.33929e-14
-2.77374e-19
1.78955e-14
-2.77377e-19
1.10348e-14
2.7738e-19
-1.86732e-15
0
1.30019e-13
0
4.31524e-13
-5.5477e-19
5.93292e-13
3.48876e-30
5.55925e-13
2.77388e-19
4.58419e-13
0
3.68647e-13
-5.54778e-19
3.36628e-13
5.54779e-19
3.41301e-13
0
3.3617e-13
2.7739e-19
3.05897e-13
-5.54781e-19
2.67694e-13
-5.54781e-19
2.36757e-13
0
2.15321e-13
0
1.99896e-13
5.54781e-19
1.83467e-13
0
1.61957e-13
5.54781e-19
1.44402e-13
0
1.33828e-13
0
1.07867e-13
5.54781e-19
6.48514e-14
5.54781e-19
3.69286e-14
-5.54781e-19
1.6268e-14
0
4.96918e-15
0
5.60728e-14
0
1.25992e-13
0
1.05476e-13
0
4.50935e-14
-5.54781e-19
3.97621e-14
0
6.19984e-14
0
3.54587e-14
5.54781e-19
8.743e-14
0
2.90863e-13
5.54781e-19
2.56347e-13
-5.54781e-19
-3.85895e-14
-5.54781e-19
-1.84981e-13
0
-1.017e-13
5.54781e-19
6.3815e-14
5.54781e-19
7.51715e-14
-4.19082e-30
-2.18778e-15
5.54781e-19
-7.77816e-14
5.54781e-19
-1.77529e-13
0
-8.91544e-14
5.54781e-19
1.99328e-13
0
2.79675e-13
0
2.11092e-14
0
-1.89284e-13
0
-2.05564e-13
0
-1.98785e-14
4.65048e-30
1.33183e-13
-1.73303e-29
1.4783e-13
-5.54781e-19
-1.61054e-15
-1.11226e-29
-2.11127e-13
-5.54781e-19
-1.37052e-13
1.35642e-29
1.12441e-13
5.54781e-19
5.34827e-13
0
1.64284e-13
-5.54781e-19
-2.23368e-13
0
-3.4354e-13
-5.07578e-29
-3.2575e-13
-5.54781e-19
-5.79063e-14
0
1.89114e-13
-7.12717e-29
1.68524e-13
0
1.42339e-13
-5.54781e-19
1.51438e-13
-5.5478e-19
2.45204e-13
0
1.60424e-14
-5.5478e-19
5.85296e-13
5.54781e-19
2.62481e-12
0
-1.47292e-12
0
-5.48954e-13
-2.74561e-28
3.29245e-12
-5.5478e-19
1.73201e-12
5.54781e-19
-3.53812e-12
5.54779e-19
-2.56975e-12
5.54782e-19
2.10549e-12
0
2.55008e-12
-1.03334e-27
-3.0367e-13
-5.54778e-19
5.22909e-13
1.10127e-27
1.23776e-12
-5.54778e-19
2.34459e-12
0
1.89191e-12
0
2.62611e-12
5.54785e-19
2.20813e-12
-5.54775e-19
3.23167e-12
5.54787e-19
2.96564e-12
0
4.07832e-12
-5.54788e-19
3.79102e-12
-1.10954e-18
4.83552e-12
2.31804e-27
4.54074e-12
0
5.56611e-12
0
5.34908e-12
0
6.33689e-12
0
6.21289e-12
0
7.1116e-12
0
7.09355e-12
-1.10953e-18
7.85676e-12
1.1096e-18
7.95799e-12
0
8.54011e-12
1.1096e-18
8.77129e-12
0
9.13159e-12
0
9.49947e-12
0
9.60255e-12
0
1.01073e-11
1.10951e-18
9.92248e-12
0
1.05538e-11
0
1.00669e-11
0
1.08203e-11
-1.1095e-18
1.00211e-11
1.10963e-18
1.08698e-11
0
9.78148e-12
0
1.06569e-11
0
9.47097e-12
0
1.01489e-11
1.10948e-18
8.7331e-12
-1.98686e-27
9.41203e-12
0
8.13528e-12
0
8.6868e-12
0
7.20621e-12
0
7.69981e-12
0
6.13981e-12
0
6.6339e-12
-1.10948e-18
5.04956e-12
0
5.49998e-12
1.16267e-27
3.88e-12
0
4.24455e-12
1.10948e-18
2.63377e-12
0
2.93776e-12
0
1.38432e-12
-1.10964e-18
1.63143e-12
0
7.26314e-13
1.10964e-18
1.89775e-12
-1.10948e-18
-2.37736e-12
3.78599e-27
-6.49173e-12
-1.10948e-18
-8.47563e-12
0
-8.94479e-12
0
4.40343e-12
1.10963e-18
3.11347e-11
0
3.43804e-11
0
2.08111e-11
0
-2.01318e-11
0
-8.7009e-11
4.85418e-27
-9.59432e-11
-1.10962e-18
-5.16724e-11
0
3.29998e-11
2.63104e-26
1.60515e-10
1.10951e-18
1.7636e-10
0
7.86016e-11
1.10951e-18
-7.09924e-11
-1.1096e-18
-2.74693e-10
-5.79369e-27
-2.97532e-10
0
-1.33797e-10
1.92924e-27
9.6447e-11
0
3.96143e-10
1.10953e-18
4.28846e-10
1.10959e-18
1.73039e-10
-1.10953e-18
-1.55585e-10
6.66963e-26
-5.57134e-10
0
-5.94233e-10
-1.10958e-18
-2.44214e-10
1.10954e-18
1.90176e-10
0
7.11493e-10
-2.3727e-27
7.60545e-10
-2.21915e-18
2.90693e-10
-1.10954e-18
-2.63939e-10
0
-8.97586e-10
0
-9.47174e-10
1.10957e-18
-3.69629e-10
1.10955e-18
3.0209e-10
-1.10957e-18
1.06951e-09
1.10955e-18
1.13238e-09
-1.10957e-18
4.19359e-10
8.62348e-27
-3.83411e-10
-1.57131e-25
-1.26229e-09
-1.10955e-18
-1.32177e-09
-1.10957e-18
-4.97796e-10
2.21911e-18
4.23384e-10
-1.10956e-18
1.43733e-09
0
1.50787e-09
0
5.44557e-10
-1.10956e-18
-5.04148e-10
-1.10956e-18
-1.61788e-09
1.10956e-18
-1.68259e-09
1.10956e-18
-6.17226e-10
-1.10956e-18
5.3958e-10
0
1.78199e-09
0
1.85912e-09
-1.10956e-18
6.60115e-10
0
-6.15341e-10
-1.10956e-18
-1.94134e-09
-1.10956e-18
-2.01172e-09
-1.10956e-18
-7.26802e-10
-8.41666e-27
6.42299e-10
-1.10956e-18
2.09359e-09
-1.10956e-18
2.18337e-09
-1.439e-26
7.71032e-10
0
-7.12478e-10
-1.10956e-18
-2.24103e-09
0
-2.32706e-09
0
-8.36438e-10
-1.10956e-18
7.35288e-10
0
2.39049e-09
0
2.50226e-09
-1.10956e-18
8.84226e-10
0
-8.01697e-10
1.10956e-18
-2.534e-09
-1.10956e-18
-2.64892e-09
-1.10956e-18
-9.56272e-10
1.10956e-18
8.21302e-10
0
2.69369e-09
2.92119e-26
2.84514e-09
-2.21912e-18
1.01626e-09
-2.21912e-18
-8.95798e-10
-1.10956e-18
-2.86069e-09
-1.10956e-18
-3.02396e-09
-1.10956e-18
-1.07533e-09
0
7.18849e-10
1.10955e-18
1.41128e-09
2.21912e-18
6.95509e-10
-1.10957e-18
3.60203e-12
1.10953e-18
-5.92619e-13
-1.10964e-18
-1.38495e-13
1.10934e-18
-1.10841e-13
1.10993e-18
-6.34657e-14
0
-2.85131e-14
1.1098e-18
-1.69195e-15
0
1.77184e-14
-2.42821e-30
2.64246e-14
-2.2264e-18
1.38844e-14
-1.10999e-18
1.02773e-16
-1.11024e-18
-8.09538e-18
4.62593e-19
0
0
0
0
0
0
0
0
0
0
0
0
0
0
0
0
0
0
0
0
0
0
0
0
0
0
0
0
0
0
0
0
0
0
0
0
0
0
0
0
0
0
0
0
0
0
0
0
0
0
0
0
0
0
0
0
0
0
0
0
0
0
0
0
0
0
0
0
0
0
0
0
0
0
0
0
0
0
0
0
0
0
0
0
0
0
0
0
0
0
0
0
0
0
0
0
0
0
0
0
0
0
0
0
0
0
0
0
0
1.4456e-20
2.77555e-19
-2.31296e-19
2.77563e-19
2.83338e-18
1.32953e-31
-3.38861e-17
0
4.06258e-16
5.51753e-19
2.8772e-14
-2.7446e-19
1.02531e-13
-2.76277e-19
9.04582e-14
2.75721e-19
3.68825e-14
-2.75782e-19
3.08958e-14
0
2.41316e-14
5.15764e-31
2.29848e-14
-1.06311e-30
1.76289e-14
0
1.07057e-14
0
-6.74394e-16
-2.75981e-19
1.29483e-13
3.59548e-29
4.23573e-13
0
5.82563e-13
5.52062e-19
5.47084e-13
0
4.51538e-13
2.7605e-19
3.63552e-13
1.43356e-29
3.3181e-13
0
3.36017e-13
2.76066e-19
3.30857e-13
0
3.01208e-13
0
2.63708e-13
0
2.33249e-13
-5.52147e-19
2.12108e-13
0
1.96859e-13
0
1.80641e-13
0
1.59541e-13
0
1.42288e-13
5.52151e-19
1.31672e-13
0
1.06087e-13
-5.5215e-19
6.40279e-14
0
3.64263e-14
0
1.60577e-14
5.52149e-19
5.43239e-15
-5.52148e-19
5.5392e-14
0
1.23261e-13
0
1.03562e-13
-5.52147e-19
4.49243e-14
0
3.94183e-14
5.52147e-19
6.07748e-14
-5.52146e-19
3.56236e-14
0
8.7093e-14
0
2.84225e-13
-5.52146e-19
2.50659e-13
2.94493e-29
-3.64051e-14
0
-1.80515e-13
4.49384e-31
-9.97581e-14
0
6.13951e-14
-8.33594e-30
7.34935e-14
-4.79685e-30
-1.88895e-15
-5.52145e-19
-7.68351e-14
0
-1.73316e-13
5.52145e-19
-8.63065e-14
-5.52145e-19
1.94421e-13
-2.38517e-29
2.72767e-13
0
2.15612e-14
0
-1.84851e-13
-3.20095e-29
-2.00894e-13
5.52145e-19
-2.03015e-14
2.17245e-31
1.30075e-13
-3.66769e-29
1.44751e-13
-5.52146e-19
-1.91111e-15
5.52145e-19
-2.05603e-13
-5.52145e-19
-1.34424e-13
5.52145e-19
1.12815e-13
0
5.19666e-13
-5.52146e-19
1.62205e-13
5.52145e-19
-2.17553e-13
-1.62908e-28
-3.37524e-13
5.52145e-19
-3.18831e-13
5.52146e-19
-5.73114e-14
0
1.83801e-13
-5.52146e-19
1.66294e-13
1.46454e-28
1.40487e-13
0
1.50088e-13
5.52145e-19
2.37874e-13
-5.52146e-19
2.16041e-14
1.10429e-18
5.94544e-13
1.00956e-27
2.5249e-12
-5.52145e-19
-1.40069e-12
-5.52145e-19
-5.19711e-13
0
3.19342e-12
0
1.6807e-12
0
-3.42653e-12
0
-2.50875e-12
5.52148e-19
2.03444e-12
0
2.48808e-12
-5.52149e-19
-2.62719e-13
2.11364e-27
5.07435e-13
1.95162e-27
1.22408e-12
-5.5214e-19
2.29309e-12
-5.52152e-19
1.87666e-12
0
2.57305e-12
-5.52154e-19
2.19022e-12
-5.52135e-19
3.16793e-12
5.52157e-19
2.93587e-12
0
4.00081e-12
-3.61218e-27
3.74837e-12
4.65839e-27
4.74718e-12
4.01598e-27
4.48649e-12
0
5.46772e-12
0
5.28132e-12
0
6.22833e-12
-1.10434e-18
6.13007e-12
0
6.99353e-12
0
6.99476e-12
0
7.73031e-12
1.10435e-18
7.84282e-12
0
8.40685e-12
0
8.63995e-12
0
8.99344e-12
0
9.35278e-12
0
9.46174e-12
0
9.94675e-12
0
9.78151e-12
0
1.03818e-11
1.10417e-18
9.92848e-12
0
1.06394e-11
-1.10416e-18
9.88803e-12
-1.1044e-18
1.06839e-11
0
9.6554e-12
0
1.04728e-11
0
9.34886e-12
-3.80701e-27
9.97214e-12
0
8.62418e-12
1.10442e-18
9.24765e-12
0
8.03287e-12
0
8.53283e-12
0
7.11928e-12
0
7.56035e-12
1.10411e-18
6.06978e-12
0
6.51024e-12
0
4.99583e-12
0
5.3936e-12
0
3.8434e-12
1.10442e-18
4.15814e-12
0
2.61514e-12
0
2.87245e-12
-4.73794e-27
1.38279e-12
-1.10442e-18
1.5903e-12
0
7.39283e-13
1.10441e-18
1.81912e-12
1.10412e-18
-2.33463e-12
0
-6.36333e-12
-1.10412e-18
-8.33321e-12
-1.1044e-18
-8.71708e-12
0
4.44265e-12
0
3.04277e-11
-1.10414e-18
3.37188e-11
1.10439e-18
2.03291e-11
0
-2.00217e-11
-1.10438e-18
-8.51523e-11
0
-9.40402e-11
1.10437e-18
-5.06873e-11
0
3.28137e-11
0
1.57085e-10
-1.13636e-26
1.72737e-10
-1.10436e-18
7.72078e-11
0
-7.03054e-11
9.8055e-26
-2.68952e-10
0
-2.91467e-10
0
-1.31563e-10
-1.1042e-18
9.54642e-11
-1.10433e-18
3.87857e-10
-1.10421e-18
4.19954e-10
1.10433e-18
1.70297e-10
1.10421e-18
-1.5372e-10
2.08797e-25
-5.45609e-10
1.10422e-18
-5.8202e-10
0
-2.40446e-10
-1.10423e-18
1.87855e-10
-2.20862e-18
6.96767e-10
2.20847e-18
7.4474e-10
1.2852e-26
2.8638e-10
0
-2.60427e-10
-1.1043e-18
-8.79132e-10
1.10425e-18
-9.27645e-10
1.1043e-18
-3.6421e-10
0
2.98086e-10
0
1.0475e-09
1.37736e-25
1.10885e-09
-1.10429e-18
4.13391e-10
-1.10426e-18
-3.78014e-10
0
-1.23644e-09
-1.10427e-18
-1.29447e-09
-1.25347e-27
-4.90749e-10
-1.41467e-25
4.17464e-10
0
1.40785e-09
1.85052e-25
1.47655e-09
1.10428e-18
5.37057e-10
1.10427e-18
-4.96788e-10
0
-1.58483e-09
-1.10428e-18
-1.64782e-09
-1.10428e-18
-6.08737e-10
0
5.31797e-10
1.10428e-18
1.74554e-09
0
1.82051e-09
-1.10428e-18
6.51239e-10
1.10428e-18
-6.06141e-10
1.10429e-18
-1.90176e-09
-2.20857e-18
-1.97012e-09
0
-7.17001e-10
-2.07861e-25
6.32887e-10
8.03783e-25
2.05088e-09
-2.70818e-25
2.138e-09
1.10428e-18
7.60798e-10
-1.10428e-18
-7.01715e-10
1.1043e-18
-2.19544e-09
1.10429e-18
-2.27886e-09
-2.42113e-26
-8.25277e-10
-1.10427e-18
7.24418e-10
-1.10426e-18
2.34185e-09
1.10426e-18
2.45018e-09
-1.10427e-18
8.72577e-10
-1.10429e-18
-7.8953e-10
1.1043e-18
-2.4826e-09
1.1043e-18
-2.59392e-09
-2.20859e-18
-9.43544e-10
2.54824e-25
8.09139e-10
-1.03912e-24
2.63906e-09
1.10424e-18
2.78578e-09
2.20853e-18
1.00277e-09
2.75891e-25
-8.82151e-10
-1.10432e-18
-2.80291e-09
-1.10432e-18
-2.96073e-09
9.72488e-26
-1.06234e-09
0
6.98965e-10
-3.43788e-25
1.38099e-09
-1.36677e-25
6.86765e-10
-1.10431e-18
8.61072e-12
-1.10424e-18
-1.22946e-12
0
-3.1423e-14
-1.10388e-18
-1.2566e-13
0
-6.02694e-14
2.76923e-30
-2.84627e-14
1.10474e-18
-1.69149e-15
0
1.73642e-14
-1.10115e-18
2.58555e-14
-1.11451e-18
1.37098e-14
-1.10985e-18
2.46249e-16
-2.87606e-32
-2.04697e-17
1.85037e-18
0
0
0
0
0
0
0
0
0
0
0
0
0
0
0
0
0
0
0
0
0
0
0
0
0
0
0
0
0
0
0
0
0
0
0
0
0
0
0
0
0
0
0
0
0
0
0
0
0
0
0
0
0
0
0
0
0
0
0
0
0
0
0
0
0
0
0
0
0
0
0
0
0
0
0
0
0
0
0
0
0
0
0
0
0
0
0
0
-7.7399e-45
-8.71435e-31
0
-8.71435e-31
0
0
0
0
0
0
0
0
0
0
0
0
0
0
-3.20988e-35
-1.0842e-20
0
3.61401e-20
0
-4.08383e-19
-2.77563e-19
4.70905e-18
2.77471e-19
-5.46793e-17
1.52081e-30
6.40218e-16
-2.73477e-19
2.81585e-14
-2.70526e-19
9.73467e-14
2.73254e-19
8.62085e-14
2.72626e-19
3.58197e-14
-2.72686e-19
2.94971e-14
-2.72747e-19
2.31609e-14
1.9788e-30
2.19511e-14
0
1.6885e-14
2.7308e-19
1.00829e-14
-2.73156e-19
5.43726e-16
0
1.25481e-13
0
4.04233e-13
0
5.56183e-13
0
5.23567e-13
2.7338e-19
4.32552e-13
0
3.48723e-13
2.73423e-19
3.18112e-13
-4.42023e-29
3.21742e-13
2.73448e-19
3.16692e-13
-3.57957e-29
2.88463e-13
0
2.52671e-13
5.46934e-19
2.23506e-13
0
2.03226e-13
0
1.88561e-13
-5.46949e-19
1.72988e-13
0
1.52861e-13
-5.46952e-19
1.36373e-13
0
1.25995e-13
0
1.0147e-13
0
6.1494e-14
5.4695e-19
3.49499e-14
-5.46948e-19
1.54167e-14
5.46947e-19
5.75577e-15
5.46946e-19
5.32349e-14
-5.46944e-19
1.17229e-13
5.46943e-19
9.88781e-14
0
4.35543e-14
0
3.80354e-14
5.46941e-19
5.82344e-14
5.4694e-19
3.51112e-14
-5.46939e-19
8.40176e-14
-5.46939e-19
2.69675e-13
0
2.38516e-13
0
-3.31258e-14
5.46938e-19
-1.71393e-13
0
-9.53674e-14
5.46938e-19
5.72687e-14
-7.45643e-30
6.99347e-14
-5.46937e-19
-1.4142e-15
0
-7.36484e-14
0
-1.64379e-13
5.46937e-19
-8.13686e-14
1.13712e-28
1.84161e-13
0
2.58687e-13
-5.46937e-19
2.15322e-14
0
-1.75425e-13
5.46937e-19
-1.90862e-13
-5.46937e-19
-2.0503e-14
-1.71177e-29
1.23372e-13
5.46937e-19
1.38203e-13
-1.09387e-18
-1.74336e-15
5.46937e-19
-1.94528e-13
5.46937e-19
-1.28702e-13
-5.46937e-19
1.10075e-13
-5.46937e-19
4.90737e-13
0
1.55589e-13
9.50382e-29
-2.05922e-13
-2.741e-28
-3.22403e-13
-5.46937e-19
-3.03406e-13
0
-5.51163e-14
0
1.73557e-13
0
1.59716e-13
2.26401e-28
1.34952e-13
5.46938e-19
1.44634e-13
-5.46937e-19
2.2406e-13
0
2.65619e-14
5.46936e-19
5.88479e-13
-5.46938e-19
2.3587e-12
-5.46937e-19
-1.28917e-12
0
-4.81043e-13
-5.46938e-19
3.00607e-12
0
1.59189e-12
0
-3.21996e-12
0
-2.38832e-12
5.46941e-19
1.90771e-12
0
2.36453e-12
-5.46943e-19
-2.14992e-13
5.46931e-19
4.75765e-13
5.46945e-19
1.17765e-12
0
2.18018e-12
0
1.81145e-12
5.46926e-19
2.45101e-12
-5.4695e-19
2.11401e-12
-5.44883e-27
3.01928e-12
-5.46953e-19
2.82786e-12
0
3.81612e-12
-5.46956e-19
3.60576e-12
7.21984e-27
4.5317e-12
-5.4696e-19
4.31254e-12
5.46907e-19
5.22295e-12
-5.46964e-19
5.07257e-12
1.0938e-18
5.95306e-12
0
5.88353e-12
-1.90821e-26
6.68833e-12
0
6.70908e-12
0
7.39705e-12
0
7.51804e-12
0
8.04873e-12
-1.09397e-18
8.27761e-12
1.09374e-18
8.61481e-12
0
8.95595e-12
1.09372e-18
9.06797e-12
1.09399e-18
9.52008e-12
1.0937e-18
9.3791e-12
0
9.9319e-12
0
9.52479e-12
0
1.01737e-11
1.09366e-18
9.49074e-12
0
1.0212e-11
2.18729e-18
9.27142e-12
-2.18804e-18
1.00083e-11
-1.09363e-18
8.97704e-12
0
9.52834e-12
0
8.28496e-12
-1.09403e-18
8.83561e-12
0
7.71594e-12
1.09403e-18
8.15031e-12
-1.0936e-18
6.8423e-12
1.09404e-18
7.21835e-12
0
5.83779e-12
0
6.21214e-12
0
4.80888e-12
0
5.14265e-12
-1.09359e-18
3.7044e-12
0
3.96024e-12
0
2.52697e-12
1.09403e-18
2.73011e-12
0
1.34457e-12
0
1.50449e-12
1.09359e-18
7.31196e-13
0
1.69328e-12
0
-2.22753e-12
6.36807e-27
-6.04966e-12
0
-7.94365e-12
0
-8.26552e-12
0
4.34162e-12
0
2.8872e-11
-1.09362e-18
3.20887e-11
1.09398e-18
1.93114e-11
0
-1.93167e-11
1.09397e-18
-8.0955e-11
-1.09364e-18
-8.94914e-11
1.09396e-18
-4.83415e-11
1.09366e-18
3.16315e-11
1.09395e-18
1.49358e-10
0
1.64293e-10
-1.09394e-18
7.37182e-11
1.09368e-18
-6.75568e-11
0
-2.55879e-10
1.0937e-18
-2.77307e-10
0
-1.25741e-10
-1.0523e-25
9.16552e-11
1.0939e-18
3.69018e-10
-1.44819e-25
3.99443e-10
1.0939e-18
1.62883e-10
1.09374e-18
-1.47396e-10
0
-5.19266e-10
-1.09375e-18
-5.53729e-10
-1.09388e-18
-2.30071e-10
-1.09376e-18
1.80047e-10
1.09387e-18
6.63136e-10
-2.677e-25
7.08417e-10
1.09387e-18
2.74166e-10
-1.09378e-18
-2.49415e-10
1.09387e-18
-8.36849e-10
1.09379e-18
-8.82562e-10
1.77081e-26
-3.48739e-10
0
2.85442e-10
-1.09385e-18
9.97115e-10
1.0938e-18
1.05484e-09
0
3.95981e-10
0
-3.61782e-10
-1.09386e-18
-1.17711e-09
0
-1.23158e-09
-1.03034e-26
-4.70121e-10
1.09382e-18
3.99513e-10
-1.16479e-24
1.34028e-09
1.09382e-18
1.40471e-09
0
5.14657e-10
1.09384e-18
-4.75238e-10
-1.09386e-18
-1.50891e-09
-1.09385e-18
-1.56779e-09
0
-5.83364e-10
-1.09383e-18
5.08745e-10
1.09383e-18
1.66191e-09
0
1.73199e-09
2.20313e-26
6.24265e-10
1.09385e-18
-5.79667e-10
-1.09387e-18
-1.81078e-09
1.09386e-18
-1.87445e-09
-1.09385e-18
-6.87278e-10
-6.40318e-25
6.05337e-10
-1.09382e-18
1.95275e-09
-7.7814e-25
2.03406e-09
1.09384e-18
7.29394e-10
1.09386e-18
-6.70967e-10
1.79061e-24
-2.09054e-09
-1.09388e-18
-2.16815e-09
0
-7.91152e-10
7.25701e-25
6.92798e-10
0
2.22996e-09
-1.09381e-18
2.33101e-09
-1.09383e-18
8.36616e-10
7.74724e-25
-7.54868e-10
-2.0311e-24
-2.36414e-09
2.18779e-18
-2.46781e-09
-1.09388e-18
-9.0453e-10
-1.09382e-18
7.73775e-10
1.09379e-18
2.51312e-09
1.03478e-24
2.65018e-09
1.09382e-18
9.61335e-10
0
-8.43341e-10
-1.09394e-18
-2.66934e-09
1.09392e-18
-2.81652e-09
1.11927e-25
-1.01987e-09
0
6.60486e-10
1.09378e-18
1.31655e-09
-1.09384e-18
6.60558e-10
-1.09388e-18
1.2089e-11
1.09379e-18
-2.02136e-12
0
1.40676e-13
1.0933e-18
-1.57166e-13
1.09498e-18
-5.07632e-14
1.09281e-18
-2.85463e-14
-1.09451e-18
-1.50277e-15
0
1.6528e-14
1.09126e-18
2.45985e-14
-1.1145e-18
1.31768e-14
-1.10984e-18
3.87537e-16
-2.87606e-32
-3.31181e-17
3.1225e-18
0
0
0
0
0
0
0
0
0
0
0
0
0
0
0
0
0
0
0
0
0
0
0
0
0
0
0
0
0
0
0
0
0
0
0
0
0
0
0
0
0
0
0
0
0
0
0
0
0
0
0
0
0
0
0
0
0
0
0
0
0
0
0
0
0
0
0
0
0
0
0
0
0
0
0
0
0
0
0
0
0
0
0
0
0
0
0
0
0
0
0
0
0
0
0
0
0
0
0
0
0
0
0
0
0
0
0
-9.03502e-21
0
3.97541e-20
-2.77555e-19
-5.25838e-19
-2.77561e-19
6.02907e-18
0
-6.94549e-17
2.78228e-19
8.06462e-16
1.20183e-29
2.63113e-14
-2.65032e-19
8.83563e-14
2.68698e-19
7.8472e-14
2.68113e-19
3.31758e-14
2.68152e-19
2.69115e-14
0
2.12312e-14
-2.68496e-19
2.00347e-14
-8.06146e-19
1.5453e-14
-2.6889e-19
9.08849e-15
7.09952e-30
1.47607e-15
-5.38305e-19
1.16073e-13
0
3.68864e-13
0
5.07731e-13
2.69411e-19
4.79019e-13
-9.22611e-29
3.96114e-13
0
3.19733e-13
2.69551e-19
2.91537e-13
0
2.94536e-13
-5.39198e-19
2.89829e-13
-6.81979e-29
2.64122e-13
0
2.31452e-13
5.39271e-19
2.04753e-13
-5.39283e-19
1.86157e-13
-5.39293e-19
1.72679e-13
0
1.58386e-13
5.39303e-19
1.40024e-13
0
1.24955e-13
0
1.15279e-13
0
9.28047e-14
-5.39302e-19
5.64518e-14
5.393e-19
3.20556e-14
0
1.41485e-14
0
5.7268e-15
0
4.88957e-14
5.39291e-19
1.06663e-13
0
9.02894e-14
0
4.0313e-14
-5.39285e-19
3.50843e-14
0
5.37646e-14
-5.39282e-19
3.31798e-14
5.39281e-19
7.66949e-14
5.3928e-19
2.44673e-13
0
2.1783e-13
5.39278e-19
-2.87479e-14
5.39278e-19
-1.5618e-13
0
-8.7637e-14
5.39278e-19
5.11548e-14
-3.90502e-30
6.39007e-14
3.77457e-30
-7.65765e-16
7.14063e-29
-6.72999e-14
0
-1.49244e-13
0
-7.38459e-14
0
1.66923e-13
0
2.35197e-13
0
2.05873e-14
-5.39277e-19
-1.59397e-13
-5.39277e-19
-1.73712e-13
5.39277e-19
-2.01294e-14
5.39277e-19
1.12045e-13
0
1.26964e-13
-1.07855e-18
-1.08926e-15
0
-1.76487e-13
-2.28338e-30
-1.18671e-13
-5.39276e-19
1.02602e-13
-1.07855e-18
4.44281e-13
0
1.4245e-13
0
-1.86659e-13
-5.39277e-19
-2.94627e-13
-8.58523e-29
-2.76492e-13
-5.39278e-19
-5.05995e-14
-5.39277e-19
1.56994e-13
0
1.46908e-13
3.12797e-28
1.2406e-13
1.74515e-28
1.32957e-13
-4.36756e-28
2.01916e-13
0
2.91204e-14
0
5.5486e-13
-5.39278e-19
2.11331e-12
5.39276e-19
-1.13645e-12
-3.29148e-27
-4.33929e-13
-5.39278e-19
2.70848e-12
1.37408e-27
1.4562e-12
-5.19951e-27
-2.89693e-12
-5.39272e-19
-2.18971e-12
0
1.71422e-12
5.39271e-19
2.1603e-12
0
-1.67948e-13
5.39269e-19
4.22785e-13
5.39287e-19
1.08224e-12
5.39266e-19
1.98322e-12
1.07858e-18
1.67032e-12
-5.39263e-19
2.23333e-12
5.39293e-19
1.94923e-12
-5.39258e-19
2.75246e-12
-5.39296e-19
2.60264e-12
-5.39252e-19
3.48139e-12
5.393e-19
3.31471e-12
-5.39244e-19
4.13725e-12
5.8441e-27
3.96176e-12
5.39236e-19
4.77115e-12
0
4.65671e-12
0
5.44105e-12
0
5.39768e-12
-2.67076e-26
6.11628e-12
0
6.15145e-12
0
6.76777e-12
0
6.88947e-12
-1.07839e-18
7.36756e-12
0
7.58178e-12
0
7.88941e-12
0
8.1993e-12
0
8.30819e-12
-1.07869e-18
8.71194e-12
0
8.59709e-12
0
9.08503e-12
0
8.73456e-12
0
9.30237e-12
-1.07826e-18
8.70725e-12
-1.07871e-18
9.33382e-12
1.07823e-18
8.5093e-12
0
9.14607e-12
2.06918e-26
8.2391e-12
-1.21992e-27
8.70621e-12
1.07819e-18
7.60701e-12
0
8.07286e-12
0
7.08378e-12
0
7.44479e-12
1.06752e-26
6.28493e-12
-1.07872e-18
6.59097e-12
1.07815e-18
5.36568e-12
0
5.66924e-12
0
4.42328e-12
0
4.68994e-12
0
3.41135e-12
2.15743e-18
3.60796e-12
1.07814e-18
2.33233e-12
0
2.48265e-12
-1.07814e-18
1.24777e-12
-1.0787e-18
1.35971e-12
0
6.87123e-13
0
1.51384e-12
0
-2.03091e-12
1.07868e-18
-5.4844e-12
0
-7.21741e-12
0
-7.52567e-12
0
4.02031e-12
0
2.61918e-11
8.30203e-27
2.91515e-11
-1.07864e-18
1.75954e-11
0
-1.7733e-11
0
-7.36188e-11
0
-8.13647e-11
-1.06818e-26
-4.41508e-11
-7.31244e-26
2.89951e-11
2.46124e-25
1.35879e-10
1.07825e-18
1.49359e-10
1.07859e-18
6.73638e-11
0
-6.18445e-11
3.64834e-25
-2.32951e-10
-1.07828e-18
-2.52217e-10
0
-1.14963e-10
0
8.38181e-11
-1.07855e-18
3.36011e-10
0
3.63284e-10
-1.07854e-18
1.48977e-10
1.07834e-18
-1.34756e-10
7.53736e-25
-4.72979e-10
-4.3033e-25
-5.03736e-10
-1.07853e-18
-2.10472e-10
-2.15674e-18
1.64503e-10
0
6.04087e-10
-1.07838e-18
6.44447e-10
-1.07851e-18
2.50876e-10
1.0784e-18
-2.27872e-10
-1.21831e-24
-7.62472e-10
-1.07842e-18
-8.0299e-10
-1.0785e-18
-3.19151e-10
1.07842e-18
2.60691e-10
0
9.08551e-10
7.75369e-25
9.59743e-10
1.0785e-18
3.62448e-10
7.61848e-25
-3.30412e-10
-1.07851e-18
-1.07269e-09
9.16111e-25
-1.12064e-09
1.0785e-18
-4.3034e-10
0
3.64774e-10
-1.07848e-18
1.22144e-09
1.07846e-18
1.27822e-09
0
4.71182e-10
-1.07849e-18
-4.33928e-10
0
-1.37523e-09
-2.15699e-18
-1.42667e-09
1.0785e-18
-5.34106e-10
1.07847e-18
4.6444e-10
2.42419e-24
1.51473e-09
0
1.57615e-09
-1.07849e-18
5.71622e-10
-1.07851e-18
-5.29199e-10
0
-1.65051e-09
-1.07852e-18
-1.70579e-09
-1.07851e-18
-6.29314e-10
-1.24851e-24
5.52572e-10
-2.15693e-18
1.77997e-09
0
1.8511e-09
-3.35307e-26
6.6792e-10
1.07851e-18
-6.12489e-10
2.15711e-18
-1.90565e-09
-1.07854e-18
-1.97307e-09
-1.26103e-26
-7.24441e-10
1.07848e-18
6.32351e-10
0
2.03279e-09
-1.07844e-18
2.12134e-09
0
7.661e-10
1.07852e-18
-6.89007e-10
0
-2.15518e-09
-2.15715e-18
-2.24573e-09
-1.07854e-18
-8.28204e-10
0
7.06192e-10
-3.67716e-24
2.29105e-09
1.07839e-18
2.41178e-09
-1.07845e-18
8.80191e-10
0
-7.69648e-10
-1.07864e-18
-2.43346e-09
-2.11332e-24
-2.56309e-09
1.05061e-25
-9.35079e-10
1.07852e-18
5.98701e-10
0
1.20646e-09
0
6.08707e-10
0
1.18855e-11
-1.07844e-18
-2.88357e-12
0
3.33146e-13
2.63981e-28
-1.81526e-13
0
-3.93276e-14
1.07715e-18
-2.75273e-14
1.06106e-29
-1.22171e-15
0
1.50436e-14
-1.07777e-18
2.23967e-14
1.11324e-18
1.21207e-14
-1.10996e-18
4.86995e-16
-1.84889e-32
-4.16912e-17
3.93204e-18
0
0
0
0
0
0
0
0
0
0
0
0
0
0
0
0
0
0
0
0
0
0
0
0
0
0
0
0
0
0
0
0
0
0
0
0
0
0
0
0
0
0
0
0
0
0
0
0
0
0
0
0
0
0
0
0
0
0
0
0
0
0
0
0
0
0
0
0
0
0
0
0
0
0
0
0
0
0
0
0
0
0
0
0
0
0
0
0
0
0
0
0
0
0
0
0
0
0
0
0
0
0
0
0
0
0
3.20988e-35
0
-2.77556e-19
5.78241e-20
0
-5.49329e-19
2.77557e-19
6.38234e-18
2.7754e-19
-7.34134e-17
-2.77736e-19
8.52428e-16
0
2.28261e-14
5.98901e-29
7.47061e-14
-1.12777e-29
6.64529e-14
2.62294e-19
2.85042e-14
-7.65512e-30
2.28517e-14
-2.62492e-19
1.80964e-14
6.94661e-30
1.70195e-14
0
1.31582e-14
-2.63469e-19
7.64686e-15
4.53079e-30
1.92133e-15
0
9.97042e-14
2.26474e-28
3.13482e-13
-2.23821e-28
4.31683e-13
0
4.08029e-13
0
3.37679e-13
2.6447e-19
2.72838e-13
0
2.48696e-13
-2.64572e-19
2.51037e-13
0
2.46972e-13
2.64631e-19
2.25158e-13
9.27104e-29
1.9738e-13
0
1.74623e-13
0
1.58753e-13
0
1.47228e-13
-5.29372e-19
1.35021e-13
0
1.19413e-13
5.29382e-19
1.06586e-13
0
9.82188e-14
0
7.90474e-14
5.29377e-19
4.82271e-14
0
2.73661e-14
5.2937e-19
1.20856e-14
0
5.19295e-15
5.29363e-19
4.17841e-14
0
9.0468e-14
0
7.68098e-14
5.29353e-19
3.46514e-14
-5.2935e-19
3.01175e-14
0
4.66331e-14
-3.86727e-30
2.9185e-14
0
6.41539e-14
5.29342e-19
2.0654e-13
0
1.86186e-13
-5.2934e-19
-2.28134e-14
-5.29339e-19
-1.32882e-13
0
-7.54894e-14
5.29338e-19
4.25462e-14
-5.29338e-19
5.4606e-14
1.16132e-29
3.84892e-17
0
-5.69637e-14
0
-1.26481e-13
5.29336e-19
-6.32048e-14
2.75771e-28
1.40869e-13
-1.42169e-28
1.99906e-13
-5.29338e-19
1.86108e-14
0
-1.34935e-13
0
-1.47666e-13
1.22551e-28
-1.88652e-14
-8.19547e-29
9.47759e-14
0
1.09532e-13
0
2.56958e-16
-5.29337e-19
-1.49714e-13
-5.29337e-19
-1.03151e-13
-5.29336e-19
8.83536e-14
-1.05867e-18
3.7613e-13
-5.29337e-19
1.21706e-13
-5.29337e-19
-1.57542e-13
0
-2.50689e-13
5.29338e-19
-2.35233e-13
5.29339e-19
-4.35195e-14
0
1.32394e-13
5.29339e-19
1.25943e-13
-5.29338e-19
1.06393e-13
1.794e-28
1.13607e-13
-5.59492e-28
1.6982e-13
0
2.80285e-14
-5.29336e-19
4.84211e-13
2.64473e-27
1.77318e-12
5.29336e-19
-9.38301e-13
-4.29833e-27
-3.75414e-13
0
2.27654e-12
-1.05867e-18
1.25774e-12
0
-2.43015e-12
-5.29331e-19
-1.88679e-12
0
1.43517e-12
0
1.84957e-12
-4.39453e-27
-1.21881e-13
-1.05866e-18
3.48009e-13
3.41465e-27
9.24721e-13
-6.98136e-27
1.68204e-12
0
1.43191e-12
0
1.89649e-12
5.29357e-19
1.67093e-12
5.29313e-19
2.33823e-12
5.29361e-19
2.22781e-12
0
2.95918e-12
0
2.83472e-12
5.29296e-19
3.51874e-12
6.32728e-27
3.38626e-12
0
4.05979e-12
0
3.97803e-12
0
4.6318e-12
0
4.60864e-12
0
5.20878e-12
0
5.24977e-12
0
5.76591e-12
1.05879e-18
5.8771e-12
1.05846e-18
6.27932e-12
0
6.46511e-12
0
6.72658e-12
1.05881e-18
6.98909e-12
1.05839e-18
7.0862e-12
1.05882e-18
7.42345e-12
0
7.3352e-12
1.05883e-18
7.73878e-12
0
7.45516e-12
0
7.9213e-12
1.05829e-18
7.4345e-12
0
7.94565e-12
0
7.26769e-12
0
7.78474e-12
0
7.03691e-12
-1.05885e-18
7.40951e-12
-1.0582e-18
6.49917e-12
0
6.87021e-12
0
6.0516e-12
1.05885e-18
6.33441e-12
1.05815e-18
5.37135e-12
1.05884e-18
5.60622e-12
1.05814e-18
4.58806e-12
0
4.82018e-12
1.05813e-18
3.78449e-12
1.05884e-18
3.98532e-12
0
2.92142e-12
-1.05883e-18
3.06342e-12
0
2.00094e-12
-1.05882e-18
2.10491e-12
-1.05811e-18
1.07491e-12
0
1.14397e-12
0
5.96238e-13
0
1.27118e-12
1.05813e-18
-1.72107e-12
4.59759e-27
-4.6161e-12
1.05814e-18
-6.08924e-12
1.05877e-18
-6.42968e-12
0
3.4026e-12
2.1175e-18
2.21233e-11
0
2.46478e-11
0
1.50462e-11
0
-1.49892e-11
0
-6.23571e-11
0
-6.89109e-11
1.0587e-18
-3.77602e-11
0
2.44125e-11
1.05869e-18
1.15167e-10
-1.05825e-18
1.26564e-10
0
5.76528e-11
0
-5.21892e-11
0
-1.97593e-10
-1.0583e-18
-2.13848e-10
-3.85277e-26
-9.83566e-11
-1.05832e-18
7.05849e-11
-1.05863e-18
2.85091e-10
1.05834e-18
3.081e-10
5.51901e-26
1.27523e-10
-1.05837e-18
-1.13687e-10
-1.05861e-18
-4.01449e-10
0
-4.27324e-10
4.91598e-26
-1.80116e-10
-1.05841e-18
1.38592e-10
0
5.12812e-10
1.05842e-18
5.46801e-10
1.05858e-18
2.14769e-10
0
-1.92245e-10
1.05859e-18
-6.47391e-10
0
-6.81386e-10
1.05858e-18
-2.73175e-10
-1.05848e-18
2.19704e-10
1.05857e-18
7.71507e-10
0
8.14551e-10
0
3.1031e-10
1.05851e-18
-2.78773e-10
0
-9.11003e-10
1.05853e-18
-9.51118e-10
1.05858e-18
-3.68402e-10
0
3.0752e-10
-2.96587e-24
1.03742e-09
0
1.08505e-09
-1.05858e-18
4.03442e-10
0
-3.66146e-10
0
-1.16813e-09
1.80304e-24
-1.21102e-09
0
-4.57287e-10
-1.05856e-18
3.91627e-10
-1.05856e-18
1.28672e-09
0
1.33813e-09
3.23074e-26
4.89471e-10
0
-4.46564e-10
-1.05861e-18
-1.40213e-09
1.0586e-18
-1.44807e-09
1.0586e-18
-5.38817e-10
-1.05858e-18
4.65979e-10
1.05856e-18
1.51218e-09
-1.05856e-18
1.57166e-09
-5.01193e-26
5.71902e-10
1.0586e-18
-5.16814e-10
0
-1.61898e-09
-2.48565e-24
-1.67502e-09
1.05861e-18
-6.20215e-10
-1.05857e-18
5.33218e-10
-1.05854e-18
1.72708e-09
1.05854e-18
1.80115e-09
0
6.55891e-10
1.05861e-18
-5.81275e-10
1.05866e-18
-1.83105e-09
0
-1.90648e-09
-1.05863e-18
-7.08922e-10
2.60442e-24
5.95342e-10
0
1.94653e-09
3.06638e-24
2.04776e-09
-1.05854e-18
7.53409e-10
1.05863e-18
-6.49116e-10
-1.05871e-18
-2.06736e-09
-1.05869e-18
-2.17623e-09
1.15907e-25
-8.01358e-10
0
5.03865e-10
1.05846e-18
1.03413e-09
1.05856e-18
5.2424e-10
1.05865e-18
8.89472e-12
-4.87765e-27
-3.58593e-12
0
5.39368e-13
1.05781e-18
-1.7928e-13
-1.06059e-18
-3.3414e-14
-1.05691e-18
-2.29875e-14
0
-1.23469e-15
0
1.28127e-14
-1.06063e-18
1.90113e-14
0
1.03894e-14
-1.11016e-18
5.1366e-16
1.11023e-18
-4.42219e-17
4.16334e-18
0
0
0
0
0
0
0
0
0
0
0
0
0
0
0
0
0
0
0
0
0
0
0
0
0
0
0
0
0
0
0
0
0
0
0
0
0
0
0
0
0
0
0
0
0
0
0
0
0
0
0
0
0
0
0
0
0
0
0
0
0
0
0
0
0
0
0
0
0
0
0
0
0
0
0
0
0
0
0
0
0
0
0
0
0
0
0
0
0
0
0
0
0
0
0
0
0
0
0
0
0
0
0
0
0
0
0
0
0
4.33681e-20
-5.13581e-34
-4.77049e-19
0
5.55112e-18
-2.77595e-19
-6.37554e-17
-2.77103e-19
7.4127e-16
0
1.73947e-14
8.10206e-29
5.57134e-14
-1.89756e-29
4.9565e-14
0
2.15005e-14
0
1.70976e-14
0
1.35759e-14
0
1.27401e-14
2.56539e-19
9.86807e-15
-2.56943e-19
5.68839e-15
2.57278e-19
1.7917e-15
0
7.52639e-14
3.19018e-28
2.34912e-13
-2.57977e-19
3.23624e-13
2.58142e-19
3.06325e-13
0
2.53672e-13
0
2.05117e-13
0
1.8693e-13
2.58528e-19
1.88579e-13
5.17152e-19
1.85504e-13
0
1.69171e-13
0
1.48341e-13
-5.1732e-19
1.31246e-13
-5.1735e-19
1.19312e-13
0
1.10636e-13
0
1.01452e-13
0
8.97496e-14
-5.174e-19
8.0121e-14
0
7.37709e-14
0
5.93605e-14
0
3.6293e-14
-5.17389e-19
2.05842e-14
0
9.09502e-15
0
4.0665e-15
-5.17372e-19
3.14455e-14
-1.54639e-28
6.77284e-14
5.17361e-19
5.76311e-14
0
2.61833e-14
0
2.274e-14
0
3.58636e-14
0
2.28341e-14
0
4.6979e-14
0
1.53534e-13
0
1.40507e-13
0
-1.59103e-14
-5.17338e-19
-9.98782e-14
0
-5.7496e-14
0
3.12584e-14
-5.17336e-19
4.12073e-14
5.17336e-19
5.90477e-16
1.55625e-28
-4.22885e-14
0
-9.44998e-14
-5.17333e-19
-4.79874e-14
3.84518e-28
1.04778e-13
5.17335e-19
1.50084e-13
0
1.47804e-14
5.17336e-19
-1.00775e-13
-5.17336e-19
-1.10757e-13
5.17336e-19
-1.55518e-14
-1.33525e-28
7.05444e-14
-5.17336e-19
8.35332e-14
0
1.54505e-15
-5.17335e-19
-1.11965e-13
5.17334e-19
-7.93284e-14
0
6.64243e-14
5.17333e-19
2.81544e-13
5.17335e-19
9.15011e-14
4.21727e-30
-1.17532e-13
-1.03467e-18
-1.87933e-13
-5.27273e-29
-1.76574e-13
0
-3.29294e-14
-5.17337e-19
9.8679e-14
5.17338e-19
9.51055e-14
5.17336e-19
8.04245e-14
-5.17338e-19
8.5389e-14
0
1.26253e-13
5.17338e-19
2.27126e-14
-5.17334e-19
3.69821e-13
-5.17337e-19
1.3199e-12
5.17334e-19
-6.86441e-13
-5.36248e-27
-2.91413e-13
0
1.6882e-12
0
9.64342e-13
-9.35309e-27
-1.79823e-12
-1.03465e-18
-1.43923e-12
-5.17342e-19
1.05994e-12
5.17327e-19
1.40131e-12
5.17346e-19
-7.92081e-14
-5.17325e-19
2.5134e-13
3.84947e-27
6.9516e-13
5.1732e-19
1.2595e-12
-5.17355e-19
1.0801e-12
1.03463e-18
1.42103e-12
-5.17359e-19
1.26036e-12
5.17306e-19
1.75249e-12
0
1.67869e-12
-5.17296e-19
2.21881e-12
5.17369e-19
2.13464e-12
0
2.63947e-12
5.17374e-19
2.549e-12
-1.03454e-18
3.04634e-12
0
2.99328e-12
0
3.47662e-12
0
3.46653e-12
0
3.91084e-12
0
3.94747e-12
0
4.33036e-12
-1.0348e-18
4.41784e-12
1.0344e-18
4.71721e-12
0
4.8585e-12
0
5.05451e-12
1.14314e-26