/*--------------------------------*- C++ -*----------------------------------*\
| =========                 |                                                 |
| \\      /  F ield         | foam-extend: Open Source CFD                    |
|  \\    /   O peration     | Version:     3.2                                |
|   \\  /    A nd           | Web:         http://www.foam-extend.org         |
|    \\/     M anipulation  | For copyright notice see file Copyright         |
\*---------------------------------------------------------------------------*/
FoamFile
{
    version     2.0;
    format      ascii;
    class       tetPointVectorField;
    location    "2000";
    object      motionU;
}
// * * * * * * * * * * * * * * * * * * * * * * * * * * * * * * * * * * * * * //

dimensions      [0 1 -1 0 0 0 0];

internalField   nonuniform List<vector> 
17726
(
(0 0 0)
(0 0 0)
(0 0 0)
(0 0 0)
(0 0 0)
(0 0 0)
(0 0 0)
(0 0 0)
(0 0 0)
(0 0 0)
(0 0 0)
(0 0 0)
(0 0 0)
(0 0 0)
(0 0 0)
(0 0 0)
(0 0 0)
(0 0 0)
(0 0 0)
(0 0 0)
(0 0 0)
(0 0 0)
(0 0 0)
(0 0 0)
(0 0 0)
(0 0 0)
(0 0 0)
(0 0 0)
(0 0 0)
(0 0 0)
(0 0 0)
(0 0 0)
(0 0 0)
(0 0 0)
(0 0 0)
(0 0 0)
(0 0 0)
(0 0 0)
(0 0 0)
(0 0 0)
(0 0 0)
(0 0 0)
(0 0 0)
(0 0 0)
(0 0 0)
(0 0 0)
(0 0 0)
(0 0 0)
(0 0 0)
(0 0 0)
(0 0 0)
(0 0 0)
(0 0 0)
(0 0 0)
(0 0 0)
(0 0 0)
(0 0 0)
(0 0 0)
(0 0 0)
(0 0 0)
(0 0 5.65717e-11)
(0 0 1.54511e-10)
(0 0 3.05096e-11)
(0 0 4.27612e-11)
(0 0 2.03336e-11)
(0 0 2.85527e-11)
(0 0 1.8375e-11)
(0 0 1.74662e-11)
(0 0 4.84419e-12)
(0 0 -1.01813e-11)
(0 0 2.68735e-10)
(0 0 5.97714e-10)
(0 0 5.93226e-10)
(0 0 5.21022e-10)
(0 0 3.97218e-10)
(0 0 3.40609e-10)
(0 0 3.33376e-10)
(0 0 3.50521e-10)
(0 0 3.23244e-10)
(0 0 2.89645e-10)
(0 0 2.46539e-10)
(0 0 2.27656e-10)
(0 0 2.03638e-10)
(0 0 1.96835e-10)
(0 0 1.70774e-10)
(0 0 1.53629e-10)
(0 0 1.35558e-10)
(0 0 1.32722e-10)
(0 0 8.35656e-11)
(0 0 4.61303e-11)
(0 0 2.77655e-11)
(0 0 4.76566e-12)
(0 0 4.45456e-12)
(0 0 1.07668e-10)
(0 0 1.45873e-10)
(0 0 6.58635e-11)
(0 0 2.37547e-11)
(0 0 5.55713e-11)
(0 0 6.92949e-11)
(0 0 8.75159e-13)
(0 0 1.72481e-10)
(0 0 4.1322e-10)
(0 0 1.0322e-10)
(0 0 -1.82692e-10)
(0 0 -1.90494e-10)
(0 0 -1.40293e-11)
(0 0 1.43888e-10)
(0 0 7.59454e-12)
(0 0 -1.22244e-11)
(0 0 -1.43203e-10)
(0 0 -2.14606e-10)
(0 0 3.37326e-11)
(0 0 3.68233e-10)
(0 0 1.9597e-10)
(0 0 -1.54701e-10)
(0 0 -2.26747e-10)
(0 0 -1.87327e-10)
(0 0 1.48221e-10)
(0 0 1.20183e-10)
(0 0 1.77617e-10)
(0 0 -1.80189e-10)
(0 0 -2.46221e-10)
(0 0 -2.96627e-11)
(0 0 2.52352e-10)
(0 0 8.29138e-10)
(0 0 -5.00772e-10)
(0 0 4.98434e-11)
(0 0 -7.39302e-10)
(0 0 8.38605e-11)
(0 0 -1.99378e-10)
(0 0 5.81678e-10)
(0 0 -2.44318e-10)
(0 0 5.29124e-10)
(0 0 -2.27113e-10)
(0 0 7.23143e-10)
(0 0 -6.99178e-10)
(0 0 1.84819e-09)
(0 0 3.49331e-09)
(0 0 -6.51223e-09)
(0 0 5.37958e-09)
(0 0 1.28397e-09)
(0 0 2.22778e-09)
(0 0 -9.39612e-09)
(0 0 4.209e-09)
(0 0 6.45718e-11)
(0 0 5.08217e-09)
(0 0 -5.74144e-09)
(0 0 6.79641e-09)
(0 0 -4.32321e-09)
(0 0 9.04208e-09)
(0 0 -5.26993e-09)
(0 0 1.05488e-08)
(0 0 -6.14602e-09)
(0 0 1.26401e-08)
(0 0 -6.71919e-09)
(0 0 1.49107e-08)
(0 0 -7.3358e-09)
(0 0 1.70434e-08)
(0 0 -7.96623e-09)
(0 0 1.9136e-08)
(0 0 -8.4378e-09)
(0 0 2.11497e-08)
(0 0 -8.71833e-09)
(0 0 2.29792e-08)
(0 0 -8.78008e-09)
(0 0 2.45298e-08)
(0 0 -8.59456e-09)
(0 0 2.57085e-08)
(0 0 -8.13877e-09)
(0 0 2.64321e-08)
(0 0 -7.39786e-09)
(0 0 2.66286e-08)
(0 0 -6.37047e-09)
(0 0 2.62358e-08)
(0 0 -5.07673e-09)
(0 0 2.52248e-08)
(0 0 -3.52561e-09)
(0 0 2.3576e-08)
(0 0 -1.77187e-09)
(0 0 2.13375e-08)
(0 0 4.19958e-11)
(0 0 1.89026e-08)
(0 0 1.45975e-09)
(0 0 1.60039e-08)
(0 0 2.88068e-09)
(0 0 1.33889e-08)
(0 0 4.04365e-09)
(0 0 1.03628e-08)
(0 0 5.0931e-09)
(0 0 7.17601e-09)
(0 0 6.14503e-09)
(0 0 3.9403e-09)
(0 0 7.10907e-09)
(0 0 6.34114e-10)
(0 0 7.89898e-09)
(0 0 -2.65118e-09)
(0 0 8.5647e-09)
(0 0 -5.81757e-09)
(0 0 9.10628e-09)
(0 0 -7.68356e-09)
(0 0 1.15557e-08)
(0 0 -1.6327e-08)
(0 0 3.29287e-09)
(0 0 -2.02782e-08)
(0 0 2.21412e-09)
(0 0 6.45286e-09)
(0 0 5.62304e-08)
(0 0 1.28045e-08)
(0 0 2.91482e-08)
(0 0 -6.91836e-08)
(0 0 -1.0586e-07)
(0 0 -8.69007e-08)
(0 0 -1.69371e-08)
(0 0 8.25615e-08)
(0 0 2.40397e-07)
(0 0 1.14131e-07)
(0 0 4.36552e-08)
(0 0 -1.85269e-07)
(0 0 -3.67263e-07)
(0 0 -2.30812e-07)
(0 0 -3.75547e-08)
(0 0 2.30002e-07)
(0 0 5.66865e-07)
(0 0 2.95409e-07)
(0 0 5.14347e-08)
(0 0 -3.62328e-07)
(0 0 -7.58222e-07)
(0 0 -4.36455e-07)
(0 0 -5.28899e-08)
(0 0 4.32938e-07)
(0 0 9.9812e-07)
(0 0 5.31207e-07)
(0 0 5.09946e-08)
(0 0 -5.78922e-07)
(0 0 -1.22626e-06)
(0 0 -6.78123e-07)
(0 0 -6.2074e-08)
(0 0 6.66258e-07)
(0 0 1.48477e-06)
(0 0 7.92308e-07)
(0 0 4.71785e-08)
(0 0 -8.14522e-07)
(0 0 -1.72406e-06)
(0 0 -9.33588e-07)
(0 0 -6.28695e-08)
(0 0 9.10115e-07)
(0 0 1.98058e-06)
(0 0 1.05158e-06)
(0 0 3.81402e-08)
(0 0 -1.04752e-06)
(0 0 -2.20612e-06)
(0 0 -1.17711e-06)
(0 0 -5.80221e-08)
(0 0 1.13816e-06)
(0 0 2.4456e-06)
(0 0 1.2929e-06)
(0 0 2.77222e-08)
(0 0 -1.26006e-06)
(0 0 -2.64397e-06)
(0 0 -1.40111e-06)
(0 0 -5.29879e-08)
(0 0 1.33898e-06)
(0 0 2.87132e-06)
(0 0 1.51928e-06)
(0 0 2.30217e-08)
(0 0 -1.45006e-06)
(0 0 -3.05654e-06)
(0 0 -1.62274e-06)
(0 0 -5.04942e-08)
(0 0 1.52279e-06)
(0 0 3.28443e-06)
(0 0 1.74757e-06)
(0 0 2.09972e-08)
(0 0 -1.6268e-06)
(0 0 -3.46875e-06)
(0 0 -1.85792e-06)
(0 0 -5.4962e-08)
(0 0 1.6995e-06)
(0 0 3.7172e-06)
(0 0 2.00454e-06)
(0 0 2.82098e-08)
(0 0 -1.82254e-06)
(0 0 -3.92959e-06)
(0 0 -2.15204e-06)
(0 0 2.91154e-09)
(0 0 1.45063e-06)
(0 0 1.3925e-06)
(0 0 -1.06877e-09)
(0 0 -2.64241e-10)
(0 0 -1.95146e-10)
(0 0 -1.37342e-10)
(0 0 -8.2799e-11)
(0 0 -4.37139e-11)
(0 0 -1.3459e-11)
(0 0 1.01948e-11)
(0 0 2.54143e-11)
(0 0 2.77499e-11)
(0 0 0)
(0 0 0)
(0 0 0)
(0 0 0)
(0 0 0)
(0 0 0)
(0 0 0)
(0 0 0)
(0 0 0)
(0 0 0)
(0 0 0)
(0 0 0)
(0 0 0)
(0 0 0)
(0 0 0)
(0 0 0)
(0 0 0)
(0 0 0)
(0 0 0)
(0 0 0)
(0 0 0)
(0 0 0)
(0 0 0)
(0 0 0)
(0 0 0)
(0 0 0)
(0 0 0)
(0 0 0)
(0 0 0)
(0 0 0)
(0 0 0)
(0 0 0)
(0 0 0)
(0 0 0)
(0 0 0)
(0 0 0)
(0 0 0)
(0 0 0)
(0 0 0)
(0 0 0)
(0 0 0)
(0 0 0)
(0 0 0)
(0 0 0)
(0 0 0)
(0 0 0)
(0 0 0)
(0 0 0)
(0 0 0)
(0 0 0)
(0 0 0)
(0 0 0)
(0 0 0)
(0 0 0)
(0 0 0)
(0 0 0)
(0 0 0)
(0 0 0)
(0 0 0)
(0 0 0)
(0 0 0)
(0 0 0)
(0 0 0)
(0 0 0)
(0 0 5.65717e-11)
(0 0 1.54511e-10)
(0 0 3.05096e-11)
(0 0 4.27612e-11)
(0 0 2.03336e-11)
(0 0 2.85527e-11)
(0 0 1.8375e-11)
(0 0 1.74662e-11)
(0 0 4.84419e-12)
(0 0 -1.01813e-11)
(0 0 2.68735e-10)
(0 0 5.97714e-10)
(0 0 5.93226e-10)
(0 0 5.21022e-10)
(0 0 3.97218e-10)
(0 0 3.40609e-10)
(0 0 3.33376e-10)
(0 0 3.50521e-10)
(0 0 3.23244e-10)
(0 0 2.89645e-10)
(0 0 2.46539e-10)
(0 0 2.27656e-10)
(0 0 2.03638e-10)
(0 0 1.96835e-10)
(0 0 1.70774e-10)
(0 0 1.53629e-10)
(0 0 1.35558e-10)
(0 0 1.32722e-10)
(0 0 8.35656e-11)
(0 0 4.61303e-11)
(0 0 2.77655e-11)
(0 0 4.76566e-12)
(0 0 4.45456e-12)
(0 0 1.07668e-10)
(0 0 1.45873e-10)
(0 0 6.58635e-11)
(0 0 2.37547e-11)
(0 0 5.55713e-11)
(0 0 6.92949e-11)
(0 0 8.75159e-13)
(0 0 1.72481e-10)
(0 0 4.1322e-10)
(0 0 1.0322e-10)
(0 0 -1.82692e-10)
(0 0 -1.90494e-10)
(0 0 -1.40293e-11)
(0 0 1.43888e-10)
(0 0 7.59454e-12)
(0 0 -1.22244e-11)
(0 0 -1.43203e-10)
(0 0 -2.14606e-10)
(0 0 3.37326e-11)
(0 0 3.68233e-10)
(0 0 1.9597e-10)
(0 0 -1.54701e-10)
(0 0 -2.26747e-10)
(0 0 -1.87327e-10)
(0 0 1.48221e-10)
(0 0 1.20183e-10)
(0 0 1.77617e-10)
(0 0 -1.80189e-10)
(0 0 -2.46221e-10)
(0 0 -2.96627e-11)
(0 0 2.52352e-10)
(0 0 8.29138e-10)
(0 0 -5.00772e-10)
(0 0 4.98434e-11)
(0 0 -7.39302e-10)
(0 0 8.38605e-11)
(0 0 -1.99378e-10)
(0 0 5.81678e-10)
(0 0 -2.44318e-10)
(0 0 5.29124e-10)
(0 0 -2.27113e-10)
(0 0 7.23143e-10)
(0 0 -6.99178e-10)
(0 0 1.84819e-09)
(0 0 3.49331e-09)
(0 0 -6.51223e-09)
(0 0 5.37958e-09)
(0 0 1.28397e-09)
(0 0 2.22778e-09)
(0 0 -9.39612e-09)
(0 0 4.209e-09)
(0 0 6.45718e-11)
(0 0 5.08217e-09)
(0 0 -5.74144e-09)
(0 0 6.79641e-09)
(0 0 -4.32321e-09)
(0 0 9.04208e-09)
(0 0 -5.26993e-09)
(0 0 1.05488e-08)
(0 0 -6.14602e-09)
(0 0 1.26401e-08)
(0 0 -6.71919e-09)
(0 0 1.49107e-08)
(0 0 -7.3358e-09)
(0 0 1.70434e-08)
(0 0 -7.96623e-09)
(0 0 1.9136e-08)
(0 0 -8.4378e-09)
(0 0 2.11497e-08)
(0 0 -8.71833e-09)
(0 0 2.29792e-08)
(0 0 -8.78008e-09)
(0 0 2.45298e-08)
(0 0 -8.59456e-09)
(0 0 2.57085e-08)
(0 0 -8.13877e-09)
(0 0 2.64321e-08)
(0 0 -7.39786e-09)
(0 0 2.66286e-08)
(0 0 -6.37047e-09)
(0 0 2.62358e-08)
(0 0 -5.07673e-09)
(0 0 2.52248e-08)
(0 0 -3.52561e-09)
(0 0 2.3576e-08)
(0 0 -1.77187e-09)
(0 0 2.13375e-08)
(0 0 4.19958e-11)
(0 0 1.89026e-08)
(0 0 1.45975e-09)
(0 0 1.60039e-08)
(0 0 2.88068e-09)
(0 0 1.33889e-08)
(0 0 4.04365e-09)
(0 0 1.03628e-08)
(0 0 5.0931e-09)
(0 0 7.17601e-09)
(0 0 6.14503e-09)
(0 0 3.9403e-09)
(0 0 7.10907e-09)
(0 0 6.34114e-10)
(0 0 7.89898e-09)
(0 0 -2.65118e-09)
(0 0 8.5647e-09)
(0 0 -5.81757e-09)
(0 0 9.10628e-09)
(0 0 -7.68356e-09)
(0 0 1.15557e-08)
(0 0 -1.6327e-08)
(0 0 3.29287e-09)
(0 0 -2.02782e-08)
(0 0 2.21412e-09)
(0 0 6.45286e-09)
(0 0 5.62304e-08)
(0 0 1.28045e-08)
(0 0 2.91482e-08)
(0 0 -6.91836e-08)
(0 0 -1.0586e-07)
(0 0 -8.69007e-08)
(0 0 -1.69371e-08)
(0 0 8.25615e-08)
(0 0 2.40397e-07)
(0 0 1.14131e-07)
(0 0 4.36552e-08)
(0 0 -1.85269e-07)
(0 0 -3.67263e-07)
(0 0 -2.30812e-07)
(0 0 -3.75547e-08)
(0 0 2.30002e-07)
(0 0 5.66865e-07)
(0 0 2.95409e-07)
(0 0 5.14347e-08)
(0 0 -3.62328e-07)
(0 0 -7.58222e-07)
(0 0 -4.36455e-07)
(0 0 -5.28899e-08)
(0 0 4.32938e-07)
(0 0 9.9812e-07)
(0 0 5.31207e-07)
(0 0 5.09946e-08)
(0 0 -5.78922e-07)
(0 0 -1.22626e-06)
(0 0 -6.78123e-07)
(0 0 -6.2074e-08)
(0 0 6.66258e-07)
(0 0 1.48477e-06)
(0 0 7.92308e-07)
(0 0 4.71785e-08)
(0 0 -8.14522e-07)
(0 0 -1.72406e-06)
(0 0 -9.33588e-07)
(0 0 -6.28695e-08)
(0 0 9.10115e-07)
(0 0 1.98058e-06)
(0 0 1.05158e-06)
(0 0 3.81402e-08)
(0 0 -1.04752e-06)
(0 0 -2.20612e-06)
(0 0 -1.17711e-06)
(0 0 -5.80221e-08)
(0 0 1.13816e-06)
(0 0 2.4456e-06)
(0 0 1.2929e-06)
(0 0 2.77222e-08)
(0 0 -1.26006e-06)
(0 0 -2.64397e-06)
(0 0 -1.40111e-06)
(0 0 -5.29879e-08)
(0 0 1.33898e-06)
(0 0 2.87132e-06)
(0 0 1.51928e-06)
(0 0 2.30217e-08)
(0 0 -1.45006e-06)
(0 0 -3.05654e-06)
(0 0 -1.62274e-06)
(0 0 -5.04942e-08)
(0 0 1.52279e-06)
(0 0 3.28443e-06)
(0 0 1.74757e-06)
(0 0 2.09972e-08)
(0 0 -1.6268e-06)
(0 0 -3.46875e-06)
(0 0 -1.85792e-06)
(0 0 -5.4962e-08)
(0 0 1.6995e-06)
(0 0 3.7172e-06)
(0 0 2.00454e-06)
(0 0 2.82098e-08)
(0 0 -1.82254e-06)
(0 0 -3.92959e-06)
(0 0 -2.15204e-06)
(0 0 2.91154e-09)
(0 0 1.45063e-06)
(0 0 1.3925e-06)
(0 0 -1.06877e-09)
(0 0 -2.64241e-10)
(0 0 -1.95146e-10)
(0 0 -1.37342e-10)
(0 0 -8.2799e-11)
(0 0 -4.37139e-11)
(0 0 -1.3459e-11)
(0 0 1.01948e-11)
(0 0 2.54143e-11)
(0 0 2.77499e-11)
(0 0 0)
(0 0 0)
(0 0 0)
(0 0 0)
(0 0 0)
(0 0 -4.06753e-56)
(0 0 1.96814e-55)
(0 0 -8.79369e-55)
(0 0 3.84608e-54)
(0 0 -1.64755e-53)
(0 0 6.90216e-53)
(0 0 -2.82021e-52)
(0 0 1.11894e-51)
(0 0 -4.27943e-51)
(0 0 1.55795e-50)
(0 0 -5.2707e-50)
(0 0 1.56895e-49)
(0 0 -3.44099e-49)
(0 0 -4.67508e-50)
(0 0 7.08459e-48)
(0 0 -6.08229e-47)
(0 0 3.92583e-46)
(0 0 -2.24186e-45)
(0 0 1.19303e-44)
(0 0 -6.05649e-44)
(0 0 2.97019e-43)
(0 0 -1.41778e-42)
(0 0 6.61825e-42)
(0 0 -3.03004e-41)
(0 0 1.3626e-40)
(0 0 -6.01946e-40)
(0 0 2.60873e-39)
(0 0 -1.10557e-38)
(0 0 4.55518e-38)
(0 0 -1.80679e-37)
(0 0 6.78127e-37)
(0 0 -2.32892e-36)
(0 0 6.74611e-36)
(0 0 -1.18028e-35)
(0 0 -3.50206e-35)
(0 0 5.54009e-34)
(0 0 -4.1558e-33)
(0 0 2.50245e-32)
(0 0 -1.33071e-31)
(0 0 6.4413e-31)
(0 0 -2.8598e-30)
(0 0 1.15587e-29)
(0 0 -4.12634e-29)
(0 0 1.17352e-28)
(0 0 -1.23459e-28)
(0 0 -2.03655e-27)
(0 0 2.98908e-26)
(0 0 -3.45149e-25)
(0 0 4.01224e-24)
(0 0 -4.82778e-23)
(0 0 5.94025e-22)
(0 0 -7.38622e-21)
(0 0 9.2274e-20)
(0 0 -1.15576e-18)
(0 0 1.45056e-17)
(0 0 -1.8241e-16)
(0 0 2.29829e-15)
(0 0 -2.90075e-14)
(0 0 3.68365e-13)
(0 0 5.69067e-11)
(0 0 1.52885e-10)
(0 0 3.14967e-11)
(0 0 4.23779e-11)
(0 0 2.05234e-11)
(0 0 2.83676e-11)
(0 0 1.84182e-11)
(0 0 1.73728e-11)
(0 0 4.69679e-12)
(0 0 -8.43149e-12)
(0 0 2.6847e-10)
(0 0 5.94578e-10)
(0 0 5.92007e-10)
(0 0 5.19844e-10)
(0 0 3.96995e-10)
(0 0 3.40299e-10)
(0 0 3.32958e-10)
(0 0 3.49644e-10)
(0 0 3.22696e-10)
(0 0 2.89098e-10)
(0 0 2.4629e-10)
(0 0 2.27225e-10)
(0 0 2.03418e-10)
(0 0 1.96374e-10)
(0 0 1.70559e-10)
(0 0 1.53355e-10)
(0 0 1.35449e-10)
(0 0 1.32206e-10)
(0 0 8.35274e-11)
(0 0 4.61756e-11)
(0 0 2.76817e-11)
(0 0 4.85437e-12)
(0 0 5.08384e-12)
(0 0 1.07062e-10)
(0 0 1.44922e-10)
(0 0 6.60311e-11)
(0 0 2.41543e-11)
(0 0 5.53732e-11)
(0 0 6.86247e-11)
(0 0 2.24178e-12)
(0 0 1.72548e-10)
(0 0 4.09201e-10)
(0 0 1.03593e-10)
(0 0 -1.80715e-10)
(0 0 -1.89273e-10)
(0 0 -1.41731e-11)
(0 0 1.41795e-10)
(0 0 8.57341e-12)
(0 0 -1.29252e-11)
(0 0 -1.42647e-10)
(0 0 -2.12464e-10)
(0 0 3.41042e-11)
(0 0 3.6457e-10)
(0 0 1.94848e-10)
(0 0 -1.52586e-10)
(0 0 -2.25995e-10)
(0 0 -1.85191e-10)
(0 0 1.45391e-10)
(0 0 1.21013e-10)
(0 0 1.74724e-10)
(0 0 -1.7794e-10)
(0 0 -2.44423e-10)
(0 0 -2.97871e-11)
(0 0 2.54701e-10)
(0 0 8.15067e-10)
(0 0 -4.86412e-10)
(0 0 3.97062e-11)
(0 0 -7.26826e-10)
(0 0 7.52518e-11)
(0 0 -1.91118e-10)
(0 0 5.69342e-10)
(0 0 -2.32257e-10)
(0 0 5.16967e-10)
(0 0 -2.14087e-10)
(0 0 7.04492e-10)
(0 0 -6.72419e-10)
(0 0 1.84303e-09)
(0 0 3.40659e-09)
(0 0 -6.35279e-09)
(0 0 5.25446e-09)
(0 0 1.331e-09)
(0 0 2.13398e-09)
(0 0 -9.21067e-09)
(0 0 4.06996e-09)
(0 0 1.41006e-10)
(0 0 4.95993e-09)
(0 0 -5.56696e-09)
(0 0 6.61268e-09)
(0 0 -4.13722e-09)
(0 0 8.8264e-09)
(0 0 -5.04258e-09)
(0 0 1.02948e-08)
(0 0 -5.87853e-09)
(0 0 1.23419e-08)
(0 0 -6.41058e-09)
(0 0 1.45672e-08)
(0 0 -6.98518e-09)
(0 0 1.66562e-08)
(0 0 -7.57475e-09)
(0 0 1.8707e-08)
(0 0 -8.0088e-09)
(0 0 2.06826e-08)
(0 0 -8.2568e-09)
(0 0 2.248e-08)
(0 0 -8.29289e-09)
(0 0 2.40064e-08)
(0 0 -8.09042e-09)
(0 0 2.51706e-08)
(0 0 -7.62806e-09)
(0 0 2.58912e-08)
(0 0 -6.89231e-09)
(0 0 2.60974e-08)
(0 0 -5.88281e-09)
(0 0 2.57278e-08)
(0 0 -4.62008e-09)
(0 0 2.47538e-08)
(0 0 -3.11326e-09)
(0 0 2.31556e-08)
(0 0 -1.41599e-09)
(0 0 2.09789e-08)
(0 0 3.34767e-10)
(0 0 1.86072e-08)
(0 0 1.69061e-09)
(0 0 1.57756e-08)
(0 0 3.04846e-09)
(0 0 1.32221e-08)
(0 0 4.15149e-09)
(0 0 1.02609e-08)
(0 0 5.13868e-09)
(0 0 7.14093e-09)
(0 0 6.12686e-09)
(0 0 3.97225e-09)
(0 0 7.02771e-09)
(0 0 7.32293e-10)
(0 0 7.75681e-09)
(0 0 -2.48928e-09)
(0 0 8.36481e-09)
(0 0 -5.59619e-09)
(0 0 8.85903e-09)
(0 0 -7.40607e-09)
(0 0 1.1202e-08)
(0 0 -1.59567e-08)
(0 0 2.97295e-09)
(0 0 -1.99271e-08)
(0 0 2.03238e-09)
(0 0 6.77315e-09)
(0 0 5.55006e-08)
(0 0 1.32717e-08)
(0 0 2.83666e-08)
(0 0 -6.86256e-08)
(0 0 -1.05405e-07)
(0 0 -8.65089e-08)
(0 0 -1.6871e-08)
(0 0 8.28601e-08)
(0 0 2.38196e-07)
(0 0 1.14576e-07)
(0 0 4.26878e-08)
(0 0 -1.84655e-07)
(0 0 -3.64776e-07)
(0 0 -2.30373e-07)
(0 0 -3.73152e-08)
(0 0 2.30182e-07)
(0 0 5.62175e-07)
(0 0 2.95643e-07)
(0 0 5.05672e-08)
(0 0 -3.61702e-07)
(0 0 -7.52665e-07)
(0 0 -4.35972e-07)
(0 0 -5.26326e-08)
(0 0 4.32935e-07)
(0 0 9.90183e-07)
(0 0 5.31129e-07)
(0 0 5.04778e-08)
(0 0 -5.78298e-07)
(0 0 -1.21704e-06)
(0 0 -6.77584e-07)
(0 0 -6.1945e-08)
(0 0 6.66053e-07)
(0 0 1.47317e-06)
(0 0 7.91924e-07)
(0 0 4.71094e-08)
(0 0 -8.13852e-07)
(0 0 -1.71097e-06)
(0 0 -9.32947e-07)
(0 0 -6.30136e-08)
(0 0 9.09685e-07)
(0 0 1.96524e-06)
(0 0 1.05094e-06)
(0 0 3.85853e-08)
(0 0 -1.04678e-06)
(0 0 -2.18929e-06)
(0 0 -1.17638e-06)
(0 0 -5.85311e-08)
(0 0 1.13757e-06)
(0 0 2.42674e-06)
(0 0 1.29203e-06)
(0 0 2.86954e-08)
(0 0 -1.25926e-06)
(0 0 -2.62379e-06)
(0 0 -1.40024e-06)
(0 0 -5.39042e-08)
(0 0 1.33836e-06)
(0 0 2.84921e-06)
(0 0 1.51816e-06)
(0 0 2.44853e-08)
(0 0 -1.4493e-06)
(0 0 -3.03318e-06)
(0 0 -1.62162e-06)
(0 0 -5.18832e-08)
(0 0 1.5223e-06)
(0 0 3.25915e-06)
(0 0 1.74609e-06)
(0 0 2.30222e-08)
(0 0 -1.62625e-06)
(0 0 -3.44222e-06)
(0 0 -1.85637e-06)
(0 0 -5.68813e-08)
(0 0 1.6993e-06)
(0 0 3.68859e-06)
(0 0 2.0025e-06)
(0 0 3.07592e-08)
(0 0 -1.82216e-06)
(0 0 -3.89977e-06)
(0 0 -2.14903e-06)
(0 0 -2.40226e-09)
(0 0 1.43993e-06)
(0 0 1.38297e-06)
(0 0 8.25947e-09)
(0 0 -1.07854e-09)
(0 0 -1.41875e-10)
(0 0 -1.35039e-10)
(0 0 -8.42089e-11)
(0 0 -4.34044e-11)
(0 0 -1.35193e-11)
(0 0 1.0129e-11)
(0 0 2.53054e-11)
(0 0 2.75448e-11)
(0 0 2.23206e-13)
(0 0 -1.75946e-14)
(0 0 1.38709e-15)
(0 0 0)
(0 0 0)
(0 0 1.28445e-56)
(0 0 -6.24554e-56)
(0 0 2.59127e-55)
(0 0 -1.04147e-54)
(0 0 4.04623e-54)
(0 0 -1.50382e-53)
(0 0 5.24439e-53)
(0 0 -1.64699e-52)
(0 0 4.15073e-52)
(0 0 -4.0967e-52)
(0 0 -4.5323e-51)
(0 0 4.76272e-50)
(0 0 -3.27704e-49)
(0 0 1.93328e-48)
(0 0 -1.04921e-47)
(0 0 5.3923e-47)
(0 0 -2.66331e-46)
(0 0 1.2749e-45)
(0 0 -5.94599e-45)
(0 0 2.71112e-44)
(0 0 -1.2112e-43)
(0 0 5.30879e-43)
(0 0 -2.28384e-42)
(0 0 9.63689e-42)
(0 0 -3.97983e-41)
(0 0 1.60129e-40)
(0 0 -6.22327e-40)
(0 0 2.2985e-39)
(0 0 -7.80186e-39)
(0 0 2.23578e-38)
(0 0 -3.74545e-38)
(0 0 -1.38237e-37)
(0 0 2.07056e-36)
(0 0 -1.58895e-35)
(0 0 9.97087e-35)
(0 0 -5.60366e-34)
(0 0 2.9098e-33)
(0 0 -1.41238e-32)
(0 0 6.42233e-32)
(0 0 -2.72347e-31)
(0 0 1.06455e-30)
(0 0 -3.75333e-30)
(0 0 1.15457e-29)
(0 0 -3.10617e-29)
(0 0 1.16054e-28)
(0 0 -1.31028e-27)
(0 0 2.0097e-26)
(0 0 -2.82474e-25)
(0 0 3.70301e-24)
(0 0 -4.70049e-23)
(0 0 5.8957e-22)
(0 0 -7.37222e-21)
(0 0 9.22205e-20)
(0 0 -1.1554e-18)
(0 0 1.45027e-17)
(0 0 -1.8239e-16)
(0 0 2.2982e-15)
(0 0 -2.90074e-14)
(0 0 3.68365e-13)
(0 0 5.69067e-11)
(0 0 1.52885e-10)
(0 0 3.14967e-11)
(0 0 4.23779e-11)
(0 0 2.05234e-11)
(0 0 2.83676e-11)
(0 0 1.84182e-11)
(0 0 1.73728e-11)
(0 0 4.69675e-12)
(0 0 -8.43141e-12)
(0 0 2.6847e-10)
(0 0 5.94578e-10)
(0 0 5.92007e-10)
(0 0 5.19844e-10)
(0 0 3.96995e-10)
(0 0 3.40299e-10)
(0 0 3.32958e-10)
(0 0 3.49644e-10)
(0 0 3.22696e-10)
(0 0 2.89098e-10)
(0 0 2.4629e-10)
(0 0 2.27225e-10)
(0 0 2.03418e-10)
(0 0 1.96374e-10)
(0 0 1.70559e-10)
(0 0 1.53355e-10)
(0 0 1.35449e-10)
(0 0 1.32206e-10)
(0 0 8.35274e-11)
(0 0 4.61755e-11)
(0 0 2.76817e-11)
(0 0 4.85436e-12)
(0 0 5.08393e-12)
(0 0 1.07062e-10)
(0 0 1.44922e-10)
(0 0 6.60301e-11)
(0 0 2.41586e-11)
(0 0 5.53622e-11)
(0 0 6.86335e-11)
(0 0 2.33497e-12)
(0 0 1.72595e-10)
(0 0 4.09107e-10)
(0 0 1.03486e-10)
(0 0 -1.80723e-10)
(0 0 -1.89215e-10)
(0 0 -1.41394e-11)
(0 0 1.41778e-10)
(0 0 8.53983e-12)
(0 0 -1.29391e-11)
(0 0 -1.42615e-10)
(0 0 -2.1239e-10)
(0 0 3.41324e-11)
(0 0 3.64505e-10)
(0 0 1.94775e-10)
(0 0 -1.526e-10)
(0 0 -2.25954e-10)
(0 0 -1.85116e-10)
(0 0 1.45403e-10)
(0 0 1.20925e-10)
(0 0 1.74658e-10)
(0 0 -1.77884e-10)
(0 0 -2.44263e-10)
(0 0 -2.97359e-11)
(0 0 2.54584e-10)
(0 0 8.14957e-10)
(0 0 -4.86477e-10)
(0 0 3.97104e-11)
(0 0 -7.2675e-10)
(0 0 7.53246e-11)
(0 0 -1.91084e-10)
(0 0 5.69317e-10)
(0 0 -2.32305e-10)
(0 0 5.16952e-10)
(0 0 -2.14081e-10)
(0 0 7.04492e-10)
(0 0 -6.72396e-10)
(0 0 1.84297e-09)
(0 0 3.40665e-09)
(0 0 -6.35214e-09)
(0 0 5.25465e-09)
(0 0 1.32969e-09)
(0 0 2.13338e-09)
(0 0 -9.20916e-09)
(0 0 4.07087e-09)
(0 0 1.40145e-10)
(0 0 4.95924e-09)
(0 0 -5.56689e-09)
(0 0 6.6128e-09)
(0 0 -4.13722e-09)
(0 0 8.82639e-09)
(0 0 -5.04258e-09)
(0 0 1.02948e-08)
(0 0 -5.87854e-09)
(0 0 1.23419e-08)
(0 0 -6.41058e-09)
(0 0 1.45672e-08)
(0 0 -6.98518e-09)
(0 0 1.66562e-08)
(0 0 -7.57475e-09)
(0 0 1.8707e-08)
(0 0 -8.0088e-09)
(0 0 2.06826e-08)
(0 0 -8.2568e-09)
(0 0 2.248e-08)
(0 0 -8.29289e-09)
(0 0 2.40064e-08)
(0 0 -8.09042e-09)
(0 0 2.51706e-08)
(0 0 -7.62806e-09)
(0 0 2.58912e-08)
(0 0 -6.89231e-09)
(0 0 2.60974e-08)
(0 0 -5.88281e-09)
(0 0 2.57278e-08)
(0 0 -4.62008e-09)
(0 0 2.47538e-08)
(0 0 -3.11326e-09)
(0 0 2.31556e-08)
(0 0 -1.41599e-09)
(0 0 2.09789e-08)
(0 0 3.34768e-10)
(0 0 1.86072e-08)
(0 0 1.69061e-09)
(0 0 1.57756e-08)
(0 0 3.04846e-09)
(0 0 1.32221e-08)
(0 0 4.15149e-09)
(0 0 1.02609e-08)
(0 0 5.13868e-09)
(0 0 7.14093e-09)
(0 0 6.12686e-09)
(0 0 3.97225e-09)
(0 0 7.02772e-09)
(0 0 7.32293e-10)
(0 0 7.75681e-09)
(0 0 -2.48928e-09)
(0 0 8.36479e-09)
(0 0 -5.59613e-09)
(0 0 8.85901e-09)
(0 0 -7.40671e-09)
(0 0 1.12018e-08)
(0 0 -1.59566e-08)
(0 0 2.97339e-09)
(0 0 -1.99218e-08)
(0 0 2.03733e-09)
(0 0 6.77085e-09)
(0 0 5.54943e-08)
(0 0 1.32551e-08)
(0 0 2.83509e-08)
(0 0 -6.86191e-08)
(0 0 -1.05386e-07)
(0 0 -8.64727e-08)
(0 0 -1.68372e-08)
(0 0 8.28472e-08)
(0 0 2.38155e-07)
(0 0 1.14512e-07)
(0 0 4.26311e-08)
(0 0 -1.84633e-07)
(0 0 -3.64706e-07)
(0 0 -2.30273e-07)
(0 0 -3.72275e-08)
(0 0 2.30149e-07)
(0 0 5.62066e-07)
(0 0 2.95499e-07)
(0 0 5.04478e-08)
(0 0 -3.61655e-07)
(0 0 -7.52516e-07)
(0 0 -4.3578e-07)
(0 0 -5.24726e-08)
(0 0 4.32873e-07)
(0 0 9.89983e-07)
(0 0 5.30884e-07)
(0 0 5.02824e-08)
(0 0 -5.78217e-07)
(0 0 -1.21679e-06)
(0 0 -6.77286e-07)
(0 0 -6.17031e-08)
(0 0 6.65956e-07)
(0 0 1.47286e-06)
(0 0 7.91568e-07)
(0 0 4.68328e-08)
(0 0 -8.13736e-07)
(0 0 -1.71062e-06)
(0 0 -9.32536e-07)
(0 0 -6.26888e-08)
(0 0 9.09552e-07)
(0 0 1.96483e-06)
(0 0 1.05047e-06)
(0 0 3.82296e-08)
(0 0 -1.04663e-06)
(0 0 -2.18884e-06)
(0 0 -1.17586e-06)
(0 0 -5.81284e-08)
(0 0 1.13741e-06)
(0 0 2.42623e-06)
(0 0 1.29146e-06)
(0 0 2.82675e-08)
(0 0 -1.25907e-06)
(0 0 -2.62324e-06)
(0 0 -1.39963e-06)
(0 0 -5.343e-08)
(0 0 1.33817e-06)
(0 0 2.84861e-06)
(0 0 1.5175e-06)
(0 0 2.39883e-08)
(0 0 -1.44909e-06)
(0 0 -3.03254e-06)
(0 0 -1.62091e-06)
(0 0 -5.13383e-08)
(0 0 1.52207e-06)
(0 0 3.25845e-06)
(0 0 1.74534e-06)
(0 0 2.24541e-08)
(0 0 -1.62601e-06)
(0 0 -3.4415e-06)
(0 0 -1.85558e-06)
(0 0 -5.62603e-08)
(0 0 1.69905e-06)
(0 0 3.68781e-06)
(0 0 2.00165e-06)
(0 0 3.01126e-08)
(0 0 -1.8219e-06)
(0 0 -3.89894e-06)
(0 0 -2.14809e-06)
(0 0 -1.79195e-09)
(0 0 1.43966e-06)
(0 0 1.38256e-06)
(0 0 8.24168e-09)
(0 0 -1.01448e-09)
(0 0 -1.35582e-10)
(0 0 -1.41482e-10)
(0 0 -8.26341e-11)
(0 0 -4.36157e-11)
(0 0 -1.35136e-11)
(0 0 1.01349e-11)
(0 0 2.53032e-11)
(0 0 2.75453e-11)
(0 0 2.23092e-13)
(0 0 -1.7574e-14)
(0 0 1.38335e-15)
(0 0 0)
(0 0 0)
(0 0 -3.2894e-55)
(0 0 1.52187e-54)
(0 0 -6.4784e-54)
(0 0 2.69002e-53)
(0 0 -1.08709e-52)
(0 0 4.2516e-52)
(0 0 -1.5939e-51)
(0 0 5.62917e-51)
(0 0 -1.80668e-50)
(0 0 4.79075e-50)
(0 0 -6.54606e-50)
(0 0 -3.65796e-49)
(0 0 4.48715e-48)
(0 0 -3.21306e-47)
(0 0 1.93464e-46)
(0 0 -1.06476e-45)
(0 0 5.53503e-45)
(0 0 -2.76217e-44)
(0 0 1.3354e-43)
(0 0 -6.28943e-43)
(0 0 2.89574e-42)
(0 0 -1.30609e-41)
(0 0 5.77715e-41)
(0 0 -2.50625e-40)
(0 0 1.06533e-39)
(0 0 -4.42666e-39)
(0 0 1.79019e-38)
(0 0 -6.99254e-38)
(0 0 2.6024e-37)
(0 0 -8.98801e-37)
(0 0 2.71055e-36)
(0 0 -5.80217e-36)
(0 0 -3.78911e-36)
(0 0 1.5263e-34)
(0 0 -1.27845e-33)
(0 0 8.20829e-33)
(0 0 -4.64478e-32)
(0 0 2.422e-31)
(0 0 -1.18556e-30)
(0 0 5.49151e-30)
(0 0 -2.41263e-29)
(0 0 1.00294e-28)
(0 0 -3.90744e-28)
(0 0 1.38721e-27)
(0 0 -4.05703e-27)
(0 0 4.38932e-27)
(0 0 8.50913e-26)
(0 0 -1.34872e-24)
(0 0 1.62835e-23)
(0 0 -1.89143e-22)
(0 0 2.20594e-21)
(0 0 -2.59653e-20)
(0 0 3.07664e-19)
(0 0 -3.65912e-18)
(0 0 4.35973e-17)
(0 0 -5.19838e-16)
(0 0 6.19971e-15)
(0 0 -7.39165e-14)
(0 0 8.86446e-13)
(0 0 5.66574e-11)
(0 0 1.48405e-10)
(0 0 3.25111e-11)
(0 0 4.12539e-11)
(0 0 2.05378e-11)
(0 0 2.77255e-11)
(0 0 1.82441e-11)
(0 0 1.70137e-11)
(0 0 4.39776e-12)
(0 0 -5.74622e-12)
(0 0 2.64712e-10)
(0 0 5.82433e-10)
(0 0 5.82693e-10)
(0 0 5.11476e-10)
(0 0 3.916e-10)
(0 0 3.35505e-10)
(0 0 3.28115e-10)
(0 0 3.43918e-10)
(0 0 3.17795e-10)
(0 0 2.8462e-10)
(0 0 2.42796e-10)
(0 0 2.23702e-10)
(0 0 2.00515e-10)
(0 0 1.93204e-10)
(0 0 1.68079e-10)
(0 0 1.51002e-10)
(0 0 1.33574e-10)
(0 0 1.29769e-10)
(0 0 8.24058e-11)
(0 0 4.565e-11)
(0 0 2.72025e-11)
(0 0 4.91283e-12)
(0 0 5.95201e-12)
(0 0 1.04832e-10)
(0 0 1.4169e-10)
(0 0 6.54342e-11)
(0 0 2.44216e-11)
(0 0 5.43748e-11)
(0 0 6.72274e-11)
(0 0 4.235e-12)
(0 0 1.6996e-10)
(0 0 3.98339e-10)
(0 0 1.02907e-10)
(0 0 -1.75758e-10)
(0 0 -1.85275e-10)
(0 0 -1.42403e-11)
(0 0 1.37022e-10)
(0 0 9.94788e-12)
(0 0 -1.37483e-11)
(0 0 -1.39867e-10)
(0 0 -2.06633e-10)
(0 0 3.4045e-11)
(0 0 3.54716e-10)
(0 0 1.90758e-10)
(0 0 -1.47687e-10)
(0 0 -2.21994e-10)
(0 0 -1.79678e-10)
(0 0 1.39062e-10)
(0 0 1.20961e-10)
(0 0 1.68506e-10)
(0 0 -1.72225e-10)
(0 0 -2.38755e-10)
(0 0 -3.00707e-11)
(0 0 2.55602e-10)
(0 0 7.83667e-10)
(0 0 -4.5947e-10)
(0 0 2.42947e-11)
(0 0 -6.99263e-10)
(0 0 6.16867e-11)
(0 0 -1.76197e-10)
(0 0 5.43801e-10)
(0 0 -2.11243e-10)
(0 0 4.92208e-10)
(0 0 -1.92074e-10)
(0 0 6.67804e-10)
(0 0 -6.24566e-10)
(0 0 1.81344e-09)
(0 0 3.23671e-09)
(0 0 -6.03653e-09)
(0 0 4.99672e-09)
(0 0 1.38753e-09)
(0 0 1.97448e-09)
(0 0 -8.82504e-09)
(0 0 3.80689e-09)
(0 0 2.61187e-10)
(0 0 4.7157e-09)
(0 0 -5.24158e-09)
(0 0 6.25576e-09)
(0 0 -3.80759e-09)
(0 0 8.39379e-09)
(0 0 -4.64048e-09)
(0 0 9.78658e-09)
(0 0 -5.40613e-09)
(0 0 1.1742e-08)
(0 0 -5.87026e-09)
(0 0 1.38719e-08)
(0 0 -6.37514e-09)
(0 0 1.58695e-08)
(0 0 -6.89651e-09)
(0 0 1.7832e-08)
(0 0 -7.26932e-09)
(0 0 1.9726e-08)
(0 0 -7.46584e-09)
(0 0 2.14529e-08)
(0 0 -7.46339e-09)
(0 0 2.2924e-08)
(0 0 -7.23836e-09)
(0 0 2.4052e-08)
(0 0 -6.77214e-09)
(0 0 2.4759e-08)
(0 0 -6.05346e-09)
(0 0 2.49769e-08)
(0 0 -5.08345e-09)
(0 0 2.46465e-08)
(0 0 -3.88289e-09)
(0 0 2.37399e-08)
(0 0 -2.46107e-09)
(0 0 2.22371e-08)
(0 0 -8.69286e-10)
(0 0 2.01801e-08)
(0 0 7.65511e-10)
(0 0 1.79322e-08)
(0 0 2.01208e-09)
(0 0 1.52363e-08)
(0 0 3.25903e-09)
(0 0 1.28067e-08)
(0 0 4.25895e-09)
(0 0 9.97961e-09)
(0 0 5.14109e-09)
(0 0 6.99847e-09)
(0 0 6.02202e-09)
(0 0 3.96964e-09)
(0 0 6.81755e-09)
(0 0 8.69248e-10)
(0 0 7.44704e-09)
(0 0 -2.21676e-09)
(0 0 7.96162e-09)
(0 0 -5.19581e-09)
(0 0 8.37609e-09)
(0 0 -6.89886e-09)
(0 0 1.05372e-08)
(0 0 -1.52077e-08)
(0 0 2.48258e-09)
(0 0 -1.91358e-08)
(0 0 1.70824e-09)
(0 0 7.17561e-09)
(0 0 5.36732e-08)
(0 0 1.37254e-08)
(0 0 2.69044e-08)
(0 0 -6.69423e-08)
(0 0 -1.03345e-07)
(0 0 -8.46544e-08)
(0 0 -1.66508e-08)
(0 0 8.22662e-08)
(0 0 2.31869e-07)
(0 0 1.1347e-07)
(0 0 4.08199e-08)
(0 0 -1.81414e-07)
(0 0 -3.56431e-07)
(0 0 -2.26295e-07)
(0 0 -3.66268e-08)
(0 0 2.27529e-07)
(0 0 5.48094e-07)
(0 0 2.91526e-07)
(0 0 4.87783e-08)
(0 0 -3.56188e-07)
(0 0 -7.34908e-07)
(0 0 -4.28749e-07)
(0 0 -5.17493e-08)
(0 0 4.27418e-07)
(0 0 9.65952e-07)
(0 0 5.23052e-07)
(0 0 4.92127e-08)
(0 0 -5.70022e-07)
(0 0 -1.18804e-06)
(0 0 -6.66663e-07)
(0 0 -6.11409e-08)
(0 0 6.57255e-07)
(0 0 1.43749e-06)
(0 0 7.7952e-07)
(0 0 4.65378e-08)
(0 0 -8.02508e-07)
(0 0 -1.67008e-06)
(0 0 -9.18057e-07)
(0 0 -6.2594e-08)
(0 0 8.97447e-07)
(0 0 1.91791e-06)
(0 0 1.0343e-06)
(0 0 3.88587e-08)
(0 0 -1.03236e-06)
(0 0 -2.13693e-06)
(0 0 -1.15772e-06)
(0 0 -5.86886e-08)
(0 0 1.12219e-06)
(0 0 2.36847e-06)
(0 0 1.27148e-06)
(0 0 2.98409e-08)
(0 0 -1.24204e-06)
(0 0 -2.56104e-06)
(0 0 -1.37803e-06)
(0 0 -5.46972e-08)
(0 0 1.32037e-06)
(0 0 2.78089e-06)
(0 0 1.49386e-06)
(0 0 2.63708e-08)
(0 0 -1.42971e-06)
(0 0 -2.96067e-06)
(0 0 -1.59572e-06)
(0 0 -5.33634e-08)
(0 0 1.50209e-06)
(0 0 3.18106e-06)
(0 0 1.71789e-06)
(0 0 2.57013e-08)
(0 0 -1.60466e-06)
(0 0 -3.35996e-06)
(0 0 -1.82637e-06)
(0 0 -5.90283e-08)
(0 0 1.67719e-06)
(0 0 3.60028e-06)
(0 0 1.96971e-06)
(0 0 3.40525e-08)
(0 0 -1.79827e-06)
(0 0 -3.80687e-06)
(0 0 -2.11288e-06)
(0 0 -1.02019e-08)
(0 0 1.40814e-06)
(0 0 1.35424e-06)
(0 0 1.93889e-08)
(0 0 -2.59492e-09)
(0 0 1.29826e-10)
(0 0 -1.73957e-10)
(0 0 -7.8011e-11)
(0 0 -4.34062e-11)
(0 0 -1.32842e-11)
(0 0 9.88445e-12)
(0 0 2.48349e-11)
(0 0 2.68806e-11)
(0 0 5.37763e-13)
(0 0 -4.48711e-14)
(0 0 3.73597e-15)
(0 0 0)
(0 0 0)
(0 0 1.47207e-55)
(0 0 -6.81529e-55)
(0 0 2.71753e-54)
(0 0 -1.03906e-53)
(0 0 3.77259e-53)
(0 0 -1.26654e-52)
(0 0 3.69104e-52)
(0 0 -7.46073e-52)
(0 0 -7.21967e-52)
(0 0 2.10504e-50)
(0 0 -1.70682e-49)
(0 0 1.08429e-48)
(0 0 -6.15933e-48)
(0 0 3.27266e-47)
(0 0 -1.66048e-46)
(0 0 8.13503e-46)
(0 0 -3.87372e-45)
(0 0 1.80015e-44)
(0 0 -8.18491e-44)
(0 0 3.64676e-43)
(0 0 -1.59331e-42)
(0 0 6.82591e-42)
(0 0 -2.86464e-41)
(0 0 1.17508e-40)
(0 0 -4.69198e-40)
(0 0 1.81022e-39)
(0 0 -6.65732e-39)
(0 0 2.27135e-38)
(0 0 -6.73856e-38)
(0 0 1.37781e-37)
(0 0 1.55213e-37)
(0 0 -4.26391e-36)
(0 0 3.51687e-35)
(0 0 -2.27355e-34)
(0 0 1.30699e-33)
(0 0 -6.96309e-33)
(0 0 3.49766e-32)
(0 0 -1.66895e-31)
(0 0 7.58425e-31)
(0 0 -3.28106e-30)
(0 0 1.34807e-29)
(0 0 -5.24284e-29)
(0 0 1.92869e-28)
(0 0 -6.82625e-28)
(0 0 2.54641e-27)
(0 0 -1.2951e-26)
(0 0 1.08815e-25)
(0 0 -1.22133e-24)
(0 0 1.4709e-23)
(0 0 -1.77892e-22)
(0 0 2.13954e-21)
(0 0 -2.56218e-20)
(0 0 3.06111e-19)
(0 0 -3.65327e-18)
(0 0 4.35817e-17)
(0 0 -5.19831e-16)
(0 0 6.19995e-15)
(0 0 -7.39181e-14)
(0 0 8.86448e-13)
(0 0 5.66574e-11)
(0 0 1.48405e-10)
(0 0 3.25112e-11)
(0 0 4.12539e-11)
(0 0 2.05378e-11)
(0 0 2.77255e-11)
(0 0 1.8244e-11)
(0 0 1.70137e-11)
(0 0 4.39789e-12)
(0 0 -5.74689e-12)
(0 0 2.64712e-10)
(0 0 5.82433e-10)
(0 0 5.82692e-10)
(0 0 5.11476e-10)
(0 0 3.916e-10)
(0 0 3.35505e-10)
(0 0 3.28115e-10)
(0 0 3.43918e-10)
(0 0 3.17795e-10)
(0 0 2.84619e-10)
(0 0 2.42796e-10)
(0 0 2.23702e-10)
(0 0 2.00515e-10)
(0 0 1.93204e-10)
(0 0 1.68079e-10)
(0 0 1.51002e-10)
(0 0 1.33574e-10)
(0 0 1.29769e-10)
(0 0 8.24058e-11)
(0 0 4.565e-11)
(0 0 2.72026e-11)
(0 0 4.91269e-12)
(0 0 5.95195e-12)
(0 0 1.04832e-10)
(0 0 1.41691e-10)
(0 0 6.5433e-11)
(0 0 2.44087e-11)
(0 0 5.44682e-11)
(0 0 6.70288e-11)
(0 0 4.00325e-12)
(0 0 1.70174e-10)
(0 0 3.98427e-10)
(0 0 1.02963e-10)
(0 0 -1.75733e-10)
(0 0 -1.85293e-10)
(0 0 -1.42239e-11)
(0 0 1.37023e-10)
(0 0 9.98106e-12)
(0 0 -1.37362e-11)
(0 0 -1.39989e-10)
(0 0 -2.06773e-10)
(0 0 3.41351e-11)
(0 0 3.54786e-10)
(0 0 1.90809e-10)
(0 0 -1.47635e-10)
(0 0 -2.22088e-10)
(0 0 -1.79818e-10)
(0 0 1.39228e-10)
(0 0 1.2105e-10)
(0 0 1.68487e-10)
(0 0 -1.72412e-10)
(0 0 -2.3902e-10)
(0 0 -2.98496e-11)
(0 0 2.55578e-10)
(0 0 7.83819e-10)
(0 0 -4.59196e-10)
(0 0 2.41607e-11)
(0 0 -6.99287e-10)
(0 0 6.15407e-11)
(0 0 -1.76277e-10)
(0 0 5.43876e-10)
(0 0 -2.11258e-10)
(0 0 4.92243e-10)
(0 0 -1.92024e-10)
(0 0 6.67793e-10)
(0 0 -6.24614e-10)
(0 0 1.81391e-09)
(0 0 3.23553e-09)
(0 0 -6.03845e-09)
(0 0 4.99942e-09)
(0 0 1.39001e-09)
(0 0 1.9708e-09)
(0 0 -8.82633e-09)
(0 0 3.80949e-09)
(0 0 2.60192e-10)
(0 0 4.71524e-09)
(0 0 -5.24024e-09)
(0 0 6.2558e-09)
(0 0 -3.80765e-09)
(0 0 8.39379e-09)
(0 0 -4.64047e-09)
(0 0 9.78658e-09)
(0 0 -5.40613e-09)
(0 0 1.1742e-08)
(0 0 -5.87026e-09)
(0 0 1.38719e-08)
(0 0 -6.37514e-09)
(0 0 1.58695e-08)
(0 0 -6.89651e-09)
(0 0 1.7832e-08)
(0 0 -7.26932e-09)
(0 0 1.9726e-08)
(0 0 -7.46584e-09)
(0 0 2.14529e-08)