/*--------------------------------*- C++ -*----------------------------------*\
| =========                 |                                                 |
| \\      /  F ield         | foam-extend: Open Source CFD                    |
|  \\    /   O peration     | Version:     3.2                                |
|   \\  /    A nd           | Web:         http://www.foam-extend.org         |
|    \\/     M anipulation  | For copyright notice see file Copyright         |
\*---------------------------------------------------------------------------*/
FoamFile
{
    version     2.0;
    format      ascii;
    class       pointVectorField;
    location    "2000";
    object      newMeshPoints;
}
// * * * * * * * * * * * * * * * * * * * * * * * * * * * * * * * * * * * * * //

dimensions      [0 1 0 0 0 0 0];

internalField   nonuniform List<vector> 
5418
(
(0 0 0)
(0.05 0 -0.00025)
(0.1 0 -0.0005)
(0.15 0 -0.00075)
(0.2 0 -0.001)
(0.25 0 -0.00125)
(0.3 0 -0.0015)
(0.35 0 -0.00175)
(0.4 0 -0.002)
(0.45 0 -0.00225)
(0.5 0 -0.0025)
(0.55 0 -0.00275)
(0.6 0 -0.003)
(0.65 0 -0.00325)
(0.7 0 -0.0035)
(0.75 0 -0.00375)
(0.8 0 -0.004)
(0.85 0 -0.00425)
(0.9 0 -0.0045)
(0.95 0 -0.00475)
(1 0 -0.005)
(1.05 0 -0.00525)
(1.1 0 -0.0055)
(1.15 0 -0.00575)
(1.2 0 -0.006)
(1.25 0 -0.00625)
(1.3 0 -0.0065)
(1.35 0 -0.00675)
(1.4 0 -0.007)
(1.45 0 -0.00725)
(1.5 0 -0.0075)
(1.55 0 -0.00775)
(1.6 0 -0.008)
(1.65 0 -0.00825)
(1.7 0 -0.0085)
(1.75 0 -0.00875)
(1.8 0 -0.009)
(1.85 0 -0.00925)
(1.9 0 -0.0095)
(1.95 0 -0.00975)
(2 0 -0.01)
(2.05 0 -0.01025)
(2.1 0 -0.0105)
(2.15 0 -0.01075)
(2.2 0 -0.011)
(2.25 0 -0.01125)
(2.3 0 -0.0115)
(2.35 0 -0.01175)
(2.4 0 -0.012)
(2.45 0 -0.01225)
(2.5 0 -0.0125)
(2.55 0 -0.01275)
(2.6 0 -0.013)
(2.65 0 -0.01325)
(2.7 0 -0.0135)
(2.75 0 -0.01375)
(2.8 0 -0.014)
(2.85 0 -0.01425)
(2.9 0 -0.0145)
(2.95 0 -0.01475)
(3 0 -0.0136888)
(3.05 0 -0.0131491)
(3.1 0 -0.0138807)
(3.15 0 -0.0140851)
(3.2 0 -0.014335)
(3.25 0 -0.0146053)
(3.3 0 -0.0148919)
(3.35 0 -0.0151785)
(3.4 0 -0.0154582)
(3.45 0 -0.0157329)
(3.5 0 -0.0160027)
(3.55 0 -0.0162702)
(3.6 0 -0.0165345)
(3.65 0 -0.0167966)
(3.7 0 -0.0170563)
(3.75 0 -0.0173143)
(3.8 0 -0.0175704)
(3.85 0 -0.0178252)
(3.9 0 -0.0180787)
(3.95 0 -0.0183314)
(4 0 -0.0185834)
(4.05 0 -0.0188349)
(4.1 0 -0.019086)
(4.15 0 -0.0193368)
(4.2 0 -0.0195873)
(4.25 0 -0.0198377)
(4.3 0 -0.0200879)
(4.35 0 -0.0203378)
(4.4 0 -0.0205878)
(4.45 0 -0.0208376)
(4.5 0 -0.0210874)
(4.55 0 -0.0213372)
(4.6 0 -0.021587)
(4.65 0 -0.0218368)
(4.7 0 -0.0220866)
(4.75 0 -0.0223364)
(4.8 0 -0.0225863)
(4.85 0 -0.0228361)
(4.9 0 -0.023086)
(4.95 0 -0.0233359)
(5 0 -0.0235858)
(5.05 0 -0.0238357)
(5.1 0 -0.0240856)
(5.15 0 -0.0243356)
(5.2 0 -0.0245856)
(5.25 0 -0.0248355)
(5.3 0 -0.0250855)
(5.35 0 -0.0253355)
(5.4 0 -0.0255855)
(5.45 0 -0.0258354)
(5.5 0 -0.0260854)
(5.55 0 -0.0263354)
(5.6 0 -0.0265854)
(5.65 0 -0.0268354)
(5.7 0 -0.0270855)
(5.75 0 -0.0273355)
(5.8 0 -0.0275855)
(5.85 0 -0.0278355)
(5.9 0 -0.0280855)
(5.95 0 -0.0283355)
(6 0 -0.0285855)
(6.05 0 -0.0288354)
(6.1 0 -0.0290854)
(6.15 0 -0.0293354)
(6.2 0 -0.0295854)
(6.25 0 -0.0298354)
(6.3 0 -0.0300854)
(6.35 0 -0.0303355)
(6.4 0 -0.0305855)
(6.45 0 -0.0308355)
(6.5 0 -0.0310855)
(6.55 0 -0.0313356)
(6.6 0 -0.0315855)
(6.65 0 -0.0318356)
(6.7 0 -0.0320855)
(6.75 0 -0.0323355)
(6.8 0 -0.0325854)
(6.85 0 -0.0328355)
(6.9 0 -0.0330854)
(6.95 0 -0.0333354)
(7 0 -0.0335855)
(7.05 0 -0.0338352)
(7.1 0 -0.0340856)
(7.15 0 -0.0343351)
(7.2 0 -0.0345857)
(7.25 0 -0.0348351)
(7.3 0 -0.0350859)
(7.35 0 -0.035335)
(7.4 0 -0.0355861)
(7.45 0 -0.0358348)
(7.5 0 -0.0360863)
(7.55 0 -0.0363345)
(7.6 0 -0.0365864)
(7.65 0 -0.0368342)
(7.7 0 -0.0370867)
(7.75 0 -0.0373338)
(7.8 0 -0.0375869)
(7.85 0 -0.0378333)
(7.9 0 -0.0380871)
(7.95 0 -0.0383328)
(8 0 -0.0385874)
(8.05 0 -0.0388322)
(8.1 0 -0.0390877)
(8.15 0 -0.0393315)
(8.2 0 -0.039588)
(8.25 0 -0.0398307)
(8.3 0 -0.0400883)
(8.35 0 -0.0403299)
(8.4 0 -0.0405886)
(8.45 0 -0.040829)
(8.5 0 -0.0410889)
(8.55 0 -0.0413282)
(8.6 0 -0.0415892)
(8.65 0 -0.0418273)
(8.7 0 -0.0420894)
(8.75 0 -0.0423263)
(8.8 0 -0.0425895)
(8.85 0 -0.0428253)
(8.9 0 -0.0430896)
(8.95 0 -0.0433245)
(9 0 -0.0435897)
(9.05 0 -0.0438237)
(9.1 0 -0.0440897)
(9.15 0 -0.044323)
(9.2 0 -0.0445897)
(9.25 0 -0.0448224)
(9.3 0 -0.0450897)
(9.35 0 -0.0453219)
(9.4 0 -0.0455896)
(9.45 0 -0.0458215)
(9.5 0 -0.0460895)
(9.55 0 -0.0463212)
(9.6 0 -0.0465894)
(9.65 0 -0.0468211)
(9.7 0 -0.0470892)
(9.75 0 -0.0473209)
(9.8 0 -0.0475889)
(9.85 0 -0.0478208)
(9.9 0 -0.0480886)
(9.95 0 -0.0483209)
(10 0 -0.0485883)
(10.05 0 -0.0488212)
(10.1 0 -0.049088)
(10.15 0 -0.0493215)
(10.2 0 -0.0495877)
(10.25 0 -0.0498219)
(10.3 0 -0.0500872)
(10.35 0 -0.0503222)
(10.4 0 -0.0505868)
(10.45 0 -0.0508227)
(10.5 0 -0.0510863)
(10.55 0 -0.0513232)
(10.6 0 -0.0515859)
(10.65 0 -0.0518238)
(10.7 0 -0.0520856)
(10.75 0 -0.0523244)
(10.8 0 -0.0525851)
(10.85 0 -0.0528249)
(10.9 0 -0.0530847)
(10.95 0 -0.0533255)
(11 0 -0.0535844)
(11.05 0 -0.0538261)
(11.1 0 -0.0540841)
(11.15 0 -0.0543268)
(11.2 0 -0.0545838)
(11.25 0 -0.0548273)
(11.3 0 -0.0550835)
(11.35 0 -0.0553279)
(11.4 0 -0.0555833)
(11.45 0 -0.0558285)
(11.5 0 -0.0560832)
(11.55 0 -0.056329)
(11.6 0 -0.056583)
(11.65 0 -0.0568294)
(11.7 0 -0.0570829)
(11.75 0 -0.0573299)
(11.8 0 -0.0575828)
(11.85 0 -0.0578304)
(11.9 0 -0.0580828)
(11.95 0 -0.0583307)
(12 0 -0.0585828)
(12.05 0 -0.0588311)
(12.1 0 -0.0590828)
(12.15 0 -0.0593314)
(12.2 0 -0.0595828)
(12.25 0 -0.0598318)
(12.3 0 -0.0600829)
(12.35 0 -0.0603321)
(12.4 0 -0.0605829)
(12.45 0 -0.0608323)
(12.5 0 -0.0610829)
(12.55 0 -0.0613324)
(12.6 0 -0.061583)
(12.65 0 -0.0618326)
(12.7 0 -0.0620831)
(12.75 0 -0.0623329)
(12.8 0 -0.0625831)
(12.85 0 -0.0628329)
(12.9 0 -0.0630831)
(12.95 0 -0.0633329)
(13 0 -0.0635831)
(13.05 0 -0.0638331)
(13.1 0 -0.0640833)
(13.15 0 -0.0643331)
(13.2 0 -0.0645833)
(13.25 0 -0.0648331)
(13.3 0 -0.0650832)
(13.35 0 -0.0653331)
(13.4 0 -0.0655832)
(13.45 0 -0.0658331)
(13.5 0 -0.0660834)
(13.55 0 -0.0663333)
(13.6 0 -0.0665833)
(13.65 0 -0.0668332)
(13.7 0 -0.0670832)
(13.75 0 -0.067333)
(13.8 0 -0.0675832)
(13.85 0 -0.0678329)
(13.9 0 -0.0680834)
(13.95 0 -0.0683328)
(14 0 -0.0685831)
(14.05 0 -0.068833)
(14.1 0 -0.0690828)
(14.15 0 -0.0693328)
(14.2 0 -0.0695825)
(14.25 0 -0.0698335)
(14.3 0 -0.07008)
(14.35 0 -0.0703324)
(14.4 0 -0.0705847)
(14.45 0 -0.0708318)
(14.5 0 -0.0710894)
(14.55 0 -0.0713133)
(14.6 0 -0.0716352)
(14.65 0 -0.0717897)
(14.7 0 -0.0721106)
(14.75 0 -0.0723235)
(14.8 0 -0.0726468)
(14.85 0 -0.07425)
(14.9 0 -0.0745)
(14.95 0 -0.07475)
(15 0 -0.075)
(0 0.02 0)
(0.05 0.02 -0.00025)
(0.1 0.02 -0.0005)
(0.15 0.02 -0.00075)
(0.2 0.02 -0.001)
(0.25 0.02 -0.00125)
(0.3 0.02 -0.0015)
(0.35 0.02 -0.00175)
(0.4 0.02 -0.002)
(0.45 0.02 -0.00225)
(0.5 0.02 -0.0025)
(0.55 0.02 -0.00275)
(0.6 0.02 -0.003)
(0.65 0.02 -0.00325)
(0.7 0.02 -0.0035)
(0.75 0.02 -0.00375)
(0.8 0.02 -0.004)
(0.85 0.02 -0.00425)
(0.9 0.02 -0.0045)
(0.95 0.02 -0.00475)
(1 0.02 -0.005)
(1.05 0.02 -0.00525)
(1.1 0.02 -0.0055)
(1.15 0.02 -0.00575)
(1.2 0.02 -0.006)
(1.25 0.02 -0.00625)
(1.3 0.02 -0.0065)
(1.35 0.02 -0.00675)
(1.4 0.02 -0.007)
(1.45 0.02 -0.00725)
(1.5 0.02 -0.0075)
(1.55 0.02 -0.00775)
(1.6 0.02 -0.008)
(1.65 0.02 -0.00825)
(1.7 0.02 -0.0085)
(1.75 0.02 -0.00875)
(1.8 0.02 -0.009)
(1.85 0.02 -0.00925)
(1.9 0.02 -0.0095)
(1.95 0.02 -0.00975)
(2 0.02 -0.01)
(2.05 0.02 -0.01025)
(2.1 0.02 -0.0105)
(2.15 0.02 -0.01075)
(2.2 0.02 -0.011)
(2.25 0.02 -0.01125)
(2.3 0.02 -0.0115)
(2.35 0.02 -0.01175)
(2.4 0.02 -0.012)
(2.45 0.02 -0.01225)
(2.5 0.02 -0.0125)
(2.55 0.02 -0.01275)
(2.6 0.02 -0.013)
(2.65 0.02 -0.01325)
(2.7 0.02 -0.0135)
(2.75 0.02 -0.01375)
(2.8 0.02 -0.014)
(2.85 0.02 -0.01425)
(2.9 0.02 -0.0145)
(2.95 0.02 -0.01475)
(3 0.02 -0.0136888)
(3.05 0.02 -0.0131491)
(3.1 0.02 -0.0138807)
(3.15 0.02 -0.0140851)
(3.2 0.02 -0.014335)
(3.25 0.02 -0.0146053)
(3.3 0.02 -0.0148919)
(3.35 0.02 -0.0151785)
(3.4 0.02 -0.0154582)
(3.45 0.02 -0.0157329)
(3.5 0.02 -0.0160027)
(3.55 0.02 -0.0162702)
(3.6 0.02 -0.0165345)
(3.65 0.02 -0.0167966)
(3.7 0.02 -0.0170563)
(3.75 0.02 -0.0173143)
(3.8 0.02 -0.0175704)
(3.85 0.02 -0.0178252)
(3.9 0.02 -0.0180787)
(3.95 0.02 -0.0183314)
(4 0.02 -0.0185834)
(4.05 0.02 -0.0188349)
(4.1 0.02 -0.019086)
(4.15 0.02 -0.0193368)
(4.2 0.02 -0.0195873)
(4.25 0.02 -0.0198377)
(4.3 0.02 -0.0200879)
(4.35 0.02 -0.0203378)
(4.4 0.02 -0.0205878)
(4.45 0.02 -0.0208376)
(4.5 0.02 -0.0210874)
(4.55 0.02 -0.0213372)
(4.6 0.02 -0.021587)
(4.65 0.02 -0.0218368)
(4.7 0.02 -0.0220866)
(4.75 0.02 -0.0223364)
(4.8 0.02 -0.0225863)
(4.85 0.02 -0.0228361)
(4.9 0.02 -0.023086)
(4.95 0.02 -0.0233359)
(5 0.02 -0.0235858)
(5.05 0.02 -0.0238357)
(5.1 0.02 -0.0240856)
(5.15 0.02 -0.0243356)
(5.2 0.02 -0.0245856)
(5.25 0.02 -0.0248355)
(5.3 0.02 -0.0250855)
(5.35 0.02 -0.0253355)
(5.4 0.02 -0.0255855)
(5.45 0.02 -0.0258354)
(5.5 0.02 -0.0260854)
(5.55 0.02 -0.0263354)
(5.6 0.02 -0.0265854)
(5.65 0.02 -0.0268354)
(5.7 0.02 -0.0270855)
(5.75 0.02 -0.0273355)
(5.8 0.02 -0.0275855)
(5.85 0.02 -0.0278355)
(5.9 0.02 -0.0280855)
(5.95 0.02 -0.0283355)
(6 0.02 -0.0285855)
(6.05 0.02 -0.0288354)
(6.1 0.02 -0.0290854)
(6.15 0.02 -0.0293354)
(6.2 0.02 -0.0295854)
(6.25 0.02 -0.0298354)
(6.3 0.02 -0.0300854)
(6.35 0.02 -0.0303355)
(6.4 0.02 -0.0305855)
(6.45 0.02 -0.0308355)
(6.5 0.02 -0.0310855)
(6.55 0.02 -0.0313356)
(6.6 0.02 -0.0315855)
(6.65 0.02 -0.0318356)
(6.7 0.02 -0.0320855)
(6.75 0.02 -0.0323355)
(6.8 0.02 -0.0325854)
(6.85 0.02 -0.0328355)
(6.9 0.02 -0.0330854)
(6.95 0.02 -0.0333354)
(7 0.02 -0.0335855)
(7.05 0.02 -0.0338352)
(7.1 0.02 -0.0340856)
(7.15 0.02 -0.0343351)
(7.2 0.02 -0.0345857)
(7.25 0.02 -0.0348351)
(7.3 0.02 -0.0350859)
(7.35 0.02 -0.035335)
(7.4 0.02 -0.0355861)
(7.45 0.02 -0.0358348)
(7.5 0.02 -0.0360863)
(7.55 0.02 -0.0363345)
(7.6 0.02 -0.0365864)
(7.65 0.02 -0.0368342)
(7.7 0.02 -0.0370867)
(7.75 0.02 -0.0373338)
(7.8 0.02 -0.0375869)
(7.85 0.02 -0.0378333)
(7.9 0.02 -0.0380871)
(7.95 0.02 -0.0383328)
(8 0.02 -0.0385874)
(8.05 0.02 -0.0388322)
(8.1 0.02 -0.0390877)
(8.15 0.02 -0.0393315)
(8.2 0.02 -0.039588)
(8.25 0.02 -0.0398307)
(8.3 0.02 -0.0400883)
(8.35 0.02 -0.0403299)
(8.4 0.02 -0.0405886)
(8.45 0.02 -0.040829)
(8.5 0.02 -0.0410889)
(8.55 0.02 -0.0413282)
(8.6 0.02 -0.0415892)
(8.65 0.02 -0.0418273)
(8.7 0.02 -0.0420894)
(8.75 0.02 -0.0423263)
(8.8 0.02 -0.0425895)
(8.85 0.02 -0.0428253)
(8.9 0.02 -0.0430896)
(8.95 0.02 -0.0433245)
(9 0.02 -0.0435897)
(9.05 0.02 -0.0438237)
(9.1 0.02 -0.0440897)
(9.15 0.02 -0.044323)
(9.2 0.02 -0.0445897)
(9.25 0.02 -0.0448224)
(9.3 0.02 -0.0450897)
(9.35 0.02 -0.0453219)
(9.4 0.02 -0.0455896)
(9.45 0.02 -0.0458215)
(9.5 0.02 -0.0460895)
(9.55 0.02 -0.0463212)
(9.6 0.02 -0.0465894)
(9.65 0.02 -0.0468211)
(9.7 0.02 -0.0470892)
(9.75 0.02 -0.0473209)
(9.8 0.02 -0.0475889)
(9.85 0.02 -0.0478208)
(9.9 0.02 -0.0480886)
(9.95 0.02 -0.0483209)
(10 0.02 -0.0485883)
(10.05 0.02 -0.0488212)
(10.1 0.02 -0.049088)
(10.15 0.02 -0.0493215)
(10.2 0.02 -0.0495877)
(10.25 0.02 -0.0498219)
(10.3 0.02 -0.0500872)
(10.35 0.02 -0.0503222)
(10.4 0.02 -0.0505868)
(10.45 0.02 -0.0508227)
(10.5 0.02 -0.0510863)
(10.55 0.02 -0.0513232)
(10.6 0.02 -0.0515859)
(10.65 0.02 -0.0518238)
(10.7 0.02 -0.0520856)
(10.75 0.02 -0.0523244)
(10.8 0.02 -0.0525851)
(10.85 0.02 -0.0528249)
(10.9 0.02 -0.0530847)
(10.95 0.02 -0.0533255)
(11 0.02 -0.0535844)
(11.05 0.02 -0.0538261)
(11.1 0.02 -0.0540841)
(11.15 0.02 -0.0543268)
(11.2 0.02 -0.0545838)
(11.25 0.02 -0.0548273)
(11.3 0.02 -0.0550835)
(11.35 0.02 -0.0553279)
(11.4 0.02 -0.0555833)
(11.45 0.02 -0.0558285)
(11.5 0.02 -0.0560832)
(11.55 0.02 -0.056329)
(11.6 0.02 -0.056583)
(11.65 0.02 -0.0568294)
(11.7 0.02 -0.0570829)
(11.75 0.02 -0.0573299)
(11.8 0.02 -0.0575828)
(11.85 0.02 -0.0578304)
(11.9 0.02 -0.0580828)
(11.95 0.02 -0.0583307)
(12 0.02 -0.0585828)
(12.05 0.02 -0.0588311)
(12.1 0.02 -0.0590828)
(12.15 0.02 -0.0593314)
(12.2 0.02 -0.0595828)
(12.25 0.02 -0.0598318)
(12.3 0.02 -0.0600829)
(12.35 0.02 -0.0603321)
(12.4 0.02 -0.0605829)
(12.45 0.02 -0.0608323)
(12.5 0.02 -0.0610829)
(12.55 0.02 -0.0613324)
(12.6 0.02 -0.061583)
(12.65 0.02 -0.0618326)
(12.7 0.02 -0.0620831)
(12.75 0.02 -0.0623329)
(12.8 0.02 -0.0625831)
(12.85 0.02 -0.0628329)
(12.9 0.02 -0.0630831)
(12.95 0.02 -0.0633329)
(13 0.02 -0.0635831)
(13.05 0.02 -0.0638331)
(13.1 0.02 -0.0640833)
(13.15 0.02 -0.0643331)
(13.2 0.02 -0.0645833)
(13.25 0.02 -0.0648331)
(13.3 0.02 -0.0650832)
(13.35 0.02 -0.0653331)
(13.4 0.02 -0.0655832)
(13.45 0.02 -0.0658331)
(13.5 0.02 -0.0660834)
(13.55 0.02 -0.0663333)
(13.6 0.02 -0.0665833)
(13.65 0.02 -0.0668332)
(13.7 0.02 -0.0670832)
(13.75 0.02 -0.067333)
(13.8 0.02 -0.0675832)
(13.85 0.02 -0.0678329)
(13.9 0.02 -0.0680834)
(13.95 0.02 -0.0683328)
(14 0.02 -0.0685831)
(14.05 0.02 -0.068833)
(14.1 0.02 -0.0690828)
(14.15 0.02 -0.0693328)
(14.2 0.02 -0.0695825)
(14.25 0.02 -0.0698335)
(14.3 0.02 -0.07008)
(14.35 0.02 -0.0703324)
(14.4 0.02 -0.0705847)
(14.45 0.02 -0.0708318)
(14.5 0.02 -0.0710894)
(14.55 0.02 -0.0713133)
(14.6 0.02 -0.0716352)
(14.65 0.02 -0.0717897)
(14.7 0.02 -0.0721106)
(14.75 0.02 -0.0723235)
(14.8 0.02 -0.0726468)
(14.85 0.02 -0.07425)
(14.9 0.02 -0.0745)
(14.95 0.02 -0.07475)
(15 0.02 -0.075)
(0 0 0.00375)
(0.05 0 0.0035)
(0.1 0 0.00325)
(0.15 0 0.003)
(0.2 0 0.00275)
(0.25 0 0.0025)
(0.3 0 0.00225)
(0.35 0 0.002)
(0.4 0 0.00175)
(0.45 0 0.0015)
(0.5 0 0.00125)
(0.55 0 0.001)
(0.6 0 0.00075)
(0.65 0 0.0005)
(0.7 0 0.00025)
(0.75 0 1.4456e-19)
(0.8 0 -0.00025)
(0.85 0 -0.0005)
(0.9 0 -0.00075)
(0.95 0 -0.001)
(1 0 -0.00125)
(1.05 0 -0.0015)
(1.1 0 -0.00175)
(1.15 0 -0.002)
(1.2 0 -0.00225)
(1.25 0 -0.0025)
(1.3 0 -0.00275)
(1.35 0 -0.003)
(1.4 0 -0.00325)
(1.45 0 -0.0035)
(1.5 0 -0.00375)
(1.55 0 -0.004)
(1.6 0 -0.00425)
(1.65 0 -0.0045)
(1.7 0 -0.00475)
(1.75 0 -0.005)
(1.8 0 -0.00525)
(1.85 0 -0.0055)
(1.9 0 -0.00575)
(1.95 0 -0.006)
(2 0 -0.00625)
(2.05 0 -0.0065)
(2.1 0 -0.00675)
(2.15 0 -0.007)
(2.2 0 -0.00725)
(2.25 0 -0.0075)
(2.3 0 -0.00775)
(2.35 0 -0.008)
(2.4 0 -0.00825)
(2.45 0 -0.0085)
(2.5 0 -0.00875)
(2.55 0 -0.009)
(2.6 0 -0.00925)
(2.65 0 -0.0095)
(2.7 0 -0.00975)
(2.75 0 -0.01)
(2.8 0 -0.01025)
(2.85 0 -0.0104999)
(2.9 0 -0.0107507)
(2.95 0 -0.0109912)
(3 0 -0.00994363)
(3.05 0 -0.00941014)
(3.1 0 -0.0101292)
(3.15 0 -0.0103383)
(3.2 0 -0.0105877)
(3.25 0 -0.010858)
(3.3 0 -0.0111445)
(3.35 0 -0.011431)
(3.4 0 -0.0117106)
(3.45 0 -0.0119853)
(3.5 0 -0.0122551)
(3.55 0 -0.0125225)
(3.6 0 -0.0127868)
(3.65 0 -0.0130489)
(3.7 0 -0.0133086)
(3.75 0 -0.0135666)
(3.8 0 -0.0138226)
(3.85 0 -0.0140774)
(3.9 0 -0.0143309)
(3.95 0 -0.0145836)
(4 0 -0.0148356)
(4.05 0 -0.0150871)
(4.1 0 -0.0153382)
(4.15 0 -0.0155891)
(4.2 0 -0.0158395)
(4.25 0 -0.0160899)
(4.3 0 -0.0163401)
(4.35 0 -0.0165901)
(4.4 0 -0.01684)
(4.45 0 -0.0170898)
(4.5 0 -0.0173397)
(4.55 0 -0.0175894)
(4.6 0 -0.0178393)
(4.65 0 -0.0180891)
(4.7 0 -0.0183389)
(4.75 0 -0.0185886)
(4.8 0 -0.0188385)
(4.85 0 -0.0190884)
(4.9 0 -0.0193383)
(4.95 0 -0.0195881)
(5 0 -0.019838)
(5.05 0 -0.0200879)
(5.1 0 -0.0203378)
(5.15 0 -0.0205878)
(5.2 0 -0.0208378)
(5.25 0 -0.0210878)
(5.3 0 -0.0213377)
(5.35 0 -0.0215877)
(5.4 0 -0.0218377)
(5.45 0 -0.0220877)
(5.5 0 -0.0223376)
(5.55 0 -0.0225876)
(5.6 0 -0.0228377)
(5.65 0 -0.0230877)
(5.7 0 -0.0233377)
(5.75 0 -0.0235877)
(5.8 0 -0.0238377)
(5.85 0 -0.0240877)
(5.9 0 -0.0243377)
(5.95 0 -0.0245877)
(6 0 -0.0248377)
(6.05 0 -0.0250877)
(6.1 0 -0.0253377)
(6.15 0 -0.0255876)
(6.2 0 -0.0258376)
(6.25 0 -0.0260877)
(6.3 0 -0.0263377)
(6.35 0 -0.0265877)
(6.4 0 -0.0268377)
(6.45 0 -0.0270878)
(6.5 0 -0.0273377)
(6.55 0 -0.0275878)
(6.6 0 -0.0278377)
(6.65 0 -0.0280878)
(6.7 0 -0.0283377)
(6.75 0 -0.0285878)
(6.8 0 -0.0288376)
(6.85 0 -0.0290877)
(6.9 0 -0.0293376)
(6.95 0 -0.0295876)
(7 0 -0.0298377)
(7.05 0 -0.0300875)
(7.1 0 -0.0303378)
(7.15 0 -0.0305874)
(7.2 0 -0.030838)
(7.25 0 -0.0310874)
(7.3 0 -0.0313381)
(7.35 0 -0.0315872)
(7.4 0 -0.0318383)
(7.45 0 -0.0320871)
(7.5 0 -0.0323385)
(7.55 0 -0.0325868)
(7.6 0 -0.0328387)
(7.65 0 -0.0330865)
(7.7 0 -0.0333389)
(7.75 0 -0.0335861)
(7.8 0 -0.0338391)
(7.85 0 -0.0340856)
(7.9 0 -0.0343393)
(7.95 0 -0.0345851)
(8 0 -0.0348396)
(8.05 0 -0.0350845)
(8.1 0 -0.0353398)
(8.15 0 -0.0355838)
(8.2 0 -0.0358401)
(8.25 0 -0.0360831)
(8.3 0 -0.0363404)
(8.35 0 -0.0365823)
(8.4 0 -0.0368407)
(8.45 0 -0.0370814)
(8.5 0 -0.037341)
(8.55 0 -0.0375806)
(8.6 0 -0.0378413)
(8.65 0 -0.0380797)
(8.7 0 -0.0383414)
(8.75 0 -0.0385787)
(8.8 0 -0.0388415)
(8.85 0 -0.0390778)
(8.9 0 -0.0393416)
(8.95 0 -0.039577)
(9 0 -0.0398417)
(9.05 0 -0.0400762)
(9.1 0 -0.0403417)
(9.15 0 -0.0405755)
(9.2 0 -0.0408417)
(9.25 0 -0.0410749)
(9.3 0 -0.0413417)
(9.35 0 -0.0415744)
(9.4 0 -0.0418416)
(9.45 0 -0.0420741)
(9.5 0 -0.0423415)
(9.55 0 -0.0425738)
(9.6 0 -0.0428414)
(9.65 0 -0.0430736)
(9.7 0 -0.0433411)
(9.75 0 -0.0435734)
(9.8 0 -0.0438409)
(9.85 0 -0.0440734)
(9.9 0 -0.0443406)
(9.95 0 -0.0445735)
(10 0 -0.0448403)
(10.05 0 -0.0450737)
(10.1 0 -0.04534)
(10.15 0 -0.045574)
(10.2 0 -0.0458397)
(10.25 0 -0.0460744)
(10.3 0 -0.0463392)
(10.35 0 -0.0465747)
(10.4 0 -0.0468388)
(10.45 0 -0.0470751)
(10.5 0 -0.0473384)
(10.55 0 -0.0475756)
(10.6 0 -0.047838)
(10.65 0 -0.0480762)
(10.7 0 -0.0483376)
(10.75 0 -0.0485768)
(10.8 0 -0.0488372)
(10.85 0 -0.0490773)
(10.9 0 -0.0493368)
(10.95 0 -0.0495779)
(11 0 -0.0498365)
(11.05 0 -0.0500785)
(11.1 0 -0.0503363)
(11.15 0 -0.0505791)
(11.2 0 -0.050836)
(11.25 0 -0.0510797)
(11.3 0 -0.0513357)
(11.35 0 -0.0515802)
(11.4 0 -0.0518355)
(11.45 0 -0.0520808)
(11.5 0 -0.0523354)
(11.55 0 -0.0525813)
(11.6 0 -0.0528352)
(11.65 0 -0.0530817)
(11.7 0 -0.0533351)
(11.75 0 -0.0535821)
(11.8 0 -0.053835)
(11.85 0 -0.0540826)
(11.9 0 -0.054335)
(11.95 0 -0.054583)
(12 0 -0.054835)
(12.05 0 -0.0550833)
(12.1 0 -0.055335)
(12.15 0 -0.0555837)
(12.2 0 -0.055835)
(12.25 0 -0.056084)
(12.3 0 -0.0563351)
(12.35 0 -0.0565843)
(12.4 0 -0.0568352)
(12.45 0 -0.0570845)
(12.5 0 -0.0573352)
(12.55 0 -0.0575847)
(12.6 0 -0.0578352)
(12.65 0 -0.0580849)
(12.7 0 -0.0583353)
(12.75 0 -0.0585851)
(12.8 0 -0.0588354)
(12.85 0 -0.0590851)
(12.9 0 -0.0593353)
(12.95 0 -0.0595851)
(13 0 -0.0598354)
(13.05 0 -0.0600853)
(13.1 0 -0.0603355)
(13.15 0 -0.0605854)
(13.2 0 -0.0608355)
(13.25 0 -0.0610854)
(13.3 0 -0.0613355)
(13.35 0 -0.0615853)
(13.4 0 -0.0618355)
(13.45 0 -0.0620854)
(13.5 0 -0.0623356)
(13.55 0 -0.0625855)
(13.6 0 -0.0628356)
(13.65 0 -0.0630855)
(13.7 0 -0.0633355)
(13.75 0 -0.0635853)
(13.8 0 -0.0638355)
(13.85 0 -0.0640852)
(13.9 0 -0.0643356)
(13.95 0 -0.0645851)
(14 0 -0.0648353)
(14.05 0 -0.0650852)
(14.1 0 -0.065335)
(14.15 0 -0.0655851)
(14.2 0 -0.0658348)
(14.25 0 -0.0660857)
(14.3 0 -0.0663323)
(14.35 0 -0.0665847)
(14.4 0 -0.0668369)
(14.45 0 -0.0670841)
(14.5 0 -0.0673413)
(14.55 0 -0.0675663)
(14.6 0 -0.0678862)
(14.65 0 -0.0680432)
(14.7 0 -0.068362)
(14.75 0 -0.0685759)
(14.8 0 -0.0689065)
(14.85 0 -0.0704899)
(14.9 0 -0.0707508)
(14.95 0 -0.0709999)
(15 0 -0.07125)
(0 0.02 0.00375)
(0.05 0.02 0.0035)
(0.1 0.02 0.00325)
(0.15 0.02 0.003)
(0.2 0.02 0.00275)
(0.25 0.02 0.0025)
(0.3 0.02 0.00225)
(0.35 0.02 0.002)
(0.4 0.02 0.00175)
(0.45 0.02 0.0015)
(0.5 0.02 0.00125)
(0.55 0.02 0.001)
(0.6 0.02 0.00075)
(0.65 0.02 0.0005)
(0.7 0.02 0.00025)
(0.75 0.02 1.4456e-19)
(0.8 0.02 -0.00025)
(0.85 0.02 -0.0005)
(0.9 0.02 -0.00075)
(0.95 0.02 -0.001)
(1 0.02 -0.00125)
(1.05 0.02 -0.0015)
(1.1 0.02 -0.00175)
(1.15 0.02 -0.002)
(1.2 0.02 -0.00225)
(1.25 0.02 -0.0025)
(1.3 0.02 -0.00275)
(1.35 0.02 -0.003)
(1.4 0.02 -0.00325)
(1.45 0.02 -0.0035)
(1.5 0.02 -0.00375)
(1.55 0.02 -0.004)
(1.6 0.02 -0.00425)
(1.65 0.02 -0.0045)
(1.7 0.02 -0.00475)
(1.75 0.02 -0.005)
(1.8 0.02 -0.00525)
(1.85 0.02 -0.0055)
(1.9 0.02 -0.00575)
(1.95 0.02 -0.006)
(2 0.02 -0.00625)
(2.05 0.02 -0.0065)
(2.1 0.02 -0.00675)
(2.15 0.02 -0.007)
(2.2 0.02 -0.00725)
(2.25 0.02 -0.0075)
(2.3 0.02 -0.00775)
(2.35 0.02 -0.008)
(2.4 0.02 -0.00825)
(2.45 0.02 -0.0085)
(2.5 0.02 -0.00875)
(2.55 0.02 -0.009)
(2.6 0.02 -0.00925)
(2.65 0.02 -0.0095)
(2.7 0.02 -0.00975)
(2.75 0.02 -0.01)
(2.8 0.02 -0.01025)
(2.85 0.02 -0.0104999)
(2.9 0.02 -0.0107507)
(2.95 0.02 -0.0109912)
(3 0.02 -0.00994363)
(3.05 0.02 -0.00941014)
(3.1 0.02 -0.0101292)
(3.15 0.02 -0.0103383)
(3.2 0.02 -0.0105877)
(3.25 0.02 -0.010858)
(3.3 0.02 -0.0111445)
(3.35 0.02 -0.011431)
(3.4 0.02 -0.0117106)
(3.45 0.02 -0.0119853)
(3.5 0.02 -0.0122551)
(3.55 0.02 -0.0125225)
(3.6 0.02 -0.0127868)
(3.65 0.02 -0.0130489)
(3.7 0.02 -0.0133086)
(3.75 0.02 -0.0135666)
(3.8 0.02 -0.0138226)
(3.85 0.02 -0.0140774)
(3.9 0.02 -0.0143309)
(3.95 0.02 -0.0145836)
(4 0.02 -0.0148356)
(4.05 0.02 -0.0150871)
(4.1 0.02 -0.0153382)
(4.15 0.02 -0.0155891)
(4.2 0.02 -0.0158395)
(4.25 0.02 -0.0160899)
(4.3 0.02 -0.0163401)
(4.35 0.02 -0.0165901)
(4.4 0.02 -0.01684)
(4.45 0.02 -0.0170898)
(4.5 0.02 -0.0173397)
(4.55 0.02 -0.0175894)
(4.6 0.02 -0.0178393)
(4.65 0.02 -0.0180891)
(4.7 0.02 -0.0183389)
(4.75 0.02 -0.0185886)
(4.8 0.02 -0.0188385)
(4.85 0.02 -0.0190884)
(4.9 0.02 -0.0193383)
(4.95 0.02 -0.0195881)
(5 0.02 -0.019838)
(5.05 0.02 -0.0200879)
(5.1 0.02 -0.0203378)
(5.15 0.02 -0.0205878)
(5.2 0.02 -0.0208378)
(5.25 0.02 -0.0210878)
(5.3 0.02 -0.0213377)
(5.35 0.02 -0.0215877)
(5.4 0.02 -0.0218377)
(5.45 0.02 -0.0220877)
(5.5 0.02 -0.0223376)
(5.55 0.02 -0.0225876)
(5.6 0.02 -0.0228377)
(5.65 0.02 -0.0230877)
(5.7 0.02 -0.0233377)
(5.75 0.02 -0.0235877)
(5.8 0.02 -0.0238377)
(5.85 0.02 -0.0240877)
(5.9 0.02 -0.0243377)
(5.95 0.02 -0.0245877)
(6 0.02 -0.0248377)
(6.05 0.02 -0.0250877)
(6.1 0.02 -0.0253377)
(6.15 0.02 -0.0255876)
(6.2 0.02 -0.0258376)
(6.25 0.02 -0.0260877)
(6.3 0.02 -0.0263377)
(6.35 0.02 -0.0265877)
(6.4 0.02 -0.0268377)
(6.45 0.02 -0.0270878)
(6.5 0.02 -0.0273377)
(6.55 0.02 -0.0275878)
(6.6 0.02 -0.0278377)
(6.65 0.02 -0.0280878)
(6.7 0.02 -0.0283377)
(6.75 0.02 -0.0285878)
(6.8 0.02 -0.0288376)
(6.85 0.02 -0.0290877)
(6.9 0.02 -0.0293376)
(6.95 0.02 -0.0295876)
(7 0.02 -0.0298377)
(7.05 0.02 -0.0300875)
(7.1 0.02 -0.0303378)
(7.15 0.02 -0.0305874)
(7.2 0.02 -0.030838)
(7.25 0.02 -0.0310874)
(7.3 0.02 -0.0313381)
(7.35 0.02 -0.0315872)
(7.4 0.02 -0.0318383)
(7.45 0.02 -0.0320871)
(7.5 0.02 -0.0323385)
(7.55 0.02 -0.0325868)
(7.6 0.02 -0.0328387)
(7.65 0.02 -0.0330865)
(7.7 0.02 -0.0333389)
(7.75 0.02 -0.0335861)
(7.8 0.02 -0.0338391)
(7.85 0.02 -0.0340856)
(7.9 0.02 -0.0343393)
(7.95 0.02 -0.0345851)
(8 0.02 -0.0348396)
(8.05 0.02 -0.0350845)
(8.1 0.02 -0.0353398)
(8.15 0.02 -0.0355838)
(8.2 0.02 -0.0358401)
(8.25 0.02 -0.0360831)
(8.3 0.02 -0.0363404)
(8.35 0.02 -0.0365823)
(8.4 0.02 -0.0368407)
(8.45 0.02 -0.0370814)
(8.5 0.02 -0.037341)
(8.55 0.02 -0.0375806)
(8.6 0.02 -0.0378413)
(8.65 0.02 -0.0380797)
(8.7 0.02 -0.0383414)
(8.75 0.02 -0.0385787)
(8.8 0.02 -0.0388415)
(8.85 0.02 -0.0390778)
(8.9 0.02 -0.0393416)
(8.95 0.02 -0.039577)
(9 0.02 -0.0398417)
(9.05 0.02 -0.0400762)
(9.1 0.02 -0.0403417)
(9.15 0.02 -0.0405755)
(9.2 0.02 -0.0408417)
(9.25 0.02 -0.0410749)
(9.3 0.02 -0.0413417)
(9.35 0.02 -0.0415744)
(9.4 0.02 -0.0418416)
(9.45 0.02 -0.0420741)
(9.5 0.02 -0.0423415)
(9.55 0.02 -0.0425738)
(9.6 0.02 -0.0428414)
(9.65 0.02 -0.0430736)
(9.7 0.02 -0.0433411)
(9.75 0.02 -0.0435734)
(9.8 0.02 -0.0438409)
(9.85 0.02 -0.0440734)
(9.9 0.02 -0.0443406)
(9.95 0.02 -0.0445735)
(10 0.02 -0.0448403)
(10.05 0.02 -0.0450737)
(10.1 0.02 -0.04534)
(10.15 0.02 -0.045574)
(10.2 0.02 -0.0458397)
(10.25 0.02 -0.0460744)
(10.3 0.02 -0.0463392)
(10.35 0.02 -0.0465747)
(10.4 0.02 -0.0468388)
(10.45 0.02 -0.0470751)
(10.5 0.02 -0.0473384)
(10.55 0.02 -0.0475756)
(10.6 0.02 -0.047838)
(10.65 0.02 -0.0480762)
(10.7 0.02 -0.0483376)
(10.75 0.02 -0.0485768)
(10.8 0.02 -0.0488372)
(10.85 0.02 -0.0490773)
(10.9 0.02 -0.0493368)
(10.95 0.02 -0.0495779)
(11 0.02 -0.0498365)
(11.05 0.02 -0.0500785)
(11.1 0.02 -0.0503363)
(11.15 0.02 -0.0505791)
(11.2 0.02 -0.050836)
(11.25 0.02 -0.0510797)
(11.3 0.02 -0.0513357)
(11.35 0.02 -0.0515802)
(11.4 0.02 -0.0518355)
(11.45 0.02 -0.0520808)
(11.5 0.02 -0.0523354)
(11.55 0.02 -0.0525813)
(11.6 0.02 -0.0528352)
(11.65 0.02 -0.0530817)
(11.7 0.02 -0.0533351)
(11.75 0.02 -0.0535821)
(11.8 0.02 -0.053835)
(11.85 0.02 -0.0540826)
(11.9 0.02 -0.054335)
(11.95 0.02 -0.054583)
(12 0.02 -0.054835)
(12.05 0.02 -0.0550833)
(12.1 0.02 -0.055335)
(12.15 0.02 -0.0555837)
(12.2 0.02 -0.055835)
(12.25 0.02 -0.056084)
(12.3 0.02 -0.0563351)
(12.35 0.02 -0.0565843)
(12.4 0.02 -0.0568352)
(12.45 0.02 -0.0570845)
(12.5 0.02 -0.0573352)
(12.55 0.02 -0.0575847)
(12.6 0.02 -0.0578352)
(12.65 0.02 -0.0580849)
(12.7 0.02 -0.0583353)
(12.75 0.02 -0.0585851)
(12.8 0.02 -0.0588354)
(12.85 0.02 -0.0590851)
(12.9 0.02 -0.0593353)
(12.95 0.02 -0.0595851)
(13 0.02 -0.0598354)
(13.05 0.02 -0.0600853)
(13.1 0.02 -0.0603355)
(13.15 0.02 -0.0605854)
(13.2 0.02 -0.0608355)
(13.25 0.02 -0.0610854)
(13.3 0.02 -0.0613355)
(13.35 0.02 -0.0615853)
(13.4 0.02 -0.0618355)
(13.45 0.02 -0.0620854)
(13.5 0.02 -0.0623356)
(13.55 0.02 -0.0625855)
(13.6 0.02 -0.0628356)
(13.65 0.02 -0.0630855)
(13.7 0.02 -0.0633355)
(13.75 0.02 -0.0635853)
(13.8 0.02 -0.0638355)
(13.85 0.02 -0.0640852)
(13.9 0.02 -0.0643356)
(13.95 0.02 -0.0645851)
(14 0.02 -0.0648353)
(14.05 0.02 -0.0650852)
(14.1 0.02 -0.065335)
(14.15 0.02 -0.0655851)
(14.2 0.02 -0.0658348)
(14.25 0.02 -0.0660857)
(14.3 0.02 -0.0663323)
(14.35 0.02 -0.0665847)
(14.4 0.02 -0.0668369)
(14.45 0.02 -0.0670841)
(14.5 0.02 -0.0673413)
(14.55 0.02 -0.0675663)
(14.6 0.02 -0.0678862)
(14.65 0.02 -0.0680432)
(14.7 0.02 -0.068362)
(14.75 0.02 -0.0685759)
(14.8 0.02 -0.0689065)
(14.85 0.02 -0.0704899)
(14.9 0.02 -0.0707508)
(14.95 0.02 -0.0709999)
(15 0.02 -0.07125)
(0 0 0.0075)
(0.05 0 0.00725)
(0.1 0 0.007)
(0.15 0 0.00675)
(0.2 0 0.0065)
(0.25 0 0.00625)
(0.3 0 0.006)
(0.35 0 0.00575)
(0.4 0 0.0055)
(0.45 0 0.00525)
(0.5 0 0.005)
(0.55 0 0.00475)
(0.6 0 0.0045)
(0.65 0 0.00425)
(0.7 0 0.004)
(0.75 0 0.00375)
(0.8 0 0.0035)
(0.85 0 0.00325)
(0.9 0 0.003)
(0.95 0 0.00275)
(1 0 0.0025)
(1.05 0 0.00225)
(1.1 0 0.002)
(1.15 0 0.00175)
(1.2 0 0.0015)
(1.25 0 0.00125)
(1.3 0 0.001)
(1.35 0 0.00075)
(1.4 0 0.0005)
(1.45 0 0.00025)
(1.5 0 -5.78241e-19)
(1.55 0 -0.00025)
(1.6 0 -0.0005)
(1.65 0 -0.00075)
(1.7 0 -0.001)
(1.75 0 -0.00125)
(1.8 0 -0.0015)
(1.85 0 -0.00175)
(1.9 0 -0.002)
(1.95 0 -0.00225)
(2 0 -0.0025)
(2.05 0 -0.00275)
(2.1 0 -0.003)
(2.15 0 -0.00325)
(2.2 0 -0.0035)
(2.25 0 -0.00375)
(2.3 0 -0.004)
(2.35 0 -0.00425)
(2.4 0 -0.0045)
(2.45 0 -0.00475)
(2.5 0 -0.005)
(2.55 0 -0.00525)
(2.6 0 -0.0055)
(2.65 0 -0.00575)
(2.7 0 -0.006)
(2.75 0 -0.00625)
(2.8 0 -0.00650001)
(2.85 0 -0.00674985)
(2.9 0 -0.00700181)
(2.95 0 -0.00722837)
(3 0 -0.00621632)
(3.05 0 -0.00570196)
(3.1 0 -0.00639651)
(3.15 0 -0.00661313)
(3.2 0 -0.00686169)
(3.25 0 -0.00713169)
(3.3 0 -0.00741746)
(3.35 0 -0.00770332)
(3.4 0 -0.00798256)
(3.45 0 -0.00825687)
(3.5 0 -0.00852635)
(3.55 0 -0.00879349)
(3.6 0 -0.00905757)
(3.65 0 -0.00931952)
(3.7 0 -0.00957906)
(3.75 0 -0.0098369)
(3.8 0 -0.0100929)
(3.85 0 -0.0103476)
(3.9 0 -0.0106011)
(3.95 0 -0.0108537)
(4 0 -0.0111057)
(4.05 0 -0.0113572)
(4.1 0 -0.0116083)
(4.15 0 -0.0118591)
(4.2 0 -0.0121096)
(4.25 0 -0.0123599)
(4.3 0 -0.0126101)
(4.35 0 -0.0128601)
(4.4 0 -0.01311)
(4.45 0 -0.0133598)
(4.5 0 -0.0136097)
(4.55 0 -0.0138594)
(4.6 0 -0.0141093)
(4.65 0 -0.0143591)
(4.7 0 -0.0146089)
(4.75 0 -0.0148587)
(4.8 0 -0.0151086)
(4.85 0 -0.0153584)
(4.9 0 -0.0156083)
(4.95 0 -0.0158582)
(5 0 -0.0161081)
(5.05 0 -0.016358)
(5.1 0 -0.0166079)
(5.15 0 -0.0168579)
(5.2 0 -0.0171078)
(5.25 0 -0.0173578)
(5.3 0 -0.0176078)
(5.35 0 -0.0178578)
(5.4 0 -0.0181077)
(5.45 0 -0.0183577)
(5.5 0 -0.0186077)
(5.55 0 -0.0188576)
(5.6 0 -0.0191077)
(5.65 0 -0.0193577)
(5.7 0 -0.0196077)
(5.75 0 -0.0198577)
(5.8 0 -0.0201078)
(5.85 0 -0.0203577)
(5.9 0 -0.0206077)
(5.95 0 -0.0208577)
(6 0 -0.0211077)
(6.05 0 -0.0213577)
(6.1 0 -0.0216077)
(6.15 0 -0.0218577)
(6.2 0 -0.0221076)
(6.25 0 -0.0223577)
(6.3 0 -0.0226077)
(6.35 0 -0.0228578)
(6.4 0 -0.0231078)
(6.45 0 -0.0233578)
(6.5 0 -0.0236078)
(6.55 0 -0.0238578)
(6.6 0 -0.0241078)
(6.65 0 -0.0243578)
(6.7 0 -0.0246077)
(6.75 0 -0.0248578)
(6.8 0 -0.0251077)
(6.85 0 -0.0253578)
(6.9 0 -0.0256077)
(6.95 0 -0.0258576)
(7 0 -0.0261078)
(7.05 0 -0.0263575)
(7.1 0 -0.0266078)
(7.15 0 -0.0268574)
(7.2 0 -0.027108)
(7.25 0 -0.0273574)
(7.3 0 -0.0276081)
(7.35 0 -0.0278573)
(7.4 0 -0.0281083)
(7.45 0 -0.0283571)
(7.5 0 -0.0286085)
(7.55 0 -0.0288569)
(7.6 0 -0.0291086)
(7.65 0 -0.0293566)
(7.7 0 -0.0296088)
(7.75 0 -0.0298562)
(7.8 0 -0.030109)
(7.85 0 -0.0303558)
(7.9 0 -0.0306092)
(7.95 0 -0.0308553)
(8 0 -0.0311095)
(8.05 0 -0.0313547)
(8.1 0 -0.0316097)
(8.15 0 -0.031854)
(8.2 0 -0.03211)
(8.25 0 -0.0323533)
(8.3 0 -0.0326102)
(8.35 0 -0.0328526)
(8.4 0 -0.0331105)
(8.45 0 -0.0333518)
(8.5 0 -0.0336108)
(8.55 0 -0.033851)
(8.6 0 -0.034111)
(8.65 0 -0.0343501)
(8.7 0 -0.0346111)
(8.75 0 -0.0348492)
(8.8 0 -0.0351112)
(8.85 0 -0.0353483)
(8.9 0 -0.0356113)
(8.95 0 -0.0358475)
(9 0 -0.0361113)
(9.05 0 -0.0363468)
(9.1 0 -0.0366113)
(9.15 0 -0.0368461)
(9.2 0 -0.0371113)
(9.25 0 -0.0373455)
(9.3 0 -0.0376113)
(9.35 0 -0.0378451)
(9.4 0 -0.0381112)
(9.45 0 -0.0383447)
(9.5 0 -0.0386111)
(9.55 0 -0.0388444)
(9.6 0 -0.039111)
(9.65 0 -0.0393442)
(9.7 0 -0.0396107)
(9.75 0 -0.039844)
(9.8 0 -0.0401105)
(9.85 0 -0.040344)
(9.9 0 -0.0406102)
(9.95 0 -0.0408441)
(10 0 -0.0411099)
(10.05 0 -0.0413443)
(10.1 0 -0.0416096)
(10.15 0 -0.0418446)
(10.2 0 -0.0421093)
(10.25 0 -0.042345)
(10.3 0 -0.0426089)
(10.35 0 -0.0428453)
(10.4 0 -0.0431085)
(10.45 0 -0.0433457)
(10.5 0 -0.0436081)
(10.55 0 -0.0438461)
(10.6 0 -0.0441077)
(10.65 0 -0.0443467)
(10.7 0 -0.0446074)
(10.75 0 -0.0448473)
(10.8 0 -0.045107)
(10.85 0 -0.0453477)
(10.9 0 -0.0456067)
(10.95 0 -0.0458483)
(11 0 -0.0461064)
(11.05 0 -0.0463489)
(11.1 0 -0.0466062)
(11.15 0 -0.0468495)
(11.2 0 -0.0471059)
(11.25 0 -0.04735)
(11.3 0 -0.0476056)
(11.35 0 -0.0478505)
(11.4 0 -0.0481054)
(11.45 0 -0.048351)
(11.5 0 -0.0486054)