/*--------------------------------*- C++ -*----------------------------------*\
| =========                 |                                                 |
| \\      /  F ield         | foam-extend: Open Source CFD                    |
|  \\    /   O peration     | Version:     3.2                                |
|   \\  /    A nd           | Web:         http://www.foam-extend.org         |
|    \\/     M anipulation  | For copyright notice see file Copyright         |
\*---------------------------------------------------------------------------*/
FoamFile
{
    version     2.0;
    format      ascii;
    class       pointVectorField;
    location    "2000";
    object      newPoints;
}
// * * * * * * * * * * * * * * * * * * * * * * * * * * * * * * * * * * * * * //

dimensions      [0 1 0 0 0 0 0];

internalField   nonuniform List<vector> 
602
(
(0 0 0)
(0.05 0 -0.00025)
(0.1 0 -0.0005)
(0.15 0 -0.00075)
(0.2 0 -0.001)
(0.25 0 -0.00125)
(0.3 0 -0.0015)
(0.35 0 -0.00175)
(0.4 0 -0.002)
(0.45 0 -0.00225)
(0.5 0 -0.0025)
(0.55 0 -0.00275)
(0.6 0 -0.003)
(0.65 0 -0.00325)
(0.7 0 -0.0035)
(0.75 0 -0.00375)
(0.8 0 -0.004)
(0.85 0 -0.00425)
(0.9 0 -0.0045)
(0.95 0 -0.00475)
(1 0 -0.005)
(1.05 0 -0.00525)
(1.1 0 -0.0055)
(1.15 0 -0.00575)
(1.2 0 -0.006)
(1.25 0 -0.00625)
(1.3 0 -0.0065)
(1.35 0 -0.00675)
(1.4 0 -0.007)
(1.45 0 -0.00725)
(1.5 0 -0.0075)
(1.55 0 -0.00775)
(1.6 0 -0.008)
(1.65 0 -0.00825)
(1.7 0 -0.0085)
(1.75 0 -0.00875)
(1.8 0 -0.009)
(1.85 0 -0.00925)
(1.9 0 -0.0095)
(1.95 0 -0.00975)
(2 0 -0.01)
(2.05 0 -0.01025)
(2.1 0 -0.0105)
(2.15 0 -0.01075)
(2.2 0 -0.011)
(2.25 0 -0.01125)
(2.3 0 -0.0115)
(2.35 0 -0.01175)
(2.4 0 -0.012)
(2.45 0 -0.01225)
(2.5 0 -0.0125)
(2.55 0 -0.01275)
(2.6 0 -0.013)
(2.65 0 -0.01325)
(2.7 0 -0.0135)
(2.75 0 -0.01375)
(2.8 0 -0.014)
(2.85 0 -0.01425)
(2.9 0 -0.0145)
(2.95 0 -0.01475)
(3 0 -0.0136888)
(3.05 0 -0.0131491)
(3.1 0 -0.0138807)
(3.15 0 -0.0140851)
(3.2 0 -0.014335)
(3.25 0 -0.0146053)
(3.3 0 -0.0148919)
(3.35 0 -0.0151785)
(3.4 0 -0.0154582)
(3.45 0 -0.0157329)
(3.5 0 -0.0160027)
(3.55 0 -0.0162702)
(3.6 0 -0.0165345)
(3.65 0 -0.0167966)
(3.7 0 -0.0170563)
(3.75 0 -0.0173143)
(3.8 0 -0.0175704)
(3.85 0 -0.0178252)
(3.9 0 -0.0180787)
(3.95 0 -0.0183314)
(4 0 -0.0185834)
(4.05 0 -0.0188349)
(4.1 0 -0.019086)
(4.15 0 -0.0193368)
(4.2 0 -0.0195873)
(4.25 0 -0.0198377)
(4.3 0 -0.0200879)
(4.35 0 -0.0203378)
(4.4 0 -0.0205878)
(4.45 0 -0.0208376)
(4.5 0 -0.0210874)
(4.55 0 -0.0213372)
(4.6 0 -0.021587)
(4.65 0 -0.0218368)
(4.7 0 -0.0220866)
(4.75 0 -0.0223364)
(4.8 0 -0.0225863)
(4.85 0 -0.0228361)
(4.9 0 -0.023086)
(4.95 0 -0.0233359)
(5 0 -0.0235858)
(5.05 0 -0.0238357)
(5.1 0 -0.0240856)
(5.15 0 -0.0243356)
(5.2 0 -0.0245856)
(5.25 0 -0.0248355)
(5.3 0 -0.0250855)
(5.35 0 -0.0253355)
(5.4 0 -0.0255855)
(5.45 0 -0.0258354)
(5.5 0 -0.0260854)
(5.55 0 -0.0263354)
(5.6 0 -0.0265854)
(5.65 0 -0.0268354)
(5.7 0 -0.0270855)
(5.75 0 -0.0273355)
(5.8 0 -0.0275855)
(5.85 0 -0.0278355)
(5.9 0 -0.0280855)
(5.95 0 -0.0283355)
(6 0 -0.0285855)
(6.05 0 -0.0288354)
(6.1 0 -0.0290854)
(6.15 0 -0.0293354)
(6.2 0 -0.0295854)
(6.25 0 -0.0298354)
(6.3 0 -0.0300854)
(6.35 0 -0.0303355)
(6.4 0 -0.0305855)
(6.45 0 -0.0308355)
(6.5 0 -0.0310855)
(6.55 0 -0.0313356)
(6.6 0 -0.0315855)
(6.65 0 -0.0318356)
(6.7 0 -0.0320855)
(6.75 0 -0.0323355)
(6.8 0 -0.0325854)
(6.85 0 -0.0328355)
(6.9 0 -0.0330854)
(6.95 0 -0.0333354)
(7 0 -0.0335855)
(7.05 0 -0.0338352)
(7.1 0 -0.0340856)
(7.15 0 -0.0343351)
(7.2 0 -0.0345857)
(7.25 0 -0.0348351)
(7.3 0 -0.0350859)
(7.35 0 -0.035335)
(7.4 0 -0.0355861)
(7.45 0 -0.0358348)
(7.5 0 -0.0360863)
(7.55 0 -0.0363345)
(7.6 0 -0.0365864)
(7.65 0 -0.0368342)
(7.7 0 -0.0370867)
(7.75 0 -0.0373338)
(7.8 0 -0.0375869)
(7.85 0 -0.0378333)
(7.9 0 -0.0380871)
(7.95 0 -0.0383328)
(8 0 -0.0385874)
(8.05 0 -0.0388322)
(8.1 0 -0.0390877)
(8.15 0 -0.0393315)
(8.2 0 -0.039588)
(8.25 0 -0.0398307)
(8.3 0 -0.0400883)
(8.35 0 -0.0403299)
(8.4 0 -0.0405886)
(8.45 0 -0.040829)
(8.5 0 -0.0410889)
(8.55 0 -0.0413282)
(8.6 0 -0.0415892)
(8.65 0 -0.0418273)
(8.7 0 -0.0420894)
(8.75 0 -0.0423263)
(8.8 0 -0.0425895)
(8.85 0 -0.0428253)
(8.9 0 -0.0430896)
(8.95 0 -0.0433245)
(9 0 -0.0435897)
(9.05 0 -0.0438237)
(9.1 0 -0.0440897)
(9.15 0 -0.044323)
(9.2 0 -0.0445897)
(9.25 0 -0.0448224)
(9.3 0 -0.0450897)
(9.35 0 -0.0453219)
(9.4 0 -0.0455896)
(9.45 0 -0.0458215)
(9.5 0 -0.0460895)
(9.55 0 -0.0463212)
(9.6 0 -0.0465894)
(9.65 0 -0.0468211)
(9.7 0 -0.0470892)
(9.75 0 -0.0473209)
(9.8 0 -0.0475889)
(9.85 0 -0.0478208)
(9.9 0 -0.0480886)
(9.95 0 -0.0483209)
(10 0 -0.0485883)
(10.05 0 -0.0488212)
(10.1 0 -0.049088)
(10.15 0 -0.0493215)
(10.2 0 -0.0495877)
(10.25 0 -0.0498219)
(10.3 0 -0.0500872)
(10.35 0 -0.0503222)
(10.4 0 -0.0505868)
(10.45 0 -0.0508227)
(10.5 0 -0.0510863)
(10.55 0 -0.0513232)
(10.6 0 -0.0515859)
(10.65 0 -0.0518238)
(10.7 0 -0.0520856)
(10.75 0 -0.0523244)
(10.8 0 -0.0525851)
(10.85 0 -0.0528249)
(10.9 0 -0.0530847)
(10.95 0 -0.0533255)
(11 0 -0.0535844)
(11.05 0 -0.0538261)
(11.1 0 -0.0540841)
(11.15 0 -0.0543268)
(11.2 0 -0.0545838)
(11.25 0 -0.0548273)
(11.3 0 -0.0550835)
(11.35 0 -0.0553279)
(11.4 0 -0.0555833)
(11.45 0 -0.0558285)
(11.5 0 -0.0560832)
(11.55 0 -0.056329)
(11.6 0 -0.056583)
(11.65 0 -0.0568294)
(11.7 0 -0.0570829)
(11.75 0 -0.0573299)
(11.8 0 -0.0575828)
(11.85 0 -0.0578304)
(11.9 0 -0.0580828)
(11.95 0 -0.0583307)
(12 0 -0.0585828)
(12.05 0 -0.0588311)
(12.1 0 -0.0590828)
(12.15 0 -0.0593314)
(12.2 0 -0.0595828)
(12.25 0 -0.0598318)
(12.3 0 -0.0600829)
(12.35 0 -0.0603321)
(12.4 0 -0.0605829)
(12.45 0 -0.0608323)
(12.5 0 -0.0610829)
(12.55 0 -0.0613324)
(12.6 0 -0.061583)
(12.65 0 -0.0618326)
(12.7 0 -0.0620831)
(12.75 0 -0.0623329)
(12.8 0 -0.0625831)
(12.85 0 -0.0628329)
(12.9 0 -0.0630831)
(12.95 0 -0.0633329)
(13 0 -0.0635831)
(13.05 0 -0.0638331)
(13.1 0 -0.0640833)
(13.15 0 -0.0643331)
(13.2 0 -0.0645833)
(13.25 0 -0.0648331)
(13.3 0 -0.0650832)
(13.35 0 -0.0653331)
(13.4 0 -0.0655832)
(13.45 0 -0.0658331)
(13.5 0 -0.0660834)
(13.55 0 -0.0663333)
(13.6 0 -0.0665833)
(13.65 0 -0.0668332)
(13.7 0 -0.0670832)
(13.75 0 -0.067333)
(13.8 0 -0.0675832)
(13.85 0 -0.0678329)
(13.9 0 -0.0680834)
(13.95 0 -0.0683328)
(14 0 -0.0685831)
(14.05 0 -0.068833)
(14.1 0 -0.0690828)
(14.15 0 -0.0693328)
(14.2 0 -0.0695825)
(14.25 0 -0.0698335)
(14.3 0 -0.07008)
(14.35 0 -0.0703324)
(14.4 0 -0.0705847)
(14.45 0 -0.0708318)
(14.5 0 -0.0710894)
(14.55 0 -0.0713133)
(14.6 0 -0.0716352)
(14.65 0 -0.0717897)
(14.7 0 -0.0721106)
(14.75 0 -0.0723235)
(14.8 0 -0.0726468)
(14.85 0 -0.07425)
(14.9 0 -0.0745)
(14.95 0 -0.07475)
(15 0 -0.075)
(0 0.02 0)
(0.05 0.02 -0.00025)
(0.1 0.02 -0.0005)
(0.15 0.02 -0.00075)
(0.2 0.02 -0.001)
(0.25 0.02 -0.00125)
(0.3 0.02 -0.0015)
(0.35 0.02 -0.00175)
(0.4 0.02 -0.002)
(0.45 0.02 -0.00225)
(0.5 0.02 -0.0025)
(0.55 0.02 -0.00275)
(0.6 0.02 -0.003)
(0.65 0.02 -0.00325)
(0.7 0.02 -0.0035)
(0.75 0.02 -0.00375)
(0.8 0.02 -0.004)
(0.85 0.02 -0.00425)
(0.9 0.02 -0.0045)
(0.95 0.02 -0.00475)
(1 0.02 -0.005)
(1.05 0.02 -0.00525)
(1.1 0.02 -0.0055)
(1.15 0.02 -0.00575)
(1.2 0.02 -0.006)
(1.25 0.02 -0.00625)
(1.3 0.02 -0.0065)
(1.35 0.02 -0.00675)
(1.4 0.02 -0.007)
(1.45 0.02 -0.00725)
(1.5 0.02 -0.0075)
(1.55 0.02 -0.00775)
(1.6 0.02 -0.008)
(1.65 0.02 -0.00825)
(1.7 0.02 -0.0085)
(1.75 0.02 -0.00875)
(1.8 0.02 -0.009)
(1.85 0.02 -0.00925)
(1.9 0.02 -0.0095)
(1.95 0.02 -0.00975)
(2 0.02 -0.01)
(2.05 0.02 -0.01025)
(2.1 0.02 -0.0105)
(2.15 0.02 -0.01075)
(2.2 0.02 -0.011)
(2.25 0.02 -0.01125)
(2.3 0.02 -0.0115)
(2.35 0.02 -0.01175)
(2.4 0.02 -0.012)
(2.45 0.02 -0.01225)
(2.5 0.02 -0.0125)
(2.55 0.02 -0.01275)
(2.6 0.02 -0.013)
(2.65 0.02 -0.01325)
(2.7 0.02 -0.0135)
(2.75 0.02 -0.01375)
(2.8 0.02 -0.014)
(2.85 0.02 -0.01425)
(2.9 0.02 -0.0145)
(2.95 0.02 -0.01475)
(3 0.02 -0.0136888)
(3.05 0.02 -0.0131491)
(3.1 0.02 -0.0138807)
(3.15 0.02 -0.0140851)
(3.2 0.02 -0.014335)
(3.25 0.02 -0.0146053)
(3.3 0.02 -0.0148919)
(3.35 0.02 -0.0151785)
(3.4 0.02 -0.0154582)
(3.45 0.02 -0.0157329)
(3.5 0.02 -0.0160027)
(3.55 0.02 -0.0162702)
(3.6 0.02 -0.0165345)
(3.65 0.02 -0.0167966)
(3.7 0.02 -0.0170563)
(3.75 0.02 -0.0173143)
(3.8 0.02 -0.0175704)
(3.85 0.02 -0.0178252)
(3.9 0.02 -0.0180787)
(3.95 0.02 -0.0183314)
(4 0.02 -0.0185834)
(4.05 0.02 -0.0188349)
(4.1 0.02 -0.019086)
(4.15 0.02 -0.0193368)
(4.2 0.02 -0.0195873)
(4.25 0.02 -0.0198377)
(4.3 0.02 -0.0200879)
(4.35 0.02 -0.0203378)
(4.4 0.02 -0.0205878)
(4.45 0.02 -0.0208376)
(4.5 0.02 -0.0210874)
(4.55 0.02 -0.0213372)
(4.6 0.02 -0.021587)
(4.65 0.02 -0.0218368)
(4.7 0.02 -0.0220866)
(4.75 0.02 -0.0223364)
(4.8 0.02 -0.0225863)
(4.85 0.02 -0.0228361)
(4.9 0.02 -0.023086)
(4.95 0.02 -0.0233359)
(5 0.02 -0.0235858)
(5.05 0.02 -0.0238357)
(5.1 0.02 -0.0240856)
(5.15 0.02 -0.0243356)
(5.2 0.02 -0.0245856)
(5.25 0.02 -0.0248355)
(5.3 0.02 -0.0250855)
(5.35 0.02 -0.0253355)
(5.4 0.02 -0.0255855)
(5.45 0.02 -0.0258354)
(5.5 0.02 -0.0260854)
(5.55 0.02 -0.0263354)
(5.6 0.02 -0.0265854)
(5.65 0.02 -0.0268354)
(5.7 0.02 -0.0270855)
(5.75 0.02 -0.0273355)
(5.8 0.02 -0.0275855)
(5.85 0.02 -0.0278355)
(5.9 0.02 -0.0280855)
(5.95 0.02 -0.0283355)
(6 0.02 -0.0285855)
(6.05 0.02 -0.0288354)
(6.1 0.02 -0.0290854)
(6.15 0.02 -0.0293354)
(6.2 0.02 -0.0295854)
(6.25 0.02 -0.0298354)
(6.3 0.02 -0.0300854)
(6.35 0.02 -0.0303355)
(6.4 0.02 -0.0305855)
(6.45 0.02 -0.0308355)
(6.5 0.02 -0.0310855)
(6.55 0.02 -0.0313356)
(6.6 0.02 -0.0315855)
(6.65 0.02 -0.0318356)
(6.7 0.02 -0.0320855)
(6.75 0.02 -0.0323355)
(6.8 0.02 -0.0325854)
(6.85 0.02 -0.0328355)
(6.9 0.02 -0.0330854)
(6.95 0.02 -0.0333354)
(7 0.02 -0.0335855)
(7.05 0.02 -0.0338352)
(7.1 0.02 -0.0340856)
(7.15 0.02 -0.0343351)
(7.2 0.02 -0.0345857)
(7.25 0.02 -0.0348351)
(7.3 0.02 -0.0350859)
(7.35 0.02 -0.035335)
(7.4 0.02 -0.0355861)
(7.45 0.02 -0.0358348)
(7.5 0.02 -0.0360863)
(7.55 0.02 -0.0363345)
(7.6 0.02 -0.0365864)
(7.65 0.02 -0.0368342)
(7.7 0.02 -0.0370867)
(7.75 0.02 -0.0373338)
(7.8 0.02 -0.0375869)
(7.85 0.02 -0.0378333)
(7.9 0.02 -0.0380871)
(7.95 0.02 -0.0383328)
(8 0.02 -0.0385874)
(8.05 0.02 -0.0388322)
(8.1 0.02 -0.0390877)
(8.15 0.02 -0.0393315)
(8.2 0.02 -0.039588)
(8.25 0.02 -0.0398307)
(8.3 0.02 -0.0400883)
(8.35 0.02 -0.0403299)
(8.4 0.02 -0.0405886)
(8.45 0.02 -0.040829)
(8.5 0.02 -0.0410889)
(8.55 0.02 -0.0413282)
(8.6 0.02 -0.0415892)
(8.65 0.02 -0.0418273)
(8.7 0.02 -0.0420894)
(8.75 0.02 -0.0423263)
(8.8 0.02 -0.0425895)
(8.85 0.02 -0.0428253)
(8.9 0.02 -0.0430896)
(8.95 0.02 -0.0433245)
(9 0.02 -0.0435897)
(9.05 0.02 -0.0438237)
(9.1 0.02 -0.0440897)
(9.15 0.02 -0.044323)
(9.2 0.02 -0.0445897)
(9.25 0.02 -0.0448224)
(9.3 0.02 -0.0450897)
(9.35 0.02 -0.0453219)
(9.4 0.02 -0.0455896)
(9.45 0.02 -0.0458215)
(9.5 0.02 -0.0460895)
(9.55 0.02 -0.0463212)
(9.6 0.02 -0.0465894)
(9.65 0.02 -0.0468211)
(9.7 0.02 -0.0470892)
(9.75 0.02 -0.0473209)
(9.8 0.02 -0.0475889)
(9.85 0.02 -0.0478208)
(9.9 0.02 -0.0480886)
(9.95 0.02 -0.0483209)
(10 0.02 -0.0485883)
(10.05 0.02 -0.0488212)
(10.1 0.02 -0.049088)
(10.15 0.02 -0.0493215)
(10.2 0.02 -0.0495877)
(10.25 0.02 -0.0498219)
(10.3 0.02 -0.0500872)
(10.35 0.02 -0.0503222)
(10.4 0.02 -0.0505868)
(10.45 0.02 -0.0508227)
(10.5 0.02 -0.0510863)
(10.55 0.02 -0.0513232)
(10.6 0.02 -0.0515859)
(10.65 0.02 -0.0518238)
(10.7 0.02 -0.0520856)
(10.75 0.02 -0.0523244)
(10.8 0.02 -0.0525851)
(10.85 0.02 -0.0528249)
(10.9 0.02 -0.0530847)
(10.95 0.02 -0.0533255)
(11 0.02 -0.0535844)
(11.05 0.02 -0.0538261)
(11.1 0.02 -0.0540841)
(11.15 0.02 -0.0543268)
(11.2 0.02 -0.0545838)
(11.25 0.02 -0.0548273)
(11.3 0.02 -0.0550835)
(11.35 0.02 -0.0553279)
(11.4 0.02 -0.0555833)
(11.45 0.02 -0.0558285)
(11.5 0.02 -0.0560832)
(11.55 0.02 -0.056329)
(11.6 0.02 -0.056583)
(11.65 0.02 -0.0568294)
(11.7 0.02 -0.0570829)
(11.75 0.02 -0.0573299)
(11.8 0.02 -0.0575828)
(11.85 0.02 -0.0578304)
(11.9 0.02 -0.0580828)
(11.95 0.02 -0.0583307)
(12 0.02 -0.0585828)
(12.05 0.02 -0.0588311)
(12.1 0.02 -0.0590828)
(12.15 0.02 -0.0593314)
(12.2 0.02 -0.0595828)
(12.25 0.02 -0.0598318)
(12.3 0.02 -0.0600829)
(12.35 0.02 -0.0603321)
(12.4 0.02 -0.0605829)
(12.45 0.02 -0.0608323)
(12.5 0.02 -0.0610829)
(12.55 0.02 -0.0613324)
(12.6 0.02 -0.061583)
(12.65 0.02 -0.0618326)
(12.7 0.02 -0.0620831)
(12.75 0.02 -0.0623329)
(12.8 0.02 -0.0625831)
(12.85 0.02 -0.0628329)
(12.9 0.02 -0.0630831)
(12.95 0.02 -0.0633329)
(13 0.02 -0.0635831)
(13.05 0.02 -0.0638331)
(13.1 0.02 -0.0640833)
(13.15 0.02 -0.0643331)
(13.2 0.02 -0.0645833)
(13.25 0.02 -0.0648331)
(13.3 0.02 -0.0650832)
(13.35 0.02 -0.0653331)
(13.4 0.02 -0.0655832)
(13.45 0.02 -0.0658331)
(13.5 0.02 -0.0660834)
(13.55 0.02 -0.0663333)
(13.6 0.02 -0.0665833)
(13.65 0.02 -0.0668332)
(13.7 0.02 -0.0670832)
(13.75 0.02 -0.067333)
(13.8 0.02 -0.0675832)
(13.85 0.02 -0.0678329)
(13.9 0.02 -0.0680834)
(13.95 0.02 -0.0683328)
(14 0.02 -0.0685831)
(14.05 0.02 -0.068833)
(14.1 0.02 -0.0690828)
(14.15 0.02 -0.0693328)
(14.2 0.02 -0.0695825)
(14.25 0.02 -0.0698335)
(14.3 0.02 -0.07008)
(14.35 0.02 -0.0703324)
(14.4 0.02 -0.0705847)
(14.45 0.02 -0.0708318)
(14.5 0.02 -0.0710894)
(14.55 0.02 -0.0713133)
(14.6 0.02 -0.0716352)
(14.65 0.02 -0.0717897)
(14.7 0.02 -0.0721106)
(14.75 0.02 -0.0723235)
(14.8 0.02 -0.0726468)
(14.85 0.02 -0.07425)
(14.9 0.02 -0.0745)
(14.95 0.02 -0.07475)
(15 0.02 -0.075)
)
;

boundaryField
{
    inlet
    {
        type            zeroGradient;
    }
    outlet
    {
        type            zeroGradient;
    }
    sideWall
    {
        type            empty;
    }
    bed
    {
        type            zeroGradient;
    }
    topWall
    {
        type            zeroGradient;
    }
}


// ************************************************************************* //
