/*--------------------------------*- C++ -*----------------------------------*\
| =========                 |                                                 |
| \\      /  F ield         | foam-extend: Open Source CFD                    |
|  \\    /   O peration     | Version:     3.2                                |
|   \\  /    A nd           | Web:         http://www.foam-extend.org         |
|    \\/     M anipulation  | For copyright notice see file Copyright         |
\*---------------------------------------------------------------------------*/
FoamFile
{
    version     2.0;
    format      ascii;
    class       volScalarField;
    location    "2000";
    object      nut;
}
// * * * * * * * * * * * * * * * * * * * * * * * * * * * * * * * * * * * * * //

dimensions      [0 2 -1 0 0 0 0];

internalField   nonuniform List<scalar> 
2400
(
2.5441e-05
2.82269e-05
2.21522e-05
1.85026e-05
1.72815e-05
1.67735e-05
1.66646e-05
1.69725e-05
1.74277e-05
1.78878e-05
1.829e-05
1.86417e-05
1.89193e-05
1.91924e-05
1.94127e-05
1.96137e-05
1.98047e-05
1.99715e-05
2.01227e-05
2.02624e-05
2.03886e-05
2.051e-05
2.06385e-05
2.07756e-05
2.09088e-05
2.10301e-05
2.11378e-05
2.12295e-05
2.13066e-05
2.13696e-05
2.14215e-05
2.14634e-05
2.14963e-05
2.15211e-05
2.15397e-05
2.15538e-05
2.15651e-05
2.15735e-05
2.15807e-05
2.15861e-05
2.1591e-05
2.15947e-05
2.15982e-05
2.16007e-05
2.16032e-05
2.16049e-05
2.16068e-05
2.16079e-05
2.16097e-05
2.16105e-05
2.16098e-05
2.16147e-05
2.16059e-05
2.16264e-05
2.15851e-05
2.16736e-05
2.14852e-05
2.18687e-05
2.06137e-05
2.32842e-05
2.69333e-05
2.42673e-05
2.20918e-05
2.26384e-05
2.24665e-05
2.25139e-05
2.25597e-05
2.26296e-05
2.27118e-05
2.27863e-05
2.28478e-05
2.28964e-05
2.29361e-05
2.29673e-05
2.29934e-05
2.30124e-05
2.30288e-05
2.30411e-05
2.30505e-05
2.30571e-05
2.30618e-05
2.30649e-05
2.30668e-05
2.30681e-05
2.30689e-05
2.3069e-05
2.30694e-05
2.30693e-05
2.30694e-05
2.3069e-05
2.3069e-05
2.30684e-05
2.30682e-05
2.30679e-05
2.30679e-05
2.30675e-05
2.30673e-05
2.30672e-05
2.30672e-05
2.30671e-05
2.30671e-05
2.30672e-05
2.3067e-05
2.30668e-05
2.30669e-05
2.30669e-05
2.3067e-05
2.3067e-05
2.30671e-05
2.3067e-05
2.30673e-05
2.30671e-05
2.30669e-05
2.30669e-05
2.30669e-05
2.3067e-05
2.30671e-05
2.30671e-05
2.30671e-05
2.30672e-05
2.30672e-05
2.30672e-05
2.30672e-05
2.30675e-05
2.30671e-05
2.3067e-05
2.30668e-05
2.30672e-05
2.30668e-05
2.30673e-05
2.30667e-05
2.30674e-05
2.30668e-05
2.30673e-05
2.3067e-05
2.30671e-05
2.30673e-05
2.30667e-05
2.3068e-05
2.30653e-05
2.30698e-05
2.30641e-05
2.30707e-05
2.30632e-05
2.30709e-05
2.30618e-05
2.30721e-05
2.30605e-05
2.30733e-05
2.30589e-05
2.30746e-05
2.30572e-05
2.3076e-05
2.30552e-05
2.30775e-05
2.30531e-05
2.30789e-05
2.30509e-05
2.30804e-05
2.30487e-05
2.30818e-05
2.30464e-05
2.3083e-05
2.30441e-05
2.30841e-05
2.3042e-05
2.30848e-05
2.304e-05
2.30853e-05
2.30383e-05
2.30854e-05
2.3037e-05
2.30851e-05
2.3036e-05
2.3085e-05
2.30355e-05
2.30839e-05
2.30353e-05
2.30824e-05
2.30356e-05
2.30806e-05
2.30358e-05
2.30792e-05
2.30361e-05
2.30778e-05
2.30366e-05
2.30763e-05
2.30373e-05
2.30746e-05
2.30384e-05
2.30729e-05
2.30396e-05
2.3071e-05
2.30411e-05
2.30697e-05
2.30429e-05
2.30679e-05
2.30447e-05
2.30661e-05
2.30466e-05
2.30645e-05
2.30485e-05
2.30631e-05
2.30505e-05
2.3062e-05
2.30525e-05
2.30616e-05
2.30545e-05
2.30609e-05
2.30563e-05
2.30604e-05
2.3058e-05
2.30601e-05
2.30596e-05
2.30599e-05
2.3061e-05
2.30605e-05
2.30624e-05
2.30608e-05
2.30634e-05
2.30614e-05
2.30642e-05
2.3062e-05
2.30649e-05
2.3063e-05
2.30656e-05
2.30636e-05
2.30664e-05
2.30641e-05
2.30671e-05
2.30646e-05
2.30679e-05
2.30649e-05
2.30682e-05
2.30658e-05
2.30681e-05
2.30669e-05
2.30686e-05
2.30673e-05
2.30688e-05
2.30674e-05
2.30688e-05
2.30678e-05
2.30691e-05
2.30684e-05
2.30696e-05
2.30686e-05
2.30692e-05
2.30683e-05
2.30689e-05
2.30686e-05
2.30695e-05
2.30691e-05
2.30696e-05
2.30689e-05
2.3069e-05
2.30686e-05
2.30687e-05
2.30685e-05
2.3069e-05
2.30688e-05
2.30692e-05
2.30691e-05
2.30687e-05
2.30686e-05
2.30679e-05
2.30685e-05
2.30688e-05
2.30689e-05
2.30692e-05
2.30686e-05
2.30685e-05
2.30686e-05
2.30668e-05
2.30695e-05
2.30673e-05
2.30695e-05
2.30692e-05
2.30687e-05
2.30694e-05
2.30671e-05
2.30686e-05
2.30664e-05
2.30729e-05
2.30665e-05
2.30669e-05
2.30855e-05
2.30426e-05
2.31139e-05
2.28901e-05
2.32909e-05
2.29646e-05
2.29335e-05
2.33286e-05
2.24895e-05
2.48669e-05
2.05945e-05
1.85934e-05
2.07514e-05
2.11641e-05
1.73038e-05
2.013e-05
2.71248e-05
3.054e-05
3.30366e-05
3.54885e-05
3.76908e-05
3.95471e-05
4.11697e-05
4.25631e-05
4.37354e-05
4.47446e-05
4.56028e-05
4.63804e-05
4.70296e-05
4.7629e-05
4.81735e-05
4.86584e-05
4.91055e-05
4.95206e-05
4.99004e-05
5.02556e-05
5.05875e-05
5.08887e-05
5.11481e-05
5.13629e-05
5.15361e-05
5.16708e-05
5.17736e-05
5.18495e-05
5.1905e-05
5.19438e-05
5.19702e-05
5.19866e-05
5.19968e-05
5.2002e-05
5.2005e-05
5.20057e-05
5.20064e-05
5.20057e-05
5.20058e-05
5.20047e-05
5.20047e-05
5.20036e-05
5.20036e-05
5.20024e-05
5.20027e-05
5.20013e-05
5.20022e-05
5.20007e-05
5.2e-05
5.20018e-05
5.19961e-05
5.2008e-05
5.19827e-05
5.20357e-05
5.19184e-05
5.21002e-05
5.13499e-05
5.31504e-05
5.43495e-05
5.19232e-05
5.16206e-05
5.27816e-05
5.30522e-05
5.34567e-05
5.37898e-05
5.40664e-05
5.42895e-05
5.44561e-05
5.45768e-05
5.46653e-05
5.47284e-05
5.47729e-05
5.48032e-05
5.48222e-05
5.48339e-05
5.48397e-05
5.48414e-05
5.48403e-05
5.48374e-05
5.48337e-05
5.48294e-05
5.48251e-05
5.48209e-05
5.48169e-05
5.48135e-05
5.48103e-05
5.48076e-05
5.48052e-05
5.48035e-05
5.48017e-05
5.48007e-05
5.47996e-05
5.47991e-05
5.47984e-05
5.47981e-05
5.47979e-05
5.47979e-05
5.47978e-05
5.4798e-05
5.4798e-05
5.47979e-05
5.47981e-05
5.47983e-05
5.47984e-05
5.47986e-05
5.47987e-05
5.47988e-05
5.47988e-05
5.47991e-05
5.47989e-05
5.47989e-05
5.47991e-05
5.47991e-05
5.47992e-05
5.47992e-05
5.47992e-05
5.47993e-05
5.47993e-05
5.47993e-05
5.47993e-05
5.47993e-05
5.47995e-05
5.47992e-05
5.47992e-05
5.47991e-05
5.47994e-05
5.4799e-05
5.47995e-05
5.47989e-05
5.47995e-05
5.47989e-05
5.47993e-05
5.4799e-05
5.47991e-05
5.47991e-05
5.47988e-05
5.47997e-05
5.47976e-05
5.48015e-05
5.47962e-05
5.48022e-05
5.4795e-05
5.48024e-05
5.47936e-05
5.48033e-05
5.47919e-05
5.48042e-05
5.47899e-05
5.4805e-05
5.47875e-05
5.48058e-05
5.47848e-05
5.48066e-05
5.47818e-05
5.48074e-05
5.47785e-05
5.48081e-05
5.4775e-05
5.48087e-05
5.47714e-05
5.48091e-05
5.47676e-05
5.48092e-05
5.47637e-05
5.48091e-05
5.476e-05
5.48086e-05
5.47563e-05
5.48078e-05
5.4753e-05
5.48066e-05
5.475e-05
5.48055e-05
5.47474e-05
5.48036e-05
5.47453e-05
5.48016e-05
5.47438e-05
5.47993e-05
5.47427e-05
5.47972e-05
5.47422e-05
5.4795e-05
5.47422e-05
5.47928e-05
5.47427e-05
5.47906e-05
5.47436e-05
5.47885e-05
5.4745e-05
5.47864e-05
5.47469e-05
5.4785e-05
5.47491e-05
5.47832e-05
5.47516e-05
5.47817e-05
5.47545e-05
5.47804e-05
5.47577e-05
5.47797e-05
5.4761e-05
5.47793e-05
5.47644e-05
5.47796e-05
5.47678e-05
5.47798e-05
5.47711e-05
5.47804e-05
5.47744e-05
5.47813e-05
5.47776e-05
5.47824e-05
5.47808e-05
5.47841e-05
5.47834e-05
5.47857e-05
5.47859e-05
5.47877e-05
5.47879e-05
5.47898e-05
5.47899e-05
5.47919e-05
5.47914e-05
5.47935e-05
5.47935e-05
5.4795e-05
5.47956e-05
5.47963e-05
5.47972e-05
5.47969e-05
5.47986e-05
5.47983e-05
5.47999e-05
5.47998e-05
5.48014e-05
5.48008e-05
5.48019e-05
5.48012e-05
5.48024e-05
5.48021e-05
5.48033e-05
5.4803e-05
5.48039e-05
5.48032e-05
5.48035e-05
5.48028e-05
5.48033e-05
5.48032e-05
5.48039e-05
5.48036e-05
5.48038e-05
5.48031e-05
5.48029e-05
5.48024e-05
5.48025e-05
5.48024e-05
5.4803e-05
5.48027e-05
5.48029e-05
5.48025e-05
5.48018e-05
5.48017e-05
5.48011e-05
5.48019e-05
5.48022e-05
5.48022e-05
5.48022e-05
5.48014e-05
5.48011e-05
5.4801e-05
5.47999e-05
5.48025e-05
5.48006e-05
5.48026e-05
5.48016e-05
5.48008e-05
5.48008e-05
5.47996e-05
5.48014e-05
5.48002e-05
5.48056e-05
5.47993e-05
5.48001e-05
5.48094e-05
5.47832e-05
5.483e-05
5.4659e-05
5.49958e-05
5.46221e-05
5.46592e-05
5.48637e-05
5.43122e-05
5.49423e-05
5.14379e-05
5.17392e-05
5.33726e-05
5.32284e-05
1.81875e-05
1.57339e-05
1.87071e-05
2.34473e-05
2.90305e-05
3.48306e-05
3.95448e-05
4.41497e-05
4.83331e-05
5.20605e-05
5.54128e-05
5.83758e-05
6.10236e-05
6.3324e-05
6.50677e-05
6.66023e-05
6.7991e-05
6.92495e-05
7.04033e-05
7.14577e-05
7.24213e-05
7.32803e-05
7.40229e-05
7.46428e-05
7.51452e-05
7.5544e-05
7.58539e-05
7.60919e-05
7.62716e-05
7.6407e-05
7.65083e-05
7.65826e-05
7.6636e-05
7.6674e-05
7.67024e-05
7.67251e-05
7.67438e-05
7.67596e-05
7.67729e-05
7.67841e-05
7.67935e-05
7.68015e-05
7.68083e-05
7.68138e-05
7.68189e-05
7.68227e-05
7.68266e-05
7.68293e-05
7.68322e-05
7.68339e-05
7.68359e-05
7.68363e-05
7.68389e-05
7.68375e-05
7.68447e-05
7.68315e-05
7.68459e-05
7.64946e-05
7.66292e-05
7.86308e-05
7.77651e-05
7.48679e-05
7.59845e-05
7.68253e-05
7.75001e-05
7.80413e-05
7.85383e-05
7.89792e-05
7.93404e-05
7.96233e-05
7.98382e-05
8.00017e-05
8.01233e-05
8.02125e-05
8.02755e-05
8.03179e-05
8.03458e-05
8.03629e-05
8.03719e-05
8.03753e-05
8.03749e-05
8.0372e-05
8.03676e-05
8.03627e-05
8.03572e-05
8.03523e-05
8.03473e-05
8.03431e-05
8.03391e-05
8.03358e-05
8.0333e-05
8.03307e-05
8.03289e-05
8.03276e-05
8.03265e-05
8.03256e-05
8.03251e-05
8.03248e-05
8.03246e-05
8.03246e-05
8.03246e-05
8.03247e-05
8.03247e-05
8.03249e-05
8.03251e-05
8.03253e-05
8.03255e-05
8.03257e-05
8.03259e-05
8.0326e-05
8.03261e-05
8.0326e-05
8.03262e-05
8.03263e-05
8.03264e-05
8.03265e-05
8.03266e-05
8.03266e-05
8.03266e-05
8.03267e-05
8.03267e-05
8.03267e-05
8.03267e-05
8.03267e-05
8.03265e-05
8.03266e-05
8.03266e-05
8.03266e-05
8.03266e-05
8.03266e-05
8.03266e-05
8.03265e-05
8.03265e-05
8.03265e-05
8.03263e-05
8.03265e-05
8.03261e-05
8.03264e-05
8.03262e-05
8.03266e-05
8.03262e-05
8.03263e-05
8.03257e-05
8.03253e-05
8.03248e-05
8.03247e-05
8.03241e-05
8.03239e-05
8.03231e-05
8.03227e-05
8.03218e-05
8.03212e-05
8.03202e-05
8.03193e-05
8.03183e-05
8.0317e-05
8.0316e-05
8.03143e-05
8.03134e-05
8.03113e-05
8.03105e-05
8.03079e-05
8.03073e-05
8.03041e-05
8.03038e-05
8.02999e-05
8.03001e-05
8.02954e-05
8.02961e-05
8.02907e-05
8.0292e-05
8.02858e-05
8.0288e-05
8.02813e-05
8.02841e-05
8.02764e-05
8.02801e-05
8.02717e-05
8.02764e-05
8.02674e-05
8.02731e-05
8.02631e-05
8.02705e-05
8.02594e-05
8.02685e-05
8.02562e-05
8.0267e-05
8.02535e-05
8.02659e-05
8.02514e-05
8.02654e-05
8.02498e-05
8.02654e-05
8.02493e-05
8.0266e-05
8.0249e-05
8.02669e-05
8.02494e-05
8.02683e-05
8.02504e-05
8.02702e-05
8.02522e-05
8.02726e-05
8.02546e-05
8.02755e-05
8.0258e-05
8.02788e-05
8.02614e-05
8.02821e-05
8.02652e-05
8.02856e-05
8.02693e-05
8.02893e-05
8.02737e-05
8.02931e-05
8.02786e-05
8.02971e-05
8.0283e-05
8.03008e-05
8.02875e-05
8.03045e-05
8.02919e-05
8.03079e-05
8.02964e-05
8.03112e-05
8.03004e-05
8.03141e-05
8.03045e-05
8.03167e-05
8.03084e-05
8.03194e-05
8.03115e-05
8.03214e-05
8.03145e-05
8.03234e-05
8.03179e-05
8.03257e-05
8.03214e-05
8.03275e-05
8.03232e-05
8.03285e-05
8.0325e-05
8.03296e-05
8.03272e-05
8.03307e-05
8.03287e-05
8.0331e-05
8.03289e-05
8.0331e-05
8.03294e-05
8.03312e-05
8.03303e-05
8.03313e-05
8.03302e-05
8.03307e-05
8.03298e-05
8.03303e-05
8.03295e-05
8.03301e-05
8.03299e-05
8.03302e-05
8.03296e-05
8.03293e-05
8.03286e-05
8.03286e-05
8.03286e-05
8.0329e-05
8.03291e-05
8.03291e-05
8.0328e-05
8.03279e-05
8.03274e-05
8.03274e-05
8.03282e-05
8.03285e-05
8.03288e-05
8.03285e-05
8.03269e-05
8.03274e-05
8.03264e-05
8.03277e-05
8.03286e-05
8.03291e-05
8.03277e-05
8.03283e-05
8.03323e-05
8.03191e-05
8.03229e-05
8.03077e-05
8.03543e-05
8.02634e-05
8.00918e-05
8.02588e-05
8.00003e-05
8.03367e-05
7.79413e-05
7.51158e-05
7.73302e-05
7.80425e-05
7.83094e-05
3.36901e-05
2.02127e-05
1.75458e-05
1.78816e-05
2.05179e-05
2.47509e-05
3.01334e-05
3.59747e-05
4.05944e-05
4.54909e-05
5.04366e-05
5.5116e-05
5.95107e-05
6.36149e-05
6.75073e-05
7.09892e-05
7.40615e-05
7.68925e-05
7.94511e-05
8.18541e-05
8.40417e-05
8.57788e-05
8.72661e-05
8.8545e-05
8.96242e-05
9.05267e-05
9.12769e-05
9.19004e-05
9.24174e-05
9.28478e-05
9.32057e-05
9.35018e-05
9.37463e-05
9.39489e-05
9.41204e-05
9.42671e-05
9.43932e-05
9.45015e-05
9.45945e-05
9.4674e-05
9.47424e-05
9.48006e-05
9.48509e-05
9.48934e-05
9.49306e-05
9.49615e-05
9.49891e-05
9.50115e-05
9.5032e-05
9.5048e-05
9.50626e-05
9.50737e-05
9.50857e-05
9.50926e-05
9.51068e-05
9.51008e-05
9.51236e-05
9.47903e-05
9.57053e-05
9.723e-05
9.61122e-05
9.30655e-05
9.3473e-05
9.40301e-05
9.4605e-05
9.51535e-05
9.57414e-05
9.63031e-05
9.68036e-05
9.72307e-05
9.7582e-05
9.78687e-05
9.80976e-05
9.82784e-05
9.84182e-05
9.85241e-05
9.86019e-05
9.86585e-05
9.86984e-05
9.87257e-05
9.87433e-05
9.8754e-05
9.87596e-05
9.87619e-05
9.87617e-05
9.87602e-05
9.87576e-05
9.8755e-05
9.87518e-05
9.8749e-05
9.87463e-05
9.87439e-05
9.8742e-05
9.87404e-05
9.8739e-05
9.8738e-05
9.87372e-05
9.87368e-05
9.87365e-05
9.87364e-05
9.87364e-05
9.87364e-05
9.87364e-05
9.87366e-05
9.87369e-05
9.87372e-05
9.87374e-05
9.87377e-05
9.87379e-05
9.87382e-05
9.87383e-05
9.87382e-05
9.87384e-05
9.87386e-05
9.87388e-05
9.87389e-05
9.8739e-05
9.87392e-05
9.87392e-05
9.87393e-05
9.87393e-05
9.87393e-05
9.87394e-05
9.87393e-05
9.87392e-05
9.87392e-05
9.87392e-05
9.87392e-05
9.87392e-05
9.87393e-05
9.87393e-05
9.87393e-05
9.87392e-05
9.87392e-05
9.8739e-05
9.87391e-05
9.87388e-05
9.8739e-05
9.87389e-05
9.8739e-05
9.87389e-05
9.87387e-05
9.87384e-05
9.87377e-05
9.87374e-05
9.87368e-05
9.87366e-05
9.87358e-05
9.87355e-05
9.87343e-05
9.87339e-05
9.87324e-05
9.8732e-05
9.87299e-05
9.87296e-05
9.8727e-05
9.87267e-05
9.87236e-05
9.87233e-05
9.87196e-05
9.87195e-05
9.87151e-05
9.87152e-05
9.871e-05
9.87105e-05
9.87044e-05
9.87053e-05
9.86984e-05
9.86997e-05
9.8692e-05
9.86938e-05
9.86854e-05
9.86879e-05
9.8679e-05
9.86821e-05
9.86723e-05
9.8676e-05
9.86655e-05
9.86701e-05
9.86592e-05
9.86647e-05
9.86531e-05
9.86599e-05
9.86477e-05
9.86558e-05
9.8643e-05
9.86524e-05
9.86391e-05
9.86497e-05
9.86358e-05
9.86477e-05
9.86334e-05
9.86464e-05
9.86322e-05
9.86462e-05
9.86315e-05
9.86463e-05
9.86315e-05
9.86472e-05
9.86325e-05
9.86489e-05
9.86345e-05
9.86514e-05
9.86374e-05
9.86547e-05
9.86415e-05
9.86588e-05
9.86459e-05
9.86631e-05
9.86507e-05
9.86677e-05
9.8656e-05
9.86728e-05
9.86616e-05
9.86781e-05
9.8668e-05
9.86838e-05
9.86739e-05
9.86893e-05
9.86799e-05
9.86948e-05
9.86857e-05
9.87002e-05
9.86919e-05
9.87056e-05
9.86976e-05
9.87104e-05
9.87032e-05
9.87147e-05
9.87085e-05
9.8719e-05
9.87133e-05
9.87226e-05
9.87178e-05
9.87261e-05
9.87222e-05
9.87294e-05
9.87266e-05
9.87326e-05
9.87299e-05
9.8735e-05
9.87329e-05
9.87372e-05
9.87357e-05
9.8739e-05
9.87377e-05
9.87401e-05
9.8739e-05
9.87412e-05
9.87404e-05
9.87422e-05
9.87415e-05
9.87423e-05
9.87414e-05
9.8742e-05
9.87415e-05
9.87423e-05
9.8742e-05
9.87424e-05
9.8742e-05
9.87418e-05
9.87411e-05
9.8741e-05
9.87407e-05
9.87412e-05
9.87416e-05
9.87418e-05
9.87413e-05
9.87408e-05
9.87394e-05
9.87394e-05
9.87394e-05
9.87402e-05
9.87413e-05
9.87415e-05
9.8741e-05
9.874e-05
9.87379e-05
9.87382e-05
9.87381e-05
9.87405e-05
9.87424e-05
9.8742e-05
9.87399e-05
9.87398e-05
9.87432e-05
9.87308e-05
9.87324e-05
9.87225e-05
9.87542e-05
9.86873e-05
9.85169e-05
9.86472e-05
9.84073e-05
9.867e-05
9.64285e-05
9.33388e-05
9.48747e-05
9.56732e-05
9.61603e-05
8.25512e-05
4.12181e-05
2.82973e-05
2.306e-05
2.0838e-05
2.05523e-05
2.23993e-05
2.57448e-05
3.02111e-05
3.55776e-05
4.01905e-05
4.45483e-05
4.91364e-05
5.38976e-05
5.87125e-05
6.33978e-05
6.7871e-05
7.21664e-05
7.64134e-05
8.06163e-05
8.48112e-05
8.89837e-05
9.21117e-05
9.43795e-05
9.63635e-05
9.81019e-05
9.96255e-05
0.000100961
0.000102126
0.000103142
0.000104021
0.000104778
0.000105428
0.000105985
0.000106468
0.000106885
0.000107245
0.000107556
0.000107823
0.000108053
0.00010825
0.000108419
0.000108565
0.00010869
0.000108797
0.000108889
0.000108968
0.000109035
0.000109093
0.000109142
0.000109184
0.00010922
0.000109252
0.000109277
0.000109306
0.000109316
0.000109356
0.000109101
0.000110093
0.000111337
0.000110265
0.000107654
0.000107553
0.000107749
0.000108083
0.000108491
0.000109023
0.000109584
0.000110125
0.000110616
0.000111044
0.000111411
0.000111719
0.000111974
0.000112181
0.000112347
0.000112477
0.000112577
0.000112653
0.000112711
0.000112753
0.000112784
0.000112805
0.000112821
0.00011283
0.000112837
0.000112841
0.000112843
0.000112844
0.000112844
0.000112843
0.000112843
0.000112842
0.000112842
0.000112841
0.000112841
0.00011284
0.00011284
0.00011284
0.00011284
0.000112841
0.000112841
0.000112841
0.000112842
0.000112842
0.000112842
0.000112843
0.000112843
0.000112843
0.000112844
0.000112844
0.000112844
0.000112844
0.000112844
0.000112845
0.000112845
0.000112845
0.000112845
0.000112845
0.000112845
0.000112846
0.000112846
0.000112846
0.000112846
0.000112845
0.000112845
0.000112845
0.000112845
0.000112845
0.000112846
0.000112846
0.000112846
0.000112845
0.000112845
0.000112845
0.000112845
0.000112845
0.000112845
0.000112845
0.000112845
0.000112845
0.000112845
0.000112845
0.000112844
0.000112844
0.000112843
0.000112843
0.000112842
0.000112842
0.00011284
0.00011284
0.000112838
0.000112838
0.000112835
0.000112835
0.000112832
0.000112832
0.000112828
0.000112828
0.000112824
0.000112824
0.000112818
0.000112819
0.000112813
0.000112813
0.000112806
0.000112807
0.000112799
0.000112801
0.000112791
0.000112794
0.000112783
0.000112786
0.000112775
0.000112779
0.000112767
0.000112771
0.000112759
0.000112764
0.00011275
0.000112756
0.000112743
0.00011275
0.000112736
0.000112744
0.000112729
0.000112739
0.000112724
0.000112734
0.000112719
0.000112731
0.000112716
0.000112728
0.000112714
0.000112727
0.000112712
0.000112726
0.000112711
0.000112726
0.000112712
0.000112727
0.000112714
0.000112729
0.000112717
0.000112733
0.000112721
0.000112737
0.000112726
0.000112742
0.000112731
0.000112747
0.000112737
0.000112753
0.000112744
0.000112759
0.000112751
0.000112766
0.000112758
0.000112772
0.000112766
0.000112779
0.000112773
0.000112786
0.00011278
0.000112793
0.000112788
0.000112799
0.000112795
0.000112805
0.000112801
0.00011281
0.000112807
0.000112816
0.000112813
0.000112821
0.000112819
0.000112825
0.000112824
0.000112829
0.000112828
0.000112833
0.000112833
0.000112837
0.000112836
0.000112839
0.000112839
0.000112841
0.000112841
0.000112844
0.000112844
0.000112845
0.000112845
0.000112846
0.000112845
0.000112846
0.000112846
0.000112847
0.000112847
0.000112847
0.000112847
0.000112847
0.000112846
0.000112846
0.000112846
0.000112847
0.000112848
0.000112847
0.000112847
0.000112846
0.000112844
0.000112844
0.000112845
0.000112846
0.000112847
0.000112847
0.000112846
0.000112845
0.000112842
0.000112842
0.000112843
0.000112846
0.000112848
0.000112848
0.000112845
0.000112844
0.000112847
0.000112837
0.000112837
0.000112831
0.000112853
0.000112808
0.000112661
0.000112749
0.000112548
0.000112724
0.000110944
0.000107908
0.000108773
0.000109359
0.000109815
9.93773e-05
9.50203e-05
6.34268e-05
4.55048e-05
3.53676e-05
2.93749e-05
2.61412e-05
2.46228e-05
2.50035e-05
2.70472e-05
3.03002e-05
3.44773e-05
3.93726e-05
4.40111e-05
4.8143e-05
5.2607e-05
5.74556e-05
6.2721e-05
6.83622e-05
7.42938e-05
8.07435e-05
8.54692e-05
8.94928e-05
9.31001e-05
9.63592e-05
9.93195e-05
0.000102
0.000104406
0.000106543
0.000108426
0.000110071
0.000111501
0.000112739
0.000113811
0.000114741
0.000115546
0.000116242
0.000116842
0.000117359
0.000117803
0.000118186
0.000118514
0.000118797
0.000119039
0.000119247
0.000119425
0.000119578
0.000119709
0.000119822
0.000119918
0.00012
0.00012007
0.000120131
0.000120182
0.000120233
0.000120265
0.000120334
0.00012018
0.000120885
0.000121906
0.000121026
0.000119036
0.000118683
0.000118608
0.000118707
0.000118929
0.000119308
0.000119782
0.000120285
0.000120778
0.000121231
0.000121638
0.00012199
0.000122292
0.000122544
0.000122753
0.000122922
0.000123058
0.000123164
0.000123248
0.000123312
0.000123362
0.0001234
0.000123428
0.000123449
0.000123465
0.000123476
0.000123484
0.00012349
0.000123495
0.000123498
0.0001235
0.000123502
0.000123503
0.000123504
0.000123505
0.000123506
0.000123506
0.000123507
0.000123508
0.000123509
0.000123509
0.00012351
0.000123511
0.000123511
0.000123512
0.000123513
0.000123513
0.000123514
0.000123514
0.000123514
0.000123515
0.000123515
0.000123515
0.000123515
0.000123516
0.000123516
0.000123516
0.000123516
0.000123516
0.000123516
0.000123516
0.000123517
0.000123517
0.000123516
0.000123516
0.000123516
0.000123517
0.000123517
0.000123517
0.000123517
0.000123517
0.000123517
0.000123517
0.000123516
0.000123516
0.000123516
0.000123516
0.000123516
0.000123516
0.000123516
0.000123516
0.000123516
0.000123515
0.000123515
0.000123514
0.000123514
0.000123513
0.000123513
0.000123511
0.000123511
0.000123509
0.000123509
0.000123507
0.000123506
0.000123503
0.000123503
0.000123499
0.000123499
0.000123494
0.000123494
0.000123489
0.000123489
0.000123483
0.000123483
0.000123476
0.000123476
0.000123468
0.000123468
0.00012346
0.00012346
0.000123451
0.000123452
0.000123442
0.000123443
0.000123432
0.000123435
0.000123423
0.000123426
0.000123413
0.000123417
0.000123404
0.000123409
0.000123396
0.000123401
0.000123388
0.000123394
0.000123382
0.000123389
0.000123376
0.000123384
0.000123371
0.00012338
0.000123368
0.000123377
0.000123365
0.000123375
0.000123364
0.000123375
0.000123364
0.000123375
0.000123365
0.000123377
0.000123367
0.000123379
0.000123371
0.000123383
0.000123376
0.000123388
0.000123382
0.000123394
0.000123388
0.0001234
0.000123395
0.000123407
0.000123403
0.000123414
0.000123411
0.000123422
0.000123419
0.00012343
0.000123427
0.000123437
0.000123436
0.000123445
0.000123444
0.000123453
0.000123452
0.00012346
0.000123459
0.000123467
0.000123467
0.000123474
0.000123474
0.00012348
0.00012348
0.000123485
0.000123486
0.000123491
0.000123491
0.000123496
0.000123497
0.0001235
0.000123501
0.000123504
0.000123504
0.000123507
0.000123507
0.00012351
0.000123511
0.000123512
0.000123512
0.000123513
0.000123513
0.000123514
0.000123515
0.000123516
0.000123516
0.000123517
0.000123516
0.000123516
0.000123515
0.000123515
0.000123516
0.000123516
0.000123517
0.000123517
0.000123516
0.000123515
0.000123514
0.000123514
0.000123514
0.000123516
0.000123517
0.000123517
0.000123516
0.000123514
0.000123511
0.000123511
0.000123512
0.000123515
0.000123517
0.000123517
0.000123514
0.000123513
0.000123515
0.000123508
0.000123508
0.000123504
0.00012352
0.00012349
0.000123381
0.000123433
0.00012328
0.000123377
0.00012211
0.000119549
0.000119819
0.000120078
0.000120359
0.000102914
0.000109528
0.000125391
8.96606e-05
6.89692e-05
5.53727e-05
4.40994e-05
3.6593e-05
3.1708e-05
2.90173e-05
2.814e-05
2.88386e-05
3.08883e-05
3.39875e-05
3.78911e-05
4.23525e-05
4.72166e-05
5.23698e-05
5.77567e-05
6.33728e-05
6.92015e-05
7.5072e-05
8.08691e-05
8.64544e-05
9.16715e-05
9.6401e-05
0.0001006
0.000104297
0.000107541
0.00011038
0.000112854
0.000115002
0.000116861
0.00011847
0.000119864
0.000121069
0.00012211
0.000123007
0.000123781
0.000124446
0.000125018
0.00012551
0.000125933
0.000126295
0.000126606
0.000126873
0.000127102
0.000127298
0.000127467
0.000127611
0.000127734
0.000127839
0.00012793
0.000128007
0.000128082
0.000128135
0.000128249
0.000128184
0.000128638
0.0001293
0.000128593
0.000127263
0.000126761
0.000126465
0.000126376
0.00012645
0.000126691
0.000127066
0.000127508
0.00012797
0.000128416
0.000128829
0.000129197
0.000129518
0.000129791
0.000130022
0.000130211
0.000130367
0.000130491
0.000130591
0.00013067
0.000130731
0.00013078
0.000130817
0.000130846
0.000130869
0.000130886
0.0001309
0.00013091
0.000130918
0.000130925
0.00013093
0.000130934
0.000130937
0.00013094
0.000130942
0.000130944
0.000130946
0.000130947
0.000130949
0.00013095
0.000130951
0.000130952
0.000130953
0.000130954
0.000130955
0.000130956
0.000130957
0.000130957
0.000130958
0.000130958
0.000130959
0.000130959
0.000130959
0.00013096
0.00013096
0.00013096
0.00013096
0.000130961
0.000130961
0.000130961
0.000130961
0.000130961
0.000130961
0.000130961
0.000130961
0.000130961
0.000130961
0.000130961
0.000130961
0.000130961
0.000130961
0.000130961
0.000130961
0.000130961
0.000130961
0.000130961
0.000130961
0.000130961
0.000130961
0.000130961
0.000130961
0.00013096
0.00013096
0.00013096
0.000130959
0.000130959
0.000130958
0.000130958
0.000130956
0.000130956
0.000130954
0.000130954
0.000130952
0.000130951
0.000130949
0.000130948
0.000130945
0.000130943
0.00013094
0.000130939
0.000130935
0.000130933
0.000130928
0.000130927
0.000130921
0.000130919
0.000130914
0.000130911
0.000130905
0.000130903
0.000130896
0.000130894
0.000130887
0.000130885
0.000130877
0.000130875
0.000130867
0.000130865
0.000130857
0.000130855
0.000130847
0.000130846
0.000130837
0.000130837
0.000130829
0.000130829
0.000130821
0.000130822
0.000130814
0.000130816
0.000130809
0.000130811
0.000130804
0.000130808
0.000130801
0.000130805
0.000130799
0.000130803
0.000130798
0.000130803
0.000130799
0.000130804
0.0001308
0.000130807
0.000130804
0.00013081
0.000130808
0.000130815
0.000130814
0.000130821
0.00013082
0.000130827
0.000130827
0.000130834
0.000130835
0.000130842
0.000130843
0.00013085
0.000130851
0.000130859
0.00013086
0.000130867
0.000130869
0.000130876
0.000130878
0.000130884
0.000130886
0.000130892
0.000130894
0.0001309
0.000130902
0.000130908
0.00013091
0.000130915
0.000130917
0.000130921
0.000130923
0.000130927
0.000130929
0.000130933
0.000130935
0.000130938
0.00013094
0.000130942
0.000130944
0.000130946
0.000130948
0.00013095
0.000130951
0.000130953
0.000130954
0.000130954
0.000130955
0.000130956
0.000130957
0.000130958
0.000130959
0.000130959
0.000130959
0.000130958
0.000130958
0.000130958
0.000130959
0.000130959
0.00013096
0.00013096
0.000130959
0.000130958
0.000130957
0.000130957
0.000130958
0.000130959
0.000130959
0.00013096
0.000130958
0.000130957
0.000130955
0.000130955
0.000130956
0.000130957
0.000130959
0.000130958
0.000130956
0.000130955
0.000130956
0.000130952
0.000130954
0.00013095
0.000130964
0.000130942
0.000130875
0.000130913
0.000130797
0.000130839
0.000130018
0.000128256
0.000128086
0.000127974
0.000128035
9.49235e-05
0.000107178
0.000136999
0.00013291
0.000102475
8.26416e-05
6.66252e-05
5.53628e-05
4.73498e-05
4.11415e-05
3.62435e-05
3.32769e-05
3.20804e-05
3.24168e-05
3.388e-05
3.64629e-05
4.00864e-05
4.46691e-05
4.99931e-05
5.58116e-05
6.20158e-05
6.84803e-05
7.50638e-05
8.15781e-05
8.77704e-05
9.3499e-05
9.86595e-05
0.000103231
0.000107244
0.000110743
0.000113787
0.00011642
0.000118693
0.000120655
0.000122351
0.000123818
0.000125084
0.000126175
0.000127114
0.000127922
0.000128617
0.000129214
0.000129727
0.000130167
0.000130545
0.000130869
0.000131147
0.000131385
0.000131589
0.000131764
0.000131914
0.000132041
0.000132152
0.000132245
0.00013234
0.000132403
0.000132578
0.000132538
0.000132881
0.000133268
0.000132723
0.00013169
0.000131075
0.000130612
0.000130415
0.00013041
0.000130584
0.000130901
0.000131306
0.000131745
0.000132182
0.000132593
0.000132963
0.000133289
0.000133568
0.000133805
0.000134002
0.000134164
0.000134295
0.000134401
0.000134486
0.000134553
0.000134606
0.000134648
0.000134681
0.000134707
0.000134727
0.000134743
0.000134756
0.000134766
0.000134774
0.000134781
0.000134786
0.000134791
0.000134794
0.000134797
0.0001348
0.000134803
0.000134805
0.000134807
0.000134809
0.00013481
0.000134811
0.000134813
0.000134814
0.000134815
0.000134816
0.000134817
0.000134817
0.000134818
0.000134818
0.000134819
0.000134819
0.00013482
0.00013482
0.00013482
0.000134821
0.000134821
0.000134821
0.000134821
0.000134821
0.000134821
0.000134821
0.000134821
0.000134822
0.000134821
0.000134822
0.000134822
0.000134822
0.000134822
0.000134822
0.000134822
0.000134822
0.000134822
0.000134822
0.000134822
0.000134821
0.000134821
0.000134821
0.000134821
0.000134821
0.000134821
0.000134821
0.000134821
0.00013482
0.00013482
0.000134819
0.000134819
0.000134818
0.000134818
0.000134817
0.000134816
0.000134815
0.000134813
0.000134812
0.00013481
0.000134808
0.000134807
0.000134804
0.000134802
0.000134799
0.000134797
0.000134794
0.000134791
0.000134787
0.000134784
0.00013478
0.000134776
0.000134772
0.000134768
0.000134763
0.000134759
0.000134754
0.00013475
0.000134744
0.00013474
0.000134734
0.00013473
0.000134724
0.000134719
0.000134714
0.000134709
0.000134704
0.0001347
0.000134695
0.000134691
0.000134686
0.000134682
0.000134679
0.000134675
0.000134672
0.000134669
0.000134667
0.000134664
0.000134662
0.00013466
0.000134659
0.000134658
0.000134657
0.000134656
0.000134657
0.000134656
0.000134657
0.000134658
0.000134659
0.00013466
0.000134663
0.000134665
0.000134667
0.00013467
0.000134673
0.000134675
0.000134679
0.000134682
0.000134686
0.00013469
0.000134694
0.000134698
0.000134703
0.000134706
0.000134711
0.000134715
0.00013472
0.000134724
0.000134729
0.000134733
0.000134738
0.000134741
0.000134746
0.00013475
0.000134754
0.000134758
0.000134762
0.000134766
0.00013477
0.000134773
0.000134776
0.000134779
0.000134783
0.000134786
0.000134789
0.000134792
0.000134795
0.000134797
0.000134799
0.000134801
0.000134803
0.000134806
0.000134808
0.00013481
0.000134811
0.000134812
0.000134813
0.000134813
0.000134814
0.000134816
0.000134817
0.000134817
0.000134818
0.000134818
0.000134817
0.000134817
0.000134817
0.000134818
0.000134819
0.000134819
0.000134819
0.000134819
0.000134818
0.000134817
0.000134817
0.000134817
0.000134818
0.000134819
0.000134819
0.000134818
0.000134816
0.000134815
0.000134815
0.000134815
0.000134816
0.000134817
0.000134817
0.000134815
0.000134814
0.000134815
0.000134813
0.000134816
0.000134812
0.000134829
0.000134806
0.000134776
0.000134827
0.000134708
0.00013474
0.000134186
0.00013323
0.00013275
0.000132337
0.000132267
)
;

boundaryField
{
    inlet
    {
        type            calculated;
        value           nonuniform List<scalar> 8(1.69658e-06 1.11548e-05 3.19507e-05 7.47651e-05 9.68371e-05 9.50751e-05 0.000100007 9.24045e-05);
    }
    outlet
    {
        type            calculated;
        value           nonuniform List<scalar> 8(2.34923e-05 5.45374e-05 7.83094e-05 9.61603e-05 0.000109815 0.000120359 0.000128035 0.000132267);
    }
    sideWall
    {
        type            empty;
    }
    bed
    {
        type            nutRoughWallFunction;
        Cmu             0.09;
        kappa           0.41;