/*--------------------------------*- C++ -*----------------------------------*\
| =========                 |                                                 |
| \\      /  F ield         | foam-extend: Open Source CFD                    |
|  \\    /   O peration     | Version:     3.2                                |
|   \\  /    A nd           | Web:         http://www.foam-extend.org         |
|    \\/     M anipulation  | For copyright notice see file Copyright         |
\*---------------------------------------------------------------------------*/
FoamFile
{
    version     2.0;
    format      ascii;
    class       volScalarField;
    location    "2000";
    object      omega;
}
// * * * * * * * * * * * * * * * * * * * * * * * * * * * * * * * * * * * * * //

dimensions      [0 0 -1 0 0 0 0];

internalField   nonuniform List<scalar> 
2400
(
147.023
162.403
149.602
137.72
130.439
127.307
126.076
125.923
126.13
126.552
127.058
127.571
128.066
128.586
129.083
129.585
130.113
130.64
131.176
131.715
132.253
132.79
133.34
133.904
134.449
134.949
135.399
135.794
136.136
136.428
136.678
136.891
137.068
137.214
137.33
137.426
137.506
137.573
137.629
137.677
137.717
137.753
137.781
137.807
137.828
137.847
137.861
137.876
137.886
137.899
137.902
137.92
137.903
137.955
137.859
138.073
137.617
138.497
135.147
141.335
155.924
152.904
147.203
147.723
147.207
146.977
146.696
146.549
146.492
146.482
146.489
146.498
146.512
146.527
146.544
146.56
146.578
146.593
146.608
146.62
146.63
146.638
146.644
146.648
146.653
146.655
146.659
146.661
146.664
146.665
146.667
146.668
146.67
146.671
146.672
146.672
146.673
146.673
146.674
146.674
146.675
146.676
146.675
146.675
146.675
146.675
146.676
146.676
146.676
146.676
146.677
146.676
146.676
146.676
146.676
146.676
146.676
146.676
146.676
146.676
146.676
146.677
146.677
146.677
146.676
146.676
146.676
146.676
146.675
146.676
146.675
146.676
146.675
146.676
146.676
146.676
146.677
146.675
146.678
146.674
146.68
146.672
146.682
146.67
146.682
146.668
146.684
146.665
146.686
146.662
146.688
146.659
146.691
146.655
146.694
146.651
146.698
146.647
146.702
146.642
146.706
146.638
146.71
146.633
146.714
146.628
146.718
146.623
146.721
146.619
146.725
146.615
146.727
146.612
146.731
146.61
146.733
146.608
146.735
146.607
146.735
146.607
146.735
146.607
146.734
146.608
146.733
146.609
146.732
146.612
146.729
146.614
146.726
146.617
146.725
146.622
146.722
146.626
146.718
146.631
146.715
146.635
146.711
146.64
146.708
146.645
146.706
146.651
146.704
146.656
146.701
146.66
146.699
146.665
146.697
146.669
146.696
146.673
146.695
146.677
146.694
146.68
146.693
146.683
146.693
146.686
146.693
146.687
146.692
146.689
146.692
146.691
146.692
146.692
146.692
146.692
146.691
146.693
146.692
146.693
146.692
146.693
146.692
146.693
146.691
146.693
146.692
146.692
146.691
146.692
146.691
146.692
146.691
146.691
146.69
146.69
146.69
146.69
146.69
146.69
146.689
146.689
146.69
146.689
146.69
146.688
146.689
146.689
146.689
146.689
146.688
146.689
146.689
146.686
146.69
146.687
146.691
146.689
146.689
146.692
146.688
146.691
146.687
146.698
146.684
146.688
146.736
146.633
146.774
146.397
147.113
146.409
146.347
147.304
145.413
150.997
139.426
131.701
135.46
136.306
48.8445
66.6047
65.0688
63.5222
61.8671
60.2391
58.7711
57.5158
56.4922
55.6948
55.0941
54.6337
54.2922
54.0441
53.9034
53.8179
53.785
53.798
53.8484
53.9264
54.0276
54.1391
54.2507
54.3603
54.4685
54.5709
54.6655
54.7513
54.8279
54.8952
54.9538
55.0055
55.0505
55.0893
55.1215
55.1483
55.1705
55.1897
55.2057
55.2197
55.2313
55.2416
55.25
55.2576
55.2636
55.2693
55.2734
55.2778
55.2805
55.284
55.2861
55.2889
55.2897
55.293
55.2901
55.3021
55.2939
55.4906
55.2091
53.8615
56.1466
60.4964
60.1139
59.8151
59.7863
59.7059
59.5705
59.4165
59.2817
59.1768
59.0955
59.03
58.9782
58.9365
58.9037
58.8774
58.8577
58.8429
58.8324
58.8249
58.8197
58.8162
58.8139
58.8123
58.8116
58.8112
58.8112
58.8115
58.812
58.8128
58.8136
58.8145
58.8152
58.8159
58.8167
58.8175
58.8179
58.8184
58.8188
58.8192
58.8195
58.8198
58.8203
58.8204
58.8205
58.8205
58.8206
58.8207
58.8207
58.8208
58.8209
58.8211
58.821
58.8209
58.8209
58.8208
58.8208
58.8207
58.8207
58.8208
58.8208
58.8208
58.8209
58.8209
58.8211
58.821
58.821
58.8208
58.8208
58.8206
58.8208
58.8206
58.8208
58.8206
58.8209
58.8206
58.821
58.8207
58.821
58.8212
58.8204
58.8219
58.8203
58.8226
58.8201
58.8229
58.8196
58.8235
58.8191
58.8243
58.8187
58.8254
58.8184
58.8268
58.8181
58.8285
58.8177
58.8304
58.8175
58.8325
58.8172
58.8349
58.817
58.8375
58.8169
58.8403
58.8168
58.8432
58.8168
58.8462
58.8169
58.8492
58.8171
58.852
58.8174
58.8552
58.8182
58.8582
58.819
58.8608
58.8199
58.8631
58.8207
58.865
58.8216
58.8665
58.8225
58.8678
58.8234
58.8686
58.8243
58.8691
58.8252
58.869
58.826
58.8691
58.8271
58.8688
58.828
58.868
58.8288
58.8668
58.8295
58.8652
58.83
58.8633
58.8304
58.8618
58.8311
58.8601
58.8317
58.8582
58.832
58.856
58.8321
58.8539
58.8322
58.8522
58.8324
58.8502
58.8322
58.8482
58.832
58.8464
58.8317
58.8451
58.8317
58.8431
58.8314
58.8409
58.8311
58.8397
58.8313
58.8386
58.8311
58.8364
58.8306
58.8344
58.8302
58.8341
58.8302
58.8336
58.8298
58.8316
58.8288
58.8302
58.8288
58.8306
58.8291
58.8306
58.8288
58.829
58.8278
58.8283
58.828
58.8288
58.8286
58.8293
58.8286
58.828
58.8273
58.8274
58.8275
58.8283
58.8284
58.829
58.8281
58.8275
58.8269
58.8274
58.8276
58.8281
58.8287
58.8289
58.8279
58.8277
58.8267
58.8279
58.8278
58.8294
58.8296
58.8294
58.829
58.8273
58.8291
58.8249
58.8357
58.8323
58.8386
58.8457
58.7773
58.9794
58.755
58.9591
58.6584
59.0124
61.1309
57.8174
56.1696
55.6213
16.6509
28.0769
33.4926
36.4635
37.3883
36.8736
35.9885
35.3124
34.8073
34.3973
33.9977
33.6048
33.251
32.9549
32.7161
32.519
32.3656
32.2424
32.1512
32.0817
32.0292
31.9864
31.9417
31.8921
31.8417
31.7917
31.7426
31.6954
31.6505
31.6083
31.5691
31.5334
31.5016
31.4734
31.4487
31.4269
31.4079
31.3914
31.3771
31.3648
31.3541
31.3449
31.337
31.3301
31.3243
31.3192
31.315
31.3111
31.3081
31.3051
31.3028
31.3006
31.2993
31.2973
31.2975
31.2956
31.3131
31.4361
31.5226
30.1426
30.2153
32.6361
33.0478
33.2299
33.4144
33.5463
33.6195
33.6298
33.6111
33.5795
33.5459
33.511
33.4779
33.4464
33.4189
33.3939
33.3722
33.3536
33.338
33.3252
33.3148
33.3063
33.2996
33.2943
33.29
33.2868
33.2841
33.2823
33.2808
33.2799
33.2793
33.279
33.2789
33.2788
33.2789
33.2791
33.2793
33.2795
33.2796
33.2798
33.28
33.2802
33.2805
33.2806
33.2807
33.2808
33.2808
33.2809
33.2809
33.2809
33.281
33.2812
33.2812
33.2812
33.2811
33.2811
33.2811
33.281
33.281
33.281
33.281
33.281
33.281
33.281
33.2812
33.2812
33.2812
33.2811
33.2811
33.281
33.2811
33.2809
33.2811
33.2809
33.2811
33.2809
33.2811
33.281
33.281
33.2812
33.2808
33.2816
33.2807
33.2821
33.2807
33.2826
33.2804
33.2831
33.2801
33.2837
33.2798
33.2846
33.2795
33.2856
33.2791
33.2869
33.2788
33.2885
33.2785
33.2902
33.2781
33.2922
33.2778
33.2944
33.2775
33.2968
33.2773
33.2993
33.277
33.302
33.2768
33.3048
33.2768
33.3074
33.2766
33.3101
33.2768
33.3129
33.277
33.3154
33.2774
33.3176
33.2781
33.3194
33.2788
33.3209
33.2795
33.3221
33.2803
33.323
33.2811
33.3236
33.2818
33.3237
33.2825
33.3237
33.2834
33.3234
33.2843
33.3228
33.2851
33.3218
33.2859
33.3205
33.2865
33.3189
33.287
33.3173
33.2876
33.3156
33.2882
33.3137
33.2886
33.3118
33.289
33.3098
33.2892
33.3078
33.2895
33.3058
33.2896
33.3039
33.2898
33.302
33.2897
33.3004
33.2897
33.2986
33.2895
33.2971
33.2893
33.2958
33.2891
33.2945
33.2889
33.2927
33.2887
33.2914
33.2882
33.2907
33.2879
33.2899
33.2874
33.2888
33.2869
33.288
33.2867
33.2877
33.2865
33.2872
33.2861
33.2864
33.2858
33.2862
33.2858
33.2861
33.2856
33.2859
33.2854
33.2854
33.2852
33.2855
33.2853
33.2857
33.2853
33.2855
33.2848
33.285
33.2849
33.2854
33.2855
33.2855
33.2854
33.2851
33.2845
33.2848
33.2845
33.2858
33.2856
33.2861
33.2855
33.2847
33.2846
33.2841
33.2865
33.2828
33.2878
33.291
33.2907
33.2947
33.2339
33.4014
33.2629
33.3462
33.1985
33.0876
35.6779
34.2637
33.1092
32.4783
5.49205
10.8558
15.3995
18.9253
21.7935
23.6809
24.7245
25.185
25.1964
24.8974
24.5818
24.3669
24.1976
24.0544
23.8938
23.7127
23.5335
23.3622
23.2012
23.0425
22.884
22.7175
22.5501
22.3855
22.2244
22.0679
21.9174
21.7753
21.6427
21.5211
21.4107
21.3115
21.2235
21.1463
21.0793
21.0214
20.9715
20.9286
20.8917
20.8599
20.8326
20.8092
20.7891
20.7717
20.7571
20.7442
20.7336
20.724
20.7163
20.7091
20.7033
20.698
20.6941
20.69
20.6885
20.6842
20.698
20.7731
20.8863
19.9816
19.5875
20.7969
21.1642
21.4159
21.6464
21.842
21.9979
22.0941
22.1499
22.1775
22.1881
22.1864
22.1774
22.1633
22.1473
22.1301
22.1134
22.0975
22.083
22.0701
22.0589
22.0493
22.0411
22.0342
22.0285
22.0238
22.0199
22.0168
22.0143
22.0124
22.0109
22.0098
22.009
22.0085
22.008
22.0079
22.0077
22.0077
22.0076
22.0076
22.0077
22.0077
22.0079
22.008
22.008
22.0081
22.0081
22.0082
22.0082
22.0082
22.0082
22.0084
22.0084
22.0084
22.0084
22.0084
22.0084
22.0084
22.0083
22.0083
22.0083
22.0083
22.0083
22.0083
22.0084
22.0084
22.0084
22.0084
22.0084
22.0083
22.0084
22.0083
22.0084
22.0082
22.0084
22.0082
22.0083
22.0083
22.0083
22.0084
22.0082
22.0086
22.0081
22.0089
22.0082
22.0092
22.0081
22.0095
22.008
22.0099
22.0079
22.0104
22.0077
22.011
22.0076
22.0117
22.0075
22.0126
22.0074
22.0136
22.0074
22.0148
22.0073
22.0161
22.0073
22.0176
22.0074
22.0192
22.0075
22.0208
22.0076
22.0225
22.0079
22.0242
22.0081
22.0259
22.0084
22.0277
22.0088
22.0293
22.0093
22.0309
22.01
22.0322
22.0106
22.0335
22.0113
22.0345
22.0119
22.0353
22.0125
22.036
22.0132
22.0363
22.0137
22.0365
22.0142
22.0365
22.0148
22.0364
22.0153
22.036
22.0158
22.0354
22.0162
22.0346
22.0164
22.0336
22.0166
22.0326
22.0168
22.0315
22.017
22.0303
22.0171
22.029
22.017
22.0277
22.017
22.0263
22.017
22.025
22.0169
22.0237
22.0167
22.0224
22.0165
22.0213
22.0162
22.0203
22.0159
22.0193
22.0155
22.0183
22.0151
22.0172
22.0148
22.0164
22.0144
22.0157
22.014
22.015
22.0135
22.0143
22.0132
22.0138
22.013
22.0134
22.0126
22.0128
22.0121
22.0123
22.012
22.0123
22.012
22.012
22.0116
22.0116
22.0113
22.0114
22.0114
22.0117
22.0115
22.0116
22.0112
22.011
22.0107
22.0109
22.011
22.0116
22.0116
22.0115
22.011
22.0106
22.0102
22.0106
22.0107
22.0118
22.0118
22.0117
22.0108
22.0098
22.01
22.0102
22.0118
22.0096
22.0121
22.0152
22.0136
22.0161
21.983
22.0755
22.0027
22.0433
21.9665
21.936
23.6315
23.0936
22.4779
22.047
1.95973
4.13035
6.37637
8.44126
10.5954
12.7036
14.7855
16.5398
17.7819
18.5173
18.9003
19.0743
19.0667
18.9448
18.7933
18.6576
18.5325
18.3987
18.2421
18.0569
17.8423
17.6105
17.3736
17.1363
16.9023
16.6749
16.4572
16.253
16.0648
15.8944
15.7414
15.6053
15.4855
15.381
15.291
15.2136
15.1471
15.09
15.0411
14.999
14.963
14.9321
14.9056
14.8829
14.8635
14.8468
14.8327
14.8204
14.81
14.8009
14.7932
14.7865
14.7812
14.7761
14.7731
14.7688
14.776
14.8204
14.8785
14.3737
14.0377
14.6417
14.8488
15.031
15.2173
15.3916
15.5473
15.6629
15.7469
15.8047
15.8433
15.8665
15.8785
15.8821
15.8802
15.8744
15.8663
15.8573
15.848
15.8388
15.8301
15.8221
15.815
15.8087
15.8033
15.7986
15.7946
15.7913
15.7885
15.7862
15.7844
15.7829
15.7818
15.7809
15.7802
15.7797
15.7794
15.7791
15.7789
15.7788
15.7787
15.7787
15.7787
15.7788
15.7788
15.7788
15.7788
15.7789
15.7789
15.7789
15.7789
15.779
15.779
15.779
15.779
15.779
15.779
15.779
15.779
15.779
15.779
15.779
15.779
15.779
15.779
15.779
15.7791
15.779
15.7791
15.779
15.779
15.779
15.779
15.779
15.779
15.7789
15.779
15.779
15.7789
15.779
15.7789
15.7791
15.7789
15.7793
15.779
15.7795
15.779
15.7797
15.7789
15.7799
15.7789
15.7802
15.7789
15.7805
15.7789
15.7809
15.7789
15.7814
15.7789
15.782
15.779
15.7827
15.7791
15.7835
15.7793
15.7844
15.7795
15.7854
15.7797
15.7864
15.78
15.7875
15.7803
15.7885
15.7807
15.7896
15.7811
15.7907
15.7815
15.7918
15.782
15.7928
15.7826
15.7938
15.7832
15.7947
15.7838
15.7954
15.7843
15.7961
15.7849
15.7967
15.7854
15.797
15.7858
15.7973
15.7862
15.7974
15.7866
15.7974
15.7869
15.7973
15.7872
15.7971
15.7874
15.7967
15.7875
15.7962
15.7876
15.7957
15.7876
15.795
15.7876
15.7944
15.7875
15.7936
15.7874
15.7928
15.7872
15.792
15.787
15.7912
15.7868
15.7904
15.7865
15.7895
15.7862
15.7888
15.7859
15.7881
15.7856
15.7874
15.7852
15.7867
15.7848
15.786
15.7846
15.7855
15.7842
15.7849
15.7838
15.7843
15.7834
15.7839
15.7832
15.7835
15.783
15.7831
15.7825
15.7826
15.7821
15.7823
15.7821
15.7823
15.7821
15.782
15.7816
15.7815
15.7813
15.7814
15.7815
15.7817
15.7816
15.7816
15.7812
15.7809
15.7807
15.781
15.7811
15.7817
15.7817
15.7815
15.781
15.7805
15.7803
15.7807
15.7809
15.7819
15.7819
15.7816
15.7807
15.7798
15.78
15.7804
15.7815
15.7803
15.7817
15.7836
15.7823
15.7838
15.768
15.8179
15.7775
15.8018
15.7604
15.8003
16.826
16.5767
16.2603
16.0069
0.813661
1.68731
2.56528
3.62233
4.76696
5.98609
7.32907
8.84316
10.4397
11.9326
13.1664
14.0944
14.7124
15.0652
15.2393
15.2992
15.2637
15.1429
14.9548
14.7223
14.4625
14.1988
13.9374
13.6746
13.413
13.157
12.9133
12.6882
12.4849
12.3042
12.1444
12.004
11.8815
11.7755
11.6847
11.6068
11.5399
11.4825
11.4333
11.3911
11.355
11.324
11.2975
11.2748
11.2554
11.2388
11.2246
11.2124
11.202
11.1931
11.1853
11.1787
11.1732
11.1684
11.1649
11.1612
11.1644
11.1888
11.21
10.9844
10.8051
11.1125
11.2213
11.3346
11.463
11.5924
11.7146
11.8174
11.9005
11.9653
12.0146
12.0507
12.0759
12.0924
12.1022
12.1069
12.1079
12.1064
12.1033
12.0991
12.0945
12.0896
12.0849
12.0804
12.0763
12.0726
12.0692
12.0663
12.0638
12.0617
12.0599
12.0584
12.0572
12.0562
12.0554
12.0548
12.0543
12.054
12.0537
12.0535
12.0534
12.0533
12.0532
12.0532
12.0532
12.0532
12.0532
12.0532
12.0532
12.0532
12.0532
12.0533
12.0533
12.0533
12.0533
12.0534
12.0534
12.0534
12.0534
12.0533
12.0533
12.0533
12.0533
12.0533
12.0534
12.0534
12.0534
12.0534
12.0534
12.0534
12.0534
12.0533
12.0534
12.0533
12.0534
12.0533
12.0533
12.0533
12.0533
12.0533
12.0533
12.0534
12.0533
12.0535
12.0534
12.0536
12.0534
12.0537
12.0534
12.0539
12.0534
12.054
12.0534
12.0542
12.0535
12.0545
12.0535
12.0548
12.0536
12.0552
12.0537
12.0556
12.0539
12.0561
12.0541
12.0567
12.0543
12.0573
12.0546
12.0579
12.0549
12.0586
12.0552
12.0593
12.0556
12.06
12.0559
12.0608
12.0564
12.0615
12.0568
12.0622
12.0573
12.0629
12.0578
12.0635
12.0583
12.0641
12.0587
12.0646
12.0592
12.065
12.0596
12.0654
12.0599
12.0656
12.0602
12.0658
12.0605
12.0659
12.0607
12.0659
12.0609
12.0658
12.061
12.0656
12.061
12.0654
12.0611
12.0651
12.061
12.0647
12.061
12.0644
12.0609
12.0639
12.0607
12.0634
12.0605
12.0629
12.0603
12.0624
12.0601
12.0619
12.0598
12.0614
12.0595
12.0609
12.0593
12.0604
12.059
12.0599
12.0587
12.0594
12.0584
12.059
12.0581
12.0586
12.0579
12.0582
12.0575
12.0577
12.0572
12.0574
12.057
12.0572
12.0568
12.0568
12.0565
12.0564
12.0561
12.0562
12.0561
12.0562
12.0561
12.0559
12.0557
12.0555
12.0554
12.0555
12.0556
12.0557
12.0557
12.0556
12.0553
12.055
12.0549
12.0551
12.0553
12.0557
12.0557
12.0555
12.0551
12.0547
12.0546
12.0549
12.0552
12.0559
12.0559
12.0556
12.0549
12.0543
12.0544
12.0548
12.0555
12.0549
12.0556
12.0568
12.056
12.0568
12.0498
12.0767
12.056
12.0708
12.0504
12.1001
12.6841
12.5349
12.3575
12.206
0.410772
0.809134
1.27142
1.77941
2.30656
2.87198
3.64695
4.51932
5.51963
6.6204
7.73963
8.87448
9.92617
10.7974
11.4699
11.9384
12.2217
12.3527
12.3531
12.2467
12.0666
11.8304
11.5544
11.2588
10.9742
10.7178
10.4935
10.2977
10.1262
9.97571
9.84338
9.72723
9.62586
9.53801
9.46236
9.3971
9.3409
9.29251
9.25093
9.21518
9.18453
9.1582
9.13566
9.1163
9.09976
9.08556
9.07345
9.06303
9.05418
9.04655
9.04001
9.03437
9.02965
9.02552
9.02261
9.01965
9.02274
9.03452
9.04598
8.99753
8.94405
9.12391
9.19735
9.27235
9.35832
9.4481
9.53552
9.61611
9.68733
9.748
9.79834
9.83889
9.87051
9.89438
9.91168
9.92362
9.93125
9.9356
9.9375
9.93766
9.93658
9.93469
9.93231
9.92969
9.927
9.92439
9.9219
9.91963
9.91757
9.91577
9.91419
9.91284
9.91171
9.91076
9.90998
9.90935
9.90885
9.90845
9.90815
9.90792
9.90775
9.90763
9.90755
9.9075
9.90748
9.90746
9.90746
9.90747
9.90748
9.90749
9.90751
9.90754
9.90756
9.90757
9.90758
9.90759
9.9076
9.9076
9.9076
9.90761
9.90761
9.90761
9.90761
9.90761
9.90762
9.90762
9.90764
9.90763
9.90763
9.90762
9.90763
9.90761
9.90762
9.9076
9.90762
9.9076
9.90761
9.9076
9.90759
9.90761
9.90759
9.90765
9.90761
9.90771
9.90765
9.90777
9.90767
9.90784
9.9077
9.90792
9.90773
9.90802
9.90777
9.90814
9.90783
9.9083
9.90791
9.9085
9.90801
9.90873
9.90815
9.90901
9.90831
9.90933
9.90851
9.9097
9.90874
9.9101
9.909
9.91053
9.90929
9.911
9.90961
9.91147
9.90995
9.91198
9.91031
9.91249
9.9107
9.91301
9.9111
9.91352
9.9115
9.91401
9.9119
9.91448
9.91229
9.91491
9.91266
9.9153
9.91301
9.91564
9.91332
9.91592
9.91359
9.91615
9.91383
9.91632
9.91403
9.91644
9.9142
9.9165
9.91432
9.9165
9.9144
9.91644
9.91442
9.91633
9.91441
9.91618
9.91436
9.91599
9.91429
9.91577
9.91419
9.91551
9.91404
9.91522
9.91389
9.91493
9.91372
9.91463
9.91353
9.91428
9.91329
9.91393
9.91306
9.91361
9.91285
9.91331
9.91262
9.91296
9.91234
9.91262
9.91209
9.91233
9.9119
9.91206
9.91166
9.91174
9.91137
9.91141
9.91112
9.91121
9.91098
9.91103
9.9108
9.91074
9.9105
9.91042
9.91027
9.9103
9.91022
9.91026
9.91012
9.91
9.90983
9.90971
9.90965
9.90972
9.90975
9.90983
9.90974
9.90964
9.90947
9.90933
9.90928
9.90941
9.90952
9.90973
9.90966
9.90951
9.90932
9.90912
9.90906
9.90927
9.90947
9.90986
9.90977
9.90958
9.90925
9.90896
9.90906
9.9094
9.9097
9.90947
9.90986
9.91049
9.91013
9.9108
9.90823
9.92094
9.91566
9.92329
9.91634
9.94693
10.233
10.1312
10.0151
9.91243
0.286685
0.503854
0.836723
1.1939
1.53681
1.88787
2.32436
2.78987
3.28648
3.87539
4.60961
5.41153
6.24606
7.06939
7.81159
8.45498
8.97456
9.34312
9.59013
9.7507
9.82066
9.80784
9.72843
9.60331
9.4498
9.29251
9.14262
9.00459
8.87976
8.76734
8.66739
8.57817
8.49883
8.42879
8.36762
8.31465
8.2688
8.22915
8.19494
8.16543
8.14003
8.11816
8.09939
8.08326
8.06943
8.05756
8.0474
8.03869
8.03124
8.02485
8.01938
8.01467
8.01069
8.00723
8.00568
8.00281
8.01283
8.01394
8.03055
8.06359
8.11471
8.23226
8.2999
8.35653
8.42106
8.48818
8.55585
8.62136
8.6828
8.73827
8.78674
8.82778
8.86135
8.88806
8.90859
8.92385
8.9347
8.94202
8.94657
8.94902
8.9499
8.94965
8.94863
8.94711
8.9453
8.94338
8.94145
8.9396
8.93787
8.93631
8.93491
8.93369
8.93264
8.93176
8.93101
8.9304
8.92991
8.92952
8.92921
8.92897
8.9288
8.92867
8.92858
8.92852
8.92849
8.92847
8.92846
8.92847
8.92848
8.92849
8.92851
8.92853
8.92855
8.92856
8.92858
8.92859
8.92859
8.9286
8.9286
8.92861
8.92861
8.92862
8.92862
8.92862
8.92863
8.92863
8.92864
8.92863
8.92863
8.92863
8.92863
8.92862
8.92862
8.92861
8.92862
8.92861
8.92862
8.92861
8.92861
8.92862
8.92862
8.92864
8.92864
8.92868
8.92866
8.92872
8.92869
8.92876
8.92871
8.92881
8.92875
8.92887
8.9288
8.92896
8.92886
8.92907
8.92895
8.9292
8.92906
8.92937
8.9292
8.92957
8.92936
8.92981
8.92956
8.93007
8.92978
8.93037
8.93004
8.93069
8.93031
8.93104
8.93061
8.93141
8.93093
8.9318
8.93128
8.93221
8.93164
8.93262
8.93201
8.93303
8.93237
8.93342
8.93273
8.9338
8.93307
8.93415
8.93339
8.93448
8.93369
8.93477
8.93396
8.93502
8.9342
8.93523
8.93441
8.93541
8.93458
8.93554
8.93471
8.93562
8.93481
8.93566
8.93486
8.93565
8.93488
8.93561
8.93487
8.93554
8.93483
8.93544
8.93477
8.93531
8.93467
8.93514
8.93454
8.93496
8.93441
8.93477
8.93426
8.93457
8.93409
8.93432
8.93388
8.93408
8.93369
8.93386
8.93351
8.93363
8.9333
8.93337
8.93306
8.93311
8.93285
8.93291
8.93268
8.93269
8.93246
8.93242
8.93221
8.93217
8.93201
8.93201
8.93188
8.93185
8.93169
8.93159
8.93144
8.93135
8.93127
8.93127
8.93121
8.93118
8.93106
8.93094
8.93083
8.93076
8.93073
8.93077
8.93077
8.93078
8.93068
8.93057
8.93047
8.93043
8.93043
8.93052
8.93057
8.93063
8.93053
8.9304
8.93031
8.93027
8.9303
8.93045
8.93056
8.93069
8.93056
8.93041
8.93031
8.9303
8.93044
8.93066
8.93079
8.93079
8.93095
8.93161
8.93126
8.93281
8.93146
8.93734
8.94522
8.94514
8.94908
8.95728
9.07583
9.00102
8.90226
8.82364
)
;

boundaryField
{
    inlet
    {
        type            fixedValue;
        value           uniform 0.18449;
    }
    outlet
    {
        type            zeroGradient;
    }
    sideWall
    {
        type            empty;
    }
    bed
    {
        type            omegaWallFunction;
        refValue        nonuniform List<scalar> 
300
(
147.023
162.403
149.602
137.72
130.439
127.307
126.076
125.923
126.13
126.552
127.058
127.571
128.066
128.586
129.083
129.585
130.113
130.64
131.176
131.715
132.253
132.79
133.34
133.904
134.449
134.949
135.399
135.794
136.136
136.428
136.678
136.891
137.068
137.214
137.33
137.426
137.506
137.573
137.629
137.677
137.717
137.753
137.781
137.807
137.828
137.847
137.861
137.876
137.886
137.899
137.902
137.92
137.903
137.955
137.859
138.073
137.617
138.497
135.147
141.335
155.924
152.904
147.203
147.723
147.207
146.977
146.696
146.549
146.492
146.482
146.489
146.498
146.512
146.527
146.544
146.56
146.578
146.593
146.608
146.62
146.63
146.638
146.644
146.648
146.653
146.655
146.659
146.661
146.664
146.665
146.667
146.668
146.67
146.671
146.672
146.672
146.673
146.673
146.674
146.674
146.675
146.676
146.675
146.675
146.675
146.675
146.676
146.676
146.676
146.676
146.677
146.676
146.676
146.676
146.676
146.676
146.676
146.676
146.676
146.676
146.676
146.677
146.677
146.677
146.676
146.676
146.676
146.676
146.675
146.676
146.675
146.676
146.675
146.676
146.676
146.676
146.677
146.675
146.678
146.674
146.68
146.672
146.682
146.67
146.682
146.668
146.684
146.665
146.686
146.662
146.688
146.659
146.691
146.655
146.694
146.651
146.698
146.647
146.702
146.642
146.706
146.638
146.71
146.633
146.714
146.628
146.718
146.623
146.721
146.619
146.725
146.615
146.727
146.612
146.731
146.61
146.733
146.608
146.735
146.607
146.735
146.607
146.735
146.607
146.734
146.608
146.733
146.609
146.732
146.612
146.729
146.614
146.726
146.617
146.725
146.622
146.722
146.626
146.718
146.631
146.715
146.635
146.711
146.64
146.708
146.645
146.706
146.651
146.704
146.656
146.701
146.66
146.699
146.665
146.697
146.669
146.696
146.673
146.695
146.677
146.694
146.68
146.693
146.683
146.693
146.686
146.693
146.687
146.692
146.689
146.692
146.691
146.692
146.692
146.692
146.692
146.691
146.693
146.692
146.693
146.692
146.693
146.692
146.693
146.691
146.693
146.692
146.692
146.691
146.692
146.691
146.692
146.691
146.691
146.69
146.69
146.69
146.69
146.69
146.69
146.689
146.689
146.69
146.689
146.69
146.688
146.689
146.689
146.689
146.689
146.688
146.689
146.689
146.686
146.69
146.687
146.691
146.689
146.689
146.692
146.688
146.691
146.687
146.698
146.684
146.688
146.736
146.633
146.774
146.397
147.113
146.409
146.347
147.304
145.413
150.997
139.426
131.701
135.46
136.306
)
;
        value           nonuniform List<scalar> 
300
(
147.023
162.403
149.602
137.72
130.439
127.307
126.076
125.923
126.13
126.552
127.058
127.571
128.066
128.586
129.083
129.585
130.113
130.64
131.176
131.715
132.253
132.79
133.34
133.904
134.449
134.949
135.399
135.794
136.136
136.428
136.678
136.891
137.068
137.214
137.33
137.426
137.506
137.573
137.629
137.677
137.717
137.753
137.781
137.807
137.828
137.847
137.861
137.876
137.886
137.899
137.902
137.92
137.903
137.955
137.859
138.073
137.617
138.497
135.147
141.335
155.924
152.904
147.203
147.723
147.207
146.977
146.696
146.549
146.492
146.482
146.489
146.498
146.512
146.527
146.544
146.56
146.578
146.593
146.608
146.62
146.63
146.638
146.644
146.648
146.653
146.655
146.659
146.661
146.664
146.665
146.667
146.668
146.67
146.671
146.672
146.672
146.673
146.673
146.674
146.674
146.675
146.676
146.675
146.675
146.675
146.675
146.676
146.676
146.676
146.676
146.677
146.676
146.676
146.676
146.676
146.676
146.676
146.676
146.676
146.676
146.676
146.677
146.677
146.677
146.676
146.676
146.676
146.676
146.675
146.676
146.675
146.676
146.675
146.676
146.676
146.676
146.677
146.675
146.678
146.674
146.68
146.672
146.682
146.67
146.682
146.668
146.684
146.665
146.686
146.662
146.688
146.659
146.691
146.655
146.694
146.651
146.698
146.647
146.702
146.642
146.706
146.638
146.71
146.633
146.714
146.628
146.718
146.623
146.721
146.619
146.725
146.615
146.727
146.612
146.731
146.61
146.733
146.608
146.735
146.607
146.735
146.607
146.735
146.607
146.734
146.608
146.733
146.609
146.732
146.612
146.729
146.614
146.726
146.617
146.725
146.622
146.722
146.626
146.718
146.631
146.715
146.635
146.711
146.64
146.708
146.645
146.706
146.651
146.704
146.656
146.701
146.66
146.699
146.665
146.697
146.669
146.696
146.673
146.695
146.677
146.694
146.68
146.693
146.683
146.693
146.686
146.693
146.687
146.692
146.689
146.692
146.691
146.692
146.692
146.692
146.692
146.691
146.693
146.692
146.693
146.692
146.693
146.692
146.693
146.691
146.693
146.692
146.692
146.691
146.692
146.691
146.692
146.691
146.691
146.69
146.69
146.69
146.69
146.69
146.69
146.689
146.689
146.69
146.689
146.69
146.688
146.689
146.689
146.689
146.689
146.688
146.689
146.689
146.686
146.69
146.687
146.691
146.689
146.689
146.692
146.688
146.691
146.687
146.698
146.684
146.688
146.736
146.633
146.774
146.397
147.113
146.409
146.347
147.304
145.413
150.997
139.426
131.701
135.46
136.306
)
;
        Cmu             0.09;
        kappa           0.41;
        E               9.8;
        beta1           0.075;
    }
    topWall
    {
        type            slip;
        value           nonuniform List<scalar> 
300
(
0.286685
0.503854
0.836723
1.1939
1.53681
1.88787
2.32436
2.78987
3.28648
3.87539
4.60961
5.41153
6.24606
7.06939
7.81159
8.45498
8.97456
9.34312
9.59013
9.7507
9.82066
9.80784
9.72843
9.60331
9.4498
9.29251
9.14262
9.00459
8.87976
8.76734
8.66739
8.57817
8.49883
8.42879
8.36762
8.31465
8.2688
8.22915
8.19494
8.16543
8.14003
8.11816
8.09939
8.08326
8.06943
8.05756
8.0474
8.03869
8.03124
8.02485
8.01938
8.01467
8.01069
8.00723
8.00568
8.00281
8.01283
8.01394
8.03055
8.06359
8.11471
8.23226
8.2999
8.35653
8.42106
8.48818
8.55585
8.62136
8.6828
8.73827
8.78674
8.82778
8.86135
8.88806
8.90859
8.92385
8.9347
8.94202
8.94657
8.94902
8.9499
8.94965
8.94863
8.94711
8.9453
8.94338
8.94145
8.9396
8.93787
8.93631
8.93491
8.93369
8.93264
8.93176
8.93101
8.9304
8.92991
8.92952
8.92921
8.92897
8.9288
8.92867
8.92858
8.92852
8.92849
8.92847
8.92846
8.92847
8.92848
8.92849
8.92851
8.92853
8.92855
8.92856
8.92858
8.92859
8.92859
8.9286
8.9286
8.92861
8.92861
8.92862
8.92862
8.92862
8.92863
8.92863
8.92864
8.92863
8.92863
8.92863
8.92863
8.92862
8.92862
8.92861
8.92862
8.92861
8.92862
8.92861
8.92861
8.92862
8.92862
8.92864
8.92864
8.92868
8.92866
8.92872
8.92869
8.92876
8.92871
8.92881
8.92875
8.92887
8.9288
8.92896
8.92886
8.92907
8.92895
8.9292
8.92906
8.92937
8.9292
8.92957
8.92936
8.92981
8.92956
8.93007
8.92978
8.93037
8.93004
8.93069
8.93031
8.93104
8.93061
8.93141
8.93093
8.9318
8.93128
8.93221
8.93164
8.93262
8.93201
8.93303
8.93237
8.93342
8.93273
8.9338
8.93307
8.93415
8.93339
8.93448
8.93369
8.93477
8.93396
8.93502
8.9342
8.93523
8.93441
8.93541
8.93458
8.93554
8.93471
8.93562
8.93481
8.93566
8.93486
8.93565
8.93488
8.93561
8.93487
8.93554
8.93483
8.93544
8.93477
8.93531
8.93467
8.93514
8.93454
8.93496
8.93441
8.93477
8.93426
8.93457
8.93409
8.93432
8.93388
8.93408
8.93369
8.93386
8.93351
8.93363
8.9333
8.93337
8.93306
8.93311
8.93285
8.93291
8.93268
8.93269
8.93246
8.93242
8.93221
8.93217
8.93201
8.93201
8.93188
8.93185
8.93169
8.93159
8.93144
8.93135
8.93127
8.93127
8.93121
8.93118
8.93106
8.93094
8.93083
8.93076
8.93073
8.93077
8.93077
8.93078
8.93068
8.93057
8.93047
8.93043
8.93043
8.93052
8.93057
8.93063
8.93053
8.9304
8.93031
8.93027
8.9303
8.93045
8.93056
8.93069
8.93056
8.93041
8.93031
8.9303
8.93044
8.93066
8.93079
8.93079
8.93095
8.93161
8.93126
8.93281
8.93146
8.93734
8.94522
8.94514
8.94908
8.95728
9.07583
9.00102
8.90226
8.82364
)
;
    }
}


// ************************************************************************* //
