/*--------------------------------*- C++ -*----------------------------------*\
| =========                 |                                                 |
| \\      /  F ield         | foam-extend: Open Source CFD                    |
|  \\    /   O peration     | Version:     3.2                                |
|   \\  /    A nd           | Web:         http://www.foam-extend.org         |
|    \\/     M anipulation  | For copyright notice see file Copyright         |
\*---------------------------------------------------------------------------*/
FoamFile
{
    version     2.0;
    format      ascii;
    class       volScalarField;
    location    "2000";
    object      p;
}
// * * * * * * * * * * * * * * * * * * * * * * * * * * * * * * * * * * * * * //

dimensions      [1 -1 -2 0 0 0 0];

internalField   nonuniform List<scalar> 
2400
(
568.112
563.734
563.604
562.914
563.416
563.953
564.826
565.648
566.591
567.52
568.481
569.437
570.421
571.407
572.396
573.4
574.392
575.389
576.383
577.379
578.373
579.368
580.351
581.313
582.249
583.166
584.06
584.936
585.794
586.636
587.464
588.279
589.083
589.88
590.671
591.458
592.238
593.016
593.789
594.561
595.329
596.096
596.86
597.624
598.385
599.147
599.906
600.666
601.424
602.184
602.938
603.703
604.439
605.241
605.899
606.862
607.18
608.865
607.571
605.18
589.863
581.797
590.172
588.108
589.083
589.76
590.679
591.55
592.348
593.093
593.783
594.448
595.069
595.667
596.23
596.773
597.289
597.79
598.274
598.748
599.212
599.669
600.121
600.569
601.012
601.454
601.893
602.329
602.765
603.198
603.633
604.066
604.5
604.933
605.367
605.8
606.235
606.669
607.104
607.538
607.972
608.407
608.842
609.278
609.713
610.149
610.584
611.02
611.455
611.89
612.326
612.762
613.199
613.634
614.071
614.507
614.943
615.378
615.814
616.25
616.686
617.121
617.557
617.993
618.428
618.865
619.301
619.738
620.173
620.61
621.045
621.482
621.916
622.354
622.788
623.225
623.659
624.096
624.531
624.965
625.405
625.834
626.279
626.703
627.154
627.573
628.029
628.442
628.905
629.309
629.781
630.175
630.658
631.04
631.535
631.903
632.413
632.765
633.292
633.626
634.171
634.485
635.05
635.343
635.93
636.2
636.811
637.056
637.691
637.911
638.571
638.766
639.451
639.62
640.329
640.474
641.206
641.329
642.082
642.185
642.957
643.043
643.831
643.902
644.704
644.763
645.577
645.626
646.448
646.491
647.318
647.358
648.187
648.226
649.054
649.095
649.92
649.967
650.785
650.841
651.65
651.718
652.513
652.596
653.376
653.475
654.238
654.354
655.099
655.235
655.96
656.117
656.821
656.999
657.683
657.882
658.544
658.764
659.406
659.646
660.268
660.528
661.131
661.41
661.994
662.291
662.859
663.173
663.724
664.053
664.588
664.931
665.454
665.811
666.322
666.691
667.191
667.568
668.057
668.444
668.926
669.322
669.797
670.201
670.666
671.075
671.533
671.949
672.404
672.825
673.277
673.701
674.147
674.573
675.015
675.444
675.886
676.317
676.76
677.192
677.631
678.062
678.499
678.931
679.37
679.804
680.245
680.677
681.115
681.546
681.983
682.415
682.853
683.288
683.728
684.159
684.598
685.025
685.464
685.891
686.332
686.769
687.202
687.644
688.069
688.507
688.923
689.339
689.922
690.082
690.956
690.823
692.193
691.656
691.97
695.263
697.183
714.893
712.221
714.236
531.392
527.152
526.977
526.283
526.786
527.321
528.193
529.014
529.955
530.883
531.843
532.798
533.781
534.767
535.756
536.76
537.751
538.748
539.742
540.737
541.731
542.726
543.709
544.671
545.607
546.524
547.419
548.295
549.152
549.995
550.823
551.638
552.443
553.24
554.031
554.817
555.598
556.375
557.149
557.92
558.688
559.455
560.22
560.983
561.745
562.506
563.266
564.026
564.783
565.543
566.297
567.063
567.798
568.601
569.259
570.222
570.54
572.228
570.853
568.491
553.443
545.402
553.613
551.607
552.576
553.25
554.164
555.031
555.826
556.57
557.257
557.921
558.541
559.138
559.7
560.242
560.759
561.259
561.743
562.216
562.68
563.138
563.589
564.037
564.481
564.922
565.361
565.797
566.233
566.667
567.101
567.534
567.969
568.402
568.835
569.269
569.704
570.137
570.572
571.006
571.441
571.875
572.31
572.746
573.182
573.617
574.053
574.488
574.924
575.359
575.795
576.23
576.667
577.103
577.539
577.975
578.411
578.847
579.283
579.718
580.154
580.59
581.025
581.461
581.897
582.334
582.769
583.206
583.641
584.078
584.513
584.95
585.385
585.822
586.256
586.694
587.127
587.565
588
588.433
588.874
589.302
589.747
590.172
590.623
591.042
591.498
591.911
592.374
592.778
593.25
593.644
594.126
594.509
595.004
595.372
595.881
596.234
596.76
597.094
597.639
597.954
598.519
598.812
599.399
599.668
600.279
600.524
601.159
601.38
602.04
602.235
602.919
603.089
603.797
603.943
604.674
604.798
605.55
605.654
606.425
606.512
607.299
607.371
608.173
608.233
609.045
609.095
609.916
609.96
610.786
610.827
611.655
611.695
612.522
612.565
613.388
613.437
614.253
614.311
615.118
615.187
615.982
616.066
616.845
616.945
617.706
617.824
618.567
618.704
619.428
619.586
620.29
620.468
621.151
621.351
622.012
622.233
622.874
623.115
623.737
623.998
624.599
624.879
625.462
625.76
626.327
626.642
627.193
627.522
628.057
628.4
628.923
629.28
629.791
630.16
630.659
631.037
631.526
631.913
632.394
632.791
633.265
633.67
634.135
634.544
635.002
635.418
635.872
636.294
636.746
637.17
637.615
638.042
638.484
638.913
639.355
639.786
640.228
640.66
641.1
641.531
641.968
642.399
642.839
643.273
643.713
644.146
644.584
645.015
645.452
645.884
646.322
646.756
647.196
647.628
648.067
648.494
648.934
649.36
649.8
650.237
650.67
651.112
651.537
651.976
652.393
652.807
653.39
653.55
654.429
654.286
655.655
655.138
655.428
658.814
660.663
678.137
675.58
677.603
494.644
490.521
490.371
489.678
490.167
490.694
491.561
492.381
493.321
494.247
495.206
496.16
497.143
498.128
499.116
500.121
501.111
502.108
503.101
504.097
505.091
506.086
507.069
508.03
508.966
509.883
510.778
511.654
512.511
513.354
514.182
514.997
515.802
516.599
517.39
518.176
518.957
519.735
520.508
521.28
522.048
522.815
523.579
524.343
525.105
525.866
526.625
527.385
528.143
528.903
529.657
530.423
531.158
531.961
532.619
533.582
533.899
535.589
534.122
531.933
517.321
509.394
517.359
515.416
516.375
517.039
517.941
518.798
519.585
520.323
521.005
521.664
522.281
522.874
523.434
523.974
524.489
524.988
525.471
525.944
526.408
526.865
527.316
527.764
528.207
528.649
529.087
529.524
529.96
530.393
530.828
531.261
531.696
532.128
532.562
532.996
533.431
533.864
534.299
534.733
535.168
535.603
536.037
536.473
536.909
537.344
537.78
538.215
538.651
539.086
539.522
539.957
540.394
540.83
541.266
541.702
542.138
542.574
543.01
543.446
543.881
544.317
544.753
545.188
545.624
546.061
546.497
546.933
547.369
547.806
548.24
548.678
549.112
549.549
549.983
550.421
550.855
551.292
551.727
552.16
552.601
553.03
553.475
553.899
554.35
554.769
555.225
555.638
556.101
556.505
556.977
557.371
557.854
558.236
558.731
559.099
559.609
559.961
560.487
560.822
561.366
561.681
562.246
562.539
563.126
563.396
564.006
564.252
564.887
565.108
565.767
565.963
566.647
566.817
567.525
567.671
568.402
568.526
569.278
569.383
570.153
570.241
571.028
571.1
571.901
571.961
572.773
572.824
573.644
573.689
574.515
574.556
575.384
575.425
576.25
576.294
577.116
577.166
577.982
578.04
578.846
578.917
579.71
579.795
580.573
580.674
581.435
581.553
582.296
582.434
583.157
583.315
584.018
584.198
584.88
585.08
585.741
585.962
586.603
586.844
587.465
587.727
588.328
588.608
589.191
589.489
590.056
590.371
590.921
591.251
591.785
592.129
592.651
593.009
593.519
593.889
594.387
594.766
595.254
595.642
596.122
596.52
596.993
597.398
597.863
598.273
598.73
599.146
599.6
600.022
600.473
600.898
601.343
601.77
602.212
602.641
603.083
603.514
603.956
604.388
604.828
605.259
605.696
606.128
606.567
607
607.44
607.873
608.311
608.743
609.18
609.612
610.05
610.483
610.923
611.354
611.795
612.223
612.663
613.089
613.528
613.963
614.396
614.839
615.265
615.704
616.122
616.535
617.118
617.278
618.161
618.008
619.373
618.883
619.148
622.612
624.266
641.38
638.94
640.953
457.935
453.904
453.75
453.05
453.542
454.065
454.931
455.748
456.686
457.613
458.571
459.525
460.507
461.491
462.479
463.483
464.473
465.47
466.462
467.458
468.451
469.446
470.429
471.39
472.326
473.243
474.137
475.013
475.871
476.713
477.541
478.356
479.161
479.958
480.75
481.536
482.317
483.094
483.868
484.639
485.408
486.174
486.939
487.702
488.464
489.226
489.985
490.745
491.503
492.262
493.016
493.782
494.518
495.32
495.978
496.941
497.257
498.947
497.411
495.572
481.707
473.931
481.602
479.726
480.674
481.319
482.198
483.035
483.806
484.53
485.201
485.851
486.459
487.046
487.601
488.137
488.649
489.145
489.626
490.098
490.56
491.017
491.468
491.915
492.358
492.799
493.238
493.674
494.11
494.544
494.979
495.412
495.847
496.28
496.714
497.147
497.582
498.016
498.451
498.885
499.32
499.754
500.189
500.625
501.061
501.496
501.932
502.367
502.803
503.238
503.674
504.109
504.546
504.982
505.418
505.854
506.29
506.726
507.162
507.598
508.033
508.469
508.905
509.34
509.776
510.213
510.649
511.085
511.521
511.958
512.392
512.83
513.264
513.701
514.135
514.573
515.007
515.444
515.879
516.313
516.753
517.182
517.627
518.051
518.502
518.921
519.377
519.79
520.253
520.657
521.129
521.524
522.005
522.388
522.883
523.252
523.761
524.114
524.639
524.975
525.518
525.834
526.398
526.692
527.278
527.55
528.158
528.406
529.039
529.262
529.919
530.117
530.799
530.972
531.677
531.826
532.554
532.681
533.431
533.538
534.306
534.397
535.18
535.256
536.054
536.118
536.926
536.981
537.798
537.846
538.668
538.713
539.537
539.582
540.404
540.451
541.27
541.323
542.135
542.197
543
543.074
543.864
543.952
544.727
544.831
545.589
545.71
546.45
546.59
547.311
547.472
548.173
548.354
549.034
549.236
549.895
550.118
550.757
551
551.619
551.883
552.482
552.764
553.345
553.645
554.21
554.526
555.075
555.407
555.939
556.285
556.805
557.164
557.673
558.044
558.541
558.921
559.408
559.796
560.276
560.674
561.146
561.552
562.017
562.427
562.884
563.3
563.754
564.175
564.626
565.051
565.497
565.924
566.366
566.795
567.236
567.667
568.109
568.541
568.981
569.413
569.851
570.282
570.72
571.152
571.592
572.025
572.465
572.898
573.335
573.767
574.203
574.635
575.074
575.506
575.948
576.378
576.819
577.245
577.682
578.114
578.546
578.99
579.417
579.858
580.277
580.688
581.271
581.431
582.317
582.157
583.511
583.056
583.292
586.789
588.085
604.636
602.297
604.307
421.22
417.274
417.12
416.416
416.914
417.433
418.294
419.112
420.051
420.978
421.935
422.888
423.871
424.855
425.843
426.846
427.836
428.833
429.825
430.82
431.813
432.808
433.79
434.751
435.686
436.603
437.497
438.373
439.231
440.073
440.901
441.716
442.521
443.318
444.109
444.896
445.677
446.454
447.228
447.999
448.767
449.534
450.299
451.062
451.824
452.585
453.345
454.105
454.862
455.622
456.376
457.142
457.877
458.68
459.338
460.301
460.616
462.302
460.745
459.488
446.785
439.185
446.537
444.719
445.654
446.268
447.109
447.912
448.655
449.356
450.009
450.643
451.238
451.814
452.359
452.888
453.394
453.887
454.365
454.834
455.294
455.75
456.2
456.646
457.089
457.53
457.968
458.405
458.841
459.275
459.71
460.143
460.578
461.011
461.445
461.879
462.314
462.748
463.183
463.618
464.052
464.487
464.922
465.358
465.794
466.229
466.665
467.1
467.536
467.971
468.407
468.842
469.279
469.715
470.151
470.587
471.023
471.459
471.895
472.33
472.766
473.202
473.638
474.073
474.509
474.946
475.381
475.818
476.253
476.69
477.125
477.562
477.997
478.434
478.868
479.306
479.739
480.177
480.612
481.045
481.486
481.915
482.36
482.784
483.235
483.654
484.11
484.523
484.985
485.39
485.862
486.257
486.738
487.122
487.615
487.985
488.493
488.848
489.372
489.709
490.251
490.568
491.131
491.427
492.011
492.284
492.892
493.141
493.772
493.997
494.653
494.853
495.532
495.708
496.411
496.563
497.288
497.419
498.165
498.276
499.041
499.135
499.915
499.995
500.789
500.857
501.661
501.721
502.533
502.586
503.403
503.453
504.273
504.322
505.14
505.192
506.006
506.064
506.872
506.938
507.737
507.815
508.6
508.693
509.464
509.572
510.325
510.451
511.186
511.331
512.048
512.212
512.909
513.094
513.771
513.976
514.632
514.858
515.494
515.74
516.356
516.622
517.219
517.503
518.082
518.384
518.946
519.265
519.812
520.145
520.676
521.023
521.542
521.902
522.409
522.781
523.278
523.658
524.144
524.533
525.012
525.41
525.882
526.288
526.753
527.164
527.62
528.036
528.489
528.911
529.361
529.786
530.233
530.66
531.103
531.531
531.971
532.401
532.843
533.276
533.716
534.149
534.587
535.018
535.456
535.887
536.326
536.759
537.2
537.634
538.072
538.503
538.938
539.369
539.807
540.239
540.683
541.115
541.558
541.983
542.417
542.846
543.277
543.723
544.152
544.594
545.015
545.423
546.006
546.164
547.057
546.882
548.232
547.812
548.017
551.505
552.181
567.923
565.652
567.66
384.542
380.631
380.475
379.783
380.277
380.793
381.653
382.474
383.414
384.34
385.297
386.252
387.235
388.218
389.206
390.209
391.2
392.196
393.189
394.184
395.177
396.171
397.152
398.112
399.048
399.964
400.858
401.734
402.591
403.434
404.262
405.076
405.881
406.678
407.469
408.255
409.036
409.814
410.587
411.359
412.127
412.894
413.658
414.422
415.184
415.945
416.704
417.464
418.222
418.982
419.736
420.502
421.237
422.04
422.698
423.66
423.975
425.656
424.123
423.765
412.703
405.338
412.328
410.557
411.478
412.047
412.833
413.585
414.286
414.954
415.578
416.188
416.763
417.322
417.854
418.373
418.871
419.357
419.83
420.296
420.753
421.207
421.655
422.101
422.543
422.983
423.422
423.858
424.294
424.729
425.164
425.598
426.033
426.466
426.901
427.335
427.77
428.204
428.639
429.074
429.509
429.944
430.379
430.815
431.25
431.686
432.122
432.557
432.993
433.428
433.864
434.299
434.736
435.172
435.608
436.044
436.48
436.916
437.352
437.787
438.223
438.659
439.095
439.53
439.966
440.403
440.838
441.275
441.71
442.147
442.582
443.019
443.454
443.891
444.325
444.763
445.196
445.634
446.069
446.502
446.943
447.372
447.817
448.241
448.692
449.111
449.567
449.98
450.442
450.847
451.318
451.714
452.195
452.579
453.072
453.443
453.95
454.305
454.829
455.167
455.709
456.027
456.589
456.886
457.469
457.744
458.35
458.601
459.231
459.457
460.111
460.314
460.992
461.17
461.87
462.025
462.748
462.882
463.626
463.74
464.502
464.599
465.377
465.46
466.251
466.323
467.124
467.187
467.996
468.052
468.866
468.92
469.736
469.789
470.603
470.659
471.47
471.531
472.336
472.406
473.2
473.282
474.064
474.16
474.928
475.039
475.789
475.918
476.651
476.798
477.512
477.68
478.374
478.561
479.235
479.443
480.096
480.324
480.958
481.206
481.82
482.088
482.683
482.969
483.546
483.849
484.41
484.73
485.275
485.609
486.14
486.487
487.005
487.365
487.872
488.245
488.74
489.122
489.607
489.996
490.474
490.872
491.344
491.75
492.214
492.626
493.082
493.498
493.951
494.372
494.822
495.247
495.693
496.122
496.564
496.992
497.432
497.862
498.303
498.736
499.177
499.61
500.048
500.479
500.916
501.346
501.785
502.219
502.66
503.095
503.534
503.964
504.399
504.829
505.266
505.699
506.143
506.577
507.02
507.445
507.878
508.305
508.735
509.183
509.612
510.057
510.479
510.882
511.465
511.622
512.524
512.324
513.678
513.293
513.465
516.9
516.611
531.257
529.004
531.016
347.894
343.993
343.823
343.135
343.634
344.151
345.012
345.833
346.772
347.699
348.656
349.614
350.596
351.58
352.568
353.573
354.563
355.559
356.552
357.547
358.539
359.533
360.514
361.474
362.409
363.325
364.219
365.095
365.952
366.794
367.622
368.437
369.241
370.038
370.829
371.615
372.396
373.174
373.947
374.718
375.487
376.254
377.018
377.782
378.543
379.305
380.064
380.824
381.582
382.341
383.095
383.861
384.597
385.399
386.057
387.02
387.335
389.008
387.539
388.476
379.569
372.572
379.123
377.385
378.287
378.798
379.508
380.191
380.835
381.457
382.042
382.618
383.166
383.702
384.216
384.719
385.206
385.684
386.15
386.611
387.065
387.516
387.962
388.406
388.848
389.288
389.726
390.162
390.599
391.033
391.469
391.903
392.339
392.773
393.208
393.642
394.077
394.512
394.947
395.382
395.817
396.252
396.688
397.124
397.559
397.995
398.431
398.866
399.302
399.737
400.173
400.609
401.045
401.481
401.917
402.353
402.789
403.225
403.661
404.096
404.532
404.968
405.404
405.84
406.275
406.712
407.147
407.584
408.019
408.456
408.891
409.328
409.762
410.2
410.634
411.072
411.505
411.943
412.378
412.812
413.252
413.681
414.126
414.55
415.001
415.42
415.876
416.289
416.751
417.156
417.627
418.023
418.504
418.888
419.382
419.752
420.26
420.615
421.139
421.477
422.019
422.337
422.899
423.197
423.78
424.055
424.661
424.913
425.542
425.77
426.424
426.627
427.304
427.484
428.184
428.341
429.063
429.198
429.941
430.057
430.817
430.917
431.693
431.779
432.568
432.642
433.441
433.506
434.314
434.373
435.185
435.241
436.055
436.11
436.922
436.981
437.789
437.854
438.655
438.728
439.52
439.605
440.384
440.483
441.248
441.361
442.109
442.24
442.971
443.121
443.832
444.002
444.694
444.883
445.555
445.764
446.416
446.646
447.278
447.527
448.14
448.408
449.002
449.289
449.864
450.169
450.729
451.049
451.593
451.928
452.457
452.805
453.322
453.684
454.189
454.562
455.057
455.439
455.923
456.313
456.79
457.189
457.66
458.066
458.53
458.941
459.397
459.813
460.266
460.687
461.137
461.562
462.008
462.436
462.878
463.306
463.746
464.176
464.617
465.05
465.491
465.924
466.361
466.792
467.23
467.661
468.099
468.533
468.974
469.408
469.847
470.277
470.712
471.143
471.58
472.013
472.457
472.89
473.333
473.759
474.192
474.621
475.051
475.498
475.927
476.373
476.797
477.196
477.778
477.933
478.848
478.61
479.977
479.627
479.764
483.1
481.435
494.649
492.354
494.372
311.28
307.36
307.179
306.487
306.989
307.506
308.368
309.19
310.13
311.057
312.015
312.973
313.956
314.94
315.927
316.934
317.924
318.92
319.913
320.907
321.9
322.894
323.876
324.836
325.77
326.686
327.58
328.455
329.312
330.154
330.982
331.797
332.601
333.398
334.189
334.975
335.756
336.534
337.307
338.078
338.847
339.613
340.378
341.141
341.903
342.664
343.424
344.184
344.941
345.701
346.455
347.221
347.956
348.759
349.417
350.379
350.695
352.358
350.991
353.675
347.513
341.011
347.035
345.324
346.204
346.639
347.252
347.846
348.417
348.979
349.514
350.047
350.559
351.066
351.556
352.04
352.512
352.979
353.437
353.891
354.341
354.788
355.231
355.674
356.114
356.553
356.991
357.428
357.865
358.3
358.736
359.17
359.607
360.041
360.477
360.911
361.347
361.782
362.218
362.653
363.088
363.524
363.959
364.395
364.831
365.266
365.702
366.138
366.574
367.009
367.445
367.881
368.317
368.753
369.189
369.625
370.061
370.496
370.933
371.368
371.804
372.24
372.676
373.112
373.547
373.984
374.419
374.856
375.291
375.728
376.162
376.6
377.034
377.472
377.906
378.343
378.777
379.214
379.65
380.083
380.524
380.953
381.398
381.822
382.272
382.692
383.147
383.56
384.023
384.428
384.899
385.295
385.776
386.16
386.654
387.024
387.532
387.888
388.412
388.75
389.292
389.611
390.173
390.471
391.054
391.33
391.936
392.188
392.818
393.046
393.7
393.904
394.582
394.762
395.462
395.62
396.342
396.479
397.221
397.339
398.099
398.2
398.975
399.062
399.851
399.926
400.725
400.792
401.598
401.658
402.469
402.527
403.34
403.397
404.208
404.268
405.076
405.141
405.942
406.016
406.807
406.893
407.671
407.771
408.534
408.65
409.396
409.529
410.258
410.409
411.119
411.29
411.98
412.171
412.841
413.052
413.702
413.933
414.563
414.814
415.425
415.695
416.287
416.574
417.149
417.454
418.013
418.334
418.877
419.213
419.741
420.089
420.605
420.967
421.472
421.845
422.339
422.721
423.205
423.595
424.071
424.471
424.941
425.348
425.81
426.221
426.676
427.093
427.545
427.967
428.417
428.842
429.287
429.714
430.155
430.583
431.024
431.455
431.897
432.329
432.769
433.201
433.638
434.069
434.507
434.94
435.38
435.813
436.252
436.684
437.121
437.553
437.989
438.423
438.862
439.294
439.736
440.165
440.606
441.033
441.47
441.904
442.337
442.782
443.207
443.655
444.079
444.473
445.055
445.207
446.139
445.851
447.241
446.925
447.026
450.22
446.705
458.097
455.703
457.731
)
;

boundaryField
{
    inlet
    {
        type            calculated;
        value           nonuniform List<scalar> 8(566.89 530.171 493.423 456.714 419.999 383.321 346.672 310.058);
    }
    outlet
    {
        type            calculated;
        value           nonuniform List<scalar> 8(714.487 677.846 641.206 604.566 567.925 531.285 494.645 458.004);
    }
    sideWall
    {
        type            empty;
    }
    bed
    {
        type            calculated;
        value           nonuniform List<scalar> 
300
(
586.432
582.054
581.924
581.234
581.736
582.273
583.146
583.969
584.911
585.84
586.801
587.757
588.741
589.727
590.716
591.72
592.712
593.709
594.703
595.699
596.693
597.688
598.671
599.633
600.569
601.486
602.38
603.256
604.114
604.956
605.784
606.599
607.404
608.201
608.992
609.778
610.559
611.336
612.11
612.881
613.649
614.416
615.18
615.944
616.706
617.467
618.226
618.986
619.744
620.504
621.258
622.024
622.759
623.562
624.219
625.183
625.5
627.184
625.91
623.506
608.144
600.092
608.488
606.413
607.39
608.067
608.987
609.858
610.656
611.402
612.091
612.757
613.378
613.976
614.539
615.082
615.598
616.099
616.583
617.057
617.521
617.979
618.43
618.878
619.322
619.763
620.202
620.638
621.074
621.508
621.942
622.375
622.81
623.242
623.676
624.109
624.544
624.978
625.413
625.847
626.282
626.716
627.151
627.587
628.022
628.458
628.893
629.329
629.764
630.2
630.636
631.071
631.508
631.944
632.38
632.816
633.252
633.688
634.124
634.559
634.995
635.43
635.866
636.302
636.737
637.174
637.61
638.047
638.482
638.919
639.354
639.791
640.225
640.663
641.097
641.534
641.968
642.405
642.84
643.274
643.715
644.143
644.588
645.013
645.463
645.883
646.339
646.751
647.214
647.619
648.091
648.485
648.967
649.349
649.844
650.213
650.722
651.075
651.601
651.935
652.48
652.794
653.36
653.652
654.24
654.509
655.12
655.365
656
656.22
656.88
657.075
657.76
657.929
658.638
658.783
659.515
659.638
660.391
660.494
661.266
661.352
662.14
662.211
663.014
663.072
663.886
663.935
664.757
664.8
665.627
665.667
666.496
666.535
667.363
667.405
668.229
668.276
669.094
669.151
669.959
670.027
670.823
670.905
671.686
671.784
672.547
672.664
673.408
673.544
674.269
674.426
675.131
675.308
675.992
676.191
676.853
677.073
677.715
677.955
678.577
678.838
679.44
679.719
680.303
680.6
681.168
681.482
682.033
682.362
682.898
683.241
683.763
684.121
684.632
685.001
685.5
685.877
686.366
686.753
687.235
687.631
688.106
688.51
688.976
689.384
689.842
690.258
690.713
691.134
691.587
692.01
692.456
692.882
693.324
693.753
694.195
694.627
695.069
695.501
695.94
696.371
696.808
697.24
697.68
698.113
698.554
698.986
699.424
699.855
700.292
700.724
701.162
701.597
702.037
702.469
702.908
703.335
703.774
704.2
704.641
705.078
705.511
705.953
706.378
706.816
707.232
707.648
708.231
708.392
709.264
709.133
710.503
709.964
710.281
713.554
715.497
733.236
730.54
732.557
)
;
    }
    topWall
    {
        type            calculated;
        value           nonuniform List<scalar> 
300
(
292.959
289.04
288.859
288.167
288.669
289.186
290.048
290.87
291.81
292.737
293.695
294.652
295.636
296.62
297.607
298.614
299.604
300.6
301.593
302.587
303.58
304.574
305.556
306.515
307.45
308.366
309.26
310.135
310.992
311.834
312.662
313.476
314.281
315.078
315.869
316.655
317.436
318.213
318.987
319.758
320.526
321.293
322.058
322.821
323.583
324.344
325.104
325.864
326.621
327.381
328.135
328.901
329.636
330.439
331.097
332.059
332.375
334.033
332.727
336.428
331.781
325.534
331.285
329.585
330.452
330.845
331.404
331.949
332.479
333.007
333.514
334.024
334.516
335.006
335.483
335.957
336.421
336.881
337.334
337.785
338.232
338.677
339.119
339.561
340
340.439
340.877
341.314
341.75
342.186
342.622
343.057
343.494
343.928
344.364
344.799
345.235
345.67
346.106
346.541
346.977
347.413
347.848
348.284
348.72
349.156
349.591
350.027
350.463
350.899
351.335
351.77
352.206
352.642
353.078
353.514
353.95
354.386
354.822
355.257
355.693
356.129
356.565
357.001
357.436
357.873
358.308
358.745
359.18
359.617
360.052
360.489
360.923
361.361
361.795
362.233
362.666
363.104
363.54
363.973
364.414
364.842
365.287
365.712
366.162
366.581
367.037
367.45
367.912
368.317
368.789
369.184
369.666
370.049
370.543
370.914
371.422
371.777
372.302
372.639
373.182
373.501
374.063
374.361
374.945
375.22
375.827
376.079
376.71
376.938
377.592
377.796
378.474
378.655
379.356
379.513
380.236
380.372
381.116
381.233
381.994
382.095
382.871
382.958
383.747
383.822
384.621
384.688
385.495
385.555
386.367
386.424
387.237
387.294
388.106
388.166
388.973
389.039
389.84
389.914
390.705
390.791
391.569
391.669
392.432
392.548
393.294
393.427
394.156
394.307
395.017
395.188
395.878
396.069
396.739
396.95
397.599
397.83
398.461
398.712
399.322
399.592
400.184
400.471
401.046
401.351
401.91
402.231
402.773
403.109
403.637
403.985
404.501
404.863
405.368
405.741
406.234
406.616
407.099
407.489
407.966
408.365
408.836
409.242
409.704
410.115
410.57
410.986
411.439
411.861
412.311
412.736
413.18
413.607
414.048
414.476
414.917
415.349
415.791
416.223
416.662
417.093
417.529
417.96
418.4
418.833
419.274
419.707
420.145
420.576
421.012
421.444
421.882
422.316
422.757
423.189
423.629
424.057
424.496
424.923
425.363
425.801
426.234
426.678
427.101
427.55
427.975
428.365
428.948
429.097
430.04
429.721
431.129
430.826
430.91
434.023
429.424
439.837
437.377
439.411
)
;
    }
}


// ************************************************************************* //
