/*--------------------------------*- C++ -*----------------------------------*\
| =========                 |                                                 |
| \\      /  F ield         | foam-extend: Open Source CFD                    |
|  \\    /   O peration     | Version:     3.2                                |
|   \\  /    A nd           | Web:         http://www.foam-extend.org         |
|    \\/     M anipulation  | For copyright notice see file Copyright         |
\*---------------------------------------------------------------------------*/
FoamFile
{
    version     2.0;
    format      ascii;
    class       volScalarField;
    location    "2000";
    object      pd;
}
// * * * * * * * * * * * * * * * * * * * * * * * * * * * * * * * * * * * * * //

dimensions      [1 -1 -2 0 0 0 0];

internalField   nonuniform List<scalar> 
2400
(
585.21
578.39
575.818
572.684
570.744
568.838
567.269
565.648
564.148
562.634
561.153
559.666
558.207
556.751
555.297
553.859
552.407
550.962
549.513
548.066
546.618
545.17
543.711
542.23
540.723
539.197
537.649
536.082
534.497
532.897
531.282
529.654
528.016
526.37
524.719
523.062
521.4
519.735
518.066
516.394
514.72
513.044
511.366
509.687
508.006
506.325
504.641
502.959
501.273
499.591
497.902
496.225
494.518
492.878
491.093
489.613
487.488
486.729
483.013
484.572
477.03
468.041
471.865
467.57
466.005
463.962
462.082
460.186
458.275
456.361
454.426
452.494
450.543
448.591
446.625
444.657
442.678
440.695
438.706
436.714
434.718
432.721
430.72
428.719
426.716
424.712
422.707
420.701
418.695
416.688
414.682
412.674
410.668
408.66
406.653
404.645
402.638
400.631
398.624
396.617
394.61
392.602
390.595
388.588
386.581
384.575
382.568
380.561
378.554
376.547
374.54
372.533
370.527
368.52
366.513
364.506
362.499
360.492
358.486
356.479
354.472
352.465
350.458
348.452
346.444
344.438
342.431
340.425
338.417
336.411
334.403
332.398
330.39
328.385
326.376
324.371
322.362
320.357
318.35
316.34
314.339
312.324
310.327
308.308
306.316
304.292
302.306
300.275
298.296
296.257
294.287
292.238
290.279
288.218
286.272
284.197
282.266
280.174
278.261
276.151
274.256
272.126
270.252
268.101
266.249
264.074
262.246
260.047
258.244
256.02
254.242
251.992
250.239
247.965
246.235
243.937
242.231
239.911
238.226
235.885
234.219
231.861
230.211
227.839
226.201
223.818
222.191
219.798
218.179
215.779
214.165
211.763
210.151
207.748
206.134
203.734
202.116
199.722
198.097
195.712
194.076
191.704
190.055
187.696
186.032
183.69
182.008
179.685
177.984
175.68
173.96
171.676
169.935
167.672
165.91
163.668
161.885
159.664
157.86
155.66
153.836
151.655
149.812
147.65
145.788
143.644
141.766
139.639
137.744
135.632
133.722
131.623
129.701
127.616
125.682
123.608
121.663
119.598
117.642
115.586
113.623
111.577
109.607
107.569
105.59
103.556
101.57
99.5423
97.5533
95.5316
93.5402
91.5216
89.5241
87.5074
85.5058
83.4911
81.4902
79.4786
77.4783
75.4676
73.4639
71.4521
69.4458
67.4342
65.4308
63.4215
61.4199
59.4102
57.4057
55.3937
53.387
51.376
49.3712
47.3633
45.3617
43.3509
41.3486
39.333
37.3297
35.3139
33.311
31.306
29.2973
27.2987
25.2782
23.286
21.2647
19.2142
17.3578
15.0527
13.5733
10.7754
9.8176
6.9564
4.66554
5.31919
-2.14964
6.53604
1.39657
0.970945
585.131
578.448
575.831
572.694
570.755
568.847
567.276
565.655
564.153
562.638
561.155
559.667
558.208
556.751
555.297
553.859
552.407
550.962
549.512
548.065
546.617
545.169
543.709
542.228
540.722
539.196
537.648
536.081
534.496
532.896
531.281
529.653
528.016
526.37
524.718
523.062
521.4
519.735
518.066
516.394
514.72
513.044
511.366
509.687
508.006
506.324
504.641
502.958
501.273
499.591
497.902
496.225
494.518
492.878
491.093
489.613
487.489
486.729
482.984
484.504
477.053
468.117
471.839
467.576
466.009
463.965
462.084
460.188
458.276
456.362
454.426
452.494
450.543
448.591
446.625
444.657
442.678
440.695
438.706
436.714
434.718
432.72
430.72
428.719
426.716
424.712
422.707
420.701
418.695
416.688
414.682
412.674
410.668
408.66
406.653
404.645
402.638
400.631
398.624
396.617
394.61
392.602
390.595
388.588
386.581
384.575
382.568
380.561
378.554
376.547
374.54
372.533
370.527
368.52
366.513
364.506
362.499
360.492
358.486
356.479
354.472
352.465
350.458
348.452
346.444
344.438
342.431
340.425
338.417
336.411
334.403
332.398
330.39
328.385
326.376
324.371
322.362
320.357
318.35
316.34
314.339
312.324
310.327
308.308
306.316
304.292
302.306
300.275
298.296
296.257
294.287
292.238
290.279
288.218
286.272
284.197
282.266
280.174
278.26
276.151
274.256
272.126
270.252
268.101
266.249
264.074
262.246
260.047
258.244
256.02
254.241
251.992
250.239
247.965
246.235
243.938
242.231
239.911
238.225
235.886
234.218
231.862
230.21
227.839
226.201
223.818
222.19
219.798
218.178
215.78
214.165
211.763
210.15
207.749
206.133
203.735
202.116
199.723
198.096
195.713
194.076
191.704
190.054
187.697
186.032
183.691
182.008
179.685
177.984
175.68
173.959
171.676
169.934
167.672
165.909
163.668
161.884
159.664
157.86
155.66
153.836
151.655
149.811
147.65
145.788
143.644
141.766
139.639
137.744
135.632
133.722
131.623
129.7
127.616
125.681
123.609
121.663
119.598
117.642
115.586
113.623
111.577
109.607
107.569
105.59
103.557
101.57
99.5425
97.5532
95.5317
93.5401
91.5217
89.5241
87.5074
85.5058
83.4911
81.4902
79.4787
77.4783
75.4676
73.4639
71.4521
69.4458
67.4342
65.4308
63.4216
61.4199
59.4102
57.4057
55.3937
53.387
51.376
49.3712
47.3634
45.3617
43.3509
41.3486
39.3329
37.3297
35.314
33.311
31.306
29.2973
27.2987
25.2781
23.2858
21.2651
19.2144
17.3569
15.0535
13.5742
10.7744
9.81078
6.96661
4.66004
5.35655
-2.07647
6.47625
1.39153
0.978394
585.023
578.458
575.865
572.729
570.776
568.86
567.285
565.662
564.159
562.643
561.159
559.67
558.211
556.753
555.298
553.86
552.408
550.962
549.513
548.065
546.617
545.169
543.709
542.228
540.721
539.196
537.647
536.081
534.496
532.895
531.281
529.653
528.015
526.37
524.718
523.062
521.4
519.735
518.066
516.394
514.72
513.044
511.366
509.687
508.006
506.324
504.641
502.958
501.273
499.59
497.902
496.225
494.518
492.878
491.093
489.613
487.488
486.725
482.95
484.453
477.044
468.229
471.817
467.583
466.013
463.968
462.085
460.188
458.277
456.362
454.427
452.494
450.543
448.591
446.625
444.657
442.678
440.695
438.706
436.714
434.718
432.72
430.72
428.719
426.716
424.712
422.707
420.701
418.695
416.688
414.682
412.674
410.668
408.66
406.653
404.645
402.638
400.631
398.624
396.617
394.61
392.602
390.595
388.588
386.581
384.575
382.568
380.561
378.554
376.547
374.54
372.533
370.527
368.52
366.513
364.506
362.499
360.492
358.486
356.479
354.472
352.465
350.458
348.452
346.444
344.438
342.431
340.425
338.417
336.411
334.403
332.398
330.39
328.385
326.376
324.371
322.362
320.357
318.35
316.34
314.339
312.324
310.327
308.308
306.316
304.292
302.306
300.275
298.296
296.257
294.287
292.238
290.279
288.218
286.272
284.197
282.266
280.175
278.26
276.151
274.256
272.127
270.252
268.101
266.249
264.075
262.246
260.048
258.243
256.02
254.241
251.993
250.238
247.966
246.235
243.938
242.23
239.911
238.225
235.886
234.218
231.862
230.21
227.84
226.2
223.818
222.19
219.799
218.178
215.78
214.164
211.764
210.15
207.749
206.133
203.735
202.115
199.723
198.096
195.713
194.076
191.704
190.054
187.697
186.031
183.691
182.008
179.685
177.983
175.68
173.959
171.676
169.934
167.672
165.909
163.668
161.884
159.664
157.86
155.66
153.836
151.655
149.811
147.65
145.788
143.644
141.766
139.639
137.744
135.632
133.721
131.623
129.7
127.616
125.681
123.609
121.662
119.599
117.642
115.587
113.623
111.578
109.607
107.569
105.59
103.557
101.57
99.5426
97.5531
95.5318
93.54
91.5218
89.524
87.5074
85.5058
83.4912
81.4902
79.4787
77.4783
75.4676
73.4639
71.4521
69.4458
67.4342
65.4308
63.4216
61.4199
59.4101
57.4057
55.3937
53.387
51.376
49.3713
47.3634
45.3617
43.3509
41.3486
39.3329
37.3297
35.3141
33.311
31.306
29.2972
27.2986
25.278
23.2856
21.2656
19.2144
17.3562
15.0552
13.5729
10.776
9.8024
6.97898
4.65965
5.37795
-2.00365
6.42326
1.38543
0.969571
584.955
578.481
575.885
572.741
570.791
568.872
567.295
565.669
564.165
562.648
561.164
559.675
558.215
556.756
555.301
553.862
552.41
550.964
549.514
548.066
546.617
545.17
543.71
542.228
540.721
539.196
537.647
536.08
534.495
532.895
531.281
529.653
528.015
526.369
524.718
523.062
521.4
519.735
518.066
516.394
514.72
513.044
511.366
509.687
508.006
506.324
504.641
502.958
501.273
499.59
497.902
496.225
494.518
492.878
491.093
489.613
487.488
486.718
482.928
484.396
477.041
468.325
471.793
467.588
466.016
463.97
462.086
460.189
458.277
456.362
454.427
452.494
450.543
448.591
446.625
444.657
442.678
440.695
438.706
436.714
434.718
432.72
430.72
428.719
426.715
424.712
422.707
420.701
418.695
416.688
414.682
412.674
410.668
408.66
406.653
404.645
402.638
400.631
398.624
396.617
394.61
392.602
390.595
388.588
386.581
384.575
382.568
380.561
378.554
376.547
374.54
372.533
370.527
368.52
366.513
364.506
362.499
360.492
358.486
356.479
354.472
352.465
350.458
348.452
346.444
344.438
342.431
340.425
338.417
336.411
334.403
332.398
330.39
328.385
326.376
324.371
322.362
320.357
318.35
316.34
314.339
312.324
310.327
308.308
306.316
304.292
302.306
300.275
298.296
296.257
294.287
292.238
290.279
288.218
286.272
284.197
282.265
280.175
278.26
276.152
274.255
272.127
270.251
268.102
266.248
264.076
262.245
260.049
258.242
256.021
254.24
251.994
250.237
247.967
246.233
243.939
242.229
239.913
238.223
235.888
234.216
231.864
230.208
227.841
226.199
223.82
222.188
219.8
218.176
215.782
214.163
211.766
210.148
207.751
206.131
203.737
202.114
199.725
198.094
195.715
194.074
191.706
190.053
187.699
186.03
183.693
182.006
179.687
177.982
175.682
173.958
171.677
169.933
167.673
165.908
163.669
161.883
159.665
157.859
155.661
153.835
151.656
149.811
147.651
145.787
143.645
141.765
139.64
137.743
135.633
133.721
131.624
129.7
127.616
125.681
123.609
121.662
119.599
117.641
115.587
113.622
111.578
109.607
107.569
105.59
103.557
101.57
99.5428
97.5531
95.5319
93.5399
91.5218
89.524
87.5074
85.5058
83.4912
81.4902
79.4788
77.4782
75.4676
73.4638
71.4521
69.4458
67.4343
65.4308
63.4216
61.4198
59.4101
57.4057
55.3937
53.387
51.3761
49.3713
47.3634
45.3616
43.3509
41.3485
39.3329
37.3296
35.3142
33.311
31.306
29.2972
27.2985
25.278
23.2854
21.266
19.2145
17.3556
15.057
13.5693
10.7839
9.78996
6.99129
4.66028
5.37117
-1.92005
6.37459
1.37842
0.963871
584.881
578.492
575.894
572.748
570.804
568.879
567.298
565.674
564.17
562.654
561.168
559.679
558.219
556.761
555.305
553.866
552.414
550.967
549.517
548.069
546.62
545.172
543.711
542.229
540.722
539.196
537.648
536.081
534.496
532.895
531.281
529.653
528.015
526.37
524.718
523.062
521.4
519.735
518.066
516.394
514.72
513.044
511.366
509.687
508.006
506.324
504.641
502.958
501.273
499.59
497.902
496.225
494.518
492.878
491.093
489.613
487.487
486.712
482.929
484.332
477.059
468.381
471.772
467.592
466.019
463.971
462.087
460.19
458.278
456.363
454.427
452.494
450.543
448.591
446.625
444.657
442.678
440.695
438.706
436.714
434.718
432.72
430.72
428.719
426.715
424.712
422.707
420.701
418.695
416.688
414.682
412.674
410.668
408.66
406.653
404.645
402.638
400.631
398.624
396.617
394.61
392.602
390.595
388.588
386.581
384.575
382.568
380.561
378.554
376.547
374.54
372.533
370.527
368.52
366.513
364.506
362.499
360.492
358.486
356.479
354.472
352.465
350.458
348.452
346.444
344.438
342.431
340.425
338.417
336.411
334.403
332.398
330.39
328.385
326.376
324.371
322.362
320.357
318.35
316.34
314.339
312.324
310.327
308.308
306.316
304.292
302.306
300.275
298.296
296.257
294.287
292.239
290.279
288.219
286.271
284.198
282.265
280.176
278.259
276.152
274.254
272.128
270.25
268.103
266.247
264.077
262.244
260.05
258.241
256.023
254.238
251.995
250.235
247.968
246.232
243.941
242.227
239.915
238.221
235.89
234.214
231.866
230.206
227.843
226.196
223.822
222.186
219.803
218.174
215.784
214.16
211.768
210.146
207.753
206.129
203.739
202.111
199.727
198.092
195.717
194.072
191.708
190.05
187.701
186.028
183.695
182.004
179.689
177.98
175.683
173.956
171.679
169.932
167.675
165.907
163.671
161.882
159.666
157.858
155.662
153.834
151.657
149.81
147.652
145.786
143.646
141.764
139.641
137.743
135.633
133.72
131.624
129.699
127.617
125.68
123.61
121.662
119.599
117.641
115.587
113.622
111.578
109.606
107.57
105.589
103.557
101.57
99.5429
97.553
95.532
93.5398
91.5219
89.5239
87.5075
85.5057
83.4913
81.4902
79.4788
77.4782
75.4676
73.4638
71.4521
69.4458
67.4343
65.4308
63.4217
61.4198
59.4101
57.4056
55.3936
53.387
51.3761
49.3713
47.3635
45.3616
43.3509
41.3485
39.3329
37.3296
35.3143
33.311
31.3061
29.2972
27.2985
25.2781
23.2851
21.2664
19.2145
17.3551
15.0585
13.566
10.7903
9.7798
7.00235
4.66105
5.35727
-1.83915
6.32994
1.37102
0.958194
584.842
578.489
575.89
572.755
570.807
568.881
567.298
565.676
564.173
562.656
561.171
559.683
558.223
556.764
555.309
553.87
552.417
550.971
549.521
548.073
546.623
545.175
543.714
542.231
540.724
539.197
537.649
536.082
534.497
532.896
531.281
529.653
528.016
526.37
524.718
523.062
521.4
519.735
518.066
516.394
514.72
513.044
511.366
509.687
508.006
506.324
504.641
502.958
501.273
499.591
497.902
496.225
494.518
492.878
491.093
489.613
487.487
486.706
482.94
484.273
477.093
468.405
471.755
467.594
466.02
463.971
462.088
460.19
458.278
456.363
454.427
452.494
450.543
448.591
446.625
444.657
442.678
440.695
438.706
436.714
434.718
432.72
430.72
428.719
426.715
424.712
422.707
420.701
418.695
416.688
414.682
412.674
410.668
408.66
406.653
404.645
402.638
400.631
398.624
396.617
394.61
392.602
390.595
388.588
386.581
384.575
382.568
380.561
378.554
376.547
374.54
372.533
370.527
368.52
366.513
364.506
362.499
360.492
358.486
356.479
354.472
352.465
350.458
348.452
346.444
344.438
342.431
340.425
338.417
336.411
334.403
332.398
330.39
328.385
326.376
324.371
322.362
320.357
318.35
316.34
314.339
312.324
310.327
308.308
306.316
304.292
302.305
300.275
298.296
296.258
294.287
292.239
290.278
288.219
286.271
284.198
282.264
280.176
278.259
276.153
274.254
272.129
270.25
268.103
266.246
264.077
262.243
260.051
258.24
256.024
254.237
251.997
250.234
247.97
246.23
243.942
242.226
239.916
238.22
235.891
234.213
231.868
230.204
227.845
226.195
223.824
222.184
219.804
218.172
215.786
214.159
211.77
210.144
207.755
206.127
203.741
202.109
199.729
198.09
195.719
194.07
191.71
190.049
187.702
186.026
183.696
182.003
179.69
177.979
175.685
173.955
171.68
169.93
167.676
165.906
163.672
161.881
159.667
157.857
155.663
153.833
151.658
149.809
147.652
145.785
143.647
141.764
139.641
137.742
135.634
133.72
131.625
129.699
127.617
125.68
123.61
121.661
119.599
117.641
115.587
113.622
111.578
109.606
107.57
105.589
103.557
101.57
99.543
97.5529
95.5321
93.5397
91.5219
89.5239
87.5075
85.5057
83.4913
81.4902
79.4788
77.4782
75.4676
73.4638
71.4521
69.4458
67.4343
65.4308
63.4217
61.4198
59.4101
57.4056
55.3936
53.3871
51.3761
49.3713
47.3635
45.3615
43.3509
41.3485
39.3329
37.3296
35.3143
33.311
31.3061
29.2972
27.2984
25.2782
23.2848
21.2666
19.2145
17.3547
15.0597
13.5635
10.7955
9.77173
7.01084
4.66105
5.34422
-1.77516
6.29521
1.36422
0.953556
584.835
578.491
575.879
572.748
570.804
568.878
567.297
565.675
564.172
562.656
561.17
559.685
558.225
556.766
555.311
553.873
552.421
550.974
549.524
548.076
546.626
545.177
543.716
542.233
540.725
539.199
537.65
536.083
534.497
532.897
531.282
529.654
528.016
526.37
524.719
523.062
521.4
519.735
518.066
516.395
514.72
513.044
511.366
509.687
508.006
506.325
504.641
502.959
501.273
499.591
497.902
496.225
494.518
492.878
491.093
489.613
487.486
486.703
482.948
484.231
477.111
468.423
471.745
467.596
466.021
463.972
462.088
460.19
458.278
456.363
454.427
452.494
450.543
448.591
446.625
444.657
442.678
440.695
438.706
436.714
434.718
432.72
430.72
428.719
426.715
424.712
422.707
420.701
418.695
416.688
414.682
412.674
410.668
408.66
406.653
404.645
402.638
400.631
398.624
396.617
394.61
392.602
390.595
388.588
386.581
384.575
382.568
380.561
378.554
376.547
374.54
372.533
370.527
368.52
366.513
364.506
362.499
360.492
358.486
356.479
354.472
352.465
350.458
348.452
346.444
344.438
342.431
340.425
338.417
336.411
334.403
332.398
330.39
328.385
326.376
324.371
322.362
320.357
318.35
316.34
314.339
312.324
310.327
308.308
306.316
304.292
302.305
300.276
298.296
296.258
294.287
292.239
290.278
288.219
286.271
284.198
282.264
280.176
278.258
276.153
274.254
272.129
270.249
268.104
266.246
264.078
262.243
260.051
258.24
256.024
254.237
251.997
250.234
247.97
246.23
243.943
242.225
239.917
238.219
235.892
234.212
231.869
230.203
227.846
226.194
223.825
222.183
219.805
218.171
215.787
214.158
211.771
210.143
207.756
206.126
203.742
202.108
199.73
198.089
195.72
194.069
191.711
190.048
187.703
186.025
183.697
182.002
179.691
177.978
175.686
173.954
171.681
169.93
167.677
165.905
163.672
161.88
159.668
157.856
155.664
153.832
151.659
149.808
147.653
145.785
143.647
141.763
139.641
137.742
135.634
133.72
131.625
129.699
127.617
125.68
123.61
121.661
119.6
117.641
115.588
113.622
111.578
109.606
107.57
105.589
103.557
101.57
99.543
97.5529
95.5321
93.5397
91.5219
89.5238
87.5075
85.5057
83.4914
81.4902
79.4789
77.4782
75.4676
73.4638
71.4521
69.4458
67.4343
65.4308
63.4217
61.4197
59.4101
57.4056
55.3936
53.3871
51.3761
49.3713
47.3635
45.3615
43.3509
41.3484
39.3329
37.3296
35.3144
33.311
31.3061
29.2972
27.2984
25.2783
23.2847
21.2668
19.2145
17.3545
15.0604
13.5617
10.7983
9.76699
7.01659
4.66079
5.33543
-1.73257
6.27209
1.35905
0.950265
584.861
578.499
575.875
572.741
570.799
568.874
567.294
565.672
564.17
562.655
561.17
559.684
558.225
556.766
555.311
553.875
552.422
550.975
549.526
548.077
546.627
545.179
543.718
542.235
540.727
539.2
537.651
536.084
534.498
532.898
531.283
529.654
528.016
526.37
524.719
523.062
521.401
519.735
518.066
516.395
514.72
513.044
511.366
509.687
508.006
506.325
504.641
502.959
501.273
499.591
497.902
496.225
494.518
492.878
491.093
489.613
487.486
486.701
482.952
484.211
477.121
468.432
471.74
467.597
466.021
463.972
462.088
460.19
458.278
456.363
454.427
452.494
450.543
448.591
446.625
444.657
442.678
440.695
438.706
436.714
434.718
432.72
430.72
428.719
426.715
424.712
422.707
420.701
418.695
416.688
414.682
412.674
410.668
408.66
406.653
404.645
402.638
400.631
398.624
396.617
394.61
392.602
390.595
388.588
386.581
384.575
382.568
380.561
378.554
376.547
374.54
372.533
370.527
368.52
366.513
364.506
362.499
360.492
358.486
356.479
354.472
352.465
350.458
348.452
346.444
344.438
342.431
340.425
338.417
336.411
334.403
332.398
330.39
328.385
326.376
324.371
322.362
320.357
318.35
316.34
314.339
312.324
310.327
308.308
306.316
304.292
302.305
300.276
298.296
296.258
294.286
292.239
290.278
288.219
286.271
284.198
282.264
280.176
278.258
276.153
274.253
272.129
270.249
268.104
266.245
264.078
262.242
260.052
258.239
256.025
254.236
251.998
250.233
247.971
246.229
243.944
242.224
239.918
238.218
235.893
234.211
231.869
230.203
227.847
226.193
223.826
222.182
219.806
218.17
215.788
214.157
211.771
210.142
207.756
206.126
203.743
202.108
199.731
198.089
195.72
194.068
191.711
190.047
187.704
186.025
183.698
182.002
179.691
177.978
175.686
173.954
171.681
169.929
167.677
165.905
163.673
161.88
159.668
157.856
155.664
153.832
151.659
149.808
147.653
145.785
143.647
141.763
139.642
137.742
135.634
133.719
131.625
129.698
127.618
125.68
123.61
121.661
119.6
117.641
115.588
113.622
111.578
109.606
107.57
105.589
103.557
101.57
99.5431
97.5528
95.5322
93.5397
91.5219
89.5238
87.5075
85.5057
83.4914
81.4902
79.4789
77.4782
75.4676
73.4638
71.452
69.4459
67.4344
65.4308
63.4217
61.4197
59.4101
57.4056
55.3936
53.3871
51.3761
49.3713
47.3635
45.3615
43.3509
41.3484
39.3329
37.3295
35.3144
33.311
31.3061
29.2972
27.2983
25.2783
23.2846
21.2669
19.2145
17.3543
15.0609
13.5609
10.7994
9.76492
7.01943
4.66086
5.33048
-1.71069
6.25943
1.35706
0.948327
)
;

boundaryField
{
    inlet
    {
        type            buoyantPressure;
        gradient        nonuniform List<scalar> 8(1.92384e-12 -6.77525e-12 -8.36451e-13 -5.91371e-11 4.74268e-11 -4.50847e-11 -3.80585e-11 -2.63482e-11);
        rho             rho;
        value           nonuniform List<scalar> 8(585.21 585.131 585.023 584.955 584.881 584.842 584.835 584.861);
    }
    outlet
    {
        type            fixedValue;
        value           uniform 0;
    }
    sideWall
    {
        type            empty;
    }
    bed
    {
        type            buoyantPressure;
        gradient        uniform -0;
        rho             rho;
        value           nonuniform List<scalar> 
300
(
585.21
578.39
575.818
572.684
570.744
568.838
567.269
565.648
564.148
562.634
561.153
559.666
558.207
556.751
555.297
553.859
552.407
550.962
549.513
548.066
546.618
545.17
543.711
542.23
540.723
539.197
537.649
536.082
534.497
532.897
531.282
529.654
528.016
526.37
524.719
523.062
521.4
519.735
518.066
516.394
514.72
513.044
511.366
509.687
508.006
506.325
504.641
502.959
501.273
499.591
497.902
496.225
494.518
492.878
491.093
489.613
487.488
486.729
483.013
484.572
477.03
468.041
471.865
467.57
466.005
463.962
462.082
460.186
458.275
456.361
454.426
452.494
450.543
448.591
446.625
444.657
442.678
440.695
438.706
436.714
434.718
432.721
430.72
428.719
426.716
424.712
422.707
420.701
418.695
416.688
414.682
412.674
410.668
408.66
406.653
404.645
402.638
400.631
398.624
396.617
394.61
392.602
390.595
388.588
386.581
384.575
382.568
380.561
378.554
376.547
374.54
372.533
370.527
368.52
366.513
364.506
362.499
360.492
358.486
356.479
354.472
352.465
350.458
348.452
346.444
344.438
342.431
340.425
338.417
336.411
334.403
332.398
330.39
328.385
326.376
324.371
322.362
320.357
318.35
316.34
314.339
312.324
310.327
308.308
306.316
304.292
302.306
300.275
298.296
296.257
294.287
292.238
290.279
288.218
286.272
284.197
282.266
280.174
278.261
276.151
274.256
272.126
270.252
268.101
266.249
264.074
262.246
260.047
258.244
256.02
254.242
251.992
250.239
247.965
246.235
243.937
242.231
239.911
238.226
235.885
234.219
231.861
230.211
227.839
226.201
223.818
222.191
219.798
218.179
215.779
214.165
211.763
210.151
207.748
206.134
203.734
202.116
199.722
198.097
195.712
194.076
191.704
190.055
187.696
186.032
183.69
182.008
179.685
177.984
175.68
173.96
171.676
169.935
167.672
165.91
163.668
161.885
159.664
157.86
155.66
153.836
151.655
149.812
147.65
145.788
143.644
141.766
139.639
137.744
135.632
133.722
131.623
129.701
127.616
125.682
123.608
121.663
119.598
117.642
115.586
113.623
111.577
109.607
107.569
105.59
103.556
101.57
99.5423
97.5533
95.5316
93.5402
91.5216
89.5241
87.5074
85.5058
83.4911
81.4902
79.4786
77.4783
75.4676
73.4639
71.4521
69.4458
67.4342
65.4308
63.4215
61.4199
59.4102
57.4057
55.3937
53.387
51.376
49.3712
47.3633
45.3617
43.3509
41.3486
39.333
37.3297
35.3139
33.311
31.306
29.2973
27.2987
25.2782
23.286
21.2647
19.2142
17.3578
15.0527
13.5733
10.7754
9.8176
6.9564
4.66554
5.31919
-2.14964
6.53604
1.39657
0.970945
)
;
    }
    topWall
    {
        type            slip;
        value           nonuniform List<scalar> 
300
(
584.861
578.499
575.875
572.741
570.799
568.874
567.294
565.672
564.17
562.655
561.17
559.684
558.225
556.766
555.311
553.875
552.422
550.975
549.526
548.077
546.627
545.179
543.718
542.235
540.727
539.2
537.651
536.084
534.498
532.898
531.283
529.654
528.016
526.37
524.719
523.062
521.401
519.735
518.066
516.395
514.72
513.044
511.366
509.687
508.006
506.325
504.641
502.959
501.273
499.591
497.902
496.225
494.518
492.878
491.093
489.613
487.486
486.701
482.952
484.211
477.121
468.432
471.74
467.597
466.021
463.972
462.088
460.19
458.278
456.363
454.427
452.494
450.543
448.591
446.625
444.657
442.678
440.695
438.706
436.714
434.718
432.72
430.72
428.719
426.715
424.712
422.707
420.701
418.695
416.688
414.682
412.674
410.668
408.66
406.653
404.645
402.638
400.631
398.624
396.617
394.61
392.602
390.595
388.588
386.581
384.575
382.568
380.561
378.554
376.547
374.54
372.533
370.527
368.52
366.513
364.506
362.499
360.492
358.486
356.479
354.472
352.465
350.458
348.452
346.444
344.438
342.431
340.425
338.417
336.411
334.403
332.398
330.39
328.385
326.376
324.371
322.362
320.357
318.35
316.34
314.339
312.324
310.327
308.308
306.316
304.292
302.305
300.276
298.296
296.258
294.286
292.239
290.278
288.219
286.271
284.198
282.264
280.176
278.258
276.153
274.253
272.129
270.249
268.104
266.245
264.078
262.242
260.052
258.239
256.025
254.236
251.998
250.233
247.971
246.229
243.944
242.224
239.918
238.218
235.893
234.211
231.869
230.203
227.847
226.193
223.826
222.182
219.806
218.17
215.788
214.157
211.771
210.142
207.756
206.126
203.743
202.108
199.731
198.089
195.72
194.068
191.711
190.047
187.704
186.025
183.698
182.002
179.691
177.978
175.686
173.954
171.681
169.929
167.677
165.905
163.673
161.88
159.668
157.856
155.664
153.832
151.659
149.808
147.653
145.785
143.647
141.763
139.642
137.742
135.634
133.719
131.625
129.698
127.618
125.68
123.61
121.661
119.6
117.641
115.588
113.622
111.578
109.606
107.57
105.589
103.557
101.57
99.5431
97.5528
95.5322
93.5397
91.5219
89.5238
87.5075
85.5057
83.4914
81.4902
79.4789
77.4782
75.4676
73.4638
71.452
69.4459
67.4344
65.4308
63.4217
61.4197
59.4101
57.4056
55.3936
53.3871
51.3761
49.3713
47.3635
45.3615
43.3509
41.3484
39.3329
37.3295
35.3144
33.311
31.3061
29.2972
27.2983
25.2783
23.2846
21.2669
19.2145
17.3543
15.0609
13.5609
10.7994
9.76492
7.01943
4.66086
5.33048
-1.71069
6.25943
1.35706
0.948327
)
;
    }
}


// ************************************************************************* //
