/*--------------------------------*- C++ -*----------------------------------*\
| =========                 |                                                 |
| \\      /  F ield         | foam-extend: Open Source CFD                    |
|  \\    /   O peration     | Version:     3.2                                |
|   \\  /    A nd           | Web:         http://www.foam-extend.org         |
|    \\/     M anipulation  | For copyright notice see file Copyright         |
\*---------------------------------------------------------------------------*/
FoamFile
{
    version     2.0;
    format      ascii;
    class       areaScalarField;
    location    "2000";
    object      Pef;
}
// * * * * * * * * * * * * * * * * * * * * * * * * * * * * * * * * * * * * * //

dimensions      [0 0 0 0 0 0 0];

internalField   nonuniform List<scalar> 
300
(
0.354497
0.452769
0.370497
0.298684
0.257254
0.240077
0.233438
0.232618
0.233728
0.235998
0.238732
0.241511
0.244206
0.247046
0.249772
0.25253
0.255451
0.25837
0.261356
0.264365
0.267382
0.270403
0.273512
0.276712
0.279814
0.282671
0.285252
0.287522
0.289494
0.291181
0.292625
0.29386
0.29489
0.295736
0.296413
0.296971
0.297433
0.297824
0.298151
0.298432
0.298666
0.298872
0.299039
0.299191
0.299309
0.299424
0.299505
0.299594
0.299649
0.299724
0.299742
0.299849
0.299748
0.300055
0.299493
0.300744
0.298087
0.303154
0.284665
0.316482
0.40614
0.391327
0.355254
0.358069
0.355013
0.353669
0.351968
0.351063
0.350689
0.350643
0.350688
0.350735
0.350826
0.35091
0.351015
0.351108
0.351216
0.35131
0.3514
0.351472
0.351533
0.351579
0.351616
0.351642
0.351671
0.351684
0.351707
0.351718
0.351737
0.351746
0.351758
0.351765
0.351771
0.351777
0.351786
0.351789
0.35179
0.351793
0.351796
0.3518
0.351803
0.351807
0.351807
0.351805
0.351807
0.351807
0.351809
0.35181
0.351812
0.351812
0.351816
0.351814
0.35181
0.35181
0.351809
0.35181
0.35181
0.35181
0.351812
0.351812
0.351813
0.351814
0.351814
0.351818
0.351812
0.351812
0.351808
0.351812
0.351807
0.351812
0.351806
0.351812
0.351807
0.351813
0.351809
0.351811
0.351815
0.351801
0.351824
0.351798
0.351828
0.351783
0.351846
0.351779
0.351843
0.35176
0.351855
0.351746
0.351867
0.351729
0.351881
0.351711
0.351897
0.35169
0.351915
0.351668
0.351935
0.351644
0.351956
0.351618
0.351977
0.351592
0.351999
0.351565
0.352021
0.351539
0.352041
0.351513
0.35206
0.351489
0.352077
0.351468
0.35209
0.351451
0.35211
0.351442
0.352121
0.351434
0.352126
0.35143
0.352127
0.35143
0.352125
0.351433
0.352119
0.351439
0.35211
0.35145
0.352099
0.351463
0.352084
0.35148
0.352067
0.3515
0.352056
0.351526
0.352039
0.351552
0.352019
0.351579
0.351993
0.351604
0.351979
0.351632
0.35196
0.35166
0.351881
0.351635
0.35183
0.351624
0.351928
0.351747
0.351917
0.351771
0.351619
0.351502
0.351542
0.351446
0.351901
0.351839
0.351896
0.351855
0.351242
0.351174
0.35114
0.351078
0.351895
0.351894
0.351894
0.3519
0.350779
0.350697
0.35066
0.350579
0.351898
0.351916
0.351896
0.351919
0.350266
0.350135
0.350141
0.35001
0.351902
0.351915
0.351901
0.351916
0.34974
0.349551
0.349622
0.349436
0.351899
0.351907
0.351899
0.351903
0.349243
0.349001
0.349143
0.34891
0.351894
0.351894
0.35189
0.35189
0.348805
0.348484
0.348713
0.348394
0.35189
0.351887
0.351889
0.351889
0.348387
0.34796
0.348312
0.347859
0.351899
0.351875
0.351898
0.35189
0.347982
0.347408
0.347871
0.3473
0.35188
0.351943
0.351864
0.351875
0.348561
0.345642
0.34877
0.344685
0.349063
0.344982
0.345795
0.351
0.344055
0.377889
0.312298
0.265227
0.285527
0.290481
)
;

boundaryField
{
    inlet
    {
        type            calculated;
        value           uniform 0;
    }
    outlet
    {
        type            calculated;
        value           uniform 0;
    }
    sideWall
    {
        type            empty;
    }
}


// ************************************************************************* //
