/*--------------------------------*- C++ -*----------------------------------*\
| =========                 |                                                 |
| \\      /  F ield         | foam-extend: Open Source CFD                    |
|  \\    /   O peration     | Version:     3.2                                |
|   \\  /    A nd           | Web:         http://www.foam-extend.org         |
|    \\/     M anipulation  | For copyright notice see file Copyright         |
\*---------------------------------------------------------------------------*/
FoamFile
{
    version     2.0;
    format      ascii;
    class       surfaceScalarField;
    location    "2000";
    object      phi;
}
// * * * * * * * * * * * * * * * * * * * * * * * * * * * * * * * * * * * * * //

dimensions      [0 3 -1 0 0 0 0];

internalField   nonuniform List<scalar> 
4492
(
1.71518e-05
5.34822e-06
1.40279e-05
3.12387e-06
1.2101e-05
1.9269e-06
1.12036e-05
8.97374e-07
1.0844e-05
3.59624e-07
1.07123e-05
1.31668e-07
1.06828e-05
2.94996e-08
1.06959e-05
-1.3074e-08
1.0729e-05
-3.30847e-08
1.07721e-05
-4.30906e-08
1.08176e-05
-4.55132e-08
1.08597e-05
-4.20763e-08
1.09033e-05
-4.36184e-08
1.09462e-05
-4.29258e-08
1.09868e-05
-4.05954e-08
1.1031e-05
-4.42215e-08
1.10756e-05
-4.45357e-08
1.11202e-05
-4.45779e-08
1.11651e-05
-4.48929e-08
1.12099e-05
-4.48223e-08
1.12547e-05
-4.48067e-08
1.13017e-05
-4.70222e-08
1.13522e-05
-5.0449e-08
1.14033e-05
-5.11311e-08
1.1451e-05
-4.77236e-08
1.14944e-05
-4.34283e-08
1.1533e-05
-3.85709e-08
1.15667e-05
-3.36927e-08
1.15957e-05
-2.89984e-08
1.16206e-05
-2.48629e-08
1.1642e-05
-2.14151e-08
1.166e-05
-1.80198e-08
1.16748e-05
-1.47788e-08
1.16866e-05
-1.18478e-08
1.16962e-05
-9.61951e-09
1.17043e-05
-8.0708e-09
1.17111e-05
-6.77219e-09
1.17168e-05
-5.72419e-09
1.17217e-05
-4.84606e-09
1.17258e-05
-4.12805e-09
1.17293e-05
-3.51121e-09
1.17323e-05
-2.99498e-09
1.17348e-05
-2.55598e-09
1.1737e-05
-2.16943e-09
1.17389e-05
-1.85252e-09
1.17405e-05
-1.59004e-09
1.17418e-05
-1.32789e-09
1.1743e-05
-1.21231e-09
1.1744e-05
-9.94691e-10
1.17448e-05
-8.30383e-10
1.17456e-05
-8.11792e-10
1.17461e-05
-5.08791e-10
1.17467e-05
-5.40727e-10
1.1747e-05
-3.32231e-10
1.17475e-05
-4.3823e-10
1.17464e-05
1.08295e-09
1.17406e-05
5.75467e-09
1.16346e-05
1.06048e-07
1.18132e-05
-1.78677e-07
1.34078e-05
-1.59458e-06
1.37436e-05
-3.35743e-07
1.25807e-05
1.16283e-06
1.25627e-05
1.80914e-08
1.2563e-05
-3.48954e-10
1.25255e-05
3.7513e-08
1.24926e-05
3.28998e-08
1.2471e-05
2.16022e-08
1.24648e-05
6.17183e-09
1.24648e-05
-3.35192e-11
1.24676e-05
-2.73667e-09
1.24699e-05
-2.27527e-09
1.24729e-05
-3.04094e-09
1.24757e-05
-2.79169e-09
1.24788e-05
-3.14634e-09
1.24816e-05
-2.75528e-09
1.24845e-05
-2.88597e-09
1.2487e-05
-2.56775e-09
1.24894e-05
-2.3245e-09
1.24913e-05
-1.89143e-09
1.24928e-05
-1.5664e-09
1.2494e-05
-1.20949e-09
1.2495e-05
-9.85498e-10
1.24957e-05
-7.22584e-10
1.24964e-05
-6.84294e-10
1.24969e-05
-4.53336e-10
1.24973e-05
-4.28895e-10
1.24977e-05
-4.04922e-10
1.2498e-05
-2.93982e-10
1.24983e-05
-3.0785e-10
1.24985e-05
-1.54767e-10
1.24987e-05
-1.98341e-10
1.24987e-05
-4.69619e-11
1.24989e-05
-1.38279e-10
1.24989e-05
-9.15758e-11
1.2499e-05
-9.80901e-11
1.2499e-05
3.78224e-11
1.24991e-05
-5.58609e-11
1.24991e-05
-2.43757e-11
1.24991e-05
-5.61943e-11
1.24992e-05
-3.4674e-11
1.24992e-05
-5.76281e-11
1.24992e-05
-1.23644e-11
1.24992e-05
6.94374e-11
1.24992e-05
-5.62803e-12
1.24992e-05
-1.17527e-11
1.24992e-05
-1.17517e-11
1.24992e-05
-2.34132e-11
1.24992e-05
-1.37713e-11
1.24993e-05
-2.61752e-11
1.24993e-05
-2.2403e-11
1.24993e-05
-2.36361e-11
1.24992e-05
1.07833e-10
1.24992e-05
1.87288e-12
1.24992e-05
1.52058e-11
1.24992e-05
-1.1616e-11
1.24992e-05
-1.85238e-12
1.24992e-05
-2.13089e-11
1.24992e-05
-2.8265e-12
1.24993e-05
-3.00212e-11
1.24993e-05
1.91379e-12
1.24993e-05
-2.89416e-11
1.24993e-05
1.54513e-12
1.24993e-05
-3.45825e-11
1.24993e-05
-6.97756e-13
1.24992e-05
1.05572e-10
1.24992e-05
6.10679e-12
1.24992e-05
2.74276e-11
1.24992e-05
-3.02178e-11
1.24992e-05
4.07653e-11
1.24992e-05
-5.84099e-11
1.24992e-05
6.33379e-11
1.24993e-05
-9.55806e-11
1.24992e-05
9.79892e-11
1.24993e-05
-1.35727e-10
1.24992e-05
1.40055e-10
1.24993e-05
-1.83121e-10
1.24992e-05
1.54053e-10
1.24993e-05
-1.54127e-10
1.24992e-05
9.27956e-11
1.24992e-05
-6.33372e-12
1.24994e-05
-1.85341e-10
1.24991e-05
3.33816e-10
1.24996e-05
-4.54637e-10
1.24989e-05
7.04902e-10
1.24995e-05
-6.90344e-10
1.24987e-05
8.82988e-10
1.24997e-05
-1.0337e-09
1.24984e-05
1.23968e-09
1.24999e-05
-1.44459e-09
1.24982e-05
1.68838e-09
1.25002e-05
-1.95428e-09
1.24979e-05
2.24219e-09
1.25005e-05
-2.56326e-09
1.24976e-05
2.909e-09
1.25008e-05
-3.2834e-09
1.24971e-05
3.68839e-09
1.25013e-05
-4.12476e-09
1.24967e-05
4.58917e-09
1.25017e-05
-5.08449e-09
1.24961e-05
5.60889e-09
1.25023e-05
-6.16247e-09
1.24955e-05
6.74155e-09
1.25029e-05
-7.34973e-09
1.24949e-05
7.98086e-09
1.25035e-05
-8.6308e-09
1.24942e-05
9.30638e-09
1.25042e-05
-9.9944e-09
1.24935e-05
1.07024e-08
1.25049e-05
-1.14159e-08
1.24927e-05
1.21403e-08
1.25056e-05
-1.28656e-08
1.2492e-05
1.35913e-08
1.25063e-05
-1.43083e-08
1.24914e-05
1.48997e-08
1.25071e-05
-1.57289e-08
1.24907e-05
1.63554e-08
1.25078e-05
-1.7043e-08
1.24901e-05
1.76455e-08
1.25084e-05
-1.82553e-08
1.24896e-05
1.87933e-08
1.25089e-05
-1.93152e-08
1.24891e-05
1.97787e-08
1.25093e-05
-2.02262e-08
1.24887e-05
2.06237e-08
1.25096e-05
-2.09942e-08
1.24883e-05
2.13171e-08
1.25099e-05
-2.16137e-08
1.24881e-05
2.18573e-08
1.25101e-05
-2.20687e-08
1.24879e-05
2.22285e-08
1.25102e-05
-2.235e-08
1.24878e-05
2.24232e-08
1.25102e-05
-2.24551e-08
1.24879e-05
2.23173e-08
1.25103e-05
-2.23862e-08
1.24881e-05
2.22358e-08
1.25102e-05
-2.2114e-08
1.24883e-05
2.19106e-08
1.251e-05
-2.16898e-08
1.24886e-05
2.13967e-08
1.25096e-05
-2.10752e-08
1.2489e-05
2.06855e-08
1.25093e-05
-2.02997e-08
1.24894e-05
1.98437e-08
1.25089e-05
-1.942e-08
1.24901e-05
1.87339e-08
1.25085e-05
-1.84718e-08
1.24907e-05
1.77777e-08
1.25081e-05
-1.7316e-08
1.24914e-05
1.67813e-08
1.25076e-05
-1.6102e-08
1.2492e-05
1.55783e-08
1.2507e-05
-1.50429e-08
1.24927e-05
1.41809e-08
1.25065e-05
-1.39685e-08
1.24935e-05
1.29615e-08
1.25061e-05
-1.25375e-08
1.24942e-05
1.21849e-08
1.25056e-05
-1.11297e-08
1.24948e-05
1.08729e-08
1.25051e-05
-1.03518e-08
1.24955e-05
9.25354e-09
1.25046e-05
-9.55857e-09
1.24961e-05
8.33654e-09
1.25042e-05
-7.96088e-09
1.24966e-05
8.12527e-09
1.25038e-05
-6.59197e-09
1.24972e-05
6.86507e-09
1.25034e-05
-6.43325e-09
1.24976e-05
5.07281e-09
1.25031e-05
-6.21197e-09
1.2498e-05
4.76447e-09
1.25027e-05
-4.3772e-09
1.24984e-05
5.15105e-09
1.25024e-05
-2.9807e-09
1.24989e-05
3.79274e-09
1.25021e-05
-3.42945e-09
1.24993e-05
1.69331e-09
1.25018e-05
-3.64588e-09
1.24994e-05
1.98665e-09
1.25015e-05
-1.69974e-09
1.24996e-05
3.17042e-09
1.25013e-05
-4.30252e-10
1.24999e-05
1.95118e-09
1.25013e-05
-1.84952e-09
1.25001e-05
-2.17456e-10
1.2501e-05
-2.46392e-09
1.25e-05
5.15558e-10
1.25008e-05
-2.70744e-10
1.25e-05
2.3483e-09
1.25008e-05
8.99063e-10
1.25003e-05
1.0854e-09
1.25008e-05
-1.02145e-09
1.25003e-05
-1.30602e-09
1.25006e-05
-2.09141e-09
1.25002e-05
-2.47504e-10
1.25004e-05
3.53806e-10
1.25002e-05
2.21283e-09
1.25005e-05
1.66232e-09
1.25004e-05
8.73314e-10
1.25006e-05
-8.47694e-10
1.25004e-05
-1.94984e-09
1.25005e-05
-2.22236e-09
1.25001e-05
-4.47808e-10
1.25002e-05
6.32534e-10
1.25001e-05
2.39333e-09
1.25005e-05
1.92934e-09
1.25004e-05
9.14435e-10
1.25006e-05
-9.72889e-10
1.25003e-05
-2.09978e-09
1.25003e-05
-2.49139e-09
1.25001e-05
-7.11785e-10
1.25001e-05
8.92737e-10
1.25001e-05
2.48044e-09
1.25005e-05
2.27154e-09
1.25003e-05
1.10148e-09
1.25009e-05
-1.35508e-09
1.25003e-05
-2.11553e-09
1.25007e-05
-3.2397e-09
1.25001e-05
-4.62873e-10
1.25002e-05
8.34719e-10
1.25004e-05
2.70584e-09
1.25007e-05
2.63733e-09
1.25011e-05
7.61253e-10
1.24997e-05
6.28866e-10
1.25039e-05
-5.58862e-09
1.25001e-05
3.12075e-09
1.24986e-05
1.4657e-09
1.24918e-05
6.80025e-09
1.25009e-05
-9.07618e-09
1.25326e-05
-3.17694e-08
1.24298e-05
1.02891e-07
1.25524e-05
-1.2265e-07
1.24674e-05
8.50108e-08
1.26792e-05
-2.1179e-07
1.23605e-05
3.18648e-07
1.07078e-05
1.65276e-06
1.11959e-05
-4.88129e-07
1.14966e-05
-3.00649e-07
-7.33523e-08
2.19836e-05
5.86462e-06
2.09465e-05
4.16102e-06
1.98344e-05
3.03891e-06
1.8948e-05
1.78386e-06
1.83739e-05
9.33697e-07
1.80028e-05
5.02771e-07
1.77611e-05
2.71163e-07
1.76009e-05
1.47179e-07
1.74895e-05
7.82763e-08
1.74214e-05
2.50498e-08
1.73851e-05
-9.25273e-09
1.73699e-05
-2.69025e-08
1.73722e-05
-4.58663e-08
1.73847e-05
-5.54551e-08
1.74068e-05
-6.27418e-08
1.74395e-05
-7.68909e-08
1.74798e-05
-8.47756e-08
1.75271e-05
-9.18877e-08
1.75798e-05
-9.76212e-08
1.76366e-05
-1.01585e-07
1.76962e-05
-1.04428e-07
1.77583e-05
-1.09144e-07
1.78228e-05
-1.14944e-07
1.7887e-05
-1.15343e-07
1.79472e-05
-1.07875e-07
1.80023e-05
-9.85817e-08
1.8052e-05
-8.82466e-08
1.80962e-05
-7.7878e-08
1.8135e-05
-6.78371e-08
1.8169e-05
-5.88584e-08
1.81989e-05
-5.13074e-08
1.82247e-05
-4.38678e-08
1.82466e-05
-3.66645e-08
1.82648e-05
-2.99772e-08
1.82799e-05
-2.47109e-08
1.82927e-05
-2.09147e-08
1.83037e-05
-1.77554e-08
1.83131e-05
-1.51302e-08
1.83212e-05
-1.29119e-08
1.83281e-05
-1.1034e-08
1.8334e-05
-9.43109e-09
1.8339e-05
-8.04933e-09
1.83434e-05
-6.89476e-09
1.83471e-05
-5.85131e-09
1.83502e-05
-5.02674e-09
1.83529e-05
-4.27792e-09
1.83552e-05
-3.64339e-09
1.83572e-05
-3.20055e-09
1.83589e-05
-2.70454e-09
1.83605e-05
-2.41371e-09
1.83618e-05
-2.06256e-09
1.83628e-05
-1.55168e-09
1.83636e-05
-1.29726e-09
1.83643e-05
-1.11055e-09
1.83646e-05
-7.29009e-10
1.83643e-05
1.3872e-09
1.83548e-05
1.53111e-08
1.82582e-05
2.02625e-07
1.84285e-05
-3.49023e-07
1.98072e-05
-2.97319e-06
2.04367e-05
-9.65302e-07
1.98314e-05
1.76809e-06
1.97554e-05
9.40944e-08
1.9706e-05
4.91271e-08
1.96502e-05
9.33096e-08
1.95814e-05
1.01641e-07
1.95236e-05
7.94582e-08
1.94859e-05
4.38179e-08
1.94603e-05
2.55758e-08
1.94434e-05
1.41792e-08
1.9431e-05
1.013e-08
1.94227e-05
5.21691e-09
1.94172e-05
2.7917e-09
1.94139e-05
1.31501e-10
1.94121e-05
-9.41344e-10
1.94117e-05
-2.48586e-09
1.94119e-05
-2.80226e-09
1.94127e-05
-3.11395e-09
1.94137e-05
-2.87734e-09
1.94147e-05
-2.64133e-09
1.94158e-05
-2.22284e-09
1.94167e-05
-1.95498e-09
1.94176e-05
-1.55251e-09
1.94184e-05
-1.52638e-09
1.94191e-05
-1.13307e-09
1.94197e-05
-1.08275e-09
1.94204e-05
-1.03796e-09
1.94209e-05
-8.35438e-10
1.94215e-05
-8.57323e-10
1.94218e-05
-5.41777e-10
1.94223e-05
-6.06648e-10
1.94225e-05
-3.0327e-10
1.94228e-05
-4.22879e-10
1.9423e-05
-3.37893e-10
1.94233e-05
-3.21374e-10
1.94234e-05
-5.19737e-11
1.94235e-05
-1.8256e-10
1.94236e-05
-1.09613e-10
1.94237e-05
-1.65026e-10
1.94238e-05
-1.17232e-10
1.94238e-05
-1.47691e-10
1.94239e-05
-7.36586e-11
1.94239e-05
9.02942e-11
1.94239e-05
-1.53452e-11
1.94239e-05
-2.38932e-11
1.94239e-05
-2.52553e-11
1.94239e-05
-4.65157e-11
1.9424e-05
-3.30078e-11
1.9424e-05
-5.70587e-11
1.9424e-05
-4.88084e-11
1.9424e-05
-4.19235e-11
1.9424e-05
1.84797e-10
1.9424e-05
1.48825e-11
1.94239e-05
4.0027e-11
1.94239e-05
-1.20926e-11
1.94239e-05
5.0722e-12
1.94239e-05
-3.28484e-11
1.94239e-05
-8.53159e-12
1.9424e-05
-5.4878e-11
1.9424e-05
-4.07287e-12
1.9424e-05
-5.90884e-11
1.9424e-05
-6.17235e-12
1.9424e-05
-6.08718e-11
1.9424e-05
-2.25197e-12
1.9424e-05
1.75578e-10
1.9424e-05
1.70612e-11
1.94239e-05
7.20946e-11
1.94239e-05
-4.09769e-11
1.94239e-05
7.97046e-11
1.94239e-05
-9.24855e-11
1.94239e-05
1.0426e-10
1.94239e-05
-1.55481e-10
1.94239e-05
1.48783e-10
1.9424e-05
-2.26308e-10
1.94239e-05
2.28906e-10
1.9424e-05
-3.26853e-10
1.94239e-05
2.52634e-10
1.9424e-05
-2.48804e-10
1.94241e-05
6.56004e-11
1.9424e-05
8.11958e-11
1.94241e-05
-3.57137e-10
1.94239e-05
5.63771e-10
1.94242e-05
-7.70308e-10
1.94237e-05
1.20095e-09
1.94242e-05
-1.16652e-09
1.94235e-05
1.53775e-09
1.94243e-05
-1.75921e-09
1.94234e-05
2.11957e-09
1.94244e-05
-2.46642e-09
1.94232e-05
2.86663e-09
1.94246e-05
-3.33894e-09
1.94231e-05
3.79494e-09
1.94249e-05
-4.37737e-09
1.94229e-05
4.919e-09
1.94252e-05
-5.60336e-09
1.94226e-05
6.2352e-09
1.94256e-05
-7.03549e-09
1.94224e-05
7.75732e-09
1.9426e-05
-8.67027e-09
1.94221e-05
9.48329e-09
1.94264e-05
-1.05077e-08
1.94218e-05
1.14031e-08
1.9427e-05
-1.25337e-08
1.94214e-05
1.35083e-08
1.94275e-05
-1.47222e-08
1.94211e-05
1.5765e-08
1.94281e-05
-1.70539e-08
1.94207e-05
1.81456e-08
1.94288e-05
-1.94891e-08
1.94203e-05
2.06029e-08
1.94294e-05
-2.19757e-08
1.94199e-05
2.31043e-08
1.94301e-05
-2.44824e-08
1.94196e-05
2.53489e-08
1.94308e-05
-2.69474e-08
1.94194e-05
2.78285e-08
1.94315e-05
-2.92209e-08
1.94191e-05
3.00911e-08
1.94322e-05
-3.13246e-08
1.94189e-05
3.21141e-08
1.94328e-05
-3.32393e-08
1.94186e-05
3.39564e-08
1.94332e-05
-3.48643e-08
1.94184e-05
3.54455e-08
1.94336e-05
-3.61941e-08
1.94183e-05
3.66517e-08
1.94339e-05
-3.72617e-08
1.94182e-05
3.75967e-08
1.94342e-05
-3.80465e-08
1.94181e-05
3.82532e-08
1.94343e-05
-3.85336e-08
1.94181e-05
3.86107e-08
1.94344e-05
-3.87189e-08
1.94183e-05
3.84375e-08
1.94345e-05
-3.86243e-08
1.94185e-05
3.82961e-08
1.94345e-05
-3.81569e-08
1.94186e-05
3.77676e-08
1.94344e-05
-3.74178e-08
1.94189e-05
3.6913e-08
1.94341e-05
-3.63555e-08
1.94191e-05
3.57086e-08
1.94338e-05
-3.50281e-08
1.94194e-05
3.42762e-08
1.94335e-05
-3.3507e-08
1.94198e-05
3.23949e-08
1.94332e-05
-3.18788e-08
1.94203e-05
3.07321e-08
1.94329e-05
-2.99286e-08
1.94207e-05
2.89574e-08
1.94325e-05
-2.78815e-08
1.94211e-05
2.69346e-08
1.94321e-05
-2.5955e-08
1.94215e-05
2.46988e-08
1.94316e-05
-2.39982e-08
1.9422e-05
2.25333e-08
1.94312e-05
-2.17507e-08
1.94225e-05
2.09314e-08
1.94308e-05
-1.949e-08
1.94229e-05
1.88129e-08
1.94304e-05
-1.78484e-08
1.94232e-05
1.64266e-08
1.94299e-05
-1.62274e-08
1.94236e-05
1.46504e-08
1.94295e-05
-1.39308e-08
1.9424e-05
1.37084e-08
1.94292e-05
-1.18415e-08
1.94243e-05
1.1791e-08
1.94288e-05
-1.09448e-08
1.94244e-05
9.41339e-09
1.94284e-05
-1.0183e-08
1.94247e-05
8.49473e-09
1.94281e-05
-7.80923e-09
1.94249e-05
8.33038e-09
1.94278e-05
-5.90103e-09
1.94252e-05
6.38998e-09
1.94273e-05
-5.49591e-09
1.94254e-05
3.63e-09
1.94271e-05
-5.31216e-09
1.94255e-05
3.61087e-09
1.94269e-05
-3.12914e-09
1.94256e-05
4.44281e-09
1.94267e-05
-1.57238e-09
1.94256e-05
3.01973e-09
1.94265e-05
-2.71059e-09
1.94256e-05
7.07967e-10
1.94263e-05
-3.0878e-09
1.94256e-05
1.2002e-09
1.94262e-05
-8.62535e-10
1.94257e-05
2.77681e-09
1.94262e-05
3.91988e-10
1.94258e-05
1.49229e-09
1.9426e-05
-1.21779e-09
1.94255e-05
-8.42205e-10
1.94257e-05
-2.24341e-09
1.94255e-05
-4.69899e-11
1.94259e-05
2.49229e-11
1.94258e-05
2.25456e-09
1.9426e-05
1.43999e-09
1.94257e-05
1.10189e-09
1.94257e-05
-7.90593e-10
1.94254e-05
-1.66536e-09
1.94255e-05
-2.25501e-09
1.94254e-05
-3.19874e-10
1.94257e-05
3.45656e-10
1.94258e-05
2.24187e-09
1.9426e-05
1.65632e-09
1.94258e-05
1.13702e-09
1.94257e-05
-8.70334e-10
1.94252e-05
-1.5906e-09
1.94252e-05
-2.47176e-09
1.94253e-05
-7.74669e-10
1.94256e-05
5.79368e-10
1.94259e-05
2.09418e-09
1.94262e-05
1.95208e-09
1.9426e-05
1.34882e-09
1.94259e-05
-1.24215e-09
1.94251e-05
-1.26785e-09
1.94254e-05
-3.49983e-09
1.94254e-05
-4.73316e-10
1.94261e-05
1.36468e-10
1.94268e-05
1.96631e-09
1.94268e-05
2.58928e-09
1.94264e-05
1.14259e-09
1.94256e-05
1.43945e-09
1.94286e-05
-8.59041e-09
1.9426e-05
5.69045e-09
1.94234e-05
4.13502e-09
1.94256e-05
4.60633e-09
1.943e-05
-1.34964e-08
1.94396e-05
-4.14031e-08
1.93742e-05
1.68353e-07
1.94609e-05
-2.09373e-07
1.94142e-05
1.31706e-07
1.95758e-05
-3.73448e-07
1.92068e-05
6.87677e-07
1.78322e-05
3.0274e-06
1.8e-05
-6.55939e-07
1.81215e-05
-4.2212e-07
-1.13592e-07
2.32751e-05
5.08952e-06
2.35716e-05
3.86449e-06
2.34021e-05
3.20848e-06
2.29418e-05
2.24409e-06
2.2413e-05
1.46255e-06
2.19499e-05
9.65815e-07
2.15928e-05
6.28299e-07
2.13185e-05
4.21506e-07
2.1106e-05
2.90774e-07
2.09557e-05
1.75319e-07
2.08529e-05
9.35955e-08
2.07828e-05
4.3172e-08
2.07414e-05
-4.48623e-09
2.07254e-05
-3.9482e-08
2.07285e-05
-6.583e-08
2.0746e-05
-9.43502e-08
2.0777e-05
-1.15832e-07
2.08196e-05
-1.34486e-07
2.08705e-05
-1.48497e-07
2.09279e-05
-1.58946e-07
2.09892e-05
-1.65736e-07
2.1052e-05
-1.71971e-07
2.11155e-05
-1.78428e-07
2.11777e-05
-1.77508e-07
2.12357e-05
-1.65881e-07
2.12888e-05
-1.51722e-07
2.13367e-05
-1.36178e-07
2.13795e-05
-1.20609e-07
2.14171e-05
-1.05495e-07
2.14502e-05
-9.19152e-08
2.14793e-05
-8.04551e-08
2.15046e-05
-6.91641e-08
2.15261e-05
-5.81616e-08
2.1544e-05
-4.78501e-08
2.15589e-05
-3.96438e-08
2.15717e-05
-3.36573e-08
2.15826e-05
-2.86844e-08
2.1592e-05
-2.45011e-08
2.16e-05
-2.09545e-08
2.16069e-05
-1.79174e-08
2.16128e-05
-1.53317e-08
2.16178e-05
-1.30862e-08
2.16221e-05
-1.1215e-08
2.16258e-05
-9.52339e-09
2.1629e-05
-8.18769e-09
2.16317e-05
-6.956e-09
2.1634e-05
-5.95162e-09
2.16359e-05
-5.1716e-09
2.16376e-05
-4.40891e-09
2.16392e-05
-3.98382e-09
2.16405e-05
-3.30494e-09
2.16415e-05
-2.57887e-09
2.16423e-05
-2.09809e-09
2.1643e-05
-1.8029e-09
2.16435e-05
-1.27306e-09
2.16432e-05
1.69435e-09
2.16391e-05
1.94265e-08
2.15819e-05
2.59823e-07
2.17025e-05
-4.69586e-07
2.27029e-05
-3.97366e-06
2.33066e-05
-1.56899e-06
2.30361e-05
2.03866e-06
2.29719e-05
1.58238e-07
2.29325e-05
8.85918e-08
2.28867e-05
1.39102e-07
2.28255e-05
1.62766e-07
2.27699e-05
1.35057e-07
2.27297e-05
8.40879e-08
2.27001e-05
5.5108e-08
2.26792e-05
3.51084e-08
2.26636e-05
2.57289e-08
2.26525e-05
1.63678e-08
2.26445e-05
1.07636e-08
2.26391e-05
5.47865e-09
2.26356e-05
2.58675e-09
2.26336e-05
-5.20032e-10
2.26327e-05
-1.85481e-09
2.26325e-05
-2.91383e-09
2.26327e-05
-3.10662e-09
2.26332e-05
-3.1295e-09
2.26338e-05
-2.80878e-09
2.26344e-05
-2.59759e-09
2.26351e-05
-2.16272e-09
2.26357e-05
-2.17251e-09
2.26363e-05
-1.70077e-09
2.26368e-05
-1.63704e-09
2.26374e-05
-1.58444e-09
2.26379e-05
-1.33479e-09
2.26384e-05
-1.35969e-09
2.26388e-05
-9.28861e-10
2.26391e-05
-9.98121e-10
2.26394e-05
-5.84249e-10
2.26397e-05
-6.99949e-10
2.264e-05
-5.88639e-10
2.26402e-05
-5.4944e-10
2.26403e-05
-1.73458e-10
2.26404e-05
-3.13779e-10
2.26405e-05
-2.09953e-10
2.26406e-05
-2.70968e-10
2.26407e-05
-2.05551e-10
2.26408e-05
-2.33135e-10
2.26409e-05
-1.45834e-10
2.26409e-05
8.32711e-11
2.26409e-05
-2.55819e-11
2.26409e-05
-3.56105e-11
2.26409e-05
-3.86285e-11
2.2641e-05
-6.65137e-11
2.2641e-05
-5.17637e-11
2.2641e-05
-8.36347e-11
2.2641e-05
-6.80366e-11
2.2641e-05
-5.96319e-11
2.2641e-05
2.24133e-10
2.2641e-05
3.36186e-11
2.2641e-05
6.35412e-11
2.26409e-05
-6.6864e-12
2.26409e-05
1.33929e-11
2.26409e-05
-3.72437e-11
2.26409e-05
-1.31245e-11
2.2641e-05
-7.24908e-11
2.2641e-05
-1.15721e-11
2.2641e-05
-8.26281e-11
2.2641e-05
-1.65071e-11
2.2641e-05
-7.61711e-11
2.2641e-05
-8.05857e-12
2.2641e-05
2.11183e-10
2.2641e-05
3.46606e-11
2.26409e-05
1.11829e-10
2.26409e-05
-4.18855e-11
2.26409e-05
1.07508e-10
2.26409e-05
-1.0836e-10
2.26409e-05
1.28087e-10
2.26409e-05
-1.88028e-10
2.26409e-05
1.72163e-10
2.2641e-05
-2.72791e-10
2.26409e-05
2.625e-10
2.2641e-05
-4.13425e-10
2.2641e-05
3.05546e-10
2.2641e-05
-3.08361e-10
2.26411e-05
2.35792e-11
2.2641e-05
1.64791e-10
2.26411e-05
-4.78409e-10
2.2641e-05
6.92324e-10
2.26411e-05
-9.53437e-10
2.26409e-05
1.47962e-09
2.26411e-05
-1.42089e-09
2.26407e-05
1.9133e-09
2.26411e-05
-2.15721e-09
2.26407e-05
2.60706e-09
2.26412e-05
-3.03373e-09
2.26406e-05
3.50732e-09
2.26414e-05
-4.10919e-09
2.26405e-05
4.63012e-09
2.26415e-05
-5.38353e-09
2.26405e-05
5.9941e-09
2.26417e-05
-6.88496e-09
2.26404e-05
7.59211e-09
2.2642e-05
-8.63694e-09
2.26403e-05
9.44014e-09
2.26423e-05
-1.06356e-08
2.26402e-05
1.15364e-08
2.26426e-05
-1.28809e-08
2.26401e-05
1.38685e-08
2.26429e-05
-1.53558e-08
2.264e-05
1.6427e-08
2.26433e-05
-1.80278e-08
2.26399e-05
1.91714e-08
2.26437e-05
-2.08737e-08
2.26398e-05
2.20669e-08
2.26442e-05
-2.38458e-08
2.26397e-05
2.50567e-08
2.26446e-05
-2.68799e-08
2.26396e-05
2.81059e-08
2.26451e-05
-2.99464e-08
2.26396e-05
3.08314e-08
2.26456e-05
-3.29809e-08
2.26396e-05
3.38329e-08
2.26462e-05
-3.57508e-08
2.26396e-05
3.66124e-08
2.26466e-05
-3.83105e-08
2.26397e-05
3.9097e-08
2.26471e-05
-4.06404e-08
2.26397e-05
4.13588e-08
2.26474e-05
-4.26271e-08
2.26396e-05
4.32128e-08
2.26477e-05
-4.42724e-08
2.26396e-05
4.47301e-08
2.2648e-05
-4.56048e-08
2.26397e-05
4.59304e-08
2.26482e-05
-4.65945e-08
2.26397e-05
4.6783e-08
2.26484e-05
-4.72235e-08
2.26397e-05
4.72784e-08
2.26485e-05
-4.74886e-08
2.26398e-05
4.71135e-08
2.26486e-05
-4.74358e-08
2.26399e-05
4.69649e-08
2.26487e-05
-4.68914e-08
2.264e-05
4.639e-08
2.26486e-05
-4.60109e-08
2.26401e-05
4.54101e-08
2.26485e-05
-4.47364e-08
2.26402e-05
4.39921e-08
2.26484e-05
-4.31461e-08
2.26404e-05
4.22817e-08
2.26482e-05
-4.13078e-08
2.26405e-05
4.00114e-08
2.2648e-05
-3.93521e-08
2.26408e-05
3.7969e-08
2.26478e-05
-3.6985e-08
2.2641e-05
3.58011e-08
2.26476e-05
-3.44926e-08
2.26412e-05
3.33602e-08
2.26473e-05
-3.2089e-08
2.26413e-05
3.06898e-08
2.2647e-05
-2.96455e-08
2.26415e-05
2.80011e-08
2.26467e-05
-2.69872e-08
2.26418e-05
2.59065e-08
2.26465e-05
-2.42326e-08
2.26419e-05
2.33458e-08
2.26461e-05
-2.20319e-08
2.26421e-05
2.04889e-08
2.26457e-05
-1.98383e-08
2.26423e-05
1.81004e-08
2.26454e-05
-1.70934e-08
2.26426e-05
1.65421e-08
2.26451e-05
-1.44328e-08
2.26427e-05
1.42059e-08
2.26448e-05
-1.29988e-08
2.26427e-05
1.15419e-08
2.26445e-05
-1.19265e-08
2.26428e-05
1.01372e-08
2.26444e-05
-9.34518e-09
2.2643e-05
9.68254e-09
2.26442e-05
-7.18902e-09
2.26429e-05
7.69314e-09
2.26439e-05
-6.48394e-09
2.26427e-05
4.82873e-09
2.26437e-05
-6.1899e-09
2.26428e-05
4.49936e-09
2.26436e-05
-3.9969e-09
2.2643e-05
5.05622e-09
2.26435e-05
-2.19537e-09
2.26428e-05
3.70041e-09
2.26432e-05
-3.03455e-09
2.26426e-05
1.39191e-09
2.26429e-05
-3.3955e-09
2.26426e-05
1.51985e-09
2.26431e-05
-1.34163e-09
2.2643e-05
2.83914e-09
2.26432e-05
1.10195e-10
2.26428e-05
1.83889e-09
2.26427e-05
-1.09847e-09
2.26423e-05
-3.34507e-10
2.26424e-05
-2.30508e-09
2.26425e-05
-6.55273e-11
2.26429e-05
-4.30829e-10
2.26431e-05
1.99047e-09
2.26431e-05
1.30934e-09
2.26428e-05
1.41131e-09
2.26424e-05
-4.2072e-10
2.2642e-05
-1.14003e-09
2.26421e-05
-2.25139e-09
2.26422e-05
-4.22829e-10
2.26428e-05
-2.22466e-10
2.26433e-05
1.6468e-09
2.26433e-05
1.47586e-09
2.26429e-05
1.54572e-09
2.26423e-05
-2.88256e-10
2.26416e-05
-7.27827e-10
2.26416e-05
-2.38836e-09
2.2642e-05
-1.16616e-09
2.26428e-05
-2.37909e-10
2.26437e-05
1.14738e-09
2.26439e-05
1.62889e-09
2.26432e-05
1.92517e-09
2.26424e-05
-3.68785e-10
2.26412e-05
9.47252e-11
2.26413e-05
-3.46189e-09
2.2642e-05
-1.17223e-09
2.26436e-05
-1.53982e-09
2.26451e-05
3.89989e-10
2.26447e-05
2.85545e-09
2.26436e-05
2.173e-09
2.26428e-05
2.29477e-09
2.26446e-05
-1.03447e-08
2.26431e-05
7.17614e-09
2.26414e-05
5.87111e-09
2.26442e-05
1.78506e-09
2.26427e-05
-1.19874e-08
2.26477e-05
-4.63531e-08
2.26167e-05
1.9927e-07
2.26628e-05
-2.5542e-07
2.26374e-05
1.57116e-07
2.26743e-05
-4.10355e-07
2.24571e-05
9.04889e-07
2.15676e-05
3.91683e-06
2.14719e-05
-5.60151e-07
2.14901e-05
-4.40346e-07
-1.23734e-07
2.35087e-05
4.08082e-06
2.41984e-05
3.1748e-06
2.4683e-05
2.72386e-06
2.48476e-05
2.07947e-06
2.47726e-05
1.53758e-06
2.45545e-05
1.18395e-06
2.42669e-05
9.15889e-07
2.39811e-05
7.07238e-07
2.37367e-05
5.35178e-07
2.35377e-05
3.74316e-07
2.33769e-05
2.5445e-07
2.32506e-05
1.69463e-07
2.31603e-05
8.58543e-08
2.31024e-05
1.83633e-08
2.30705e-05
-3.39558e-08
2.30618e-05
-8.55807e-08
2.30702e-05
-1.2428e-07
2.30932e-05
-1.57498e-07
2.31291e-05
-1.84336e-07
2.31736e-05
-2.03435e-07
2.32237e-05
-2.15838e-07
2.32746e-05
-2.22916e-07
2.33237e-05
-2.27539e-07
2.33703e-05
-2.24057e-07
2.3413e-05
-2.08614e-07
2.34517e-05
-1.90393e-07
2.34862e-05
-1.70694e-07
2.35167e-05
-1.51088e-07
2.35433e-05
-1.32108e-07
2.35665e-05
-1.1515e-07
2.35869e-05
-1.00868e-07
2.36045e-05
-8.67604e-08
2.36193e-05
-7.29637e-08
2.36315e-05
-6.00344e-08
2.36417e-05
-4.98125e-08
2.36504e-05
-4.23755e-08
2.36579e-05
-3.61836e-08
2.36643e-05
-3.09313e-08
2.36698e-05
-2.64674e-08
2.36745e-05
-2.26265e-08
2.36786e-05
-1.93607e-08
2.3682e-05
-1.6522e-08
2.36849e-05
-1.41517e-08
2.36875e-05
-1.20297e-08
2.36896e-05
-1.03292e-08
2.36914e-05
-8.78151e-09
2.3693e-05
-7.50956e-09
2.36943e-05
-6.51677e-09
2.36955e-05
-5.55312e-09
2.36965e-05
-5.03284e-09
2.36974e-05
-4.14096e-09
2.3698e-05
-3.23944e-09
2.36986e-05
-2.68984e-09
2.36991e-05
-2.25535e-09
2.36995e-05
-1.76195e-09
2.36995e-05
1.72598e-09
2.37003e-05
1.85949e-08
2.37e-05
2.60197e-07
2.37611e-05
-5.30692e-07
2.42319e-05
-4.4445e-06
2.46227e-05
-1.95979e-06
2.46218e-05
2.03954e-06
2.46009e-05
1.79175e-07
2.45889e-05
1.0061e-07
2.4569e-05
1.5897e-07
2.45367e-05
1.95075e-07
2.45032e-05
1.68587e-07
2.44756e-05
1.1166e-07
2.44536e-05
7.71224e-08
2.44368e-05
5.18492e-08
2.44239e-05
3.86849e-08
2.4414e-05
2.62237e-08
2.44066e-05
1.82084e-08
2.44011e-05
1.09409e-08
2.43972e-05
6.54284e-09
2.43944e-05
2.21547e-09
2.43926e-05
-7.24742e-11
2.43916e-05
-1.82707e-09
2.4391e-05
-2.5059e-09
2.43907e-05
-2.859e-09
2.43906e-05
-2.74413e-09
2.43907e-05
-2.67215e-09
2.43909e-05
-2.32017e-09
2.43911e-05
-2.38535e-09
2.43913e-05
-1.93928e-09
2.43916e-05
-1.89146e-09
2.43918e-05
-1.85479e-09
2.43921e-05
-1.62227e-09
2.43924e-05
-1.64828e-09
2.43927e-05
-1.17697e-09
2.43929e-05
-1.24797e-09
2.43931e-05
-7.82375e-10
2.43933e-05
-8.84893e-10
2.43935e-05
-7.62554e-10
2.43936e-05
-7.11144e-10
2.43937e-05
-2.7704e-10
2.43938e-05
-4.09973e-10
2.43939e-05
-2.90221e-10
2.4394e-05
-3.46801e-10
2.4394e-05
-2.72685e-10
2.43941e-05
-2.92214e-10
2.43942e-05
-2.05936e-10
2.43942e-05
5.98126e-11
2.43942e-05
-3.46753e-11
2.43942e-05
-4.50562e-11
2.43942e-05
-4.9781e-11
2.43942e-05
-8.02179e-11
2.43942e-05
-6.51634e-11
2.43943e-05
-1.00396e-10
2.43943e-05
-8.00579e-11
2.43943e-05
-7.16381e-11
2.43943e-05
2.3465e-10
2.43943e-05
4.59397e-11
2.43943e-05
7.85671e-11
2.43942e-05
9.16181e-13
2.43942e-05
2.01008e-11
2.43942e-05
-3.72302e-11
2.43942e-05
-1.48536e-11
2.43942e-05
-7.98329e-11
2.43943e-05
-1.71614e-11
2.43943e-05
-9.51634e-11
2.43943e-05
-2.49472e-11
2.43943e-05
-8.2826e-11
2.43943e-05
-1.47179e-11
2.43943e-05
2.22013e-10
2.43943e-05
4.78098e-11
2.43942e-05
1.35579e-10
2.43942e-05
-3.70267e-11
2.43942e-05
1.21871e-10
2.43942e-05
-1.11385e-10
2.43942e-05
1.35985e-10
2.43942e-05
-1.96837e-10
2.43942e-05
1.75822e-10
2.43942e-05
-2.85314e-10
2.43942e-05
2.6233e-10
2.43943e-05
-4.42013e-10
2.43942e-05
3.17512e-10
2.43943e-05
-3.32583e-10
2.43943e-05
-1.04977e-11
2.43943e-05
2.12998e-10
2.43943e-05
-5.38631e-10
2.43943e-05
7.4077e-10
2.43943e-05
-1.01553e-09
2.43942e-05
1.56781e-09
2.43943e-05
-1.49529e-09
2.43942e-05
2.02846e-09
2.43943e-05
-2.27134e-09
2.43942e-05
2.74729e-09
2.43943e-05
-3.19777e-09
2.43942e-05
3.67912e-09
2.43944e-05
-4.33106e-09
2.43942e-05
4.84311e-09
2.43945e-05
-5.66667e-09
2.43942e-05
6.25997e-09
2.43946e-05
-7.2437e-09
2.43942e-05
7.92268e-09
2.43947e-05
-9.07976e-09
2.43943e-05
9.84519e-09
2.43948e-05
-1.11719e-08
2.43943e-05
1.20251e-08
2.4395e-05
-1.35198e-08
2.43944e-05
1.44495e-08
2.43951e-05
-1.61054e-08
2.43944e-05
1.71086e-08
2.43953e-05
-1.88935e-08
2.43945e-05
1.99596e-08
2.43955e-05
-2.18601e-08
2.43946e-05
2.29662e-08
2.43957e-05
-2.49549e-08
2.43947e-05
2.60688e-08
2.43959e-05
-2.81108e-08
2.43948e-05
2.92292e-08
2.43962e-05
-3.13011e-08
2.4395e-05
3.20489e-08
2.43965e-05
-3.4482e-08
2.43951e-05
3.51563e-08
2.43967e-05
-3.73425e-08
2.43953e-05
3.8034e-08
2.4397e-05
-3.99807e-08
2.43955e-05
4.06091e-08
2.43972e-05
-4.23691e-08
2.43956e-05
4.29446e-08
2.43974e-05
-4.44085e-08
2.43957e-05
4.48668e-08
2.43976e-05
-4.60951e-08
2.43959e-05
4.64397e-08
2.43977e-05
-4.74559e-08
2.4396e-05
4.76781e-08
2.43978e-05
-4.84563e-08
2.43961e-05
4.85523e-08
2.43979e-05
-4.90772e-08
2.43961e-05
4.90511e-08
2.4398e-05
-4.93163e-08
2.43962e-05
4.88559e-08
2.4398e-05
-4.92509e-08
2.43963e-05
4.86579e-08
2.43981e-05
-4.86293e-08
2.43964e-05
4.80394e-08
2.43981e-05
-4.76525e-08
2.43965e-05
4.69951e-08
2.4398e-05
-4.62685e-08
2.43965e-05
4.55112e-08
2.4398e-05
-4.46022e-08
2.43965e-05
4.3738e-08
2.43979e-05
-4.26967e-08
2.43965e-05
4.13858e-08
2.43978e-05
-4.06714e-08
2.43965e-05
3.92607e-08
2.43978e-05
-3.82217e-08
2.43966e-05
3.70113e-08
2.43977e-05
-3.56351e-08
2.43966e-05
3.45051e-08
2.43976e-05
-3.31148e-08
2.43965e-05
3.17764e-08
2.43975e-05
-3.05808e-08
2.43965e-05
2.89733e-08
2.43974e-05
-2.78776e-08
2.43965e-05
2.67582e-08
2.43973e-05
-2.50379e-08
2.43965e-05
2.4161e-08
2.43971e-05
-2.2695e-08
2.43964e-05
2.12932e-08
2.4397e-05
-2.04257e-08
2.43963e-05
1.87725e-08
2.43969e-05
-1.77095e-08
2.43964e-05
1.70642e-08
2.43968e-05
-1.49689e-08
2.43963e-05
1.47699e-08
2.43966e-05
-1.33409e-08
2.43961e-05
1.21442e-08
2.43965e-05
-1.22508e-08
2.43961e-05
1.05391e-08
2.43965e-05
-9.77689e-09
2.43962e-05
9.90744e-09
2.43964e-05
-7.51133e-09
2.4396e-05
8.10524e-09
2.43961e-05
-6.60923e-09
2.43957e-05
5.3855e-09
2.4396e-05
-6.37737e-09
2.43957e-05
4.74133e-09
2.43961e-05
-4.40353e-09
2.4396e-05
5.0562e-09
2.43961e-05
-2.40149e-09
2.43958e-05
4.01983e-09
2.43956e-05
-2.88383e-09
2.43953e-05
1.88452e-09
2.43954e-05
-3.41825e-09
2.43955e-05
1.51995e-09
2.43958e-05
-1.75688e-09
2.4396e-05
2.53983e-09
2.4396e-05
-1.53943e-12
2.43956e-05
2.11875e-09
2.43953e-05
-6.77046e-10
2.43948e-05
2.32851e-10
2.4395e-05
-2.26699e-09
2.43952e-05
-2.78404e-10
2.43958e-05
-1.01299e-09
2.43962e-05
1.39981e-09
2.43961e-05
1.2439e-09
2.43957e-05
1.7693e-09
2.4395e-05
2.53237e-10
2.43944e-05
-3.64909e-10
2.43946e-05
-2.18403e-09
2.43949e-05
-7.20255e-10
2.43957e-05
-1.0771e-09
2.43966e-05
6.14156e-10
2.43965e-05
1.335e-09
2.43959e-05
2.1307e-09
2.43949e-05
7.392e-10
2.43939e-05
5.0919e-10
2.43939e-05
-2.21827e-09
2.43946e-05
-1.83666e-09
2.43959e-05
-1.54244e-09
2.43972e-05
-3.73972e-10
2.43973e-05
1.28007e-09
2.43963e-05
2.80869e-09
2.43948e-05
1.20936e-09
2.43931e-05
2.03341e-09
2.4393e-05
-3.10422e-09
2.43944e-05
-2.45093e-09
2.43969e-05
-4.1869e-09
2.43991e-05
-2.00818e-09
2.43984e-05
3.33708e-09
2.43966e-05
3.82094e-09
2.43957e-05
3.33622e-09
2.43962e-05
-1.07413e-08
2.43958e-05
7.55212e-09
2.43951e-05
6.57602e-09
2.4397e-05
-9.05142e-11
2.43934e-05
-8.35585e-09
2.43947e-05
-4.76666e-08
2.43892e-05
2.04783e-07
2.4403e-05
-2.69249e-07
2.4394e-05
1.66148e-07
2.43582e-05
-3.74544e-07
2.42834e-05
9.79621e-07
2.39108e-05
4.28942e-06
2.37203e-05
-3.69623e-07