/*--------------------------------*- C++ -*----------------------------------*\
| =========                 |                                                 |
| \\      /  F ield         | foam-extend: Open Source CFD                    |
|  \\    /   O peration     | Version:     3.2                                |
|   \\  /    A nd           | Web:         http://www.foam-extend.org         |
|    \\/     M anipulation  | For copyright notice see file Copyright         |
\*---------------------------------------------------------------------------*/
FoamFile
{
    version     2.0;
    format      ascii;
    class       areaVectorField;
    location    "2000";
    object      PointNormalVector;
}
// * * * * * * * * * * * * * * * * * * * * * * * * * * * * * * * * * * * * * //

dimensions      [0 0 0 0 0 0 0];

internalField   nonuniform List<vector> 
300
(
(5e-06 -0 0.001)
(5e-06 -0 0.001)
(5e-06 -0 0.001)
(5e-06 -0 0.001)
(5e-06 -4.23516e-22 0.001)
(5e-06 -4.23516e-22 0.001)
(5e-06 -4.23516e-22 0.001)
(5e-06 -4.23516e-22 0.001)
(5e-06 -0 0.001)
(5e-06 -4.23516e-22 0.001)
(5e-06 -0 0.001)
(5e-06 4.23516e-22 0.001)
(5e-06 -0 0.001)
(5e-06 4.23516e-22 0.001)
(5e-06 -0 0.001)
(5e-06 -0 0.001)
(5e-06 4.23516e-22 0.001)
(5e-06 -4.23516e-22 0.001)
(5e-06 4.23516e-22 0.001)
(5e-06 -0 0.001)
(5e-06 -0 0.001)
(5e-06 -4.23516e-22 0.001)
(5e-06 -0 0.001)
(5e-06 -0 0.001)
(5e-06 -0 0.001)
(5e-06 -4.23516e-22 0.001)
(5e-06 -0 0.001)
(5e-06 -0 0.001)
(5e-06 -0 0.001)
(5e-06 -4.23516e-22 0.001)
(5e-06 -0 0.001)
(5e-06 -0 0.001)
(5e-06 -0 0.001)
(5e-06 -0 0.001)
(5e-06 -0 0.001)
(5e-06 -0 0.001)
(5e-06 -0 0.001)
(5e-06 -0 0.001)
(5e-06 -0 0.001)
(5e-06 -0 0.001)
(5e-06 -0 0.001)
(5e-06 -4.23516e-22 0.001)
(5e-06 -0 0.001)
(5e-06 -4.23516e-22 0.001)
(5e-06 -0 0.001)
(5e-06 -0 0.001)
(5e-06 -4.23516e-22 0.001)
(5e-06 -0 0.001)
(5e-06 -4.23516e-22 0.001)
(5e-06 -0 0.001)
(5e-06 -0 0.001)
(5e-06 -4.23516e-22 0.001)
(5e-06 -0 0.001)
(5e-06 -4.23516e-22 0.001)
(5e-06 -0 0.001)
(5e-06 -0 0.001)
(5e-06 -4.23516e-22 0.001)
(5e-06 -0 0.001)
(5e-06 -0 0.001)
(-2.12231e-05 -0 0.001)
(-1.07946e-05 8.47033e-22 0.001)
(1.46318e-05 -0 0.001)
(4.08717e-06 -0 0.001)
(4.99847e-06 -4.23516e-22 0.001)
(5.40597e-06 -0 0.001)
(5.73291e-06 -4.23516e-22 0.001)
(5.73156e-06 -0 0.001)
(5.59399e-06 -0 0.001)
(5.49475e-06 4.23516e-22 0.001)
(5.39544e-06 -0 0.001)
(5.34908e-06 -0 0.001)
(5.28601e-06 -0 0.001)
(5.2432e-06 -4.23516e-22 0.001)
(5.19375e-06 -0 0.001)
(5.15953e-06 4.23516e-22 0.001)
(5.12198e-06 -4.23516e-22 0.001)
(5.09511e-06 -0 0.001)
(5.07072e-06 -0 0.001)
(5.05401e-06 -4.23516e-22 0.001)
(5.0399e-06 -0 0.001)
(5.03046e-06 -0 0.001)
(5.02173e-06 -0 0.001)
(5.0167e-06 4.23516e-22 0.001)
(5.0097e-06 -0 0.001)
(5.0073e-06 -4.23516e-22 0.001)
(5.00345e-06 -0 0.001)
(4.99986e-06 -0 0.001)
(4.99874e-06 4.23516e-22 0.001)
(4.99599e-06 -0 0.001)
(4.99719e-06 -0 0.001)
(4.99503e-06 -0 0.001)
(4.9971e-06 -0 0.001)
(4.9955e-06 4.23516e-22 0.001)
(4.99599e-06 -0 0.001)
(4.99544e-06 -0 0.001)
(4.99814e-06 -4.23516e-22 0.001)
(4.99697e-06 -0 0.001)
(4.99788e-06 -4.23516e-22 0.001)
(4.99737e-06 4.23516e-22 0.001)
(4.99787e-06 -0 0.001)
(4.99784e-06 4.23516e-22 0.001)
(4.99795e-06 -0 0.001)
(4.99988e-06 -4.23516e-22 0.001)
(4.99947e-06 -0 0.001)
(4.99951e-06 -4.23516e-22 0.001)
(4.99955e-06 -0 0.001)
(4.99934e-06 -0 0.001)
(4.99953e-06 -0 0.001)
(4.99926e-06 -4.23516e-22 0.001)
(4.99954e-06 4.23516e-22 0.001)
(4.99924e-06 -4.23516e-22 0.001)
(5.00134e-06 -0 0.001)
(5.00018e-06 -4.23516e-22 0.001)
(5.00062e-06 4.23516e-22 0.001)
(5.00007e-06 4.23516e-22 0.001)
(5.00029e-06 -0 0.001)
(4.99982e-06 -0 0.001)
(5.00005e-06 -0 0.001)
(4.99954e-06 -0 0.001)
(4.99999e-06 -4.23516e-22 0.001)
(4.99938e-06 -4.23516e-22 0.001)
(4.99987e-06 -0 0.001)
(4.99955e-06 -4.23516e-22 0.001)
(4.99961e-06 -0 0.001)
(5.00133e-06 -4.23516e-22 0.001)
(5.00015e-06 4.23516e-22 0.001)
(5.00112e-06 -4.23516e-22 0.001)
(4.99967e-06 -0 0.001)
(5.00104e-06 -0 0.001)
(4.99916e-06 -0 0.001)
(5.00116e-06 -4.23516e-22 0.001)
(4.99854e-06 -0 0.001)
(5.00145e-06 -0 0.001)
(4.99794e-06 -0 0.001)
(5.00194e-06 -4.23516e-22 0.001)
(4.99692e-06 4.23516e-22 0.001)
(5.00237e-06 -0 0.001)
(4.99774e-06 -0 0.001)
(4.99913e-06 -0 0.001)
(5.0027e-06 -0 0.001)
(4.99492e-06 -0 0.001)
(5.00641e-06 4.23516e-22 0.001)
(4.99134e-06 -0 0.001)
(5.01212e-06 -4.23516e-22 0.001)
(4.98746e-06 -0 0.001)
(5.01611e-06 -4.23516e-22 0.001)
(4.98162e-06 -0 0.001)
(5.02185e-06 -0 0.001)
(4.97446e-06 -0 0.001)
(5.02911e-06 -0 0.001)
(4.96568e-06 4.23516e-22 0.001)
(5.03805e-06 -0 0.001)
(4.95528e-06 -0 0.001)
(5.04885e-06 -0 0.001)
(4.94308e-06 4.23516e-22 0.001)
(5.06148e-06 -0 0.001)
(4.92895e-06 -4.23516e-22 0.001)
(5.07603e-06 -4.23516e-22 0.001)
(4.91292e-06 -0 0.001)
(5.09247e-06 -4.23516e-22 0.001)
(4.89501e-06 -0 0.001)
(5.11071e-06 -0 0.001)
(4.87538e-06 -0 0.001)
(5.13063e-06 -0 0.001)
(4.85428e-06 -0 0.001)
(5.15192e-06 -0 0.001)
(4.83194e-06 -0 0.001)
(5.17429e-06 4.23516e-22 0.001)
(4.80875e-06 -0 0.001)
(5.19729e-06 -0 0.001)
(4.7852e-06 -0 0.001)
(5.2205e-06 -4.23516e-22 0.001)
(4.76159e-06 -0 0.001)
(5.24174e-06 -4.23516e-22 0.001)
(4.73828e-06 -0 0.001)
(5.26424e-06 -4.23516e-22 0.001)
(4.71707e-06 -0 0.001)
(5.28507e-06 4.23516e-22 0.001)
(4.69776e-06 -0 0.001)
(5.3037e-06 -0 0.001)
(4.68081e-06 -0 0.001)
(5.32005e-06 -0 0.001)
(4.66629e-06 -4.23516e-22 0.001)
(5.33388e-06 -4.23516e-22 0.001)
(4.65428e-06 -0 0.001)
(5.34525e-06 -0 0.001)
(4.64474e-06 -4.23516e-22 0.001)
(5.35412e-06 -0 0.001)
(4.63789e-06 -0 0.001)
(5.36028e-06 -0 0.001)
(4.63388e-06 -0 0.001)
(5.36359e-06 4.23516e-22 0.001)
(4.63265e-06 -0 0.001)
(5.36239e-06 -0 0.001)
(4.63395e-06 -0 0.001)
(5.36037e-06 4.23516e-22 0.001)
(4.6389e-06 -0 0.001)
(5.3554e-06 -0 0.001)
(4.64663e-06 -0 0.001)
(5.34745e-06 4.23516e-22 0.001)
(4.65726e-06 -4.23516e-22 0.001)
(5.33641e-06 4.23516e-22 0.001)
(4.67011e-06 -0 0.001)
(5.32317e-06 -0 0.001)
(4.68477e-06 -4.23516e-22 0.001)
(5.30648e-06 -0 0.001)
(4.70057e-06 4.23516e-22 0.001)
(5.29033e-06 -0 0.001)
(4.71848e-06 4.23516e-22 0.001)
(5.27285e-06 -0 0.001)
(4.73747e-06 -0 0.001)
(5.25451e-06 4.23516e-22 0.001)
(4.75713e-06 4.23516e-22 0.001)
(5.23564e-06 -4.23516e-22 0.001)
(4.77675e-06 -0 0.001)
(5.21483e-06 -0 0.001)
(4.79572e-06 4.23516e-22 0.001)
(5.19603e-06 -0 0.001)
(4.81544e-06 -4.23516e-22 0.001)
(5.17776e-06 -4.23516e-22 0.001)
(4.8349e-06 -0 0.001)
(5.15991e-06 4.23516e-22 0.001)
(4.85309e-06 4.23516e-22 0.001)
(5.14071e-06 4.23516e-22 0.001)
(4.86985e-06 -0 0.001)
(5.12409e-06 4.23516e-22 0.001)
(4.88682e-06 4.23516e-22 0.001)
(5.10915e-06 -0 0.001)
(4.90256e-06 -0 0.001)
(5.09545e-06 -0 0.001)
(4.91464e-06 -0 0.001)
(5.08172e-06 -4.23516e-22 0.001)
(4.92712e-06 -0 0.001)
(5.06984e-06 -0 0.001)
(4.93937e-06 -0 0.001)
(5.05952e-06 4.23516e-22 0.001)
(4.95056e-06 -0 0.001)
(5.04934e-06 -0 0.001)
(4.95822e-06 -0 0.001)
(5.04126e-06 -0 0.001)
(4.96561e-06 -4.23516e-22 0.001)
(5.03356e-06 4.23516e-22 0.001)
(4.97344e-06 4.23516e-22 0.001)
(5.02786e-06 -4.23516e-22 0.001)
(4.9786e-06 -0 0.001)
(5.02262e-06 -0 0.001)
(4.98356e-06 -0 0.001)
(5.01753e-06 4.23516e-22 0.001)
(4.98701e-06 -0 0.001)
(5.01314e-06 -4.23516e-22 0.001)
(4.98957e-06 4.23516e-22 0.001)
(5.01048e-06 -4.23516e-22 0.001)
(4.9938e-06 -0 0.001)
(5.00945e-06 -0 0.001)
(4.99499e-06 -0 0.001)
(5.00558e-06 -0 0.001)
(4.99469e-06 -0 0.001)
(5.00416e-06 -4.23516e-22 0.001)
(4.99638e-06 4.23516e-22 0.001)
(5.0049e-06 -0 0.001)
(4.99835e-06 -0 0.001)
(5.00424e-06 -0 0.001)
(4.99729e-06 -4.23516e-22 0.001)
(5.00335e-06 -0 0.001)
(4.9967e-06 -4.23516e-22 0.001)
(5.00206e-06 4.23516e-22 0.001)
(4.99641e-06 -0 0.001)
(5.0032e-06 -0 0.001)
(4.99758e-06 -0 0.001)
(5.0057e-06 4.23516e-22 0.001)
(4.99789e-06 -4.23516e-22 0.001)
(5.00088e-06 -0 0.001)
(4.99816e-06 -4.23516e-22 0.001)
(4.99989e-06 -4.23516e-22 0.001)
(4.99603e-06 4.23516e-22 0.001)
(5.00389e-06 -0 0.001)
(4.99402e-06 -0 0.001)
(5.00872e-06 -0 0.001)
(4.9894e-06 4.23516e-22 0.001)
(5.00505e-06 -0 0.001)
(4.99798e-06 -0 0.001)
(4.99627e-06 -4.23516e-22 0.001)
(5.00083e-06 -0 0.001)
(4.9933e-06 4.23516e-22 0.001)
(5.02051e-06 -0 0.001)
(4.92913e-06 -4.23516e-22 0.001)
(5.04851e-06 -0 0.001)
(5.04656e-06 4.23516e-22 0.001)
(4.94156e-06 -4.23516e-22 0.001)
(5.15086e-06 -4.23516e-22 0.001)
(4.47867e-06 -0 0.001)
(6.43778e-06 8.47033e-22 0.001)
(3.09085e-06 -4.23516e-22 0.001)
(6.41649e-06 -0 0.001)
(4.25909e-06 -4.23516e-22 0.001)
(6.46613e-06 -0 0.001)
(3.20637e-05 -0 0.001)
(5e-06 -0 0.001)
(5e-06 -0 0.001)
(5e-06 -0 0.001)
)
;

boundaryField
{
    inlet
    {
        type            calculated;
        value           uniform (0 0 0);
    }
    outlet
    {
        type            calculated;
        value           uniform (0 0 0);
    }
    sideWall
    {
        type            empty;
    }
}


// ************************************************************************* //
