/*--------------------------------*- C++ -*----------------------------------*\
| =========                 |                                                 |
| \\      /  F ield         | foam-extend: Open Source CFD                    |
|  \\    /   O peration     | Version:     3.2                                |
|   \\  /    A nd           | Web:         http://www.foam-extend.org         |
|    \\/     M anipulation  | For copyright notice see file Copyright         |
\*---------------------------------------------------------------------------*/
FoamFile
{
    version     2.0;
    format      ascii;
    class       areaVectorField;
    location    "2000";
    object      q_bed;
}
// * * * * * * * * * * * * * * * * * * * * * * * * * * * * * * * * * * * * * //

dimensions      [0 2 -1 0 0 0 0];

internalField   nonuniform List<vector> 
300
(
(4.21796e-05 0 -2.10898e-07)
(6.2379e-05 0 -3.11895e-07)
(4.52582e-05 0 -2.26291e-07)
(3.21463e-05 0 -1.60732e-07)
(2.53922e-05 4.01518e-27 -1.26961e-07)
(2.27743e-05 -1.44701e-27 -1.13871e-07)
(2.17918e-05 -3.03787e-27 -1.08959e-07)
(2.16717e-05 -2.98817e-27 -1.08359e-07)
(2.18344e-05 9.02347e-31 -1.09172e-07)
(2.21686e-05 -2.73541e-27 -1.10843e-07)
(2.25738e-05 4.47104e-31 -1.12869e-07)
(2.29885e-05 2.07474e-27 -1.14943e-07)
(2.33935e-05 0 -1.16967e-07)
(2.38232e-05 1.92597e-27 -1.19116e-07)
(2.42383e-05 1.81319e-31 -1.21192e-07)
(2.46613e-05 -1.19827e-32 -1.23307e-07)
(2.51122e-05 1.87012e-27 -1.25561e-07)
(2.5566e-05 -1.83592e-27 -1.2783e-07)
(2.60335e-05 1.82921e-27 -1.30167e-07)
(2.65078e-05 0 -1.32539e-07)
(2.69865e-05 0 -1.34933e-07)
(2.74694e-05 -1.93013e-27 -1.37347e-07)
(2.79697e-05 2.43108e-31 -1.39848e-07)
(2.84881e-05 0 -1.42441e-07)
(2.89943e-05 0 -1.44971e-07)
(2.94635e-05 -1.86074e-27 -1.47318e-07)
(2.98898e-05 0 -1.49449e-07)
(3.02667e-05 0 -1.51333e-07)
(3.05957e-05 0 -1.52978e-07)
(3.0878e-05 -1.0612e-27 -1.5439e-07)
(3.11206e-05 0 -1.55603e-07)
(3.13287e-05 0 -1.56643e-07)
(3.15026e-05 -1.30934e-31 -1.57513e-07)
(3.16457e-05 0 -1.58229e-07)
(3.17604e-05 0 -1.58802e-07)
(3.18551e-05 0 -1.59275e-07)
(3.19336e-05 -7.06314e-32 -1.59668e-07)
(3.20001e-05 0 -1.60001e-07)
(3.20556e-05 0 -1.60278e-07)
(3.21035e-05 0 -1.60518e-07)
(3.21434e-05 -3.92486e-32 -1.60717e-07)
(3.21784e-05 -1.19338e-28 -1.60892e-07)
(3.22069e-05 0 -1.61035e-07)
(3.22329e-05 -8.62944e-29 -1.61165e-07)
(3.2253e-05 -2.127e-32 -1.61265e-07)
(3.22726e-05 0 -1.61363e-07)
(3.22864e-05 -5.17313e-29 -1.61432e-07)
(3.23015e-05 0 -1.61508e-07)
(3.2311e-05 -3.84752e-29 -1.61555e-07)
(3.23238e-05 0 -1.61619e-07)
(3.23269e-05 0 -1.61634e-07)
(3.2345e-05 -2.27194e-29 -1.61725e-07)
(3.23279e-05 0 -1.61639e-07)
(3.23803e-05 -3.63741e-29 -1.61901e-07)
(3.22844e-05 0 -1.61422e-07)
(3.2498e-05 0 -1.6249e-07)
(3.20448e-05 5.16189e-28 -1.60224e-07)
(3.29114e-05 -9.58066e-32 -1.64557e-07)
(2.97927e-05 0 -1.48963e-07)
(3.51147e-05 0 7.45241e-07)
(5.22981e-05 -4.17891e-26 5.64536e-07)
(4.94413e-05 0 -7.23414e-07)
(4.23261e-05 0 -1.72994e-07)
(4.28658e-05 -2.51787e-27 -2.14263e-07)
(4.22871e-05 0 -2.28603e-07)
(4.20345e-05 1.39191e-27 -2.4098e-07)
(4.17134e-05 0 -2.39083e-07)
(4.15423e-05 -3.82097e-31 -2.32387e-07)
(4.14704e-05 5.85103e-28 -2.2787e-07)
(4.14622e-05 0 -2.23707e-07)
(4.14705e-05 0 -2.21829e-07)
(4.1479e-05 0 -2.19258e-07)
(4.14958e-05 -3.06218e-28 -2.17571e-07)
(4.15115e-05 2.07286e-32 -2.15601e-07)
(4.15311e-05 2.55915e-28 -2.14281e-07)
(4.15484e-05 -2.24085e-28 -2.1281e-07)
(4.15686e-05 0 -2.11796e-07)
(4.15862e-05 0 -2.10872e-07)
(4.1603e-05 -1.28558e-28 -2.10262e-07)
(4.16165e-05 0 -2.09743e-07)
(4.16278e-05 0 -2.09407e-07)
(4.16365e-05 -1.57416e-32 -2.09087e-07)
(4.16434e-05 4.13218e-29 -2.08912e-07)
(4.16484e-05 0 -2.08646e-07)
(4.16538e-05 -2.32136e-29 -2.08573e-07)
(4.16561e-05 0 -2.08424e-07)
(4.16604e-05 0 -2.08296e-07)
(4.16626e-05 1.36759e-29 -2.0826e-07)
(4.1666e-05 0 -2.08163e-07)
(4.16679e-05 4.81343e-33 -2.08222e-07)
(4.16701e-05 4.95978e-33 -2.08144e-07)
(4.16714e-05 2.30131e-33 -2.08236e-07)
(4.16725e-05 6.93757e-30 -2.08175e-07)
(4.16736e-05 -2.54684e-33 -2.08201e-07)
(4.16753e-05 0 -2.08186e-07)
(4.16759e-05 5.54865e-30 -2.08302e-07)
(4.16761e-05 0 -2.08254e-07)
(4.16767e-05 2.94301e-31 -2.08295e-07)
(4.16773e-05 3.19758e-30 -2.08277e-07)
(4.1678e-05 -3.26861e-34 -2.08301e-07)
(4.16785e-05 2.96479e-30 -2.08303e-07)
(4.16793e-05 0 -2.08311e-07)
(4.16793e-05 4.5755e-30 -2.08391e-07)
(4.1679e-05 0 -2.08373e-07)
(4.16793e-05 -8.49973e-31 -2.08376e-07)
(4.16794e-05 -5.27762e-35 -2.08378e-07)
(4.16796e-05 0 -2.08371e-07)
(4.16798e-05 0 -2.08379e-07)
(4.16802e-05 -1.51544e-30 -2.0837e-07)
(4.16803e-05 1.15481e-30 -2.08382e-07)
(4.1681e-05 -1.67669e-30 -2.08374e-07)
(4.16806e-05 1.21492e-33 -2.08459e-07)
(4.168e-05 -1.20288e-30 -2.08407e-07)
(4.16798e-05 -1.26053e-30 -2.08425e-07)
(4.16798e-05 1.42507e-30 -2.08402e-07)
(4.16798e-05 0 -2.08411e-07)
(4.168e-05 0 -2.08392e-07)
(4.168e-05 0 -2.08402e-07)
(4.16802e-05 0 -2.08382e-07)
(4.16802e-05 4.92383e-31 -2.08401e-07)
(4.16805e-05 -2.06043e-30 -2.08377e-07)
(4.16807e-05 0 -2.08398e-07)
(4.16806e-05 -2.32122e-30 -2.08384e-07)
(4.16814e-05 0 -2.08391e-07)
(4.16803e-05 7.83827e-30 -2.08457e-07)
(4.16803e-05 6.16397e-31 -2.08408e-07)
(4.16795e-05 9.35953e-31 -2.08444e-07)
(4.16802e-05 5.09415e-34 -2.08387e-07)
(4.16793e-05 0 -2.0844e-07)
(4.16802e-05 -6.01406e-34 -2.08366e-07)
(4.16792e-05 4.62907e-30 -2.08444e-07)
(4.16803e-05 0 -2.08341e-07)
(4.16793e-05 -3.69634e-34 -2.08457e-07)
(4.16804e-05 0 -2.08316e-07)
(4.16797e-05 1.11276e-29 -2.08479e-07)
(4.16801e-05 1.48685e-29 -2.08272e-07)
(4.16808e-05 0 -2.08503e-07)
(4.16779e-05 3.52628e-33 -2.08295e-07)
(4.16825e-05 -8.31084e-34 -2.08376e-07)
(4.16776e-05 3.94525e-33 -2.085e-07)
(4.16829e-05 0 -2.08202e-07)
(4.16746e-05 -2.03215e-29 -2.0864e-07)
(4.16867e-05 4.10059e-33 -2.08072e-07)
(4.1674e-05 4.77237e-29 -2.08875e-07)
(4.16859e-05 0 -2.07907e-07)
(4.16706e-05 6.09825e-29 -2.09024e-07)
(4.16883e-05 -9.88328e-33 -2.07675e-07)
(4.16679e-05 0 -2.0925e-07)
(4.16904e-05 0 -2.07387e-07)
(4.16647e-05 0 -2.09537e-07)
(4.1693e-05 1.42395e-28 -2.07034e-07)
(4.16614e-05 -1.82585e-32 -2.09892e-07)
(4.16961e-05 0 -2.06616e-07)
(4.16576e-05 2.29411e-32 -2.10323e-07)
(4.16994e-05 2.46185e-28 -2.06124e-07)
(4.16534e-05 0 -2.10828e-07)
(4.17031e-05 -3.13028e-28 -2.05552e-07)
(4.1649e-05 3.51611e-28 -2.11411e-07)
(4.17069e-05 0 -2.04903e-07)
(4.16443e-05 4.3419e-28 -2.12072e-07)
(4.17109e-05 0 -2.04175e-07)
(4.16394e-05 0 -2.12807e-07)
(4.17149e-05 0 -2.03376e-07)
(4.16344e-05 0 -2.13611e-07)
(4.17189e-05 0 -2.02515e-07)
(4.16295e-05 0 -2.14472e-07)
(4.17227e-05 7.04458e-32 -2.01601e-07)
(4.16248e-05 -8.59202e-28 -2.15379e-07)
(4.17261e-05 -7.87574e-32 -2.0065e-07)
(4.16204e-05 0 -2.16313e-07)
(4.17291e-05 0 -1.99682e-07)
(4.16166e-05 1.11004e-27 -2.17259e-07)
(4.17315e-05 0 -1.98709e-07)
(4.16134e-05 1.22693e-27 -2.18126e-07)
(4.1735e-05 0 -1.97752e-07)
(4.16119e-05 1.35656e-27 -2.19055e-07)
(4.1737e-05 0 -1.96876e-07)
(4.16106e-05 -1.47505e-27 -2.19915e-07)
(4.17379e-05 0 -1.96075e-07)
(4.16099e-05 0 -2.20686e-07)
(4.17381e-05 0 -1.95368e-07)
(4.16099e-05 0 -2.21367e-07)
(4.17376e-05 -1.7076e-27 -1.9476e-07)
(4.16105e-05 1.74211e-27 -2.21946e-07)
(4.17364e-05 0 -1.94253e-07)
(4.16118e-05 0 -2.22426e-07)
(4.17347e-05 -1.81968e-27 -1.93847e-07)
(4.16138e-05 -1.43562e-31 -2.22805e-07)
(4.17324e-05 0 -1.93551e-07)
(4.16164e-05 1.49301e-31 -2.23075e-07)
(4.17297e-05 0 -1.9337e-07)
(4.16195e-05 -1.88314e-27 -2.2323e-07)
(4.17264e-05 0 -1.93304e-07)
(4.16233e-05 -1.56718e-31 -2.232e-07)
(4.17245e-05 0 -1.93349e-07)
(4.16283e-05 -1.86362e-27 -2.23143e-07)
(4.17213e-05 0 -1.93541e-07)
(4.16331e-05 0 -2.22962e-07)
(4.17176e-05 1.59724e-31 -1.93846e-07)
(4.16381e-05 -1.78822e-27 -2.22657e-07)
(4.17125e-05 -1.75922e-27 -1.94266e-07)
(4.16428e-05 -1.72614e-27 -2.22223e-07)
(4.171e-05 -1.55492e-31 -1.9479e-07)
(4.16481e-05 1.54822e-31 -2.217e-07)
(4.17066e-05 -1.61704e-27 -1.95386e-07)
(4.16532e-05 -1.49563e-31 -2.21032e-07)
(4.16892e-05 1.53264e-27 -1.95963e-07)
(4.16462e-05 1.43921e-31 -2.20322e-07)
(4.16783e-05 1.44027e-27 -1.96658e-07)
(4.16426e-05 -1.37152e-31 -2.19576e-07)
(4.17008e-05 0 -1.97556e-07)
(4.16693e-05 -1.29106e-27 -2.18952e-07)
(4.16988e-05 1.2442e-27 -1.98367e-07)
(4.16738e-05 1.19251e-27 -2.18189e-07)
(4.16324e-05 0 -1.98868e-07)
(4.16124e-05 1.13292e-31 -2.17002e-07)
(4.16153e-05 1.04566e-27 -1.99575e-07)
(4.15987e-05 0 -2.16148e-07)
(4.16961e-05 -9.47874e-28 -2.00785e-07)
(4.16863e-05 8.96168e-28 -2.15841e-07)
(4.16953e-05 0 -2.01592e-07)
(4.16892e-05 -8.1166e-28 -2.15113e-07)
(4.15488e-05 7.65987e-28 -2.0164e-07)
(4.15358e-05 -7.14282e-28 -2.13524e-07)
(4.15258e-05 0 -2.02224e-07)
(4.15136e-05 -6.41656e-28 -2.1272e-07)
(4.16954e-05 6.14595e-28 -2.03758e-07)
(4.16962e-05 -4.05173e-32 -2.13032e-07)
(4.16951e-05 0 -2.04413e-07)
(4.16972e-05 0 -2.12466e-07)
(4.14453e-05 0 -2.03689e-07)
(4.14273e-05 4.34422e-28 -2.10522e-07)
(4.14188e-05 -2.74211e-32 -2.04075e-07)
(4.14007e-05 -2.2751e-32 -2.09895e-07)
(4.16961e-05 0 -2.05952e-07)
(4.17003e-05 -3.21795e-28 -2.10983e-07)
(4.16958e-05 0 -2.06418e-07)
(4.17007e-05 0 -2.10561e-07)
(4.13309e-05 0 -2.04928e-07)
(4.13013e-05 0 -2.0821e-07)
(4.1303e-05 -2.03441e-28 -2.05095e-07)
(4.12736e-05 -1.6736e-28 -2.07753e-07)
(4.16971e-05 1.60848e-28 -2.07378e-07)
(4.16999e-05 1.42457e-28 -2.09661e-07)
(4.16969e-05 0 -2.07592e-07)
(4.17e-05 -4.43995e-32 -2.09443e-07)
(4.12139e-05 3.24429e-32 -2.05392e-07)
(4.11717e-05 -8.91422e-29 -2.0658e-07)
(4.11876e-05 0 -2.05403e-07)
(4.11464e-05 5.67115e-29 -2.06273e-07)
(4.16966e-05 6.61818e-29 -2.08048e-07)
(4.16983e-05 5.24729e-29 -2.08928e-07)
(4.16967e-05 0 -2.08225e-07)
(4.16975e-05 0 -2.08882e-07)
(4.11038e-05 0 -2.05313e-07)
(4.10501e-05 0 -2.0548e-07)
(4.10817e-05 0 -2.05191e-07)
(4.10301e-05 1.30122e-29 -2.05321e-07)
(4.16958e-05 2.43271e-29 -2.08328e-07)
(4.16957e-05 -1.62099e-34 -2.08683e-07)
(4.16949e-05 0 -2.08406e-07)
(4.1695e-05 -8.08172e-33 -2.08652e-07)
(4.10069e-05 -1.25264e-29 -2.04924e-07)
(4.0936e-05 0 -2.04817e-07)
(4.09866e-05 -2.42766e-29 -2.04798e-07)
(4.09165e-05 2.58898e-30 -2.04667e-07)
(4.1695e-05 0 -2.08325e-07)
(4.16944e-05 -2.39813e-33 -2.08605e-07)
(4.16948e-05 -4.0111e-33 -2.08373e-07)
(4.16949e-05 -4.10513e-29 -2.08712e-07)
(4.0915e-05 -1.01732e-29 -2.04488e-07)
(4.08207e-05 -7.89525e-33 -2.04139e-07)
(4.08982e-05 -1.23213e-29 -2.04415e-07)
(4.07989e-05 -2.01613e-29 -2.0399e-07)
(4.16966e-05 1.65386e-29 -2.08318e-07)
(4.16923e-05 -5.23312e-33 -2.08623e-07)
(4.16964e-05 -6.76131e-33 -2.08233e-07)
(4.1695e-05 0 -2.08839e-07)
(4.08255e-05 4.57092e-29 -2.03695e-07)
(4.06987e-05 -1.95467e-32 -2.03699e-07)
(4.08012e-05 0 -2.03924e-07)
(4.0675e-05 -2.91598e-29 -2.03223e-07)
(4.16932e-05 0 -2.08501e-07)
(4.1705e-05 7.7243e-30 -2.08246e-07)
(4.16902e-05 0 -2.09306e-07)
(4.16917e-05 -3.11636e-28 -2.05504e-07)
(4.09435e-05 -8.84627e-32 -2.06704e-07)
(4.03242e-05 -1.15715e-28 -2.03499e-07)
(4.09817e-05 4.28864e-28 -2.02513e-07)
(4.01626e-05 -6.8508e-28 -2.06872e-07)
(4.09776e-05 0 -1.83525e-07)
(4.02234e-05 -1.52659e-26 -2.5895e-07)
(4.04156e-05 -1.01365e-26 -1.24918e-07)
(4.13652e-05 5.18354e-30 -2.65419e-07)
(4.02251e-05 -1.30942e-26 -1.71322e-07)
(4.67151e-05 0 -3.02066e-07)
(3.45989e-05 -1.49967e-28 -1.10937e-06)
(2.66441e-05 0 -1.33221e-07)
(2.99354e-05 1.07848e-30 -1.49677e-07)
(3.07607e-05 -1.63439e-30 -1.53804e-07)
)
;

boundaryField
{
    inlet
    {
        type            zeroGradient;
    }
    outlet
    {
        type            zeroGradient;
    }
    sideWall
    {
        type            empty;
    }
}


// ************************************************************************* //
