/*--------------------------------*- C++ -*----------------------------------*\
| =========                 |                                                 |
| \\      /  F ield         | foam-extend: Open Source CFD                    |
|  \\    /   O peration     | Version:     3.2                                |
|   \\  /    A nd           | Web:         http://www.foam-extend.org         |
|    \\/     M anipulation  | For copyright notice see file Copyright         |
\*---------------------------------------------------------------------------*/
FoamFile
{
    version     2.0;
    format      ascii;
    class       edgeScalarField;
    location    "2000";
    object      q_f;
}
// * * * * * * * * * * * * * * * * * * * * * * * * * * * * * * * * * * * * * //

dimensions      [0 3 -1 0 0 0 0];

internalField   nonuniform List<scalar> 
299
(
1.0456e-06
1.07639e-06
7.74055e-07
5.75393e-07
4.81671e-07
4.45666e-07
4.34641e-07
4.35067e-07
4.40036e-07
4.4743e-07
4.55629e-07
4.63826e-07
4.72173e-07
4.80622e-07
4.89003e-07
4.97742e-07
5.06789e-07
5.16001e-07
5.25419e-07
5.3495e-07
5.44566e-07
5.54397e-07
5.64585e-07
5.74831e-07
5.84585e-07
5.9354e-07
6.01572e-07
6.08631e-07
6.14745e-07
6.19995e-07
6.24501e-07
6.28321e-07
6.31491e-07
6.34069e-07
6.36163e-07
6.37895e-07
6.39345e-07
6.40566e-07
6.416e-07
6.42477e-07
6.43226e-07
6.43862e-07
6.44407e-07
6.44867e-07
6.45264e-07
6.45598e-07
6.45887e-07
6.46133e-07
6.46356e-07
6.46515e-07
6.46727e-07
6.46737e-07
6.4709e-07
6.46655e-07
6.47833e-07
6.45437e-07
6.49571e-07
6.27049e-07
6.49151e-07
8.74252e-07
1.01748e-06
9.17727e-07
8.51928e-07
8.51541e-07
8.43229e-07
8.37493e-07
8.3257e-07
8.3014e-07
8.29339e-07
8.29339e-07
8.29507e-07
8.2976e-07
8.30084e-07
8.30437e-07
8.30805e-07
8.3118e-07
8.31558e-07
8.31902e-07
8.32206e-07
8.32454e-07
8.32653e-07
8.3281e-07
8.32928e-07
8.33032e-07
8.3311e-07
8.33176e-07
8.33241e-07
8.33297e-07
8.33349e-07
8.3339e-07
8.33425e-07
8.3345e-07
8.33472e-07
8.33499e-07
8.33522e-07
8.3353e-07
8.33539e-07
8.33551e-07
8.33563e-07
8.33575e-07
8.33588e-07
8.33596e-07
8.33593e-07
8.33593e-07
8.33597e-07
8.336e-07
8.33605e-07
8.3361e-07
8.33615e-07
8.33623e-07
8.33627e-07
8.33616e-07
8.33608e-07
8.33606e-07
8.33606e-07
8.33608e-07
8.3361e-07
8.33612e-07
8.33615e-07
8.33617e-07
8.33622e-07
8.33624e-07
8.33631e-07
8.33628e-07
8.33617e-07
8.33609e-07
8.33607e-07
8.33605e-07
8.33606e-07
8.33605e-07
8.33606e-07
8.33607e-07
8.33607e-07
8.33611e-07
8.33608e-07
8.33619e-07
8.33598e-07
8.33615e-07
8.33611e-07
8.33615e-07
8.33586e-07
8.33624e-07
8.33617e-07
8.3361e-07
8.33576e-07
8.33599e-07
8.33572e-07
8.33593e-07
8.33562e-07
8.33588e-07
8.33554e-07
8.33585e-07
8.33547e-07
8.33581e-07
8.33539e-07
8.33575e-07
8.33531e-07
8.33569e-07
8.33522e-07
8.33562e-07
8.33513e-07
8.33553e-07
8.33504e-07
8.33544e-07
8.33494e-07
8.33532e-07
8.33485e-07
8.33519e-07
8.33476e-07
8.33506e-07
8.33468e-07
8.33492e-07
8.3346e-07
8.33495e-07
8.3348e-07
8.33499e-07
8.33486e-07
8.33495e-07
8.33489e-07
8.3349e-07
8.3349e-07
8.33485e-07
8.33491e-07
8.3348e-07
8.33493e-07
8.33476e-07
8.33495e-07
8.33473e-07
8.33499e-07
8.33471e-07
8.33503e-07
8.3347e-07
8.33508e-07
8.33488e-07
8.33538e-07
8.33507e-07
8.33555e-07
8.33517e-07
8.33567e-07
8.33517e-07
8.33564e-07
8.33539e-07
8.33591e-07
8.33557e-07
8.33608e-07
8.33435e-07
8.33365e-07
8.33256e-07
8.3322e-07
8.33445e-07
8.33712e-07
8.33692e-07
8.33737e-07
8.33073e-07
8.32458e-07
8.32287e-07
8.3215e-07
8.32959e-07
8.33834e-07
8.33826e-07
8.33855e-07
8.3239e-07
8.30856e-07
8.30627e-07
8.30405e-07
8.321e-07
8.33926e-07
8.33924e-07
8.33934e-07
8.31436e-07
8.28736e-07
8.28471e-07
8.28205e-07
8.30979e-07
8.33975e-07
8.33971e-07
8.33976e-07
8.30326e-07
8.26332e-07
8.26053e-07
8.25777e-07
8.29717e-07
8.3398e-07
8.33978e-07
8.33979e-07
8.29149e-07
8.23866e-07
8.23604e-07
8.23351e-07
8.28441e-07
8.3396e-07
8.3396e-07
8.33953e-07
8.28024e-07
8.21549e-07
8.21328e-07
8.21129e-07
8.2727e-07
8.33926e-07
8.33917e-07
8.33909e-07
8.27029e-07
8.1944e-07
8.19236e-07
8.19041e-07
8.26125e-07
8.33905e-07
8.33903e-07
8.33907e-07
8.26109e-07
8.17366e-07
8.17198e-07
8.1698e-07
8.24965e-07
8.33899e-07
8.33898e-07
8.33925e-07
8.25216e-07
8.15252e-07
8.15009e-07
8.14772e-07
8.23692e-07
8.33993e-07
8.33962e-07
8.33829e-07
8.26363e-07
8.12688e-07
8.13069e-07
8.11453e-07
8.11411e-07
8.12023e-07
8.06401e-07
8.17818e-07
8.15915e-07
8.69415e-07
8.13357e-07
6.12591e-07
5.65802e-07
6.06968e-07
)
;

boundaryField
{
    inlet
    {
        type            calculated;
        value           uniform 0;
    }
    outlet
    {
        type            calculated;
        value           uniform 0;
    }
    sideWall
    {
        type            empty;
    }
}


// ************************************************************************* //
