/*--------------------------------*- C++ -*----------------------------------*\
| =========                 |                                                 |
| \\      /  F ield         | foam-extend: Open Source CFD                    |
|  \\    /   O peration     | Version:     3.2                                |
|   \\  /    A nd           | Web:         http://www.foam-extend.org         |
|    \\/     M anipulation  | For copyright notice see file Copyright         |
\*---------------------------------------------------------------------------*/
FoamFile
{
    version     2.0;
    format      ascii;
    class       areaScalarField;
    location    "2000";
    object      SSe1;
}
// * * * * * * * * * * * * * * * * * * * * * * * * * * * * * * * * * * * * * //

dimensions      [0 1 -2 -1 0 0 0];

internalField   nonuniform List<scalar> 
300
(
0.000137276
0.000187076
0.00014493
0.000111866
9.42769e-05
8.73029e-05
8.46576e-05
8.43331e-05
8.47726e-05
8.56742e-05
8.67644e-05
8.78777e-05
8.89619e-05
9.01097e-05
9.12158e-05
9.23402e-05
9.35358e-05
9.47364e-05
9.59701e-05
9.7219e-05
9.84765e-05
9.9742e-05
0.00010105
0.000102403
0.00010372
0.000104939
0.000106045
0.00010702
0.000107871
0.0001086
0.000109226
0.000109762
0.00011021
0.000110578
0.000110873
0.000111117
0.000111319
0.00011149
0.000111632
0.000111756
0.000111858
0.000111948
0.000112021
0.000112088
0.000112139
0.00011219
0.000112225
0.000112264
0.000112288
0.000112321
0.000112329
0.000112376
0.000112332
0.000112466
0.00011222
0.000112768
0.000111605
0.000113827
0.000105812
8.8069e-05
0.00011905
0.00011905
0.000119051
0.00011905
0.000119051
0.00011905
0.000119051
0.00011905
0.000119051
0.00011905
0.000119012
0.000118991
0.000118974
0.000118967
0.000118963
0.00011896
0.000118959
0.000118966
0.000118975
0.000118988
0.000118999
0.000119009
0.000119018
0.000119021
0.000119028
0.000119031
0.000119031
0.000119033
0.000119035
0.000119037
0.000119039
0.000119041
0.000119042
0.000119041
0.000119042
0.000119045
0.000119046
0.000119044
0.000119045
0.000119045
0.000119045
0.000119045
0.000119049
0.000119048
0.000119047
0.000119047
0.000119047
0.000119046
0.000119047
0.000119046
0.000119047
0.00011905
0.00011905
0.000119048
0.000119048
0.000119047
0.000119048
0.000119047
0.000119047
0.000119047
0.000119047
0.000119047
0.000119047
0.000119048
0.00011905
0.000119051
0.000119047
0.00011905
0.000119046
0.00011905
0.000119045
0.00011905
0.000119044
0.000119051
0.000119044
0.000119051
0.000119045
0.000119047
0.000119053
0.000119037
0.000119063
0.000119028
0.000119071
0.000119023
0.000119082
0.000119011
0.000119092
0.000118997
0.000119106
0.000118981
0.000119123
0.000118962
0.000119142
0.00011894
0.000119165
0.000118915
0.00011919
0.000118887
0.000119219
0.000118856
0.000119251
0.000118823
0.000119284
0.000118788
0.00011932
0.000118751
0.000119357
0.000118713
0.000119394
0.000118675
0.000119431
0.000118638
0.000119466
0.000118599
0.000119498
0.000118568
0.00011953
0.00011854
0.000119557
0.000118516
0.000119579
0.000118496
0.000119597
0.000118481
0.00011961
0.000118471
0.000119619
0.000118465
0.000119624
0.000118464
0.000119624
0.000118467
0.000119619
0.000118472
0.000119608
0.000118486
0.000119596
0.000118504
0.000119579
0.000118526
0.000119558
0.000118551
0.000119535
0.00011858
0.00011951
0.000118607
0.000119481
0.000118642
0.000119455
0.000118676
0.000119428
0.000118711
0.0001194
0.000118746
0.000119372
0.000118776
0.000119343
0.000118811
0.000119318
0.000118843
0.000119294
0.000118874
0.00011927
0.000118899
0.000119247
0.000118927
0.000119227
0.000118951
0.000119209
0.000118972
0.000119189
0.00011899
0.000119176
0.000119008
0.000119164
0.000119023
0.000119151
0.000119033
0.000119139
0.000119046
0.000119132
0.000119057
0.000119124
0.000119064
0.000119114
0.000119066
0.00011911
0.000119074
0.000119108
0.000119079
0.000119099
0.000119078
0.000119097
0.00011908
0.000119096
0.000119079
0.000119093
0.000119083
0.000119092
0.000119082
0.00011909
0.000119078
0.000119089
0.000119082
0.000119092
0.000119083
0.000119087
0.00011908
0.000119085
0.000119082
0.000119092
0.000119077
0.000119097
0.000119078
0.000119089
0.000119081
0.000119085
0.000119087
0.000119086
0.00011909
0.000119099
0.00011909
0.000119075
0.000119124
0.000119022
0.000119186
0.000119058
0.000119057
0.000119056
0.000119056
0.000119055
0.000119055
0.000119055
0.000119055
0.000119055
0.000119055
8.99482e-05
9.7333e-05
0.000106184
0.000108296
)
;

boundaryField
{
    inlet
    {
        type            calculated;
        value           uniform 0;
    }
    outlet
    {
        type            calculated;
        value           uniform 0;
    }
    sideWall
    {
        type            empty;
    }
}


// ************************************************************************* //
