/*--------------------------------*- C++ -*----------------------------------*\
| =========                 |                                                 |
| \\      /  F ield         | foam-extend: Open Source CFD                    |
|  \\    /   O peration     | Version:     3.2                                |
|   \\  /    A nd           | Web:         http://www.foam-extend.org         |
|    \\/     M anipulation  | For copyright notice see file Copyright         |
\*---------------------------------------------------------------------------*/
FoamFile
{
    version     2.0;
    format      ascii;
    class       areaScalarField;
    location    "2000";
    object      tau;
}
// * * * * * * * * * * * * * * * * * * * * * * * * * * * * * * * * * * * * * //

dimensions      [1 1 2 0 0 0 0];

internalField   nonuniform List<scalar> 
300
(
1.11764
1.36974
1.15816
0.977317
0.87388
0.831114
0.814597
0.812559
0.815318
0.820964
0.827765
0.834681
0.841387
0.848458
0.855243
0.862113
0.869387
0.87666
0.884102
0.891603
0.899123
0.90666
0.914417
0.922402
0.930146
0.937282
0.943729
0.949401
0.954331
0.958547
0.962159
0.965247
0.967824
0.96994
0.971633
0.97303
0.974187
0.975166
0.975983
0.976687
0.977272
0.977787
0.978206
0.978587
0.978881
0.97917
0.979372
0.979594
0.979732
0.979921
0.979965
0.980232
0.97998
0.980748
0.979342
0.982473
0.975824
0.988508
0.942264
1.03145
1.25482
1.20762
1.11988
1.12667
1.11879
1.11527
1.11098
1.10874
1.10789
1.10775
1.10788
1.10803
1.10827
1.1085
1.10878
1.10903
1.10931
1.10956
1.10979
1.10998
1.11013
1.11025
1.11035
1.11042
1.11049
1.11053
1.11058
1.11061
1.11066
1.11069
1.11072
1.11073
1.11075
1.11076
1.11079
1.11079
1.1108
1.1108
1.11081
1.11082
1.11083
1.11084
1.11084
1.11084
1.11084
1.11084
1.11084
1.11085
1.11085
1.11085
1.11086
1.11086
1.11085
1.11085
1.11085
1.11084
1.11085
1.11085
1.11085
1.11085
1.11085
1.11086
1.11086
1.11087
1.11086
1.11085
1.11084
1.11085
1.11084
1.11085
1.11084
1.11085
1.11084
1.11085
1.11084
1.11085
1.11086
1.11084
1.11088
1.11081
1.11092
1.11079
1.11094
1.11076
1.11094
1.11072
1.11097
1.11068
1.111
1.11063
1.11104
1.11058
1.11108
1.11053
1.11113
1.11046
1.11119
1.1104
1.11125
1.11033
1.11131
1.11025
1.11137
1.11018
1.11143
1.1101
1.11149
1.11003
1.11155
1.10996
1.1116
1.1099
1.11164
1.10985
1.1117
1.10982
1.11173
1.10979
1.11176
1.10978
1.11176
1.10977
1.11176
1.10977
1.11175
1.10978
1.11173
1.10981
1.11171
1.10984
1.11167
1.10988
1.11163
1.10993
1.1116
1.11
1.11156
1.11006
1.1115
1.11013
1.11145
1.11021
1.11139
1.11028
1.11134
1.11035
1.11131
1.11044
1.11128
1.11052
1.11124
1.11059
1.11121
1.11066
1.11117
1.11073
1.11116
1.1108
1.11114
1.11085
1.11112
1.1109
1.1111
1.11094
1.11111
1.11099
1.1111
1.11102
1.11109
1.11104
1.11109
1.11107
1.11109
1.11109
1.11109
1.11109
1.11108
1.1111
1.11109
1.11111
1.11109
1.11111
1.11109
1.1111
1.11108
1.11111
1.11109
1.1111
1.11108
1.11109
1.11107
1.11109
1.11107
1.11108
1.11106
1.11107
1.11107
1.11107
1.11106
1.11106
1.11105
1.11105
1.11106
1.11105
1.11106
1.11103
1.11105
1.11104
1.11105
1.11104
1.11103
1.11104
1.11105
1.11101
1.11107
1.11101
1.11107
1.11105
1.11105
1.11109
1.11103
1.11108
1.11102
1.11118
1.11097
1.11104
1.11176
1.1102
1.11235
1.10657
1.1175
1.10684
1.10577
1.12046
1.09154
1.17639
1.00142
0.893752
0.944417
0.956797
)
;

boundaryField
{
    inlet
    {
        type            calculated;
        value           uniform 0;
    }
    outlet
    {
        type            calculated;
        value           uniform 0;
    }
    sideWall
    {
        type            empty;
    }
}


// ************************************************************************* //
