/*--------------------------------*- C++ -*----------------------------------*\
| =========                 |                                                 |
| \\      /  F ield         | foam-extend: Open Source CFD                    |
|  \\    /   O peration     | Version:     3.2                                |
|   \\  /    A nd           | Web:         http://www.foam-extend.org         |
|    \\/     M anipulation  | For copyright notice see file Copyright         |
\*---------------------------------------------------------------------------*/
FoamFile
{
    version     2.0;
    format      ascii;
    class       areaScalarField;
    location    "2000";
    object      tauCB;
}
// * * * * * * * * * * * * * * * * * * * * * * * * * * * * * * * * * * * * * //

dimensions      [1 1 2 0 0 0 0];

internalField   nonuniform List<scalar> 
300
(
0.112594
0.112594
0.112594
0.112594
0.112594
0.112594
0.112594
0.112594
0.112594
0.112594
0.112594
0.112594
0.112594
0.112594
0.112594
0.112594
0.112594
0.112594
0.112594
0.112594
0.112594
0.112594
0.112594
0.112594
0.112594
0.112594
0.112594
0.112594
0.112594
0.112594
0.112594
0.112594
0.112594
0.112594
0.112594
0.112594
0.112594
0.112594
0.112594
0.112594
0.112594
0.112594
0.112594
0.112594
0.112594
0.112594
0.112594
0.112594
0.112594
0.112594
0.112594
0.112594
0.112594
0.112594
0.112594
0.112594
0.112594
0.112594
0.112594
0.117146
0.115346
0.110902
0.112753
0.112594
0.112523
0.112465
0.112466
0.11249
0.112536
0.112524
0.112533
0.112544
0.112551
0.11256
0.112566
0.112572
0.112577
0.112581
0.112584
0.112587
0.112588
0.11259
0.112591
0.112592
0.112592
0.112593
0.112594
0.112594
0.112594
0.112594
0.112595
0.112594
0.112594
0.112594
0.112594
0.112594
0.112594
0.112594
0.112594
0.112594
0.112594
0.112595
0.112594
0.112594
0.112594
0.112594
0.112594
0.112594
0.112594
0.112594
0.112594
0.112593
0.112594
0.112594
0.112594
0.112594
0.112594
0.112594
0.112594
0.112594
0.112594
0.112594
0.112594
0.112594
0.112595
0.112594
0.112594
0.112594
0.112593
0.112594
0.112593
0.112594
0.112593
0.112594
0.112593
0.112594
0.112593
0.112601
0.112594
0.112593
0.112606
0.112599
0.112595
0.112592
0.1126
0.112592
0.112597
0.11259
0.112598
0.112589
0.1126
0.112587
0.112602
0.112585
0.112604
0.112583
0.112606
0.11258
0.112609
0.112577
0.112612
0.112574
0.112615
0.112571
0.112619
0.112567
0.112623
0.112563
0.112627
0.112559
0.112631
0.112555
0.112635
0.112551
0.11264
0.112547
0.112643
0.112544
0.112647
0.11254
0.11265
0.112538
0.112652
0.112535
0.112654
0.112533
0.112656
0.112532
0.112657
0.112531
0.112658
0.11253
0.112658
0.11253
0.112658
0.112531
0.112657
0.112531
0.112656
0.112533
0.112659
0.112536
0.112651
0.112537
0.112649
0.11254
0.112731
0.112613
0.112775
0.112663
0.11264
0.112549
0.112636
0.112552
0.112979
0.112908
0.113067
0.11301
0.112626
0.112563
0.112623
0.112566
0.113402
0.113407
0.113528
0.113544
0.112613
0.112575
0.112611
0.112577
0.113953
0.114045
0.114097
0.114195
0.112604
0.112583
0.112602
0.112585
0.114572
0.114743
0.114724
0.114892
0.112598
0.112589
0.112597
0.11259
0.115205
0.11544
0.115346
0.115572
0.112595
0.112592
0.112595
0.112592
0.115794
0.116089
0.115916
0.116196
0.112594
0.112593
0.112594
0.112593
0.116319
0.116702
0.11643
0.116802
0.112594
0.112593
0.112594
0.112593
0.116811
0.117329
0.11691
0.117436
0.112594
0.112593
0.112595
0.112592
0.117306
0.118019
0.117433
0.118146
0.112594
0.112595
0.11259
0.112606
0.116947
0.11972
0.116979
0.119141
0.119087
0.118913
0.117421
0.118162
0.112723
0.112337
0.107815
0.112594
0.112594
0.112594
)
;

boundaryField
{
    inlet
    {
        type            calculated;
        value           uniform 0;
    }
    outlet
    {
        type            calculated;
        value           uniform 0;
    }
    sideWall
    {
        type            empty;
    }
}


// ************************************************************************* //
