/*--------------------------------*- C++ -*----------------------------------*\
| =========                 |                                                 |
| \\      /  F ield         | foam-extend: Open Source CFD                    |
|  \\    /   O peration     | Version:     3.2                                |
|   \\  /    A nd           | Web:         http://www.foam-extend.org         |
|    \\/     M anipulation  | For copyright notice see file Copyright         |
\*---------------------------------------------------------------------------*/
FoamFile
{
    version     2.0;
    format      ascii;
    class       areaScalarField;
    location    "2000";
    object      tauCSS1;
}
// * * * * * * * * * * * * * * * * * * * * * * * * * * * * * * * * * * * * * //

dimensions      [1 1 2 0 0 0 0];

internalField   nonuniform List<scalar> 
300
(
0.0176069
0.0176069
0.0176069
0.0176069
0.0176069
0.0176069
0.0176069
0.0176069
0.0176069
0.0176069
0.0176069
0.0176069
0.0176069
0.0176069
0.0176069
0.0176069
0.0176069
0.0176069
0.0176069
0.0176069
0.0176069
0.0176069
0.0176069
0.0176069
0.0176069
0.0176069
0.0176069
0.0176069
0.0176069
0.0176069
0.0176069
0.0176069
0.0176069
0.0176069
0.0176069
0.0176069
0.0176069
0.0176069
0.0176069
0.0176069
0.0176069
0.0176069
0.0176069
0.0176069
0.0176069
0.0176069
0.0176069
0.0176069
0.0176069
0.0176069
0.0176069
0.0176069
0.0176069
0.0176069
0.0176069
0.0176069
0.0176069
0.0176069
0.0176069
0.0192698
0.020766
0.0194182
0.0195108
0.0194974
0.019295
0.0191832
0.019109
0.0190916
0.0190922
0.0191052
0.0191187
0.019133
0.0191457
0.0191581
0.0191687
0.0191791
0.0191883
0.0191956
0.0192013
0.0192054
0.0192084
0.0192108
0.0192123
0.0192142
0.0192152
0.0192161
0.0192176
0.0192181
0.0192192
0.0192192
0.0192198
0.0192196
0.01922
0.0192203
0.0192206
0.01922
0.0192202
0.0192203
0.0192205
0.0192206
0.0192207
0.0192209
0.0192202
0.0192203
0.0192204
0.0192204
0.0192205
0.0192206
0.0192207
0.0192207
0.0192208
0.0192201
0.0192202
0.0192202
0.0192203
0.0192203
0.0192204
0.0192205
0.0192205
0.0192206
0.0192206
0.0192207
0.0192207
0.0192208
0.0192201
0.0192202
0.0192202
0.0192203
0.0192202
0.0192203
0.0192203
0.0192204
0.0192204
0.0192205
0.0192204
0.0192206
0.0192205
0.0192206
0.0192206
0.0192205
0.0192208
0.0192205
0.0192209
0.0192196
0.0192204
0.0192195
0.0192206
0.0192194
0.0192208
0.0192192
0.0192211
0.0192189
0.0192214
0.0192186
0.0192218
0.0192183
0.0192222
0.0192178
0.0192227
0.0192173
0.0192232
0.0192168
0.0192238
0.0192162
0.0192244
0.0192155
0.019225
0.0192148
0.0192257
0.019214
0.0192263
0.0192133
0.019227
0.0192133
0.0192283
0.0192125
0.0192289
0.0192119
0.0192294
0.0192113
0.0192298
0.0192107
0.0192302
0.0192102
0.0192305
0.0192098
0.0192307
0.0192094
0.0192308
0.0192091
0.0192308
0.0192089
0.0192308
0.0192096
0.0192313
0.0192095
0.019231
0.0192096
0.0192307
0.0192097
0.0192302
0.0192099
0.0192297
0.0192101
0.0192292
0.0192112
0.0192292
0.0192115
0.0192286
0.0192119
0.0192279
0.0192123
0.0192271
0.0192127
0.0192264
0.0192139
0.0192263
0.0192143
0.0192256
0.0192147
0.0192248
0.019215
0.0192241
0.0192161
0.0192241
0.0192164
0.0192234
0.0192167
0.0192228
0.0192169
0.0192229
0.0192178
0.0192223
0.0192179
0.0192217
0.0192181
0.0192212
0.0192188
0.0192214
0.0192188
0.019221
0.0192189
0.0192206
0.0192188
0.0192208
0.0192194
0.0192205
0.0192193
0.0192202
0.0192193
0.0192205
0.0192197
0.0192201
0.0192195
0.0192199
0.0192201
0.0192203
0.0192199
0.01922
0.0192196
0.0192197
0.01922
0.0192201
0.0192198
0.0192199
0.0192196
0.0192203
0.0192198
0.0192202
0.0192193
0.0192193
0.0192205
0.019219
0.0192199
0.0192205
0.019219
0.0192212
0.0192183
0.0192215
0.0192195
0.0192185
0.0192206
0.0192204
0.0192192
0.0192221
0.0192201
0.0192275
0.0192009
0.0192546
0.0191222
0.0194169
0.0189303
0.0194329
0.019168
0.0189986
0.0201134
0.0172154
0.0176069
0.0176069
0.0176069
)
;

boundaryField
{
    inlet
    {
        type            calculated;
        value           uniform 0;
    }
    outlet
    {
        type            calculated;
        value           uniform 0;
    }
    sideWall
    {
        type            empty;
    }
}


// ************************************************************************* //
