/*--------------------------------*- C++ -*----------------------------------*\
| =========                 |                                                 |
| \\      /  F ield         | foam-extend: Open Source CFD                    |
|  \\    /   O peration     | Version:     3.2                                |
|   \\  /    A nd           | Web:         http://www.foam-extend.org         |
|    \\/     M anipulation  | For copyright notice see file Copyright         |
\*---------------------------------------------------------------------------*/
FoamFile
{
    version     2.0;
    format      ascii;
    class       areaScalarField;
    location    "2000";
    object      tauCSS2;
}
// * * * * * * * * * * * * * * * * * * * * * * * * * * * * * * * * * * * * * //

dimensions      [1 1 2 0 0 0 0];

internalField   nonuniform List<scalar> 
300
(
0.0552126
0.0552126
0.0552126
0.0552126
0.0552126
0.0552126
0.0552126
0.0552126
0.0552126
0.0552126
0.0552126
0.0552126
0.0552126
0.0552126
0.0552126
0.0552126
0.0552126
0.0552126
0.0552126
0.0552126
0.0552126
0.0552126
0.0552126
0.0552126
0.0552126
0.0552126
0.0552126
0.0552126
0.0552126
0.0552126
0.0552126
0.0552126
0.0552126
0.0552126
0.0552126
0.0552126
0.0552126
0.0552126
0.0552126
0.0552126
0.0552126
0.0552126
0.0552126
0.0552126
0.0552126
0.0552126
0.0552126
0.0552126
0.0552126
0.0552126
0.0552126
0.0552126
0.0552126
0.0552126
0.0552126
0.0552126
0.0552126
0.0552126
0.0552126
0.0604273
0.0651192
0.0608926
0.0611829
0.0611411
0.0605062
0.0601557
0.0599229
0.0598683
0.0598704
0.059911
0.0599533
0.0599983
0.060038
0.0600771
0.0601102
0.0601428
0.0601717
0.0601947
0.0602124
0.0602255
0.0602348
0.0602424
0.0602469
0.060253
0.060256
0.0602589
0.0602635
0.0602651
0.0602686
0.0602685
0.0602706
0.0602697
0.0602711
0.0602722
0.0602731
0.0602712
0.0602718
0.0602722
0.0602727
0.0602731
0.0602735
0.0602738
0.0602717
0.060272
0.0602723
0.0602725
0.0602728
0.060273
0.0602732
0.0602734
0.0602737
0.0602714
0.0602717
0.0602718
0.0602721
0.0602722
0.0602724
0.0602726
0.0602728
0.0602729
0.0602731
0.0602732
0.0602734
0.0602736
0.0602714
0.0602716
0.0602717
0.0602719
0.0602719
0.0602722
0.0602721
0.0602725
0.0602723
0.0602727
0.0602724
0.060273
0.0602726
0.0602731
0.060273
0.0602728
0.0602736
0.0602726
0.060274
0.06027
0.0602723
0.0602697
0.060273
0.0602692
0.0602737
0.0602686
0.0602746
0.0602678
0.0602756
0.0602668
0.0602768
0.0602657
0.0602781
0.0602643
0.0602796
0.0602627
0.0602812
0.060261
0.0602831
0.0602591
0.0602849
0.060257
0.0602869
0.0602547
0.0602889
0.0602525
0.060291
0.0602501
0.0602931
0.0602501
0.0602972
0.0602477
0.0602989
0.0602456
0.0603006
0.0602437
0.0603019
0.0602419
0.060303
0.0602403
0.0603039
0.060239
0.0603046
0.0602379
0.060305
0.0602371
0.060305
0.0602365
0.0603049
0.0602384
0.0603065
0.0602382
0.0603056
0.0602384
0.0603046
0.0602388
0.0603032
0.0602394
0.0603017
0.0602402
0.0602999
0.0602434
0.0603001
0.0602446
0.060298
0.0602458
0.0602957
0.060247
0.0602934
0.0602484
0.0602911
0.0602519
0.0602909
0.0602532
0.0602886
0.0602544
0.0602862
0.0602555
0.0602841
0.0602588
0.0602839
0.0602599
0.0602818
0.0602607
0.0602798
0.0602615
0.0602801
0.0602641
0.0602784
0.0602646
0.0602766
0.060265
0.0602749
0.0602674
0.0602756
0.0602675
0.0602743
0.0602676
0.0602729
0.0602674
0.0602737
0.0602693
0.0602726
0.0602691
0.0602716
0.0602688
0.0602726
0.0602703
0.0602715
0.0602697
0.0602707
0.0602713
0.060272
0.0602707
0.0602711
0.0602699
0.0602701
0.0602712
0.0602714
0.0602705
0.0602707
0.0602698
0.0602721
0.0602704
0.0602719
0.0602688
0.0602689
0.0602726
0.0602681
0.0602709
0.0602727
0.0602681
0.0602749
0.0602659
0.0602758
0.0602695
0.0602664
0.0602731
0.0602724
0.0602685
0.0602778
0.0602715
0.0602947
0.0602112
0.0603797
0.0599645
0.0608886
0.0593625
0.0609388
0.0601082
0.0595769
0.0630726
0.0539849
0.0552126
0.0552126
0.0552126
)
;

boundaryField
{
    inlet
    {
        type            calculated;
        value           uniform 0;
    }
    outlet
    {
        type            calculated;
        value           uniform 0;
    }
    sideWall
    {
        type            empty;
    }
}


// ************************************************************************* //
