/*--------------------------------*- C++ -*----------------------------------*\
| =========                 |                                                 |
| \\      /  F ield         | foam-extend: Open Source CFD                    |
|  \\    /   O peration     | Version:     3.2                                |
|   \\  /    A nd           | Web:         http://www.foam-extend.org         |
|    \\/     M anipulation  | For copyright notice see file Copyright         |
\*---------------------------------------------------------------------------*/
FoamFile
{
    version     2.0;
    format      ascii;
    class       volScalarField;
    location    "2000";
    object      testS;
}
// * * * * * * * * * * * * * * * * * * * * * * * * * * * * * * * * * * * * * //

dimensions      [0 0 0 0 0 0 0];

internalField   uniform 0;

boundaryField
{
    inlet
    {
        type            calculated;
        value           uniform 0;
    }
    outlet
    {
        type            calculated;
        value           uniform 0;
    }
    sideWall
    {
        type            empty;
    }
    bed
    {
        type            calculated;
        value           nonuniform List<scalar> 
300
(
0.293543
0.400033
0.30991
0.239208
0.201597
0.186684
0.181028
0.180334
0.181273
0.183201
0.185533
0.187913
0.190232
0.192686
0.195051
0.197455
0.200012
0.202579
0.205217
0.207888
0.210577
0.213283
0.216081
0.218973
0.22179
0.224397
0.226761
0.228847
0.230666
0.232225
0.233563
0.234709
0.235667
0.236455
0.237086
0.237607
0.238039
0.238404
0.238709
0.238972
0.239191
0.239384
0.23954
0.239683
0.239793
0.239901
0.239977
0.24006
0.240111
0.240182
0.240199
0.240298
0.240204
0.240492
0.239966
0.241138
0.23865
0.243401
0.226262
0.188322
0.254571
0.254571
0.254572
0.254571
0.254572
0.254571
0.254572
0.254571
0.254572
0.254571
0.254489
0.254445
0.254409
0.254392
0.254383
0.254378
0.254376
0.254391
0.254411
0.254437
0.254461
0.254482
0.254502
0.254509
0.254524
0.254529
0.254531
0.254535
0.254538
0.254543
0.254547
0.254552
0.254553
0.25455
0.254554
0.25456
0.254561
0.254559
0.254559
0.254559
0.254559
0.25456
0.254567
0.254565
0.254564
0.254563
0.254564
0.254562
0.254564
0.254561
0.254564
0.25457
0.254569
0.254567
0.254566
0.254565
0.254565
0.254564
0.254565
0.254563
0.254565
0.254564
0.254563
0.254566
0.254571
0.254571
0.254565
0.25457
0.254562
0.254571
0.25456
0.254571
0.254558
0.254572
0.254557
0.254572
0.25456
0.254565
0.254576
0.254543
0.254598
0.254524
0.254615
0.254513
0.254639
0.254486
0.254661
0.254457
0.25469
0.254423
0.254725
0.254382
0.254767
0.254336
0.254816
0.254282
0.254871
0.254222
0.254932
0.254157
0.254999
0.254085
0.255071
0.254009
0.255148
0.25393
0.255226
0.253849
0.255306
0.253768
0.255385
0.253689
0.255461
0.253605
0.255528
0.25354
0.255596
0.253479
0.255654
0.253428
0.255702
0.253386
0.25574
0.253354
0.255769
0.253331
0.255788
0.253319
0.255798
0.253317
0.255798
0.253324
0.255787
0.253334
0.255763
0.253365
0.255737
0.253403
0.255701
0.253449
0.255656
0.253504
0.255606
0.253566
0.255553
0.253623
0.255492
0.253697
0.255437
0.253771
0.255378
0.253845
0.255319
0.253919
0.25526
0.253984
0.255198
0.254059
0.255144
0.254129
0.255092
0.254193
0.255042
0.254247
0.254991
0.254307
0.254949
0.254359
0.25491
0.254404
0.254868
0.254442
0.254841
0.254482
0.254813
0.254513
0.254786
0.254533
0.254761
0.254561
0.254747
0.254584
0.25473
0.254599
0.254706
0.254605
0.2547
0.254621
0.254693
0.254632
0.254676
0.25463
0.25467
0.254634
0.254668
0.254633
0.254662
0.25464
0.25466
0.254639
0.254655
0.25463
0.254654
0.254638
0.25466
0.25464
0.25465
0.254635
0.254646
0.25464
0.254659
0.254629
0.25467
0.254631
0.254654
0.254638
0.254646
0.254649
0.254648
0.254655
0.254676
0.254655
0.254624
0.254729
0.254511
0.254861
0.254588
0.254585
0.254583
0.254582
0.254582
0.254581
0.254581
0.254581
0.254581
0.25458
0.192341
0.208132
0.227058
0.231574
)
;
    }
    topWall
    {
        type            calculated;
        value           uniform 0;
    }
}


// ************************************************************************* //
