/*--------------------------------*- C++ -*----------------------------------*\
| =========                 |                                                 |
| \\      /  F ield         | foam-extend: Open Source CFD                    |
|  \\    /   O peration     | Version:     3.2                                |
|   \\  /    A nd           | Web:         http://www.foam-extend.org         |
|    \\/     M anipulation  | For copyright notice see file Copyright         |
\*---------------------------------------------------------------------------*/
FoamFile
{
    version     2.0;
    format      ascii;
    class       areaScalarField;
    location    "2000";
    object      thetaB;
}
// * * * * * * * * * * * * * * * * * * * * * * * * * * * * * * * * * * * * * //

dimensions      [0 0 0 0 0 0 0];

internalField   nonuniform List<scalar> 
300
(
0.141702
0.173666
0.146839
0.123911
0.110797
0.105374
0.10328
0.103022
0.103372
0.104088
0.10495
0.105827
0.106677
0.107573
0.108434
0.109305
0.110227
0.111149
0.112093
0.113044
0.113997
0.114953
0.115936
0.116949
0.117931
0.118835
0.119653
0.120372
0.120997
0.121531
0.121989
0.122381
0.122708
0.122976
0.123191
0.123368
0.123514
0.123638
0.123742
0.123831
0.123905
0.123971
0.124024
0.124072
0.12411
0.124146
0.124172
0.1242
0.124217
0.124241
0.124247
0.124281
0.124249
0.124346
0.124168
0.124565
0.123722
0.12533
0.119467
0.130774
0.159095
0.153111
0.141987
0.142847
0.141848
0.141402
0.140858
0.140574
0.140466
0.140449
0.140465
0.140483
0.140514
0.140544
0.140579
0.140611
0.140646
0.140678
0.140707
0.140731
0.140751
0.140766
0.140778
0.140787
0.140796
0.1408
0.140808
0.140812
0.140818
0.140821
0.140825
0.140827
0.140829
0.14083
0.140833
0.140834
0.140835
0.140836
0.140837
0.140838
0.140839
0.14084
0.14084
0.14084
0.14084
0.14084
0.140841
0.140841
0.140842
0.140842
0.140843
0.140842
0.140841
0.140841
0.140841
0.140841
0.140841
0.140841
0.140841
0.140842
0.140842
0.140842
0.140842
0.140843
0.140842
0.140842
0.14084
0.140841
0.14084
0.140842
0.14084
0.140842
0.14084
0.140842
0.14084
0.140841
0.140842
0.14084
0.140845
0.140837
0.14085
0.140834
0.140853
0.14083
0.140853
0.140824
0.140856
0.140819
0.14086
0.140814
0.140865
0.140807
0.140871
0.1408
0.140877
0.140793
0.140884
0.140784
0.140892
0.140775
0.140899
0.140766
0.140907
0.140756
0.140915
0.140747
0.140923
0.140738
0.14093
0.140729
0.140936
0.140721
0.140942
0.140715
0.140949
0.140711
0.140954
0.140707
0.140956
0.140705
0.140957
0.140704
0.140957
0.140705
0.140956
0.140706
0.140954
0.140709
0.14095
0.140713
0.140946
0.140718
0.14094
0.140725
0.140937
0.140733
0.140931
0.140742
0.140924
0.140751
0.140917
0.14076
0.14091
0.140769
0.140904
0.140779
0.1409
0.14079
0.140896
0.1408
0.140891
0.140809
0.140886
0.140818
0.140882
0.140826
0.140881
0.140835
0.140879
0.140842
0.140876
0.140848
0.140874
0.140853
0.140874
0.140859
0.140873
0.140863
0.140872
0.140865
0.140871
0.14087
0.140872
0.140872
0.140872
0.140872
0.140871
0.140874
0.140872
0.140875
0.140872
0.140875
0.140872
0.140873
0.140871
0.140874
0.140871
0.140873
0.140871
0.140872
0.14087
0.140872
0.14087
0.14087
0.140869
0.140869
0.140869
0.140869
0.140868
0.140867
0.140866
0.140866
0.140868
0.140867
0.140868
0.140864
0.140867
0.140865
0.140866
0.140866
0.140864
0.140865
0.140867
0.140861
0.140869
0.140862
0.140869
0.140866
0.140867
0.140872
0.140865
0.140871
0.140863
0.140884
0.140857
0.140865
0.140956
0.140759
0.141032
0.140299
0.141685
0.140333
0.140197
0.14206
0.138394
0.149151
0.126967
0.113316
0.11974
0.121309
)
;

boundaryField
{
    inlet
    {
        type            calculated;
        value           uniform 0;
    }
    outlet
    {
        type            calculated;
        value           uniform 0;
    }
    sideWall
    {
        type            empty;
    }
}


// ************************************************************************* //
