/*--------------------------------*- C++ -*----------------------------------*\
| =========                 |                                                 |
| \\      /  F ield         | foam-extend: Open Source CFD                    |
|  \\    /   O peration     | Version:     3.2                                |
|   \\  /    A nd           | Web:         http://www.foam-extend.org         |
|    \\/     M anipulation  | For copyright notice see file Copyright         |
\*---------------------------------------------------------------------------*/
FoamFile
{
    version     2.0;
    format      ascii;
    class       areaScalarField;
    location    "2000";
    object      thetaSS2;
}
// * * * * * * * * * * * * * * * * * * * * * * * * * * * * * * * * * * * * * //

dimensions      [0 0 0 0 0 0 0];

internalField   nonuniform List<scalar> 
300
(
1.88936
2.31554
1.95786
1.65215
1.47729
1.40499
1.37707
1.37363
1.37829
1.38784
1.39933
1.41102
1.42236
1.43431
1.44578
1.4574
1.46969
1.48199
1.49457
1.50725
1.51996
1.5327
1.54582
1.55932
1.57241
1.58447
1.59537
1.60496
1.61329
1.62042
1.62652
1.63174
1.6361
1.63968
1.64254
1.6449
1.64686
1.64851
1.64989
1.65108
1.65207
1.65294
1.65365
1.6543
1.65479
1.65528
1.65562
1.656
1.65623
1.65655
1.65663
1.65708
1.65665
1.65795
1.65557
1.66086
1.64962
1.67107
1.59289
1.74366
2.12127
2.04148
1.89316
1.90463
1.89131
1.88536
1.8781
1.87432
1.87289
1.87265
1.87287
1.87311
1.87352
1.87392
1.87439
1.87481
1.87528
1.8757
1.8761
1.87641
1.87668
1.87688
1.87704
1.87716
1.87728
1.87734
1.87744
1.87749
1.87757
1.87761
1.87766
1.87769
1.87772
1.87774
1.87778
1.87779
1.8778
1.87781
1.87782
1.87784
1.87785
1.87787
1.87787
1.87786
1.87787
1.87787
1.87787
1.87788
1.87789
1.87789
1.8779
1.87789
1.87788
1.87788
1.87788
1.87788
1.87788
1.87788
1.87789
1.87789
1.87789
1.8779
1.8779
1.87791
1.87789
1.87789
1.87787
1.87789
1.87786
1.87789
1.87786
1.87789
1.87786
1.87789
1.87787
1.87788
1.8779
1.87787
1.87794
1.87782
1.878
1.87778
1.87804
1.87774
1.87804
1.87766
1.87808
1.87759
1.87814
1.87751
1.8782
1.87743
1.87828
1.87734
1.87836
1.87723
1.87846
1.87712
1.87855
1.877
1.87866
1.87688
1.87876
1.87675
1.87887
1.87663
1.87897
1.8765
1.87907
1.87639
1.87915
1.87628
1.87922
1.87619
1.87932
1.87614
1.87938
1.8761
1.87942
1.87607
1.87943
1.87606
1.87943
1.87606
1.87941
1.87608
1.87938
1.87612
1.87934
1.87617
1.87928
1.87624
1.8792
1.87633
1.87916
1.87644
1.87908
1.87656
1.87899
1.87668
1.87889
1.8768
1.8788
1.87692
1.87872
1.87705
1.87867
1.8772
1.87861
1.87733
1.87855
1.87745
1.87849
1.87757
1.87843
1.87768
1.87841
1.8778
1.87838
1.87789
1.87835
1.87797
1.87832
1.87804
1.87832
1.87812
1.87831
1.87817
1.8783
1.8782
1.87829
1.87826
1.87829
1.87829
1.87829
1.8783
1.87828
1.87831
1.87829
1.87833
1.87829
1.87833
1.87829
1.87831
1.87828
1.87832
1.87829
1.87831
1.87828
1.87829
1.87827
1.87829
1.87826
1.87827
1.87825
1.87826
1.87825
1.87825
1.87824
1.87823
1.87822
1.87822
1.87824
1.87822
1.87824
1.87819
1.87822
1.87821
1.87822
1.87821
1.87819
1.87821
1.87823
1.87815
1.87826
1.87816
1.87826
1.87822
1.87822
1.87829
1.87819
1.87828
1.87818
1.87845
1.8781
1.8782
1.87942
1.87678
1.88042
1.87065
1.88913
1.87111
1.86929
1.89413
1.84525
1.98869
1.69289
1.51088
1.59653
1.61746
)
;

boundaryField
{
    inlet
    {
        type            calculated;
        value           uniform 0;
    }
    outlet
    {
        type            calculated;
        value           uniform 0;
    }
    sideWall
    {
        type            empty;
    }
}


// ************************************************************************* //
