/*--------------------------------*- C++ -*----------------------------------*\
| =========                 |                                                 |
| \\      /  F ield         | foam-extend: Open Source CFD                    |
|  \\    /   O peration     | Version:     3.2                                |
|   \\  /    A nd           | Web:         http://www.foam-extend.org         |
|    \\/     M anipulation  | For copyright notice see file Copyright         |
\*---------------------------------------------------------------------------*/
FoamFile
{
    version     2.0;
    format      ascii;
    class       areaScalarField;
    location    "2000";
    object      thetaCSS2;
}
// * * * * * * * * * * * * * * * * * * * * * * * * * * * * * * * * * * * * * //

dimensions      [0 0 0 0 0 0 0];

internalField   nonuniform List<scalar> 
300
(
0.0933366
0.0933366
0.0933366
0.0933366
0.0933366
0.0933366
0.0933366
0.0933366
0.0933366
0.0933366
0.0933366
0.0933366
0.0933366
0.0933366
0.0933366
0.0933366
0.0933366
0.0933366
0.0933366
0.0933366
0.0933366
0.0933366
0.0933366
0.0933366
0.0933366
0.0933366
0.0933366
0.0933366
0.0933366
0.0933366
0.0933366
0.0933366
0.0933366
0.0933366
0.0933366
0.0933366
0.0933366
0.0933366
0.0933366
0.0933366
0.0933366
0.0933366
0.0933366
0.0933366
0.0933366
0.0933366
0.0933366
0.0933366
0.0933366
0.0933366
0.0933366
0.0933366
0.0933366
0.0933366
0.0933366
0.0933366
0.0933366
0.0933366
0.0933366
0.102152
0.110084
0.102939
0.103429
0.103359
0.102285
0.101693
0.101299
0.101207
0.101211
0.101279
0.101351
0.101427
0.101494
0.10156
0.101616
0.101671
0.10172
0.101759
0.101789
0.101811
0.101827
0.101839
0.101847
0.101857
0.101862
0.101867
0.101875
0.101878
0.101884
0.101884
0.101887
0.101886
0.101888
0.10189
0.101891
0.101888
0.101889
0.10189
0.101891
0.101891
0.101892
0.101893
0.101889
0.101889
0.10189
0.10189
0.101891
0.101891
0.101892
0.101892
0.101892
0.101888
0.101889
0.101889
0.10189
0.10189
0.10189
0.101891
0.101891
0.101891
0.101891
0.101892
0.101892
0.101892
0.101888
0.101889
0.101889
0.101889
0.101889
0.10189
0.10189
0.10189
0.10189
0.101891
0.10189
0.101891
0.10189
0.101891
0.101891
0.101891
0.101892
0.10189
0.101893
0.101886
0.10189
0.101886
0.101891
0.101885
0.101892
0.101884
0.101894
0.101882
0.101896
0.101881
0.101898
0.101879
0.1019
0.101876
0.101902
0.101874
0.101905
0.101871
0.101908
0.101868
0.101911
0.101864
0.101915
0.10186
0.101918
0.101856
0.101922
0.101853
0.101925
0.101852
0.101932
0.101848
0.101935
0.101845
0.101938
0.101842
0.10194
0.101839
0.101942
0.101836
0.101943
0.101834
0.101945
0.101832
0.101945
0.10183
0.101945
0.101829
0.101945
0.101833
0.101948
0.101832
0.101946
0.101833
0.101945
0.101833
0.101942
0.101834
0.10194
0.101836
0.101937
0.101841
0.101937
0.101843
0.101933
0.101845
0.10193
0.101847
0.101926
0.10185
0.101922
0.101855
0.101921
0.101858
0.101918
0.10186
0.101914
0.101862
0.10191
0.101867
0.10191
0.101869
0.101906
0.10187
0.101903
0.101872
0.101903
0.101876
0.1019
0.101877
0.101897
0.101878
0.101894
0.101882
0.101896
0.101882
0.101893
0.101882
0.101891
0.101882
0.101892
0.101885
0.10189
0.101884
0.101889
0.101884
0.101891
0.101887
0.101889
0.101886
0.101887
0.101888
0.101889
0.101887
0.101888
0.101886
0.101886
0.101888
0.101889
0.101887
0.101887
0.101886
0.10189
0.101887
0.101889
0.101884
0.101884
0.101891
0.101883
0.101888
0.101891
0.101883
0.101894
0.101879
0.101896
0.101885
0.10188
0.101891
0.10189
0.101883
0.101899
0.101889
0.101928
0.101787
0.102071
0.10137
0.102932
0.100352
0.103017
0.101613
0.100714
0.106624
0.0912612
0.0933366
0.0933366
0.0933366
)
;

boundaryField
{
    inlet
    {
        type            calculated;
        value           uniform 0;
    }
    outlet
    {
        type            calculated;
        value           uniform 0;
    }
    sideWall
    {
        type            empty;
    }
}


// ************************************************************************* //
