/*--------------------------------*- C++ -*----------------------------------*\
| =========                 |                                                 |
| \\      /  F ield         | foam-extend: Open Source CFD                    |
|  \\    /   O peration     | Version:     3.2                                |
|   \\  /    A nd           | Web:         http://www.foam-extend.org         |
|    \\/     M anipulation  | For copyright notice see file Copyright         |
\*---------------------------------------------------------------------------*/
FoamFile
{
    version     2.0;
    format      ascii;
    class       areaScalarField;
    location    "2000";
    object      thetaHMaxSS2;
}
// * * * * * * * * * * * * * * * * * * * * * * * * * * * * * * * * * * * * * //

dimensions      [0 0 0 0 0 0 0];

internalField   nonuniform List<scalar> 
300
(
0
0
0
0
0
0
0
0
0
0
0
0
0
0
0
0
0
0
0
0
0
0
0
0
0
0
0
0
0
0
0
0
0
0
0
0
0
0
0
0
0
0
0
0
0
0
0
0
0
0
0
0
0
0
0
0
0
0
0
0
1.90843
1.85611
1.83437
1.83574
1.81786
1.80827
1.80129
1.79928
1.79907
1.80003
1.80119
1.80237
1.80344
1.80449
1.80539
1.80627
1.80706
1.80769
1.80818
1.80854
1.80879
1.80899
1.80912
1.80928
1.80937
1.80944
1.80957
1.80962
1.80971
1.80972
1.80978
1.80975
1.80979
1.80982
1.80985
1.8098
1.80982
1.80983
1.80984
1.80986
1.80987
1.80988
1.80982
1.80983
1.80984
1.80984
1.80985
1.80986
1.80986
1.80987
1.80988
1.80982
1.80982
1.80983
1.80983
1.80984
1.80984
1.80985
1.80985
1.80986
1.80986
1.80987
1.80987
1.80988
1.80982
1.80982
1.80982
1.80983
1.80983
1.80983
1.80984
1.80984
1.80984
1.80985
1.80985
1.80985
1.80985
1.80986
1.80986
1.80986
1.80986
1.80987
1.80987
1.8098
1.8098
1.80981
1.80981
1.80981
1.80981
1.80981
1.80981
1.80981
1.80981
1.80981
1.80981
1.80981
1.80981
1.80981
1.80981
1.80981
1.80981
1.80981
1.80981
1.80981
1.80981
1.80981
1.8098
1.8098
1.8098
1.8098
1.8098
1.8098
1.80979
1.80985
1.80985
1.80985
1.80984
1.80984
1.80984
1.80984
1.80983
1.80983
1.80982
1.80982
1.80982
1.80981
1.80981
1.8098
1.8098
1.8098
1.80979
1.80979
1.80978
1.80984
1.80984
1.80983
1.80982
1.80982
1.80982
1.80981
1.8098
1.8098
1.80979
1.80979
1.80978
1.80984
1.80983
1.80982
1.80982
1.80981
1.8098
1.8098
1.80979
1.80978
1.80978
1.80983
1.80982
1.80982
1.80981
1.8098
1.80979
1.80978
1.80978
1.80983
1.80982
1.80982
1.80981
1.8098
1.80979
1.80978
1.80983
1.80982
1.80982
1.80981
1.8098
1.80979
1.80978
1.80983
1.80982
1.80981
1.8098
1.80979
1.80978
1.80977
1.80982
1.80981
1.8098
1.80979
1.80978
1.80977
1.80982
1.80981
1.8098
1.80979
1.80978
1.80982
1.80982
1.8098
1.80979
1.80978
1.80977
1.80982
1.80981
1.80979
1.80978
1.80977
1.80982
1.80979
1.80982
1.80975
1.80973
1.80985
1.80971
1.8098
1.80984
1.80972
1.8099
1.80967
1.80992
1.80977
1.80966
1.80985
1.80984
1.80971
1.81006
1.80962
1.81065
1.80814
1.8129
1.80102
1.82687
1.78652
1.82444
1.8089
1.7869
1.89826
0
0
0
0
)
;

boundaryField
{
    inlet
    {
        type            calculated;
        value           uniform 0;
    }
    outlet
    {
        type            calculated;
        value           uniform 0;
    }
    sideWall
    {
        type            empty;
    }
}


// ************************************************************************* //
