/*--------------------------------*- C++ -*----------------------------------*\
| =========                 |                                                 |
| \\      /  F ield         | foam-extend: Open Source CFD                    |
|  \\    /   O peration     | Version:     3.2                                |
|   \\  /    A nd           | Web:         http://www.foam-extend.org         |
|    \\/     M anipulation  | For copyright notice see file Copyright         |
\*---------------------------------------------------------------------------*/
FoamFile
{
    version     2.0;
    format      ascii;
    class       areaScalarField;
    location    "2000";
    object      thetaSS1;
}
// * * * * * * * * * * * * * * * * * * * * * * * * * * * * * * * * * * * * * //

dimensions      [0 0 0 0 0 0 0];

internalField   nonuniform List<scalar> 
300
(
7.44629
9.12596
7.71625
6.51141
5.82226
5.53732
5.42728
5.4137
5.43209
5.4697
5.51502
5.56109
5.60577
5.65288
5.69809
5.74386
5.79232
5.84078
5.89036
5.94034
5.99044
6.04065
6.09233
6.14554
6.19713
6.24468
6.28763
6.32542
6.35827
6.38636
6.41042
6.43099
6.44816
6.46226
6.47354
6.48285
6.49055
6.49708
6.50252
6.50721
6.51111
6.51454
6.51733
6.51987
6.52183
6.52375
6.5251
6.52658
6.5275
6.52876
6.52905
6.53083
6.52915
6.53427
6.5249
6.54576
6.50146
6.58597
6.27787
6.87207
8.36031
8.04582
7.46127
7.50648
7.45398
7.43056
7.40193
7.38703
7.38137
7.38045
7.38132
7.38227
7.38389
7.38544
7.38729
7.38895
7.39083
7.39247
7.39402
7.39527
7.39631
7.39711
7.39775
7.39821
7.3987
7.39892
7.39931
7.39951
7.39983
7.39999
7.4002
7.4003
7.40041
7.4005
7.40065
7.4007
7.40072
7.40078
7.40083
7.40089
7.40094
7.40101
7.401
7.40098
7.401
7.40101
7.40104
7.40105
7.40108
7.40109
7.40115
7.40111
7.40106
7.40105
7.40105
7.40104
7.40106
7.40106
7.40108
7.40109
7.4011
7.40113
7.40112
7.40119
7.40111
7.40109
7.40102
7.40108
7.401
7.40108
7.40099
7.4011
7.401
7.4011
7.40103
7.40108
7.40112
7.401
7.40128
7.40084
7.40152
7.40067
7.40168
7.40049
7.4017
7.40019
7.40185
7.39992
7.40207
7.39961
7.40233
7.39929
7.40263
7.39892
7.40296
7.39851
7.40333
7.39807
7.40372
7.3976
7.40412
7.39711
7.40454
7.39661
7.40496
7.39611
7.40536
7.39562
7.40573
7.39517
7.40607
7.39476
7.40636
7.39441
7.40673
7.39421
7.40697
7.39403
7.40711
7.39392
7.40717
7.39387
7.40717
7.39389
7.4071
7.39397
7.40697
7.39412
7.40679
7.39433
7.40656
7.39461
7.40627
7.39495
7.40609
7.3954
7.4058
7.39584
7.40544
7.39631
7.40505
7.39679
7.4047
7.39727
7.40435
7.39778
7.40416
7.39836
7.40393
7.39889
7.40368
7.39937
7.40344
7.39983
7.40322
7.40026
7.40315
7.40073
7.40303
7.40111
7.4029
7.40142
7.40277
7.4017
7.4028
7.40199
7.40276
7.40219
7.4027
7.40233
7.40266
7.40256
7.40267
7.40267
7.40268
7.4027
7.40262
7.40277
7.40267
7.40284
7.40269
7.40283
7.40266
7.40275
7.40263
7.40278
7.40266
7.40275
7.40262
7.40266
7.40258
7.40266
7.40257
7.4026
7.4025
7.40255
7.40252
7.40252
7.40248
7.40245
7.4024
7.40239
7.40246
7.4024
7.40246
7.40228
7.40241
7.40234
7.40239
7.40238
7.40229
7.40234
7.40242
7.40212
7.40255
7.40214
7.40255
7.40238
7.4024
7.40269
7.40229
7.40264
7.40223
7.40331
7.40191
7.40231
7.40712
7.39673
7.41107
7.37257
7.44541
7.37438
7.36721
7.4651
7.27245
7.83776
6.67198
5.95466
6.29221
6.3747
)
;

boundaryField
{
    inlet
    {
        type            calculated;
        value           uniform 0;
    }
    outlet
    {
        type            calculated;
        value           uniform 0;
    }
    sideWall
    {
        type            empty;
    }
}


// ************************************************************************* //
