/*--------------------------------*- C++ -*----------------------------------*\
| =========                 |                                                 |
| \\      /  F ield         | foam-extend: Open Source CFD                    |
|  \\    /   O peration     | Version:     3.2                                |
|   \\  /    A nd           | Web:         http://www.foam-extend.org         |
|    \\/     M anipulation  | For copyright notice see file Copyright         |
\*---------------------------------------------------------------------------*/
FoamFile
{
    version     2.0;
    format      ascii;
    class       areaScalarField;
    location    "2000";
    object      thetaSS1init;
}
// * * * * * * * * * * * * * * * * * * * * * * * * * * * * * * * * * * * * * //

dimensions      [0 0 0 0 0 0 0];

internalField   nonuniform List<scalar> 
300
(
7.43726
9.12187
7.74667
6.49531
5.82777
5.53011
5.4246
5.4109
5.42987
5.46758
5.51388
5.55975
5.60504
5.65194
5.69747
5.74356
5.79189
5.84063
5.89012
5.94015
5.99021
6.04044
6.0922
6.14547
6.19711
6.24467
6.28761
6.32542
6.35827
6.38636
6.41044
6.43101
6.44819
6.46226
6.47355
6.48283
6.49057
6.49706
6.50254
6.5072
6.51114
6.5145
6.51737
6.51982
6.52191
6.52368
6.52519
6.52649
6.52758
6.52854
6.52933
6.53003
6.53061
6.53111
6.53154
6.5319
6.53222
6.5325
6.53272
6.53292
6.5331
6.53324
6.53335
6.53347
6.53355
6.53363
6.53371
6.53377
6.53381
6.53387
6.53391
6.53393
6.53395
6.53399
6.53401
6.53401
6.53403
6.53405
6.53405
6.53407
6.53407
6.53407
6.53409
6.53409
6.53409
6.53409
6.53409
6.53409
6.53409
6.53411
6.53411
6.53411
6.53411
6.53411
6.53411
6.53411
6.53411
6.53411
6.53411
6.53411
6.53411
6.53411
6.53411
6.53411
6.53411
6.53411
6.53411
6.53411
6.53411
6.53411
6.53411
6.53411
6.53411
6.53411
6.53411
6.53411
6.53411
6.53411
6.53411
6.53411
6.53411
6.53411
6.53411
6.53411
6.53411
6.53411
6.53411
6.53411
6.53411
6.53411
6.53411
6.53411
6.53411
6.53411
6.53411
6.53411
6.53411
6.53411
6.53411
6.53411
6.53411
6.53411
6.53411
6.53411
6.53411
6.53411
6.53411
6.53411
6.53411
6.53411
6.53411
6.53411
6.53411
6.53411
6.53411
6.53411
6.53411
6.53411
6.53411
6.53411
6.53411
6.53411
6.53411
6.53411
6.53411
6.53411
6.53411
6.53411
6.53411
6.53411
6.53411
6.53411
6.53411
6.53411
6.53411
6.53411
6.53411
6.53411
6.53411
6.53411
6.53411
6.53411
6.53411
6.53411
6.53411
6.53411
6.53411
6.53411
6.53411
6.53411
6.53411
6.53411
6.53411
6.53411
6.53411
6.53411
6.53411
6.53411
6.53411
6.53411
6.53411
6.53411
6.53411
6.53411
6.53411
6.53411
6.53411
6.53411
6.53411
6.53411
6.53411
6.53411
6.53411
6.53411
6.53411
6.53411
6.53411
6.53411
6.53411
6.53411
6.53411
6.53411
6.53411
6.53411
6.53411
6.53411
6.53411
6.53411
6.53411
6.53411
6.53411
6.53411
6.53411
6.53411
6.53411
6.53411
6.53411
6.53411
6.53411
6.53411
6.53411
6.53411
6.53411
6.53411
6.53411
6.53411
6.53411
6.53411
6.53411
6.53411
6.53411
6.53411
6.53411
6.53411
6.53411
6.53411
6.53411
6.53411
6.53411
6.53411
6.53411
6.53411
6.53411
6.53411
6.53411
6.53411
6.53411
6.53411
6.53411
6.53411
6.53411
6.53411
6.53411
6.53411
6.53411
6.53411
6.53411
6.53411
6.53411
6.53411
6.53411
6.53411
6.53411
6.53411
6.53411
6.53411
6.53411
6.53411
6.53411
6.53411
6.53411
6.53411
6.53411
6.53411
6.53411
6.53411
6.53411
6.53413
6.53461
6.53403
)
;

boundaryField
{
    inlet
    {
        type            calculated;
        value           uniform 0;
    }
    outlet
    {
        type            calculated;
        value           uniform 0;
    }
    sideWall
    {
        type            empty;
    }
}


// ************************************************************************* //
