/*--------------------------------*- C++ -*----------------------------------*\
| =========                 |                                                 |
| \\      /  F ield         | foam-extend: Open Source CFD                    |
|  \\    /   O peration     | Version:     3.2                                |
|   \\  /    A nd           | Web:         http://www.foam-extend.org         |
|    \\/     M anipulation  | For copyright notice see file Copyright         |
\*---------------------------------------------------------------------------*/
FoamFile
{
    version     2.0;
    format      ascii;
    class       areaScalarField;
    location    "2000";
    object      thetaCSS1;
}
// * * * * * * * * * * * * * * * * * * * * * * * * * * * * * * * * * * * * * //

dimensions      [0 0 0 0 0 0 0];

internalField   nonuniform List<scalar> 
300
(
0.117306
0.117306
0.117306
0.117306
0.117306
0.117306
0.117306
0.117306
0.117306
0.117306
0.117306
0.117306
0.117306
0.117306
0.117306
0.117306
0.117306
0.117306
0.117306
0.117306
0.117306
0.117306
0.117306
0.117306
0.117306
0.117306
0.117306
0.117306
0.117306
0.117306
0.117306
0.117306
0.117306
0.117306
0.117306
0.117306
0.117306
0.117306
0.117306
0.117306
0.117306
0.117306
0.117306
0.117306
0.117306
0.117306
0.117306
0.117306
0.117306
0.117306
0.117306
0.117306
0.117306
0.117306
0.117306
0.117306
0.117306
0.117306
0.117306
0.128386
0.138354
0.129374
0.129991
0.129902
0.128553
0.127809
0.127314
0.127198
0.127203
0.127289
0.127379
0.127474
0.127559
0.127642
0.127712
0.127781
0.127843
0.127892
0.127929
0.127957
0.127977
0.127993
0.128003
0.128015
0.128022
0.128028
0.128038
0.128041
0.128049
0.128048
0.128053
0.128051
0.128054
0.128056
0.128058
0.128054
0.128055
0.128056
0.128057
0.128058
0.128059
0.12806
0.128055
0.128056
0.128056
0.128057
0.128057
0.128058
0.128058
0.128059
0.128059
0.128055
0.128055
0.128055
0.128056
0.128056
0.128057
0.128057
0.128058
0.128058
0.128058
0.128058
0.128059
0.128059
0.128054
0.128055
0.128055
0.128056
0.128056
0.128056
0.128056
0.128057
0.128056
0.128057
0.128057
0.128058
0.128057
0.128058
0.128058
0.128057
0.128059
0.128057
0.12806
0.128052
0.128056
0.128051
0.128058
0.12805
0.128059
0.128049
0.128061
0.128047
0.128063
0.128045
0.128066
0.128042
0.128069
0.128039
0.128072
0.128036
0.128075
0.128032
0.128079
0.128028
0.128083
0.128024
0.128087
0.128019
0.128092
0.128014
0.128096
0.128009
0.128101
0.128009
0.128109
0.128004
0.128113
0.128
0.128116
0.127996
0.128119
0.127992
0.128122
0.127989
0.128124
0.127986
0.128125
0.127983
0.128126
0.127982
0.128126
0.12798
0.128126
0.127984
0.128129
0.127984
0.128127
0.127984
0.128125
0.127985
0.128122
0.127987
0.128119
0.127988
0.128115
0.127995
0.128115
0.127998
0.128111
0.128
0.128106
0.128003
0.128101
0.128006
0.128096
0.128013
0.128096
0.128016
0.128091
0.128018
0.128086
0.128021
0.128081
0.128028
0.128081
0.12803
0.128077
0.128032
0.128072
0.128033
0.128073
0.128039
0.128069
0.12804
0.128066
0.128041
0.128062
0.128046
0.128063
0.128046
0.128061
0.128046
0.128058
0.128046
0.128059
0.12805
0.128057
0.12805
0.128055
0.128049
0.128057
0.128052
0.128055
0.128051
0.128053
0.128054
0.128056
0.128053
0.128054
0.128051
0.128052
0.128054
0.128055
0.128053
0.128053
0.128051
0.128056
0.128052
0.128055
0.128049
0.128049
0.128057
0.128048
0.128053
0.128057
0.128047
0.128062
0.128043
0.128064
0.12805
0.128044
0.128058
0.128057
0.128048
0.128068
0.128055
0.128104
0.127927
0.128285
0.127403
0.129366
0.126123
0.129472
0.127708
0.126579
0.134006
0.114698
0.117306
0.117306
0.117306
)
;

boundaryField
{
    inlet
    {
        type            calculated;
        value           uniform 0;
    }
    outlet
    {
        type            calculated;
        value           uniform 0;
    }
    sideWall
    {
        type            empty;
    }
}


// ************************************************************************* //
