/*--------------------------------*- C++ -*----------------------------------*\
| =========                 |                                                 |
| \\      /  F ield         | foam-extend: Open Source CFD                    |
|  \\    /   O peration     | Version:     3.2                                |
|   \\  /    A nd           | Web:         http://www.foam-extend.org         |
|    \\/     M anipulation  | For copyright notice see file Copyright         |
\*---------------------------------------------------------------------------*/
FoamFile
{
    version     2.0;
    format      ascii;
    class       areaScalarField;
    location    "2000";
    object      thetaC2SS2;
}
// * * * * * * * * * * * * * * * * * * * * * * * * * * * * * * * * * * * * * //

dimensions      [0 0 0 0 0 0 0];

internalField   nonuniform List<scalar> 
300
(
0.0940613
0.0940613
0.0940613
0.0940613
0.0940613
0.0940613
0.0940613
0.0940613
0.0940613
0.0940613
0.0940613
0.0940613
0.0940613
0.0940613
0.0940613
0.0940613
0.0940613
0.0940613
0.0940613
0.0940613
0.0940613
0.0940613
0.0940613
0.0940613
0.0940613
0.0940613
0.0940613
0.0940613
0.0940613
0.0940613
0.0940613
0.0940613
0.0940613
0.0940613
0.0940613
0.0940613
0.0940613
0.0940613
0.0940613
0.0940613
0.0940613
0.0940613
0.0940613
0.0940613
0.0940613
0.0940613
0.0940613
0.0940613
0.0940613
0.0940613
0.0940613
0.0940613
0.0940613
0.0940613
0.0940613
0.0940613
0.0940613
0.0940613
0.0940613
0.0989444
0.108292
0.10532
0.104085
0.104161
0.103145
0.102599
0.102202
0.102087
0.102075
0.102128
0.102193
0.10226
0.102321
0.102379
0.10243
0.10248
0.102525
0.10256
0.102588
0.102608
0.102622
0.102634
0.102641
0.10265
0.102655
0.102659
0.102666
0.102669
0.102674
0.102674
0.102677
0.102676
0.102678
0.10268
0.102682
0.102679
0.10268
0.102681
0.102681
0.102682
0.102683
0.102683
0.10268
0.102681
0.102681
0.102681
0.102682
0.102682
0.102683
0.102683
0.102683
0.10268
0.10268
0.10268
0.102681
0.102681
0.102681
0.102682
0.102682
0.102682
0.102682
0.102683
0.102683
0.102683
0.10268
0.10268
0.10268
0.10268
0.102681
0.102681
0.102681
0.102681
0.102681
0.102681
0.102682
0.102682
0.102682
0.102682
0.102682
0.102682
0.102682
0.102683
0.102683
0.102679
0.102679
0.102679
0.102679
0.102679
0.102679
0.102679
0.10268
0.10268
0.10268
0.10268
0.10268
0.10268
0.10268
0.10268
0.10268
0.10268
0.10268
0.10268
0.10268
0.102679
0.102679
0.102679
0.102679
0.102679
0.102679
0.102679
0.102679
0.102679
0.102678
0.102682
0.102682
0.102681
0.102681
0.102681
0.102681
0.102681
0.102681
0.10268
0.10268
0.10268
0.10268
0.10268
0.102679
0.102679
0.102679
0.102679
0.102678
0.102678
0.102678
0.102681
0.102681
0.102681
0.10268
0.10268
0.10268
0.102679
0.102679
0.102679
0.102678
0.102678
0.102678
0.102681
0.102681
0.10268
0.10268
0.102679
0.102679
0.102679
0.102678
0.102678
0.102678
0.102681
0.10268
0.10268
0.102679
0.102679
0.102678
0.102678
0.102678
0.102681
0.10268
0.10268
0.102679
0.102679
0.102678
0.102678
0.102681
0.10268
0.10268
0.102679
0.102679
0.102678
0.102678
0.102681
0.10268
0.102679
0.102679
0.102678
0.102678
0.102677
0.10268
0.10268
0.102679
0.102678
0.102678
0.102677
0.10268
0.102679
0.102679
0.102678
0.102678
0.10268
0.10268
0.102679
0.102678
0.102678
0.102677
0.10268
0.102679
0.102679
0.102678
0.102677
0.10268
0.102678
0.10268
0.102676
0.102675
0.102682
0.102674
0.102679
0.102681
0.102675
0.102685
0.102672
0.102685
0.102677
0.102671
0.102682
0.102681
0.102673
0.102694
0.102668
0.102727
0.102584
0.102855
0.102181
0.103647
0.101358
0.103509
0.102628
0.10138
0.107697
0.096046
0.0940613
0.0940613
0.0940613
)
;

boundaryField
{
    inlet
    {
        type            calculated;
        value           uniform 0;
    }
    outlet
    {
        type            calculated;
        value           uniform 0;
    }
    sideWall
    {
        type            empty;
    }
}


// ************************************************************************* //
