/*--------------------------------*- C++ -*----------------------------------*\
| =========                 |                                                 |
| \\      /  F ield         | foam-extend: Open Source CFD                    |
|  \\    /   O peration     | Version:     3.2                                |
|   \\  /    A nd           | Web:         http://www.foam-extend.org         |
|    \\/     M anipulation  | For copyright notice see file Copyright         |
\*---------------------------------------------------------------------------*/
FoamFile
{
    version     2.0;
    format      ascii;
    class       areaScalarField;
    location    "2000";
    object      thetaBinit;
}
// * * * * * * * * * * * * * * * * * * * * * * * * * * * * * * * * * * * * * //

dimensions      [0 0 0 0 0 0 0];

internalField   nonuniform List<scalar> 
300
(
0.14153
0.173588
0.147418
0.123605
0.110902
0.105237
0.103229
0.102969
0.10333
0.104047
0.104928
0.105801
0.106663
0.107556
0.108422
0.109299
0.110219
0.111146
0.112088
0.11304
0.113993
0.114949
0.115934
0.116947
0.11793
0.118835
0.119652
0.120372
0.120997
0.121531
0.12199
0.122381
0.122708
0.122976
0.123191
0.123367
0.123515
0.123638
0.123742
0.123831
0.123906
0.12397
0.124025
0.124071
0.124111
0.124145
0.124173
0.124198
0.124219
0.124237
0.124252
0.124265
0.124276
0.124286
0.124294
0.124301
0.124307
0.124312
0.124317
0.12432
0.124324
0.124326
0.124329
0.124331
0.124333
0.124334
0.124336
0.124337
0.124337
0.124339
0.124339
0.12434
0.12434
0.124341
0.124341
0.124341
0.124342
0.124342
0.124342
0.124342
0.124342
0.124342
0.124343
0.124343
0.124343
0.124343
0.124343
0.124343
0.124343
0.124343
0.124343
0.124343
0.124343
0.124343
0.124343
0.124343
0.124343
0.124343
0.124343
0.124343
0.124343
0.124343
0.124343
0.124343
0.124343
0.124343
0.124343
0.124343
0.124343
0.124343
0.124343
0.124343
0.124343
0.124343
0.124343
0.124343
0.124343
0.124343
0.124343
0.124343
0.124343
0.124343
0.124343
0.124343
0.124343
0.124343
0.124343
0.124343
0.124343
0.124343
0.124343
0.124343
0.124343
0.124343
0.124343
0.124343
0.124343
0.124343
0.124343
0.124343
0.124343
0.124343
0.124343
0.124343
0.124343
0.124343
0.124343
0.124343
0.124343
0.124343
0.124343
0.124343
0.124343
0.124343
0.124343
0.124343
0.124343
0.124343
0.124343
0.124343
0.124343
0.124343
0.124343
0.124343
0.124343
0.124343
0.124343
0.124343
0.124343
0.124343
0.124343
0.124343
0.124343
0.124343
0.124343
0.124343
0.124343
0.124343
0.124343
0.124343
0.124343
0.124343
0.124343
0.124343
0.124343
0.124343
0.124343
0.124343
0.124343
0.124343
0.124343
0.124343
0.124343
0.124343
0.124343
0.124343
0.124343
0.124343
0.124343
0.124343
0.124343
0.124343
0.124343
0.124343
0.124343
0.124343
0.124343
0.124343
0.124343
0.124343
0.124343
0.124343
0.124343
0.124343
0.124343
0.124343
0.124343
0.124343
0.124343
0.124343
0.124343
0.124343
0.124343
0.124343
0.124343
0.124343
0.124343
0.124343
0.124343
0.124343
0.124343
0.124343
0.124343
0.124343
0.124343
0.124343
0.124343
0.124343
0.124343
0.124343
0.124343
0.124343
0.124343
0.124343
0.124343
0.124343
0.124343
0.124343
0.124343
0.124343
0.124343
0.124343
0.124343
0.124343
0.124343
0.124343
0.124343
0.124343
0.124343
0.124343
0.124343
0.124343
0.124343
0.124343
0.124343
0.124343
0.124343
0.124343
0.124343
0.124343
0.124343
0.124343
0.124343
0.124343
0.124343
0.124343
0.124343
0.124343
0.124343
0.124343
0.124343
0.124343
0.124343
0.124343
0.124343
0.124343
0.124343
0.124343
0.124343
0.124343
0.124343
0.124343
0.124343
0.124343
0.124343
0.124343
0.124343
0.124344
0.124353
0.124342
)
;

boundaryField
{
    inlet
    {
        type            calculated;
        value           uniform 0;
    }
    outlet
    {
        type            calculated;
        value           uniform 0;
    }
    sideWall
    {
        type            empty;
    }
}


// ************************************************************************* //
