/*--------------------------------*- C++ -*----------------------------------*\
| =========                 |                                                 |
| \\      /  F ield         | foam-extend: Open Source CFD                    |
|  \\    /   O peration     | Version:     3.2                                |
|   \\  /    A nd           | Web:         http://www.foam-extend.org         |
|    \\/     M anipulation  | For copyright notice see file Copyright         |
\*---------------------------------------------------------------------------*/
FoamFile
{
    version     2.0;
    format      ascii;
    class       areaScalarField;
    location    "2000";
    object      thetaC2SS1;
}
// * * * * * * * * * * * * * * * * * * * * * * * * * * * * * * * * * * * * * //

dimensions      [0 0 0 0 0 0 0];

internalField   nonuniform List<scalar> 
300
(
0.118217
0.118217
0.118217
0.118217
0.118217
0.118217
0.118217
0.118217
0.118217
0.118217
0.118217
0.118217
0.118217
0.118217
0.118217
0.118217
0.118217
0.118217
0.118217
0.118217
0.118217
0.118217
0.118217
0.118217
0.118217
0.118217
0.118217
0.118217
0.118217
0.118217
0.118217
0.118217
0.118217
0.118217
0.118217
0.118217
0.118217
0.118217
0.118217
0.118217
0.118217
0.118217
0.118217
0.118217
0.118217
0.118217
0.118217
0.118217
0.118217
0.118217
0.118217
0.118217
0.118217
0.118217
0.118217
0.118217
0.118217
0.118217
0.118217
0.124354
0.136102
0.132368
0.130815
0.130911
0.129633
0.128948
0.128449
0.128304
0.128289
0.128356
0.128438
0.128521
0.128598
0.128672
0.128736
0.128798
0.128854
0.128899
0.128933
0.128959
0.128977
0.128991
0.129
0.129011
0.129017
0.129023
0.129032
0.129035
0.129042
0.129042
0.129046
0.129045
0.129047
0.12905
0.129051
0.129048
0.129049
0.12905
0.129051
0.129052
0.129053
0.129054
0.129049
0.12905
0.129051
0.129051
0.129052
0.129052
0.129053
0.129053
0.129054
0.129049
0.129049
0.12905
0.12905
0.129051
0.129051
0.129051
0.129052
0.129052
0.129052
0.129053
0.129053
0.129053
0.129049
0.129049
0.12905
0.12905
0.12905
0.12905
0.129051
0.129051
0.129051
0.129051
0.129051
0.129052
0.129052
0.129052
0.129052
0.129052
0.129052
0.129053
0.129053
0.129048
0.129048
0.129048
0.129048
0.129049
0.129049
0.129049
0.129049
0.129049
0.129049
0.129049
0.129049
0.129049
0.129049
0.129049
0.129049
0.129049
0.129049
0.129049
0.129049
0.129049
0.129048
0.129048
0.129048
0.129048
0.129048
0.129048
0.129048
0.129048
0.129047
0.129052
0.129051
0.129051
0.129051
0.129051
0.129051
0.12905
0.12905
0.12905
0.12905
0.129049
0.129049
0.129049
0.129049
0.129048
0.129048
0.129048
0.129047
0.129047
0.129047
0.129051
0.12905
0.12905
0.12905
0.129049
0.129049
0.129049
0.129048
0.129048
0.129047
0.129047
0.129047
0.12905
0.12905
0.12905
0.129049
0.129049
0.129048
0.129048
0.129047
0.129047
0.129046
0.12905
0.12905
0.129049
0.129049
0.129048
0.129047
0.129047
0.129046
0.12905
0.12905
0.129049
0.129048
0.129048
0.129047
0.129047
0.12905
0.12905
0.129049
0.129048
0.129048
0.129047
0.129046
0.12905
0.129049
0.129049
0.129048
0.129047
0.129047
0.129046
0.12905
0.129049
0.129048
0.129047
0.129047
0.129046
0.129049
0.129049
0.129048
0.129047
0.129046
0.12905
0.129049
0.129048
0.129047
0.129047
0.129046
0.129049
0.129048
0.129048
0.129047
0.129046
0.12905
0.129047
0.129049
0.129044
0.129043
0.129052
0.129041
0.129048
0.129051
0.129042
0.129055
0.129039
0.129056
0.129046
0.129038
0.129052
0.129051
0.129041
0.129067
0.129035
0.129108
0.128929
0.129269
0.128422
0.130265
0.127388
0.130092
0.128984
0.127415
0.135355
0.120712
0.118217
0.118217
0.118217
)
;

boundaryField
{
    inlet
    {
        type            calculated;
        value           uniform 0;
    }
    outlet
    {
        type            calculated;
        value           uniform 0;
    }
    sideWall
    {
        type            empty;
    }
}


// ************************************************************************* //
