/*--------------------------------*- C++ -*----------------------------------*\
| =========                 |                                                 |
| \\      /  F ield         | foam-extend: Open Source CFD                    |
|  \\    /   O peration     | Version:     3.2                                |
|   \\  /    A nd           | Web:         http://www.foam-extend.org         |
|    \\/     M anipulation  | For copyright notice see file Copyright         |
\*---------------------------------------------------------------------------*/
FoamFile
{
    version     2.0;
    format      ascii;
    class       areaScalarField;
    location    "2000";
    object      thetaSS2init;
}
// * * * * * * * * * * * * * * * * * * * * * * * * * * * * * * * * * * * * * //

dimensions      [0 0 0 0 0 0 0];

internalField   nonuniform List<scalar> 
300
(
1.88707
2.3145
1.96557
1.64806
1.47869
1.40316
1.37639
1.37292
1.37773
1.3873
1.39905
1.41068
1.42217
1.43408
1.44563
1.45732
1.46959
1.48195
1.49451
1.5072
1.51991
1.53265
1.54578
1.5593
1.5724
1.58447
1.59536
1.60496
1.61329
1.62042
1.62653
1.63175
1.63611
1.63968
1.64254
1.6449
1.64686
1.64851
1.6499
1.65108
1.65208
1.65293
1.65366
1.65428
1.65481
1.65526
1.65565
1.65597
1.65625
1.65649
1.6567
1.65687
1.65702
1.65715
1.65726
1.65735
1.65743
1.6575
1.65756
1.65761
1.65765
1.65769
1.65772
1.65775
1.65777
1.65779
1.65781
1.65782
1.65783
1.65785
1.65786
1.65786
1.65787
1.65788
1.65788
1.65788
1.65789
1.65789
1.65789
1.6579
1.6579
1.6579
1.6579
1.6579
1.6579
1.6579
1.6579
1.6579
1.6579
1.65791
1.65791
1.65791
1.65791
1.65791
1.65791
1.65791
1.65791
1.65791
1.65791
1.65791
1.65791
1.65791
1.65791
1.65791
1.65791
1.65791
1.65791
1.65791
1.65791
1.65791
1.65791
1.65791
1.65791
1.65791
1.65791
1.65791
1.65791
1.65791
1.65791
1.65791
1.65791
1.65791
1.65791
1.65791
1.65791
1.65791
1.65791
1.65791
1.65791
1.65791
1.65791
1.65791
1.65791
1.65791
1.65791
1.65791
1.65791
1.65791
1.65791
1.65791
1.65791
1.65791
1.65791
1.65791
1.65791
1.65791
1.65791
1.65791
1.65791
1.65791
1.65791
1.65791
1.65791
1.65791
1.65791
1.65791
1.65791
1.65791
1.65791
1.65791
1.65791
1.65791
1.65791
1.65791
1.65791
1.65791
1.65791
1.65791
1.65791
1.65791
1.65791
1.65791
1.65791
1.65791
1.65791
1.65791
1.65791
1.65791
1.65791
1.65791
1.65791
1.65791
1.65791
1.65791
1.65791
1.65791
1.65791
1.65791
1.65791
1.65791
1.65791
1.65791
1.65791
1.65791
1.65791
1.65791
1.65791
1.65791
1.65791
1.65791
1.65791
1.65791
1.65791
1.65791
1.65791
1.65791
1.65791
1.65791
1.65791
1.65791
1.65791
1.65791
1.65791
1.65791
1.65791
1.65791
1.65791
1.65791
1.65791
1.65791
1.65791
1.65791
1.65791
1.65791
1.65791
1.65791
1.65791
1.65791
1.65791
1.65791
1.65791
1.65791
1.65791
1.65791
1.65791
1.65791
1.65791
1.65791
1.65791
1.65791
1.65791
1.65791
1.65791
1.65791
1.65791
1.65791
1.65791
1.65791
1.65791
1.65791
1.65791
1.65791
1.65791
1.65791
1.65791
1.65791
1.65791
1.65791
1.65791
1.65791
1.65791
1.65791
1.65791
1.65791
1.65791
1.65791
1.65791
1.65791
1.65791
1.65791
1.65791
1.65791
1.65791
1.65791
1.65791
1.65791
1.65791
1.65791
1.65791
1.65791
1.65791
1.65791
1.65791
1.65791
1.65791
1.65791
1.65791
1.65791
1.65791
1.65791
1.65791
1.65791
1.65791
1.65791
1.65791
1.65791
1.65791
1.65791
1.65804
1.65789
)
;

boundaryField
{
    inlet
    {
        type            calculated;
        value           uniform 0;
    }
    outlet
    {
        type            calculated;
        value           uniform 0;
    }
    sideWall
    {
        type            empty;
    }
}


// ************************************************************************* //
