/*--------------------------------*- C++ -*----------------------------------*\
| =========                 |                                                 |
| \\      /  F ield         | foam-extend: Open Source CFD                    |
|  \\    /   O peration     | Version:     3.2                                |
|   \\  /    A nd           | Web:         http://www.foam-extend.org         |
|    \\/     M anipulation  | For copyright notice see file Copyright         |
\*---------------------------------------------------------------------------*/
FoamFile
{
    version     2.0;
    format      ascii;
    class       areaScalarField;
    location    "2000";
    object      thetaC2B;
}
// * * * * * * * * * * * * * * * * * * * * * * * * * * * * * * * * * * * * * //

dimensions      [0 0 0 0 0 0 0];

internalField   nonuniform List<scalar> 
300
(
0.0301212
0.0301212
0.0301212
0.0301212
0.0301212
0.0301212
0.0301212
0.0301212
0.0301212
0.0301212
0.0301212
0.0301212
0.0301212
0.0301212
0.0301212
0.0301212
0.0301212
0.0301212
0.0301212
0.0301212
0.0301212
0.0301212
0.0301212
0.0301212
0.0301212
0.0301212
0.0301212
0.0301212
0.0301212
0.0301212
0.0301212
0.0301212
0.0301212
0.0301212
0.0301212
0.0301212
0.0301212
0.0301212
0.0301212
0.0301212
0.0301212
0.0301212
0.0301212
0.0301212
0.0301212
0.0301212
0.0301212
0.0301212
0.0301212
0.0301212
0.0301212
0.0301212
0.0301212
0.0301212
0.0301212
0.0301212
0.0301212
0.0301212
0.0301212
0.0301212
0.0301212
0.0301212
0.0301212
0.0301212
0.0301212
0.0301212
0.0301212
0.0301212
0.0301289
0.0301212
0.0301212
0.0301212
0.0301212
0.0301212
0.0301212
0.0301212
0.0301212
0.0301212
0.0301212
0.0301212
0.0301212
0.0301212
0.0301212
0.0301212
0.0301212
0.0301212
0.0301212
0.0301212
0.0301212
0.0301212
0.0301212
0.0301212
0.0301212
0.0301212
0.0301212
0.0301212
0.0301212
0.0301212
0.0301212
0.0301212
0.0301212
0.0301215
0.0301213
0.0301213
0.0301212
0.0301212
0.0301213
0.0301212
0.0301213
0.0301212
0.0301212
0.0301212
0.0301213
0.0301214
0.0301213
0.0301212
0.0301212
0.0301212
0.0301213
0.0301214
0.0301212
0.0301212
0.0301212
0.0301212
0.0301217
0.0301213
0.0301214
0.0301212
0.0301212
0.0301212
0.0301212
0.0301212
0.0301212
0.0301212
0.0301212
0.0301212
0.0301212
0.0301232
0.0301212
0.0301212
0.0301243
0.030123
0.0301212
0.0301212
0.0301224
0.0301215
0.0301212
0.0301212
0.0301212
0.0301212
0.0301212
0.0301212
0.0301212
0.0301212
0.0301212
0.0301212
0.0301212
0.0301212
0.0301212
0.0301212
0.0301212
0.0301212
0.0301212
0.0301212
0.0301212
0.0301212
0.0301212
0.0301212
0.0301212
0.0301212
0.0301212
0.0301212
0.0301212
0.0301212
0.0301212
0.0301212
0.0301212
0.0301212
0.0301212
0.0301212
0.0301212
0.0301212
0.0301212
0.0301212
0.0301212
0.0301212
0.0301212
0.0301212
0.0301212
0.0301212
0.0301212
0.0301212
0.0301212
0.0301212
0.0301212
0.0301212
0.0301212
0.0301212
0.0301212
0.0301212
0.0301228
0.0301215
0.0301212
0.0301212
0.0301212
0.0301212
0.0301439
0.0301399
0.0301567
0.0301527
0.0301212
0.0301212
0.0301212
0.0301212
0.0302139
0.0302155
0.0302384
0.0302419
0.0301212
0.0301212
0.0301212
0.0301212
0.0303306
0.0303455
0.030365
0.0303814
0.0301212
0.0301212
0.0301212
0.0301212
0.0304809
0.0305133
0.03052
0.0305529
0.0301212
0.0301212
0.0301212
0.0301212
0.0306486
0.0306981
0.0306896
0.0307376
0.0301212
0.0301212
0.0301212
0.0301212
0.0308191
0.0308835
0.0308568
0.0309186
0.0301212
0.0301212
0.0301212
0.0301212
0.0309772
0.0310566
0.0310097
0.0310852
0.0301212
0.0301212
0.0301212
0.0301212
0.0311178
0.0312205
0.0311474
0.0312472
0.0301212
0.0301212
0.0301212
0.0301212
0.0312492
0.0313882
0.0312759
0.0314165
0.0301212
0.0301212
0.0301212
0.0301212
0.0313815
0.0315729
0.0314157
0.0316065
0.0301212
0.0301212
0.0301212
0.0301212
0.0312883
0.03203
0.0312915
0.0318803
0.0318324
0.0318832
0.0313196
0.0316807
0.0301212
0.0301212
0.0301212
0.0301212
0.0301212
0.0301212
)
;

boundaryField
{
    inlet
    {
        type            calculated;
        value           uniform 0;
    }
    outlet
    {
        type            calculated;
        value           uniform 0;
    }
    sideWall
    {
        type            empty;
    }
}


// ************************************************************************* //
