/*--------------------------------*- C++ -*----------------------------------*\
| =========                 |                                                 |
| \\      /  F ield         | foam-extend: Open Source CFD                    |
|  \\    /   O peration     | Version:     3.2                                |
|   \\  /    A nd           | Web:         http://www.foam-extend.org         |
|    \\/     M anipulation  | For copyright notice see file Copyright         |
\*---------------------------------------------------------------------------*/
FoamFile
{
    version     2.0;
    format      ascii;
    class       areaScalarField;
    location    "2000";
    object      thetaHMaxSS1;
}
// * * * * * * * * * * * * * * * * * * * * * * * * * * * * * * * * * * * * * //

dimensions      [0 0 0 0 0 0 0];

internalField   nonuniform List<scalar> 
300
(
0
0
0
0
0
0
0
0
0
0
0
0
0
0
0
0
0
0
0
0
0
0
0
0
0
0
0
0
0
0
0
0
0
0
0
0
0
0
0
0
0
0
0
0
0
0
0
0
0
0
0
0
0
0
0
0
0
0
0
0
7.52147
7.31525
7.22956
7.23499
7.16449
7.1267
7.09919
7.09128
7.09047
7.09425
7.09879
7.10344
7.10768
7.11181
7.11537
7.11882
7.12195
7.12444
7.12635
7.12776
7.12875
7.12955
7.13006
7.1307
7.13103
7.13132
7.13184
7.13201
7.13239
7.13242
7.13264
7.13256
7.13271
7.13283
7.13294
7.13274
7.13281
7.13286
7.13292
7.13296
7.13301
7.13305
7.13282
7.13286
7.13289
7.13292
7.13295
7.13297
7.133
7.13303
7.13305
7.13281
7.13283
7.13285
7.13287
7.13289
7.13291
7.13294
7.13296
7.13297
7.13299
7.13301
7.13302
7.13304
7.1328
7.13282
7.13283
7.13285
7.13286
7.13287
7.13289
7.1329
7.13291
7.13292
7.13293
7.13295
7.13296
7.13297
7.13297
7.13298
7.13299
7.133
7.133
7.13276
7.13276
7.13277
7.13277
7.13278
7.13278
7.13278
7.13279
7.13279
7.13279
7.13279
7.13279
7.1328
7.1328
7.13279
7.13279
7.13279
7.13279
7.13279
7.13279
7.13278
7.13277
7.13277
7.13276
7.13275
7.13275
7.13274
7.13273
7.13272
7.13271
7.13295
7.13294
7.13292
7.13291
7.1329
7.13289
7.13288
7.13286
7.13285
7.13283
7.13282
7.1328
7.13279
7.13278
7.13276
7.13274
7.13272
7.13271
7.13269
7.13268
7.1329
7.13288
7.13286
7.13284
7.13282
7.1328
7.13278
7.13276
7.13274
7.13271
7.13269
7.13266
7.13288
7.13286
7.13284
7.13281
7.13279
7.13276
7.13273
7.1327
7.13268
7.13265
7.13287
7.13284
7.13281
7.13278
7.13275
7.13272
7.13268
7.13266
7.13286
7.13283
7.1328
7.13277
7.13274
7.1327
7.13267
7.13287
7.13284
7.13281
7.13277
7.13273
7.13269
7.13266
7.13286
7.13282
7.13279
7.13275
7.13271
7.13267
7.13263
7.13283
7.13279
7.13275
7.13271
7.13267
7.13263
7.13282
7.13278
7.13273
7.13269
7.13265
7.13284
7.1328
7.13275
7.13271
7.13266
7.13262
7.13281
7.13277
7.13272
7.13267
7.13262
7.13283
7.13271
7.13282
7.13255
7.13247
7.13294
7.13238
7.13273
7.1329
7.13244
7.13314
7.13224
7.1332
7.13262
7.13217
7.13295
7.13292
7.13237
7.13377
7.13202
7.13609
7.12618
7.14495
7.09814
7.2
7.04098
7.19043
7.12919
7.04249
7.48136
0
0
0
0
)
;

boundaryField
{
    inlet
    {
        type            calculated;
        value           uniform 0;
    }
    outlet
    {
        type            calculated;
        value           uniform 0;
    }
    sideWall
    {
        type            empty;
    }
}


// ************************************************************************* //
