/*--------------------------------*- C++ -*----------------------------------*\
| =========                 |                                                 |
| \\      /  F ield         | foam-extend: Open Source CFD                    |
|  \\    /   O peration     | Version:     3.2                                |
|   \\  /    A nd           | Web:         http://www.foam-extend.org         |
|    \\/     M anipulation  | For copyright notice see file Copyright         |
\*---------------------------------------------------------------------------*/
FoamFile
{
    version     2.0;
    format      ascii;
    class       areaScalarField;
    location    "2000";
    object      thetaCB;
}
// * * * * * * * * * * * * * * * * * * * * * * * * * * * * * * * * * * * * * //

dimensions      [0 0 0 0 0 0 0];

internalField   nonuniform List<scalar> 
300
(
0.0298892
0.0298892
0.0298892
0.0298892
0.0298892
0.0298892
0.0298892
0.0298892
0.0298892
0.0298892
0.0298892
0.0298892
0.0298892
0.0298892
0.0298892
0.0298892
0.0298892
0.0298892
0.0298892
0.0298892
0.0298892
0.0298892
0.0298892
0.0298892
0.0298892
0.0298892
0.0298892
0.0298892
0.0298892
0.0298892
0.0298892
0.0298892
0.0298892
0.0298892
0.0298892
0.0298892
0.0298892
0.0298892
0.0298892
0.0298892
0.0298892
0.0298892
0.0298892
0.0298892
0.0298892
0.0298892
0.0298892
0.0298892
0.0298892
0.0298892
0.0298892
0.0298892
0.0298892
0.0298892
0.0298892
0.0298892
0.0298892
0.0298892
0.0298892
0.0310977
0.0306197
0.02944
0.0299316
0.0298892
0.0298703
0.0298551
0.0298551
0.0298615
0.0298738
0.0298708
0.0298729
0.0298759
0.0298779
0.0298802
0.0298817
0.0298835
0.0298847
0.0298859
0.0298867
0.0298873
0.0298877
0.0298882
0.0298884
0.0298887
0.0298888
0.029889
0.0298892
0.0298892
0.0298893
0.0298893
0.0298894
0.0298893
0.0298894
0.0298893
0.0298894
0.0298892
0.0298893
0.0298893
0.0298893
0.0298893
0.0298893
0.0298895
0.0298892
0.0298893
0.0298892
0.0298892
0.0298893
0.0298892
0.0298893
0.0298892
0.0298892
0.0298891
0.0298892
0.0298892
0.0298892
0.0298891
0.0298892
0.0298892
0.0298892
0.0298893
0.0298892
0.0298892
0.0298892
0.0298892
0.0298895
0.0298892
0.0298893
0.0298892
0.0298891
0.0298892
0.0298891
0.0298892
0.0298891
0.0298893
0.0298891
0.0298893
0.0298891
0.0298912
0.0298892
0.029889
0.0298924
0.0298906
0.0298896
0.0298886
0.0298908
0.0298887
0.02989
0.0298881
0.0298904
0.0298878
0.0298908
0.0298874
0.0298912
0.0298869
0.0298918
0.0298863
0.0298925
0.0298856
0.0298932
0.0298849
0.029894
0.029884
0.029895
0.0298831
0.0298959
0.0298821
0.029897
0.0298811
0.0298981
0.02988
0.0298991
0.0298789
0.0299002
0.0298779
0.0299013
0.0298769
0.0299023
0.0298759
0.0299032
0.029875
0.029904
0.0298743
0.0299047
0.0298736
0.0299052
0.0298731
0.0299057
0.0298727
0.029906
0.0298724
0.0299062
0.0298723
0.0299062
0.0298723
0.0299062
0.0298724
0.0299059
0.0298726
0.0299056
0.029873
0.0299066
0.0298738
0.0299045
0.0298741
0.0299038
0.0298749
0.0299255
0.0298942
0.0299374
0.0299077
0.0299014
0.0298773
0.0299005
0.0298782
0.0299915
0.0299727
0.0300149
0.0299997
0.0298977
0.0298809
0.0298968
0.0298817
0.0301038
0.0301051
0.0301371
0.0301415
0.0298944
0.0298841
0.0298937
0.0298847
0.03025
0.0302743
0.0302883
0.0303142
0.029892
0.0298864
0.0298915
0.0298869
0.0304144
0.0304596
0.0304547
0.0304992
0.0298904
0.0298879
0.0298902
0.0298881
0.0305824
0.0306447
0.0306197
0.0306798
0.0298896
0.0298887
0.0298895
0.0298887
0.0307388
0.0308171
0.030771
0.0308455
0.0298893
0.0298889
0.0298892
0.029889
0.0308782
0.0309798
0.0309075
0.0310063
0.0298893
0.029889
0.0298893
0.0298889
0.0310086
0.0311463
0.031035
0.0311745
0.0298893
0.029889
0.0298894
0.0298888
0.0311402
0.0313294
0.0311737
0.0313632
0.0298891
0.0298895
0.0298882
0.0298925
0.0310449
0.0317809
0.0310533
0.0316272
0.0316128
0.0315667
0.0311705
0.0313673
0.0299236
0.029821
0.0286207
0.0298892
0.0298892
0.0298892
)
;

boundaryField
{
    inlet
    {
        type            calculated;
        value           uniform 0;
    }
    outlet
    {
        type            calculated;
        value           uniform 0;
    }
    sideWall
    {
        type            empty;
    }
}


// ************************************************************************* //
