/*--------------------------------*- C++ -*----------------------------------*\
| =========                 |                                                 |
| \\      /  F ield         | foam-extend: Open Source CFD                    |
|  \\    /   O peration     | Version:     3.2                                |
|   \\  /    A nd           | Web:         http://www.foam-extend.org         |
|    \\/     M anipulation  | For copyright notice see file Copyright         |
\*---------------------------------------------------------------------------*/
FoamFile
{
    version     2.0;
    format      ascii;
    class       areaScalarField;
    location    "2000";
    object      totH;
}
// * * * * * * * * * * * * * * * * * * * * * * * * * * * * * * * * * * * * * //

dimensions      [0 0 0 0 0 0 0];

internalField   nonuniform List<scalar> 
300
(
0
0
0
0
0
0
0
0
0
0
0
0
0
0
0
0
0
0
0
0
0
0
0
0
0
0
0
0
0
0
0
0
0
0
0
0
0
0
0
0
0
0
0
0
0
0
0
0
0
0
0
0
0
0
0
0
0
0
0
0.000655576
0.00170602
0.00186009
0.00164211
0.00166497
0.00165486
0.00162639
0.00158978
0.00155664
0.00152942
0.00150717
0.00148855
0.00147268
0.00145945
0.00144852
0.00143969
0.00143265
0.00142722
0.00142308
0.00141996
0.00141761
0.00141585
0.00141455
0.00141359
0.00141293
0.0014125
0.00141224
0.00141215
0.00141219
0.00141232
0.00141249
0.00141268
0.00141288
0.00141307
0.00141328
0.00141349
0.00141365
0.00141378
0.00141391
0.00141402
0.00141414
0.00141425
0.00141436
0.00141441
0.00141443
0.00141445
0.00141448
0.0014145
0.00141453
0.00141456
0.00141459
0.00141462
0.00141461
0.00141457
0.00141455
0.00141453
0.00141452
0.00141452
0.00141452
0.00141453
0.00141455
0.00141456
0.00141458
0.0014146
0.00141462
0.00141459
0.00141456
0.00141452
0.0014145
0.00141449
0.00141448
0.00141447
0.00141448
0.00141448
0.0014145
0.0014145
0.00141453
0.00141455
0.00141454
0.00141462
0.00141458
0.00141463
0.0014146
0.00141466
0.00141457
0.00141458
0.00141449
0.00141455
0.00141446
0.00141455
0.00141447
0.0014146
0.0014145
0.00141467
0.00141457
0.00141477
0.00141465
0.00141489
0.00141477
0.00141504
0.00141491
0.00141522
0.00141508
0.00141543
0.00141528
0.00141566
0.0014155
0.0014159
0.00141575
0.00141617
0.00141602
0.00141646
0.00141632
0.00141676
0.00141668
0.00141718
0.00141712
0.00141759
0.00141753
0.00141796
0.00141792
0.00141831
0.00141829
0.00141863
0.00141863
0.00141892
0.00141893
0.00141918
0.00141921
0.00141941
0.00141946
0.0014196
0.00141967
0.00141976
0.00141989
0.00141998
0.00142012
0.00142014
0.00142028
0.00142023
0.00142038
0.00142026
0.00142042
0.00142025
0.00142042
0.00142022
0.00142044
0.00142027
0.00142049
0.00142027
0.00142049
0.00142023
0.00142043
0.00142014
0.00142032
0.00142001
0.00142022
0.00141996
0.00142016
0.00141988
0.00142005
0.00141973
0.00141986
0.00141954
0.00141969
0.00141943
0.00141958
0.00141931
0.00141941
0.00141911
0.00141916
0.00141891
0.001419
0.00141878
0.00141886
0.00141863
0.00141866
0.0014184
0.00141841
0.00141822
0.00141823
0.00141806
0.00141808
0.0014179
0.00141787
0.00141771
0.00141768
0.00141753
0.0014175
0.00141738
0.00141738
0.00141731
0.00141731
0.0014172
0.00141712
0.00141701
0.001417
0.00141699
0.00141702
0.00141701
0.00141697
0.00141689
0.00141683
0.00141679
0.00141677
0.00141677
0.0014168
0.00141684
0.00141685
0.00141683
0.00141675
0.00141666
0.00141669
0.00141672
0.00141676
0.00141687
0.00141687
0.00141692
0.00141685
0.0014169
0.00141704
0.00141696
0.00141711
0.00141718
0.00141733
0.00141698
0.00141824
0.0014188
0.00141642
0.00141672
0.00141441
0.00142367
0.00140076
0.00141254
0.00142486
0.00140797
0.00138984
0.000676593
0
0
0
)
;

boundaryField
{
    inlet
    {
        type            calculated;
        value           uniform 0;
    }
    outlet
    {
        type            calculated;
        value           uniform 0;
    }
    sideWall
    {
        type            empty;
    }
}


// ************************************************************************* //
