/*--------------------------------*- C++ -*----------------------------------*\
| =========                 |                                                 |
| \\      /  F ield         | foam-extend: Open Source CFD                    |
|  \\    /   O peration     | Version:     3.2                                |
|   \\  /    A nd           | Web:         http://www.foam-extend.org         |
|    \\/     M anipulation  | For copyright notice see file Copyright         |
\*---------------------------------------------------------------------------*/
FoamFile
{
    version     2.0;
    format      ascii;
    class       volVectorField;
    location    "2000";
    object      U;
}
// * * * * * * * * * * * * * * * * * * * * * * * * * * * * * * * * * * * * * //

dimensions      [0 1 -1 0 0 0 0];

internalField   nonuniform List<vector> 
2400
(
(0.24928 0 0.00356232)
(0.205995 0 0.00155571)
(0.169046 0 0.000162822)
(0.153279 0 -0.000492853)
(0.145729 -1.28461e-26 -0.000674202)
(0.143381 -1.34723e-42 -0.000738417)
(0.142363 -7.97893e-27 -0.000758655)
(0.142479 2.26856e-43 -0.000758784)
(0.142772 5.90032e-27 -0.000758538)
(0.143326 1.6063e-42 -0.000758387)
(0.143938 2.85089e-27 -0.000756337)
(0.144525 1.90213e-27 -0.000753418)
(0.145072 0 -0.00075478)
(0.145682 8.46462e-28 -0.000756219)
(0.146214 1.09378e-27 -0.000756712)
(0.146774 -7.13159e-29 -0.000760716)
(0.147384 -2.75612e-28 -0.000762835)
(0.147968 5.80131e-28 -0.000764929)
(0.148569 -8.24172e-28 -0.000767494)
(0.149167 0 -0.00076991)
(0.149762 0 -0.000772492)
(0.150365 1.22684e-27 -0.000776776)
(0.151015 1.31261e-27 -0.000782083)
(0.151709 0 -0.000785896)
(0.152377 0 -0.000787147)
(0.152984 1.28922e-27 -0.000787737)
(0.153533 0 -0.000787744)
(0.154013 0 -0.000787438)
(0.154431 0 -0.000786947)
(0.154787 9.08512e-28 -0.000786499)
(0.155094 0 -0.000786201)
(0.155358 0 -0.000785688)
(0.155575 -6.46616e-28 -0.000785042)
(0.155752 0 -0.000784395)
(0.155891 0 -0.000783978)
(0.156009 0 -0.000783827)
(0.156106 -3.45278e-28 -0.00078368)
(0.156189 0 -0.000783597)
(0.156259 0 -0.000783521)
(0.156319 0 -0.000783491)
(0.156368 -1.90933e-28 -0.000783446)
(0.156413 -2.52165e-43 -0.000783434)
(0.156448 0 -0.000783402)
(0.156482 0 -0.000783397)
(0.156505 -1.03211e-28 -0.000783364)
(0.156532 0 -0.000783386)
(0.156547 -2.53043e-43 -0.000783326)
(0.156568 0 -0.00078341)
(0.156578 0 -0.000783328)
(0.156597 0 -0.00078335)
(0.156595 0 -0.000783326)
(0.15663 -1.00617e-36 -0.000783409)
(0.156582 0 -0.000783032)
(0.156702 -1.60578e-34 -0.000783924)
(0.156469 0 -0.000781961)
(0.156972 0 -0.000785438)
(0.155892 2.68246e-31 -0.000773529)
(0.157985 0 -0.00073203)
(0.150749 0 -0.000886271)
(0.166305 -2.92097e-25 0.0024446)
(0.190208 -4.8065e-26 0.00223278)
(0.174632 0 -0.00178525)
(0.164657 -2.69396e-26 -0.00080074)
(0.168654 -1.21411e-26 -0.000866373)
(0.167194 -3.73465e-27 -0.000889968)
(0.166936 0 -0.000943968)
(0.166462 -6.08652e-31 -0.000948123)
(0.166315 0 -0.000932274)
(0.166292 9.22681e-28 -0.000919269)
(0.166318 -7.00232e-28 -0.000902377)
(0.166355 0 -0.000893439)
(0.166385 -3.15159e-28 -0.000883084)
(0.166427 1.92822e-28 -0.000875509)
(0.166463 -8.3123e-29 -0.000867407)
(0.166505 0 -0.000861509)
(0.16654 1.20765e-28 -0.000855133)
(0.166578 -5.98323e-29 -0.000850562)
(0.16661 -7.80823e-29 -0.000846414)
(0.166639 0 -0.00084341)
(0.166661 -1.51582e-28 -0.000840923)
(0.166679 -6.85467e-29 -0.000839186)
(0.166694 0 -0.000837654)
(0.166705 0 -0.000836699)
(0.166713 5.30033e-29 -0.000835558)
(0.166723 4.22586e-29 -0.000835049)
(0.166726 0 -0.000834422)
(0.166734 3.72485e-29 -0.000833848)
(0.166737 0 -0.000833601)
(0.166742 2.80491e-29 -0.000833187)
(0.166744 -6.93398e-33 -0.000833294)
(0.166748 1.98346e-29 -0.000833011)
(0.166748 0 -0.000833227)
(0.16675 1.40642e-29 -0.000833064)
(0.166751 -1.01906e-29 -0.000833109)
(0.166753 -1.24824e-29 -0.000833042)
(0.166753 1.37313e-30 -0.000833402)
(0.166753 -6.80196e-33 -0.000833292)
(0.166754 9.57903e-31 -0.000833411)
(0.166754 9.2081e-30 -0.000833362)
(0.166755 0 -0.000833427)
(0.166755 -1.26894e-33 -0.000833444)
(0.166756 0 -0.00083342)
(0.166755 5.12894e-33 -0.000833713)
(0.166755 9.17809e-31 -0.000833694)
(0.166755 7.91773e-32 -0.000833702)
(0.166755 -2.14504e-31 -0.000833708)
(0.166756 0 -0.000833685)
(0.166756 8.07367e-34 -0.000833705)
(0.166756 1.48468e-30 -0.000833673)
(0.166756 -1.41931e-33 -0.000833715)
(0.166757 2.2887e-30 -0.000833676)
(0.166756 0 -0.000833924)
(0.166755 2.30011e-30 -0.000833817)
(0.166755 0 -0.000833868)
(0.166755 0 -0.000833801)
(0.166755 -1.22705e-31 -0.000833825)
(0.166756 8.29105e-31 -0.000833762)
(0.166756 0 -0.000833788)
(0.166756 -1.68045e-30 -0.000833725)
(0.166756 0 -0.000833775)
(0.166756 2.04658e-30 -0.000833698)
(0.166757 0 -0.000833756)
(0.166756 0 -0.000833728)
(0.166758 0 -0.000833721)
(0.166756 4.40119e-30 -0.000833928)
(0.166756 1.75642e-30 -0.00083381)
(0.166755 -2.4423e-30 -0.00083395)
(0.166756 2.03149e-30 -0.000833745)
(0.166754 3.24972e-30 -0.000833919)
(0.166757 2.40863e-30 -0.00083368)
(0.166754 1.22281e-32 -0.00083392)
(0.166757 0 -0.000833607)
(0.166754 0 -0.00083394)
(0.166757 2.45987e-30 -0.000833541)
(0.166755 -3.7339e-30 -0.000833992)
(0.166756 0 -0.000833409)
(0.166757 0 -0.000834045)
(0.166754 0 -0.000833516)
(0.166761 0 -0.000833577)
(0.166749 0 -0.000834227)
(0.166767 -1.57943e-29 -0.000833074)
(0.166745 1.62175e-29 -0.000834601)
(0.166771 1.6465e-29 -0.000832689)
(0.16674 -2.52976e-29 -0.00083527)
(0.166773 0 -0.000832227)
(0.166734 6.64371e-29 -0.000835779)
(0.166778 0 -0.000831512)
(0.166727 0 -0.000836448)
(0.166785 -2.70375e-31 -0.00083064)
(0.16672 0 -0.000837297)
(0.166792 -6.84816e-29 -0.00082958)
(0.166712 0 -0.000838341)
(0.166801 0 -0.000828335)
(0.166703 -9.18301e-29 -0.000839601)
(0.166811 -1.06932e-28 -0.000826881)
(0.166692 -6.62031e-31 -0.000841071)
(0.166821 0 -0.000825207)
(0.166681 0 -0.000842758)
(0.166832 0 -0.000823316)
(0.166669 9.94348e-31 -0.000844658)
(0.166844 0 -0.000821215)
(0.166657 0 -0.000846757)
(0.166856 0 -0.000818921)
(0.166644 0 -0.000849041)
(0.166869 0 -0.000816467)
(0.166632 0 -0.000851474)
(0.166881 -2.80046e-28 -0.000813882)
(0.16662 0 -0.000854018)
(0.166892 0 -0.000811212)
(0.166608 0 -0.000856621)
(0.166902 0 -0.000808516)
(0.166598 -3.52368e-28 -0.000859233)
(0.166911 3.81944e-28 -0.000805815)
(0.166589 3.81131e-28 -0.00086162)
(0.166922 0 -0.000803148)
(0.166583 0 -0.000864111)
(0.166928 -4.31461e-28 -0.000800781)
(0.166578 0 -0.000866433)
(0.166932 0 -0.000798648)
(0.166575 0 -0.000868498)
(0.166934 0 -0.000796791)
(0.166573 0 -0.000870376)
(0.166935 0 -0.000795092)
(0.166574 0 -0.000872017)
(0.166933 5.34399e-28 -0.000793668)
(0.166576 0 -0.000873393)
(0.16693 0 -0.000792533)
(0.16658 0 -0.000874485)
(0.166925 -5.88575e-28 -0.000791707)
(0.166585 0 -0.000875269)
(0.166919 0 -0.000791209)
(0.166592 6.12608e-28 -0.00087573)
(0.166911 -6.21546e-28 -0.000791033)
(0.1666 -6.2728e-28 -0.000875669)
(0.166905 0 -0.000791135)
(0.166611 0 -0.000875478)
(0.166895 0 -0.000791683)
(0.166621 -6.38348e-28 -0.000874992)
(0.166884 0 -0.000792569)
(0.166633 0 -0.000874157)
(0.166873 6.33567e-28 -0.000793792)
(0.166644 6.33898e-28 -0.000872967)
(0.166862 -6.18374e-28 -0.000795262)
(0.166656 -6.16287e-28 -0.000871508)
(0.166851 -3.33222e-30 -0.000796938)
(0.166668 0 -0.000869633)
(0.166844 0 -0.000798748)
(0.166681 0 -0.000867787)
(0.166834 -5.54326e-28 -0.000800823)
(0.166692 5.50205e-28 -0.000865823)
(0.166825 1.05785e-27 -0.000803033)
(0.166703 0 -0.000863743)
(0.166816 0 -0.000805322)
(0.166713 0 -0.00086158)
(0.166808 4.59766e-28 -0.000807626)
(0.166723 0 -0.000859203)
(0.166803 -4.22376e-28 -0.000809845)
(0.166732 0 -0.000857012)
(0.166797 -3.90349e-28 -0.000812148)
(0.16674 0 -0.000854868)
(0.166792 -3.44842e-28 -0.000814465)
(0.166747 3.17524e-28 -0.000852724)
(0.166787 0 -0.000816708)
(0.166753 2.76983e-28 -0.000850463)
(0.166784 0 -0.000818775)
(0.166758 2.19364e-28 -0.000848406)
(0.166781 -1.96458e-28 -0.000820821)
(0.166763 -1.63428e-28 -0.000846567)
(0.166779 0 -0.00082268)
(0.166766 0 -0.000844955)
(0.166777 -1.04287e-28 -0.000824203)
(0.16677 0 -0.000843365)
(0.166774 -9.48855e-29 -0.000825621)
(0.166771 0 -0.000842063)
(0.166774 0 -0.000827064)
(0.166773 -2.74171e-28 -0.000840762)
(0.166773 4.11124e-28 -0.000828239)
(0.166776 3.50058e-28 -0.000839554)
(0.166773 0 -0.000829191)
(0.166775 0 -0.000838721)
(0.166771 0 -0.000830077)
(0.166774 0 -0.000837898)
(0.166771 2.36052e-28 -0.000830904)
(0.166775 -1.8679e-28 -0.000837142)
(0.166773 -2.28037e-31 -0.000831434)
(0.166777 2.92875e-28 -0.000836453)
(0.166773 -1.19774e-28 -0.000832084)
(0.166774 0 -0.000835982)
(0.16677 -1.95208e-28 -0.000832529)
(0.166772 0 -0.000835543)
(0.166771 0 -0.000832688)
(0.166775 -8.47848e-32 -0.00083508)
(0.166774 0 -0.000833107)
(0.166775 2.31941e-29 -0.000834898)
(0.166772 0 -0.000833375)
(0.166771 0 -0.000834577)
(0.16677 2.74156e-29 -0.000833362)
(0.16677 -5.98073e-32 -0.000834465)
(0.16677 0 -0.000833411)
(0.166772 -1.66837e-30 -0.000834411)
(0.166772 2.81166e-29 -0.000833618)
(0.166773 1.2396e-29 -0.000834257)
(0.166773 0 -0.000833594)
(0.166769 2.90128e-29 -0.000834299)
(0.16677 0 -0.000833553)
(0.166766 -2.32008e-29 -0.000834243)
(0.166771 3.83978e-32 -0.000833409)
(0.166771 1.78201e-29 -0.000834157)
(0.166774 0 -0.000833465)
(0.166773 0 -0.000834379)
(0.16677 2.17907e-32 -0.000833676)
(0.166769 3.64268e-29 -0.00083402)
(0.166769 -4.44582e-30 -0.00083367)
(0.166763 2.67718e-29 -0.000834049)
(0.166775 0 -0.000833289)
(0.166767 2.38713e-29 -0.000834225)
(0.166779 -1.74543e-29 -0.000833074)
(0.166773 6.07968e-30 -0.000834591)
(0.166773 4.75342e-29 -0.000832637)
(0.166775 0 -0.00083445)
(0.166764 0 -0.000833759)
(0.166774 1.40601e-29 -0.000833592)
(0.166765 0 -0.000834056)
(0.166793 0 -0.000832835)
(0.166759 -9.32781e-29 -0.000836168)
(0.166775 2.20312e-28 -0.000825021)
(0.166865 0 -0.000839659)
(0.166628 0 -0.000839761)
(0.166982 -9.77092e-28 -0.000821025)
(0.166099 -8.02728e-28 -0.000862241)
(0.167854 0 -0.000773237)
(0.165978 0 -0.000994162)
(0.166307 -7.40578e-27 -0.000612517)
(0.168266 0 -0.00100868)
(0.16389 0 -0.00082402)
(0.176522 1.59617e-28 -0.000970911)
(0.149219 -1.29359e-24 -0.00371147)
(0.141293 -6.31441e-26 -0.00118179)
(0.153812 0 -0.000988828)
(0.153971 8.18082e-27 -0.000712781)
(0.2955 0 0.00428677)
(0.288697 0 0.00249829)
(0.270782 0 0.00146776)
(0.25778 0 0.000186152)
(0.247743 0 -0.000573324)
(0.242165 5.13395e-26 -0.00091495)
(0.237988 1.81222e-26 -0.00107016)
(0.235608 1.49718e-26 -0.00114414)
(0.233775 1.23563e-26 -0.00117892)
(0.232602 1.84793e-26 -0.00119993)
(0.231974 6.52448e-27 -0.00121034)
(0.231622 -4.88976e-27 -0.00121016)
(0.231581 3.40454e-27 -0.00121586)
(0.231677 -2.24605e-27 -0.00121634)
(0.231913 3.06461e-27 -0.00121509)
(0.232275 -1.24288e-27 -0.00122543)
(0.232775 -4.34336e-28 -0.0012299)
(0.233354 0 -0.00123431)
(0.234033 5.55071e-28 -0.0012395)
(0.234762 0 -0.00124409)
(0.235545 0 -0.00124877)
(0.236355 0 -0.00125628)
(0.237201 2.72222e-27 -0.00126543)
(0.238074 0 -0.00127063)
(0.238912 0 -0.00126963)
(0.23968 0 -0.0012669)
(0.240381 1.68472e-27 -0.00126301)
(0.241005 0 -0.00125869)
(0.241559 1.4638e-27 -0.00125426)
(0.242042 2.64551e-27 -0.00125029)
(0.242465 -1.20644e-27 -0.00124706)
(0.242838 1.09697e-27 -0.00124366)
(0.243155 -9.73069e-28 -0.00124017)
(0.243422 0 -0.00123686)
(0.243638 0 -0.00123435)
(0.243824 0 -0.00123274)
(0.243981 -5.05349e-28 -0.0012314)
(0.244118 4.34685e-28 -0.00123035)
(0.244231 0 -0.00122945)
(0.244333 0 -0.00122874)
(0.244415 -2.75927e-28 -0.00122811)
(0.244491 -4.71538e-28 -0.00122761)
(0.24455 0 -0.00122715)
(0.244607 -3.45524e-28 -0.00122677)
(0.244647 -1.48505e-28 -0.00122644)
(0.244692 0 -0.0012262)
(0.244718 -2.15791e-28 -0.0012259)
(0.244755 0 -0.00122584)
(0.24477 -1.58672e-28 -0.00122558)
(0.244803 0 -0.0012255)
(0.244807 0 -0.0012254)
(0.244847 -1.15998e-28 -0.00122515)
(0.244812 1.49292e-29 -0.00122497)
(0.244917 -1.27134e-28 -0.00122514)
(0.244726 0 -0.00122441)
(0.245151 0 -0.001224)
(0.244241 2.70543e-28 -0.00121099)
(0.245909 0 -0.00107516)
(0.239721 0 -0.00141218)
(0.252498 4.70547e-25 0.00293237)
(0.27754 -2.52548e-26 0.00221133)
(0.271332 0 -0.00219211)
(0.263226 -8.57076e-26 -0.00102625)
(0.265388 -1.16584e-26 -0.00128767)
(0.263994 -7.2033e-27 -0.00135856)
(0.263231 0 -0.00144338)
(0.262192 -3.8442e-27 -0.00145662)
(0.26156 0 -0.00144348)
(0.261119 1.36775e-27 -0.00142587)
(0.260825 -1.81108e-27 -0.0014051)
(0.26062 0 -0.00139279)
(0.260462 0 -0.00137791)
(0.260362 1.7607e-28 -0.00136676)
(0.260291 -1.80104e-29 -0.00135474)
(0.26025 -2.57411e-29 -0.00134543)
(0.260229 1.71133e-28 -0.00133647)
(0.260225 0 -0.00132913)
(0.260227 0 -0.00132268)
(0.260238 0 -0.00131791)
(0.260249 -1.48636e-28 -0.00131392)
(0.260262 -1.30988e-28 -0.00131106)
(0.260274 0 -0.00130857)
(0.260285 1.02116e-28 -0.00130694)
(0.260295 3.13903e-32 -0.00130512)
(0.260307 3.92607e-32 -0.00130422)
(0.260312 -7.44228e-29 -0.0013032)
(0.260324 0 -0.00130229)
(0.260329 0 -0.00130185)
(0.260339 8.82443e-29 -0.00130121)
(0.260344 3.17282e-29 -0.0013013)
(0.26035 0 -0.00130083)
(0.260355 0 -0.00130116)
(0.260358 0 -0.00130088)
(0.260362 -1.60777e-29 -0.00130095)
(0.260366 -7.08209e-30 -0.00130084)
(0.260368 4.94488e-31 -0.00130133)
(0.260369 -1.84651e-29 -0.00130117)
(0.260371 0 -0.00130135)
(0.260372 1.22573e-29 -0.00130128)
(0.260374 0 -0.00130138)
(0.260375 1.00717e-32 -0.00130141)
(0.260377 0 -0.00130141)
(0.260377 1.01742e-29 -0.00130174)
(0.260376 5.66731e-32 -0.00130175)
(0.260377 0 -0.00130177)
(0.260377 -2.74069e-31 -0.00130178)
(0.260377 0 -0.00130175)
(0.260377 -4.55712e-31 -0.00130178)
(0.260378 0 -0.00130174)
(0.260378 -1.10561e-30 -0.0013018)
(0.260379 2.15728e-30 -0.00130173)
(0.260378 0 -0.00130208)
(0.260377 0 -0.00130193)
(0.260377 0 -0.00130202)
(0.260377 -2.6639e-30 -0.00130192)
(0.260377 0 -0.00130196)
(0.260377 0 -0.00130187)
(0.260377 0 -0.0013019)
(0.260377 -2.37001e-30 -0.00130182)
(0.260377 1.9794e-31 -0.00130188)
(0.260378 6.48162e-30 -0.00130178)
(0.260378 2.30589e-30 -0.00130185)
(0.260378 -1.50545e-30 -0.00130182)
(0.260379 0 -0.00130179)
(0.260378 0 -0.00130208)
(0.260378 2.29265e-30 -0.00130192)
(0.260377 0 -0.00130212)
(0.260377 -5.70801e-30 -0.00130185)
(0.260376 4.30872e-30 -0.00130208)
(0.260377 6.62178e-30 -0.00130176)
(0.260376 8.85288e-30 -0.00130208)
(0.260377 0 -0.00130165)
(0.260376 4.96659e-30 -0.00130211)
(0.260378 0 -0.00130155)
(0.260376 -4.14655e-30 -0.00130217)
(0.260378 2.08993e-29 -0.00130138)
(0.260378 0 -0.00130226)
(0.260376 0 -0.00130153)
(0.260381 0 -0.00130159)
(0.260375 0 -0.0013025)
(0.260383 -4.3695e-29 -0.00130093)
(0.260373 4.69285e-29 -0.00130299)
(0.260386 9.73616e-29 -0.00130041)
(0.26037 1.96352e-31 -0.0013039)
(0.260386 0 -0.00129977)
(0.260365 1.67681e-28 -0.00130461)
(0.260389 1.02187e-28 -0.00129879)
(0.260361 0 -0.00130554)
(0.260393 -1.32433e-28 -0.00129758)
(0.260356 0 -0.00130673)
(0.260399 -1.68198e-28 -0.0012961)
(0.260351 1.79451e-28 -0.00130819)
(0.260406 0 -0.00129435)
(0.260345 -2.21618e-28 -0.00130996)
(0.260414 0 -0.0012923)
(0.260338 -5.39299e-28 -0.00131204)
(0.260423 0 -0.00128992)
(0.26033 -3.2254e-28 -0.00131445)
(0.260433 -3.63002e-28 -0.00128724)
(0.260322 7.55639e-28 -0.00131716)
(0.260445 0 -0.00128423)
(0.260312 0 -0.00132018)
(0.260457 0 -0.00128094)
(0.260302 -4.98274e-28 -0.00132349)
(0.26047 0 -0.0012774)
(0.260292 0 -0.00132702)
(0.260484 0 -0.00127365)
(0.260282 0 -0.00133075)
(0.260498 0 -0.00126976)
(0.260271 -6.72853e-28 -0.00133458)
(0.260513 0 -0.0012658)
(0.260261 -1.43549e-27 -0.00133847)
(0.260526 7.64223e-28 -0.00126182)
(0.260252 -4.3718e-30 -0.00134205)
(0.260542 0 -0.00125787)
(0.260245 0 -0.0013458)
(0.260556 -8.32444e-28 -0.00125429)
(0.260239 0 -0.00134934)
(0.260568 0 -0.00125103)
(0.260233 0 -0.00135253)
(0.260578 0 -0.00124816)
(0.26023 0 -0.00135527)
(0.260584 0 -0.00124585)
(0.26023 0 -0.00135752)
(0.260587 9.10203e-28 -0.00124398)
(0.260231 0 -0.00135935)
(0.260589 0 -0.00124253)
(0.260233 0 -0.00136076)
(0.260588 -9.3886e-28 -0.00124154)
(0.260237 0 -0.00136171)
(0.260586 0 -0.00124102)
(0.260243 -9.50604e-28 -0.00136219)
(0.260582 0 -0.00124096)
(0.260249 6.58186e-30 -0.00136194)
(0.260579 0 -0.00124129)
(0.260258 9.33486e-28 -0.00136148)
(0.260573 9.18959e-28 -0.00124228)
(0.260267 0 -0.0013606)
(0.260565 0 -0.00124374)
(0.260276 0 -0.00135922)
(0.260555 8.5254e-28 -0.00124565)
(0.260286 8.46794e-28 -0.00135738)
(0.260545 0 -0.00124788)
(0.260296 -8.15434e-28 -0.00135517)
(0.260535 5.68309e-30 -0.00125036)
(0.260307 0 -0.0013524)
(0.260526 0 -0.00125302)
(0.260318 -7.31284e-28 -0.00134971)
(0.260517 -6.93456e-28 -0.00125606)
(0.260329 -4.94007e-30 -0.00134685)
(0.260507 -4.74131e-30 -0.00125924)
(0.260339 0 -0.00134384)
(0.260496 0 -0.00126251)
(0.260349 0 -0.00134075)
(0.260486 -5.54571e-28 -0.00126575)
(0.260358 0 -0.00133737)
(0.260477 -5.06562e-28 -0.00126886)
(0.260368 0 -0.00133435)
(0.260468 4.72289e-28 -0.00127204)
(0.260377 0 -0.00133145)
(0.260459 4.41861e-28 -0.0012751)
(0.260385 4.41735e-28 -0.00132869)
(0.26045 -4.22425e-28 -0.00127791)
(0.260391 -4.26535e-28 -0.00132576)
(0.260444 -4.10422e-28 -0.00128043)
(0.260397 8.88006e-28 -0.00132336)
(0.260438 2.06987e-30 -0.00128302)
(0.260401 -4.08774e-28 -0.00132099)
(0.260433 3.88431e-28 -0.00128548)
(0.260403 3.39582e-28 -0.00131856)
(0.260428 -3.5321e-28 -0.0012874)
(0.260406 -3.62728e-28 -0.00131648)
(0.260424 -3.00861e-28 -0.00128961)
(0.260408 0 -0.00131451)
(0.260421 2.98359e-28 -0.00129152)
(0.260411 0 -0.00131222)
(0.260415 7.23076e-28 -0.00129422)
(0.260412 0 -0.00131025)
(0.260414 0 -0.00129543)
(0.260412 5.68795e-28 -0.00130904)
(0.260411 -4.73378e-28 -0.00129667)
(0.26041 0 -0.00130784)
(0.26041 8.4644e-28 -0.00129779)
(0.260409 3.78309e-31 -0.00130672)
(0.260409 -3.40838e-28 -0.00129859)
(0.260409 -2.77842e-31 -0.00130574)
(0.260408 -2.12923e-28 -0.00129953)
(0.260407 0 -0.0013051)
(0.260406 -3.45626e-28 -0.00130012)
(0.260405 -2.06063e-28 -0.00130448)
(0.260405 1.98684e-28 -0.00130035)
(0.260407 -2.04479e-28 -0.00130374)
(0.260406 9.87671e-29 -0.00130094)
(0.260405 3.03811e-29 -0.00130348)
(0.260404 0 -0.00130136)
(0.260403 -7.93735e-29 -0.00130309)
(0.260403 1.60718e-29 -0.0013013)
(0.260403 -7.64849e-29 -0.00130294)
(0.260404 0 -0.00130134)
(0.260403 0 -0.00130276)
(0.260404 0 -0.00130162)
(0.260402 3.00941e-29 -0.00130261)
(0.260404 0 -0.00130166)
(0.2604 -4.86716e-29 -0.00130271)
(0.260402 -1.48247e-29 -0.00130157)
(0.260399 0 -0.00130261)
(0.260404 6.72573e-29 -0.00130136)
(0.260402 3.27352e-29 -0.0013024)
(0.260405 0 -0.00130144)
(0.260402 0 -0.00130272)
(0.260401 -1.67077e-29 -0.0013018)
(0.2604 0 -0.00130232)
(0.260401 2.83206e-31 -0.00130175)
(0.260398 0 -0.00130234)
(0.260405 -8.11192e-29 -0.00130124)
(0.260401 -2.45599e-29 -0.00130243)
(0.260409 5.16903e-31 -0.00130092)
(0.260402 0 -0.0013031)
(0.260404 3.89407e-29 -0.00130027)
(0.260407 0 -0.00130288)
(0.2604 0 -0.00130191)
(0.260408 0 -0.0013017)
(0.260404 0 -0.00130234)
(0.260419 -7.6677e-29 -0.0013004)
(0.260393 -1.98383e-28 -0.00130497)
(0.260412 3.67559e-28 -0.00129024)
(0.260488 -7.57114e-28 -0.00130951)
(0.260294 0 -0.00131061)
(0.260539 1.31934e-30 -0.00128197)
(0.260082 0 -0.00134831)
(0.261128 0 -0.001213)
(0.259681 0 -0.00153219)
(0.260044 -1.46938e-26 -0.000985561)
(0.261636 0 -0.00154205)
(0.258253 0 -0.00142949)
(0.268452 -1.12693e-25 -0.00120347)
(0.243788 -2.28275e-24 -0.00524002)
(0.234858 -1.03506e-25 -0.00192091)
(0.242321 0 -0.00159715)
(0.241907 -2.50403e-27 -0.00135947)
(0.302964 0 0.00427902)
(0.315689 0 0.00263992)
(0.313757 5.76249e-26 0.00178442)
(0.309952 0 0.000679588)
(0.302065 4.28873e-26 -0.000261115)
(0.295553 5.69273e-26 -0.000748542)
(0.289857 4.24651e-26 -0.00102515)
(0.285918 0 -0.00116707)
(0.2826 1.262e-26 -0.00124315)
(0.280217 1.10639e-26 -0.00131404)
(0.278609 0 -0.00136265)
(0.277462 -1.59888e-26 -0.00139082)
(0.276751 6.80637e-27 -0.0014194)
(0.276353 -1.04015e-26 -0.00143776)
(0.276323 0 -0.00145458)
(0.276443 3.08715e-27 -0.00147194)
(0.27678 -5.46574e-27 -0.00148873)
(0.277276 0 -0.00150417)
(0.277913 -2.95995e-27 -0.00151585)
(0.278635 9.95877e-28 -0.00152601)
(0.279441 0 -0.0015343)
(0.280272 0 -0.00154386)
(0.281116 -2.52984e-28 -0.00155491)
(0.281964 -1.55815e-28 -0.0015594)
(0.282772 0 -0.0015539)
(0.283513 0 -0.00154571)
(0.284188 7.35708e-28 -0.00153592)
(0.284792 -7.60438e-28 -0.00152571)
(0.285327 7.37813e-28 -0.00151555)
(0.285796 1.35187e-27 -0.00150636)
(0.286208 -6.32312e-28 -0.00149869)
(0.286573 6.09478e-28 -0.00149093)
(0.286883 0 -0.00148317)
(0.287146 0 -0.00147579)
(0.28736 0 -0.00146993)
(0.287545 0 -0.00146581)
(0.2877 0 -0.0014624)
(0.287836 4.59695e-28 -0.00145958)
(0.287949 0 -0.00145718)
(0.288051 0 -0.00145516)
(0.288133 1.44073e-28 -0.00145342)
(0.288209 -1.03414e-42 -0.00145193)
(0.288267 0 -0.00145066)
(0.288324 -1.03589e-42 -0.00144954)
(0.288364 1.5531e-28 -0.00144863)
(0.288409 -1.30708e-28 -0.00144783)
(0.288435 1.66011e-42 -0.00144712)
(0.288471 0 -0.00144667)
(0.288486 -3.65733e-29 -0.0014461)
(0.288519 0 -0.0014459)
(0.288524 -2.46299e-29 -0.00144539)
(0.288561 -5.34535e-29 -0.00144495)
(0.288531 2.59444e-29 -0.00144439)
(0.288627 -6.15478e-30 -0.00144466)
(0.288454 0 -0.00144323)
(0.288844 0 -0.0014428)
(0.28802 -3.93142e-31 -0.00142021)
(0.28964 -8.52819e-27 -0.00122026)
(0.284794 0 -0.00170117)
(0.294167 -2.12332e-27 0.00223866)
(0.318999 1.8392e-26 0.00192438)
(0.316691 0 -0.00233686)
(0.31013 -3.7525e-26 -0.0012525)
(0.312041 0 -0.0014782)
(0.310861 0 -0.00155664)
(0.310112 0 -0.00163138)
(0.309047 -2.43515e-27 -0.00165254)
(0.308309 -1.50865e-27 -0.0016534)
(0.307749 0 -0.00164516)
(0.307341 -1.17765e-27 -0.00162995)
(0.307042 0 -0.00162096)
(0.306803 -2.29151e-28 -0.00160855)
(0.306636 2.16855e-28 -0.00159886)
(0.306507 -2.02453e-30 -0.00158768)
(0.306422 -4.57791e-29 -0.00157903)
(0.30636 0 -0.00156987)
(0.306325 1.30103e-28 -0.0015625)
(0.306303 0 -0.00155586)
(0.306295 0 -0.00155076)
(0.306292 0 -0.00154643)
(0.306294 -9.6972e-29 -0.00154321)
(0.306298 0 -0.00154039)
(0.306304 7.70944e-29 -0.00153843)
(0.306309 -1.25559e-28 -0.00153645)
(0.306318 -6.08573e-29 -0.0015352)
(0.306322 -3.8933e-32 -0.00153407)
(0.306332 0 -0.00153299)
(0.306337 0 -0.00153242)
(0.306346 2.9761e-29 -0.00153171)
(0.306352 0 -0.00153166)
(0.306358 0 -0.00153117)
(0.306363 0 -0.00153138)
(0.306367 0 -0.00153109)
(0.306371 1.11792e-29 -0.00153113)
(0.306376 0 -0.00153099)
(0.306379 0 -0.00153143)
(0.30638 -5.65708e-30 -0.00153127)
(0.306383 0 -0.00153143)
(0.306384 3.60042e-30 -0.00153137)
(0.306386 0 -0.00153146)
(0.306387 -2.46865e-32 -0.00153149)
(0.306389 0 -0.00153145)
(0.30639 -7.63483e-30 -0.00153181)
(0.30639 0 -0.00153182)
(0.30639 0 -0.00153183)
(0.30639 0 -0.00153185)
(0.306391 0 -0.00153182)
(0.306391 2.95851e-31 -0.00153186)
(0.306392 0 -0.00153181)
(0.306392 0 -0.00153188)
(0.306393 0 -0.00153181)
(0.306392 0 -0.00153212)
(0.306392 0 -0.001532)
(0.306391 1.96712e-30 -0.00153208)
(0.306391 -1.75774e-30 -0.00153199)
(0.306391 0 -0.00153202)
(0.306391 0 -0.00153194)
(0.306391 -4.27589e-32 -0.00153198)
(0.306391 0 -0.00153189)
(0.306391 -6.24758e-31 -0.00153196)
(0.306392 2.37543e-30 -0.00153186)
(0.306392 4.19718e-30 -0.00153193)
(0.306392 -1.32932e-30 -0.0015319)
(0.306393 -1.49295e-30 -0.00153187)
(0.306392 0 -0.00153213)
(0.306392 0 -0.001532)
(0.306391 0 -0.00153217)
(0.306391 1.07676e-32 -0.00153192)
(0.30639 0 -0.00153213)
(0.306391 0 -0.00153184)
(0.30639 8.15605e-30 -0.00153214)
(0.306391 0 -0.00153174)
(0.30639 1.01799e-29 -0.00153216)
(0.306391 -1.26121e-29 -0.00153167)
(0.30639 -6.1215e-30 -0.0015322)
(0.306391 1.73258e-29 -0.00153149)
(0.306392 0 -0.0015323)
(0.30639 0 -0.00153161)
(0.306394 -2.03366e-31 -0.00153168)
(0.30639 3.52326e-29 -0.00153253)
(0.306395 0 -0.00153106)
(0.306389 0 -0.00153299)
(0.306397 7.72711e-29 -0.00153058)
(0.306388 2.08528e-28 -0.00153378)
(0.306397 0 -0.00153001)
(0.306385 1.30584e-28 -0.00153443)
(0.306398 1.58819e-28 -0.00152914)
(0.306382 -1.76824e-28 -0.00153528)
(0.3064 0 -0.00152806)
(0.30638 0 -0.00153633)
(0.306403 0 -0.00152673)
(0.306377 -7.98319e-31 -0.00153763)
(0.306407 0 -0.00152517)
(0.306375 0 -0.00153918)
(0.306412 0 -0.00152336)
(0.306372 -4.60236e-28 -0.001541)
(0.306418 -5.21184e-28 -0.00152127)
(0.306369 -5.56869e-28 -0.0015431)
(0.306425 -6.22631e-28 -0.00151891)
(0.306366 1.32777e-27 -0.00154546)
(0.306432 -7.36757e-28 -0.0015163)
(0.306363 -7.79484e-28 -0.00154807)
(0.30644 0 -0.00151344)
(0.306359 2.77224e-30 -0.00155092)
(0.306449 0 -0.00151039)
(0.306356 0 -0.00155396)
(0.306458 -1.10896e-27 -0.00150717)
(0.306353 0 -0.00155714)
(0.306467 -1.23683e-27 -0.00150385)
(0.30635 4.20631e-30 -0.0015604)
(0.306477 0 -0.00150049)
(0.306347 -1.39371e-27 -0.00156367)
(0.306486 0 -0.00149713)
(0.306346 5.18526e-30 -0.00156668)
(0.306497 1.58843e-27 -0.00149384)
(0.306346 -1.61995e-27 -0.00156982)
(0.306508 -1.67475e-27 -0.00149085)
(0.306346 0 -0.00157275)
(0.306516 0 -0.00148819)
(0.306346 0 -0.00157538)
(0.306524 1.81233e-27 -0.00148595)
(0.306347 0 -0.00157765)
(0.30653 0 -0.00148389)
(0.306349 1.87324e-27 -0.00157974)
(0.306535 1.88634e-27 -0.00148213)
(0.306351 0 -0.00158152)
(0.306539 0 -0.0014807)
(0.306353 0 -0.00158296)
(0.306541 1.92065e-27 -0.00147965)
(0.306356 0 -0.00158403)
(0.306543 0 -0.00147899)
(0.306359 -1.89607e-27 -0.0015847)
(0.306542 0 -0.00147869)
(0.306362 1.85401e-27 -0.00158473)
(0.306543 0 -0.00147879)
(0.306368 1.82982e-27 -0.0015846)
(0.306541 -7.89525e-30 -0.00147939)
(0.306373 0 -0.00158411)
(0.306538 0 -0.00148041)
(0.306378 0 -0.0015832)
(0.306534 0 -0.00148184)
(0.306383 0 -0.00158178)
(0.306529 0 -0.00148365)
(0.306387 -1.52019e-27 -0.00157999)
(0.306523 1.46721e-27 -0.00148571)
(0.306392 0 -0.00157772)
(0.306518 0 -0.001488)
(0.306398 -1.32038e-27 -0.00157539)
(0.306513 -1.24923e-27 -0.00149056)
(0.306404 -1.21919e-27 -0.00157293)
(0.306507 -1.14693e-27 -0.00149332)
(0.306409 0 -0.00157031)
(0.306501 1.0522e-27 -0.0014962)
(0.306414 1.01644e-27 -0.00156758)
(0.306493 -9.54612e-28 -0.00149911)
(0.306418 0 -0.00156463)
(0.306487 -1.73159e-27 -0.00150197)
(0.306423 0 -0.00156174)
(0.306481 7.94539e-28 -0.0015049)
(0.306428 0 -0.00155887)
(0.306474 7.62794e-28 -0.00150798)
(0.306432 7.85815e-28 -0.00155591)
(0.306466 -1.56839e-27 -0.00151111)
(0.306435 -1.56662e-27 -0.00155293)
(0.30646 -8.03361e-28 -0.00151402)
(0.306439 8.69674e-28 -0.00154983)
(0.306455 8.30101e-28 -0.0015168)
(0.30644 8.54245e-28 -0.00154722)
(0.306451 8.05878e-28 -0.00151928)
(0.306439 -1.91261e-30 -0.00154534)
(0.306447 -7.76066e-28 -0.00152148)
(0.306439 1.63646e-30 -0.00154318)
(0.306445 0 -0.00152302)
(0.306439 6.44671e-28 -0.00154166)
(0.306442 5.83866e-28 -0.00152453)
(0.306438 0 -0.00154081)
(0.306438 1.28666e-27 -0.00152478)
(0.306437 5.68921e-28 -0.00153988)
(0.306436 5.16123e-28 -0.00152602)
(0.306435 5.18534e-28 -0.00153877)
(0.306434 -4.29931e-28 -0.00152718)
(0.306434 0 -0.00153764)
(0.306432 3.88037e-28 -0.00152822)
(0.306431 3.06181e-28 -0.00153657)
(0.30643 0 -0.00152895)
(0.30643 -2.32035e-28 -0.00153564)
(0.306428 -1.94851e-28 -0.00152984)
(0.306428 0 -0.00153505)
(0.306426 -3.16206e-28 -0.00153041)
(0.306426 3.93682e-31 -0.00153445)
(0.306425 1.81309e-28 -0.00153057)
(0.306426 -9.38414e-29 -0.00153374)
(0.306425 9.30714e-29 -0.00153113)
(0.306424 -2.28872e-29 -0.00153348)
(0.306423 3.80212e-29 -0.00153154)
(0.306422 -1.49645e-28 -0.00153315)
(0.306422 0 -0.0015315)
(0.306422 7.73565e-29 -0.00153299)
(0.306423 0 -0.00153149)
(0.306422 0 -0.00153278)
(0.306422 0 -0.00153175)
(0.30642 0 -0.00153263)
(0.306421 -2.27403e-29 -0.00153183)
(0.306419 2.90733e-31 -0.00153274)
(0.30642 -1.94826e-29 -0.00153176)
(0.306419 0 -0.00153266)
(0.306422 0 -0.00153154)
(0.306421 3.37749e-29 -0.0015324)
(0.306423 0 -0.00153159)
(0.30642 -2.7694e-29 -0.0015327)
(0.306418 -1.74593e-29 -0.00153193)
(0.306418 5.52514e-29 -0.00153239)
(0.30642 3.82995e-29 -0.00153188)
(0.306419 0 -0.00153246)
(0.306424 5.2716e-32 -0.00153137)
(0.306421 -2.39104e-30 -0.00153253)
(0.306426 6.67971e-29 -0.0015311)
(0.30642 0 -0.0015329)
(0.306421 0 -0.00153056)
(0.306425 1.43138e-28 -0.00153294)
(0.30642 0 -0.00153206)
(0.306429 5.001e-29 -0.0015319)
(0.306425 2.98194e-29 -0.00153246)
(0.306434 1.00085e-30 -0.00153037)
(0.306418 0 -0.00153532)
(0.306429 0 -0.00152079)
(0.306503 -7.12855e-28 -0.00153896)
(0.306328 0 -0.00153939)
(0.306551 1.01238e-27 -0.00151488)
(0.30619 0 -0.00158191)
(0.306852 0 -0.00144634)
(0.305982 0 -0.0017135)
(0.306046 -1.6794e-26 -0.00126204)
(0.307593 0 -0.00177408)
(0.304378 -1.96852e-28 -0.00173573)
(0.310997 -2.40687e-26 -0.0013524)
(0.294643 -1.07945e-24 -0.00529746)
(0.28263 0 -0.00224742)
(0.287487 -1.06696e-26 -0.0018731)
(0.28645 -1.18235e-26 -0.00155233)
(0.305036 0 0.00297383)
(0.319973 3.88704e-26 0.00198113)
(0.326219 3.56692e-26 0.00142293)
(0.331648 0 0.000549655)
(0.331179 5.73921e-26 9.01587e-06)
(0.329361 4.26396e-26 -0.000440829)
(0.325503 3.09179e-26 -0.000773478)
(0.32158 0 -0.00101992)
(0.317944 2.43678e-26 -0.00117791)
(0.315027 0 -0.0013076)
(0.312653 0 -0.00140056)
(0.310725 -1.81304e-26 -0.00145631)
(0.309296 0 -0.00151409)
(0.308311 -1.57604e-26 -0.00156109)
(0.307751 0 -0.00159636)
(0.307468 5.50886e-27 -0.00163684)
(0.307509 -9.92803e-27 -0.00166381)
(0.307698 -4.41705e-27 -0.00168824)
(0.30812 -8.23949e-27 -0.00171255)
(0.308656 3.45251e-27 -0.00172986)
(0.309305 0 -0.00174311)
(0.309995 0 -0.0017539)
(0.310663 0 -0.00176225)
(0.311303 1.22387e-27 -0.00176278)
(0.311903 0 -0.001752)
(0.312444 0 -0.00173825)
(0.312933 0 -0.00172275)
(0.313366 1.24643e-28 -0.00170696)
(0.313745 0 -0.00169141)
(0.314076 0 -0.00167738)
(0.314365 -4.55232e-30 -0.00166558)
(0.31462 0 -0.0016538)
(0.314834 0 -0.00164213)
(0.315014 0 -0.00163106)
(0.315159 -5.76647e-29 -0.00162224)
(0.315286 0 -0.0016159)
(0.315391 0 -0.00161063)
(0.315486 1.34567e-29 -0.00160621)
(0.315563 -1.08797e-29 -0.00160244)
(0.315633 0 -0.00159922)
(0.315688 7.89738e-30 -0.00159646)
(0.315741 -9.62765e-43 -0.00159409)
(0.315779 -5.64207e-30 -0.00159208)
(0.315819 -9.64087e-43 -0.00159029)
(0.315846 2.43279e-31 -0.00158887)