/*--------------------------------*- C++ -*----------------------------------*\
| =========                 |                                                 |
| \\      /  F ield         | foam-extend: Open Source CFD                    |
|  \\    /   O peration     | Version:     3.2                                |
|   \\  /    A nd           | Web:         http://www.foam-extend.org         |
|    \\/     M anipulation  | For copyright notice see file Copyright         |
\*---------------------------------------------------------------------------*/
FoamFile
{
    version     2.0;
    format      ascii;
    class       areaVectorField;
    location    "2000";
    object      Ub2;
}
// * * * * * * * * * * * * * * * * * * * * * * * * * * * * * * * * * * * * * //

dimensions      [0 1 -1 0 0 0 0];

internalField   nonuniform List<vector> 
300
(
(0.227243 0 -0.00113622)
(0.263126 0 -0.00131563)
(0.233299 0 -0.0011665)
(0.205552 0 -0.00102776)
(0.188512 2.98088e-23 -0.000942561)
(0.181173 -1.15113e-23 -0.000905867)
(0.178289 -2.48542e-23 -0.000891443)
(0.177931 -2.45337e-23 -0.000889653)
(0.178415 7.37334e-27 -0.000892076)
(0.179404 -2.21368e-23 -0.000897021)
(0.180591 3.57685e-27 -0.000902955)
(0.181793 1.6407e-23 -0.000908963)
(0.182953 0 -0.000914766)
(0.184172 1.48892e-23 -0.00092086)
(0.185337 1.38644e-27 -0.000926683)
(0.186511 -9.06239e-29 -0.000932556)
(0.18775 1.39818e-23 -0.000938749)
(0.188983 -1.3571e-23 -0.000944915)
(0.19024 1.3367e-23 -0.000951198)
(0.191501 0 -0.000957504)
(0.19276 0 -0.0009638)
(0.194016 -1.36326e-23 -0.000970082)
(0.195304 1.69756e-27 -0.000976522)
(0.196624 0 -0.000983122)
(0.197899 0 -0.000989496)
(0.199069 -1.2572e-23 -0.000995346)
(0.200122 0 -0.00100061)
(0.201046 0 -0.00100523)
(0.201847 0 -0.00100923)
(0.20253 -6.96044e-24 -0.00101265)
(0.203113 0 -0.00101557)
(0.203612 0 -0.00101806)
(0.204027 -8.47998e-28 -0.00102014)
(0.204368 0 -0.00102184)
(0.20464 0 -0.0010232)
(0.204864 0 -0.00102432)
(0.20505 -4.53534e-28 -0.00102525)
(0.205207 0 -0.00102604)
(0.205338 0 -0.00102669)
(0.205451 0 -0.00102726)
(0.205545 -2.5098e-28 -0.00102772)
(0.205627 -7.626e-25 -0.00102814)
(0.205695 0 -0.00102847)
(0.205756 -5.50851e-25 -0.00102878)
(0.205803 -1.35722e-28 -0.00102901)
(0.205849 0 -0.00102924)
(0.205881 -3.29876e-25 -0.00102941)
(0.205917 0 -0.00102958)
(0.205939 -2.45228e-25 -0.00102969)
(0.205969 0 -0.00102985)
(0.205976 0 -0.00102988)
(0.206019 -1.44709e-25 -0.00103009)
(0.205979 0 -0.00102989)
(0.206102 -2.31522e-25 -0.00103051)
(0.205877 0 -0.00102938)
(0.206377 0 -0.00103189)
(0.205313 3.30724e-24 -0.00102656)
(0.207341 -6.03577e-28 -0.0010367)
(0.199883 0 -0.000999416)
(0.211905 0 0.00449727)
(0.24593 -1.96512e-22 0.00265471)
(0.241296 0 -0.00353059)
(0.227547 0 -0.000930022)
(0.228636 -1.34298e-23 -0.00114283)
(0.227492 0 -0.00122981)
(0.226992 7.5165e-24 -0.00130132)
(0.226346 0 -0.00129732)
(0.225999 -2.07869e-27 -0.00126424)
(0.225849 3.18649e-24 -0.00124098)
(0.225834 0 -0.00121847)
(0.22585 0 -0.00120809)
(0.225866 0 -0.00119393)
(0.225899 -1.66702e-24 -0.00118443)
(0.22593 1.12817e-28 -0.00117342)
(0.225969 1.39242e-24 -0.00116589)
(0.226003 -1.21891e-24 -0.00115758)
(0.226043 0 -0.00115172)
(0.226078 0 -0.00114638)
(0.226112 -6.98713e-25 -0.00114277)
(0.226139 0 -0.00113972)
(0.226162 0 -0.0011377)
(0.226179 -8.55118e-29 -0.00113581)
(0.226193 2.24446e-25 -0.00113474)
(0.226203 0 -0.00113321)
(0.226214 -1.26068e-25 -0.00113272)
(0.226218 0 -0.00113187)
(0.226227 0 -0.0011311)
(0.226231 7.42615e-26 -0.00113087)
(0.226238 0 -0.00113028)
(0.226242 2.61352e-29 -0.00113057)
(0.226247 2.6929e-29 -0.00113011)
(0.226249 1.24946e-29 -0.00113059)
(0.226251 3.76659e-26 -0.00113024)
(0.226254 -1.38272e-29 -0.00113036)
(0.226257 0 -0.00113025)
(0.226258 3.01236e-26 -0.00113087)
(0.226259 0 -0.00113061)
(0.22626 1.59774e-27 -0.00113082)
(0.226261 1.73593e-26 -0.00113071)
(0.226262 -1.77447e-30 -0.00113083)
(0.226263 1.60952e-26 -0.00113083)
(0.226265 0 -0.00113086)
(0.226265 2.48391e-26 -0.0011313)
(0.226264 0 -0.0011312)
(0.226265 -4.61426e-27 -0.00113121)
(0.226265 -2.86507e-31 -0.00113122)
(0.226266 0 -0.00113118)
(0.226266 0 -0.00113122)
(0.226267 -8.22678e-27 -0.00113117)
(0.226267 6.26905e-27 -0.00113123)
(0.226269 -9.10205e-27 -0.00113117)
(0.226268 6.59534e-30 -0.00113164)
(0.226266 -6.53005e-27 -0.00113137)
(0.226266 -6.84299e-27 -0.00113147)
(0.226266 7.73625e-27 -0.00113135)
(0.226266 0 -0.0011314)
(0.226266 0 -0.00113129)
(0.226266 0 -0.00113134)
(0.226267 0 -0.00113123)
(0.226267 2.67297e-27 -0.00113133)
(0.226267 -1.11853e-26 -0.0011312)
(0.226268 0 -0.00113131)
(0.226268 -1.2601e-26 -0.00113124)
(0.226269 0 -0.00113126)
(0.226267 4.25511e-26 -0.00113164)
(0.226267 3.3462e-27 -0.00113137)
(0.226265 5.08101e-27 -0.00113158)
(0.226267 2.76543e-30 -0.00113126)
(0.226265 0 -0.00113156)
(0.226267 -3.26482e-30 -0.00113114)
(0.226265 2.51299e-26 -0.00113159)
(0.226267 0 -0.00113101)
(0.226265 -2.00664e-30 -0.00113165)
(0.226267 0 -0.00113087)
(0.226266 6.04081e-26 -0.00113177)
(0.226267 8.07157e-26 -0.00113064)
(0.226268 0 -0.00113188)
(0.226262 1.91435e-29 -0.0011308)
(0.226271 -4.5115e-30 -0.00113116)
(0.226262 2.14182e-29 -0.00113192)
(0.226271 0 -0.0011302)
(0.226255 -1.10327e-25 -0.00113273)
(0.22628 2.22585e-29 -0.00112944)
(0.226255 2.59099e-25 -0.00113402)
(0.226278 0 -0.00112855)
(0.226248 3.31101e-25 -0.00113488)
(0.226283 -5.36462e-29 -0.00112726)
(0.226242 0 -0.00113616)
(0.226287 0 -0.00112566)
(0.226236 0 -0.00113777)
(0.226292 7.72858e-25 -0.00112369)
(0.22623 -9.91475e-29 -0.00113976)
(0.226298 0 -0.00112137)
(0.226222 1.24582e-28 -0.00114216)
(0.226305 1.33606e-24 -0.00111864)
(0.226214 0 -0.00114498)
(0.226312 -1.69872e-24 -0.00111548)
(0.226205 1.90968e-24 -0.00114822)
(0.226319 0 -0.00111189)
(0.226196 2.35836e-24 -0.0011519)
(0.226327 0 -0.00110787)
(0.226187 0 -0.00115597)
(0.226335 0 -0.00110347)
(0.226177 0 -0.00116043)
(0.226342 0 -0.00109873)
(0.226167 0 -0.0011652)
(0.22635 3.82175e-28 -0.00109371)
(0.226158 -4.66827e-24 -0.00117021)
(0.226356 -4.27244e-28 -0.00108849)
(0.22615 0 -0.00117537)
(0.226362 0 -0.00108319)
(0.226142 6.03193e-24 -0.00118058)
(0.226366 0 -0.00107786)
(0.226136 6.6674e-24 -0.00118535)
(0.226373 0 -0.00107262)
(0.226134 7.37201e-24 -0.00119042)
(0.226376 0 -0.00106783)
(0.226131 -8.01614e-24 -0.00119512)
(0.226378 0 -0.00106347)
(0.22613 0 -0.00119933)
(0.226378 0 -0.00105963)
(0.226131 0 -0.00120303)
(0.226377 -9.26168e-24 -0.00105634)
(0.226132 9.46749e-24 -0.00120616)
(0.226374 0 -0.00105361)
(0.226135 0 -0.00120875)
(0.22637 -9.87e-24 -0.00105143)
(0.226139 -7.80151e-28 -0.00121078)
(0.226366 0 -0.00104986)
(0.226144 8.11305e-28 -0.0012122)
(0.22636 0 -0.00104893)
(0.226151 -1.02326e-23 -0.00121298)
(0.226354 0 -0.00104862)
(0.226158 -8.51521e-28 -0.00121275)
(0.22635 0 -0.00104889)
(0.226168 -1.01251e-23 -0.00121235)
(0.226343 0 -0.00104999)
(0.226178 0 -0.00121128)
(0.226336 8.66575e-28 -0.0010517)
(0.226188 -9.71405e-24 -0.00120953)
(0.226325 -9.54527e-24 -0.00105406)
(0.226197 -9.37612e-24 -0.00120708)
(0.226321 -8.43712e-28 -0.00105695)
(0.226208 8.40899e-28 -0.00120414)
(0.226315 -8.77464e-24 -0.00106023)
(0.226218 -8.12274e-28 -0.00120042)
(0.226271 8.31852e-24 -0.0010636)
(0.226196 7.81688e-28 -0.00119665)
(0.226245 7.81828e-24 -0.00106753)
(0.226184 -7.44947e-28 -0.00119263)
(0.226304 0 -0.00107211)
(0.226249 -7.00997e-24 -0.00118883)
(0.2263 6.75232e-24 -0.00107654)
(0.226258 6.47445e-24 -0.00118461)
(0.226131 0 -0.00108017)
(0.226098 6.15561e-28 -0.00117906)
(0.226088 5.68085e-24 -0.00108425)
(0.22606 0 -0.00117461)
(0.226296 -5.14436e-24 -0.00108971)
(0.226282 4.8646e-24 -0.00117163)
(0.226294 0 -0.00109411)
(0.226288 -4.40567e-24 -0.00116763)
(0.225919 4.16501e-24 -0.00109641)
(0.225892 -3.88462e-24 -0.00116125)
(0.22586 0 -0.0010999)
(0.225834 -3.4906e-24 -0.00115719)
(0.226295 3.33563e-24 -0.00110587)
(0.226301 -2.19902e-28 -0.00115621)
(0.226295 0 -0.00110943)
(0.226303 0 -0.00115311)
(0.225654 0 -0.00110901)
(0.225608 2.36582e-24 -0.00114648)
(0.225586 -1.49348e-28 -0.00111149)
(0.22554 -1.23941e-28 -0.00114345)
(0.226298 0 -0.00111777)
(0.226308 -1.74639e-24 -0.00114501)
(0.226298 0 -0.0011203)
(0.226309 0 -0.00114271)
(0.225361 0 -0.00111739)
(0.225284 0 -0.00113571)
(0.225289 -1.10968e-24 -0.0011187)
(0.225213 -9.13214e-25 -0.00113362)
(0.2263 8.72964e-25 -0.00112549)
(0.226307 7.73121e-25 -0.00113784)
(0.2263 0 -0.00112666)
(0.226307 -2.40958e-28 -0.00113666)
(0.225061 1.77164e-28 -0.0011216)
(0.224952 -4.8705e-25 -0.0011287)
(0.224993 0 -0.00112204)
(0.224888 3.09959e-25 -0.00112739)
(0.2263 3.59188e-25 -0.00112914)
(0.226304 2.8478e-25 -0.00113389)
(0.2263 0 -0.0011301)
(0.226302 0 -0.00113365)
(0.224779 0 -0.00112277)
(0.224641 0 -0.00112446)
(0.224722 0 -0.00112242)
(0.22459 7.12261e-26 -0.00112388)
(0.226298 1.32032e-25 -0.00113067)
(0.226298 -8.79771e-31 -0.0011326)
(0.226297 0 -0.00113111)
(0.226297 -4.3863e-29 -0.00113244)
(0.224531 -6.85877e-26 -0.00112205)
(0.224349 0 -0.0011225)
(0.224479 -1.3296e-25 -0.00112165)
(0.2243 1.41925e-26 -0.00112196)
(0.226297 0 -0.00113067)
(0.226296 -1.30158e-29 -0.0011322)
(0.226296 -2.17701e-29 -0.00113093)
(0.226296 -2.22804e-25 -0.00113277)
(0.224296 -5.57697e-26 -0.00112101)
(0.224054 -4.33349e-29 -0.00112047)
(0.224252 -6.75601e-26 -0.00112085)
(0.223999 -1.10692e-25 -0.00111997)
(0.2263 8.97601e-26 -0.0011306)
(0.226291 -2.84036e-29 -0.00113234)
(0.2263 -3.66957e-29 -0.00113014)
(0.226297 0 -0.00113346)
(0.224066 2.50869e-25 -0.00111795)
(0.223739 -1.07457e-28 -0.00111982)
(0.224004 0 -0.00111957)
(0.223679 -1.60355e-25 -0.00111756)
(0.226293 0 -0.00113165)
(0.226317 4.19168e-26 -0.00113007)
(0.226287 0 -0.00113608)
(0.226289 -1.69146e-24 -0.00111541)
(0.224341 -4.84711e-28 -0.00113259)
(0.222813 -6.39385e-25 -0.00112444)
(0.224415 2.34846e-24 -0.00110896)
(0.222536 -3.79594e-24 -0.00114625)
(0.224204 0 -0.00100414)
(0.222681 -8.45138e-23 -0.00143357)
(0.223219 -5.5985e-23 -0.000689937)
(0.225076 2.82046e-26 -0.0014442)
(0.223291 -7.26862e-23 -0.000951015)
(0.236099 0 -0.00152664)
(0.211589 -9.17124e-25 -0.00678434)
(0.19186 0 -0.0009593)
(0.200234 7.21382e-27 -0.00100117)
(0.202246 -1.07458e-26 -0.00101123)
)
;

boundaryField
{
    inlet
    {
        type            calculated;
        value           uniform (0 0 0);
    }
    outlet
    {
        type            calculated;
        value           uniform (0 0 0);
    }
    sideWall
    {
        type            empty;
    }
}


// ************************************************************************* //
