/*--------------------------------*- C++ -*----------------------------------*\
| =========                 |                                                 |
| \\      /  F ield         | foam-extend: Open Source CFD                    |
|  \\    /   O peration     | Version:     3.2                                |
|   \\  /    A nd           | Web:         http://www.foam-extend.org         |
|    \\/     M anipulation  | For copyright notice see file Copyright         |
\*---------------------------------------------------------------------------*/
FoamFile
{
    version     2.0;
    format      ascii;
    class       areaScalarField;
    location    "2000";
    object      Uf;
}
// * * * * * * * * * * * * * * * * * * * * * * * * * * * * * * * * * * * * * //

dimensions      [0 1 -1 0 0 0 0];

internalField   nonuniform List<scalar> 
300
(
0.0334981
0.0370843
0.0341
0.0313248
0.0296208
0.0288869
0.0285984
0.0285626
0.0286111
0.02871
0.0288286
0.0289488
0.0290649
0.0291867
0.0293032
0.0294207
0.0295445
0.0296678
0.0297935
0.0299196
0.0300455
0.0301712
0.0303
0.030432
0.0305595
0.0306765
0.0307818
0.0308742
0.0309542
0.0310225
0.0310809
0.0311308
0.0311723
0.0312063
0.0312336
0.031256
0.0312746
0.0312903
0.0313034
0.0313147
0.0313241
0.0313323
0.031339
0.0313451
0.0313498
0.0313545
0.0313577
0.0313612
0.0313635
0.0313665
0.0313672
0.0313715
0.0313674
0.0313797
0.0313572
0.0314073
0.0313008
0.0315036
0.0307579
0.0321806
0.0354945
0.0348205
0.0335318
0.0336332
0.0335154
0.0334627
0.0333982
0.0333646
0.0333518
0.0333497
0.0333517
0.0333538
0.0333575
0.033361
0.0333651
0.0333689
0.0333731
0.0333769
0.0333804
0.0333832
0.0333855
0.0333873
0.0333888
0.0333898
0.0333909
0.0333914
0.0333923
0.0333927
0.0333935
0.0333938
0.0333943
0.0333945
0.0333948
0.033395
0.0333953
0.0333954
0.0333955
0.0333956
0.0333957
0.0333958
0.033396
0.0333961
0.0333961
0.0333961
0.0333961
0.0333961
0.0333962
0.0333962
0.0333963
0.0333963
0.0333964
0.0333964
0.0333962
0.0333962
0.0333962
0.0333962
0.0333962
0.0333962
0.0333963
0.0333963
0.0333963
0.0333964
0.0333964
0.0333965
0.0333964
0.0333963
0.0333962
0.0333963
0.0333961
0.0333963
0.0333961
0.0333963
0.0333961
0.0333963
0.0333962
0.0333963
0.0333964
0.0333961
0.0333967
0.0333957
0.0333973
0.0333954
0.0333976
0.033395
0.0333977
0.0333943
0.033398
0.0333937
0.0333985
0.033393
0.0333991
0.0333922
0.0333998
0.0333914
0.0334005
0.0333905
0.0334013
0.0333895
0.0334022
0.0333884
0.0334031
0.0333873
0.0334041
0.0333862
0.033405
0.0333851
0.0334059
0.033384
0.0334068
0.0333829
0.0334075
0.033382
0.0334082
0.0333812
0.033409
0.0333808
0.0334096
0.0333804
0.0334099
0.0333801
0.03341
0.03338
0.03341
0.0333801
0.0334099
0.0333802
0.0334096
0.0333806
0.0334092
0.0333811
0.0334086
0.0333817
0.033408
0.0333824
0.0334076
0.0333835
0.0334069
0.0333845
0.0334061
0.0333855
0.0334052
0.0333866
0.0334044
0.0333877
0.0334037
0.0333888
0.0334032
0.0333902
0.0334027
0.0333913
0.0334022
0.0333924
0.0334016
0.0333935
0.0334011
0.0333944
0.0334009
0.0333955
0.0334007
0.0333963
0.0334004
0.033397
0.0334001
0.0333977
0.0334002
0.0333983
0.0334001
0.0333988
0.0333999
0.0333991
0.0333998
0.0333996
0.0333999
0.0333999
0.0333999
0.0333999
0.0333998
0.0334001
0.0333999
0.0334002
0.0333999
0.0334002
0.0333999
0.0334001
0.0333998
0.0334001
0.0333998
0.0334
0.0333997
0.0333999
0.0333997
0.0333999
0.0333996
0.0333997
0.0333995
0.0333996
0.0333995
0.0333995
0.0333995
0.0333994
0.0333993
0.0333992
0.0333994
0.0333992
0.0333994
0.033399
0.0333993
0.0333992
0.0333993
0.0333992
0.033399
0.0333991
0.0333993
0.0333986
0.0333996
0.0333987
0.0333996
0.0333992
0.0333992
0.0333999
0.033399
0.0333998
0.0333989
0.0334013
0.0333982
0.0333991
0.0334099
0.0333865
0.0334188
0.0333319
0.0334961
0.033336
0.0333198
0.0335404
0.0331048
0.0343674
0.0317087
0.0299557
0.030793
0.0309942
)
;

boundaryField
{
    inlet
    {
        type            calculated;
        value           uniform 0;
    }
    outlet
    {
        type            calculated;
        value           uniform 0;
    }
    sideWall
    {
        type            empty;
    }
}


// ************************************************************************* //
