/*--------------------------------*- C++ -*----------------------------------*\
| =========                 |                                                 |
| \\      /  F ield         | foam-extend: Open Source CFD                    |
|  \\    /   O peration     | Version:     3.2                                |
|   \\  /    A nd           | Web:         http://www.foam-extend.org         |
|    \\/     M anipulation  | For copyright notice see file Copyright         |
\*---------------------------------------------------------------------------*/
FoamFile
{
    version     2.0;
    format      ascii;
    class       areaScalarField;
    location    "2000";
    object      Uf2;
}
// * * * * * * * * * * * * * * * * * * * * * * * * * * * * * * * * * * * * * //

dimensions      [0 1 -1 0 0 0 0];

internalField   nonuniform List<scalar> 
300
(
0.0249305
0.0206001
0.0169046
0.015328
0.014573
0.0143383
0.0142365
0.0142481
0.0142774
0.0143328
0.014394
0.0144527
0.0145074
0.0145684
0.0146216
0.0146776
0.0147385
0.014797
0.0148571
0.0149169
0.0149764
0.0150367
0.0151018
0.0151711
0.0152379
0.0152986
0.0153535
0.0154015
0.0154433
0.0154789
0.0155096
0.015536
0.0155577
0.0155754
0.0155893
0.0156011
0.0156108
0.0156191
0.015626
0.0156321
0.015637
0.0156415
0.015645
0.0156483
0.0156507
0.0156534
0.0156549
0.015657
0.015658
0.0156599
0.0156597
0.0156632
0.0156584
0.0156704
0.0156471
0.0156974
0.0155894
0.0157987
0.0150751
0.0166323
0.0190221
0.0174641
0.0164659
0.0168656
0.0167196
0.0166939
0.0166464
0.0166318
0.0166294
0.0166321
0.0166357
0.0166387
0.0166429
0.0166466
0.0166507
0.0166542
0.0166581
0.0166612
0.0166641
0.0166663
0.0166681
0.0166696
0.0166707
0.0166715
0.0166725
0.0166728
0.0166736
0.0166739
0.0166744
0.0166746
0.016675
0.016675
0.0166752
0.0166753
0.0166755
0.0166755
0.0166755
0.0166756
0.0166756
0.0166757
0.0166757
0.0166758
0.0166758
0.0166757
0.0166757
0.0166757
0.0166758
0.0166758
0.0166758
0.0166758
0.0166759
0.0166758
0.0166757
0.0166757
0.0166757
0.0166757
0.0166758
0.0166758
0.0166758
0.0166758
0.0166758
0.0166759
0.0166758
0.016676
0.0166758
0.0166758
0.0166757
0.0166758
0.0166756
0.0166759
0.0166756
0.0166759
0.0166756
0.0166759
0.0166757
0.0166758
0.0166759
0.0166756
0.0166763
0.0166752
0.0166769
0.0166747
0.0166773
0.0166742
0.0166775
0.0166736
0.016678
0.0166729
0.0166787
0.0166722
0.0166794
0.0166714
0.0166803
0.0166705
0.0166813
0.0166694
0.0166823
0.0166683
0.0166834
0.0166671
0.0166846
0.0166659
0.0166858
0.0166647
0.0166871
0.0166634
0.0166883
0.0166622
0.0166894
0.016661
0.0166904
0.01666
0.0166913
0.0166591
0.0166924
0.0166585
0.016693
0.016658
0.0166934
0.0166577
0.0166936
0.0166576
0.0166937
0.0166576
0.0166935
0.0166578
0.0166932
0.0166582
0.0166927
0.0166587
0.0166921
0.0166594
0.0166913
0.0166603
0.0166907
0.0166613
0.0166897
0.0166623
0.0166886
0.0166635
0.0166875
0.0166647
0.0166864
0.0166658
0.0166853
0.016667
0.0166845
0.0166683
0.0166836
0.0166694
0.0166827
0.0166705
0.0166818
0.0166715
0.016681
0.0166725
0.0166805
0.0166735
0.0166799
0.0166743
0.0166794
0.0166749
0.0166788
0.0166755
0.0166786
0.0166761
0.0166784
0.0166765
0.0166781
0.0166767
0.0166778
0.0166772
0.0166776
0.0166775
0.0166777
0.0166776
0.0166775
0.0166776
0.0166774
0.0166777
0.0166774
0.0166778
0.0166776
0.0166778
0.0166775
0.0166777
0.0166773
0.0166775
0.0166773
0.0166776
0.0166776
0.0166778
0.0166775
0.0166774
0.0166771
0.0166772
0.0166773
0.0166775
0.0166776
0.0166775
0.0166774
0.0166772
0.0166772
0.016677
0.0166773
0.0166771
0.0166777
0.0166774
0.0166775
0.0166772
0.0166769
0.016677
0.0166772
0.0166769
0.0166781
0.016677
0.016678
0.0166771
0.016677
0.0166776
0.0166767
0.016678
0.0166772
0.0166796
0.0166759
0.0166775
0.0166866
0.016663
0.0166984
0.0166101
0.0167856
0.0165981
0.0166308
0.0168269
0.0163892
0.0176525
0.0149265
0.0141298
0.0153815
0.0153972
)
;

boundaryField
{
    inlet
    {
        type            calculated;
        value           uniform 0;
    }
    outlet
    {
        type            calculated;
        value           uniform 0;
    }
    sideWall
    {
        type            empty;
    }
}


// ************************************************************************* //
