/*--------------------------------*- C++ -*----------------------------------*\
| =========                 |                                                 |
| \\      /  F ield         | foam-extend: Open Source CFD                    |
|  \\    /   O peration     | Version:     3.2                                |
|   \\  /    A nd           | Web:         http://www.foam-extend.org         |
|    \\/     M anipulation  | For copyright notice see file Copyright         |
\*---------------------------------------------------------------------------*/
FoamFile
{
    version     2.0;
    format      ascii;
    class       areaVectorField;
    location    "2000";
    object      uNormal;
}
// * * * * * * * * * * * * * * * * * * * * * * * * * * * * * * * * * * * * * //

dimensions      [0 0 0 0 0 0 0];

internalField   nonuniform List<vector> 
300
(
(0.00499994 -0 0.999988)
(0.00499994 -0 0.999988)
(0.00499994 -0 0.999988)
(0.00499994 -0 0.999988)
(0.00499994 -4.23511e-19 0.999988)
(0.00499994 -4.23511e-19 0.999988)
(0.00499994 -4.23511e-19 0.999988)
(0.00499994 -4.23511e-19 0.999988)
(0.00499994 -0 0.999988)
(0.00499994 -4.23511e-19 0.999988)
(0.00499994 -0 0.999988)
(0.00499994 4.23511e-19 0.999988)
(0.00499994 -0 0.999988)
(0.00499994 4.23511e-19 0.999988)
(0.00499994 -0 0.999988)
(0.00499994 -0 0.999988)
(0.00499994 4.23511e-19 0.999988)
(0.00499994 -4.23511e-19 0.999988)
(0.00499994 4.23511e-19 0.999988)
(0.00499994 -0 0.999988)
(0.00499994 -0 0.999988)
(0.00499994 -4.23511e-19 0.999988)
(0.00499994 -0 0.999988)
(0.00499994 -0 0.999988)
(0.00499994 -0 0.999988)
(0.00499994 -4.23511e-19 0.999988)
(0.00499994 -0 0.999988)
(0.00499994 -0 0.999988)
(0.00499994 -0 0.999988)
(0.00499994 -4.23511e-19 0.999988)
(0.00499994 -0 0.999988)
(0.00499994 -0 0.999988)
(0.00499994 -0 0.999988)
(0.00499994 -0 0.999988)
(0.00499994 -0 0.999988)
(0.00499994 -0 0.999988)
(0.00499994 -0 0.999988)
(0.00499994 -0 0.999988)
(0.00499994 -0 0.999988)
(0.00499994 -0 0.999988)
(0.00499994 -0 0.999988)
(0.00499994 -4.23511e-19 0.999988)
(0.00499994 -0 0.999988)
(0.00499994 -4.23511e-19 0.999988)
(0.00499994 -0 0.999988)
(0.00499994 -0 0.999988)
(0.00499994 -4.23511e-19 0.999988)
(0.00499994 -0 0.999988)
(0.00499994 -4.23511e-19 0.999988)
(0.00499994 -0 0.999988)
(0.00499994 -0 0.999988)
(0.00499994 -4.23511e-19 0.999988)
(0.00499994 -0 0.999988)
(0.00499994 -4.23511e-19 0.999988)
(0.00499994 -0 0.999988)
(0.00499994 -0 0.999988)
(0.00499994 -4.23511e-19 0.999988)
(0.00499994 -0 0.999988)
(0.00499994 -0 0.999988)
(-0.0212183 -0 0.999775)
(-0.0107939 8.46984e-19 0.999942)
(0.0146302 -0 0.999893)
(0.00408714 -0 0.999992)
(0.0049984 -4.23511e-19 0.999988)
(0.00540589 -0 0.999985)
(0.00573281 -4.2351e-19 0.999984)
(0.00573146 -0 0.999984)
(0.00559391 -0 0.999984)
(0.00549466 4.2351e-19 0.999985)
(0.00539536 -0 0.999985)
(0.00534901 -0 0.999986)
(0.00528594 -0 0.999986)
(0.00524313 -4.23511e-19 0.999986)
(0.00519368 -0 0.999987)
(0.00515946 4.23511e-19 0.999987)
(0.00512191 -4.23511e-19 0.999987)
(0.00509504 -0 0.999987)
(0.00507066 -0 0.999987)
(0.00505395 -4.23511e-19 0.999987)
(0.00503983 -0 0.999987)
(0.00503039 -0 0.999987)
(0.00502166 -0 0.999987)
(0.00501663 4.23511e-19 0.999987)
(0.00500964 -0 0.999987)
(0.00500723 -4.23511e-19 0.999987)
(0.00500339 -0 0.999987)
(0.00499979 -0 0.999988)
(0.00499867 4.23511e-19 0.999988)
(0.00499592 -0 0.999988)
(0.00499713 -0 0.999988)
(0.00499497 -0 0.999988)
(0.00499703 -0 0.999988)
(0.00499544 4.23511e-19 0.999988)
(0.00499593 -0 0.999988)
(0.00499538 -0 0.999988)
(0.00499808 -4.23511e-19 0.999988)
(0.00499691 -0 0.999988)
(0.00499781 -4.23511e-19 0.999988)
(0.0049973 4.23511e-19 0.999988)
(0.00499781 -0 0.999988)
(0.00499778 4.23511e-19 0.999988)
(0.00499788 -0 0.999988)
(0.00499981 -4.23511e-19 0.999988)
(0.0049994 -0 0.999988)
(0.00499944 -4.23511e-19 0.999988)
(0.00499948 -0 0.999988)
(0.00499928 -0 0.999988)
(0.00499947 -0 0.999988)
(0.0049992 -4.23511e-19 0.999988)
(0.00499948 4.23511e-19 0.999988)
(0.00499918 -4.23511e-19 0.999988)
(0.00500127 -0 0.999987)
(0.00500012 -4.23511e-19 0.999987)
(0.00500056 4.23511e-19 0.999987)
(0.00500001 4.23511e-19 0.999987)
(0.00500023 -0 0.999987)
(0.00499975 -0 0.999988)
(0.00499999 -0 0.999987)
(0.00499948 -0 0.999988)
(0.00499993 -4.23511e-19 0.999988)
(0.00499932 -4.23511e-19 0.999988)
(0.00499981 -0 0.999988)
(0.00499948 -4.23511e-19 0.999988)
(0.00499955 -0 0.999988)
(0.00500127 -4.23511e-19 0.999987)
(0.00500009 4.23511e-19 0.999987)
(0.00500105 -4.23511e-19 0.999987)
(0.0049996 -0 0.999988)
(0.00500098 -0 0.999987)
(0.00499909 -0 0.999988)
(0.0050011 -4.23511e-19 0.999987)
(0.00499848 -0 0.999988)
(0.00500139 -0 0.999987)
(0.00499788 -0 0.999988)
(0.00500187 -4.23511e-19 0.999987)
(0.00499686 4.23511e-19 0.999988)
(0.00500231 -0 0.999987)
(0.00499767 -0 0.999988)
(0.00499907 -0 0.999988)
(0.00500263 -0 0.999987)
(0.00499485 -0 0.999988)
(0.00500635 4.23511e-19 0.999987)
(0.00499128 -0 0.999988)
(0.00501206 -4.23511e-19 0.999987)
(0.0049874 -0 0.999988)
(0.00501604 -4.23511e-19 0.999987)
(0.00498156 -0 0.999988)
(0.00502179 -0 0.999987)
(0.0049744 -0 0.999988)
(0.00502905 -0 0.999987)
(0.00496561 4.23511e-19 0.999988)
(0.00503799 -0 0.999987)
(0.00495522 -0 0.999988)
(0.00504878 -0 0.999987)
(0.00494302 4.23511e-19 0.999988)
(0.00506141 -0 0.999987)
(0.00492889 -4.23511e-19 0.999988)
(0.00507596 -4.23511e-19 0.999987)
(0.00491286 -0 0.999988)
(0.00509241 -4.23511e-19 0.999987)
(0.00489495 -0 0.999988)
(0.00511064 -0 0.999987)
(0.00487532 -0 0.999988)
(0.00513056 -0 0.999987)
(0.00485422 -0 0.999988)
(0.00515185 -0 0.999987)
(0.00483188 -0 0.999988)
(0.00517422 4.23511e-19 0.999987)
(0.00480869 -0 0.999988)
(0.00519722 -0 0.999986)
(0.00478514 -0 0.999989)
(0.00522042 -4.23511e-19 0.999986)
(0.00476154 -0 0.999989)
(0.00524166 -4.23511e-19 0.999986)
(0.00473823 -0 0.999989)
(0.00526417 -4.23511e-19 0.999986)
(0.00471702 -0 0.999989)
(0.00528499 4.23511e-19 0.999986)
(0.00469771 -0 0.999989)
(0.00530363 -0 0.999986)
(0.00468076 -0 0.999989)
(0.00531998 -0 0.999986)
(0.00466624 -4.23512e-19 0.999989)
(0.0053338 -4.2351e-19 0.999986)
(0.00465423 -0 0.999989)
(0.00534518 -0 0.999986)
(0.00464469 -4.23512e-19 0.999989)
(0.00535405 -0 0.999986)
(0.00463784 -0 0.999989)
(0.0053602 -0 0.999986)
(0.00463383 -0 0.999989)
(0.00536352 4.2351e-19 0.999986)
(0.0046326 -0 0.999989)
(0.00536232 -0 0.999986)
(0.0046339 -0 0.999989)
(0.00536029 4.2351e-19 0.999986)
(0.00463885 -0 0.999989)
(0.00535533 -0 0.999986)
(0.00464658 -0 0.999989)
(0.00534737 4.2351e-19 0.999986)
(0.0046572 -4.23512e-19 0.999989)
(0.00533633 4.2351e-19 0.999986)
(0.00467006 -0 0.999989)
(0.0053231 -0 0.999986)
(0.00468472 -4.23512e-19 0.999989)
(0.0053064 -0 0.999986)
(0.00470052 4.23512e-19 0.999989)
(0.00529026 -0 0.999986)
(0.00471843 4.23512e-19 0.999989)
(0.00527278 -0 0.999986)
(0.00473742 -0 0.999989)
(0.00525444 4.23511e-19 0.999986)
(0.00475707 4.23512e-19 0.999989)
(0.00523557 -4.23511e-19 0.999986)
(0.0047767 -0 0.999989)
(0.00521476 -0 0.999986)
(0.00479567 4.23512e-19 0.999989)
(0.00519596 -0 0.999987)
(0.00481538 -4.23512e-19 0.999988)
(0.00517769 -4.23511e-19 0.999987)
(0.00483484 -0 0.999988)
(0.00515984 4.23511e-19 0.999987)
(0.00485304 4.23511e-19 0.999988)
(0.00514065 4.23511e-19 0.999987)
(0.00486979 -0 0.999988)
(0.00512403 4.23511e-19 0.999987)
(0.00488677 4.23511e-19 0.999988)
(0.00510908 -0 0.999987)
(0.0049025 -0 0.999988)
(0.00509538 -0 0.999987)
(0.00491458 -0 0.999988)
(0.00508165 -4.23511e-19 0.999987)
(0.00492706 -0 0.999988)
(0.00506978 -0 0.999987)
(0.00493931 -0 0.999988)
(0.00505945 4.23511e-19 0.999987)
(0.0049505 -0 0.999988)
(0.00504927 -0 0.999987)
(0.00495816 -0 0.999988)
(0.00504119 -0 0.999987)
(0.00496555 -4.23511e-19 0.999988)
(0.00503349 4.23511e-19 0.999987)
(0.00497338 4.23511e-19 0.999988)
(0.0050278 -4.23511e-19 0.999987)
(0.00497854 -0 0.999988)
(0.00502256 -0 0.999987)
(0.0049835 -0 0.999988)
(0.00501747 4.23511e-19 0.999987)
(0.00498694 -0 0.999988)
(0.00501308 -4.23511e-19 0.999987)
(0.00498951 4.23511e-19 0.999988)
(0.00501042 -4.23511e-19 0.999987)
(0.00499374 -0 0.999988)
(0.00500939 -0 0.999987)
(0.00499493 -0 0.999988)
(0.00500552 -0 0.999987)
(0.00499463 -0 0.999988)
(0.00500409 -4.23511e-19 0.999987)
(0.00499632 4.23511e-19 0.999988)
(0.00500484 -0 0.999987)
(0.00499828 -0 0.999988)
(0.00500417 -0 0.999987)
(0.00499723 -4.23511e-19 0.999988)
(0.00500328 -0 0.999987)
(0.00499664 -4.23511e-19 0.999988)
(0.005002 4.23511e-19 0.999987)
(0.00499635 -0 0.999988)
(0.00500313 -0 0.999987)
(0.00499751 -0 0.999988)
(0.00500564 4.23511e-19 0.999987)
(0.00499783 -4.23511e-19 0.999988)
(0.00500082 -0 0.999987)
(0.00499809 -4.23511e-19 0.999988)
(0.00499982 -4.23511e-19 0.999988)
(0.00499597 4.23511e-19 0.999988)
(0.00500382 -0 0.999987)
(0.00499395 -0 0.999988)
(0.00500866 -0 0.999987)
(0.00498934 4.23511e-19 0.999988)
(0.00500499 -0 0.999987)
(0.00499792 -0 0.999988)
(0.00499621 -4.23511e-19 0.999988)
(0.00500077 -0 0.999987)
(0.00499324 4.23511e-19 0.999988)
(0.00502044 -0 0.999987)
(0.00492907 -4.23511e-19 0.999988)
(0.00504844 -0 0.999987)
(0.00504649 4.23511e-19 0.999987)
(0.0049415 -4.23511e-19 0.999988)
(0.00515079 -4.23511e-19 0.999987)
(0.00447862 -0 0.99999)
(0.00643765 8.47015e-19 0.999979)
(0.00309083 -4.23514e-19 0.999995)
(0.00641636 -0 0.999979)
(0.00425905 -4.23513e-19 0.999991)
(0.00646599 -0 0.999979)
(0.0320473 -0 0.999486)
(0.00499994 -0 0.999988)
(0.00499994 -0 0.999988)
(0.00499994 -0 0.999988)
)
;

boundaryField
{
    inlet
    {
        type            calculated;
        value           uniform (0 0 0);
    }
    outlet
    {
        type            calculated;
        value           uniform (0 0 0);
    }
    sideWall
    {
        type            empty;
    }
}


// ************************************************************************* //
