/*--------------------------------*- C++ -*----------------------------------*\
| =========                 |                                                 |
| \\      /  F ield         | foam-extend: Open Source CFD                    |
|  \\    /   O peration     | Version:     3.2                                |
|   \\  /    A nd           | Web:         http://www.foam-extend.org         |
|    \\/     M anipulation  | For copyright notice see file Copyright         |
\*---------------------------------------------------------------------------*/
FoamFile
{
    version     2.0;
    format      ascii;
    class       areaVectorField;
    location    "2000";
    object      Utau;
}
// * * * * * * * * * * * * * * * * * * * * * * * * * * * * * * * * * * * * * //

dimensions      [0 1 -1 0 0 0 0];

internalField   nonuniform List<vector> 
300
(
(0.334915 0 -0.00167457)
(0.370809 0 -0.00185404)
(0.340989 0 -0.00170495)
(0.313243 0 -0.00156622)
(0.296204 4.68377e-23 -0.00148102)
(0.288865 -1.83537e-23 -0.00144433)
(0.28598 -3.98668e-23 -0.0014299)
(0.285622 -3.93826e-23 -0.00142811)
(0.286107 1.18239e-26 -0.00143054)
(0.287096 -3.5425e-23 -0.00143548)
(0.288283 5.70983e-27 -0.00144141)
(0.289484 2.61263e-23 -0.00144742)
(0.290645 0 -0.00145322)
(0.291864 2.35955e-23 -0.00145932)
(0.293028 2.19205e-27 -0.00146514)
(0.294203 -1.4295e-28 -0.00147101)
(0.295441 2.20017e-23 -0.00147721)
(0.296675 -2.13045e-23 -0.00148337)
(0.297931 2.09338e-23 -0.00148966)
(0.299192 0 -0.00149596)
(0.300452 0 -0.00150226)
(0.301708 -2.11995e-23 -0.00150854)
(0.302996 2.6336e-27 -0.00151498)
(0.304316 0 -0.00152158)
(0.305591 0 -0.00152795)
(0.306761 -1.93732e-23 -0.0015338)
(0.307814 0 -0.00153907)
(0.308738 0 -0.00154369)
(0.309538 0 -0.00154769)
(0.310221 -1.06615e-23 -0.00155111)
(0.310805 0 -0.00155403)
(0.311304 0 -0.00155652)
(0.311719 -1.2956e-27 -0.00155859)
(0.31206 0 -0.0015603)
(0.312332 0 -0.00156166)
(0.312556 0 -0.00156278)
(0.312742 -6.91728e-28 -0.00156371)
(0.312899 0 -0.00156449)
(0.31303 0 -0.00156515)
(0.313143 0 -0.00156571)
(0.313237 -3.82477e-28 -0.00156618)
(0.313319 -1.16199e-24 -0.0015666)
(0.313386 0 -0.00156693)
(0.313447 -8.39165e-25 -0.00156724)
(0.313495 -2.06741e-28 -0.00156747)
(0.313541 0 -0.0015677)
(0.313573 -5.02426e-25 -0.00156787)
(0.313609 0 -0.00156804)
(0.313631 -3.73465e-25 -0.00156815)
(0.313661 0 -0.0015683)
(0.313668 0 -0.00156834)
(0.313711 -2.20353e-25 -0.00156855)
(0.31367 0 -0.00156835)
(0.313793 -3.52497e-25 -0.00156897)
(0.313568 0 -0.00156784)
(0.314069 0 -0.00157035)
(0.313005 5.04198e-24 -0.00156502)
(0.315032 -9.17073e-28 -0.00157516)
(0.307575 0 -0.00153787)
(0.321727 0 0.00682802)
(0.354925 -2.83605e-22 0.00383126)
(0.348165 0 -0.00509427)
(0.335315 0 -0.00137049)
(0.336328 -1.97554e-23 -0.00168112)
(0.335149 0 -0.00181181)
(0.334622 1.10805e-23 -0.00191835)
(0.333976 0 -0.0019142)
(0.333641 -3.06875e-27 -0.00186638)
(0.333513 4.7055e-24 -0.00183257)
(0.333492 0 -0.00179934)
(0.333512 0 -0.00178398)
(0.333533 0 -0.00176306)
(0.33357 -2.46158e-24 -0.00174897)
(0.333605 1.66584e-28 -0.00173266)
(0.333647 2.05594e-24 -0.00172146)
(0.333685 -1.79968e-24 -0.00170912)
(0.333727 0 -0.00170038)
(0.333764 0 -0.00169243)
(0.333799 -1.03148e-24 -0.00168703)
(0.333828 0 -0.00168246)
(0.333851 0 -0.00167942)
(0.333869 -1.26226e-28 -0.0016766)
(0.333883 3.31305e-25 -0.00167499)
(0.333894 0 -0.00167271)
(0.333905 -1.86084e-25 -0.00167196)
(0.33391 0 -0.0016707)
(0.333919 0 -0.00166955)
(0.333923 1.09612e-25 -0.00166919)
(0.33393 0 -0.00166831)
(0.333934 3.85757e-29 -0.00166873)
(0.333939 3.9747e-29 -0.00166803)
(0.333941 1.84419e-29 -0.00166873)
(0.333943 5.55943e-26 -0.00166821)
(0.333946 -2.04087e-29 -0.00166839)
(0.333949 0 -0.00166822)
(0.33395 4.44615e-26 -0.00166913)
(0.333951 0 -0.00166874)
(0.333952 2.35821e-27 -0.00166905)
(0.333953 2.56217e-26 -0.00166889)
(0.333954 -2.61905e-30 -0.00166906)
(0.333955 2.37558e-26 -0.00166906)
(0.333957 0 -0.0016691)
(0.333957 3.66614e-26 -0.00166974)
(0.333956 0 -0.0016696)
(0.333957 -6.81044e-27 -0.00166962)
(0.333957 -4.22871e-31 -0.00166963)
(0.333958 0 -0.00166957)
(0.333958 0 -0.00166963)
(0.333959 -1.21423e-26 -0.00166955)
(0.333959 9.25281e-27 -0.00166964)
(0.33396 -1.34341e-26 -0.00166955)
(0.333959 9.73437e-30 -0.00167024)
(0.333958 -9.63803e-27 -0.00166985)
(0.333958 -1.00999e-26 -0.00167)
(0.333958 1.14183e-26 -0.00166981)
(0.333958 0 -0.00166989)
(0.333958 0 -0.00166973)
(0.333958 0 -0.00166981)
(0.333959 0 -0.00166964)
(0.333959 3.94517e-27 -0.00166979)
(0.333959 -1.6509e-26 -0.00166959)
(0.33396 0 -0.00166975)
(0.33396 -1.85984e-26 -0.00166965)
(0.333961 0 -0.00166968)
(0.333959 6.28034e-26 -0.00167024)
(0.333959 4.93882e-27 -0.00166985)
(0.333957 7.49933e-27 -0.00167016)
(0.333959 4.08164e-30 -0.00166968)
(0.333957 0 -0.00167013)
(0.333959 -4.8187e-30 -0.00166951)
(0.333956 3.70906e-26 -0.00167017)
(0.333959 0 -0.00166931)
(0.333957 -2.9617e-30 -0.00167027)
(0.333959 0 -0.00166911)
(0.333957 8.91595e-26 -0.00167043)
(0.333959 1.19132e-25 -0.00166877)
(0.33396 0 -0.00167059)
(0.333957 2.82553e-29 -0.00166903)
(0.333963 -6.65871e-30 -0.00166953)
(0.333953 3.16124e-29 -0.00167067)
(0.333969 0 -0.00166815)
(0.333949 -1.62841e-25 -0.00167189)
(0.333972 3.28519e-29 -0.00166697)
(0.333945 3.82423e-25 -0.00167377)
(0.333973 0 -0.00166567)
(0.333938 4.887e-25 -0.00167507)
(0.333976 -7.91776e-29 -0.00166374)
(0.333932 0 -0.00167696)
(0.333981 0 -0.00166138)
(0.333926 0 -0.00167935)
(0.333987 1.14067e-24 -0.00165847)
(0.333918 -1.46343e-28 -0.0016823)
(0.333994 0 -0.00165503)
(0.33391 1.83886e-28 -0.00168586)
(0.334001 1.97188e-24 -0.00165099)
(0.333901 0 -0.00169003)
(0.334009 -2.50711e-24 -0.00164632)
(0.333891 2.81879e-24 -0.00169484)
(0.334018 0 -0.001641)
(0.33388 3.48109e-24 -0.00170028)
(0.334027 0 -0.00163507)
(0.333869 0 -0.00170631)
(0.334037 0 -0.00162856)
(0.333858 0 -0.0017129)
(0.334046 0 -0.00162155)
(0.333846 0 -0.00171995)
(0.334055 5.64029e-28 -0.00161414)
(0.333835 -6.89089e-24 -0.00172736)
(0.334064 -6.30541e-28 -0.00160643)
(0.333825 0 -0.00173498)
(0.334072 0 -0.0015986)
(0.333816 8.9039e-24 -0.00174268)
(0.334078 0 -0.00159074)
(0.333808 9.84198e-24 -0.00174973)
(0.334087 0 -0.001583)
(0.333803 1.08821e-23 -0.00175722)
(0.334092 0 -0.00157594)
(0.333799 -1.18329e-23 -0.00176415)
(0.334095 0 -0.0015695)
(0.333796 0 -0.00177036)
(0.334097 0 -0.00156384)
(0.333795 0 -0.00177581)
(0.334096 -1.36688e-23 -0.00155899)
(0.333796 1.3975e-23 -0.00178043)
(0.334095 0 -0.00155497)
(0.333798 0 -0.00178423)
(0.334092 -1.45668e-23 -0.00155177)
(0.333801 -1.15157e-27 -0.00178721)
(0.334088 0 -0.00154947)
(0.333806 1.19755e-27 -0.00178929)
(0.334083 0 -0.0015481)
(0.333812 -1.51038e-23 -0.00179043)
(0.334076 0 -0.00154766)
(0.33382 -1.25688e-27 -0.00179007)
(0.334072 0 -0.00154808)
(0.33383 -1.49449e-23 -0.00178945)
(0.334066 0 -0.0015497)
(0.33384 0 -0.00178785)
(0.334058 1.27901e-27 -0.00155224)
(0.33385 -1.43378e-23 -0.00178525)
(0.334049 -1.40885e-23 -0.00155575)
(0.333861 -1.38389e-23 -0.00178162)
(0.334041 -1.24528e-27 -0.00156001)
(0.333872 1.24113e-27 -0.00177726)
(0.334033 -1.29511e-23 -0.00156487)
(0.333884 -1.19887e-27 -0.00177175)
(0.334029 1.22801e-23 -0.00157012)
(0.333897 1.15388e-27 -0.00176643)
(0.334023 1.15428e-23 -0.00157608)
(0.333909 -1.09974e-27 -0.00176065)
(0.334018 0 -0.0015824)
(0.33392 -1.0346e-23 -0.00175459)
(0.334012 9.96623e-24 -0.00158894)
(0.33393 9.55552e-24 -0.00174834)
(0.334007 0 -0.00159547)
(0.33394 9.09166e-28 -0.00174144)
(0.334006 8.39248e-24 -0.0016018)
(0.33395 0 -0.00173522)
(0.334003 -7.59287e-24 -0.00160837)
(0.333959 7.17942e-24 -0.00172916)
(0.334 0 -0.00161486)
(0.333966 -6.50209e-24 -0.00172324)
(0.333997 6.15752e-24 -0.00162092)
(0.333972 -5.74325e-24 -0.00171686)
(0.333998 0 -0.00162652)
(0.333979 -5.16215e-24 -0.00171134)
(0.333997 4.92316e-24 -0.00163218)
(0.333984 -3.2454e-28 -0.00170637)
(0.333995 0 -0.00163743)
(0.333987 0 -0.00170181)
(0.333994 0 -0.00164146)
(0.333992 3.50237e-24 -0.00169725)
(0.333995 -2.21119e-28 -0.00164563)
(0.333994 -1.83541e-28 -0.0016933)
(0.333995 0 -0.00164972)
(0.333995 -2.57739e-24 -0.00168985)
(0.333993 0 -0.00165345)
(0.333997 0 -0.00168646)
(0.333994 0 -0.00165602)
(0.333998 0 -0.00168377)
(0.333995 -1.64512e-24 -0.00165849)
(0.333998 -1.35433e-24 -0.0016812)
(0.333995 1.2884e-24 -0.0016611)
(0.333997 1.14101e-24 -0.00167929)
(0.333994 0 -0.00166282)
(0.333997 -3.55619e-28 -0.00167754)
(0.333994 2.62914e-28 -0.00166448)
(0.333996 -7.23145e-25 -0.00167584)
(0.333993 0 -0.00166563)
(0.333994 4.60339e-25 -0.00167436)
(0.333993 5.3012e-25 -0.00166648)
(0.333995 4.20297e-25 -0.00167347)
(0.333992 0 -0.00166789)
(0.333993 0 -0.00167312)
(0.33399 0 -0.00166828)
(0.333991 0 -0.00167182)
(0.333991 0 -0.00166818)
(0.333991 1.05921e-25 -0.00167134)
(0.333991 1.94864e-25 -0.00166875)
(0.33399 -1.29844e-30 -0.00167159)
(0.333988 0 -0.00166939)
(0.333988 -6.47368e-29 -0.00167135)
(0.33399 -1.02024e-25 -0.00166904)
(0.333988 0 -0.00167106)
(0.33399 -1.97824e-25 -0.00166885)
(0.333986 2.11328e-26 -0.00167062)
(0.333989 0 -0.00166875)
(0.333987 -1.92099e-29 -0.001671)
(0.333988 -3.21302e-29 -0.00166913)
(0.333988 -3.28833e-25 -0.00167184)
(0.333986 -8.30433e-26 -0.00166922)
(0.333987 -6.45974e-29 -0.00167023)
(0.333989 -1.0062e-25 -0.00166933)
(0.333982 -1.65042e-25 -0.00166987)
(0.333992 1.32475e-25 -0.00166864)
(0.333983 -4.19208e-29 -0.00167121)
(0.333992 -5.41586e-29 -0.00166796)
(0.333988 0 -0.00167285)
(0.333988 3.73941e-25 -0.0016664)
(0.333995 -1.6041e-28 -0.00167166)
(0.333986 0 -0.00166925)
(0.333994 -2.3944e-25 -0.00166872)
(0.333985 0 -0.0016702)
(0.334009 6.18628e-26 -0.00166781)
(0.333978 0 -0.00167674)
(0.333986 -2.49647e-24 -0.00164626)
(0.334095 -7.21846e-28 -0.00168668)
(0.33386 -9.58047e-25 -0.00168485)
(0.334184 3.49716e-24 -0.00165139)
(0.333315 -5.68557e-24 -0.00171686)
(0.334958 0 -0.00150017)
(0.333353 -1.26517e-22 -0.00214605)
(0.333196 -8.35679e-23 -0.00102986)
(0.335397 4.20293e-26 -0.00215207)
(0.331045 -1.07763e-22 -0.00140995)
(0.343667 0 -0.00222219)
(0.316916 -1.37366e-24 -0.0101615)
(0.299551 0 -0.00149776)
(0.307926 1.10936e-26 -0.00153963)
(0.309938 -1.64678e-26 -0.00154969)
)
;

boundaryField
{
    inlet
    {
        type            calculated;
        value           uniform (0 0 0);
    }
    outlet
    {
        type            calculated;
        value           uniform (0 0 0);
    }
    sideWall
    {
        type            empty;
    }
}


// ************************************************************************* //
