/*--------------------------------*- C++ -*----------------------------------*\
| =========                 |                                                 |
| \\      /  F ield         | foam-extend: Open Source CFD                    |
|  \\    /   O peration     | Version:     3.2                                |
|   \\  /    A nd           | Web:         http://www.foam-extend.org         |
|    \\/     M anipulation  | For copyright notice see file Copyright         |
\*---------------------------------------------------------------------------*/
FoamFile
{
    version     2.0;
    format      ascii;
    class       areaVectorField;
    location    "2000";
    object      Wt;
}
// * * * * * * * * * * * * * * * * * * * * * * * * * * * * * * * * * * * * * //

dimensions      [1 1 -2 0 0 0 0];

internalField   nonuniform List<vector> 
300
(
(2.06482e-08 0 -1.03241e-10)
(2.06482e-08 0 -1.03241e-10)
(2.06482e-08 0 -1.03241e-10)
(2.06482e-08 0 -1.03241e-10)
(2.06482e-08 -1.74897e-24 -1.03241e-10)
(2.06482e-08 -1.74897e-24 -1.03241e-10)
(2.06482e-08 -1.74897e-24 -1.03241e-10)
(2.06482e-08 -1.74897e-24 -1.03241e-10)
(2.06482e-08 0 -1.03241e-10)
(2.06482e-08 -1.74897e-24 -1.03241e-10)
(2.06482e-08 0 -1.03241e-10)
(2.06482e-08 1.74897e-24 -1.03241e-10)
(2.06482e-08 0 -1.03241e-10)
(2.06482e-08 1.74897e-24 -1.03241e-10)
(2.06482e-08 0 -1.03241e-10)
(2.06482e-08 0 -1.03241e-10)
(2.06482e-08 1.74897e-24 -1.03241e-10)
(2.06482e-08 -1.74897e-24 -1.03241e-10)
(2.06482e-08 1.74897e-24 -1.03241e-10)
(2.06482e-08 0 -1.03241e-10)
(2.06482e-08 0 -1.03241e-10)
(2.06482e-08 -1.74897e-24 -1.03241e-10)
(2.06482e-08 0 -1.03241e-10)
(2.06482e-08 0 -1.03241e-10)
(2.06482e-08 0 -1.03241e-10)
(2.06482e-08 -1.74897e-24 -1.03241e-10)
(2.06482e-08 0 -1.03241e-10)
(2.06482e-08 0 -1.03241e-10)
(2.06482e-08 0 -1.03241e-10)
(2.06482e-08 -1.74897e-24 -1.03241e-10)
(2.06482e-08 0 -1.03241e-10)
(2.06482e-08 0 -1.03241e-10)
(2.06482e-08 0 -1.03241e-10)
(2.06482e-08 0 -1.03241e-10)
(2.06482e-08 0 -1.03241e-10)
(2.06482e-08 0 -1.03241e-10)
(2.06482e-08 0 -1.03241e-10)
(2.06482e-08 0 -1.03241e-10)
(2.06482e-08 0 -1.03241e-10)
(2.06482e-08 0 -1.03241e-10)
(2.06482e-08 0 -1.03241e-10)
(2.06482e-08 -1.74897e-24 -1.03241e-10)
(2.06482e-08 0 -1.03241e-10)
(2.06482e-08 -1.74897e-24 -1.03241e-10)
(2.06482e-08 0 -1.03241e-10)
(2.06482e-08 0 -1.03241e-10)
(2.06482e-08 -1.74897e-24 -1.03241e-10)
(2.06482e-08 0 -1.03241e-10)
(2.06482e-08 -1.74897e-24 -1.03241e-10)
(2.06482e-08 0 -1.03241e-10)
(2.06482e-08 0 -1.03241e-10)
(2.06482e-08 -1.74897e-24 -1.03241e-10)
(2.06482e-08 0 -1.03241e-10)
(2.06482e-08 -1.74897e-24 -1.03241e-10)
(2.06482e-08 0 -1.03241e-10)
(2.06482e-08 0 -1.03241e-10)
(2.06482e-08 -1.74897e-24 -1.03241e-10)
(2.06482e-08 0 -1.03241e-10)
(2.06482e-08 0 -1.03241e-10)
(-8.76064e-08 0 -1.85928e-09)
(-4.45737e-08 3.49763e-24 -4.81153e-10)
(6.04126e-08 0 -8.83943e-10)
(1.68787e-08 0 -6.89861e-11)
(2.06419e-08 -1.74897e-24 -1.03178e-10)
(2.23247e-08 0 -1.20686e-10)
(2.36747e-08 -1.74896e-24 -1.35725e-10)
(2.36691e-08 0 -1.35661e-10)
(2.31011e-08 0 -1.29227e-10)
(2.26912e-08 1.74896e-24 -1.24683e-10)
(2.22811e-08 0 -1.20217e-10)
(2.20897e-08 0 -1.1816e-10)
(2.18293e-08 0 -1.1539e-10)
(2.16525e-08 -1.74897e-24 -1.13528e-10)
(2.14483e-08 0 -1.11397e-10)
(2.1307e-08 1.74897e-24 -1.09934e-10)
(2.11519e-08 -1.74897e-24 -1.0834e-10)
(2.1041e-08 0 -1.07206e-10)
(2.09403e-08 0 -1.06182e-10)
(2.08713e-08 -1.74897e-24 -1.05484e-10)
(2.0813e-08 0 -1.04895e-10)
(2.0774e-08 0 -1.04503e-10)
(2.0738e-08 0 -1.0414e-10)
(2.07172e-08 1.74897e-24 -1.03932e-10)
(2.06883e-08 0 -1.03642e-10)
(2.06784e-08 -1.74897e-24 -1.03543e-10)
(2.06625e-08 0 -1.03384e-10)
(2.06476e-08 0 -1.03235e-10)
(2.0643e-08 1.74897e-24 -1.03189e-10)
(2.06317e-08 0 -1.03075e-10)
(2.06366e-08 0 -1.03125e-10)
(2.06277e-08 0 -1.03036e-10)
(2.06362e-08 0 -1.03121e-10)
(2.06296e-08 1.74897e-24 -1.03055e-10)
(2.06317e-08 0 -1.03076e-10)
(2.06294e-08 0 -1.03053e-10)
(2.06406e-08 -1.74897e-24 -1.03164e-10)
(2.06357e-08 0 -1.03116e-10)
(2.06395e-08 -1.74897e-24 -1.03153e-10)
(2.06374e-08 1.74897e-24 -1.03132e-10)
(2.06394e-08 0 -1.03153e-10)
(2.06393e-08 1.74897e-24 -1.03152e-10)
(2.06397e-08 0 -1.03156e-10)
(2.06477e-08 -1.74897e-24 -1.03236e-10)
(2.0646e-08 0 -1.03219e-10)
(2.06462e-08 -1.74897e-24 -1.03221e-10)
(2.06464e-08 0 -1.03222e-10)
(2.06455e-08 0 -1.03214e-10)
(2.06463e-08 0 -1.03222e-10)
(2.06452e-08 -1.74897e-24 -1.03211e-10)
(2.06463e-08 1.74897e-24 -1.03222e-10)
(2.06451e-08 -1.74897e-24 -1.0321e-10)
(2.06537e-08 0 -1.03296e-10)
(2.0649e-08 -1.74897e-24 -1.03249e-10)
(2.06508e-08 1.74897e-24 -1.03267e-10)
(2.06485e-08 1.74897e-24 -1.03244e-10)
(2.06494e-08 0 -1.03253e-10)
(2.06475e-08 0 -1.03234e-10)
(2.06484e-08 0 -1.03243e-10)
(2.06463e-08 0 -1.03222e-10)
(2.06482e-08 -1.74897e-24 -1.03241e-10)
(2.06457e-08 -1.74897e-24 -1.03216e-10)
(2.06477e-08 0 -1.03236e-10)
(2.06464e-08 -1.74897e-24 -1.03222e-10)
(2.06466e-08 0 -1.03225e-10)
(2.06537e-08 -1.74897e-24 -1.03296e-10)
(2.06489e-08 1.74897e-24 -1.03247e-10)
(2.06528e-08 -1.74897e-24 -1.03287e-10)
(2.06469e-08 0 -1.03227e-10)
(2.06525e-08 0 -1.03284e-10)
(2.06447e-08 0 -1.03206e-10)
(2.0653e-08 -1.74897e-24 -1.03289e-10)
(2.06422e-08 0 -1.03181e-10)
(2.06542e-08 0 -1.03301e-10)
(2.06397e-08 0 -1.03156e-10)
(2.06562e-08 -1.74897e-24 -1.03321e-10)
(2.06355e-08 1.74897e-24 -1.03114e-10)
(2.0658e-08 0 -1.03339e-10)
(2.06389e-08 0 -1.03148e-10)
(2.06446e-08 0 -1.03205e-10)
(2.06594e-08 0 -1.03352e-10)
(2.06272e-08 0 -1.03031e-10)
(2.06747e-08 1.74897e-24 -1.03506e-10)
(2.06125e-08 0 -1.02884e-10)
(2.06983e-08 -1.74897e-24 -1.03742e-10)
(2.05964e-08 0 -1.02724e-10)
(2.07147e-08 -1.74897e-24 -1.03907e-10)
(2.05723e-08 0 -1.02484e-10)
(2.07385e-08 0 -1.04146e-10)
(2.05428e-08 0 -1.02189e-10)
(2.07684e-08 0 -1.04447e-10)
(2.05065e-08 1.74897e-24 -1.01829e-10)
(2.08054e-08 0 -1.04819e-10)
(2.04636e-08 0 -1.01403e-10)
(2.08499e-08 0 -1.05268e-10)
(2.04132e-08 1.74897e-24 -1.00904e-10)
(2.09021e-08 0 -1.05796e-10)
(2.03548e-08 -1.74897e-24 -1.00328e-10)
(2.09622e-08 -1.74897e-24 -1.06405e-10)
(2.02886e-08 0 -9.96763e-11)
(2.10301e-08 -1.74897e-24 -1.07095e-10)
(2.02147e-08 0 -9.89511e-11)
(2.11054e-08 0 -1.07864e-10)
(2.01336e-08 0 -9.81589e-11)
(2.11876e-08 0 -1.08706e-10)
(2.00465e-08 0 -9.73113e-11)
(2.12756e-08 0 -1.0961e-10)
(1.99542e-08 0 -9.64177e-11)
(2.13679e-08 1.74897e-24 -1.10564e-10)
(1.98585e-08 0 -9.54944e-11)
(2.14629e-08 0 -1.11549e-10)
(1.97612e-08 0 -9.45612e-11)
(2.15588e-08 -1.74897e-24 -1.12547e-10)
(1.96637e-08 0 -9.36307e-11)
(2.16465e-08 -1.74897e-24 -1.13465e-10)
(1.95675e-08 0 -9.27162e-11)
(2.17394e-08 -1.74897e-24 -1.14442e-10)
(1.94799e-08 0 -9.18882e-11)
(2.18254e-08 1.74897e-24 -1.15349e-10)
(1.94002e-08 0 -9.11374e-11)
(2.19023e-08 0 -1.16163e-10)
(1.93301e-08 0 -9.04807e-11)
(2.19699e-08 0 -1.16881e-10)
(1.92702e-08 -1.74898e-24 -8.99203e-11)
(2.2027e-08 -1.74897e-24 -1.17489e-10)
(1.92206e-08 0 -8.9458e-11)
(2.20739e-08 0 -1.17991e-10)
(1.91812e-08 -1.74898e-24 -8.90917e-11)
(2.21106e-08 0 -1.18383e-10)
(1.91529e-08 0 -8.88292e-11)
(2.2136e-08 0 -1.18655e-10)
(1.91364e-08 0 -8.86757e-11)
(2.21497e-08 1.74897e-24 -1.18802e-10)
(1.91313e-08 0 -8.86286e-11)
(2.21447e-08 0 -1.18749e-10)
(1.91367e-08 0 -8.86784e-11)
(2.21363e-08 1.74897e-24 -1.18659e-10)
(1.91571e-08 0 -8.88679e-11)
(2.21158e-08 0 -1.18439e-10)
(1.9189e-08 0 -8.91642e-11)
(2.2083e-08 1.74897e-24 -1.18088e-10)
(1.92329e-08 -1.74898e-24 -8.95724e-11)
(2.20374e-08 1.74897e-24 -1.176e-10)
(1.9286e-08 0 -9.00676e-11)
(2.19827e-08 0 -1.17018e-10)
(1.93465e-08 -1.74898e-24 -9.06339e-11)
(2.19138e-08 0 -1.16285e-10)
(1.94117e-08 1.74898e-24 -9.12462e-11)
(2.18471e-08 0 -1.15579e-10)
(1.94857e-08 1.74898e-24 -9.1943e-11)
(2.1775e-08 0 -1.14816e-10)
(1.95641e-08 0 -9.26844e-11)
(2.16992e-08 1.74897e-24 -1.14019e-10)
(1.96453e-08 1.74898e-24 -9.34552e-11)
(2.16213e-08 -1.74897e-24 -1.13201e-10)
(1.97263e-08 0 -9.42278e-11)
(2.15354e-08 0 -1.12303e-10)
(1.98047e-08 1.74898e-24 -9.49778e-11)
(2.14577e-08 0 -1.11495e-10)
(1.98861e-08 -1.74898e-24 -9.57603e-11)
(2.13823e-08 -1.74897e-24 -1.10712e-10)
(1.99665e-08 0 -9.65358e-11)
(2.13086e-08 1.74897e-24 -1.0995e-10)
(2.00416e-08 1.74898e-24 -9.72637e-11)
(2.12293e-08 1.74897e-24 -1.09134e-10)
(2.01108e-08 0 -9.79364e-11)
(2.11607e-08 1.74897e-24 -1.08429e-10)
(2.01809e-08 1.74898e-24 -9.86204e-11)
(2.1099e-08 0 -1.07798e-10)
(2.02458e-08 0 -9.92564e-11)
(2.10424e-08 0 -1.0722e-10)
(2.02957e-08 0 -9.97462e-11)
(2.09857e-08 -1.74897e-24 -1.06643e-10)
(2.03473e-08 0 -1.00253e-10)
(2.09366e-08 0 -1.06145e-10)
(2.03978e-08 0 -1.00752e-10)
(2.0894e-08 1.74897e-24 -1.05714e-10)
(2.04441e-08 0 -1.01209e-10)
(2.0852e-08 0 -1.05289e-10)
(2.04757e-08 0 -1.01523e-10)
(2.08186e-08 0 -1.04952e-10)
(2.05062e-08 -1.74897e-24 -1.01826e-10)
(2.07868e-08 1.74897e-24 -1.04632e-10)
(2.05385e-08 1.74897e-24 -1.02147e-10)
(2.07633e-08 -1.74897e-24 -1.04395e-10)
(2.05599e-08 0 -1.02359e-10)
(2.07417e-08 0 -1.04178e-10)
(2.05803e-08 0 -1.02563e-10)
(2.07206e-08 1.74897e-24 -1.03967e-10)
(2.05946e-08 0 -1.02705e-10)
(2.07025e-08 -1.74897e-24 -1.03785e-10)
(2.06052e-08 1.74897e-24 -1.02811e-10)
(2.06915e-08 -1.74897e-24 -1.03674e-10)
(2.06226e-08 0 -1.02985e-10)
(2.06872e-08 0 -1.03632e-10)
(2.06276e-08 0 -1.03035e-10)
(2.06713e-08 0 -1.03472e-10)
(2.06263e-08 0 -1.03022e-10)
(2.06654e-08 -1.74897e-24 -1.03413e-10)
(2.06333e-08 1.74897e-24 -1.03092e-10)
(2.06685e-08 0 -1.03444e-10)
(2.06414e-08 0 -1.03173e-10)
(2.06657e-08 0 -1.03416e-10)
(2.06371e-08 -1.74897e-24 -1.03129e-10)
(2.0662e-08 0 -1.03379e-10)
(2.06346e-08 -1.74897e-24 -1.03105e-10)
(2.06567e-08 1.74897e-24 -1.03326e-10)
(2.06334e-08 0 -1.03093e-10)
(2.06614e-08 0 -1.03373e-10)
(2.06382e-08 0 -1.03141e-10)
(2.06718e-08 1.74897e-24 -1.03477e-10)
(2.06395e-08 -1.74897e-24 -1.03154e-10)
(2.06519e-08 0 -1.03277e-10)
(2.06406e-08 -1.74897e-24 -1.03165e-10)
(2.06478e-08 -1.74897e-24 -1.03236e-10)
(2.06319e-08 1.74897e-24 -1.03077e-10)
(2.06643e-08 0 -1.03402e-10)
(2.06235e-08 0 -1.02994e-10)
(2.06842e-08 0 -1.03602e-10)
(2.06045e-08 1.74897e-24 -1.02804e-10)
(2.06691e-08 0 -1.0345e-10)
(2.06399e-08 0 -1.03158e-10)
(2.06328e-08 -1.74897e-24 -1.03087e-10)
(2.06517e-08 0 -1.03275e-10)
(2.06206e-08 1.74897e-24 -1.02965e-10)
(2.07329e-08 0 -1.0409e-10)
(2.03556e-08 -1.74897e-24 -1.00335e-10)
(2.08485e-08 0 -1.05254e-10)
(2.08405e-08 1.74897e-24 -1.05173e-10)
(2.04069e-08 -1.74897e-24 -1.00842e-10)
(2.12712e-08 -1.74897e-24 -1.09565e-10)
(1.84954e-08 0 -8.28347e-11)
(2.65853e-08 3.49789e-24 -1.71151e-10)
(1.27643e-08 -1.749e-24 -3.94525e-11)
(2.64974e-08 0 -1.7002e-10)
(1.75887e-08 -1.74899e-24 -7.49116e-11)
(2.67024e-08 0 -1.72661e-10)
(1.32279e-07 0 -4.24136e-09)
(2.06482e-08 0 -1.03241e-10)
(2.06482e-08 0 -1.03241e-10)
(2.06482e-08 0 -1.03241e-10)
)
;

boundaryField
{
    inlet
    {
        type            calculated;
        value           uniform (0 0 0);
    }
    outlet
    {
        type            calculated;
        value           uniform (0 0 0);
    }
    sideWall
    {
        type            empty;
    }
}


// ************************************************************************* //
