/*--------------------------------*- C++ -*----------------------------------*\
| =========                 |                                                 |
| \\      /  F ield         | foam-extend: Open Source CFD                    |
|  \\    /   O peration     | Version:     3.2                                |
|   \\  /    A nd           | Web:         http://www.foam-extend.org         |
|    \\/     M anipulation  | For copyright notice see file Copyright         |
\*---------------------------------------------------------------------------*/
FoamFile
{
    version     2.0;
    format      ascii;
    class       areaScalarField;
    location    "2000";
    object      zCo;
}
// * * * * * * * * * * * * * * * * * * * * * * * * * * * * * * * * * * * * * //

dimensions      [0 1 0 0 0 0 0];

internalField   nonuniform List<scalar> 
300
(
-0.000125
-0.000375
-0.000625
-0.000875
-0.001125
-0.001375
-0.001625
-0.001875
-0.002125
-0.002375
-0.002625
-0.002875
-0.003125
-0.003375
-0.003625
-0.003875
-0.004125
-0.004375
-0.004625
-0.004875
-0.005125
-0.005375
-0.005625
-0.005875
-0.006125
-0.006375
-0.006625
-0.006875
-0.007125
-0.007375
-0.007625
-0.007875
-0.008125
-0.008375
-0.008625
-0.008875
-0.009125
-0.009375
-0.009625
-0.009875
-0.010125
-0.010375
-0.010625
-0.010875
-0.011125
-0.011375
-0.011625
-0.011875
-0.012125
-0.012375
-0.012625
-0.012875
-0.013125
-0.013375
-0.013625
-0.013875
-0.014125
-0.014375
-0.014625
-0.0142194
-0.013419
-0.0135149
-0.0139829
-0.01421
-0.0144701
-0.0147486
-0.0150352
-0.0153184
-0.0155956
-0.0158678
-0.0161364
-0.0164023
-0.0166656
-0.0169265
-0.0171853
-0.0174423
-0.0176978
-0.0179519
-0.018205
-0.0184574
-0.0187091
-0.0189605
-0.0192114
-0.0194621
-0.0197125
-0.0199628
-0.0202128
-0.0204628
-0.0207127
-0.0209625
-0.0212123
-0.0214621
-0.0217119
-0.0219617
-0.0222115
-0.0224613
-0.0227112
-0.0229611
-0.023211
-0.0234609
-0.0237107
-0.0239606
-0.0242106
-0.0244606
-0.0247105
-0.0249605
-0.0252105
-0.0254605
-0.0257104
-0.0259604
-0.0262104
-0.0264604
-0.0267104
-0.0269604
-0.0272105
-0.0274605
-0.0277105
-0.0279605
-0.0282105
-0.0284605
-0.0287104
-0.0289604
-0.0292104
-0.0294604
-0.0297104
-0.0299604
-0.0302105
-0.0304605
-0.0307105
-0.0309605
-0.0312105
-0.0314605
-0.0317105
-0.0319605
-0.0322105
-0.0324605
-0.0327105
-0.0329605
-0.0332104
-0.0334604
-0.0337104
-0.0339604
-0.0342103
-0.0344604
-0.0347104
-0.0349605
-0.0352105
-0.0354605
-0.0357104
-0.0359605
-0.0362104
-0.0364605
-0.0367103
-0.0369604
-0.0372102
-0.0374603
-0.0377101
-0.0379602
-0.03821
-0.0384601
-0.0387098
-0.0389599
-0.0392096
-0.0394597
-0.0397093
-0.0399595
-0.0402091
-0.0404593
-0.0407088
-0.040959
-0.0412085
-0.0414587
-0.0417082
-0.0419583
-0.0422078
-0.0424579
-0.0427074
-0.0429575
-0.043207
-0.0434571
-0.0437067
-0.0439567
-0.0442064
-0.0444564
-0.0447061
-0.0449561
-0.0452058
-0.0454558
-0.0457056
-0.0459555
-0.0462054
-0.0464553
-0.0467052
-0.0469551
-0.047205
-0.0474549
-0.0477049
-0.0479547
-0.0482048
-0.0484546
-0.0487047
-0.0489546
-0.0492047
-0.0494546
-0.0497048
-0.0499546
-0.0502047
-0.0504545
-0.0507047
-0.0509545
-0.0512048
-0.0514546
-0.0517049
-0.0519547
-0.052205
-0.0524548
-0.052705
-0.0529548
-0.0532051
-0.053455
-0.0537053
-0.0539551
-0.0542055
-0.0544553
-0.0547056
-0.0549554
-0.0552057
-0.0554556
-0.0557059
-0.0559558
-0.0562061
-0.056456
-0.0567062
-0.0569561
-0.0572064
-0.0574563
-0.0577066
-0.0579566
-0.0582068
-0.0584568
-0.0587069
-0.0589569
-0.0592071
-0.0594571
-0.0597073
-0.0599573
-0.0602075
-0.0604575
-0.0607076
-0.0609576
-0.0612077
-0.0614577
-0.0617078
-0.0619579
-0.062208
-0.062458
-0.062708
-0.062958
-0.063208
-0.063458
-0.0637081
-0.0639582
-0.0642082
-0.0644582
-0.0647082
-0.0649582
-0.0652082
-0.0654581
-0.0657082
-0.0659582
-0.0662083
-0.0664583
-0.0667083
-0.0669582
-0.0672081
-0.0674581
-0.0677081
-0.0679581
-0.0682081
-0.068458
-0.068708
-0.0689579
-0.0692078
-0.0694577
-0.069708
-0.0699568
-0.0702062
-0.0704586
-0.0707083
-0.0709606
-0.0712013
-0.0714742
-0.0717125
-0.0719501
-0.072217
-0.0724852
-0.0734484
-0.074375
-0.074625
-0.074875
)
;

boundaryField
{
    inlet
    {
        type            calculated;
        value           uniform 0;
    }
    outlet
    {
        type            calculated;
        value           uniform 0;
    }
    sideWall
    {
        type            empty;
    }
}


// ************************************************************************* //
