/*--------------------------------*- C++ -*----------------------------------*\
| =========                 |                                                 |
| \\      /  F ield         | foam-extend: Open Source CFD                    |
|  \\    /   O peration     | Version:     3.2                                |
|   \\  /    A nd           | Web:         http://www.foam-extend.org         |
|    \\/     M anipulation  | For copyright notice see file Copyright         |
\*---------------------------------------------------------------------------*/
FoamFile
{
    version     2.0;
    format      ascii;
    class       areaScalarField;
    location    "2000";
    object      zDimA;
}
// * * * * * * * * * * * * * * * * * * * * * * * * * * * * * * * * * * * * * //

dimensions      [0 1 0 0 0 0 0];

internalField   nonuniform List<scalar> 
300
(
0.004
0.004
0.004
0.004
0.004
0.004
0.004
0.004
0.004
0.004
0.004
0.004
0.004
0.004
0.004
0.004
0.004
0.004
0.004
0.004
0.004
0.004
0.004
0.004
0.004
0.004
0.004
0.004
0.004
0.004
0.004
0.004
0.004
0.004
0.004
0.004
0.004
0.004
0.004
0.004
0.004
0.004
0.004
0.004
0.004
0.004
0.004
0.004
0.004
0.004
0.004
0.004
0.004
0.004
0.004
0.004
0.004
0.00400005
0.00399931
0.00480637
0.00427871
0.00447057
0.00395584
0.00399665
0.00401757
0.00403393
0.00403403
0.00402725
0.00402232
0.0040174
0.0040151
0.00401198
0.00400985
0.0040074
0.0040057
0.00400384
0.0040025
0.00400129
0.00400046
0.00399976
0.00399929
0.00399885
0.0039986
0.00399825
0.00399813
0.00399794
0.00399776
0.00399771
0.00399757
0.00399763
0.00399752
0.00399762
0.00399754
0.00399757
0.00399754
0.00399767
0.00399762
0.00399766
0.00399763
0.00399766
0.00399766
0.00399766
0.00399776
0.00399774
0.00399774
0.00399774
0.00399773
0.00399774
0.00399773
0.00399774
0.00399773
0.00399783
0.00399777
0.0039978
0.00399777
0.00399778
0.00399776
0.00399777
0.00399774
0.00399776
0.00399773
0.00399776
0.00399774
0.00399775
0.00399783
0.00399777
0.00399782
0.00399775
0.00399782
0.00399772
0.00399782
0.00399769
0.00399784
0.00399766
0.00399786
0.00399761
0.00399788
0.00399765
0.00399772
0.0039979
0.00399751
0.00399808
0.00399734
0.00399836
0.00399715
0.00399856
0.00399686
0.00399884
0.00399651
0.0039992
0.00399607
0.00399964
0.00399556
0.00400017
0.00399496
0.00400079
0.00399426
0.00400151
0.00399347
0.00400232
0.00399259
0.00400322
0.00399162
0.0040042
0.00399058
0.00400524
0.00398948
0.00400635
0.00398834
0.00400748
0.00398718
0.00400862
0.00398602
0.00400966
0.00398487
0.00401077
0.00398382
0.0040118
0.00398287
0.00401271
0.00398204
0.00401352
0.00398132
0.0040142
0.00398073
0.00401475
0.00398026
0.00401519
0.00397993
0.00401549
0.00397973
0.00401566
0.00397967
0.0040156
0.00397973
0.0040155
0.00397998
0.00401525
0.00398036
0.00401486
0.00398088
0.00401431
0.00398152
0.00401366
0.00398224
0.00401284
0.00398302
0.00401205
0.0039839
0.00401118
0.00398483
0.00401028
0.0039858
0.00400935
0.00398677
0.00400833
0.0039877
0.0040074
0.00398867
0.0040065
0.00398963
0.00400563
0.00399053
0.00400468
0.00399135
0.00400386
0.00399219
0.00400313
0.00399296
0.00400246
0.00399356
0.00400178
0.00399417
0.00400119
0.00399478
0.00400069
0.00399533
0.00400019
0.0039957
0.00399979
0.00399607
0.00399941
0.00399646
0.00399913
0.00399671
0.00399887
0.00399695
0.00399862
0.00399712
0.00399841
0.00399725
0.00399828
0.00399746
0.00399823
0.00399751
0.00399803
0.0039975
0.00399797
0.00399759
0.00399801
0.00399768
0.00399797
0.00399762
0.00399792
0.0039976
0.00399786
0.00399759
0.00399792
0.00399764
0.00399804
0.00399765
0.0039978
0.00399767
0.00399776
0.00399757
0.00399796
0.00399747
0.00399819
0.00399723
0.003998
0.00399766
0.00399758
0.00399781
0.00399744
0.00399878
0.00399425
0.00400014
0.00400009
0.00399488
0.00400521
0.00397197
0.00406892
0.00390357
0.00406734
0.00396154
0.00407091
0.00534354
0.00401006
0.00399921
0.00400006
)
;

boundaryField
{
    inlet
    {
        type            calculated;
        value           uniform 0;
    }
    outlet
    {
        type            calculated;
        value           uniform 0;
    }
    sideWall
    {
        type            empty;
    }
}


// ************************************************************************* //
