/*--------------------------------*- C++ -*----------------------------------*\
| =========                 |                                                 |
| \\      /  F ield         | foam-extend: Open Source CFD                    |
|  \\    /   O peration     | Version:     3.2                                |
|   \\  /    A nd           | Web:         http://www.foam-extend.org         |
|    \\/     M anipulation  | For copyright notice see file Copyright         |
\*---------------------------------------------------------------------------*/
FoamFile
{
    version     2.0;
    format      ascii;
    class       volScalarField;
    location    "2000";
    object      zDim;
}
// * * * * * * * * * * * * * * * * * * * * * * * * * * * * * * * * * * * * * //

dimensions      [0 1 0 0 0 0 0];

internalField   nonuniform List<scalar> 
2400
(
0.004
0.004
0.004
0.004
0.004
0.004
0.004
0.004
0.004
0.004
0.004
0.004
0.004
0.004
0.004
0.004
0.004
0.004
0.004
0.004
0.004
0.004
0.004
0.004
0.004
0.004
0.004
0.004
0.004
0.004
0.004
0.004
0.004
0.004
0.004
0.004
0.004
0.004
0.004
0.004
0.004
0.004
0.004
0.004
0.004
0.004
0.004
0.004
0.004
0.004
0.004
0.004
0.004
0.004
0.004
0.004
0.004
0.00400005
0.00399931
0.00480637
0.00427871
0.00447057
0.00395584
0.00399665
0.00401757
0.00403393
0.00403403
0.00402725
0.00402232
0.0040174
0.0040151
0.00401198
0.00400985
0.0040074
0.0040057
0.00400384
0.0040025
0.00400129
0.00400046
0.00399976
0.00399929
0.00399885
0.0039986
0.00399825
0.00399813
0.00399794
0.00399776
0.00399771
0.00399757
0.00399763
0.00399752
0.00399762
0.00399754
0.00399757
0.00399754
0.00399767
0.00399762
0.00399766
0.00399763
0.00399766
0.00399766
0.00399766
0.00399776
0.00399774
0.00399774
0.00399774
0.00399773
0.00399774
0.00399773
0.00399774
0.00399773
0.00399783
0.00399777
0.0039978
0.00399777
0.00399778
0.00399776
0.00399777
0.00399774
0.00399776
0.00399773
0.00399776
0.00399774
0.00399775
0.00399783
0.00399777
0.00399782
0.00399775
0.00399782
0.00399772
0.00399782
0.00399769
0.00399784
0.00399766
0.00399786
0.00399761
0.00399788
0.00399765
0.00399772
0.0039979
0.00399751
0.00399808
0.00399734
0.00399836
0.00399715
0.00399856
0.00399686
0.00399884
0.00399651
0.0039992
0.00399607
0.00399964
0.00399556
0.00400017
0.00399496
0.00400079
0.00399426
0.00400151
0.00399347
0.00400232
0.00399259
0.00400322
0.00399162
0.0040042
0.00399058
0.00400524
0.00398948
0.00400635
0.00398834
0.00400748
0.00398718
0.00400862
0.00398602
0.00400966
0.00398487
0.00401077
0.00398382
0.0040118
0.00398287
0.00401271
0.00398204
0.00401352
0.00398132
0.0040142
0.00398073
0.00401475
0.00398026
0.00401519
0.00397993
0.00401549
0.00397973
0.00401566
0.00397967
0.0040156
0.00397973
0.0040155
0.00397998
0.00401525
0.00398036
0.00401486
0.00398088
0.00401431
0.00398152
0.00401366
0.00398224
0.00401284
0.00398302
0.00401205
0.0039839
0.00401118
0.00398483
0.00401028
0.0039858
0.00400935
0.00398677
0.00400833
0.0039877
0.0040074
0.00398867
0.0040065
0.00398963
0.00400563
0.00399053
0.00400468
0.00399135
0.00400386
0.00399219
0.00400313
0.00399296
0.00400246
0.00399356
0.00400178
0.00399417
0.00400119
0.00399478
0.00400069
0.00399533
0.00400019
0.0039957
0.00399979
0.00399607
0.00399941
0.00399646
0.00399913
0.00399671
0.00399887
0.00399695
0.00399862
0.00399712
0.00399841
0.00399725
0.00399828
0.00399746
0.00399823
0.00399751
0.00399803
0.0039975
0.00399797
0.00399759
0.00399801
0.00399768
0.00399797
0.00399762
0.00399792
0.0039976
0.00399786
0.00399759
0.00399792
0.00399764
0.00399804
0.00399765
0.0039978
0.00399767
0.00399776
0.00399757
0.00399796
0.00399747
0.00399819
0.00399723
0.003998
0.00399766
0.00399758
0.00399781
0.00399744
0.00399878
0.00399425
0.00400014
0.00400009
0.00399488
0.00400521
0.00397197
0.00406892
0.00390357
0.00406734
0.00396154
0.00407091
0.00534354
0.00401006
0.00399921
0.00400006
0.004
0.004
0.004
0.004
0.004
0.004
0.004
0.004
0.004
0.004
0.004
0.004
0.004
0.004
0.004
0.004
0.004
0.004
0.004
0.004
0.004
0.004
0.004
0.004
0.004
0.004
0.004
0.004
0.004
0.004
0.004
0.004
0.004
0.004
0.004
0.004
0.004
0.004
0.004
0.004
0.004
0.004
0.004
0.004
0.004
0.004
0.004
0.004
0.004
0.004
0.004
0.004
0.004
0.004
0.004
0.00400001
0.00399993
0.00400084
0.0039894
0.00477489
0.00424167
0.00442727
0.00394182
0.00397459
0.00399631
0.00401279
0.00401351
0.0040073
0.00400276
0.00399821
0.00399614
0.00399329
0.00399135
0.00398907
0.0039875
0.00398575
0.00398449
0.00398335
0.00398256
0.0039819
0.00398146
0.00398104
0.00398081
0.00398047
0.00398036
0.00398017
0.00397999
0.00397994
0.0039798
0.00397985
0.00397975
0.00397984
0.00397976
0.00397978
0.00397975
0.00397988
0.00397983
0.00397987
0.00397984
0.00397986
0.00397986
0.00397986
0.00397996
0.00397994
0.00397994
0.00397994
0.00397993
0.00397994
0.00397993
0.00397994
0.00397993
0.00398003
0.00397997
0.00397999
0.00397997
0.00397998
0.00397995
0.00397997
0.00397994
0.00397996
0.00397993
0.00397996
0.00397994
0.00397994
0.00398003
0.00397997
0.00398002
0.00397995
0.00398001
0.00397992
0.00398002
0.0039799
0.00398003
0.00397987
0.00398005
0.00397982
0.00398007
0.00397986
0.00397992
0.00398009
0.00397972
0.00398026
0.00397955
0.00398054
0.00397937
0.00398072
0.0039791
0.00398099
0.00397876
0.00398133
0.00397835
0.00398175
0.00397785
0.00398226
0.00397728
0.00398285
0.00397661
0.00398353
0.00397585
0.00398431
0.00397501
0.00398516
0.00397408
0.00398609
0.00397308
0.00398709
0.00397203
0.00398814
0.00397093
0.00398922
0.00396982
0.0039903
0.00396871
0.00399129
0.0039676
0.00399234
0.0039666
0.00399332
0.00396569
0.00399419
0.00396489
0.00399495
0.0039642
0.00399559
0.00396363
0.00399612
0.00396318
0.00399654
0.00396286
0.00399682
0.00396267
0.00399698
0.00396261
0.00399691
0.00396267
0.00399682
0.0039629
0.00399658
0.00396326
0.00399621
0.00396377
0.00399569
0.00396437
0.00399506
0.00396506
0.00399428
0.0039658
0.00399352
0.00396665
0.0039927
0.00396754
0.00399184
0.00396847
0.00399095
0.00396939
0.00398997
0.00397028
0.00398909
0.00397121
0.00398824
0.00397213
0.0039874
0.00397299
0.0039865
0.00397378
0.00398572
0.00397458
0.00398502
0.00397532
0.00398438
0.00397589
0.00398373
0.00397648
0.00398318
0.00397706
0.00398271
0.00397759
0.00398222
0.00397794
0.00398184
0.0039783
0.00398149
0.00397868
0.00398124
0.00397892
0.00398098
0.00397914
0.00398073
0.00397931
0.00398055
0.00397945
0.00398043
0.00397965
0.00398036
0.00397967
0.00398017
0.00397967
0.00398013
0.00397979
0.00398019
0.00397987
0.00398012
0.00397977
0.00398005
0.00397975
0.00398004
0.00397981
0.00398013
0.00397984
0.00398019
0.00397977
0.00397991
0.00397981
0.00397994
0.00397982
0.0039802
0.00397969
0.00398032
0.00397933
0.00398005
0.00397977
0.0039798
0.00398011
0.00397974
0.00398094
0.00397652
0.00398219
0.0039822
0.00397722
0.00398695
0.00395536
0.00404847
0.0038895
0.00404629
0.00394542
0.00406024
0.00530282
0.00402535
0.00399789
0.00400017
0.004
0.004
0.004
0.004
0.004
0.004
0.004
0.004
0.004
0.004
0.004
0.004
0.004
0.004
0.004
0.004
0.004
0.004
0.004
0.004
0.004
0.004
0.004
0.004
0.004
0.004
0.004
0.004
0.004
0.004
0.004
0.004
0.004
0.004
0.004
0.004
0.004
0.004
0.004
0.004
0.004
0.004
0.004
0.004
0.004
0.004
0.004
0.004
0.004
0.004
0.004
0.004
0.004
0.004
0.004
0.00400001
0.00399983
0.00400206
0.00397542
0.00470695
0.00416939
0.00434958
0.0039085
0.00393196
0.00395422
0.00397079
0.00397259
0.00396753
0.00396384
0.00396004
0.0039585
0.00395617
0.00395463
0.00395273
0.00395142
0.00394992
0.00394884
0.00394785
0.00394716
0.00394658
0.0039462
0.00394583
0.00394562
0.00394532
0.00394521
0.00394504
0.00394488
0.00394482
0.00394468
0.00394473
0.00394462
0.0039447
0.00394463
0.00394464
0.00394461
0.00394472
0.00394467
0.0039447
0.00394468
0.00394469
0.00394469
0.00394469
0.00394478
0.00394476
0.00394476
0.00394476
0.00394475
0.00394476
0.00394474
0.00394475
0.00394474
0.00394484
0.00394479
0.00394481
0.00394478
0.00394479
0.00394477
0.00394478
0.00394476
0.00394478
0.00394475
0.00394477
0.00394476
0.00394476
0.00394484
0.00394479
0.00394483
0.00394477
0.00394483
0.00394475
0.00394483
0.00394472
0.00394484
0.00394469
0.00394486
0.00394464
0.00394488
0.00394468
0.00394474
0.0039449
0.00394455
0.00394506
0.0039444
0.00394531
0.00394424
0.00394549
0.00394398
0.00394574
0.00394367
0.00394605
0.00394328
0.00394644
0.00394282
0.0039469
0.00394229
0.00394745
0.00394167
0.00394807
0.00394096
0.00394878
0.00394017
0.00394957
0.00393931
0.00395043
0.00393838
0.00395134
0.0039374
0.0039523
0.00393638
0.00395329
0.00393534
0.00395429
0.0039343
0.00395519
0.00393326
0.00395615
0.00393232
0.00395704
0.00393147
0.00395784
0.00393072
0.00395853
0.00393008
0.00395912
0.00392955
0.0039596
0.00392912
0.00395998
0.00392882
0.00396024
0.00392864
0.00396037
0.00392858
0.00396031
0.00392863
0.00396021
0.00392884
0.00395999
0.00392917
0.00395964
0.00392964
0.00395916
0.0039302
0.00395859
0.00393084
0.00395786
0.00393152
0.00395715
0.0039323
0.0039564
0.00393314
0.0039556
0.003934
0.00395479
0.00393485
0.00395388
0.00393568
0.00395307
0.00393655
0.00395228
0.0039374
0.00395152
0.00393819
0.00395068
0.00393892
0.00394997
0.00393968
0.00394934
0.00394037
0.00394874
0.00394089
0.00394814
0.00394144
0.00394764
0.003942
0.00394722
0.00394249
0.00394677
0.0039428
0.00394641
0.00394313
0.0039461
0.00394352
0.00394589
0.00394375
0.00394564
0.00394391
0.00394539
0.00394408
0.00394524
0.00394426
0.00394517
0.00394444
0.00394508
0.00394441
0.00394486
0.0039444
0.00394486
0.0039446
0.00394498
0.00394467
0.00394487
0.00394448
0.00394474
0.00394447
0.00394477
0.00394464
0.00394496
0.00394468
0.00394494
0.00394447
0.00394456
0.00394448
0.00394466
0.00394467
0.00394507
0.00394458
0.00394509
0.00394401
0.00394459
0.00394436
0.00394454
0.00394506
0.00394473
0.0039457
0.00394145
0.00394676
0.00394684
0.00394226
0.00395103
0.00392212
0.00400886
0.0038605
0.00400598
0.00391267
0.00403514
0.00522429
0.00404104
0.00399649
0.00400028
0.004
0.004
0.004
0.004
0.004
0.004
0.004
0.004
0.004
0.004
0.004
0.004
0.004
0.004
0.004
0.004
0.004
0.004
0.004
0.004
0.004
0.004
0.004
0.004
0.004
0.004
0.004
0.004
0.004
0.004
0.004
0.004
0.004
0.004
0.004
0.004
0.004
0.004
0.004
0.004
0.004
0.004
0.004
0.004
0.004
0.004
0.004
0.004
0.004
0.004
0.004
0.004
0.004
0.004
0.004
0.00400002
0.00399972
0.00400328
0.00396178
0.00459257
0.00405528
0.00423849
0.00385543
0.00387017
0.00389214
0.00390863
0.00391188
0.00390857
0.0039062
0.00390358
0.00390287
0.00390135
0.00390043
0.00389911
0.00389823
0.00389712
0.00389632
0.00389556
0.00389504
0.0038946
0.0038943
0.00389402
0.00389386
0.0038936
0.00389352
0.00389337
0.00389322
0.00389316
0.00389303
0.00389306
0.00389296
0.00389303
0.00389295
0.00389295
0.00389291
0.00389301
0.00389296
0.00389298
0.00389295
0.00389297
0.00389296
0.00389296
0.00389303
0.00389302
0.00389302
0.00389302
0.003893
0.00389301
0.003893
0.003893
0.00389299
0.00389308
0.00389304
0.00389306
0.00389304
0.00389304
0.00389303
0.00389303
0.00389301
0.00389303
0.003893
0.00389302
0.00389301
0.00389301
0.00389308
0.00389304
0.00389308
0.00389302
0.00389308
0.003893
0.00389308
0.00389298
0.00389309
0.00389295
0.00389311
0.00389291
0.00389312
0.00389294
0.00389299
0.00389313
0.00389282
0.00389327
0.00389269
0.0038935
0.00389255
0.00389366
0.00389232
0.00389388
0.00389204
0.00389416
0.00389169
0.00389451
0.00389128
0.00389492
0.0038908
0.0038954
0.00389024
0.00389595
0.0038896
0.00389658
0.00388889
0.00389727
0.00388812
0.00389802
0.00388728
0.00389883
0.00388639
0.00389968
0.00388547
0.00390054
0.00388453
0.00390142
0.00388359
0.00390221
0.00388265
0.00390304
0.0038818
0.00390382
0.00388102
0.00390451
0.00388034
0.00390512
0.00387975
0.00390563
0.00387927
0.00390605
0.00387888
0.00390637
0.0038786
0.00390659
0.00387843
0.0039067
0.00387837
0.00390663
0.0038784
0.00390654
0.00387859
0.00390634
0.00387888
0.00390603
0.0038793
0.0039056
0.0038798
0.00390509
0.00388037
0.00390443
0.00388097
0.0039038
0.00388167
0.00390313
0.00388242
0.00390243
0.00388319
0.00390171
0.00388396
0.0039009
0.00388469
0.00390018
0.00388547
0.00389949
0.00388624
0.00389881
0.00388695
0.00389807
0.0038876
0.00389744
0.00388829
0.00389689
0.00388892
0.00389637
0.00388937
0.00389583
0.00388987
0.0038954
0.00389039
0.00389505
0.00389085
0.00389465
0.0038911
0.00389431
0.0038914
0.00389405
0.00389179
0.00389391
0.00389201
0.00389368
0.00389211
0.00389342
0.00389225
0.00389331
0.00389249
0.00389331
0.00389267
0.00389322
0.00389255
0.00389294
0.00389253
0.00389297
0.00389282
0.00389318
0.00389292
0.00389305
0.00389261
0.00389282
0.00389256
0.00389285
0.00389288
0.00389322
0.00389297
0.00389316
0.00389258
0.00389259
0.00389252
0.00389272
0.00389293
0.00389339
0.00389296
0.00389334
0.00389214
0.00389249
0.00389224
0.00389256
0.00389342
0.0038932
0.00389388
0.00388988
0.00389463
0.00389481
0.00389077
0.00389835
0.00387288
0.00395094
0.00381739
0.00394734
0.00386419
0.00399126
0.00510025
0.00405252
0.00399548
0.00400036
0.004
0.004
0.004
0.004
0.004
0.004
0.004
0.004
0.004
0.004
0.004
0.004
0.004
0.004
0.004
0.004
0.004
0.004
0.004
0.004
0.004
0.004
0.004
0.004
0.004
0.004
0.004
0.004
0.004
0.004
0.004
0.004
0.004
0.004
0.004
0.004
0.004
0.004
0.004
0.004
0.004
0.004
0.004
0.004
0.004
0.004
0.004
0.004
0.004
0.004
0.004
0.004
0.004
0.004
0.004
0.00400003
0.00399964
0.0040041
0.00395248
0.00442202
0.00389366
0.00409499
0.00378323
0.00379102
0.00381145
0.00382751
0.0038325
0.00383152
0.00383097
0.00382995
0.00383036
0.00382994
0.00382987
0.00382933
0.00382905
0.00382847
0.00382808
0.00382764
0.00382736
0.0038271
0.00382694
0.00382676
0.00382667
0.00382649
0.00382643
0.00382632
0.00382619
0.00382613
0.00382601
0.00382603
0.00382593
0.00382597
0.0038259
0.00382588
0.00382584
0.00382592
0.00382587
0.00382588
0.00382585
0.00382585
0.00382584
0.00382583
0.00382589
0.00382588
0.00382588
0.00382588
0.00382587
0.00382587
0.00382585
0.00382586
0.00382585
0.00382593
0.00382589
0.00382591
0.00382589
0.0038259
0.00382588
0.00382589
0.00382587
0.00382588
0.00382586
0.00382587
0.00382586
0.00382586
0.00382593
0.00382589
0.00382593
0.00382588
0.00382593
0.00382587
0.00382593
0.00382585
0.00382594
0.00382582
0.00382595
0.00382578
0.00382596
0.00382581
0.00382584
0.00382597
0.00382571
0.00382609
0.00382559
0.00382629
0.00382548
0.00382642
0.00382528
0.00382661
0.00382505
0.00382685
0.00382475
0.00382713
0.0038244
0.00382748
0.00382398
0.00382788
0.0038235
0.00382834
0.00382295
0.00382886
0.00382234
0.00382943
0.00382167
0.00383006
0.00382095
0.00383073
0.00382018
0.00383143
0.00381939
0.00383215
0.00381857
0.00383287
0.00381776
0.00383351
0.00381693
0.0038342
0.00381619
0.00383483
0.00381551
0.00383539
0.00381491
0.00383588
0.0038144
0.0038363
0.00381397
0.00383663
0.00381362
0.00383689
0.00381337
0.00383706
0.00381322
0.00383715
0.00381316
0.00383708
0.00381317
0.00383698
0.00381332
0.00383681
0.00381357
0.00383654
0.00381392
0.00383617
0.00381434
0.00383574
0.00381483
0.00383518
0.00381534
0.00383465
0.00381593
0.00383408
0.00381656
0.00383349
0.00381722
0.00383289
0.00381788
0.00383221
0.0038185
0.0038316
0.00381917
0.00383103
0.00381983
0.00383047
0.00382044
0.00382984
0.00382099
0.00382931
0.00382159
0.00382888
0.00382215
0.00382845
0.00382253
0.00382798
0.00382294
0.00382762
0.00382342
0.00382736
0.00382384
0.00382705
0.00382403
0.00382673
0.00382426
0.00382651
0.00382465
0.00382646
0.00382488
0.00382628
0.00382492
0.003826
0.003825
0.0038259
0.00382528
0.00382601
0.00382549
0.00382595
0.00382531
0.00382561
0.00382523
0.00382561
0.00382558
0.00382593
0.00382576
0.00382587
0.00382538
0.0038255
0.00382521
0.00382545
0.00382564
0.00382603
0.00382587
0.00382604
0.00382537
0.00382525
0.00382511
0.00382526
0.00382565
0.00382623
0.00382596
0.0038263
0.00382502
0.00382502
0.00382463
0.00382498
0.00382619
0.0038262
0.00382663
0.00382301
0.00382701
0.0038273
0.00382392
0.00383016
0.0038087
0.00387583
0.00376147
0.0038715
0.00380127
0.00392531
0.00492255
0.00405617
0.00399517
0.00400038
0.004
0.004
0.004
0.004
0.004
0.004
0.004
0.004
0.004
0.004
0.004
0.004
0.004
0.004
0.004
0.004
0.004
0.004
0.004
0.004
0.004
0.004
0.004
0.004
0.004
0.004
0.004
0.004
0.004
0.004
0.004
0.004
0.004
0.004
0.004
0.004
0.004
0.004
0.004
0.004
0.004
0.004
0.004
0.004
0.004
0.004
0.004
0.004
0.004
0.004
0.004
0.004
0.004
0.004
0.004
0.00400003
0.00399963
0.00400427
0.00395057
0.00418552
0.00368012
0.00391977
0.00369355
0.0036966
0.00371398
0.00372905
0.003736
0.0037379
0.00373964
0.00374063
0.00374245
0.00374339
0.0037444
0.00374484
0.00374533
0.00374543
0.00374555
0.00374553
0.00374556
0.00374554
0.00374555
0.00374551
0.00374552
0.00374542
0.00374541
0.00374534
0.00374524
0.00374519
0.00374509
0.00374509
0.00374499
0.00374501
0.00374494
0.00374491
0.00374486
0.0037449
0.00374485
0.00374485
0.00374482
0.00374481
0.00374479
0.00374478
0.00374483
0.00374481
0.00374481
0.00374481
0.0037448
0.00374479
0.00374478
0.00374478
0.00374477
0.00374483
0.00374481
0.00374483
0.00374481
0.00374482
0.00374481
0.00374481
0.0037448
0.00374481
0.00374479
0.0037448
0.00374478
0.00374479
0.00374484
0.00374481
0.00374484
0.00374481
0.00374485
0.0037448
0.00374485
0.00374478
0.00374486
0.00374476
0.00374486
0.00374473
0.00374487
0.00374474
0.00374477
0.00374487
0.00374466
0.00374496
0.00374457
0.00374512
0.00374449
0.00374523
0.00374434
0.00374538
0.00374416
0.00374556
0.00374392
0.00374578
0.00374364
0.00374604
0.00374331
0.00374635
0.00374293
0.00374669
0.00374249
0.00374709
0.003742
0.00374752
0.00374146
0.00374799
0.00374087
0.00374849
0.00374026
0.00374901
0.00373962
0.00374955
0.00373896
0.00375009
0.0037383
0.00375055
0.00373762
0.00375105
0.00373701
0.00375151
0.00373645
0.00375191
0.00373595
0.00375227
0.00373553
0.00375256
0.00373517
0.0037528
0.00373488
0.00375297
0.00373466
0.00375309
0.00373453
0.00375314
0.00373447
0.00375306
0.00373446
0.00375297
0.00373456
0.00375282
0.00373475
0.00375261
0.00373502
0.00375232
0.00373535
0.00375198
0.00373573
0.00375155
0.00373612
0.00375113
0.00373658
0.00375069
0.00373707
0.00375023
0.0037376
0.00374978
0.00373812
0.00374925
0.0037386
0.00374878
0.00373913
0.00374835
0.00373967
0.00374794
0.00374016
0.00374746
0.00374058
0.00374705
0.00374106
0.00374673
0.00374153
0.00374644
0.00374183
0.00374607
0.00374214
0.00374578
0.00374254
0.00374562
0.00374291
0.00374542
0.00374307
0.00374516
0.00374322
0.00374496
0.00374355
0.00374499
0.0037438
0.00374492
0.00374383
0.00374465
0.00374383
0.00374451
0.00374408
0.00374469
0.00374435
0.00374475
0.00374419
0.00374437
0.00374401
0.00374426
0.00374432
0.00374466
0.00374461
0.00374475
0.00374429
0.00374432
0.00374398
0.00374406
0.00374433
0.00374475
0.00374475
0.00374499
0.00374435
0.00374411
0.00374384
0.00374381
0.00374425
0.00374491
0.00374489
0.00374534
0.00374418
0.00374387
0.00374321
0.00374333
0.00374466
0.00374496
0.0037453
0.00374232
0.00374537
0.00374576
0.00374315
0.00374796
0.00373103
0.00378479
0.0036945
0.00377976
0.00372556
0.00383556
0.0046821
0.00404954
0.00399576
0.00400033
0.004
0.004
0.004
0.004
0.004
0.004
0.004
0.004
0.004
0.004
0.004
0.004
0.004
0.004
0.004
0.004
0.004
0.004
0.004
0.004
0.004
0.004
0.004
0.004
0.004
0.004
0.004
0.004
0.004
0.004
0.004
0.004
0.004
0.004
0.004
0.004
0.004
0.004
0.004
0.004
0.004
0.004
0.004
0.004
0.004
0.004
0.004
0.004
0.004
0.004
0.004
0.004
0.004
0.004
0.004
0.00400003
0.00399969
0.00400362
0.00395803
0.00387328
0.00343165
0.00371316
0.0035889
0.00358917
0.00360183
0.00361525
0.00362426
0.00362955
0.00363402
0.0036374
0.00364087
0.00364344
0.00364572
0.00364736
0.00364876
0.00364968
0.00365042
0.00365092
0.00365132
0.00365159
0.00365181
0.00365195
0.00365207
0.00365209
0.00365213
0.00365212
0.00365207
0.00365203
0.00365194
0.00365192
0.00365183
0.00365182
0.00365175
0.0036517
0.00365165
0.00365166
0.00365161
0.00365159
0.00365155
0.00365153
0.00365151
0.00365149
0.00365151
0.0036515
0.00365149
0.00365149
0.00365148
0.00365148
0.00365146
0.00365146
0.00365145
0.00365149
0.00365148
0.00365149
0.00365149
0.00365149
0.00365149
0.00365149
0.00365148
0.00365148
0.00365147
0.00365147
0.00365146
0.00365146
0.0036515
0.00365149
0.00365151
0.00365149
0.00365152
0.00365148
0.00365152
0.00365147
0.00365152
0.00365146
0.00365152
0.00365143
0.00365152
0.00365144
0.00365145
0.00365152
0.00365138
0.00365157
0.00365131
0.00365168
0.00365127
0.00365176
0.00365118
0.00365186
0.00365106
0.00365198
0.0036509
0.00365212
0.00365071
0.00365228
0.00365048
0.00365247
0.00365021
0.00365268
0.00364991
0.00365292
0.00364957
0.00365318
0.00364919
0.00365346
0.00364878
0.00365376
0.00364835
0.00365407
0.00364789
0.00365439
0.00364743
0.0036547
0.00364696
0.00365496
0.00364647
0.00365523
0.00364601
0.00365548
0.0036456
0.00365569
0.00364523
0.00365588
0.00364492
0.00365603
0.00364464
0.00365615
0.00364442
0.00365623
0.00364425
0.00365627
0.00364414
0.00365628
0.00364408
0.0036562
0.00364405
0.00365612
0.0036441
0.003656
0.0036442
0.00365585
0.00364438
0.00365566
0.00364459
0.00365544
0.00364484
0.00365515
0.00364509
0.00365487
0.00364539
0.00365458
0.00364572
0.00365429
0.00364608
0.00365401
0.00364643
0.00365368
0.00364675
0.00365338
0.00364711
0.00365311
0.00364748
0.00365287
0.00364782
0.00365258
0.00364811
0.00365231
0.00364843
0.00365213
0.00364878
0.00365199
0.00364901
0.00365176
0.00364921
0.00365156
0.00364947
0.0036515
0.00364977
0.00365144
0.00364991
0.00365127
0.00364999
0.0036511
0.00365021
0.00365117
0.00365045
0.00365122
0.00365052
0.00365103
0.00365046
0.00365085
0.0036506
0.00365103
0.00365088
0.00365122
0.00365086
0.00365093
0.00365062
0.00365069
0.00365075
0.00365103
0.00365111
0.00365131
0.00365099
0.00365097
0.00365063
0.00365051
0.0036507
0.00365107
0.00365122
0.00365157
0.00365116
0.00365088
0.00365053
0.00365026
0.00365051
0.00365109
0.00365131
0.00365191
0.00365119
0.00365077
0.00364993
0.00364961
0.0036506
0.00365108
0.00365147
0.00364943
0.00365136
0.00365187
0.00365017
0.00365341
0.00364166
0.00367915
0.00361866
0.0036734
0.00363904
0.00372196
0.00436895
0.00403149
0.00399732
0.0040002
0.004
0.004
0.004
0.004
0.004
0.004
0.004
0.004
0.004
0.004
0.004
0.004
0.004
0.004
0.004
0.004
0.004
0.004
0.004
0.004
0.004
0.004
0.004
0.004
0.004
0.004
0.004
0.004
0.004
0.004
0.004
0.004
0.004
0.004
0.004
0.004
0.004
0.004
0.004
0.004
0.004
0.004
0.004
0.004
0.004
0.004
0.004
0.004
0.004
0.004
0.004
0.004
0.004
0.004
0.004
0.00400002
0.00399982
0.0040021
0.00397561
0.00372561
0.0033568
0.00347515
0.00347249
0.00347108
0.00347734
0.00348828
0.00349939
0.00350853
0.00351611
0.00352223
0.00352758
0.003532
0.00353573
0.00353873
0.00354119
0.00354308
0.00354454
0.00354564
0.00354648
0.00354709
0.00354756
0.0035479
0.00354816
0.00354831
0.00354842
0.00354848
0.00354848
0.00354846
0.0035484
0.00354835
0.00354828
0.00354823
0.00354816
0.0035481
0.00354803
0.003548
0.00354796
0.00354792
0.00354788
0.00354785
0.00354781
0.00354778
0.00354778
0.00354777
0.00354777
0.00354776
0.00354775
0.00354774
0.00354773
0.00354772
0.00354771
0.00354773
0.00354773
0.00354774
0.00354774
0.00354775
0.00354775
0.00354775
0.00354774
0.00354774
0.00354773
0.00354773
0.00354772
0.00354772
0.00354773
0.00354774
0.00354775
0.00354775
0.00354776
0.00354776
0.00354777
0.00354775
0.00354777
0.00354774
0.00354777
0.00354773
0.00354775
0.00354772
0.00354771
0.00354775
0.00354768
0.00354776
0.00354766
0.0035478
0.00354766
0.00354785
0.00354763
0.00354789
0.00354759
0.00354793
0.00354753
0.00354797
0.00354744
0.00354802
0.00354734
0.00354806
0.00354722
0.00354811
0.00354708
0.00354816
0.00354692
0.00354822
0.00354674
0.00354827
0.00354654
0.00354833
0.00354634
0.00354838
0.00354612
0.00354843
0.00354589
0.00354848
0.00354565
0.00354849
0.00354539
0.00354849
0.00354514
0.00354849
0.00354491
0.00354848
0.0035447
0.00354846
0.00354451
0.00354844
0.00354435
0.00354841
0.00354421
0.00354838
0.0035441
0.00354834
0.00354402
0.0035483
0.00354396
0.00354823
0.0035439
0.00354815
0.00354388
0.00354807
0.0035439
0.003548
0.00354395
0.00354792
0.00354403
0.00354784
0.00354412
0.00354774
0.0035442
0.00354763
0.00354431
0.00354752
0.00354443
0.00354744
0.00354458
0.00354736
0.00354473
0.00354727
0.00354486
0.00354717
0.003545
0.0035471
0.00354517
0.00354706
0.00354534
0.003547
0.00354546
0.00354691
0.00354559
0.00354689
0.00354576
0.00354691
0.00354591
0.00354687
0.00354599
0.00354679
0.00354609
0.00354681
0.00354628
0.0035469
0.00354641
0.00354688
0.00354643
0.00354678
0.00354648
0.00354685
0.00354667
0.00354701
0.00354681
0.00354698
0.00354675
0.00354681
0.00354671
0.0035469
0.00354694
0.00354717
0.0035471
0.00354709
0.00354689
0.00354679
0.00354677
0.00354692
0.00354707
0.00354731
0.00354727
0.00354722
0.00354698
0.00354672
0.00354667
0.00354687
0.00354711
0.0035475
0.0035475
0.00354733
0.00354698
0.00354655
0.00354643
0.00354672
0.00354706
0.0035477
0.00354769
0.00354741
0.00354665
0.00354591
0.00354606
0.00354651
0.00354701
0.00354619
0.00354679
0.00354743
0.00354684
0.00354829
0.00354264
0.00356021
0.0035365
0.00355366
0.003544
0.00358598
0.00397237
0.00400235
0.0039998
0.004
)
;

boundaryField
{
    inlet
    {
        type            calculated;
        value           uniform 0;
    }
    outlet
    {
        type            calculated;
        value           uniform 0;
    }
    sideWall
    {
        type            empty;
    }
    bed
    {
        type            calculated;
        value           uniform 0;
    }
    topWall
    {
        type            calculated;
        value           uniform 0;
    }
}


// ************************************************************************* //
