/*--------------------------------*- C++ -*----------------------------------*\
| =========                 |                                                 |
| \\      /  F ield         | foam-extend: Open Source CFD                    |
|  \\    /   O peration     | Version:     3.2                                |
|   \\  /    A nd           | Web:         http://www.foam-extend.org         |
|    \\/     M anipulation  | For copyright notice see file Copyright         |
\*---------------------------------------------------------------------------*/
FoamFile
{
    version     2.0;
    format      ascii;
    class       surfaceScalarField;
    location    "910";
    object      AdSS2;
}
// * * * * * * * * * * * * * * * * * * * * * * * * * * * * * * * * * * * * * //

dimensions      [0 3 -1 0 0 0 0];

internalField   nonuniform List<scalar> 
65390
(
3.7488e-05
3.72535e-07
3.69644e-05
3.8415e-07
3.62831e-05
5.41791e-07
3.55956e-05
5.47999e-07
3.48723e-05
5.83839e-07
3.41942e-05
5.38692e-07
3.35227e-05
5.32031e-07
3.28966e-05
4.86629e-07
3.22831e-05
4.7401e-07
3.17008e-05
4.42835e-07
3.11365e-05
4.24766e-07
3.06014e-05
3.9571e-07
3.00867e-05
3.75203e-07
2.95954e-05
3.51786e-07
2.91214e-05
3.34604e-07
2.86675e-05
3.14399e-07
2.82343e-05
2.93721e-07
2.78214e-05
2.73434e-07
2.74249e-05
2.57046e-07
2.70439e-05
2.41487e-07
2.66783e-05
2.26167e-07
2.63281e-05
2.10704e-07
2.59933e-05
1.95335e-07
2.56746e-05
1.79259e-07
2.53725e-05
1.6259e-07
2.50873e-05
1.45745e-07
2.48185e-05
1.29357e-07
2.45644e-05
1.14559e-07
2.43236e-05
1.01382e-07
2.4095e-05
8.91132e-08
2.38782e-05
7.73751e-08
2.36728e-05
6.58486e-08
2.34789e-05
5.44721e-08
2.3296e-05
4.34643e-08
2.31235e-05
3.2955e-08
2.29612e-05
2.29205e-08
2.28083e-05
1.34139e-08
2.26644e-05
4.42903e-09
2.25288e-05
-3.87119e-09
2.24009e-05
-1.16196e-08
2.22803e-05
-1.88419e-08
2.21664e-05
-2.55909e-08
2.20589e-05
-3.19156e-08
2.19574e-05
-3.79702e-08
2.18617e-05
-4.37693e-08
2.17716e-05
-4.943e-08
2.16871e-05
-5.49459e-08
2.16078e-05
-6.01662e-08
2.15334e-05
-6.51233e-08
2.14636e-05
-6.96347e-08
2.13979e-05
-7.37696e-08
2.13359e-05
-7.74574e-08
2.12771e-05
-8.0679e-08
2.1221e-05
-8.33952e-08
2.11673e-05
-8.57496e-08
2.11156e-05
-8.77665e-08
2.10658e-05
-8.96945e-08
2.1018e-05
-9.17122e-08
2.09722e-05
-9.36278e-08
2.09284e-05
-9.56475e-08
2.08866e-05
-9.76324e-08
2.08468e-05
-9.97315e-08
2.08092e-05
-1.0177e-07
2.07734e-05
-1.03814e-07
2.07396e-05
-1.05605e-07
2.07075e-05
-1.07386e-07
2.06771e-05
-1.09045e-07
2.06483e-05
-1.10629e-07
2.06209e-05
-1.12191e-07
2.05949e-05
-1.13468e-07
2.05702e-05
-1.14751e-07
2.05466e-05
-1.15839e-07
2.0524e-05
-1.16847e-07
2.05023e-05
-1.17708e-07
2.04812e-05
-1.18515e-07
2.04608e-05
-1.19045e-07
2.04409e-05
-1.19524e-07
2.04212e-05
-1.19723e-07
2.04015e-05
-1.19777e-07
2.03818e-05
-1.19884e-07
2.03622e-05
-1.19837e-07
2.03426e-05
-1.19881e-07
2.0323e-05
-1.19858e-07
2.03036e-05
-1.19961e-07
2.02842e-05
-1.20127e-07
2.02652e-05
-1.20473e-07
2.02465e-05
-1.20775e-07
2.02283e-05
-1.21285e-07
2.02108e-05
-1.21952e-07
2.01941e-05
-1.22767e-07
2.01783e-05
-1.23733e-07
2.01633e-05
-1.2444e-07
2.0149e-05
-1.2519e-07
2.01354e-05
-1.25776e-07
2.01223e-05
-1.26423e-07
2.01098e-05
-1.26929e-07
2.00977e-05
-1.27407e-07
2.00857e-05
-1.27494e-07
2.00738e-05
-1.27601e-07
2.0062e-05
-1.27581e-07
2.00502e-05
-1.27728e-07
2.00385e-05
-1.27747e-07
2.00265e-05
-1.27461e-07
2.00143e-05
-1.27262e-07
2.00018e-05
-1.2701e-07
1.99891e-05
-1.26726e-07
1.99761e-05
-1.26507e-07
1.99628e-05
-1.26168e-07
1.9946e-05
-1.22668e-07
1.99383e-05
-1.02255e-07
1.9942e-05
-8.40182e-08
1.9919e-05
-1.58151e-07
1.9892e-05
-1.87616e-07
1.99081e-05
-7.81531e-08
1.98939e-05
-1.59239e-07
1.98365e-05
-3.59766e-07
1.97896e-05
-2.88041e-07
1.97868e-05
-1.69745e-07
1.97889e-05
-1.68151e-07
1.97676e-05
-1.99098e-07
1.97141e-05
-1.95175e-07
1.9669e-05
-2.03597e-07
1.96941e-05
-5.72519e-08
1.97828e-05
1.77971e-07
1.97629e-05
-6.03722e-08
1.9625e-05
-4.52752e-07
1.95723e-05
-4.04194e-07
1.95349e-05
-2.06317e-07
1.9533e-05
9.97274e-08
1.96826e-05
4.07761e-07
1.97004e-05
-2.62138e-08
1.95037e-05
-6.05458e-07
1.94061e-05
-4.74698e-07
1.94193e-05
-2.41608e-07
1.9368e-05
-1.75429e-07
1.93678e-05
1.02707e-07
1.95202e-05
4.01352e-07
1.95319e-05
1.00055e-08
1.93283e-05
-5.49189e-07
1.92562e-05
-4.73566e-07
1.92643e-05
-2.27888e-07
1.91973e-05
-1.50429e-07
1.91449e-05
1.5458e-07
1.93136e-05
6.78724e-07
1.95346e-05
7.58465e-07
1.94502e-05
2.67002e-08
1.92223e-05
-5.86402e-07
1.91536e-05
-4.48814e-07
1.91234e-05
-1.75413e-07
1.91237e-05
9.54005e-08
1.92585e-05
3.82275e-07
1.92785e-05
1.36122e-08
1.90817e-05
-4.89222e-07
1.90249e-05
-1.48378e-07
1.91904e-05
3.44848e-07
1.92261e-05
2.3856e-09
1.90673e-05
-5.08635e-07
1.89883e-05
-4.06434e-07
1.89919e-05
-1.90074e-07
1.89833e-05
-1.76249e-07
1.89715e-05
-1.73652e-07
1.89586e-05
-1.72303e-07
1.89341e-05
-1.59272e-07
1.88989e-05
-1.45587e-07
1.88574e-05
-1.37744e-07
1.88619e-05
9.20937e-08
1.89854e-05
3.71506e-07
1.901e-05
4.08581e-08
1.88329e-05
-4.30822e-07
1.87835e-05
-1.32118e-07
1.89503e-05
3.23077e-07
1.89747e-05
4.8089e-08
1.88244e-05
-4.39462e-07
1.87629e-05
-3.78455e-07
1.87781e-05
-1.8363e-07
1.87734e-05
-1.63694e-07
1.87552e-05
-1.48931e-07
1.8738e-05
-1.46848e-07
1.87251e-05
-1.50031e-07
1.87142e-05
-1.52833e-07
1.87052e-05
-1.54443e-07
1.86913e-05
-1.49234e-07
1.86416e-05
-1.12797e-07
1.86276e-05
1.07746e-07
1.87622e-05
3.38979e-07
1.88054e-05
4.59076e-08
1.86663e-05
-4.04424e-07
1.85967e-05
-3.43693e-07
1.86054e-05
-1.64845e-07
1.85942e-05
-1.42997e-07
1.85776e-05
-1.37446e-07
1.85683e-05
-1.44064e-07
1.85472e-05
-1.33328e-07
1.85648e-05
7.16405e-08
1.86733e-05
3.48881e-07
1.8697e-05
6.73496e-08
1.85769e-05
-3.99503e-07
1.85209e-05
-3.39169e-07
1.85309e-05
-1.61089e-07
1.85232e-05
-1.43263e-07
1.85203e-05
-1.4535e-07
1.85217e-05
-1.48858e-07
1.85221e-05
-1.49312e-07
1.85216e-05
-1.48826e-07
1.85198e-05
-1.4751e-07
1.85213e-05
-1.5096e-07
1.851e-05
-1.37178e-07
1.85027e-05
-1.39334e-07
1.84932e-05
-1.36258e-07
1.84837e-05
-1.35813e-07
1.84706e-05
-1.31133e-07
1.84609e-05
-1.34438e-07
1.84471e-05
-1.29674e-07
1.84149e-05
-1.06723e-07
1.84128e-05
-1.28697e-07
1.84633e-05
-1.791e-07
1.85152e-05
-1.87822e-07
1.85529e-05
-1.79033e-07
1.85812e-05
-1.69323e-07
1.86101e-05
-1.69618e-07
1.86363e-05
-1.66653e-07
1.86589e-05
-1.62746e-07
1.86821e-05
-1.63237e-07
1.87002e-05
-1.57878e-07
1.87209e-05
-1.60574e-07
1.87372e-05
-1.56023e-07
1.87555e-05
-1.58098e-07
1.87693e-05
-1.53651e-07
1.87848e-05
-1.55371e-07
1.87959e-05
-1.50884e-07
1.88076e-05
-1.51484e-07
1.88141e-05
-1.46264e-07
1.88217e-05
-1.47267e-07
1.88234e-05
-1.41339e-07
1.88279e-05
-1.43825e-07
1.88252e-05
-1.36549e-07
1.8829e-05
-1.43059e-07
1.88245e-05
-1.34537e-07
1.88206e-05
-1.34896e-07
1.88033e-05
-1.21501e-07
1.88092e-05
-1.44609e-07
1.87977e-05
-1.27396e-07
1.87759e-05
-1.17105e-07
1.87489e-05
-1.11978e-07
1.87427e-05
-1.32981e-07
1.87503e-05
-1.46794e-07
1.87558e-05
-1.44709e-07
1.87342e-05
-1.17608e-07
1.87165e-05
-1.21524e-07
1.87099e-05
-1.32649e-07
1.8704e-05
-1.33462e-07
1.86912e-05
-1.26315e-07
1.86724e-05
-1.20437e-07
1.86601e-05
-1.26852e-07
1.86606e-05
-1.39603e-07
1.86672e-05
-1.45763e-07
1.86624e-05
-1.34281e-07
1.86513e-05
-1.279e-07
1.86405e-05
-1.28313e-07
1.86422e-05
-1.40745e-07
1.86346e-05
-1.31474e-07
1.86174e-05
-1.21942e-07
1.85904e-05
-1.1213e-07
1.85749e-05
-1.23683e-07
1.85581e-05
-1.22333e-07
1.85459e-05
-1.26934e-07
1.85346e-05
-1.27918e-07
1.8524e-05
-1.28694e-07
1.85108e-05
-1.26058e-07
1.85026e-05
-1.31129e-07
1.8494e-05
-1.30765e-07
1.84886e-05
-1.33918e-07
1.84847e-05
-1.3561e-07
1.84839e-05
-1.38619e-07
1.84816e-05
-1.37192e-07
1.84803e-05
-1.38268e-07
1.84822e-05
-1.4142e-07
1.84852e-05
-1.42545e-07
1.84856e-05
-1.40011e-07
1.84851e-05
-1.39114e-07
1.84868e-05
-1.41329e-07
1.84935e-05
-1.46413e-07
1.84998e-05
-1.46057e-07
1.85053e-05
-1.45248e-07
1.85091e-05
-1.43569e-07
1.85138e-05
-1.44312e-07
1.85192e-05
-1.45103e-07
1.8524e-05
-1.44503e-07
1.8527e-05
-1.42789e-07
1.85298e-05
-1.42548e-07
1.85325e-05
-1.42396e-07
1.85359e-05
-1.42994e-07
1.85385e-05
-1.42245e-07
1.854e-05
-1.41189e-07
1.85405e-05
-1.40149e-07
1.85407e-05
-1.39762e-07
1.85406e-05
-1.39364e-07
1.85416e-05
-1.40483e-07
1.85425e-05
-1.40398e-07
1.85439e-05
-1.4096e-07
1.85446e-05
-1.40051e-07
1.85447e-05
-1.39562e-07
1.85435e-05
-1.38206e-07
1.85428e-05
-1.38648e-07
1.85411e-05
-1.37684e-07
1.85398e-05
-1.38102e-07
1.8538e-05
-1.37543e-07
1.85365e-05
-1.37797e-07
1.85341e-05
-1.36946e-07
1.85321e-05
-1.37269e-07
1.85295e-05
-1.3677e-07
1.85271e-05
-1.36961e-07
1.85246e-05
-1.36747e-07
1.85223e-05
-1.36987e-07
1.85194e-05
-1.36396e-07
1.85169e-05
-1.36825e-07
1.85145e-05
-1.36898e-07
1.8512e-05
-1.36796e-07
1.851e-05
-1.37318e-07
1.85086e-05
-1.37967e-07
1.85071e-05
-1.37795e-07
1.85059e-05
-1.3819e-07
1.85051e-05
-1.38574e-07
1.85043e-05
-1.38489e-07
1.8504e-05
-1.39051e-07
1.85038e-05
-1.39258e-07
1.85039e-05
-1.3941e-07
1.8504e-05
-1.39639e-07
1.85042e-05
-1.39601e-07
1.85045e-05
-1.39688e-07
1.85049e-05
-1.39804e-07
1.85053e-05
-1.39892e-07
1.85062e-05
-1.40386e-07
1.85076e-05
-1.40971e-07
1.85098e-05
-1.417e-07
1.85124e-05
-1.42186e-07
1.85148e-05
-1.4197e-07
1.85171e-05
-1.41946e-07
1.85191e-05
-1.41726e-07
1.85215e-05
-1.42081e-07
1.85241e-05
-1.42226e-07
1.85266e-05
-1.42324e-07
1.8529e-05
-1.42103e-07
1.85317e-05
-1.42634e-07
1.85341e-05
-1.42228e-07
1.85364e-05
-1.42181e-07
1.85385e-05
-1.42e-07
1.85403e-05
-1.41773e-07
1.85413e-05
-1.41032e-07
1.85418e-05
-1.40562e-07
1.85422e-05
-1.40549e-07
1.8542e-05
-1.39932e-07
1.85409e-05
-1.38964e-07
1.85387e-05
-1.38031e-07
1.85358e-05
-1.37346e-07
1.8531e-05
-1.35485e-07
1.85257e-05
-1.35032e-07
1.85199e-05
-1.34435e-07
1.85127e-05
-1.33054e-07
1.85058e-05
-1.33239e-07
1.84982e-05
-1.32734e-07
1.84894e-05
-1.31496e-07
1.84805e-05
-1.31346e-07
1.84716e-05
-1.314e-07
1.84627e-05
-1.31333e-07
1.84545e-05
-1.32225e-07
1.84478e-05
-1.33573e-07
1.84431e-05
-1.35621e-07
1.84396e-05
-1.36802e-07
1.84354e-05
-1.36052e-07
1.84301e-05
-1.35053e-07
1.84248e-05
-1.35058e-07
1.84194e-05
-1.34879e-07
1.84138e-05
-1.3481e-07
1.84084e-05
-1.34848e-07
1.84032e-05
-1.35171e-07
1.83984e-05
-1.35646e-07
1.83941e-05
-1.3605e-07
1.83904e-05
-1.36616e-07
1.83873e-05
-1.37218e-07
1.83855e-05
-1.38538e-07
1.83842e-05
-1.39095e-07
1.83842e-05
-1.40442e-07
1.83844e-05
-1.40572e-07
1.83852e-05
-1.41105e-07
1.83861e-05
-1.41307e-07
1.8387e-05
-1.41241e-07
1.83878e-05
-1.41254e-07
1.83883e-05
-1.40949e-07
1.83887e-05
-1.40787e-07
1.83888e-05
-1.40519e-07
1.83888e-05
-1.40324e-07
1.83883e-05
-1.39889e-07
1.83873e-05
-1.39542e-07
1.83865e-05
-1.39653e-07
1.83857e-05
-1.39628e-07
1.83849e-05
-1.39599e-07
1.83837e-05
-1.39218e-07
1.83827e-05
-1.39533e-07
1.83814e-05
-1.39192e-07
1.83805e-05
-1.39486e-07
1.83794e-05
-1.39413e-07
1.8378e-05
-1.39092e-07
1.83769e-05
-1.39362e-07
1.83757e-05
-1.39392e-07
1.83741e-05
-1.38911e-07
1.83727e-05
-1.39146e-07
1.83713e-05
-1.39088e-07
1.83696e-05
-1.38857e-07
1.83675e-05
-1.38522e-07
1.83655e-05
-1.38528e-07
1.83634e-05
-1.38473e-07
1.83612e-05
-1.38344e-07
1.83588e-05
-1.38029e-07
1.83561e-05
-1.37883e-07
1.83534e-05
-1.3779e-07
1.83505e-05
-1.37579e-07
1.83474e-05
-1.37343e-07
1.83442e-05
-1.37212e-07
1.83409e-05
-1.37059e-07
1.83375e-05
-1.36878e-07
1.83341e-05
-1.36819e-07
1.83304e-05
-1.36519e-07
1.83268e-05
-1.36512e-07
1.8323e-05
-1.36192e-07
1.83193e-05
-1.36213e-07
1.83155e-05
-1.36169e-07
1.83117e-05
-1.36086e-07
1.83079e-05
-1.35921e-07
1.83041e-05
-1.35889e-07
1.83004e-05
-1.35882e-07
1.82966e-05
-1.35888e-07
1.82929e-05
-1.35866e-07
1.82892e-05
-1.35762e-07
1.82855e-05
-1.35773e-07
1.82819e-05
-1.358e-07
1.82784e-05
-1.35901e-07
1.82751e-05
-1.36052e-07
1.82717e-05
-1.35976e-07
1.82684e-05
-1.35967e-07
1.82651e-05
-1.35977e-07
1.82617e-05
-1.35889e-07
1.82586e-05
-1.3618e-07
1.82555e-05
-1.36143e-07
1.82525e-05
-1.36257e-07
1.82498e-05
-1.36495e-07
1.82472e-05
-1.36599e-07
1.82449e-05
-1.36832e-07
1.82428e-05
-1.3714e-07
1.82408e-05
-1.37182e-07
1.8239e-05
-1.37324e-07
1.82374e-05
-1.37528e-07
1.82359e-05
-1.37635e-07
1.82347e-05
-1.37885e-07
1.82335e-05
-1.37868e-07
1.82324e-05
-1.37828e-07
1.82314e-05
-1.37891e-07
1.82306e-05
-1.37961e-07
1.82299e-05
-1.37968e-07
1.82292e-05
-1.38046e-07
1.82285e-05
-1.37881e-07
1.82279e-05
-1.37815e-07
1.82274e-05
-1.37771e-07
1.82267e-05
-1.37611e-07
1.82262e-05
-1.37695e-07
1.82257e-05
-1.37518e-07
1.82253e-05
-1.3757e-07
1.8225e-05
-1.37576e-07
1.82249e-05
-1.37782e-07
1.82251e-05
-1.38007e-07
1.82257e-05
-1.38396e-07
1.82265e-05
-1.38595e-07
1.82275e-05
-1.38885e-07
1.8229e-05
-1.3931e-07
1.82308e-05
-1.39719e-07
1.82338e-05
-1.41054e-07
1.8238e-05
-1.42426e-07
1.82436e-05
-1.43831e-07
1.82496e-05
-1.44368e-07
1.82561e-05
-1.45032e-07
1.82627e-05
-1.45294e-07
1.82695e-05
-1.45545e-07
1.82763e-05
-1.45701e-07
1.82832e-05
-1.45788e-07
1.82901e-05
-1.45993e-07
1.8297e-05
-1.46029e-07
1.83039e-05
-1.4624e-07
1.83106e-05
-1.46113e-07
1.83173e-05
-1.46016e-07
1.83236e-05
-1.45773e-07
1.83297e-05
-1.45601e-07
1.83355e-05
-1.45307e-07
1.83411e-05
-1.45095e-07
1.83463e-05
-1.44738e-07
1.83514e-05
-1.44472e-07
1.83563e-05
-1.4431e-07
1.83608e-05
-1.43841e-07
1.8365e-05
-1.43594e-07
1.83689e-05
-1.43185e-07
1.83725e-05
-1.42741e-07
1.83758e-05
-1.42507e-07
1.8379e-05
-1.4235e-07
1.8382e-05
-1.42131e-07
1.83851e-05
-1.42305e-07
1.8388e-05
-1.42097e-07
1.83912e-05
-1.42368e-07
1.83942e-05
-1.42345e-07
1.83974e-05
-1.42625e-07
1.84005e-05
-1.42642e-07
1.8404e-05
-1.43044e-07
1.84073e-05
-1.4296e-07
1.84109e-05
-1.43487e-07
1.84142e-05
-1.43354e-07
1.84175e-05
-1.43437e-07
1.84224e-05
-1.45304e-07
1.8425e-05
-1.4306e-07
1.84314e-05
-1.46961e-07
1.84339e-05
-1.43262e-07
1.84444e-05
-1.51473e-07
1.84432e-05
-1.40033e-07
1.84624e-05
-1.60506e-07
1.8455e-05
-1.3403e-07
1.84892e-05
-1.75803e-07
1.84725e-05
-1.24949e-07
1.85239e-05
-1.93239e-07
1.8489e-05
-1.07088e-07
1.85556e-05
-2.08555e-07
1.84954e-05
-8.17937e-08
1.85692e-05
-2.15852e-07
1.84811e-05
-5.40301e-08
1.85468e-05
-2.07838e-07
1.84354e-05
-3.06392e-08
1.84799e-05
-1.86595e-07
1.83493e-05
-1.14221e-08
1.83547e-05
-1.47259e-07
1.81256e-05
8.72946e-08
1.79087e-05
7.52162e-08
1.68528e-05
9.14515e-07
1.39393e-05
2.77271e-06
1.08523e-05
2.94706e-06
9.86174e-06
8.51141e-07
9.64702e-06
7.51824e-08
8.30481e-06
1.20275e-06
6.4382e-06
1.72715e-06
3.50194e-06
2.79681e-06
9.9566e-07
2.36682e-06
-6.33213e-07
1.48942e-06
-2.13236e-06
1.35961e-06
-3.52495e-06
1.25314e-06
-3.6644e-06
3.78641e-05
5.08387e-07
3.76378e-05
6.1046e-07
3.72168e-05
9.62791e-07
3.67853e-05
9.79552e-07
3.6343e-05
1.02608e-06
3.59385e-05
9.43281e-07
3.55517e-05
9.1881e-07
3.52014e-05
8.36918e-07
3.48834e-05
7.91953e-07
3.4625e-05
7.0126e-07
3.43848e-05
6.6499e-07
3.41625e-05
6.18048e-07
3.39441e-05
5.93553e-07
3.37325e-05
5.6341e-07
3.35209e-05
5.462e-07
3.33107e-05
5.24534e-07
3.30916e-05
5.12838e-07
3.28666e-05
4.98485e-07
3.26407e-05
4.82937e-07
3.24165e-05
4.657e-07
3.21945e-05
4.4814e-07
3.1974e-05
4.31178e-07
3.1755e-05
4.14363e-07
3.15377e-05
3.96556e-07
3.1323e-05
3.77338e-07
3.11108e-05
3.57909e-07
3.09015e-05
3.38624e-07
3.06962e-05
3.19901e-07
3.04961e-05
3.0151e-07
3.03005e-05
2.84629e-07
3.01095e-05
2.68389e-07
2.99232e-05
2.52187e-07
2.97419e-05
2.35786e-07
2.95659e-05
2.19428e-07
2.93955e-05
2.03414e-07
2.92308e-05
1.87549e-07
2.90721e-05
1.72163e-07
2.89192e-05
1.57299e-07
2.87718e-05
1.43582e-07
2.86293e-05
1.30868e-07
2.84915e-05
1.18959e-07
2.8358e-05
1.07901e-07
2.82284e-05
9.76768e-08
2.81024e-05
8.79775e-08
2.79802e-05
7.84235e-08
2.78618e-05
6.89618e-08
2.77471e-05
5.98055e-08
2.76362e-05
5.07288e-08
2.75295e-05
4.16062e-08
2.74268e-05
3.30228e-08
2.73282e-05
2.48848e-08
2.7233e-05
1.76769e-08
2.71409e-05
1.14067e-08
2.70515e-05
6.00246e-09
2.69643e-05
1.45069e-09
2.68789e-05
-2.31812e-09
2.6795e-05
-5.76341e-09
2.67126e-05
-9.38631e-09
2.66321e-05
-1.30507e-08
2.65535e-05
-1.7119e-08
2.64772e-05
-2.1263e-08
2.64032e-05
-2.57494e-08
2.63317e-05
-3.02529e-08
2.62626e-05
-3.47047e-08
2.61958e-05
-3.88693e-08
2.61313e-05
-4.28658e-08
2.60688e-05
-4.65983e-08
2.60083e-05
-5.00764e-08
2.59496e-05
-5.35204e-08
2.58927e-05
-5.65616e-08
2.58378e-05
-5.98062e-08
2.57847e-05
-6.28041e-08
2.57338e-05
-6.5871e-08
2.56849e-05
-6.88258e-08
2.5638e-05
-7.16546e-08
2.55931e-05
-7.41284e-08
2.55499e-05
-7.63102e-08
2.5508e-05
-7.78008e-08
2.54669e-05
-7.87152e-08
2.54266e-05
-7.95595e-08
2.53867e-05
-7.99902e-08
2.53473e-05
-8.04909e-08
2.5308e-05
-8.05566e-08
2.52689e-05
-8.07881e-08
2.52298e-05
-8.10368e-08
2.51908e-05
-8.15168e-08
2.51522e-05
-8.21543e-08
2.51141e-05
-8.31771e-08
2.50768e-05
-8.47052e-08
2.5041e-05
-8.68935e-08
2.50068e-05
-8.95302e-08
2.49744e-05
-9.20205e-08
2.49438e-05
-9.46581e-08
2.49148e-05
-9.67605e-08
2.48871e-05
-9.87332e-08
2.48604e-05
-1.00248e-07
2.48339e-05
-1.00914e-07
2.48077e-05
-1.01268e-07
2.47814e-05
-1.01286e-07
2.47548e-05
-1.00991e-07
2.47286e-05
-1.0151e-07
2.47024e-05
-1.0151e-07
2.46762e-05
-1.01296e-07
2.46503e-05
-1.01363e-07
2.4624e-05
-1.00697e-07
2.45982e-05
-1.00929e-07
2.45717e-05
-9.99971e-08
2.4545e-05
-9.94597e-08
2.45165e-05
-9.4191e-08
2.44939e-05
-7.96863e-08
2.44793e-05
-6.93917e-08
2.4446e-05
-1.24843e-07
2.44086e-05
-1.5027e-07
2.44025e-05
-7.19836e-08
2.43821e-05
-1.3892e-07
2.43285e-05
-3.06077e-07
2.42726e-05
-2.3216e-07
2.42591e-05
-1.563e-07
2.42405e-05
-1.49495e-07
2.42085e-05
-1.67098e-07
2.41594e-05
-1.4611e-07
2.41097e-05
-1.53862e-07
2.41118e-05
-5.93618e-08
2.41665e-05
1.23228e-07
2.41555e-05
-4.92996e-08
2.40498e-05
-3.4712e-07
2.39859e-05
-3.40218e-07
2.39327e-05
-1.53119e-07
2.39203e-05
1.1206e-07
2.40194e-05
3.08654e-07
2.40316e-05
-3.83452e-08
2.38894e-05
-4.6326e-07
2.37871e-05
-3.72485e-07
2.37713e-05
-2.25718e-07
2.37258e-05
-1.29982e-07
2.37144e-05
1.14085e-07
2.38061e-05
3.09653e-07
2.38138e-05
2.35521e-09
2.36667e-05
-4.02125e-07
2.35846e-05
-3.91463e-07
2.35538e-05
-1.9703e-07
2.34973e-05
-9.3972e-08
2.34494e-05
2.02493e-07
2.35618e-05
5.66271e-07
2.37284e-05
5.91919e-07
2.36815e-05
7.35459e-08
2.3508e-05
-4.12875e-07
2.34239e-05
-3.64693e-07
2.33778e-05
-1.29338e-07
2.33726e-05
1.00578e-07
2.34627e-05
2.92181e-07
2.34837e-05
-7.36847e-09
2.33345e-05
-3.3996e-07
2.32684e-05
-8.23592e-08
2.33773e-05
2.35932e-07
2.3406e-05
-2.62312e-08
2.32826e-05
-3.85234e-07
2.32027e-05
-3.26608e-07
2.31875e-05
-1.748e-07
2.31745e-05
-1.63288e-07
2.31537e-05
-1.5289e-07
2.31277e-05
-1.46273e-07
2.30971e-05
-1.28635e-07
2.30605e-05
-1.09019e-07
2.30137e-05
-9.09562e-08
2.3006e-05
9.98223e-08
2.30913e-05
2.86235e-07
2.31111e-05
2.0995e-08
2.29824e-05
-3.02133e-07
2.29326e-05
-8.23221e-08
2.30357e-05
2.20039e-07
2.30542e-05
2.95728e-08
2.29439e-05
-3.29192e-07
2.28803e-05
-3.14825e-07
2.28719e-05
-1.75228e-07
2.28574e-05
-1.49166e-07
2.28355e-05
-1.2703e-07
2.28183e-05
-1.29669e-07
2.28032e-05
-1.34979e-07
2.27874e-05
-1.36978e-07
2.2771e-05
-1.3806e-07
2.27451e-05
-1.23292e-07
2.26991e-05
-6.68906e-08
2.26818e-05
1.25055e-07
2.27698e-05
2.51053e-07
2.28102e-05
5.49302e-09
2.27076e-05
-3.0181e-07
2.26382e-05
-2.74371e-07
2.26299e-05
-1.5648e-07
2.26112e-05
-1.24309e-07
2.25912e-05
-1.17448e-07
2.258e-05
-1.32834e-07
2.25538e-05
-1.07134e-07
2.25517e-05
7.36833e-08
2.26234e-05
2.77166e-07
2.26418e-05
4.89702e-08
2.2553e-05
-3.10677e-07
2.25013e-05
-2.87515e-07
2.24924e-05
-1.52166e-07
2.24793e-05
-1.30159e-07
2.24683e-05
-1.34385e-07
2.24587e-05
-1.39218e-07
2.24572e-05
-1.47833e-07
2.24522e-05
-1.43798e-07
2.24476e-05
-1.4288e-07
2.24447e-05
-1.48124e-07
2.24286e-05
-1.21084e-07
2.24226e-05
-1.33256e-07
2.24042e-05
-1.17926e-07
2.23951e-05
-1.26693e-07
2.23812e-05
-1.17191e-07
2.23659e-05
-1.19181e-07
2.23497e-05
-1.13475e-07
2.23272e-05
-8.42406e-08
2.23275e-05
-1.28973e-07
2.23463e-05
-1.97869e-07
2.2379e-05
-2.20535e-07
2.24123e-05
-2.12384e-07
2.24346e-05
-1.91596e-07
2.24596e-05
-1.9463e-07
2.24816e-05
-1.88672e-07
2.25011e-05
-1.82181e-07
2.25195e-05
-1.817e-07
2.25322e-05
-1.7052e-07
2.25487e-05
-1.77122e-07
2.25602e-05
-1.67468e-07
2.25777e-05
-1.75606e-07
2.25896e-05
-1.65586e-07
2.26041e-05
-1.69834e-07
2.26128e-05
-1.596e-07
2.26237e-05
-1.62378e-07
2.26298e-05
-1.52348e-07
2.2637e-05
-1.54546e-07
2.26393e-05
-1.43548e-07
2.26439e-05
-1.48486e-07
2.26415e-05
-1.34123e-07
2.26459e-05
-1.47427e-07
2.26372e-05
-1.259e-07
2.26377e-05
-1.35355e-07
2.26236e-05
-1.07446e-07
2.26278e-05
-1.48823e-07
2.26049e-05
-1.04485e-07
2.26018e-05
-1.13988e-07
2.2576e-05
-8.61498e-08
2.25733e-05
-1.3034e-07
2.25715e-05
-1.44916e-07
2.25618e-05
-1.35091e-07
2.25553e-05
-1.11038e-07
2.25401e-05
-1.06386e-07
2.25269e-05
-1.19447e-07
2.25218e-05
-1.28315e-07
2.25066e-05
-1.11181e-07
2.24939e-05
-1.07712e-07
2.24846e-05
-1.17494e-07
2.24769e-05
-1.31968e-07
2.24761e-05
-1.44908e-07
2.24704e-05
-1.28595e-07
2.2464e-05
-1.21537e-07
2.24519e-05
-1.16141e-07
2.24429e-05
-1.31802e-07
2.24322e-05
-1.20717e-07
2.24229e-05
-1.12735e-07
2.23983e-05
-8.74662e-08
2.23826e-05
-1.08045e-07
2.23632e-05
-1.02929e-07
2.23505e-05
-1.14163e-07
2.23357e-05
-1.13102e-07
2.23241e-05
-1.17144e-07
2.23085e-05
-1.10469e-07
2.22975e-05
-1.20075e-07
2.22861e-05
-1.1941e-07
2.22788e-05
-1.26655e-07
2.22724e-05
-1.29124e-07
2.2268e-05
-1.34282e-07
2.22627e-05
-1.31859e-07
2.22592e-05
-1.34775e-07
2.22575e-05
-1.39724e-07
2.22566e-05
-1.4167e-07
2.22548e-05
-1.38159e-07
2.22538e-05
-1.38139e-07
2.22533e-05
-1.40845e-07
2.22557e-05
-1.48794e-07
2.22581e-05
-1.48429e-07
2.22616e-05
-1.48802e-07
2.22641e-05
-1.46094e-07
2.22671e-05
-1.4728e-07
2.22695e-05
-1.47517e-07
2.2273e-05
-1.48008e-07
2.22751e-05
-1.4489e-07
2.22773e-05
-1.44698e-07
2.22785e-05
-1.43625e-07
2.22807e-05
-1.45206e-07
2.22822e-05
-1.43721e-07
2.22834e-05
-1.42368e-07
2.22832e-05
-1.39947e-07
2.22833e-05
-1.39855e-07
2.22829e-05
-1.38985e-07
2.22833e-05
-1.40881e-07
2.22834e-05
-1.4049e-07
2.22838e-05
-1.41384e-07
2.22835e-05
-1.39776e-07
2.22832e-05
-1.39239e-07
2.22821e-05
-1.37102e-07
2.22809e-05
-1.3741e-07
2.22792e-05
-1.36039e-07
2.22777e-05
-1.36595e-07
2.22756e-05
-1.35451e-07
2.22736e-05
-1.35746e-07
2.22711e-05
-1.34512e-07
2.22688e-05
-1.34891e-07
2.2266e-05
-1.34045e-07
2.22635e-05
-1.3443e-07
2.22607e-05
-1.33898e-07
2.22579e-05
-1.34194e-07
2.22549e-05
-1.33396e-07
2.2252e-05
-1.33971e-07
2.2249e-05
-1.33944e-07
2.22465e-05
-1.34242e-07
2.2244e-05
-1.34848e-07
2.22419e-05
-1.3587e-07
2.224e-05
-1.35842e-07
2.22384e-05
-1.36585e-07
2.22368e-05
-1.36994e-07
2.22357e-05
-1.37393e-07
2.22347e-05
-1.38032e-07
2.22339e-05
-1.38507e-07
2.22333e-05
-1.38769e-07
2.22328e-05
-1.39145e-07
2.22324e-05
-1.39188e-07
2.22322e-05
-1.39545e-07
2.22321e-05
-1.39681e-07
2.22323e-05
-1.40039e-07
2.22327e-05
-1.40822e-07
2.22334e-05
-1.41675e-07
2.22345e-05
-1.42847e-07
2.22359e-05
-1.43578e-07
2.22377e-05
-1.43704e-07
2.22394e-05
-1.4363e-07
2.22413e-05
-1.4365e-07
2.22431e-05
-1.43927e-07
2.22452e-05
-1.44277e-07
2.22472e-05
-1.44399e-07
2.22495e-05
-1.44336e-07
2.22517e-05
-1.44857e-07
2.2254e-05
-1.44491e-07
2.22561e-05
-1.44355e-07
2.22581e-05
-1.43975e-07
2.22599e-05
-1.43541e-07
2.22611e-05
-1.42256e-07
2.22621e-05
-1.41526e-07
2.22625e-05
-1.40932e-07
2.22624e-05
-1.39926e-07
2.22618e-05
-1.38302e-07
2.22602e-05
-1.3646e-07
2.22578e-05
-1.34968e-07
2.22545e-05
-1.32134e-07
2.22504e-05
-1.30948e-07
2.22453e-05
-1.29324e-07
2.22396e-05
-1.27359e-07
2.22331e-05
-1.26783e-07
2.22262e-05
-1.25751e-07
2.22186e-05
-1.23909e-07
2.22105e-05
-1.23257e-07
2.22021e-05
-1.22993e-07
2.21935e-05
-1.22786e-07
2.21853e-05
-1.24048e-07
2.21781e-05
-1.26274e-07
2.21721e-05
-1.2969e-07
2.2167e-05
-1.31679e-07
2.2162e-05
-1.31042e-07
2.21566e-05
-1.2967e-07
2.21508e-05
-1.29205e-07
2.21447e-05
-1.2879e-07
2.21387e-05
-1.28827e-07
2.21327e-05
-1.28835e-07
2.21269e-05
-1.29413e-07
2.21214e-05
-1.30091e-07
2.21162e-05
-1.30934e-07
2.21115e-05
-1.319e-07
2.21076e-05
-1.33285e-07
2.21043e-05
-1.35277e-07
2.21019e-05
-1.36703e-07
2.21003e-05
-1.38852e-07
2.20993e-05
-1.3951e-07
2.20987e-05
-1.40506e-07
2.20983e-05
-1.40921e-07
2.20981e-05
-1.40992e-07
2.20978e-05
-1.41049e-07
2.20974e-05
-1.40553e-07
2.2097e-05
-1.40367e-07
2.20963e-05
-1.39762e-07
2.20954e-05
-1.39425e-07
2.20942e-05
-1.38715e-07
2.2093e-05
-1.38324e-07
2.20916e-05
-1.38226e-07
2.20901e-05
-1.38164e-07
2.20885e-05
-1.38045e-07
2.2087e-05
-1.37635e-07
2.20853e-05
-1.37856e-07
2.20836e-05
-1.37546e-07
2.20819e-05
-1.37731e-07
2.20802e-05
-1.37714e-07
2.20784e-05
-1.37321e-07
2.20766e-05
-1.3752e-07
2.20747e-05
-1.3748e-07
2.20727e-05
-1.36982e-07
2.20706e-05
-1.37055e-07
2.20684e-05
-1.36883e-07
2.20661e-05
-1.36565e-07
2.20638e-05
-1.36159e-07
2.20613e-05
-1.36036e-07
2.20587e-05
-1.35913e-07
2.2056e-05
-1.35619e-07
2.20531e-05
-1.35098e-07
2.20499e-05
-1.3473e-07
2.20465e-05
-1.34407e-07
2.20431e-05
-1.34165e-07
2.20398e-05
-1.34061e-07
2.20361e-05
-1.3351e-07
2.20322e-05
-1.33144e-07
2.20285e-05
-1.33166e-07
2.20244e-05
-1.32705e-07
2.20204e-05
-1.32516e-07
2.20161e-05
-1.32201e-07
2.20119e-05
-1.31979e-07
2.20077e-05
-1.32077e-07
2.20035e-05
-1.31906e-07
2.19992e-05
-1.31809e-07
2.19948e-05
-1.31536e-07
2.19904e-05
-1.31479e-07
2.1986e-05
-1.3146e-07
2.19819e-05
-1.31826e-07
2.19775e-05
-1.3145e-07
2.19734e-05
-1.31687e-07
2.19693e-05
-1.31664e-07
2.19653e-05
-1.31756e-07
2.19612e-05
-1.31861e-07
2.19572e-05
-1.32017e-07
2.19532e-05
-1.3195e-07
2.19491e-05
-1.31949e-07
2.19455e-05
-1.32347e-07
2.19418e-05
-1.32144e-07
2.19381e-05
-1.32557e-07
2.19344e-05
-1.3243e-07
2.19308e-05
-1.32658e-07
2.19273e-05
-1.33009e-07
2.19244e-05
-1.33648e-07
2.19216e-05
-1.34046e-07
2.19186e-05
-1.34135e-07
2.19161e-05
-1.34634e-07
2.1914e-05
-1.35297e-07
2.19118e-05
-1.35304e-07
2.19096e-05
-1.35478e-07
2.19081e-05
-1.36291e-07
2.19062e-05
-1.35993e-07
2.19048e-05
-1.36423e-07
2.19034e-05
-1.36541e-07
2.19021e-05
-1.36661e-07
2.19009e-05
-1.36711e-07
2.18997e-05
-1.36873e-07
2.18985e-05
-1.36694e-07
2.18978e-05
-1.3708e-07
2.18967e-05
-1.36677e-07
2.18959e-05
-1.36818e-07
2.18952e-05
-1.36975e-07
2.1894e-05
-1.3635e-07
2.18933e-05
-1.36892e-07
2.18927e-05
-1.36921e-07
2.18923e-05
-1.37444e-07
2.18922e-05
-1.37856e-07
2.18927e-05
-1.38898e-07
2.1893e-05
-1.38925e-07
2.18936e-05
-1.39526e-07
2.18947e-05
-1.40318e-07
2.18965e-05
-1.41587e-07
2.18987e-05
-1.43267e-07
2.19021e-05
-1.45777e-07
2.19061e-05
-1.47888e-07
2.19112e-05
-1.49412e-07
2.19166e-05
-1.50405e-07
2.19222e-05
-1.50941e-07
2.19285e-05
-1.51885e-07
2.19347e-05
-1.51895e-07
2.19414e-05
-1.52419e-07
2.19479e-05
-1.5249e-07
2.19548e-05
-1.5296e-07
2.19615e-05
-1.52957e-07
2.19682e-05
-1.52776e-07
2.19748e-05
-1.52664e-07
2.19817e-05
-1.52646e-07
2.19881e-05
-1.51982e-07
2.19942e-05
-1.5147e-07
2.20003e-05
-1.51139e-07
2.20062e-05
-1.50656e-07
2.2012e-05
-1.50259e-07
2.20173e-05
-1.49579e-07
2.20227e-05
-1.49259e-07
2.20278e-05
-1.48755e-07
2.20323e-05
-1.47682e-07
2.20368e-05
-1.47249e-07
2.20408e-05
-1.46412e-07
2.20445e-05
-1.46119e-07
2.20482e-05
-1.4579e-07
2.20519e-05
-1.46059e-07
2.20556e-05
-1.45771e-07
2.20595e-05
-1.46269e-07
2.20633e-05
-1.46103e-07
2.20672e-05
-1.46578e-07
2.20711e-05
-1.46537e-07
2.20749e-05
-1.4684e-07
2.2079e-05
-1.47034e-07
2.20831e-05
-1.47558e-07
2.20875e-05
-1.47807e-07
2.20924e-05
-1.48309e-07
2.20976e-05
-1.50523e-07
2.21023e-05
-1.47718e-07
2.21087e-05
-1.53417e-07
2.21124e-05
-1.46951e-07
2.21225e-05
-1.61613e-07
2.21226e-05
-1.40055e-07
2.21418e-05
-1.79783e-07
2.21333e-05
-1.25459e-07
2.217e-05
-2.12545e-07
2.21439e-05
-9.88558e-08
2.22063e-05
-2.55633e-07
2.21509e-05
-5.16554e-08
2.22407e-05
-2.98354e-07
2.21456e-05
1.32456e-08
2.22585e-05
-3.28678e-07
2.21181e-05
8.6349e-08
2.22395e-05
-3.29217e-07
2.20623e-05
1.46545e-07
2.21634e-05
-2.8767e-07
2.19563e-05
1.95617e-07
2.19715e-05
-1.62449e-07
2.16395e-05
4.193e-07
2.12402e-05
4.74546e-07
2.03414e-05
1.81328e-06
1.81838e-05
4.93031e-06
1.6287e-05
4.84392e-06
1.4786e-05
2.35212e-06
1.4116e-05
7.4513e-07
1.29757e-05
2.34307e-06
1.12888e-05
3.41406e-06
8.64287e-06
5.44274e-06
4.81906e-06
6.19063e-06
1.14807e-06
5.16041e-06
-9.85735e-07
3.49341e-06
-2.22741e-06
2.49481e-06
-5.89181e-06
3.78587e-05
6.49724e-07
3.76492e-05
8.19921e-07
3.72349e-05
1.37709e-06
3.6832e-05
1.38244e-06
3.64229e-05
1.4352e-06
3.6069e-05
1.29719e-06
3.57591e-05
1.22869e-06
3.54992e-05
1.0968e-06
3.52822e-05
1.009e-06
3.50952e-05
8.88287e-07
3.49413e-05
8.18818e-07
3.48062e-05
7.53174e-07
3.46816e-05
7.18114e-07
3.45684e-05
6.76626e-07
3.44707e-05
6.43927e-07
3.43896e-05
6.05602e-07
3.43112e-05
5.91253e-07
3.42356e-05
5.74081e-07
3.41597e-05
5.58815e-07
3.4084e-05
5.41423e-07
3.40071e-05
5.25006e-07
3.39275e-05
5.10858e-07
3.38452e-05
4.96596e-07
3.3761e-05
4.80815e-07
3.36726e-05
4.65704e-07
3.35806e-05
4.49942e-07
3.34854e-05
4.33834e-07
3.33837e-05
4.21538e-07
3.32767e-05
4.0851e-07
3.31647e-05
3.96616e-07
3.30493e-05
3.83793e-07
3.29314e-05
3.70113e-07
3.28098e-05
3.57388e-07
3.26857e-05
3.43515e-07
3.25602e-05
3.28895e-07
3.24326e-05
3.15168e-07
3.23042e-05
3.00608e-07
3.21762e-05
2.85238e-07
3.20475e-05
2.72327e-07
3.19196e-05
2.58742e-07
3.17913e-05
2.47307e-07
3.16631e-05
2.36034e-07
3.15358e-05
2.25031e-07
3.14079e-05
2.15857e-07
3.12805e-05
2.05831e-07
3.11547e-05
1.94757e-07
3.10299e-05
1.84581e-07
3.09073e-05
1.7335e-07
3.07881e-05
1.60772e-07
3.06712e-05
1.4993e-07
3.05582e-05
1.37911e-07
3.04475e-05
1.28409e-07
3.03395e-05
1.19419e-07
3.02347e-05
1.10799e-07
3.01313e-05
1.04849e-07
3.00296e-05
9.94003e-08
2.99299e-05
9.39125e-08
2.98309e-05
8.95638e-08
2.97335e-05
8.43689e-08
2.96386e-05
7.77804e-08
2.95449e-05
7.24907e-08
2.94535e-05
6.55751e-08
2.93635e-05
5.97595e-08
2.92756e-05
5.32232e-08
2.91905e-05
4.61824e-08
2.9107e-05
4.06894e-08
2.90256e-05
3.48211e-08
2.89468e-05
2.86717e-08
2.88694e-05
2.38636e-08
2.8794e-05
1.88556e-08
2.87214e-05
1.28125e-08
2.86503e-05
8.3158e-09
2.85822e-05
2.23447e-09
2.85159e-05
-2.53931e-09
2.84521e-05
-7.84793e-09
2.83914e-05
-1.34774e-08
2.83324e-05
-1.73238e-08
2.82754e-05
-2.07422e-08
2.82204e-05
-2.37506e-08
2.81661e-05
-2.52093e-08
2.81127e-05
-2.66507e-08
2.80609e-05
-2.86883e-08
2.8009e-05
-2.85904e-08
2.7958e-05
-2.98565e-08
2.79067e-05
-2.97342e-08
2.78557e-05
-3.04657e-08
2.78056e-05