/*--------------------------------*- C++ -*----------------------------------*\
| =========                 |                                                 |
| \\      /  F ield         | foam-extend: Open Source CFD                    |
|  \\    /   O peration     | Version:     3.2                                |
|   \\  /    A nd           | Web:         http://www.foam-extend.org         |
|    \\/     M anipulation  | For copyright notice see file Copyright         |
\*---------------------------------------------------------------------------*/
FoamFile
{
    version     2.0;
    format      ascii;
    class       areaScalarField;
    location    "910";
    object      deltaHs;
}
// * * * * * * * * * * * * * * * * * * * * * * * * * * * * * * * * * * * * * //

dimensions      [0 1 -1 0 0 0 0];

internalField   nonuniform List<scalar> 
550
(
4.99359e-08
4.56966e-08
3.94589e-08
3.09516e-08
2.00546e-08
6.94121e-09
-7.32564e-09
-2.39261e-08
-4.01965e-08
-5.43802e-08
-7.03789e-08
-8.09261e-08
-9.3537e-08
-1.01756e-07
-1.05106e-07
-1.1155e-07
-1.13498e-07
-1.1112e-07
-1.10176e-07
-1.08304e-07
-1.05712e-07
-1.05073e-07
-9.90671e-08
-9.76292e-08
-9.36497e-08
-8.96348e-08
-8.56622e-08
-7.97903e-08
-7.81021e-08
-7.45633e-08
-7.11883e-08
-6.79864e-08
-6.33182e-08
-6.05409e-08
-5.79358e-08
-5.54981e-08
-5.46597e-08
-5.10961e-08
-4.91163e-08
-4.86108e-08
-4.55583e-08
-4.39634e-08
-4.37277e-08
-4.11027e-08
-3.98207e-08
-3.86288e-08
-3.75201e-08
-3.64897e-08
-3.55308e-08
-3.46394e-08
-3.49664e-08
-3.4196e-08
-3.23179e-08
-3.28e-08
-3.10168e-08
-3.1561e-08
-2.98742e-08
-3.04478e-08
-2.9934e-08
-2.83957e-08
-2.79543e-08
-2.85463e-08
-2.8131e-08
-2.77362e-08
-2.73614e-08
-2.60441e-08
-2.66638e-08
-2.53905e-08
-2.6027e-08
-2.47865e-08
-2.45001e-08
-2.51702e-08
-2.49061e-08
-2.36948e-08
-2.34402e-08
-2.41582e-08
-2.3918e-08
-2.36797e-08
-2.24739e-08
-2.32026e-08
-2.20164e-08
-2.17938e-08
-2.24803e-08
-2.22384e-08
-2.19976e-08
-2.17588e-08
-2.15241e-08
-2.05279e-08
-2.03261e-08
-2.01269e-08
-1.99297e-08
-2.04447e-08
-1.95423e-08
-1.93508e-08
-1.98771e-08
-1.96958e-08
-1.87852e-08
-1.93383e-08
-1.8416e-08
-1.82337e-08
-1.80525e-08
-1.86256e-08
-1.84465e-08
-1.75151e-08
-1.80836e-08
-1.78991e-08
-1.77116e-08
-1.7522e-08
-1.73298e-08
-1.71275e-08
-1.68916e-08
-6.47069e-09
-1.57359e-08
-1.54967e-08
4.96327e-09
2.8083e-09
-1.48498e-08
1.02818e-08
5.51885e-09
-1.41682e-08
-1.39591e-08
1.64367e-08
-1.35678e-08
-1.33577e-08
-1.36082e-08
2.44779e-08
-1.28069e-08
-1.25803e-08
-1.23407e-08
-1.21449e-08
-1.24467e-08
2.6246e-08
-1.16713e-08
-1.14309e-08
-1.12585e-08
-1.10853e-08
-1.08896e-08
-1.06844e-08
3.86331e-08
-1.03953e-08
-1.02182e-08
-9.90752e-09
-9.74897e-09
-9.5657e-09
-9.34275e-09
-9.13039e-09
3.93446e-08
-8.79778e-09
-8.60015e-09
-8.39852e-09
-8.20646e-09
-8.38456e-09
-7.89e-09
-7.68024e-09
-7.42821e-09
-7.65046e-09
-7.15908e-09
-6.9272e-09
-6.74979e-09
4.33937e-08
-6.43827e-09
-6.26175e-09
-6.08412e-09
-5.90555e-09
-5.77523e-09
-5.60611e-09
-5.40933e-09
-5.54475e-09
-5.1827e-09
-5.01334e-09
-4.82579e-09
-4.7104e-09
-4.56528e-09
-4.42696e-09
-4.29864e-09
-4.16754e-09
-4.00904e-09
-3.87946e-09
5.0379e-08
-3.68287e-09
-3.54814e-09
-3.44106e-09
-3.30658e-09
-3.21649e-09
-3.0846e-09
-2.97826e-09
-2.92939e-09
-2.81852e-09
-2.6555e-09
-2.59485e-09
-2.51828e-09
-2.42472e-09
5.11991e-08
-2.29159e-09
-2.1516e-09
-2.08501e-09
-2.01303e-09
-1.96797e-09
-1.92032e-09
-1.78579e-09
-1.69784e-09
-1.70619e-09
-1.63714e-09
-1.5583e-09
-1.49102e-09
-1.40973e-09
-1.34036e-09
-1.23401e-09
-1.2152e-09
-1.12337e-09
-1.0787e-09
-1.03627e-09
-9.77541e-10
-9.23682e-10
-8.94308e-10
1.79767e-10
4.37211e-10
2.31105e-11
2.31977e-10
1.59572e-10
2.21703e-10
2.6176e-10
2.44952e-10
3.2356e-10
2.53535e-10
3.55855e-10
2.53207e-10
3.58976e-10
2.41679e-10
3.2798e-10
2.1112e-10
2.69626e-10
1.58619e-10
2.02968e-10
8.72034e-11
1.62594e-10
-4.65427e-12
1.8847e-10
3.98617e-11
8.18379e-11
3.72122e-11
1.61822e-10
3.46688e-10
-6.71455e-11
-2.98174e-12
-2.74306e-10
-1.35254e-10
1.80594e-10
-8.5155e-11
-1.56766e-10
-7.64177e-11
-1.81177e-10
-1.28714e-11
-1.46924e-10
-3.13969e-10
-2.77476e-10
-1.81097e-10
-1.089e-10
-4.29709e-11
-1.37559e-10
-9.46821e-11
4.40568e-11
1.85146e-11
-3.19114e-11
-1.64013e-10
-1.84755e-10
-2.49378e-10
-2.83998e-10
-2.61278e-10
-2.99097e-10
-3.64895e-10
-3.43703e-10
-3.75736e-10
-3.84391e-10
-3.55496e-10
-3.29375e-10
-3.42e-10
-3.28582e-10
-2.7303e-10
-2.44909e-10
-2.51852e-10
-2.55044e-10
-2.42064e-10
-2.03606e-10
-1.70166e-10
-1.4756e-10
-1.33123e-10
-1.15947e-10
-9.08105e-11
-7.06167e-11
-6.7529e-11
-6.68928e-11
-6.0224e-11
-4.2856e-11
-3.66455e-11
-3.52587e-11
-4.26474e-11
-5.15177e-11
-5.54597e-11
-5.21762e-11
-4.68075e-11
-3.66935e-11
-3.05691e-11
-2.69021e-11
-2.76689e-11
-2.82939e-11
-3.07804e-11
-3.22063e-11
-3.48281e-11
-3.73082e-11
-4.10068e-11
-4.43898e-11
-4.82586e-11
-5.10645e-11
-5.43584e-11
-5.8989e-11
-6.43045e-11
-6.97235e-11
-7.65127e-11
-8.09921e-11
-8.45166e-11
-8.67986e-11
-8.87867e-11
-8.84147e-11
-8.90839e-11
-8.7934e-11
-8.63524e-11
-8.40718e-11
-8.22176e-11
-8.02249e-11
-7.84428e-11
-7.73267e-11
-7.73346e-11
-6.26756e-11
-4.66166e-11
-3.13174e-11
-2.14277e-11
-1.2917e-11
-7.43002e-12
-2.01455e-12
2.90926e-12
4.81128e-12
5.20654e-12
3.37425e-12
1.36777e-12
-5.25484e-12
-1.16063e-11
-2.10861e-11
-3.17272e-11
-4.91596e-11
-5.81225e-11
-4.35803e-11
-2.74956e-11
-1.76745e-11
-1.4824e-11
-1.6234e-11
-2.51932e-11
-4.07266e-11
-5.36618e-11
-7.29918e-11
-9.46413e-11
-1.10616e-10
-1.29216e-10
-1.58338e-10
-1.83682e-10
-2.08908e-10
-2.44835e-10
-2.76201e-10
-2.90448e-10
-2.84111e-10
-2.71074e-10
-2.63449e-10
-2.60157e-10
-2.61028e-10
-2.64521e-10
-2.67652e-10
-2.73537e-10
-2.78897e-10
-2.84158e-10
-2.88491e-10
-2.94997e-10
-2.9643e-10
-2.94205e-10
-2.88718e-10
-2.77129e-10
-2.6323e-10
-2.47728e-10
-2.3249e-10
-2.18413e-10
-2.05795e-10
-1.96916e-10
-1.89667e-10
-1.84636e-10
-1.80523e-10
-1.80901e-10
-1.81208e-10
-1.83297e-10
-1.86819e-10
-1.90213e-10
-1.94495e-10
-1.98326e-10
-2.00786e-10
-2.03462e-10
-2.05853e-10
-2.07953e-10
-2.08444e-10
-2.10062e-10
-2.10312e-10
-2.10021e-10
-2.09633e-10
-2.10512e-10
-2.09473e-10
-2.10655e-10
-2.10147e-10
-2.09304e-10
-2.09644e-10
-2.08884e-10
-2.0876e-10
-2.07168e-10
-2.05417e-10
-2.04699e-10
-2.02458e-10
-2.00226e-10
-1.96558e-10
-1.91975e-10
-1.87653e-10
-1.83599e-10
-1.77487e-10
-1.72161e-10
-1.64865e-10
-1.59526e-10
-1.52913e-10
-1.47184e-10
-1.40313e-10
-1.34694e-10
-1.28784e-10
-1.23926e-10
-1.1869e-10
-1.13754e-10
-1.07685e-10
-1.03571e-10
-9.90574e-11
-9.42636e-11
-9.22543e-11
-8.78428e-11
-8.49944e-11
-8.28899e-11
-7.99172e-11
-7.75421e-11
-7.45593e-11
-7.21837e-11
-6.96006e-11
-6.52068e-11
-6.23863e-11
-5.85097e-11
-5.19569e-11
-4.71629e-11
-4.18462e-11
-3.52145e-11
-2.83555e-11
-2.07068e-11
-1.33096e-11
-6.00523e-12
3.12748e-12
1.04595e-11
1.89926e-11
2.78059e-11
3.37872e-11
4.11035e-11
4.68261e-11
5.09593e-11
5.58381e-11
5.93654e-11
6.14086e-11
6.12345e-11
6.08191e-11
6.9118e-11
1.00887e-10
1.24508e-10
1.39619e-10
1.52653e-10
1.58563e-10
1.64769e-10
1.66023e-10
1.66784e-10
1.63223e-10
1.60354e-10
1.54517e-10
1.49277e-10
1.4267e-10
1.36617e-10
1.29975e-10
1.24748e-10
1.18724e-10
1.14383e-10
1.10446e-10
1.07534e-10
1.03692e-10
1.02585e-10
1.00871e-10
9.99043e-11
9.89875e-11
9.91706e-11
9.6624e-11
9.66246e-11
9.32261e-11
9.24585e-11
8.70866e-11
8.51336e-11
7.73331e-11
7.56077e-11
6.49278e-11
6.37951e-11
4.64918e-11
4.78508e-11
3.07412e-11
2.27996e-11
2.92666e-11
-2.39979e-11
7.8555e-11
-1.54121e-10
2.79983e-10
-3.07276e-10
6.75515e-10
-3.25805e-10
1.10686e-09
-3.23733e-10
1.45383e-09
-2.75972e-10
1.5116e-09
-1.35058e-10
9.37111e-10
1.90874e-10
1.29667e-10
9.57395e-10
1.74257e-09
2.86437e-09
5.18504e-09
7.05095e-09
7.09754e-09
2.32968e-08
2.59748e-08
3.08647e-08
3.51654e-08
4.03513e-08
4.55532e-08
4.88558e-08
4.90828e-08
4.87844e-08
4.51935e-08
)
;

boundaryField
{
    inlet
    {
        type            calculated;
        value           uniform 4.99357e-08;
    }
    endWall
    {
        type            calculated;
        value           uniform 4.31006e-08;
    }
    sideWall
    {
        type            empty;
    }
}


// ************************************************************************* //
