/*--------------------------------*- C++ -*----------------------------------*\
| =========                 |                                                 |
| \\      /  F ield         | foam-extend: Open Source CFD                    |
|  \\    /   O peration     | Version:     3.2                                |
|   \\  /    A nd           | Web:         http://www.foam-extend.org         |
|    \\/     M anipulation  | For copyright notice see file Copyright         |
\*---------------------------------------------------------------------------*/
FoamFile
{
    version     2.0;
    format      ascii;
    class       areaScalarField;
    location    "910";
    object      Fi;
}
// * * * * * * * * * * * * * * * * * * * * * * * * * * * * * * * * * * * * * //

dimensions      [0 1 -1 0 0 0 0];

internalField   nonuniform List<scalar> 
550
(
4.99359e-08
4.56966e-08
3.06186e-08
-5.34829e-09
-4.91282e-08
-8.82013e-08
-1.26212e-07
-1.59184e-07
-1.77891e-07
-1.91707e-07
-1.96201e-07
-1.90894e-07
-1.86774e-07
-1.66507e-07
-1.52695e-07
-1.43552e-07
-1.20687e-07
-1.04104e-07
-9.61496e-08
-8.61234e-08
-8.10407e-08
-7.22346e-08
-6.3036e-08
-6.34544e-08
-5.51998e-08
-5.1367e-08
-4.5139e-08
-4.38772e-08
-4.70241e-08
-4.2023e-08
-4.03831e-08
-3.62881e-08
-3.35232e-08
-3.53125e-08
-3.44368e-08
-3.60611e-08
-3.43758e-08
-2.98683e-08
-3.39428e-08
-3.24344e-08
-2.82904e-08
-3.2218e-08
-3.08577e-08
-2.70381e-08
-2.879e-08
-2.84244e-08
-2.80836e-08
-2.77667e-08
-2.74607e-08
-2.92009e-08
-3.0075e-08
-2.57059e-08
-2.62986e-08
-2.7166e-08
-2.56964e-08
-2.65808e-08
-2.51128e-08
-2.79256e-08
-2.37879e-08
-2.2511e-08
-2.60077e-08
-2.67692e-08
-2.46993e-08
-2.44819e-08
-2.25426e-08
-2.31001e-08
-2.38766e-08
-2.27106e-08
-2.34746e-08
-2.0635e-08
-2.38543e-08
-2.46193e-08
-2.10009e-08
-1.98451e-08
-2.31128e-08
-2.38785e-08
-2.19217e-08
-1.9937e-08
-2.04879e-08
-2.12482e-08
-1.83324e-08
-2.15108e-08
-2.21612e-08
-2.02375e-08
-2.00113e-08
-1.97999e-08
-1.82054e-08
-1.72963e-08
-1.85789e-08
-1.84236e-08
-1.95674e-08
-1.88276e-08
-1.66646e-08
-1.9106e-08
-1.96683e-08
-1.68722e-08
-1.73138e-08
-1.78457e-08
-1.5578e-08
-1.67525e-08
-1.7957e-08
-1.85334e-08
-1.55868e-08
-1.60217e-08
-1.79537e-08
-1.63686e-08
-1.61605e-08
-1.59505e-08
-1.57364e-08
-1.55087e-08
5.04768e-09
-3.55563e-09
-3.32006e-08
3.08856e-08
4.54238e-08
-4.02896e-08
5.84033e-09
5.63235e-08
-5.07357e-08
-5.70175e-08
6.27127e-08
1.83036e-08
-8.67991e-08
-1.28704e-08
8.99212e-08
2.75286e-08
-1.12817e-07
-1.14186e-08
-1.10057e-08
-1.10133e-08
9.44584e-08
2.89131e-08
-1.15048e-07
-9.79874e-09
-9.45634e-09
-9.56603e-09
-9.39528e-09
1.34479e-07
4.07551e-08
-1.51716e-07
-9.24093e-09
-8.59746e-09
-7.66663e-09
-8.11695e-09
-7.77588e-09
1.29393e-07
4.11159e-08
-1.43905e-07
-7.19607e-09
-6.89999e-09
-7.42757e-09
-6.50402e-09
-5.37051e-09
-6.80989e-09
-6.74424e-09
-5.58033e-09
-5.11245e-09
-5.8108e-09
1.21655e-07
4.50636e-08
-1.31856e-07
-5.01851e-09
-4.9519e-09
-4.51304e-09
-4.12105e-09
-4.59285e-09
-4.80771e-09
-3.7894e-09
-3.34108e-09
-4.22961e-09
-3.63943e-09
-3.30114e-09
-3.38041e-09
-3.24273e-09
-3.19889e-09
-3.23325e-09
-3.16306e-09
1.12372e-07
5.17337e-08
-1.17787e-07
-2.55928e-09
-2.61243e-09
-2.58026e-09
-2.22936e-09
-2.20755e-09
-1.7891e-09
-1.85911e-09
-2.40799e-09
-1.81879e-09
-1.45972e-09
-1.7641e-09
1.0716e-07
5.21064e-08
-1.10617e-07
-1.80978e-09
-1.29012e-09
-1.13149e-09
-1.01398e-09
-1.35925e-09
-1.52126e-09
-7.38539e-10
-8.12329e-10
-1.1564e-09
-1.04008e-09
-1.12367e-09
-1.07299e-09
-1.10807e-09
-6.65885e-10
-7.00784e-10
-7.32064e-10
-4.05967e-10
-5.57253e-10
-5.10592e-10
-1.76014e-10
1.08826e-09
1.8012e-09
1.00802e-10
-4.4179e-10
-1.49302e-11
-2.29869e-10
-6.68366e-11
-8.22193e-11
-5.53515e-11
-2.05844e-11
-6.8709e-11
3.84342e-12
-8.75711e-11
1.57443e-11
-9.60895e-11
1.75427e-11
-8.93712e-11
1.6627e-11
-6.60206e-11
2.5829e-11
-2.23468e-11
5.85885e-11
-4.69295e-12
4.54462e-11
8.3496e-11
8.0994e-11
7.80801e-11
6.87166e-11
5.14873e-11
5.52858e-11
3.41636e-11
3.69644e-11
2.52184e-11
2.52224e-11
2.05415e-11
2.46782e-11
2.46402e-11
3.15763e-11
3.16291e-11
2.89996e-11
3.45977e-11
4.09803e-11
4.52863e-11
4.80516e-11
4.32177e-11
4.28504e-11
4.23946e-11
4.24311e-11
3.83804e-11
3.6584e-11
3.44165e-11
3.34684e-11
3.04207e-11
2.62318e-11
2.08206e-11
1.56311e-11
1.11887e-11
8.4686e-12
5.60861e-12
8.10805e-13
-3.01865e-12
-5.64004e-12
-7.55947e-12
-1.00769e-11
-1.44089e-11
-1.65578e-11
-2.1677e-11
-2.70722e-11
-3.00958e-11
-2.85593e-11
-2.80553e-11
-2.53869e-11
-2.58798e-11
-2.64529e-11
-2.78589e-11
-2.73828e-11
-2.92064e-11
-2.52815e-11
-2.11483e-11
-1.75797e-11
-1.66921e-11
-1.17614e-11
-6.06945e-12
-3.31783e-12
-1.0982e-12
1.53939e-12
3.75792e-12
5.18882e-12
7.61235e-12
8.67332e-12
9.76695e-12
1.12354e-11
1.26862e-11
1.40567e-11
1.50465e-11
1.58694e-11
1.68268e-11
1.75031e-11
1.85565e-11
1.87945e-11
1.90848e-11
1.83383e-11
1.7953e-11
1.72203e-11
1.66497e-11
1.56017e-11
1.47491e-11
1.33474e-11
1.24102e-11
1.08547e-11
9.89233e-12
8.49603e-12
7.46059e-12
6.40879e-12
4.68395e-12
4.10998e-12
1.79141e-12
1.70098e-12
-4.00278e-13
-4.35517e-12
-9.98357e-12
-1.2129e-11
-1.64944e-11
-1.75353e-11
-2.07821e-11
-2.27853e-11
-2.62959e-11
-3.04706e-11
-3.44201e-11
-3.9311e-11
-4.2612e-11
-4.72492e-11
-5.02998e-11
-5.50167e-11
-5.82653e-11
-6.37041e-11
-6.77993e-11
-7.275e-11
-7.52472e-11
-7.78631e-11
-8.46412e-11
-8.87916e-11
-8.96347e-11
-8.76125e-11
-8.53232e-11
-8.39487e-11
-8.42759e-11
-8.54611e-11
-8.77832e-11
-9.0123e-11
-9.20973e-11
-9.27349e-11
-9.27195e-11
-9.20444e-11
-9.16808e-11
-9.16377e-11
-9.24725e-11
-9.33371e-11
-9.4481e-11
-9.51573e-11
-9.58452e-11
-9.59942e-11
-9.62976e-11
-9.66361e-11
-9.75821e-11
-9.80267e-11
-9.82721e-11
-9.80329e-11
-9.82411e-11
-9.87084e-11
-1.00324e-10
-1.01333e-10
-1.02069e-10
-1.02388e-10
-1.03067e-10
-1.03096e-10
-1.03406e-10
-1.03644e-10
-1.04362e-10
-1.05228e-10
-1.06642e-10
-1.07484e-10
-1.08311e-10
-1.08502e-10
-1.09249e-10
-1.09852e-10
-1.11055e-10
-1.1202e-10
-1.134e-10
-1.14256e-10
-1.15484e-10
-1.16312e-10
-1.17598e-10
-1.18353e-10
-1.19486e-10
-1.19982e-10
-1.20515e-10
-1.19979e-10
-1.19269e-10
-1.1767e-10
-1.16249e-10
-1.13882e-10
-1.11349e-10
-1.07459e-10
-1.03199e-10
-9.75992e-11
-9.18612e-11
-8.50106e-11
-7.82241e-11
-7.0482e-11
-6.30297e-11
-5.49966e-11
-4.75856e-11
-3.96891e-11
-3.25653e-11
-2.52084e-11
-1.8984e-11
-1.2827e-11
-7.88794e-12
-3.01689e-12
6.79488e-13
4.48679e-12
7.51093e-12
1.10825e-11
1.41377e-11
1.76285e-11
2.03186e-11
2.30533e-11
2.46523e-11
2.62414e-11
2.70617e-11
2.80735e-11
2.85808e-11
2.9609e-11
3.0631e-11
3.24021e-11
3.43747e-11
3.71294e-11
4.04336e-11
4.48571e-11
5.03604e-11
5.68508e-11
6.42874e-11
7.23936e-11
8.14891e-11
9.123e-11
1.01859e-10
1.12651e-10
1.24087e-10
1.34951e-10
1.4601e-10
1.5571e-10
1.64878e-10
1.71816e-10
1.78352e-10
1.81638e-10
1.84454e-10
1.83304e-10
1.82204e-10
1.76813e-10
1.69046e-10
1.63154e-10
1.43085e-10
1.32438e-10
1.16657e-10
1.02538e-10
9.02435e-11
7.76756e-11
6.80044e-11
5.4999e-11
4.46324e-11
3.16965e-11
2.25469e-11
1.2782e-11
6.60411e-12
8.21728e-13
-2.11257e-12
-4.05535e-12
-3.8307e-12
-2.23655e-12
1.38144e-12
6.0306e-12
1.20974e-11
1.80474e-11
2.46609e-11
2.93321e-11
3.39181e-11
3.52541e-11
3.64257e-11
3.37739e-11
3.13491e-11
2.49776e-11
1.92105e-11
9.27141e-12
4.76088e-14
-1.32787e-11
-2.57802e-11
-4.25803e-11
-5.78421e-11
-7.61827e-11
-9.24537e-11
-1.09052e-10
-1.26381e-10
-1.4575e-10
-1.64453e-10
-1.83041e-10
-2.02418e-10
-2.15739e-10
-2.35332e-10
-2.41206e-10
-2.64764e-10
-2.60495e-10
-2.85461e-10
-2.74026e-10
-2.95164e-10
-2.815e-10
-2.9401e-10
-2.84534e-10
-2.83287e-10
-2.83549e-10
-2.67646e-10
-2.62544e-10
-2.46192e-10
-1.95004e-10
-1.9613e-10
9.42899e-08
1.18084e-07
4.60701e-08
4.03597e-08
3.55661e-08
4.03513e-08
4.55532e-08
4.88558e-08
4.90828e-08
4.87844e-08
4.51935e-08
)
;

boundaryField
{
    inlet
    {
        type            calculated;
        value           uniform 4.99357e-08;
    }
    endWall
    {
        type            calculated;
        value           uniform 4.31006e-08;
    }
    sideWall
    {
        type            empty;
    }
}


// ************************************************************************* //
