/*--------------------------------*- C++ -*----------------------------------*\
| =========                 |                                                 |
| \\      /  F ield         | foam-extend: Open Source CFD                    |
|  \\    /   O peration     | Version:     3.2                                |
|   \\  /    A nd           | Web:         http://www.foam-extend.org         |
|    \\/     M anipulation  | For copyright notice see file Copyright         |
\*---------------------------------------------------------------------------*/
FoamFile
{
    version     2.0;
    format      ascii;
    class       volScalarField;
    location    "910";
    object      nut;
}
// * * * * * * * * * * * * * * * * * * * * * * * * * * * * * * * * * * * * * //

dimensions      [0 2 -1 0 0 0 0];

internalField   nonuniform List<scalar> 
33000
(
6.25836e-06
7.61066e-06
9.0076e-06
1.04185e-05
1.1808e-05
1.31411e-05
1.43883e-05
1.55239e-05
1.65325e-05
1.74029e-05
1.81339e-05
1.87283e-05
1.91952e-05
1.95451e-05
1.97913e-05
1.99465e-05
2.00244e-05
2.00377e-05
1.9904e-05
1.91512e-05
1.84254e-05
1.77481e-05
1.7111e-05
1.65255e-05
1.59859e-05
1.54967e-05
1.50547e-05
1.46595e-05
1.42988e-05
1.39696e-05
1.367e-05
1.33981e-05
1.31531e-05
1.29324e-05
1.27346e-05
1.25574e-05
1.23985e-05
1.22564e-05
1.21293e-05
1.20167e-05
1.19174e-05
1.18306e-05
1.17559e-05
1.16927e-05
1.16409e-05
1.15987e-05
1.15666e-05
1.15438e-05
1.15286e-05
1.15198e-05
1.15164e-05
1.15173e-05
1.1523e-05
1.15323e-05
1.15449e-05
1.15609e-05
1.15803e-05
1.16034e-05
1.16293e-05
1.16586e-05
1.16894e-05
1.1723e-05
1.17575e-05
1.17938e-05
1.18308e-05
1.18692e-05
1.19082e-05
1.19487e-05
1.19899e-05
1.2032e-05
1.20748e-05
1.21169e-05
1.21589e-05
1.21989e-05
1.22375e-05
1.22732e-05
1.2307e-05
1.23379e-05
1.23671e-05
1.23945e-05
1.24205e-05
1.24458e-05
1.24698e-05
1.24948e-05
1.25191e-05
1.25452e-05
1.2571e-05
1.25986e-05
1.2626e-05
1.26545e-05
1.26809e-05
1.27073e-05
1.27305e-05
1.27524e-05
1.27719e-05
1.27913e-05
1.28088e-05
1.28298e-05
1.28471e-05
1.28694e-05
1.28882e-05
1.29094e-05
1.2928e-05
1.29477e-05
1.29635e-05
1.29839e-05
1.29948e-05
1.30172e-05
1.30252e-05
1.30406e-05
1.30716e-05
1.30816e-05
1.3062e-05
1.30823e-05
1.31474e-05
1.31234e-05
1.31066e-05
1.31505e-05
1.31512e-05
1.30976e-05
1.31297e-05
1.3161e-05
1.30924e-05
1.30485e-05
1.31855e-05
1.32093e-05
1.3089e-05
1.30312e-05
1.30384e-05
1.30796e-05
1.31796e-05
1.32046e-05
1.30688e-05
1.30305e-05
1.30191e-05
1.30137e-05
1.3021e-05
1.31962e-05
1.31741e-05
1.30252e-05
1.29557e-05
1.29927e-05
1.29735e-05
1.30013e-05
1.2991e-05
1.31328e-05
1.31446e-05
1.29781e-05
1.28835e-05
1.29153e-05
1.29715e-05
1.29668e-05
1.29048e-05
1.28993e-05
1.29393e-05
1.29407e-05
1.28946e-05
1.28489e-05
1.29559e-05
1.30262e-05
1.28908e-05
1.28163e-05
1.28591e-05
1.28706e-05
1.28582e-05
1.2855e-05
1.28885e-05
1.28927e-05
1.28693e-05
1.28211e-05
1.28555e-05
1.28961e-05
1.28518e-05
1.28221e-05
1.28245e-05
1.28167e-05
1.27928e-05
1.28876e-05
1.29607e-05
1.28476e-05
1.27673e-05
1.27798e-05
1.28223e-05
1.28221e-05
1.28542e-05
1.28493e-05
1.28413e-05
1.28146e-05
1.28024e-05
1.27858e-05
1.2769e-05
1.28646e-05
1.29273e-05
1.28244e-05
1.28186e-05
1.28666e-05
1.28774e-05
1.28382e-05
1.28528e-05
1.28633e-05
1.28647e-05
1.28997e-05
1.29006e-05
1.28869e-05
1.28982e-05
1.2897e-05
1.29252e-05
1.29038e-05
1.29094e-05
1.2919e-05
1.28914e-05
1.28927e-05
1.28869e-05
1.28788e-05
1.2811e-05
1.28608e-05
1.29682e-05
1.29929e-05
1.30583e-05
1.30802e-05
1.31394e-05
1.31583e-05
1.32098e-05
1.32389e-05
1.32854e-05
1.33132e-05
1.33546e-05
1.33658e-05
1.34076e-05
1.34162e-05
1.34556e-05
1.34618e-05
1.34868e-05
1.34962e-05
1.35042e-05
1.35204e-05
1.35131e-05
1.35383e-05
1.3534e-05
1.35361e-05
1.35022e-05
1.35557e-05
1.35401e-05
1.34685e-05
1.34956e-05
1.34428e-05
1.35282e-05
1.35174e-05
1.34528e-05
1.34855e-05
1.34722e-05
1.34743e-05
1.34596e-05
1.34291e-05
1.34285e-05
1.34524e-05
1.34681e-05
1.34456e-05
1.34269e-05
1.34496e-05
1.3489e-05
1.34458e-05
1.34263e-05
1.34096e-05
1.34109e-05
1.3393e-05
1.33905e-05
1.33879e-05
1.33691e-05
1.33814e-05
1.33697e-05
1.33713e-05
1.3365e-05
1.33697e-05
1.33713e-05
1.33767e-05
1.33784e-05
1.33891e-05
1.33971e-05
1.33993e-05
1.33977e-05
1.34101e-05
1.34258e-05
1.34363e-05
1.34425e-05
1.34463e-05
1.34593e-05
1.34679e-05
1.34743e-05
1.34771e-05
1.34834e-05
1.34906e-05
1.34946e-05
1.34983e-05
1.35014e-05
1.35031e-05
1.35037e-05
1.35048e-05
1.35082e-05
1.35112e-05
1.35144e-05
1.35168e-05
1.35184e-05
1.35163e-05
1.35194e-05
1.35165e-05
1.35187e-05
1.35161e-05
1.35175e-05
1.35149e-05
1.35155e-05
1.35132e-05
1.35131e-05
1.35111e-05
1.35104e-05
1.35082e-05
1.35075e-05
1.35054e-05
1.35054e-05
1.35039e-05
1.35044e-05
1.35032e-05
1.35042e-05
1.35034e-05
1.35048e-05
1.35048e-05
1.35064e-05
1.35073e-05
1.3509e-05
1.35104e-05
1.35117e-05
1.35136e-05
1.35141e-05
1.35173e-05
1.3521e-05
1.3527e-05
1.3531e-05
1.35358e-05
1.35395e-05
1.35437e-05
1.35482e-05
1.35521e-05
1.35567e-05
1.35608e-05
1.35655e-05
1.35693e-05
1.35734e-05
1.35771e-05
1.35802e-05
1.35813e-05
1.35842e-05
1.35851e-05
1.35874e-05
1.35844e-05
1.35839e-05
1.35791e-05
1.35729e-05
1.3568e-05
1.35593e-05
1.35523e-05
1.35457e-05
1.35357e-05
1.35261e-05
1.35177e-05
1.35084e-05
1.34994e-05
1.34936e-05
1.34897e-05
1.34877e-05
1.34837e-05
1.34794e-05
1.34745e-05
1.34704e-05
1.34663e-05
1.34624e-05
1.34585e-05
1.34549e-05
1.34519e-05
1.34489e-05
1.3447e-05
1.34462e-05
1.34461e-05
1.34466e-05
1.34479e-05
1.34494e-05
1.34522e-05
1.34542e-05
1.34562e-05
1.34577e-05
1.34591e-05
1.34605e-05
1.34617e-05
1.34623e-05
1.34619e-05
1.3462e-05
1.34613e-05
1.34612e-05
1.34606e-05
1.34599e-05
1.34591e-05
1.34584e-05
1.34574e-05
1.34567e-05
1.34558e-05
1.34551e-05
1.34539e-05
1.34534e-05
1.34524e-05
1.34519e-05
1.34506e-05
1.34497e-05
1.3448e-05
1.3447e-05
1.34454e-05
1.34438e-05
1.34425e-05
1.34406e-05
1.34393e-05
1.34371e-05
1.34353e-05
1.34332e-05
1.34312e-05
1.34289e-05
1.34269e-05
1.34243e-05
1.34221e-05
1.34195e-05
1.34173e-05
1.34151e-05
1.34126e-05
1.34107e-05
1.34083e-05
1.34065e-05
1.34042e-05
1.34024e-05
1.34003e-05
1.33987e-05
1.33971e-05
1.33957e-05
1.33941e-05
1.33928e-05
1.33912e-05
1.33897e-05
1.33892e-05
1.33879e-05
1.33875e-05
1.33869e-05
1.33862e-05
1.3386e-05
1.33856e-05
1.33855e-05
1.33854e-05
1.33854e-05
1.33854e-05
1.33857e-05
1.33851e-05
1.33852e-05
1.33848e-05
1.33849e-05
1.33845e-05
1.33844e-05
1.33837e-05
1.33834e-05
1.33821e-05
1.33817e-05
1.33806e-05
1.33799e-05
1.33794e-05
1.33786e-05
1.33782e-05
1.33779e-05
1.33784e-05
1.33789e-05
1.33797e-05
1.33808e-05
1.33815e-05
1.33869e-05
1.33936e-05
1.3402e-05
1.34092e-05
1.34181e-05
1.34249e-05
1.34335e-05
1.34406e-05
1.34494e-05
1.34561e-05
1.34652e-05
1.34714e-05
1.34804e-05
1.3486e-05
1.34943e-05
1.34991e-05
1.35067e-05
1.35103e-05
1.35169e-05
1.35197e-05
1.35256e-05
1.35271e-05
1.3533e-05
1.35341e-05
1.354e-05
1.35408e-05
1.35471e-05
1.35468e-05
1.35535e-05
1.35526e-05
1.35599e-05
1.35596e-05
1.35672e-05
1.35669e-05
1.35752e-05
1.35746e-05
1.35833e-05
1.35783e-05
1.35872e-05
1.35892e-05
1.35853e-05
1.36042e-05
1.35876e-05
1.36294e-05
1.35812e-05
1.36679e-05
1.35731e-05
1.37195e-05
1.35806e-05
1.37655e-05
1.35975e-05
1.37767e-05
1.36263e-05
1.37831e-05
1.36695e-05
1.37408e-05
1.37217e-05
1.36662e-05
1.37325e-05
1.36852e-05
1.36164e-05
1.34483e-05
1.14501e-05
7.97063e-06
6.65398e-06
7.14328e-06
5.75057e-06
4.85149e-06
4.70147e-06
6.14901e-06
4.34338e-06
4.11432e-06
5.6597e-06
2.5633e-05
5.22107e-05
3.1289e-05
2.24135e-05
1.7811e-05
1.51137e-05
1.34975e-05
1.24837e-05
1.18445e-05
1.14597e-05
1.12504e-05
1.11775e-05
1.11908e-05
1.12704e-05
1.1395e-05
1.15589e-05
1.17609e-05
1.20013e-05
1.22909e-05
1.2635e-05
1.30344e-05
1.35022e-05
1.40434e-05
1.46226e-05
1.52538e-05
1.59503e-05
1.67236e-05
1.75765e-05
1.83133e-05
1.8755e-05
1.91985e-05
1.96391e-05
2.00746e-05
2.05044e-05
2.09277e-05
2.13438e-05
2.17526e-05
2.21526e-05
2.25439e-05
2.29249e-05
2.32968e-05
2.36577e-05
2.40098e-05
2.4352e-05
2.46873e-05
2.50147e-05
2.53373e-05
2.56557e-05
2.5971e-05
2.62816e-05
2.65874e-05
2.68877e-05
2.71807e-05
2.74674e-05
2.77456e-05
2.8015e-05
2.82763e-05
2.8529e-05
2.87753e-05
2.9014e-05
2.92472e-05
2.94725e-05
2.96942e-05
2.99098e-05
3.01215e-05
3.03266e-05
3.05273e-05
3.07219e-05
3.09121e-05
3.10974e-05
3.12785e-05
3.14557e-05
3.1628e-05
3.17965e-05
3.19587e-05
3.2116e-05
3.22657e-05
3.24089e-05
3.25438e-05
3.26716e-05
3.27921e-05
3.29055e-05
3.30126e-05
3.31124e-05
3.32086e-05
3.32988e-05
3.33876e-05
3.3472e-05
3.35563e-05
3.3638e-05
3.37201e-05
3.37979e-05
3.38761e-05
3.39479e-05
3.40196e-05
3.40877e-05
3.41562e-05
3.42204e-05
3.42869e-05
3.43448e-05
3.44076e-05
3.44621e-05
3.45178e-05
3.45679e-05
3.46162e-05
3.46585e-05
3.47013e-05
3.47336e-05
3.47734e-05
3.47924e-05
3.48084e-05
3.4908e-05
3.48869e-05
3.4811e-05
3.48223e-05
3.49836e-05
3.49684e-05
3.48947e-05
3.49678e-05
3.50775e-05
3.48112e-05
3.48883e-05
3.50793e-05
3.4762e-05
3.44681e-05
3.48857e-05
3.52141e-05
3.47549e-05
3.44975e-05
3.43363e-05
3.43801e-05
3.47728e-05
3.51168e-05
3.45903e-05
3.43197e-05
3.42919e-05
3.41748e-05
3.41509e-05
3.46659e-05
3.50229e-05
3.43794e-05
3.40966e-05
3.41555e-05
3.40392e-05
3.40272e-05
3.40178e-05
3.44496e-05
3.48155e-05
3.4217e-05
3.3858e-05
3.39153e-05
3.41283e-05
3.41719e-05
3.40681e-05
3.40078e-05
3.40805e-05
3.41146e-05
3.39821e-05
3.37275e-05
3.41666e-05
3.46206e-05
3.41212e-05
3.38479e-05
3.39134e-05
3.40137e-05
3.39422e-05
3.39884e-05
3.40821e-05
3.41149e-05
3.40863e-05
3.39809e-05
3.40493e-05
3.41542e-05
3.40843e-05
3.4013e-05
3.40349e-05
3.40168e-05
3.38338e-05
3.42327e-05
3.46506e-05
3.42269e-05
3.40388e-05
3.40261e-05
3.41515e-05
3.41408e-05
3.4225e-05
3.42538e-05
3.43039e-05
3.42576e-05
3.4225e-05
3.40883e-05
3.4029e-05
3.4449e-05
3.48256e-05
3.44629e-05
3.43267e-05
3.44483e-05
3.44941e-05
3.44019e-05
3.45652e-05
3.46279e-05
3.4593e-05
3.47081e-05
3.47364e-05
3.4748e-05
3.48019e-05
3.48181e-05
3.48954e-05
3.48742e-05
3.49168e-05
3.49492e-05
3.4922e-05
3.49639e-05
3.49825e-05
3.49629e-05
3.48653e-05
3.49413e-05
3.53058e-05
3.53238e-05
3.5425e-05
3.54685e-05
3.55435e-05
3.55906e-05
3.56644e-05
3.57148e-05
3.57861e-05
3.58324e-05
3.58977e-05
3.59216e-05
3.59501e-05
3.59707e-05
3.5988e-05
3.60037e-05
3.6019e-05
3.60308e-05
3.60475e-05
3.60504e-05
3.60704e-05
3.60692e-05
3.60743e-05
3.60505e-05
3.60863e-05
3.60733e-05
3.60459e-05
3.60291e-05
3.60544e-05
3.61136e-05
3.61342e-05
3.61102e-05
3.61195e-05
3.61388e-05
3.61636e-05
3.61682e-05
3.6162e-05
3.61811e-05
3.62237e-05
3.62586e-05
3.62708e-05
3.62725e-05
3.62804e-05
3.63097e-05
3.63052e-05
3.62912e-05
3.62576e-05
3.62614e-05
3.62574e-05
3.62672e-05
3.62777e-05
3.62877e-05
3.62916e-05
3.63069e-05
3.63197e-05
3.6337e-05
3.63577e-05
3.63811e-05
3.63964e-05
3.64128e-05
3.64306e-05
3.64443e-05
3.64545e-05
3.64636e-05
3.64765e-05
3.64905e-05
3.64994e-05
3.65067e-05
3.65118e-05
3.65179e-05
3.6522e-05
3.65248e-05
3.65255e-05
3.6527e-05
3.65276e-05
3.65285e-05
3.65282e-05
3.65274e-05
3.6525e-05
3.65231e-05
3.65215e-05
3.65213e-05
3.652e-05
3.65189e-05
3.65167e-05
3.65147e-05
3.65106e-05
3.65093e-05
3.65054e-05
3.65038e-05
3.65007e-05
3.64995e-05
3.64962e-05
3.64949e-05
3.64922e-05
3.6491e-05
3.64893e-05
3.64891e-05
3.64877e-05
3.64882e-05
3.64888e-05
3.64895e-05
3.64915e-05
3.64951e-05
3.6498e-05
3.65017e-05
3.65059e-05
3.65097e-05
3.65143e-05
3.6519e-05
3.65234e-05
3.65277e-05
3.65319e-05
3.65359e-05
3.65399e-05
3.65439e-05
3.65485e-05
3.6553e-05
3.65576e-05
3.65617e-05
3.65657e-05
3.65692e-05
3.65726e-05
3.65762e-05
3.65799e-05
3.65836e-05
3.6587e-05
3.65906e-05
3.65936e-05
3.65963e-05
3.65984e-05
3.66002e-05
3.6601e-05
3.66017e-05
3.6602e-05
3.66016e-05
3.65988e-05
3.65951e-05
3.65898e-05
3.65809e-05
3.65723e-05
3.65632e-05
3.65526e-05
3.65445e-05
3.65363e-05
3.6527e-05
3.65193e-05
3.65129e-05
3.65071e-05
3.65044e-05
3.65057e-05
3.6511e-05
3.65174e-05
3.65209e-05
3.65217e-05
3.65225e-05
3.6523e-05
3.65234e-05
3.65237e-05
3.65248e-05
3.65266e-05
3.65294e-05
3.65332e-05
3.65377e-05
3.65443e-05
3.65508e-05
3.6559e-05
3.65656e-05
3.65709e-05
3.65751e-05
3.65784e-05
3.65808e-05
3.65821e-05
3.65827e-05
3.65826e-05
3.65815e-05
3.65789e-05
3.65752e-05
3.65719e-05
3.65685e-05
3.65648e-05
3.65604e-05
3.65569e-05
3.65532e-05
3.65505e-05
3.65481e-05
3.65451e-05
3.65432e-05
3.65415e-05
3.65393e-05
3.65379e-05
3.65369e-05
3.65356e-05
3.65338e-05
3.65325e-05
3.65313e-05
3.65299e-05
3.6528e-05
3.65262e-05
3.65243e-05
3.65224e-05
3.652e-05
3.65175e-05
3.65147e-05
3.65114e-05
3.65083e-05
3.65047e-05
3.65014e-05
3.64975e-05
3.6494e-05
3.64904e-05
3.64869e-05
3.64833e-05
3.64799e-05
3.64767e-05
3.64736e-05
3.64709e-05
3.64684e-05
3.64661e-05
3.64643e-05
3.64629e-05
3.64616e-05
3.64603e-05
3.6459e-05
3.64578e-05
3.64565e-05
3.64559e-05
3.64554e-05
3.64553e-05
3.64558e-05
3.64564e-05
3.64574e-05
3.64586e-05
3.64598e-05
3.64611e-05
3.64626e-05
3.6464e-05
3.64654e-05
3.64662e-05
3.64665e-05
3.64663e-05
3.64658e-05
3.64645e-05
3.64627e-05
3.64601e-05
3.64569e-05
3.64532e-05
3.64489e-05
3.64444e-05
3.64396e-05
3.64348e-05
3.64297e-05
3.64251e-05
3.64206e-05
3.64169e-05
3.64137e-05
3.64118e-05
3.64113e-05
3.64126e-05
3.64161e-05
3.64213e-05
3.64275e-05
3.64338e-05
3.64405e-05
3.64473e-05
3.64553e-05
3.64639e-05
3.64736e-05
3.64834e-05
3.6494e-05
3.65042e-05
3.65144e-05
3.65242e-05
3.65341e-05
3.65431e-05
3.65521e-05
3.65602e-05
3.65683e-05
3.65754e-05
3.65819e-05
3.65874e-05
3.65927e-05
3.65968e-05
3.66013e-05
3.66051e-05
3.66096e-05
3.66136e-05
3.66188e-05
3.66232e-05
3.66289e-05
3.66339e-05
3.66404e-05
3.66464e-05
3.66541e-05
3.66615e-05
3.66711e-05
3.66799e-05
3.66915e-05
3.67038e-05
3.67147e-05
3.67319e-05
3.67401e-05
3.67638e-05
3.67609e-05
3.68012e-05
3.67737e-05
3.68422e-05
3.67785e-05
3.68791e-05
3.67578e-05
3.68891e-05
3.66992e-05
3.68502e-05
3.65966e-05
3.67414e-05
3.64518e-05
3.65514e-05
3.62338e-05
3.62249e-05
3.56294e-05
3.50495e-05
3.25944e-05
2.79554e-05
2.43973e-05
2.3158e-05
2.63543e-05
2.37185e-05
2.20519e-05
1.88442e-05
1.57404e-05
1.81414e-05
1.54891e-05
1.58172e-05
2.14155e-05
0.000149328
0.000113837
7.80807e-05
6.77901e-05
5.45258e-05
4.4515e-05
3.66098e-05
3.07902e-05
2.64883e-05
2.33137e-05
2.0877e-05
1.89901e-05
1.74862e-05
1.62851e-05
1.5313e-05
1.4527e-05
1.38911e-05
1.33804e-05
1.29781e-05
1.26704e-05
1.24462e-05
1.22982e-05
1.22214e-05
1.22133e-05
1.22726e-05
1.23998e-05
1.25969e-05
1.28614e-05
1.31869e-05
1.35711e-05
1.40118e-05
1.45091e-05
1.50651e-05
1.56456e-05
1.62401e-05
1.68484e-05
1.74711e-05
1.81091e-05
1.87628e-05
1.94328e-05
2.01193e-05
2.08218e-05
2.15407e-05
2.22764e-05
2.30304e-05
2.3798e-05
2.44079e-05
2.5018e-05
2.56298e-05
2.62456e-05
2.68667e-05
2.74916e-05
2.81212e-05
2.87507e-05
2.93791e-05
3.00022e-05
3.06186e-05
3.12251e-05
3.18228e-05
3.2409e-05
3.29872e-05
3.35573e-05
3.4119e-05
3.46736e-05
3.52187e-05
3.57555e-05
3.62837e-05
3.68031e-05
3.73134e-05
3.78159e-05
3.83089e-05
3.87954e-05
3.92748e-05
3.97479e-05
4.02158e-05
4.06773e-05
4.11311e-05
4.15784e-05
4.2017e-05
4.24468e-05
4.2867e-05
4.32749e-05
4.36728e-05
4.40585e-05
4.44328e-05
4.47955e-05
4.51482e-05
4.54905e-05
4.58287e-05
4.61586e-05
4.64894e-05
4.68179e-05
4.71493e-05
4.74849e-05
4.78247e-05
4.81549e-05
4.83984e-05
4.86329e-05
4.88591e-05
4.9078e-05
4.92909e-05
4.94982e-05
4.96998e-05
4.98957e-05
5.00853e-05
5.02695e-05
5.04457e-05
5.06177e-05
5.07771e-05
5.0936e-05
5.10829e-05
5.12251e-05
5.1362e-05
5.14889e-05
5.16032e-05
5.17207e-05
5.17981e-05
5.19031e-05
5.19684e-05
5.20428e-05
5.21114e-05
5.21782e-05
5.22458e-05
5.22877e-05
5.23445e-05
5.23867e-05
5.24331e-05
5.24614e-05
5.24955e-05
5.2514e-05
5.25375e-05
5.25683e-05
5.25761e-05
5.26197e-05
5.26483e-05
5.26772e-05
5.26878e-05
5.26967e-05
5.27092e-05
5.2754e-05
5.27668e-05
5.28169e-05
5.28492e-05
5.28675e-05
5.28848e-05
5.29208e-05
5.29568e-05
5.29802e-05
5.30075e-05
5.30565e-05
5.30752e-05
5.31177e-05
5.31571e-05
5.31918e-05
5.32354e-05
5.32878e-05
5.33257e-05
5.33602e-05
5.34008e-05
5.34541e-05
5.34933e-05
5.35494e-05
5.36022e-05
5.36435e-05
5.36999e-05
5.3754e-05
5.38092e-05
5.3884e-05
5.39423e-05
5.39921e-05
5.40696e-05
5.41343e-05
5.41925e-05
5.42574e-05
5.43273e-05
5.44031e-05
5.44666e-05
5.45401e-05
5.46183e-05
5.46835e-05
5.47446e-05
5.48131e-05
5.49039e-05
5.4972e-05
5.50359e-05
5.51314e-05
5.52091e-05
5.5277e-05
5.53664e-05
5.54492e-05
5.55402e-05
5.5656e-05
5.57509e-05
5.58339e-05
5.59129e-05
5.60066e-05
5.61046e-05
5.62181e-05
5.63161e-05
5.64276e-05
5.65523e-05
5.66611e-05
5.6789e-05
5.69184e-05
5.70468e-05
5.7181e-05
5.72645e-05
5.73779e-05
5.74642e-05
5.75645e-05
5.76579e-05
5.77512e-05
5.78341e-05
5.78753e-05
5.80228e-05
5.82431e-05
5.84336e-05
5.86172e-05
5.87709e-05
5.89167e-05
5.90585e-05
5.91908e-05
5.9328e-05
5.94552e-05
5.95894e-05
5.97105e-05
5.98357e-05
5.99463e-05
6.00577e-05
6.01548e-05
6.02501e-05
6.03335e-05
6.04159e-05
6.04877e-05
6.05635e-05
6.06199e-05
6.06944e-05
6.07341e-05
6.07897e-05
6.07988e-05
6.08786e-05
6.0878e-05
6.08964e-05
6.08865e-05
6.09484e-05
6.10427e-05
6.11002e-05
6.11159e-05
6.11443e-05
6.11825e-05
6.1241e-05
6.12646e-05
6.12789e-05
6.13247e-05
6.1393e-05
6.14658e-05
6.15112e-05
6.15413e-05
6.1563e-05
6.16208e-05
6.16438e-05
6.16498e-05
6.16127e-05
6.16233e-05
6.16235e-05
6.1646e-05
6.16675e-05
6.16957e-05
6.17089e-05
6.17478e-05
6.17798e-05
6.18251e-05
6.18733e-05
6.19283e-05
6.19734e-05
6.20242e-05
6.20802e-05
6.21307e-05
6.21757e-05
6.22192e-05
6.22657e-05
6.23159e-05
6.23612e-05
6.24041e-05
6.24417e-05
6.24788e-05
6.2514e-05
6.25473e-05
6.25758e-05
6.26028e-05
6.26273e-05
6.26525e-05
6.26736e-05
6.26921e-05
6.27067e-05
6.2721e-05
6.27342e-05
6.2748e-05
6.27603e-05
6.27731e-05
6.27838e-05
6.27946e-05
6.28014e-05
6.28092e-05
6.28143e-05
6.28204e-05
6.28246e-05
6.28301e-05
6.28338e-05
6.28389e-05
6.28427e-05
6.28477e-05
6.28522e-05
6.28577e-05
6.28625e-05
6.28692e-05
6.28763e-05
6.28843e-05
6.28938e-05
6.29054e-05
6.2917e-05
6.29301e-05
6.2944e-05
6.29583e-05
6.29734e-05
6.29888e-05
6.30042e-05
6.30197e-05
6.30352e-05
6.30509e-05
6.30664e-05
6.30819e-05
6.30982e-05
6.3115e-05
6.31327e-05
6.31503e-05
6.31679e-05
6.31848e-05
6.32018e-05
6.32187e-05
6.32361e-05
6.32532e-05
6.32702e-05
6.3287e-05
6.33028e-05
6.33176e-05
6.33311e-05
6.33432e-05
6.33531e-05
6.33616e-05
6.3369e-05
6.33742e-05
6.33758e-05
6.33739e-05
6.33689e-05
6.33581e-05
6.33453e-05
6.33296e-05
6.33106e-05
6.32924e-05
6.32734e-05
6.32521e-05
6.32317e-05
6.32129e-05
6.31953e-05
6.31822e-05
6.31758e-05
6.31768e-05
6.31813e-05
6.3184e-05
6.31841e-05
6.3184e-05
6.31838e-05
6.31841e-05
6.31848e-05
6.31869e-05
6.31906e-05
6.31963e-05
6.3204e-05
6.32143e-05
6.32278e-05
6.32429e-05
6.32608e-05
6.32784e-05
6.32958e-05
6.33114e-05
6.33254e-05
6.33379e-05
6.33487e-05
6.33577e-05
6.33639e-05
6.33683e-05
6.33705e-05
6.33712e-05
6.33715e-05
6.33711e-05
6.33702e-05
6.33683e-05
6.33669e-05
6.33656e-05
6.33651e-05
6.33653e-05
6.33653e-05
6.33665e-05
6.33683e-05
6.33699e-05
6.33726e-05
6.33759e-05
6.33793e-05
6.33825e-05
6.33859e-05
6.33893e-05
6.33922e-05
6.33943e-05
6.33961e-05
6.33974e-05
6.33984e-05
6.3399e-05
6.3398e-05
6.33959e-05
6.33932e-05
6.33896e-05
6.33854e-05
6.33807e-05
6.33755e-05
6.33706e-05
6.33654e-05
6.33603e-05
6.33551e-05
6.33502e-05
6.3346e-05
6.33429e-05
6.334e-05
6.33382e-05
6.33371e-05
6.33369e-05
6.33374e-05
6.33384e-05
6.33395e-05
6.33408e-05
6.33432e-05
6.33455e-05
6.33491e-05
6.33531e-05
6.3358e-05
6.33642e-05
6.33716e-05
6.33797e-05
6.33876e-05
6.33961e-05
6.34056e-05
6.34146e-05
6.34233e-05
6.34324e-05
6.34398e-05
6.34464e-05
6.34518e-05
6.34557e-05
6.34579e-05
6.34585e-05
6.34571e-05
6.34546e-05
6.34498e-05
6.34439e-05
6.34373e-05
6.34286e-05
6.34204e-05
6.34116e-05
6.34032e-05
6.33954e-05
6.33889e-05
6.33839e-05
6.33817e-05
6.33831e-05
6.3389e-05
6.34001e-05
6.34167e-05
6.34378e-05
6.34623e-05
6.34897e-05
6.35196e-05
6.35523e-05
6.35873e-05
6.36244e-05
6.36632e-05
6.37029e-05
6.37429e-05
6.37821e-05
6.38206e-05
6.38578e-05
6.38934e-05
6.39273e-05
6.39595e-05
6.39897e-05
6.40178e-05
6.40432e-05
6.40665e-05
6.40876e-05
6.41069e-05
6.41249e-05
6.41421e-05
6.4159e-05
6.41756e-05
6.41922e-05
6.42083e-05
6.42246e-05
6.42405e-05
6.42571e-05
6.42737e-05
6.42919e-05
6.43113e-05
6.43328e-05
6.43561e-05
6.4381e-05
6.44104e-05
6.44367e-05
6.44727e-05
6.44984e-05
6.45479e-05
6.45614e-05
6.4637e-05
6.461e-05
6.47328e-05
6.4637e-05
6.48174e-05
6.46097e-05
6.48424e-05
6.44931e-05
6.47568e-05
6.42614e-05
6.45084e-05
6.3908e-05
6.40603e-05
6.33737e-05
6.33246e-05
6.21804e-05
6.0833e-05
5.7106e-05
4.80889e-05
3.47464e-05
3.6948e-05
3.95596e-05
3.64601e-05
3.41189e-05
2.98317e-05
2.44312e-05
2.09338e-05
2.28964e-05
2.54121e-05
3.588e-05
0.000183047
0.000141314
7.49961e-05
7.33227e-05
7.54232e-05
8.29016e-05
9.18732e-05
7.98419e-05
7.03284e-05
6.26885e-05
5.63463e-05
5.10855e-05
4.66345e-05
4.28752e-05
3.96693e-05
3.69328e-05
3.45385e-05
3.24215e-05
3.05144e-05
2.87736e-05
2.71765e-05
2.57124e-05
2.43818e-05
2.31842e-05
2.21143e-05
2.11644e-05
2.03258e-05
1.95869e-05
1.89388e-05
1.83728e-05
1.78816e-05
1.74593e-05
1.71008e-05
1.68039e-05
1.65668e-05
1.63883e-05
1.62677e-05
1.62061e-05
1.62136e-05
1.62925e-05
1.64347e-05
1.66345e-05
1.6888e-05
1.71952e-05
1.7556e-05
1.79733e-05
1.84363e-05
1.89271e-05
1.9447e-05
1.99983e-05
2.05822e-05
2.11999e-05
2.18512e-05
2.25343e-05
2.3247e-05
2.39854e-05
2.47451e-05
2.55229e-05
2.63137e-05
2.71149e-05
2.7925e-05
2.85739e-05
2.92192e-05
2.98693e-05
3.05253e-05
3.11891e-05
3.18621e-05
3.25436e-05
3.32345e-05
3.39341e-05
3.46414e-05
3.53599e-05
3.60902e-05
3.6837e-05
3.7602e-05
3.8388e-05
3.91934e-05
4.00196e-05
4.08656e-05
4.17309e-05
4.26098e-05
4.34942e-05
4.43851e-05
4.52735e-05
4.61596e-05
4.70336e-05
4.78985e-05
4.87469e-05
4.95863e-05
5.04105e-05
5.12443e-05
5.20729e-05
5.29235e-05
5.35621e-05
5.41714e-05
5.47724e-05
5.53661e-05
5.59527e-05
5.65319e-05
5.71039e-05
5.76691e-05
5.82261e-05
5.87743e-05
5.93132e-05
5.98422e-05
6.03617e-05
6.08693e-05
6.13671e-05
6.18483e-05
6.23194e-05
6.27738e-05
6.32127e-05
6.36403e-05
6.40507e-05
6.4442e-05
6.48292e-05
6.51677e-05
6.55196e-05
6.5824e-05
6.61268e-05
6.64193e-05
6.67007e-05
6.69826e-05
6.72296e-05
6.74898e-05
6.77261e-05
6.79535e-05
6.81638e-05
6.83738e-05
6.856e-05
6.87513e-05
6.89448e-05
6.91107e-05
6.9317e-05
6.94985e-05
6.96791e-05
6.98217e-05
6.99652e-05
7.01027e-05
7.02769e-05
7.04128e-05
7.06012e-05
7.07664e-05
7.09158e-05
7.10483e-05
7.11928e-05
7.13408e-05
7.14685e-05
7.16014e-05
7.17632e-05
7.18852e-05
7.20421e-05
7.21837e-05
7.23236e-05
7.24717e-05
7.26332e-05
7.27699e-05
7.29006e-05
7.30421e-05
7.31971e-05
7.33395e-05
7.34935e-05
7.36479e-05
7.37845e-05
7.3934e-05
7.40894e-05
7.42486e-05
7.44324e-05
7.45986e-05
7.47471e-05
7.49305e-05
7.50905e-05
7.52403e-05
7.53965e-05
7.55608e-05
7.57379e-05
7.59025e-05
7.60853e-05
7.62655e-05
7.64343e-05
7.65994e-05
7.67641e-05
7.69614e-05
7.71384e-05
7.73077e-05
7.75111e-05
7.76943e-05
7.7869e-05
7.80682e-05
7.82594e-05
7.84644e-05
7.86988e-05
7.89044e-05
7.9102e-05
7.92918e-05
7.94982e-05
7.97223e-05
7.99624e-05
8.01788e-05
8.04129e-05
8.06638e-05
8.08923e-05
8.11447e-05
8.1393e-05
8.16407e-05
8.19019e-05
8.211e-05
8.23537e-05
8.25542e-05
8.27716e-05
8.29716e-05
8.31697e-05
8.33625e-05
8.35162e-05
8.37936e-05
8.41576e-05
8.4504e-05
8.48485e-05
8.51553e-05
8.5447e-05
8.57272e-05
8.59921e-05
8.6264e-05
8.65231e-05
8.67969e-05
8.70529e-05
8.73138e-05
8.75508e-05
8.779e-05
8.80055e-05
8.82174e-05
8.8406e-05
8.85919e-05
8.87574e-05
8.89272e-05
8.90682e-05
8.92288e-05
8.93406e-05
8.94765e-05
8.9549e-05
8.96992e-05
8.97431e-05
8.98277e-05
8.9857e-05
8.99728e-05
9.01235e-05
9.02197e-05
9.02865e-05
9.03502e-05
9.04169e-05
9.05113e-05
9.05597e-05
9.06031e-05
9.06813e-05
9.07728e-05
9.08841e-05
9.09588e-05
9.10181e-05
9.10577e-05
9.11333e-05
9.11736e-05
9.12021e-05
9.11739e-05
9.11932e-05
9.11995e-05
9.12343e-05
9.12662e-05
9.13084e-05
9.13335e-05
9.13874e-05
9.14333e-05
9.14999e-05
9.15706e-05
9.16506e-05
9.17218e-05
9.18004e-05
9.18863e-05
9.19721e-05
9.20476e-05
9.21252e-05
9.22062e-05
9.22918e-05
9.23725e-05
9.24522e-05
9.25259e-05
9.25988e-05
9.26688e-05
9.27373e-05
9.2799e-05
9.28584e-05
9.29139e-05
9.29691e-05
9.30182e-05
9.30631e-05
9.31025e-05
9.31406e-05
9.31756e-05
9.32112e-05
9.32447e-05
9.32781e-05
9.33091e-05
9.33383e-05
9.3362e-05
9.33857e-05
9.34055e-05
9.34257e-05
9.34432e-05
9.34611e-05
9.34769e-05
9.34936e-05
9.35087e-05
9.35247e-05
9.35398e-05
9.35558e-05
9.3571e-05
9.35882e-05
9.3606e-05
9.36252e-05
9.36458e-05
9.36689e-05
9.36927e-05
9.37184e-05
9.37453e-05
9.37729e-05
9.38015e-05
9.38305e-05
9.38595e-05
9.38889e-05
9.39181e-05
9.39479e-05
9.39775e-05
9.40077e-05
9.40388e-05
9.40709e-05
9.41045e-05
9.41386e-05
9.41732e-05
9.42073e-05
9.42419e-05
9.42769e-05
9.43129e-05
9.43491e-05
9.43856e-05
9.4422e-05
9.44573e-05
9.44909e-05
9.45227e-05
9.45523e-05
9.45785e-05
9.46023e-05
9.46238e-05
9.46416e-05
9.46542e-05
9.46611e-05
9.46627e-05
9.46565e-05
9.46459e-05
9.46297e-05
9.46081e-05
9.45843e-05
9.45581e-05
9.4528e-05
9.44972e-05
9.44671e-05
9.44377e-05
9.44133e-05
9.43963e-05
9.43881e-05
9.43847e-05
9.43805e-05
9.43745e-05
9.43685e-05
9.4363e-05
9.43589e-05
9.43558e-05
9.43551e-05
9.43567e-05
9.43616e-05
9.43694e-05
9.43813e-05
9.43975e-05
9.44168e-05
9.44396e-05
9.44632e-05
9.44874e-05
9.45106e-05
9.45322e-05
9.45518e-05
9.45682e-05
9.45817e-05
9.45918e-05
9.45995e-05
9.46047e-05
9.46083e-05
9.4611e-05
9.46128e-05
9.46138e-05
9.46138e-05
9.46144e-05
9.46153e-05
9.46175e-05
9.46207e-05
9.46243e-05
9.46297e-05
9.46361e-05
9.46432e-05
9.46517e-05
9.46613e-05
9.46714e-05
9.46819e-05
9.46925e-05
9.47031e-05
9.47127e-05
9.47212e-05
9.47288e-05
9.47353e-05
9.47406e-05
9.47446e-05
9.47459e-05
9.4745e-05
9.47423e-05
9.47381e-05
9.47325e-05
9.4726e-05
9.47187e-05
9.47117e-05
9.47044e-05
9.46975e-05
9.46908e-05
9.4685e-05
9.46806e-05
9.4678e-05
9.46765e-05
9.46768e-05
9.46786e-05
9.46817e-05
9.4686e-05
9.46912e-05
9.4697e-05
9.47034e-05
9.47114e-05
9.472e-05
9.47304e-05
9.4742e-05
9.47554e-05
9.47707e-05
9.4788e-05
9.48066e-05
9.48253e-05
9.48449e-05
9.48652e-05
9.48851e-05
9.49043e-05
9.49234e-05
9.49399e-05
9.49546e-05
9.49668e-05
9.49764e-05
9.49829e-05
9.49864e-05
9.49863e-05
9.49836e-05
9.49774e-05
9.49691e-05
9.49589e-05
9.49462e-05
9.49332e-05
9.49192e-05
9.49057e-05
9.48932e-05
9.48828e-05
9.48753e-05
9.48727e-05
9.48766e-05
9.48887e-05
9.49103e-05
9.49418e-05
9.49828e-05
9.50318e-05
9.50881e-05
9.51512e-05
9.52204e-05
9.52953e-05
9.5375e-05
9.54589e-05
9.55454e-05
9.56333e-05
9.57205e-05
9.58066e-05
9.58902e-05
9.59711e-05
9.60485e-05
9.6123e-05
9.61934e-05
9.62601e-05
9.63221e-05
9.63804e-05
9.64348e-05
9.64863e-05
9.65352e-05
9.65828e-05
9.6629e-05
9.66743e-05
9.67182e-05
9.67605e-05
9.68011e-05
9.684e-05
9.68779e-05
9.69151e-05
9.69533e-05
9.69927e-05
9.70348e-05
9.70807e-05
9.71285e-05
9.7184e-05
9.72361e-05
9.73019e-05
9.73566e-05
9.74431e-05
9.74879e-05
9.76084e-05
9.76034e-05
9.77818e-05
9.76866e-05
9.79354e-05
9.76884e-05
9.79994e-05
9.75492e-05
9.7885e-05
9.7213e-05
9.75077e-05
9.66507e-05
9.67942e-05
9.5765e-05
9.56004e-05
9.3827e-05
9.1667e-05
8.63415e-05
7.41851e-05
5.344e-05
5.11385e-05
5.41068e-05
4.99939e-05
4.55768e-05
3.96598e-05
3.32619e-05
2.62776e-05
2.61692e-05
3.31649e-05
3.8809e-05
0.000188761
0.000126431
7.16054e-05
6.90477e-05
7.13066e-05
7.68643e-05
9.01095e-05
0.00010019
0.000119252
0.000115776
0.000107482
0.000100248
9.36937e-05
8.78066e-05
8.25182e-05
7.77838e-05
7.34803e-05
6.95431e-05
6.58972e-05
6.24917e-05
5.92961e-05
5.63041e-05
5.35197e-05
5.09434e-05
4.85656e-05
4.63787e-05
4.43714e-05
4.25242e-05
4.08246e-05
3.92574e-05
3.78122e-05
3.64785e-05
3.52456e-05
3.41071e-05
3.30581e-05
3.20924e-05
3.12067e-05
3.03858e-05
2.95588e-05
2.86932e-05
2.78241e-05
2.69909e-05
2.62164e-05
2.55099e-05
2.48758e-05
2.43154e-05
2.38289e-05
2.34172e-05
2.308e-05
2.28164e-05
2.26251e-05
2.25043e-05
2.24521e-05
2.24657e-05
2.25421e-05
2.26786e-05
2.28732e-05
2.31246e-05
2.3432e-05
2.37953e-05
2.4214e-05
2.46853e-05
2.5208e-05
2.57823e-05
2.64069e-05
2.70829e-05
2.78104e-05
2.85866e-05
2.94023e-05
3.02574e-05
3.11526e-05
3.20889e-05
3.30664e-05
3.40855e-05
3.51469e-05
3.62487e-05
3.73907e-05
3.85708e-05
3.97866e-05
4.10358e-05
4.2314e-05
4.36183e-05
4.49447e-05
4.6289e-05
4.76463e-05
4.90118e-05
5.03776e-05
5.17382e-05
5.30869e-05
5.44178e-05
5.57262e-05
5.70076e-05
5.82614e-05
5.94867e-05
6.06844e-05
6.18552e-05
6.30004e-05
6.41208e-05
6.52168e-05
6.62899e-05
6.73414e-05
6.83701e-05
6.93771e-05
7.03632e-05
7.13284e-05
7.22724e-05
7.31941e-05
7.40922e-05
7.49617e-05
7.58046e-05
7.6618e-05
7.74007e-05
7.81605e-05
7.8889e-05
7.95938e-05
8.02796e-05
8.09074e-05
8.154e-05
8.2118e-05
8.26807e-05
8.32229e-05
8.37523e-05
8.42791e-05
8.47744e-05
8.52766e-05
8.57461e-05
8.61883e-05
8.66149e-05
8.70419e-05
8.74255e-05
8.78071e-05
8.82036e-05
8.85762e-05
8.89748e-05
8.93421e-05
8.96977e-05
9.00035e-05
9.02935e-05
9.0568e-05
9.08893e-05
9.11733e-05
9.15122e-05
9.18287e-05
9.21319e-05
9.24085e-05
9.26782e-05
9.29497e-05
9.32047e-05
9.34647e-05
9.37537e-05
9.40088e-05
9.42965e-05
9.45722e-05
9.48441e-05
9.51132e-05
9.53969e-05
9.56639e-05
9.59095e-05
9.61528e-05
9.64267e-05
9.66965e-05
9.69642e-05
9.72307e-05
9.74716e-05
9.7726e-05
9.80028e-05
9.82842e-05
9.85971e-05
9.88993e-05
9.91683e-05
9.9467e-05
9.97391e-05
9.99941e-05
0.000100249
0.000100523
0.000100822
0.000101117
0.000101429
0.000101724
0.000102009
0.000102294
0.000102577
0.000102898
0.000103203
0.000103505
0.000103835
0.000104138
0.000104438
0.000104764
0.000105078
0.000105414
0.000105785
0.000106119
0.000106447
0.000106765
0.000107101
0.000107464
0.00010785
0.000108202
0.000108572
0.000108952
0.000109313
0.000109703
0.000110084
0.000110468
0.000110862
0.000111202
0.000111582
0.0001119
0.000112234
0.000112541
0.000112839
0.00011314
0.000113409
0.000113818
0.000114321
0.000114828
0.000115341
0.000115808
0.000116255
0.00011668
0.00011708
0.000117483
0.000117868
0.000118274
0.000118659
0.000119053
0.000119416
0.000119777
0.000120111
0.000120435
0.000120728
0.000121014
0.000121274
0.000121535
0.000121762
0.000122004
0.000122188
0.000122399
0.000122538
0.000122758
0.000122849
0.000122997
0.000123071
0.000123237
0.00012343
0.000123564
0.000123676