/*--------------------------------*- C++ -*----------------------------------*\
| =========                 |                                                 |
| \\      /  F ield         | foam-extend: Open Source CFD                    |
|  \\    /   O peration     | Version:     3.2                                |
|   \\  /    A nd           | Web:         http://www.foam-extend.org         |
|    \\/     M anipulation  | For copyright notice see file Copyright         |
\*---------------------------------------------------------------------------*/
FoamFile
{
    version     2.0;
    format      ascii;
    class       volScalarField;
    location    "910";
    object      pd;
}
// * * * * * * * * * * * * * * * * * * * * * * * * * * * * * * * * * * * * * //

dimensions      [1 -1 -2 0 0 0 0];

internalField   nonuniform List<scalar> 
33000
(
1202.04
1202.78
1203.53
1205.64
1206.53
1208.4
1209.11
1210.41
1210.9
1211.74
1212.1
1212.63
1212.89
1213.21
1213.39
1213.6
1213.75
1213.9
1214
1214.11
1214.19
1214.27
1214.33
1214.4
1214.45
1214.5
1214.55
1214.6
1214.65
1214.68
1214.72
1214.75
1214.78
1214.81
1214.83
1214.85
1214.88
1214.9
1214.91
1214.93
1214.95
1214.96
1214.97
1214.98
1214.99
1215.01
1215.02
1215.04
1215.05
1215.07
1215.09
1215.11
1215.13
1215.16
1215.18
1215.21
1215.24
1215.26
1215.29
1215.32
1215.35
1215.38
1215.41
1215.43
1215.46
1215.49
1215.51
1215.53
1215.55
1215.57
1215.59
1215.6
1215.61
1215.63
1215.64
1215.65
1215.66
1215.67
1215.68
1215.69
1215.69
1215.7
1215.71
1215.71
1215.72
1215.72
1215.72
1215.72
1215.73
1215.73
1215.73
1215.73
1215.74
1215.75
1215.77
1215.79
1215.82
1215.86
1215.92
1215.99
1216.09
1216.22
1216.38
1216.59
1216.85
1217.18
1217.59
1218.1
1218.69
1219.46
1220.77
1222.49
1225.34
1230.48
1235.94
1238.52
1238.01
1235
1228.99
1225.07
1225.1
1219.83
1211.67
1212.84
1221.14
1220.71
1212.17
1207.07
1204.03
1207.95
1220.57
1222.86
1214.33
1210.16
1208.11
1204.16
1208.51
1220.16
1217.94
1204.77
1198.56
1194.03
1185.97
1180.53
1188.93
1206.52
1209.66
1199.8
1194.37
1191.78
1192.23
1200.93
1208.5
1205.82
1204.03
1213.73
1225.54
1232.16
1232.87
1221.61
1208.24
1206.21
1207.49
1205.98
1202.87
1197.16
1194.83
1202.02
1208.91
1206.2
1202.83
1209.09
1218.79
1222.25
1222
1223.24
1227.96
1230.86
1221.68
1209.7
1207.71
1208.05
1204.33
1200.15
1200.49
1208.14
1217.01
1219.65
1219.14
1220.06
1224.01
1225.97
1214.68
1198.14
1194.53
1204.63
1215.35
1217.49
1215.61
1214.62
1214.45
1214.59
1214.45
1214.44
1214.45
1214.42
1214.45
1214.4
1214.52
1214.4
1214.51
1214.47
1214.5
1214.53
1214.51
1214.7
1214.41
1214.32
1214.31
1214.21
1214.18
1214.11
1214.05
1213.99
1213.91
1213.88
1213.77
1213.77
1213.65
1213.65
1213.53
1213.54
1213.42
1213.43
1213.31
1213.36
1213.19
1213.32
1213.04
1213.27
1212.97
1213.27
1212.77
1213.24
1212.91
1213.08
1212.99
1212.78
1212.97
1212.9
1212.83
1212.88
1212.78
1212.83
1212.84
1212.76
1212.74
1212.69
1212.69
1212.66
1212.66
1212.55
1212.62
1212.59
1212.63
1212.58
1212.6
1212.56
1212.56
1212.54
1212.55
1212.51
1212.52
1212.48
1212.46
1212.44
1212.43
1212.4
1212.37
1212.35
1212.34
1212.31
1212.29
1212.25
1212.23
1212.19
1212.18
1212.14
1212.12
1212.09
1212.08
1212.04
1212.03
1212
1211.99
1211.96
1211.95
1211.93
1211.92
1211.9
1211.89
1211.88
1211.87
1211.86
1211.85
1211.84
1211.84
1211.83
1211.82
1211.81
1211.81
1211.79
1211.79
1211.77
1211.76
1211.75
1211.73
1211.72
1211.7
1211.68
1211.66
1211.63
1211.6
1211.58
1211.55
1211.51
1211.48
1211.45
1211.41
1211.37
1211.33
1211.29
1211.25
1211.21
1211.16
1211.11
1211.07
1211.02
1210.96
1210.91
1210.86
1210.81
1210.76
1210.71
1210.66
1210.61
1210.56
1210.52
1210.47
1210.43
1210.4
1210.36
1210.34
1210.31
1210.29
1210.27
1210.25
1210.24
1210.23
1210.22
1210.22
1210.21
1210.22
1210.22
1210.22
1210.22
1210.23
1210.23
1210.23
1210.22
1210.22
1210.22
1210.22
1210.22
1210.22
1210.22
1210.23
1210.23
1210.23
1210.22
1210.22
1210.22
1210.21
1210.2
1210.19
1210.18
1210.17
1210.16
1210.15
1210.14
1210.13
1210.12
1210.12
1210.11
1210.1
1210.09
1210.08
1210.08
1210.07
1210.06
1210.05
1210.04
1210.03
1210.02
1210
1209.99
1209.97
1209.95
1209.94
1209.92
1209.9
1209.88
1209.86
1209.83
1209.81
1209.79
1209.76
1209.74
1209.71
1209.68
1209.65
1209.62
1209.59
1209.56
1209.53
1209.5
1209.46
1209.43
1209.39
1209.36
1209.33
1209.29
1209.26
1209.22
1209.19
1209.16
1209.12
1209.09
1209.06
1209.04
1209.01
1208.98
1208.96
1208.94
1208.91
1208.89
1208.87
1208.86
1208.84
1208.82
1208.8
1208.79
1208.77
1208.76
1208.74
1208.73
1208.71
1208.7
1208.69
1208.67
1208.66
1208.65
1208.63
1208.62
1208.61
1208.6
1208.59
1208.58
1208.56
1208.55
1208.54
1208.53
1208.52
1208.51
1208.49
1208.48
1208.46
1208.45
1208.43
1208.4
1208.38
1208.36
1208.33
1208.3
1208.28
1208.25
1208.22
1208.19
1208.16
1208.12
1208.09
1208.06
1208.03
1207.99
1207.96
1207.92
1207.89
1207.85
1207.82
1207.78
1207.74
1207.71
1207.67
1207.64
1207.6
1207.56
1207.53
1207.49
1207.46
1207.42
1207.39
1207.35
1207.32
1207.29
1207.25
1207.24
1207.17
1207.21
1207.07
1207.23
1206.89
1207.36
1206.58
1207.62
1206.09
1208.03
1205.47
1208.51
1204.79
1208.98
1204.23
1209.26
1204.04
1209.16
1204.41
1208.65
1205.26
1208.1
1208.76
1209.35
1220.14
1213.76
1217.37
1217.95
1218.93
1220.73
1219.95
1221.31
1219.48
1220.82
1201.93
1202.79
1203.51
1205.64
1206.53
1208.42
1209.12
1210.44
1210.91
1211.75
1212.12
1212.65
1212.9
1213.23
1213.41
1213.62
1213.77
1213.91
1214.01
1214.11
1214.19
1214.27
1214.33
1214.4
1214.45
1214.51
1214.56
1214.61
1214.65
1214.68
1214.72
1214.75
1214.78
1214.81
1214.83
1214.86
1214.88
1214.9
1214.92
1214.93
1214.95
1214.96
1214.97
1214.99
1215
1215.01
1215.02
1215.04
1215.06
1215.07
1215.09
1215.11
1215.14
1215.16
1215.19
1215.21
1215.24
1215.27
1215.3
1215.32
1215.35
1215.38
1215.41
1215.44
1215.46
1215.49
1215.51
1215.53
1215.55
1215.57
1215.59
1215.6
1215.62
1215.63
1215.64
1215.65
1215.66
1215.67
1215.68
1215.69
1215.7
1215.7
1215.71
1215.71
1215.72
1215.72
1215.72
1215.73
1215.73
1215.73
1215.73
1215.74
1215.74
1215.75
1215.77
1215.79
1215.82
1215.86
1215.92
1215.99
1216.09
1216.22
1216.38
1216.58
1216.84
1217.18
1217.58
1218.1
1218.69
1219.49
1220.8
1222.59
1225.37
1229.8
1234.4
1236.74
1236.37
1233.63
1228.73
1225.24
1224.2
1219.59
1213.36
1213.89
1219.48
1219.17
1212.97
1208.43
1205.9
1209.16
1218.47
1220.59
1214.83
1211.08
1208.67
1205.75
1209.14
1217.31
1215.66
1205.93
1199.98
1195.01
1188.02
1183.87
1190.57
1204.11
1207.5
1200.98
1196.13
1193.59
1194.35
1201.28
1207.43
1206.41
1206.05
1214.01
1223.91
1229.67
1229.69
1220.62
1210.13
1207.55
1207.85
1206.31
1203.31
1198.64
1197
1202.51
1207.85
1206.48
1204.67
1209.81
1217.71
1221.29
1221.75
1223.02
1226.49
1227.96
1220.7
1211.33
1208.89
1208.44
1205.28
1201.92
1202.42
1208.62
1215.92
1218.79
1218.94
1219.85
1222.64
1223.2
1214.01
1201.2
1198.09
1205.61
1214.16
1216.52
1215.41
1214.61
1214.46
1214.55
1214.44
1214.43
1214.45
1214.43
1214.45
1214.41
1214.5
1214.41
1214.5
1214.47
1214.5
1214.52
1214.51
1214.64
1214.4
1214.34
1214.3
1214.21
1214.18
1214.1
1214.05
1213.99
1213.91
1213.88
1213.78
1213.77
1213.65
1213.65
1213.54
1213.54
1213.43
1213.43
1213.32
1213.36
1213.2
1213.31
1213.07
1213.26
1212.99
1213.24
1212.83
1213.21
1212.92
1213.06
1212.98
1212.82
1212.95
1212.89
1212.84
1212.88
1212.79
1212.83
1212.83
1212.76
1212.74
1212.69
1212.69
1212.67
1212.66
1212.57
1212.63
1212.6
1212.62
1212.58
1212.6
1212.56
1212.56
1212.54
1212.54
1212.51
1212.51
1212.48
1212.46
1212.44
1212.42
1212.39
1212.37
1212.35
1212.33
1212.31
1212.28
1212.25
1212.23
1212.19
1212.18
1212.14
1212.12
1212.09
1212.08
1212.04
1212.03
1212
1211.99
1211.96
1211.95
1211.93
1211.92
1211.9
1211.89
1211.88
1211.87
1211.86
1211.85
1211.84
1211.84
1211.83
1211.82
1211.81
1211.81
1211.8
1211.79
1211.77
1211.76
1211.75
1211.73
1211.72
1211.7
1211.68
1211.66
1211.63
1211.6
1211.58
1211.55
1211.51
1211.48
1211.45
1211.41
1211.37
1211.33
1211.29
1211.25
1211.21
1211.16
1211.11
1211.06
1211.01
1210.96
1210.91
1210.86
1210.81
1210.76
1210.71
1210.66
1210.61
1210.56
1210.52
1210.48
1210.44
1210.4
1210.37
1210.34
1210.31
1210.29
1210.27
1210.26
1210.24
1210.23
1210.23
1210.22
1210.22
1210.22
1210.22
1210.22
1210.22
1210.23
1210.23
1210.23
1210.22
1210.22
1210.22
1210.22
1210.22
1210.22
1210.23
1210.23
1210.23
1210.23
1210.22
1210.22
1210.22
1210.21
1210.2
1210.19
1210.18
1210.17
1210.16
1210.15
1210.14
1210.13
1210.12
1210.12
1210.11
1210.1
1210.09
1210.09
1210.08
1210.07
1210.06
1210.05
1210.04
1210.03
1210.02
1210
1209.99
1209.97
1209.96
1209.94
1209.92
1209.9
1209.88
1209.86
1209.83
1209.81
1209.79
1209.76
1209.74
1209.71
1209.68
1209.65
1209.62
1209.59
1209.56
1209.53
1209.5
1209.46
1209.43
1209.39
1209.36
1209.33
1209.29
1209.26
1209.22
1209.19
1209.16
1209.12
1209.09
1209.06
1209.04
1209.01
1208.98
1208.96
1208.94
1208.91
1208.89
1208.87
1208.85
1208.84
1208.82
1208.8
1208.79
1208.77
1208.76
1208.74
1208.73
1208.71
1208.7
1208.69
1208.67
1208.66
1208.65
1208.63
1208.62
1208.61
1208.6
1208.59
1208.57
1208.56
1208.55
1208.54
1208.53
1208.52
1208.51
1208.49
1208.48
1208.46
1208.44
1208.42
1208.4
1208.38
1208.35
1208.33
1208.3
1208.27
1208.24
1208.22
1208.19
1208.15
1208.12
1208.09
1208.06
1208.03
1207.99
1207.96
1207.92
1207.89
1207.85
1207.82
1207.78
1207.74
1207.71
1207.67
1207.64
1207.6
1207.56
1207.53
1207.49
1207.46
1207.42
1207.39
1207.35
1207.32
1207.29
1207.25
1207.23
1207.18
1207.21
1207.07
1207.22
1206.9
1207.33
1206.63
1207.55
1206.2
1207.89
1205.66
1208.3
1205.08
1208.69
1204.61
1208.92
1204.48
1208.84
1204.86
1208.44
1205.85
1208.46
1209.3
1210.09
1218.9
1213.78
1217.26
1217.94
1218.93
1220.76
1219.99
1221.33
1219.33
1220.61
1201.77
1202.72
1203.47
1205.64
1206.54
1208.42
1209.13
1210.43
1210.91
1211.76
1212.11
1212.65
1212.9
1213.22
1213.39
1213.61
1213.75
1213.9
1214
1214.11
1214.19
1214.27
1214.34
1214.4
1214.46
1214.51
1214.56
1214.61
1214.65
1214.69
1214.73
1214.76
1214.79
1214.81
1214.84
1214.86
1214.88
1214.9
1214.92
1214.94
1214.95
1214.97
1214.98
1214.99
1215
1215.01
1215.03
1215.04
1215.06
1215.07
1215.09
1215.11
1215.14
1215.16
1215.19
1215.21
1215.24
1215.27
1215.3
1215.33
1215.35
1215.38
1215.41
1215.44
1215.46
1215.49
1215.51
1215.53
1215.55
1215.57
1215.59
1215.6
1215.62
1215.63
1215.64
1215.65
1215.66
1215.67
1215.68
1215.69
1215.7
1215.7
1215.71
1215.71
1215.72
1215.72
1215.72
1215.73
1215.73
1215.73
1215.73
1215.74
1215.74
1215.75
1215.77
1215.79
1215.82
1215.86
1215.92
1215.99
1216.09
1216.21
1216.37
1216.58
1216.83
1217.16
1217.57
1218.08
1218.68
1219.53
1220.85
1222.58
1225.18
1229.11
1232.97
1234.89
1234.63
1232.34
1228.34
1225.07
1223.42
1219.42
1214.71
1214.94
1218.45
1217.85
1213.23
1209.38
1207.58
1210.63
1217.24
1218.54
1214.61
1211.52
1209.15
1207.28
1210.17
1215.48
1213.63
1206.33
1200.89
1195.83
1190.27
1187.72
1193.15
1202.83
1205.54
1201.32
1197.46
1195.56
1196.79
1201.97
1206.55
1206.91
1207.97
1214.4
1222.18
1227.07
1227.04
1219.9
1211.47
1208.54
1208.07
1206.48
1203.81
1200.29
1199.34
1203.31
1207.06
1206.78
1206.52
1210.67
1216.71
1220.22
1221.33
1222.61
1225.13
1225.7
1219.95
1212.49
1209.79
1208.74
1206
1203.62
1204.53
1209.36
1214.96
1217.84
1218.57
1219.5
1221.41
1221.1
1213.63
1203.78
1201.31
1206.66
1213.09
1215.54
1215.19
1214.57
1214.44
1214.54
1214.46
1214.43
1214.45
1214.43
1214.45
1214.42
1214.5
1214.42
1214.5
1214.47
1214.49
1214.52
1214.5
1214.61
1214.41
1214.33
1214.3
1214.21
1214.18
1214.1
1214.04
1213.99
1213.91
1213.88
1213.78
1213.77
1213.65
1213.65
1213.54
1213.54
1213.44
1213.43
1213.33
1213.35
1213.21
1213.3
1213.08
1213.25
1213
1213.23
1212.85
1213.19
1212.93
1213.05
1212.98
1212.83
1212.95
1212.89
1212.84
1212.87
1212.8
1212.83
1212.82
1212.76
1212.74
1212.7
1212.69
1212.67
1212.65
1212.58
1212.63
1212.59
1212.63
1212.58
1212.6
1212.56
1212.56
1212.54
1212.54
1212.51
1212.51
1212.48
1212.46
1212.43
1212.42
1212.39
1212.37
1212.35
1212.33
1212.3
1212.28
1212.25
1212.23
1212.19
1212.18
1212.14
1212.12
1212.09
1212.07
1212.04
1212.03
1212
1211.99
1211.96
1211.95
1211.93
1211.92
1211.9
1211.89
1211.88
1211.87
1211.86
1211.85
1211.84
1211.84
1211.83
1211.82
1211.81
1211.81
1211.8
1211.79
1211.77
1211.76
1211.75
1211.73
1211.72
1211.7
1211.68
1211.66
1211.63
1211.6
1211.58
1211.55
1211.51
1211.48
1211.45
1211.41
1211.37
1211.33
1211.29
1211.25
1211.21
1211.16
1211.11
1211.06
1211.01
1210.96
1210.91
1210.86
1210.81
1210.76
1210.71
1210.66
1210.61
1210.56
1210.52
1210.48
1210.44
1210.4
1210.37
1210.34
1210.31
1210.29
1210.27
1210.26
1210.24
1210.23
1210.23
1210.22
1210.22
1210.22
1210.22
1210.22
1210.22
1210.23
1210.23
1210.23
1210.22
1210.22
1210.22
1210.22
1210.22
1210.22
1210.22
1210.23
1210.23
1210.23
1210.22
1210.22
1210.22
1210.21
1210.2
1210.19
1210.18
1210.17
1210.16
1210.15
1210.14
1210.13
1210.12
1210.12
1210.11
1210.1
1210.09
1210.09
1210.08
1210.07
1210.06
1210.05
1210.04
1210.03
1210.02
1210
1209.99
1209.97
1209.96
1209.94
1209.92
1209.9
1209.88
1209.86
1209.83
1209.81
1209.79
1209.76
1209.74
1209.71
1209.68
1209.65
1209.62
1209.59
1209.56
1209.53
1209.5
1209.46
1209.43
1209.4
1209.36
1209.33
1209.29
1209.26
1209.22
1209.19
1209.16
1209.12
1209.09
1209.06
1209.04
1209.01
1208.98
1208.96
1208.94
1208.91
1208.89
1208.87
1208.85
1208.84
1208.82
1208.8
1208.79
1208.77
1208.76
1208.74
1208.73
1208.71
1208.7
1208.69
1208.67
1208.66
1208.65
1208.63
1208.62
1208.61
1208.6
1208.59
1208.57
1208.56
1208.55
1208.54
1208.53
1208.52
1208.51
1208.49
1208.48
1208.46
1208.44
1208.42
1208.4
1208.38
1208.35
1208.33
1208.3
1208.27
1208.24
1208.22
1208.19
1208.15
1208.12
1208.09
1208.06
1208.03
1207.99
1207.96
1207.92
1207.89
1207.85
1207.82
1207.78
1207.74
1207.71
1207.67
1207.64
1207.6
1207.56
1207.53
1207.49
1207.46
1207.42
1207.39
1207.35
1207.32
1207.29
1207.25
1207.23
1207.18
1207.2
1207.07
1207.22
1206.91
1207.31
1206.65
1207.51
1206.26
1207.81
1205.76
1208.18
1205.23
1208.54
1204.81
1208.74
1204.71
1208.68
1205.09
1208.35
1206.08
1208.47
1209.35
1209.88
1218.16
1213.68
1216.97
1217.75
1218.64
1220.58
1219.83
1221.29
1219.2
1220.66
1201.52
1202.63
1203.39
1205.63
1206.55
1208.47
1209.18
1210.49
1210.97
1211.8
1212.15
1212.67
1212.92
1213.24
1213.42
1213.63
1213.77
1213.92
1214.02
1214.12
1214.2
1214.28
1214.34
1214.4
1214.46
1214.52
1214.57
1214.61
1214.65
1214.69
1214.73
1214.76
1214.79
1214.81
1214.84
1214.86
1214.88
1214.9
1214.92
1214.94
1214.95
1214.97
1214.98
1214.99
1215
1215.02
1215.03
1215.04
1215.06
1215.08
1215.1
1215.12
1215.14
1215.16
1215.19
1215.22
1215.24
1215.27
1215.3
1215.33
1215.36
1215.39
1215.41
1215.44
1215.47
1215.49
1215.52
1215.54
1215.56
1215.58
1215.59
1215.61
1215.62
1215.63
1215.64
1215.65
1215.66
1215.67
1215.68
1215.69
1215.7
1215.71
1215.71
1215.72
1215.72
1215.72
1215.73
1215.73
1215.73
1215.73
1215.74
1215.74
1215.74
1215.75
1215.77
1215.79
1215.82
1215.86
1215.92
1215.99
1216.08
1216.21
1216.36
1216.57
1216.82
1217.14
1217.54
1218.05
1218.67
1219.54
1220.85
1222.52
1224.91
1228.38
1231.68
1233.31
1233.08
1231.14
1227.8
1224.73
1222.74
1219.33
1215.72
1215.66
1217.74
1217.01
1213.44
1210.17
1208.84
1211.57
1216.41
1217.25
1214.44
1211.83
1209.59
1208.34
1210.77
1214.25
1212.38
1206.63
1201.64
1196.73
1192.25
1190.82
1195.28
1202.24
1204.36
1201.56
1198.52
1197.18
1198.68
1202.74
1206.24
1207.34
1209.25
1214.69
1220.91
1224.95
1224.87
1219.23
1212.41
1209.37
1208.36
1206.7
1204.32
1201.62
1201.14
1204.12
1206.84
1207.17
1207.83
1211.32
1216.09
1219.38
1220.84
1222.11
1223.95
1223.96
1219.3
1213.28
1210.52
1209.05
1206.56
1204.86
1206.07
1210.03
1214.44
1217.12
1218.17
1219.07
1220.34
1219.52
1213.34
1205.62
1203.63
1207.57
1212.56
1214.9
1214.97
1214.53
1214.43
1214.51
1214.45
1214.43
1214.45
1214.43
1214.45
1214.42
1214.49
1214.43
1214.49
1214.47
1214.49
1214.51
1214.5
1214.56
1214.39
1214.34
1214.3
1214.21
1214.17
1214.1
1214.05
1213.99
1213.91
1213.88
1213.78
1213.77
1213.66
1213.65
1213.55
1213.54
1213.44
1213.44
1213.34
1213.35
1213.22
1213.3
1213.1
1213.24
1213.02
1213.21
1212.89
1213.16
1212.94
1213.04
1212.97
1212.86
1212.94
1212.89
1212.85
1212.87
1212.81
1212.83
1212.81
1212.76
1212.74
1212.7
1212.7
1212.67
1212.65
1212.59
1212.63
1212.6
1212.62
1212.58
1212.59
1212.56
1212.56
1212.54
1212.54
1212.51
1212.5
1212.47
1212.46
1212.43
1212.42
1212.39
1212.37
1212.35
1212.33
1212.3
1212.28
1212.25
1212.22
1212.19
1212.17
1212.14
1212.12
1212.09
1212.07
1212.04
1212.03
1212
1211.99
1211.97
1211.95
1211.93
1211.92
1211.9
1211.89
1211.88
1211.87
1211.86
1211.85
1211.84
1211.84
1211.83
1211.82
1211.81
1211.81
1211.8
1211.79
1211.78
1211.76
1211.75
1211.73
1211.72
1211.7
1211.68
1211.66
1211.63
1211.6
1211.58
1211.55
1211.51
1211.48
1211.45
1211.41
1211.37
1211.33
1211.29
1211.25
1211.21
1211.16
1211.11
1211.06
1211.01
1210.96
1210.91
1210.86
1210.81
1210.76
1210.71
1210.66
1210.61
1210.56
1210.52
1210.48
1210.44
1210.4
1210.37
1210.34
1210.31
1210.29
1210.27
1210.26
1210.25
1210.24
1210.23
1210.22
1210.22
1210.22
1210.22
1210.22
1210.22
1210.23
1210.23
1210.23
1210.22
1210.22
1210.22
1210.22
1210.22
1210.22
1210.23
1210.23
1210.23
1210.22
1210.22
1210.22
1210.21
1210.21
1210.2
1210.19
1210.18
1210.17
1210.16
1210.15
1210.14
1210.13
1210.12
1210.12
1210.11
1210.1
1210.09
1210.09
1210.08
1210.07
1210.06
1210.05
1210.04
1210.03
1210.02
1210
1209.99
1209.97
1209.96
1209.94
1209.92
1209.9
1209.88
1209.86
1209.84
1209.81
1209.79
1209.76
1209.74
1209.71
1209.68
1209.65
1209.62
1209.59
1209.56
1209.53
1209.5
1209.46
1209.43
1209.4
1209.36
1209.33
1209.29
1209.26
1209.22
1209.19
1209.16
1209.12
1209.09
1209.06
1209.04
1209.01
1208.98
1208.96
1208.94
1208.91
1208.89
1208.87
1208.85
1208.84
1208.82
1208.8
1208.79
1208.77
1208.76
1208.74
1208.73
1208.71
1208.7
1208.68
1208.67
1208.66
1208.65
1208.63
1208.62
1208.61
1208.6
1208.59
1208.57
1208.56
1208.55
1208.54
1208.53
1208.52
1208.51
1208.49
1208.48
1208.46
1208.44
1208.42
1208.4
1208.38
1208.35
1208.33
1208.3
1208.27
1208.24
1208.21
1208.18
1208.15
1208.12
1208.09
1208.06
1208.02
1207.99
1207.96
1207.92
1207.89
1207.85
1207.82
1207.78
1207.74
1207.71
1207.67
1207.64
1207.6
1207.56
1207.53
1207.49
1207.46
1207.42
1207.39
1207.35
1207.32
1207.29
1207.25
1207.23
1207.18
1207.2
1207.08
1207.21
1206.93
1207.28
1206.69
1207.45
1206.34
1207.7
1205.91
1208.02
1205.46
1208.31
1205.12
1208.49
1205.06
1208.46
1205.45
1208.23
1206.52
1208.7
1209.64
1210.14
1217.16
1213.61
1216.57
1217.49
1218.27
1220.28
1219.66
1221.18
1219.17
1220.58
1201.19
1202.49
1203.27
1205.62
1206.57
1208.5
1209.21
1210.52
1211
1211.83
1212.17
1212.69
1212.93
1213.25
1213.42
1213.63
1213.77
1213.91
1214.01
1214.12
1214.2
1214.28
1214.34
1214.41
1214.47
1214.52
1214.57
1214.62
1214.66
1214.7
1214.73
1214.76
1214.79
1214.82
1214.84
1214.87
1214.89
1214.91
1214.93
1214.94
1214.96
1214.97
1214.98
1214.99
1215
1215.02
1215.03
1215.04
1215.06
1215.08
1215.1
1215.12
1215.14
1215.16
1215.19
1215.21
1215.24
1215.27
1215.3
1215.33
1215.36
1215.39
1215.41
1215.44
1215.47
1215.49
1215.52
1215.54
1215.56
1215.58
1215.59
1215.61
1215.62
1215.63
1215.65
1215.66
1215.67
1215.67
1215.68
1215.69
1215.7
1215.71
1215.71
1215.72
1215.72
1215.73
1215.73
1215.73
1215.73
1215.73
1215.74
1215.74
1215.75
1215.75
1215.77
1215.79
1215.82
1215.86
1215.91
1215.98
1216.08
1216.2
1216.35
1216.55
1216.8
1217.12
1217.51
1218.02
1218.64
1219.53
1220.8
1222.4
1224.62
1227.67
1230.5
1231.89
1231.71
1230.02
1227.17
1224.33
1222.22
1219.28
1216.43
1216.15
1217.24
1216.41
1213.59
1210.9
1209.92
1212.21
1215.76
1216.33
1214.29
1212.07
1210.07
1209.19
1211.09
1213.32
1211.53
1206.87
1202.37
1197.81
1194.16
1193.32
1196.93
1202.07
1203.74
1201.87
1199.55
1198.64
1200.17
1203.42
1206.27
1207.82
1210.15
1214.81
1219.9
1223.24
1223.11
1218.6
1213.03
1210.07
1208.75
1207.06
1204.91
1202.83
1202.59
1204.84
1206.92
1207.64
1208.8
1211.79
1215.67
1218.68
1220.32
1221.55
1222.9
1222.57
1218.75
1213.82
1211.12
1209.43
1207.23
1206.01
1207.27
1210.54
1214.12
1216.56
1217.75
1218.6
1219.41
1218.32
1213.19
1207.1
1205.47
1208.38
1212.29
1214.42
1214.75
1214.48
1214.41
1214.49
1214.44
1214.43
1214.45
1214.44
1214.45
1214.43
1214.48
1214.43
1214.49
1214.47
1214.49
1214.51
1214.5
1214.53
1214.4
1214.34
1214.29
1214.21
1214.17
1214.1
1214.05
1213.99
1213.92
1213.88
1213.79
1213.76
1213.67
1213.65
1213.56
1213.54
1213.45
1213.44
1213.34
1213.35
1213.23
1213.29
1213.11
1213.23
1213.03
1213.2
1212.92
1213.15
1212.95
1213.03
1212.97
1212.87
1212.94
1212.89
1212.86
1212.86
1212.81
1212.83
1212.81
1212.77
1212.74
1212.71
1212.7
1212.67
1212.65
1212.6
1212.63
1212.6
1212.62
1212.58
1212.59
1212.56
1212.56
1212.54
1212.54
1212.5
1212.5
1212.47
1212.46
1212.43
1212.42
1212.39
1212.37
1212.34
1212.33
1212.3
1212.28
1212.25
1212.22
1212.19
1212.17
1212.14
1212.12
1212.09
1212.07
1212.04
1212.03
1212
1211.99
1211.97
1211.95
1211.93
1211.92
1211.9
1211.89
1211.88
1211.87
1211.86
1211.85
1211.84
1211.84
1211.83
1211.82
1211.81
1211.81
1211.8
1211.79
1211.78
1211.76
1211.75
1211.73
1211.72
1211.7
1211.68
1211.66
1211.63
1211.6
1211.58
1211.55
1211.51
1211.48
1211.45
1211.41
1211.37
1211.33
1211.29
1211.25
1211.21
1211.16
1211.11
1211.06
1211.01
1210.96
1210.91
1210.86
1210.81
1210.76
1210.71
1210.66
1210.61
1210.56
1210.52
1210.48
1210.44
1210.4
1210.37
1210.34
1210.31
1210.29
1210.27
1210.26
1210.25
1210.24
1210.23
1210.22
1210.22
1210.22
1210.22
1210.22
1210.22
1210.23
1210.23
1210.23
1210.22
1210.22
1210.22
1210.22
1210.22
1210.22
1210.22
1210.23
1210.23
1210.22
1210.22
1210.22
1210.21
1210.21
1210.2
1210.19
1210.18
1210.17
1210.16
1210.15
1210.14
1210.13
1210.12
1210.12
1210.11
1210.1
1210.09
1210.09
1210.08
1210.07
1210.06
1210.05
1210.04
1210.03
1210.02
1210
1209.99
1209.97
1209.96
1209.94
1209.92
1209.9
1209.88
1209.86
1209.84
1209.81
1209.79
1209.76
1209.74
1209.71
1209.68
1209.65
1209.62
1209.59
1209.56
1209.53
1209.5
1209.46
1209.43
1209.4
1209.36
1209.33
1209.29
1209.26
1209.22
1209.19
1209.16
1209.12
1209.09
1209.06
1209.04
1209.01
1208.98
1208.96
1208.93
1208.91
1208.89
1208.87
1208.85
1208.84
1208.82
1208.8
1208.79
1208.77
1208.76
1208.74
1208.73
1208.71
1208.7
1208.68
1208.67
1208.66
1208.64
1208.63
1208.62
1208.61
1208.6
1208.58
1208.57
1208.56
1208.55
1208.54
1208.53
1208.52
1208.51
1208.49
1208.48
1208.46
1208.44
1208.42
1208.4
1208.38
1208.35
1208.33
1208.3
1208.27
1208.24
1208.21
1208.18
1208.15
1208.12
1208.09
1208.06
1208.02
1207.99
1207.96
1207.92
1207.89
1207.85
1207.82
1207.78
1207.75
1207.71
1207.67
1207.64
1207.6
1207.56
1207.53
1207.49
1207.46
1207.42
1207.39
1207.35
1207.32
1207.29
1207.25
1207.23
1207.18
1207.2
1207.08
1207.2
1206.94
1207.26
1206.72
1207.4
1206.41
1207.63
1206.02
1207.9
1205.62
1208.16
1205.33
1208.32
1205.3
1208.3
1205.7
1208.14
1206.76
1208.68
1209.63
1210.03
1216.21
1213.48
1216.03
1217.08
1217.66
1219.78
1219.19
1220.99
1219.1
1220.85
1200.76
1202.3
1203.12
1205.6
1206.57
1208.55
1209.25
1210.58
1211.05
1211.88
1212.21
1212.72
1212.96
1213.27
1213.44
1213.65
1213.79
1213.93
1214.03
1214.13
1214.21
1214.29
1214.35
1214.42
1214.47
1214.53
1214.57
1214.62
1214.66
1214.7
1214.73
1214.76
1214.79
1214.82
1214.85
1214.87
1214.89
1214.91
1214.93
1214.94
1214.96
1214.97
1214.98
1214.99
1215.01
1215.02
1215.03
1215.05
1215.06
1215.08
1215.1
1215.12
1215.14
1215.17
1215.19
1215.22
1215.24
1215.27
1215.3
1215.33
1215.36
1215.39
1215.42
1215.45
1215.47
1215.5
1215.52
1215.54
1215.56
1215.58
1215.6
1215.61
1215.62
1215.64
1215.65
1215.66
1215.67
1215.68
1215.69
1215.7
1215.7
1215.71
1215.72
1215.72
1215.73
1215.73
1215.73
1215.73
1215.74
1215.74
1215.74
1215.74
1215.75
1215.75
1215.77
1215.79
1215.82
1215.85
1215.91
1215.98
1216.07
1216.19
1216.34
1216.53
1216.78
1217.09
1217.48
1217.98
1218.6
1219.48
1220.71
1222.24
1224.28
1226.97
1229.4
1230.59
1230.44
1228.98
1226.51
1223.9
1221.81
1219.23
1216.9
1216.46
1216.9
1216.01
1213.7
1211.49
1210.8
1212.67
1215.28
1215.66
1214.13
1212.26
1210.53
1209.89
1211.3
1212.65
1210.95
1207.09
1203.02
1198.91
1195.95
1195.45
1198.32
1202.16
1203.48
1202.24
1200.53
1199.98
1201.43
1204.08
1206.5
1208.29
1210.79
1214.83
1219.04
1221.79
1221.67
1218.05
1213.46
1210.64
1209.13
1207.45
1205.54
1203.92
1203.81
1205.52
1207.19
1208.13
1209.54
1212.16
1215.39
1218.12
1219.79
1220.97
1221.95
1221.44
1218.28
1214.19
1211.6
1209.82
1207.9
1207.04
1208.25
1210.98
1213.93
1216.12
1217.35
1218.13
1218.61
1217.39
1213.13
1208.32
1206.94
1209.09
1212.17
1214.07
1214.56
1214.42
1214.38
1214.46
1214.44
1214.43
1214.44
1214.44
1214.45
1214.43
1214.48
1214.44
1214.49
1214.47
1214.48
1214.5
1214.49
1214.5
1214.39
1214.34
1214.29
1214.21
1214.17
1214.1
1214.05
1213.99
1213.92
1213.88
1213.79
1213.76
1213.67
1213.65
1213.56
1213.54
1213.46
1213.44
1213.35
1213.35
1213.24
1213.29
1213.13
1213.23
1213.05
1213.19
1212.94
1213.13
1212.96
1213.03
1212.97
1212.89
1212.94
1212.89
1212.86
1212.86
1212.82
1212.82
1212.8
1212.77
1212.74
1212.71
1212.7
1212.67
1212.65
1212.61
1212.64
1212.6
1212.62
1212.58
1212.59
1212.56
1212.56
1212.54
1212.53
1212.5
1212.5
1212.47
1212.46
1212.43
1212.42
1212.39
1212.37
1212.34
1212.33
1212.3
1212.28
1212.25
1212.22
1212.19
1212.17
1212.14
1212.12
1212.09
1212.07
1212.05
1212.03
1212
1211.99
1211.97
1211.95
1211.93
1211.92
1211.9
1211.89
1211.88
1211.87
1211.86
1211.85
1211.84
1211.84
1211.83
1211.82
1211.81
1211.81
1211.8
1211.79
1211.78
1211.77
1211.75
1211.74
1211.72
1211.7
1211.68
1211.66
1211.63
1211.61
1211.58
1211.55
1211.51
1211.48
1211.45
1211.41
1211.37
1211.33
1211.29
1211.25
1211.21
1211.16
1211.11
1211.06
1211.01
1210.96
1210.91
1210.86
1210.81
1210.76
1210.71
1210.66
1210.61
1210.56
1210.52
1210.48
1210.44
1210.4
1210.37
1210.34
1210.32
1210.29
1210.28
1210.26
1210.25
1210.24
1210.23
1210.23
1210.22
1210.22
1210.22
1210.22
1210.22
1210.23
1210.23
1210.23
1210.22
1210.22
1210.22
1210.22
1210.22
1210.23
1210.23
1210.23
1210.23
1210.22
1210.22
1210.22
1210.21
1210.21
1210.2
1210.19
1210.18
1210.17
1210.16
1210.15
1210.14
1210.13
1210.13
1210.12
1210.11
1210.1
1210.09
1210.09
1210.08
1210.07
1210.06
1210.05
1210.04
1210.03
1210.02
1210
1209.99
1209.97
1209.96
1209.94
1209.92
1209.9
1209.88
1209.86
1209.84
1209.81
1209.79
1209.76
1209.74
1209.71
1209.68
1209.65
1209.63
1209.59
1209.56
1209.53
1209.5
1209.46
1209.43
1209.4
1209.36
1209.33
1209.29
1209.26
1209.22
1209.19
1209.16
1209.12
1209.09
1209.06
1209.03
1209.01
1208.98
1208.96
1208.93
1208.91
1208.89
1208.87
1208.85
1208.84
1208.82
1208.8
1208.79
1208.77
1208.76
1208.74
1208.73
1208.71
1208.7
1208.68
1208.67
1208.66
1208.64
1208.63
1208.62
1208.61
1208.6
1208.58
1208.57
1208.56
1208.55
1208.54
1208.53
1208.52
1208.5
1208.49
1208.47
1208.46
1208.44
1208.42
1208.4
1208.38
1208.35
1208.33
1208.3
1208.27
1208.24
1208.21
1208.18
1208.15
1208.12
1208.09
1208.06
1208.02
1207.99
1207.96
1207.92
1207.89
1207.85
1207.82
1207.78
1207.75
1207.71
1207.67
1207.64
1207.6
1207.56
1207.53
1207.49
1207.46
1207.42
1207.39
1207.35
1207.32
1207.29
1207.25
1207.23
1207.18
1207.19
1207.08
1207.19
1206.95
1207.24
1206.75
1207.36
1206.47
1207.54
1206.14
1207.77
1205.8
1207.99
1205.56
1208.14
1205.57
1208.15
1205.97
1208.06
1207.05
1208.76
1209.75
1210.03
1215.42
1213.32
1215.45
1216.62
1216.99
1219.13
1218.64
1220.6
1219.14
1221.03
1200.24
1202.1
1202.97
1205.61
1206.62
1208.62
1209.32
1210.64
1211.1
1211.92
1212.24
1212.75
1212.98
1213.29
1213.46
1213.66
1213.79
1213.93
1214.03
1214.14
1214.21
1214.29
1214.36
1214.42
1214.48
1214.53
1214.58
1214.63
1214.67
1214.7
1214.74
1214.77
1214.8
1214.83
1214.85
1214.88
1214.9
1214.92
1214.93
1214.95
1214.96
1214.97
1214.99
1215
1215.01
1215.02
1215.03
1215.05
1215.06
1215.08
1215.1
1215.12
1215.14
1215.16
1215.19
1215.22
1215.24
1215.27
1215.3
1215.33
1215.36
1215.39
1215.42
1215.45
1215.47
1215.5
1215.52
1215.54
1215.56
1215.58
1215.6
1215.61
1215.63
1215.64
1215.65
1215.66
1215.67
1215.68
1215.69
1215.7
1215.71
1215.71
1215.72
1215.72
1215.73
1215.73
1215.73
1215.74
1215.74
1215.74
1215.74
1215.74
1215.75
1215.76
1215.77
1215.79
1215.81
1215.85
1215.9
1215.97
1216.06
1216.17
1216.32
1216.51
1216.75
1217.05
1217.43
1217.92
1218.54
1219.41
1220.59
1222.03
1223.91
1226.28
1228.38
1229.39
1229.27
1227.99
1225.84
1223.46
1221.45
1219.17
1217.22
1216.65
1216.67
1215.75
1213.83
1212.02
1211.52
1213.01
1214.94
1215.19
1214
1212.41
1210.94
1210.45
1211.46
1212.18
1210.6
1207.31
1203.68
1200.02
1197.59
1197.28
1199.55
1202.43
1203.48
1202.66
1201.45
1201.19
1202.53
1204.73
1206.86
1208.75
1211.27
1214.79
1218.32
1220.59
1220.47
1217.56
1213.76
1211.11
1209.51
1207.88
1206.19
1204.9
1204.85
1206.17
1207.56
1208.62
1210.12
1212.46
1215.21
1217.65
1219.3
1220.4
1221.12
1220.52
1217.87
1214.44
1212.01
1210.23
1208.56
1207.95
1209.06
1211.34
1213.82
1215.78
1216.97
1217.68
1217.92
1216.67
1213.13
1209.3
1208.14
1209.71
1212.15
1213.83
1214.39
1214.37
1214.36
1214.44
1214.43
1214.43
1214.44
1214.44
1214.45
1214.43
1214.48
1214.44
1214.48
1214.47
1214.48
1214.49
1214.48
1214.48
1214.39
1214.33
1214.29
1214.21
1214.17
1214.11
1214.05
1213.99
1213.92
1213.88
1213.8
1213.76
1213.68
1213.65
1213.57
1213.54
1213.46
1213.44
1213.36
1213.35
1213.25
1213.28
1213.14
1213.22
1213.06
1213.18
1212.96
1213.12
1212.97
1213.02
1212.96
1212.9
1212.93
1212.89
1212.86
1212.86
1212.82
1212.82
1212.8
1212.77
1212.75
1212.71
1212.7
1212.67
1212.66
1212.62
1212.64
1212.6
1212.62
1212.58
1212.59
1212.56
1212.56
1212.54
1212.53
1212.5
1212.5
1212.47
1212.46
1212.43
1212.41
1212.39
1212.37
1212.34
1212.32
1212.3
1212.28
1212.24
1212.22
1212.19
1212.17
1212.14
1212.12
1212.09
1212.07
1212.05
1212.03
1212
1211.99
1211.97
1211.95
1211.93
1211.92
1211.9
1211.89
1211.88
1211.87
1211.86
1211.85
1211.84
1211.84
1211.83
1211.83
1211.82
1211.81
1211.8
1211.79
1211.78
1211.77
1211.75
1211.74
1211.72
1211.7
1211.68
1211.66
1211.63
1211.6
1211.58
1211.55
1211.52
1211.48
1211.45
1211.41
1211.37
1211.33
1211.29
1211.25
1211.2
1211.16
1211.11
1211.06
1211.01
1210.96
1210.91
1210.86
1210.81
1210.76
1210.7
1210.66
1210.61
1210.56
1210.52
1210.48
1210.44
1210.4
1210.37
1210.34
1210.32
1210.3
1210.28
1210.26
1210.25
1210.24
1210.23
1210.23
1210.22
1210.22
1210.22
1210.22
1210.22
1210.23
1210.23
1210.23
1210.22
1210.22
1210.22
1210.22
1210.22
1210.23
1210.23
1210.23
1210.22
1210.22
1210.22
1210.22
1210.21
1210.21
1210.2
1210.19
1210.18
1210.17
1210.16
1210.15
1210.14