/*--------------------------------*- C++ -*----------------------------------*\
| =========                 |                                                 |
| \\      /  F ield         | foam-extend: Open Source CFD                    |
|  \\    /   O peration     | Version:     3.2                                |
|   \\  /    A nd           | Web:         http://www.foam-extend.org         |
|    \\/     M anipulation  | For copyright notice see file Copyright         |
\*---------------------------------------------------------------------------*/
FoamFile
{
    version     2.0;
    format      ascii;
    class       areaScalarField;
    location    "910";
    object      thetaC2SS1;
}
// * * * * * * * * * * * * * * * * * * * * * * * * * * * * * * * * * * * * * //

dimensions      [0 0 0 0 0 0 0];

internalField   nonuniform List<scalar> 
550
(
0.127601
0.127708
0.127601
0.127601
0.127601
0.127601
0.128405
0.127601
0.127601
0.128743
0.127601
0.128866
0.127601
0.127601
0.128941
0.127601
0.127601
0.128944
0.128937
0.128927
0.128914
0.127601
0.128886
0.127601
0.127601
0.127601
0.127601
0.128823
0.127601
0.127601
0.127601
0.127601
0.128737
0.128719
0.128704
0.128693
0.127601
0.128677
0.128671
0.127601
0.128658
0.128649
0.127601
0.128631
0.128625
0.128621
0.128622
0.128626
0.128634
0.128645
0.127601
0.127601
0.128675
0.127601
0.12868
0.127601
0.128665
0.127601
0.127601
0.12862
0.128605
0.127601
0.127601
0.127601
0.127601
0.128558
0.127601
0.128554
0.127601
0.128556
0.12856
0.127601
0.127601
0.128581
0.12859
0.127601
0.127601
0.127601
0.128609
0.127601
0.128592
0.128576
0.127601
0.127601
0.127601
0.127601
0.127601
0.128419
0.128398
0.128382
0.128371
0.127601
0.128367
0.128372
0.127601
0.127601
0.128399
0.127601
0.128418
0.128425
0.12843
0.127601
0.127601
0.128435
0.127601
0.127601
0.127601
0.127601
0.127601
0.127601
0.127601
0.140491
0.128344
0.128333
0.158662
0.154234
0.128308
0.168962
0.158446
0.128256
0.12823
0.183428
0.128201
0.128197
0.127601
0.20972
0.12815
0.128177
0.128193
0.128159
0.127601
0.215066
0.128163
0.128152
0.128158
0.128162
0.128149
0.128136
0.296057
0.128117
0.128145
0.128169
0.128157
0.128153
0.128129
0.128122
0.299682
0.128114
0.128118
0.128113
0.128106
0.127601
0.128084
0.128108
0.128092
0.127601
0.128081
0.128084
0.128058
0.34888
0.12804
0.128042
0.128045
0.128036
0.128019
0.128024
0.128
0.127601
0.12797
0.127975
0.127937
0.127912
0.127911
0.127889
0.127873
0.127872
0.127879
0.127864
0.571451
0.127828
0.127808
0.127796
0.1278
0.127793
0.127764
0.127723
0.12772
0.127722
0.127684
0.127649
0.127634
0.127604
0.640714
0.127624
0.127617
0.127603
0.127619
0.127606
0.127609
0.127619
0.127607
0.12764
0.12767
0.127686
0.127734
0.127778
0.127844
0.127851
0.127859
0.127876
0.127848
0.127843
0.127821
0.127786
0.127633
0.127601
0.127815
0.128085
0.128391
0.128717
0.129035
0.129355
0.129656
0.129962
0.130255
0.130556
0.13085
0.131145
0.131433
0.131713
0.131983
0.132238
0.132476
0.132701
0.132897
0.133092
0.133242
0.133363
0.133543
0.133658
0.133535
0.133547
0.133952
0.133293
0.13334
0.132893
0.133031
0.133535
0.133031
0.132947
0.132964
0.132776
0.132924
0.132589
0.132343
0.132376
0.132497
0.132539
0.132568
0.132371
0.132447
0.13253
0.132379
0.132149
0.131858
0.131695
0.131485
0.131329
0.131246
0.131065
0.130899
0.130838
0.130721
0.130662
0.130664
0.130657
0.13062
0.13064
0.130717
0.130744
0.130739
0.130754
0.130813
0.130901
0.130985
0.131047
0.131102
0.131178
0.131256
0.131315
0.131354
0.131388
0.131434
0.131483
0.131516
0.131533
0.13154
0.131544
0.13156
0.131583
0.131611
0.13164
0.131663
0.131677
0.131685
0.131689
0.131691
0.131689
0.131685
0.131679
0.13167
0.131661
0.131649
0.131637
0.131623
0.131606
0.131588
0.13157
0.131554
0.13154
0.131529
0.131523
0.131519
0.13152
0.131523
0.13153
0.131539
0.131552
0.131566
0.131582
0.131601
0.13162
0.131641
0.131662
0.131687
0.131713
0.131741
0.13177
0.131801
0.131835
0.13187
0.131908
0.131952
0.131998
0.132049
0.132104
0.132163
0.132224
0.132289
0.132357
0.132421
0.13248
0.132529
0.13256
0.132573
0.132569
0.132543
0.1325
0.132447
0.132379
0.132301
0.132223
0.132134
0.132027
0.131923
0.131815
0.131697
0.131597
0.13153
0.131492
0.131464
0.131427
0.131384
0.131334
0.131283
0.131232
0.131178
0.131127
0.131079
0.131036
0.130997
0.130971
0.130956
0.130951
0.130962
0.130979
0.131
0.131023
0.131043
0.131061
0.131072
0.131079
0.131081
0.13108
0.131071
0.13106
0.131044
0.131025
0.131007
0.130985
0.130965
0.130945
0.130925
0.130906
0.130887
0.13087
0.130853
0.130836
0.13082
0.130804
0.130787
0.13077
0.13075
0.130732
0.130712
0.130691
0.13067
0.130647
0.130626
0.130603
0.130578
0.130554
0.13053
0.130507
0.130484
0.130461
0.130437
0.130417
0.130395
0.130376
0.130355
0.130336
0.130318
0.130301
0.130284
0.130269
0.130253
0.130239
0.130226
0.130215
0.130203
0.130192
0.130182
0.130171
0.130164
0.130155
0.130148
0.130144
0.130139
0.130137
0.130136
0.130137
0.130141
0.130143
0.13015
0.13016
0.130168
0.130177
0.130189
0.130201
0.130215
0.130228
0.130242
0.130258
0.130272
0.130289
0.130306
0.13032
0.130338
0.130356
0.130374
0.130397
0.13042
0.130447
0.130475
0.130509
0.130544
0.130584
0.130626
0.130675
0.130725
0.13078
0.13084
0.130902
0.130969
0.13104
0.131115
0.131192
0.131271
0.131352
0.131434
0.131517
0.131601
0.131686
0.131771
0.131855
0.131941
0.132027
0.132113
0.132198
0.132284
0.132368
0.132451
0.132535
0.132615
0.132697
0.132774
0.132852
0.132929
0.133002
0.133073
0.133142
0.133211
0.133274
0.133338
0.133402
0.133463
0.133521
0.133582
0.133642
0.133701
0.133758
0.133815
0.133872
0.133925
0.133981
0.134032
0.134088
0.134132
0.134197
0.13424
0.134353
0.134435
0.134719
0.134918
0.135556
0.136253
0.137507
0.140116
0.135111
0.127601
0.127601
0.127601
0.127601
0.127601
0.127601
0.127601
0.127601
0.19029
0.176478
)
;

boundaryField
{
    inlet
    {
        type            calculated;
        value           uniform 0;
    }
    endWall
    {
        type            calculated;
        value           uniform 0;
    }
    sideWall
    {
        type            empty;
    }
}


// ************************************************************************* //
