/*--------------------------------*- C++ -*----------------------------------*\
| =========                 |                                                 |
| \\      /  F ield         | foam-extend: Open Source CFD                    |
|  \\    /   O peration     | Version:     3.2                                |
|   \\  /    A nd           | Web:         http://www.foam-extend.org         |
|    \\/     M anipulation  | For copyright notice see file Copyright         |
\*---------------------------------------------------------------------------*/
FoamFile
{
    version     2.0;
    format      ascii;
    class       areaScalarField;
    location    "910";
    object      thetaCB;
}
// * * * * * * * * * * * * * * * * * * * * * * * * * * * * * * * * * * * * * //

dimensions      [0 0 0 0 0 0 0];

internalField   nonuniform List<scalar> 
550
(
0.0465048
0.0465438
0.0465048
0.0465048
0.0465048
0.0465048
0.0467979
0.0465048
0.0465048
0.046921
0.0465048
0.0469659
0.0465048
0.0465048
0.0469931
0.0465048
0.0465048
0.0469944
0.0469918
0.0469881
0.0469833
0.0465048
0.046973
0.0465048
0.0465048
0.0465048
0.0465048
0.0469501
0.0465048
0.0465048
0.0465048
0.0465048
0.0469189
0.0469123
0.0469067
0.0469027
0.0465048
0.0468973
0.0468951
0.0465048
0.0468899
0.0468867
0.0465048
0.0468804
0.0468781
0.0468766
0.0468768
0.0468784
0.046881
0.0468851
0.0465048
0.0465048
0.0468961
0.0465048
0.0468977
0.0465048
0.0468923
0.0465049
0.0465048
0.0468761
0.0468708
0.0465048
0.0465048
0.0465049
0.0465048
0.0468538
0.0465048
0.046852
0.0465049
0.0468526
0.0468541
0.0465048
0.0465048
0.0468622
0.0468652
0.0465048
0.0465048
0.0465048
0.0468721
0.0465049
0.0468662
0.0468599
0.0465048
0.0465048
0.0465048
0.0465049
0.0465048
0.0468031
0.0467952
0.0467895
0.0467855
0.0465048
0.0467837
0.0467854
0.0465048
0.0465048
0.0467956
0.0465048
0.0468028
0.0468051
0.0468071
0.0465049
0.0465048
0.0468086
0.0465048
0.0465048
0.0465048
0.0465049
0.0465048
0.0465017
0.0465012
0.0512071
0.0467858
0.0467693
0.0578004
0.0562205
0.0467889
0.0615202
0.0578033
0.0467327
0.0467182
0.066854
0.0467475
0.0467253
0.046451
0.076477
0.0467578
0.0467508
0.046671
0.0466578
0.046496
0.078429
0.046746
0.0466845
0.0467272
0.0467173
0.0466826
0.046654
0.107885
0.0467442
0.0467967
0.0466192
0.0467213
0.0467135
0.0466582
0.0466772
0.109227
0.0467195
0.0467074
0.0466755
0.0466834
0.0464604
0.0467486
0.0467268
0.0465993
0.0464955
0.0467386
0.0466552
0.0466415
0.127223
0.046696
0.0466728
0.0466712
0.0466155
0.0466702
0.0466973
0.0465912
0.0464864
0.0467019
0.0466566
0.0465758
0.0466183
0.046624
0.0466161
0.0466192
0.0466097
0.0465899
0.0465531
0.208448
0.0466224
0.0465809
0.046609
0.0465469
0.0465571
0.0465482
0.0465101
0.0466058
0.0465725
0.0464736
0.0465319
0.0465338
0.0464989
0.233913
0.0465625
0.0464716
0.0464542
0.0465031
0.0465135
0.0465796
0.0465035
0.0464808
0.0466138
0.0466066
0.0466188
0.0466374
0.0466312
0.0466576
0.0465993
0.0466807
0.0466169
0.0466417
0.0466437
0.0466227
0.0466025
0.0465702
0.0468864
0.047025
0.0470199
0.0471754
0.0472723
0.0473974
0.0475179
0.0476169
0.0477405
0.0478221
0.0479484
0.0480204
0.0481444
0.0482097
0.0483233
0.0483823
0.04848
0.0485288
0.0486121
0.048644
0.0487244
0.0487255
0.0488178
0.048765
0.0488667
0.048751
0.0488796
0.0487443
0.0486923
0.0486411
0.0485766
0.048667
0.0486396
0.0485307
0.0485445
0.0484895
0.0484694
0.0484496
0.0483398
0.048339
0.0483374
0.048374
0.0483493
0.0483441
0.0482815
0.0483276
0.0482613
0.0482126
0.0480967
0.0480392
0.0479591
0.0479058
0.0478514
0.0478166
0.0477489
0.0477289
0.047696
0.0476792
0.0476729
0.047682
0.047679
0.0476885
0.0477088
0.0477349
0.0477424
0.0477584
0.0477769
0.0478138
0.0478444
0.0478777
0.0478996
0.04793
0.0479548
0.0479832
0.0479977
0.0480164
0.0480277
0.0480474
0.048057
0.0480681
0.0480697
0.0480755
0.0480773
0.0480875
0.0480934
0.0481044
0.0481097
0.0481163
0.0481164
0.048119
0.0481166
0.0481168
0.0481128
0.0481111
0.0481056
0.0481023
0.048096
0.0480919
0.0480851
0.04808
0.0480726
0.0480674
0.0480608
0.048057
0.0480531
0.048052
0.048051
0.0480527
0.0480547
0.0480584
0.0480632
0.0480692
0.048076
0.0480838
0.0480923
0.0481019
0.0481117
0.0481235
0.0481368
0.0481494
0.0481627
0.0481758
0.0481895
0.0482035
0.0482179
0.0482332
0.0482488
0.0482655
0.0482825
0.0483006
0.0483187
0.0483378
0.0483565
0.0483755
0.0483931
0.0484112
0.0484259
0.0484337
0.0484349
0.0484294
0.0484172
0.048397
0.0483731
0.0483443
0.0483112
0.0482773
0.0482408
0.0482007
0.0481592
0.0481197
0.0480787
0.0480424
0.0480146
0.0479966
0.0479829
0.0479689
0.0479527
0.0479356
0.047917
0.0478993
0.0478811
0.0478642
0.0478486
0.0478353
0.0478241
0.0478164
0.0478134
0.0478139
0.0478185
0.047826
0.0478346
0.0478437
0.0478518
0.047859
0.0478638
0.0478669
0.0478681
0.0478676
0.0478649
0.0478605
0.0478553
0.0478485
0.0478415
0.0478339
0.0478263
0.047819
0.0478118
0.0478047
0.0477978
0.0477913
0.0477848
0.0477784
0.0477724
0.0477661
0.0477597
0.0477528
0.0477459
0.0477382
0.0477312
0.047723
0.047715
0.0477066
0.047698
0.0476894
0.0476802
0.0476711
0.047662
0.0476531
0.0476443
0.0476357
0.0476268
0.0476188
0.0476107
0.0476032
0.0475958
0.0475884
0.0475818
0.0475752
0.0475693
0.0475632
0.047558
0.0475525
0.0475482
0.0475437
0.04754
0.0475358
0.0475329
0.0475292
0.0475266
0.0475244
0.0475221
0.047521
0.04752
0.04752
0.0475202
0.0475212
0.0475228
0.0475252
0.0475276
0.0475316
0.0475353
0.0475395
0.0475441
0.0475494
0.0475546
0.0475603
0.0475659
0.0475721
0.0475783
0.0475845
0.0475917
0.0475983
0.047606
0.0476139
0.0476229
0.0476325
0.0476445
0.0476563
0.0476712
0.0476864
0.0477054
0.0477274
0.0477501
0.0477729
0.0477961
0.0478206
0.0478451
0.0478712
0.0478975
0.0479254
0.0479536
0.047983
0.0480126
0.0480429
0.0480733
0.048104
0.0481348
0.0481658
0.0481964
0.0482274
0.048258
0.048289
0.0483194
0.0483503
0.0483802
0.0484106
0.0484402
0.0484699
0.048499
0.0485281
0.0485563
0.0485847
0.0486119
0.0486397
0.0486657
0.048693
0.0487175
0.0487448
0.0487671
0.0487942
0.0488179
0.0488405
0.0488727
0.0488805
0.0489448
0.048898
0.0490619
0.0488616
0.0492391
0.0487389
0.0494363
0.0485139
0.0496145
0.048183
0.0497025
0.0477758
0.0495961
0.0473926
0.0491942
0.0469999
0.0482943
0.045635
0.0455944
0.0398293
0.0298043
0.046505
0.0465047
0.0465046
0.046505
0.0465046
0.046505
0.0465046
0.0467919
0.0697802
0.0647152
)
;

boundaryField
{
    inlet
    {
        type            calculated;
        value           uniform 0;
    }
    endWall
    {
        type            calculated;
        value           uniform 0;
    }
    sideWall
    {
        type            empty;
    }
}


// ************************************************************************* //
