/*--------------------------------*- C++ -*----------------------------------*\
| =========                 |                                                 |
| \\      /  F ield         | foam-extend: Open Source CFD                    |
|  \\    /   O peration     | Version:     3.2                                |
|   \\  /    A nd           | Web:         http://www.foam-extend.org         |
|    \\/     M anipulation  | For copyright notice see file Copyright         |
\*---------------------------------------------------------------------------*/
FoamFile
{
    version     2.0;
    format      ascii;
    class       areaScalarField;
    location    "910";
    object      totH1;
}
// * * * * * * * * * * * * * * * * * * * * * * * * * * * * * * * * * * * * * //

dimensions      [0 0 0 0 0 0 0];

internalField   nonuniform List<scalar> 
550
(
0
5e-11
-5e-11
0
-5e-10
0
5e-10
0
0
5e-10
0
5.42101e-20
-5e-10
0
1.0842e-19
-5e-10
-1.0842e-19
5e-10
1.0842e-19
2.1684e-19
5e-10
0
1.0842e-19
-5e-10
-1.0842e-19
0
-5e-10
1e-09
-5e-09
0
0
-5e-09
2.1684e-19
4.33681e-19
5e-09
2.1684e-19
0
5e-09
2.1684e-19
-5e-09
2.1684e-19
2.1684e-19
-5e-09
2.1684e-19
4.33681e-19
5e-09
2.1684e-19
2.1684e-19
5e-09
2.1684e-19
-5e-09
-2.1684e-19
2.1684e-19
-5e-09
4.33681e-19
-4.33681e-19
5e-09
0
0
5e-09
4.33681e-19
-5e-09
0
0
-5e-09
8.67362e-19
0
5e-09
0
4.33681e-19
5e-09
-4.33681e-19
-5e-09
4.33681e-19
4.33681e-19
-5e-09
0
0
5e-09
0
4.33681e-19
5e-09
0
-5e-09
-4.33681e-19
0
-5e-09
4.33681e-19
4.33681e-19
5e-09
4.33681e-19
0
5e-09
4.33681e-19
-5e-09
0
4.33681e-19
-5e-09
8.67362e-19
4.33681e-19
5e-09
0
-4.33681e-19
5e-09
0
-5e-09
0
-8.67362e-19
-5e-09
-7.12812e-07
-1.88263e-06
-6.96409e-07
1.47432e-06
8.08633e-07
-7.16875e-07
4.43334e-07
3.85932e-06
-1.84055e-07
-5.81636e-08
4.94664e-06
1.84187e-06
6.10282e-08
9.66488e-07
1.14595e-06
-1.41935e-06
7.62624e-07
9.34217e-06
1.82264e-05
1.27952e-05
-4.81385e-06
-6.03298e-06
5.14712e-06
1.07324e-05
8.86473e-06
8.62754e-06
8.49704e-06
1.8358e-06
-8.02117e-07
1.20873e-06
4.68103e-06
1.9389e-05
1.94832e-05
6.05575e-06
5.61288e-07
-4.8294e-06
-5.50429e-07
5.93075e-06
6.55684e-06
8.4155e-06
4.88473e-06
-2.42448e-06
-3.41207e-06
7.44985e-06
1.54212e-05
1.59269e-06
-5.01483e-06
8.95868e-06
1.11175e-05
8.3273e-07
3.93488e-07
7.71312e-06
1.2579e-05
1.40088e-05
8.4932e-06
4.10811e-06
7.59118e-06
6.29751e-07
-4.42313e-06
8.54985e-06
1.37371e-05
1.82454e-06
-7.99224e-08
7.99193e-06
7.91944e-06
7.63699e-06
1.03063e-05
9.02818e-06
9.92271e-07
5.69587e-08
9.53258e-06
1.40054e-05
1.82405e-05
1.85522e-05
9.65783e-06
1.22432e-06
-1.50649e-06
7.82215e-06
1.66378e-05
8.97947e-06
2.36367e-06
5.72666e-06
7.00133e-06
1.62449e-05
2.99115e-05
2.71631e-05
1.97511e-05
1.89343e-05
1.74507e-05
2.47875e-05
3.29021e-05
2.85367e-05
3.72158e-05
5.89648e-05
7.91707e-05
0.000100317
0.000118795
0.000134689
0.000143167
0.000153883
0.000165684
0.000173118
0.000185452
0.000196582
0.000205101
0.0002156
0.000270708
0.000375111
0.000473902
0.000564888
0.000658402
0.00075003
0.000843127
0.000935173
0.00102717
0.0011173
0.0012061
0.00129242
0.00137624
0.00145704
0.00153421
0.00160782
0.00167702
0.00174204
0.00180248
0.00185818
0.00191015
0.00195668
0.00200251
0.00203979
0.0020699
0.00209866
0.00213389
0.00214994
0.00215461
0.00217371
0.00219648
0.00223614
0.00225504
0.00225737
0.00227414
0.00228888
0.00230209
0.00231223
0.00231488
0.00232992
0.00235415
0.00237576
0.00239159
0.00240064
0.00240886
0.00242042
0.00242243
0.00241344
0.00240132
0.00239117
0.00238442
0.00237798
0.00237473
0.00237121
0.00236687
0.00236731
0.00237144
0.00237744
0.00238851
0.00240249
0.00241744
0.00243514
0.00245741
0.00248106
0.00250406
0.00252908
0.0025579
0.00259013
0.00262417
0.00265832
0.00269261
0.00272821
0.00276459
0.00280066
0.00283588
0.00287065
0.0029059
0.0029414
0.00297614
0.00300984
0.00304282
0.00307553
0.0031088
0.00314255
0.00317659
0.00321043
0.00324362
0.00327602
0.00330761
0.00333848
0.00336891
0.00339881
0.00342813
0.00345708
0.00348549
0.00351358
0.00354134
0.00356869
0.00359586
0.00362276
0.0036494
0.00367612
0.00370298
0.00373002
0.00375761
0.00378558
0.00381417
0.00384328
0.00387286
0.00390308
0.00393391
0.00396524
0.00399726
0.00402989
0.00406305
0.00409696
0.00413147
0.00416694
0.00420355
0.00424116
0.0042798
0.00431929
0.00435939
0.00440027
0.00444173
0.00448366
0.00452614
0.00456881
0.00461167
0.0046545
0.00469695
0.00473896
0.0047802
0.0048203
0.00485902
0.0048962
0.00493182
0.00496549
0.00499658
0.0050253
0.00505146
0.00507489
0.00509613
0.00511522
0.00513203
0.00514727
0.00516085
0.00517244
0.0051829
0.00519276
0.00520233
0.00521252
0.00522451
0.00523848
0.00525324
0.00526746
0.00528097
0.00529397
0.00530668
0.00531957
0.00533255
0.00534601
0.00536015
0.00537508
0.00539117
0.00540864
0.00542766
0.0054483
0.00547044
0.0054937
0.00551779
0.00554223
0.00556695
0.00559161
0.00561591
0.00564
0.00566381
0.00568714
0.00571014
0.00573275
0.00575496
0.005777
0.0057988
0.00582059
0.00584234
0.00586402
0.00588581
0.00590762
0.00592936
0.00595123
0.00597315
0.00599496
0.00601685
0.00603859
0.00606031
0.0060819
0.00610323
0.00612453
0.00614574
0.00616666
0.00618752
0.00620825
0.00622874
0.00624919
0.00626936
0.00628952
0.0063096
0.00632953
0.00634952
0.00636943
0.00638917
0.00640901
0.00642887
0.00644861
0.00646842
0.00648811
0.00650797
0.00652787
0.00654771
0.00656768
0.00658773
0.00660775
0.00662802
0.0066484
0.00666876
0.00668931
0.00670989
0.00673065
0.00675161
0.00677272
0.00679407
0.00681572
0.00683757
0.00685977
0.00688226
0.00690497
0.00692811
0.00695146
0.00697519
0.00699929
0.00702353
0.00704806
0.00707287
0.00709784
0.00712309
0.00714852
0.00717404
0.00719985
0.00722576
0.00725196
0.00727846
0.00730509
0.00733216
0.00735968
0.00738759
0.0074163
0.00744581
0.00747606
0.00750745
0.00754
0.0075741
0.00761012
0.00764814
0.00768819
0.00772986
0.00777283
0.00781718
0.0078626
0.00790892
0.00795618
0.00800402
0.00805249
0.00810139
0.00815051
0.00819999
0.00824963
0.0082993
0.00834913
0.00839896
0.00844864
0.00849839
0.00854796
0.00859744
0.00864669
0.00869563
0.0087444
0.0087929
0.00884109
0.00888909
0.00893685
0.00898427
0.00903161
0.0090787
0.00912575
0.00917267
0.00921953
0.00926657
0.0093138
0.00936106
0.00940873
0.00945691
0.00950508
0.00955468
0.00960376
0.00965633
0.00970574
0.00976405
0.00981306
0.00987844
0.00992407
0.00998883
0.0100219
0.0100717
0.0100775
0.010089
0.0100473
0.00998574
0.00987043
0.00969065
0.0094445
0.00905533
0.00845412
0.00746254
0.00568903
0.00221875
-5e-08
3.46945e-18
0
-5e-08
6.93889e-18
5e-08
3.46945e-18
0
5e-08
3.46945e-18
)
;

boundaryField
{
    inlet
    {
        type            calculated;
        value           uniform 0;
    }
    endWall
    {
        type            calculated;
        value           uniform 0;
    }
    sideWall
    {
        type            empty;
    }
}


// ************************************************************************* //
