/*--------------------------------*- C++ -*----------------------------------*\
| =========                 |                                                 |
| \\      /  F ield         | foam-extend: Open Source CFD                    |
|  \\    /   O peration     | Version:     3.2                                |
|   \\  /    A nd           | Web:         http://www.foam-extend.org         |
|    \\/     M anipulation  | For copyright notice see file Copyright         |
\*---------------------------------------------------------------------------*/
FoamFile
{
    version     2.0;
    format      ascii;
    class       areaVectorField;
    location    "120";
    object      aMeshCentreN;
}
// * * * * * * * * * * * * * * * * * * * * * * * * * * * * * * * * * * * * * //

dimensions      [0 0 0 0 0 0 0];

internalField   nonuniform List<vector> 
550
(
(0.00909091 0.01 -1.81818e-05)
(0.0272727 0.01 -5.45455e-05)
(0.0454545 0.01 -9.09091e-05)
(0.0636364 0.01 -0.000127273)
(0.0818182 0.01 -0.000163636)
(0.1 0.01 -0.0002)
(0.118182 0.01 -0.000236364)
(0.136364 0.01 -0.000272727)
(0.154545 0.01 -0.000309091)
(0.172727 0.01 -0.000345455)
(0.190909 0.01 -0.000381818)
(0.209091 0.01 -0.000418182)
(0.227273 0.01 -0.000454545)
(0.245455 0.01 -0.000490909)
(0.263636 0.01 -0.000527273)
(0.281818 0.01 -0.000563636)
(0.3 0.01 -0.0006)
(0.318182 0.01 -0.000636364)
(0.336364 0.01 -0.000672727)
(0.354545 0.01 -0.000709091)
(0.372727 0.01 -0.000745455)
(0.390909 0.01 -0.000781818)
(0.409091 0.01 -0.000818182)
(0.427273 0.01 -0.000854545)
(0.445455 0.01 -0.000890909)
(0.463636 0.01 -0.000927273)
(0.481818 0.01 -0.000963636)
(0.5 0.01 -0.001)
(0.518182 0.01 -0.00103636)
(0.536364 0.01 -0.00107273)
(0.554545 0.01 -0.00110909)
(0.572727 0.01 -0.00114545)
(0.590909 0.01 -0.00118182)
(0.609091 0.01 -0.00121818)
(0.627273 0.01 -0.00125455)
(0.645455 0.01 -0.00129091)
(0.663636 0.01 -0.00132727)
(0.681818 0.01 -0.00136364)
(0.7 0.01 -0.0014)
(0.718182 0.01 -0.00143636)
(0.736364 0.01 -0.00147273)
(0.754545 0.01 -0.00150909)
(0.772727 0.01 -0.00154545)
(0.790909 0.01 -0.00158182)
(0.809091 0.01 -0.00161818)
(0.827273 0.01 -0.00165455)
(0.845455 0.01 -0.00169091)
(0.863636 0.01 -0.00172727)
(0.881818 0.01 -0.00176364)
(0.9 0.01 -0.0018)
(0.918182 0.01 -0.00183636)
(0.936364 0.01 -0.00187273)
(0.954545 0.01 -0.00190909)
(0.972727 0.01 -0.00194545)
(0.990909 0.01 -0.00198182)
(1.00909 0.01 -0.00201818)
(1.02727 0.01 -0.00205455)
(1.04545 0.01 -0.00209091)
(1.06364 0.01 -0.00212727)
(1.08182 0.01 -0.00216364)
(1.1 0.01 -0.0022)
(1.11818 0.01 -0.00223636)
(1.13636 0.01 -0.00227273)
(1.15455 0.01 -0.00230909)
(1.17273 0.01 -0.00234545)
(1.19091 0.01 -0.00238182)
(1.20909 0.01 -0.00241818)
(1.22727 0.01 -0.00245455)
(1.24545 0.01 -0.00249091)
(1.26364 0.01 -0.00252727)
(1.28182 0.01 -0.00256364)
(1.3 0.01 -0.0026)
(1.31818 0.01 -0.00263636)
(1.33636 0.01 -0.00267273)
(1.35455 0.01 -0.00270909)
(1.37273 0.01 -0.00274545)
(1.39091 0.01 -0.00278182)
(1.40909 0.01 -0.00281818)
(1.42727 0.01 -0.00285455)
(1.44545 0.01 -0.00289091)
(1.46364 0.01 -0.00292727)
(1.48182 0.01 -0.00296364)
(1.5 0.01 -0.003)
(1.51818 0.01 -0.00303636)
(1.53636 0.01 -0.00307273)
(1.55455 0.01 -0.00310909)
(1.57273 0.01 -0.00314545)
(1.59091 0.01 -0.00318182)
(1.60909 0.01 -0.00321818)
(1.62727 0.01 -0.00325455)
(1.64545 0.01 -0.00329091)
(1.66364 0.01 -0.00332727)
(1.68182 0.01 -0.00336364)
(1.7 0.01 -0.0034)
(1.71818 0.01 -0.00343636)
(1.73636 0.01 -0.00347273)
(1.75455 0.01 -0.00350909)
(1.77273 0.01 -0.00354545)
(1.79091 0.01 -0.00358182)
(1.80909 0.01 -0.00361818)
(1.82727 0.01 -0.00365455)
(1.84545 0.01 -0.00369091)
(1.86364 0.01 -0.00372727)
(1.88182 0.01 -0.00376364)
(1.9 0.01 -0.0038)
(1.91818 0.01 -0.00383636)
(1.93636 0.01 -0.00387273)
(1.95455 0.01 -0.00390909)
(1.97273 0.01 -0.00394545)
(1.99091 0.01 -0.00398182)
(2.00909 0.01 -0.00401818)
(2.02727 0.01 -0.00405455)
(2.04545 0.01 -0.00409091)
(2.06364 0.01 -0.00412727)
(2.08182 0.01 -0.00416364)
(2.1 0.01 -0.0042)
(2.11818 0.01 -0.00423636)
(2.13636 0.01 -0.00427273)
(2.15455 0.01 -0.00430909)
(2.17273 0.01 -0.00434545)
(2.19091 0.01 -0.00438182)
(2.20909 0.01 -0.00441818)
(2.22727 0.01 -0.00445455)
(2.24545 0.01 -0.00449091)
(2.26364 0.01 -0.00452727)
(2.28182 0.01 -0.00456364)
(2.3 0.01 -0.0046)
(2.31818 0.01 -0.00463636)
(2.33636 0.01 -0.00467273)
(2.35455 0.01 -0.00470909)
(2.37273 0.01 -0.00474545)
(2.39091 0.01 -0.00478182)
(2.40909 0.01 -0.00481818)
(2.42727 0.01 -0.00485455)
(2.44545 0.01 -0.00489091)
(2.46364 0.01 -0.00492727)
(2.48182 0.01 -0.00496364)
(2.5 0.01 -0.005)
(2.51818 0.01 -0.00503636)
(2.53636 0.01 -0.00507273)
(2.55455 0.01 -0.00510909)
(2.57273 0.01 -0.00514545)
(2.59091 0.01 -0.00518182)
(2.60909 0.01 -0.00521818)
(2.62727 0.01 -0.00525455)
(2.64545 0.01 -0.00529091)
(2.66364 0.01 -0.00532727)
(2.68182 0.01 -0.00536364)
(2.7 0.01 -0.0054)
(2.71818 0.01 -0.00543636)
(2.73636 0.01 -0.00547273)
(2.75455 0.01 -0.00550909)
(2.77273 0.01 -0.00554545)
(2.79091 0.01 -0.00558182)
(2.80909 0.01 -0.00561818)
(2.82727 0.01 -0.00565455)
(2.84545 0.01 -0.00569091)
(2.86364 0.01 -0.00572727)
(2.88182 0.01 -0.00576364)
(2.9 0.01 -0.0058)
(2.91818 0.01 -0.00583636)
(2.93636 0.01 -0.00587273)
(2.95455 0.01 -0.00590909)
(2.97273 0.01 -0.00594545)
(2.99091 0.01 -0.00598182)
(3.00909 0.01 -0.00601818)
(3.02727 0.01 -0.00605455)
(3.04545 0.01 -0.00609091)
(3.06364 0.01 -0.00612727)
(3.08182 0.01 -0.00616364)
(3.1 0.01 -0.0062)
(3.11818 0.01 -0.00623636)
(3.13636 0.01 -0.00627273)
(3.15455 0.01 -0.00630909)
(3.17273 0.01 -0.00634545)
(3.19091 0.01 -0.00638182)
(3.20909 0.01 -0.00641818)
(3.22727 0.01 -0.00645455)
(3.24545 0.01 -0.00649091)
(3.26364 0.01 -0.00652727)
(3.28182 0.01 -0.00656364)
(3.3 0.01 -0.0066)
(3.31818 0.01 -0.00663636)
(3.33636 0.01 -0.00667273)
(3.35455 0.01 -0.00670909)
(3.37273 0.01 -0.00674545)
(3.39091 0.01 -0.00678182)
(3.40909 0.01 -0.00681818)
(3.42727 0.01 -0.00685455)
(3.44545 0.01 -0.00689091)
(3.46364 0.01 -0.00692727)
(3.48182 0.01 -0.00696364)
(3.5 0.01 -0.007)
(3.51818 0.01 -0.00703636)
(3.53636 0.01 -0.00707273)
(3.55455 0.01 -0.00710909)
(3.57273 0.01 -0.00714545)
(3.59091 0.01 -0.00718182)
(3.60909 0.01 -0.00721818)
(3.62727 0.01 -0.00725455)
(3.64545 0.01 -0.00729091)
(3.66364 0.01 -0.00732727)
(3.68182 0.01 -0.00736364)
(3.7 0.01 -0.0074)
(3.71818 0.01 -0.00743636)
(3.73636 0.01 -0.00747273)
(3.75455 0.01 -0.00750909)
(3.77273 0.01 -0.00754545)
(3.79091 0.01 -0.00758182)
(3.80909 0.01 -0.00761818)
(3.82727 0.01 -0.00765455)
(3.84545 0.01 -0.00769091)
(3.86364 0.01 -0.00772727)
(3.88182 0.01 -0.00776364)
(3.9 0.01 -0.0078)
(3.91818 0.01 -0.00783636)
(3.93636 0.01 -0.00787273)
(3.95455 0.01 -0.00790909)
(3.97273 0.01 -0.00794545)
(3.99091 0.01 -0.00798182)
(4.00909 0.01 -0.00801818)
(4.02727 0.01 -0.00805455)
(4.04545 0.01 -0.00809091)
(4.06364 0.01 -0.00812727)
(4.08182 0.01 -0.00816364)
(4.1 0.01 -0.0082)
(4.11818 0.01 -0.00823636)
(4.13636 0.01 -0.00827273)
(4.15455 0.01 -0.00830909)
(4.17273 0.01 -0.00834545)
(4.19091 0.01 -0.00838182)
(4.20909 0.01 -0.00841818)
(4.22727 0.01 -0.00845455)
(4.24545 0.01 -0.00849091)
(4.26364 0.01 -0.00852727)
(4.28182 0.01 -0.00856364)
(4.3 0.01 -0.0086)
(4.31818 0.01 -0.00863635)
(4.33636 0.01 -0.00867266)
(4.35455 0.01 -0.00870886)
(4.37273 0.01 -0.00874492)
(4.39091 0.01 -0.00878086)
(4.40909 0.01 -0.00881665)
(4.42727 0.01 -0.0088523)
(4.44545 0.01 -0.00888785)
(4.46364 0.01 -0.0089234)
(4.48182 0.01 -0.00895899)
(4.5 0.01 -0.00899456)
(4.51818 0.01 -0.00903011)
(4.53636 0.01 -0.00906566)
(4.55455 0.01 -0.00910121)
(4.57273 0.01 -0.00913675)
(4.59091 0.01 -0.0091723)
(4.60909 0.01 -0.00920784)
(4.62727 0.01 -0.00924338)
(4.64545 0.01 -0.00927891)
(4.66364 0.01 -0.00931444)
(4.68182 0.01 -0.00934996)
(4.7 0.01 -0.00938549)
(4.71818 0.01 -0.00942101)
(4.73636 0.01 -0.00945652)
(4.75455 0.01 -0.00949204)
(4.77273 0.01 -0.00952756)
(4.79091 0.01 -0.00956307)
(4.80909 0.01 -0.00959859)
(4.82727 0.01 -0.0096341)
(4.84545 0.01 -0.00966962)
(4.86364 0.01 -0.00970514)
(4.88182 0.01 -0.00974066)
(4.9 0.01 -0.00977618)
(4.91818 0.01 -0.00981171)
(4.93636 0.01 -0.00984724)
(4.95455 0.01 -0.00988278)
(4.97273 0.01 -0.00991832)
(4.99091 0.01 -0.00995387)
(5.00909 0.01 -0.00998942)
(5.02727 0.01 -0.010025)
(5.04545 0.01 -0.0100605)
(5.06364 0.01 -0.0100961)
(5.08182 0.01 -0.0101317)
(5.1 0.01 -0.0101673)
(5.11818 0.01 -0.0102029)
(5.13636 0.01 -0.0102385)
(5.15455 0.01 -0.0102741)
(5.17273 0.01 -0.0103097)
(5.19091 0.01 -0.0103454)
(5.20909 0.01 -0.010381)
(5.22727 0.01 -0.0104167)
(5.24545 0.01 -0.0104524)
(5.26364 0.01 -0.0104881)
(5.28182 0.01 -0.0105238)
(5.3 0.01 -0.0105595)
(5.31818 0.01 -0.0105952)
(5.33636 0.01 -0.0106309)
(5.35455 0.01 -0.0106667)
(5.37273 0.01 -0.0107025)
(5.39091 0.01 -0.0107383)
(5.40909 0.01 -0.0107741)
(5.42727 0.01 -0.0108099)
(5.44545 0.01 -0.0108458)
(5.46364 0.01 -0.0108817)
(5.48182 0.01 -0.0109176)
(5.5 0.01 -0.0109535)
(5.51818 0.01 -0.0109894)
(5.53636 0.01 -0.0110254)
(5.55455 0.01 -0.0110613)
(5.57273 0.01 -0.0110973)
(5.59091 0.01 -0.0111334)
(5.60909 0.01 -0.0111694)
(5.62727 0.01 -0.0112054)
(5.64545 0.01 -0.0112415)
(5.66364 0.01 -0.0112776)
(5.68182 0.01 -0.0113137)
(5.7 0.01 -0.0113498)
(5.71818 0.01 -0.0113859)
(5.73636 0.01 -0.0114221)
(5.75455 0.01 -0.0114583)
(5.77273 0.01 -0.0114944)
(5.79091 0.01 -0.0115306)
(5.80909 0.01 -0.0115669)
(5.82727 0.01 -0.0116031)
(5.84545 0.01 -0.0116393)
(5.86364 0.01 -0.0116756)
(5.88182 0.01 -0.0117118)
(5.9 0.01 -0.0117481)
(5.91818 0.01 -0.0117844)
(5.93636 0.01 -0.0118206)
(5.95455 0.01 -0.0118569)
(5.97273 0.01 -0.0118932)
(5.99091 0.01 -0.0119295)
(6.00909 0.01 -0.0119658)
(6.02727 0.01 -0.0120022)
(6.04545 0.01 -0.0120385)
(6.06364 0.01 -0.0120748)
(6.08182 0.01 -0.0121111)
(6.1 0.01 -0.0121474)
(6.11818 0.01 -0.0121837)
(6.13636 0.01 -0.01222)
(6.15455 0.01 -0.0122563)
(6.17273 0.01 -0.0122926)
(6.19091 0.01 -0.0123289)
(6.20909 0.01 -0.0123651)
(6.22727 0.01 -0.0124014)
(6.24545 0.01 -0.0124377)
(6.26364 0.01 -0.0124739)
(6.28182 0.01 -0.0125101)
(6.3 0.01 -0.0125463)
(6.31818 0.01 -0.0125825)
(6.33636 0.01 -0.0126187)
(6.35455 0.01 -0.0126549)
(6.37273 0.01 -0.012691)
(6.39091 0.01 -0.0127271)
(6.40909 0.01 -0.0127633)
(6.42727 0.01 -0.0127994)
(6.44545 0.01 -0.0128354)
(6.46364 0.01 -0.0128715)
(6.48182 0.01 -0.0129075)
(6.5 0.01 -0.0129435)
(6.51818 0.01 -0.0129795)
(6.53636 0.01 -0.0130155)
(6.55455 0.01 -0.0130515)
(6.57273 0.01 -0.0130874)
(6.59091 0.01 -0.0131234)
(6.60909 0.01 -0.0131593)
(6.62727 0.01 -0.0131952)
(6.64545 0.01 -0.013231)
(6.66364 0.01 -0.0132669)
(6.68182 0.01 -0.0133027)
(6.7 0.01 -0.0133386)
(6.71818 0.01 -0.0133744)
(6.73636 0.01 -0.0134102)
(6.75455 0.01 -0.0134459)
(6.77273 0.01 -0.0134817)
(6.79091 0.01 -0.0135174)
(6.80909 0.01 -0.0135532)
(6.82727 0.01 -0.0135889)
(6.84545 0.01 -0.0136246)
(6.86364 0.01 -0.0136603)
(6.88182 0.01 -0.0136959)
(6.9 0.01 -0.0137316)
(6.91818 0.01 -0.0137673)
(6.93636 0.01 -0.0138029)
(6.95455 0.01 -0.0138386)
(6.97273 0.01 -0.0138742)
(6.99091 0.01 -0.0139098)
(7.00909 0.01 -0.0139454)
(7.02727 0.01 -0.013981)
(7.04545 0.01 -0.0140167)
(7.06364 0.01 -0.0140522)
(7.08182 0.01 -0.0140878)
(7.1 0.01 -0.0141234)
(7.11818 0.01 -0.014159)
(7.13636 0.01 -0.0141946)
(7.15455 0.01 -0.0142302)
(7.17273 0.01 -0.0142657)
(7.19091 0.01 -0.0143013)
(7.20909 0.01 -0.0143369)
(7.22727 0.01 -0.0143724)
(7.24545 0.01 -0.014408)
(7.26364 0.01 -0.0144436)
(7.28182 0.01 -0.0144791)
(7.3 0.01 -0.0145147)
(7.31818 0.01 -0.0145503)
(7.33636 0.01 -0.0145858)
(7.35455 0.01 -0.0146214)
(7.37273 0.01 -0.014657)
(7.39091 0.01 -0.0146925)
(7.40909 0.01 -0.0147281)
(7.42727 0.01 -0.0147637)
(7.44545 0.01 -0.0147993)
(7.46364 0.01 -0.0148348)
(7.48182 0.01 -0.0148704)
(7.5 0.01 -0.014906)
(7.51818 0.01 -0.0149416)
(7.53636 0.01 -0.0149772)
(7.55455 0.01 -0.0150128)
(7.57273 0.01 -0.0150484)
(7.59091 0.01 -0.0150841)
(7.60909 0.01 -0.0151197)
(7.62727 0.01 -0.0151553)
(7.64545 0.01 -0.015191)
(7.66364 0.01 -0.0152266)
(7.68182 0.01 -0.0152623)
(7.7 0.01 -0.0152979)
(7.71818 0.01 -0.0153336)
(7.73636 0.01 -0.0153693)
(7.75455 0.01 -0.0154049)
(7.77273 0.01 -0.0154406)
(7.79091 0.01 -0.0154763)
(7.80909 0.01 -0.0155121)
(7.82727 0.01 -0.0155478)
(7.84545 0.01 -0.0155835)
(7.86364 0.01 -0.0156193)
(7.88182 0.01 -0.015655)
(7.9 0.01 -0.0156908)
(7.91818 0.01 -0.0157266)
(7.93636 0.01 -0.0157624)
(7.95455 0.01 -0.0157982)
(7.97273 0.01 -0.015834)
(7.99091 0.01 -0.0158698)
(8.00909 0.01 -0.0159057)
(8.02727 0.01 -0.0159415)
(8.04545 0.01 -0.0159774)
(8.06364 0.01 -0.0160133)
(8.08182 0.01 -0.0160492)
(8.1 0.01 -0.0160852)
(8.11818 0.01 -0.0161211)
(8.13636 0.01 -0.0161571)
(8.15455 0.01 -0.0161931)
(8.17273 0.01 -0.0162291)
(8.19091 0.01 -0.0162651)
(8.20909 0.01 -0.0163011)
(8.22727 0.01 -0.0163371)
(8.24545 0.01 -0.0163731)
(8.26364 0.01 -0.0164092)
(8.28182 0.01 -0.0164453)
(8.3 0.01 -0.0164813)
(8.31818 0.01 -0.0165174)
(8.33636 0.01 -0.0165535)
(8.35455 0.01 -0.0165897)
(8.37273 0.01 -0.0166258)
(8.39091 0.01 -0.0166619)
(8.40909 0.01 -0.0166981)
(8.42727 0.01 -0.0167342)
(8.44545 0.01 -0.0167704)
(8.46364 0.01 -0.0168066)
(8.48182 0.01 -0.0168427)
(8.5 0.01 -0.0168789)
(8.51818 0.01 -0.0169151)
(8.53636 0.01 -0.0169513)
(8.55455 0.01 -0.0169876)
(8.57273 0.01 -0.0170238)
(8.59091 0.01 -0.01706)
(8.60909 0.01 -0.0170962)
(8.62727 0.01 -0.0171325)
(8.64545 0.01 -0.0171687)
(8.66364 0.01 -0.0172049)
(8.68182 0.01 -0.0172412)
(8.7 0.01 -0.0172774)
(8.71818 0.01 -0.0173137)
(8.73636 0.01 -0.0173499)
(8.75455 0.01 -0.0173862)
(8.77273 0.01 -0.0174224)
(8.79091 0.01 -0.0174587)
(8.80909 0.01 -0.0174949)
(8.82727 0.01 -0.0175312)
(8.84545 0.01 -0.0175674)
(8.86364 0.01 -0.0176036)
(8.88182 0.01 -0.0176398)
(8.9 0.01 -0.0176761)
(8.91818 0.01 -0.0177123)
(8.93636 0.01 -0.0177485)
(8.95455 0.01 -0.0177847)
(8.97273 0.01 -0.0178209)
(8.99091 0.01 -0.0178571)
(9.00909 0.01 -0.0178933)
(9.02727 0.01 -0.0179294)
(9.04545 0.01 -0.0179656)
(9.06364 0.01 -0.0180017)
(9.08182 0.01 -0.0180379)
(9.1 0.01 -0.018074)
(9.11818 0.01 -0.0181102)
(9.13636 0.01 -0.0181463)
(9.15455 0.01 -0.0181824)
(9.17273 0.01 -0.0182185)
(9.19091 0.01 -0.0182546)
(9.20909 0.01 -0.0182907)
(9.22727 0.01 -0.0183268)
(9.24545 0.01 -0.0183628)
(9.26364 0.01 -0.0183989)
(9.28182 0.01 -0.018435)
(9.3 0.01 -0.018471)
(9.31818 0.01 -0.018507)
(9.33636 0.01 -0.0185431)
(9.35455 0.01 -0.0185791)
(9.37273 0.01 -0.0186151)
(9.39091 0.01 -0.0186511)
(9.40909 0.01 -0.0186871)
(9.42727 0.01 -0.0187231)
(9.44545 0.01 -0.018759)
(9.46364 0.01 -0.018795)
(9.48182 0.01 -0.0188309)
(9.5 0.01 -0.0188668)
(9.51818 0.01 -0.0189026)
(9.53636 0.01 -0.0189384)
(9.55455 0.01 -0.0189741)
(9.57273 0.01 -0.0190097)
(9.59091 0.01 -0.0190451)
(9.60909 0.01 -0.0190802)
(9.62727 0.01 -0.0191149)
(9.64545 0.01 -0.019149)
(9.66364 0.01 -0.0191823)
(9.68182 0.01 -0.0192144)
(9.7 0.01 -0.0192448)
(9.71818 0.01 -0.0192729)
(9.73636 0.01 -0.0192976)
(9.75455 0.01 -0.0193194)
(9.77273 0.01 -0.0193337)
(9.79091 0.01 -0.0194069)
(9.80909 0.01 -0.0195564)
(9.82727 0.01 -0.0196545)
(9.84545 0.01 -0.0196909)
(9.86364 0.01 -0.0197273)
(9.88182 0.01 -0.0197636)
(9.9 0.01 -0.0198)
(9.91818 0.01 -0.0198364)
(9.93636 0.01 -0.0198727)
(9.95455 0.01 -0.0199091)
(9.97273 0.01 -0.0199455)
(9.99091 0.01 -0.0199818)
)
;

boundaryField
{
    inlet
    {
        type            calculated;
        value           uniform (0 0 0);
    }
    endWall
    {
        type            calculated;
        value           uniform (0 0 0);
    }
    sideWall
    {
        type            empty;
    }
}


// ************************************************************************* //
