/*--------------------------------*- C++ -*----------------------------------*\
| =========                 |                                                 |
| \\      /  F ield         | foam-extend: Open Source CFD                    |
|  \\    /   O peration     | Version:     3.2                                |
|   \\  /    A nd           | Web:         http://www.foam-extend.org         |
|    \\/     M anipulation  | For copyright notice see file Copyright         |
\*---------------------------------------------------------------------------*/
FoamFile
{
    version     2.0;
    format      ascii;
    class       areaScalarField;
    location    "120";
    object      deltaHb;
}
// * * * * * * * * * * * * * * * * * * * * * * * * * * * * * * * * * * * * * //

dimensions      [0 1 -1 0 0 0 0];

internalField   nonuniform List<scalar> 
550
(
0
0
-8.60779e-09
-3.56425e-08
-6.80032e-08
-9.44264e-08
-1.16218e-07
-1.30711e-07
-1.36382e-07
-1.33222e-07
-1.22505e-07
-1.06259e-07
-8.6762e-08
-6.60054e-08
-4.56415e-08
-2.68485e-08
-1.04063e-08
3.33791e-09
1.39341e-08
2.17894e-08
2.77444e-08
3.20589e-08
3.49562e-08
3.66278e-08
3.7263e-08
3.70666e-08
3.61693e-08
3.47165e-08
3.30481e-08
3.13829e-08
2.96838e-08
2.79427e-08
2.62007e-08
2.44927e-08
2.28415e-08
2.1259e-08
1.97534e-08
1.83314e-08
1.69944e-08
1.57421e-08
1.45743e-08
1.34904e-08
1.24891e-08
1.15662e-08
1.07163e-08
9.93172e-09
9.20609e-09
8.53596e-09
7.91801e-09
7.34897e-09
6.82607e-09
6.34657e-09
5.90837e-09
5.51e-09
5.14965e-09
4.82442e-09
4.52948e-09
4.26128e-09
4.01828e-09
3.79808e-09
3.59723e-09
3.41305e-09
3.24428e-09
3.09011e-09
2.94943e-09
2.82124e-09
2.70451e-09
2.59819e-09
2.50145e-09
2.41364e-09
2.33436e-09
2.26317e-09
2.19896e-09
2.14089e-09
2.08897e-09
2.04284e-09
2.00139e-09
1.96344e-09
1.92718e-09
1.89111e-09
1.85597e-09
1.82267e-09
1.79097e-09
1.76067e-09
1.73152e-09
1.70336e-09
1.67617e-09
1.65004e-09
1.62524e-09
1.60198e-09
1.58106e-09
1.56402e-09
1.55033e-09
1.53764e-09
1.52484e-09
1.51172e-09
1.49835e-09
1.48488e-09
1.47077e-09
1.4565e-09
1.44452e-09
1.4363e-09
1.43184e-09
1.43101e-09
1.43352e-09
1.43899e-09
1.44696e-09
1.45699e-09
1.46861e-09
1.48137e-09
1.49489e-09
1.50877e-09
1.52288e-09
1.53655e-09
1.54944e-09
1.56338e-09
1.57825e-09
1.59192e-09
1.60435e-09
1.61618e-09
1.6274e-09
1.63794e-09
1.64767e-09
1.65638e-09
1.66389e-09
1.67004e-09
1.67473e-09
1.67795e-09
1.67979e-09
1.6804e-09
1.67997e-09
1.67869e-09
1.67669e-09
1.67405e-09
1.67075e-09
1.66679e-09
1.66213e-09
1.65675e-09
1.65066e-09
1.6439e-09
1.63651e-09
1.62853e-09
1.61999e-09
1.61092e-09
1.60135e-09
1.59129e-09
1.58076e-09
1.56974e-09
1.55825e-09
1.54628e-09
1.53379e-09
1.52073e-09
1.50703e-09
1.4926e-09
1.47739e-09
1.4614e-09
1.44472e-09
1.42742e-09
1.40964e-09
1.39146e-09
1.37293e-09
1.35407e-09
1.33488e-09
1.31533e-09
1.29543e-09
1.27516e-09
1.25456e-09
1.23365e-09
1.21247e-09
1.19104e-09
1.16941e-09
1.14759e-09
1.12563e-09
1.1036e-09
1.0816e-09
1.05969e-09
1.03794e-09
1.01636e-09
9.94977e-10
9.73772e-10
9.5275e-10
9.31915e-10
9.11278e-10
8.90862e-10
8.70676e-10
8.50727e-10
8.30994e-10
8.11438e-10
7.92011e-10
7.72676e-10
7.53412e-10
7.34223e-10
7.15114e-10
6.96074e-10
6.77109e-10
6.58213e-10
6.39381e-10
6.20603e-10
6.01881e-10
5.83236e-10
5.647e-10
5.46305e-10
5.28098e-10
5.10151e-10
4.92556e-10
4.75416e-10
4.58838e-10
4.4291e-10
4.27702e-10
4.13268e-10
3.99642e-10
3.86835e-10
3.74853e-10
3.63695e-10
3.53373e-10
3.43902e-10
3.35295e-10
3.27553e-10
3.20661e-10
3.14592e-10
3.09309e-10
3.04759e-10
3.00888e-10
2.97657e-10
2.95014e-10
2.94636e-10
2.9736e-10
3.01831e-10
3.0718e-10
3.12736e-10
3.18042e-10
3.22844e-10
3.27043e-10
3.30668e-10
3.33809e-10
3.36815e-10
4.16256e-10
4.59478e-10
2.68706e-10
2.28809e-10
3.44415e-10
3.42336e-10
3.39495e-10
3.34851e-10
3.2953e-10
3.28269e-10
3.28969e-10
3.28603e-10
3.28425e-10
3.28952e-10
3.30136e-10
3.31902e-10
3.34191e-10
3.37084e-10
3.4056e-10
3.44505e-10
3.48744e-10
3.53086e-10
3.57385e-10
3.61579e-10
3.65671e-10
3.69695e-10
3.73669e-10
3.77559e-10
3.81289e-10
3.84777e-10
3.87967e-10
3.9085e-10
3.93439e-10
3.95746e-10
3.9775e-10
3.99394e-10
4.00609e-10
4.01358e-10
4.01674e-10
4.0165e-10
4.01407e-10
4.01037e-10
4.00562e-10
3.99926e-10
3.9902e-10
3.97714e-10
3.95897e-10
3.93507e-10
3.90536e-10
3.87012e-10
3.82996e-10
3.78559e-10
3.73773e-10
3.68693e-10
3.6335e-10
3.57747e-10
3.51868e-10
3.45707e-10
3.39276e-10
3.32627e-10
3.25846e-10
3.19043e-10
3.12344e-10
3.05878e-10
2.99764e-10
2.94087e-10
2.88889e-10
2.84166e-10
2.79867e-10
2.75903e-10
2.72151e-10
2.68481e-10
2.64771e-10
2.60937e-10
2.56947e-10
2.52817e-10
2.48603e-10
2.44373e-10
2.40189e-10
2.36089e-10
2.32084e-10
2.28159e-10
2.24285e-10
2.20413e-10
2.16499e-10
2.12511e-10
2.08447e-10
2.04325e-10
2.00197e-10
1.96138e-10
1.92227e-10
1.88517e-10
1.85024e-10
1.81731e-10
1.78602e-10
1.75598e-10
1.72701e-10
1.69924e-10
1.67313e-10
1.64936e-10
1.62848e-10
1.61083e-10
1.59656e-10
1.58583e-10
1.57898e-10
1.57664e-10
1.57965e-10
1.58885e-10
1.60491e-10
1.62821e-10
1.65884e-10
1.69663e-10
1.74132e-10
1.79255e-10
1.84989e-10
1.91267e-10
1.97984e-10
2.04993e-10
2.12126e-10
2.19226e-10
2.26172e-10
2.32895e-10
2.39384e-10
2.45675e-10
2.51833e-10
2.57935e-10
2.64047e-10
2.70202e-10
2.76386e-10
2.82562e-10
2.88685e-10
2.94729e-10
3.00693e-10
3.06606e-10
3.12519e-10
3.18509e-10
3.24669e-10
3.31079e-10
3.37785e-10
3.44761e-10
3.51921e-10
3.59146e-10
3.66323e-10
3.73376e-10
3.80262e-10
3.86959e-10
3.9344e-10
3.9967e-10
4.05614e-10
4.11256e-10
4.16607e-10
4.21685e-10
4.26491e-10
4.30989e-10
4.35111e-10
4.38788e-10
4.4199e-10
4.44748e-10
4.47129e-10
4.49219e-10
4.51095e-10
4.5282e-10
4.54429e-10
4.55925e-10
4.57265e-10
4.58382e-10
4.59214e-10
4.59729e-10
4.59947e-10
4.59911e-10
4.59692e-10
4.59364e-10
4.58991e-10
4.58627e-10
4.58315e-10
4.58107e-10
4.58046e-10
4.58171e-10
4.5849e-10
4.58986e-10
4.5963e-10
4.60386e-10
4.61224e-10
4.62096e-10
4.62939e-10
4.63683e-10
4.64273e-10
4.64683e-10
4.64898e-10
4.64895e-10
4.64633e-10
4.64045e-10
4.63054e-10
4.61598e-10
4.59633e-10
4.57132e-10
4.54098e-10
4.50554e-10
4.46561e-10
4.42184e-10
4.3749e-10
4.32522e-10
4.2727e-10
4.21707e-10
4.15798e-10
4.09534e-10
4.0294e-10
3.96077e-10
3.8903e-10
3.81918e-10
3.74875e-10
3.68027e-10
3.61476e-10
3.55292e-10
3.4949e-10
3.44033e-10
3.38833e-10
3.33772e-10
3.2874e-10
3.23669e-10
3.18571e-10
3.13526e-10
3.08663e-10
3.04138e-10
3.00076e-10
2.9656e-10
2.93591e-10
2.9112e-10
2.89029e-10
2.87166e-10
2.85344e-10
2.83431e-10
2.81366e-10
2.79185e-10
2.76983e-10
2.74858e-10
2.72832e-10
2.70841e-10
2.68748e-10
2.6645e-10
2.63883e-10
2.61087e-10
2.58135e-10
2.55157e-10
2.52227e-10
2.49419e-10
2.46737e-10
2.4425e-10
2.4201e-10
2.40144e-10
2.38729e-10
2.37857e-10
2.37499e-10
2.37654e-10
2.38233e-10
2.3923e-10
2.40506e-10
2.42009e-10
2.43535e-10
2.45001e-10
2.46192e-10
2.47123e-10
2.47728e-10
2.48224e-10
2.48721e-10
2.49587e-10
2.50962e-10
2.53173e-10
2.56178e-10
2.60112e-10
2.64645e-10
2.69712e-10
2.74854e-10
2.80068e-10
2.85025e-10
2.8996e-10
2.9467e-10
2.9944e-10
3.0395e-10
3.08344e-10
3.12196e-10
3.15745e-10
3.18892e-10
3.22297e-10
3.26302e-10
3.31692e-10
3.38844e-10
3.48529e-10
3.60662e-10
3.78062e-10
3.98646e-10
4.30898e-10
4.70562e-10
5.34773e-10
6.16769e-10
7.4646e-10
9.12614e-10
1.17162e-09
1.49665e-09
1.9863e-09
2.63892e-09
2.61677e-09
4.83595e-09
9.93944e-09
1.24512e-08
1.45455e-08
1.80147e-08
1.96884e-08
1.05196e-08
5.00265e-10
0
0
0
0
)
;

boundaryField
{
    inlet
    {
        type            zeroGradient;
    }
    endWall
    {
        type            zeroGradient;
    }
    sideWall
    {
        type            empty;
    }
}


// ************************************************************************* //
