/*--------------------------------*- C++ -*----------------------------------*\
| =========                 |                                                 |
| \\      /  F ield         | foam-extend: Open Source CFD                    |
|  \\    /   O peration     | Version:     3.2                                |
|   \\  /    A nd           | Web:         http://www.foam-extend.org         |
|    \\/     M anipulation  | For copyright notice see file Copyright         |
\*---------------------------------------------------------------------------*/
FoamFile
{
    version     2.0;
    format      ascii;
    class       areaScalarField;
    location    "120";
    object      Fi2;
}
// * * * * * * * * * * * * * * * * * * * * * * * * * * * * * * * * * * * * * //

dimensions      [0 1 -1 0 0 0 0];

internalField   nonuniform List<scalar> 
550
(
4.99357e-08
4.56948e-08
3.08957e-08
-4.57944e-09
-4.77192e-08
-8.70736e-08
-1.23506e-07
-1.53655e-07
-1.75228e-07
-1.87387e-07
-1.90735e-07
-1.86758e-07
-1.77437e-07
-1.64619e-07
-1.49995e-07
-1.34877e-07
-1.20284e-07
-1.0683e-07
-9.52586e-08
-8.55148e-08
-7.69652e-08
-6.95272e-08
-6.31314e-08
-5.77181e-08
-5.32139e-08
-4.95086e-08
-4.65468e-08
-4.4253e-08
-4.23345e-08
-4.05725e-08
-3.9006e-08
-3.7651e-08
-3.64707e-08
-3.54297e-08
-3.45022e-08
-3.36708e-08
-3.29214e-08
-3.22399e-08
-3.16172e-08
-3.10457e-08
-3.05176e-08
-3.00253e-08
-2.9562e-08
-2.91237e-08
-2.87083e-08
-2.83162e-08
-2.79478e-08
-2.76006e-08
-2.72723e-08
-2.69609e-08
-2.66643e-08
-2.63804e-08
-2.61067e-08
-2.58403e-08
-2.55787e-08
-2.53208e-08
-2.50677e-08
-2.482e-08
-2.45762e-08
-2.43361e-08
-2.41007e-08
-2.38707e-08
-2.36456e-08
-2.34244e-08
-2.32067e-08
-2.2992e-08
-2.278e-08
-2.25704e-08
-2.23629e-08
-2.21572e-08
-2.19526e-08
-2.17486e-08
-2.15455e-08
-2.13432e-08
-2.11412e-08
-2.0939e-08
-2.07371e-08
-2.05363e-08
-2.0338e-08
-2.01436e-08
-1.99525e-08
-1.97635e-08
-1.95766e-08
-1.93919e-08
-1.92095e-08
-1.90295e-08
-1.88516e-08
-1.86758e-08
-1.85015e-08
-1.83285e-08
-1.81558e-08
-1.79815e-08
-1.78055e-08
-1.76299e-08
-1.7456e-08
-1.72839e-08
-1.71136e-08
-1.6945e-08
-1.67786e-08
-1.66142e-08
-1.64491e-08
-1.62815e-08
-1.61109e-08
-1.59369e-08
-1.57595e-08
-1.55786e-08
-1.53944e-08
-1.52071e-08
-1.50168e-08
-1.48238e-08
-1.46285e-08
-1.44312e-08
-1.42319e-08
-1.40314e-08
-1.383e-08
-1.3626e-08
-1.34192e-08
-1.32118e-08
-1.30041e-08
-1.27955e-08
-1.25861e-08
-1.23759e-08
-1.21654e-08
-1.19547e-08
-1.17442e-08
-1.15342e-08
-1.13249e-08
-1.11167e-08
-1.09094e-08
-1.07033e-08
-1.04981e-08
-1.02938e-08
-1.00904e-08
-9.88794e-09
-9.68644e-09
-9.48602e-09
-9.28679e-09
-9.08886e-09
-8.89231e-09
-8.69719e-09
-8.50353e-09
-8.31137e-09
-8.12074e-09
-7.93169e-09
-7.74424e-09
-7.55846e-09
-7.37438e-09
-7.19207e-09
-7.01158e-09
-6.83299e-09
-6.65639e-09
-6.4819e-09
-6.30968e-09
-6.13991e-09
-5.97273e-09
-5.80823e-09
-5.64646e-09
-5.48739e-09
-5.33098e-09
-5.17722e-09
-5.02608e-09
-4.87762e-09
-4.73187e-09
-4.58891e-09
-4.4488e-09
-4.31158e-09
-4.17728e-09
-4.04592e-09
-3.9175e-09
-3.79204e-09
-3.66955e-09
-3.55001e-09
-3.43342e-09
-3.31971e-09
-3.20882e-09
-3.10065e-09
-2.99514e-09
-2.89224e-09
-2.79194e-09
-2.69421e-09
-2.59903e-09
-2.50638e-09
-2.41623e-09
-2.32853e-09
-2.24324e-09
-2.16033e-09
-2.0798e-09
-2.00167e-09
-1.92597e-09
-1.85272e-09
-1.78193e-09
-1.71361e-09
-1.64774e-09
-1.58432e-09
-1.52334e-09
-1.46481e-09
-1.40871e-09
-1.35506e-09
-1.30385e-09
-1.25505e-09
-1.20861e-09
-1.1645e-09
-1.12264e-09
-1.08293e-09
-1.04525e-09
-1.00942e-09
-9.75283e-10
-9.42663e-10
-9.11398e-10
-8.81333e-10
-8.52331e-10
-8.24268e-10
-7.97029e-10
-7.70502e-10
-7.44563e-10
-7.1908e-10
-6.93925e-10
-6.68979e-10
-6.44139e-10
-6.19319e-10
-5.94447e-10
-5.69469e-10
-5.44343e-10
-5.19018e-10
-4.93463e-10
-4.65921e-10
-4.35001e-10
-4.0175e-10
-3.66865e-10
-3.30943e-10
-2.94448e-10
-2.57686e-10
-2.20829e-10
-1.83931e-10
-1.37018e-10
-8.47259e-11
-7.00782e-11
-4.9928e-11
9.37925e-12
4.601e-11
8.10704e-11
1.14881e-10
1.4746e-10
1.77531e-10
2.06604e-10
2.39784e-10
2.74629e-10
3.08144e-10
3.41777e-10
3.7612e-10
4.11193e-10
4.46982e-10
4.83511e-10
5.20951e-10
5.59364e-10
5.9871e-10
6.38859e-10
6.79646e-10
7.20929e-10
7.6263e-10
8.04737e-10
8.47269e-10
8.90229e-10
9.33569e-10
9.77188e-10
1.02097e-09
1.06481e-09
1.10865e-09
1.15247e-09
1.19622e-09
1.23984e-09
1.28322e-09
1.32624e-09
1.36879e-09
1.41085e-09
1.45245e-09
1.49368e-09
1.53461e-09
1.57524e-09
1.6155e-09
1.65524e-09
1.69431e-09
1.73251e-09
1.76973e-09
1.80587e-09
1.84089e-09
1.87478e-09
1.90756e-09
1.93924e-09
1.96985e-09
1.99938e-09
2.0278e-09
2.05508e-09
2.08116e-09
2.10603e-09
2.12972e-09
2.15229e-09
2.17384e-09
2.19451e-09
2.21445e-09
2.23382e-09
2.25277e-09
2.2714e-09
2.28977e-09
2.30791e-09
2.32577e-09
2.34327e-09
2.3603e-09
2.37675e-09
2.39253e-09
2.40759e-09
2.42193e-09
2.43559e-09
2.44866e-09
2.46118e-09
2.47323e-09
2.48481e-09
2.49593e-09
2.50658e-09
2.5167e-09
2.52626e-09
2.53521e-09
2.54355e-09
2.55129e-09
2.55848e-09
2.5652e-09
2.57155e-09
2.57762e-09
2.58343e-09
2.58902e-09
2.59437e-09
2.59946e-09
2.6043e-09
2.60892e-09
2.61338e-09
2.61779e-09
2.62224e-09
2.62681e-09
2.63156e-09
2.63657e-09
2.64191e-09
2.64772e-09
2.65415e-09
2.66138e-09
2.66956e-09
2.67883e-09
2.68931e-09
2.70107e-09
2.7142e-09
2.72875e-09
2.74476e-09
2.76225e-09
2.78117e-09
2.80143e-09
2.82289e-09
2.8454e-09
2.86881e-09
2.89304e-09
2.91805e-09
2.94382e-09
2.97042e-09
2.99791e-09
3.02633e-09
3.05574e-09
3.08611e-09
3.11741e-09
3.14958e-09
3.1826e-09
3.21644e-09
3.25114e-09
3.28673e-09
3.3233e-09
3.36097e-09
3.39983e-09
3.43998e-09
3.48143e-09
3.52411e-09
3.56794e-09
3.61279e-09
3.65857e-09
3.70523e-09
3.75271e-09
3.80095e-09
3.84989e-09
3.89946e-09
3.9496e-09
4.00026e-09
4.05144e-09
4.10309e-09
4.15514e-09
4.20745e-09
4.25992e-09
4.31243e-09
4.36496e-09
4.41752e-09
4.47014e-09
4.52287e-09
4.57574e-09
4.62877e-09
4.68194e-09
4.73518e-09
4.7884e-09
4.8415e-09
4.89439e-09
4.94706e-09
4.99949e-09
5.05173e-09
5.10383e-09
5.15583e-09
5.20779e-09
5.25975e-09
5.31176e-09
5.36388e-09
5.41617e-09
5.46865e-09
5.52134e-09
5.57423e-09
5.62728e-09
5.68049e-09
5.73381e-09
5.78718e-09
5.84051e-09
5.89374e-09
5.94682e-09
5.9997e-09
6.05233e-09
6.10464e-09
6.15651e-09
6.20783e-09
6.25845e-09
6.30827e-09
6.35719e-09
6.40513e-09
6.45203e-09
6.4979e-09
6.54273e-09
6.58653e-09
6.62931e-09
6.67101e-09
6.71155e-09
6.75085e-09
6.78886e-09
6.82554e-09
6.86092e-09
6.89506e-09
6.92805e-09
6.96003e-09
6.99116e-09
7.02158e-09
7.05141e-09
7.08073e-09
7.10955e-09
7.13783e-09
7.1655e-09
7.19246e-09
7.21863e-09
7.24404e-09
7.26877e-09
7.29297e-09
7.31684e-09
7.34057e-09
7.36431e-09
7.38816e-09
7.41212e-09
7.43616e-09
7.46017e-09
7.48397e-09
7.50743e-09
7.53047e-09
7.55311e-09
7.57544e-09
7.59755e-09
7.61948e-09
7.64118e-09
7.66249e-09
7.6833e-09
7.70351e-09
7.72311e-09
7.74217e-09
7.76079e-09
7.77908e-09
7.7971e-09
7.81491e-09
7.83257e-09
7.85022e-09
7.86798e-09
7.88606e-09
7.90457e-09
7.92361e-09
7.9432e-09
7.96339e-09
7.98415e-09
8.00549e-09
8.02729e-09
8.04946e-09
8.07182e-09
8.09423e-09
8.11653e-09
8.13877e-09
8.16097e-09
8.18341e-09
8.2063e-09
8.23005e-09
8.25485e-09
8.28106e-09
8.30865e-09
8.33771e-09
8.36793e-09
8.39925e-09
8.4313e-09
8.46415e-09
8.49756e-09
8.5318e-09
8.5666e-09
8.60221e-09
8.63811e-09
8.67448e-09
8.71077e-09
8.74761e-09
8.78481e-09
8.82363e-09
8.86412e-09
8.90779e-09
8.95479e-09
9.00631e-09
9.0646e-09
9.12964e-09
9.20851e-09
9.30175e-09
9.42362e-09
9.57729e-09
9.78747e-09
1.00619e-08
1.04479e-08
1.09549e-08
1.16625e-08
1.26571e-08
1.30176e-08
1.62308e-08
2.2773e-08
2.68898e-08
3.11942e-08
3.78952e-08
4.37304e-08
3.98669e-08
3.61294e-08
4.34205e-08
4.80713e-08
4.72113e-08
4.31005e-08
)
;

boundaryField
{
    inlet
    {
        type            calculated;
        value           uniform 0;
    }
    endWall
    {
        type            calculated;
        value           uniform 0;
    }
    sideWall
    {
        type            empty;
    }
}


// ************************************************************************* //
