/*--------------------------------*- C++ -*----------------------------------*\
| =========                 |                                                 |
| \\      /  F ield         | foam-extend: Open Source CFD                    |
|  \\    /   O peration     | Version:     3.2                                |
|   \\  /    A nd           | Web:         http://www.foam-extend.org         |
|    \\/     M anipulation  | For copyright notice see file Copyright         |
\*---------------------------------------------------------------------------*/
FoamFile
{
    version     2.0;
    format      ascii;
    class       areaScalarField;
    location    "120";
    object      Pef;
}
// * * * * * * * * * * * * * * * * * * * * * * * * * * * * * * * * * * * * * //

dimensions      [0 0 0 0 0 0 0];

internalField   nonuniform List<scalar> 
550
(
0
0
0
0.0205086
0.0630702
0.108624
0.155422
0.201504
0.245151
0.284789
0.319425
0.348421
0.371684
0.389362
0.401899
0.409819
0.413773
0.41439
0.412309
0.408261
0.402666
0.395876
0.388199
0.379903
0.371232
0.362388
0.353542
0.344858
0.336453
0.328337
0.320525
0.313045
0.305917
0.299152
0.292751
0.286709
0.281021
0.275676
0.270661
0.265963
0.261567
0.257459
0.25362
0.250033
0.246683
0.243554
0.240632
0.237903
0.235356
0.232978
0.230757
0.228681
0.22674
0.224922
0.223217
0.221615
0.220105
0.218681
0.217335
0.216059
0.214847
0.213695
0.212597
0.211549
0.210547
0.209588
0.208666
0.207779
0.206924
0.206098
0.205298
0.204521
0.203766
0.20303
0.202311
0.201607
0.200916
0.200238
0.199571
0.198914
0.198269
0.197635
0.19701
0.196395
0.195789
0.195193
0.194604
0.194024
0.193452
0.192887
0.192329
0.191777
0.191229
0.190685
0.190144
0.189607
0.189074
0.188544
0.188019
0.187498
0.186981
0.186467
0.185954
0.185441
0.184927
0.184411
0.183892
0.183368
0.182839
0.182305
0.181766
0.18122
0.180669
0.180111
0.179547
0.178978
0.178402
0.177819
0.177231
0.176637
0.176038
0.175433
0.174824
0.174209
0.173591
0.172968
0.172342
0.171714
0.171083
0.17045
0.169816
0.16918
0.168544
0.167908
0.167271
0.166634
0.165997
0.165361
0.164726
0.164091
0.163458
0.162827
0.162197
0.161569
0.160944
0.16032
0.1597
0.159082
0.158467
0.157856
0.157248
0.156644
0.156043
0.155447
0.154855
0.154269
0.153687
0.153111
0.152541
0.151977
0.151419
0.150868
0.150323
0.149784
0.149253
0.148729
0.148212
0.147702
0.147201
0.146706
0.14622
0.145742
0.145272
0.14481
0.144357
0.143912
0.143475
0.143046
0.142626
0.142214
0.14181
0.141414
0.141027
0.140647
0.140275
0.139912
0.139556
0.139208
0.138867
0.138535
0.13821
0.137893
0.137584
0.137282
0.136988
0.136702
0.136424
0.136153
0.135891
0.135636
0.135388
0.135149
0.134917
0.134693
0.134476
0.134266
0.134064
0.133869
0.13368
0.133497
0.133321
0.13315
0.132984
0.132823
0.132667
0.132515
0.132367
0.132222
0.132081
0.131942
0.131805
0.131671
0.131538
0.131407
0.131277
0.131148
0.131019
0.130887
0.130753
0.130617
0.130478
0.130337
0.130194
0.130049
0.129902
0.129754
0.129605
0.129385
0.129197
0.129148
0.128995
0.128843
0.128692
0.128542
0.128394
0.128249
0.128102
0.127956
0.12781
0.127663
0.127516
0.127369
0.12722
0.12707
0.126919
0.126766
0.12661
0.126453
0.126294
0.126132
0.125969
0.125804
0.125637
0.125468
0.125297
0.125124
0.12495
0.124774
0.124597
0.124418
0.124239
0.124058
0.123877
0.123695
0.123512
0.12333
0.123147
0.122964
0.122782
0.122599
0.122417
0.122235
0.122053
0.121873
0.121693
0.121515
0.121338
0.121163
0.120991
0.12082
0.120651
0.120485
0.120322
0.120161
0.120003
0.119848
0.119695
0.119546
0.1194
0.119257
0.119117
0.118979
0.118844
0.118711
0.11858
0.118451
0.118323
0.118197
0.118073
0.117951
0.11783
0.117711
0.117594
0.117479
0.117365
0.117254
0.117145
0.117037
0.116931
0.116827
0.116724
0.116624
0.116525
0.116428
0.116333
0.11624
0.116148
0.116059
0.115971
0.115885
0.1158
0.115716
0.115634
0.115554
0.115474
0.115396
0.115318
0.115242
0.115166
0.115091
0.115016
0.114942
0.114867
0.114792
0.114717
0.11464
0.114562
0.114483
0.114402
0.114318
0.114231
0.114142
0.11405
0.113954
0.113855
0.113752
0.113646
0.113537
0.113424
0.113309
0.11319
0.113068
0.112944
0.112816
0.112685
0.112552
0.112415
0.112275
0.112132
0.111987
0.111838
0.111686
0.111532
0.111374
0.111213
0.111048
0.11088
0.110709
0.110533
0.110354
0.110172
0.109986
0.109797
0.109604
0.109408
0.109209
0.109008
0.108803
0.108596
0.108387
0.108175
0.107961
0.107745
0.107527
0.107308
0.107088
0.106866
0.106643
0.106419
0.106194
0.105968
0.105741
0.105514
0.105286
0.105057
0.104828
0.104599
0.10437
0.10414
0.103911
0.103681
0.103452
0.103222
0.102991
0.102761
0.10253
0.102298
0.102066
0.101833
0.101599
0.101364
0.101129
0.100893
0.100657
0.10042
0.100183
0.0999451
0.0997074
0.0994699
0.0992327
0.0989961
0.0987603
0.0985256
0.0982923
0.0980606
0.0978309
0.0976032
0.0973777
0.0971545
0.096934
0.0967161
0.0965011
0.0962892
0.0960806
0.0958754
0.0956736
0.0954754
0.0952806
0.0950891
0.0949008
0.0947154
0.0945328
0.0943528
0.0941752
0.0940002
0.0938276
0.0936576
0.0934901
0.0933251
0.0931625
0.093002
0.0928434
0.0926863
0.0925306
0.0923759
0.0922221
0.0920691
0.091917
0.0917658
0.0916156
0.0914664
0.0913183
0.0911712
0.0910251
0.0908798
0.0907357
0.0905926
0.090451
0.0903108
0.0901721
0.0900349
0.0898991
0.0897647
0.0896317
0.0894997
0.0893689
0.0892388
0.0891093
0.0889799
0.0888506
0.0887209
0.0885907
0.0884597
0.0883279
0.088195
0.0880614
0.0879267
0.0877915
0.0876556
0.0875195
0.0873828
0.087246
0.0871081
0.0869695
0.0868289
0.0866868
0.0865416
0.0863942
0.0862432
0.0860898
0.0859327
0.0857735
0.0856106
0.0854459
0.0852773
0.0851072
0.0849334
0.0847586
0.0845805
0.0844018
0.0842194
0.0840358
0.0838469
0.0836549
0.0834546
0.0832483
0.0830278
0.0827977
0.0825399
0.0822639
0.081932
0.0815611
0.0810791
0.080515
0.0797304
0.0787832
0.0774171
0.0756786
0.0743771
0.0699052
0.0618845
0.0534676
0.0410459
0.0242835
0.00143587
0
0
0
0
0
)
;

boundaryField
{
    inlet
    {
        type            calculated;
        value           uniform 0;
    }
    endWall
    {
        type            calculated;
        value           uniform 0;
    }
    sideWall
    {
        type            empty;
    }
}


// ************************************************************************* //
