/*--------------------------------*- C++ -*----------------------------------*\
| =========                 |                                                 |
| \\      /  F ield         | foam-extend: Open Source CFD                    |
|  \\    /   O peration     | Version:     3.2                                |
|   \\  /    A nd           | Web:         http://www.foam-extend.org         |
|    \\/     M anipulation  | For copyright notice see file Copyright         |
\*---------------------------------------------------------------------------*/
FoamFile
{
    version     2.0;
    format      ascii;
    class       areaScalarField;
    location    "120";
    object      tau;
}
// * * * * * * * * * * * * * * * * * * * * * * * * * * * * * * * * * * * * * //

dimensions      [1 1 2 0 0 0 0];

internalField   nonuniform List<scalar> 
550
(
0.0488587
0.0674194
0.0899429
0.116204
0.14555
0.176961
0.209241
0.241055
0.271244
0.298745
0.322879
0.343188
0.359571
0.372087
0.381004
0.386656
0.389483
0.389925
0.388435
0.385543
0.38155
0.376716
0.371262
0.365383
0.359252
0.353013
0.346787
0.340686
0.334792
0.32911
0.323647
0.318424
0.313453
0.308739
0.304283
0.30008
0.296126
0.292413
0.288931
0.285671
0.282622
0.279773
0.277112
0.274626
0.272305
0.270138
0.268115
0.266226
0.264463
0.262817
0.26128
0.259843
0.2585
0.257243
0.256064
0.254956
0.253912
0.252927
0.251996
0.251114
0.250276
0.24948
0.248721
0.247997
0.247304
0.246641
0.246004
0.245391
0.2448
0.244229
0.243676
0.24314
0.242618
0.242109
0.241612
0.241126
0.240649
0.24018
0.239719
0.239266
0.23882
0.238382
0.23795
0.237525
0.237107
0.236695
0.236288
0.235887
0.235492
0.235102
0.234717
0.234336
0.233957
0.233581
0.233208
0.232837
0.232469
0.232103
0.23174
0.23138
0.231023
0.230668
0.230314
0.22996
0.229605
0.229249
0.22889
0.228529
0.228164
0.227795
0.227423
0.227046
0.226665
0.22628
0.225891
0.225498
0.2251
0.224698
0.224292
0.223882
0.223468
0.223051
0.22263
0.222206
0.221779
0.221349
0.220917
0.220483
0.220048
0.219611
0.219173
0.218735
0.218296
0.217856
0.217417
0.216977
0.216538
0.216099
0.21566
0.215222
0.214786
0.21435
0.213915
0.213482
0.21305
0.21262
0.212192
0.211766
0.211342
0.21092
0.2105
0.210083
0.209669
0.209257
0.208849
0.208444
0.208043
0.207646
0.207253
0.206863
0.206478
0.206098
0.205722
0.205351
0.204984
0.204622
0.204266
0.203914
0.203568
0.203227
0.202892
0.202562
0.202238
0.201919
0.201606
0.201299
0.200998
0.200702
0.200412
0.200128
0.199849
0.199576
0.199309
0.199047
0.198791
0.19854
0.198294
0.198054
0.197819
0.19759
0.197366
0.197147
0.196934
0.196726
0.196523
0.196326
0.196134
0.195947
0.195766
0.19559
0.19542
0.195254
0.195094
0.19494
0.19479
0.194646
0.194506
0.194371
0.194241
0.194115
0.193993
0.193875
0.193761
0.19365
0.193542
0.193438
0.193335
0.193236
0.193138
0.193042
0.192948
0.192855
0.192764
0.192674
0.192584
0.192495
0.192406
0.192315
0.192223
0.192129
0.192033
0.191935
0.191837
0.191737
0.191635
0.191533
0.19143
0.191326
0.191222
0.191117
0.191013
0.190909
0.190806
0.190704
0.190603
0.190502
0.190401
0.1903
0.190199
0.190098
0.189997
0.189895
0.189793
0.189689
0.189585
0.189479
0.189372
0.189264
0.189154
0.189043
0.18893
0.188816
0.188701
0.188584
0.188466
0.188347
0.188227
0.188106
0.187984
0.18786
0.187737
0.187612
0.187487
0.187361
0.187235
0.187109
0.186983
0.186857
0.186731
0.186605
0.18648
0.186354
0.186229
0.186104
0.18598
0.185857
0.185735
0.185614
0.185495
0.185377
0.185261
0.185146
0.185033
0.184922
0.184813
0.184706
0.184601
0.184498
0.184397
0.184298
0.184201
0.184106
0.184012
0.183921
0.18383
0.183741
0.183653
0.183566
0.18348
0.183395
0.183312
0.18323
0.183149
0.183069
0.182991
0.182914
0.182838
0.182764
0.182691
0.182619
0.182548
0.182479
0.18241
0.182343
0.182278
0.182213
0.18215
0.182089
0.182028
0.181968
0.18191
0.181852
0.181796
0.18174
0.181685
0.181631
0.181578
0.181525
0.181473
0.181421
0.18137
0.181318
0.181267
0.181216
0.181164
0.181111
0.181057
0.181003
0.180947
0.180889
0.18083
0.180768
0.180705
0.180639
0.180571
0.1805
0.180427
0.180352
0.180274
0.180195
0.180113
0.180029
0.179944
0.179856
0.179766
0.179674
0.17958
0.179483
0.179385
0.179285
0.179182
0.179078
0.178971
0.178863
0.178752
0.178638
0.178523
0.178404
0.178283
0.17816
0.178034
0.177906
0.177776
0.177643
0.177508
0.177371
0.177232
0.177091
0.176948
0.176804
0.176658
0.17651
0.176361
0.176211
0.17606
0.175908
0.175755
0.175602
0.175447
0.175292
0.175136
0.17498
0.174823
0.174666
0.174508
0.17435
0.174192
0.174034
0.173876
0.173717
0.173559
0.173401
0.173242
0.173083
0.172924
0.172765
0.172605
0.172445
0.172284
0.172123
0.171961
0.171799
0.171636
0.171473
0.171309
0.171146
0.170982
0.170818
0.170654
0.17049
0.170327
0.170164
0.170002
0.169841
0.169682
0.169523
0.169366
0.16921
0.169056
0.168904
0.168754
0.168605
0.168459
0.168315
0.168173
0.168034
0.167897
0.167763
0.167631
0.167501
0.167373
0.167247
0.167123
0.167
0.166879
0.16676
0.166643
0.166527
0.166413
0.166301
0.16619
0.166081
0.165972
0.165865
0.165758
0.165652
0.165547
0.165442
0.165337
0.165234
0.165131
0.165029
0.164927
0.164826
0.164726
0.164627
0.164528
0.16443
0.164334
0.164238
0.164143
0.16405
0.163957
0.163865
0.163774
0.163684
0.163595
0.163505
0.163416
0.163327
0.163238
0.163148
0.163058
0.162967
0.162875
0.162783
0.16269
0.162597
0.162504
0.16241
0.162316
0.162221
0.162126
0.162031
0.161934
0.161836
0.161736
0.161634
0.16153
0.161425
0.161316
0.161207
0.161094
0.160981
0.160865
0.160748
0.160628
0.160507
0.160385
0.160262
0.160136
0.16001
0.15988
0.159748
0.15961
0.159469
0.159318
0.159162
0.158987
0.1588
0.158578
0.15833
0.15801
0.157638
0.157121
0.156503
0.155576
0.154492
0.152455
0.149188
0.144732
0.138929
0.130364
0.118807
0.103054
0.0823599
0.0510945
0.0244235
0.0319322
0.0542104
)
;

boundaryField
{
    inlet
    {
        type            calculated;
        value           uniform 0;
    }
    endWall
    {
        type            calculated;
        value           uniform 0;
    }
    sideWall
    {
        type            empty;
    }
}


// ************************************************************************* //
