/*--------------------------------*- C++ -*----------------------------------*\
| =========                 |                                                 |
| \\      /  F ield         | foam-extend: Open Source CFD                    |
|  \\    /   O peration     | Version:     3.2                                |
|   \\  /    A nd           | Web:         http://www.foam-extend.org         |
|    \\/     M anipulation  | For copyright notice see file Copyright         |
\*---------------------------------------------------------------------------*/
FoamFile
{
    version     2.0;
    format      ascii;
    class       areaScalarField;
    location    "120";
    object      zCo;
}
// * * * * * * * * * * * * * * * * * * * * * * * * * * * * * * * * * * * * * //

dimensions      [0 1 0 0 0 0 0];

internalField   nonuniform List<scalar> 
550
(
-1.81818e-05
-5.45455e-05
-9.09091e-05
-0.000127273
-0.000163636
-0.0002
-0.000236364
-0.000272727
-0.000309091
-0.000345455
-0.000381818
-0.000418182
-0.000454545
-0.000490909
-0.000527273
-0.000563636
-0.0006
-0.000636364
-0.000672727
-0.000709091
-0.000745455
-0.000781818
-0.000818182
-0.000854545
-0.000890909
-0.000927273
-0.000963636
-0.001
-0.00103636
-0.00107273
-0.00110909
-0.00114545
-0.00118182
-0.00121818
-0.00125455
-0.00129091
-0.00132727
-0.00136364
-0.0014
-0.00143636
-0.00147273
-0.00150909
-0.00154545
-0.00158182
-0.00161818
-0.00165455
-0.00169091
-0.00172727
-0.00176364
-0.0018
-0.00183636
-0.00187273
-0.00190909
-0.00194545
-0.00198182
-0.00201818
-0.00205455
-0.00209091
-0.00212727
-0.00216364
-0.0022
-0.00223636
-0.00227273
-0.00230909
-0.00234545
-0.00238182
-0.00241818
-0.00245455
-0.00249091
-0.00252727
-0.00256364
-0.0026
-0.00263636
-0.00267273
-0.00270909
-0.00274545
-0.00278182
-0.00281818
-0.00285455
-0.00289091
-0.00292727
-0.00296364
-0.003
-0.00303636
-0.00307273
-0.00310909
-0.00314545
-0.00318182
-0.00321818
-0.00325455
-0.00329091
-0.00332727
-0.00336364
-0.0034
-0.00343636
-0.00347273
-0.00350909
-0.00354545
-0.00358182
-0.00361818
-0.00365455
-0.00369091
-0.00372727
-0.00376364
-0.0038
-0.00383636
-0.00387273
-0.00390909
-0.00394545
-0.00398182
-0.00401818
-0.00405455
-0.00409091
-0.00412727
-0.00416364
-0.0042
-0.00423636
-0.00427273
-0.00430909
-0.00434545
-0.00438182
-0.00441818
-0.00445455
-0.00449091
-0.00452727
-0.00456364
-0.0046
-0.00463636
-0.00467273
-0.00470909
-0.00474545
-0.00478182
-0.00481818
-0.00485455
-0.00489091
-0.00492727
-0.00496364
-0.005
-0.00503636
-0.00507273
-0.00510909
-0.00514545
-0.00518182
-0.00521818
-0.00525455
-0.00529091
-0.00532727
-0.00536364
-0.0054
-0.00543636
-0.00547273
-0.00550909
-0.00554545
-0.00558182
-0.00561818
-0.00565455
-0.00569091
-0.00572727
-0.00576364
-0.0058
-0.00583636
-0.00587273
-0.00590909
-0.00594545
-0.00598182
-0.00601818
-0.00605455
-0.00609091
-0.00612727
-0.00616364
-0.0062
-0.00623636
-0.00627273
-0.00630909
-0.00634545
-0.00638182
-0.00641818
-0.00645455
-0.00649091
-0.00652727
-0.00656364
-0.0066
-0.00663636
-0.00667273
-0.00670909
-0.00674545
-0.00678182
-0.00681818
-0.00685455
-0.00689091
-0.00692727
-0.00696364
-0.007
-0.00703636
-0.00707273
-0.00710909
-0.00714545
-0.00718182
-0.00721818
-0.00725455
-0.00729091
-0.00732727
-0.00736364
-0.0074
-0.00743636
-0.00747273
-0.00750909
-0.00754545
-0.00758182
-0.00761818
-0.00765455
-0.00769091
-0.00772727
-0.00776364
-0.0078
-0.00783636
-0.00787273
-0.00790909
-0.00794545
-0.00798182
-0.00801818
-0.00805455
-0.00809091
-0.00812727
-0.00816364
-0.0082
-0.00823636
-0.00827273
-0.00830909
-0.00834545
-0.00838182
-0.00841818
-0.00845455
-0.00849091
-0.00852727
-0.00856364
-0.0086
-0.00863635
-0.00867266
-0.00870886
-0.00874492
-0.00878086
-0.00881665
-0.0088523
-0.00888785
-0.0089234
-0.00895899
-0.00899456
-0.00903011
-0.00906566
-0.00910121
-0.00913675
-0.0091723
-0.00920784
-0.00924338
-0.00927891
-0.00931444
-0.00934996
-0.00938549
-0.00942101
-0.00945652
-0.00949204
-0.00952756
-0.00956307
-0.00959859
-0.0096341
-0.00966962
-0.00970514
-0.00974066
-0.00977618
-0.00981171
-0.00984724
-0.00988278
-0.00991832
-0.00995387
-0.00998942
-0.010025
-0.0100605
-0.0100961
-0.0101317
-0.0101673
-0.0102029
-0.0102385
-0.0102741
-0.0103097
-0.0103454
-0.010381
-0.0104167
-0.0104524
-0.0104881
-0.0105238
-0.0105595
-0.0105952
-0.0106309
-0.0106667
-0.0107025
-0.0107383
-0.0107741
-0.0108099
-0.0108458
-0.0108817
-0.0109176
-0.0109535
-0.0109894
-0.0110254
-0.0110613
-0.0110973
-0.0111334
-0.0111694
-0.0112054
-0.0112415
-0.0112776
-0.0113137
-0.0113498
-0.0113859
-0.0114221
-0.0114583
-0.0114944
-0.0115306
-0.0115669
-0.0116031
-0.0116393
-0.0116756
-0.0117118
-0.0117481
-0.0117844
-0.0118206
-0.0118569
-0.0118932
-0.0119295
-0.0119658
-0.0120022
-0.0120385
-0.0120748
-0.0121111
-0.0121474
-0.0121837
-0.01222
-0.0122563
-0.0122926
-0.0123289
-0.0123651
-0.0124014
-0.0124377
-0.0124739
-0.0125101
-0.0125463
-0.0125825
-0.0126187
-0.0126549
-0.012691
-0.0127271
-0.0127633
-0.0127994
-0.0128354
-0.0128715
-0.0129075
-0.0129435
-0.0129795
-0.0130155
-0.0130515
-0.0130874
-0.0131234
-0.0131593
-0.0131952
-0.013231
-0.0132669
-0.0133027
-0.0133386
-0.0133744
-0.0134102
-0.0134459
-0.0134817
-0.0135174
-0.0135532
-0.0135889
-0.0136246
-0.0136603
-0.0136959
-0.0137316
-0.0137673
-0.0138029
-0.0138386
-0.0138742
-0.0139098
-0.0139454
-0.013981
-0.0140167
-0.0140522
-0.0140878
-0.0141234
-0.014159
-0.0141946
-0.0142302
-0.0142657
-0.0143013
-0.0143369
-0.0143724
-0.014408
-0.0144436
-0.0144791
-0.0145147
-0.0145503
-0.0145858
-0.0146214
-0.014657
-0.0146925
-0.0147281
-0.0147637
-0.0147993
-0.0148348
-0.0148704
-0.014906
-0.0149416
-0.0149772
-0.0150128
-0.0150484
-0.0150841
-0.0151197
-0.0151553
-0.015191
-0.0152266
-0.0152623
-0.0152979
-0.0153336
-0.0153693
-0.0154049
-0.0154406
-0.0154763
-0.0155121
-0.0155478
-0.0155835
-0.0156193
-0.015655
-0.0156908
-0.0157266
-0.0157624
-0.0157982
-0.015834
-0.0158698
-0.0159057
-0.0159415
-0.0159774
-0.0160133
-0.0160492
-0.0160852
-0.0161211
-0.0161571
-0.0161931
-0.0162291
-0.0162651
-0.0163011
-0.0163371
-0.0163731
-0.0164092
-0.0164453
-0.0164813
-0.0165174
-0.0165535
-0.0165897
-0.0166258
-0.0166619
-0.0166981
-0.0167342
-0.0167704
-0.0168066
-0.0168427
-0.0168789
-0.0169151
-0.0169513
-0.0169876
-0.0170238
-0.01706
-0.0170962
-0.0171325
-0.0171687
-0.0172049
-0.0172412
-0.0172774
-0.0173137
-0.0173499
-0.0173862
-0.0174224
-0.0174587
-0.0174949
-0.0175312
-0.0175674
-0.0176036
-0.0176398
-0.0176761
-0.0177123
-0.0177485
-0.0177847
-0.0178209
-0.0178571
-0.0178933
-0.0179294
-0.0179656
-0.0180017
-0.0180379
-0.018074
-0.0181102
-0.0181463
-0.0181824
-0.0182185
-0.0182546
-0.0182907
-0.0183268
-0.0183628
-0.0183989
-0.018435
-0.018471
-0.018507
-0.0185431
-0.0185791
-0.0186151
-0.0186511
-0.0186871
-0.0187231
-0.018759
-0.018795
-0.0188309
-0.0188668
-0.0189026
-0.0189384
-0.0189741
-0.0190097
-0.0190451
-0.0190802
-0.0191149
-0.019149
-0.0191823
-0.0192144
-0.0192448
-0.0192729
-0.0192976
-0.0193194
-0.0193337
-0.0194069
-0.0195564
-0.0196545
-0.0196909
-0.0197273
-0.0197636
-0.0198
-0.0198364
-0.0198727
-0.0199091
-0.0199455
-0.0199818
)
;

boundaryField
{
    inlet
    {
        type            calculated;
        value           uniform 0;
    }
    endWall
    {
        type            calculated;
        value           uniform 0;
    }
    sideWall
    {
        type            empty;
    }
}


// ************************************************************************* //
