/*--------------------------------*- C++ -*----------------------------------*\
| =========                 |                                                 |
| \\      /  F ield         | foam-extend: Open Source CFD                    |
|  \\    /   O peration     | Version:     3.2                                |
|   \\  /    A nd           | Web:         http://www.foam-extend.org         |
|    \\/     M anipulation  | For copyright notice see file Copyright         |
\*---------------------------------------------------------------------------*/
FoamFile
{
    version     2.0;
    format      ascii;
    class       volScalarField;
    location    "20";
    object      k;
}
// * * * * * * * * * * * * * * * * * * * * * * * * * * * * * * * * * * * * * //

dimensions      [0 2 -2 0 0 0 0];

internalField   nonuniform List<scalar> 
33000
(
0.00016353
0.000225604
0.000300957
0.000388811
0.000487014
0.000592211
0.000700369
0.00080715
0.000908537
0.00100108
0.00108238
0.00115095
0.00120634
0.00124881
0.00127914
0.0012985
0.0013083
0.00131005
0.00130526
0.00129571
0.0012824
0.00126624
0.00124795
0.00122821
0.00120759
0.00118659
0.00116562
0.00114505
0.00112517
0.001106
0.00108757
0.00106994
0.00105315
0.00103722
0.00102216
0.00100795
0.000994578
0.000982021
0.000970247
0.000959224
0.000948914
0.000939279
0.000930279
0.000921875
0.000914027
0.000906698
0.000899856
0.00089347
0.000887509
0.000881944
0.000876746
0.000871887
0.000867342
0.000863084
0.000859089
0.000855332
0.000851792
0.00084845
0.000845289
0.000842293
0.000839449
0.000836744
0.00083417
0.000831714
0.000829368
0.000827123
0.000824969
0.000822898
0.000820902
0.000818974
0.000817108
0.000815297
0.000813536
0.000811818
0.000810138
0.000808494
0.000806882
0.000805299
0.000803745
0.000802219
0.00080072
0.000799247
0.000797797
0.000796367
0.000794956
0.000793562
0.000792185
0.000790825
0.000789482
0.000788154
0.000786843
0.000785548
0.000784264
0.000782991
0.000781727
0.000780471
0.000779225
0.000777988
0.000776758
0.000775538
0.000774327
0.000773122
0.000771921
0.000770721
0.000769518
0.00076831
0.000767096
0.000765874
0.000764642
0.000763401
0.000762149
0.000760885
0.000759611
0.000758325
0.000757027
0.000755717
0.000754396
0.000753061
0.000751712
0.00075035
0.000748975
0.000747587
0.000746186
0.000744774
0.000743349
0.000741914
0.000740469
0.000739014
0.000737551
0.000736081
0.000734603
0.000733121
0.000731633
0.000730142
0.000728649
0.000727154
0.000725659
0.000724165
0.000722673
0.000721182
0.000719696
0.000718213
0.000716735
0.000715264
0.000713799
0.000712341
0.000710891
0.00070945
0.000708018
0.000706596
0.000705185
0.000703785
0.000702397
0.000701023
0.000699661
0.000698314
0.000696982
0.000695663
0.00069436
0.000693072
0.0006918
0.000690542
0.000689301
0.000688074
0.000686864
0.00068567
0.000684492
0.000683329
0.000682183
0.000681052
0.000679937
0.000678838
0.000677755
0.000676688
0.000675638
0.000674605
0.000673588
0.000672589
0.000671608
0.000670646
0.000669702
0.000668777
0.00066787
0.000666983
0.000666115
0.000665267
0.000664437
0.000663627
0.000662836
0.000662063
0.000661308
0.000660571
0.000659851
0.000659148
0.000658461
0.00065779
0.000657134
0.000656493
0.000655866
0.000655253
0.000654653
0.000654067
0.000653494
0.000652932
0.000652383
0.000651845
0.000651319
0.000650803
0.000650297
0.000649801
0.000649313
0.000648834
0.000648362
0.000647897
0.000647438
0.000646985
0.000646537
0.000646094
0.000645656
0.000645222
0.000644791
0.000644365
0.000643942
0.000643521
0.000643102
0.000642681
0.000642257
0.000641829
0.000641397
0.00064096
0.00064052
0.000640077
0.00063963
0.000639181
0.000638729
0.000638276
0.000637821
0.000637365
0.000636908
0.000636451
0.000635993
0.000635536
0.00063508
0.000634625
0.000634171
0.000633718
0.000633266
0.000632816
0.000632367
0.000631919
0.000631474
0.00063103
0.000630589
0.00063015
0.000629713
0.000629279
0.000628848
0.00062842
0.000627994
0.000627571
0.00062715
0.000626733
0.000626318
0.000625907
0.000625498
0.000625092
0.000624689
0.000624288
0.00062389
0.000623496
0.000623105
0.000622718
0.000622335
0.000621956
0.000621582
0.000621214
0.000620852
0.000620494
0.000620143
0.000619798
0.000619458
0.000619124
0.000618796
0.000618474
0.000618157
0.000617847
0.000617542
0.000617244
0.000616953
0.000616668
0.00061639
0.000616118
0.000615853
0.000615595
0.000615342
0.000615095
0.000614853
0.000614617
0.000614387
0.000614162
0.000613943
0.00061373
0.000613522
0.000613319
0.00061312
0.000612924
0.000612732
0.00061254
0.00061235
0.00061216
0.00061197
0.00061178
0.000611589
0.000611396
0.000611202
0.000611006
0.000610808
0.000610607
0.000610403
0.000610195
0.000609984
0.00060977
0.000609553
0.000609334
0.000609113
0.000608889
0.000608664
0.000608437
0.000608209
0.000607979
0.000607746
0.000607511
0.000607273
0.000607031
0.000606786
0.000606535
0.000606279
0.000606018
0.00060575
0.000605476
0.000605194
0.000604906
0.000604609
0.000604305
0.000603994
0.000603675
0.000603348
0.000603014
0.000602673
0.000602324
0.000601968
0.000601605
0.000601236
0.000600859
0.000600475
0.000600086
0.00059969
0.000599288
0.00059888
0.000598465
0.000598045
0.000597618
0.000597186
0.000596748
0.000596304
0.000595855
0.0005954
0.000594941
0.000594476
0.000594006
0.000593533
0.000593054
0.000592572
0.000592086
0.000591596
0.000591102
0.000590605
0.000590105
0.000589602
0.000589096
0.000588588
0.000588079
0.000587567
0.000587054
0.000586541
0.000586027
0.000585513
0.000584999
0.000584487
0.000583977
0.000583468
0.000582961
0.000582456
0.000581954
0.000581455
0.000580958
0.000580465
0.000579975
0.000579489
0.000579008
0.000578531
0.000578059
0.000577592
0.00057713
0.000576674
0.000576223
0.000575778
0.000575338
0.000574903
0.000574474
0.00057405
0.000573631
0.000573218
0.000572809
0.000572405
0.000572006
0.000571611
0.000571221
0.000570836
0.000570454
0.000570078
0.000569705
0.000569337
0.000568973
0.000568613
0.000568258
0.000567906
0.000567558
0.000567214
0.000566874
0.000566536
0.0005662
0.000565866
0.000565534
0.000565203
0.000564874
0.000564545
0.000564219
0.000563894
0.00056357
0.000563248
0.000562927
0.000562606
0.000562286
0.000561965
0.000561643
0.00056132
0.000560994
0.000560665
0.000560334
0.000560001
0.000559664
0.000559325
0.000558983
0.000558638
0.000558291
0.000557941
0.00055759
0.000557236
0.000556882
0.000556526
0.000556169
0.000555813
0.000555456
0.000555098
0.00055474
0.00055438
0.000554019
0.000553655
0.000553289
0.00055292
0.000552548
0.000552173
0.000551795
0.000551413
0.000551028
0.000550639
0.000550247
0.000549852
0.000549452
0.000549049
0.000548641
0.000548229
0.000547813
0.000547392
0.000546968
0.00054654
0.00054611
0.000545677
0.000545242
0.000544803
0.000544361
0.000543915
0.000543464
0.000543006
0.000542542
0.00054207
0.000541592
0.000541104
0.00054061
0.000540108
0.000539599
0.000539084
0.000538564
0.000538038
0.00053751
0.000536978
0.000536447
0.000535913
0.000535382
0.000534849
0.000534318
0.000533787
0.000533259
0.00053273
0.000532205
0.000531679
0.000531156
0.000530629
0.000530105
0.000529575
0.000529045
0.000528506
0.000527966
0.000527414
0.000526854
0.000526271
0.000525667
0.000525015
0.000524312
0.000523502
0.000522576
0.000521425
0.00052002
0.000518146
0.000515728
0.000512331
0.000507758
0.000501133
0.000491866
0.000478436
0.000459242
0.000431635
0.000393899
0.000342644
0.000275246
0.00017155
8.19295e-05
9.25768e-05
0.000162725
0.000113446
0.000117325
0.00012341
0.000131215
0.000141458
0.000153586
0.000166754
0.00018096
0.000196026
0.0002118
0.000227841
0.000243746
0.000259148
0.000273849
0.000287936
0.000301651
0.000315173
0.000329115
0.000343911
0.000359587
0.000376685
0.000395165
0.000413211
0.000431304
0.000449888
0.000469363
0.000490051
0.000511454
0.00053226
0.000552453
0.000571959
0.0005907
0.000608625
0.000625684
0.000641841
0.000657069
0.000671359
0.000684715
0.000697155
0.000708704
0.000719398
0.00072928
0.000738395
0.000746792
0.000754524
0.00076164
0.000768244
0.000774368
0.000780039
0.000785276
0.000790098
0.000794517
0.000798546
0.000802196
0.000805486
0.000808428
0.000811041
0.00081335
0.000815382
0.000817153
0.000818684
0.000819988
0.000821077
0.000821966
0.000822668
0.000823199
0.000823573
0.000823802
0.000823898
0.000823871
0.000823728
0.000823477
0.000823125
0.000822677
0.000822139
0.00082152
0.000820825
0.000820063
0.00081924
0.000818364
0.000817441
0.000816475
0.00081547
0.000814427
0.00081335
0.000812239
0.000811098
0.000809928
0.000808732
0.000807513
0.000806272
0.000805011
0.00080373
0.000802427
0.000801102
0.000799754
0.000798377
0.00079697
0.000795527
0.000794042
0.000792514
0.000790943
0.000789327
0.000787665
0.000785957
0.000784202
0.000782403
0.00078056
0.000778677
0.000776755
0.000774798
0.00077281
0.000770795
0.000768755
0.000766696
0.00076462
0.000762532
0.000760436
0.000758332
0.000756224
0.000754117
0.000752011
0.00074991
0.000747816
0.000745731
0.000743659
0.000741602
0.00073956
0.000737536
0.000735532
0.000733548
0.000731586
0.000729648
0.000727733
0.000725843
0.000723979
0.000722143
0.000720334
0.000718553
0.000716802
0.00071508
0.000713388
0.000711727
0.000710096
0.000708497
0.00070693
0.000705394
0.000703889
0.000702417
0.000700976
0.000699566
0.000698189
0.000696843
0.000695528
0.000694245
0.000692994
0.000691775
0.000690587
0.00068943
0.000688304
0.000687209
0.000686143
0.000685108
0.000684102
0.000683125
0.000682178
0.00068126
0.00068037
0.000679508
0.000678674
0.000677866
0.000677083
0.000676327
0.000675595
0.000674889
0.000674207
0.000673551
0.000672919
0.000672311
0.000671728
0.000671169
0.000670634
0.000670123
0.000669634
0.000669169
0.000668725
0.000668303
0.000667901
0.00066752
0.000667157
0.000666811
0.000666482
0.000666167
0.000665866
0.000665578
0.000665302
0.000665038
0.000664784
0.00066454
0.000664305
0.000664078
0.000663858
0.000663644
0.000663435
0.000663231
0.000663032
0.000662837
0.000662646
0.000662458
0.000662273
0.000662089
0.000661906
0.000661721
0.000661534
0.000661345
0.000661151
0.000660953
0.000660751
0.000660543
0.000660329
0.00066011
0.000659885
0.000659654
0.000659416
0.000659157
0.000658869
0.000658558
0.00065823
0.000657888
0.000657537
0.000657178
0.000656815
0.000656449
0.000656082
0.000655714
0.000655345
0.000654975
0.000654605
0.000654236
0.000653866
0.000653498
0.000653131
0.000652767
0.000652407
0.000652049
0.000651696
0.000651347
0.000651001
0.000650659
0.00065032
0.000649984
0.000649651
0.000649321
0.000648993
0.000648668
0.000648346
0.000648027
0.000647709
0.000647394
0.00064708
0.000646769
0.00064646
0.000646153
0.00064585
0.00064555
0.000645253
0.000644959
0.000644667
0.000644378
0.000644092
0.000643808
0.000643529
0.000643255
0.000642987
0.000642725
0.000642472
0.000642228
0.000641993
0.000641769
0.000641554
0.000641349
0.000641154
0.000640967
0.000640787
0.000640616
0.000640451
0.000640294
0.000640144
0.000640001
0.000639865
0.000639736
0.000639615
0.000639499
0.000639388
0.000639282
0.000639178
0.000639076
0.000638975
0.000638875
0.000638776
0.000638678
0.000638582
0.000638488
0.000638395
0.000638303
0.000638209
0.000638112
0.000638009
0.0006379
0.000637782
0.000637655
0.000637519
0.000637373
0.000637217
0.00063705
0.000636874
0.000636687
0.000636488
0.000636278
0.000636055
0.000635819
0.000635571
0.00063531
0.000635039
0.000634758
0.000634468
0.00063417
0.000633866
0.000633556
0.00063324
0.000632918
0.000632588
0.000632251
0.000631906
0.000631552
0.000631188
0.000630816
0.000630433
0.000630042
0.000629641
0.00062923
0.000628809
0.000628378
0.000627937
0.000627486
0.000627027
0.000626559
0.000626083
0.000625601
0.000625112
0.000624616
0.000624115
0.000623608
0.000623096
0.00062258
0.00062206
0.000621537
0.000621012
0.000620484
0.000619954
0.000619423
0.000618889
0.000618354
0.000617818
0.00061728
0.000616742
0.000616202
0.000615662
0.000615122
0.000614581
0.000614039
0.000613498
0.000612957
0.000612416
0.000611875
0.000611334
0.000610794
0.000610255
0.000609716
0.000609178
0.000608642
0.000608107
0.000607575
0.000607044
0.000606517
0.000605994
0.000605475
0.000604961
0.000604452
0.000603949
0.000603452
0.000602962
0.000602478
0.000601999
0.000601526
0.000601057
0.000600593
0.000600132
0.000599676
0.000599224
0.000598777
0.000598335
0.000597897
0.000597465
0.000597039
0.000596617
0.000596201
0.00059579
0.000595384
0.000594983
0.000594587
0.000594195
0.00059381
0.000593431
0.00059306
0.000592695
0.000592338
0.000591989
0.000591648
0.000591316
0.000590992
0.000590677
0.000590369
0.000590069
0.000589776
0.000589488
0.000589205
0.000588928
0.000588654
0.000588385
0.000588119
0.000587855
0.000587592
0.00058733
0.000587068
0.000586805
0.000586542
0.000586278
0.000586013
0.000585747
0.00058548
0.000585211
0.000584938
0.000584662
0.00058438
0.000584091
0.000583795
0.000583489
0.000583175
0.000582851
0.000582517
0.000582174
0.000581823
0.000581463
0.000581096
0.000580722
0.000580342
0.000579957
0.000579566
0.000579172
0.000578774
0.000578374
0.00057797
0.000577565
0.000577156
0.000576744
0.000576327
0.000575905
0.000575475
0.000575039
0.000574595
0.000574144
0.000573686
0.000573221
0.000572748
0.000572271
0.000571787
0.000571301
0.000570811
0.00057032
0.000569827
0.000569335
0.00056884
0.000568346
0.000567849
0.000567353
0.000566854
0.000566357
0.000565857
0.000565359
0.000564855
0.000564354
0.000563844
0.000563334
0.000562813
0.000562292
0.000561758
0.000561223
0.000560673
0.000560124
0.000559558
0.000558996
0.000558416
0.000557844
0.000557254
0.000556678
0.000556085
0.000555513
0.000554922
0.000554359
0.000553775
0.000553224
0.000552648
0.00055211
0.000551541
0.000551016
0.000550453
0.00054994
0.000549379
0.000548872
0.000548307
0.000547802
0.000547231
0.000546729
0.000546156
0.000545663
0.000545094
0.000544614
0.000544054
0.000543592
0.000543025
0.000542587
0.000541998
0.000541608
0.000540962
0.000540668
0.000539903
0.000539854
0.000538852
0.000538873
0.000537337
0.000536711
0.000532484
0.000527828
0.000510265
0.000473142
0.000423851
0.000329981
0.000162978
0.000197234
0.000111326
0.000112059
0.000113267
0.000114704
0.00011622
0.000117795
0.000119428
0.000121116
0.000122861
0.000124596
0.00012638
0.000128096
0.000129726
0.000131274
0.000132751
0.000134233
0.000135771
0.000137427
0.000139259
0.000141319
0.00014368
0.000146431
0.000149597
0.000153224
0.000157372
0.000162137
0.000167646
0.000173986
0.000181209
0.000189457
0.000198832
0.000209424
0.000221336
0.000233828
0.000246588
0.000259582
0.000272775
0.000286126
0.000299597
0.00031315
0.000326748
0.000340333
0.00035388
0.000367368
0.000380793
0.000394143
0.00040719
0.000419921
0.000432338
0.000444443
0.00045623
0.000467695
0.000478824
0.000489603
0.000500013
0.000510036
0.000519652
0.000528851
0.000537625
0.000545977
0.000553912
0.000561478
0.000568681
0.000575531
0.000582042
0.000588228
0.000594106
0.000599689
0.000604991
0.000610023
0.000614793
0.000619309
0.000623575
0.000627595
0.000631369
0.000634903
0.000638201
0.000641269
0.000644114
0.000646747
0.00064918
0.000651424
0.000653491
0.000655391
0.000657133
0.000658724
0.000660168
0.000661473
0.00066264
0.000663676
0.000664584
0.00066537
0.000666035
0.000666589
0.00066703
0.000667383
0.000667642
0.000667751
0.000667722
0.00066757
0.00066731
0.000666948
0.00066649
0.000665941
0.000665307
0.000664595
0.000663811
0.000662961
0.00066205
0.000661084
0.000660068
0.000659006
0.000657904
0.000656766
0.000655595
0.000654397
0.000653178
0.000651941
0.000650687
0.000649422
0.000648151
0.000646878
0.000645605
0.000644335
0.000643072
0.000641817
0.000640573
0.000639342
0.000638125
0.000636924
0.00063574
0.000634574
0.000633427
0.000632299
0.000631192
0.000630106
0.000629041
0.000627998
0.000626979
0.000625982
0.00062501
0.000624061
0.000623138
0.000622241
0.000621369
0.000620524
0.000619706
0.000618915
0.00061815
0.000617413
0.000616703
0.00061602
0.000615365
0.000614737
0.000614137
0.000613565
0.000613021
0.000612507
0.000612021
0.000611564
0.000611136
0.000610736
0.000610365
0.000610022
0.000609708
0.000609422
0.000609164
0.000608935
0.000608733
0.00060856
0.000608412
0.000608291
0.000608196
0.000608126
0.00060808
0.000608059
0.000608062
0.000608089
0.000608141
0.000608216
0.000608315
0.000608437
0.000608583
0.00060875
0.000608938
0.000609147
0.000609375
0.000609622
0.000609885
0.000610164
0.000610457
0.000610762
0.000611078
0.000611402
0.000611734
0.000612073
0.000612417
0.000612765
0.000613117
0.000613472
0.000613829
0.000614187
0.000614545
0.000614902
0.000615258
0.000615612
0.000615964
0.000616312
0.000616658
0.000617
0.000617337
0.000617668
0.000617992
0.000618308
0.000618615
0.000618911
0.000619196
0.000619468
0.000619728
0.000619976
0.00062021
0.000620431
0.000620639
0.000620834
0.000621014
0.000621176
0.000621321
0.000621447
0.000621555
0.000621647
0.000621721
0.000621781
0.000621828
0.000621862
0.000621884
0.000621896
0.000621898
0.00062189
0.000621874
0.00062185
0.00062182
0.000621784
0.000621743
0.0006217
0.000621653
0.000621606
0.000621557
0.000621508
0.000621459
0.00062141
0.000621361
0.000621312
0.000621263
0.000621214
0.000621166
0.000621118
0.000621071
0.000621024
0.000620976
0.000620928
0.000620879
0.00062083
0.000620781
0.000620733
0.000620685
0.000620638
0.000620592
0.000620546
0.000620503
0.000620461
0.000620422
0.000620387
0.000620356
0.000620332
0.000620315
0.000620308
0.000620311
0.000620325
0.000620352
0.000620392
0.000620445
0.000620511
0.000620588
0.000620677
0.000620777
0.000620886
0.000621003
0.000621128
0.000621261
0.0006214
0.000621545
0.000621696
0.000621851
0.000622008
0.000622168
0.000622328
0.000622488
0.000622646
0.000622803
0.000622957
0.000623109
0.000623259
0.000623406
0.00062355
0.00062369
0.000623824
0.00062395
0.000624065
0.000624168
0.000624257
0.000624329
0.000624385
0.000624422
0.00062444
0.000624439
0.000624418
0.000624376
0.000624314
0.000624231
0.000624127
0.000624002
0.000623857
0.000623692
0.00062351
0.000623311
0.000623097
0.00062287
0.000622631
0.00062238
0.000622119
0.000621847
0.000621564
0.000621269
0.000620961
0.000620638
0.000620301
0.000619949
0.000619581
0.000619198
0.000618798
0.000618382
0.000617951
0.000617503
0.00061704
0.000616562
0.000616069
0.000615563
0.000615045
0.000614515
0.000613974
0.000613423
0.000612863
0.000612294
0.000611717
0.000611133
0.000610543
0.000609949
0.000609351
0.000608749
0.000608144
0.000607537
0.000606928
0.000606317
0.000605704
0.000605089
0.000604472
0.000603854
0.000603235
0.000602614
0.000601993
0.00060137
0.000600748
0.000600125
0.000599503
0.000598881
0.00059826
0.000597641
0.000597023
0.000596407
0.000595793
0.000595181
0.000594574
0.00059397
0.000593371
0.000592778
0.000592191
0.000591612
0.000591041
0.000590478
0.000589925
0.000589381
0.000588845
0.000588319
0.0005878
0.000587289
0.000586786
0.000586288
0.000585797
0.000585312
0.000584833
0.000584361
0.000583897
0.000583439
0.000582989
0.000582548
0.000582114
0.000581688
0.000581271
0.000580862
0.000580461
0.000580067
0.000579683
0.000579307
0.00057894
0.000578584
0.000578239
0.000577905
0.000577583
0.000577273
0.000576977
0.000576693
0.000576421
0.000576162
0.000575913
0.000575674
0.000575442
0.000575217
0.000574997
0.000574781
0.000574568
0.000574358
0.000574148
0.000573939
0.00057373
0.00057352
0.000573309
0.000573096
0.000572882
0.000572666
0.000572446
0.000572223
0.000571995
0.000571761
0.000571519
0.000571269
0.000571007
0.000570734
0.000570448
0.000570149
0.000569835
0.000569507
0.000569165
0.00056881
0.000568443
0.000568065
0.000567678
0.000567282
0.000566879
0.000566469
0.000566054
0.000565634
0.000565208
0.000564778
0.000564342
0.0005639
0.00056345
0.000562993
0.000562525
0.000562047
0.000561558
0.000561057
0.000560544
0.00056002
0.000559485
0.00055894
0.000558387
0.000557826
0.000557259
0.000556688
0.000556114
0.000555539
0.000554964
0.000554389
0.000553815
0.000553241
0.000552667
0.000552094
0.00055152
0.000550945
0.000550369
0.00054979
0.000549206
0.000548616
0.000548019
0.000547413
0.000546796
0.000546169
0.000545529
0.00054488
0.000544218
0.000543547
0.000542866
0.000542178
0.000541483
0.000540786
0.000540086
0.000539389
0.000538694
0.000538007
0.000537325
0.000536653
0.000535987
0.000535333
0.000534684
0.000534046
0.000533413
0.000532789
0.000532168
0.000531554
0.000530941
0.000530331
0.000529721
0.000529112
0.000528507
0.000527903
0.000527308
0.000526719
0.000526143
0.000525579
0.000525031
0.000524502
0.000524
0.000523535
0.000523126
0.000522801
0.000522607
0.000522604
0.000522919
0.000523661
0.000525089
0.000527397
0.000530714
0.000534666
0.000539525
0.000543223
0.000532478
0.000518128
0.00047238
0.000308489
0.00024315
0.000111157
0.00011154
0.000112201
0.000112928
0.000113644
0.000114313
0.000114834
0.000115145
0.000115314
0.000115387
0.000115377
0.000115297
0.000115151
0.000114944
0.00011468
0.000114367
0.000114021
0.000113656
0.000113278
0.000112887
0.000112503
0.000112136
0.000111796
0.000111497
0.00011126
0.000111113
0.000111088
0.000111218
0.000111538
0.000112081
0.00011289
0.000114003
0.000115457
0.000117259
0.000119414
0.000121934
0.00012482
0.00012808
0.000131718
0.000135752
0.000140217
0.000145175
0.00015067
0.000156744
0.000163438
0.000170817
0.000178714
0.000186818
0.000195127
0.000203639
0.00021235
0.00022126
0.000230365
0.000239661
0.000249136
0.000258773
0.000268552
0.000278424
0.000288353
0.000298305
0.000308245
0.00031804
0.000327671
0.00033713
0.00034641
0.000355507
0.00036441
0.000373114
0.000381613
0.000389905
0.000397987
0.000405856
0.00041351
0.000420945
0.000428155
0.000435135
0.000441882
0.000448394
0.000454669
0.000460709
0.00046652
0.000472109
0.00047748
0.00048264
0.000487592
0.000492339
0.000496882
0.000501221
0.000505356
0.000509287
0.000513015
0.000516545
0.000519884
0.000523044
0.000526032
0.000528798
0.000531336
0.000533669
0.000535811
0.000537786
0.000539596
0.000541251
0.000542761
0.000544138
0.000545396
0.000546544
0.000547593
0.000548548
0.000549416
0.000550199
0.000550904
0.000551532
0.000552089
0.000552577
0.000553
0.000553363
0.000553672
0.000553929
0.000554138
0.000554306
0.000554441
0.000554546
0.000554625
0.000554681
0.000554718
0.000554739
0.000554746
0.000554741
0.000554727
0.000554704
0.000554675
0.000554642
0.000554604
0.000554563
0.000554521
0.000554478
0.000554436
0.000554395
0.000554357
0.000554324
0.000554296
0.000554275
0.000554262
0.000554259
0.000554265
0.000554284
0.000554315
0.00055436
0.000554419
0.000554492
0.000554581
0.000554686
0.000554807
0.000554947
0.000555105
0.000555282
0.00055548
0.0005557
0.000555943
0.000556208
0.000556498
0.000556811
0.00055715
0.000557513
0.000557902
0.000558317
0.000558759
0.000559227
0.000559722
0.000560244
0.000560791
0.000561364
0.00056196
0.000562581
0.000563224
0.00056389
0.000564578
0.000565288
0.000566019
0.000566772
0.000567545
0.000568338
0.000569151
0.000569982
0.00057083
0.000571694
0.000572572
0.000573462
0.000574364
0.000575275
0.000576194
0.000577117
0.000578044
0.000578972
0.0005799
0.000580825
0.000581747
0.000582665
0.000583578
0.000584485
0.000585386
0.000586279
0.000587165
0.000588042
0.00058891
0.000589767
0.000590615
0.000591453
0.00059228
0.000593096
0.0005939
0.000594693
0.000595471
0.000596235
0.000596983
0.000597714
0.000598427
0.000599121
0.000599796
0.000600451
0.000601086
0.000601701
0.000602296
0.000602871
0.000603425
0.000603959
0.000604471
0.000604961
0.000605429
0.000605876
0.0006063
0.000606704
0.000607089
0.000607454
0.000607802
0.000608133
0.000608449
0.00060875
0.000609037
0.000609311
0.000609574
0.000609826
0.00061007
0.000610306
0.000610535
0.000610759
0.000610979
0.000611195
0.000611408
0.000611618
0.000611826
0.000612033
0.000612237
0.000612441
0.000612643
0.000612844
0.000613044
0.000613242
0.000613438
0.000613633
0.000613825
0.000614015
0.000614203
0.00061439
0.000614576
0.000614761
0.000614945
0.00061513
0.000615315
0.000615503
0.000615693
0.000615888
0.000616088
0.000616295
0.000616512
0.000616741
0.000616982
0.000617239
0.000617511
0.0006178
0.000618107
0.00061843
0.00061877
0.000619125
0.000619493
0.000619873
0.000620264
0.000620663
0.000621069
0.00062148
0.000621895
0.000622312
0.000622729
0.000623145
0.000623559
0.000623969
0.000624373
0.000624771
0.000625163
0.000625547
0.000625924
0.000626293
0.000626655
0.000627009
0.000627352
0.000627684
0.000628002
0.000628303
0.000628585
0.000628845
0.000629082
0.000629294
0.000629479
0.000629636
0.000629764
0.000629862
0.000629929
0.000629966
0.000629973
0.000629948
0.000629895
0.000629812
0.000629703
0.000629569
0.000629412
0.000629235
0.000629039
0.000628827
0.000628601
0.000628359
0.000628104
0.000627835
0.000627551
0.00062725
0.000626932
0.000626595
0.000626238
0.000625862
0.000625465
0.000625047
0.000624608
0.000624148
0.000623667
0.000623166
0.000622646
0.000622107
0.00062155
0.000620976
0.000620388
0.000619784
0.000619167
0.000618537
0.000617896
0.000617244
0.000616582
0.000615914
0.000615239
0.000614559
0.000613875
0.000613187
0.000612496
0.000611803
0.000611107
0.000610409
0.000609709
0.000609005
0.0006083
0.000607592
0.000606881
0.000606169
0.000605455
0.00060474
0.000604024
0.000603308
0.000602593
0.000601879
0.000601167
0.000600456
0.000599748
0.000599043
0.000598343
0.000597647
0.000596958
0.000596276
0.000595603
0.00059494
0.000594288
0.000593647
0.000593019
0.000592403
0.000591799
0.000591206
0.000590625
0.000590053
0.000589491
0.000588938
0.000588393
0.000587855
0.000587326
0.000586805
0.000586294
0.000585792
0.0005853
0.000584819
0.000584349
0.000583891
0.000583445
0.000583011
0.000582588
0.000582178
0.000581779
0.000581393
0.000581019
0.000580659
0.000580312
0.00057998
0.000579663
0.000579362
0.000579078
0.000578809
0.000578557
0.000578321
0.0005781
0.000577891
0.000577693
0.000577504
0.00057732
0.00057714
0.000576962
0.000576784
0.000576605
0.000576424
0.000576241
0.000576055
0.000575865
0.000575672
0.000575475
0.000575274
0.000575068
0.000574856
0.000574637
0.00057441
0.000574172
0.000573924
0.000573662
0.000573385
0.000573091
0.000572779
0.000572449
0.0005721
0.000571732
0.000571347
0.000570944
0.000570526
0.000570095
0.000569651
0.000569198
0.000568736
0.000568266
0.000567789
0.000567306
0.000566816
0.000566319
0.000565814
0.000565299
0.000564774
0.000564237
0.000563687
0.000563121
0.000562541
0.000561945
0.000561333
0.000560707
0.000560067
0.000559416
0.000558753
0.000558082
0.000557404
0.000556723
0.000556039
0.000555356
0.000554673
0.000553993
0.000553314
0.000552638
0.000551963
0.00055129
0.000550616
0.000549944
0.000549268
0.00054859
0.000547905
0.000547214
0.00054651
0.000545797
0.000545067
0.000544324
0.000543563
0.000542789
0.000541997
0.000541194
0.000540375
0.000539551
0.000538715
0.00053788
0.00053704
0.000536209
0.000535377
0.000534561
0.000533749
0.000532955
0.000532166
0.000531398
0.000530632
0.000529886
0.000529141
0.000528414
0.000527684
0.00052697
0.000526249
0.000525542
0.000524825
0.000524122
0.000523411
0.000522715
0.000522019
0.000521339
0.000520668
0.000520019
0.000519384
0.000518781
0.000518208
0.000517693
0.000517253
0.000516937
0.000516805
0.000516952
0.000517557
0.000518809
0.000521136
0.000524744
0.000529443
0.000535532
0.000543472
0.00055494
0.000556107
0.000558523
0.000551851
0.000436266
0.000302889
0.000111159
0.000111533
0.000112145
0.000112791
0.000113393
0.000113929
0.000114354
0.000114669
0.000114868
0.000114906
0.000114831
0.000114678
0.000114457
0.000114185
0.000113868
0.000113509
0.000113111
0.000112679
0.000112217
0.000111728
0.000111211
0.000110671
0.000110113
0.000109541
0.00010896
0.000108377
0.000107797
0.000107232
0.000106689
0.00010618
0.000105713
0.000105296
0.000104939
0.000104651
0.00010444
0.000104314
0.000104282
0.000104356
0.000104556
0.000104894
0.000105371
0.000105989
0.000106759
0.000107697
0.000108822
0.000110156
0.000111715
0.000113498
0.000115509
0.000117756
0.000120241
0.000122973
0.000125964
0.000129228
0.00013278
0.000136636
0.000140811
0.000145335
0.000150228
0.000155491
0.000161127
0.000167106
0.000173415
0.000180043
0.000186977
0.000194134
0.000201374
0.000208692
0.000216084
0.000223546
0.000231073
0.000238661
0.000246305
0.000253998
0.000261732
0.000269496
0.000277277
0.000285061
0.000292831
0.000300569
0.000308257
0.000315881
0.000323424
0.00033087
0.000338205
0.000345417
0.000352494
0.000359425
0.000366202
0.000372815
0.000379258
0.000385529
0.000391645
0.000397606
0.000403402
0.000409001
0.000414387
0.000419553
0.000424495
0.000429215
0.000433689
0.000437947
0.000442008
0.000445886
0.000449594
0.000453141
0.000456531
0.000459756
0.000462818
0.000465721
0.00046847
0.000471071
0.000473532
0.000475857
0.000478054
0.00048013
0.00048209
0.000483941
0.000485702
0.000487376
0.000488973
0.000490499
0.00049196
0.000493363
0.000494711
0.000496007
0.000497254
0.000498456
0.000499613
0.000500729
0.000501805
0.000502845
0.00050385
0.000504821
0.000505762
0.000506675
0.000507563
0.000508429
0.000509275
0.000510104
0.000510917
0.000511719
0.00051251
0.000513294
0.000514072
0.000514846
0.000515619
0.000516391
0.000517165
0.000517942
0.000518724
0.000519512
0.000520308
0.000521113
0.000521929
0.000522758
0.000523603
0.000524464
0.000525343
0.000526242
0.000527162
0.000528104
0.00052907
0.000530061
0.000531078
0.00053212
0.000533191
0.000534289
0.000535415
0.000536568
0.000537748
0.000538954
0.000540183
0.000541435
0.000542709
0.000544003
0.000545316
0.000546648
0.000547997
0.000549363
0.000550745
0.000552142
0.000553552
0.000554974
0.000556405
0.000557845
0.000559291
0.000560741
0.000562192
0.000563643
0.000565091
0.000566534
0.000567969
0.000569395
0.00057081
0.000572211
0.000573599
0.000574971
0.000576327
0.000577666
0.000578989
0.000580294
0.000581581
0.00058285
0.000584101
0.000585333
0.000586548
0.000587744
0.000588922
0.000590083
0.000591225
0.000592349
0.000593452
0.000594536
0.000595597
0.000596637
0.000597653
0.000598644
0.000599611
0.000600552
0.000601468
0.000602357
0.000603221
0.00060406
0.000604873
0.000605661
0.000606424
0.000607162
0.000607875
0.000608563
0.000609227
0.000609867
0.000610485
0.000611081
0.000611657
0.000612214
0.000612752
0.000613274
0.000613781
0.000614273
0.000614753
0.000615222
0.00061568
0.00061613
0.000616572
0.000617008
0.000617437
0.000617862
0.000618283
0.0006187
0.000619115
0.000619527
0.000619937