/*--------------------------------*- C++ -*----------------------------------*\
| =========                 |                                                 |
| \\      /  F ield         | foam-extend: Open Source CFD                    |
|  \\    /   O peration     | Version:     3.2                                |
|   \\  /    A nd           | Web:         http://www.foam-extend.org         |
|    \\/     M anipulation  | For copyright notice see file Copyright         |
\*---------------------------------------------------------------------------*/
FoamFile
{
    version     2.0;
    format      ascii;
    class       volScalarField;
    location    "20";
    object      p;
}
// * * * * * * * * * * * * * * * * * * * * * * * * * * * * * * * * * * * * * //

dimensions      [1 -1 -2 0 0 0 0];

internalField   nonuniform List<scalar> 
33000
(
1178.36
1179.82
1181.45
1183.66
1185.31
1187.17
1188.54
1189.88
1190.9
1191.88
1192.7
1193.45
1194.11
1194.71
1195.26
1195.78
1196.29
1196.76
1197.21
1197.66
1198.08
1198.5
1198.91
1199.32
1199.72
1200.12
1200.51
1200.9
1201.29
1201.68
1202.06
1202.44
1202.82
1203.2
1203.57
1203.95
1204.32
1204.7
1205.07
1205.44
1205.82
1206.19
1206.56
1206.93
1207.3
1207.67
1208.04
1208.41
1208.77
1209.14
1209.51
1209.88
1210.24
1210.61
1210.98
1211.34
1211.71
1212.07
1212.43
1212.8
1213.16
1213.52
1213.88
1214.24
1214.6
1214.96
1215.32
1215.68
1216.04
1216.39
1216.75
1217.11
1217.46
1217.82
1218.17
1218.53
1218.88
1219.24
1219.59
1219.94
1220.3
1220.65
1221
1221.35
1221.7
1222.05
1222.4
1222.75
1223.1
1223.45
1223.8
1224.15
1224.5
1224.85
1225.2
1225.55
1225.9
1226.25
1226.6
1226.95
1227.3
1227.65
1228
1228.35
1228.7
1229.05
1229.41
1229.76
1230.11
1230.46
1230.81
1231.16
1231.51
1231.86
1232.22
1232.57
1232.92
1233.27
1233.62
1233.97
1234.32
1234.67
1235.01
1235.36
1235.71
1236.06
1236.41
1236.75
1237.1
1237.44
1237.79
1238.13
1238.48
1238.82
1239.17
1239.51
1239.85
1240.19
1240.54
1240.88
1241.22
1241.56
1241.9
1242.24
1242.58
1242.92
1243.26
1243.6
1243.94
1244.28
1244.62
1244.96
1245.3
1245.64
1245.99
1246.33
1246.67
1247.02
1247.36
1247.7
1248.05
1248.4
1248.74
1249.09
1249.44
1249.79
1250.14
1250.48
1250.83
1251.18
1251.53
1251.88
1252.23
1252.58
1252.93
1253.27
1253.62
1253.96
1254.31
1254.65
1255
1255.34
1255.68
1256.02
1256.36
1256.7
1257.04
1257.38
1257.71
1258.05
1258.39
1258.73
1259.07
1259.41
1259.75
1260.09
1260.43
1260.77
1261.11
1261.45
1261.8
1262.14
1262.49
1262.83
1263.18
1263.53
1263.88
1264.22
1264.57
1264.92
1265.27
1265.62
1265.97
1266.32
1266.67
1267.02
1267.37
1267.72
1268.07
1268.42
1268.77
1269.12
1269.47
1269.82
1270.17
1270.51
1270.86
1271.21
1271.55
1271.9
1272.24
1272.59
1272.93
1273.28
1273.62
1273.96
1274.31
1274.65
1274.99
1275.34
1275.68
1276.02
1276.36
1276.71
1277.05
1277.39
1277.73
1278.08
1278.42
1278.76
1279.1
1279.45
1279.79
1280.13
1280.48
1280.82
1281.16
1281.51
1281.85
1282.19
1282.53
1282.88
1283.22
1283.56
1283.9
1284.24
1284.58
1284.92
1285.26
1285.6
1285.94
1286.28
1286.61
1286.95
1287.29
1287.62
1287.96
1288.29
1288.63
1288.96
1289.3
1289.63
1289.97
1290.3
1290.64
1290.97
1291.31
1291.64
1291.98
1292.31
1292.65
1292.98
1293.32
1293.65
1293.99
1294.32
1294.65
1294.99
1295.32
1295.65
1295.99
1296.32
1296.65
1296.98
1297.31
1297.65
1297.98
1298.31
1298.64
1298.97
1299.3
1299.64
1299.97
1300.3
1300.63
1300.97
1301.3
1301.63
1301.97
1302.3
1302.64
1302.98
1303.31
1303.65
1303.99
1304.32
1304.66
1305
1305.33
1305.67
1306.01
1306.34
1306.68
1307.02
1307.35
1307.69
1308.03
1308.37
1308.71
1309.05
1309.39
1309.73
1310.07
1310.41
1310.76
1311.1
1311.45
1311.8
1312.14
1312.49
1312.85
1313.2
1313.55
1313.91
1314.27
1314.63
1314.98
1315.34
1315.71
1316.07
1316.43
1316.8
1317.16
1317.53
1317.89
1318.26
1318.63
1318.99
1319.36
1319.73
1320.1
1320.47
1320.83
1321.2
1321.57
1321.94
1322.31
1322.68
1323.04
1323.41
1323.78
1324.14
1324.5
1324.87
1325.23
1325.59
1325.94
1326.3
1326.65
1327.01
1327.36
1327.7
1328.05
1328.39
1328.74
1329.08
1329.41
1329.75
1330.08
1330.41
1330.74
1331.07
1331.4
1331.73
1332.05
1332.38
1332.7
1333.03
1333.35
1333.67
1334
1334.32
1334.65
1334.97
1335.3
1335.63
1335.96
1336.29
1336.62
1336.95
1337.28
1337.62
1337.95
1338.29
1338.63
1338.97
1339.31
1339.64
1339.99
1340.33
1340.67
1341.01
1341.36
1341.7
1342.05
1342.39
1342.74
1343.09
1343.44
1343.79
1344.14
1344.49
1344.84
1345.19
1345.54
1345.89
1346.24
1346.59
1346.95
1347.3
1347.65
1348.01
1348.36
1348.72
1349.07
1349.43
1349.78
1350.14
1350.5
1350.85
1351.21
1351.57
1351.92
1352.28
1352.64
1352.99
1353.35
1353.71
1354.06
1354.42
1354.78
1355.13
1355.49
1355.84
1356.2
1356.56
1356.91
1357.27
1357.63
1357.99
1358.35
1358.71
1359.07
1359.43
1359.79
1360.16
1360.52
1360.89
1361.25
1361.62
1361.98
1362.35
1362.71
1363.08
1363.44
1363.81
1364.17
1364.54
1364.9
1365.27
1365.63
1366
1366.36
1366.72
1367.09
1367.45
1367.81
1368.17
1368.53
1368.89
1369.25
1369.61
1369.96
1370.32
1370.68
1371.03
1371.39
1371.74
1372.1
1372.45
1372.81
1373.16
1373.52
1373.87
1374.23
1374.59
1374.94
1375.31
1375.67
1376.03
1376.4
1376.79
1377.16
1377.59
1377.99
1378.49
1378.96
1379.61
1380.21
1381.15
1382.04
1383.49
1384.88
1387.06
1389.3
1392.17
1393.23
1394.49
1393.95
1395.1
1129.39
1130.98
1132.6
1134.81
1136.46
1138.34
1139.7
1141.05
1142.06
1143.04
1143.87
1144.62
1145.27
1145.87
1146.42
1146.95
1147.45
1147.92
1148.37
1148.81
1149.23
1149.65
1150.06
1150.47
1150.87
1151.27
1151.66
1152.05
1152.44
1152.83
1153.21
1153.59
1153.97
1154.35
1154.72
1155.1
1155.47
1155.85
1156.22
1156.59
1156.96
1157.34
1157.71
1158.08
1158.45
1158.82
1159.19
1159.56
1159.92
1160.29
1160.66
1161.03
1161.39
1161.76
1162.13
1162.49
1162.86
1163.22
1163.58
1163.95
1164.31
1164.67
1165.03
1165.39
1165.75
1166.11
1166.47
1166.83
1167.19
1167.54
1167.9
1168.26
1168.61
1168.97
1169.32
1169.68
1170.03
1170.38
1170.74
1171.09
1171.44
1171.8
1172.15
1172.5
1172.85
1173.2
1173.55
1173.9
1174.25
1174.6
1174.95
1175.3
1175.65
1176
1176.35
1176.7
1177.05
1177.4
1177.75
1178.1
1178.45
1178.8
1179.15
1179.5
1179.85
1180.2
1180.55
1180.9
1181.26
1181.61
1181.96
1182.31
1182.66
1183.01
1183.36
1183.71
1184.06
1184.41
1184.77
1185.12
1185.46
1185.81
1186.16
1186.51
1186.86
1187.21
1187.55
1187.9
1188.25
1188.59
1188.94
1189.28
1189.63
1189.97
1190.31
1190.66
1191
1191.34
1191.68
1192.02
1192.37
1192.71
1193.05
1193.39
1193.73
1194.07
1194.41
1194.75
1195.09
1195.43
1195.77
1196.11
1196.45
1196.79
1197.13
1197.48
1197.82
1198.16
1198.51
1198.85
1199.2
1199.54
1199.89
1200.24
1200.59
1200.93
1201.28
1201.63
1201.98
1202.33
1202.68
1203.03
1203.38
1203.73
1204.07
1204.42
1204.77
1205.11
1205.46
1205.8
1206.14
1206.49
1206.83
1207.17
1207.51
1207.85
1208.19
1208.52
1208.86
1209.2
1209.54
1209.88
1210.21
1210.55
1210.89
1211.23
1211.57
1211.91
1212.26
1212.6
1212.94
1213.29
1213.63
1213.98
1214.33
1214.67
1215.02
1215.37
1215.72
1216.07
1216.42
1216.77
1217.12
1217.47
1217.82
1218.17
1218.52
1218.87
1219.22
1219.57
1219.92
1220.27
1220.62
1220.96
1221.31
1221.66
1222.01
1222.35
1222.7
1223.04
1223.39
1223.73
1224.08
1224.42
1224.77
1225.11
1225.45
1225.8
1226.14
1226.48
1226.83
1227.17
1227.51
1227.85
1228.19
1228.54
1228.88
1229.22
1229.57
1229.91
1230.25
1230.59
1230.94
1231.28
1231.62
1231.97
1232.31
1232.65
1233
1233.34
1233.68
1234.02
1234.36
1234.71
1235.05
1235.39
1235.73
1236.07
1236.41
1236.75
1237.08
1237.42
1237.76
1238.1
1238.43
1238.77
1239.1
1239.44
1239.77
1240.11
1240.44
1240.78
1241.11
1241.45
1241.78
1242.12
1242.45
1242.79
1243.12
1243.46
1243.79
1244.13
1244.46
1244.8
1245.13
1245.47
1245.8
1246.13
1246.47
1246.8
1247.13
1247.47
1247.8
1248.13
1248.46
1248.79
1249.12
1249.45
1249.79
1250.12
1250.45
1250.78
1251.11
1251.45
1251.78
1252.11
1252.45
1252.78
1253.12
1253.45
1253.79
1254.12
1254.46
1254.8
1255.13
1255.47
1255.81
1256.14
1256.48
1256.82
1257.15
1257.49
1257.83
1258.16
1258.5
1258.84
1259.18
1259.51
1259.85
1260.19
1260.53
1260.87
1261.22
1261.56
1261.9
1262.25
1262.59
1262.94
1263.29
1263.64
1263.99
1264.35
1264.7
1265.06
1265.41
1265.77
1266.13
1266.49
1266.85
1267.21
1267.58
1267.94
1268.31
1268.67
1269.04
1269.4
1269.77
1270.14
1270.51
1270.88
1271.24
1271.61
1271.98
1272.35
1272.72
1273.09
1273.45
1273.82
1274.19
1274.56
1274.92
1275.29
1275.65
1276.01
1276.37
1276.73
1277.09
1277.45
1277.8
1278.15
1278.5
1278.85
1279.2
1279.54
1279.88
1280.22
1280.56
1280.9
1281.23
1281.56
1281.89
1282.22
1282.55
1282.87
1283.2
1283.52
1283.85
1284.17
1284.5
1284.82
1285.14
1285.47
1285.79
1286.12
1286.45
1286.78
1287.11
1287.44
1287.77
1288.1
1288.43
1288.77
1289.1
1289.44
1289.77
1290.11
1290.45
1290.79
1291.13
1291.47
1291.82
1292.16
1292.5
1292.85
1293.19
1293.54
1293.89
1294.24
1294.58
1294.93
1295.28
1295.63
1295.98
1296.33
1296.68
1297.04
1297.39
1297.74
1298.09
1298.45
1298.8
1299.15
1299.51
1299.86
1300.22
1300.57
1300.93
1301.29
1301.64
1302
1302.36
1302.71
1303.07
1303.43
1303.78
1304.14
1304.5
1304.85
1305.21
1305.57
1305.92
1306.28
1306.63
1306.99
1307.35
1307.7
1308.06
1308.42
1308.78
1309.14
1309.5
1309.86
1310.22
1310.58
1310.94
1311.3
1311.67
1312.03
1312.4
1312.76
1313.13
1313.49
1313.86
1314.22
1314.59
1314.96
1315.32
1315.69
1316.05
1316.42
1316.78
1317.14
1317.51
1317.87
1318.23
1318.6
1318.96
1319.32
1319.68
1320.04
1320.4
1320.75
1321.11
1321.47
1321.82
1322.18
1322.53
1322.89
1323.24
1323.6
1323.95
1324.31
1324.66
1325.02
1325.38
1325.73
1326.09
1326.45
1326.81
1327.18
1327.55
1327.93
1328.31
1328.73
1329.14
1329.63
1330.1
1330.75
1331.34
1332.29
1333.16
1334.62
1336.01
1338.2
1340.4
1343.26
1344.38
1345.67
1345.02
1346.13
1080.39
1082.09
1083.72
1085.97
1087.63
1089.5
1090.85
1092.2
1093.21
1094.2
1095.01
1095.76
1096.42
1097.01
1097.55
1098.08
1098.58
1099.05
1099.51
1099.95
1100.38
1100.8
1101.21
1101.62
1102.02
1102.42
1102.81
1103.21
1103.59
1103.98
1104.36
1104.74
1105.12
1105.5
1105.87
1106.25
1106.62
1107
1107.37
1107.74
1108.12
1108.49
1108.86
1109.23
1109.6
1109.97
1110.34
1110.7
1111.07
1111.44
1111.81
1112.18
1112.54
1112.91
1113.27
1113.64
1114
1114.37
1114.73
1115.09
1115.46
1115.82
1116.18
1116.54
1116.9
1117.26
1117.62
1117.98
1118.33
1118.69
1119.05
1119.4
1119.76
1120.11
1120.47
1120.82
1121.18
1121.53
1121.89
1122.24
1122.59
1122.94
1123.29
1123.65
1124
1124.35
1124.7
1125.05
1125.4
1125.75
1126.1
1126.45
1126.8
1127.15
1127.5
1127.85
1128.2
1128.55
1128.9
1129.25
1129.6
1129.95
1130.3
1130.65
1131
1131.35
1131.7
1132.05
1132.4
1132.75
1133.1
1133.46
1133.81
1134.16
1134.51
1134.86
1135.21
1135.56
1135.91
1136.26
1136.61
1136.96
1137.31
1137.66
1138
1138.35
1138.7
1139.05
1139.39
1139.74
1140.08
1140.43
1140.77
1141.12
1141.46
1141.8
1142.14
1142.49
1142.83
1143.17
1143.51
1143.85
1144.19
1144.53
1144.87
1145.21
1145.55
1145.89
1146.23
1146.57
1146.91
1147.26
1147.6
1147.94
1148.28
1148.62
1148.97
1149.31
1149.65
1150
1150.34
1150.69
1151.04
1151.38
1151.73
1152.08
1152.43
1152.78
1153.13
1153.48
1153.83
1154.18
1154.52
1154.87
1155.22
1155.57
1155.91
1156.26
1156.6
1156.95
1157.29
1157.63
1157.97
1158.31
1158.65
1158.99
1159.33
1159.67
1160.01
1160.35
1160.68
1161.02
1161.36
1161.7
1162.04
1162.38
1162.72
1163.06
1163.4
1163.75
1164.09
1164.43
1164.78
1165.13
1165.47
1165.82
1166.17
1166.52
1166.87
1167.22
1167.57
1167.92
1168.27
1168.62
1168.97
1169.32
1169.67
1170.02
1170.37
1170.72
1171.07
1171.41
1171.76
1172.11
1172.46
1172.81
1173.15
1173.5
1173.85
1174.19
1174.54
1174.88
1175.23
1175.57
1175.91
1176.26
1176.6
1176.94
1177.29
1177.63
1177.97
1178.31
1178.66
1179
1179.34
1179.68
1180.03
1180.37
1180.71
1181.05
1181.4
1181.74
1182.08
1182.43
1182.77
1183.11
1183.46
1183.8
1184.14
1184.48
1184.83
1185.17
1185.51
1185.85
1186.19
1186.53
1186.87
1187.21
1187.55
1187.89
1188.23
1188.57
1188.91
1189.24
1189.58
1189.91
1190.25
1190.58
1190.92
1191.25
1191.59
1191.92
1192.26
1192.59
1192.93
1193.26
1193.6
1193.93
1194.27
1194.6
1194.94
1195.27
1195.61
1195.94
1196.28
1196.61
1196.95
1197.28
1197.61
1197.95
1198.28
1198.61
1198.94
1199.28
1199.61
1199.94
1200.27
1200.6
1200.93
1201.26
1201.6
1201.93
1202.26
1202.59
1202.93
1203.26
1203.59
1203.93
1204.26
1204.6
1204.93
1205.27
1205.61
1205.94
1206.28
1206.61
1206.95
1207.29
1207.63
1207.96
1208.3
1208.64
1208.97
1209.31
1209.65
1209.98
1210.32
1210.66
1211
1211.34
1211.68
1212.02
1212.36
1212.7
1213.05
1213.39
1213.74
1214.09
1214.44
1214.79
1215.14
1215.49
1215.85
1216.2
1216.56
1216.92
1217.28
1217.64
1218
1218.36
1218.72
1219.09
1219.45
1219.82
1220.18
1220.55
1220.92
1221.29
1221.65
1222.02
1222.39
1222.76
1223.13
1223.5
1223.86
1224.23
1224.6
1224.97
1225.34
1225.7
1226.07
1226.43
1226.8
1227.16
1227.52
1227.88
1228.24
1228.59
1228.95
1229.3
1229.65
1230
1230.34
1230.69
1231.03
1231.37
1231.71
1232.04
1232.38
1232.71
1233.04
1233.37
1233.69
1234.02
1234.35
1234.67
1234.99
1235.32
1235.64
1235.97
1236.29
1236.62
1236.94
1237.27
1237.59
1237.92
1238.25
1238.58
1238.91
1239.24
1239.58
1239.91
1240.25
1240.58
1240.92
1241.26
1241.6
1241.94
1242.28
1242.62
1242.96
1243.31
1243.65
1244
1244.34
1244.69
1245.03
1245.38
1245.73
1246.08
1246.43
1246.78
1247.13
1247.48
1247.83
1248.18
1248.53
1248.89
1249.24
1249.59
1249.95
1250.3
1250.65
1251.01
1251.36
1251.72
1252.08
1252.43
1252.79
1253.15
1253.5
1253.86
1254.22
1254.57
1254.93
1255.29
1255.64
1256
1256.36
1256.71
1257.07
1257.42
1257.78
1258.14
1258.49
1258.85
1259.21
1259.56
1259.92
1260.28
1260.64
1261
1261.36
1261.73
1262.09
1262.45
1262.81
1263.18
1263.54
1263.91
1264.27
1264.64
1265.01
1265.37
1265.74
1266.1
1266.47
1266.83
1267.2
1267.56
1267.93
1268.29
1268.65
1269.02
1269.38
1269.74
1270.1
1270.46
1270.82
1271.18
1271.54
1271.9
1272.26
1272.61
1272.97
1273.33
1273.68
1274.04
1274.39
1274.75
1275.1
1275.46
1275.81
1276.17
1276.52
1276.88
1277.24
1277.6
1277.96
1278.33
1278.69
1279.08
1279.45
1279.87
1280.28
1280.77
1281.23
1281.87
1282.45
1283.39
1284.23
1285.66
1287.01
1289.16
1291.26
1294.08
1295.3
1296.71
1296.1
1297.32
1031.3
1033.15
1034.81
1037.13
1038.8
1040.69
1042.05
1043.4
1044.41
1045.38
1046.19
1046.93
1047.58
1048.17
1048.72
1049.25
1049.74
1050.22
1050.67
1051.11
1051.53
1051.95
1052.36
1052.77
1053.17
1053.57
1053.96
1054.35
1054.74
1055.13
1055.51
1055.89
1056.27
1056.64
1057.02
1057.4
1057.77
1058.14
1058.52
1058.89
1059.26
1059.63
1060
1060.37
1060.74
1061.11
1061.48
1061.85
1062.22
1062.59
1062.96
1063.32
1063.69
1064.06
1064.42
1064.79
1065.15
1065.52
1065.88
1066.24
1066.6
1066.97
1067.33
1067.69
1068.05
1068.41
1068.77
1069.12
1069.48
1069.84
1070.2
1070.55
1070.91
1071.26
1071.62
1071.97
1072.33
1072.68
1073.03
1073.39
1073.74
1074.09
1074.44
1074.79
1075.15
1075.5
1075.85
1076.2
1076.55
1076.9
1077.25
1077.59
1077.94
1078.29
1078.64
1078.99
1079.34
1079.69
1080.04
1080.4
1080.75
1081.1
1081.45
1081.8
1082.15
1082.5
1082.85
1083.2
1083.55
1083.9
1084.25
1084.6
1084.95
1085.31
1085.66
1086.01
1086.36
1086.71
1087.06
1087.41
1087.76
1088.11
1088.46
1088.8
1089.15
1089.5
1089.85
1090.19
1090.54
1090.89
1091.23
1091.58
1091.92
1092.26
1092.61
1092.95
1093.29
1093.63
1093.98
1094.32
1094.66
1095
1095.34
1095.68
1096.02
1096.36
1096.7
1097.04
1097.38
1097.72
1098.06
1098.4
1098.74
1099.09
1099.43
1099.77
1100.11
1100.46
1100.8
1101.15
1101.49
1101.84
1102.18
1102.53
1102.88
1103.23
1103.58
1103.93
1104.28
1104.62
1104.97
1105.32
1105.67
1106.02
1106.37
1106.71
1107.06
1107.41
1107.75
1108.09
1108.44
1108.78
1109.12
1109.46
1109.8
1110.14
1110.48
1110.82
1111.16
1111.49
1111.83
1112.17
1112.51
1112.85
1113.19
1113.53
1113.87
1114.21
1114.55
1114.89
1115.24
1115.58
1115.93
1116.27
1116.62
1116.97
1117.32
1117.66
1118.01
1118.36
1118.71
1119.06
1119.41
1119.76
1120.11
1120.46
1120.81
1121.16
1121.51
1121.86
1122.21
1122.56
1122.91
1123.26
1123.61
1123.95
1124.3
1124.65
1124.99
1125.34
1125.68
1126.03
1126.37
1126.72
1127.06
1127.4
1127.75
1128.09
1128.43
1128.78
1129.12
1129.46
1129.8
1130.15
1130.49
1130.83
1131.17
1131.52
1131.86
1132.2
1132.54
1132.89
1133.23
1133.57
1133.92
1134.26
1134.6
1134.95
1135.29
1135.63
1135.97
1136.32
1136.66
1137
1137.34
1137.68
1138.02
1138.36
1138.7
1139.04
1139.38
1139.72
1140.05
1140.39
1140.72
1141.06
1141.4
1141.73
1142.07
1142.4
1142.74
1143.07
1143.41
1143.74
1144.08
1144.41
1144.75
1145.08
1145.42
1145.75
1146.09
1146.42
1146.76
1147.09
1147.42
1147.76
1148.09
1148.43
1148.76
1149.09
1149.43
1149.76
1150.09
1150.42
1150.75
1151.09
1151.42
1151.75
1152.08
1152.41
1152.74
1153.07
1153.41
1153.74
1154.07
1154.41
1154.74
1155.07
1155.41
1155.74
1156.08
1156.42
1156.75
1157.09
1157.42
1157.76
1158.1
1158.44
1158.77
1159.11
1159.45
1159.78
1160.12
1160.46
1160.79
1161.13
1161.47
1161.81
1162.15
1162.49
1162.83
1163.17
1163.51
1163.85
1164.19
1164.54
1164.89
1165.23
1165.58
1165.93
1166.29
1166.64
1166.99
1167.35
1167.71
1168.06
1168.42
1168.78
1169.15
1169.51
1169.87
1170.23
1170.6
1170.96
1171.33
1171.7
1172.06
1172.43
1172.8
1173.17
1173.54
1173.91
1174.27
1174.64
1175.01
1175.38
1175.75
1176.12
1176.48
1176.85
1177.22
1177.58
1177.94
1178.31
1178.67
1179.03
1179.38
1179.74
1180.09
1180.45
1180.8
1181.14
1181.49
1181.83
1182.18
1182.52
1182.85
1183.19
1183.52
1183.85
1184.18
1184.51
1184.84
1185.17
1185.49
1185.82
1186.14
1186.47
1186.79
1187.11
1187.44
1187.76
1188.09
1188.41
1188.74
1189.07
1189.4
1189.73
1190.06
1190.39
1190.72
1191.06
1191.39
1191.73
1192.07
1192.4
1192.74
1193.08
1193.42
1193.77
1194.11
1194.45
1194.8
1195.14
1195.49
1195.83
1196.18
1196.53
1196.88
1197.23
1197.57
1197.92
1198.27
1198.63
1198.98
1199.33
1199.68
1200.03
1200.39
1200.74
1201.09
1201.45
1201.8
1202.16
1202.51
1202.87
1203.22
1203.58
1203.94
1204.29
1204.65
1205.01
1205.36
1205.72
1206.08
1206.43
1206.79
1207.15
1207.5
1207.86
1208.22
1208.57
1208.93
1209.28
1209.64
1210
1210.35
1210.71
1211.07
1211.43
1211.79
1212.15
1212.51
1212.87
1213.23
1213.6
1213.96
1214.33
1214.69
1215.06
1215.42
1215.79
1216.15
1216.52
1216.88
1217.25
1217.61
1217.98
1218.34
1218.71
1219.07
1219.44
1219.8
1220.16
1220.53
1220.89
1221.25
1221.61
1221.97
1222.33
1222.69
1223.05
1223.4
1223.76
1224.12
1224.47
1224.83
1225.18
1225.54
1225.89
1226.25
1226.6
1226.96
1227.31
1227.67
1228.03
1228.38
1228.74
1229.1
1229.47
1229.83
1230.22
1230.59
1231.01
1231.41
1231.9
1232.35
1232.99
1233.55
1234.47
1235.28
1236.68
1237.96
1240.06
1242.02
1244.77
1246.11
1247.64
1247.22
1248.5
982.123
984.17
985.876
988.274
989.968
991.881
993.233
994.581
995.594
996.561
997.358
998.093
998.738
999.329
999.874
1000.39
1000.89
1001.36
1001.81
1002.25
1002.68
1003.1
1003.51
1003.92
1004.32
1004.72
1005.11
1005.5
1005.89
1006.28
1006.66
1007.04
1007.42
1007.8
1008.17
1008.55
1008.92
1009.29
1009.67
1010.04
1010.41
1010.78
1011.15
1011.52
1011.89
1012.26
1012.63
1013
1013.37
1013.74
1014.1
1014.47
1014.84
1015.2
1015.57
1015.93
1016.3
1016.66
1017.03
1017.39
1017.75
1018.11
1018.47
1018.83
1019.19
1019.55
1019.91
1020.27
1020.63
1020.99
1021.34
1021.7
1022.05
1022.41
1022.76
1023.12
1023.47
1023.83
1024.18
1024.53
1024.89
1025.24
1025.59
1025.94
1026.29
1026.64
1026.99
1027.34
1027.69
1028.04
1028.39
1028.74
1029.09
1029.44
1029.79
1030.14
1030.49
1030.84
1031.19
1031.54
1031.89
1032.24
1032.59
1032.94
1033.29
1033.64
1034
1034.35
1034.7
1035.05
1035.4
1035.75
1036.1
1036.45
1036.8
1037.16
1037.51
1037.86
1038.21
1038.56
1038.91
1039.26
1039.6
1039.95
1040.3
1040.65
1040.99
1041.34
1041.69
1042.03
1042.38
1042.72
1043.07
1043.41
1043.75
1044.1
1044.44
1044.78
1045.12
1045.47
1045.81
1046.15
1046.49
1046.83
1047.17
1047.51
1047.85
1048.19
1048.53
1048.87
1049.21
1049.55
1049.89
1050.23
1050.57
1050.92
1051.26
1051.6
1051.95
1052.29
1052.64
1052.98
1053.33
1053.68
1054.03
1054.37
1054.72
1055.07
1055.42
1055.77
1056.12
1056.47
1056.82
1057.17
1057.51
1057.86
1058.21
1058.55
1058.9
1059.24
1059.58
1059.93
1060.27
1060.61
1060.95
1061.29
1061.63
1061.96
1062.3
1062.64
1062.98
1063.32
1063.65
1063.99
1064.33
1064.67
1065.01
1065.35
1065.7
1066.04
1066.38
1066.73
1067.07
1067.42
1067.77
1068.11
1068.46
1068.81
1069.16
1069.51
1069.86
1070.21
1070.56
1070.91
1071.26
1071.61
1071.96
1072.31
1072.66
1073.01
1073.36
1073.71
1074.06
1074.41
1074.75
1075.1
1075.45
1075.79
1076.14
1076.48
1076.83
1077.17
1077.52
1077.86
1078.21
1078.55
1078.89
1079.24
1079.58
1079.92
1080.27
1080.61
1080.95
1081.29
1081.63
1081.98
1082.32
1082.66
1083
1083.35
1083.69
1084.03
1084.38
1084.72
1085.06
1085.41
1085.75
1086.09
1086.44
1086.78
1087.12
1087.46
1087.8
1088.15
1088.49
1088.83
1089.17
1089.51
1089.85
1090.19
1090.52
1090.86
1091.2
1091.54
1091.87
1092.21
1092.54
1092.88
1093.21
1093.55
1093.88
1094.22
1094.55
1094.89
1095.22
1095.56
1095.89
1096.23
1096.56
1096.9
1097.23
1097.57
1097.9
1098.24
1098.57
1098.91
1099.24
1099.57
1099.91
1100.24
1100.57
1100.9
1101.24
1101.57
1101.9
1102.23
1102.56
1102.89
1103.23
1103.56
1103.89
1104.22
1104.55
1104.89
1105.22
1105.55
1105.89
1106.22
1106.56
1106.89
1107.23
1107.56
1107.9
1108.23
1108.57
1108.91
1109.24
1109.58
1109.92
1110.26
1110.59
1110.93
1111.27
1111.6
1111.94
1112.28
1112.62
1112.95
1113.29
1113.63
1113.97
1114.31
1114.65
1115
1115.34
1115.69
1116.03
1116.38
1116.73
1117.08
1117.43
1117.78
1118.14
1118.49
1118.85
1119.21
1119.57
1119.93
1120.29
1120.65
1121.02
1121.38
1121.75
1122.11
1122.48
1122.84
1123.21
1123.58
1123.95
1124.31
1124.68
1125.05
1125.42
1125.79
1126.16
1126.53
1126.89
1127.26
1127.63
1128
1128.36
1128.73
1129.09
1129.45
1129.81
1130.17
1130.53
1130.89
1131.24
1131.59
1131.94
1132.29
1132.64
1132.98
1133.32
1133.66
1134
1134.34
1134.67
1135
1135.33
1135.66
1135.99
1136.31
1136.64
1136.96
1137.29
1137.61
1137.94
1138.26
1138.58
1138.91
1139.23
1139.56
1139.89
1140.21
1140.54
1140.87
1141.2
1141.54
1141.87
1142.2
1142.54
1142.88
1143.21
1143.55
1143.89
1144.23
1144.57
1144.91
1145.26
1145.6
1145.94
1146.29
1146.63
1146.98
1147.33
1147.67
1148.02
1148.37
1148.72
1149.07
1149.42
1149.77
1150.12
1150.47
1150.83
1151.18
1151.53
1151.88
1152.24
1152.59
1152.95
1153.3
1153.66
1154.01
1154.37
1154.73
1155.08
1155.44
1155.8
1156.15
1156.51
1156.87
1157.22
1157.58
1157.94
1158.29
1158.65
1159.01
1159.36
1159.72
1160.07
1160.43
1160.79
1161.14
1161.5
1161.86
1162.21
1162.57
1162.93
1163.29
1163.66
1164.02
1164.38
1164.74
1165.11
1165.47
1165.84
1166.2
1166.57
1166.93
1167.3
1167.66
1168.03
1168.39
1168.76
1169.13
1169.49
1169.86
1170.22
1170.58
1170.95
1171.31
1171.67
1172.03
1172.4
1172.76
1173.12
1173.48
1173.84
1174.19
1174.55
1174.91
1175.26
1175.62
1175.97
1176.33
1176.68
1177.04
1177.39
1177.75
1178.1
1178.46
1178.81
1179.17
1179.53
1179.89
1180.25
1180.62
1180.98
1181.36
1181.73
1182.15
1182.54
1183.03
1183.46
1184.09
1184.63
1185.53
1186.28
1187.64
1188.82
1190.83
1192.64
1195.26
1196.67
1198.39
1198.25
1199.85
932.854
935.163
936.928
939.433
941.148
943.084
944.431
945.781
946.788
947.751
948.54
949.27
949.908
950.497
951.039
951.558
952.05
952.519
952.97
953.409
953.835
954.252
954.663
955.069
955.47
955.868
956.262
956.653
957.041
957.425
957.808
958.189
958.567
958.943
959.319
959.694
960.068
960.442
960.814
961.187
961.559
961.93
962.3
962.671
963.04
963.41
963.779
964.148
964.517
964.885
965.253
965.62
965.986
966.352
966.718
967.083
967.447
967.811
968.174
968.537
968.899
969.261
969.622
969.983
970.343
970.702
971.061
971.42
971.778
972.135
972.492
972.848
973.203
973.558
973.913
974.268
974.623
974.977
975.331
975.684
976.036
976.388
976.74
977.091
977.443
977.793
978.144
978.494
978.844
979.194
979.543
979.892
980.241
980.591
980.941
981.291
981.641
981.991
982.342
982.693
983.042
983.391
983.741
984.092
984.442
984.793
985.143
985.494
985.846
986.197
986.548
986.899
987.251
987.602
987.953
988.304
988.654
989.004
989.355
989.705
990.054
990.404
990.752
991.1
991.448
991.796
992.143
992.489
992.835
993.181
993.526
993.871
994.215
994.559
994.902
995.245
995.588
995.93
996.272
996.613
996.954
997.295
997.636
997.976
998.316
998.656
998.996
999.336
999.676
1000.02
1000.36
1000.7
1001.04
1001.38
1001.72
1002.06
1002.41
1002.75
1003.09
1003.44
1003.78
1004.13
1004.48
1004.83
1005.17
1005.52
1005.87
1006.22
1006.57
1006.92
1007.27
1007.62
1007.97
1008.31
1008.66
1009.01
1009.36
1009.7
1010.05
1010.39
1010.73
1011.07
1011.42
1011.76
1012.1
1012.43
1012.77
1013.11
1013.45
1013.79
1014.13
1014.46
1014.8
1015.14
1015.48
1015.82
1016.16
1016.5
1016.84
1017.19
1017.53
1017.87
1018.22
1018.57
1018.91
1019.26
1019.61
1019.96
1020.31
1020.66
1021.01
1021.36
1021.71
1022.06
1022.41
1022.76
1023.11
1023.46
1023.81
1024.16
1024.51
1024.86
1025.2
1025.55
1025.9
1026.25
1026.59
1026.94
1027.29
1027.63
1027.98
1028.32
1028.67
1029.01
1029.35
1029.7
1030.04
1030.38
1030.73
1031.07
1031.41
1031.75
1032.1
1032.44
1032.78
1033.12
1033.47
1033.81
1034.15
1034.49
1034.84
1035.18
1035.52
1035.87
1036.21
1036.55
1036.9
1037.24
1037.58
1037.92
1038.27
1038.61
1038.95
1039.29
1039.63
1039.98
1040.32
1040.66
1040.99
1041.33
1041.67
1042.01
1042.35
1042.68
1043.02
1043.35
1043.69
1044.03
1044.36
1044.69
1045.03
1045.36
1045.7
1046.03
1046.37
1046.7
1047.04
1047.37
1047.71
1048.04
1048.38
1048.71
1049.05
1049.38
1049.72
1050.05
1050.39
1050.72
1051.05
1051.39
1051.72
1052.05
1052.38
1052.72
1053.05
1053.38
1053.71
1054.04
1054.37
1054.7
1055.04
1055.37
1055.7
1056.03
1056.37
1056.7
1057.03
1057.37
1057.7
1058.04
1058.37
1058.71
1059.04
1059.38
1059.72
1060.05
1060.39
1060.73
1061.06
1061.4
1061.74
1062.08
1062.41
1062.75
1063.09
1063.42
1063.76
1064.1
1064.44
1064.78
1065.12
1065.46
1065.8
1066.14
1066.49
1066.83
1067.18
1067.53
1067.87
1068.23
1068.58
1068.93
1069.28
1069.64
1070
1070.36
1070.72
1071.08
1071.44
1071.8
1072.16
1072.53
1072.89
1073.26
1073.62
1073.99
1074.36
1074.72
1075.09
1075.46
1075.83
1076.2
1076.57
1076.94
1077.3
1077.67
1078.04
1078.41
1078.78
1079.14
1079.51
1079.87
1080.24
1080.6
1080.96
1081.32
1081.68
1082.03
1082.39
1082.74
1083.09
1083.44
1083.78
1084.13
1084.47
1084.81
1085.15
1085.48
1085.82
1086.15
1086.48
1086.81
1087.13
1087.46
1087.79
1088.11
1088.43
1088.76
1089.08
1089.41
1089.73
1090.05
1090.38
1090.71
1091.03
1091.36
1091.69
1092.02
1092.35
1092.68
1093.02
1093.35
1093.69
1094.02
1094.36
1094.7
1095.04
1095.38
1095.72
1096.06
1096.4
1096.74
1097.09
1097.43
1097.78
1098.13
1098.47
1098.82
1099.17
1099.52
1099.87
1100.22
1100.57
1100.92
1101.27
1101.62
1101.97
1102.33
1102.68
1103.03
1103.38
1103.74
1104.09
1104.45
1104.8
1105.16
1105.52
1105.87
1106.23
1106.58
1106.94
1107.3
1107.66
1108.01
1108.37
1108.73
1109.08
1109.44
1109.8
1110.15
1110.51
1110.86
1111.22
1111.58
1111.93
1112.29
1112.65
1113
1113.36
1113.72
1114.08
1114.44
1114.8
1115.16
1115.53
1115.89
1116.25
1116.62
1116.98
1117.35
1117.71
1118.08
1118.44
1118.81
1119.18
1119.54
1119.91
1120.27
1120.64
1121
1121.37
1121.73
1122.09
1122.46
1122.82
1123.18
1123.54
1123.9
1124.26
1124.62
1124.98
1125.34
1125.7
1126.05
1126.41
1126.77
1127.12
1127.48
1127.83
1128.19
1128.54
1128.89
1129.25
1129.61
1129.96
1130.32
1130.67
1131.03
1131.39
1131.76
1132.12
1132.5
1132.87
1133.29
1133.67
1134.15
1134.57
1135.19
1135.69
1136.56
1137.25
1138.56
1139.63
1141.53
1143.17
1145.62
1147.13
1148.89
1149.27
1151.17
883.488
886.128
887.965
890.602
892.343
894.306
895.644
896.989
897.984
898.936
899.716
900.44
901.074
901.66
902.2
902.715
903.204
903.672
904.122
904.56
904.985
905.402
905.813
906.219
906.621
907.018
907.412
907.803
908.191
908.576
908.958
909.339
909.717
910.094
910.469
910.844
911.218
911.592
911.964
912.336
912.708
913.079
913.449
913.819
914.189
914.558
914.928
915.296
915.665
916.033
916.4
916.767
917.133
917.499
917.864
918.229
918.594
918.958
919.321
919.684
920.046
920.408
920.769
921.13
921.49
921.85
922.209
922.568
922.926
923.283
923.64
923.996
924.351
924.706
925.061
925.416
925.77
926.124
926.479
926.832
927.184
927.536
927.887
928.239
928.59
928.941
929.291
929.641
929.991
930.341
930.69
931.04
931.389
931.739
932.089
932.439
932.789
933.139
933.49
933.84
934.19
934.539
934.89
935.24
935.59
935.941
936.292
936.643
936.994
937.345
937.696
938.048
938.399
938.75
939.101
939.452
939.802
940.152
940.503
940.853
941.203
941.552
941.9
942.248
942.596
942.944
943.291
943.637
943.983
944.329
944.674
945.019
945.363
945.707
946.05
946.393
946.736
947.078
947.42
947.761
948.102
948.443
948.783
949.124
949.464
949.804
950.143
950.483
950.823
951.163
951.504
951.844
952.185
952.527
952.868
953.211
953.554
953.897
954.241
954.586
954.932
955.278
955.625
955.973
956.321
956.669
957.018
957.368
957.717
958.067
958.416
958.765
959.114
959.462
959.81
960.157
960.504
960.849
961.194
961.538
961.88
962.222
962.564
962.904
963.243
963.582
963.921
964.259
964.597
964.935
965.272
965.61
965.949
966.287
966.626
966.966
967.307
967.648
967.99
968.333
968.677
969.021
969.367
969.713
970.06
970.408
970.756
971.105
971.454
971.804
972.154
972.504
972.854
973.205
973.555
973.906
974.256
974.606
974.956
975.305
975.654
976.003
976.351
976.699
977.047
977.394
977.741
978.087
978.433
978.779
979.124
979.469
979.813
980.157
980.501
980.845
981.188
981.531
981.874
982.217
982.559
982.901
983.244
983.586
983.928
984.271
984.613
984.956
985.298
985.641
985.984
986.327
986.67
987.013
987.356
987.7
988.043
988.386
988.729
989.072
989.414
989.757
990.099
990.44
990.781
991.122
991.462
991.802
992.141
992.48
992.818
993.156
993.493
993.829
994.165
994.501
994.837
995.172
995.507
995.842
996.176
996.511
996.846
997.181
997.515
997.85
998.185
998.52
998.855
999.19
999.526
999.861
1000.2
1000.53
1000.87
1001.2
1001.53
1001.87
1002.2
1002.53
1002.87
1003.2
1003.53
1003.86
1004.19
1004.52
1004.86
1005.19
1005.52
1005.85
1006.18
1006.51
1006.85
1007.18
1007.51
1007.84
1008.18
1008.51
1008.85
1009.18
1009.52
1009.85
1010.19
1010.53
1010.86
1011.2
1011.54
1011.87
1012.21
1012.55
1012.89
1013.22
1013.56
1013.9
1014.23
1014.57
1014.91
1015.25
1015.58
1015.92
1016.26
1016.6
1016.95
1017.29
1017.63
1017.98
1018.32
1018.67
1019.02
1019.37
1019.72
1020.08
1020.43
1020.79
1021.14
1021.5
1021.86
1022.22
1022.58
1022.95
1023.31
1023.67
1024.04
1024.4
1024.77
1025.14
1025.5
1025.87
1026.24
1026.61
1026.98
1027.34
1027.71
1028.08
1028.45
1028.82
1029.19
1029.56
1029.92
1030.29
1030.66
1031.02
1031.38
1031.75
1032.11
1032.47
1032.83
1033.18
1033.54
1033.89
1034.24
1034.59
1034.93
1035.28
1035.62
1035.96
1036.29
1036.63
1036.96
1037.3
1037.63