/*--------------------------------*- C++ -*----------------------------------*\
| =========                 |                                                 |
| \\      /  F ield         | foam-extend: Open Source CFD                    |
|  \\    /   O peration     | Version:     3.2                                |
|   \\  /    A nd           | Web:         http://www.foam-extend.org         |
|    \\/     M anipulation  | For copyright notice see file Copyright         |
\*---------------------------------------------------------------------------*/
FoamFile
{
    version     2.0;
    format      ascii;
    class       volScalarField;
    location    "200";
    object      k;
}
// * * * * * * * * * * * * * * * * * * * * * * * * * * * * * * * * * * * * * //

dimensions      [0 2 -2 0 0 0 0];

internalField   nonuniform List<scalar> 
2400
(
0.00303776
0.00370993
0.00314654
0.00264182
0.0023691
0.00224767
0.00220399
0.00219813
0.00220567
0.00222085
0.00223956
0.00225813
0.0022766
0.00229565
0.00231422
0.00233316
0.00235302
0.00237292
0.00239298
0.00241322
0.00243339
0.00245363
0.00247433
0.0024953
0.00251531
0.0025336
0.00255
0.00256444
0.00257694
0.00258771
0.00259699
0.00260485
0.00261141
0.00261671
0.00262102
0.00262461
0.00262761
0.00263014
0.00263228
0.0026341
0.00263564
0.00263696
0.00263808
0.00263903
0.00263984
0.00264053
0.00264112
0.00264162
0.00264205
0.00264241
0.00264272
0.00264299
0.00264321
0.00264341
0.00264357
0.00264372
0.00264384
0.00264394
0.00264403
0.00264411
0.00264417
0.00264423
0.00264428
0.00264432
0.00264435
0.00264438
0.00264441
0.00264443
0.00264445
0.00264447
0.00264448
0.00264449
0.0026445
0.00264451
0.00264452
0.00264452
0.00264453
0.00264453
0.00264454
0.00264454
0.00264454
0.00264455
0.00264455
0.00264455
0.00264455
0.00264455
0.00264455
0.00264456
0.00264456
0.00264456
0.00264456
0.00264456
0.00264456
0.00264456
0.00264456
0.00264456
0.00264456
0.00264456
0.00264456
0.00264456
0.00264456
0.00264456
0.00264456
0.00264456
0.00264456
0.00264456
0.00264456
0.00264456
0.00264456
0.00264456
0.00264456
0.00264456
0.00264456
0.00264456
0.00264456
0.00264456
0.00264456
0.00264456
0.00264456
0.00264456
0.00264456
0.00264456
0.00264456
0.00264456
0.00264456
0.00264456
0.00264456
0.00264456
0.00264456
0.00264456
0.00264456
0.00264456
0.00264456
0.00264456
0.00264456
0.00264456
0.00264456
0.00264456
0.00264456
0.00264456
0.00264456
0.00264456
0.00264456
0.00264456
0.00264456
0.00264456
0.00264456
0.00264456
0.00264456
0.00264456
0.00264456
0.00264456
0.00264456
0.00264456
0.00264456
0.00264456
0.00264456
0.00264456
0.00264456
0.00264456
0.00264456
0.00264456
0.00264456
0.00264456
0.00264456
0.00264456
0.00264456
0.00264456
0.00264456
0.00264456
0.00264456
0.00264456
0.00264456
0.00264456
0.00264456
0.00264456
0.00264456
0.00264456
0.00264456
0.00264456
0.00264456
0.00264456
0.00264456
0.00264456
0.00264456
0.00264456
0.00264456
0.00264456
0.00264456
0.00264456
0.00264456
0.00264456
0.00264456
0.00264456
0.00264456
0.00264456
0.00264456
0.00264456
0.00264456
0.00264456
0.00264456
0.00264456
0.00264456
0.00264456
0.00264456
0.00264456
0.00264456
0.00264456
0.00264456
0.00264456
0.00264456
0.00264456
0.00264456
0.00264456
0.00264456
0.00264456
0.00264456
0.00264456
0.00264456
0.00264456
0.00264456
0.00264456
0.00264456
0.00264456
0.00264456
0.00264456
0.00264456
0.00264456
0.00264456
0.00264456
0.00264456
0.00264456
0.00264456
0.00264456
0.00264456
0.00264456
0.00264456
0.00264456
0.00264456
0.00264456
0.00264456
0.00264456
0.00264456
0.00264456
0.00264456
0.00264456
0.00264456
0.00264456
0.00264456
0.00264456
0.00264456
0.00264456
0.00264456
0.00264456
0.00264456
0.00264456
0.00264456
0.00264456
0.00264456
0.00264456
0.00264456
0.00264456
0.00264456
0.00264456
0.00264456
0.00264456
0.00264456
0.00264456
0.00264456
0.00264456
0.00264456
0.00264456
0.00264456
0.00264456
0.00264456
0.00264456
0.00264456
0.00264456
0.00264456
0.00264456
0.00264456
0.00264456
0.00264456
0.00264456
0.00264456
0.00264456
0.00264456
0.00264456
0.00264456
0.00264456
0.00264456
0.00264456
0.00264456
0.00264456
0.00264456
0.00264456
0.00264456
0.00264457
0.00264476
0.00264453
0.000696029
0.0010928
0.00143026
0.00166425
0.00179595
0.00187785
0.00193359
0.00197292
0.0020027
0.00202713
0.00204943
0.00206991
0.00208976
0.0021092
0.00212953
0.00214938
0.00216937
0.00218958
0.00221006
0.00223056
0.00225084
0.00227014
0.00228749
0.00230276
0.00231604
0.00232733
0.00233679
0.00234461
0.002351
0.00235619
0.00236041
0.00236383
0.00236659
0.00236877
0.0023705
0.0023719
0.00237305
0.00237402
0.00237484
0.00237553
0.00237611
0.0023766
0.00237702
0.00237737
0.00237767
0.00237792
0.00237813
0.00237832
0.00237847
0.00237861
0.00237872
0.00237882
0.0023789
0.00237897
0.00237903
0.00237909
0.00237913
0.00237917
0.0023792
0.00237923
0.00237926
0.00237928
0.00237929
0.00237931
0.00237932
0.00237934
0.00237934
0.00237935
0.00237936
0.00237937
0.00237937
0.00237938
0.00237938
0.00237938
0.00237939
0.00237939
0.00237939
0.00237939
0.00237939
0.00237939
0.0023794
0.0023794
0.0023794
0.0023794
0.0023794
0.0023794
0.0023794
0.0023794
0.0023794
0.0023794
0.0023794
0.0023794
0.0023794
0.0023794
0.0023794
0.0023794
0.0023794
0.0023794
0.0023794
0.0023794
0.0023794
0.0023794
0.0023794
0.0023794
0.0023794
0.0023794
0.0023794
0.0023794
0.0023794
0.0023794
0.0023794
0.0023794
0.0023794
0.0023794
0.0023794
0.0023794
0.0023794
0.0023794
0.0023794
0.0023794
0.0023794
0.0023794
0.0023794
0.0023794
0.0023794
0.0023794
0.0023794
0.0023794
0.0023794
0.0023794
0.0023794
0.0023794
0.0023794
0.0023794
0.0023794
0.0023794
0.0023794
0.0023794
0.0023794
0.0023794
0.0023794
0.0023794
0.0023794
0.0023794
0.0023794
0.0023794
0.0023794
0.0023794
0.0023794
0.0023794
0.0023794
0.0023794
0.0023794
0.0023794
0.0023794
0.0023794
0.0023794
0.0023794
0.0023794
0.0023794
0.0023794
0.0023794
0.0023794
0.0023794
0.0023794
0.0023794
0.0023794
0.0023794
0.0023794
0.0023794
0.0023794
0.0023794
0.0023794
0.0023794
0.0023794
0.0023794
0.0023794
0.0023794
0.0023794
0.0023794
0.0023794
0.0023794
0.0023794
0.0023794
0.0023794
0.0023794
0.0023794
0.0023794
0.0023794
0.0023794
0.0023794
0.0023794
0.0023794
0.0023794
0.0023794
0.0023794
0.0023794
0.0023794
0.0023794
0.0023794
0.0023794
0.0023794
0.0023794
0.0023794
0.0023794
0.0023794
0.0023794
0.0023794
0.0023794
0.0023794
0.0023794
0.0023794
0.0023794
0.0023794
0.0023794
0.0023794
0.0023794
0.0023794
0.0023794
0.0023794
0.0023794
0.0023794
0.0023794
0.0023794
0.0023794
0.0023794
0.0023794
0.0023794
0.0023794
0.0023794
0.0023794
0.0023794
0.0023794
0.0023794
0.0023794
0.0023794
0.0023794
0.0023794
0.0023794
0.0023794
0.0023794
0.0023794
0.0023794
0.0023794
0.0023794
0.0023794
0.0023794
0.0023794
0.0023794
0.0023794
0.0023794
0.0023794
0.0023794
0.0023794
0.0023794
0.0023794
0.0023794
0.0023794
0.0023794
0.0023794
0.0023794
0.0023794
0.0023794
0.0023794
0.0023794
0.0023794
0.0023794
0.0023794
0.0023794
0.0023794
0.0023794
0.0023794
0.0023794
0.0023794
0.0023794
0.0023794
0.0023794
0.0023794
0.0023794
0.0023794
0.0023794
0.0023794
0.0023794
0.0023794
0.0023794
0.0023794
0.0023794
0.0023794
0.0023794
0.0023794
0.0023794
0.0023794
0.0023794
0.0023794
0.0023794
0.0023794
0.0023794
0.0023794
0.00237932
0.00237936
0.000265824
0.00037345
0.000521938
0.000703968
0.000885206
0.00106193
0.00120779
0.00132362
0.0014179
0.00149501
0.00155735
0.0016085
0.00165177
0.00169007
0.00172392
0.00175382
0.00178167
0.00180724
0.00183165
0.00185444
0.00187542
0.00189398
0.00190909
0.00192095
0.00193003
0.00193668
0.00194131
0.00194432
0.00194611
0.00194699
0.00194722
0.00194701
0.0019465
0.00194586
0.00194518
0.00194453
0.00194393
0.0019434
0.00194292
0.0019425
0.00194212
0.00194179
0.0019415
0.00194125
0.00194103
0.00194083
0.00194067
0.00194053
0.0019404
0.0019403
0.00194021
0.00194013
0.00194007
0.00194001
0.00193997
0.00193993
0.00193989
0.00193987
0.00193984
0.00193982
0.0019398
0.00193979
0.00193978
0.00193977
0.00193976
0.00193975
0.00193974
0.00193974
0.00193973
0.00193973
0.00193972
0.00193972
0.00193972
0.00193972
0.00193971
0.00193971
0.00193971
0.00193971
0.00193971
0.00193971
0.00193971
0.00193971
0.00193971
0.00193971
0.00193971
0.0019397
0.0019397
0.0019397
0.0019397
0.0019397
0.0019397
0.0019397
0.0019397
0.0019397
0.0019397
0.0019397
0.0019397
0.0019397
0.0019397
0.0019397
0.0019397
0.0019397
0.0019397
0.0019397
0.0019397
0.0019397
0.0019397
0.0019397
0.0019397
0.0019397
0.0019397
0.0019397
0.0019397
0.0019397
0.0019397
0.0019397
0.0019397
0.0019397
0.0019397
0.0019397
0.0019397
0.0019397
0.0019397
0.0019397
0.0019397
0.0019397
0.0019397
0.0019397
0.0019397
0.0019397
0.0019397
0.0019397
0.0019397
0.0019397
0.0019397
0.0019397
0.0019397
0.0019397
0.0019397
0.0019397
0.0019397
0.0019397
0.0019397
0.0019397
0.0019397
0.0019397
0.0019397
0.0019397
0.0019397
0.0019397
0.0019397
0.0019397
0.0019397
0.0019397
0.0019397
0.0019397
0.0019397
0.0019397
0.0019397
0.0019397
0.0019397
0.0019397
0.0019397
0.0019397
0.0019397
0.0019397
0.0019397
0.0019397
0.0019397
0.0019397
0.0019397
0.0019397
0.0019397
0.0019397
0.0019397
0.0019397
0.0019397
0.0019397
0.0019397
0.0019397
0.0019397
0.0019397
0.0019397
0.0019397
0.0019397
0.0019397
0.0019397
0.0019397
0.0019397
0.0019397
0.0019397
0.0019397
0.0019397
0.0019397
0.0019397
0.0019397
0.0019397
0.0019397
0.0019397
0.0019397
0.0019397
0.0019397
0.0019397
0.0019397
0.0019397
0.0019397
0.0019397
0.0019397
0.0019397
0.0019397
0.0019397
0.0019397
0.0019397
0.0019397
0.0019397
0.0019397
0.0019397
0.0019397
0.0019397
0.0019397
0.0019397
0.0019397
0.0019397
0.0019397
0.0019397
0.0019397
0.0019397
0.0019397
0.0019397
0.0019397
0.0019397
0.0019397
0.0019397
0.0019397
0.0019397
0.0019397
0.0019397
0.0019397
0.0019397
0.0019397
0.0019397
0.0019397
0.0019397
0.0019397
0.0019397
0.0019397
0.0019397
0.0019397
0.0019397
0.0019397
0.0019397
0.0019397
0.0019397
0.0019397
0.0019397
0.0019397
0.0019397
0.0019397
0.0019397
0.0019397
0.0019397
0.0019397
0.0019397
0.0019397
0.0019397
0.0019397
0.0019397
0.0019397
0.0019397
0.0019397
0.0019397
0.0019397
0.0019397
0.0019397
0.0019397
0.0019397
0.0019397
0.0019397
0.0019397
0.0019397
0.0019397
0.0019397
0.0019397
0.0019397
0.0019397
0.0019397
0.0019397
0.0019397
0.0019397
0.0019397
0.0019397
0.0019397
0.0019397
0.0019397
0.0019397
0.0019397
0.0019397
0.00193969
0.00193969
0.00193968
0.000176064
0.000201273
0.000240368
0.000292595
0.000378427
0.000488935
0.000614822
0.000746089
0.000868218
0.00097767
0.00107394
0.00115798
0.00123097
0.00129488
0.00134959
0.00139621
0.00143685
0.00147227
0.00150352
0.00153059
0.00155388
0.00157206
0.00158651
0.00159718
0.00160448
0.00160892
0.00161114
0.00161168
0.00161108
0.00160973
0.00160788
0.00160578
0.00160358
0.00160149
0.00159959
0.00159791
0.00159644
0.00159516
0.00159403
0.00159305
0.00159219
0.00159145
0.0015908
0.00159025
0.00158977
0.00158935
0.001589
0.00158869
0.00158843
0.00158821
0.00158802
0.00158786
0.00158772
0.0015876
0.0015875
0.00158742
0.00158734
0.00158728
0.00158723
0.00158719
0.00158715
0.00158712
0.00158709
0.00158707
0.00158705
0.00158703
0.00158701
0.001587
0.00158699
0.00158698
0.00158697
0.00158697
0.00158696
0.00158696
0.00158695
0.00158695
0.00158695
0.00158694
0.00158694
0.00158694
0.00158694
0.00158694
0.00158693
0.00158693
0.00158693
0.00158693
0.00158693
0.00158693
0.00158693
0.00158693
0.00158693
0.00158693
0.00158693
0.00158693
0.00158693
0.00158693
0.00158693
0.00158693
0.00158693
0.00158693
0.00158693
0.00158693
0.00158693
0.00158692
0.00158692
0.00158692
0.00158692
0.00158692
0.00158692
0.00158692
0.00158692
0.00158692
0.00158692
0.00158692
0.00158692
0.00158692
0.00158692
0.00158692
0.00158692
0.00158692
0.00158692
0.00158692
0.00158692
0.00158692
0.00158692
0.00158692
0.00158692
0.00158692
0.00158692
0.00158692
0.00158692
0.00158692
0.00158692
0.00158692
0.00158692
0.00158692
0.00158692
0.00158692
0.00158692
0.00158692
0.00158692
0.00158692
0.00158692
0.00158692
0.00158692
0.00158692
0.00158692
0.00158692
0.00158692
0.00158692
0.00158692
0.00158692
0.00158692
0.00158692
0.00158692
0.00158692
0.00158692
0.00158692
0.00158692
0.00158692
0.00158692
0.00158692
0.00158692
0.00158692
0.00158692
0.00158692
0.00158692
0.00158692
0.00158692
0.00158692
0.00158692
0.00158692
0.00158692
0.00158692
0.00158692
0.00158692
0.00158692
0.00158692
0.00158692
0.00158692
0.00158692
0.00158692
0.00158692
0.00158692
0.00158692
0.00158692
0.00158692
0.00158692
0.00158692
0.00158692
0.00158692
0.00158692
0.00158692
0.00158692
0.00158692
0.00158692
0.00158692
0.00158692
0.00158692
0.00158692
0.00158692
0.00158692
0.00158692
0.00158692
0.00158692
0.00158692
0.00158692
0.00158692
0.00158692
0.00158692
0.00158692
0.00158692
0.00158692
0.00158692
0.00158692
0.00158692
0.00158692
0.00158692
0.00158692
0.00158692
0.00158692
0.00158692
0.00158692
0.00158692
0.00158692
0.00158692
0.00158692
0.00158692
0.00158692
0.00158692
0.00158692
0.00158692
0.00158692
0.00158692
0.00158692
0.00158692
0.00158692
0.00158692
0.00158692
0.00158692
0.00158692
0.00158692
0.00158692
0.00158692
0.00158692
0.00158692
0.00158692
0.00158692
0.00158692
0.00158692
0.00158692
0.00158692
0.00158692
0.00158692
0.00158692
0.00158692
0.00158692
0.00158692
0.00158692
0.00158692
0.00158692
0.00158692
0.00158692
0.00158692
0.00158692
0.00158692
0.00158692
0.00158692
0.00158692
0.00158692
0.00158692
0.00158692
0.00158692
0.00158692
0.00158692
0.00158692
0.00158692
0.00158692
0.00158692
0.00158692
0.00158692
0.00158692
0.00158692
0.00158692
0.00158692
0.00158692
0.00158692
0.00158692
0.00158692
0.00158692
0.00158692
0.00158692
0.00158692
0.00158692
0.00158692
0.00158692
0.00158692
0.00158692
0.00158692
0.00158692
0.000159099
0.000165199
0.000172255
0.000182139
0.000201886
0.000233608
0.000289111
0.000363918
0.000451847
0.000547603
0.000643177
0.000735439
0.00082169
0.00090068
0.000972826
0.00103682
0.00109282
0.00114134
0.0011828
0.0012177
0.00124711
0.00127107
0.00128904
0.00130198
0.00131082
0.00131634
0.00131941
0.00132067
0.00132075
0.00132003
0.00131875
0.00131716
0.00131543
0.0013138
0.00131234
0.00131105
0.00130991
0.00130891
0.00130803
0.00130725
0.00130657
0.00130598
0.00130547
0.00130503
0.00130464
0.00130431
0.00130403
0.00130379
0.00130358
0.0013034
0.00130325
0.00130312
0.00130301
0.00130292
0.00130284
0.00130277
0.00130271
0.00130267
0.00130263
0.00130259
0.00130256
0.00130254
0.00130252
0.0013025
0.00130248
0.00130247
0.00130246
0.00130245
0.00130244
0.00130243
0.00130243
0.00130242
0.00130242
0.00130242
0.00130241
0.00130241
0.00130241
0.00130241
0.0013024
0.0013024
0.0013024
0.0013024
0.0013024
0.0013024
0.0013024
0.0013024
0.0013024
0.00130239
0.00130239
0.00130239
0.00130239
0.00130239
0.00130239
0.00130239
0.00130239
0.00130239
0.00130239
0.00130239
0.00130239
0.00130239
0.00130239
0.00130239
0.00130239
0.00130239
0.00130239
0.00130239
0.00130239
0.00130239
0.00130239
0.00130239
0.00130239
0.00130239
0.00130239
0.00130239
0.00130239
0.00130239
0.00130239
0.00130239
0.00130239
0.00130239
0.00130239
0.00130239
0.00130239
0.00130239
0.00130239
0.00130239
0.00130239
0.00130239
0.00130239
0.00130239
0.00130239
0.00130239
0.00130239
0.00130239
0.00130239
0.00130239
0.00130239
0.00130239
0.00130239
0.00130239
0.00130239
0.00130239
0.00130239
0.00130239
0.00130239
0.00130239
0.00130239
0.00130239
0.00130239
0.00130239
0.00130239
0.00130239
0.00130239
0.00130239
0.00130239
0.00130239
0.00130239
0.00130239
0.00130239
0.00130239
0.00130239
0.00130239
0.00130239
0.00130239
0.00130239
0.00130239
0.00130239
0.00130239
0.00130239
0.00130239
0.00130239
0.00130239
0.00130239
0.00130239
0.00130239
0.00130239
0.00130239
0.00130239
0.00130239
0.00130239
0.00130239
0.00130239
0.00130239
0.00130239
0.00130239
0.00130239
0.00130239
0.00130239
0.00130239
0.00130239
0.00130239
0.00130239
0.00130239
0.00130239
0.00130239
0.00130239
0.00130239
0.00130239
0.00130239
0.00130239
0.00130239
0.00130239
0.00130239
0.00130239
0.00130239
0.00130239
0.00130239
0.00130239
0.00130239
0.00130239
0.00130239
0.00130239
0.00130239
0.00130239
0.00130239
0.00130239
0.00130239
0.00130239
0.00130239
0.00130239
0.00130239
0.00130239
0.00130239
0.00130239
0.00130239
0.00130239
0.00130239
0.00130239
0.00130239
0.00130239
0.00130239
0.00130239
0.00130239
0.00130239
0.00130239
0.00130239
0.00130239
0.00130239
0.00130239
0.00130239
0.00130239
0.00130239
0.00130239
0.00130239
0.00130239
0.00130239
0.00130239
0.00130239
0.00130239
0.00130239
0.00130239
0.00130239
0.00130239
0.00130239
0.00130239
0.00130239
0.00130239
0.00130239
0.00130239
0.00130239
0.00130239
0.00130239
0.00130239
0.00130239
0.00130239
0.00130239
0.00130239
0.00130239
0.00130239
0.00130239
0.00130239
0.00130239
0.00130239
0.00130239
0.00130239
0.00130239
0.00130239
0.00130239
0.00130239
0.00130239
0.00130239
0.00130239
0.00130239
0.00130239
0.00130239
0.00130239
0.00130239
0.00130239
0.00130239
0.00130239
0.00130239
0.00130239
0.00130239
0.00130239
0.00130239
0.00130239
0.00130239
0.00130239
0.00130239
0.00130239
0.000154997
0.000158384
0.000159678
0.000160453
0.00016271
0.000167886
0.000180215
0.000201045
0.000235916
0.000284434
0.000344352
0.000412351
0.000485252
0.00055863
0.000629528
0.00069711
0.000759635
0.000816085
0.000866135
0.000910274
0.000948471
0.00098064
0.00100643
0.00102629
0.00104132
0.00105251
0.00106081
0.00106693
0.00107146
0.00107473
0.001077
0.00107853
0.00107956
0.00108033
0.00108094
0.00108141
0.00108176
0.00108203
0.00108223
0.00108238
0.00108249
0.00108258
0.00108264
0.00108269
0.00108273
0.00108276
0.00108278
0.0010828
0.00108282
0.00108283
0.00108284
0.00108285
0.00108286
0.00108287
0.00108288
0.00108289
0.0010829
0.0010829
0.00108291
0.00108292
0.00108292
0.00108293
0.00108293
0.00108294
0.00108294
0.00108294
0.00108295
0.00108295
0.00108295
0.00108295
0.00108295
0.00108296
0.00108296
0.00108296
0.00108296
0.00108296
0.00108296
0.00108296
0.00108296
0.00108296
0.00108296
0.00108296
0.00108296
0.00108296
0.00108296
0.00108296
0.00108296
0.00108296
0.00108296
0.00108296
0.00108296
0.00108296
0.00108296
0.00108296
0.00108296
0.00108296
0.00108296
0.00108296
0.00108296
0.00108296
0.00108296
0.00108296
0.00108296
0.00108296
0.00108296
0.00108296
0.00108296
0.00108296
0.00108296
0.00108296
0.00108296
0.00108296
0.00108296
0.00108296
0.00108296
0.00108296
0.00108296
0.00108296
0.00108296
0.00108296
0.00108296
0.00108296
0.00108296
0.00108296
0.00108296
0.00108296
0.00108296
0.00108296
0.00108296
0.00108296
0.00108296
0.00108296
0.00108296
0.00108296
0.00108296
0.00108296
0.00108296
0.00108296
0.00108296
0.00108296
0.00108296
0.00108296
0.00108296
0.00108296
0.00108296
0.00108296
0.00108296
0.00108296
0.00108296
0.00108296
0.00108296
0.00108296
0.00108296
0.00108296
0.00108296
0.00108296
0.00108296
0.00108296
0.00108296
0.00108296
0.00108296
0.00108296
0.00108296
0.00108296
0.00108296
0.00108296
0.00108296
0.00108296
0.00108296
0.00108296
0.00108296
0.00108296
0.00108296
0.00108296
0.00108296
0.00108296
0.00108296
0.00108296
0.00108296
0.00108296
0.00108296
0.00108296
0.00108296
0.00108296
0.00108296
0.00108296
0.00108296
0.00108296
0.00108296
0.00108296
0.00108296
0.00108296
0.00108296
0.00108296
0.00108296
0.00108296
0.00108296
0.00108296
0.00108296
0.00108296
0.00108296
0.00108296
0.00108296
0.00108296
0.00108296
0.00108296
0.00108296
0.00108296
0.00108296
0.00108296
0.00108296
0.00108296
0.00108296
0.00108296
0.00108296
0.00108296
0.00108296
0.00108296
0.00108296
0.00108296
0.00108296
0.00108296
0.00108296
0.00108296
0.00108296
0.00108296
0.00108296
0.00108296
0.00108296
0.00108296
0.00108296
0.00108296
0.00108296
0.00108296
0.00108296
0.00108296
0.00108296
0.00108296
0.00108296
0.00108296
0.00108296
0.00108296
0.00108296
0.00108296
0.00108296
0.00108296
0.00108296
0.00108296
0.00108296
0.00108296
0.00108296
0.00108296
0.00108296
0.00108296
0.00108296
0.00108296
0.00108296
0.00108296
0.00108296
0.00108296
0.00108296
0.00108296
0.00108296
0.00108296
0.00108296
0.00108296
0.00108296
0.00108296
0.00108296
0.00108296
0.00108296
0.00108296
0.00108296
0.00108296
0.00108296
0.00108296
0.00108296
0.00108296
0.00108296
0.00108296
0.00108296
0.00108296
0.00108296
0.00108296
0.00108296
0.00108296
0.00108296
0.00108296
0.00108296
0.00108296
0.00108296
0.00108296
0.00108296
0.00108296
0.00108296
0.00108296
0.00108296
0.00108296
0.00108296
0.00108296
0.000153629
0.000156697
0.000157675
0.000156998
0.000155805
0.000154941
0.000155777
0.000159099
0.000166856
0.000180669
0.000201541
0.000232074
0.000271959
0.000319483
0.000372374
0.000427499
0.000482984
0.000537339
0.000588995
0.000637905
0.00068326
0.000724075
0.000759526
0.000789541
0.000814756
0.000835781
0.000853184
0.000867488
0.000879198
0.0008887
0.000896346
0.000902486
0.000907453
0.000911556
0.000914961
0.000917785
0.000920134
0.000922091
0.000923725
0.000925093
0.000926242
0.000927208
0.000928023
0.000928711
0.000929294
0.000929789
0.000930209
0.000930567
0.000930873
0.000931134
0.000931357
0.000931548
0.000931712
0.000931853
0.000931974
0.000932079
0.000932168
0.000932246
0.000932312
0.00093237
0.00093242
0.000932463
0.0009325
0.000932531
0.000932559
0.000932582
0.000932602
0.00093262
0.000932635
0.000932647
0.000932658
0.000932668
0.000932676
0.000932684
0.00093269
0.000932694
0.000932698
0.000932702
0.000932705
0.000932707
0.000932709
0.000932711
0.000932713
0.000932714
0.000932715
0.000932716
0.000932717
0.000932717
0.000932718
0.000932718
0.000932719
0.00093272
0.000932721
0.000932721
0.000932721
0.000932722
0.000932722
0.000932722
0.000932722
0.000932722
0.000932723
0.000932723
0.000932723
0.000932723
0.000932722
0.000932722
0.000932722
0.000932722
0.000932722
0.000932722
0.000932722
0.000932722
0.000932722
0.000932722
0.000932722
0.000932722
0.000932722
0.000932722
0.000932722
0.000932722
0.000932722
0.000932722
0.000932722
0.000932722
0.000932722
0.000932722
0.000932721
0.000932721
0.000932721
0.000932721
0.000932721
0.000932721
0.000932721
0.000932721
0.000932721
0.000932721
0.000932721
0.000932721
0.000932721
0.000932721
0.000932721
0.000932721
0.000932721
0.000932721
0.000932721
0.000932721
0.000932721
0.000932721
0.000932721
0.000932721
0.000932721
0.000932721
0.000932721
0.000932721
0.000932721
0.000932721
0.000932721
0.000932721
0.000932721
0.000932721
0.000932721
0.000932721
0.000932721
0.000932721
0.000932721
0.000932721
0.000932721
0.000932721
0.000932721
0.000932721
0.000932721
0.000932721
0.000932721
0.000932721
0.000932721
0.000932721
0.000932721
0.000932721
0.000932721
0.000932721
0.000932721
0.000932721
0.000932721
0.000932721
0.000932721
0.000932721
0.000932721
0.000932721
0.000932721
0.000932721
0.000932721
0.000932721
0.000932721
0.000932721
0.000932721
0.000932721
0.000932721
0.000932721
0.000932721
0.000932721
0.000932721
0.000932721
0.000932721
0.000932721
0.000932721
0.000932721
0.000932721
0.000932721
0.000932721
0.000932721
0.000932721
0.000932721
0.000932721
0.000932721
0.00093272
0.00093272
0.00093272
0.00093272
0.000932721
0.000932721
0.000932721
0.000932721
0.000932721
0.00093272
0.00093272
0.00093272
0.000932721
0.000932721
0.000932721
0.000932721
0.000932721
0.00093272
0.00093272
0.00093272
0.00093272
0.00093272
0.00093272
0.00093272
0.00093272
0.00093272
0.00093272
0.00093272
0.00093272
0.00093272
0.00093272
0.00093272
0.00093272
0.00093272
0.00093272
0.00093272
0.00093272
0.00093272
0.00093272
0.00093272
0.00093272
0.00093272
0.00093272
0.00093272
0.00093272
0.00093272
0.00093272
0.00093272
0.00093272
0.00093272
0.00093272
0.00093272
0.00093272
0.00093272
0.00093272
0.00093272
0.00093272
0.00093272
0.00093272
0.00093272
0.00093272
0.00093272
0.00093272
0.00093272
0.00093272
0.00093272
0.00093272
0.00093272
0.00093272
0.00093272
0.00093272
0.00093272
0.00093272
0.00093272
0.00093272
0.00093272
0.00093272
0.00093272
0.00093272
0.00093272
0.00093272
0.00093272
0.00093272
0.000932719
0.000932719
0.00093272
0.000153258
0.000156208
0.000157334
0.00015654
0.000154723
0.000152657
0.000150951
0.000150001
0.000150535
0.00015338
0.000159637
0.00017056
0.000187381
0.000210937
0.000239397
0.000274118
0.000314565
0.000359484
0.000408036
0.00045837
0.00050831
0.000556272
0.000600973
0.000641703
0.00067681
0.000706879
0.000732202
0.000753365
0.000770829
0.000785266
0.000797094
0.000806714
0.000814554
0.000820991
0.000826373
0.00083088
0.000834655
0.000837821
0.000840481
0.000842719
0.000844606
0.0008462
0.00084755
0.000848693
0.000849663
0.000850487
0.000851189
0.000851787
0.000852297
0.000852732
0.000853105
0.000853423
0.000853696
0.00085393
0.00085413
0.000854302
0.00085445
0.000854576
0.000854686
0.00085478
0.00085486
0.00085493
0.00085499
0.000855041
0.000855085
0.000855122
0.000855155
0.000855183
0.000855207
0.000855228
0.000855245
0.00085526
0.000855274
0.000855285
0.000855295
0.000855302
0.000855309
0.000855315
0.00085532
0.000855324
0.000855327
0.00085533
0.000855333
0.000855335
0.000855337
0.000855339
0.00085534
0.000855341
0.000855342
0.000855343
0.000855344
0.000855345
0.000855346
0.000855346
0.000855347
0.000855347
0.000855348
0.000855348
0.000855348
0.000855348
0.000855349
0.000855349
0.000855349
0.000855349
0.000855349
0.000855349
0.000855349
0.000855349
0.000855349
0.000855349
0.000855349
0.000855349
0.000855349
0.000855349
0.000855349
0.000855349
0.000855349
0.000855349
0.000855349
0.000855349
0.000855349
0.000855348
0.000855348
0.000855348
0.000855348
0.000855348
0.000855348
0.000855348
0.000855348
0.000855348
0.000855348
0.000855348
0.000855348
0.000855348
0.000855348
0.000855348
0.000855348
0.000855348
0.000855348
0.000855348
0.000855348
0.000855348
0.000855348
0.000855348
0.000855348
0.000855348
0.000855348
0.000855348
0.000855348
0.000855348
0.000855348
0.000855348
0.000855348
0.000855348
0.000855348
0.000855348
0.000855348
0.000855348
0.000855348
0.000855348
0.000855348
0.000855348
0.000855348
0.000855348
0.000855348
0.000855348
0.000855348
0.000855348
0.000855348
0.000855348
0.000855348
0.000855348
0.000855348
0.000855348
0.000855348
0.000855348
0.000855348
0.000855348
0.000855348
0.000855348
0.000855348
0.000855348
0.000855348
0.000855348
0.000855348
0.000855348
0.000855348
0.000855348
0.000855348
0.000855347
0.000855347
0.000855347
0.000855347
0.000855347
0.000855347
0.000855347
0.000855347
0.000855347
0.000855347
0.000855347
0.000855347
0.000855347
0.000855347
0.000855347
0.000855347
0.000855347
0.000855347
0.000855347
0.000855347
0.000855347
0.000855347
0.000855347
0.000855347
0.000855347
0.000855347
0.000855347
0.000855347
0.000855347
0.000855347
0.000855347
0.000855347
0.000855347
0.000855347
0.000855347
0.000855347
0.000855347
0.000855347
0.000855347
0.000855347
0.000855347
0.000855347
0.000855347
0.000855347
0.000855347
0.000855347
0.000855347
0.000855347
0.000855347
0.000855347
0.000855347
0.000855347
0.000855347
0.000855347
0.000855347
0.000855347
0.000855347
0.000855347
0.000855347
0.000855347
0.000855347
0.000855347
0.000855347
0.000855347
0.000855347
0.000855347
0.000855347
0.000855347
0.000855347
0.000855347
0.000855347
0.000855347
0.000855347
0.000855347
0.000855347
0.000855347
0.000855347
0.000855347
0.000855347
0.000855347
0.000855347
0.000855347
0.000855347
0.000855347
0.000855347
0.000855347
0.000855347
0.000855347
0.000855347
0.000855347
0.000855347
0.000855347
0.000855347
0.000855347
0.000855347
0.000855347
0.000855347
0.000855347
0.000855347
0.000855347
0.000855347
0.000855347
0.000855347
0.000855347
0.000855347
0.000855347
0.000855347
0.000855347
0.000855346
0.000855346
0.000855346
)
;

boundaryField
{
    inlet
    {
        type            fixedValue;
        value           uniform 0.00014968;
    }
    outlet
    {
        type            zeroGradient;
    }
    sideWall
    {
        type            empty;
    }
    bed
    {
        type            kqRWallFunction;
        value           nonuniform List<scalar> 
300
(
0.00303776
0.00370993
0.00314654
0.00264182
0.0023691
0.00224767
0.00220399
0.00219813
0.00220567
0.00222085
0.00223956
0.00225813
0.0022766
0.00229565
0.00231422
0.00233316
0.00235302
0.00237292
0.00239298
0.00241322
0.00243339
0.00245363
0.00247433
0.0024953
0.00251531
0.0025336
0.00255
0.00256444
0.00257694
0.00258771
0.00259699
0.00260485
0.00261141
0.00261671
0.00262102
0.00262461
0.00262761
0.00263014
0.00263228
0.0026341
0.00263564
0.00263696
0.00263808
0.00263903
0.00263984
0.00264053
0.00264112
0.00264162
0.00264205
0.00264241
0.00264272
0.00264299
0.00264321
0.00264341
0.00264357
0.00264372
0.00264384
0.00264394
0.00264403
0.00264411
0.00264417
0.00264423
0.00264428
0.00264432
0.00264435
0.00264438
0.00264441
0.00264443
0.00264445
0.00264447
0.00264448
0.00264449
0.0026445
0.00264451
0.00264452
0.00264452
0.00264453
0.00264453
0.00264454
0.00264454
0.00264454
0.00264455
0.00264455
0.00264455
0.00264455
0.00264455
0.00264455
0.00264456
0.00264456
0.00264456
0.00264456
0.00264456
0.00264456
0.00264456
0.00264456
0.00264456
0.00264456
0.00264456
0.00264456
0.00264456
0.00264456
0.00264456
0.00264456
0.00264456
0.00264456
0.00264456
0.00264456
0.00264456
0.00264456
0.00264456
0.00264456
0.00264456
0.00264456
0.00264456
0.00264456
0.00264456
0.00264456
0.00264456
0.00264456
0.00264456
0.00264456
0.00264456
0.00264456
0.00264456
0.00264456
0.00264456
0.00264456
0.00264456
0.00264456
0.00264456
0.00264456
0.00264456
0.00264456
0.00264456
0.00264456
0.00264456
0.00264456
0.00264456
0.00264456
0.00264456
0.00264456
0.00264456
0.00264456
0.00264456
0.00264456
0.00264456
0.00264456
0.00264456
0.00264456
0.00264456
0.00264456
0.00264456
0.00264456
0.00264456
0.00264456
0.00264456
0.00264456
0.00264456
0.00264456
0.00264456
0.00264456
0.00264456
0.00264456
0.00264456
0.00264456
0.00264456
0.00264456
0.00264456
0.00264456
0.00264456
0.00264456
0.00264456
0.00264456
0.00264456
0.00264456
0.00264456
0.00264456
0.00264456
0.00264456
0.00264456
0.00264456
0.00264456
0.00264456
0.00264456
0.00264456
0.00264456
0.00264456
0.00264456
0.00264456
0.00264456
0.00264456
0.00264456
0.00264456
0.00264456
0.00264456
0.00264456
0.00264456
0.00264456
0.00264456
0.00264456
0.00264456
0.00264456
0.00264456
0.00264456
0.00264456
0.00264456
0.00264456
0.00264456
0.00264456
0.00264456
0.00264456
0.00264456
0.00264456