/*--------------------------------*- C++ -*----------------------------------*\
| =========                 |                                                 |
| \\      /  F ield         | foam-extend: Open Source CFD                    |
|  \\    /   O peration     | Version:     3.2                                |
|   \\  /    A nd           | Web:         http://www.foam-extend.org         |
|    \\/     M anipulation  | For copyright notice see file Copyright         |
\*---------------------------------------------------------------------------*/
FoamFile
{
    version     2.0;
    format      ascii;
    class       volScalarField;
    location    "200";
    object      nut;
}
// * * * * * * * * * * * * * * * * * * * * * * * * * * * * * * * * * * * * * //

dimensions      [0 2 -1 0 0 0 0];

internalField   nonuniform List<scalar> 
2400
(
2.2864e-05
2.53347e-05
2.00248e-05
1.66173e-05
1.551e-05
1.5048e-05
1.49411e-05
1.52372e-05
1.5633e-05
1.60449e-05
1.6405e-05
1.67183e-05
1.69687e-05
1.72109e-05
1.74094e-05
1.75918e-05
1.77642e-05
1.79151e-05
1.80508e-05
1.81753e-05
1.82878e-05
1.83963e-05
1.85137e-05
1.86365e-05
1.87524e-05
1.88565e-05
1.89478e-05
1.90256e-05
1.90906e-05
1.91445e-05
1.9189e-05
1.92247e-05
1.92526e-05
1.92736e-05
1.92896e-05
1.93023e-05
1.93121e-05
1.932e-05
1.93264e-05
1.93316e-05
1.93359e-05
1.93395e-05
1.93425e-05
1.9345e-05
1.93471e-05
1.93489e-05
1.93503e-05
1.93516e-05
1.93526e-05
1.93535e-05
1.93543e-05
1.93549e-05
1.93555e-05
1.93559e-05
1.93563e-05
1.93567e-05
1.9357e-05
1.93572e-05
1.93575e-05
1.93577e-05
1.93578e-05
1.9358e-05
1.93581e-05
1.93582e-05
1.93583e-05
1.93583e-05
1.93584e-05
1.93585e-05
1.93585e-05
1.93585e-05
1.93586e-05
1.93586e-05
1.93586e-05
1.93587e-05
1.93587e-05
1.93587e-05
1.93587e-05
1.93587e-05
1.93587e-05
1.93587e-05
1.93587e-05
1.93587e-05
1.93588e-05
1.93588e-05
1.93588e-05
1.93588e-05
1.93588e-05
1.93588e-05
1.93588e-05
1.93588e-05
1.93588e-05
1.93588e-05
1.93588e-05
1.93588e-05
1.93588e-05
1.93588e-05
1.93588e-05
1.93588e-05
1.93588e-05
1.93588e-05
1.93588e-05
1.93588e-05
1.93588e-05
1.93588e-05
1.93588e-05
1.93588e-05
1.93588e-05
1.93588e-05
1.93588e-05
1.93588e-05
1.93588e-05
1.93588e-05
1.93588e-05
1.93588e-05
1.93588e-05
1.93588e-05
1.93588e-05
1.93588e-05
1.93588e-05
1.93588e-05
1.93588e-05
1.93588e-05
1.93588e-05
1.93588e-05
1.93588e-05
1.93588e-05
1.93588e-05
1.93588e-05
1.93588e-05
1.93588e-05
1.93588e-05
1.93588e-05
1.93588e-05
1.93588e-05
1.93588e-05
1.93588e-05
1.93588e-05
1.93588e-05
1.93588e-05
1.93588e-05
1.93588e-05
1.93588e-05
1.93588e-05
1.93588e-05
1.93588e-05
1.93588e-05
1.93588e-05
1.93588e-05
1.93588e-05
1.93588e-05
1.93588e-05
1.93588e-05
1.93588e-05
1.93588e-05
1.93588e-05
1.93588e-05
1.93588e-05
1.93588e-05
1.93588e-05
1.93588e-05
1.93588e-05
1.93588e-05
1.93588e-05
1.93588e-05
1.93588e-05
1.93588e-05
1.93588e-05
1.93588e-05
1.93588e-05
1.93588e-05
1.93588e-05
1.93588e-05
1.93588e-05
1.93588e-05
1.93588e-05
1.93588e-05
1.93588e-05
1.93588e-05
1.93588e-05
1.93588e-05
1.93588e-05
1.93588e-05
1.93588e-05
1.93588e-05
1.93588e-05
1.93588e-05
1.93588e-05
1.93588e-05
1.93588e-05
1.93588e-05
1.93588e-05
1.93588e-05
1.93588e-05
1.93588e-05
1.93588e-05
1.93588e-05
1.93588e-05
1.93588e-05
1.93588e-05
1.93588e-05
1.93588e-05
1.93588e-05
1.93588e-05
1.93588e-05
1.93588e-05
1.93588e-05
1.93588e-05
1.93588e-05
1.93588e-05
1.93588e-05
1.93588e-05
1.93588e-05
1.93588e-05
1.93588e-05
1.93588e-05
1.93588e-05
1.93588e-05
1.93588e-05
1.93588e-05
1.93588e-05
1.93588e-05
1.93588e-05
1.93588e-05
1.93588e-05
1.93588e-05
1.93588e-05
1.93588e-05
1.93588e-05
1.93588e-05
1.93588e-05
1.93588e-05
1.93588e-05
1.93588e-05
1.93588e-05
1.93588e-05
1.93588e-05
1.93588e-05
1.93588e-05
1.93588e-05
1.93588e-05
1.93588e-05
1.93588e-05
1.93588e-05
1.93588e-05
1.93588e-05
1.93588e-05
1.93588e-05
1.93588e-05
1.93588e-05
1.93588e-05
1.93588e-05
1.93588e-05
1.93588e-05
1.93588e-05
1.93588e-05
1.93588e-05
1.93588e-05
1.93588e-05
1.93588e-05
1.93588e-05
1.93588e-05
1.93588e-05
1.93588e-05
1.93588e-05
1.93588e-05
1.93588e-05
1.93588e-05
1.93588e-05
1.93588e-05
1.93588e-05
1.93588e-05
1.93588e-05
1.93588e-05
1.93588e-05
1.93588e-05
1.93588e-05
1.93588e-05
1.93588e-05
1.93588e-05
1.93588e-05
1.93588e-05
1.93588e-05
1.93588e-05
1.93588e-05
1.93588e-05
1.93588e-05
1.93588e-05
1.93588e-05
1.93588e-05
1.93588e-05
1.93588e-05
1.93588e-05
1.93588e-05
1.93588e-05
1.93588e-05
1.93588e-05
1.93588e-05
1.93588e-05
1.93628e-05
1.93573e-05
1.58605e-05
1.82461e-05
2.44293e-05
2.74815e-05
2.97327e-05
3.18965e-05
3.38519e-05
3.55209e-05
3.69569e-05
3.82057e-05
3.92528e-05
4.01555e-05
4.09242e-05
4.16192e-05
4.22028e-05
4.2743e-05
4.323e-05
4.36622e-05
4.40592e-05
4.44247e-05
4.47574e-05
4.5067e-05
4.53579e-05
4.56173e-05
4.58374e-05
4.60189e-05
4.61649e-05
4.62791e-05
4.63666e-05
4.64321e-05
4.64804e-05
4.65146e-05
4.65381e-05
4.65534e-05
4.65632e-05
4.65692e-05
4.65727e-05
4.65748e-05
4.6576e-05
4.65766e-05
4.65769e-05
4.6577e-05
4.65769e-05
4.65767e-05
4.65765e-05
4.65762e-05
4.65759e-05
4.65757e-05
4.65754e-05
4.65752e-05
4.6575e-05
4.65748e-05
4.65747e-05
4.65746e-05
4.65745e-05
4.65744e-05
4.65744e-05
4.65743e-05
4.65743e-05
4.65742e-05
4.65742e-05
4.65742e-05
4.65742e-05
4.65742e-05
4.65742e-05
4.65742e-05
4.65741e-05
4.65741e-05
4.65741e-05
4.65741e-05
4.65741e-05
4.65741e-05
4.65742e-05
4.65742e-05
4.65742e-05
4.65742e-05
4.65742e-05
4.65741e-05
4.65741e-05
4.65741e-05
4.65741e-05
4.65741e-05
4.65741e-05
4.65741e-05
4.65741e-05
4.65741e-05
4.65741e-05
4.65741e-05
4.65741e-05
4.65741e-05
4.65741e-05
4.65741e-05
4.65741e-05
4.65741e-05
4.65741e-05
4.65741e-05
4.65741e-05
4.65741e-05
4.65741e-05
4.65741e-05
4.65741e-05
4.65741e-05
4.65741e-05
4.65741e-05
4.65741e-05
4.65741e-05
4.65741e-05
4.65741e-05
4.65741e-05
4.65741e-05
4.65741e-05
4.65741e-05
4.65741e-05
4.65741e-05
4.65741e-05
4.65741e-05
4.65741e-05
4.65741e-05
4.65741e-05
4.65741e-05
4.65741e-05
4.65741e-05
4.65741e-05
4.65741e-05
4.65741e-05
4.65741e-05
4.65741e-05
4.65741e-05
4.65741e-05
4.65741e-05
4.65741e-05
4.65741e-05
4.65741e-05
4.65741e-05
4.65741e-05
4.65741e-05
4.65741e-05
4.65741e-05
4.65741e-05
4.65741e-05
4.65741e-05
4.65741e-05
4.65741e-05
4.65741e-05
4.65741e-05
4.65741e-05
4.65741e-05
4.65741e-05
4.65741e-05
4.65741e-05
4.65741e-05
4.65741e-05
4.65741e-05
4.65741e-05
4.65741e-05
4.65741e-05
4.65741e-05
4.65741e-05
4.65741e-05
4.65741e-05
4.65741e-05
4.65741e-05
4.65741e-05
4.65741e-05
4.65741e-05
4.65741e-05
4.65741e-05
4.65741e-05
4.65741e-05
4.65741e-05
4.65741e-05
4.65741e-05
4.65741e-05
4.65741e-05
4.65741e-05
4.65741e-05
4.65741e-05
4.65741e-05
4.65741e-05
4.65741e-05
4.65741e-05
4.65741e-05
4.65741e-05
4.65741e-05
4.65741e-05
4.65741e-05
4.65741e-05
4.65741e-05
4.65741e-05
4.65741e-05
4.65741e-05
4.65741e-05
4.65741e-05
4.65741e-05
4.65741e-05
4.65741e-05
4.65741e-05
4.65741e-05
4.65741e-05
4.65741e-05
4.65741e-05
4.65741e-05
4.65741e-05
4.65741e-05
4.65741e-05
4.65741e-05
4.65741e-05
4.65741e-05
4.65741e-05
4.65741e-05
4.65741e-05
4.65741e-05
4.65741e-05
4.65741e-05
4.65741e-05
4.65741e-05
4.65741e-05
4.65741e-05
4.65741e-05
4.65741e-05
4.65741e-05
4.65741e-05
4.65741e-05
4.65741e-05
4.65741e-05
4.65741e-05
4.65741e-05
4.65741e-05
4.65741e-05
4.65741e-05
4.65741e-05
4.65741e-05
4.65741e-05
4.65741e-05
4.65741e-05
4.65741e-05
4.65741e-05
4.65741e-05
4.65741e-05
4.65741e-05
4.65741e-05
4.65741e-05
4.65741e-05
4.65741e-05
4.65741e-05
4.65741e-05
4.65741e-05
4.65741e-05
4.65741e-05
4.65741e-05
4.65741e-05
4.65741e-05
4.65741e-05
4.65741e-05
4.65741e-05
4.65741e-05
4.65741e-05
4.65741e-05
4.65741e-05
4.65741e-05
4.65741e-05
4.65741e-05
4.65741e-05
4.65741e-05
4.65741e-05
4.65741e-05
4.65741e-05
4.65741e-05
4.65741e-05
4.65741e-05
4.65741e-05
4.65741e-05
4.65741e-05
4.65741e-05
4.65741e-05
4.65741e-05
4.65741e-05
4.65741e-05
4.65741e-05
4.65741e-05
4.65741e-05
4.65741e-05
4.65741e-05
4.65741e-05
4.65741e-05
4.65741e-05
4.65741e-05
4.65741e-05
4.65741e-05
4.65741e-05
4.65741e-05
4.65741e-05
4.65741e-05
4.65741e-05
4.65741e-05
4.65741e-05
4.65741e-05
4.65741e-05
4.6578e-05
4.65724e-05
1.79685e-05
1.48759e-05
1.73814e-05
2.15428e-05
2.64539e-05
3.15695e-05
3.5794e-05
3.98741e-05
4.35889e-05
4.69021e-05
4.98789e-05
5.25103e-05
5.48721e-05
5.69163e-05
5.85447e-05
5.99119e-05
6.11452e-05
6.22576e-05
6.32754e-05
6.42026e-05
6.50446e-05
6.57858e-05
6.64164e-05
6.69397e-05
6.73641e-05
6.77014e-05
6.79653e-05
6.81686e-05
6.83238e-05
6.8442e-05
6.85307e-05
6.85962e-05
6.86436e-05
6.86784e-05
6.87055e-05
6.87274e-05
6.87455e-05
6.87606e-05
6.87732e-05
6.87837e-05
6.87924e-05
6.87997e-05
6.88058e-05
6.88109e-05
6.88152e-05
6.88188e-05
6.88219e-05
6.88245e-05
6.88267e-05
6.88286e-05
6.88303e-05
6.88317e-05
6.8833e-05
6.8834e-05
6.88349e-05
6.88357e-05
6.88364e-05
6.88371e-05
6.88376e-05
6.88381e-05
6.88385e-05
6.88388e-05
6.88391e-05
6.88394e-05
6.88397e-05
6.88399e-05
6.884e-05
6.88401e-05
6.88403e-05
6.88403e-05
6.88404e-05
6.88406e-05
6.88406e-05
6.88407e-05
6.88408e-05
6.88408e-05
6.88407e-05
6.88408e-05
6.88409e-05
6.88409e-05
6.88409e-05
6.88408e-05
6.88408e-05
6.88408e-05
6.88409e-05
6.88409e-05
6.8841e-05
6.8841e-05
6.88409e-05
6.88409e-05
6.88409e-05
6.88409e-05
6.8841e-05
6.8841e-05
6.8841e-05
6.8841e-05
6.8841e-05
6.8841e-05
6.8841e-05
6.8841e-05
6.8841e-05
6.8841e-05
6.8841e-05
6.8841e-05
6.8841e-05
6.8841e-05
6.8841e-05
6.8841e-05
6.8841e-05
6.8841e-05
6.8841e-05
6.8841e-05
6.8841e-05
6.8841e-05
6.8841e-05
6.8841e-05
6.8841e-05
6.8841e-05
6.8841e-05
6.8841e-05
6.8841e-05
6.8841e-05
6.8841e-05
6.8841e-05
6.8841e-05
6.8841e-05
6.8841e-05
6.8841e-05
6.8841e-05
6.8841e-05
6.8841e-05
6.8841e-05
6.8841e-05
6.8841e-05
6.8841e-05
6.8841e-05
6.8841e-05
6.8841e-05
6.8841e-05
6.8841e-05
6.8841e-05
6.8841e-05
6.8841e-05
6.8841e-05
6.8841e-05
6.8841e-05
6.8841e-05
6.8841e-05
6.8841e-05
6.8841e-05
6.8841e-05
6.8841e-05
6.8841e-05
6.8841e-05
6.8841e-05
6.8841e-05
6.8841e-05
6.8841e-05
6.8841e-05
6.8841e-05
6.8841e-05
6.8841e-05
6.8841e-05
6.8841e-05
6.8841e-05
6.8841e-05
6.8841e-05
6.8841e-05
6.8841e-05
6.8841e-05
6.8841e-05
6.8841e-05
6.8841e-05
6.8841e-05
6.8841e-05
6.8841e-05
6.8841e-05
6.8841e-05
6.8841e-05
6.8841e-05
6.8841e-05
6.8841e-05
6.8841e-05
6.8841e-05
6.8841e-05
6.8841e-05
6.8841e-05
6.8841e-05
6.8841e-05
6.8841e-05
6.8841e-05
6.8841e-05
6.8841e-05
6.8841e-05
6.8841e-05
6.8841e-05
6.8841e-05
6.8841e-05
6.8841e-05
6.8841e-05
6.8841e-05
6.8841e-05
6.8841e-05
6.8841e-05
6.8841e-05
6.8841e-05
6.8841e-05
6.8841e-05
6.8841e-05
6.8841e-05
6.8841e-05
6.8841e-05
6.8841e-05
6.8841e-05
6.8841e-05
6.8841e-05
6.8841e-05
6.8841e-05
6.8841e-05
6.8841e-05
6.8841e-05
6.8841e-05
6.8841e-05
6.8841e-05
6.8841e-05
6.8841e-05
6.8841e-05
6.8841e-05
6.8841e-05
6.8841e-05
6.8841e-05
6.8841e-05
6.8841e-05
6.8841e-05
6.8841e-05
6.8841e-05
6.8841e-05
6.8841e-05
6.8841e-05
6.8841e-05
6.8841e-05
6.8841e-05
6.8841e-05
6.8841e-05
6.8841e-05
6.8841e-05
6.8841e-05
6.8841e-05
6.8841e-05
6.8841e-05
6.8841e-05
6.8841e-05
6.8841e-05
6.8841e-05
6.8841e-05
6.8841e-05
6.8841e-05
6.8841e-05
6.8841e-05
6.8841e-05
6.8841e-05
6.8841e-05
6.8841e-05
6.8841e-05
6.8841e-05
6.8841e-05
6.8841e-05
6.8841e-05
6.8841e-05
6.8841e-05
6.8841e-05
6.8841e-05
6.8841e-05
6.8841e-05
6.8841e-05
6.8841e-05
6.8841e-05
6.8841e-05
6.8841e-05
6.8841e-05
6.8841e-05
6.8841e-05
6.8841e-05
6.8841e-05
6.8841e-05
6.8841e-05
6.8841e-05
6.8841e-05
6.8841e-05
6.8841e-05
6.8841e-05
6.8841e-05
6.8841e-05
6.8841e-05
6.8841e-05
6.8841e-05
6.8841e-05
6.8841e-05
6.88407e-05
6.88392e-05
3.57696e-05
2.07233e-05
1.74763e-05
1.73508e-05
1.9511e-05
2.31962e-05
2.79314e-05
3.30921e-05
3.7191e-05
4.15088e-05
4.58849e-05
5.00264e-05
5.3933e-05
5.75437e-05
6.09907e-05
6.40824e-05
6.68115e-05
6.93485e-05
7.16144e-05
7.37574e-05
7.57533e-05
7.72194e-05
7.84963e-05
7.9588e-05
8.0509e-05
8.12795e-05
8.19223e-05
8.24571e-05
8.29029e-05
8.32748e-05
8.35835e-05
8.38391e-05
8.40501e-05
8.42266e-05
8.43768e-05
8.45054e-05
8.46155e-05
8.47099e-05
8.47905e-05
8.48593e-05
8.49182e-05
8.49685e-05
8.50114e-05
8.50481e-05
8.50795e-05
8.51062e-05
8.51292e-05
8.51489e-05
8.51657e-05
8.51801e-05
8.51925e-05
8.52031e-05
8.52122e-05
8.52199e-05
8.52267e-05
8.52324e-05
8.52374e-05
8.52417e-05
8.52454e-05
8.52486e-05
8.52513e-05
8.52536e-05
8.52556e-05
8.52574e-05
8.52589e-05
8.52601e-05
8.52612e-05
8.52621e-05
8.52629e-05
8.52636e-05
8.52641e-05
8.52647e-05
8.52652e-05
8.52656e-05
8.52659e-05
8.52661e-05
8.52663e-05
8.52664e-05
8.52666e-05
8.52668e-05
8.52669e-05
8.5267e-05
8.52671e-05
8.52672e-05
8.52672e-05
8.52673e-05
8.52674e-05
8.52674e-05
8.52674e-05
8.52674e-05
8.52674e-05
8.52675e-05
8.52676e-05
8.52676e-05
8.52676e-05
8.52676e-05
8.52676e-05
8.52677e-05
8.52677e-05
8.52677e-05
8.52678e-05
8.52678e-05
8.52678e-05
8.52678e-05
8.52678e-05
8.52678e-05
8.52677e-05
8.52677e-05
8.52677e-05
8.52677e-05
8.52677e-05
8.52677e-05
8.52677e-05
8.52677e-05
8.52677e-05
8.52677e-05
8.52677e-05
8.52677e-05
8.52677e-05
8.52677e-05
8.52677e-05
8.52677e-05
8.52677e-05
8.52677e-05
8.52677e-05
8.52677e-05
8.52677e-05
8.52677e-05
8.52677e-05
8.52677e-05
8.52677e-05
8.52677e-05
8.52677e-05
8.52677e-05
8.52677e-05
8.52677e-05
8.52677e-05
8.52677e-05
8.52677e-05
8.52677e-05
8.52677e-05
8.52677e-05
8.52677e-05
8.52677e-05
8.52677e-05
8.52677e-05
8.52677e-05
8.52677e-05
8.52677e-05
8.52677e-05
8.52677e-05
8.52677e-05
8.52677e-05
8.52677e-05
8.52677e-05
8.52677e-05
8.52677e-05
8.52677e-05
8.52677e-05
8.52677e-05
8.52677e-05
8.52677e-05
8.52677e-05
8.52677e-05
8.52677e-05
8.52677e-05
8.52677e-05
8.52677e-05
8.52677e-05
8.52677e-05
8.52677e-05
8.52677e-05
8.52677e-05
8.52677e-05
8.52677e-05
8.52677e-05
8.52677e-05
8.52677e-05
8.52677e-05
8.52677e-05
8.52677e-05
8.52677e-05
8.52677e-05
8.52677e-05
8.52677e-05
8.52677e-05
8.52677e-05
8.52677e-05
8.52677e-05
8.52677e-05
8.52677e-05
8.52677e-05
8.52677e-05
8.52677e-05
8.52677e-05
8.52677e-05
8.52677e-05
8.52677e-05
8.52677e-05
8.52677e-05
8.52677e-05
8.52677e-05
8.52677e-05
8.52677e-05
8.52677e-05
8.52677e-05
8.52677e-05
8.52677e-05
8.52677e-05
8.52677e-05
8.52677e-05
8.52677e-05
8.52677e-05
8.52677e-05
8.52677e-05
8.52677e-05
8.52677e-05
8.52677e-05
8.52677e-05
8.52677e-05
8.52677e-05
8.52677e-05
8.52677e-05
8.52677e-05
8.52677e-05
8.52677e-05
8.52677e-05
8.52677e-05
8.52677e-05
8.52677e-05
8.52677e-05
8.52677e-05
8.52677e-05
8.52677e-05
8.52677e-05
8.52677e-05
8.52677e-05
8.52677e-05
8.52677e-05
8.52677e-05
8.52677e-05
8.52677e-05
8.52677e-05
8.52677e-05
8.52677e-05
8.52677e-05
8.52677e-05
8.52677e-05
8.52677e-05
8.52677e-05
8.52677e-05
8.52677e-05
8.52677e-05
8.52677e-05
8.52677e-05
8.52677e-05
8.52677e-05
8.52677e-05
8.52677e-05
8.52677e-05
8.52677e-05
8.52677e-05
8.52677e-05
8.52677e-05
8.52677e-05
8.52677e-05
8.52677e-05
8.52677e-05
8.52677e-05
8.52677e-05
8.52677e-05
8.52677e-05
8.52677e-05
8.52677e-05
8.52677e-05
8.52677e-05
8.52677e-05
8.52677e-05
8.52677e-05
8.52677e-05
8.52677e-05
8.52677e-05
8.52677e-05
8.52677e-05
8.52677e-05
8.52677e-05
8.52677e-05
8.52677e-05
8.52677e-05
8.52677e-05
8.52677e-05
8.52677e-05
8.52677e-05
8.52677e-05
8.52677e-05
8.52677e-05
8.52677e-05
8.52677e-05
8.52676e-05
8.52664e-05
9.29123e-05
4.48335e-05
2.99807e-05
2.39511e-05
2.13642e-05
2.06946e-05
2.20587e-05
2.48442e-05
2.86959e-05
3.33784e-05
3.75054e-05
4.1322e-05
4.53404e-05
4.95452e-05
5.3793e-05
5.79623e-05
6.19549e-05
6.58278e-05
6.96408e-05
7.34651e-05
7.72206e-05
8.09827e-05
8.32283e-05
8.51683e-05
8.687e-05
8.83625e-05
8.96731e-05
9.08207e-05
9.18239e-05
9.26968e-05
9.34509e-05
9.40996e-05
9.46558e-05
9.51353e-05
9.55502e-05
9.59086e-05
9.62176e-05
9.64836e-05
9.67121e-05
9.69082e-05
9.70765e-05
9.7221e-05
9.73447e-05
9.74509e-05
9.75418e-05
9.76196e-05
9.76864e-05
9.77436e-05
9.77926e-05
9.78346e-05
9.78707e-05
9.79016e-05
9.7928e-05
9.79506e-05
9.79701e-05
9.79868e-05
9.80011e-05
9.80134e-05
9.80239e-05
9.8033e-05
9.80407e-05
9.80474e-05
9.80531e-05
9.80581e-05
9.80623e-05
9.80659e-05
9.8069e-05
9.80716e-05
9.80738e-05
9.80757e-05
9.80773e-05
9.80789e-05
9.80802e-05
9.80813e-05
9.80822e-05
9.80829e-05
9.80835e-05
9.8084e-05
9.80844e-05
9.80848e-05
9.80853e-05
9.80855e-05
9.80859e-05
9.80861e-05
9.80862e-05
9.80865e-05
9.80866e-05
9.80867e-05
9.80867e-05
9.80867e-05
9.80869e-05
9.80871e-05
9.80872e-05
9.80872e-05
9.80872e-05
9.80872e-05
9.80873e-05
9.80873e-05
9.80873e-05
9.80875e-05
9.80876e-05
9.80876e-05
9.80877e-05
9.80877e-05
9.80877e-05
9.80876e-05
9.80876e-05
9.80876e-05
9.80876e-05
9.80876e-05
9.80876e-05
9.80876e-05
9.80876e-05
9.80876e-05
9.80876e-05
9.80876e-05
9.80876e-05
9.80876e-05
9.80876e-05
9.80876e-05
9.80876e-05
9.80876e-05
9.80876e-05
9.80876e-05
9.80876e-05
9.80876e-05
9.80876e-05
9.80876e-05
9.80876e-05
9.80876e-05
9.80876e-05
9.80876e-05
9.80876e-05
9.80876e-05
9.80876e-05
9.80876e-05
9.80876e-05
9.80876e-05
9.80876e-05
9.80876e-05
9.80876e-05
9.80876e-05
9.80876e-05
9.80876e-05
9.80876e-05
9.80876e-05
9.80876e-05
9.80876e-05
9.80876e-05
9.80876e-05
9.80876e-05
9.80876e-05
9.80876e-05
9.80876e-05
9.80876e-05
9.80876e-05
9.80876e-05
9.80876e-05
9.80876e-05
9.80876e-05
9.80876e-05
9.80876e-05
9.80876e-05
9.80876e-05
9.80876e-05
9.80876e-05
9.80876e-05
9.80876e-05
9.80876e-05
9.80876e-05
9.80876e-05
9.80876e-05
9.80876e-05
9.80876e-05
9.80876e-05
9.80876e-05
9.80876e-05
9.80876e-05
9.80876e-05
9.80876e-05
9.80876e-05
9.80876e-05
9.80876e-05
9.80876e-05
9.80876e-05
9.80876e-05
9.80876e-05
9.80876e-05
9.80876e-05
9.80876e-05
9.80876e-05
9.80876e-05
9.80876e-05
9.80876e-05
9.80876e-05
9.80876e-05
9.80876e-05
9.80876e-05
9.80876e-05
9.80876e-05
9.80876e-05
9.80876e-05
9.80876e-05
9.80876e-05
9.80876e-05
9.80876e-05
9.80876e-05
9.80876e-05
9.80876e-05
9.80876e-05
9.80876e-05
9.80876e-05
9.80876e-05
9.80876e-05
9.80876e-05
9.80876e-05
9.80876e-05
9.80876e-05
9.80876e-05
9.80876e-05
9.80876e-05
9.80876e-05
9.80876e-05
9.80876e-05
9.80876e-05
9.80876e-05
9.80876e-05
9.80876e-05
9.80876e-05
9.80876e-05
9.80876e-05
9.80876e-05
9.80876e-05
9.80876e-05
9.80876e-05
9.80876e-05
9.80876e-05
9.80876e-05
9.80876e-05
9.80876e-05
9.80876e-05
9.80876e-05
9.80876e-05
9.80876e-05
9.80876e-05
9.80876e-05
9.80876e-05
9.80876e-05
9.80876e-05
9.80876e-05
9.80876e-05
9.80876e-05
9.80876e-05
9.80876e-05
9.80876e-05
9.80876e-05
9.80876e-05
9.80876e-05
9.80876e-05
9.80876e-05
9.80876e-05
9.80876e-05
9.80876e-05
9.80876e-05
9.80876e-05
9.80876e-05
9.80876e-05
9.80876e-05
9.80876e-05
9.80876e-05
9.80876e-05
9.80876e-05
9.80876e-05
9.80876e-05
9.80876e-05
9.80876e-05
9.80876e-05
9.80876e-05
9.80876e-05
9.80876e-05
9.80876e-05
9.80876e-05
9.80876e-05
9.80876e-05
9.80876e-05
9.80876e-05
9.80876e-05
9.80876e-05
9.80876e-05
9.80876e-05
9.80876e-05
9.80876e-05
9.80876e-05
9.80876e-05
9.80876e-05
9.80876e-05
9.80876e-05
9.80875e-05
9.80874e-05
9.80866e-05
0.000114956
0.000100756
6.75672e-05
4.94269e-05
3.78164e-05
3.09513e-05
2.72194e-05
2.53644e-05
2.53503e-05
2.68633e-05
2.95504e-05
3.31042e-05
3.73321e-05
4.17547e-05
4.53927e-05
4.93742e-05
5.37377e-05
5.84979e-05
6.3612e-05
6.90634e-05
7.40488e-05
7.78968e-05
8.13691e-05
8.44883e-05
8.73118e-05
8.98747e-05
9.21916e-05
9.42639e-05
9.6101e-05
9.7715e-05
9.91223e-05
0.000100343
0.0001014
0.000102317
0.000103111
0.000103798
0.000104391
0.000104902
0.000105341
0.000105719
0.000106044
0.000106323
0.000106562
0.000106768
0.000106944
0.000107095
0.000107224
0.000107335
0.00010743
0.000107512
0.000107582
0.000107642
0.000107693
0.000107737
0.000107774
0.000107807
0.000107834
0.000107858
0.000107878
0.000107896
0.000107911
0.000107924
0.000107935
0.000107944
0.000107952
0.000107959
0.000107965
0.00010797
0.000107975
0.000107978
0.000107981
0.000107984
0.000107987
0.000107989
0.000107991
0.000107992
0.000107993
0.000107994
0.000107995
0.000107996
0.000107997
0.000107997
0.000107998
0.000107998
0.000107998
0.000107999
0.000107999
0.000107999
0.000107999
0.000108
0.000108
0.000108
0.000108
0.000108
0.000108
0.000108
0.000108
0.000108
0.000108001
0.000108001
0.000108001
0.000108001
0.000108001
0.000108001
0.000108001
0.000108001
0.000108001
0.000108001
0.000108001
0.000108001
0.000108001
0.000108001
0.000108001
0.000108001
0.000108001
0.000108001
0.000108001
0.000108001
0.000108001
0.000108001
0.000108001
0.000108001
0.000108001
0.000108001
0.000108001
0.000108001
0.000108001
0.000108001
0.000108001
0.000108001
0.000108001
0.000108001
0.000108001
0.000108001
0.000108001
0.000108001
0.000108001
0.000108001
0.000108001
0.000108001
0.000108001
0.000108001
0.000108001
0.000108001
0.000108001
0.000108001
0.000108001
0.000108001
0.000108001
0.000108001
0.000108001
0.000108001
0.000108001
0.000108001
0.000108001
0.000108001
0.000108001
0.000108001
0.000108001
0.000108001
0.000108001
0.000108001
0.000108001
0.000108001
0.000108001
0.000108001
0.000108001
0.000108001
0.000108001
0.000108001
0.000108001
0.000108001
0.000108001
0.000108001
0.000108001
0.000108001
0.000108001
0.000108001
0.000108001
0.000108001
0.000108001
0.000108001
0.000108001
0.000108001
0.000108001
0.000108001
0.000108001
0.000108001
0.000108001
0.000108001
0.000108001
0.000108001
0.000108001
0.000108001
0.000108001
0.000108001
0.000108001
0.000108001
0.000108001
0.000108001
0.000108001
0.000108001
0.000108001
0.000108001
0.000108001
0.000108001
0.000108001
0.000108001
0.000108001
0.000108001
0.000108001
0.000108001
0.000108001
0.000108001
0.000108001
0.000108001
0.000108001
0.000108001
0.000108001
0.000108001
0.000108001
0.000108001
0.000108001
0.000108001
0.000108001
0.000108001
0.000108001
0.000108001
0.000108001
0.000108001
0.000108001
0.000108001
0.000108001
0.000108001
0.000108001
0.000108001
0.000108001
0.000108001
0.000108001
0.000108001
0.000108001
0.000108001
0.000108001
0.000108001
0.000108001
0.000108001
0.000108001
0.000108001
0.000108001
0.000108001
0.000108001
0.000108001
0.000108001
0.000108001
0.000108001
0.000108001
0.000108001
0.000108001
0.000108001
0.000108001
0.000108001
0.000108001
0.000108001
0.000108001
0.000108001
0.000108001
0.000108001
0.000108001
0.000108001
0.000108001
0.000108001
0.000108001
0.000108001
0.000108001
0.000108001
0.000108001
0.000108001
0.000108001
0.000108001
0.000108001
0.000108001
0.000108001
0.000108001
0.000108001
0.000108001
0.000108001
0.000108001
0.000108001
0.000108001
0.000108001
0.000108001
0.000108001
0.000108001
0.000108001
0.000108001
0.000108001
0.000108001
0.000108001
0.000108001
0.000108
0.000117545
0.00011658
0.000128509
9.35967e-05
7.11516e-05
5.72123e-05
4.59611e-05
3.79935e-05
3.28245e-05
2.98059e-05
2.86703e-05
2.90728e-05
3.06987e-05
3.33151e-05
3.66677e-05
4.05216e-05
4.47477e-05
4.92516e-05
5.4018e-05
5.90127e-05
6.41456e-05
6.9307e-05
7.43839e-05
7.92536e-05
8.37658e-05
8.78283e-05
9.14238e-05
9.45856e-05
9.73579e-05
9.97804e-05
0.000101888
0.000103716
0.000105297
0.000106667
0.000107853
0.000108878
0.000109762
0.000110524
0.00011118
0.000111744
0.000112229
0.000112645
0.000113003
0.00011331
0.000113573
0.000113799
0.000113992
0.000114158
0.0001143
0.000114422
0.000114527
0.000114616
0.000114693
0.000114758
0.000114815
0.000114863
0.000114905
0.00011494
0.00011497
0.000114996
0.000115019
0.000115038
0.000115054
0.000115068
0.00011508
0.000115091
0.000115099
0.000115107
0.000115113
0.000115119
0.000115124
0.000115128
0.000115131
0.000115135
0.000115137
0.000115139
0.000115141
0.000115143
0.000115144
0.000115145
0.000115146
0.000115147
0.000115148
0.000115148
0.000115149
0.000115149
0.00011515
0.00011515
0.00011515
0.000115151
0.000115151
0.000115151
0.000115151
0.000115152
0.000115152
0.000115152
0.000115152
0.000115152
0.000115152
0.000115152
0.000115152
0.000115153
0.000115153
0.000115153
0.000115153
0.000115153
0.000115153
0.000115153
0.000115153
0.000115153
0.000115153
0.000115153
0.000115153
0.000115153
0.000115153
0.000115153
0.000115153
0.000115153
0.000115153
0.000115153
0.000115153
0.000115153
0.000115153
0.000115153
0.000115153
0.000115153
0.000115153
0.000115153
0.000115153
0.000115153
0.000115153
0.000115153
0.000115153
0.000115153
0.000115153
0.000115153
0.000115153
0.000115153
0.000115153
0.000115153
0.000115153
0.000115153
0.000115153
0.000115153
0.000115153
0.000115153
0.000115153
0.000115153
0.000115153
0.000115153
0.000115153
0.000115153
0.000115153
0.000115153
0.000115153
0.000115153
0.000115153
0.000115153
0.000115153
0.000115153
0.000115153
0.000115153
0.000115153
0.000115153
0.000115153
0.000115153
0.000115153
0.000115153
0.000115153
0.000115153
0.000115153
0.000115153
0.000115153
0.000115153
0.000115153
0.000115153
0.000115153
0.000115153
0.000115153
0.000115153
0.000115153
0.000115153
0.000115153
0.000115153
0.000115153
0.000115153
0.000115153
0.000115153
0.000115153
0.000115153
0.000115153
0.000115153
0.000115153
0.000115153
0.000115153
0.000115153
0.000115153
0.000115153
0.000115153
0.000115153
0.000115153
0.000115153
0.000115153
0.000115153
0.000115153
0.000115153
0.000115153
0.000115153
0.000115153
0.000115153
0.000115153
0.000115153
0.000115153
0.000115153
0.000115153
0.000115153
0.000115153
0.000115153
0.000115153
0.000115153
0.000115153
0.000115153
0.000115153
0.000115153
0.000115153
0.000115153
0.000115153
0.000115153
0.000115153
0.000115153
0.000115153
0.000115153
0.000115153
0.000115153
0.000115153
0.000115153
0.000115153
0.000115153
0.000115153
0.000115153
0.000115153
0.000115153
0.000115153
0.000115153
0.000115153
0.000115153
0.000115153
0.000115153
0.000115153
0.000115153
0.000115153
0.000115153
0.000115153
0.000115153
0.000115153
0.000115153
0.000115153
0.000115153
0.000115153
0.000115153
0.000115153
0.000115153
0.000115153
0.000115153
0.000115153
0.000115153
0.000115153
0.000115153
0.000115153
0.000115153
0.000115153
0.000115153
0.000115153
0.000115153
0.000115153
0.000115153
0.000115153
0.000115153
0.000115153
0.000115153
0.000115153
0.000115153
0.000115153
0.000115153
0.000115153
0.000115153
0.000115153
0.000115153
0.000115153
0.000115153
0.000115153
0.000115153
0.000115153
0.000115153
0.000115153
0.000115153
0.000115153
0.000115153
0.000115153
0.000115152
0.000108168
0.000114352
0.00015051
0.00013187
0.000101908
8.27045e-05
6.71901e-05
5.56993e-05
4.7547e-05
4.17647e-05
3.70829e-05
3.4001e-05
3.26135e-05
3.26985e-05
3.38426e-05
3.60518e-05
3.92338e-05
4.32857e-05
4.78922e-05
5.29583e-05
5.8363e-05
6.39961e-05
6.9721e-05
7.5377e-05
8.07165e-05
8.56269e-05
9.00333e-05
9.39321e-05
9.73468e-05
0.000100326
0.000102911
0.000105146
0.000107075
0.000108741
0.000110182
0.000111427
0.000112501
0.000113426
0.000114222
0.000114906
0.000115494
0.000115999
0.000116433
0.000116805
0.000117124
0.000117398
0.000117633
0.000117834
0.000118006
0.000118154
0.000118281
0.000118389
0.000118482
0.000118562
0.00011863
0.000118689
0.000118739
0.000118782
0.000118819
0.00011885
0.000118877
0.0001189
0.00011892
0.000118937
0.000118952
0.000118964
0.000118975
0.000118984
0.000118992
0.000118999
0.000119004
0.000119009
0.000119014
0.000119017
0.000119021
0.000119023
0.000119025
0.000119027
0.000119029
0.00011903
0.000119032
0.000119033
0.000119034
0.000119034
0.000119035
0.000119035
0.000119036
0.000119036
0.000119037
0.000119037
0.000119037
0.000119038
0.000119038
0.000119038
0.000119038
0.000119038
0.000119039
0.000119039
0.000119039
0.000119039
0.000119039
0.000119039
0.000119039
0.000119039
0.000119039
0.000119039
0.000119039
0.000119039
0.000119039
0.000119039
0.000119039
0.000119039
0.000119039
0.000119039
0.000119039
0.000119039
0.000119039
0.000119039
0.000119039
0.000119039
0.000119039
0.000119039
0.000119039
0.000119039
0.000119039
0.000119039
0.000119039
0.000119039
0.000119039
0.000119039
0.000119039
0.000119039
0.000119039
0.000119039
0.000119039
0.000119039
0.000119039
0.000119039
0.000119039
0.000119039
0.000119039
0.000119039
0.000119039
0.000119039
0.000119039
0.000119039
0.000119039
0.000119039
0.000119039
0.000119039
0.000119039
0.000119039
0.000119039
0.000119039
0.000119039
0.000119039
0.000119039
0.000119039
0.000119039
0.000119039
0.000119039
0.000119039
0.000119039
0.000119039
0.000119039
0.000119039
0.000119039
0.000119039
0.000119039
0.000119039
0.000119039
0.000119039
0.000119039
0.000119039
0.000119039
0.000119039
0.000119039
0.000119039
0.000119039
0.000119039
0.000119039
0.000119039
0.000119039
0.000119039
0.000119039
0.000119039
0.000119039
0.000119039
0.000119039
0.000119039
0.000119039
0.000119039
0.000119039
0.000119039
0.000119039
0.000119039
0.000119039
0.000119039
0.000119039
0.000119039
0.000119039
0.000119039
0.000119039
0.000119039
0.000119039
0.000119039
0.000119039
0.000119039
0.000119039
0.000119039
0.000119039
0.000119039
0.000119039
0.000119039
0.000119039
0.000119039
0.000119039
0.000119039
0.000119039
0.000119039
0.000119039
0.000119039
0.000119039
0.000119039
0.000119039
0.000119039
0.000119039
0.000119039
0.000119039
0.000119039
0.000119039
0.000119039
0.000119039
0.000119039
0.000119039
0.000119039
0.000119039
0.000119039
0.000119039
0.000119039
0.000119039
0.000119039
0.000119039
0.000119039
0.000119039
0.000119039
0.000119039
0.000119039
0.000119039
0.000119039
0.000119039
0.000119039
0.000119039
0.000119039
0.000119039
0.000119039
0.000119039
0.000119039
0.000119039
0.000119039
0.000119039
0.000119039
0.000119039
0.000119039
0.000119039
0.000119039
0.000119039
0.000119039
0.000119039
0.000119039
0.000119039
0.000119039
0.000119039
0.000119039
0.000119039
0.000119039
0.000119039
0.000119039
0.000119039
0.000119039
0.000119039
0.000119039
0.000119039
0.000119039
0.000119039
0.000119039
0.000119039
0.000119039
0.000119039
0.000119039
0.000119039
0.000119039
0.000119039
0.000119039
0.000119039
0.000119039
0.000119039
0.000119039
0.000119039
0.000119039
)
;

boundaryField
{
    inlet
    {
        type            calculated;
        value           nonuniform List<scalar> 8(1.88335e-06 1.24983e-05 3.59578e-05 8.5375e-05 0.000111475 0.000110694 0.000114531 0.000105456);
    }
    outlet
    {
        type            calculated;
        value           nonuniform List<scalar> 8(2.12865e-05 4.77788e-05 6.88392e-05 8.52664e-05 9.80866e-05 0.000108 0.000115152 0.000119039);
    }
    sideWall
    {
        type            empty;
    }
    bed
    {
        type            nutRoughWallFunction;
        Cmu             0.09;
        kappa           0.41;
        E               9.8;