/*--------------------------------*- C++ -*----------------------------------*\
| =========                 |                                                 |
| \\      /  F ield         | foam-extend: Open Source CFD                    |
|  \\    /   O peration     | Version:     3.2                                |
|   \\  /    A nd           | Web:         http://www.foam-extend.org         |
|    \\/     M anipulation  | For copyright notice see file Copyright         |
\*---------------------------------------------------------------------------*/
FoamFile
{
    version     2.0;
    format      ascii;
    class       volScalarField;
    location    "200";
    object      omega;
}
// * * * * * * * * * * * * * * * * * * * * * * * * * * * * * * * * * * * * * //

dimensions      [0 0 -1 0 0 0 0];

internalField   nonuniform List<scalar> 
2400
(
132.862
146.437
135.152
124.174
117.817
114.873
113.796
113.65
113.838
114.213
114.674
115.13
115.581
116.045
116.496
116.953
117.431
117.908
118.387
118.868
119.346
119.823
120.309
120.8
121.266
121.691
122.07
122.404
122.691
122.939
123.151
123.331
123.481
123.602
123.7
123.782
123.851
123.908
123.957
123.998
124.033
124.063
124.089
124.11
124.129
124.144
124.158
124.169
124.179
124.187
124.194
124.2
124.205
124.21
124.213
124.217
124.219
124.222
124.224
124.226
124.227
124.228
124.229
124.23
124.231
124.232
124.232
124.233
124.233
124.234
124.234
124.234
124.235
124.235
124.235
124.235
124.235
124.235
124.235
124.235
124.235
124.236
124.236
124.236
124.236
124.236
124.236
124.236
124.236
124.236
124.236
124.236
124.236
124.236
124.236
124.236
124.236
124.236
124.236
124.236
124.236
124.236
124.236
124.236
124.236
124.236
124.236
124.236
124.236
124.236
124.236
124.236
124.236
124.236
124.236
124.236
124.236
124.236
124.236
124.236
124.236
124.236
124.236
124.236
124.236
124.236
124.236
124.236
124.236
124.236
124.236
124.236
124.236
124.236
124.236
124.236
124.236
124.236
124.236
124.236
124.236
124.236
124.236
124.236
124.236
124.236
124.236
124.236
124.236
124.236
124.236
124.236
124.236
124.236
124.236
124.236
124.236
124.236
124.236
124.236
124.236
124.236
124.236
124.236
124.236
124.236
124.236
124.236
124.236
124.236
124.236
124.236
124.236
124.236
124.236
124.236
124.236
124.236
124.236
124.236
124.236
124.236
124.236
124.236
124.236
124.236
124.236
124.236
124.236
124.236
124.236
124.236
124.236
124.236
124.236
124.236
124.236
124.236
124.236
124.236
124.236
124.236
124.236
124.236
124.236
124.236
124.236
124.236
124.236
124.236
124.236
124.236
124.236
124.236
124.236
124.236
124.236
124.236
124.236
124.236
124.236
124.236
124.236
124.236
124.236
124.236
124.236
124.236
124.236
124.236
124.236
124.236
124.236
124.236
124.236
124.236
124.236
124.236
124.236
124.236
124.236
124.236
124.236
124.236
124.236
124.236
124.236
124.236
124.236
124.236
124.236
124.236
124.236
124.236
124.236
124.236
124.236
124.236
124.236
124.236
124.236
124.236
124.236
124.236
124.236
124.236
124.236
124.236
124.236
124.236
124.236
124.236
124.236
124.236
124.236
124.236
124.236
124.236
124.236
124.236
124.236
124.236
124.236
124.236
124.236
124.236
124.236
124.236
124.236
124.236
124.236
124.236
124.236
124.236
124.236
124.236
124.236
124.236
124.24
124.235
43.8843
59.8923
58.547
57.154
55.6581
54.2226
52.9222
51.8027
50.9045
50.1981
49.668
49.2613
48.9593
48.7402
48.6134
48.5369
48.5088
48.5221
48.5676
48.6378
48.7271
48.8242
48.9177
49.0091
49.0995
49.1851
49.2643
49.3362
49.4002
49.4565
49.5061
49.5497
49.5878
49.6201
49.6468
49.6691
49.688
49.704
49.7178
49.7296
49.7396
49.7482
49.7555
49.7618
49.7671
49.7717
49.7756
49.7789
49.7818
49.7842
49.7862
49.788
49.7895
49.7908
49.7919
49.7928
49.7936
49.7943
49.7949
49.7954
49.7958
49.7962
49.7965
49.7968
49.797
49.7972
49.7974
49.7975
49.7976
49.7978
49.7979
49.7979
49.798
49.798
49.7981
49.7981
49.7982
49.7982
49.7982
49.7982
49.7983
49.7983
49.7983
49.7983
49.7983
49.7983
49.7983
49.7983
49.7983
49.7983
49.7983
49.7983
49.7983
49.7983
49.7983
49.7983
49.7984
49.7984
49.7984
49.7984
49.7984
49.7984
49.7984
49.7984
49.7984
49.7984
49.7984
49.7984
49.7984
49.7984
49.7984
49.7984
49.7984
49.7984
49.7984
49.7984
49.7984
49.7984
49.7984
49.7984
49.7984
49.7984
49.7984
49.7984
49.7984
49.7984
49.7984
49.7984
49.7984
49.7984
49.7984
49.7984
49.7984
49.7984
49.7984
49.7984
49.7984
49.7984
49.7984
49.7984
49.7984
49.7984
49.7984
49.7984
49.7984
49.7984
49.7984
49.7984
49.7984
49.7984
49.7984
49.7984
49.7984
49.7984
49.7984
49.7984
49.7984
49.7984
49.7984
49.7984
49.7984
49.7984
49.7984
49.7984
49.7984
49.7984
49.7984
49.7984
49.7984
49.7984
49.7984
49.7984
49.7984
49.7984
49.7984
49.7984
49.7984
49.7984
49.7984
49.7984
49.7984
49.7984
49.7984
49.7984
49.7984
49.7984
49.7984
49.7984
49.7984
49.7984
49.7984
49.7984
49.7984
49.7984
49.7984
49.7984
49.7984
49.7984
49.7984
49.7984
49.7984
49.7984
49.7984
49.7984
49.7984
49.7984
49.7984
49.7984
49.7984
49.7984
49.7984
49.7984
49.7984
49.7984
49.7984
49.7984
49.7984
49.7984
49.7984
49.7984
49.7984
49.7984
49.7984
49.7984
49.7984
49.7984
49.7984
49.7984
49.7984
49.7984
49.7984
49.7984
49.7984
49.7984
49.7984
49.7984
49.7984
49.7984
49.7984
49.7984
49.7984
49.7984
49.7984
49.7984
49.7984
49.7984
49.7984
49.7984
49.7984
49.7984
49.7984
49.7984
49.7984
49.7984
49.7984
49.7984
49.7984
49.7984
49.7984
49.7984
49.7984
49.7984
49.7984
49.7984
49.7984
49.7984
49.7984
49.7984
49.7984
49.7984
49.7984
49.7984
49.7984
49.7984
49.7984
49.7984
49.7984
49.7984
49.7984
49.7984
49.7984
49.7984
49.7984
49.7984
49.7984
49.7984
49.7984
49.7984
49.7984
49.7984
49.7984
49.7984
49.7984
49.7984
49.7984
49.7984
49.7984
49.7982
49.7971
49.7995
14.7939
25.1043
30.0285
32.6776
33.4622
33.0316
32.2549
31.6763
31.2475
30.898
30.5571
30.2202
29.912
29.6547
29.4463
29.2733
29.1384
29.0285
28.9472
28.8842
28.8329
28.7901
28.7443
28.6967
28.6507
28.6061
28.5633
28.5223
28.4836
28.4473
28.4138
28.3836
28.3566
28.3329
28.3118
28.2934
28.2773
28.2633
28.2512
28.2407
28.2316
28.2238
28.2171
28.2113
28.2064
28.2021
28.1984
28.1953
28.1926
28.1903
28.1883
28.1866
28.1852
28.1839
28.1829
28.182
28.1812
28.1805
28.18
28.1795
28.1791
28.1787
28.1784
28.1781
28.1779
28.1777
28.1775
28.1774
28.1773
28.1772
28.1771
28.177
28.1769
28.1769
28.1768
28.1768
28.1768
28.1767
28.1767
28.1767
28.1767
28.1767
28.1767
28.1767
28.1766
28.1766
28.1766
28.1766
28.1766
28.1766
28.1766
28.1766
28.1766
28.1766
28.1766
28.1766
28.1766
28.1766
28.1765
28.1765
28.1765
28.1765
28.1765
28.1765
28.1765
28.1765
28.1765
28.1765
28.1765
28.1765
28.1765
28.1765
28.1765
28.1765
28.1765
28.1765
28.1765
28.1765
28.1765
28.1765
28.1765
28.1765
28.1765
28.1765
28.1765
28.1765
28.1765
28.1765
28.1765
28.1765
28.1765
28.1765
28.1765
28.1765
28.1765
28.1765
28.1765
28.1765
28.1765
28.1765
28.1765
28.1765
28.1765
28.1765
28.1765
28.1765
28.1765
28.1765
28.1765
28.1765
28.1765
28.1765
28.1765
28.1765
28.1765
28.1765
28.1765
28.1765
28.1765
28.1765
28.1765
28.1765
28.1765
28.1765
28.1765
28.1765
28.1765
28.1765
28.1765
28.1765
28.1765
28.1765
28.1765
28.1765
28.1765
28.1765
28.1765
28.1765
28.1765
28.1765
28.1765
28.1765
28.1765
28.1765
28.1765
28.1765
28.1765
28.1765
28.1765
28.1765
28.1765
28.1765
28.1765
28.1765
28.1765
28.1765
28.1765
28.1765
28.1765
28.1765
28.1765
28.1765
28.1765
28.1765
28.1765
28.1765
28.1765
28.1765
28.1765
28.1765
28.1765
28.1765
28.1765
28.1765
28.1765
28.1765
28.1765
28.1765
28.1765
28.1765
28.1765
28.1765
28.1765
28.1765
28.1765
28.1765
28.1765
28.1765
28.1765
28.1765
28.1765
28.1765
28.1765
28.1765
28.1765
28.1765
28.1765
28.1765
28.1765
28.1765
28.1765
28.1765
28.1765
28.1765
28.1765
28.1765
28.1765
28.1765
28.1765
28.1765
28.1765
28.1765
28.1765
28.1765
28.1765
28.1765
28.1765
28.1765
28.1765
28.1765
28.1765
28.1765
28.1765
28.1765
28.1765
28.1765
28.1765
28.1765
28.1765
28.1765
28.1765
28.1765
28.1765
28.1765
28.1765
28.1765
28.1765
28.1765
28.1765
28.1765
28.1765
28.1765
28.1765
28.1765
28.1765
28.1765
28.1765
28.1765
28.1765
28.1765
28.1765
28.1765
28.1765
28.1765
28.1765
28.1765
28.1765
28.1764
28.1764
28.177
4.92215
9.71239
13.7539
16.8635
19.3955
21.0783
22.0118
22.4424
22.469
22.2212
21.9536
21.7774
21.6422
21.5288
21.3987
21.2484
21.0953
20.9439
20.8006
20.657
20.5117
20.3583
20.2113
20.0681
19.9292
19.7949
19.6667
19.5457
19.4333
19.3303
19.2369
19.1531
19.0789
19.014
18.9577
18.909
18.867
18.8308
18.7996
18.7728
18.7497
18.7299
18.7128
18.6982
18.6857
18.6749
18.6657
18.6578
18.6511
18.6453
18.6404
18.6362
18.6325
18.6295
18.6268
18.6246
18.6226
18.621
18.6196
18.6183
18.6173
18.6164
18.6156
18.615
18.6144
18.614
18.6136
18.6132
18.6129
18.6127
18.6124
18.6122
18.6121
18.6119
18.6118
18.6117
18.6116
18.6116
18.6115
18.6114
18.6114
18.6114
18.6113
18.6113
18.6113
18.6112
18.6112
18.6112
18.6112
18.6112
18.6112
18.6112
18.6111
18.6111
18.6111
18.6111
18.6111
18.6111
18.6111
18.6111
18.6111
18.6111
18.6111
18.6111
18.6111
18.6111
18.6111
18.6111
18.6111
18.6111
18.6111
18.6111
18.6111
18.6111
18.6111
18.6111
18.6111
18.6111
18.6111
18.6111
18.6111
18.6111
18.6111
18.6111
18.6111
18.6111
18.6111
18.6111
18.6111
18.6111
18.6111
18.6111
18.6111
18.6111
18.6111
18.6111
18.6111
18.6111
18.6111
18.6111
18.6111
18.6111
18.6111
18.6111
18.6111
18.6111
18.6111
18.6111
18.6111
18.6111
18.6111
18.6111
18.6111
18.6111
18.6111
18.6111
18.6111
18.6111
18.6111
18.6111
18.6111
18.6111
18.6111
18.6111
18.6111
18.6111
18.6111
18.6111
18.6111
18.6111
18.6111
18.6111
18.6111
18.6111
18.6111
18.6111
18.6111
18.6111
18.6111
18.6111
18.6111
18.6111
18.6111
18.6111
18.6111
18.6111
18.6111
18.6111
18.6111
18.6111
18.6111
18.6111
18.6111
18.6111
18.6111
18.6111
18.6111
18.6111
18.6111
18.6111
18.6111
18.6111
18.6111
18.6111
18.6111
18.6111
18.6111
18.6111
18.6111
18.6111
18.6111
18.6111
18.6111
18.6111
18.6111
18.6111
18.6111
18.6111
18.6111
18.6111
18.6111
18.6111
18.6111
18.6111
18.6111
18.6111
18.6111
18.6111
18.6111
18.6111
18.6111
18.6111
18.6111
18.6111
18.6111
18.6111
18.6111
18.6111
18.6111
18.6111
18.6111
18.6111
18.6111
18.6111
18.6111
18.6111
18.6111
18.6111
18.6111
18.6111
18.6111
18.6111
18.6111
18.6111
18.6111
18.6111
18.6111
18.6111
18.6111
18.6111
18.6111
18.6111
18.6111
18.6111
18.6111
18.6111
18.6111
18.6111
18.6111
18.6111
18.6111
18.6111
18.6111
18.6111
18.6111
18.6111
18.6111
18.6111
18.6111
18.6111
18.6111
18.6111
18.6111
18.6111
18.6111
18.6111
18.6111
18.6111
18.6111
18.6111
18.6111
18.6111
18.6111
18.6111
18.6111
18.6111
18.6111
18.611
18.611
18.6113
1.71235
3.68472
5.74552
7.60464
9.44975
11.2883
13.1064
14.648
15.7461
16.4059
16.757
16.9245
16.9335
16.8354
16.7095
16.5925
16.4861
16.3715
16.2354
16.0718
15.8883
15.689
15.488
15.2871
15.0894
14.8971
14.7136
14.5416
14.3835
14.2403
14.1117
13.9975
13.897
13.8098
13.7346
13.6698
13.614
13.5661
13.525
13.4896
13.4592
13.4332
13.4108
13.3916
13.3752
13.3612
13.3491
13.3388
13.33
13.3225
13.316
13.3105
13.3058
13.3018
13.2983
13.2954
13.2928
13.2907
13.2888
13.2873
13.2859
13.2848
13.2838
13.2829
13.2822
13.2816
13.281
13.2806
13.2802
13.2799
13.2796
13.2793
13.2791
13.279
13.2788
13.2787
13.2786
13.2785
13.2784
13.2783
13.2783
13.2782
13.2782
13.2781
13.2781
13.278
13.278
13.278
13.278
13.278
13.2779
13.2779
13.2779
13.2779
13.2779
13.2779
13.2779
13.2779
13.2779
13.2779
13.2778
13.2778
13.2778
13.2778
13.2778
13.2778
13.2778
13.2778
13.2778
13.2778
13.2778
13.2778
13.2778
13.2778
13.2778
13.2778
13.2778
13.2778
13.2778
13.2778
13.2778
13.2778
13.2778
13.2778
13.2778
13.2778
13.2778
13.2778
13.2778
13.2778
13.2778
13.2778
13.2778
13.2778
13.2778
13.2778
13.2778
13.2778
13.2778
13.2778
13.2778
13.2778
13.2778
13.2778
13.2778
13.2778
13.2778
13.2778
13.2778
13.2778
13.2778
13.2778
13.2778
13.2778
13.2778
13.2778
13.2778
13.2778
13.2778
13.2778
13.2778
13.2778
13.2778
13.2778
13.2778
13.2778
13.2778
13.2778
13.2778
13.2778
13.2778
13.2778
13.2778
13.2778
13.2778
13.2778
13.2778
13.2778
13.2778
13.2778
13.2778
13.2778
13.2778
13.2778
13.2778
13.2778
13.2778
13.2778
13.2778
13.2778
13.2778
13.2778
13.2778
13.2778
13.2778
13.2778
13.2778
13.2778
13.2778
13.2778
13.2778
13.2778
13.2778
13.2778
13.2778
13.2778
13.2778
13.2778
13.2778
13.2778
13.2778
13.2778
13.2778
13.2778
13.2778
13.2778
13.2778
13.2778
13.2778
13.2778
13.2778
13.2778
13.2778
13.2778
13.2778
13.2778
13.2778
13.2778
13.2778
13.2778
13.2778
13.2778
13.2778
13.2778
13.2778
13.2778
13.2778
13.2778
13.2778
13.2778
13.2778
13.2778
13.2778
13.2778
13.2778
13.2778
13.2778
13.2778
13.2778
13.2778
13.2778
13.2778
13.2778
13.2778
13.2778
13.2778
13.2778
13.2778
13.2778
13.2778
13.2778
13.2778
13.2778
13.2778
13.2778
13.2778
13.2778
13.2778
13.2778
13.2778
13.2778
13.2778
13.2778
13.2778
13.2778
13.2778
13.2778
13.2778
13.2778
13.2778
13.2778
13.2778
13.2778
13.2778
13.2778
13.2778
13.2778
13.2778
13.2778
13.2778
13.2778
13.2778
13.2778
13.2778
13.2778
13.2778
13.2778
13.2778
13.2778
13.278
0.740373
1.57196
2.36325
3.24626
4.30262
5.42419
6.62082
7.92628
9.30625
10.5882
11.653
12.4561
12.9983
13.3088
13.4643
13.5179
13.4888
13.3867
13.2262
13.0264
12.8087
12.589
12.3686
12.1472
11.9265
11.7109
11.5066
11.3185
11.1493
10.9986
10.8654
10.7484
10.6465
10.5587
10.4832
10.4183
10.3626
10.3147
10.2736
10.2383
10.208
10.182
10.1597
10.1406
10.1243
10.1103
10.0983
10.088
10.0793
10.0717
10.0653
10.0598
10.0551
10.0511
10.0477
10.0447
10.0422
10.0401
10.0383
10.0367
10.0353
10.0342
10.0332
10.0324
10.0317
10.031
10.0305
10.0301
10.0297
10.0294
10.0291
10.0288
10.0286
10.0284
10.0283
10.0282
10.028
10.0279
10.0279
10.0278
10.0277
10.0277
10.0276
10.0276
10.0276
10.0275
10.0275
10.0275
10.0275
10.0275
10.0274
10.0274
10.0274
10.0274
10.0274
10.0274
10.0274
10.0274
10.0274
10.0274
10.0273
10.0273
10.0273
10.0273
10.0273
10.0273
10.0273
10.0273
10.0273
10.0273
10.0273
10.0273
10.0273
10.0273
10.0273
10.0273
10.0273
10.0273
10.0273
10.0273
10.0273
10.0273
10.0273
10.0273
10.0273
10.0273
10.0273
10.0273
10.0273
10.0273
10.0273
10.0273
10.0273
10.0273
10.0273
10.0273
10.0273
10.0273
10.0273
10.0273
10.0273
10.0273
10.0273
10.0273
10.0273
10.0273
10.0273
10.0273
10.0273
10.0273
10.0273
10.0273
10.0273
10.0273
10.0273
10.0273
10.0273
10.0273
10.0273
10.0273
10.0273
10.0273
10.0273
10.0273
10.0273
10.0273
10.0273
10.0273
10.0273
10.0273
10.0273
10.0273
10.0273
10.0273
10.0273
10.0273
10.0273
10.0273
10.0273
10.0273
10.0273
10.0273
10.0273
10.0273
10.0273
10.0273
10.0273
10.0273
10.0273
10.0273
10.0273
10.0273
10.0273
10.0273
10.0273
10.0273
10.0273
10.0273
10.0273
10.0273
10.0273
10.0273
10.0273
10.0273
10.0273
10.0273
10.0273
10.0273
10.0273
10.0273
10.0273
10.0273
10.0273
10.0273
10.0273
10.0273
10.0273
10.0273
10.0273
10.0273
10.0273
10.0273
10.0273
10.0273
10.0273
10.0273
10.0273
10.0273
10.0273
10.0273
10.0273
10.0273
10.0273
10.0273
10.0273
10.0273
10.0273
10.0273
10.0273
10.0273
10.0273
10.0273
10.0273
10.0273
10.0273
10.0273
10.0273
10.0273
10.0273
10.0273
10.0273
10.0273
10.0273
10.0273
10.0273
10.0273
10.0273
10.0273
10.0273
10.0273
10.0273
10.0273
10.0273
10.0273
10.0273
10.0273
10.0273
10.0273
10.0273
10.0273
10.0273
10.0273
10.0273
10.0273
10.0273
10.0273
10.0273
10.0273
10.0273
10.0273
10.0273
10.0273
10.0273
10.0273
10.0273
10.0273
10.0273
10.0273
10.0273
10.0273
10.0273
10.0273
10.0273
10.0273
10.0273
10.0273
10.0273
10.0273
10.0273
10.0274
0.404913
0.800954
1.22696
1.67739
2.18976
2.70817
3.38932
4.18754
5.08328
6.06152
7.0296
7.98253
8.85897
9.58975
10.1554
10.5499
10.7935
10.9101
10.9037
10.8096
10.6517
10.4474
10.2109
9.9622
9.72659
9.51607
9.33219
9.17146
9.03058
8.90655
8.79736
8.70155
8.618
8.54577
8.48338
8.42948
8.38297
8.34289
8.30837
8.27867
8.25315
8.23122
8.21238
8.19622
8.18236
8.17048
8.16029
8.15157
8.1441
8.13771
8.13223
8.12755
8.12355
8.12013
8.1172
8.11469
8.11255
8.11072
8.10916
8.10783
8.10668
8.10571
8.10487
8.10416
8.10355
8.10302
8.10258
8.1022
8.10187
8.10159
8.10135
8.10114
8.10097
8.10081
8.10069
8.10058
8.10048
8.1004
8.10033
8.10027
8.10022
8.10018
8.10013
8.1001
8.10008
8.10005
8.10003
8.10001
8.1
8.09998
8.09997
8.09995
8.09995
8.09994
8.09993
8.09993
8.09992
8.09992
8.09991
8.0999
8.0999
8.09989
8.09989
8.09988
8.09988
8.09988
8.09987
8.09987
8.09987
8.09987
8.09987
8.09987
8.09987
8.09987
8.09987
8.09987
8.09987
8.09987
8.09987
8.09987
8.09987
8.09987
8.09987
8.09987
8.09987
8.09987
8.09986
8.09986
8.09986
8.09986
8.09986
8.09986
8.09986
8.09986
8.09986
8.09986
8.09986
8.09986
8.09986
8.09986
8.09986
8.09986
8.09986
8.09986
8.09986
8.09986
8.09986
8.09986
8.09986
8.09986
8.09986
8.09986
8.09986
8.09986
8.09986
8.09986
8.09986
8.09986
8.09986
8.09986
8.09986
8.09986
8.09986
8.09986
8.09986
8.09986
8.09986
8.09986
8.09986
8.09986
8.09986
8.09986
8.09986
8.09986
8.09986
8.09986
8.09986
8.09986
8.09986
8.09986
8.09986
8.09986
8.09986
8.09986
8.09986
8.09986
8.09986
8.09986
8.09986
8.09986
8.09986
8.09986
8.09986
8.09986
8.09986
8.09986
8.09986
8.09986
8.09986
8.09986
8.09986
8.09986
8.09986
8.09986
8.09986
8.09986
8.09986
8.09986
8.09986
8.09986
8.09986
8.09986
8.09986
8.09986
8.09986
8.09986
8.09986
8.09986
8.09986
8.09986
8.09986
8.09986
8.09986
8.09986
8.09986
8.09986
8.09986
8.09986
8.09986
8.09986
8.09986
8.09986
8.09986
8.09986
8.09986
8.09986
8.09986
8.09986
8.09986
8.09986
8.09986
8.09986
8.09986
8.09986
8.09986
8.09986
8.09986
8.09986
8.09986
8.09986
8.09986
8.09986
8.09986
8.09986
8.09986
8.09986
8.09986
8.09986
8.09986
8.09986
8.09986
8.09986
8.09986
8.09986
8.09986
8.09986
8.09986
8.09986
8.09986
8.09986
8.09986
8.09986
8.09986
8.09986
8.09986
8.09986
8.09986
8.09986
8.09986
8.09986
8.09986
8.09986
8.09986
8.09986
8.09986
8.09986
8.09986
8.09986
8.09986
8.09986
8.09986
8.09986
8.09986
8.09986
8.09986
8.09986
8.09986
8.09986
8.09986
8.09988
0.292903
0.523196
0.85493
1.18707
1.51826
1.84582
2.24662
2.69305
3.16602
3.67249
4.30487
5.01633
5.74552
6.45095
7.07382
7.60344
8.01771
8.30491
8.51988
8.6553
8.70945
8.69229
8.61967
8.51325
8.38503
8.25535
8.13256
8.02032
7.91838
7.82713
7.74545
7.67235
7.60734
7.54999
7.50007
7.45671
7.4191
7.38652
7.35833
7.33399
7.31298
7.29488
7.2793
7.2659
7.25438
7.24449
7.236
7.22871
7.22247
7.21712
7.21254
7.20862
7.20527
7.2024
7.19994
7.19784
7.19604
7.19451
7.1932
7.19208
7.19112
7.19031
7.18961
7.18901
7.1885
7.18806
7.18769
7.18737
7.1871
7.18686
7.18666
7.18649
7.18634
7.18622
7.18611
7.18602
7.18594
7.18587
7.18582
7.18576
7.18572
7.18568
7.18565
7.18562
7.1856
7.18558
7.18556
7.18554
7.18553
7.18552
7.18551
7.1855
7.18549
7.18548
7.18548
7.18547
7.18547
7.18546
7.18546
7.18545
7.18545
7.18545
7.18544
7.18544
7.18544
7.18543
7.18543
7.18543
7.18543
7.18543
7.18543
7.18543
7.18543
7.18542
7.18542
7.18542
7.18542
7.18542
7.18542
7.18542
7.18542
7.18542
7.18542
7.18542
7.18542
7.18542
7.18542
7.18542
7.18542
7.18542
7.18542
7.18542
7.18542
7.18542
7.18542
7.18542
7.18542
7.18542
7.18542
7.18542
7.18542
7.18542
7.18542
7.18542
7.18542
7.18542
7.18542
7.18542
7.18542
7.18542
7.18542
7.18542
7.18542
7.18542
7.18542
7.18542
7.18542
7.18542
7.18542
7.18542
7.18542
7.18542
7.18542
7.18542
7.18542
7.18542
7.18542
7.18542
7.18542
7.18542
7.18542
7.18542
7.18542
7.18542
7.18542
7.18542
7.18542
7.18542
7.18542
7.18542
7.18542
7.18542
7.18542
7.18542
7.18542
7.18542
7.18542
7.18542
7.18542
7.18542
7.18542
7.18542
7.18541
7.18541
7.18541
7.18541
7.18541
7.18541
7.18541
7.18541
7.18541
7.18541
7.18541
7.18541
7.18541
7.18541
7.18541
7.18541
7.18541
7.18541
7.18541
7.18541
7.18541
7.18541
7.18541
7.18541
7.18541
7.18541
7.18541
7.18541
7.18541
7.18541
7.18541
7.18541
7.18541
7.18541
7.18541
7.18541
7.18541
7.18541
7.18541
7.18541
7.18541
7.18541
7.18541
7.18541
7.18541
7.18541
7.18541
7.18541
7.18541
7.18541
7.18541
7.18541
7.18541
7.18541
7.18541
7.18541
7.18541
7.18541
7.18541
7.18541
7.18541
7.18541
7.18541
7.18541
7.18541
7.18541
7.18541
7.18541
7.18541
7.18541
7.18541
7.18541
7.18541
7.18541
7.18541
7.18541
7.18541
7.18541
7.18541
7.18541
7.18541
7.18541
7.18541
7.18541
7.18541
7.18541
7.18541
7.18541
7.18541
7.18541
7.18541
7.18541
7.18541
7.18541
7.18541
7.18541
7.18541
7.18541
7.18541
7.18541
7.18541
7.18541
7.18541
7.18541
7.18541
7.18541
7.18541
7.18542
)
;

boundaryField
{
    inlet
    {
        type            fixedValue;
        value           uniform 0.18449;
    }
    outlet
    {
        type            zeroGradient;
    }
    sideWall
    {
        type            empty;
    }
    bed
    {
        type            omegaWallFunction;
        refValue        nonuniform List<scalar> 
300
(
132.862
146.437
135.152
124.174
117.817
114.873
113.796
113.65
113.838
114.213
114.674
115.13
115.581
116.045
116.496
116.953
117.431
117.908
118.387
118.868
119.346
119.823
120.309
120.8
121.266
121.691
122.07
122.404
122.691
122.939
123.151
123.331
123.481
123.602
123.7
123.782
123.851
123.908
123.957
123.998
124.033
124.063
124.089
124.11
124.129
124.144
124.158
124.169
124.179
124.187
124.194
124.2
124.205
124.21
124.213
124.217
124.219
124.222
124.224
124.226
124.227
124.228
124.229
124.23
124.231
124.232
124.232
124.233
124.233
124.234
124.234
124.234
124.235
124.235
124.235
124.235
124.235
124.235
124.235
124.235
124.235
124.236
124.236
124.236
124.236
124.236
124.236
124.236
124.236
124.236
124.236
124.236
124.236
124.236
124.236
124.236
124.236
124.236
124.236
124.236
124.236
124.236
124.236
124.236
124.236
124.236
124.236
124.236
124.236
124.236
124.236
124.236
124.236
124.236
124.236
124.236
124.236
124.236
124.236
124.236
124.236
124.236
124.236
124.236
124.236
124.236
124.236
124.236
124.236
124.236
124.236
124.236
124.236
124.236
124.236
124.236
124.236
124.236
124.236
124.236
124.236
124.236
124.236
124.236
124.236
124.236
124.236
124.236
124.236
124.236
124.236
124.236
124.236
124.236
124.236
124.236
124.236
124.236
124.236
124.236
124.236
124.236
124.236
124.236
124.236
124.236
124.236
124.236
124.236
124.236
124.236
124.236
124.236
124.236
124.236
124.236
124.236
124.236
124.236
124.236
124.236
124.236
124.236
124.236
124.236
124.236
124.236
124.236
124.236
124.236
124.236
124.236
124.236
124.236
124.236
124.236
124.236
124.236
124.236
124.236
124.236
124.236
124.236
124.236
124.236
124.236
124.236
124.236
124.236
124.236
124.236
124.236
124.236
124.236
124.236
124.236
124.236
124.236
124.236
124.236
124.236
124.236
124.236
124.236
124.236
124.236
124.236
124.236
124.236
124.236
124.236
124.236
124.236
124.236
124.236
124.236
124.236
124.236
124.236
124.236
124.236
124.236
124.236
124.236
124.236
124.236
124.236
124.236
124.236
124.236
124.236
124.236
124.236
124.236
124.236
124.236
124.236
124.236
124.236
124.236
124.236
124.236
124.236
124.236
124.236
124.236
124.236
124.236
124.236
124.236
124.236
124.236
124.236
124.236
124.236
124.236
124.236
124.236
124.236
124.236
124.236
124.236
124.236
124.236
124.236
124.236
124.236
124.236
124.236
124.236
124.236
124.236
124.236
124.236
124.236
124.236
124.236
124.236
124.24
124.235
)
;
        value           nonuniform List<scalar> 
300
(
132.862
146.437
135.152
124.174
117.817
114.873
113.796
113.65
113.838
114.213
114.674
115.13
115.581
116.045
116.496
116.953
117.431
117.908
118.387
118.868
119.346
119.823
120.309
120.8
121.266
121.691
122.07
122.404
122.691
122.939
123.151
123.331
123.481
123.602
123.7
123.782
123.851
123.908
123.957
123.998
124.033
124.063
124.089
124.11
124.129
124.144
124.158
124.169
124.179
124.187
124.194
124.2
124.205
124.21
124.213
124.217
124.219
124.222
124.224
124.226
124.227
124.228
124.229
124.23
124.231
124.232
124.232
124.233
124.233
124.234
124.234
124.234
124.235
124.235
124.235
124.235
124.235
124.235
124.235
124.235
124.235
124.236
124.236
124.236
124.236
124.236
124.236
124.236
124.236
124.236
124.236
124.236
124.236
124.236
124.236
124.236
124.236
124.236
124.236
124.236
124.236
124.236
124.236
124.236
124.236
124.236
124.236
124.236
124.236
124.236
124.236
124.236
124.236
124.236
124.236
124.236
124.236
124.236
124.236
124.236
124.236
124.236
124.236
124.236
124.236
124.236
124.236
124.236
124.236
124.236
124.236
124.236
124.236
124.236
124.236
124.236
124.236
124.236
124.236
124.236
124.236
124.236
124.236
124.236
124.236
124.236
124.236
124.236
124.236
124.236
124.236
124.236
124.236
124.236
124.236
124.236
124.236
124.236
124.236
124.236
124.236
124.236
124.236
124.236
124.236
124.236
124.236
124.236
124.236
124.236
124.236
124.236
124.236
124.236
124.236
124.236
124.236
124.236
124.236
124.236
124.236
124.236
124.236
124.236
124.236
124.236
124.236
124.236
124.236
124.236
124.236
124.236
124.236
124.236
124.236
124.236
124.236
124.236
124.236
124.236
124.236
124.236
124.236
124.236
124.236
124.236
124.236
124.236
124.236
124.236
124.236
124.236
124.236
124.236
124.236
124.236
124.236
124.236
124.236
124.236
124.236
124.236
124.236
124.236
124.236
124.236
124.236
124.236
124.236
124.236
124.236
124.236
124.236
124.236
124.236
124.236
124.236
124.236
124.236
124.236
124.236
124.236
124.236
124.236
124.236
124.236
124.236
124.236
124.236
124.236
124.236
124.236
124.236
124.236
124.236
124.236
124.236
124.236
124.236
124.236
124.236
124.236
124.236
124.236
124.236
124.236
124.236
124.236
124.236
124.236
124.236
124.236
124.236
124.236
124.236
124.236
124.236
124.236
124.236
124.236
124.236
124.236
124.236
124.236
124.236
124.236
124.236
124.236
124.236
124.236
124.236
124.236
124.236
124.236
124.236
124.236
124.236
124.236
124.24
124.235
)
;
        Cmu             0.09;
        kappa           0.41;
        E               9.8;
        beta1           0.075;
    }
    topWall
    {
        type            slip;
        value           nonuniform List<scalar> 
300
(
0.292903
0.523196
0.85493
1.18707
1.51826
1.84582
2.24662
2.69305
3.16602
3.67249
4.30487
5.01633
5.74552
6.45095
7.07382
7.60344
8.01771
8.30491
8.51988
8.6553
8.70945
8.69229
8.61967
8.51325
8.38503
8.25535
8.13256
8.02032
7.91838
7.82713
7.74545
7.67235
7.60734
7.54999
7.50007
7.45671
7.4191
7.38652
7.35833
7.33399
7.31298
7.29488
7.2793
7.2659
7.25438
7.24449
7.236
7.22871
7.22247
7.21712
7.21254
7.20862
7.20527
7.2024
7.19994
7.19784
7.19604
7.19451
7.1932
7.19208
7.19112
7.19031
7.18961
7.18901
7.1885
7.18806
7.18769
7.18737
7.1871
7.18686
7.18666
7.18649
7.18634
7.18622
7.18611
7.18602
7.18594
7.18587
7.18582
7.18576
7.18572
7.18568
7.18565
7.18562
7.1856
7.18558
7.18556
7.18554
7.18553
7.18552
7.18551
7.1855
7.18549
7.18548
7.18548
7.18547
7.18547
7.18546
7.18546
7.18545
7.18545
7.18545
7.18544
7.18544
7.18544
7.18543
7.18543
7.18543
7.18543
7.18543
7.18543
7.18543
7.18543
7.18542
7.18542
7.18542
7.18542
7.18542
7.18542
7.18542
7.18542
7.18542
7.18542
7.18542
7.18542
7.18542
7.18542
7.18542
7.18542
7.18542
7.18542
7.18542
7.18542
7.18542
7.18542
7.18542
7.18542
7.18542
7.18542
7.18542
7.18542
7.18542
7.18542
7.18542
7.18542
7.18542
7.18542
7.18542
7.18542
7.18542
7.18542
7.18542
7.18542
7.18542
7.18542
7.18542
7.18542
7.18542
7.18542
7.18542
7.18542
7.18542
7.18542
7.18542
7.18542
7.18542
7.18542
7.18542
7.18542
7.18542
7.18542
7.18542
7.18542
7.18542
7.18542
7.18542
7.18542
7.18542
7.18542
7.18542
7.18542
7.18542
7.18542
7.18542
7.18542
7.18542
7.18542
7.18542
7.18542
7.18542
7.18542
7.18542
7.18541
7.18541
7.18541
7.18541
7.18541
7.18541
7.18541
7.18541
7.18541
7.18541
7.18541
7.18541
7.18541
7.18541
7.18541
7.18541
7.18541
7.18541
7.18541
7.18541
7.18541
7.18541
7.18541
7.18541
7.18541
7.18541
7.18541
7.18541
7.18541
7.18541
7.18541
7.18541
7.18541
7.18541
7.18541
7.18541
7.18541
7.18541
7.18541
7.18541
7.18541
7.18541
7.18541
7.18541
7.18541
7.18541
7.18541
7.18541
7.18541
7.18541
7.18541
7.18541
7.18541
7.18541
7.18541
7.18541
7.18541
7.18541
7.18541
7.18541
7.18541
7.18541
7.18541
7.18541
7.18541
7.18541
7.18541
7.18541
7.18541
7.18541
7.18541
7.18541
7.18541
7.18541
7.18541
7.18541
7.18541
7.18541
7.18541
7.18541
7.18541
7.18541
7.18541
7.18541
7.18541
7.18541
7.18541
7.18541
7.18541
7.18541
7.18541
7.18541
7.18541
7.18541
7.18541
7.18541
7.18541
7.18541
7.18541
7.18541
7.18541
7.18541
7.18541
7.18541
7.18541
7.18541
7.18541
7.18542
)
;
    }
}


// ************************************************************************* //
