/*--------------------------------*- C++ -*----------------------------------*\
| =========                 |                                                 |
| \\      /  F ield         | foam-extend: Open Source CFD                    |
|  \\    /   O peration     | Version:     3.2                                |
|   \\  /    A nd           | Web:         http://www.foam-extend.org         |
|    \\/     M anipulation  | For copyright notice see file Copyright         |
\*---------------------------------------------------------------------------*/
FoamFile
{
    version     2.0;
    format      ascii;
    class       volScalarField;
    location    "200";
    object      p;
}
// * * * * * * * * * * * * * * * * * * * * * * * * * * * * * * * * * * * * * //

dimensions      [1 -1 -2 0 0 0 0];

internalField   nonuniform List<scalar> 
2400
(
394.051
391.188
391.158
391.317
392.031
393.018
394.149
395.309
396.524
397.749
398.989
400.231
401.491
402.755
404.021
405.296
406.563
407.831
409.098
410.366
411.632
412.896
414.151
415.386
416.603
417.804
418.988
420.158
421.315
422.46
423.593
424.717
425.834
426.945
428.051
429.154
430.252
431.348
432.441
433.532
434.621
435.708
436.794
437.879
438.963
440.046
441.129
442.211
443.292
444.373
445.453
446.533
447.613
448.693
449.772
450.851
451.93
453.009
454.088
455.167
456.246
457.324
458.403
459.482
460.56
461.638
462.717
463.795
464.874
465.952
467.03
468.109
469.187
470.265
471.344
472.422
473.5
474.578
475.657
476.735
477.813
478.891
479.97
481.048
482.126
483.204
484.283
485.361
486.439
487.517
488.596
489.674
490.752
491.83
492.909
493.987
495.065
496.143
497.222
498.3
499.378
500.456
501.535
502.613
503.691
504.769
505.848
506.926
508.004
509.082
510.161
511.239
512.317
513.395
514.474
515.552
516.63
517.708
518.786
519.865
520.943
522.021
523.099
524.178
525.256
526.334
527.412
528.491
529.569
530.647
531.725
532.804
533.882
534.96
536.038
537.117
538.195
539.273
540.351
541.43
542.508
543.586
544.664
545.742
546.821
547.899
548.977
550.055
551.134
552.212
553.29
554.368
555.447
556.525
557.603
558.681
559.76
560.838
561.916
562.994
564.073
565.151
566.229
567.307
568.386
569.464
570.542
571.62
572.698
573.777
574.855
575.933
577.011
578.09
579.168
580.246
581.324
582.403
583.481
584.559
585.637
586.716
587.794
588.872
589.95
591.029
592.107
593.185
594.263
595.342
596.42
597.498
598.576
599.654
600.733
601.811
602.889
603.967
605.046
606.124
607.202
608.28
609.359
610.437
611.515
612.593
613.672
614.75
615.828
616.906
617.985
619.063
620.141
621.219
622.298
623.376
624.454
625.532
626.61
627.689
628.767
629.845
630.923
632.002
633.08
634.158
635.236
636.315
637.393
638.471
639.549
640.628
641.706
642.784
643.862
644.941
646.019
647.097
648.175
649.254
650.332
651.41
652.488
653.566
654.645
655.723
656.801
657.879
658.958
660.036
661.114
662.192
663.271
664.349
665.427
666.505
667.584
668.662
669.74
670.818
671.897
672.975
674.053
675.131
676.21
677.288
678.366
679.444
680.522
681.601
682.679
683.757
684.835
685.914
686.992
688.07
689.148
690.227
691.305
692.383
693.461
694.54
695.618
696.696
697.774
698.853
699.931
701.009
702.087
703.166
704.244
705.322
706.4
707.478
708.557
709.635
710.713
711.791
712.87
713.943
357.349
354.587
354.531
354.685
355.399
356.384
357.514
358.674
359.887
361.111
362.35
363.592
364.852
366.115
367.381
368.655
369.922
371.19
372.458
373.725
374.99
376.255
377.51
378.745
379.962
381.163
382.347
383.517
384.674
385.819
386.952
388.076
389.193
390.304
391.411
392.513
393.612
394.707
395.8
396.891
397.98
399.068
400.154
401.239
402.323
403.406
404.488
405.57
406.651
407.732
408.813
409.893
410.973
412.052
413.132
414.211
415.29
416.369
417.448
418.527
419.605
420.684
421.763
422.841
423.92
424.998
426.077
427.155
428.233
429.312
430.39
431.468
432.547
433.625
434.703
435.782
436.86
437.938
439.016
440.095
441.173
442.251
443.329
444.408
445.486
446.564
447.642
448.721
449.799
450.877
451.955
453.034
454.112
455.19
456.268
457.347
458.425
459.503
460.581
461.66
462.738
463.816
464.894
465.973
467.051
468.129
469.207
470.285
471.364
472.442
473.52
474.598
475.677
476.755
477.833
478.911
479.99
481.068
482.146
483.224
484.303
485.381
486.459
487.537
488.616
489.694
490.772
491.85
492.929
494.007
495.085
496.163
497.241
498.32
499.398
500.476
501.554
502.633
503.711
504.789
505.867
506.946
508.024
509.102
510.18
511.259
512.337
513.415
514.493
515.572
516.65
517.728
518.806
519.885
520.963
522.041
523.119
524.197
525.276
526.354
527.432
528.51
529.589
530.667
531.745
532.823
533.902
534.98
536.058
537.136
538.215
539.293
540.371
541.449
542.528
543.606
544.684
545.762
546.841
547.919
548.997
550.075
551.153
552.232
553.31
554.388
555.466
556.545
557.623
558.701
559.779
560.858
561.936
563.014
564.092
565.171
566.249
567.327
568.405
569.484
570.562
571.64
572.718
573.797
574.875
575.953
577.031
578.109
579.188
580.266
581.344
582.422
583.501
584.579
585.657
586.735
587.814
588.892
589.97
591.048
592.127
593.205
594.283
595.361
596.44
597.518
598.596
599.674
600.753
601.831
602.909
603.987
605.065
606.144
607.222
608.3
609.378
610.457
611.535
612.613
613.691
614.77
615.848
616.926
618.004
619.083
620.161
621.239
622.317
623.396
624.474
625.552
626.63
627.709
628.787
629.865
630.943
632.021
633.1
634.178
635.256
636.334
637.413
638.491
639.569
640.647
641.726
642.804
643.882
644.96
646.039
647.117
648.195
649.273
650.352
651.43
652.508
653.586
654.665
655.743
656.821
657.899
658.977
660.056
661.134
662.212
663.29
664.369
665.447
666.525
667.603
668.682
669.76
670.838
671.916
672.995
674.073
675.151
676.229
677.31
320.625
317.955
317.915
318.072
318.776
319.755
320.882
322.039
323.252
324.475
325.713
326.954
328.213
329.476
330.741
332.016
333.283
334.55
335.817
337.084
338.35
339.615
340.869
342.104
343.321
344.522
345.707
346.877
348.033
349.178
350.311
351.436
352.552
353.663
354.77
355.872
356.971
358.067
359.16
360.251
361.34
362.427
363.514
364.598
365.682
366.766
367.848
368.93
370.011
371.092
372.172
373.252
374.332
375.412
376.491
377.571
378.65
379.729
380.808
381.886
382.965
384.044
385.122
386.201
387.279
388.358
389.436
390.515
391.593
392.671
393.75
394.828
395.906
396.985
398.063
399.141
400.219
401.298
402.376
403.454
404.533
405.611
406.689
407.767
408.846
409.924
411.002
412.08
413.159
414.237
415.315
416.393
417.472
418.55
419.628
420.706
421.784
422.863
423.941
425.019
426.097
427.176
428.254
429.332
430.41
431.489
432.567
433.645
434.723
435.802
436.88
437.958
439.036
440.115
441.193
442.271
443.349
444.428
445.506
446.584
447.662
448.74
449.819
450.897
451.975
453.053
454.132
455.21
456.288
457.366
458.445
459.523
460.601
461.679
462.758
463.836
464.914
465.992
467.071
468.149
469.227
470.305
471.384
472.462
473.54
474.618
475.696
476.775
477.853
478.931
480.009
481.088
482.166
483.244
484.322
485.401
486.479
487.557
488.635
489.714
490.792
491.87
492.948
494.027
495.105
496.183
497.261
498.34
499.418
500.496
501.574
502.652
503.731
504.809
505.887
506.965
508.044
509.122
510.2
511.278
512.357
513.435
514.513
515.591
516.67
517.748
518.826
519.904
520.983
522.061
523.139
524.217
525.296
526.374
527.452
528.53
529.608
530.687
531.765
532.843
533.921
535
536.078
537.156
538.234
539.313
540.391
541.469
542.547
543.626
544.704
545.782
546.86
547.939
549.017
550.095
551.173
552.252
553.33
554.408
555.486
556.564
557.643
558.721
559.799
560.877
561.956
563.034
564.112
565.19
566.269
567.347
568.425
569.503
570.582
571.66
572.738
573.816
574.895
575.973
577.051
578.129
579.208
580.286
581.364
582.442
583.52
584.599
585.677
586.755
587.833
588.912
589.99
591.068
592.146
593.225
594.303
595.381
596.459
597.538
598.616
599.694
600.772
601.851
602.929
604.007
605.085
606.164
607.242
608.32
609.398
610.476
611.555
612.633
613.711
614.789
615.868
616.946
618.024
619.102
620.181
621.259
622.337
623.415
624.494
625.572
626.65
627.728
628.807
629.885
630.963
632.041
633.12
634.198
635.276
636.354
637.432
638.511
639.589
640.668
283.923
281.328
281.293
281.446
282.148
283.124
284.249
285.405
286.616
287.839
289.077
290.318
291.576
292.838
294.104
295.377
296.644
297.912
299.178
300.445
301.71
302.975
304.229
305.464
306.681
307.882
309.066
310.236
311.393
312.538
313.671
314.795
315.912
317.023
318.13
319.232
320.331
321.426
322.52
323.611
324.7
325.787
326.873
327.958
329.042
330.125
331.208
332.289
333.371
334.452
335.532
336.612
337.692
338.772
339.851
340.93
342.009
343.088
344.167
345.246
346.325
347.403
348.482
349.56
350.639
351.717
352.796
353.874
354.953
356.031
357.109
358.188
359.266
360.344
361.423
362.501
363.579
364.657
365.736
366.814
367.892
368.97
370.049
371.127
372.205
373.283
374.362
375.44
376.518
377.596
378.675
379.753
380.831
381.909
382.988
384.066
385.144
386.222
387.301
388.379
389.457
390.535
391.614
392.692
393.77
394.848
395.927
397.005
398.083
399.161
400.24
401.318
402.396
403.474
404.552
405.631
406.709
407.787
408.865
409.944
411.022
412.1
413.178
414.257
415.335
416.413
417.491
418.57
419.648
420.726
421.804
422.883
423.961
425.039
426.117
427.196
428.274
429.352
430.43
431.508
432.587
433.665
434.743
435.821
436.9
437.978
439.056
440.134
441.213
442.291
443.369
444.447
445.526
446.604
447.682
448.76
449.839
450.917
451.995
453.073
454.152
455.23
456.308
457.386
458.464
459.543
460.621
461.699
462.777
463.856
464.934
466.012
467.09
468.169
469.247
470.325
471.403
472.482
473.56
474.638
475.716
476.795
477.873
478.951
480.029
481.108
482.186
483.264
484.342
485.42
486.499
487.577
488.655
489.733
490.812
491.89
492.968
494.046
495.125
496.203
497.281
498.359
499.438
500.516
501.594
502.672
503.751
504.829
505.907
506.985
508.063
509.142
510.22
511.298
512.376
513.455
514.533
515.611
516.689
517.768
518.846
519.924
521.002
522.081
523.159
524.237
525.315
526.394
527.472
528.55
529.628
530.707
531.785
532.863
533.941
535.019
536.098
537.176
538.254
539.332
540.411
541.489
542.567
543.645
544.724
545.802
546.88
547.958
549.037
550.115
551.193
552.271
553.35
554.428
555.506
556.584
557.663
558.741
559.819
560.897
561.975
563.054
564.132
565.21
566.288
567.367
568.445
569.523
570.601
571.68
572.758
573.836
574.914
575.993
577.071
578.149
579.227
580.306
581.384
582.462
583.54
584.619
585.697
586.775
587.853
588.931
590.01
591.088
592.166
593.244
594.323
595.401
596.479
597.557
598.636
599.714
600.792
601.87
602.949
604.028
247.221
244.692
244.661
244.81
245.517
246.49
247.612
248.768
249.98
251.203
252.44
253.681
254.939
256.201
257.467
258.74
260.007
261.274
262.54
263.807
265.072
266.336
267.59
268.825
270.041
271.242
272.426
273.596
274.753
275.897
277.031
278.155
279.271
280.383
281.489
282.592
283.69
284.786
285.879
286.97
288.059
289.147
290.233
291.318
292.402
293.485
294.567
295.649
296.73
297.811
298.892
299.972
301.052
302.131
303.211
304.29
305.369
306.448
307.527
308.606
309.684
310.763
311.842
312.92
313.999
315.077
316.155
317.234
318.312
319.391
320.469
321.547
322.626
323.704
324.782
325.86
326.939
328.017
329.095
330.174
331.252
332.33
333.408
334.487
335.565
336.643
337.721
338.8
339.878
340.956
342.034
343.113
344.191
345.269
346.347
347.426
348.504
349.582
350.66
351.739
352.817
353.895
354.973
356.051
357.13
358.208
359.286
360.364
361.443
362.521
363.599
364.677
365.756
366.834
367.912
368.99
370.069
371.147
372.225
373.303
374.382
375.46
376.538
377.616
378.695
379.773
380.851
381.929
383.007
384.086
385.164
386.242
387.32
388.399
389.477
390.555
391.633
392.712
393.79
394.868
395.946
397.025
398.103
399.181
400.259
401.338
402.416
403.494
404.572
405.651
406.729
407.807
408.885
409.963
411.042
412.12
413.198
414.276
415.355
416.433
417.511
418.589
419.668
420.746
421.824
422.902
423.981
425.059
426.137
427.215
428.294
429.372
430.45
431.528
432.607
433.685
434.763
435.841
436.919
437.998
439.076
440.154
441.232
442.311
443.389
444.467
445.545
446.624
447.702
448.78
449.858
450.937
452.015
453.093
454.171
455.25
456.328
457.406
458.484
459.563
460.641
461.719
462.797
463.875
464.954
466.032
467.11
468.188
469.267
470.345
471.423
472.501
473.58
474.658
475.736
476.814
477.893
478.971
480.049
481.127
482.206
483.284
484.362
485.44
486.519
487.597
488.675
489.753
490.831
491.91
492.988
494.066
495.144
496.223
497.301
498.379
499.457
500.536
501.614
502.692
503.77
504.849
505.927
507.005
508.083
509.162
510.24
511.318
512.396
513.475
514.553
515.631
516.709
517.787
518.866
519.944
521.022
522.1
523.179
524.257
525.335
526.413
527.492
528.57
529.648
530.726
531.805
532.883
533.961
535.039
536.118
537.196
538.274
539.352
540.431
541.509
542.587
543.665
544.743
545.822
546.9
547.978
549.056
550.135
551.213
552.291
553.369
554.448
555.526
556.604
557.682
558.761
559.839
560.917
561.995
563.074
564.152
565.23
566.308
567.387
210.546
208.045
208.016
208.173
208.879
209.851
210.971
212.13
213.341
214.565
215.801
217.043
218.302
219.564
220.829
222.103
223.369
224.636
225.903
227.169
228.434
229.698
230.951
232.186
233.401
234.602
235.787
236.956
238.113
239.258
240.391
241.515
242.631
243.742
244.849
245.952
247.05
248.146
249.239
250.33
251.419
252.506
253.593
254.677
255.761
256.845
257.927
259.009
260.09
261.171
262.251
263.331
264.411
265.491
266.57
267.65
268.729
269.808
270.887
271.965
273.044
274.123
275.201
276.28
277.358
278.437
279.515
280.594
281.672
282.75
283.829
284.907
285.985
287.064
288.142
289.22
290.298
291.377
292.455
293.533
294.611
295.69
296.768
297.846
298.924
300.003
301.081
302.159
303.237
304.316
305.394
306.472
307.55
308.629
309.707
310.785
311.863
312.942
314.02
315.098
316.176
317.255
318.333
319.411
320.489
321.568
322.646
323.724
324.802
325.881
326.959
328.037
329.115
330.194
331.272
332.35
333.428
334.506
335.585
336.663
337.741
338.819
339.898
340.976
342.054
343.132
344.211
345.289
346.367
347.445
348.524
349.602
350.68
351.758
352.837
353.915
354.993
356.071
357.15
358.228
359.306
360.384
361.462
362.541
363.619
364.697
365.775
366.854
367.932
369.01
370.088
371.167
372.245
373.323
374.401
375.48
376.558
377.636
378.714
379.793
380.871
381.949
383.027
384.106
385.184
386.262
387.34
388.418
389.497
390.575
391.653
392.731
393.81
394.888
395.966
397.044
398.123
399.201
400.279
401.357
402.436
403.514
404.592
405.67
406.749
407.827
408.905
409.983
411.062
412.14
413.218
414.296
415.374
416.453
417.531
418.609
419.687
420.766
421.844
422.922
424
425.079
426.157
427.235
428.313
429.392
430.47
431.548
432.626
433.705
434.783
435.861
436.939
438.018
439.096
440.174
441.252
442.33
443.409
444.487
445.565
446.643
447.722
448.8
449.878
450.956
452.035
453.113
454.191
455.269
456.348
457.426
458.504
459.582
460.661
461.739
462.817
463.895
464.974
466.052
467.13
468.208
469.286
470.365
471.443
472.521
473.599
474.678
475.756
476.834
477.912
478.991
480.069
481.147
482.225
483.304
484.382
485.46
486.538
487.617
488.695
489.773
490.851
491.93
493.008
494.086
495.164
496.242
497.321
498.399
499.477
500.555
501.634
502.712
503.79
504.868
505.947
507.025
508.103
509.181
510.26
511.338
512.416
513.494
514.573
515.651
516.729
517.807
518.886
519.964
521.042
522.12
523.198
524.277
525.355
526.433
527.511
528.59
529.668
530.747
173.9
171.403
171.364
171.526
172.235
173.208
174.329
175.488
176.7
177.924
179.161
180.404
181.663
182.925
184.19
185.465
186.731
187.998
189.265
190.531
191.796
193.06
194.313
195.547
196.763
197.963
199.147
200.317
201.473
202.618
203.751
204.875
205.991
207.102
208.209
209.311
210.41
211.506
212.599
213.69
214.779
215.866
216.952
218.037
219.121
220.204
221.287
222.368
223.45
224.531
225.611
226.691
227.771
228.851
229.93
231.009
232.088
233.167
234.246
235.325
236.404
237.482
238.561
239.639
240.718
241.796
242.875
243.953
245.032
246.11
247.188
248.267
249.345
250.423
251.502
252.58
253.658
254.736
255.815
256.893
257.971
259.049
260.128
261.206
262.284
263.362
264.441
265.519
266.597
267.675
268.754
269.832
270.91
271.988
273.067
274.145
275.223
276.301
277.38
278.458
279.536
280.614
281.693
282.771
283.849
284.927
286.005
287.084
288.162
289.24
290.318
291.397
292.475
293.553
294.631
295.71
296.788
297.866
298.944
300.023
301.101
302.179
303.257
304.336
305.414
306.492
307.57
308.649
309.727
310.805
311.883
312.961
314.04
315.118
316.196
317.274
318.353
319.431
320.509
321.587
322.666
323.744
324.822
325.9
326.979
328.057
329.135
330.213
331.292
332.37
333.448
334.526
335.605
336.683
337.761
338.839
339.917
340.996
342.074
343.152
344.23
345.309
346.387
347.465
348.543
349.622
350.7
351.778
352.856
353.935
355.013
356.091
357.169
358.248
359.326
360.404
361.482
362.561
363.639
364.717
365.795
366.873
367.952
369.03
370.108
371.186
372.265
373.343
374.421
375.499
376.578
377.656
378.734
379.812
380.891
381.969
383.047
384.125
385.204
386.282
387.36
388.438
389.517
390.595
391.673
392.751
393.829
394.908
395.986
397.064
398.142
399.221
400.299
401.377
402.455
403.534
404.612
405.69
406.768
407.847
408.925
410.003
411.081
412.16
413.238
414.316
415.394
416.473
417.551
418.629
419.707
420.785
421.864
422.942
424.02
425.098
426.177
427.255
428.333
429.411
430.49
431.568
432.646
433.724
434.803
435.881
436.959
438.037
439.116
440.194
441.272
442.35
443.429
444.507
445.585
446.663
447.741
448.82
449.898
450.976
452.054
453.133
454.211
455.289
456.367
457.446
458.524
459.602
460.68
461.759
462.837
463.915
464.993
466.072
467.15
468.228
469.306
470.385
471.463
472.541
473.619
474.697
475.776
476.854
477.932
479.01
480.089
481.167
482.245
483.323
484.402
485.48
486.558
487.636
488.715
489.793
490.871
491.949
493.028
494.107
137.28
134.77
134.719
134.88
135.591
136.565
137.686
138.846
140.058
141.282
142.52
143.763
145.023
146.285
147.55
148.826
150.092
151.359
152.626
153.892
155.157
156.421
157.674
158.908
160.123
161.324
162.508
163.677
164.833
165.978
167.111
168.235
169.351
170.462
171.569
172.671
173.77
174.866
175.959
177.049
178.138
179.226
180.312
181.397
182.481
183.564
184.646
185.728
186.809
187.89
188.971
190.051
191.131
192.21
193.29
194.369
195.448
196.527
197.606
198.685
199.763
200.842
201.921
202.999
204.078
205.156
206.234
207.313
208.391
209.47
210.548
211.626
212.705
213.783
214.861
215.939
217.018
218.096
219.174
220.253
221.331
222.409
223.487
224.566
225.644
226.722
227.8
228.879
229.957
231.035
232.113
233.192
234.27
235.348
236.426
237.504
238.583
239.661
240.739
241.817
242.896
243.974
245.052
246.13
247.209
248.287
249.365
250.443
251.522
252.6
253.678
254.756
255.835
256.913
257.991
259.069
260.148
261.226
262.304
263.382
264.461
265.539
266.617
267.695
268.773
269.852
270.93
272.008
273.086
274.165
275.243
276.321
277.399
278.478
279.556
280.634
281.712
282.791
283.869
284.947
286.025
287.104
288.182
289.26
290.338
291.417
292.495
293.573
294.651
295.729
296.808
297.886
298.964
300.042
301.121
302.199
303.277
304.355
305.434
306.512
307.59
308.668
309.747
310.825
311.903
312.981
314.06
315.138
316.216
317.294
318.373
319.451
320.529
321.607
322.685
323.764
324.842
325.92
326.998
328.077
329.155
330.233
331.311
332.39
333.468
334.546
335.624
336.703
337.781
338.859
339.937
341.016
342.094
343.172
344.25
345.329
346.407
347.485
348.563
349.641
350.72
351.798
352.876
353.954
355.033
356.111
357.189
358.267
359.346
360.424
361.502
362.58
363.659
364.737
365.815
366.893
367.972
369.05
370.128
371.206
372.284
373.363
374.441
375.519
376.597
377.676
378.754
379.832
380.91
381.989
383.067
384.145
385.223
386.302
387.38
388.458
389.536
390.615
391.693
392.771
393.849
394.928
396.006
397.084
398.162
399.24
400.319
401.397
402.475
403.553
404.632
405.71
406.788
407.866
408.945
410.023
411.101
412.179
413.258
414.336
415.414
416.492
417.571
418.649
419.727
420.805
421.884
422.962
424.04
425.118
426.196
427.275
428.353
429.431
430.509
431.588
432.666
433.744
434.822
435.901
436.979
438.057
439.135
440.214
441.292
442.37
443.448
444.527
445.605
446.683
447.761
448.84
449.918
450.996
452.074
453.153
454.231
455.309
456.387
457.466
)
;

boundaryField
{
    inlet
    {
        type            calculated;
        value           nonuniform List<scalar> 8(392.83 356.127 319.404 282.702 246 209.324 172.679 136.059);
    }
    outlet
    {
        type            calculated;
        value           nonuniform List<scalar> 8(714.487 677.846 641.206 604.566 567.925 531.285 494.645 458.004);
    }
    sideWall
    {
        type            empty;
    }
    bed
    {
        type            calculated;
        value           nonuniform List<scalar> 
300
(
412.371
409.508
409.478
409.637
410.351
411.338
412.469
413.63
414.844
416.069
417.309
418.551
419.811
421.075
422.341
423.616
424.883
426.151
427.419
428.686
429.952
431.217
432.471
433.707
434.923
436.124
437.309
438.479
439.635
440.78
441.913
443.037
444.154
445.265
446.371
447.474
448.572
449.668
450.761
451.852
452.941
454.028
455.115
456.199
457.283
458.367
459.449
460.531
461.612
462.693
463.773
464.853
465.933
467.013
468.092
469.172
470.251
471.33
472.408
473.487
474.566
475.645
476.723
477.802
478.88
479.959
481.037
482.115
483.194
484.272
485.351
486.429
487.507
488.585
489.664
490.742
491.82
492.899
493.977
495.055
496.133
497.212
498.29
499.368
500.446
501.525
502.603
503.681
504.759
505.838
506.916
507.994
509.072
510.151
511.229
512.307
513.385
514.464
515.542
516.62
517.698
518.777
519.855
520.933
522.011
523.09
524.168
525.246
526.324
527.402
528.481
529.559
530.637
531.715
532.794
533.872
534.95
536.028
537.107
538.185
539.263
540.341
541.42
542.498
543.576
544.654
545.733
546.811
547.889
548.967
550.046
551.124
552.202
553.28
554.358
555.437
556.515
557.593
558.671
559.75
560.828
561.906
562.984
564.063
565.141
566.219
567.297
568.376
569.454
570.532
571.61
572.689
573.767
574.845
575.923
577.002
578.08
579.158
580.236
581.314
582.393
583.471
584.549
585.627
586.706
587.784
588.862
589.94
591.019
592.097
593.175
594.253
595.332
596.41
597.488
598.566
599.645
600.723
601.801
602.879
603.958
605.036
606.114
607.192
608.27
609.349
610.427
611.505
612.583
613.662
614.74
615.818
616.896
617.975
619.053
620.131
621.209
622.288
623.366
624.444
625.522
626.601
627.679
628.757
629.835
630.914
631.992
633.07
634.148
635.226
636.305
637.383
638.461
639.539
640.618
641.696
642.774
643.852
644.931
646.009
647.087
648.165
649.244
650.322
651.4
652.478
653.557
654.635
655.713
656.791
657.87
658.948
660.026
661.104
662.182
663.261
664.339
665.417
666.495
667.574
668.652
669.73
670.808
671.887
672.965
674.043
675.121
676.2
677.278
678.356
679.434
680.513
681.591
682.669
683.747
684.826
685.904
686.982
688.06
689.138
690.217
691.295
692.373
693.451
694.53
695.608
696.686
697.764
698.843
699.921
700.999
702.077
703.156
704.234
705.312
706.39
707.469
708.547
709.625
710.703
711.782
712.86
713.938
715.016
716.094
717.173
718.251
719.329
720.407
721.486
722.564
723.642
724.72
725.799
726.877
727.955
729.033
730.112
731.19
732.263
)
;
    }
    topWall
    {
        type            calculated;
        value           nonuniform List<scalar> 
300
(
118.96
116.449
116.399
116.56
117.271
118.244
119.366
120.525
121.738
122.962
124.2
125.443
126.702
127.965
129.23
130.506
131.772
133.039
134.306
135.572
136.836
138.1
139.354
140.588
141.803
143.003
144.187
145.357
146.513
147.658
148.791
149.915
151.031
152.142
153.249
154.351
155.45
156.545
157.638
158.729
159.818
160.906
161.992
163.077
164.161
165.244
166.326
167.408
168.489
169.57
170.65
171.731
172.81
173.89
174.969
176.049
177.128
178.207
179.286
180.364
181.443
182.522
183.6
184.679
185.757
186.836
187.914
188.993
190.071
191.149
192.228
193.306
194.384
195.463
196.541
197.619
198.698
199.776
200.854
201.932
203.011
204.089
205.167
206.245
207.324
208.402
209.48
210.558
211.637
212.715
213.793
214.871
215.95
217.028
218.106
219.184
220.263
221.341
222.419
223.497
224.576
225.654
226.732
227.81
228.888
229.967
231.045
232.123
233.201
234.28
235.358
236.436
237.514
238.593
239.671
240.749
241.827
242.906
243.984
245.062
246.14
247.219
248.297
249.375
250.453
251.532
252.61
253.688
254.766
255.844
256.923
258.001
259.079
260.157
261.236
262.314
263.392
264.47
265.549
266.627
267.705
268.783
269.862
270.94
272.018
273.096
274.175
275.253
276.331
277.409
278.488
279.566
280.644
281.722
282.8
283.879
284.957
286.035
287.113
288.192
289.27
290.348
291.426
292.505
293.583
294.661
295.739
296.818
297.896
298.974
300.052
301.131
302.209
303.287
304.365
305.444
306.522
307.6
308.678
309.756
310.835
311.913
312.991
314.069
315.148
316.226
317.304
318.382
319.461
320.539
321.617
322.695
323.774
324.852
325.93
327.008
328.087
329.165
330.243
331.321
332.4
333.478
334.556
335.634
336.712
337.791
338.869
339.947
341.025
342.104
343.182
344.26
345.338
346.417
347.495
348.573
349.651
350.73
351.808
352.886
353.964
355.043
356.121
357.199
358.277
359.356
360.434
361.512
362.59
363.668
364.747
365.825
366.903
367.981
369.06
370.138
371.216
372.294
373.373
374.451
375.529
376.607
377.686
378.764
379.842
380.92
381.999
383.077
384.155
385.233
386.312
387.39
388.468
389.546
390.624
391.703
392.781
393.859
394.937
396.016
397.094
398.172
399.25
400.329
401.407
402.485
403.563
404.642
405.72
406.798
407.876
408.955
410.033
411.111
412.189
413.268
414.346
415.424
416.502
417.58
418.659
419.737
420.815
421.893
422.972
424.05
425.128
426.206
427.285
428.363
429.441
430.519
431.598
432.676
433.754
434.832
435.911
436.989
438.067
439.146
)
;
    }
}


// ************************************************************************* //
