/*--------------------------------*- C++ -*----------------------------------*\
| =========                 |                                                 |
| \\      /  F ield         | foam-extend: Open Source CFD                    |
|  \\    /   O peration     | Version:     3.2                                |
|   \\  /    A nd           | Web:         http://www.foam-extend.org         |
|    \\/     M anipulation  | For copyright notice see file Copyright         |
\*---------------------------------------------------------------------------*/
FoamFile
{
    version     2.0;
    format      ascii;
    class       surfaceScalarField;
    location    "200";
    object      phi;
}
// * * * * * * * * * * * * * * * * * * * * * * * * * * * * * * * * * * * * * //

dimensions      [0 3 -1 0 0 0 0];

internalField   nonuniform List<scalar> 
4492
(
1.55322e-05
4.71776e-06
1.26732e-05
2.85903e-06
1.09109e-05
1.76231e-06
1.01033e-05
8.07625e-07
9.77968e-06
3.23589e-07
9.65684e-06
1.22843e-07
9.63345e-06
2.33911e-08
9.64497e-06
-1.15204e-08
9.67397e-06
-2.8999e-08
9.71333e-06
-3.93583e-08
9.75408e-06
-4.07529e-08
9.79182e-06
-3.77448e-08
9.83121e-06
-3.93906e-08
9.86974e-06
-3.85249e-08
9.90703e-06
-3.72952e-08
9.9474e-06
-4.03633e-08
9.98784e-06
-4.04473e-08
1.00279e-05
-4.00475e-08
1.0068e-05
-4.01108e-08
1.01081e-05
-4.00472e-08
1.01481e-05
-4.00349e-08
1.01902e-05
-4.21301e-08
1.02348e-05
-4.45921e-08
1.02789e-05
-4.41417e-08
1.03196e-05
-4.06233e-08
1.03563e-05
-3.67017e-08
1.03888e-05
-3.25108e-08
1.04171e-05
-2.83547e-08
1.04416e-05
-2.44562e-08
1.04628e-05
-2.122e-08
1.04809e-05
-1.81188e-08
1.04961e-05
-1.51445e-08
1.05084e-05
-1.22899e-08
1.05183e-05
-9.89138e-09
1.05265e-05
-8.23776e-09
1.05334e-05
-6.91738e-09
1.05392e-05
-5.82749e-09
1.05442e-05
-4.93119e-09
1.05484e-05
-4.18681e-09
1.05519e-05
-3.56216e-09
1.0555e-05
-3.03268e-09
1.05575e-05
-2.58242e-09
1.05597e-05
-2.19932e-09
1.05616e-05
-1.87316e-09
1.05632e-05
-1.59496e-09
1.05646e-05
-1.35737e-09
1.05657e-05
-1.15637e-09
1.05667e-05
-9.85572e-10
1.05675e-05
-8.40066e-10
1.05683e-05
-7.17354e-10
1.05689e-05
-6.12296e-10
1.05694e-05
-5.22401e-10
1.05698e-05
-4.45788e-10
1.05702e-05
-3.80803e-10
1.05706e-05
-3.26453e-10
1.05708e-05
-2.79703e-10
1.05711e-05
-2.39451e-10
1.05713e-05
-2.05046e-10
1.05714e-05
-1.75257e-10
1.05716e-05
-1.50143e-10
1.05717e-05
-1.28895e-10
1.05718e-05
-1.10751e-10
1.05719e-05
-9.50219e-11
1.0572e-05
-8.19714e-11
1.05721e-05
-7.05061e-11
1.05721e-05
-5.953e-11
1.05722e-05
-5.05281e-11
1.05722e-05
-4.33757e-11
1.05723e-05
-3.75383e-11
1.05723e-05
-3.21768e-11
1.05723e-05
-2.77753e-11
1.05724e-05
-2.43662e-11
1.05724e-05
-2.08863e-11
1.05724e-05
-1.78421e-11
1.05724e-05
-1.5375e-11
1.05724e-05
-1.29219e-11
1.05724e-05
-1.04731e-11
1.05724e-05
-9.02229e-12
1.05725e-05
-7.48438e-12
1.05725e-05
-6.3005e-12
1.05725e-05
-5.745e-12
1.05725e-05
-4.84246e-12
1.05725e-05
-4.27036e-12
1.05725e-05
-3.93104e-12
1.05725e-05
-3.47109e-12
1.05725e-05
-2.85983e-12
1.05725e-05
-2.16314e-12
1.05725e-05
-1.63088e-12
1.05725e-05
-1.38019e-12
1.05725e-05
-1.02084e-12
1.05725e-05
-7.09154e-13
1.05725e-05
-7.38719e-13
1.05725e-05
-8.41144e-13
1.05725e-05
-8.60571e-13
1.05725e-05
-7.71381e-13
1.05725e-05
-4.99912e-13
1.05725e-05
-2.52421e-13
1.05725e-05
-2.01366e-13
1.05725e-05
-2.10723e-13
1.05725e-05
-2.651e-13
1.05725e-05
-3.55941e-13
1.05725e-05
-4.19757e-13
1.05725e-05
-4.19516e-13
1.05725e-05
-3.66947e-13
1.05725e-05
-2.85009e-13
1.05725e-05
-1.96393e-13
1.05725e-05
-1.21907e-13
1.05725e-05
-6.97829e-14
1.05725e-05
-3.64517e-14
1.05725e-05
-1.57767e-14
1.05725e-05
-3.65674e-15
1.05725e-05
3.10489e-15
1.05725e-05
8.00571e-15
1.05725e-05
1.04362e-14
1.05725e-05
9.39524e-15
1.05725e-05
7.43758e-15
1.05725e-05
5.64993e-15
1.05725e-05
3.33135e-15
1.05725e-05
8.81506e-16
1.05725e-05
-8.76102e-16
1.05725e-05
-1.57706e-15
1.05725e-05
-9.3374e-16
1.05725e-05
2.78954e-16
1.05725e-05
1.42555e-15
1.05725e-05
3.27139e-15
1.05725e-05
6.10005e-15
1.05725e-05
8.10836e-15
1.05725e-05
8.26283e-15
1.05725e-05
7.43975e-15
1.05725e-05
6.23119e-15
1.05725e-05
4.94691e-15
1.05725e-05
3.79449e-15
1.05725e-05
2.97852e-15
1.05725e-05
2.14237e-15
1.05725e-05
1.4028e-15
1.05725e-05
1.75833e-15
1.05725e-05
2.57364e-15
1.05725e-05
2.28267e-15
1.05725e-05
1.15739e-15
1.05725e-05
2.19882e-16
1.05725e-05
-1.38986e-16
1.05725e-05
6.6624e-16
1.05725e-05
7.13489e-16
1.05725e-05
-1.32518e-15
1.05725e-05
-3.13275e-15
1.05725e-05
-4.00795e-15
1.05725e-05
-5.05878e-15
1.05725e-05
-6.1213e-15
1.05725e-05
-6.40667e-15
1.05725e-05
-5.98744e-15
1.05725e-05
-5.11896e-15
1.05725e-05
-4.41673e-15
1.05725e-05
-3.84939e-15
1.05725e-05
-2.42091e-15
1.05725e-05
-7.35617e-16
1.05725e-05
-3.30887e-16
1.05725e-05
-9.06351e-16
1.05725e-05
-1.35476e-15
1.05725e-05
-1.45095e-15
1.05725e-05
-1.34459e-15
1.05725e-05
-1.15956e-15
1.05725e-05
-8.44171e-16
1.05725e-05
-7.82501e-16
1.05725e-05
-8.11446e-16
1.05725e-05
6.65737e-17
1.05725e-05
1.11897e-15
1.05725e-05
1.17738e-15
1.05725e-05
1.00043e-15
1.05725e-05
1.61738e-15
1.05725e-05
3.33964e-15
1.05725e-05
5.97936e-15
1.05725e-05
8.23778e-15
1.05725e-05
9.49814e-15
1.05725e-05
1.06062e-14
1.05725e-05
1.12017e-14
1.05725e-05
1.01271e-14
1.05725e-05
7.97581e-15
1.05725e-05
6.0318e-15
1.05725e-05
4.59965e-15
1.05725e-05
3.55452e-15
1.05725e-05
2.77902e-15
1.05725e-05
2.31006e-15
1.05725e-05
1.73426e-15
1.05725e-05
1.16841e-15
1.05725e-05
1.63233e-15
1.05725e-05
2.53244e-15
1.05725e-05
2.27258e-15
1.05725e-05
1.00094e-15
1.05725e-05
1.56191e-16
1.05725e-05
4.59929e-16
1.05725e-05
1.66476e-15
1.05725e-05
2.70678e-15
1.05725e-05
3.28588e-15
1.05725e-05
4.34792e-15
1.05725e-05
5.38852e-15
1.05725e-05
5.01294e-15
1.05725e-05
3.63867e-15
1.05725e-05
2.44549e-15
1.05725e-05
1.69628e-15
1.05725e-05
1.35657e-15
1.05725e-05
9.32635e-16
1.05725e-05
5.06834e-16
1.05725e-05
1.09255e-15
1.05725e-05
2.07992e-15
1.05725e-05
1.95041e-15
1.05725e-05
9.25891e-16
1.05725e-05
1.87712e-16
1.05725e-05
6.08698e-16
1.05725e-05
2.2725e-15
1.05725e-05
4.31906e-15
1.05725e-05
5.98009e-15
1.05725e-05
6.54437e-15
1.05725e-05
6.26759e-15
1.05725e-05
6.46942e-15
1.05725e-05
6.80963e-15
1.05725e-05
5.92683e-15
1.05725e-05
4.20844e-15
1.05725e-05
2.78742e-15
1.05725e-05
1.89248e-15
1.05725e-05
1.46226e-15
1.05725e-05
9.83663e-16
1.05725e-05
5.26436e-16
1.05725e-05
1.09552e-15
1.05725e-05
2.03982e-15
1.05725e-05
2.02777e-15
1.05725e-05
1.13143e-15
1.05725e-05
1.26394e-17
1.05725e-05
-6.03208e-16
1.05725e-05
-4.90476e-16
1.05725e-05
-2.3995e-16
1.05725e-05
-2.95208e-16
1.05725e-05
-2.17919e-16
1.05725e-05
5.43385e-16
1.05725e-05
1.80738e-15
1.05725e-05
3.02487e-15
1.05725e-05
3.81606e-15
1.05725e-05
4.10778e-15
1.05725e-05
4.00582e-15
1.05725e-05
3.66492e-15
1.05725e-05
3.22809e-15
1.05725e-05
2.74311e-15
1.05725e-05
2.27215e-15
1.05725e-05
1.94171e-15
1.05725e-05
1.70218e-15
1.05725e-05
1.40265e-15
1.05725e-05
1.06657e-15
1.05725e-05
7.93729e-16
1.05725e-05
5.98203e-16
1.05725e-05
4.56733e-16
1.05725e-05
3.50629e-16
1.05725e-05
2.70512e-16
1.05725e-05
2.09364e-16
1.05725e-05
1.61884e-16
1.05725e-05
1.25142e-16
1.05725e-05
9.77373e-17
1.05725e-05
7.67709e-17
1.05725e-05
6.00834e-17
1.05725e-05
4.68933e-17
1.05725e-05
3.66501e-17
1.05725e-05
2.87369e-17
1.05725e-05
2.29553e-17
1.05725e-05
1.87216e-17
1.05725e-05
1.50711e-17
1.05725e-05
1.14356e-17
1.05725e-05
8.73683e-18
1.05725e-05
6.70819e-18
1.05725e-05
4.79544e-18
1.05725e-05
3.10141e-18
1.05725e-05
2.3596e-18
1.05725e-05
2.43553e-18
1.05725e-05
2.9368e-18
1.05725e-05
3.30676e-18
1.05725e-05
2.58568e-18
1.05725e-05
1.76218e-18
1.05725e-05
1.29366e-18
1.05725e-05
2.11419e-18
1.05725e-05
1.49249e-17
1.05725e-05
3.80218e-18
1.05725e-05
-1.5669e-17
1.05725e-05
5.82953e-17
1.05725e-05
1.68358e-16
1.05725e-05
1.59518e-16
1.05725e-05
6.56757e-17
1.05725e-05
-1.63656e-17
1.05725e-05
-3.62368e-17
1.05725e-05
-8.41865e-17
1.05725e-05
1.03668e-17
1.05725e-05
-2.16429e-16
1.05725e-05
3.69404e-16
1.05725e-05
-1.04071e-15
1.05725e-05
2.50158e-15
1.05725e-05
-6.285e-15
1.05725e-05
1.43177e-14
1.05725e-05
-4.84421e-14
1.05725e-05
-7.93702e-14
1.05725e-05
-1.56274e-12
1.05725e-05
-1.48005e-11
1.05728e-05
-3.16536e-10
1.0573e-05
-1.96201e-10
1.01867e-09
1.98287e-05
5.13904e-06
1.88709e-05
3.81688e-06
1.78588e-05
2.77435e-06
1.70657e-05
1.60073e-06
1.65551e-05
8.3416e-07
1.62217e-05
4.5625e-07
1.60082e-05
2.36892e-07
1.58645e-05
1.32166e-07
1.57662e-05
6.93535e-08
1.57058e-05
2.10752e-08
1.56736e-05
-8.54635e-09
1.56601e-05
-2.43089e-08
1.56628e-05
-4.20572e-08
1.56741e-05
-4.98574e-08
1.56951e-05
-5.8312e-08
1.57253e-05
-7.05067e-08
1.5762e-05
-7.71266e-08
1.58044e-05
-8.25092e-08
1.58515e-05
-8.7214e-08
1.59023e-05
-9.0808e-08
1.59555e-05
-9.32189e-08
1.60104e-05
-9.7055e-08
1.60662e-05
-1.0042e-07
1.61209e-05
-9.88136e-08
1.61717e-05
-9.14765e-08
1.62182e-05
-8.31625e-08
1.626e-05
-7.43403e-08
1.62972e-05
-6.55181e-08
1.63299e-05
-5.71589e-08
1.63588e-05
-5.01239e-08
1.63841e-05
-4.33909e-08
1.64058e-05
-3.68729e-08
1.6424e-05
-3.04957e-08
1.64391e-05
-2.49735e-08
1.64519e-05
-2.10009e-08
1.64628e-05
-1.78239e-08
1.64721e-05
-1.51725e-08
1.64801e-05
-1.29467e-08
1.6487e-05
-1.10596e-08
1.64929e-05
-9.45063e-09
1.64979e-05
-8.07392e-09
1.65022e-05
-6.8947e-09
1.65059e-05
-5.88582e-09
1.65091e-05
-5.02384e-09
1.65118e-05
-4.286e-09
1.65141e-05
-3.65596e-09
1.6516e-05
-3.12029e-09
1.65177e-05
-2.66281e-09
1.65191e-05
-2.27221e-09
1.65204e-05
-1.94108e-09
1.65214e-05
-1.6579e-09
1.65223e-05
-1.41611e-09
1.65231e-05
-1.2095e-09
1.65237e-05
-1.03341e-09
1.65243e-05
-8.84749e-10
1.65248e-05
-7.56781e-10
1.65252e-05
-6.48067e-10
1.65255e-05
-5.54967e-10
1.65258e-05
-4.74877e-10
1.65261e-05
-4.06811e-10
1.65263e-05
-3.48789e-10
1.65265e-05
-2.99217e-10
1.65266e-05
-2.5615e-10
1.65268e-05
-2.20712e-10
1.65269e-05
-1.89305e-10
1.6527e-05
-1.60933e-10
1.65271e-05
-1.37303e-10
1.65272e-05
-1.17859e-10
1.65272e-05
-1.01233e-10
1.65273e-05
-8.59613e-11
1.65273e-05
-7.43933e-11
1.65274e-05
-6.47857e-11
1.65274e-05
-5.58779e-11
1.65274e-05
-4.79962e-11
1.65275e-05
-4.06973e-11
1.65275e-05
-3.38557e-11
1.65275e-05
-2.82553e-11
1.65275e-05
-2.4671e-11
1.65275e-05
-2.09678e-11
1.65275e-05
-1.81882e-11
1.65275e-05
-1.53602e-11
1.65276e-05
-1.23823e-11
1.65276e-05
-1.11393e-11
1.65276e-05
-1.03163e-11
1.65276e-05
-9.44233e-12
1.65276e-05
-8.39509e-12
1.65276e-05
-6.69905e-12
1.65276e-05
-4.90076e-12
1.65276e-05
-3.55644e-12
1.65276e-05
-2.57669e-12
1.65276e-05
-2.40687e-12
1.65276e-05
-2.67292e-12
1.65276e-05
-2.7265e-12
1.65276e-05
-2.4972e-12
1.65276e-05
-2.11003e-12
1.65276e-05
-1.64703e-12
1.65276e-05
-1.35239e-12
1.65276e-05
-1.23089e-12
1.65276e-05
-1.19346e-12
1.65276e-05
-1.28866e-12
1.65276e-05
-1.37777e-12
1.65276e-05
-1.34239e-12
1.65276e-05
-1.14741e-12
1.65276e-05
-8.80705e-13
1.65276e-05
-6.27341e-13
1.65276e-05
-4.12623e-13
1.65276e-05
-2.51674e-13
1.65276e-05
-1.42627e-13
1.65276e-05
-7.2415e-14
1.65276e-05
-2.92569e-14
1.65276e-05
-4.15766e-15
1.65276e-05
1.0818e-14
1.65276e-05
1.95744e-14
1.65276e-05
2.00613e-14
1.65276e-05
1.31999e-14
1.65276e-05
7.10723e-15
1.65276e-05
4.46299e-15
1.65276e-05
1.41471e-15
1.65276e-05
-1.99536e-15
1.65276e-05
-3.30909e-15
1.65276e-05
-1.58396e-15
1.65276e-05
2.41572e-15
1.65276e-05
6.1043e-15
1.65276e-05
7.77557e-15
1.65276e-05
1.20158e-14
1.65276e-05
2.01086e-14
1.65276e-05
2.46944e-14
1.65276e-05
2.34286e-14
1.65276e-05
1.9539e-14
1.65276e-05
1.51767e-14
1.65276e-05
1.1293e-14
1.65276e-05
8.25809e-15
1.65276e-05
6.18791e-15
1.65276e-05
4.19687e-15
1.65276e-05
1.88065e-15
1.65276e-05
2.32483e-15
1.65276e-05
4.9058e-15
1.65276e-05
4.88599e-15
1.65276e-05
2.72994e-15
1.65276e-05
8.86872e-16
1.65276e-05
3.82134e-17
1.65276e-05
-6.68008e-16
1.65276e-05
-4.91946e-15
1.65276e-05
-1.27231e-14
1.65276e-05
-1.71669e-14
1.65276e-05
-1.68138e-14
1.65276e-05
-1.64858e-14
1.65276e-05
-1.66493e-14
1.65276e-05
-1.56647e-14
1.65276e-05
-1.37266e-14
1.65276e-05
-1.13728e-14
1.65276e-05
-9.7126e-15
1.65276e-05
-9.10491e-15
1.65276e-05
-6.34184e-15
1.65276e-05
-1.92487e-15
1.65276e-05
-4.9331e-16
1.65276e-05
-1.50259e-15
1.65276e-05
-2.32705e-15
1.65276e-05
-2.52009e-15
1.65276e-05
-2.37119e-15
1.65276e-05
-2.06476e-15
1.65276e-05
-1.57199e-15
1.65276e-05
-1.65629e-15
1.65276e-05
-2.52248e-15
1.65276e-05
-9.77627e-16
1.65276e-05
3.01474e-15
1.65276e-05
5.87487e-15
1.65276e-05
7.90757e-15
1.65276e-05
1.18511e-14
1.65276e-05
1.84985e-14
1.65276e-05
2.55366e-14
1.65276e-05
2.94441e-14
1.65276e-05
2.91059e-14
1.65276e-05
2.84709e-14
1.65276e-05
2.82464e-14
1.65276e-05
2.47894e-14
1.65276e-05
1.9227e-14
1.65276e-05
1.44369e-14
1.65276e-05
1.09162e-14
1.65276e-05
8.32855e-15
1.65276e-05
6.42313e-15
1.65276e-05
5.14868e-15
1.65276e-05
3.65368e-15
1.65276e-05
1.6223e-15
1.65276e-05
2.22131e-15
1.65276e-05
4.92562e-15
1.65276e-05
4.99299e-15
1.65276e-05
3.47385e-15
1.65276e-05
3.98856e-15
1.65276e-05
6.74017e-15
1.65276e-05
1.00424e-14
1.65276e-05
1.17032e-14
1.65276e-05
1.10904e-14
1.65276e-05
1.17504e-14
1.65276e-05
1.36635e-14
1.65276e-05
1.25691e-14
1.65276e-05
9.24182e-15
1.65276e-05
6.40375e-15
1.65276e-05
4.55341e-15
1.65276e-05
3.49788e-15
1.65276e-05
2.24744e-15
1.65276e-05
4.40051e-16
1.65276e-05
1.2385e-15
1.65276e-05
4.08119e-15
1.65276e-05
4.3278e-15
1.65276e-05
2.45032e-15
1.65276e-05
2.62595e-15
1.65276e-05
6.82985e-15
1.65276e-05
1.28922e-14
1.65276e-05
1.76966e-14
1.65276e-05
1.99457e-14
1.65276e-05
1.91834e-14
1.65276e-05
1.61285e-14
1.65276e-05
1.48891e-14
1.65276e-05
1.55097e-14
1.65276e-05
1.36069e-14
1.65276e-05
9.79718e-15
1.65276e-05
6.67648e-15
1.65276e-05
4.66603e-15
1.65276e-05
3.52245e-15
1.65276e-05
2.22585e-15
1.65276e-05
3.99429e-16
1.65276e-05
1.18619e-15
1.65276e-05
3.98652e-15
1.65276e-05
4.4914e-15
1.65276e-05
2.8807e-15
1.65276e-05
4.60829e-16
1.65276e-05
-1.22563e-15
1.65276e-05
-1.01267e-15
1.65276e-05
-3.29997e-16
1.65276e-05
5.12346e-16
1.65276e-05
2.81455e-15
1.65276e-05
6.48865e-15
1.65276e-05
1.00638e-14
1.65276e-05
1.23181e-14
1.65276e-05
1.29693e-14
1.65276e-05
1.23821e-14
1.65276e-05
1.10864e-14
1.65276e-05
9.52117e-15
1.65276e-05
7.97542e-15
1.65276e-05
6.51351e-15
1.65276e-05
5.16281e-15
1.65276e-05
4.24992e-15
1.65276e-05
3.71138e-15
1.65276e-05
3.06102e-15
1.65276e-05
2.32392e-15
1.65276e-05
1.73186e-15
1.65276e-05
1.30506e-15
1.65276e-05
9.92859e-16
1.65276e-05
7.5741e-16
1.65276e-05
5.79499e-16
1.65276e-05
4.44449e-16
1.65276e-05
3.40875e-16
1.65276e-05
2.61513e-16
1.65276e-05
2.02932e-16
1.65276e-05
1.58666e-16
1.65276e-05
1.23607e-16
1.65276e-05
9.61542e-17
1.65276e-05
7.50684e-17
1.65276e-05
5.88182e-17
1.65276e-05
4.68351e-17
1.65276e-05
3.79567e-17
1.65276e-05
3.04629e-17
1.65276e-05
2.3208e-17
1.65276e-05
1.75548e-17
1.65276e-05
1.35327e-17
1.65276e-05
9.66417e-18
1.65276e-05
6.33613e-18
1.65276e-05
4.74586e-18
1.65276e-05
4.98585e-18
1.65276e-05
5.85506e-18
1.65276e-05
6.63919e-18
1.65276e-05
5.34615e-18
1.65276e-05
3.64441e-18
1.65276e-05
2.38004e-18
1.65276e-05
5.423e-18
1.65276e-05
2.41207e-17
1.65276e-05
-1.32571e-17
1.65276e-05
-1.28953e-16
1.65276e-05
-5.07511e-18
1.65276e-05
3.11025e-16
1.65276e-05
3.50653e-16
1.65276e-05
1.71004e-16
1.65276e-05
1.40906e-17
1.65276e-05
-3.75026e-17
1.65276e-05
-1.1721e-16
1.65276e-05
5.47917e-18
1.65276e-05
-3.13607e-16
1.65276e-05
4.96341e-16
1.65276e-05
-1.45879e-15
1.65276e-05
3.43489e-15
1.65276e-05
-8.86932e-15
1.65276e-05
1.86716e-14
1.65276e-05
-7.99153e-14
1.65276e-05
-2.26741e-13
1.65276e-05
-2.68172e-12
1.65276e-05
-2.92401e-11
1.65276e-05
-2.81185e-10
1.65275e-05
-6.74045e-11
7.85016e-10
2.09717e-05
4.41734e-06
2.12043e-05
3.58432e-06
2.1057e-05
2.92157e-06
2.06591e-05
1.99865e-06
2.01808e-05
1.31249e-06
1.9771e-05
8.66045e-07
1.94556e-05
5.52305e-07
1.92118e-05
3.75907e-07
1.90244e-05
2.5679e-07
1.88912e-05
1.54296e-07
1.88001e-05
8.25442e-08
1.8738e-05
3.77812e-08
1.87016e-05
-5.66467e-09
1.86874e-05
-3.56468e-08
1.86907e-05
-6.15731e-08
1.87064e-05
-8.6213e-08
1.8735e-05
-1.05759e-07
1.87733e-05
-1.2085e-07
1.88189e-05
-1.32722e-07
1.88701e-05
-1.42066e-07
1.89244e-05
-1.4748e-07
1.89789e-05
-1.51579e-07
1.90328e-05
-1.54293e-07
1.90852e-05
-1.51194e-07
1.91339e-05
-1.40262e-07
1.91786e-05
-1.2779e-07
1.92188e-05
-1.14624e-07
1.92547e-05
-1.01392e-07
1.92864e-05
-8.88198e-08
1.93144e-05
-7.8177e-08
1.9339e-05
-6.80029e-08
1.93603e-05
-5.81086e-08
1.93781e-05
-4.8351e-08
1.9393e-05
-3.98206e-08
1.94056e-05
-3.35979e-08
1.94164e-05
-2.86244e-08
1.94257e-05
-2.44482e-08
1.94336e-05
-2.09118e-08
1.94405e-05
-1.78919e-08
1.94463e-05
-1.53045e-08
1.94513e-05
-1.30858e-08
1.94556e-05
-1.11824e-08
1.94593e-05
-9.55166e-09
1.94624e-05
-8.15712e-09
1.94651e-05
-6.96295e-09
1.94674e-05
-5.94299e-09
1.94693e-05
-5.07419e-09
1.9471e-05
-4.33217e-09
1.94724e-05
-3.69826e-09
1.94736e-05
-3.15918e-09
1.94747e-05
-2.6988e-09
1.94756e-05
-2.30594e-09
1.94763e-05
-1.9701e-09
1.9477e-05
-1.68348e-09
1.94775e-05
-1.44051e-09
1.9478e-05
-1.23176e-09
1.94784e-05
-1.05445e-09
1.94788e-05
-9.02903e-10
1.94791e-05
-7.7287e-10
1.94793e-05
-6.61879e-10
1.94795e-05
-5.67122e-10
1.94797e-05
-4.86237e-10
1.94799e-05
-4.16288e-10
1.948e-05
-3.57872e-10
1.94801e-05
-3.06581e-10
1.94802e-05
-2.61567e-10
1.94803e-05
-2.23621e-10
1.94804e-05
-1.9178e-10
1.94805e-05
-1.64555e-10
1.94805e-05
-1.3984e-10
1.94806e-05
-1.20564e-10
1.94806e-05
-1.04614e-10
1.94806e-05
-9.01819e-11
1.94807e-05
-7.74897e-11
1.94807e-05
-6.58352e-11
1.94807e-05
-5.5123e-11
1.94807e-05
-4.62438e-11
1.94807e-05
-3.97501e-11
1.94808e-05
-3.40176e-11
1.94808e-05
-3.00355e-11
1.94808e-05
-2.55019e-11
1.94808e-05
-2.08213e-11
1.94808e-05
-1.84326e-11
1.94808e-05
-1.63878e-11
1.94808e-05
-1.4717e-11
1.94808e-05
-1.33422e-11
1.94808e-05
-1.09782e-11
1.94808e-05
-8.27137e-12
1.94808e-05
-5.9473e-12
1.94808e-05
-4.47373e-12
1.94808e-05
-4.4673e-12
1.94808e-05
-4.78398e-12
1.94808e-05
-4.61479e-12
1.94808e-05
-4.04827e-12
1.94808e-05
-3.35711e-12
1.94808e-05
-2.81865e-12
1.94808e-05
-2.48691e-12
1.94808e-05
-2.21328e-12
1.94808e-05
-2.22464e-12
1.94808e-05
-2.45435e-12
1.94808e-05
-2.50141e-12
1.94808e-05
-2.29127e-12
1.94808e-05
-1.8694e-12
1.94808e-05
-1.38577e-12
1.94808e-05
-9.65763e-13
1.94808e-05
-6.37072e-13
1.94808e-05
-4.01725e-13
1.94808e-05
-2.41424e-13
1.94808e-05
-1.34481e-13
1.94808e-05
-6.66405e-14
1.94808e-05
-2.45972e-14
1.94808e-05
4.00223e-15
1.94808e-05
1.88469e-14
1.94808e-05
1.71149e-14
1.94808e-05
6.06365e-15
1.94808e-05
-1.99122e-15
1.94808e-05
-3.96103e-15
1.94808e-05
-5.49704e-15
1.94808e-05
-7.40308e-15
1.94808e-05
-5.94358e-15
1.94808e-05
4.83903e-16
1.94808e-05
8.98858e-15
1.94808e-05
1.51732e-14
1.94808e-05
1.7128e-14
1.94808e-05
2.35415e-14
1.94808e-05
3.59983e-14
1.94808e-05
4.189e-14
1.94808e-05
3.82358e-14
1.94808e-05
3.05249e-14
1.94808e-05
2.26941e-14
1.94808e-05
1.62897e-14
1.94808e-05
1.16064e-14
1.94808e-05
8.45352e-15
1.94808e-05
5.67263e-15
1.94808e-05
2.57582e-15
1.94808e-05
2.8389e-15
1.94808e-05
5.91892e-15
1.94808e-05
6.09173e-15
1.94808e-05
3.71416e-15
1.94808e-05
1.48404e-15
1.94808e-05
2.06702e-16
1.94808e-05
-4.36621e-15
1.94808e-05
-1.59809e-14
1.94808e-05
-2.9436e-14
1.94808e-05
-3.5308e-14
1.94808e-05
-3.29835e-14
1.94808e-05
-2.97485e-14
1.94808e-05
-2.72264e-14
1.94808e-05
-2.39884e-14
1.94808e-05
-2.02129e-14
1.94808e-05
-1.6445e-14
1.94808e-05
-1.37845e-14
1.94808e-05
-1.26546e-14
1.94808e-05
-9.10406e-15
1.94808e-05
-3.45702e-15
1.94808e-05
-1.27197e-15
1.94808e-05
-2.06385e-15
1.94808e-05
-2.87484e-15
1.94808e-05
-3.07061e-15
1.94808e-05
-2.90173e-15
1.94808e-05
-2.55219e-15
1.94808e-05
-2.04571e-15
1.94808e-05
-2.19671e-15
1.94808e-05
-3.32539e-15
1.94808e-05
-1.51063e-15
1.94808e-05
4.82656e-15
1.94808e-05
1.18339e-14
1.94808e-05
1.77492e-14
1.94808e-05
2.64681e-14
1.94808e-05
3.93184e-14
1.94808e-05
5.04172e-14
1.94808e-05
5.44406e-14
1.94808e-05
5.10817e-14
1.94808e-05
4.6689e-14
1.94808e-05
4.33108e-14
1.94808e-05
3.68776e-14
1.94808e-05
2.85531e-14
1.94808e-05
2.1467e-14
1.94808e-05
1.61779e-14
1.94808e-05
1.22667e-14
1.94808e-05
9.38113e-15
1.94808e-05
7.33636e-15
1.94808e-05
5.1721e-15
1.94808e-05
2.39239e-15
1.94808e-05
2.81032e-15
1.94808e-05
6.02487e-15
1.94808e-05
6.36627e-15
1.94808e-05
6.20109e-15
1.94808e-05
1.00973e-14
1.94808e-05
1.63421e-14
1.94808e-05
2.14184e-14
1.94808e-05
2.28737e-14
1.94808e-05
2.06404e-14
1.94808e-05
1.96967e-14
1.94808e-05
2.06262e-14
1.94808e-05
1.84199e-14
1.94808e-05
1.3812e-14
1.94808e-05
9.81456e-15
1.94808e-05
7.06135e-15
1.94808e-05
5.29786e-15
1.94808e-05
3.4295e-15
1.94808e-05
9.17329e-16
1.94808e-05
1.5727e-15
1.94808e-05
4.9398e-15
1.94808e-05
5.43681e-15
1.94808e-05
3.53994e-15
1.94808e-05
6.39491e-15
1.94808e-05
1.66772e-14
1.94808e-05
2.79709e-14
1.94808e-05
3.46488e-14
1.94808e-05
3.58271e-14
1.94808e-05
3.24913e-14
1.94808e-05
2.63813e-14
1.94808e-05
2.28485e-14
1.94808e-05
2.22294e-14
1.94808e-05
1.91643e-14
1.94808e-05
1.41032e-14
1.94808e-05
9.87367e-15
1.94808e-05
7.00954e-15
1.94808e-05
5.19844e-15
1.94808e-05
3.31506e-15
1.94808e-05
8.07338e-16
1.94808e-05
1.46639e-15
1.94808e-05
4.81821e-15
1.94808e-05
5.58142e-15
1.94808e-05
3.83212e-15
1.94808e-05
9.50644e-16
1.94808e-05
-1.20652e-15
1.94808e-05
-1.07244e-15
1.94808e-05
-2.30634e-16
1.94808e-05
2.22834e-15
1.94808e-05
8.24694e-15
1.94808e-05
1.56866e-14
1.94808e-05
2.12652e-14
1.94808e-05
2.35662e-14
1.94808e-05
2.30204e-14
1.94808e-05
2.07552e-14
1.94808e-05
1.7784e-14
1.94808e-05
1.47624e-14
1.94808e-05
1.20287e-14
1.94808e-05
9.62455e-15
1.94808e-05
7.52104e-15
1.94808e-05
6.06865e-15
1.94808e-05
5.17866e-15
1.94808e-05
4.23833e-15
1.94808e-05
3.24077e-15
1.94808e-05
2.43233e-15
1.94808e-05
1.83709e-15
1.94808e-05
1.3968e-15
1.94808e-05
1.06407e-15
1.94808e-05
8.11847e-16
1.94808e-05
6.20559e-16
1.94808e-05
4.74439e-16
1.94808e-05
3.63182e-16
1.94808e-05
2.80676e-16
1.94808e-05
2.18475e-16
1.94808e-05
1.69867e-16
1.94808e-05
1.32019e-16
1.94808e-05
1.02816e-16
1.94808e-05
8.04828e-17
1.94808e-05
6.38577e-17
1.94808e-05
5.17591e-17
1.94808e-05
4.14463e-17
1.94808e-05
3.16195e-17
1.94808e-05
2.39853e-17
1.94808e-05
1.82217e-17
1.94808e-05
1.30628e-17
1.94808e-05
8.36271e-18
1.94808e-05
6.20345e-18
1.94808e-05
6.60508e-18
1.94808e-05
7.98617e-18
1.94808e-05
9.24189e-18
1.94808e-05
7.43371e-18
1.94808e-05
4.90906e-18
1.94808e-05
3.32126e-18
1.94808e-05
6.59508e-18
1.94808e-05
2.16875e-17
1.94808e-05
-2.75656e-17
1.94808e-05
-1.76529e-16
1.94808e-05
-4.02667e-17
1.94808e-05
3.47301e-16
1.94808e-05
4.221e-16
1.94808e-05
2.31437e-16
1.94808e-05
5.00909e-17
1.94808e-05
-2.30305e-17
1.94808e-05
-1.1312e-16
1.94808e-05
-5.31435e-18
1.94808e-05
-3.13608e-16
1.94808e-05
4.529e-16
1.94808e-05
-1.406e-15
1.94808e-05
3.225e-15
1.94808e-05
-8.60199e-15
1.94808e-05
1.6157e-14
1.94808e-05
-8.9594e-14
1.94808e-05
-3.57031e-13
1.94808e-05
-3.11424e-12
1.94808e-05
-3.31374e-11
1.94808e-05
-2.26383e-10
1.94808e-05
-3.39223e-11
6.6276e-10
2.11293e-05
3.53804e-06
2.1755e-05
2.95864e-06
2.22153e-05
2.4612e-06
2.23523e-05
1.86171e-06
2.22864e-05
1.3784e-06
2.21022e-05
1.05026e-06
2.1845e-05
8.0944e-07
2.15949e-05
6.26015e-07
2.13813e-05
4.70361e-07
2.1207e-05
3.2866e-07
2.10663e-05
2.23201e-07
2.09553e-05
1.48785e-07
2.08762e-05
7.34867e-08
2.08254e-05
1.51089e-08
2.07976e-05
-3.37118e-08
2.07907e-05
-7.93453e-08
2.07985e-05
-1.13549e-07
2.0819e-05
-1.41363e-07
2.08512e-05
-1.64939e-07
2.08901e-05
-1.80932e-07
2.0933e-05
-1.90415e-07
2.09754e-05
-1.94012e-07
2.10154e-05
-1.94266e-07
2.10539e-05
-1.89726e-07
2.10895e-05
-1.75827e-07
2.11217e-05
-1.60015e-07
2.11506e-05
-1.43456e-07
2.1176e-05
-1.2682e-07
2.11983e-05
-1.11106e-07
2.12179e-05
-9.78409e-08
2.12351e-05
-8.51616e-08
2.12498e-05
-7.27869e-08
2.1262e-05
-6.0545e-08
2.12721e-05
-4.98955e-08
2.12806e-05
-4.21702e-08
2.1288e-05
-3.60048e-08
2.12944e-05
-3.07958e-08
2.12998e-05
-2.63596e-08
2.13045e-05
-2.25582e-08
2.13085e-05
-1.92959e-08
2.13119e-05
-1.64974e-08
2.13148e-05
-1.40973e-08
2.13173e-05
-1.20412e-08
2.13194e-05
-1.0283e-08
2.13212e-05
-8.77815e-09
2.13228e-05
-7.49284e-09
2.13241e-05
-6.39752e-09
2.13252e-05
-5.46264e-09
2.13262e-05
-4.66404e-09
2.1327e-05
-3.98379e-09
2.13277e-05
-3.40323e-09
2.13283e-05
-2.90794e-09
2.13288e-05
-2.48469e-09
2.13293e-05
-2.12328e-09
2.13296e-05
-1.81632e-09
2.133e-05
-1.55317e-09
2.13302e-05
-1.32904e-09
2.13305e-05
-1.13769e-09
2.13307e-05
-9.73807e-10
2.13309e-05
-8.33814e-10
2.1331e-05
-7.14187e-10
2.13311e-05
-6.1208e-10
2.13312e-05
-5.24286e-10
2.13313e-05
-4.49972e-10
2.13314e-05
-3.85295e-10
2.13315e-05
-3.29436e-10
2.13315e-05
-2.81908e-10
2.13316e-05
-2.4143e-10
2.13316e-05
-2.07158e-10
2.13317e-05
-1.76467e-10
2.13317e-05
-1.51658e-10
2.13317e-05
-1.31369e-10
2.13317e-05
-1.1307e-10
2.13318e-05
-9.7095e-11
2.13318e-05
-8.2716e-11
2.13318e-05
-6.96446e-11
2.13318e-05
-5.87063e-11
2.13318e-05
-4.99672e-11
2.13318e-05
-4.25702e-11
2.13318e-05
-3.76886e-11
2.13318e-05
-3.25464e-11
2.13318e-05
-2.71288e-11
2.13318e-05
-2.36982e-11
2.13319e-05
-2.05055e-11
2.13319e-05
-1.7981e-11
2.13319e-05
-1.62394e-11
2.13319e-05
-1.35916e-11
2.13319e-05
-1.0465e-11
2.13319e-05
-7.85583e-12
2.13319e-05
-6.29396e-12
2.13319e-05
-6.12949e-12
2.13319e-05
-6.167e-12
2.13319e-05
-5.73723e-12
2.13319e-05
-4.96186e-12
2.13319e-05
-4.11999e-12
2.13319e-05
-3.50217e-12
2.13319e-05
-3.064e-12
2.13319e-05
-2.77093e-12
2.13319e-05
-2.98412e-12
2.13319e-05
-3.35637e-12
2.13319e-05
-3.32911e-12
2.13319e-05
-2.95233e-12
2.13319e-05
-2.36728e-12
2.13319e-05
-1.73974e-12
2.13319e-05
-1.20977e-12
2.13319e-05
-8.12762e-13
2.13319e-05
-5.3699e-13
2.13319e-05
-3.43849e-13
2.13319e-05
-2.08146e-13
2.13319e-05
-1.19802e-13
2.13319e-05
-6.19012e-14
2.13319e-05
-1.69298e-14
2.13319e-05
3.26625e-15
2.13319e-05
-2.87546e-15
2.13319e-05
-1.48534e-14
2.13319e-05
-2.00809e-14
2.13319e-05
-1.82072e-14
2.13319e-05
-1.56655e-14
2.13319e-05
-1.39252e-14
2.13319e-05
-7.51294e-15
2.13319e-05
5.71506e-15
2.13319e-05
1.92033e-14
2.13319e-05
2.69395e-14
2.13319e-05
2.8197e-14
2.13319e-05
3.60925e-14
2.13319e-05
5.02406e-14
2.13319e-05
5.39347e-14
2.13319e-05
4.67089e-14
2.13319e-05
3.57531e-14
2.13319e-05
2.57122e-14
2.13319e-05
1.80589e-14
2.13319e-05
1.27276e-14
2.13319e-05
9.15682e-15
2.13319e-05
6.22246e-15
2.13319e-05
3.33584e-15
2.13319e-05
3.3791e-15
2.13319e-05
5.77708e-15
2.13319e-05
5.84793e-15
2.13319e-05
3.8151e-15
2.13319e-05
1.71074e-15
2.13319e-05
1.63173e-16
2.13319e-05
-1.22426e-14
2.13319e-05
-3.56026e-14
2.13319e-05
-5.28074e-14
2.13319e-05
-5.63612e-14
2.13319e-05
-4.98737e-14
2.13319e-05
-4.20921e-14
2.13319e-05
-3.56014e-14
2.13319e-05
-2.96047e-14
2.13319e-05
-2.40588e-14
2.13319e-05
-1.92236e-14
2.13319e-05
-1.57545e-14
2.13319e-05
-1.37597e-14
2.13319e-05
-9.96481e-15
2.13319e-05
-4.66378e-15
2.13319e-05
-2.33058e-15
2.13319e-05
-2.58731e-15
2.13319e-05
-3.0767e-15
2.13319e-05
-3.16101e-15
2.13319e-05
-2.96735e-15
2.13319e-05
-2.62091e-15
2.13319e-05
-2.19856e-15
2.13319e-05
-2.30504e-15
2.13319e-05
-3.06925e-15
2.13319e-05
-1.25406e-15
2.13319e-05
7.02542e-15
2.13319e-05
1.9339e-14
2.13319e-05
2.99908e-14
2.13319e-05
4.37923e-14
2.13319e-05
6.26924e-14
2.13319e-05
7.62289e-14
2.13319e-05
7.82103e-14
2.13319e-05
7.05826e-14
2.13319e-05
6.11735e-14
2.13319e-05
5.3131e-14
2.13319e-05
4.36529e-14
2.13319e-05
3.36092e-14
2.13319e-05
2.52738e-14
2.13319e-05
1.9e-14
2.13319e-05
1.43419e-14
2.13319e-05
1.09016e-14
2.13319e-05
8.37278e-15
2.13319e-05
5.95901e-15
2.13319e-05
3.30896e-15
2.13319e-05
3.45258e-15
2.13319e-05
5.96627e-15
2.13319e-05
6.30023e-15
2.13319e-05
9.0127e-15
2.13319e-05
1.83812e-14
2.13319e-05
2.87541e-14
2.13319e-05
3.45869e-14
2.13319e-05
3.44503e-14
2.13319e-05
3.00166e-14
2.13319e-05
2.65317e-14
2.13319e-05
2.494e-14
2.13319e-05
2.13023e-14
2.13319e-05
1.61159e-14
2.13319e-05
1.16585e-14
2.13319e-05
8.46136e-15
2.13319e-05
6.25115e-15
2.13319e-05
4.14813e-15
2.13319e-05
1.77495e-15
2.13319e-05
2.16038e-15
2.13319e-05
4.81448e-15
2.13319e-05
5.2183e-15
2.13319e-05
3.84722e-15
2.13319e-05
1.08401e-14
2.13319e-05
2.87136e-14
2.13319e-05
4.49933e-14
2.13319e-05
5.19429e-14
2.13319e-05
5.03001e-14
2.13319e-05
4.34692e-14
2.13319e-05
3.45909e-14
2.13319e-05
2.85942e-14
2.13319e-05
2.57193e-14
2.13319e-05
2.14779e-14
2.13319e-05
1.60295e-14
2.13319e-05
1.147e-14
2.13319e-05
8.24719e-15
2.13319e-05
6.04442e-15
2.13319e-05
3.96225e-15
2.13319e-05
1.61554e-15
2.13319e-05
2.02063e-15
2.13319e-05
4.69241e-15
2.13319e-05
5.27199e-15
2.13319e-05
3.73793e-15
2.13319e-05
1.18831e-15
2.13319e-05
-7.51057e-16
2.13319e-05
-7.42604e-16
2.13319e-05
2.25628e-17
2.13319e-05
4.97042e-15
2.13319e-05
1.62797e-14
2.13319e-05
2.78437e-14
2.13319e-05
3.43092e-14
2.13319e-05
3.50313e-14
2.13319e-05
3.19887e-14
2.13319e-05
2.7338e-14
2.13319e-05
2.24772e-14
2.13319e-05
1.80823e-14
2.13319e-05
1.43789e-14
2.13319e-05
1.13119e-14
2.13319e-05
8.77828e-15
2.13319e-05
6.98781e-15
2.13319e-05
5.80487e-15
2.13319e-05
4.69192e-15
2.13319e-05
3.60981e-15
2.13319e-05
2.73122e-15
2.13319e-05
2.07062e-15
2.13319e-05
1.57596e-15
2.13319e-05
1.20072e-15
2.13319e-05
9.15677e-16
2.13319e-05
6.99055e-16
2.13319e-05
5.34004e-16
2.13319e-05
4.0861e-16
2.13319e-05
3.14985e-16
2.13319e-05
2.44341e-16
2.13319e-05
1.89624e-16
2.13319e-05
1.47123e-16
2.13319e-05
1.14439e-16
2.13319e-05
8.94874e-17
2.13319e-05
7.08714e-17
2.13319e-05
5.72333e-17
2.13319e-05
4.57306e-17
2.13319e-05
3.48566e-17
2.13319e-05
2.64605e-17
2.13319e-05
2.00429e-17
2.13319e-05
1.43975e-17
2.13319e-05
9.31019e-18
2.13319e-05
6.84952e-18
2.13319e-05
7.2093e-18
2.13319e-05
8.8383e-18
2.13319e-05
1.05783e-17
2.13319e-05
8.50667e-18
2.13319e-05
5.30972e-18
2.13319e-05
3.4395e-18
2.13319e-05
6.10987e-18
2.13319e-05
1.30588e-17
2.13319e-05
-3.16758e-17
2.13319e-05
-1.45777e-16
2.13319e-05
-2.06151e-17
2.13319e-05
3.07014e-16
2.13319e-05
3.78247e-16
2.13319e-05
2.25649e-16
2.13319e-05
6.61581e-17
2.13319e-05
-8.21629e-18
2.13319e-05
-9.19497e-17
2.13319e-05
-1.21079e-17
2.13319e-05
-2.66497e-16
2.13319e-05
3.51279e-16
2.13319e-05
-1.15714e-15
2.13319e-05
2.58017e-15
2.13319e-05
-7.14092e-15
2.13319e-05
1.14995e-14
2.13319e-05
-8.55472e-14
2.13319e-05
-4.2783e-13
2.13319e-05
-2.95202e-12
2.13319e-05
-3.05522e-11
2.13318e-05
-1.79571e-10
2.13318e-05