/*--------------------------------*- C++ -*----------------------------------*\
| =========                 |                                                 |
| \\      /  F ield         | foam-extend: Open Source CFD                    |
|  \\    /   O peration     | Version:     3.2                                |
|   \\  /    A nd           | Web:         http://www.foam-extend.org         |
|    \\/     M anipulation  | For copyright notice see file Copyright         |
\*---------------------------------------------------------------------------*/
FoamFile
{
    version     2.0;
    format      ascii;
    class       volVectorField;
    location    "200";
    object      U;
}
// * * * * * * * * * * * * * * * * * * * * * * * * * * * * * * * * * * * * * //

dimensions      [0 1 -1 0 0 0 0];

internalField   nonuniform List<vector> 
2400
(
(0.2243 0 0.00310103)
(0.185542 0 0.00156072)
(0.152824 0 0.000175919)
(0.137878 0 -0.000480205)
(0.131666 -1.0798e-26 -0.000620772)
(0.129185 -1.08608e-42 -0.000662993)
(0.128402 -6.43131e-27 -0.000683197)
(0.128479 1.84071e-43 -0.000682132)
(0.128743 4.60539e-27 -0.000680545)
(0.129232 1.31706e-42 -0.000681527)
(0.129795 2.22145e-27 -0.000679929)
(0.130307 1.48262e-27 -0.00067812)
(0.130814 0 -0.000679709)
(0.131351 6.05278e-28 -0.000680519)
(0.131839 7.51047e-28 -0.000681838)
(0.132355 -8.15183e-29 -0.000686483)
(0.132905 -2.1412e-28 -0.000688407)
(0.133438 4.48722e-28 -0.000690217)
(0.133972 -6.16419e-28 -0.000692589)
(0.134509 0 -0.000694918)
(0.135039 0 -0.000697366)
(0.135581 8.86339e-28 -0.000701433)
(0.136162 9.35675e-28 -0.000705864)
(0.136767 0 -0.000708483)
(0.137337 0 -0.000709083)
(0.137852 9.17081e-28 -0.000709347)
(0.138314 0 -0.000709223)
(0.13872 0 -0.000708884)
(0.13907 0 -0.00070844)
(0.139373 6.54117e-28 -0.000708177)
(0.139635 0 -0.000707758)
(0.139856 0 -0.000707205)
(0.140039 -4.57111e-28 -0.000706535)
(0.140184 0 -0.000705969)
(0.140303 0 -0.00070572)
(0.140403 0 -0.000705541)
(0.140488 -2.47531e-28 -0.000705398)
(0.140559 0 -0.000705292)
(0.140619 0 -0.000705212)
(0.14067 0 -0.00070515)
(0.140714 -1.36858e-28 -0.000705099)
(0.140751 -2.0705e-43 -0.000705056)
(0.140783 0 -0.00070502)
(0.14081 0 -0.00070499)
(0.140833 -7.38847e-29 -0.000704965)
(0.140852 0 -0.000704943)
(0.140869 -2.07752e-43 -0.000704925)
(0.140883 0 -0.00070491)
(0.140895 0 -0.000704897)
(0.140906 0 -0.000704887)
(0.140915 0 -0.000704879)
(0.140922 -2.08067e-43 -0.000704872)
(0.140928 0 -0.000704865)
(0.140934 -2.08138e-43 -0.00070486)
(0.140939 0 -0.000704856)
(0.140943 0 -0.000704853)
(0.140946 -2.0821e-43 -0.00070485)
(0.140949 0 -0.000704848)
(0.140952 -8.27427e-30 -0.000704845)
(0.140954 0 -0.000704844)
(0.140956 0 -0.000704842)
(0.140957 -2.08275e-43 -0.000704841)
(0.140959 0 -0.00070484)
(0.14096 -2.08289e-43 -0.00070484)
(0.140961 0 -0.000704839)
(0.140962 0 -0.000704838)
(0.140962 -2.08305e-43 -0.000704837)
(0.140963 0 -0.000704837)
(0.140963 -2.08311e-43 -0.000704836)
(0.140964 0 -0.000704836)
(0.140964 -1.26203e-30 -0.000704836)
(0.140965 -2.08318e-43 -0.000704836)
(0.140965 0 -0.000704836)
(0.140965 8.44436e-31 -0.000704835)
(0.140965 0 -0.000704835)
(0.140966 0 -0.000704835)
(0.140966 -2.08325e-43 -0.000704834)
(0.140966 0 -0.000704834)
(0.140966 -2.08326e-43 -0.000704834)
(0.140966 0 -0.000704834)
(0.140966 0 -0.000704834)
(0.140966 0 -0.000704834)
(0.140966 0 -0.000704834)
(0.140966 0 -0.000704834)
(0.140966 0 -0.000704834)
(0.140966 0 -0.000704834)
(0.140967 0 -0.000704833)
(0.140967 0 -0.000704833)
(0.140967 0 -0.000704833)
(0.140967 0 -0.000704833)
(0.140967 0 -0.000704833)
(0.140967 0 -0.000704833)
(0.140967 0 -0.000704833)
(0.140967 0 -0.000704834)
(0.140967 0 -0.000704834)
(0.140967 0 -0.000704833)
(0.140967 0 -0.000704833)
(0.140967 0 -0.000704833)
(0.140967 0 -0.000704833)
(0.140967 0 -0.000704833)
(0.140967 3.13413e-32 -0.000704833)
(0.140967 -2.38573e-32 -0.000704833)
(0.140967 0 -0.000704834)
(0.140967 0 -0.000704833)
(0.140967 0 -0.000704833)
(0.140967 0 -0.000704833)
(0.140967 0 -0.000704833)
(0.140967 0 -0.000704833)
(0.140967 0 -0.000704833)
(0.140967 0 -0.000704833)
(0.140967 0 -0.000704833)
(0.140967 0 -0.000704833)
(0.140967 0 -0.000704833)
(0.140967 0 -0.000704833)
(0.140967 0 -0.000704833)
(0.140967 0 -0.000704833)
(0.140967 -1.93227e-35 -0.000704833)
(0.140967 -3.97797e-35 -0.000704833)
(0.140967 0 -0.000704833)
(0.140967 0 -0.000704833)
(0.140967 0 -0.000704833)
(0.140967 0 -0.000704833)
(0.140967 0 -0.000704833)
(0.140967 0 -0.000704833)
(0.140967 0 -0.000704833)
(0.140967 0 -0.000704833)
(0.140967 0 -0.000704833)
(0.140967 0 -0.000704833)
(0.140967 0 -0.000704833)
(0.140967 0 -0.000704833)
(0.140967 0 -0.000704833)
(0.140967 0 -0.000704833)
(0.140967 -7.67775e-35 -0.000704833)
(0.140967 0 -0.000704833)
(0.140967 0 -0.000704833)
(0.140967 0 -0.000704833)
(0.140967 0 -0.000704833)
(0.140967 0 -0.000704833)
(0.140967 0 -0.000704833)
(0.140967 0 -0.000704833)
(0.140967 0 -0.000704833)
(0.140967 0 -0.000704833)
(0.140967 0 -0.000704833)
(0.140967 0 -0.000704833)
(0.140967 0 -0.000704833)
(0.140967 0 -0.000704833)
(0.140967 0 -0.000704833)
(0.140967 0 -0.000704833)
(0.140967 0 -0.000704833)
(0.140967 0 -0.000704833)
(0.140967 0 -0.000704833)
(0.140967 0 -0.000704833)
(0.140967 0 -0.000704833)
(0.140967 0 -0.000704833)
(0.140967 0 -0.000704833)
(0.140967 0 -0.000704833)
(0.140967 0 -0.000704833)
(0.140967 0 -0.000704833)
(0.140967 0 -0.000704833)
(0.140967 0 -0.000704833)
(0.140967 0 -0.000704833)
(0.140967 0 -0.000704833)
(0.140967 0 -0.000704833)
(0.140967 0 -0.000704833)
(0.140967 0 -0.000704833)
(0.140967 0 -0.000704833)
(0.140967 0 -0.000704833)
(0.140967 0 -0.000704833)
(0.140967 0 -0.000704833)
(0.140967 0 -0.000704833)
(0.140967 0 -0.000704833)
(0.140967 0 -0.000704833)
(0.140967 0 -0.000704833)
(0.140967 0 -0.000704833)
(0.140967 0 -0.000704833)
(0.140967 0 -0.000704833)
(0.140967 0 -0.000704833)
(0.140967 0 -0.000704833)
(0.140967 0 -0.000704833)
(0.140967 0 -0.000704833)
(0.140967 0 -0.000704833)
(0.140967 0 -0.000704833)
(0.140967 0 -0.000704833)
(0.140967 0 -0.000704833)
(0.140967 0 -0.000704833)
(0.140967 0 -0.000704833)
(0.140967 0 -0.000704833)
(0.140967 0 -0.000704833)
(0.140967 0 -0.000704833)
(0.140967 0 -0.000704833)
(0.140967 0 -0.000704833)
(0.140967 0 -0.000704833)
(0.140967 0 -0.000704833)
(0.140967 0 -0.000704833)
(0.140967 0 -0.000704833)
(0.140967 0 -0.000704833)
(0.140967 0 -0.000704833)
(0.140967 0 -0.000704833)
(0.140967 0 -0.000704833)
(0.140967 0 -0.000704833)
(0.140967 0 -0.000704833)
(0.140967 0 -0.000704833)
(0.140967 0 -0.000704833)
(0.140967 0 -0.000704833)
(0.140967 0 -0.000704833)
(0.140967 0 -0.000704833)
(0.140967 0 -0.000704833)
(0.140967 0 -0.000704833)
(0.140967 0 -0.000704833)
(0.140967 0 -0.000704833)
(0.140967 0 -0.000704833)
(0.140967 0 -0.000704833)
(0.140967 0 -0.000704833)
(0.140967 0 -0.000704833)
(0.140967 0 -0.000704833)
(0.140967 0 -0.000704833)
(0.140967 0 -0.000704833)
(0.140967 0 -0.000704833)
(0.140967 0 -0.000704833)
(0.140967 0 -0.000704833)
(0.140967 0 -0.000704833)
(0.140967 0 -0.000704833)
(0.140967 0 -0.000704833)
(0.140967 0 -0.000704833)
(0.140967 0 -0.000704833)
(0.140967 0 -0.000704833)
(0.140967 0 -0.000704833)
(0.140967 0 -0.000704833)
(0.140967 0 -0.000704833)
(0.140967 0 -0.000704833)
(0.140967 0 -0.000704833)
(0.140967 0 -0.000704833)
(0.140967 0 -0.000704833)
(0.140967 0 -0.000704833)
(0.140967 0 -0.000704833)
(0.140967 0 -0.000704833)
(0.140967 0 -0.000704833)
(0.140967 0 -0.000704833)
(0.140967 0 -0.000704833)
(0.140967 0 -0.000704833)
(0.140967 0 -0.000704833)
(0.140967 0 -0.000704833)
(0.140967 0 -0.000704833)
(0.140967 0 -0.000704833)
(0.140967 0 -0.000704833)
(0.140967 0 -0.000704833)
(0.140967 0 -0.000704833)
(0.140967 0 -0.000704833)
(0.140967 0 -0.000704833)
(0.140967 -1.24211e-35 -0.000704833)
(0.140967 0 -0.000704833)
(0.140967 0 -0.000704833)
(0.140967 0 -0.000704833)
(0.140967 0 -0.000704833)
(0.140967 0 -0.000704833)
(0.140967 0 -0.000704833)
(0.140967 0 -0.000704833)
(0.140967 0 -0.000704833)
(0.140967 0 -0.000704833)
(0.140967 0 -0.000704833)
(0.140967 0 -0.000704833)
(0.140967 0 -0.000704833)
(0.140967 0 -0.000704833)
(0.140967 0 -0.000704833)
(0.140967 0 -0.000704833)
(0.140967 0 -0.000704833)
(0.140967 0 -0.000704833)
(0.140967 0 -0.000704833)
(0.140967 0 -0.000704833)
(0.140967 0 -0.000704833)
(0.140967 0 -0.000704833)
(0.140967 0 -0.000704833)
(0.140967 0 -0.000704833)
(0.140967 0 -0.000704833)
(0.140967 0 -0.000704833)
(0.140967 0 -0.000704833)
(0.140967 0 -0.000704833)
(0.140967 0 -0.000704833)
(0.140967 0 -0.000704833)
(0.140967 0 -0.000704833)
(0.140967 0 -0.000704833)
(0.140967 -2.95467e-36 -0.000704833)
(0.140967 0 -0.000704833)
(0.140967 0 -0.000704833)
(0.140967 0 -0.000704833)
(0.140967 0 -0.000704833)
(0.140967 0 -0.000704833)
(0.140967 0 -0.000704833)
(0.140967 0 -0.000704833)
(0.140967 0 -0.000704833)
(0.140967 0 -0.000704833)
(0.140967 0 -0.000704833)
(0.140967 0 -0.000704833)
(0.140967 0 -0.000704833)
(0.140967 0 -0.000704833)
(0.140967 0 -0.000704835)
(0.140967 -1.60652e-31 -0.000704843)
(0.140967 0 -0.000705042)
(0.140977 0 -0.000705071)
(0.140963 0 -0.000639187)
(0.265854 0 0.00369236)
(0.259772 0 0.00228885)
(0.24419 0 0.00135901)
(0.231793 0 0.000186148)
(0.223469 0 -0.00050918)
(0.218089 4.21327e-26 -0.00081278)
(0.214558 1.52729e-26 -0.000969882)
(0.212329 1.23448e-26 -0.00103171)
(0.210751 1.00642e-26 -0.0010617)
(0.209684 1.52168e-26 -0.00108226)
(0.209143 5.3781e-27 -0.00109124)
(0.208813 -4.07716e-27 -0.00109144)
(0.208796 2.81542e-27 -0.00109658)
(0.208878 -1.90229e-27 -0.00109681)
(0.209102 2.5766e-27 -0.0010972)
(0.209443 -9.90337e-28 -0.00110551)
(0.209894 -3.2597e-28 -0.00110945)
(0.210425 0 -0.00111294)
(0.211025 4.78959e-28 -0.00111691)
(0.211682 0 -0.0011209)
(0.212379 0 -0.00112487)
(0.213104 0 -0.00113152)
(0.213843 2.20004e-27 -0.00113859)
(0.21459 0 -0.00114155)
(0.215299 0 -0.00113986)
(0.215948 0 -0.00113717)
(0.216537 1.30144e-27 -0.0011338)
(0.217064 0 -0.00113014)
(0.217527 1.1179e-27 -0.00112652)
(0.217936 2.04744e-27 -0.00112361)
(0.218298 -9.38933e-28 -0.00112066)
(0.218611 8.49147e-28 -0.00111763)
(0.218877 -7.42255e-28 -0.00111452)
(0.219096 0 -0.00111183)
(0.21928 0 -0.00111008)
(0.219436 0 -0.00110874)
(0.21957 -3.89689e-28 -0.00110764)
(0.219686 3.35928e-28 -0.00110675)
(0.219784 0 -0.001106)
(0.219869 0 -0.00110538)
(0.219941 -2.13559e-28 -0.00110486)
(0.220003 -3.6646e-28 -0.00110441)
(0.220056 0 -0.00110403)
(0.220102 -2.69018e-28 -0.0011037)
(0.22014 -1.15187e-28 -0.00110342)
(0.220173 0 -0.00110319)
(0.220202 -1.68559e-28 -0.00110299)
(0.220226 -7.20818e-29 -0.00110282)
(0.220246 -1.23117e-28 -0.00110267)
(0.220264 0 -0.00110255)
(0.220279 0 -0.00110244)
(0.220292 -7.69411e-29 -0.00110236)
(0.220303 0 -0.00110228)
(0.220312 -5.60702e-29 -0.00110221)
(0.22032 0 -0.00110216)
(0.220327 -2.04024e-29 -0.00110211)
(0.220333 -3.49271e-29 -0.00110208)
(0.220338 0 -0.00110204)
(0.220342 -2.56368e-29 -0.00110201)
(0.220346 -1.09463e-29 -0.00110199)
(0.220349 0 -0.00110197)
(0.220352 -1.60272e-29 -0.00110195)
(0.220354 0 -0.00110193)
(0.220356 -1.16545e-29 -0.00110192)
(0.220358 0 -0.00110191)
(0.220359 0 -0.0011019)
(0.220361 -7.49304e-30 -0.00110189)
(0.220362 0 -0.00110188)
(0.220363 -5.42688e-30 -0.00110188)
(0.220363 0 -0.00110187)
(0.220364 0 -0.00110187)
(0.220365 -3.29455e-30 -0.00110186)
(0.220365 0 -0.00110186)
(0.220366 -1.28125e-30 -0.00110186)
(0.220366 0 -0.00110186)
(0.220366 0 -0.00110185)
(0.220366 -1.56104e-30 -0.00110185)
(0.220367 0 -0.00110185)
(0.220367 -1.18751e-30 -0.00110185)
(0.220367 0 -0.00110185)
(0.220367 0 -0.00110185)
(0.220367 0 -0.00110184)
(0.220367 0 -0.00110184)
(0.220367 0 -0.00110184)
(0.220368 0 -0.00110184)
(0.220368 2.45068e-31 -0.00110184)
(0.220368 0 -0.00110184)
(0.220368 0 -0.00110184)
(0.220368 0 -0.00110184)
(0.220368 0 -0.00110184)
(0.220368 0 -0.00110184)
(0.220368 0 -0.00110184)
(0.220368 0 -0.00110184)
(0.220368 0 -0.00110184)
(0.220368 0 -0.00110184)
(0.220368 0 -0.00110184)
(0.220368 0 -0.00110184)
(0.220368 0 -0.00110184)
(0.220368 0 -0.00110184)
(0.220368 0 -0.00110184)
(0.220368 7.65407e-32 -0.00110184)
(0.220368 0 -0.00110184)
(0.220368 0 -0.00110184)
(0.220368 0 -0.00110184)
(0.220368 0 -0.00110184)
(0.220368 0 -0.00110184)
(0.220368 0 -0.00110184)
(0.220368 0 -0.00110184)
(0.220368 0 -0.00110184)
(0.220368 0 -0.00110184)
(0.220368 0 -0.00110184)
(0.220368 0 -0.00110184)
(0.220368 0 -0.00110184)
(0.220368 0 -0.00110184)
(0.220368 0 -0.00110184)
(0.220368 3.70849e-35 -0.00110184)
(0.220368 2.09402e-34 -0.00110184)
(0.220368 0 -0.00110184)
(0.220368 0 -0.00110184)
(0.220368 0 -0.00110184)
(0.220368 0 -0.00110184)
(0.220368 0 -0.00110184)
(0.220368 0 -0.00110184)
(0.220368 0 -0.00110184)
(0.220368 0 -0.00110184)
(0.220368 0 -0.00110184)
(0.220368 0 -0.00110184)
(0.220368 0 -0.00110184)
(0.220368 0 -0.00110184)
(0.220368 0 -0.00110184)
(0.220368 0 -0.00110184)
(0.220368 -1.89689e-34 -0.00110184)
(0.220368 -1.09933e-34 -0.00110184)
(0.220368 0 -0.00110184)
(0.220368 0 -0.00110184)
(0.220368 0 -0.00110184)
(0.220368 0 -0.00110184)
(0.220368 0 -0.00110184)
(0.220368 0 -0.00110184)
(0.220368 0 -0.00110184)
(0.220368 0 -0.00110184)
(0.220368 0 -0.00110184)
(0.220368 0 -0.00110184)
(0.220368 0 -0.00110184)
(0.220368 0 -0.00110184)
(0.220368 0 -0.00110184)
(0.220368 0 -0.00110184)
(0.220368 3.34973e-34 -0.00110184)
(0.220368 0 -0.00110184)
(0.220368 0 -0.00110184)
(0.220368 0 -0.00110184)
(0.220368 0 -0.00110184)
(0.220368 0 -0.00110184)
(0.220368 0 -0.00110184)
(0.220368 0 -0.00110184)
(0.220368 0 -0.00110184)
(0.220368 0 -0.00110184)
(0.220368 0 -0.00110184)
(0.220368 0 -0.00110184)
(0.220368 0 -0.00110184)
(0.220368 0 -0.00110184)
(0.220368 0 -0.00110184)
(0.220368 0 -0.00110184)
(0.220368 0 -0.00110184)
(0.220368 0 -0.00110184)
(0.220368 0 -0.00110184)
(0.220368 0 -0.00110184)
(0.220368 0 -0.00110184)
(0.220368 0 -0.00110184)
(0.220368 0 -0.00110184)
(0.220368 0 -0.00110184)
(0.220368 0 -0.00110184)
(0.220368 0 -0.00110184)
(0.220368 0 -0.00110184)
(0.220368 0 -0.00110184)
(0.220368 0 -0.00110184)
(0.220368 0 -0.00110184)
(0.220368 0 -0.00110184)
(0.220368 0 -0.00110184)
(0.220368 0 -0.00110184)
(0.220368 0 -0.00110184)
(0.220368 0 -0.00110184)
(0.220368 0 -0.00110184)
(0.220368 0 -0.00110184)
(0.220368 0 -0.00110184)
(0.220368 0 -0.00110184)
(0.220368 0 -0.00110184)
(0.220368 0 -0.00110184)
(0.220368 0 -0.00110184)
(0.220368 0 -0.00110184)
(0.220368 0 -0.00110184)
(0.220368 0 -0.00110184)
(0.220368 0 -0.00110184)
(0.220368 0 -0.00110184)
(0.220368 0 -0.00110184)
(0.220368 0 -0.00110184)
(0.220368 0 -0.00110184)
(0.220368 0 -0.00110184)
(0.220368 0 -0.00110184)
(0.220368 0 -0.00110184)
(0.220368 0 -0.00110184)
(0.220368 0 -0.00110184)
(0.220368 0 -0.00110184)
(0.220368 0 -0.00110184)
(0.220368 0 -0.00110184)
(0.220368 0 -0.00110184)
(0.220368 0 -0.00110184)
(0.220368 0 -0.00110184)
(0.220368 0 -0.00110184)
(0.220368 0 -0.00110184)
(0.220368 0 -0.00110184)
(0.220368 0 -0.00110184)
(0.220368 0 -0.00110184)
(0.220368 0 -0.00110184)
(0.220368 0 -0.00110184)
(0.220368 0 -0.00110184)
(0.220368 0 -0.00110184)
(0.220368 0 -0.00110184)
(0.220368 0 -0.00110184)
(0.220368 0 -0.00110184)
(0.220368 0 -0.00110184)
(0.220368 0 -0.00110184)
(0.220368 0 -0.00110184)
(0.220368 0 -0.00110184)
(0.220368 0 -0.00110184)
(0.220368 0 -0.00110184)
(0.220368 0 -0.00110184)
(0.220368 0 -0.00110184)
(0.220368 0 -0.00110184)
(0.220368 0 -0.00110184)
(0.220368 0 -0.00110184)
(0.220368 0 -0.00110184)
(0.220368 0 -0.00110184)
(0.220368 0 -0.00110184)
(0.220368 0 -0.00110184)
(0.220368 0 -0.00110184)
(0.220368 0 -0.00110184)
(0.220368 0 -0.00110184)
(0.220368 0 -0.00110184)
(0.220368 0 -0.00110184)
(0.220368 0 -0.00110184)
(0.220368 0 -0.00110184)
(0.220368 0 -0.00110184)
(0.220368 0 -0.00110184)
(0.220368 0 -0.00110184)
(0.220368 0 -0.00110184)
(0.220368 0 -0.00110184)
(0.220368 0 -0.00110184)
(0.220368 0 -0.00110184)
(0.220368 -1.67202e-35 -0.00110184)
(0.220368 0 -0.00110184)
(0.220368 0 -0.00110184)
(0.220368 0 -0.00110184)
(0.220368 0 -0.00110184)
(0.220368 0 -0.00110184)
(0.220368 0 -0.00110184)
(0.220368 0 -0.00110184)
(0.220368 0 -0.00110184)
(0.220368 0 -0.00110184)
(0.220368 0 -0.00110184)
(0.220368 0 -0.00110184)
(0.220368 0 -0.00110184)
(0.220368 0 -0.00110184)
(0.220368 0 -0.00110184)
(0.220368 -3.39423e-37 -0.00110184)
(0.220368 0 -0.00110184)
(0.220368 0 -0.00110184)
(0.220368 0 -0.00110184)
(0.220368 0 -0.00110184)
(0.220368 0 -0.00110184)
(0.220368 0 -0.00110184)
(0.220368 0 -0.00110184)
(0.220368 0 -0.00110184)
(0.220368 0 -0.00110184)
(0.220368 0 -0.00110184)
(0.220368 0 -0.00110184)
(0.220368 0 -0.00110184)
(0.220368 0 -0.00110184)
(0.220368 0 -0.00110184)
(0.220368 0 -0.00110184)
(0.220368 0 -0.00110184)
(0.220368 0 -0.00110184)
(0.220368 0 -0.00110184)
(0.220368 0 -0.00110184)
(0.220368 0 -0.00110184)
(0.220368 0 -0.00110184)
(0.220368 0 -0.00110184)
(0.220368 0 -0.00110184)
(0.220368 0 -0.00110184)
(0.220368 0 -0.00110184)
(0.220368 0 -0.00110184)
(0.220368 0 -0.00110184)
(0.220368 0 -0.00110184)
(0.220368 0 -0.00110184)
(0.220368 0 -0.00110184)
(0.220368 0 -0.00110184)
(0.220368 4.35014e-31 -0.00110186)
(0.220369 0 -0.00110218)
(0.220367 0 -0.00110199)
(0.220368 0 -0.00112763)
(0.272525 0 0.00369497)
(0.283946 0 0.00243777)
(0.282434 4.59655e-26 0.00163731)
(0.278798 0 0.000634063)
(0.272174 3.47388e-26 -0.00022765)
(0.2661 4.73599e-26 -0.000669363)
(0.261221 3.49042e-26 -0.00092733)
(0.257617 0 -0.00104966)
(0.254737 1.05752e-26 -0.00112314)
(0.252593 9.17809e-27 -0.00118698)
(0.251184 0 -0.00122935)
(0.250152 -1.32119e-26 -0.00125387)
(0.249536 5.62522e-27 -0.00128084)
(0.249175 -8.7659e-27 -0.00129609)
(0.249155 0 -0.00131351)
(0.249267 2.56213e-27 -0.00132823)
(0.249574 -4.46928e-27 -0.00134318)
(0.250029 0 -0.00135535)
(0.250592 -2.35877e-27 -0.00136542)
(0.251243 7.89238e-28 -0.00137467)
(0.251959 0 -0.00138164)
(0.252693 0 -0.00138914)
(0.253412 -1.45301e-28 -0.00139621)
(0.254128 -2.0068e-28 -0.0013976)
(0.254808 0 -0.00139181)
(0.25543 0 -0.00138443)
(0.255997 5.99827e-28 -0.00137614)
(0.256505 -6.1079e-28 -0.00136751)
(0.256953 5.77236e-28 -0.00135913)
(0.25735 1.08175e-27 -0.00135212)
(0.257701 -5.22034e-28 -0.00134529)
(0.258006 4.99408e-28 -0.00133848)
(0.258267 0 -0.00133159)
(0.258483 0 -0.00132551)
(0.258663 0 -0.0013212)
(0.258819 0 -0.00131781)
(0.258952 0 -0.00131498)
(0.259066 3.70512e-28 -0.00131261)
(0.259164 0 -0.0013106)
(0.259248 0 -0.00130888)
(0.25932 1.17082e-28 -0.00130741)
(0.259382 -8.63005e-43 -0.00130614)
(0.259434 0 -0.00130506)
(0.25948 -8.64398e-43 -0.00130413)
(0.259518 -1.26326e-28 -0.00130334)
(0.259551 5.39338e-29 -0.00130266)
(0.259579 -8.65807e-43 -0.00130208)
(0.259603 -3.9366e-29 -0.00130159)
(0.259624 -3.36049e-29 -0.00130117)
(0.259641 2.85887e-29 -0.00130081)
(0.259656 2.44222e-29 -0.00130051)
(0.259669 -2.08817e-29 -0.00130025)
(0.25968 1.7857e-29 -0.00130002)
(0.259689 -3.03667e-29 -0.00129983)
(0.259697 0 -0.00129967)
(0.259704 -1.10454e-29 -0.00129954)
(0.25971 -1.87382e-29 -0.00129942)
(0.259715 0 -0.00129932)
(0.259719 -1.37058e-29 -0.00129923)
(0.259723 -5.83095e-30 -0.00129916)
(0.259726 0 -0.0012991)
(0.259729 -8.50643e-30 -0.00129904)
(0.259731 -3.63277e-30 -0.001299)
(0.259733 -6.08342e-30 -0.00129896)
(0.259734 0 -0.00129893)
(0.259736 0 -0.0012989)
(0.259737 -4.00144e-30 -0.00129887)
(0.259738 0 -0.00129885)
(0.259739 -2.94648e-30 -0.00129883)
(0.25974 0 -0.00129881)
(0.259741 -9.77389e-31 -0.0012988)
(0.259741 -1.64971e-30 -0.00129879)
(0.259742 0 -0.00129878)
(0.259742 -1.31917e-30 -0.00129877)
(0.259742 -6.3351e-31 -0.00129877)
(0.259743 0 -0.00129876)
(0.259743 -9.11731e-31 -0.00129875)
(0.259743 0 -0.00129875)
(0.259743 -4.94386e-31 -0.00129875)
(0.259744 0 -0.00129874)
(0.259744 0 -0.00129874)
(0.259744 0 -0.00129874)
(0.259744 0 -0.00129873)
(0.259744 0 -0.00129873)
(0.259744 0 -0.00129873)
(0.259744 0 -0.00129873)
(0.259744 0 -0.00129873)
(0.259744 0 -0.00129873)
(0.259744 0 -0.00129873)
(0.259744 0 -0.00129873)
(0.259744 0 -0.00129873)
(0.259744 0 -0.00129873)
(0.259744 0 -0.00129873)
(0.259744 0 -0.00129873)
(0.259744 0 -0.00129873)
(0.259744 0 -0.00129872)
(0.259744 0 -0.00129872)
(0.259745 0 -0.00129872)
(0.259745 0 -0.00129872)
(0.259745 0 -0.00129872)
(0.259745 6.82302e-33 -0.00129872)
(0.259745 0 -0.00129872)
(0.259745 0 -0.00129872)
(0.259745 0 -0.00129872)
(0.259745 0 -0.00129872)
(0.259745 0 -0.00129872)
(0.259745 0 -0.00129872)
(0.259745 0 -0.00129872)
(0.259745 0 -0.00129872)
(0.259745 0 -0.00129872)
(0.259745 0 -0.00129872)
(0.259745 0 -0.00129872)
(0.259745 0 -0.00129872)
(0.259745 0 -0.00129872)
(0.259745 0 -0.00129872)
(0.259745 5.47732e-34 -0.00129872)
(0.259745 0 -0.00129872)
(0.259745 0 -0.00129872)
(0.259745 0 -0.00129872)
(0.259745 0 -0.00129872)
(0.259745 0 -0.00129872)
(0.259745 0 -0.00129872)
(0.259745 0 -0.00129872)
(0.259745 0 -0.00129872)
(0.259745 0 -0.00129872)
(0.259745 0 -0.00129872)
(0.259745 0 -0.00129872)
(0.259745 0 -0.00129872)
(0.259745 0 -0.00129872)
(0.259745 0 -0.00129872)
(0.259745 -2.18358e-34 -0.00129872)
(0.259745 -1.56389e-34 -0.00129872)
(0.259745 0 -0.00129872)
(0.259745 0 -0.00129872)
(0.259745 0 -0.00129872)
(0.259745 0 -0.00129872)
(0.259745 0 -0.00129872)
(0.259745 0 -0.00129872)
(0.259745 0 -0.00129872)
(0.259745 0 -0.00129872)
(0.259745 0 -0.00129872)
(0.259745 0 -0.00129872)
(0.259745 0 -0.00129872)
(0.259745 0 -0.00129872)
(0.259745 0 -0.00129872)
(0.259745 0 -0.00129872)
(0.259745 3.66493e-34 -0.00129872)
(0.259745 1.49382e-34 -0.00129872)
(0.259745 0 -0.00129872)
(0.259745 0 -0.00129872)
(0.259745 0 -0.00129872)
(0.259745 0 -0.00129872)
(0.259745 0 -0.00129872)
(0.259745 0 -0.00129872)
(0.259745 0 -0.00129872)
(0.259745 0 -0.00129872)
(0.259745 0 -0.00129872)
(0.259745 0 -0.00129872)
(0.259745 0 -0.00129872)
(0.259745 0 -0.00129872)
(0.259745 0 -0.00129872)
(0.259745 0 -0.00129872)
(0.259745 -2.57912e-35 -0.00129872)
(0.259745 0 -0.00129872)
(0.259745 0 -0.00129872)
(0.259745 0 -0.00129872)
(0.259745 0 -0.00129872)
(0.259745 0 -0.00129872)
(0.259745 0 -0.00129872)
(0.259745 0 -0.00129872)
(0.259745 0 -0.00129872)
(0.259745 0 -0.00129872)
(0.259745 0 -0.00129872)
(0.259745 0 -0.00129872)
(0.259745 0 -0.00129872)
(0.259745 0 -0.00129872)
(0.259745 0 -0.00129872)
(0.259745 0 -0.00129872)
(0.259745 0 -0.00129872)
(0.259745 0 -0.00129872)
(0.259745 0 -0.00129872)
(0.259745 0 -0.00129872)
(0.259745 0 -0.00129872)
(0.259745 0 -0.00129872)
(0.259745 0 -0.00129872)
(0.259745 0 -0.00129872)
(0.259745 0 -0.00129872)
(0.259745 0 -0.00129872)
(0.259745 0 -0.00129872)
(0.259745 0 -0.00129872)
(0.259745 0 -0.00129872)
(0.259745 0 -0.00129872)
(0.259745 0 -0.00129872)
(0.259745 0 -0.00129872)
(0.259745 0 -0.00129872)
(0.259745 0 -0.00129872)
(0.259745 0 -0.00129872)
(0.259745 0 -0.00129872)
(0.259745 0 -0.00129872)
(0.259745 0 -0.00129872)
(0.259745 0 -0.00129872)
(0.259745 0 -0.00129872)
(0.259745 0 -0.00129872)
(0.259745 0 -0.00129872)
(0.259745 0 -0.00129872)
(0.259745 0 -0.00129872)
(0.259745 0 -0.00129872)
(0.259745 0 -0.00129872)
(0.259745 0 -0.00129872)
(0.259745 0 -0.00129872)
(0.259745 0 -0.00129872)
(0.259745 0 -0.00129872)
(0.259745 0 -0.00129872)
(0.259745 0 -0.00129872)
(0.259745 0 -0.00129872)
(0.259745 0 -0.00129872)
(0.259745 0 -0.00129872)
(0.259745 0 -0.00129872)
(0.259745 0 -0.00129872)
(0.259745 0 -0.00129872)
(0.259745 0 -0.00129872)
(0.259745 0 -0.00129872)
(0.259745 0 -0.00129872)
(0.259745 0 -0.00129872)
(0.259745 0 -0.00129872)
(0.259745 0 -0.00129872)
(0.259745 0 -0.00129872)
(0.259745 0 -0.00129872)
(0.259745 0 -0.00129872)
(0.259745 0 -0.00129872)
(0.259745 0 -0.00129872)
(0.259745 0 -0.00129872)
(0.259745 0 -0.00129872)
(0.259745 0 -0.00129872)
(0.259745 0 -0.00129872)
(0.259745 0 -0.00129872)
(0.259745 0 -0.00129872)
(0.259745 0 -0.00129872)
(0.259745 0 -0.00129872)
(0.259745 0 -0.00129872)
(0.259745 0 -0.00129872)
(0.259745 0 -0.00129872)
(0.259745 0 -0.00129872)
(0.259745 0 -0.00129872)
(0.259745 0 -0.00129872)
(0.259745 0 -0.00129872)
(0.259745 0 -0.00129872)
(0.259745 0 -0.00129872)
(0.259745 0 -0.00129872)
(0.259745 0 -0.00129872)
(0.259745 0 -0.00129872)
(0.259745 0 -0.00129872)
(0.259745 0 -0.00129872)
(0.259745 0 -0.00129872)
(0.259745 0 -0.00129872)
(0.259745 0 -0.00129872)
(0.259745 0 -0.00129872)
(0.259745 0 -0.00129872)
(0.259745 0 -0.00129872)
(0.259745 0 -0.00129872)
(0.259745 0 -0.00129872)
(0.259745 0 -0.00129872)
(0.259745 0 -0.00129872)
(0.259745 0 -0.00129872)
(0.259745 -1.90572e-37 -0.00129872)
(0.259745 0 -0.00129872)
(0.259745 0 -0.00129872)
(0.259745 0 -0.00129872)
(0.259745 0 -0.00129872)
(0.259745 0 -0.00129872)
(0.259745 0 -0.00129872)
(0.259745 0 -0.00129872)
(0.259745 0 -0.00129872)
(0.259745 0 -0.00129872)
(0.259745 0 -0.00129872)
(0.259745 0 -0.00129872)
(0.259745 0 -0.00129872)
(0.259745 0 -0.00129872)
(0.259745 0 -0.00129872)
(0.259745 1.09722e-36 -0.00129872)
(0.259745 0 -0.00129872)
(0.259745 0 -0.00129872)
(0.259745 0 -0.00129872)
(0.259745 0 -0.00129872)
(0.259745 0 -0.00129872)
(0.259745 0 -0.00129872)
(0.259745 0 -0.00129872)
(0.259745 0 -0.00129872)
(0.259745 0 -0.00129872)
(0.259745 0 -0.00129872)
(0.259745 0 -0.00129872)
(0.259745 0 -0.00129872)
(0.259745 0 -0.00129872)
(0.259745 0 -0.00129872)
(0.259745 0 -0.00129872)
(0.259745 0 -0.00129873)
(0.259745 0 -0.00129876)
(0.259745 0 -0.00129898)
(0.259743 0 -0.00129874)
(0.259745 0 -0.00129395)
(0.274365 0 0.00255567)
(0.28751 2.00157e-26 0.00193833)
(0.293814 3.17355e-26 0.00132583)
(0.298235 0 0.000445495)
(0.29794 4.37135e-26 -2.81795e-05)
(0.296346 3.59559e-26 -0.000407913)
(0.293036 2.46202e-26 -0.000708359)
(0.289521 0 -0.000923819)
(0.286391 1.96949e-26 -0.00106537)
(0.283801 0 -0.00117986)
(0.28174 0 -0.00126169)
(0.280037 -1.48263e-26 -0.00131259)
(0.278785 0 -0.00136655)
(0.277918 -1.27572e-26 -0.00140636)
(0.277428 0 -0.0014405)
(0.277187 4.53239e-27 -0.00147639)
(0.277228 -8.26412e-27 -0.00150048)
(0.277402 -3.65093e-27 -0.00152114)
(0.277775 -6.83905e-27 -0.00154246)
(0.278257 2.97078e-27 -0.00155786)
(0.27881 0 -0.00156878)
(0.279405 0 -0.00157571)
(0.279941 0 -0.00157878)
(0.280469 9.39661e-28 -0.00157729)
(0.280968 0 -0.00156718)
(0.281419 0 -0.00155508)
(0.281826 0 -0.00154199)
(0.282188 1.26898e-28 -0.00152857)
(0.282504 0 -0.00151567)
(0.282783 0 -0.00150479)
(0.283028 -3.23243e-30 -0.00149428)
(0.283241 0 -0.00148392)
(0.28342 0 -0.00147352)
(0.283566 0 -0.00146436)
(0.283689 -1.70665e-29 -0.00145774)
(0.283794 0 -0.00145249)
(0.283886 0 -0.00144808)
(0.283964 3.64368e-30 -0.00144434)
(0.284031 -3.16969e-30 -0.00144114)
(0.284088 0 -0.00143839)
(0.284137 2.57853e-30 -0.00143604)
(0.284179 -8.07525e-43 -0.00143402)
(0.284215 -2.09935e-30 -0.00143228)
(0.284246 -8.08603e-43 -0.0014308)
(0.284272 -3.2696e-30 -0.00142953)
(0.284294 1.29177e-30 -0.00142845)
(0.284313 -8.09688e-43 -0.00142752)
(0.284329 0 -0.00142673)
(0.284343 -6.40433e-31 -0.00142606)
(0.284355 4.35652e-31 -0.00142548)
(0.284365 3.09814e-31 -0.00142499)
(0.284374 -2.31064e-31 -0.00142458)
(0.284381 3.90504e-31 -0.00142422)
(0.284388 -8.39809e-32 -0.00142391)
(0.284393 5.47938e-34 -0.00142366)
(0.284398 7.24565e-33 -0.00142343)
(0.284402 -8.11081e-43 -0.00142325)
(0.284405 0 -0.00142308)
(0.284408 -8.11178e-43 -0.00142295)
(0.28441 0 -0.00142283)
(0.284412 0 -0.00142273)
(0.284414 -8.11276e-43 -0.00142264)
(0.284416 1.20254e-31 -0.00142257)
(0.284417 1.32345e-31 -0.00142251)
(0.284418 -4.16792e-32 -0.00142245)
(0.284419 -2.92371e-33 -0.0014224)
(0.28442 2.33624e-32 -0.00142236)
(0.284421 -5.61251e-32 -0.00142233)
(0.284421 2.61185e-32 -0.0014223)
(0.284422 0 -0.00142227)
(0.284422 9.71365e-32 -0.00142225)
(0.284423 2.34677e-31 -0.00142224)
(0.284423 0 -0.00142222)
(0.284423 7.53958e-32 -0.00142221)
(0.284424 -3.04724e-32 -0.00142219)
(0.284424 0 -0.00142218)
(0.284424 -1.52035e-31 -0.00142217)
(0.284424 -4.1848e-32 -0.00142217)
(0.284424 5.67956e-32 -0.00142216)
(0.284424 0 -0.00142216)
(0.284424 0 -0.00142215)
(0.284425 -5.30352e-32 -0.00142215)
(0.284425 0 -0.00142214)
(0.284425 0 -0.00142214)
(0.284425 0 -0.00142214)
(0.284425 6.35925e-32 -0.00142214)
(0.284425 0 -0.00142214)
(0.284425 0 -0.00142213)
(0.284425 0 -0.00142213)
(0.284425 -4.5246e-32 -0.00142213)
(0.284425 0 -0.00142213)
(0.284425 0 -0.00142213)
(0.284425 0 -0.00142213)
(0.284425 0 -0.00142213)
(0.284425 0 -0.00142213)
(0.284425 0 -0.00142213)
(0.284425 0 -0.00142213)
(0.284425 0 -0.00142213)
(0.284425 0 -0.00142213)
(0.284425 0 -0.00142213)
(0.284425 0 -0.00142213)
(0.284425 0 -0.00142213)
(0.284425 0 -0.00142213)
(0.284425 0 -0.00142213)
(0.284425 0 -0.00142213)
(0.284425 0 -0.00142213)
(0.284425 0 -0.00142213)
(0.284425 0 -0.00142213)
(0.284425 0 -0.00142213)
(0.284425 0 -0.00142213)
(0.284425 0 -0.00142213)
(0.284425 0 -0.00142213)
(0.284425 0 -0.00142213)
(0.284425 0 -0.00142213)
(0.284425 0 -0.00142213)
(0.284425 3.71715e-34 -0.00142213)
(0.284425 0 -0.00142213)
(0.284425 0 -0.00142213)
(0.284425 0 -0.00142213)
(0.284425 0 -0.00142213)
(0.284425 0 -0.00142213)
(0.284425 0 -0.00142213)
(0.284425 0 -0.00142213)
(0.284425 0 -0.00142213)
(0.284425 0 -0.00142213)
(0.284425 0 -0.00142213)
(0.284425 0 -0.00142213)
(0.284425 0 -0.00142213)
(0.284425 0 -0.00142213)
(0.284425 0 -0.00142213)
(0.284425 -3.31347e-34 -0.00142213)
(0.284425 0 -0.00142213)
(0.284425 0 -0.00142213)
(0.284425 0 -0.00142213)
(0.284425 0 -0.00142213)
(0.284425 0 -0.00142213)
(0.284425 0 -0.00142213)
(0.284425 0 -0.00142213)
(0.284425 0 -0.00142213)
(0.284425 0 -0.00142213)
(0.284425 0 -0.00142213)
(0.284425 0 -0.00142213)
(0.284425 0 -0.00142213)
(0.284425 0 -0.00142213)
(0.284425 0 -0.00142213)
(0.284425 4.4692e-34 -0.00142213)
(0.284425 3.5733e-34 -0.00142213)
(0.284425 0 -0.00142213)
(0.284425 0 -0.00142213)
(0.284425 0 -0.00142213)
(0.284425 0 -0.00142213)
(0.284425 0 -0.00142213)
(0.284425 0 -0.00142213)
(0.284425 0 -0.00142213)
(0.284425 0 -0.00142213)
(0.284425 0 -0.00142213)
(0.284425 0 -0.00142213)
(0.284425 0 -0.00142213)
(0.284425 0 -0.00142213)
(0.284425 0 -0.00142213)
(0.284425 0 -0.00142213)
(0.284425 0 -0.00142213)
(0.284425 -3.61972e-35 -0.00142213)
(0.284425 0 -0.00142213)
(0.284425 0 -0.00142213)