/*--------------------------------*- C++ -*----------------------------------*\
| =========                 |                                                 |
| \\      /  F ield         | foam-extend: Open Source CFD                    |
|  \\    /   O peration     | Version:     3.2                                |
|   \\  /    A nd           | Web:         http://www.foam-extend.org         |
|    \\/     M anipulation  | For copyright notice see file Copyright         |
\*---------------------------------------------------------------------------*/
FoamFile
{
    version     2.0;
    format      ascii;
    class       volScalarField;
    location    "20";
    object      yPlus;
}
// * * * * * * * * * * * * * * * * * * * * * * * * * * * * * * * * * * * * * //

dimensions      [0 0 0 0 0 0 0];

internalField   uniform 0;

boundaryField
{
    inlet
    {
        type            calculated;
        value           uniform 0;
    }
    outlet
    {
        type            calculated;
        value           uniform 0;
    }
    sideWall
    {
        type            empty;
    }
    bed
    {
        type            calculated;
        value           nonuniform List<scalar> 
300
(
62.7701
69.5166
64.0625
58.6606
55.5645
54.1269
53.6081
53.5403
53.6341
53.82
54.0474
54.2718
54.4924
54.7199
54.9399
55.1616
55.3932
55.6258
55.861
56.0977
56.3336
56.5693
56.8111
57.059
57.2982
57.5177
57.7151
57.8883
58.0384
58.1665
58.2761
58.3695
58.4474
58.5112
58.5622
58.6042
58.6392
58.6685
58.6932
58.7142
58.732
58.7472
58.7601
58.7711
58.7806
58.7885
58.7954
58.8012
58.8061
58.8104
58.814
58.8172
58.8198
58.822
58.824
58.8256
58.827
58.8283
58.8293
58.8301
58.831
58.8316
58.8321
58.8327
58.833
58.8334
58.8337
58.834
58.8342
58.8345
58.8346
58.8347
58.8348
58.835
58.8351
58.8351
58.8352
58.8353
58.8353
58.8353
58.8353
58.8353
58.8354
58.8354
58.8354
58.8354
58.8354
58.8354
58.8354
58.8355
58.8355
58.8355
58.8355
58.8355
58.8355
58.8355
58.8355
58.8355
58.8355
58.8355
58.8355
58.8355
58.8355
58.8355
58.8355
58.8355
58.8355
58.8355
58.8355
58.8355
58.8355
58.8355
58.8355
58.8355
58.8355
58.8355
58.8355
58.8355
58.8355
58.8355
58.8355
58.8355
58.8355
58.8355
58.8355
58.8355
58.8355
58.8355
58.8355
58.8355
58.8355
58.8355
58.8355
58.8355
58.8355
58.8355
58.8355
58.8355
58.8355
58.8355
58.8355
58.8355
58.8355
58.8355
58.8355
58.8355
58.8355
58.8355
58.8355
58.8355
58.8355
58.8355
58.8355
58.8355
58.8355
58.8355
58.8355
58.8355
58.8355
58.8355
58.8355
58.8355
58.8355
58.8355
58.8355
58.8355
58.8355
58.8355
58.8355
58.8355
58.8355
58.8355
58.8355
58.8355
58.8355
58.8355
58.8355
58.8355
58.8355
58.8355
58.8355
58.8355
58.8355
58.8355
58.8355
58.8355
58.8355
58.8355
58.8355
58.8355
58.8355
58.8355
58.8355
58.8355
58.8355
58.8355
58.8355
58.8355
58.8355
58.8355
58.8355
58.8355
58.8355
58.8355
58.8355
58.8355
58.8355
58.8355
58.8355
58.8355
58.8355
58.8355
58.8355
58.8355
58.8355
58.8355
58.8355
58.8355
58.8355
58.8355
58.8355
58.8355
58.8355
58.8355
58.8355
58.8355
58.8355
58.8355
58.8355
58.8355
58.8355
58.8355
58.8355
58.8355
58.8355
58.8355
58.8355
58.8355
58.8355
58.8355
58.8355
58.8355
58.8355
58.8355
58.8355
58.8355
58.8355
58.8355
58.8355
58.8355
58.8355
58.8355
58.8355
58.8355
58.8355
58.8355
58.8355
58.8355
58.8355
58.8355
58.8355
58.8355
58.8355
58.8355
58.8355
58.8355
58.8355
58.8355
58.8355
58.8355
58.8355
58.8355
58.8355
58.8355
58.8355
58.8355
58.8355
58.8355
58.8355
58.8355
58.8355
58.8355
58.8355
58.8355
58.8355
58.8355
58.8355
58.8355
58.8355
58.8355
58.8355
58.8355
58.8355
58.8355
58.8355
58.8355
58.8355
58.8356
58.8378
58.8352
)
;
    }
    topWall
    {
        type            calculated;
        value           uniform 0;
    }
}


// ************************************************************************* //
