/*--------------------------------*- C++ -*----------------------------------*\
| =========                 |                                                 |
| \\      /  F ield         | foam-extend: Open Source CFD                    |
|  \\    /   O peration     | Version:     3.2                                |
|   \\  /    A nd           | Web:         http://www.foam-extend.org         |
|    \\/     M anipulation  | For copyright notice see file Copyright         |
\*---------------------------------------------------------------------------*/
FoamFile
{
    version     2.0;
    format      ascii;
    class       regIOobject;
    location    "200/uniform";
    object      profilingInfo;
}
// * * * * * * * * * * * * * * * * * * * * * * * * * * * * * * * * * * * * * //

profilingInfo
(

    {
        id              28;
        parentId        24;
        description     "Foam::Time::writeObject - outputTime";
        calls           12;
        totalTime       1.73981;
        childTime       0;
        onStack         1;
    }

    {
        id              24;
        parentId        1;
        description     "Foam::Time::writeObject";
        calls           30000;
        totalTime       1.8979;
        childTime       1.73981;
        onStack         1;
    }

    {
        id              1;
        description     "application::main";
        calls           1;
        totalTime       8742.57;
        childTime       4225.57;
        onStack         1;
    }

    {
        id              27;
        parentId        25;
        description     "FO::fieldMinMax1::execute";
        calls           29999;
        totalTime       0.080641;
        childTime       0;
        onStack         0;
    }

    {
        id              8;
        parentId        6;
        description     "FO::fieldMinMax1::start";
        calls           1;
        totalTime       1.9e-05;
        childTime       0;
        onStack         0;
    }

    {
        id              26;
        parentId        25;
        description     "FO::probes::execute";
        calls           29999;
        totalTime       0.107873;
        childTime       0;
        onStack         0;
    }

    {
        id              7;
        parentId        6;
        description     "FO::probes::start";
        calls           1;
        totalTime       0.00133;
        childTime       0;
        onStack         0;
    }

    {
        id              9;
        parentId        1;
        description     "MULES::explicitSolve";
        calls           60000;
        totalTime       340.377;
        childTime       0;
        onStack         0;
    }

    {
        id              6;
        parentId        5;
        description     "functionObjectList::read";
        calls           1;
        totalTime       0.001433;
        childTime       0.001349;
        onStack         0;
    }

    {
        id              25;
        parentId        1;
        description     "functionObjects_.execute()";
        calls           29999;
        totalTime       0.458588;
        childTime       0.188514;
        onStack         0;
    }

    {
        id              5;
        parentId        1;
        description     "functionObjects_.start()";
        calls           1;
        totalTime       0.001438;
        childTime       0.001433;
        onStack         0;
    }

    {
        id              10;
        parentId        1;
        description     "fvMatrix::solve_U";
        calls           30000;
        totalTime       216.904;
        childTime       165.579;
        onStack         0;
    }

    {
        id              21;
        parentId        1;
        description     "fvMatrix::solve_k";
        calls           30000;
        totalTime       97.3446;
        childTime       89.8607;
        onStack         0;
    }

    {
        id              18;
        parentId        1;
        description     "fvMatrix::solve_omega";
        calls           30000;
        totalTime       136.177;
        childTime       120.45;
        onStack         0;
    }

    {
        id              2;
        parentId        1;
        description     "fvMatrix::solve_pcorr";
        calls           2;
        totalTime       0.131462;
        childTime       0.130707;
        onStack         0;
    }

    {
        id              15;
        parentId        1;
        description     "fvMatrix::solve_pd";
        calls           120000;
        totalTime       3432.28;
        childTime       3396.99;
        onStack         0;
    }

    {
        id              12;
        parentId        11;
        description     "lduMatrix::smoother_Ux";
        calls           30000;
        totalTime       24.9901;
        childTime       0;
        onStack         0;
    }

    {
        id              14;
        parentId        13;
        description     "lduMatrix::smoother_Uz";
        calls           30000;
        totalTime       67.6098;
        childTime       0;
        onStack         0;
    }

    {
        id              23;
        parentId        22;
        description     "lduMatrix::smoother_k";
        calls           30000;
        totalTime       62.5259;
        childTime       0;
        onStack         0;
    }

    {
        id              20;
        parentId        19;
        description     "lduMatrix::smoother_omega";
        calls           30000;
        totalTime       86.6108;
        childTime       0;
        onStack         0;
    }

    {
        id              11;
        parentId        10;
        description     "lduMatrix::solver_Ux";
        calls           30000;
        totalTime       66.1478;
        childTime       24.9901;
        onStack         0;
    }

    {
        id              13;
        parentId        10;
        description     "lduMatrix::solver_Uz";
        calls           30000;
        totalTime       99.4316;
        childTime       67.6098;
        onStack         0;
    }

    {
        id              4;
        parentId        3;
        description     "lduMatrix::solver_coarsestLevelCorr";
        calls           23;
        totalTime       0.014612;
        childTime       0;
        onStack         0;
    }

    {
        id              17;
        parentId        16;
        description     "lduMatrix::solver_coarsestLevelCorr";
        calls           569715;
        totalTime       387.746;
        childTime       0;
        onStack         0;
    }

    {
        id              22;
        parentId        21;
        description     "lduMatrix::solver_k";
        calls           30000;
        totalTime       89.8607;
        childTime       62.5259;
        onStack         0;
    }

    {
        id              19;
        parentId        18;
        description     "lduMatrix::solver_omega";
        calls           30000;
        totalTime       120.45;
        childTime       86.6108;
        onStack         0;
    }

    {
        id              3;
        parentId        2;
        description     "lduMatrix::solver_pcorr";
        calls           2;
        totalTime       0.130707;
        childTime       0.014612;
        onStack         0;
    }

    {
        id              16;
        parentId        15;
        description     "lduMatrix::solver_pd";
        calls           120000;
        totalTime       3396.99;
        childTime       387.746;
        onStack         0;
    }
);


// ************************************************************************* //
