/*--------------------------------*- C++ -*----------------------------------*\
| =========                 |                                                 |
| \\      /  F ield         | foam-extend: Open Source CFD                    |
|  \\    /   O peration     | Version:     3.2                                |
|   \\  /    A nd           | Web:         http://www.foam-extend.org         |
|    \\/     M anipulation  | For copyright notice see file Copyright         |
\*---------------------------------------------------------------------------*/
FoamFile
{
    version     2.0;
    format      ascii;
    class       areaScalarField;
    location    "840";
    object      a;
}
// * * * * * * * * * * * * * * * * * * * * * * * * * * * * * * * * * * * * * //

dimensions      [1 -1 0 0 0 0 0];

internalField   nonuniform List<scalar> 
550
(
2.78678e-05
2.7844e-05
2.78678e-05
2.78678e-05
2.78678e-05
2.78678e-05
2.77229e-05
2.78678e-05
2.78678e-05
2.76519e-05
2.78678e-05
2.76194e-05
2.76137e-05
1.39224e-05
1.3483e-05
2.78222e-05
1.72894e-05
2.78678e-05
2.78678e-05
2.78678e-05
1.01608e-05
1.60064e-05
2.78678e-05
2.78678e-05
2.78678e-05
1.56458e-05
1.41378e-05
1.37568e-05
2.78678e-05
2.78678e-05
1.31253e-05
2.78423e-05
2.78678e-05
2.78678e-05
6.68712e-06
2.75801e-05
2.75906e-05
1.09533e-05
9.81189e-06
2.78678e-05
2.78678e-05
2.78678e-05
2.75443e-05
2.73711e-05
2.74162e-05
2.7548e-05
2.78225e-05
9.51205e-06
2.77359e-05
2.75394e-05
2.74909e-05
2.75697e-05
2.7696e-05
2.77937e-05
2.77771e-05
2.76641e-05
2.74448e-05
2.71968e-05
2.6947e-05
2.69492e-05
2.68585e-05
2.68781e-05
2.69116e-05
2.68259e-05
2.68067e-05
2.6705e-05
2.66827e-05
2.66024e-05
2.65781e-05
2.64901e-05
2.65293e-05
2.65205e-05
2.66089e-05
2.66116e-05
2.6597e-05
2.65277e-05
2.64872e-05
2.649e-05
2.64546e-05
2.64074e-05
2.64078e-05
2.64013e-05
2.63068e-05
2.62731e-05
2.62633e-05
2.62899e-05
2.63351e-05
2.63454e-05
2.63178e-05
2.63666e-05
2.65639e-05
2.66976e-05
2.67109e-05
2.66949e-05
2.66853e-05
2.66777e-05
2.66732e-05
2.66708e-05
2.66636e-05
2.66459e-05
2.66196e-05
2.65909e-05
2.65652e-05
2.65417e-05
2.65178e-05
2.64914e-05
2.64636e-05
2.64361e-05
2.64102e-05
2.63869e-05
2.63663e-05
2.63475e-05
2.63302e-05
2.6313e-05
2.62948e-05
2.62761e-05
2.6254e-05
2.62315e-05
2.62105e-05
2.61889e-05
2.61657e-05
2.61439e-05
2.61256e-05
2.611e-05
2.60958e-05
2.60811e-05
2.60655e-05
2.6049e-05
2.60319e-05
2.60143e-05
2.59968e-05
2.59787e-05
2.59605e-05
2.59425e-05
2.59239e-05
2.59057e-05
2.58875e-05
2.58691e-05
2.58512e-05
2.58333e-05
2.58153e-05
2.57973e-05
2.57793e-05
2.57623e-05
2.57446e-05
2.57274e-05
2.57101e-05
2.56932e-05
2.56763e-05
2.56599e-05
2.56442e-05
2.56285e-05
2.56134e-05
2.55983e-05
2.5584e-05
2.55695e-05
2.55558e-05
2.55427e-05
2.55304e-05
2.55178e-05
2.55059e-05
2.54946e-05
2.54839e-05
2.54729e-05
2.54624e-05
2.54515e-05
2.54422e-05
2.54325e-05
2.54232e-05
2.54144e-05
2.54061e-05
2.53971e-05
2.53885e-05
2.53804e-05
2.53727e-05
2.53654e-05
2.53574e-05
2.53498e-05
2.53426e-05
2.53359e-05
2.53296e-05
2.53226e-05
2.53173e-05
2.53114e-05
2.53059e-05
2.5301e-05
2.52952e-05
2.52914e-05
2.52868e-05
2.52827e-05
2.52793e-05
2.5275e-05
2.52727e-05
2.52695e-05
2.52683e-05
2.52662e-05
2.52647e-05
2.52637e-05
2.52617e-05
2.52616e-05
2.52605e-05
2.52614e-05
2.52612e-05
2.52614e-05
2.5262e-05
2.52629e-05
2.52628e-05
2.52646e-05
2.52668e-05
2.52678e-05
2.52693e-05
2.52727e-05
2.52749e-05
2.52774e-05
2.52804e-05
2.52838e-05
2.52875e-05
2.52918e-05
2.52948e-05
2.52999e-05
2.53037e-05
2.53081e-05
2.53145e-05
2.53198e-05
2.53255e-05
2.53314e-05
2.53375e-05
2.53439e-05
2.53486e-05
2.53552e-05
2.53619e-05
2.53686e-05
2.53738e-05
2.53807e-05
2.53859e-05
2.53929e-05
2.5398e-05
2.54049e-05
2.54099e-05
2.54147e-05
2.5421e-05
2.54254e-05
2.54294e-05
2.54348e-05
2.54382e-05
2.54412e-05
2.54437e-05
2.54473e-05
2.54489e-05
2.545e-05
2.54521e-05
2.54522e-05
2.54533e-05
2.54524e-05
2.54524e-05
2.54505e-05
2.54496e-05
2.5448e-05
2.54446e-05
2.54421e-05
2.5439e-05
2.54355e-05
2.54314e-05
2.54269e-05
2.54231e-05
2.54176e-05
2.54116e-05
2.54066e-05
2.53999e-05
2.53942e-05
2.53868e-05
2.53805e-05
2.5374e-05
2.53672e-05
2.53586e-05
2.53513e-05
2.53438e-05
2.5336e-05
2.53296e-05
2.53214e-05
2.53131e-05
2.53047e-05
2.52976e-05
2.52889e-05
2.52801e-05
2.52729e-05
2.52641e-05
2.52568e-05
2.52481e-05
2.5241e-05
2.52325e-05
2.52257e-05
2.52175e-05
2.5211e-05
2.52032e-05
2.51973e-05
2.519e-05
2.51845e-05
2.51778e-05
2.5173e-05
2.51669e-05
2.51628e-05
2.51574e-05
2.51539e-05
2.5149e-05
2.51462e-05
2.51421e-05
2.51383e-05
2.51363e-05
2.5133e-05
2.51316e-05
2.51288e-05
2.5128e-05
2.51258e-05
2.51241e-05
2.51242e-05
2.51231e-05
2.51223e-05
2.51219e-05
2.51219e-05
2.51239e-05
2.51247e-05
2.51258e-05
2.51273e-05
2.51289e-05
2.5131e-05
2.51332e-05
2.51357e-05
2.51385e-05
2.51414e-05
2.5143e-05
2.51466e-05
2.51504e-05
2.51545e-05
2.51573e-05
2.51621e-05
2.51656e-05
2.51711e-05
2.51754e-05
2.51817e-05
2.51866e-05
2.51918e-05
2.5199e-05
2.52048e-05
2.52108e-05
2.52185e-05
2.52249e-05
2.52311e-05
2.52375e-05
2.52456e-05
2.52518e-05
2.52594e-05
2.52653e-05
2.52725e-05
2.5278e-05
2.52848e-05
2.52897e-05
2.52962e-05
2.53008e-05
2.53052e-05
2.53113e-05
2.53156e-05
2.53216e-05
2.53258e-05
2.53302e-05
2.53364e-05
2.5341e-05
2.53456e-05
2.53505e-05
2.53572e-05
2.53622e-05
2.53671e-05
2.53719e-05
2.53765e-05
2.53827e-05
2.53868e-05
2.53905e-05
2.53954e-05
2.53979e-05
2.54016e-05
2.54025e-05
2.54044e-05
2.54054e-05
2.54035e-05
2.54024e-05
2.54003e-05
2.5397e-05
2.53928e-05
2.53876e-05
2.53832e-05
2.53763e-05
2.53685e-05
2.53602e-05
2.53529e-05
2.53434e-05
2.53335e-05
2.5325e-05
2.53144e-05
2.53037e-05
2.52947e-05
2.52837e-05
2.52727e-05
2.52619e-05
2.52529e-05
2.52421e-05
2.52315e-05
2.52227e-05
2.52123e-05
2.52018e-05
2.51931e-05
2.51826e-05
2.51738e-05
2.5163e-05
2.5154e-05
2.5143e-05
2.51338e-05
2.51225e-05
2.51131e-05
2.51037e-05
2.50924e-05
2.5083e-05
2.50736e-05
2.50624e-05
2.50532e-05
2.50441e-05
2.50351e-05
2.50242e-05
2.50154e-05
2.50067e-05
2.49981e-05
2.49875e-05
2.49792e-05
2.49711e-05
2.49608e-05
2.49529e-05
2.4945e-05
2.4935e-05
2.49274e-05
2.49175e-05
2.49099e-05
2.49025e-05
2.48928e-05
2.48855e-05
2.48761e-05
2.48692e-05
2.48625e-05
2.48538e-05
2.48455e-05
2.48399e-05
2.48324e-05
2.48256e-05
2.48218e-05
2.48163e-05
2.48116e-05
2.48076e-05
2.48044e-05
2.48019e-05
2.48002e-05
2.47991e-05
2.47986e-05
2.47987e-05
2.47994e-05
2.48005e-05
2.47994e-05
2.48014e-05
2.48037e-05
2.48062e-05
2.48091e-05
2.48122e-05
2.4813e-05
2.48168e-05
2.4821e-05
2.48256e-05
2.48277e-05
2.4833e-05
2.48387e-05
2.48418e-05
2.48479e-05
2.48542e-05
2.48579e-05
2.48644e-05
2.48709e-05
2.48746e-05
2.48809e-05
2.48872e-05
2.48905e-05
2.48963e-05
2.49023e-05
2.4905e-05
2.49105e-05
2.49129e-05
2.4918e-05
2.4923e-05
2.49248e-05
2.49293e-05
2.49334e-05
2.49372e-05
2.49375e-05
2.49403e-05
2.49426e-05
2.49416e-05
2.49431e-05
2.49443e-05
2.49452e-05
2.49429e-05
2.49432e-05
2.49433e-05
2.49401e-05
2.49395e-05
2.49383e-05
2.49335e-05
2.4931e-05
2.49278e-05
2.49236e-05
2.49184e-05
2.49124e-05
2.49055e-05
2.48979e-05
2.48897e-05
2.48812e-05
2.48721e-05
2.48629e-05
2.48532e-05
2.48434e-05
2.48331e-05
2.48256e-05
2.48145e-05
2.48055e-05
2.47956e-05
2.47862e-05
2.47788e-05
2.47689e-05
2.47626e-05
2.47413e-05
2.47314e-05
2.46569e-05
2.45337e-05
2.41886e-05
2.30569e-05
2.27841e-05
2.78678e-05
2.78678e-05
2.78678e-05
2.78678e-05
2.78678e-05
2.78678e-05
2.78678e-05
2.78678e-05
1.5481e-05
1.66453e-05
)
;

boundaryField
{
    inlet
    {
        type            calculated;
        value           uniform 0;
    }
    endWall
    {
        type            calculated;
        value           uniform 0;
    }
    sideWall
    {
        type            empty;
    }
}


// ************************************************************************* //
