/*--------------------------------*- C++ -*----------------------------------*\
| =========                 |                                                 |
| \\      /  F ield         | foam-extend: Open Source CFD                    |
|  \\    /   O peration     | Version:     3.2                                |
|   \\  /    A nd           | Web:         http://www.foam-extend.org         |
|    \\/     M anipulation  | For copyright notice see file Copyright         |
\*---------------------------------------------------------------------------*/
FoamFile
{
    version     2.0;
    format      ascii;
    class       surfaceScalarField;
    location    "840";
    object      AdSS1;
}
// * * * * * * * * * * * * * * * * * * * * * * * * * * * * * * * * * * * * * //

dimensions      [0 3 -1 0 0 0 0];

internalField   nonuniform List<scalar> 
65390
(
3.56079e-05
3.52581e-07
3.51257e-05
3.42797e-07
3.44795e-05
5.06744e-07
3.38437e-05
4.9629e-07
3.31647e-05
5.39488e-07
3.25382e-05
4.87053e-07
3.191e-05
4.88799e-07
3.13149e-05
4.55543e-07
3.07731e-05
4.02362e-07
3.00923e-05
5.41336e-07
2.94835e-05
4.69378e-07
2.8536e-05
8.07934e-07
2.75674e-05
8.29134e-07
2.64975e-05
9.30483e-07
2.57866e-05
5.7142e-07
2.5248e-05
3.99118e-07
2.45949e-05
5.13653e-07
2.39916e-05
4.63861e-07
2.37156e-05
1.36483e-07
2.31709e-05
4.05253e-07
2.30762e-05
-4.47998e-08
2.32432e-05
-3.06446e-07
2.31253e-05
-2.15996e-08
2.30287e-05
-4.28939e-08
2.33166e-05
-4.27323e-07
2.33898e-05
-2.1268e-07
2.29445e-05
3.05861e-07
2.25561e-05
2.48874e-07
2.22947e-05
1.21962e-07
2.20182e-05
1.37021e-07
2.1804e-05
7.47295e-08
2.17243e-05
-5.97147e-08
2.13024e-05
2.82389e-07
2.08676e-05
2.9528e-07
2.11646e-05
-4.3643e-07
2.18102e-05
-7.85099e-07
2.20878e-05
-4.17055e-07
2.18249e-05
1.23492e-07
2.12235e-05
4.6193e-07
2.05095e-05
5.7449e-07
2.01293e-05
2.40688e-07
2.02924e-05
-3.02499e-07
2.07032e-05
-5.50355e-07
2.10992e-05
-5.35426e-07
2.12761e-05
-3.16336e-07
2.10782e-05
5.83904e-08
2.0666e-05
2.7275e-07
2.0345e-05
1.81568e-07
2.03053e-05
-9.98127e-08
2.03902e-05
-2.24419e-07
2.04941e-05
-2.4329e-07
2.05462e-05
-1.91606e-07
2.05934e-05
-1.86676e-07
2.05824e-05
-1.28475e-07
2.05607e-05
-1.17785e-07
2.05453e-05
-1.24009e-07
2.057e-05
-1.64176e-07
2.06407e-05
-2.10216e-07
2.07191e-05
-2.17835e-07
2.07727e-05
-1.9309e-07
2.07907e-05
-1.57472e-07
2.0821e-05
-1.69748e-07
2.08132e-05
-1.31712e-07
2.07878e-05
-1.14125e-07
2.07337e-05
-8.53152e-08
2.06789e-05
-8.47033e-08
2.06388e-05
-9.93333e-08
2.06218e-05
-1.22483e-07
2.06068e-05
-1.24471e-07
2.06012e-05
-1.33868e-07
2.05976e-05
-1.35851e-07
2.06078e-05
-1.49698e-07
2.06326e-05
-1.64215e-07
2.06519e-05
-1.58738e-07
2.06609e-05
-1.48516e-07
2.06421e-05
-1.2065e-07
2.06338e-05
-1.31243e-07
2.06325e-05
-1.38068e-07
2.06356e-05
-1.42634e-07
2.06305e-05
-1.34429e-07
2.06512e-05
-1.60149e-07
2.06578e-05
-1.45998e-07
2.06549e-05
-1.36613e-07
2.06179e-05
-1.02452e-07
2.05888e-05
-1.10307e-07
2.0562e-05
-1.12728e-07
2.05596e-05
-1.37131e-07
2.05251e-05
-1.04911e-07
2.04628e-05
-7.71381e-08
2.04095e-05
-8.61779e-08
2.0423e-05
-1.53072e-07
2.0458e-05
-1.7446e-07
2.04833e-05
-1.64728e-07
2.04944e-05
-1.50566e-07
2.05042e-05
-1.49206e-07
2.05069e-05
-1.42186e-07
2.05196e-05
-1.52215e-07
2.05323e-05
-1.52211e-07
2.05546e-05
-1.61698e-07
2.0574e-05
-1.58867e-07
2.05972e-05
-1.62686e-07
2.06147e-05
-1.57054e-07
2.06371e-05
-1.61853e-07
2.06558e-05
-1.58087e-07
2.0678e-05
-1.61726e-07
2.06937e-05
-1.55145e-07
2.07108e-05
-1.565e-07
2.07197e-05
-1.4849e-07
2.07313e-05
-1.51026e-07
2.07359e-05
-1.44077e-07
2.07458e-05
-1.49372e-07
2.07513e-05
-1.44926e-07
2.07629e-05
-1.51189e-07
2.07717e-05
-1.48174e-07
2.07865e-05
-1.54319e-07
2.07977e-05
-1.50667e-07
2.08129e-05
-1.54604e-07
2.08232e-05
-1.49812e-07
2.08373e-05
-1.53637e-07
2.08465e-05
-1.48578e-07
2.08578e-05
-1.50742e-07
2.08634e-05
-1.45071e-07
2.08724e-05
-1.48479e-07
2.08772e-05
-1.44295e-07
2.08867e-05
-1.48966e-07
2.08923e-05
-1.45046e-07
2.09015e-05
-1.48683e-07
2.09067e-05
-1.44692e-07
2.09149e-05
-1.47618e-07
2.09191e-05
-1.43729e-07
2.09262e-05
-1.46608e-07
2.09298e-05
-1.42992e-07
2.09365e-05
-1.46161e-07
2.094e-05
-1.42973e-07
2.09468e-05
-1.46326e-07
2.09506e-05
-1.43254e-07
2.09575e-05
-1.46344e-07
2.09616e-05
-1.43622e-07
2.09682e-05
-1.46047e-07
2.09722e-05
-1.43469e-07
2.09779e-05
-1.45227e-07
2.09807e-05
-1.42263e-07
2.09843e-05
-1.42997e-07
2.09851e-05
-1.40308e-07
2.09871e-05
-1.41431e-07
2.09868e-05
-1.39266e-07
2.09877e-05
-1.40356e-07
2.09869e-05
-1.38598e-07
2.09871e-05
-1.39704e-07
2.09859e-05
-1.38236e-07
2.09857e-05
-1.39239e-07
2.09846e-05
-1.38506e-07
2.09838e-05
-1.38651e-07
2.09826e-05
-1.38254e-07
2.09811e-05
-1.37908e-07
2.09795e-05
-1.37829e-07
2.09765e-05
-1.36559e-07
2.09745e-05
-1.37503e-07
2.09704e-05
-1.35273e-07
2.0968e-05
-1.37086e-07
2.09631e-05
-1.34605e-07
2.09607e-05
-1.36998e-07
2.09555e-05
-1.34331e-07
2.09528e-05
-1.36783e-07
2.0947e-05
-1.33677e-07
2.0944e-05
-1.36408e-07
2.09377e-05
-1.33172e-07
2.09346e-05
-1.36439e-07
2.09276e-05
-1.32433e-07
2.09242e-05
-1.36098e-07
2.09166e-05
-1.31874e-07
2.09127e-05
-1.35535e-07
2.09043e-05
-1.31026e-07
2.08999e-05
-1.35181e-07
2.08913e-05
-1.30811e-07
2.08871e-05
-1.35283e-07
2.08786e-05
-1.30956e-07
2.08746e-05
-1.35483e-07
2.08663e-05
-1.31183e-07
2.08632e-05
-1.36334e-07
2.08551e-05
-1.31439e-07
2.08527e-05
-1.37044e-07
2.08445e-05
-1.31184e-07
2.08431e-05
-1.38123e-07
2.0834e-05
-1.30363e-07
2.08336e-05
-1.39121e-07
2.08229e-05
-1.28692e-07
2.08238e-05
-1.4036e-07
2.08116e-05
-1.27348e-07
2.08145e-05
-1.42347e-07
2.08001e-05
-1.25066e-07
2.08047e-05
-1.44107e-07
2.07875e-05
-1.22234e-07
2.07941e-05
-1.46076e-07
2.07746e-05
-1.19901e-07
2.07837e-05
-1.48629e-07
2.07618e-05
-1.17583e-07
2.07731e-05
-1.50746e-07
2.07482e-05
-1.1462e-07
2.07614e-05
-1.52572e-07
2.07337e-05
-1.11913e-07
2.07488e-05
-1.54513e-07
2.07185e-05
-1.09204e-07
2.07349e-05
-1.55849e-07
2.07018e-05
-1.06357e-07
2.0719e-05
-1.56581e-07
2.06833e-05
-1.0384e-07
2.06999e-05
-1.56053e-07
2.06625e-05
-1.02132e-07
2.06775e-05
-1.5442e-07
2.0639e-05
-1.00961e-07
2.06515e-05
-1.52074e-07
2.06144e-05
-1.02343e-07
2.06234e-05
-1.48462e-07
2.05887e-05
-1.04676e-07
2.05948e-05
-1.45622e-07
2.05643e-05
-1.08918e-07
2.05684e-05
-1.43651e-07
2.05426e-05
-1.13684e-07
2.05444e-05
-1.41219e-07
2.05225e-05
-1.17538e-07
2.05213e-05
-1.38269e-07
2.05022e-05
-1.20408e-07
2.04995e-05
-1.36782e-07
2.04827e-05
-1.22712e-07
2.04788e-05
-1.35549e-07
2.0464e-05
-1.24588e-07
2.04597e-05
-1.35147e-07
2.04454e-05
-1.25304e-07
2.04402e-05
-1.34212e-07
2.04263e-05
-1.25572e-07
2.04214e-05
-1.34535e-07
2.0408e-05
-1.26061e-07
2.04034e-05
-1.34932e-07
2.03915e-05
-1.27618e-07
2.03862e-05
-1.34142e-07
2.03758e-05
-1.29042e-07
2.03702e-05
-1.33819e-07
2.03608e-05
-1.30045e-07
2.03546e-05
-1.33347e-07
2.03464e-05
-1.31232e-07
2.03399e-05
-1.33011e-07
2.03326e-05
-1.3211e-07
2.03271e-05
-1.34043e-07
2.03209e-05
-1.33294e-07
2.03154e-05
-1.33909e-07
2.03094e-05
-1.3352e-07
2.03045e-05
-1.3458e-07
2.02989e-05
-1.33825e-07
2.02943e-05
-1.34869e-07
2.02895e-05
-1.3472e-07
2.02857e-05
-1.35637e-07
2.02817e-05
-1.35481e-07
2.02783e-05
-1.36078e-07
2.02748e-05
-1.35966e-07
2.02713e-05
-1.35997e-07
2.02682e-05
-1.36327e-07
2.0265e-05
-1.36312e-07
2.02624e-05
-1.36866e-07
2.026e-05
-1.37055e-07
2.02582e-05
-1.37611e-07
2.02565e-05
-1.37861e-07
2.02551e-05
-1.38e-07
2.02539e-05
-1.38239e-07
2.02533e-05
-1.38909e-07
2.02526e-05
-1.38701e-07
2.02525e-05
-1.39526e-07
2.02525e-05
-1.39411e-07
2.02533e-05
-1.40258e-07
2.0254e-05
-1.40188e-07
2.02552e-05
-1.40622e-07
2.02565e-05
-1.4073e-07
2.02586e-05
-1.417e-07
2.02607e-05
-1.41546e-07
2.02629e-05
-1.41646e-07
2.02653e-05
-1.41807e-07
2.02675e-05
-1.41725e-07
2.02703e-05
-1.42285e-07
2.02735e-05
-1.42709e-07
2.02767e-05
-1.42606e-07
2.02796e-05
-1.42407e-07
2.02826e-05
-1.42397e-07
2.02862e-05
-1.43042e-07
2.0289e-05
-1.42358e-07
2.02924e-05
-1.42874e-07
2.02955e-05
-1.4251e-07
2.0299e-05
-1.42982e-07
2.03023e-05
-1.42764e-07
2.03058e-05
-1.43029e-07
2.03087e-05
-1.4235e-07
2.03121e-05
-1.42832e-07
2.03154e-05
-1.42743e-07
2.03187e-05
-1.42757e-07
2.03217e-05
-1.42456e-07
2.03251e-05
-1.42979e-07
2.03287e-05
-1.43073e-07
2.03321e-05
-1.42882e-07
2.03352e-05
-1.4247e-07
2.03382e-05
-1.42463e-07
2.03411e-05
-1.42522e-07
2.03438e-05
-1.42091e-07
2.03464e-05
-1.4211e-07
2.03487e-05
-1.41746e-07
2.0351e-05
-1.41738e-07
2.03524e-05
-1.40799e-07
2.03544e-05
-1.41602e-07
2.03557e-05
-1.40778e-07
2.03574e-05
-1.41082e-07
2.03586e-05
-1.40712e-07
2.03601e-05
-1.40909e-07
2.03611e-05
-1.40517e-07
2.03621e-05
-1.40453e-07
2.03628e-05
-1.40214e-07
2.03631e-05
-1.39719e-07
2.03633e-05
-1.39717e-07
2.03631e-05
-1.39231e-07
2.03631e-05
-1.39553e-07
2.03623e-05
-1.38605e-07
2.03612e-05
-1.38387e-07
2.036e-05
-1.3825e-07
2.03589e-05
-1.38323e-07
2.03573e-05
-1.37972e-07
2.0356e-05
-1.38163e-07
2.03538e-05
-1.37204e-07
2.03516e-05
-1.37342e-07
2.03496e-05
-1.3738e-07
2.03473e-05
-1.37168e-07
2.0345e-05
-1.37296e-07
2.03432e-05
-1.3765e-07
2.03403e-05
-1.36526e-07
2.03373e-05
-1.3648e-07
2.03343e-05
-1.36438e-07
2.03313e-05
-1.36557e-07
2.03282e-05
-1.36286e-07
2.03246e-05
-1.35928e-07
2.03211e-05
-1.35951e-07
2.03176e-05
-1.3596e-07
2.03141e-05
-1.35956e-07
2.03103e-05
-1.3568e-07
2.03069e-05
-1.3611e-07
2.03026e-05
-1.35112e-07
2.02988e-05
-1.35628e-07
2.02944e-05
-1.35055e-07
2.02901e-05
-1.35278e-07
2.02858e-05
-1.35152e-07
2.02813e-05
-1.34929e-07
2.02769e-05
-1.35051e-07
2.02719e-05
-1.34483e-07
2.02674e-05
-1.3492e-07
2.02627e-05
-1.34865e-07
2.02582e-05
-1.35009e-07
2.02536e-05
-1.34811e-07
2.0249e-05
-1.34874e-07
2.02445e-05
-1.34928e-07
2.024e-05
-1.35019e-07
2.02352e-05
-1.34669e-07
2.02306e-05
-1.3492e-07
2.02269e-05
-1.35665e-07
2.02222e-05
-1.34798e-07
2.02183e-05
-1.35539e-07
2.02136e-05
-1.3489e-07
2.02096e-05
-1.35368e-07
2.02052e-05
-1.35128e-07
2.02006e-05
-1.34832e-07
2.01959e-05
-1.34742e-07
2.01913e-05
-1.34938e-07
2.01869e-05
-1.35047e-07
2.01818e-05
-1.34394e-07
2.01772e-05
-1.34862e-07
2.01727e-05
-1.34939e-07
2.01681e-05
-1.34879e-07
2.01635e-05
-1.3495e-07
2.01585e-05
-1.34382e-07
2.01533e-05
-1.34296e-07
2.01487e-05
-1.34886e-07
2.01441e-05
-1.34788e-07
2.01399e-05
-1.35373e-07
2.01358e-05
-1.35367e-07
2.01324e-05
-1.36012e-07
2.01292e-05
-1.36292e-07
2.01262e-05
-1.3647e-07
2.01239e-05
-1.37139e-07
2.01222e-05
-1.37847e-07
2.01205e-05
-1.37736e-07
2.01197e-05
-1.38701e-07
2.01192e-05
-1.38878e-07
2.01189e-05
-1.39177e-07
2.0119e-05
-1.39636e-07
2.01193e-05
-1.39806e-07
2.01198e-05
-1.39951e-07
2.01213e-05
-1.40888e-07
2.01222e-05
-1.40404e-07
2.01238e-05
-1.4105e-07
2.01253e-05
-1.40992e-07
2.01264e-05
-1.40619e-07
2.01281e-05
-1.41147e-07
2.01298e-05
-1.41129e-07
2.01309e-05
-1.40605e-07
2.01325e-05
-1.4112e-07
2.01347e-05
-1.41626e-07
2.01365e-05
-1.41213e-07
2.01377e-05
-1.40674e-07
2.01393e-05
-1.41123e-07
2.01409e-05
-1.40982e-07
2.0142e-05
-1.40643e-07
2.01434e-05
-1.40852e-07
2.01452e-05
-1.41313e-07
2.01475e-05
-1.41706e-07
2.01496e-05
-1.41594e-07
2.01514e-05
-1.41306e-07
2.01539e-05
-1.42002e-07
2.01564e-05
-1.41953e-07
2.01588e-05
-1.41825e-07
2.01617e-05
-1.42315e-07
2.01642e-05
-1.42007e-07
2.0167e-05
-1.42369e-07
2.01694e-05
-1.41864e-07
2.01724e-05
-1.4237e-07
2.01748e-05
-1.41908e-07
2.01774e-05
-1.4207e-07
2.01801e-05
-1.42238e-07
2.01828e-05
-1.42088e-07
2.01851e-05
-1.41831e-07
2.01876e-05
-1.41885e-07
2.01901e-05
-1.42016e-07
2.01928e-05
-1.42135e-07
2.01949e-05
-1.41596e-07
2.01973e-05
-1.41854e-07
2.01996e-05
-1.4183e-07
2.02022e-05
-1.41984e-07
2.02041e-05
-1.41351e-07
2.02064e-05
-1.41915e-07
2.02084e-05
-1.41409e-07
2.02104e-05
-1.41463e-07
2.02123e-05
-1.4138e-07
2.02142e-05
-1.41327e-07
2.02156e-05
-1.40836e-07
2.0217e-05
-1.40919e-07
2.02177e-05
-1.40189e-07
2.02189e-05
-1.40649e-07
2.02199e-05
-1.40462e-07
2.0221e-05
-1.40583e-07
2.02216e-05
-1.40137e-07
2.02219e-05
-1.39707e-07
2.02224e-05
-1.39984e-07
2.02233e-05
-1.40383e-07
2.02237e-05
-1.39789e-07
2.02241e-05
-1.39864e-07
2.02247e-05
-1.40131e-07
2.02248e-05
-1.39586e-07
2.02249e-05
-1.3958e-07
2.02253e-05
-1.39823e-07
2.02255e-05
-1.39695e-07
2.02257e-05
-1.39674e-07
2.02258e-05
-1.39563e-07
2.02261e-05
-1.39742e-07
2.02264e-05
-1.39757e-07
2.02266e-05
-1.39714e-07
2.02268e-05
-1.39677e-07
2.02268e-05
-1.395e-07
2.02264e-05
-1.39092e-07
2.02265e-05
-1.39471e-07
2.02257e-05
-1.38707e-07
2.02245e-05
-1.38295e-07
2.02233e-05
-1.38268e-07
2.02218e-05
-1.38003e-07
2.02203e-05
-1.37939e-07
2.0219e-05
-1.38133e-07
2.02172e-05
-1.37682e-07
2.02147e-05
-1.3698e-07
2.02122e-05
-1.36993e-07
2.02096e-05
-1.36895e-07
2.0207e-05
-1.3678e-07
2.0203e-05
-1.35494e-07
2.02005e-05
-1.36944e-07
2.01966e-05
-1.35626e-07
2.01928e-05
-1.35686e-07
2.01888e-05
-1.3549e-07
2.01849e-05
-1.35541e-07
2.01806e-05
-1.3516e-07
2.01772e-05
-1.36057e-07
2.01735e-05
-1.35815e-07
2.01703e-05
-1.36207e-07
2.01676e-05
-1.36806e-07
2.01654e-05
-1.37299e-07
2.01633e-05
-1.37318e-07
2.01619e-05
-1.381e-07
2.01613e-05
-1.38866e-07
2.01609e-05
-1.39034e-07
2.01604e-05
-1.39039e-07
2.01598e-05
-1.3885e-07
2.01601e-05
-1.39733e-07
2.01606e-05
-1.40057e-07
2.01613e-05
-1.40089e-07
2.01618e-05
-1.4e-07
2.01637e-05
-1.41378e-07
2.01654e-05
-1.41152e-07
2.01667e-05
-1.40782e-07
2.01681e-05
-1.40904e-07
2.01704e-05
-1.41743e-07
2.01738e-05
-1.42823e-07
2.0178e-05
-1.43678e-07
2.01839e-05
-1.45315e-07
2.0189e-05
-1.44719e-07
2.01946e-05
-1.45043e-07
2.0201e-05
-1.45864e-07
2.02069e-05
-1.45308e-07
2.02135e-05
-1.46057e-07
2.0221e-05
-1.47083e-07
2.02286e-05
-1.47055e-07
2.02362e-05
-1.46982e-07
2.02446e-05
-1.47894e-07
2.02537e-05
-1.485e-07
2.02617e-05
-1.47533e-07
2.02744e-05
-1.52227e-07
2.02807e-05
-1.45703e-07
2.02962e-05
-1.55e-07
2.02999e-05
-1.43108e-07
2.03246e-05
-1.6419e-07
2.03178e-05
-1.32703e-07
2.03624e-05
-1.84044e-07
2.03387e-05
-1.15752e-07
2.04148e-05
-2.15576e-07
2.03663e-05
-9.09818e-08
2.04748e-05
-2.47954e-07
2.03803e-05
-4.50666e-08
2.05104e-05
-2.69509e-07
2.03535e-05
1.73963e-08
2.04785e-05
-2.64476e-07
2.02533e-05
8.57979e-08
2.03368e-05
-2.23041e-07
2.00503e-05
1.47084e-07
2.00856e-05
-1.74807e-07
1.97365e-05
2.09664e-07
1.96313e-05
-3.42978e-08
1.89868e-05
5.05075e-07
1.81684e-05
6.78844e-07
1.59925e-05
2.03644e-06
1.04312e-05
5.42192e-06
1.9185e-06
8.37319e-06
1.56013e-06
2.18912e-07
3.01753e-06
-1.59693e-06
2.39173e-06
4.86346e-07
1.79219e-06
4.60082e-07
4.28514e-07
1.22422e-06
-3.08149e-07
5.97207e-07
-1.58457e-06
1.13697e-06
-2.68208e-06
9.57971e-07
-3.54048e-06
7.1895e-07
-3.67994e-06
3.59693e-05
4.83258e-07
3.57764e-05
5.35713e-07
3.53853e-05
8.97809e-07
3.49963e-05
8.85283e-07
3.45946e-05
9.41255e-07
3.42272e-05
8.54417e-07
3.38559e-05
8.60114e-07
3.351e-05
8.01431e-07
3.31875e-05
7.24873e-07
3.28126e-05
9.16219e-07
3.25007e-05
7.8125e-07
3.18471e-05
1.46155e-06
3.1324e-05
1.35224e-06
3.05481e-05
1.70643e-06
2.99287e-05
1.19083e-06
2.92469e-05
1.08093e-06
2.86486e-05
1.11186e-06
2.82048e-05
9.07744e-07
2.81035e-05
2.37759e-07
2.79133e-05
5.95479e-07
2.82395e-05
-3.71082e-07
2.81165e-05
-1.83442e-07
2.82056e-05
-1.10634e-07
2.83802e-05
-2.17473e-07
2.85664e-05
-6.13595e-07
2.86776e-05
-3.23888e-07
2.84519e-05
5.31553e-07
2.8204e-05
4.96802e-07
2.77597e-05
5.6628e-07
2.75444e-05
3.52347e-07
2.74461e-05
1.73029e-07
2.72862e-05
1.00194e-07
2.72311e-05
3.37448e-07
2.73416e-05
1.84766e-07
2.74659e-05
-5.60723e-07
2.74089e-05
-7.28098e-07
2.71795e-05
-1.87687e-07
2.69373e-05
3.65693e-07
2.68261e-05
5.73193e-07
2.67651e-05
6.35461e-07
2.68269e-05
1.78889e-07
2.68682e-05
-3.4384e-07
2.68294e-05
-5.11468e-07
2.67101e-05
-4.16175e-07
2.6526e-05
-1.32235e-07
2.63985e-05
1.85892e-07
2.63516e-05
3.19628e-07
2.63441e-05
1.89064e-07
2.63733e-05
-1.2903e-07
2.62618e-05
-1.12924e-07
2.61596e-05
-1.41005e-07
2.60268e-05
-5.88129e-08
2.59859e-05
-1.45777e-07
2.59836e-05
-1.26182e-07
2.60235e-05
-1.5773e-07
2.60734e-05
-1.73839e-07
2.61197e-05
-2.10533e-07
2.61564e-05
-2.4691e-07
2.61543e-05
-2.1572e-07
2.61446e-05
-1.83385e-07
2.61014e-05
-1.14303e-07
2.60461e-05
-1.14451e-07
2.59709e-05
-5.65438e-08
2.59178e-05
-6.09861e-08
2.58717e-05
-3.92019e-08
2.58548e-05
-6.78021e-08
2.58352e-05
-7.97527e-08
2.5832e-05
-1.19271e-07
2.58179e-05
-1.10401e-07
2.58087e-05
-1.24649e-07
2.57871e-05
-1.14192e-07
2.57584e-05
-1.21047e-07
2.57255e-05
-1.31263e-07
2.56889e-05
-1.22192e-07
2.56653e-05
-1.24882e-07
2.56355e-05
-9.08485e-08
2.56281e-05
-1.23887e-07
2.56175e-05
-1.27408e-07
2.56173e-05
-1.42484e-07
2.56091e-05
-1.26251e-07
2.56125e-05
-1.63561e-07
2.55929e-05
-1.26336e-07
2.55785e-05
-1.22272e-07
2.5533e-05
-5.69169e-08
2.54903e-05
-6.76466e-08
2.54379e-05
-6.03339e-08
2.54086e-05
-1.07778e-07
2.53655e-05
-6.18209e-08
2.53305e-05
-4.2164e-08
2.52916e-05
-4.72041e-08
2.5278e-05
-1.39538e-07
2.52789e-05
-1.75312e-07
2.52922e-05
-1.78053e-07
2.52892e-05
-1.47601e-07
2.52926e-05
-1.52561e-07
2.52892e-05
-1.38757e-07
2.52957e-05
-1.58779e-07
2.52975e-05
-1.53973e-07
2.53106e-05
-1.74791e-07
2.53183e-05
-1.66601e-07
2.53325e-05
-1.76851e-07
2.53394e-05
-1.63943e-07
2.53494e-05
-1.71848e-07
2.53514e-05
-1.60162e-07
2.53581e-05
-1.68348e-07
2.53557e-05
-1.52819e-07
2.53574e-05
-1.58211e-07
2.53498e-05
-1.40849e-07
2.53488e-05
-1.50041e-07
2.53406e-05
-1.35889e-07
2.53413e-05
-1.50074e-07
2.53377e-05
-1.41274e-07
2.53431e-05
-1.56583e-07
2.53439e-05
-1.49024e-07
2.5353e-05
-1.63355e-07
2.53559e-05
-1.53599e-07
2.53652e-05
-1.63891e-07
2.53677e-05
-1.52333e-07
2.5376e-05
-1.61902e-07
2.5377e-05
-1.49565e-07
2.53828e-05
-1.56578e-07
2.53815e-05
-1.43731e-07
2.5386e-05
-1.53018e-07
2.53843e-05
-1.42595e-07
2.5389e-05
-1.53631e-07
2.53877e-05
-1.43766e-07
2.53925e-05
-1.53502e-07
2.53917e-05
-1.43857e-07
2.53963e-05
-1.52306e-07
2.53956e-05
-1.42994e-07
2.54002e-05
-1.51224e-07
2.53998e-05
-1.42574e-07
2.54044e-05
-1.50785e-07
2.54043e-05
-1.42835e-07
2.5409e-05
-1.51022e-07
2.54092e-05
-1.43471e-07
2.54139e-05
-1.50999e-07
2.54142e-05
-1.43976e-07
2.54184e-05
-1.50209e-07
2.54183e-05
-1.43397e-07
2.54215e-05
-1.48372e-07
2.54206e-05
-1.41403e-07
2.54226e-05
-1.45037e-07
2.54211e-05
-1.38806e-07
2.54222e-05
-1.42461e-07
2.54203e-05
-1.37361e-07
2.54205e-05
-1.40567e-07
2.54184e-05
-1.36528e-07
2.5418e-05
-1.39322e-07
2.5416e-05
-1.36224e-07
2.54149e-05
-1.38152e-07
2.54128e-05
-1.36412e-07
2.54112e-05
-1.36997e-07
2.5409e-05
-1.36125e-07
2.54065e-05
-1.35386e-07
2.54039e-05
-1.3525e-07
2.54001e-05
-1.32755e-07
2.5397e-05
-1.34393e-07
2.53922e-05
-1.30428e-07
2.53889e-05
-1.33835e-07
2.53827e-05
-1.28389e-07
2.53792e-05
-1.33507e-07
2.53721e-05
-1.27177e-07
2.53683e-05
-1.3306e-07
2.53602e-05
-1.25547e-07
2.53561e-05
-1.32303e-07
2.53473e-05
-1.24372e-07
2.5343e-05
-1.32106e-07
2.53334e-05
-1.22846e-07
2.53287e-05
-1.31405e-07
2.53185e-05
-1.2165e-07
2.53137e-05
-1.30718e-07
2.53029e-05
-1.20269e-07
2.52981e-05
-1.30389e-07
2.52875e-05
-1.2016e-07
2.52832e-05
-1.31028e-07
2.52727e-05
-1.20424e-07
2.52691e-05
-1.31872e-07
2.52584e-05
-1.20539e-07
2.52553e-05
-1.33188e-07
2.5244e-05
-1.20136e-07
2.52411e-05
-1.34222e-07
2.5229e-05
-1.1904e-07
2.52266e-05
-1.35749e-07
2.52133e-05
-1.17e-07
2.52119e-05
-1.37742e-07
2.51964e-05
-1.13248e-07
2.51976e-05
-1.41501e-07
2.51792e-05
-1.08992e-07
2.51836e-05
-1.46711e-07
2.51614e-05
-1.0285e-07
2.5169e-05
-1.51762e-07
2.51427e-05
-9.59155e-08
2.5154e-05
-1.57404e-07
2.5124e-05
-8.98283e-08
2.51393e-05
-1.63935e-07
2.51052e-05
-8.35471e-08
2.5124e-05
-1.69534e-07
2.50856e-05
-7.61903e-08
2.51077e-05
-1.74664e-07
2.50645e-05
-6.87516e-08
2.509e-05
-1.80018e-07
2.50424e-05
-6.15864e-08
2.50706e-05
-1.84071e-07
2.50187e-05
-5.44421e-08
2.50489e-05
-1.868e-07
2.49932e-05
-4.81041e-08
2.50241e-05
-1.86944e-07
2.49657e-05
-4.37227e-08
2.49954e-05
-1.84165e-07
2.4936e-05
-4.14866e-08
2.49627e-05
-1.78861e-07
2.49049e-05
-4.45085e-08
2.49268e-05
-1.70389e-07
2.48737e-05
-5.15198e-08
2.48893e-05
-1.61282e-07
2.48432e-05
-6.28128e-08
2.48527e-05
-1.53152e-07
2.48138e-05
-7.47638e-08
2.48179e-05
-1.45318e-07
2.47846e-05
-8.42282e-08
2.47842e-05
-1.37837e-07
2.47549e-05
-9.11797e-08
2.47512e-05
-1.33041e-07
2.47254e-05
-9.68847e-08
2.47195e-05
-1.29666e-07
2.46963e-05
-1.0141e-07
2.46892e-05
-1.28e-07
2.46678e-05
-1.03955e-07
2.46599e-05
-1.2631e-07
2.464e-05
-1.05644e-07
2.46331e-05
-1.27683e-07
2.46148e-05
-1.07673e-07
2.46067e-05
-1.26874e-07
2.45909e-05
-1.11795e-07
2.45817e-05
-1.24955e-07
2.45666e-05
-1.13954e-07
2.45561e-05
-1.23367e-07
2.45417e-05
-1.15564e-07
2.45311e-05
-1.22756e-07
2.45179e-05
-1.1804e-07
2.45073e-05
-1.22475e-07
2.44952e-05
-1.20012e-07
2.44852e-05
-1.2397e-07
2.4474e-05
-1.22122e-07
2.44644e-05
-1.24315e-07
2.44536e-05
-1.22747e-07
2.44442e-05
-1.25149e-07
2.44339e-05
-1.2354e-07
2.44251e-05
-1.26059e-07
2.44156e-05
-1.25251e-07
2.44075e-05
-1.27501e-07
2.43989e-05
-1.26908e-07
2.43912e-05
-1.28298e-07
2.43831e-05
-1.27939e-07
2.43755e-05
-1.28337e-07
2.43679e-05
-1.28789e-07
2.43606e-05
-1.28957e-07
2.43539e-05
-1.30171e-07
2.43473e-05
-1.30479e-07
2.43413e-05
-1.31639e-07
2.43356e-05
-1.32114e-07
2.43303e-05
-1.32704e-07
2.43251e-05
-1.33061e-07
2.43207e-05
-1.34472e-07
2.43162e-05
-1.3422e-07
2.43127e-05
-1.36046e-07
2.43091e-05
-1.35828e-07
2.43065e-05
-1.37619e-07
2.43038e-05
-1.37539e-07
2.43019e-05
-1.38637e-07
2.42999e-05
-1.38777e-07
2.42986e-05
-1.40433e-07
2.42974e-05
-1.40331e-07
2.42967e-05
-1.40916e-07
2.42961e-05
-1.41232e-07
2.42958e-05
-1.41403e-07
2.42958e-05
-1.42251e-07
2.4296e-05
-1.42946e-07
2.42964e-05
-1.43054e-07
2.42972e-05
-1.43134e-07
2.42979e-05
-1.43088e-07
2.42992e-05
-1.4436e-07
2.43005e-05
-1.43655e-07
2.43023e-05
-1.44685e-07
2.43037e-05
-1.43945e-07
2.43058e-05
-1.45078e-07
2.43075e-05
-1.44419e-07
2.43097e-05
-1.45238e-07
2.43117e-05
-1.44351e-07
2.43139e-05
-1.45043e-07
2.43161e-05
-1.44914e-07
2.43184e-05
-1.45088e-07
2.43208e-05
-1.44901e-07
2.43234e-05
-1.45546e-07
2.4326e-05
-1.45667e-07
2.43286e-05
-1.45438e-07
2.43312e-05
-1.45141e-07
2.43334e-05
-1.44678e-07
2.43358e-05
-1.44887e-07
2.43377e-05
-1.44031e-07
2.43399e-05
-1.44305e-07
2.43418e-05
-1.43583e-07
2.43437e-05
-1.43676e-07
2.43452e-05
-1.42315e-07
2.43471e-05
-1.43421e-07
2.43482e-05
-1.41953e-07
2.43498e-05
-1.42703e-07
2.43508e-05
-1.41626e-07
2.43522e-05
-1.42298e-07
2.43531e-05
-1.41476e-07
2.43542e-05
-1.41518e-07
2.43551e-05
-1.41169e-07
2.43557e-05
-1.40293e-07
2.4356e-05
-1.40014e-07
2.4356e-05
-1.39227e-07
2.43559e-05
-1.3945e-07
2.43556e-05
-1.38294e-07
2.4355e-05
-1.37768e-07
2.43541e-05
-1.37374e-07
2.43531e-05
-1.37367e-07
2.43519e-05
-1.36737e-07
2.43505e-05
-1.36811e-07
2.43487e-05
-1.35391e-07
2.43472e-05
-1.35831e-07
2.43452e-05
-1.35313e-07
2.43435e-05
-1.35503e-07
2.43412e-05
-1.35017e-07
2.43392e-05
-1.35652e-07
2.43366e-05
-1.33892e-07
2.43341e-05
-1.34035e-07
2.43308e-05
-1.33116e-07
2.4328e-05
-1.3372e-07
2.43246e-05
-1.32911e-07
2.43216e-05
-1.32924e-07
2.4318e-05
-1.32376e-07
2.43146e-05
-1.32587e-07
2.43109e-05
-1.32253e-07
2.43074e-05
-1.32132e-07
2.43037e-05
-1.32419e-07
2.42997e-05
-1.3109e-07
2.42956e-05
-1.3159e-07
2.42913e-05
-1.30666e-07
2.42869e-05
-1.30896e-07
2.42822e-05
-1.30502e-07
2.42777e-05
-1.30394e-07
2.42729e-05
-1.30291e-07
2.42681e-05
-1.29634e-07
2.4263e-05
-1.2984e-07
2.4258e-05
-1.2986e-07
2.4253e-05
-1.3005e-07
2.42481e-05
-1.29881e-07
2.42431e-05
-1.29834e-07
2.4238e-05
-1.29877e-07
2.42326e-05
-1.29611e-07
2.42275e-05
-1.29529e-07
2.42219e-05
-1.29387e-07
2.4217e-05
-1.30771e-07
2.42115e-05
-1.29234e-07
2.42066e-05
-1.30689e-07
2.42011e-05
-1.29343e-07
2.41961e-05
-1.30428e-07
2.41907e-05
-1.29708e-07
2.41854e-05
-1.29479e-07
2.41798e-05
-1.29154e-07
2.41742e-05
-1.29362e-07
2.41686e-05
-1.29437e-07
2.41629e-05
-1.28681e-07
2.4157e-05
-1.28995e-07
2.41513e-05
-1.29182e-07
2.41455e-05
-1.29079e-07
2.41398e-05
-1.29299e-07
2.41338e-05
-1.28394e-07
2.41282e-05
-1.2863e-07
2.41225e-05
-1.2919e-07
2.4117e-05
-1.29295e-07
2.41118e-05
-1.30191e-07
2.41066e-05
-1.30159e-07
2.41019e-05
-1.31312e-07
2.40974e-05
-1.31796e-07
2.40931e-05
-1.32197e-07
2.40895e-05
-1.33546e-07
2.40861e-05
-1.34405e-07
2.40834e-05
-1.35035e-07
2.40808e-05
-1.36156e-07
2.40787e-05
-1.36769e-07
2.40773e-05
-1.37748e-07
2.40757e-05
-1.38048e-07
2.40747e-05
-1.38816e-07
2.4074e-05
-1.39228e-07
2.40735e-05
-1.40426e-07
2.40731e-05
-1.39994e-07
2.40729e-05
-1.40832e-07
2.40729e-05
-1.41042e-07
2.40731e-05
-1.40786e-07
2.40733e-05
-1.41309e-07
2.40738e-05
-1.41634e-07
2.40744e-05
-1.41273e-07
2.40754e-05
-1.42035e-07
2.40761e-05
-1.42408e-07
2.40774e-05
-1.42434e-07
2.40783e-05
-1.4161e-07
2.40792e-05
-1.41981e-07
2.40802e-05
-1.41972e-07
2.40812e-05
-1.41724e-07
2.40825e-05
-1.42151e-07
2.40839e-05
-1.4271e-07
2.40855e-05
-1.43293e-07
2.40873e-05
-1.43369e-07
2.4089e-05
-1.43023e-07
2.40909e-05
-1.43923e-07
2.40928e-05
-1.43816e-07
2.40949e-05
-1.43881e-07
2.4097e-05
-1.44431e-07
2.40991e-05
-1.44155e-07
2.41017e-05
-1.44903e-07
2.41038e-05
-1.43997e-07
2.41063e-05
-1.44909e-07
2.41086e-05
-1.44141e-07
2.41111e-05
-1.44592e-07
2.41132e-05
-1.44339e-07
2.41157e-05
-1.44564e-07
2.41175e-05
-1.43663e-07
2.41199e-05
-1.44339e-07
2.41223e-05
-1.44383e-07
2.41246e-05
-1.44444e-07
2.4127e-05
-1.43945e-07
2.41291e-05
-1.43991e-07
2.41313e-05
-1.44071e-07
2.41339e-05
-1.44517e-07
2.41354e-05
-1.42898e-07
2.41375e-05
-1.44019e-07
2.41392e-05
-1.43099e-07
2.41412e-05
-1.43428e-07
2.41426e-05
-1.42789e-07
2.41438e-05
-1.42486e-07
2.41449e-05
-1.41993e-07
2.4146e-05
-1.42035e-07
2.41469e-05
-1.41042e-07
2.4148e-05
-1.41785e-07
2.41485e-05
-1.40966e-07
2.41495e-05
-1.41577e-07
2.415e-05
-1.40577e-07
2.4151e-05
-1.40714e-07
2.41514e-05
-1.40472e-07
2.4152e-05
-1.40942e-07
2.41528e-05
-1.40534e-07
2.41532e-05
-1.40275e-07
2.41539e-05
-1.40903e-07
2.41543e-05
-1.39904e-07
2.41552e-05
-1.40486e-07
2.41552e-05
-1.3983e-07
2.41554e-05
-1.39882e-07
2.41555e-05
-1.39786e-07
2.41555e-05
-1.39558e-07
2.41554e-05
-1.39683e-07
2.41551e-05
-1.39469e-07
2.41552e-05
-1.39757e-07
2.41544e-05
-1.38914e-07
2.41538e-05
-1.38929e-07
2.41527e-05
-1.38009e-07
2.41513e-05
-1.38039e-07
2.41499e-05
-1.37283e-07
2.41482e-05
-1.36619e-07
2.41462e-05
-1.36237e-07
2.41435e-05
-1.3532e-07
2.4141e-05
-1.35495e-07
2.41386e-05
-1.35735e-07
2.4136e-05
-1.35068e-07
2.4133e-05
-1.33904e-07
2.41298e-05
-1.33845e-07
2.41269e-05
-1.3394e-07
2.41237e-05
-1.33633e-07
2.41204e-05
-1.32188e-07
2.4117e-05
-1.33547e-07
2.41133e-05
-1.31946e-07
2.41096e-05
-1.32001e-07
2.4106e-05
-1.31804e-07
2.41022e-05
-1.31792e-07
2.40987e-05
-1.31639e-07
2.40953e-05
-1.327e-07
2.40923e-05
-1.32813e-07
2.40895e-05
-1.33397e-07
2.40874e-05
-1.3466e-07
2.40854e-05
-1.35321e-07
2.40838e-05
-1.35697e-07
2.4083e-05
-1.37299e-07
2.40814e-05
-1.37288e-07
2.4081e-05
-1.38657e-07
2.408e-05
-1.37984e-07
2.40794e-05
-1.38265e-07
2.40791e-05
-1.39431e-07
2.4079e-05
-1.40022e-07
2.40791e-05
-1.40159e-07
2.40797e-05
-1.40568e-07
2.40805e-05
-1.42178e-07
2.40815e-05
-1.42224e-07
2.40827e-05
-1.41904e-07
2.4084e-05
-1.42209e-07
2.4086e-05
-1.43739e-07
2.40886e-05
-1.45422e-07
2.40915e-05
-1.46632e-07
2.40962e-05
-1.49945e-07
2.41008e-05
-1.49391e-07
2.41059e-05
-1.50106e-07
2.41114e-05
-1.51386e-07
2.41172e-05
-1.51117e-07
2.41238e-05
-1.52648e-07
2.41306e-05
-1.5392e-07
2.41383e-05
-1.54734e-07
2.41465e-05
-1.55183e-07
2.41552e-05
-1.5658e-07
2.41649e-05
-1.58237e-07
2.41749e-05
-1.57475e-07
2.41861e-05
-1.63412e-07
2.41945e-05
-1.54097e-07
2.42094e-05
-1.69883e-07
2.42143e-05
-1.48019e-07
2.42379e-05
-1.87812e-07
2.4233e-05
-1.27837e-07
2.42785e-05
-2.29565e-07
2.42496e-05
-8.68004e-08
2.43368e-05
-3.02752e-07
2.42621e-05
-1.63301e-08
2.44028e-05
-3.88651e-07
2.42565e-05
1.01196e-07
2.44481e-05
-4.61033e-07
2.42088e-05
2.56672e-07
2.44324e-05
-4.88106e-07
2.40927e-05
4.25518e-07
2.43071e-05
-4.37455e-07
2.38902e-05
5.64036e-07
2.40416e-05
-3.2628e-07
2.35428e-05
7.08503e-07
2.3492e-05
1.64704e-08
2.27319e-05
1.26526e-06
2.18662e-05
1.54452e-06
1.98195e-05
4.08311e-06
1.57563e-05
9.48515e-06
1.10359e-05
1.30935e-05
8.29521e-06
2.95963e-06
7.69035e-06
-9.92072e-07
6.70942e-06
1.46728e-06
5.36872e-06
1.80078e-06
3.50465e-06
3.08829e-06
1.6833e-06
2.41856e-06
-2.13149e-07
3.03342e-06
-1.52019e-06
2.26501e-06
-2.36564e-06
1.5644e-06
-6.04558e-06
3.59691e-05
6.14123e-07
3.57833e-05
7.21505e-07
3.54034e-05
1.27779e-06
3.50391e-05
1.24953e-06
3.46734e-05
1.30697e-06
3.43522e-05
1.17567e-06
3.40622e-05
1.15004e-06
3.37413e-05
1.12231e-06
3.34598e-05
1.00641e-06
3.31784e-05
1.19762e-06
3.29911e-05
9.68544e-07
3.27605e-05
1.6922e-06
3.25224e-05
1.59034e-06
3.19354e-05
2.29343e-06
3.13424e-05
1.7838e-06
3.06763e-05
1.74702e-06
3.01355e-05
1.65266e-06
2.97994e-05
1.24385e-06
2.98109e-05
2.26242e-07
2.99811e-05
4.25348e-07
3.042e-05
-8.10016e-07
3.05254e-05
-2.888e-07
3.06559e-05
-2.41184e-07
3.0768e-05
-3.29519e-07
3.0803e-05
-6.48678e-07
3.09547e-05
-4.75534e-07
3.1074e-05
4.12213e-07
3.11384e-05
4.3245e-07
3.09095e-05
7.95151e-07
3.07863e-05
4.75559e-07
3.06436e-05
3.15691e-07
3.04924e-05
2.51468e-07
3.05367e-05
2.93099e-07
3.06728e-05
4.86338e-08
3.06906e-05
-5.78454e-07
3.0574e-05
-6.11532e-07
3.03866e-05
-3.07328e-10
3.0175e-05
5.77346e-07
3.00886e-05
6.59595e-07
3.00564e-05
6.67655e-07
3.00653e-05
1.69978e-07
2.99976e-05
-2.76143e-07
2.99083e-05
-4.22208e-07
2.97526e-05
-2.60474e-07
2.95429e-05
7.74554e-08
2.94637e-05
2.65157e-07
2.94689e-05
3.14382e-07
2.94429e-05
2.15039e-07
2.94164e-05
-1.02524e-07
2.93153e-05
-1.17973e-08
2.91898e-05
-1.54544e-08
2.90353e-05
9.56809e-08
2.89911e-05
-1.01651e-07
2.89848e-05
-1.19868e-07
2.90098e-05
-1.82741e-07
2.90361e-05
-2.00127e-07
2.90515e-05
-2.25887e-07
2.90559e-05
-2.51371e-07
2.90292e-05
-1.89016e-07
2.89907e-05
-1.44896e-07
2.89197e-05
-4.3216e-08
2.8838e-05
-3.27838e-08
2.87663e-05
1.51182e-08
2.87184e-05
-1.30264e-08
2.86734e-05
5.75393e-09
2.86533e-05
-4.76884e-08
2.86303e-05
-5.6715e-08
2.86202e-05
-1.09223e-07
2.86012e-05
-9.1413e-08
2.8579e-05
-1.02453e-07
2.85424e-05
-7.75414e-08
2.8493e-05
-7.16508e-08
2.84376e-05
-7.5871e-08
2.83866e-05
-7.12042e-08
2.83483e-05
-8.66063e-08
2.83118e-05
-5.4303e-08
2.82925e-05
-1.0461e-07
2.82728e-05
-1.07729e-07
2.82655e-05
-1.35121e-07
2.82511e-05
-1.11879e-07
2.82404e-05
-1.52882e-07
2.82104e-05
-9.63686e-08
2.8181e-05