/*--------------------------------*- C++ -*----------------------------------*\
| =========                 |                                                 |
| \\      /  F ield         | foam-extend: Open Source CFD                    |
|  \\    /   O peration     | Version:     3.2                                |
|   \\  /    A nd           | Web:         http://www.foam-extend.org         |
|    \\/     M anipulation  | For copyright notice see file Copyright         |
\*---------------------------------------------------------------------------*/
FoamFile
{
    version     2.0;
    format      ascii;
    class       areaVectorField;
    location    "840";
    object      aMeshCentreN;
}
// * * * * * * * * * * * * * * * * * * * * * * * * * * * * * * * * * * * * * //

dimensions      [0 0 0 0 0 0 0];

internalField   nonuniform List<vector> 
550
(
(0.0090909 0.01 -1.81818e-05)
(0.0272727 0.01 -5.45454e-05)
(0.0454545 0.01 -9.09091e-05)
(0.0636364 0.01 -0.000127273)
(0.0818182 0.01 -0.000163636)
(0.1 0.01 -0.0002)
(0.118182 0.01 -0.000236364)
(0.136364 0.01 -0.000272727)
(0.154545 0.01 -0.000309091)
(0.172727 0.01 -0.000345454)
(0.190909 0.01 -0.000407625)
(0.209091 0.01 -0.000412003)
(0.227273 0.01 -0.000453755)
(0.245455 0.01 -0.000502193)
(0.263636 0.01 -0.000531261)
(0.281818 0.01 -0.000552541)
(0.3 0.01 -0.000537717)
(0.318182 0.01 -0.000599917)
(0.336364 0.01 -0.000648604)
(0.354546 0.01 -0.000608954)
(0.372727 0.01 -0.000737942)
(0.390909 0.01 -0.00073068)
(0.409091 0.01 -0.000622794)
(0.427273 0.01 -0.000748746)
(0.445454 0.01 -0.000646622)
(0.463636 0.01 -0.000416023)
(0.481818 0.01 -0.000308636)
(0.5 0.01 -0.000340128)
(0.518182 0.01 -0.000333061)
(0.536364 0.01 -0.000321818)
(0.554546 0.01 -0.000453)
(0.572727 0.01 -0.000526063)
(0.590909 0.01 -0.000651385)
(0.609091 0.01 -0.00087976)
(0.627273 0.01 -0.000890572)
(0.645454 0.01 -0.000734017)
(0.663636 0.01 -0.000727874)
(0.681818 0.01 -0.000846039)
(0.7 0.01 -0.000971348)
(0.718182 0.01 -0.00113195)
(0.736364 0.01 -0.00128255)
(0.754545 0.01 -0.00127821)
(0.772727 0.01 -0.00115042)
(0.790909 0.01 -0.00111077)
(0.809091 0.01 -0.00111316)
(0.827273 0.01 -0.00111966)
(0.845454 0.01 -0.00121512)
(0.863636 0.01 -0.0012698)
(0.881818 0.01 -0.00123475)
(0.9 0.01 -0.00118886)
(0.918182 0.01 -0.00119328)
(0.936364 0.01 -0.00119489)
(0.954545 0.01 -0.00111583)
(0.972727 0.01 -0.000960824)
(0.990909 0.01 -0.000765181)
(1.00909 0.01 -0.000586328)
(1.02727 0.01 -0.000419255)
(1.04546 0.01 -0.000275316)
(1.06364 0.01 -0.000138987)
(1.08182 0.01 -8.35042e-06)
(1.1 0.01 9.94593e-05)
(1.11818 0.01 0.00019749)
(1.13636 0.01 0.000308529)
(1.15455 0.01 0.000419996)
(1.17273 0.01 0.000524605)
(1.19091 0.01 0.000624535)
(1.20909 0.01 0.00071669)
(1.22727 0.01 0.00080712)
(1.24545 0.01 0.000890645)
(1.26364 0.01 0.000962174)
(1.28182 0.01 0.00102523)
(1.3 0.01 0.00109056)
(1.31818 0.01 0.00116543)
(1.33636 0.01 0.00125574)
(1.35454 0.01 0.00134778)
(1.37273 0.01 0.00143215)
(1.39091 0.01 0.0015042)
(1.40909 0.01 0.00157697)
(1.42727 0.01 0.0016509)
(1.44545 0.01 0.00171481)
(1.46364 0.01 0.00177502)
(1.48182 0.01 0.00183958)
(1.5 0.01 0.00189122)
(1.51818 0.01 0.00192357)
(1.53636 0.01 0.00194614)
(1.55455 0.01 0.00196471)
(1.57273 0.01 0.00198831)
(1.59091 0.01 0.00201573)
(1.60909 0.01 0.0020287)
(1.62727 0.01 0.00202272)
(1.64545 0.01 0.00203734)
(1.66364 0.01 0.00209476)
(1.68182 0.01 0.0021704)
(1.7 0.01 0.00224332)
(1.71818 0.01 0.00231457)
(1.73636 0.01 0.00238709)
(1.75455 0.01 0.00246265)
(1.77273 0.01 0.00254279)
(1.79091 0.01 0.00262833)
(1.80909 0.01 0.00271766)
(1.82727 0.01 0.00280856)
(1.84545 0.01 0.00289937)
(1.86364 0.01 0.00299019)
(1.88182 0.01 0.00308162)
(1.9 0.01 0.00317384)
(1.91818 0.01 0.00326614)
(1.93636 0.01 0.00335774)
(1.95455 0.01 0.00344822)
(1.97273 0.01 0.00353748)
(1.99091 0.01 0.00362588)
(2.00909 0.01 0.00371385)
(2.02727 0.01 0.00380182)
(2.04546 0.01 0.00389004)
(2.06364 0.01 0.00397864)
(2.08182 0.01 0.00406736)
(2.1 0.01 0.00415613)
(2.11818 0.01 0.00424436)
(2.13636 0.01 0.00433144)
(2.15454 0.01 0.00441755)
(2.17273 0.01 0.00450276)
(2.19091 0.01 0.00458657)
(2.20909 0.01 0.00466869)
(2.22727 0.01 0.00474964)
(2.24545 0.01 0.00483016)
(2.26364 0.01 0.00491071)
(2.28182 0.01 0.00499133)
(2.3 0.01 0.00507192)
(2.31818 0.01 0.0051522)
(2.33636 0.01 0.00523217)
(2.35454 0.01 0.00531162)
(2.37273 0.01 0.00539064)
(2.39091 0.01 0.00546903)
(2.40909 0.01 0.00554685)
(2.42727 0.01 0.00562395)
(2.44545 0.01 0.00570045)
(2.46364 0.01 0.00577606)
(2.48182 0.01 0.00585097)
(2.5 0.01 0.00592488)
(2.51818 0.01 0.00599799)
(2.53636 0.01 0.00607001)
(2.55455 0.01 0.00614111)
(2.57273 0.01 0.00621091)
(2.59091 0.01 0.00627956)
(2.60909 0.01 0.0063469)
(2.62727 0.01 0.00641321)
(2.64546 0.01 0.0064781)
(2.66364 0.01 0.00654184)
(2.68182 0.01 0.00660406)
(2.7 0.01 0.00666506)
(2.71818 0.01 0.00672447)
(2.73636 0.01 0.00678265)
(2.75455 0.01 0.00683923)
(2.77273 0.01 0.00689452)
(2.79091 0.01 0.00694812)
(2.80909 0.01 0.00700041)
(2.82727 0.01 0.00705096)
(2.84545 0.01 0.00710013)
(2.86364 0.01 0.00714751)
(2.88182 0.01 0.00719362)
(2.9 0.01 0.007238)
(2.91818 0.01 0.00728098)
(2.93636 0.01 0.00732227)
(2.95454 0.01 0.0073624)
(2.97273 0.01 0.00740092)
(2.99091 0.01 0.00743817)
(3.00909 0.01 0.00747368)
(3.02727 0.01 0.00750795)
(3.04545 0.01 0.00754067)
(3.06364 0.01 0.00757212)
(3.08182 0.01 0.00760197)
(3.1 0.01 0.00763073)
(3.11818 0.01 0.00765792)
(3.13636 0.01 0.00768387)
(3.15454 0.01 0.00770825)
(3.17273 0.01 0.00773152)
(3.19091 0.01 0.00775341)
(3.20909 0.01 0.00777424)
(3.22727 0.01 0.00779353)
(3.24545 0.01 0.00781176)
(3.26364 0.01 0.00782861)
(3.28182 0.01 0.00784464)
(3.3 0.01 0.0078592)
(3.31818 0.01 0.00787308)
(3.33636 0.01 0.00788564)
(3.35454 0.01 0.00789789)
(3.37273 0.01 0.00790855)
(3.39091 0.01 0.00791968)
(3.40909 0.01 0.00792857)
(3.42727 0.01 0.00793922)
(3.44545 0.01 0.00794674)
(3.46364 0.01 0.00795609)
(3.48182 0.01 0.00796179)
(3.5 0.01 0.00796909)
(3.51818 0.01 0.00797264)
(3.53636 0.01 0.00797784)
(3.55454 0.01 0.00797924)
(3.57273 0.01 0.00798222)
(3.59091 0.01 0.00798122)
(3.60909 0.01 0.00798168)
(3.62727 0.01 0.00797783)
(3.64545 0.01 0.0079754)
(3.66364 0.01 0.00796865)
(3.68182 0.01 0.00796317)
(3.7 0.01 0.00795316)
(3.71818 0.01 0.00794373)
(3.73636 0.01 0.00793004)
(3.75454 0.01 0.00791606)
(3.77273 0.01 0.00789803)
(3.79091 0.01 0.00787885)
(3.80909 0.01 0.00785659)
(3.82727 0.01 0.0078313)
(3.84546 0.01 0.00780439)
(3.86364 0.01 0.00777331)
(3.88182 0.01 0.00774254)
(3.9 0.01 0.00770587)
(3.91818 0.01 0.00767234)
(3.93636 0.01 0.00763259)
(3.95454 0.01 0.0075973)
(3.97273 0.01 0.00755643)
(3.99091 0.01 0.00751918)
(4.00909 0.01 0.00747749)
(4.02727 0.01 0.00743815)
(4.04546 0.01 0.00739517)
(4.06364 0.01 0.00735433)
(4.08182 0.01 0.00731069)
(4.1 0.01 0.00726857)
(4.11818 0.01 0.00722439)
(4.13636 0.01 0.00718151)
(4.15454 0.01 0.00713686)
(4.17273 0.01 0.00709265)
(4.19091 0.01 0.007047)
(4.20909 0.01 0.00700183)
(4.22727 0.01 0.0069554)
(4.24546 0.01 0.00690897)
(4.26364 0.01 0.00686153)
(4.28182 0.01 0.00681437)
(4.3 0.01 0.00676656)
(4.31818 0.01 0.00671915)
(4.33636 0.01 0.00667151)
(4.35454 0.01 0.00662407)
(4.37273 0.01 0.00657641)
(4.39091 0.01 0.00652938)
(4.40909 0.01 0.00648204)
(4.42727 0.01 0.00643505)
(4.44545 0.01 0.00638834)
(4.46364 0.01 0.00634193)
(4.48182 0.01 0.00629545)
(4.5 0.01 0.00624934)
(4.51818 0.01 0.00620364)
(4.53636 0.01 0.00615814)
(4.55455 0.01 0.00611289)
(4.57273 0.01 0.00606816)
(4.59091 0.01 0.00602378)
(4.60909 0.01 0.00597994)
(4.62727 0.01 0.00593652)
(4.64546 0.01 0.00589367)
(4.66364 0.01 0.00585122)
(4.68182 0.01 0.00580962)
(4.7 0.01 0.00576868)
(4.71818 0.01 0.00572826)
(4.73636 0.01 0.00568862)
(4.75455 0.01 0.0056498)
(4.77273 0.01 0.00561182)
(4.79091 0.01 0.00557463)
(4.80909 0.01 0.00553841)
(4.82727 0.01 0.0055034)
(4.84546 0.01 0.00546923)
(4.86364 0.01 0.00543607)
(4.88182 0.01 0.00540403)
(4.9 0.01 0.00537302)
(4.91818 0.01 0.0053431)
(4.93636 0.01 0.00531408)
(4.95454 0.01 0.00528621)
(4.97273 0.01 0.00525962)
(4.99091 0.01 0.00523409)
(5.00909 0.01 0.00520939)
(5.02727 0.01 0.00518574)
(5.04546 0.01 0.00516301)
(5.06364 0.01 0.0051414)
(5.08182 0.01 0.00512114)
(5.1 0.01 0.00510189)
(5.11818 0.01 0.00508349)
(5.13636 0.01 0.00506611)
(5.15455 0.01 0.00504994)
(5.17273 0.01 0.00503449)
(5.19091 0.01 0.00501988)
(5.20909 0.01 0.00500618)
(5.22727 0.01 0.00499323)
(5.24545 0.01 0.00498108)
(5.26364 0.01 0.00496957)
(5.28182 0.01 0.00495872)
(5.3 0.01 0.00494845)
(5.31818 0.01 0.00493876)
(5.33636 0.01 0.00492952)
(5.35454 0.01 0.0049207)
(5.37273 0.01 0.00491225)
(5.39091 0.01 0.00490417)
(5.40909 0.01 0.00489632)
(5.42727 0.01 0.00488868)
(5.44545 0.01 0.00488119)
(5.46364 0.01 0.00487386)
(5.48182 0.01 0.00486662)
(5.5 0.01 0.00485947)
(5.51818 0.01 0.00485235)
(5.53636 0.01 0.00484525)
(5.55454 0.01 0.00483813)
(5.57273 0.01 0.0048311)
(5.59091 0.01 0.00482383)
(5.60909 0.01 0.00481639)
(5.62727 0.01 0.00480894)
(5.64545 0.01 0.00480129)
(5.66364 0.01 0.00479356)
(5.68182 0.01 0.00478562)
(5.7 0.01 0.00477764)
(5.71818 0.01 0.00476921)
(5.73636 0.01 0.00476053)
(5.75454 0.01 0.00475179)
(5.77273 0.01 0.0047427)
(5.79091 0.01 0.00473317)
(5.80909 0.01 0.00472309)
(5.82727 0.01 0.00471268)
(5.84546 0.01 0.0047022)
(5.86364 0.01 0.00469134)
(5.88182 0.01 0.00468014)
(5.9 0.01 0.00466857)
(5.91818 0.01 0.00465663)
(5.93636 0.01 0.00464435)
(5.95454 0.01 0.00463169)
(5.97273 0.01 0.00461871)
(5.99091 0.01 0.00460553)
(6.00909 0.01 0.00459188)
(6.02727 0.01 0.00457752)
(6.04545 0.01 0.0045628)
(6.06364 0.01 0.00454782)
(6.08182 0.01 0.00453241)
(6.1 0.01 0.0045164)
(6.11818 0.01 0.00449993)
(6.13636 0.01 0.00448293)
(6.15455 0.01 0.00446548)
(6.17273 0.01 0.00444755)
(6.19091 0.01 0.00442935)
(6.20909 0.01 0.00441048)
(6.22727 0.01 0.00439114)
(6.24545 0.01 0.00437158)
(6.26364 0.01 0.00435143)
(6.28182 0.01 0.00433094)
(6.3 0.01 0.00431033)
(6.31818 0.01 0.00428933)
(6.33636 0.01 0.0042678)
(6.35454 0.01 0.00424604)
(6.37273 0.01 0.00422415)
(6.39091 0.01 0.00420207)
(6.40909 0.01 0.00417987)
(6.42727 0.01 0.00415749)
(6.44545 0.01 0.00413501)
(6.46364 0.01 0.00411239)
(6.48182 0.01 0.00408965)
(6.5 0.01 0.0040668)
(6.51818 0.01 0.00404397)
(6.53636 0.01 0.00402073)
(6.55454 0.01 0.00399722)
(6.57273 0.01 0.0039736)
(6.59091 0.01 0.00394971)
(6.60909 0.01 0.00392578)
(6.62727 0.01 0.00390134)
(6.64546 0.01 0.00387664)
(6.66364 0.01 0.00385193)
(6.68182 0.01 0.00382693)
(6.7 0.01 0.00380148)
(6.71818 0.01 0.00377595)
(6.73636 0.01 0.00375059)
(6.75454 0.01 0.00372517)
(6.77273 0.01 0.00369968)
(6.79091 0.01 0.0036741)
(6.80909 0.01 0.00364868)
(6.82727 0.01 0.00362379)
(6.84545 0.01 0.00359903)
(6.86364 0.01 0.00357471)
(6.88182 0.01 0.00355101)
(6.9 0.01 0.0035279)
(6.91818 0.01 0.00350552)
(6.93636 0.01 0.00348373)
(6.95454 0.01 0.00346298)
(6.97273 0.01 0.00344311)
(6.99091 0.01 0.00342383)
(7.00909 0.01 0.00340553)
(7.02727 0.01 0.00338815)
(7.04545 0.01 0.00337163)
(7.06364 0.01 0.00335585)
(7.08182 0.01 0.00334101)
(7.1 0.01 0.00332723)
(7.11818 0.01 0.00331415)
(7.13636 0.01 0.00330157)
(7.15454 0.01 0.0032897)
(7.17273 0.01 0.00327866)
(7.19091 0.01 0.00326798)
(7.20909 0.01 0.00325785)
(7.22727 0.01 0.00324846)
(7.24545 0.01 0.00323924)
(7.26364 0.01 0.00323041)
(7.28182 0.01 0.0032222)
(7.3 0.01 0.00321414)
(7.31818 0.01 0.00320602)
(7.33636 0.01 0.00319811)
(7.35454 0.01 0.00319056)
(7.37273 0.01 0.00318289)
(7.39091 0.01 0.00317528)
(7.40909 0.01 0.00316801)
(7.42727 0.01 0.00316059)
(7.44545 0.01 0.00315319)
(7.46364 0.01 0.0031459)
(7.48182 0.01 0.00313865)
(7.5 0.01 0.00313149)
(7.51818 0.01 0.00312429)
(7.53636 0.01 0.00311715)
(7.55454 0.01 0.00310991)
(7.57273 0.01 0.00310259)
(7.59091 0.01 0.00309501)
(7.60909 0.01 0.00308754)
(7.62727 0.01 0.00307998)
(7.64546 0.01 0.00307204)
(7.66364 0.01 0.00306427)
(7.68182 0.01 0.00305638)
(7.7 0.01 0.00304808)
(7.71818 0.01 0.00303977)
(7.73636 0.01 0.00303162)
(7.75455 0.01 0.00302333)
(7.77273 0.01 0.00301463)
(7.79091 0.01 0.00300589)
(7.80909 0.01 0.00299732)
(7.82727 0.01 0.00298862)
(7.84545 0.01 0.00297955)
(7.86364 0.01 0.00297062)
(7.88182 0.01 0.00296158)
(7.9 0.01 0.00295214)
(7.91818 0.01 0.00294295)
(7.93636 0.01 0.00293369)
(7.95454 0.01 0.00292421)
(7.97273 0.01 0.00291461)
(7.99091 0.01 0.00290464)
(8.00909 0.01 0.00289482)
(8.02727 0.01 0.00288493)
(8.04545 0.01 0.00287476)
(8.06364 0.01 0.00286442)
(8.08182 0.01 0.00285365)
(8.1 0.01 0.00284307)
(8.11818 0.01 0.00283249)
(8.13636 0.01 0.00282126)
(8.15454 0.01 0.00280966)
(8.17273 0.01 0.00279795)
(8.19091 0.01 0.00278549)
(8.20909 0.01 0.0027726)
(8.22727 0.01 0.00275964)
(8.24545 0.01 0.00274615)
(8.26364 0.01 0.00273213)
(8.28182 0.01 0.00271761)
(8.3 0.01 0.0027026)
(8.31818 0.01 0.00268713)
(8.33636 0.01 0.00267124)
(8.35454 0.01 0.00265498)
(8.37273 0.01 0.00263842)
(8.39091 0.01 0.00262165)
(8.40909 0.01 0.00260492)
(8.42727 0.01 0.00258788)
(8.44545 0.01 0.00257018)
(8.46364 0.01 0.00255236)
(8.48182 0.01 0.0025345)
(8.5 0.01 0.00251662)
(8.51818 0.01 0.00249897)
(8.53636 0.01 0.00248115)
(8.55455 0.01 0.00246282)
(8.57273 0.01 0.00244454)
(8.59091 0.01 0.00242662)
(8.60909 0.01 0.00240863)
(8.62727 0.01 0.00239027)
(8.64545 0.01 0.00237237)
(8.66364 0.01 0.00235462)
(8.68182 0.01 0.00233667)
(8.7 0.01 0.00231936)
(8.71818 0.01 0.00230234)
(8.73636 0.01 0.00228534)
(8.75454 0.01 0.00226914)
(8.77273 0.01 0.00225343)
(8.79091 0.01 0.00223787)
(8.80909 0.01 0.00222322)
(8.82727 0.01 0.00220914)
(8.84546 0.01 0.00219524)
(8.86364 0.01 0.00218229)
(8.88182 0.01 0.00217006)
(8.9 0.01 0.00215825)
(8.91818 0.01 0.00214704)
(8.93636 0.01 0.00213615)
(8.95454 0.01 0.00212633)
(8.97273 0.01 0.00211727)
(8.99091 0.01 0.00210865)
(9.00909 0.01 0.0021011)
(9.02727 0.01 0.00209497)
(9.04546 0.01 0.00209002)
(9.06364 0.01 0.00208602)
(9.08182 0.01 0.00208377)
(9.1 0.01 0.00208332)
(9.11818 0.01 0.00208483)
(9.13636 0.01 0.00208866)
(9.15454 0.01 0.00209483)
(9.17273 0.01 0.0021026)
(9.19091 0.01 0.00211201)
(9.20909 0.01 0.00212377)
(9.22727 0.01 0.00213711)
(9.24545 0.01 0.00215226)
(9.26364 0.01 0.00216982)
(9.28182 0.01 0.00218919)
(9.3 0.01 0.00221025)
(9.31818 0.01 0.00223375)
(9.33636 0.01 0.00225954)
(9.35454 0.01 0.00228735)
(9.37273 0.01 0.002318)
(9.39091 0.01 0.00234963)
(9.40909 0.01 0.00238549)
(9.42727 0.01 0.00242001)
(9.44545 0.01 0.00246375)
(9.46364 0.01 0.00249955)
(9.48182 0.01 0.00255676)
(9.5 0.01 0.00259174)
(9.51818 0.01 0.00266347)
(9.53636 0.01 0.00269126)
(9.55455 0.01 0.00275807)
(9.57273 0.01 0.00275723)
(9.59091 0.01 0.00278386)
(9.60909 0.01 0.00271884)
(9.62727 0.01 0.00264858)
(9.64545 0.01 0.002469)
(9.66364 0.01 0.00222277)
(9.68182 0.01 0.00186824)
(9.7 0.01 0.00136401)
(9.71818 0.01 0.000686311)
(9.73636 0.01 -0.000292766)
(9.75455 0.01 -0.00172616)
(9.77273 0.01 -0.00397309)
(9.79091 0.01 -0.00777635)
(9.80909 0.01 -0.0150169)
(9.82727 0.01 -0.0196545)
(9.84545 0.01 -0.0196909)
(9.86364 0.01 -0.0197273)
(9.88182 0.01 -0.0197636)
(9.9 0.01 -0.0198)
(9.91818 0.01 -0.0198363)
(9.93636 0.01 -0.0198727)
(9.95454 0.01 -0.0199091)
(9.97273 0.01 -0.0199454)
(9.99091 0.01 -0.0199818)
)
;

boundaryField
{
    inlet
    {
        type            calculated;
        value           uniform (0 0 0);
    }
    endWall
    {
        type            calculated;
        value           uniform (0 0 0);
    }
    sideWall
    {
        type            empty;
    }
}


// ************************************************************************* //
