/*--------------------------------*- C++ -*----------------------------------*\
| =========                 |                                                 |
| \\      /  F ield         | foam-extend: Open Source CFD                    |
|  \\    /   O peration     | Version:     3.2                                |
|   \\  /    A nd           | Web:         http://www.foam-extend.org         |
|    \\/     M anipulation  | For copyright notice see file Copyright         |
\*---------------------------------------------------------------------------*/
FoamFile
{
    version     2.0;
    format      ascii;
    class       areaScalarField;
    location    "840";
    object      angBeta;
}
// * * * * * * * * * * * * * * * * * * * * * * * * * * * * * * * * * * * * * //

dimensions      [0 0 0 0 0 0 0];

internalField   nonuniform List<scalar> 
550
(
0.002
0.002
0.00199999
0.00200002
0.00199996
0.00200001
0.00199994
0.002
0.00200011
0.00199994
0.00483867
0.00435705
0.00894952
0.00362187
0.00681907
0.00447836
0.00284768
0.0039942
0.00136132
0.00572296
0.0199086
0.0207072
0.00884252
0.0050118
0.0162448
0.00912005
0.00269221
0.00615629
0.00693371
0.00569707
0.00873299
0.000695883
0.0144802
0.0106393
0.00945006
0.00777088
0.00709478
0.00590306
0.00788057
0.00978466
0.00678142
0.00725913
0.0067983
0.00243676
0.00217367
0.00288838
0.00761282
0.0015977
0.0022575
0.00279031
0.00327581
0.00309813
0.00559848
0.0114523
0.0100674
0.00960661
0.00877275
0.00705781
0.0079358
0.00643537
0.00542473
0.00535958
0.00685587
0.00540357
0.00610146
0.00489181
0.00524614
0.00470206
0.00448411
0.0033824
0.00355383
0.00363362
0.00460331
0.00533148
0.00479109
0.00448748
0.00343894
0.0045671
0.00356523
0.00346437
0.0031568
0.00394619
0.0017339
0.0018255
0.000657403
0.00138496
0.00121011
0.00180612
0.000378557
0.000279558
0.00188626
0.00443016
0.00389112
0.00413085
0.0037071
0.0042704
0.00404016
0.0047741
0.00463639
0.0051904
0.00480941
0.00517786
0.00480996
0.00524836
0.00489701
0.00525715
0.00481919
0.00513175
0.00468502
0.00503986
0.00463762
0.00504035
0.00466174
0.00508285
0.00467754
0.00508806
0.00461786
0.0049617
0.00450933
0.0048617
0.00435874
0.00467505
0.00423035
0.00462476
0.00423459
0.00463408
0.00423205
0.00459984
0.0041971
0.00454062
0.00415023
0.00447346
0.00408783
0.00439375
0.00401967
0.00429646
0.00394431
0.00418663
0.00385612
0.00406665
0.00375309
0.00392315
0.00362929
0.00377878
0.00351571
0.0036209
0.00338907
0.0034557
0.0032555
0.00328014
0.00311978
0.00310289
0.0029783
0.0029188
0.00283291
0.00272879
0.00267816
0.00253352
0.00253907
0.00234238
0.002386
0.00215688
0.00225617
0.00197999
0.00211834
0.00178856
0.00198134
0.00161709
0.00184231
0.00144116
0.00172273
0.00126889
0.00158572
0.00109547
0.00146355
0.000945403
0.00134622
0.000775721
0.00122927
0.000623463
0.00113927
0.000463262
0.00106326
0.000318705
0.00102861
0.000143655
0.00107996
0.000101924
0.00127399
0.000446729
0.0014753
0.000847604
0.00165005
0.00125916
0.001831
0.00167539
0.00200429
0.00211506
0.00216547
0.00258825
0.00231976
0.003064
0.00246116
0.00356212
0.00252433
0.00403077
0.00249217
0.0044775
0.00236749
0.00481634
0.00203484
0.00499256
0.00157576
0.00496086
0.000927521
0.00461627
0.000243564
0.00412418
0.000369031
0.00372989
0.000856243
0.00347141
0.00125638
0.00323507
0.00156592
0.00306759
0.00179257
0.00292546
0.001985
0.00287801
0.00214346
0.0028255
0.00228274
0.00282394
0.00239254
0.00279593
0.00246314
0.00275258
0.00248894
0.00272789
0.00251453
0.00265912
0.00254881
0.00262071
0.00251577
0.00258825
0.0025253
0.00254799
0.00247943
0.00252617
0.00244963
0.00247021
0.00241229
0.00241049
0.00236582
0.00234725
0.00232137
0.00225501
0.00224883
0.00219793
0.0021629
0.00210594
0.0020719
0.00201937
0.00196445
0.00188741
0.00187053
0.00177638
0.00174837
0.00166312
0.00162881
0.001563
0.00150309
0.0014206
0.00138822
0.00132898
0.00127284
0.00122651
0.00115071
0.00107782
0.00103964
0.000984568
0.000927843
0.000851166
0.00084793
0.000759399
0.000746974
0.000677875
0.000658711
0.000607167
0.000586023
0.000544164
0.00052186
0.000494764
0.000474449
0.000454953
0.000434853
0.000428134
0.000412384
0.000411493
0.000394276
0.000402108
0.00038464
0.000399254
0.000381102
0.000402794
0.000369409
0.000430418
0.000387961
0.000432092
0.000409075
0.000440837
0.000433294
0.000444671
0.00048303
0.000471199
0.000490603
0.000508859
0.000539411
0.000569004
0.000576112
0.000577105
0.000616975
0.000615699
0.000657201
0.000656112
0.000694828
0.000697209
0.00073048
0.000719436
0.000782211
0.000797282
0.000822457
0.00082415
0.000872016
0.000888525
0.000923858
0.000946331
0.000972951
0.000998492
0.0010037
0.00107196
0.00105631
0.00109429
0.00112257
0.00113167
0.00113555
0.00117409
0.001195
0.00119768
0.00120979
0.00121919
0.00122354
0.00123794
0.00123459
0.00125343
0.00124795
0.00126626
0.00124482
0.00131183
0.00127359
0.00132422
0.00130418
0.00132823
0.0013605
0.00135619
0.0013609
0.00138952
0.00141029
0.00139853
0.00139111
0.00140495
0.00139812
0.00141645
0.00138025
0.00135749
0.0013654
0.00130999
0.00129724
0.00124502
0.00121659
0.00118118
0.00110059
0.00108414
0.00103704
0.000976464
0.000935516
0.000881674
0.000853269
0.000779922
0.000736163
0.000702175
0.000681944
0.000623881
0.000589912
0.000584653
0.000529828
0.000503255
0.000510553
0.0004606
0.000442742
0.000444632
0.000448714
0.00042057
0.000409646
0.000434958
0.000402022
0.000397974
0.000418162
0.000394933
0.00040716
0.000390253
0.000397212
0.000394884
0.000391194
0.000404992
0.000399792
0.000434765
0.000386501
0.000444991
0.00042827
0.000425935
0.000443131
0.000468882
0.000446046
0.000450053
0.000461781
0.000495477
0.000465987
0.00047686
0.000480409
0.000516158
0.000466724
0.000528034
0.000509633
0.000501783
0.000516719
0.000525576
0.000530508
0.000566155
0.000514051
0.000574101
0.000545035
0.000591937
0.000592728
0.000571096
0.000592447
0.000643446
0.000632247
0.000655467
0.000715822
0.000701952
0.000723465
0.00076026
0.000781789
0.000815358
0.000836318
0.00086557
0.000882558
0.000905067
0.000916921
0.000928183
0.000911445
0.000963116
0.000983557
0.000976323
0.000988832
0.000978021
0.000964233
0.000995843
0.00102
0.00099009
0.000981665
0.000997995
0.00102144
0.000947243
0.00100466
0.000969696
0.000934826
0.000937736
0.000932044
0.000850433
0.000876928
0.000835072
0.000775985
0.000773757
0.000755169
0.000668649
0.000677051
0.000622225
0.00061073
0.000587365
0.000492582
0.000503382
0.000445112
0.000386198
0.000287233
0.000257095
0.000183099
6.49682e-05
1.58064e-05
0.000150479
0.000271137
0.000406491
0.000448661
0.000586405
0.000707718
0.00076001
0.000905986
0.00102487
0.00110663
0.00120961
0.00137524
0.00146202
0.00159676
0.0017741
0.00170528
0.0022402
0.00155791
0.00325129
0.000686017
0.00560778
0.00176053
0.00965133
0.0065942
0.0139358
0.0140361
0.0169658
0.024116
0.0163899
0.0361119
0.00905923
0.0480251
0.00740798
0.0670459
0.0405405
0.116532
0.129335
0.280725
0.470185
0.0019967
0.0020011
0.0020022
0.0019967
0.0020022
0.0019967
0.0020022
0.0020011
0.0019967
0.0020022
)
;

boundaryField
{
    inlet
    {
        type            calculated;
        value           uniform 0;
    }
    endWall
    {
        type            calculated;
        value           uniform 0;
    }
    sideWall
    {
        type            empty;
    }
}


// ************************************************************************* //
