/*--------------------------------*- C++ -*----------------------------------*\
| =========                 |                                                 |
| \\      /  F ield         | foam-extend: Open Source CFD                    |
|  \\    /   O peration     | Version:     3.2                                |
|   \\  /    A nd           | Web:         http://www.foam-extend.org         |
|    \\/     M anipulation  | For copyright notice see file Copyright         |
\*---------------------------------------------------------------------------*/
FoamFile
{
    version     2.0;
    format      ascii;
    class       areaVectorField;
    location    "840";
    object      aUf;
}
// * * * * * * * * * * * * * * * * * * * * * * * * * * * * * * * * * * * * * //

dimensions      [0 1 -1 0 0 0 0];

internalField   nonuniform List<vector> 
550
(
(0.0697957 0 7.76912e-05)
(0.0816751 0 9.15346e-05)
(0.0939769 1.63954e-34 0.000147544)
(0.106429 -1.84015e-29 0.000175637)
(0.118705 -2.28288e-30 0.000223996)
(0.130468 0 0.000233192)
(0.141459 4.05329e-29 0.000250453)
(0.151431 4.84159e-29 0.000259657)
(0.160246 0 0.000240941)
(0.167905 -1.8209e-29 0.000324791)
(0.174137 0 -0.000132758)
(0.17942 3.64841e-27 0.00105539)
(0.183431 0 -0.000638372)
(0.186444 0 0.00111287)
(0.188203 0 -0.000618755)
(0.188957 -4.48079e-27 0.00105165)
(0.189276 8.4297e-29 2.31037e-05)
(0.188681 2.5971e-27 -0.000184298)
(0.187175 -4.03633e-28 4.01761e-05)
(0.186796 0 0.00146836)
(0.184931 3.13534e-26 -0.00240023)
(0.182806 0 0.0027999)
(0.181672 2.60229e-27 -0.00074914)
(0.179373 0 -0.000304656)
(0.177663 5.75339e-30 0.00240086)
(0.176727 -3.3288e-27 0.00156209)
(0.176311 0 0.000995338)
(0.175482 0 -0.000362346)
(0.174485 4.21418e-27 0.00090444)
(0.173657 0 -0.000550951)
(0.172333 0 -0.00100106)
(0.171051 6.19052e-28 -0.000204487)
(0.16941 0 -0.00140111)
(0.167723 -7.03614e-27 -0.000394081)
(0.167054 0 0.000980574)
(0.166854 -3.40967e-27 -0.000144875)
(0.165776 0 -0.00150126)
(0.163908 -3.58787e-28 -0.000631643)
(0.162128 4.72254e-27 -0.000196141)
(0.160795 1.33223e-27 -0.000136741)
(0.15991 1.02196e-27 -0.000155153)
(0.159933 3.42903e-27 0.000857332)
(0.160475 2.90438e-28 0.000155736)
(0.160292 3.39137e-28 -0.00114603)
(0.159519 -8.82282e-29 -0.00010001)
(0.15852 0 -0.000162124)
(0.157146 0 -0.00030677)
(0.156334 -2.08092e-28 0.00088411)
(0.156273 3.88123e-29 0.000506648)
(0.15634 0 4.78462e-05)
(0.156031 1.0501e-27 -0.000656765)
(0.155392 0 0.000192879)
(0.154643 -4.03249e-28 0.000782738)
(0.15399 -1.25103e-27 0.00169402)
(0.15368 -3.42412e-28 0.0015985)
(0.153653 0 0.00153285)
(0.153946 0 0.00131461)
(0.154346 -4.78562e-28 0.00103886)
(0.154776 2.81575e-28 0.00108038)
(0.155128 0 0.00090787)
(0.155275 -1.77627e-28 0.000786981)
(0.155229 2.26661e-29 0.000762491)
(0.155126 0 0.000977576)
(0.15496 -2.05341e-28 0.000880179)
(0.15481 -3.99223e-29 0.000997538)
(0.154701 0 0.000864195)
(0.154656 0 0.000878502)
(0.154697 0 0.000762465)
(0.154787 0 0.000705798)
(0.154878 -1.11586e-28 0.000549692)
(0.154928 0 0.000541193)
(0.15494 3.65925e-29 0.000530807)
(0.15492 1.11665e-28 0.000648434)
(0.154926 -5.77421e-29 0.000744945)
(0.154938 8.19995e-29 0.000715941)
(0.154966 0 0.000708775)
(0.154971 -3.54458e-32 0.000572996)
(0.155003 -1.63567e-28 0.000685058)
(0.155063 1.56602e-28 0.000563889)
(0.155104 2.35626e-29 0.000542043)
(0.155127 0 0.000473943)
(0.155175 -1.11013e-28 0.000563678)
(0.155197 0 0.000307208)
(0.155173 0 0.000320556)
(0.155096 -4.05067e-29 0.000166567)
(0.155002 5.93208e-30 0.000218298)
(0.15491 0 0.00018998)
(0.154857 0 0.000301364)
(0.154755 0 5.23709e-05)
(0.154577 0 6.12613e-05)
(0.154383 -1.97244e-28 0.000226312)
(0.154312 0 0.000573183)
(0.154287 0 0.000562034)
(0.154289 0 0.000611043)
(0.154296 0 0.000562909)
(0.154313 1.03575e-28 0.000648843)
(0.154333 0 0.000610345)
(0.154373 0 0.00070714)
(0.154427 -9.52981e-30 0.00069525)
(0.154503 -7.39032e-29 0.000760857)
(0.154585 0 0.000723308)
(0.154674 5.63645e-29 0.000766018)
(0.154754 0 0.000717771)
(0.154835 2.90757e-32 0.000771935)
(0.154905 -4.50298e-29 0.000728899)
(0.154972 -5.07017e-29 0.00077704)
(0.155027 0 0.00072224)
(0.155077 0 0.000774088)
(0.155118 1.62604e-28 0.000713305)
(0.15516 6.26425e-29 0.000769785)
(0.155198 0 0.000711175)
(0.155245 0 0.000764534)
(0.15529 5.52618e-29 0.000714692)
(0.155345 0 0.00076689)
(0.155399 5.76026e-29 0.000714299)
(0.155459 0 0.000767626)
(0.155516 0 0.000705923)
(0.155574 1.12387e-28 0.000751)
(0.155625 0 0.000690438)
(0.155677 -5.54404e-29 0.000736314)
(0.155722 0 0.000670989)
(0.155765 -4.49529e-29 0.000712921)
(0.1558 6.5699e-29 0.000653978)
(0.155835 5.66971e-29 0.000705834)
(0.155865 0 0.000653165)
(0.155898 0 0.000706224)
(0.155929 5.87417e-29 0.000653502)
(0.155963 5.39923e-29 0.000702866)
(0.155995 0 0.000650236)
(0.15603 9.98143e-29 0.000696037)
(0.156062 0 0.000645019)
(0.156097 4.69197e-29 0.000687216)
(0.156132 0 0.000636339)
(0.156169 0 0.000675572)
(0.156205 0 0.000625652)
(0.156244 3.9809e-29 0.000660896)
(0.156281 -5.4368e-29 0.000613528)
(0.15632 -2.12337e-32 0.000643899)
(0.156357 5.14503e-29 0.000599641)
(0.156392 0 0.000625686)
(0.156425 4.91037e-29 0.000584385)
(0.156455 -2.17261e-29 0.000605814)
(0.156482 0 0.000569218)
(0.156505 -2.38035e-29 0.000586267)
(0.156528 0 0.000552729)
(0.156548 3.24674e-29 0.000564273)
(0.156569 -4.24392e-29 0.000533938)
(0.156587 8.20237e-30 0.000539896)
(0.156608 0 0.000513274)
(0.156627 -3.55956e-30 0.00051515)
(0.156647 0 0.000491272)
(0.156665 -6.04697e-30 0.000487206)
(0.156683 0 0.000469666)
(0.156699 2.92905e-29 0.000458714)
(0.156715 0 0.000447036)
(0.156728 0 0.000431926)
(0.156741 -1.43365e-33 0.000423113)
(0.15675 1.1606e-29 0.000402127)
(0.156758 0 0.000401495)
(0.156763 1.48187e-29 0.00037428)
(0.156769 0 0.000376756)
(0.15677 0 0.000346055)
(0.156774 6.71026e-31 0.000355681)
(0.156773 0 0.000318314)
(0.156774 -2.81066e-30 0.000334066)
(0.15677 0 0.000289033)
(0.156769 7.72261e-30 0.000312698)
(0.156762 3.01375e-29 0.000262384)
(0.156758 1.06869e-29 0.000291249)
(0.156748 -1.68728e-29 0.00023585)
(0.156741 0 0.000272308)
(0.156729 0 0.000210934)
(0.156721 0 0.000251759)
(0.156707 0 0.000185753)
(0.156698 1.07672e-29 0.000232627)
(0.156685 2.22606e-29 0.000162985)
(0.156677 -1.22908e-29 0.000213349)
(0.156666 -2.49495e-29 0.000137366)
(0.156659 1.47347e-29 0.000193224)
(0.156649 -1.32986e-29 0.000113073)
(0.156643 -1.8083e-29 0.000176432)
(0.156632 0 8.82589e-05)
(0.156626 0 0.000162489)
(0.156613 -1.64816e-29 6.53391e-05)
(0.156608 0 0.000155379)
(0.156591 0 3.96497e-05)
(0.156588 -3.70596e-29 0.000159575)
(0.156565 0 7.08746e-06)
(0.156564 5.72678e-29 0.000179441)
(0.156542 0 -3.60927e-05)
(0.156543 0 0.000200985)
(0.156523 0 -8.69802e-05)
(0.156526 0 0.000219726)
(0.156507 1.2651e-28 -0.000140527)
(0.156513 -2.6094e-28 0.000237919)
(0.156496 0 -0.000195669)
(0.156503 0 0.000254697)
(0.156487 0 -0.000253782)
(0.156495 0 0.000269817)
(0.15648 0 -0.000316283)
(0.156487 0 0.00028353)
(0.15647 0 -0.000379526)
(0.156476 0 0.000294808)
(0.156459 0 -0.000445552)
(0.156459 5.11324e-28 0.000295959)
(0.156443 0 -0.000508914)
(0.156436 0 0.000284847)
(0.156418 0 -0.000569544)
(0.156401 0 0.000260789)
(0.156384 0 -0.000617524)
(0.156354 8.54919e-28 0.000211327)
(0.156337 2.01513e-31 -0.000646936)
(0.156294 0 0.000145255)
(0.156277 2.64407e-31 -0.000650106)
(0.15622 0 5.81712e-05)
(0.156202 -9.39056e-28 -0.000615679)
(0.156138 0 -3.16744e-05)
(0.156117 -7.41681e-28 -0.000562825)
(0.156057 1.56509e-28 -0.000111077)
(0.156034 0 -0.000519732)
(0.155979 0 -0.000174692)
(0.155954 0 -0.00049144)
(0.155902 -1.87837e-28 -0.000226815)
(0.155876 -3.4047e-28 -0.000466295)
(0.155829 -1.44205e-28 -0.000267212)
(0.155801 0 -0.000448406)
(0.155756 0 -0.000296475)
(0.155728 0 -0.000433457)
(0.155686 3.27767e-33 -0.00031847)
(0.155655 0 -0.000428767)
(0.155614 0 -0.000337173)
(0.155582 0 -0.000424485)
(0.155544 5.53344e-34 -0.000355114)
(0.15551 4.53058e-29 -0.000426799)
(0.155476 2.49278e-29 -0.000368456)
(0.155441 -2.8739e-29 -0.00042146)
(0.155408 0 -0.000381764)
(0.155373 0 -0.000415989)
(0.15534 0 -0.000386595)
(0.155307 0 -0.000412774)
(0.155274 8.44487e-30 -0.000389819)
(0.155242 -2.23204e-29 -0.000404351)
(0.15521 0 -0.000393529)
(0.155178 0 -0.000400425)
(0.155148 0 -0.000389298)
(0.155118 -6.94248e-30 -0.000395495)
(0.155088 0 -0.000389629)
(0.155059 -4.00078e-30 -0.000390732)
(0.155031 -1.08095e-30 -0.000383285)
(0.155004 0 -0.000386884)
(0.154977 0 -0.000379012)
(0.154951 0 -0.000379861)
(0.154926 -1.30325e-30 -0.000373363)
(0.154902 -1.59563e-30 -0.00037171)
(0.154878 0 -0.000365918)
(0.154855 0 -0.000362399)
(0.154833 0 -0.00035819)
(0.154813 0 -0.000349651)
(0.154794 -7.19661e-31 -0.000347347)
(0.154776 0 -0.000340716)
(0.154759 2.87329e-30 -0.000335238)
(0.154744 5.78261e-30 -0.000327369)
(0.15473 0 -0.000321513)
(0.154717 2.71641e-30 -0.000314054)
(0.154706 -7.28877e-30 -0.000305735)
(0.154697 0 -0.000295241)
(0.154689 -2.17928e-34 -0.000290599)
(0.154682 -7.05015e-30 -0.000279063)
(0.154677 0 -0.000273128)
(0.154673 6.51983e-30 -0.000261683)
(0.15467 4.41424e-30 -0.000255781)
(0.154668 1.0341e-29 -0.000246052)
(0.154667 -5.36804e-30 -0.000237387)
(0.154667 0 -0.000225253)
(0.154668 -2.08837e-30 -0.000219572)
(0.154669 2.71499e-30 -0.000210428)
(0.154671 -5.54493e-30 -0.000201875)
(0.154674 -2.51834e-30 -0.000194918)
(0.154677 0 -0.000184159)
(0.154681 -6.94946e-30 -0.000173121)
(0.154685 0 -0.00016622)
(0.15469 0 -0.000157837)
(0.154695 -3.25472e-30 -0.000149184)
(0.154701 -7.24695e-30 -0.0001378)
(0.154708 -1.89353e-34 -0.000135216)
(0.154715 -3.54218e-30 -0.000123596)
(0.154722 -1.6754e-34 -0.000119752)
(0.15473 -1.42324e-30 -0.000110834)
(0.154738 0 -0.000106483)
(0.154747 -1.12207e-34 -9.92163e-05)
(0.154755 9.26952e-31 -9.51203e-05)
(0.154764 0 -8.90757e-05)
(0.154772 0 -8.50922e-05)
(0.154781 -9.50559e-31 -8.10579e-05)
(0.154789 0 -7.79436e-05)
(0.154797 -1.57722e-30 -7.49815e-05)
(0.154804 4.31446e-36 -7.19604e-05)
(0.154811 0 -7.03444e-05)
(0.154817 5.95909e-31 -6.79116e-05)
(0.154822 0 -6.71187e-05)
(0.154826 -1.18143e-30 -6.46582e-05)
(0.15483 -1.84408e-31 -6.49635e-05)
(0.154832 0 -6.27861e-05)
(0.154834 -5.43088e-35 -6.39258e-05)
(0.154836 4.78118e-31 -6.16733e-05)
(0.154836 0 -6.38094e-05)
(0.154837 -8.15088e-31 -5.97817e-05)
(0.154837 0 -6.68195e-05)
(0.154837 -1.22506e-34 -6.23718e-05)
(0.154836 0 -6.74604e-05)
(0.154835 4.21719e-31 -6.49483e-05)
(0.154834 -4.96431e-31 -6.85828e-05)
(0.154832 1.32627e-31 -6.79798e-05)
(0.15483 0 -6.90615e-05)
(0.154827 -7.44143e-31 -7.36333e-05)
(0.154824 0 -7.28062e-05)
(0.15482 0 -7.54061e-05)
(0.154816 4.20708e-31 -7.75375e-05)
(0.154811 -5.74606e-31 -8.15761e-05)
(0.154805 1.4109e-30 -8.57306e-05)
(0.154798 -3.3541e-31 -8.7283e-05)
(0.154791 0 -8.77336e-05)
(0.154783 0 -9.23938e-05)
(0.154774 -7.31032e-35 -9.28226e-05)
(0.154765 0 -9.80907e-05)
(0.154755 3.49828e-31 -9.89597e-05)
(0.154745 8.56961e-31 -0.000103946)
(0.154733 -4.71542e-31 -0.000105326)
(0.15472 0 -0.000109762)
(0.154707 -6.01602e-31 -0.000109007)
(0.154693 -2.66448e-30 -0.000116284)
(0.154677 -1.71357e-30 -0.000119357)
(0.15466 0 -0.000123074)
(0.154643 1.04432e-30 -0.000124077)
(0.154625 0 -0.000130124)
(0.154606 1.70269e-30 -0.000133237)
(0.154587 0 -0.00013806)
(0.154566 -1.84382e-30 -0.000141529)
(0.154545 2.00586e-30 -0.000145631)
(0.154523 0 -0.000149462)
(0.154501 0 -0.000151057)
(0.154477 -3.32325e-30 -0.000159281)
(0.154453 0 -0.000158976)
(0.154428 0 -0.00016359)
(0.154402 2.19941e-30 -0.000167782)
(0.154375 0 -0.000169538)
(0.154348 -2.3496e-30 -0.000170546)
(0.154321 2.37263e-30 -0.000175292)
(0.154293 1.86517e-30 -0.000178598)
(0.154265 0 -0.000179675)
(0.154236 1.40428e-30 -0.000181586)
(0.154207 0 -0.000183002)
(0.154178 1.16584e-30 -0.00018399)
(0.154148 0 -0.000185711)
(0.154118 0 -0.000185748)
(0.154089 2.96806e-30 -0.000187837)
(0.154059 1.24935e-35 -0.000188082)
(0.154029 0 -0.000190237)
(0.154 0 -0.000188493)
(0.15397 -3.01799e-30 -0.000195879)
(0.15394 0 -0.00019279)
(0.15391 0 -0.000198398)
(0.15388 0 -0.000197087)
(0.15385 -1.78353e-30 -0.000199843)
(0.153819 -2.17775e-30 -0.000203919)
(0.153787 0 -0.000204157)
(0.153756 1.03927e-30 -0.000204977)
(0.153725 -1.94875e-30 -0.000208472)
(0.153693 0 -0.000211379)
(0.153661 -5.901e-31 -0.000210423)
(0.153629 -1.01817e-35 -0.000209647)
(0.153598 0 -0.000210773)
(0.153567 1.57421e-30 -0.000210068)
(0.153535 1.51885e-30 -0.000211833)
(0.153505 4.21059e-31 -0.000207746)
(0.153475 -6.22706e-32 -0.000204559)
(0.153446 -9.43796e-35 -0.000204633)
(0.153418 2.47141e-30 -0.000198132)
(0.153392 4.32939e-33 -0.000195711)
(0.153366 0 -0.000188959)
(0.153343 0 -0.000184512)
(0.153321 1.07438e-30 -0.000179418)
(0.153301 -2.74566e-30 -0.000169234)
(0.153283 0 -0.000165702)
(0.153266 1.83147e-30 -0.000159159)
(0.153251 2.33243e-30 -0.000151108)
(0.153237 7.18494e-35 -0.00014471)
(0.153225 0 -0.000137143)
(0.153214 1.58051e-30 -0.000132198)
(0.153204 0 -0.000122819)
(0.153197 -4.80649e-30 -0.000116355)
(0.153191 0 -0.000110656)
(0.153186 0 -0.000107599)
(0.153182 1.3019e-30 -9.88551e-05)
(0.15318 9.02193e-31 -9.32596e-05)
(0.153179 0 -9.21995e-05)
(0.15318 0 -8.43675e-05)
(0.153183 -8.78087e-31 -7.97237e-05)
(0.153187 1.85692e-31 -8.02085e-05)
(0.153192 -9.91346e-31 -7.40268e-05)
(0.1532 -6.03535e-31 -7.08282e-05)
(0.153209 1.48787e-31 -7.0077e-05)
(0.153218 -5.70052e-32 -7.02241e-05)
(0.153229 5.3249e-31 -6.67949e-05)
(0.153241 0 -6.46851e-05)
(0.153253 2.6838e-31 -6.76077e-05)
(0.153266 -6.25737e-31 -6.44117e-05)
(0.15328 -2.57319e-31 -6.36867e-05)
(0.153294 0 -6.59822e-05)
(0.153307 0 -6.3647e-05)
(0.153322 0 -6.49689e-05)
(0.153336 0 -6.32323e-05)
(0.15335 0 -6.39625e-05)
(0.153364 -1.90181e-31 -6.37692e-05)
(0.153379 1.74503e-31 -6.36422e-05)
(0.153393 0 -6.51113e-05)
(0.153408 0 -6.48184e-05)
(0.153422 -4.20163e-31 -6.86149e-05)
(0.153437 0 -6.37578e-05)
(0.153453 1.64063e-30 -6.99838e-05)
(0.153468 0 -6.90193e-05)
(0.153485 2.42463e-31 -6.87657e-05)
(0.153502 -2.12791e-31 -7.08396e-05)
(0.153518 0 -7.38308e-05)
(0.153536 0 -7.18709e-05)
(0.153554 0 -7.2008e-05)
(0.153572 -6.2942e-32 -7.34739e-05)
(0.153591 0 -7.73636e-05)
(0.153609 0 -7.50245e-05)
(0.153628 0 -7.59633e-05)
(0.153647 0 -7.64827e-05)
(0.153665 -3.74899e-31 -8.06127e-05)
(0.153683 1.08186e-30 -7.55068e-05)
(0.153701 0 -8.23812e-05)
(0.153718 0 -8.07272e-05)
(0.153736 0 -7.9545e-05)
(0.153753 0 -8.10547e-05)
(0.15377 1.75141e-32 -8.21815e-05)
(0.153788 -4.34067e-32 -8.26715e-05)
(0.153804 -1.19491e-30 -8.71265e-05)
(0.153822 -1.09439e-30 -8.12991e-05)
(0.15384 1.03425e-30 -8.85498e-05)
(0.153858 -5.15234e-31 -8.48637e-05)
(0.153878 9.00694e-31 -9.04146e-05)
(0.153896 0 -9.11487e-05)
(0.153917 0 -8.92135e-05)
(0.153938 3.39952e-31 -9.16134e-05)
(0.153959 9.73237e-31 -9.77148e-05)
(0.153981 0 -9.78317e-05)
(0.154002 0 -0.000100763)
(0.154023 0 -0.000108472)
(0.154042 8.1649e-32 -0.000108368)
(0.154061 -1.10796e-30 -0.000111785)
(0.154079 0 -0.000116515)
(0.154095 -9.76404e-31 -0.000120265)
(0.15411 0 -0.000125268)
(0.154121 0 -0.000128992)
(0.154131 0 -0.000133279)
(0.154137 -7.57612e-31 -0.000136247)
(0.15414 0 -0.000139245)
(0.154141 6.31946e-31 -0.000141291)
(0.154138 0 -0.000142957)
(0.154134 0 -0.000140933)
(0.154128 0 -0.000146986)
(0.154119 0 -0.000149928)
(0.154108 0 -0.000149461)
(0.154095 7.52066e-31 -0.000150904)
(0.15408 0 -0.000149728)
(0.154064 0 -0.00014778)
(0.154047 0 -0.000150809)
(0.154028 -1.44203e-30 -0.000153462)
(0.154009 -3.88222e-31 -0.000150355)
(0.15399 -5.56836e-32 -0.00014855)
(0.15397 0 -0.000149993)
(0.153949 0 -0.000152103)
(0.15393 0 -0.000143683)
(0.153911 -2.60473e-30 -0.000148617)
(0.153891 0 -0.00014458)
(0.153874 1.25822e-30 -0.000139676)
(0.153858 0 -0.000139221)
(0.153842 -3.52556e-31 -0.00013785)
(0.153829 0 -0.000128403)
(0.153818 0 -0.000129939)
(0.153807 -1.00965e-30 -0.000125055)
(0.153799 0 -0.000117732)
(0.153791 0 -0.000116598)
(0.153782 0 -0.000114365)
(0.153774 0 -0.00010356)
(0.153766 -1.50987e-31 -0.000103463)
(0.153758 -1.24975e-30 -9.61154e-05)
(0.153749 0 -9.35886e-05)
(0.153738 -1.02371e-34 -9.05132e-05)
(0.153728 0 -7.87175e-05)
(0.153718 1.2047e-31 -7.81513e-05)
(0.153705 0 -7.01364e-05)
(0.153691 0 -6.25794e-05)
(0.153679 2.02193e-30 -4.86529e-05)
(0.153666 0 -4.14443e-05)
(0.153652 7.42324e-31 -3.14088e-05)
(0.15364 -3.56616e-31 -1.56272e-05)
(0.153629 0 -3.61632e-06)
(0.153621 0 1.52518e-05)
(0.153616 0 3.34149e-05)
(0.153616 -2.11306e-34 5.36471e-05)
(0.153617 0 6.22809e-05)
(0.153621 -2.95609e-30 8.13416e-05)
(0.153628 -3.31089e-30 9.97206e-05)
(0.153637 4.32041e-30 0.000108713)
(0.153648 0 0.000128807)
(0.153664 7.09032e-30 0.000146305)
(0.15368 0 0.000160275)
(0.153699 0 0.0001752)
(0.15372 0 0.000199116)
(0.153745 -3.51433e-29 0.000213139)
(0.153767 8.8544e-30 0.000229475)
(0.153806 2.52989e-29 0.00026291)
(0.15382 -1.1568e-29 0.000249173)
(0.153879 0 0.000328872)
(0.153876 7.15207e-29 0.000234717)
(0.153973 -6.4643e-28 0.000468734)
(0.153935 0 0.000126015)
(0.154095 8.78962e-28 0.000770428)
(0.154016 6.42084e-28 -0.00017339)
(0.154251 7.81912e-27 0.00126411)
(0.154154 0 -0.000757733)
(0.154428 -1.36944e-26 0.00176861)
(0.154315 0 -0.00167574)
(0.154553 -2.03549e-26 0.00207228)
(0.154411 0 -0.00295501)
(0.154502 0 0.00185701)
(0.1543 0 -0.00454227)
(0.154117 0 0.000717185)
(0.153789 -7.53552e-26 -0.00627509)
(0.153307 0 -0.0016843)
(0.152684 0 -0.00904292)
(0.151635 -3.41896e-26 -0.0061537)
(0.14984 3.99646e-25 -0.0154874)
(0.146283 0 -0.0158329)
(0.138062 -6.67287e-25 -0.0297317)
(0.115794 -2.91116e-24 -0.0192645)
(-0.0808194 0 0.00635005)
(0.0921705 6.53621e-28 -0.00833191)
(0.077631 0 0.0031934)
(0.0752009 -6.40171e-28 0.000343261)
(0.061928 0 0.0245249)
(0.0625994 -2.5569e-27 0.00320253)
(-0.0530309 -1.29522e-27 0.00715736)
(-0.055686 0 0.00489137)
(-0.0685693 0 0.0021237)
(-0.0865676 3.35356e-27 -0.0144957)
)
;

boundaryField
{
    inlet
    {
        type            calculated;
        value           uniform (0 0 0);
    }
    endWall
    {
        type            calculated;
        value           uniform (0 0 0);
    }
    sideWall
    {
        type            empty;
    }
}


// ************************************************************************* //
