/*--------------------------------*- C++ -*----------------------------------*\
| =========                 |                                                 |
| \\      /  F ield         | foam-extend: Open Source CFD                    |
|  \\    /   O peration     | Version:     3.2                                |
|   \\  /    A nd           | Web:         http://www.foam-extend.org         |
|    \\/     M anipulation  | For copyright notice see file Copyright         |
\*---------------------------------------------------------------------------*/
FoamFile
{
    version     2.0;
    format      ascii;
    class       volScalarField;
    location    "840";
    object      C1;
}
// * * * * * * * * * * * * * * * * * * * * * * * * * * * * * * * * * * * * * //

dimensions      [1 -3 0 0 0 0 0];

internalField   nonuniform List<scalar> 
33000
(
0.0247
0.0247
0.0247
0.0247
0.0247
0.0247
0.0247
0.0247
0.0247
0.0246992
0.0246985
0.0247389
0.0247663
0.0248075
0.0248914
0.0249574
0.025008
0.0250691
0.025107
0.025129
0.0251495
0.0251781
0.0252056
0.0251863
0.0251809
0.0251958
0.0251933
0.0251692
0.0251974
0.0252053
0.0251621
0.0252217
0.0252623
0.0251197
0.0250675
0.0251548
0.0252447
0.0252312
0.0251417
0.0250648
0.0249878
0.0249619
0.0250619
0.0251728
0.0252244
0.0252296
0.0252036
0.0250794
0.0250333
0.0250595
0.0251047
0.0251225
0.025124
0.0251063
0.0250792
0.025049
0.0250236
0.0250073
0.0249971
0.0249963
0.0250007
0.0250061
0.0250079
0.0250066
0.0250008
0.0249923
0.0249815
0.02497
0.0249594
0.0249502
0.024943
0.0249372
0.0249326
0.0249286
0.024926
0.0249238
0.0249225
0.0249204
0.0249193
0.0249178
0.0249163
0.024914
0.0249125
0.0249101
0.0249079
0.0249047
0.0249014
0.0248976
0.024895
0.0248921
0.0248885
0.0248837
0.0248796
0.0248754
0.0248716
0.0248673
0.0248634
0.0248589
0.0248548
0.0248503
0.0248463
0.0248421
0.0248382
0.0248341
0.0248303
0.0248261
0.0248222
0.0248179
0.0248138
0.0248092
0.0248049
0.0248002
0.0247958
0.024791
0.0247865
0.0247817
0.0247772
0.0247724
0.0247678
0.0247629
0.0247582
0.0247531
0.0247482
0.0247429
0.0247378
0.0247323
0.0247271
0.0247215
0.0247161
0.0247104
0.024705
0.0246992
0.0246937
0.0246879
0.0246824
0.0246766
0.0246711
0.0246653
0.0246598
0.024654
0.0246484
0.0246425
0.0246369
0.0246309
0.0246251
0.0246191
0.0246131
0.0246069
0.0246008
0.0245946
0.0245884
0.024582
0.0245757
0.0245694
0.0245629
0.0245565
0.0245499
0.0245433
0.0245366
0.0245299
0.0245231
0.0245163
0.0245092
0.0245023
0.0244951
0.0244881
0.0244807
0.0244736
0.0244661
0.0244588
0.0244512
0.0244439
0.0244361
0.0244287
0.0244208
0.0244133
0.0244054
0.0243978
0.0243898
0.0243822
0.0243742
0.0243666
0.0243584
0.0243509
0.0243426
0.024335
0.0243266
0.024319
0.0243102
0.0243025
0.0242935
0.0242856
0.0242764
0.0242685
0.0242592
0.0242512
0.0242418
0.0242339
0.0242244
0.0242165
0.0242069
0.024199
0.0241895
0.0241816
0.0241721
0.0241642
0.0241548
0.0241468
0.0241376
0.0241296
0.0241206
0.0241125
0.0241039
0.0240957
0.0240875
0.0240791
0.0240711
0.0240626
0.0240545
0.024046
0.0240377
0.024029
0.0240206
0.024012
0.0240035
0.0239949
0.0239864
0.0239777
0.0239692
0.0239606
0.0239521
0.0239435
0.023935
0.0239265
0.023918
0.0239095
0.023901
0.0238926
0.0238842
0.0238757
0.0238674
0.023859
0.0238507
0.0238423
0.023834
0.0238257
0.0238175
0.0238092
0.023801
0.0237928
0.0237846
0.0237765
0.0237683
0.0237602
0.0237522
0.0237441
0.0237361
0.0237281
0.0237201
0.0237122
0.0237044
0.0236966
0.0236888
0.0236811
0.0236734
0.0236658
0.0236583
0.0236508
0.0236433
0.023636
0.0236287
0.0236214
0.0236143
0.0236072
0.0236001
0.0235931
0.0235862
0.0235794
0.0235726
0.0235659
0.0235592
0.0235527
0.0235462
0.0235397
0.0235333
0.023527
0.0235208
0.0235147
0.0235086
0.0235026
0.0234966
0.0234907
0.0234849
0.0234792
0.0234735
0.0234679
0.0234624
0.0234569
0.0234515
0.0234461
0.0234408
0.0234355
0.0234302
0.023425
0.0234198
0.0234146
0.0234094
0.0234043
0.0233992
0.023394
0.0233889
0.0233838
0.0233787
0.0233736
0.0233685
0.0233633
0.0233581
0.0233529
0.0233477
0.0233424
0.0233371
0.0233318
0.0233263
0.0233209
0.0233154
0.0233098
0.0233041
0.0232984
0.0232927
0.0232868
0.0232809
0.023275
0.0232689
0.0232628
0.0232567
0.0232505
0.0232443
0.0232381
0.0232318
0.0232254
0.0232191
0.0232127
0.0232064
0.0232
0.0231936
0.0231872
0.0231808
0.0231744
0.023168
0.0231616
0.0231551
0.0231487
0.0231423
0.0231359
0.0231294
0.023123
0.0231165
0.0231101
0.0231036
0.0230971
0.0230907
0.0230842
0.0230777
0.0230712
0.0230647
0.0230582
0.0230518
0.0230453
0.0230388
0.0230324
0.023026
0.0230196
0.0230132
0.0230068
0.0230005
0.0229942
0.0229879
0.0229816
0.0229754
0.0229692
0.0229631
0.022957
0.0229509
0.0229448
0.0229388
0.0229328
0.0229268
0.0229208
0.0229149
0.0229089
0.022903
0.0228971
0.0228912
0.0228853
0.0228794
0.0228736
0.0228677
0.0228619
0.0228561
0.0228504
0.0228447
0.022839
0.0228334
0.0228278
0.0228223
0.0228168
0.0228113
0.0228059
0.0228006
0.0227953
0.02279
0.0227848
0.0227796
0.0227744
0.0227693
0.0227642
0.0227591
0.0227541
0.0227491
0.0227441
0.0227391
0.0227342
0.0227293
0.0227245
0.0227197
0.0227149
0.0227101
0.0227054
0.0227007
0.0226961
0.0226915
0.0226869
0.0226824
0.0226779
0.0226734
0.0226689
0.0226645
0.0226601
0.0226557
0.0226514
0.0226471
0.0226428
0.0226386
0.0226344
0.0226302
0.0226261
0.0226221
0.022618
0.0226141
0.0226101
0.0226062
0.0226023
0.0225985
0.0225947
0.0225909
0.0225872
0.0225835
0.0225797
0.022576
0.0225723
0.0225687
0.022565
0.0225613
0.0225575
0.0225538
0.0225501
0.0225463
0.0225426
0.0225388
0.022535
0.0225312
0.0225275
0.0225237
0.0225199
0.0225162
0.0225124
0.0225087
0.022505
0.0225014
0.0224978
0.0224943
0.0224908
0.0224874
0.022484
0.0224807
0.0224774
0.0224741
0.022471
0.0224678
0.0224647
0.0224616
0.0224585
0.0224554
0.0224523
0.0224493
0.0224462
0.0224431
0.0224401
0.022437
0.0224339
0.0224308
0.0224275
0.0224242
0.0224208
0.0224174
0.0224139
0.0224103
0.0224068
0.0224032
0.0223997
0.0223961
0.0223925
0.0223888
0.0223852
0.0223815
0.0223778
0.0223742
0.0223704
0.022367
0.0223626
0.02236
0.0223541
0.0223526
0.0223441
0.0223428
0.0223321
0.0223311
0.0223193
0.0223183
0.0223075
0.0223058
0.0223001
0.0222964
0.0222915
0.022285
0.0222736
0.022264
0.0222453
0.0222386
0.02224
0.0222431
0.0222474
0.0222479
0.0222481
0.0222479
0.0222452
0.0222367
0.0222333
0.0222326
0.0222324
0.0247
0.0247
0.0247
0.0247
0.0247
0.0247
0.0247
0.0247
0.0246999
0.0246989
0.0246986
0.0247065
0.0247111
0.0247045
0.0247163
0.0247358
0.0247455
0.0247759
0.024791
0.0247814
0.0247859
0.0248201
0.0248532
0.0248452
0.0248362
0.0248644
0.0248779
0.024863
0.0248817
0.024908
0.0248781
0.0249069
0.0250122
0.0249668
0.0248277
0.0248218
0.0249176
0.0249932
0.0250162
0.0250135
0.0249724
0.0248791
0.0248358
0.0248812
0.0249302
0.0249789
0.0250341
0.0250102
0.0249357
0.0249142
0.0249273
0.0249363
0.0249452
0.0249514
0.0249521
0.0249479
0.0249408
0.0249328
0.0249246
0.0249176
0.0249148
0.0249154
0.0249177
0.02492
0.0249211
0.0249201
0.0249173
0.0249128
0.0249075
0.024902
0.0248969
0.0248925
0.0248889
0.0248861
0.0248838
0.024882
0.0248803
0.0248786
0.0248769
0.0248753
0.0248735
0.0248717
0.0248699
0.0248679
0.0248657
0.0248632
0.0248604
0.0248575
0.0248544
0.0248513
0.024848
0.0248444
0.0248408
0.0248372
0.0248336
0.0248298
0.024826
0.024822
0.0248178
0.0248135
0.0248092
0.0248047
0.0248003
0.0247958
0.0247913
0.0247868
0.0247823
0.0247778
0.0247732
0.0247685
0.0247637
0.0247588
0.0247538
0.0247487
0.0247435
0.0247382
0.0247329
0.0247275
0.024722
0.0247165
0.0247109
0.0247052
0.0246995
0.0246937
0.0246878
0.0246818
0.0246758
0.0246697
0.0246636
0.0246574
0.0246512
0.0246449
0.0246386
0.0246322
0.0246258
0.0246194
0.024613
0.0246065
0.0246
0.0245935
0.024587
0.0245805
0.024574
0.0245674
0.0245608
0.0245542
0.0245475
0.0245408
0.0245339
0.0245271
0.0245202
0.0245132
0.0245062
0.0244991
0.024492
0.0244848
0.0244776
0.0244703
0.024463
0.0244556
0.0244482
0.0244407
0.0244331
0.0244255
0.0244179
0.0244102
0.0244025
0.0243947
0.0243869
0.024379
0.0243712
0.0243633
0.0243553
0.0243474
0.0243394
0.0243313
0.0243232
0.0243151
0.024307
0.0242988
0.0242906
0.0242824
0.0242742
0.024266
0.0242577
0.0242495
0.0242412
0.0242329
0.0242246
0.0242162
0.0242079
0.0241994
0.024191
0.0241824
0.024174
0.0241653
0.0241569
0.0241481
0.0241397
0.0241309
0.0241224
0.0241136
0.0241051
0.0240962
0.0240878
0.0240789
0.0240705
0.0240615
0.0240531
0.0240442
0.0240358
0.0240269
0.0240185
0.0240097
0.0240013
0.0239925
0.0239842
0.0239755
0.0239671
0.0239585
0.0239501
0.0239415
0.0239331
0.0239245
0.0239161
0.0239076
0.0238992
0.0238907
0.0238823
0.0238739
0.0238656
0.0238572
0.0238489
0.0238405
0.0238323
0.023824
0.0238158
0.0238077
0.0237995
0.0237914
0.0237833
0.0237753
0.0237673
0.0237593
0.0237514
0.0237435
0.0237357
0.0237279
0.0237201
0.0237124
0.0237047
0.023697
0.0236894
0.0236819
0.0236744
0.023667
0.0236596
0.0236522
0.0236449
0.0236377
0.0236305
0.0236233
0.0236163
0.0236092
0.0236023
0.0235954
0.0235885
0.0235817
0.023575
0.0235683
0.0235617
0.0235552
0.0235487
0.0235423
0.0235359
0.0235297
0.0235234
0.0235173
0.0235112
0.0235052
0.0234993
0.0234934
0.0234876
0.0234818
0.0234762
0.0234705
0.023465
0.0234595
0.0234541
0.0234487
0.0234434
0.0234382
0.023433
0.0234279
0.0234228
0.0234178
0.0234128
0.0234078
0.0234029
0.0233979
0.023393
0.0233881
0.0233832
0.0233783
0.0233733
0.0233684
0.0233634
0.0233583
0.0233532
0.0233481
0.0233429
0.0233377
0.0233325
0.0233271
0.0233218
0.0233163
0.0233108
0.0233053
0.0232997
0.023294
0.0232883
0.0232825
0.0232766
0.0232706
0.0232646
0.0232584
0.0232523
0.023246
0.0232397
0.0232332
0.0232268
0.0232202
0.0232136
0.023207
0.0232003
0.0231936
0.0231868
0.0231801
0.0231733
0.0231665
0.0231597
0.0231529
0.0231461
0.0231393
0.0231325
0.0231257
0.023119
0.0231123
0.0231056
0.0230989
0.0230923
0.0230856
0.023079
0.0230725
0.0230659
0.0230594
0.0230529
0.0230464
0.0230399
0.0230335
0.023027
0.0230206
0.0230143
0.0230079
0.0230016
0.0229952
0.0229889
0.0229827
0.0229764
0.0229702
0.022964
0.0229578
0.0229517
0.0229456
0.0229395
0.0229334
0.0229274
0.0229214
0.0229155
0.0229096
0.0229037
0.0228979
0.0228921
0.0228864
0.0228807
0.022875
0.0228694
0.0228638
0.0228583
0.0228528
0.0228474
0.0228419
0.0228366
0.0228312
0.0228259
0.0228207
0.0228154
0.0228102
0.0228051
0.0227999
0.0227948
0.0227897
0.0227847
0.0227797
0.0227747
0.0227697
0.0227648
0.0227599
0.022755
0.0227502
0.0227454
0.0227406
0.0227358
0.0227311
0.0227264
0.0227218
0.0227171
0.0227125
0.0227079
0.0227034
0.0226988
0.0226943
0.0226898
0.0226854
0.0226809
0.0226765
0.0226721
0.0226677
0.0226634
0.022659
0.0226547
0.0226505
0.0226462
0.022642
0.0226377
0.0226336
0.0226294
0.0226252
0.0226211
0.022617
0.0226129
0.0226089
0.0226048
0.0226008
0.0225968
0.0225928
0.0225888
0.0225849
0.0225809
0.022577
0.0225731
0.0225693
0.0225654
0.0225615
0.0225577
0.0225539
0.0225501
0.0225463
0.0225426
0.0225389
0.0225351
0.0225314
0.0225277
0.022524
0.0225203
0.0225166
0.022513
0.0225093
0.0225056
0.022502
0.0224983
0.0224947
0.022491
0.0224874
0.0224838
0.0224801
0.0224765
0.0224729
0.0224693
0.0224658
0.0224622
0.0224586
0.0224551
0.0224516
0.0224481
0.0224447
0.0224412
0.0224378
0.0224344
0.0224311
0.0224278
0.0224244
0.0224212
0.0224179
0.0224147
0.0224114
0.0224082
0.0224051
0.0224019
0.0223987
0.0223956
0.0223924
0.0223893
0.0223861
0.0223829
0.0223797
0.0223766
0.0223734
0.0223702
0.0223669
0.0223637
0.0223605
0.0223573
0.022354
0.0223508
0.0223475
0.0223443
0.022341
0.0223378
0.0223345
0.0223312
0.0223279
0.0223245
0.0223212
0.0223176
0.022314
0.0223101
0.0223063
0.0223022
0.0222984
0.0222943
0.0222907
0.0222868
0.0222834
0.0222797
0.0222758
0.0222717
0.0222659
0.0222583
0.0222513
0.0222504
0.0222497
0.0222491
0.0222485
0.0222479
0.0222465
0.0222415
0.0222352
0.022233
0.0222324
0.0247
0.0247
0.0247
0.0247
0.0247
0.0247
0.0247
0.0247
0.0246998
0.0246989
0.0246993
0.0247052
0.0247053
0.0246936
0.0246969
0.0247066
0.024707
0.0247238
0.0247268
0.0247033
0.0246973
0.0247238
0.0247487
0.0247354
0.0247218
0.0247414
0.0247489
0.0247324
0.0247454
0.024765
0.0247394
0.0247678
0.0248653
0.024833
0.0247014
0.0246748
0.0247581
0.0248476
0.0248957
0.0249124
0.0248801
0.0247844
0.0247195
0.0247385
0.0247788
0.0248332
0.0249016
0.0249033
0.0248468
0.024822
0.024827
0.0248319
0.0248385
0.0248462
0.0248525
0.0248566
0.0248585
0.0248576
0.0248538
0.0248482
0.0248443
0.024843
0.0248438
0.0248459
0.0248482
0.0248497
0.02485
0.0248489
0.024847
0.0248445
0.024842
0.0248399
0.0248382
0.0248369
0.0248358
0.0248348
0.0248336
0.0248322
0.0248305
0.0248288
0.0248268
0.0248248
0.0248226
0.0248205
0.0248181
0.0248155
0.0248125
0.0248095
0.0248063
0.0248031
0.0247995
0.0247958
0.024792
0.0247882
0.0247842
0.0247802
0.024776
0.0247715
0.0247669
0.0247621
0.0247571
0.024752
0.0247468
0.0247415
0.0247362
0.024731
0.0247257
0.0247204
0.0247151
0.0247098
0.0247043
0.0246987
0.0246929
0.0246871
0.0246811
0.0246751
0.024669
0.0246629
0.0246567
0.0246505
0.0246441
0.0246378
0.0246313
0.0246248
0.0246182
0.0246116
0.0246048
0.0245981
0.0245913
0.0245845
0.0245775
0.0245706
0.0245636
0.0245566
0.0245496
0.0245425
0.0245353
0.0245282
0.024521
0.0245138
0.0245066
0.0244994
0.0244922
0.024485
0.0244777
0.0244705
0.0244631
0.0244558
0.0244484
0.0244409
0.0244334
0.0244258
0.0244182
0.0244106
0.0244029
0.0243951
0.0243874
0.0243796
0.0243717
0.0243639
0.024356
0.024348
0.02434
0.024332
0.024324
0.0243159
0.0243079
0.0242997
0.0242917
0.0242835
0.0242754
0.0242672
0.0242591
0.0242509
0.0242427
0.0242344
0.0242262
0.0242179
0.0242096
0.0242013
0.024193
0.0241846
0.0241762
0.0241678
0.0241595
0.024151
0.0241427
0.0241342
0.0241259
0.0241174
0.0241091
0.0241005
0.0240922
0.0240835
0.0240752
0.0240665
0.0240582
0.0240495
0.0240412
0.0240324
0.0240241
0.0240152
0.024007
0.0239981
0.0239899
0.023981
0.0239729
0.023964
0.0239558
0.0239469
0.0239388
0.0239299
0.0239218
0.023913
0.0239048
0.0238962
0.023888
0.0238794
0.0238712
0.0238627
0.0238545
0.0238461
0.0238379
0.0238296
0.0238214
0.0238132
0.0238051
0.0237969
0.0237889
0.0237808
0.0237728
0.0237648
0.0237569
0.0237489
0.0237411
0.0237333
0.0237256
0.0237178
0.0237102
0.0237026
0.023695
0.0236875
0.02368
0.0236726
0.0236652
0.0236579
0.0236506
0.0236434
0.0236362
0.0236291
0.023622
0.023615
0.023608
0.0236012
0.0235943
0.0235876
0.0235809
0.0235742
0.0235676
0.0235611
0.0235546
0.0235482
0.0235418
0.0235355
0.0235293
0.0235231
0.023517
0.023511
0.023505
0.023499
0.0234932
0.0234874
0.0234816
0.0234759
0.0234703
0.0234648
0.0234593
0.0234539
0.0234485
0.0234432
0.023438
0.0234328
0.0234277
0.0234227
0.0234177
0.0234128
0.0234079
0.0234031
0.0233984
0.0233937
0.023389
0.0233844
0.0233799
0.0233753
0.0233708
0.0233663
0.0233617
0.0233572
0.0233526
0.023348
0.0233434
0.0233386
0.0233339
0.023329
0.023324
0.023319
0.0233139
0.0233087
0.0233034
0.023298
0.0232925
0.0232869
0.0232813
0.0232755
0.0232697
0.0232638
0.0232578
0.0232518
0.0232456
0.0232394
0.0232332
0.0232269
0.0232204
0.023214
0.0232074
0.0232008
0.0231941
0.0231873
0.0231804
0.0231736
0.0231666
0.0231596
0.0231525
0.0231455
0.0231383
0.0231312
0.0231241
0.0231169
0.0231098
0.0231026
0.0230955
0.0230884
0.0230814
0.0230744
0.0230674
0.0230605
0.0230536
0.0230467
0.0230399
0.0230332
0.0230265
0.0230198
0.0230132
0.0230067
0.0230002
0.0229937
0.0229873
0.0229809
0.0229745
0.0229682
0.0229619
0.0229557
0.0229495
0.0229433
0.0229372
0.0229311
0.022925
0.022919
0.022913
0.022907
0.0229011
0.0228952
0.0228894
0.0228835
0.0228778
0.022872
0.0228663
0.0228607
0.0228551
0.0228495
0.022844
0.0228385
0.022833
0.0228276
0.0228223
0.022817
0.0228118
0.0228066
0.0228015
0.0227964
0.0227914
0.0227864
0.0227815
0.0227766
0.0227717
0.0227669
0.0227622
0.0227574
0.0227527
0.0227481
0.0227434
0.0227388
0.0227342
0.0227297
0.0227251
0.0227206
0.0227161
0.0227116
0.0227072
0.0227028
0.0226984
0.022694
0.0226896
0.0226853
0.022681
0.0226767
0.0226724
0.0226682
0.0226639
0.0226597
0.0226555
0.0226513
0.0226472
0.022643
0.0226389
0.0226348
0.0226306
0.0226266
0.0226225
0.0226184
0.0226144
0.0226103
0.0226063
0.0226024
0.0225984
0.0225944
0.0225905
0.0225866
0.0225827
0.0225788
0.0225749
0.022571
0.0225672
0.0225633
0.0225595
0.0225557
0.0225518
0.022548
0.0225442
0.0225404
0.0225366
0.0225329
0.0225291
0.0225253
0.0225216
0.0225178
0.0225141
0.0225104
0.0225067
0.0225031
0.0224994
0.0224958
0.0224921
0.0224885
0.0224849
0.0224814
0.0224778
0.0224742
0.0224707
0.0224671
0.0224636
0.0224601
0.0224566
0.0224531
0.0224496
0.0224461
0.0224426
0.0224391
0.0224357
0.0224322
0.0224287
0.0224253
0.0224218
0.0224184
0.022415
0.0224116
0.0224082
0.0224048
0.0224014
0.0223981
0.0223948
0.0223915
0.0223882
0.022385
0.0223817
0.0223785
0.0223753
0.0223722
0.022369
0.0223659
0.0223628
0.0223596
0.0223565
0.0223534
0.0223504
0.0223473
0.0223442
0.0223411
0.022338
0.0223349
0.0223319
0.0223288
0.0223257
0.0223226
0.0223195
0.0223164
0.0223133
0.0223102
0.0223071
0.0223041
0.0223009
0.0222979
0.0222945
0.0222916
0.0222881
0.0222852
0.0222815
0.0222787
0.0222749
0.0222722
0.0222684
0.0222657
0.0222621
0.0222596
0.0222564
0.0222543
0.0222523
0.0222518
0.0222522
0.022251
0.02225
0.0222487
0.0222477
0.0222469
0.0222465
0.0222458
0.0222432
0.0222383
0.022234
0.0222324
0.0247
0.0247
0.0247
0.0247
0.0247
0.0247
0.0247
0.0247
0.0246998
0.0246991
0.0247001
0.0247051
0.024704
0.0246934
0.0246948
0.0247022
0.0247035
0.0247157
0.0247147
0.0246899
0.0246824
0.0247057
0.0247267
0.0247138
0.0246996
0.0247121
0.0247139
0.0246965
0.0247022
0.0247131
0.024693
0.02472
0.0247987
0.0247685
0.0246497
0.0246139
0.0246827
0.0247705
0.0248255
0.0248461
0.024815
0.0247239
0.0246536
0.024656
0.0246887
0.0247402
0.0248045
0.0248153
0.0247738
0.0247506
0.0247522
0.024756
0.0247604
0.0247662
0.0247723
0.0247783
0.0247835
0.0247866
0.0247862
0.0247829
0.0247795
0.0247775
0.0247772
0.0247783
0.0247803
0.0247822
0.0247835
0.0247838
0.0247833
0.0247823
0.0247814
0.0247806
0.0247801
0.0247798
0.0247795
0.0247792
0.0247783
0.0247771
0.0247754
0.0247732
0.0247707
0.024768
0.0247651
0.0247621
0.0247588
0.0247553
0.0247516
0.0247478
0.024744
0.0247401
0.024736
0.0247318
0.0247274
0.0247231
0.0247187
0.0247142
0.0247093
0.0247043
0.024699
0.0246935
0.0246877
0.0246818
0.0246758
0.0246698
0.0246637
0.0246576
0.0246516
0.0246456
0.0246396
0.0246335
0.0246273
0.024621
0.0246145
0.024608
0.0246014
0.0245948
0.024588
0.0245813
0.0245744
0.0245676
0.0245606
0.0245537
0.0245467
0.0245397
0.0245325
0.0245253
0.0245181
0.0245108
0.0245035
0.0244961
0.0244887
0.0244813
0.0244738
0.0244663
0.0244587
0.0244511
0.0244435
0.0244358
0.0244281
0.0244204
0.0244127
0.024405
0.0243973
0.0243896
0.0243818
0.024374
0.0243662
0.0243584
0.0243506
0.0243427
0.0243347
0.0243267
0.0243187
0.0243107
0.0243026
0.0242945
0.0242864
0.0242783
0.0242702
0.024262
0.0242539
0.0242457
0.0242375
0.0242293
0.0242211
0.0242129
0.0242047
0.0241964
0.0241882
0.02418
0.0241718
0.0241636
0.0241554
0.0241471
0.0241389
0.0241306
0.0241224
0.0241141
0.0241058
0.0240975
0.0240892
0.0240808
0.0240725
0.0240641
0.0240558
0.0240473
0.0240391
0.0240306
0.0240224
0.0240139
0.0240057
0.0239971
0.0239889
0.0239804
0.0239722
0.0239637
0.0239555
0.0239469
0.0239388
0.0239302
0.0239221
0.0239135
0.0239055
0.0238968
0.0238888
0.0238802
0.0238722
0.0238636
0.0238557
0.0238472
0.0238393
0.0238308
0.0238229
0.0238145
0.0238066
0.0237983
0.0237905
0.0237822
0.0237744
0.0237663
0.0237584
0.0237504
0.0237426
0.0237347
0.023727
0.0237192
0.0237116
0.0237039
0.0236963
0.0236887
0.0236813
0.0236738
0.0236664
0.0236591
0.0236518
0.0236446
0.0236375
0.0236303
0.0236233
0.0236163
0.0236094
0.0236025
0.0235957
0.0235889
0.0235822
0.0235756
0.023569
0.0235625
0.023556
0.0235496
0.0235432
0.023537
0.0235307
0.0235246
0.0235185
0.0235125
0.0235066
0.0235007
0.0234948
0.023489
0.0234833
0.0234777
0.0234721
0.0234666
0.0234611
0.0234557
0.0234503
0.023445
0.0234398
0.0234346
0.0234295
0.0234244
0.0234194
0.0234144
0.0234096
0.0234047
0.0233999
0.0233952
0.0233906
0.023386
0.0233814
0.023377
0.0233725
0.0233682
0.0233639
0.0233596
0.0233554
0.0233512
0.0233471
0.023343
0.023339
0.0233349
0.0233309
0.0233268
0.0233227
0.0233185
0.0233142
0.0233099
0.0233055
0.0233009
0.0232962
0.0232914
0.0232864
0.0232813
0.023276
0.0232706
0.0232651
0.0232594
0.0232536
0.0232477
0.0232416
0.0232355
0.0232292
0.0232229
0.0232165
0.02321
0.0232034
0.0231968
0.0231901
0.0231833
0.0231765
0.0231697
0.0231628
0.0231558
0.0231487
0.0231417
0.0231345
0.0231273
0.0231201
0.0231128
0.0231055
0.0230982
0.0230908
0.0230834
0.023076
0.0230686
0.0230612
0.0230539
0.0230465
0.0230392
0.023032
0.0230248
0.0230176
0.0230106
0.0230035
0.0229966
0.0229897
0.0229829
0.0229761
0.0229694
0.0229628
0.0229563
0.0229498
0.0229434
0.022937
0.0229307
0.0229244
0.0229182
0.0229121
0.022906
0.0228999
0.0228939
0.0228879
0.022882
0.0228762
0.0228703
0.0228646
0.0228588
0.0228531
0.0228475
0.0228419
0.0228363
0.0228308
0.0228253
0.0228199
0.0228145
0.0228091
0.0228038
0.0227986
0.0227934
0.0227882
0.0227831
0.022778
0.022773
0.022768
0.0227632
0.0227583
0.0227535
0.0227488
0.0227441
0.0227395
0.022735
0.0227305
0.022726
0.0227216
0.0227172
0.0227129
0.0227086
0.0227043
0.0227
0.0226958
0.0226916
0.0226874
0.0226833
0.0226791
0.022675
0.0226709
0.0226668
0.0226627
0.0226586
0.0226546
0.0226506
0.0226465
0.0226425
0.0226385
0.0226346
0.0226306
0.0226267
0.0226227
0.0226188
0.0226149
0.022611
0.022607
0.0226032
0.0225993
0.0225954
0.0225915
0.0225876
0.0225838
0.02258
0.0225761
0.0225723
0.0225685
0.0225647
0.022561
0.0225572
0.0225535
0.0225497
0.022546
0.0225423
0.0225386
0.0225349
0.0225312
0.0225275
0.0225238
0.0225201
0.0225164
0.0225128
0.0225091
0.0225054
0.0225017
0.0224981
0.0224944
0.0224907
0.0224871
0.0224834
0.0224798
0.0224762
0.0224726
0.022469
0.0224655
0.0224619
0.0224584
0.0224549
0.0224514
0.0224479
0.0224444
0.022441
0.0224376
0.0224341
0.0224307
0.0224273
0.0224239
0.0224205
0.0224172
0.0224138
0.0224104
0.0224071
0.0224038
0.0224004
0.0223971
0.0223937
0.0223904
0.0223871
0.0223838
0.0223805
0.0223772
0.0223739
0.0223706
0.0223674
0.0223641
0.0223609
0.0223577
0.0223545
0.0223514
0.0223482
0.0223451
0.022342
0.0223389
0.0223358
0.0223328
0.0223297
0.0223267
0.0223236
0.0223206
0.0223176
0.0223146
0.0223116
0.0223085
0.0223055
0.0223025
0.0222995
0.0222965
0.0222935
0.0222904
0.0222874
0.0222844
0.0222814
0.0222783
0.0222753
0.0222721
0.0222692
0.0222659
0.022263
0.0222596
0.0222568
0.0222533
0.0222507
0.022247
0.0222445
0.0222409
0.0222386
0.0222352
0.0222331
0.0222302
0.022229
0.0222281
0.0222304
0.0222362
0.0222414
0.0222424
0.0222413
0.022241
0.0222411
0.0222419
0.0222425
0.0222422
0.0222395
0.0222355
0.0222324
0.0247
0.0247
0.0247
0.0247
0.0247
0.0247
0.0247
0.0247
0.0246998
0.0246995
0.0247008
0.0247048
0.0247031
0.0246943
0.0246949
0.0247011
0.0247041
0.0247139
0.024711
0.0246889
0.024682
0.0247023
0.0247205
0.0247103
0.024698
0.0247059
0.0247053
0.0246903
0.0246922
0.0246982
0.0246856
0.0247124
0.0247732
0.0247426
0.0246384
0.0246019
0.0246609
0.0247449
0.0248025
0.0248225
0.024789
0.0247019
0.0246309
0.0246236
0.0246513
0.0247001
0.0247573
0.0247697
0.0247366
0.0247136
0.0247115
0.0247133
0.0247156
0.024719
0.0247232
0.024728
0.0247327
0.0247358
0.0247358
0.0247328
0.0247288
0.0247254
0.0247233
0.0247224
0.0247226
0.0247229
0.0247231
0.0247226
0.0247215
0.02472
0.0247185
0.0247173
0.0247164
0.0247157
0.024715
0.0247142
0.0247129
0.024711
0.0247085
0.0247055
0.0247019
0.024698
0.0246939
0.0246896
0.024685
0.0246804
0.0246755
0.0246707
0.0246658
0.0246611
0.0246563
0.0246514
0.0246465
0.0246417
0.0246367
0.0246316
0.0246262
0.0246207
0.0246148
0.0246087
0.0246023
0.0245959
0.0245893
0.0245827
0.024576
0.0245695
0.024563
0.0245565
0.02455
0.0245435
0.0245369
0.0245302
0.0245233
0.0245164
0.0245093
0.0245023
0.0244951
0.024488
0.0244808
0.0244736
0.0244663
0.0244591
0.0244518
0.0244444
0.024437
0.0244295
0.0244219
0.0244144
0.0244067
0.0243991
0.0243913
0.0243836
0.0243757
0.0243679
0.02436
0.0243521
0.0243441
0.0243361
0.024328
0.02432
0.0243119
0.0243039
0.0242958
0.0242878
0.0242798
0.0242717
0.0242636
0.0242556
0.0242474
0.0242393
0.0242311
0.0242229
0.0242147
0.0242065
0.0241983
0.0241901
0.0241819
0.0241736
0.0241654
0.0241572
0.024149
0.0241408
0.0241326
0.0241244
0.0241162
0.024108
0.0240998
0.0240916
0.0240835
0.0240753
0.0240672
0.0240591
0.024051
0.0240428
0.0240347
0.0240265
0.0240184
0.0240102
0.024002
0.0239938
0.0239856
0.0239774
0.0239692
0.0239609
0.0239528
0.0239445
0.0239364
0.0239281
0.02392
0.0239117
0.0239036
0.0238953
0.0238873
0.023879
0.023871
0.0238627
0.0238548
0.0238464
0.0238386
0.0238302
0.0238224
0.0238141
0.0238064
0.0237981
0.0237904
0.0237821
0.0237745
0.0237663
0.0237587
0.0237506
0.0237431
0.023735
0.0237275
0.0237195
0.0237121
0.0237042
0.0236968
0.023689
0.0236816
0.023674
0.0236666
0.0236591
0.0236518
0.0236444
0.0236372
0.02363
0.0236229
0.0236158
0.0236088
0.0236018
0.023595
0.0235881
0.0235814
0.0235747
0.0235681
0.0235615
0.023555
0.0235486
0.0235422
0.0235359
0.0235297
0.0235235
0.0235174
0.0235114
0.0235054
0.0234995
0.0234936
0.0234878
0.0234821
0.0234764
0.0234708
0.0234653
0.0234598
0.0234544
0.0234491
0.0234438
0.0234386
0.0234335
0.0234284
0.0234234
0.0234184
0.0234135
0.0234087
0.0234039
0.0233992
0.0233945
0.0233899
0.0233853
0.0233808
0.0233763
0.0233719
0.0233675
0.0233632
0.0233589
0.0233547
0.0233506
0.0233464
0.0233424
0.0233384
0.0233344
0.0233305
0.0233267
0.0233229
0.0233191
0.0233154
0.0233118
0.0233082
0.0233046
0.023301
0.0232974
0.0232938
0.0232902
0.0232865
0.0232827
0.0232788
0.0232747
0.0232704
0.023266
0.0232614
0.0232565
0.0232515
0.0232462
0.0232407
0.023235
0.0232292
0.0232231
0.0232169
0.0232105
0.023204
0.0231973
0.0231906
0.0231837
0.0231768
0.0231698
0.0231627
0.0231556
0.0231484
0.0231412
0.023134
0.0231267
0.0231194
0.0231121
0.0231047
0.0230973
0.0230899
0.0230825
0.023075
0.0230675
0.02306
0.0230525
0.0230449
0.0230374
0.0230298
0.0230223
0.0230148
0.0230073
0.0229998
0.0229924
0.022985
0.0229777
0.0229704
0.0229633
0.0229562
0.0229491
0.0229422
0.0229353
0.0229286
0.0229219
0.0229153
0.0229088
0.0229023
0.022896
0.0228897
0.0228835
0.0228774
0.0228713
0.0228653
0.0228594
0.0228535
0.0228476
0.0228419
0.0228362
0.0228305
0.0228249
0.0228193
0.0228138
0.0228084
0.0228029
0.0227976
0.0227923
0.022787
0.0227818
0.0227766
0.0227715
0.0227664
0.0227614
0.0227564
0.0227515
0.0227466
0.0227418
0.022737
0.0227323
0.0227276
0.022723
0.0227184
0.0227139
0.0227095
0.0227051
0.0227008
0.0226965
0.0226923
0.0226881
0.022684
0.02268
0.0226759
0.0226719
0.022668
0.0226641
0.0226602
0.0226563
0.0226524
0.0226486
0.0226448
0.022641
0.0226372
0.0226334
0.0226296
0.0226258
0.0226221
0.0226183
0.0226146
0.0226109
0.0226071
0.0226034
0.0225997
0.022596
0.0225923
0.0225886
0.0225849
0.0225812
0.0225775
0.0225738
0.0225701
0.0225664
0.0225627
0.0225591
0.0225554
0.0225517
0.022548
0.0225444
0.0225407
0.0225371
0.0225335
0.0225298
0.0225262
0.0225227
0.0225191
0.0225155
0.0225119
0.0225083
0.0225048
0.0225012
0.0224976
0.0224941
0.0224905
0.0224869
0.0224834
0.0224798
0.0224762
0.0224726
0.0224691
0.0224655
0.0224619
0.0224584
0.0224548
0.0224513
0.0224477
0.0224442
0.0224407
0.0224372
0.0224338
0.0224303
0.0224269
0.0224235
0.0224201
0.0224167
0.0224134
0.02241
0.0224067
0.0224033
0.0224
0.0223967
0.0223935
0.0223902
0.0223869
0.0223837
0.0223804
0.0223772
0.022374
0.0223708
0.0223675
0.0223643
0.0223611
0.0223579
0.0223547
0.0223515
0.0223483
0.0223452
0.022342
0.0223389
0.0223357
0.0223326
0.0223295
0.0223264
0.0223233
0.0223203
0.0223172
0.0223142
0.0223112
0.0223082
0.0223052
0.0223022
0.0222992
0.0222962
0.0222933
0.0222903
0.0222873
0.0222844
0.0222814
0.0222784
0.0222754
0.0222725
0.0222695
0.0222665
0.0222635
0.0222605
0.0222575
0.0222545
0.0222514
0.0222484
0.0222453
0.0222423
0.022239
0.0222361
0.0222326
0.0222299
0.0222263
0.0222236
0.02222
0.0222176
0.022214
0.0222118
0.0222085
0.0222066
0.0222039
0.0222032
0.0222031
0.0222069
0.0222157
0.0222252
0.022229
0.0222287
0.0222295
0.022231
0.0222337
0.0222363
0.0222384
0.0222383
0.022236
0.0222323
0.0247
0.0247
0.0247
0.0247
0.0247
0.0247
0.0247
0.0247
0.0246999
0.0246999
0.0247015
0.0247046
0.0247025
0.0246952
0.0246952
0.0247002
0.0247042
0.0247123
0.0247092
0.0246906
0.0246849
0.0247016
0.0247167
0.0247097
0.0246994
0.0247034
0.0247008
0.0246883
0.0246883
0.024692
0.0246864
0.0247123
0.0247583
0.024728
0.0246384
0.0246046
0.0246559
0.0247353
0.0247929
0.0248116
0.0247771
0.0246951
0.0246261
0.024613
0.0246378
0.0246845
0.0247357
0.0247482
0.0247212
0.0246986
0.0246931
0.0246929
0.0246936
0.0246955
0.0246981
0.0247014
0.0247046
0.0247062
0.0247047
0.0247003
0.0246946
0.0246891
0.0246846
0.0246812
0.0246788
0.0246767
0.0246745
0.0246718
0.0246687
0.0246652
0.0246618
0.0246588
0.0246561
0.0246536
0.0246512
0.0246486
0.0246456
0.0246422
0.024638
0.0246334
0.0246282
0.0246227
0.024617
0.0246113
0.0246054
0.0245994
0.0245932
0.0245873
0.0245814
0.0245757
0.0245701
0.0245645
0.024559
0.0245535
0.024548
0.0245424
0.0245365
0.0245305
0.0245241
0.0245176
0.0245108
0.0245039
0.0244969
0.02449
0.024483
0.0244761
0.0244693
0.0244626
0.0244559
0.0244492
0.0244423
0.0244353
0.0244282
0.0244211
0.0244139
0.0244066
0.0243993
0.0243919
0.0243845
0.0243772
0.0243697
0.0243623
0.0243547
0.0243472
0.0243395
0.0243319
0.0243241
0.0243163
0.0243084
0.0243005
0.0242926
0.0242846
0.0242765
0.0242683
0.0242601
0.0242519
0.0242436
0.0242354
0.0242271
0.0242188
0.0242105
0.0242022
0.0241939
0.0241857
0.0241775
0.0241693
0.0241611
0.0241529
0.0241446
0.0241364
0.0241282
0.02412
0.0241117
0.0241035
0.0240953
0.0240871
0.0240789
0.0240707
0.0240625
0.0240544
0.0240463
0.0240382
0.0240301
0.024022
0.0240139
0.0240058
0.0239978
0.0239898
0.0239818
0.0239738
0.0239658
0.0239578
0.0239499
0.0239419
0.0239339
0.0239259
0.0239179
0.0239099
0.0239019
0.0238938
0.0238858
0.0238777
0.0238697
0.0238617
0.0238537
0.0238456
0.0238377
0.0238296
0.0238217
0.0238137
0.0238058
0.0237978
0.02379
0.0237819
0.0237742
0.0237662
0.0237585
0.0237505
0.0237429
0.0237349
0.0237274
0.0237195
0.023712
0.0237041
0.0236968
0.0236889
0.0236817
0.0236739
0.0236668
0.0236591
0.023652