/*--------------------------------*- C++ -*----------------------------------*\
| =========                 |                                                 |
| \\      /  F ield         | foam-extend: Open Source CFD                    |
|  \\    /   O peration     | Version:     3.2                                |
|   \\  /    A nd           | Web:         http://www.foam-extend.org         |
|    \\/     M anipulation  | For copyright notice see file Copyright         |
\*---------------------------------------------------------------------------*/
FoamFile
{
    version     2.0;
    format      ascii;
    class       areaScalarField;
    location    "840";
    object      Cpre;
}
// * * * * * * * * * * * * * * * * * * * * * * * * * * * * * * * * * * * * * //

dimensions      [1 -3 0 0 0 0 0];

internalField   nonuniform List<scalar> 
550
(
0.0247
0.0247
0.0247
0.0247
0.0247
0.0247
0.0247
0.0247
0.0247
0.0246992
0.0246985
0.0247331
0.0247682
0.0248075
0.0248826
0.0249478
0.0249979
0.025059
0.0251106
0.0251334
0.0251533
0.0251721
0.025198
0.0251899
0.0251841
0.0251978
0.0251876
0.0251637
0.0251924
0.0252086
0.025166
0.025217
0.0252584
0.0251266
0.0250742
0.0251521
0.0252419
0.0252286
0.0251394
0.0250629
0.024986
0.0249687
0.0250605
0.0251712
0.0252231
0.0252283
0.0252025
0.0250784
0.0250324
0.0250587
0.0251039
0.0251219
0.0251237
0.0251062
0.0250791
0.025049
0.0250236
0.0250073
0.0249972
0.0249962
0.0250006
0.025006
0.0250079
0.0250066
0.0250008
0.0249923
0.0249815
0.0249701
0.0249594
0.0249502
0.024943
0.0249371
0.0249326
0.0249286
0.024926
0.0249238
0.0249225
0.0249205
0.0249193
0.0249177
0.0249163
0.024914
0.0249124
0.02491
0.0249079
0.0249046
0.0249014
0.0248976
0.0248949
0.024892
0.0248885
0.0248837
0.0248796
0.0248754
0.0248716
0.0248673
0.0248634
0.0248589
0.0248548
0.0248503
0.0248463
0.0248421
0.0248382
0.0248341
0.0248303
0.0248261
0.0248222
0.0248179
0.0248138
0.0248093
0.0248049
0.0248002
0.0247958
0.024791
0.0247865
0.0247817
0.0247773
0.0247724
0.0247678
0.0247629
0.0247582
0.0247531
0.0247482
0.0247429
0.0247378
0.0247324
0.0247271
0.0247215
0.0247162
0.0247104
0.024705
0.0246992
0.0246937
0.0246879
0.0246824
0.0246766
0.0246711
0.0246653
0.0246598
0.024654
0.0246484
0.0246425
0.0246369
0.0246309
0.0246251
0.0246191
0.0246131
0.0246069
0.0246008
0.0245946
0.0245884
0.024582
0.0245757
0.0245693
0.0245629
0.0245564
0.0245499
0.0245433
0.0245366
0.0245299
0.0245231
0.0245162
0.0245092
0.0245023
0.0244951
0.024488
0.0244807
0.0244735
0.0244661
0.0244588
0.0244512
0.0244438
0.0244361
0.0244287
0.0244208
0.0244133
0.0244053
0.0243978
0.0243898
0.0243822
0.0243741
0.0243666
0.0243584
0.0243508
0.0243426
0.024335
0.0243265
0.0243189
0.0243102
0.0243024
0.0242935
0.0242856
0.0242764
0.0242684
0.0242592
0.0242512
0.0242418
0.0242338
0.0242244
0.0242164
0.024207
0.024199
0.0241895
0.0241816
0.0241722
0.0241641
0.0241548
0.0241468
0.0241376
0.0241295
0.0241206
0.0241125
0.0241039
0.0240956
0.0240874
0.0240791
0.0240711
0.0240626
0.0240545
0.0240459
0.0240376
0.024029
0.0240206
0.0240119
0.0240035
0.0239948
0.0239863
0.0239777
0.0239692
0.0239606
0.0239521
0.0239435
0.023935
0.0239264
0.023918
0.0239095
0.023901
0.0238925
0.0238841
0.0238757
0.0238673
0.023859
0.0238506
0.0238423
0.023834
0.0238257
0.0238174
0.0238092
0.023801
0.0237928
0.0237846
0.0237764
0.0237683
0.0237602
0.0237521
0.0237441
0.0237361
0.0237281
0.0237201
0.0237122
0.0237044
0.0236965
0.0236888
0.0236811
0.0236734
0.0236658
0.0236582
0.0236508
0.0236433
0.023636
0.0236287
0.0236214
0.0236142
0.0236072
0.0236001
0.0235931
0.0235862
0.0235794
0.0235726
0.0235659
0.0235592
0.0235527
0.0235462
0.0235397
0.0235333
0.023527
0.0235208
0.0235147
0.0235086
0.0235026
0.0234966
0.0234907
0.0234849
0.0234792
0.0234735
0.0234679
0.0234624
0.0234569
0.0234515
0.0234461
0.0234407
0.0234355
0.0234302
0.023425
0.0234198
0.0234146
0.0234094
0.0234043
0.0233992
0.023394
0.0233889
0.0233838
0.0233787
0.0233736
0.0233684
0.0233633
0.0233581
0.0233529
0.0233477
0.0233424
0.0233371
0.0233317
0.0233263
0.0233209
0.0233153
0.0233098
0.0233041
0.0232984
0.0232926
0.0232868
0.0232809
0.0232749
0.0232689
0.0232628
0.0232567
0.0232505
0.0232443
0.023238
0.0232317
0.0232254
0.0232191
0.0232127
0.0232064
0.0232
0.0231936
0.0231872
0.0231808
0.0231744
0.0231679
0.0231615
0.0231551
0.0231487
0.0231423
0.0231358
0.0231294
0.023123
0.0231165
0.02311
0.0231036
0.0230971
0.0230906
0.0230841
0.0230777
0.0230712
0.0230647
0.0230582
0.0230517
0.0230453
0.0230388
0.0230324
0.0230259
0.0230195
0.0230131
0.0230068
0.0230004
0.0229941
0.0229878
0.0229816
0.0229754
0.0229692
0.0229631
0.0229569
0.0229509
0.0229448
0.0229388
0.0229328
0.0229268
0.0229208
0.0229148
0.0229089
0.022903
0.0228971
0.0228912
0.0228853
0.0228794
0.0228736
0.0228677
0.0228619
0.0228561
0.0228504
0.0228447
0.022839
0.0228334
0.0228278
0.0228223
0.0228168
0.0228113
0.022806
0.0228006
0.0227953
0.02279
0.0227848
0.0227796
0.0227744
0.0227693
0.0227642
0.0227591
0.0227541
0.0227491
0.0227441
0.0227392
0.0227342
0.0227293
0.0227245
0.0227197
0.0227149
0.0227101
0.0227054
0.0227008
0.0226961
0.0226915
0.0226869
0.0226824
0.0226779
0.0226734
0.0226689
0.0226645
0.0226601
0.0226557
0.0226514
0.0226471
0.0226428
0.0226386
0.0226344
0.0226303
0.0226262
0.0226221
0.0226181
0.0226141
0.0226101
0.0226062
0.0226024
0.0225985
0.0225947
0.0225909
0.0225872
0.0225835
0.0225798
0.022576
0.0225723
0.0225687
0.022565
0.0225613
0.0225575
0.0225538
0.0225501
0.0225463
0.0225426
0.0225388
0.022535
0.0225312
0.0225275
0.0225237
0.0225199
0.0225162
0.0225124
0.0225087
0.022505
0.0225014
0.0224978
0.0224943
0.0224908
0.0224873
0.022484
0.0224806
0.0224774
0.0224741
0.0224709
0.0224678
0.0224647
0.0224615
0.0224584
0.0224554
0.0224523
0.0224492
0.0224462
0.0224431
0.02244
0.0224369
0.0224338
0.0224307
0.0224275
0.0224242
0.0224208
0.0224173
0.0224138
0.0224103
0.0224068
0.0224032
0.0223997
0.0223961
0.0223925
0.0223888
0.0223852
0.0223815
0.0223778
0.0223742
0.0223704
0.022367
0.0223626
0.02236
0.0223542
0.0223525
0.0223443
0.0223427
0.0223325
0.022331
0.0223198
0.0223182
0.0223079
0.0223059
0.0223003
0.0222965
0.0222917
0.0222852
0.0222741
0.0222644
0.0222461
0.0222389
0.02224
0.0222431
0.0222474
0.0222479
0.0222481
0.0222479
0.0222452
0.0222367
0.0222333
0.0222326
0.0222324
)
;

boundaryField
{
    inlet
    {
        type            calculated;
        value           uniform 0;
    }
    endWall
    {
        type            calculated;
        value           uniform 0;
    }
    sideWall
    {
        type            empty;
    }
}


// ************************************************************************* //
