/*--------------------------------*- C++ -*----------------------------------*\
| =========                 |                                                 |
| \\      /  F ield         | foam-extend: Open Source CFD                    |
|  \\    /   O peration     | Version:     3.2                                |
|   \\  /    A nd           | Web:         http://www.foam-extend.org         |
|    \\/     M anipulation  | For copyright notice see file Copyright         |
\*---------------------------------------------------------------------------*/
FoamFile
{
    version     2.0;
    format      ascii;
    class       areaScalarField;
    location    "840";
    object      Cs;
}
// * * * * * * * * * * * * * * * * * * * * * * * * * * * * * * * * * * * * * //

dimensions      [0 0 0 0 0 0 0];

internalField   nonuniform List<scalar> 
550
(
0.434383
0.434013
0.434383
0.434383
0.434383
0.434383
0.432124
0.434383
0.434383
0.431018
0.434383
0.430511
0.430423
0.217013
0.210164
0.433673
0.269496
0.434383
0.434383
0.434383
0.15838
0.249496
0.434383
0.434383
0.434383
0.243876
0.22037
0.214431
0.434383
0.434383
0.204588
0.433987
0.434383
0.434383
0.104234
0.4299
0.430063
0.170732
0.152941
0.434383
0.434383
0.434383
0.429341
0.426642
0.427344
0.429399
0.433677
0.148267
0.432327
0.429265
0.428509
0.429737
0.431706
0.433228
0.432969
0.431209
0.427791
0.423924
0.42003
0.420065
0.418651
0.418957
0.419479
0.418143
0.417845
0.416259
0.415911
0.414659
0.414281
0.412909
0.413519
0.413382
0.41476
0.414802
0.414575
0.413494
0.412864
0.412907
0.412355
0.41162
0.411627
0.411525
0.410052
0.409527
0.409374
0.409789
0.410493
0.410653
0.410223
0.410985
0.41406
0.416143
0.41635
0.416102
0.415951
0.415834
0.415762
0.415726
0.415614
0.415337
0.414927
0.41448
0.414079
0.413714
0.413341
0.412929
0.412496
0.412067
0.411664
0.411301
0.410979
0.410687
0.410417
0.410149
0.409864
0.409573
0.409229
0.408878
0.408551
0.408214
0.407853
0.407513
0.407227
0.406984
0.406763
0.406534
0.40629
0.406034
0.405766
0.405492
0.40522
0.404938
0.404654
0.404373
0.404084
0.4038
0.403516
0.40323
0.40295
0.402671
0.402391
0.40211
0.40183
0.401564
0.401288
0.40102
0.400751
0.400487
0.400224
0.399969
0.399723
0.399479
0.399244
0.399009
0.398785
0.398559
0.398345
0.398142
0.39795
0.397754
0.397569
0.397392
0.397225
0.397053
0.39689
0.396721
0.396575
0.396423
0.396279
0.396142
0.396012
0.395872
0.395738
0.395612
0.395491
0.395378
0.395253
0.395135
0.395022
0.394918
0.39482
0.39471
0.394629
0.394535
0.39445
0.394374
0.394284
0.394225
0.394153
0.39409
0.394036
0.393968
0.393932
0.393882
0.393865
0.393832
0.393809
0.393793
0.393761
0.393761
0.393743
0.393757
0.393754
0.393757
0.393766
0.393781
0.393778
0.393807
0.393842
0.393857
0.39388
0.393933
0.393967
0.394007
0.394053
0.394106
0.394164
0.39423
0.394277
0.394357
0.394417
0.394484
0.394585
0.394668
0.394756
0.394848
0.394944
0.395042
0.395116
0.395219
0.395323
0.395429
0.395508
0.395616
0.395697
0.395806
0.395887
0.395993
0.396071
0.396147
0.396245
0.396313
0.396376
0.39646
0.396513
0.396559
0.396598
0.396654
0.396679
0.396696
0.396729
0.396731
0.396747
0.396734
0.396734
0.396705
0.39669
0.396666
0.396613
0.396573
0.396526
0.39647
0.396407
0.396336
0.396278
0.396192
0.396098
0.396021
0.395915
0.395827
0.395712
0.395614
0.395512
0.395406
0.395272
0.395159
0.395042
0.39492
0.39482
0.394692
0.394563
0.394431
0.394321
0.394186
0.394049
0.393936
0.393798
0.393686
0.39355
0.393439
0.393307
0.3932
0.393073
0.392971
0.39285
0.392757
0.392644
0.392558
0.392453
0.392379
0.392284
0.39222
0.392135
0.392081
0.392005
0.391961
0.391897
0.391837
0.391807
0.391756
0.391733
0.39169
0.391677
0.391644
0.391617
0.391618
0.391601
0.391589
0.391582
0.391583
0.391614
0.391626
0.391644
0.391666
0.391692
0.391724
0.391758
0.391798
0.391841
0.391887
0.391911
0.391968
0.392027
0.392091
0.392134
0.392208
0.392263
0.39235
0.392416
0.392514
0.392591
0.392673
0.392784
0.392875
0.392968
0.393089
0.393187
0.393285
0.393385
0.39351
0.393607
0.393726
0.393817
0.39393
0.394015
0.394121
0.394199
0.3943
0.394371
0.39444
0.394535
0.394601
0.394695
0.394761
0.394829
0.394925
0.394998
0.39507
0.395146
0.39525
0.395328
0.395404
0.39548
0.39555
0.395648
0.395712
0.395769
0.395846
0.395885
0.395942
0.395957
0.395986
0.396002
0.395972
0.395955
0.395922
0.395871
0.395806
0.395724
0.395656
0.395547
0.395427
0.395296
0.395183
0.395034
0.39488
0.394748
0.394584
0.394416
0.394276
0.394105
0.393933
0.393764
0.393624
0.393455
0.39329
0.393154
0.392991
0.392828
0.392693
0.392528
0.392392
0.392223
0.392083
0.391912
0.391768
0.391592
0.391446
0.391299
0.391122
0.390975
0.39083
0.390655
0.390512
0.39037
0.39023
0.390059
0.389922
0.389786
0.389653
0.389488
0.389359
0.389231
0.389071
0.388948
0.388825
0.388669
0.38855
0.388396
0.388279
0.388162
0.388012
0.387898
0.387751
0.387643
0.387539
0.387403
0.387273
0.387187
0.38707
0.386963
0.386905
0.386819
0.386746
0.386684
0.386634
0.386595
0.386567
0.38655
0.386544
0.386545
0.386556
0.386573
0.386555
0.386586
0.386622
0.386662
0.386707
0.386756
0.386768
0.386827
0.386892
0.386964
0.386996
0.38708
0.387168
0.387216
0.387312
0.38741
0.387467
0.387569
0.38767
0.387727
0.387826
0.387924
0.387975
0.388067
0.388159
0.388202
0.388287
0.388324
0.388405
0.388482
0.38851
0.38858
0.388645
0.388703
0.388709
0.388752
0.388788
0.388771
0.388795
0.388814
0.388828
0.388792
0.388797
0.388799
0.388749
0.388739
0.388721
0.388646
0.388607
0.388556
0.388491
0.388411
0.388316
0.388209
0.388092
0.387964
0.38783
0.387689
0.387545
0.387394
0.387241
0.38708
0.386964
0.386791
0.386651
0.386497
0.38635
0.386235
0.386081
0.385982
0.385649
0.385496
0.384334
0.382413
0.377034
0.359395
0.355143
0.434383
0.434383
0.434383
0.434383
0.434383
0.434383
0.434383
0.434383
0.241307
0.259455
)
;

boundaryField
{
    inlet
    {
        type            calculated;
        value           uniform 0;
    }
    endWall
    {
        type            calculated;
        value           uniform 0;
    }
    sideWall
    {
        type            empty;
    }
}


// ************************************************************************* //
