/*--------------------------------*- C++ -*----------------------------------*\
| =========                 |                                                 |
| \\      /  F ield         | foam-extend: Open Source CFD                    |
|  \\    /   O peration     | Version:     3.2                                |
|   \\  /    A nd           | Web:         http://www.foam-extend.org         |
|    \\/     M anipulation  | For copyright notice see file Copyright         |
\*---------------------------------------------------------------------------*/
FoamFile
{
    version     2.0;
    format      ascii;
    class       areaScalarField;
    location    "840";
    object      dd;
}
// * * * * * * * * * * * * * * * * * * * * * * * * * * * * * * * * * * * * * //

dimensions      [0 1 0 0 0 0 0];

internalField   nonuniform List<scalar> 
550
(
0.000405
0.000405
0.000405
0.000405
0.000404999
0.000405
0.000405
0.000405
0.000405
0.000405
0.000379193
0.000411179
0.00040579
0.000393716
0.000401012
0.000416095
0.000467283
0.000441447
0.000429123
0.000505137
0.000412513
0.000456138
0.000600388
0.000510799
0.000649287
0.00091625
0.00106
0.00106487
0.0011083
0.00115591
0.00106109
0.00102439
0.000935435
0.00074342
0.000768978
0.000961893
0.0010044
0.000922601
0.000833652
0.000709413
0.000595177
0.000635877
0.000800031
0.000876053
0.000910021
0.000939894
0.00088079
0.000862469
0.000933886
0.00101614
0.00104808
0.00108284
0.00119826
0.00138963
0.00162164
0.00183685
0.0020403
0.00222059
0.00239328
0.00256029
0.00270446
0.00283885
0.00298626
0.00313409
0.00327505
0.00341136
0.00353987
0.00366667
0.00378655
0.00389444
0.00399386
0.00409556
0.00420679
0.00433347
0.00446187
0.0045826
0.00469102
0.00480015
0.00491045
0.00501072
0.00510729
0.00520822
0.00529622
0.00536493
0.00542387
0.0054788
0.00553876
0.00560255
0.00565188
0.00568227
0.00573325
0.00582703
0.00593904
0.00604832
0.00615593
0.00626482
0.00637674
0.00649324
0.00661515
0.00674084
0.00686811
0.00699528
0.00712246
0.00725026
0.00737884
0.0075075
0.00763547
0.00776231
0.00788793
0.0080127
0.00813703
0.00826137
0.00838595
0.00851091
0.008636
0.00876113
0.00888572
0.00900917
0.00913164
0.00925321
0.00937339
0.00949187
0.00960919
0.00972607
0.00984298
0.00995997
0.0100769
0.0101936
0.0103099
0.0104257
0.0105411
0.0106559
0.01077
0.0108835
0.0109964
0.0111083
0.0112196
0.0113299
0.0114394
0.0115477
0.0116552
0.0117614
0.0118664
0.0119701
0.0120728
0.012174
0.0122741
0.0123727
0.0124701
0.0125658
0.0126604
0.0127533
0.012845
0.0129349
0.0130236
0.0131105
0.013196
0.0132798
0.0133623
0.013443
0.0135223
0.0136
0.0136765
0.0137514
0.013825
0.0138969
0.0139675
0.0140366
0.0141044
0.0141706
0.0142357
0.0142993
0.0143616
0.0144223
0.014482
0.0145402
0.0145974
0.0146531
0.0147077
0.0147609
0.0148133
0.0148642
0.0149144
0.0149634
0.015012
0.015059
0.0151065
0.0151517
0.0151988
0.0152426
0.0152884
0.0153304
0.0153741
0.015414
0.0154556
0.0154933
0.0155327
0.015568
0.0156049
0.0156374
0.0156713
0.0157009
0.0157318
0.0157582
0.0157851
0.0158078
0.0158302
0.0158485
0.0158657
0.0158798
0.0158909
0.0159003
0.0159056
0.0159112
0.0159109
0.0159137
0.0159103
0.0159114
0.0159069
0.015906
0.0159007
0.0158977
0.0158911
0.0158866
0.0158793
0.0158736
0.0158658
0.0158592
0.015851
0.0158431
0.0158338
0.015825
0.0158149
0.0158049
0.0157938
0.015783
0.0157716
0.0157605
0.0157492
0.0157382
0.0157269
0.0157162
0.0157052
0.0156946
0.0156843
0.0156742
0.0156641
0.0156543
0.015645
0.0156359
0.015627
0.0156186
0.0156106
0.0156031
0.0155961
0.0155896
0.0155835
0.0155783
0.0155737
0.0155696
0.0155663
0.0155639
0.0155623
0.0155614
0.0155616
0.015563
0.0155651
0.0155683
0.0155727
0.015578
0.0155845
0.0155918
0.0156003
0.0156101
0.0156209
0.0156326
0.0156452
0.0156589
0.0156737
0.0156897
0.0157069
0.0157249
0.0157438
0.015764
0.015785
0.0158067
0.0158294
0.0158527
0.015877
0.0159019
0.0159273
0.0159534
0.0159802
0.0160072
0.0160348
0.0160628
0.016091
0.0161195
0.0161482
0.0161771
0.0162062
0.0162352
0.0162645
0.0162937
0.016323
0.0163522
0.0163816
0.0164106
0.0164396
0.0164684
0.0164972
0.0165259
0.0165542
0.0165826
0.0166106
0.0166382
0.0166659
0.0166932
0.01672
0.0167463
0.0167722
0.0167981
0.0168236
0.0168487
0.0168736
0.016898
0.016922
0.0169458
0.0169692
0.0169923
0.0170151
0.017037
0.0170587
0.0170801
0.017101
0.0171214
0.0171413
0.0171606
0.0171796
0.0171981
0.0172162
0.0172337
0.0172506
0.0172675
0.0172837
0.0172995
0.0173153
0.0173307
0.0173455
0.0173601
0.0173747
0.0173889
0.0174031
0.017417
0.0174309
0.0174447
0.0174583
0.0174718
0.0174854
0.0174984
0.0175113
0.0175241
0.0175365
0.017549
0.0175608
0.0175725
0.0175842
0.0175955
0.0176065
0.0176174
0.0176283
0.0176393
0.0176502
0.0176609
0.0176719
0.0176833
0.0176949
0.017707
0.0177196
0.0177329
0.0177469
0.0177614
0.0177771
0.0177936
0.0178106
0.0178287
0.0178477
0.0178675
0.0178882
0.0179096
0.0179322
0.0179556
0.0179793
0.0180038
0.0180292
0.0180548
0.0180811
0.018108
0.0181351
0.0181627
0.0181908
0.0182191
0.0182474
0.0182758
0.0183047
0.0183334
0.0183621
0.0183912
0.0184201
0.0184491
0.0184782
0.0185073
0.0185365
0.0185657
0.0185948
0.018624
0.0186531
0.0186818
0.0187107
0.0187395
0.0187679
0.0187966
0.018825
0.0188531
0.0188812
0.0189093
0.0189374
0.0189651
0.0189927
0.0190205
0.0190481
0.0190755
0.0191029
0.0191302
0.0191571
0.0191843
0.0192114
0.0192383
0.0192651
0.0192914
0.019318
0.0193444
0.0193707
0.0193967
0.0194223
0.0194481
0.0194739
0.019499
0.0195238
0.0195485
0.0195723
0.0195958
0.0196191
0.0196421
0.0196644
0.0196862
0.0197076
0.0197285
0.0197489
0.0197691
0.0197889
0.0198084
0.0198281
0.0198474
0.0198661
0.0198847
0.0199031
0.0199216
0.0199404
0.0199588
0.0199769
0.019995
0.0200134
0.0200318
0.0200498
0.0200683
0.0200869
0.0201053
0.0201244
0.0201437
0.020163
0.0201832
0.0202039
0.0202247
0.0202464
0.0202686
0.0202911
0.0203146
0.0203387
0.0203632
0.0203884
0.0204138
0.0204404
0.0204678
0.0204955
0.0205243
0.0205545
0.0205859
0.0206183
0.0206524
0.0206883
0.0207262
0.0207664
0.0208089
0.0208531
0.0208988
0.020947
0.0209966
0.0210482
0.0211021
0.0211578
0.0212152
0.0212751
0.0213372
0.0214014
0.0214685
0.0215364
0.0216087
0.0216795
0.0217596
0.0218319
0.0219254
0.0219967
0.0221049
0.022169
0.0222722
0.0223077
0.0223707
0.022342
0.0223081
0.0221649
0.0219551
0.0216368
0.021169
0.0205277
0.0195849
0.0181879
0.0159774
0.0122105
0.00500633
0.00040495
0.000405
0.000405
0.00040495
0.000405
0.00040505
0.000405
0.000405
0.00040505
0.000405
)
;

boundaryField
{
    inlet
    {
        type            calculated;
        value           uniform 0;
    }
    endWall
    {
        type            calculated;
        value           uniform 0;
    }
    sideWall
    {
        type            empty;
    }
}


// ************************************************************************* //
