/*--------------------------------*- C++ -*----------------------------------*\
| =========                 |                                                 |
| \\      /  F ield         | foam-extend: Open Source CFD                    |
|  \\    /   O peration     | Version:     3.2                                |
|   \\  /    A nd           | Web:         http://www.foam-extend.org         |
|    \\/     M anipulation  | For copyright notice see file Copyright         |
\*---------------------------------------------------------------------------*/
FoamFile
{
    version     2.0;
    format      ascii;
    class       areaScalarField;
    location    "840";
    object      ddmax;
}
// * * * * * * * * * * * * * * * * * * * * * * * * * * * * * * * * * * * * * //

dimensions      [0 1 0 0 0 0 0];

internalField   nonuniform List<scalar> 
550
(
0.000405
0.000405
0.000405
0.000405
0.000405
0.000405
0.000405
0.000405
0.000405
0.000405
0.000416728
0.000424355
0.000432616
0.000443022
0.000454941
0.000461571
0.000501367
0.00047048
0.000469211
0.000603446
0.000511567
0.000497065
0.000640627
0.00056121
0.00071876
0.00100333
0.00118822
0.00120185
0.00120738
0.00126885
0.0012124
0.00119379
0.00121709
0.00123836
0.00118657
0.00112709
0.00109767
0.00111369
0.00104792
0.00104127
0.00103415
0.00102983
0.00106884
0.0010195
0.00103937
0.00105977
0.00106171
0.00109787
0.00110151
0.00115789
0.00121225
0.00128846
0.00140073
0.00153286
0.00171995
0.00189179
0.00207274
0.00224727
0.00241497
0.00257326
0.00270818
0.00283885
0.00298791
0.00314065
0.00328854
0.00342998
0.00356401
0.00369277
0.00381397
0.00392197
0.00402379
0.00412777
0.00424423
0.00437455
0.00450674
0.00463123
0.00474408
0.00485582
0.00496766
0.00507026
0.00516926
0.00527275
0.00536393
0.00543519
0.00549701
0.00555527
0.00561831
0.00568239
0.00573515
0.00577392
0.00583001
0.00592585
0.00603698
0.00614683
0.00625548
0.00636663
0.00648045
0.00659841
0.00672086
0.0068467
0.00697332
0.00710007
0.00722649
0.00735379
0.00748154
0.00760977
0.00773699
0.00786349
0.00798837
0.00811263
0.00823587
0.00835948
0.00848276
0.00860646
0.00872984
0.00885371
0.00897698
0.00909917
0.00922041
0.00934085
0.0094599
0.00957741
0.00969377
0.00980981
0.00992587
0.0100422
0.0101586
0.0102749
0.0103909
0.0105066
0.0106216
0.0107364
0.0108508
0.0109644
0.0110774
0.0111895
0.0113009
0.0114113
0.0115209
0.0116294
0.0117371
0.0118435
0.0119489
0.012053
0.0121562
0.012258
0.0123587
0.0124578
0.0125556
0.0126522
0.0127474
0.0128411
0.0129333
0.0130239
0.0131131
0.0132006
0.0132865
0.0133708
0.0134537
0.0135351
0.0136148
0.0136932
0.0137702
0.0138459
0.0139201
0.0139926
0.0140635
0.0141331
0.0142009
0.0142673
0.0143322
0.0143957
0.0144575
0.0145178
0.0145766
0.0146341
0.0146901
0.0147444
0.0147972
0.0148484
0.0148982
0.0149463
0.014993
0.0150384
0.0150822
0.0151248
0.0151659
0.015206
0.0152462
0.0152873
0.0153278
0.0153652
0.0154027
0.0154404
0.0154795
0.0155147
0.0155501
0.0155818
0.0156144
0.0156442
0.0156759
0.0157055
0.0157361
0.0157623
0.0157889
0.0158115
0.0158336
0.0158517
0.0158685
0.0158824
0.0158931
0.0159024
0.0159073
0.0159128
0.0159123
0.0159152
0.0159119
0.015913
0.0159088
0.015908
0.015903
0.0159001
0.0158939
0.0158897
0.0158829
0.0158781
0.0158731
0.0158677
0.0158618
0.0158551
0.0158481
0.015841
0.0158334
0.0158255
0.0158172
0.0158086
0.0157998
0.0157907
0.0157816
0.0157722
0.0157625
0.015753
0.0157431
0.0157333
0.0157237
0.0157141
0.0157043
0.0156947
0.0156854
0.0156761
0.015667
0.0156582
0.0156498
0.0156435
0.0156391
0.0156353
0.0156335
0.0156332
0.0156339
0.0156356
0.0156455
0.0156572
0.01567
0.0156838
0.0156986
0.0157161
0.0157346
0.015754
0.0157743
0.0157953
0.015817
0.0158392
0.0158622
0.015886
0.0159104
0.0159352
0.0159604
0.015986
0.0160122
0.016039
0.0160663
0.0160938
0.0161215
0.0161498
0.0161782
0.0162067
0.0162355
0.0162643
0.0162933
0.0163224
0.0163513
0.0163804
0.0164094
0.0164382
0.0164669
0.0164954
0.0165236
0.0165516
0.0165792
0.0166066
0.0166337
0.0166608
0.0166893
0.0167175
0.0167451
0.0167725
0.0167995
0.0168259
0.0168518
0.0168772
0.0169023
0.0169271
0.0169514
0.0169756
0.0169991
0.0170221
0.017045
0.0170673
0.0170895
0.0171113
0.0171325
0.0171541
0.0171754
0.0171961
0.0172166
0.0172368
0.0172565
0.0172762
0.0172955
0.0173147
0.0173335
0.0173514
0.017369
0.0173864
0.0174034
0.01742
0.0174361
0.017452
0.0174674
0.0174827
0.0174981
0.0175132
0.0175276
0.0175419
0.0175556
0.0175688
0.0175818
0.0175945
0.0176065
0.0176184
0.0176301
0.0176424
0.0176559
0.0176693
0.0176827
0.017696
0.0177092
0.0177225
0.0177359
0.0177489
0.0177617
0.0177746
0.0177871
0.0177999
0.0178123
0.0178246
0.0178369
0.0178492
0.0178614
0.0178735
0.0178857
0.0178979
0.0179102
0.0179222
0.0179346
0.0179472
0.0179601
0.0179733
0.0179869
0.0180011
0.018016
0.0180312
0.0180474
0.0180644
0.0180817
0.0181
0.018119
0.0181388
0.0181592
0.0181803
0.0182025
0.0182253
0.0182484
0.0182723
0.0182971
0.018322
0.0183475
0.0183735
0.0183995
0.0184258
0.0184525
0.0184792
0.0185057
0.0185323
0.0185591
0.0185858
0.0186123
0.0186392
0.0186658
0.0186925
0.0187196
0.0187468
0.0187743
0.0188017
0.0188291
0.0188565
0.0188844
0.0189124
0.0189407
0.0189689
0.0189968
0.0190249
0.0190527
0.0190802
0.0191079
0.0191356
0.0191631
0.0191901
0.019217
0.019244
0.0192707
0.0192971
0.0193236
0.0193499
0.0193759
0.0194022
0.0194283
0.0194542
0.01948
0.0195053
0.0195309
0.0195563
0.019598
0.0196429
0.0196871
0.0197314
0.0197751
0.0198176
0.0198597
0.0199012
0.0199415
0.0199813
0.0200205
0.020059
0.0200967
0.0201336
0.0201701
0.0202061
0.0202414
0.0202763
0.0203105
0.020344
0.0203772
0.0204096
0.020441
0.0204717
0.0205017
0.0205312
0.0205603
0.0205885
0.0206157
0.0206421
0.0206681
0.0206934
0.0207174
0.0207412
0.0207644
0.0207864
0.0208084
0.0208298
0.0208503
0.0208708
0.0208911
0.0209106
0.0209304
0.0209499
0.0209691
0.0209885
0.0210079
0.0210274
0.0210468
0.0210658
0.0210853
0.021105
0.0211243
0.0211443
0.0211649
0.0211862
0.0212074
0.0212294
0.0212517
0.0212742
0.021297
0.0213209
0.0213451
0.0213697
0.0213954
0.0214218
0.0214492
0.0214781
0.0215086
0.0215406
0.0215751
0.0216132
0.021653
0.0216982
0.0217422
0.0217957
0.0218432
0.0219059
0.0219551
0.0220248
0.0220697
0.0221615
0.0222213
0.0223175
0.0223494
0.0224067
0.0223732
0.0223316
0.0221828
0.0219635
0.0216445
0.0211768
0.0205353
0.0195919
0.0181936
0.0159808
0.0122108
0.00500633
0.000405
0.000405
0.000405
0.000405
0.000405
0.00040505
0.000405
0.000405
0.00040505
0.000405
)
;

boundaryField
{
    inlet
    {
        type            calculated;
        value           uniform 0;
    }
    endWall
    {
        type            calculated;
        value           uniform 0;
    }
    sideWall
    {
        type            empty;
    }
}


// ************************************************************************* //
