/*--------------------------------*- C++ -*----------------------------------*\
| =========                 |                                                 |
| \\      /  F ield         | foam-extend: Open Source CFD                    |
|  \\    /   O peration     | Version:     3.2                                |
|   \\  /    A nd           | Web:         http://www.foam-extend.org         |
|    \\/     M anipulation  | For copyright notice see file Copyright         |
\*---------------------------------------------------------------------------*/
FoamFile
{
    version     2.0;
    format      ascii;
    class       areaScalarField;
    location    "840";
    object      deltaH;
}
// * * * * * * * * * * * * * * * * * * * * * * * * * * * * * * * * * * * * * //

dimensions      [0 1 -1 0 0 0 0];

internalField   nonuniform List<scalar> 
550
(
0
0
0
0
0
0
0
0
0
0
0
-1.36449e-05
1.35588e-05
2.59423e-05
0
-1.90596e-05
-6.64932e-07
-2.51598e-05
-5.69084e-06
3.16598e-05
2.93565e-05
-3.22834e-05
-2.50191e-05
-9.09266e-07
1.83388e-05
2.5655e-05
7.17263e-06
-1.77163e-05
-2.59838e-05
1.99984e-05
6.13926e-06
-2.53581e-05
-1.45801e-06
2.32928e-05
7.83466e-06
-2.55644e-05
2.07103e-05
2.80821e-05
-1.45653e-05
-2.10156e-05
-4.57556e-07
-9.17468e-07
-1.40697e-06
-8.33369e-07
-1.79588e-07
-3.51878e-07
1.68612e-05
6.60362e-06
-1.71359e-05
-5.51561e-07
-1.57296e-07
4.72412e-07
6.03966e-07
6.09049e-07
1.8803e-07
4.38081e-08
-1.26546e-07
-1.4325e-07
-2.44922e-07
-3.89377e-07
-1.44253e-07
-1.73932e-08
1.52657e-07
1.97385e-07
2.37982e-07
1.73619e-07
1.16488e-07
2.2978e-08
-3.32662e-08
-7.38081e-08
-7.35064e-08
-4.17896e-08
-2.10066e-08
2.17869e-08
1.6658e-08
3.49936e-08
-3.88968e-09
-1.17053e-09
-3.98332e-08
-1.69559e-08
-3.99233e-08
6.81984e-10
-1.09655e-08
2.69504e-08
5.44947e-09
3.16727e-08
3.98129e-09
2.46466e-08
-1.68027e-09
1.71773e-08
-5.59628e-09
1.57629e-08
-2.57289e-09
1.65372e-08
-1.74791e-09
1.49235e-08
-7.22575e-09
1.5839e-09
-2.24505e-08
-1.43199e-08
-3.45617e-08
-2.1954e-08
-3.48999e-08
-1.60122e-08
-2.23042e-08
9.87389e-10
-4.25938e-09
1.65826e-08
5.74432e-09
1.96472e-08
1.4698e-09
1.03458e-08
-9.84719e-09
-4.95967e-10
-1.89941e-08
-6.40568e-09
-2.20704e-08
-6.63193e-09
-2.02955e-08
-3.23258e-09
-1.62426e-08
8.64352e-10
-1.26908e-08
3.537e-09
-1.08643e-08
4.55949e-09
-9.73982e-09
5.24337e-09
-8.86913e-09
5.47369e-09
-8.8498e-09
4.22044e-09
-1.07359e-08
8.03904e-10
-1.41126e-08
-3.35105e-09
-1.70094e-08
-6.12669e-09
-1.75871e-08
-6.12718e-09
-1.46977e-08
-2.41431e-09
-9.03761e-09
2.19783e-09
-4.81563e-09
3.57994e-09
-3.76564e-09
2.10251e-09
-5.01759e-09
-9.17667e-10
-6.75303e-09
-3.72921e-09
-7.50144e-09
-5.29961e-09
-7.39351e-09
-6.37115e-09
-6.50897e-09
-6.8059e-09
-4.72922e-09
-6.82343e-09
-3.40342e-09
-7.26918e-09
-2.34579e-09
-7.76029e-09
-1.17535e-09
-7.98678e-09
5.06552e-10
-7.61043e-09
2.9311e-09
-6.69813e-09
5.48566e-09
-6.14014e-09
6.87736e-09
-7.21599e-09
6.63839e-09
-9.66514e-09
5.09095e-09
-1.33936e-08
2.75443e-09
-1.73839e-08
1.00621e-09
-2.03468e-08
6.58365e-10
-2.16474e-08
2.18942e-09
-2.12544e-08
5.35715e-09
-2.03912e-08
9.03583e-09
-1.9963e-08
1.20216e-08
-2.07163e-08
1.37718e-08
-2.28344e-08
1.45386e-08
-2.54234e-08
1.52322e-08
-2.7685e-08
1.60672e-08
-2.96532e-08
1.69797e-08
-3.1109e-08
1.81996e-08
-3.17432e-08
1.96646e-08
-3.16144e-08
2.1019e-08
-3.07605e-08
2.18053e-08
-2.94443e-08
2.13581e-08
-2.76649e-08
1.98295e-08
-2.47724e-08
1.74914e-08
-2.08487e-08
1.39372e-08
-1.69965e-08
1.00713e-08
-1.37651e-08
7.35107e-09
-1.11512e-08
5.12757e-09
-9.35564e-09
3.20357e-09
-8.10699e-09
1.50254e-09
-7.45553e-09
-9.82205e-11
-7.00739e-09
-1.17126e-09
-6.59264e-09
-2.13084e-09
-6.46515e-09
-2.56249e-09
-5.63004e-09
-2.56083e-09
-4.84415e-09
-2.66167e-09
-4.3852e-09
-2.84174e-09
-4.1282e-09
-2.91988e-09
-3.60314e-09
-2.40139e-09
-2.55631e-09
-1.30379e-09
-1.24931e-09
-2.04993e-10
-1.28616e-11
1.04546e-09
1.56996e-09
2.88499e-09
3.70447e-09
5.06776e-09
5.88642e-09
6.9206e-09
7.29091e-09
7.92331e-09
8.23574e-09
8.88664e-09
9.17476e-09
9.63359e-09
9.68806e-09
9.87362e-09
9.66117e-09
9.60486e-09
9.3087e-09
9.28155e-09
9.06562e-09
9.0289e-09
8.77895e-09
8.70779e-09
8.49013e-09
8.54054e-09
8.37993e-09
8.4655e-09
8.32324e-09
8.38775e-09
8.26971e-09
8.28851e-09
7.97408e-09
7.7398e-09
7.2289e-09
6.86939e-09
6.28439e-09
5.89335e-09
5.32486e-09
5.03004e-09
4.54299e-09
4.27198e-09
3.74623e-09
3.42938e-09
2.89544e-09
2.64754e-09
2.38366e-09
2.51189e-09
2.57027e-09
2.9111e-09
3.04364e-09
3.36497e-09
3.49956e-09
3.89038e-09
4.03796e-09
4.21687e-09
3.96034e-09
3.72181e-09
3.1264e-09
2.68698e-09
2.10951e-09
1.80147e-09
1.34378e-09
1.09386e-09
6.1394e-10
2.49825e-10
-3.77087e-10
-8.86206e-10
-1.53584e-09
-1.93613e-09
-2.52635e-09
-2.93009e-09
-3.56901e-09
-4.04109e-09
-4.79004e-09
-5.37083e-09
-6.03446e-09
-6.2997e-09
-6.60185e-09
-6.57496e-09
-6.68003e-09
-6.61411e-09
-6.80439e-09
-6.89918e-09
-7.25111e-09
-7.47736e-09
-7.92909e-09
-8.25546e-09
-8.82344e-09
-9.25379e-09
-9.82647e-09
-1.00925e-08
-1.04454e-08
-1.05951e-08
-1.09403e-08
-1.11036e-08
-1.145e-08
-1.16504e-08
-1.2089e-08
-1.23264e-08
-1.26384e-08
-1.26209e-08
-1.26311e-08
-1.23203e-08
-1.20991e-08
-1.17206e-08
-1.16173e-08
-1.1369e-08
-1.12455e-08
-1.0852e-08
-1.05593e-08
-1.00258e-08
-9.56369e-09
-8.87948e-09
-8.29958e-09
-7.55766e-09
-7.00749e-09
-6.32647e-09
-5.84064e-09
-5.18512e-09
-4.70166e-09
-4.1117e-09
-3.75054e-09
-3.28251e-09
-3.02073e-09
-2.66697e-09
-2.54913e-09
-2.35661e-09
-2.35843e-09
-2.19271e-09
-2.13821e-09
-1.91147e-09
-1.80435e-09
-1.46366e-09
-1.10546e-09
-3.83236e-10
4.25347e-10
1.53285e-09
2.55613e-09
3.73286e-09
4.82778e-09
6.13821e-09
7.28723e-09
8.58579e-09
9.8179e-09
1.09636e-08
1.16701e-08
1.2149e-08
1.23412e-08
1.25393e-08
1.24613e-08
1.24787e-08
1.2329e-08
1.21921e-08
1.186e-08
1.16802e-08
1.13767e-08
1.12627e-08
1.1243e-08
1.15406e-08
1.18617e-08
1.23781e-08
1.28814e-08
1.35501e-08
1.41069e-08
1.47955e-08
1.53947e-08
1.60525e-08
1.65903e-08
1.70832e-08
1.72261e-08
1.72718e-08
1.70794e-08
1.68893e-08
1.65296e-08
1.62301e-08
1.57987e-08
1.53803e-08
1.49602e-08
1.48461e-08
1.47607e-08
1.47181e-08
1.46728e-08
1.49683e-08
1.51244e-08
1.52873e-08
1.54653e-08
1.55703e-08
1.53881e-08
1.51701e-08
1.47838e-08
1.42667e-08
1.35103e-08
1.24825e-08
1.11688e-08
9.64465e-09
7.85826e-09
6.14274e-09
4.43261e-09
2.70289e-09
1.05829e-09
-4.01312e-10
-1.82129e-09
-3.02947e-09
-4.04219e-09
-4.81157e-09
-5.15237e-09
-5.0058e-09
-4.38671e-09
-3.38478e-09
-2.10699e-09
-7.04372e-10
6.92797e-10
1.93051e-09
3.11911e-09
4.38003e-09
5.79937e-09
7.15614e-09
8.49297e-09
9.58396e-09
1.04445e-08
1.09397e-08
1.11788e-08
1.11001e-08
1.07725e-08
1.01271e-08
9.23003e-09
7.70408e-09
5.85144e-09
3.47476e-09
7.81213e-10
-2.29176e-09
-5.3956e-09
-8.75416e-09
-1.1822e-08
-1.45871e-08
-1.68644e-08
-1.87938e-08
-2.02353e-08
-2.13437e-08
-2.21255e-08
-2.2703e-08
-2.29836e-08
-2.3252e-08
-2.29211e-08
-2.24779e-08
-2.16618e-08
-2.09705e-08
-2.00308e-08
-1.94543e-08
-1.88516e-08
-1.86836e-08
-1.76506e-08
-1.75478e-08
-1.64443e-08
-1.63829e-08
-1.56579e-08
-1.54941e-08
-1.49614e-08
-1.46986e-08
-1.409e-08
-1.34592e-08
-1.26458e-08
-1.14252e-08
-1.04268e-08
-9.52654e-09
-8.2548e-09
-7.02195e-09
-5.64803e-09
-4.36888e-09
-3.01136e-09
-2.07963e-09
-7.56957e-10
-9.52725e-11
1.00652e-09
1.16486e-09
2.05308e-09
1.41072e-09
2.22053e-09
1.05889e-09
1.63705e-09
6.5132e-10
6.42559e-10
6.93906e-10
-1.75617e-10
1.7831e-09
1.77095e-10
5.72054e-09
2.92736e-09
1.70999e-08
0
0
0
0
0
0
0
0
0
0
0
)
;

boundaryField
{
    inlet
    {
        type            zeroGradient;
    }
    endWall
    {
        type            zeroGradient;
    }
    sideWall
    {
        type            empty;
    }
}


// ************************************************************************* //
