/*--------------------------------*- C++ -*----------------------------------*\
| =========                 |                                                 |
| \\      /  F ield         | foam-extend: Open Source CFD                    |
|  \\    /   O peration     | Version:     3.2                                |
|   \\  /    A nd           | Web:         http://www.foam-extend.org         |
|    \\/     M anipulation  | For copyright notice see file Copyright         |
\*---------------------------------------------------------------------------*/
FoamFile
{
    version     2.0;
    format      ascii;
    class       areaScalarField;
    location    "840";
    object      deltaHb;
}
// * * * * * * * * * * * * * * * * * * * * * * * * * * * * * * * * * * * * * //

dimensions      [0 1 -1 0 0 0 0];

internalField   nonuniform List<scalar> 
550
(
0
0
0
-1.67424e-08
-4.75095e-08
-7.14424e-08
-9.119e-08
-1.04547e-07
-1.07125e-07
-1.0755e-07
-9.4624e-08
-8.56122e-08
1.97242e-07
2.37459e-07
-2.95539e-07
-1.09643e-07
-2.90227e-09
-1.66332e-07
2.60166e-08
3.94438e-07
2.52321e-07
-3.4155e-07
-1.84552e-07
5.00424e-08
2.25508e-07
2.32336e-07
4.19967e-08
-2.08825e-07
-2.16269e-07
2.45816e-07
2.51377e-08
-2.13088e-07
2.10983e-08
2.65243e-07
1.73063e-08
-2.31106e-07
2.33083e-07
2.31103e-07
-1.99352e-07
-1.92417e-07
1.19321e-08
4.17093e-09
-1.42023e-09
6.01629e-09
1.00791e-08
8.10842e-09
1.7877e-07
9.50859e-09
-1.63191e-07
1.61312e-09
5.7178e-09
9.85161e-09
9.30369e-09
6.43496e-09
2.31977e-09
6.65219e-10
-1.06518e-09
-9.49231e-10
-2.66575e-09
-2.98341e-09
-3.08013e-10
9.54407e-10
2.05756e-09
2.48236e-09
2.35292e-09
1.63645e-09
8.10995e-10
-1.41498e-10
-5.39521e-10
-7.17101e-10
-5.29021e-10
-2.65074e-10
-1.08248e-10
6.86701e-11
1.99669e-10
2.82774e-10
1.37105e-10
-2.05812e-10
-2.49992e-10
-1.09563e-10
-1.90211e-10
-1.53946e-11
3.94548e-10
5.87841e-10
6.88569e-10
6.45083e-10
4.95321e-10
4.77937e-10
6.93296e-10
8.08849e-10
3.21027e-10
-1.11269e-11
4.66549e-11
9.9606e-11
5.6886e-11
8.31224e-12
-1.14477e-10
-2.54258e-10
-3.91779e-10
-4.74262e-10
-5.13594e-10
-5.08211e-10
-4.79881e-10
-4.29479e-10
-3.4873e-10
-2.54648e-10
-1.66455e-10
-1.06042e-10
-8.14747e-11
-9.97938e-11
-1.48798e-10
-2.11281e-10
-2.66805e-10
-3.12156e-10
-3.32256e-10
-3.39836e-10
-3.16751e-10
-2.88644e-10
-2.56104e-10
-2.18675e-10
-1.75995e-10
-1.39373e-10
-1.19859e-10
-1.09444e-10
-1.08367e-10
-1.04236e-10
-1.02598e-10
-9.66587e-11
-9.6639e-11
-9.21683e-11
-9.87591e-11
-9.93555e-11
-1.15785e-10
-1.22462e-10
-1.41018e-10
-1.42458e-10
-1.52794e-10
-1.40996e-10
-1.38187e-10
-1.10905e-10
-9.05156e-11
-4.74235e-11
-2.29743e-11
1.16127e-11
1.61625e-11
3.40913e-11
2.33615e-11
3.15899e-11
1.29227e-11
2.13594e-11
4.76093e-12
1.93333e-11
1.21194e-11
3.4845e-11
2.85526e-11
5.57782e-11
5.38921e-11
8.28663e-11
8.34559e-11
1.1161e-10
1.08817e-10
1.31194e-10
1.24779e-10
1.48852e-10
1.42748e-10
1.70147e-10
1.63571e-10
1.91619e-10
1.8984e-10
2.16517e-10
2.10837e-10
2.34823e-10
2.209e-10
2.35343e-10
2.13506e-10
2.21245e-10
1.96688e-10
2.03005e-10
1.76952e-10
1.85259e-10
1.63402e-10
1.83931e-10
1.61358e-10
1.9907e-10
1.63893e-10
2.40223e-10
1.5038e-10
2.86147e-10
9.39062e-11
2.66588e-10
3.71275e-11
2.24188e-10
-1.05672e-11
1.83213e-10
-5.53007e-11
1.52804e-10
-8.84056e-11
1.32444e-10
-1.10007e-10
1.15404e-10
-1.20912e-10
1.10089e-10
-1.18879e-10
1.09539e-10
-9.09394e-11
1.15989e-10
-3.80138e-11
1.19869e-10
4.1535e-11
1.26554e-10
1.63522e-10
1.31314e-10
3.13929e-10
1.40143e-10
5.06844e-10
1.57857e-10
5.96711e-10
1.76942e-10
5.53642e-10
1.8839e-10
4.80294e-10
1.93801e-10
4.25795e-10
2.09487e-10
3.85107e-10
2.20984e-10
3.56636e-10
2.32017e-10
3.28811e-10
2.31908e-10
3.14785e-10
2.40528e-10
2.99333e-10
2.39491e-10
2.93691e-10
2.52095e-10
2.94643e-10
2.65466e-10
2.97556e-10
2.67636e-10
2.96836e-10
2.77106e-10
2.8945e-10
2.83309e-10
2.95397e-10
2.86076e-10
2.93638e-10
2.92438e-10
2.97789e-10
2.88356e-10
2.9717e-10
2.90983e-10
2.99797e-10
2.95223e-10
3.01655e-10
2.95304e-10
2.95705e-10
2.92047e-10
2.81958e-10
2.75379e-10
2.71693e-10
2.64968e-10
2.58738e-10
2.4798e-10
2.44946e-10
2.34064e-10
2.2128e-10
2.15754e-10
2.0445e-10
1.99466e-10
1.88485e-10
1.8119e-10
1.76372e-10
1.72384e-10
1.6247e-10
1.56032e-10
1.51821e-10
1.44266e-10
1.46142e-10
1.41423e-10
1.35239e-10
1.25548e-10
1.23875e-10
1.15296e-10
1.03093e-10
1.00642e-10
8.9302e-11
8.61016e-11
7.73292e-11
7.43757e-11
6.74975e-11
6.42735e-11
5.69371e-11
5.40532e-11
4.89344e-11
4.89068e-11
4.71821e-11
4.96545e-11
5.03752e-11
5.35676e-11
5.33454e-11
5.69174e-11
5.75423e-11
6.07133e-11
5.95191e-11
6.01631e-11
5.80137e-11
4.7392e-11
5.0481e-11
4.30311e-11
4.73156e-11
4.27104e-11
4.81847e-11
4.58406e-11
4.30553e-11
4.59452e-11
4.54667e-11
4.31729e-11
4.4352e-11
4.24419e-11
5.08775e-11
5.27074e-11
5.45199e-11
5.58041e-11
5.74808e-11
6.15588e-11
6.65619e-11
7.4202e-11
8.2261e-11
9.24469e-11
9.38738e-11
1.00334e-10
1.06613e-10
1.14396e-10
1.13035e-10
1.19402e-10
1.18851e-10
1.24585e-10
1.24413e-10
1.31267e-10
1.35555e-10
1.35947e-10
1.4844e-10
1.51811e-10
1.54772e-10
1.6425e-10
1.69917e-10
1.6999e-10
1.73025e-10
1.81241e-10
1.85542e-10
1.95374e-10
2.00909e-10
2.10369e-10
2.14225e-10
2.19464e-10
2.2127e-10
2.25792e-10
2.27549e-10
2.23609e-10
2.32608e-10
2.29719e-10
2.38767e-10
2.39043e-10
2.3858e-10
2.45289e-10
2.47688e-10
2.45452e-10
2.45885e-10
2.52411e-10
2.5488e-10
2.52909e-10
2.53812e-10
2.49759e-10
2.58016e-10
2.55957e-10
2.51308e-10
2.54509e-10
2.49588e-10
2.51487e-10
2.46114e-10
2.44131e-10
2.4766e-10
2.3833e-10
2.39459e-10
2.39118e-10
2.38471e-10
2.36969e-10
2.31704e-10
2.33337e-10
2.29879e-10
2.21019e-10
2.1231e-10
2.10103e-10
2.00564e-10
1.83694e-10
1.74564e-10
1.57307e-10
1.38019e-10
1.27864e-10
1.10804e-10
9.34173e-11
7.6699e-11
6.7655e-11
5.50254e-11
3.94969e-11
3.79077e-11
2.97733e-11
2.21102e-11
2.42266e-11
2.12415e-11
2.46012e-11
2.07829e-11
2.4357e-11
2.01861e-11
2.1745e-11
1.74821e-11
1.5891e-11
1.88422e-11
5.96918e-12
2.92112e-12
-9.32825e-13
-1.28662e-11
-2.0102e-11
-2.26557e-11
-2.56392e-11
-3.71674e-11
-4.15951e-11
-3.96076e-11
-3.69339e-11
-4.25953e-11
-4.23808e-11
-3.37234e-11
-3.97658e-11
-3.50369e-11
-2.91111e-11
-3.4191e-11
-3.30085e-11
-4.01964e-11
-4.29035e-11
-4.07039e-11
-5.41864e-11
-5.72496e-11
-7.39207e-11
-8.15845e-11
-8.69384e-11
-1.00985e-10
-1.15823e-10
-1.17586e-10
-1.2583e-10
-1.34677e-10
-1.27941e-10
-1.27881e-10
-1.25791e-10
-1.19365e-10
-1.09071e-10
-9.33214e-11
-7.41095e-11
-5.15013e-11
-2.81068e-11
-3.89638e-12
1.94364e-11
4.21957e-11
4.94501e-11
6.6393e-11
8.624e-11
1.02522e-10
1.19318e-10
1.34107e-10
1.32341e-10
1.37114e-10
1.43206e-10
1.47039e-10
1.36433e-10
1.34902e-10
1.363e-10
1.16494e-10
1.09139e-10
1.01297e-10
7.82421e-11
6.41758e-11
5.6955e-11
3.32688e-11
2.53076e-11
2.51794e-11
1.46412e-11
1.79991e-11
3.27231e-11
3.08347e-11
4.57511e-11
4.85495e-11
6.25584e-11
8.06527e-11
8.69252e-11
1.04347e-10
1.25011e-10
1.45202e-10
1.51818e-10
1.63288e-10
1.79556e-10
1.7047e-10
1.34382e-10
9.69541e-11
7.07398e-11
5.48815e-11
2.60394e-11
2.309e-12
-5.16135e-12
-3.59242e-11
-4.89239e-11
-6.16529e-11
-6.88826e-11
-9.43741e-11
-9.148e-11
-1.17031e-10
-1.29865e-10
-1.01195e-10
-2.12511e-10
-6.82939e-12
-4.59329e-10
3.19934e-10
-1.12674e-09
7.18759e-10
-2.28661e-09
6.55554e-10
-3.42344e-09
5.32601e-10
-4.16087e-09
2.70705e-10
-3.92426e-09
-2.34595e-10
-1.83922e-09
-1.16411e-09
-1.60189e-09
-2.7542e-09
-5.08097e-09
-5.49248e-09
-1.0938e-08
-5.61934e-09
1.51809e-07
1.29595e-07
0
0
0
0
0
0
0
0
0
)
;

boundaryField
{
    inlet
    {
        type            zeroGradient;
    }
    endWall
    {
        type            zeroGradient;
    }
    sideWall
    {
        type            empty;
    }
}


// ************************************************************************* //
