/*--------------------------------*- C++ -*----------------------------------*\
| =========                 |                                                 |
| \\      /  F ield         | foam-extend: Open Source CFD                    |
|  \\    /   O peration     | Version:     3.2                                |
|   \\  /    A nd           | Web:         http://www.foam-extend.org         |
|    \\/     M anipulation  | For copyright notice see file Copyright         |
\*---------------------------------------------------------------------------*/
FoamFile
{
    version     2.0;
    format      ascii;
    class       areaScalarField;
    location    "840";
    object      deltaHs1;
}
// * * * * * * * * * * * * * * * * * * * * * * * * * * * * * * * * * * * * * //

dimensions      [0 1 -1 0 0 0 0];

internalField   nonuniform List<scalar> 
550
(
6.39519e-08
5.99002e-08
5.40357e-08
4.61652e-08
3.62386e-08
2.44762e-08
1.1779e-08
-2.63095e-09
-1.6634e-08
-2.89593e-08
-4.21065e-08
-5.08372e-08
-6.16546e-08
2.19639e-08
2.20839e-08
-8.09531e-08
-3.74706e-09
-8.52659e-08
-8.2925e-08
-7.784e-08
4.12443e-08
1.87161e-08
-6.56395e-08
-5.91351e-08
-4.21205e-08
2.42138e-08
2.97296e-08
3.16613e-08
-4.3569e-08
-4.58313e-08
3.62549e-08
-4.04929e-08
-3.56784e-08
-3.23152e-08
6.10403e-08
-2.45379e-08
-2.59801e-08
4.97179e-08
5.36987e-08
-1.77389e-08
-1.65077e-08
-1.33456e-08
-1.26495e-08
-1.435e-08
-1.18749e-08
-1.16272e-08
-1.01587e-08
5.65276e-08
-8.16889e-09
-7.12873e-09
-7.29077e-09
-5.12749e-09
-3.26403e-09
-3.44471e-10
-4.39463e-10
-2.27139e-10
-2.00279e-10
-4.83269e-10
2.16538e-10
-9.1036e-10
-1.13451e-09
-1.12834e-09
-5.30984e-10
-5.08516e-10
2.68999e-11
9.97449e-11
3.53883e-10
3.71278e-10
2.06859e-10
-2.09808e-11
-2.06043e-10
-1.52822e-10
-1.01818e-10
1.49199e-10
-3.3089e-11
6.71613e-11
-1.76002e-10
1.94107e-10
-1.48341e-10
-5.9996e-11
-2.09022e-10
2.22144e-11
-5.04203e-10
-3.18337e-10
-6.34075e-10
-3.28356e-10
-4.55508e-10
-2.31471e-10
-7.10099e-10
-6.37076e-10
-3.76989e-10
1.68756e-10
-7.23838e-11
6.57658e-11
-7.4365e-11
1.40923e-10
4.22199e-11
2.70097e-10
1.67275e-10
3.31063e-10
1.67978e-10
2.88671e-10
1.30882e-10
2.69357e-10
1.25689e-10
2.64522e-10
1.23861e-10
2.71868e-10
1.38918e-10
2.96265e-10
1.63496e-10
3.14739e-10
1.68333e-10
3.07197e-10
1.42314e-10
2.7578e-10
9.60465e-11
2.22324e-10
5.31493e-11
1.86349e-10
1.35694e-11
1.48016e-10
-7.04915e-12
1.44814e-10
-2.76433e-13
1.49831e-10
5.19963e-12
1.49092e-10
7.94769e-12
1.46905e-10
1.02611e-11
1.4156e-10
8.42615e-12
1.30502e-10
-1.08324e-13
1.08947e-10
-1.73001e-11
7.97286e-11
-3.76842e-11
4.96329e-11
-5.64619e-11
2.32804e-11
-6.74018e-11
1.03656e-11
-6.43188e-11
1.70805e-12
-6.10178e-11
-1.05648e-11
-6.30986e-11
-3.0536e-11
-7.22913e-11
-5.66254e-11
-8.71338e-11
-8.78412e-11
-1.02488e-10
-1.1949e-10
-1.18982e-10
-1.50925e-10
-1.30748e-10
-1.79844e-10
-1.42852e-10
-2.03886e-10
-1.48237e-10
-2.26455e-10
-1.54501e-10
-2.50015e-10
-1.58505e-10
-2.67723e-10
-1.60529e-10
-2.83498e-10
-1.5598e-10
-2.96225e-10
-1.52126e-10
-3.07503e-10
-1.47123e-10
-3.17896e-10
-1.45778e-10
-3.36941e-10
-1.49408e-10
-3.59097e-10
-1.5334e-10
-3.87399e-10
-1.54775e-10
-4.15545e-10
-1.41999e-10
-4.52767e-10
-9.68088e-11
-4.90059e-10
-3.5479e-12
-4.66217e-10
8.30885e-11
-4.31351e-10
1.48285e-10
-4.11558e-10
2.00686e-10
-4.07038e-10
2.40728e-10
-4.09293e-10
2.70679e-10
-4.11937e-10
2.90709e-10
-4.2118e-10
3.00875e-10
-4.26971e-10
2.87585e-10
-4.32133e-10
2.48204e-10
-4.27474e-10
1.76518e-10
-4.20997e-10
5.00592e-11
-4.07963e-10
-1.15635e-10
-3.87867e-10
-3.3193e-10
-3.66344e-10
-4.5734e-10
-3.46907e-10
-4.52929e-10
-3.26041e-10
-4.06783e-10
-3.05313e-10
-3.7452e-10
-3.03043e-10
-3.53072e-10
-3.02054e-10
-3.4161e-10
-3.06573e-10
-3.29793e-10
-3.01982e-10
-3.26498e-10
-3.06455e-10
-3.20641e-10
-3.04143e-10
-3.19316e-10
-3.08396e-10
-3.20251e-10
-3.13908e-10
-3.24172e-10
-3.11488e-10
-3.25253e-10
-3.18388e-10
-3.18649e-10
-3.1934e-10
-3.19411e-10
-3.11639e-10
-3.06676e-10
-3.04932e-10
-2.99839e-10
-2.88484e-10
-2.86715e-10
-2.75283e-10
-2.70948e-10
-2.58178e-10
-2.50978e-10
-2.3644e-10
-2.26499e-10
-2.19138e-10
-2.02725e-10
-1.93021e-10
-1.82827e-10
-1.7322e-10
-1.62402e-10
-1.511e-10
-1.4621e-10
-1.37452e-10
-1.25232e-10
-1.22667e-10
-1.11635e-10
-1.0881e-10
-9.81965e-11
-9.34002e-11
-8.92944e-11
-8.74823e-11
-7.70649e-11
-7.22326e-11
-6.71657e-11
-6.10339e-11
-6.22649e-11
-5.87264e-11
-5.23535e-11
-4.58068e-11
-4.64772e-11
-4.30071e-11
-3.43995e-11
-3.77985e-11
-3.03685e-11
-3.2853e-11
-2.70288e-11
-2.89458e-11
-2.47776e-11
-2.68112e-11
-2.26434e-11
-2.50988e-11
-2.2459e-11
-2.50701e-11
-2.20632e-11
-2.39517e-11
-2.12641e-11
-2.31312e-11
-1.96957e-11
-2.19218e-11
-1.86385e-11
-2.03337e-11
-1.73504e-11
-2.05597e-11
-2.07955e-11
-1.6128e-11
-2.36112e-11
-2.1936e-11
-2.93008e-11
-2.92726e-11
-3.7246e-11
-3.97012e-11
-4.05571e-11
-4.9716e-11
-5.43288e-11
-5.85312e-11
-6.37133e-11
-6.77054e-11
-8.01784e-11
-8.83975e-11
-9.49307e-11
-1.03704e-10
-1.11189e-10
-1.21903e-10
-1.29559e-10
-1.40221e-10
-1.48011e-10
-1.59247e-10
-1.60015e-10
-1.68378e-10
-1.75604e-10
-1.86907e-10
-1.87808e-10
-1.98693e-10
-2.01406e-10
-2.1282e-10
-2.16951e-10
-2.29531e-10
-2.3648e-10
-2.40401e-10
-2.54391e-10
-2.61214e-10
-2.65808e-10
-2.7875e-10
-2.8642e-10
-2.9088e-10
-2.96289e-10
-3.07625e-10
-3.11751e-10
-3.21685e-10
-3.24113e-10
-3.3136e-10
-3.31431e-10
-3.35636e-10
-3.34959e-10
-3.38247e-10
-3.36069e-10
-3.29201e-10
-3.32866e-10
-3.25356e-10
-3.27561e-10
-3.22039e-10
-3.14156e-10
-3.15363e-10
-3.10952e-10
-3.03858e-10
-2.97736e-10
-2.99428e-10
-2.95997e-10
-2.90414e-10
-2.86637e-10
-2.79966e-10
-2.84686e-10
-2.81448e-10
-2.74874e-10
-2.78093e-10
-2.71515e-10
-2.72869e-10
-2.65228e-10
-2.62174e-10
-2.62297e-10
-2.49384e-10
-2.43291e-10
-2.34864e-10
-2.23143e-10
-2.11408e-10
-1.94376e-10
-1.85059e-10
-1.68497e-10
-1.48146e-10
-1.26452e-10
-1.11924e-10
-9.09285e-11
-6.69929e-11
-5.30748e-11
-3.38951e-11
-1.26257e-11
-3.25158e-12
1.39824e-11
2.98732e-11
4.52219e-11
5.09446e-11
6.17763e-11
7.42697e-11
7.47196e-11
8.26569e-11
9.32961e-11
9.43907e-11
1.02539e-10
1.04213e-10
1.14718e-10
1.16712e-10
1.27769e-10
1.32202e-10
1.43043e-10
1.50012e-10
1.5199e-10
1.66292e-10
1.69797e-10
1.71727e-10
1.81759e-10
1.85398e-10
1.84957e-10
1.83626e-10
1.90971e-10
1.91197e-10
1.88068e-10
1.84541e-10
1.89777e-10
1.89108e-10
1.83407e-10
1.9101e-10
1.8791e-10
1.83765e-10
1.89894e-10
1.8689e-10
1.91897e-10
1.90741e-10
1.83371e-10
1.8929e-10
1.82075e-10
1.85608e-10
1.78031e-10
1.65521e-10
1.62413e-10
1.6015e-10
1.44615e-10
1.36413e-10
1.30664e-10
1.09728e-10
9.75861e-11
8.53689e-11
7.12498e-11
5.75475e-11
4.32634e-11
3.02425e-11
1.76535e-11
7.03688e-12
-3.14734e-12
-1.25084e-11
-2.28906e-11
-1.8259e-11
-2.25927e-11
-2.82463e-11
-3.09606e-11
-3.43885e-11
-3.82676e-11
-2.78966e-11
-2.77177e-11
-3.14177e-11
-3.60381e-11
-2.87086e-11
-3.36308e-11
-4.39994e-11
-3.94529e-11
-5.06247e-11
-6.65493e-11
-7.04299e-11
-8.70934e-11
-1.10911e-10
-1.2081e-10
-1.43527e-10
-1.71051e-10
-1.83285e-10
-2.05937e-10
-2.35076e-10
-2.44272e-10
-2.67006e-10
-2.75579e-10
-2.92394e-10
-3.13173e-10
-3.16136e-10
-3.29126e-10
-3.41629e-10
-3.54907e-10
-3.52127e-10
-3.57831e-10
-3.68072e-10
-3.57306e-10
-3.10888e-10
-2.72432e-10
-2.35183e-10
-2.1871e-10
-1.82619e-10
-1.5725e-10
-1.44453e-10
-1.11062e-10
-9.19757e-11
-7.29391e-11
-5.75752e-11
-1.98778e-11
-1.27877e-11
2.17654e-11
4.73166e-11
3.09754e-11
1.5603e-10
-3.68594e-11
4.29215e-10
-3.40731e-10
1.11917e-09
-7.19711e-10
2.29668e-09
-6.43905e-10
3.44397e-09
-5.18494e-10
4.18307e-09
-2.60116e-10
3.94063e-09
2.41108e-10
1.84564e-09
1.17105e-09
1.60013e-09
2.77203e-09
5.08274e-09
5.54969e-09
1.09673e-08
5.79034e-09
-4.31437e-08
5.47463e-08
4.79387e-08
5.45765e-08
5.54425e-08
5.79676e-08
5.88869e-08
6.05518e-08
6.01767e-08
6.08625e-08
5.7661e-08
)
;

boundaryField
{
    inlet
    {
        type            zeroGradient;
    }
    endWall
    {
        type            zeroGradient;
    }
    sideWall
    {
        type            empty;
    }
}


// ************************************************************************* //
