/*--------------------------------*- C++ -*----------------------------------*\
| =========                 |                                                 |
| \\      /  F ield         | foam-extend: Open Source CFD                    |
|  \\    /   O peration     | Version:     3.2                                |
|   \\  /    A nd           | Web:         http://www.foam-extend.org         |
|    \\/     M anipulation  | For copyright notice see file Copyright         |
\*---------------------------------------------------------------------------*/
FoamFile
{
    version     2.0;
    format      ascii;
    class       volScalarField;
    location    "840";
    object      DiSSt;
}
// * * * * * * * * * * * * * * * * * * * * * * * * * * * * * * * * * * * * * //

dimensions      [0 2 -1 0 0 0 0];

internalField   nonuniform List<scalar> 
33000
(
7.23147e-06
8.54163e-06
9.88482e-06
1.12317e-05
1.25489e-05
1.38031e-05
1.49687e-05
1.60211e-05
1.69478e-05
1.77242e-05
1.83298e-05
1.86841e-05
1.88116e-05
1.87918e-05
1.8664e-05
1.85613e-05
1.84078e-05
1.82089e-05
1.80127e-05
1.79069e-05
1.67627e-05
1.64635e-05
1.69642e-05
1.51741e-05
1.52476e-05
1.54426e-05
1.51993e-05
1.43464e-05
1.42926e-05
1.43338e-05
1.36901e-05
1.38771e-05
1.38108e-05
1.23003e-05
1.16695e-05
1.27089e-05
1.42245e-05
1.4757e-05
1.35522e-05
1.20816e-05
1.08832e-05
1.06369e-05
1.12589e-05
1.21127e-05
1.32129e-05
1.33669e-05
1.26191e-05
1.16762e-05
1.12701e-05
1.14131e-05
1.191e-05
1.21812e-05
1.2474e-05
1.23759e-05
1.22457e-05
1.20685e-05
1.20158e-05
1.20785e-05
1.22936e-05
1.25068e-05
1.26402e-05
1.28101e-05
1.30113e-05
1.30543e-05
1.31012e-05
1.29666e-05
1.29106e-05
1.28672e-05
1.28654e-05
1.28861e-05
1.29169e-05
1.29868e-05
1.31064e-05
1.32517e-05
1.33607e-05
1.34123e-05
1.34206e-05
1.34322e-05
1.34629e-05
1.34698e-05
1.34923e-05
1.35699e-05
1.36089e-05
1.36452e-05
1.36353e-05
1.37058e-05
1.37325e-05
1.38198e-05
1.37314e-05
1.3662e-05
1.36303e-05
1.37599e-05
1.37615e-05
1.38136e-05
1.38337e-05
1.38602e-05
1.38697e-05
1.39107e-05
1.39385e-05
1.39842e-05
1.40205e-05
1.40667e-05
1.41027e-05
1.41685e-05
1.42149e-05
1.42841e-05
1.43316e-05
1.43946e-05
1.44375e-05
1.44887e-05
1.45208e-05
1.45641e-05
1.4585e-05
1.46249e-05
1.46441e-05
1.46851e-05
1.4707e-05
1.47465e-05
1.47672e-05
1.4806e-05
1.48269e-05
1.48611e-05
1.48781e-05
1.49082e-05
1.4924e-05
1.49555e-05
1.49714e-05
1.50002e-05
1.50148e-05
1.50394e-05
1.50518e-05
1.50729e-05
1.50837e-05
1.51038e-05
1.51146e-05
1.51352e-05
1.51462e-05
1.51675e-05
1.51793e-05
1.52003e-05
1.52134e-05
1.52314e-05
1.52435e-05
1.52534e-05
1.52635e-05
1.52705e-05
1.52785e-05
1.52842e-05
1.52913e-05
1.5297e-05
1.53014e-05
1.53106e-05
1.53143e-05
1.53227e-05
1.53258e-05
1.5334e-05
1.53368e-05
1.53426e-05
1.53482e-05
1.53484e-05
1.53569e-05
1.5357e-05
1.53664e-05
1.53678e-05
1.53761e-05
1.53792e-05
1.53856e-05
1.539e-05
1.5396e-05
1.53994e-05
1.54069e-05
1.54077e-05
1.54148e-05
1.54124e-05
1.54202e-05
1.54153e-05
1.5424e-05
1.54175e-05
1.54259e-05
1.54216e-05
1.54319e-05
1.543e-05
1.54425e-05
1.54406e-05
1.54583e-05
1.54515e-05
1.54757e-05
1.54607e-05
1.54895e-05
1.54741e-05
1.55036e-05
1.54885e-05
1.55187e-05
1.55023e-05
1.55335e-05
1.55164e-05
1.55493e-05
1.55316e-05
1.5566e-05
1.55477e-05
1.55833e-05
1.55651e-05
1.5601e-05
1.55844e-05
1.56173e-05
1.56041e-05
1.56324e-05
1.5623e-05
1.56431e-05
1.5643e-05
1.56507e-05
1.56611e-05
1.56568e-05
1.56804e-05
1.56603e-05
1.56952e-05
1.56688e-05
1.57078e-05
1.56866e-05
1.57219e-05
1.57085e-05
1.57392e-05
1.573e-05
1.57585e-05
1.5755e-05
1.57802e-05
1.57799e-05
1.58027e-05
1.58049e-05
1.58225e-05
1.58243e-05
1.58394e-05
1.58349e-05
1.58521e-05
1.5854e-05
1.58612e-05
1.58738e-05
1.58774e-05
1.58984e-05
1.58976e-05
1.59206e-05
1.59181e-05
1.59392e-05
1.59393e-05
1.59617e-05
1.59617e-05
1.59803e-05
1.5985e-05
1.60028e-05
1.60072e-05
1.6024e-05
1.60303e-05
1.60462e-05
1.60542e-05
1.60691e-05
1.60783e-05
1.60912e-05
1.61028e-05
1.61138e-05
1.61266e-05
1.61379e-05
1.61511e-05
1.61623e-05
1.61747e-05
1.61873e-05
1.61999e-05
1.6211e-05
1.62238e-05
1.6235e-05
1.62479e-05
1.62589e-05
1.62708e-05
1.62826e-05
1.62965e-05
1.63072e-05
1.63196e-05
1.633e-05
1.63403e-05
1.63527e-05
1.63645e-05
1.63656e-05
1.63661e-05
1.63667e-05
1.63673e-05
1.63679e-05
1.63687e-05
1.63694e-05
1.63703e-05
1.63712e-05
1.6372e-05
1.63728e-05
1.63738e-05
1.63747e-05
1.63755e-05
1.63763e-05
1.63772e-05
1.63781e-05
1.63787e-05
1.63792e-05
1.63798e-05
1.63803e-05
1.63807e-05
1.6381e-05
1.63812e-05
1.63812e-05
1.63812e-05
1.63812e-05
1.63812e-05
1.63813e-05
1.63812e-05
1.63812e-05
1.6381e-05
1.63808e-05
1.63804e-05
1.63802e-05
1.63799e-05
1.63795e-05
1.6379e-05
1.63784e-05
1.63778e-05
1.63772e-05
1.63763e-05
1.63756e-05
1.63748e-05
1.63737e-05
1.63727e-05
1.63716e-05
1.63703e-05
1.63691e-05
1.63676e-05
1.63659e-05
1.63644e-05
1.63627e-05
1.63609e-05
1.63589e-05
1.63568e-05
1.63548e-05
1.63527e-05
1.63505e-05
1.63483e-05
1.63458e-05
1.63434e-05
1.63408e-05
1.63381e-05
1.63355e-05
1.63327e-05
1.63298e-05
1.63269e-05
1.6324e-05
1.63211e-05
1.63181e-05
1.6315e-05
1.63118e-05
1.63087e-05
1.63056e-05
1.63024e-05
1.62992e-05
1.62962e-05
1.62931e-05
1.62901e-05
1.6287e-05
1.62838e-05
1.62806e-05
1.62773e-05
1.6274e-05
1.62707e-05
1.62674e-05
1.6264e-05
1.62607e-05
1.62575e-05
1.62541e-05
1.62509e-05
1.62476e-05
1.62442e-05
1.62409e-05
1.62377e-05
1.62347e-05
1.62318e-05
1.6229e-05
1.62264e-05
1.6224e-05
1.62217e-05
1.62197e-05
1.62177e-05
1.6216e-05
1.62145e-05
1.62129e-05
1.62116e-05
1.62106e-05
1.62095e-05
1.62086e-05
1.62079e-05
1.62075e-05
1.62071e-05
1.62068e-05
1.62068e-05
1.6207e-05
1.62071e-05
1.62074e-05
1.62081e-05
1.62089e-05
1.62097e-05
1.62108e-05
1.6212e-05
1.62131e-05
1.62143e-05
1.62157e-05
1.62172e-05
1.62188e-05
1.62202e-05
1.62216e-05
1.62231e-05
1.62246e-05
1.62261e-05
1.62277e-05
1.62292e-05
1.62307e-05
1.62322e-05
1.62338e-05
1.62353e-05
1.62371e-05
1.62388e-05
1.62405e-05
1.62424e-05
1.62442e-05
1.62461e-05
1.6248e-05
1.625e-05
1.6252e-05
1.62539e-05
1.62559e-05
1.62579e-05
1.62598e-05
1.62616e-05
1.62635e-05
1.62653e-05
1.62671e-05
1.62689e-05
1.62707e-05
1.62726e-05
1.62744e-05
1.62762e-05
1.62782e-05
1.62802e-05
1.62823e-05
1.62844e-05
1.62865e-05
1.62888e-05
1.62911e-05
1.62932e-05
1.62954e-05
1.62975e-05
1.62995e-05
1.63013e-05
1.6303e-05
1.63046e-05
1.63058e-05
1.63068e-05
1.63075e-05
1.63078e-05
1.63079e-05
1.63077e-05
1.63072e-05
1.63065e-05
1.63057e-05
1.63045e-05
1.63031e-05
1.63016e-05
1.62999e-05
1.6298e-05
1.62962e-05
1.62942e-05
1.6292e-05
1.62897e-05
1.62877e-05
1.62858e-05
1.62837e-05
1.62818e-05
1.62799e-05
1.62781e-05
1.62767e-05
1.62752e-05
1.6274e-05
1.6273e-05
1.6272e-05
1.62711e-05
1.62702e-05
1.62693e-05
1.62685e-05
1.62677e-05
1.62667e-05
1.62658e-05
1.62646e-05
1.62634e-05
1.62622e-05
1.62609e-05
1.62595e-05
1.62581e-05
1.62568e-05
1.62555e-05
1.62545e-05
1.62537e-05
1.62532e-05
1.6253e-05
1.62531e-05
1.62537e-05
1.62543e-05
1.62553e-05
1.62566e-05
1.62581e-05
1.62598e-05
1.6262e-05
1.62641e-05
1.62668e-05
1.62692e-05
1.62729e-05
1.62751e-05
1.62801e-05
1.62822e-05
1.62885e-05
1.62911e-05
1.62981e-05
1.63034e-05
1.63098e-05
1.63188e-05
1.63237e-05
1.63339e-05
1.63328e-05
1.63372e-05
1.63255e-05
1.63126e-05
1.62886e-05
1.62418e-05
1.61958e-05
1.61011e-05
1.59876e-05
1.55529e-05
1.53651e-05
1.1993e-05
1.04015e-05
9.33013e-06
7.67376e-06
8.10918e-06
6.94071e-06
6.87837e-06
6.44137e-06
5.4186e-06
5.68507e-06
7.09922e-06
2.98722e-05
5.27432e-05
3.20791e-05
2.33204e-05
1.87509e-05
1.60532e-05
1.4423e-05
1.33844e-05
1.27246e-05
1.22918e-05
1.21301e-05
1.20685e-05
1.22625e-05
1.25105e-05
1.28384e-05
1.31288e-05
1.34434e-05
1.38315e-05
1.42657e-05
1.47435e-05
1.51807e-05
1.56853e-05
1.62986e-05
1.68827e-05
1.75995e-05
1.81885e-05
1.87785e-05
1.93482e-05
1.99206e-05
2.04833e-05
2.11878e-05
2.09641e-05
2.19573e-05
2.2231e-05
2.08001e-05
2.05927e-05
2.23323e-05
2.41664e-05
2.53425e-05
2.48351e-05
2.35557e-05
2.22079e-05
2.19413e-05
2.29188e-05
2.40515e-05
2.59299e-05
2.67735e-05
2.61515e-05
2.53034e-05
2.48295e-05
2.51499e-05
2.5914e-05
2.66976e-05
2.74769e-05
2.78284e-05
2.78871e-05
2.77273e-05
2.76864e-05
2.77488e-05
2.80102e-05
2.83862e-05
2.87104e-05
2.91735e-05
2.97387e-05
2.99883e-05
3.02945e-05
3.03057e-05
3.03789e-05
3.04111e-05
3.04729e-05
3.05204e-05
3.06262e-05
3.07836e-05
3.1089e-05
3.14135e-05
3.1696e-05
3.18837e-05
3.19732e-05
3.21102e-05
3.22354e-05
3.22976e-05
3.23681e-05
3.25737e-05
3.26518e-05
3.27718e-05
3.2794e-05
3.29826e-05
3.31017e-05
3.33407e-05
3.32927e-05
3.32145e-05
3.32435e-05
3.36247e-05
3.37069e-05
3.38215e-05
3.3899e-05
3.39783e-05
3.4047e-05
3.41432e-05
3.42007e-05
3.43098e-05
3.43671e-05
3.4457e-05
3.45039e-05
3.45971e-05
3.46567e-05
3.47459e-05
3.48073e-05
3.4892e-05
3.49695e-05
3.50646e-05
3.51285e-05
3.52221e-05
3.52516e-05
3.53165e-05
3.53484e-05
3.54111e-05
3.54412e-05
3.54947e-05
3.5516e-05
3.5567e-05
3.55867e-05
3.56275e-05
3.56407e-05
3.56786e-05
3.56966e-05
3.57421e-05
3.57656e-05
3.58101e-05
3.58338e-05
3.58745e-05
3.5897e-05
3.59341e-05
3.5956e-05
3.5993e-05
3.60169e-05
3.6056e-05
3.60824e-05
3.61244e-05
3.61543e-05
3.6198e-05
3.62322e-05
3.62745e-05
3.63113e-05
3.63461e-05
3.6385e-05
3.64187e-05
3.64565e-05
3.64923e-05
3.65297e-05
3.657e-05
3.66077e-05
3.66542e-05
3.66934e-05
3.67398e-05
3.67811e-05
3.6828e-05
3.687e-05
3.69155e-05
3.6963e-05
3.70021e-05
3.70563e-05
3.7093e-05
3.71559e-05
3.7191e-05
3.72575e-05
3.72933e-05
3.73594e-05
3.74002e-05
3.74668e-05
3.7508e-05
3.75772e-05
3.76185e-05
3.76842e-05
3.77234e-05
3.77879e-05
3.78281e-05
3.78918e-05
3.79286e-05
3.79923e-05
3.80313e-05
3.80994e-05
3.81414e-05
3.82141e-05
3.82561e-05
3.83403e-05
3.83719e-05
3.84735e-05
3.84868e-05
3.85992e-05
3.86174e-05
3.87257e-05
3.87497e-05
3.88592e-05
3.88818e-05
3.89938e-05
3.90155e-05
3.91306e-05
3.91509e-05
3.92683e-05
3.92872e-05
3.94066e-05
3.94265e-05
3.95475e-05
3.95718e-05
3.96873e-05
3.972e-05
3.98278e-05
3.98703e-05
3.99639e-05
4.00263e-05
4.00966e-05
4.01827e-05
4.02319e-05
4.03468e-05
4.03684e-05
4.05076e-05
4.05179e-05
4.0666e-05
4.06856e-05
4.08259e-05
4.08601e-05
4.09884e-05
4.10237e-05
4.11513e-05
4.11979e-05
4.12982e-05
4.13437e-05
4.14091e-05
4.14517e-05
4.15125e-05
4.15546e-05
4.16156e-05
4.16567e-05
4.17178e-05
4.17578e-05
4.18148e-05
4.18536e-05
4.19068e-05
4.19446e-05
4.19938e-05
4.20323e-05
4.20775e-05
4.21156e-05
4.21596e-05
4.21966e-05
4.22359e-05
4.2271e-05
4.23092e-05
4.23427e-05
4.23791e-05
4.24118e-05
4.24461e-05
4.24769e-05
4.25083e-05
4.2537e-05
4.25653e-05
4.2594e-05
4.26218e-05
4.26498e-05
4.26765e-05
4.2703e-05
4.27281e-05
4.27524e-05
4.27761e-05
4.27995e-05
4.28212e-05
4.28418e-05
4.28605e-05
4.28778e-05
4.28934e-05
4.29077e-05
4.29206e-05
4.29332e-05
4.29435e-05
4.29531e-05
4.29613e-05
4.2968e-05
4.2974e-05
4.29789e-05
4.29824e-05
4.29854e-05
4.29882e-05
4.2991e-05
4.29922e-05
4.29938e-05
4.29937e-05
4.29943e-05
4.29933e-05
4.29926e-05
4.299e-05
4.29873e-05
4.29831e-05
4.29782e-05
4.29718e-05
4.29647e-05
4.29565e-05
4.29472e-05
4.29367e-05
4.29254e-05
4.29138e-05
4.29016e-05
4.28895e-05
4.28768e-05
4.28643e-05
4.28511e-05
4.28394e-05
4.28273e-05
4.28169e-05
4.28063e-05
4.27968e-05
4.27876e-05
4.27791e-05
4.27713e-05
4.27633e-05
4.27564e-05
4.27495e-05
4.27439e-05
4.27366e-05
4.27296e-05
4.27231e-05
4.27173e-05
4.27109e-05
4.27064e-05
4.27e-05
4.26953e-05
4.26904e-05
4.26855e-05
4.26803e-05
4.26767e-05
4.26694e-05
4.26635e-05
4.26579e-05
4.26535e-05
4.26484e-05
4.26431e-05
4.26379e-05
4.26334e-05
4.26292e-05
4.26248e-05
4.2622e-05
4.26165e-05
4.26135e-05
4.2609e-05
4.26055e-05
4.26022e-05
4.25988e-05
4.25957e-05
4.25918e-05
4.25895e-05
4.25872e-05
4.25853e-05
4.25828e-05
4.25804e-05
4.25783e-05
4.25763e-05
4.25742e-05
4.25727e-05
4.2573e-05
4.25704e-05
4.25701e-05
4.2567e-05
4.25658e-05
4.25633e-05
4.25599e-05
4.25566e-05
4.25538e-05
4.25514e-05
4.25476e-05
4.25456e-05
4.25443e-05
4.25435e-05
4.25436e-05
4.25431e-05
4.25436e-05
4.25462e-05
4.2549e-05
4.2554e-05
4.25591e-05
4.25661e-05
4.25734e-05
4.25811e-05
4.25901e-05
4.25998e-05
4.26081e-05
4.26176e-05
4.26255e-05
4.26325e-05
4.2638e-05
4.26423e-05
4.26454e-05
4.26483e-05
4.26499e-05
4.26518e-05
4.26535e-05
4.2655e-05
4.26578e-05
4.26611e-05
4.26647e-05
4.26699e-05
4.26762e-05
4.26834e-05
4.26912e-05
4.27006e-05
4.27109e-05
4.27213e-05
4.27327e-05
4.27441e-05
4.27553e-05
4.27661e-05
4.27764e-05
4.27871e-05
4.27975e-05
4.28077e-05
4.28181e-05
4.2828e-05
4.28382e-05
4.28478e-05
4.28586e-05
4.28692e-05
4.28808e-05
4.2893e-05
4.29058e-05
4.2919e-05
4.29339e-05
4.29495e-05
4.29655e-05
4.29814e-05
4.29976e-05
4.30136e-05
4.30292e-05
4.30433e-05
4.30582e-05
4.30718e-05
4.30855e-05
4.30985e-05
4.31109e-05
4.31235e-05
4.31367e-05
4.31498e-05
4.31649e-05
4.31796e-05
4.31957e-05
4.32122e-05
4.32301e-05
4.32494e-05
4.32698e-05
4.32909e-05
4.33131e-05
4.33364e-05
4.33588e-05
4.33817e-05
4.34034e-05
4.34236e-05
4.3442e-05
4.34581e-05
4.34717e-05
4.34819e-05
4.34889e-05
4.34925e-05
4.3493e-05
4.34908e-05
4.34879e-05
4.34815e-05
4.34735e-05
4.34644e-05
4.34541e-05
4.34431e-05
4.34322e-05
4.34195e-05
4.34054e-05
4.33921e-05
4.338e-05
4.33683e-05
4.33553e-05
4.33485e-05
4.33399e-05
4.33344e-05
4.33312e-05
4.33305e-05
4.3331e-05
4.33362e-05
4.33411e-05
4.3348e-05
4.33561e-05
4.33637e-05
4.33689e-05
4.33735e-05
4.33768e-05
4.33772e-05
4.33746e-05
4.33686e-05
4.33626e-05
4.33537e-05
4.33416e-05
4.33266e-05
4.33134e-05
4.32965e-05
4.32772e-05
4.32589e-05
4.32422e-05
4.32249e-05
4.3208e-05
4.31916e-05
4.31732e-05
4.31547e-05
4.31368e-05
4.31163e-05
4.30978e-05
4.30776e-05
4.3058e-05
4.30359e-05
4.30162e-05
4.29937e-05
4.29717e-05
4.29514e-05
4.29203e-05
4.29064e-05
4.28641e-05
4.28656e-05
4.27891e-05
4.28322e-05
4.26963e-05
4.28117e-05
4.25929e-05
4.27855e-05
4.24356e-05
4.26965e-05
4.21943e-05
4.24903e-05
4.18557e-05
4.2126e-05
4.14169e-05
4.16103e-05
4.07946e-05
4.05869e-05
3.91111e-05
3.74178e-05
3.35424e-05
2.67104e-05
1.91712e-05
1.81622e-05
2.68975e-05
2.36244e-05
2.83926e-05
2.55517e-05
2.90893e-05
2.40894e-05
1.94908e-05
2.10595e-05
2.59814e-05
0.00014909
0.000113779
8.61613e-05
6.79365e-05
5.5111e-05
4.57358e-05
3.79496e-05
3.20877e-05
2.77889e-05
2.42348e-05
2.16945e-05
1.9272e-05
1.75746e-05
1.61807e-05
1.52947e-05
1.46911e-05
1.42291e-05
1.39507e-05
1.38111e-05
1.37051e-05
1.37305e-05
1.38367e-05
1.39294e-05
1.41137e-05
1.42756e-05
1.44534e-05
1.47531e-05
1.51351e-05
1.56446e-05
1.61483e-05
1.67108e-05
1.72068e-05
1.75531e-05
1.77959e-05
1.82118e-05
1.90238e-05
2.00278e-05
2.07183e-05
2.09344e-05
2.09375e-05
2.10212e-05
2.1429e-05
2.22524e-05
2.34221e-05
2.45595e-05
2.53425e-05
2.51256e-05
2.55836e-05
2.64072e-05
2.73071e-05
2.74614e-05
2.81503e-05
2.84843e-05
2.90662e-05
2.95398e-05
2.98727e-05
3.04046e-05
3.09366e-05
3.15401e-05
3.2281e-05
3.30405e-05
3.36798e-05
3.43645e-05
3.47044e-05
3.51012e-05
3.5457e-05
3.58247e-05
3.61795e-05
3.66018e-05
3.69561e-05
3.7488e-05
3.79791e-05
3.85861e-05
3.91098e-05
3.95943e-05
4.00974e-05
4.03586e-05
4.08762e-05
4.13217e-05
4.17144e-05
4.20312e-05
4.26503e-05
4.30759e-05
4.36216e-05
4.39254e-05
4.42861e-05
4.46108e-05
4.5142e-05
4.54548e-05
4.56327e-05
4.57916e-05
4.64413e-05
4.70327e-05
4.74716e-05
4.78345e-05
4.81415e-05
4.84293e-05
4.87012e-05
4.89714e-05
4.92245e-05
4.9476e-05
4.9717e-05
4.99611e-05
5.01954e-05
5.04278e-05
5.06464e-05
5.08636e-05
5.10748e-05
5.12859e-05
5.14925e-05
5.17018e-05
5.1906e-05
5.21111e-05
5.2304e-05
5.24978e-05
5.2679e-05
5.28595e-05
5.30259e-05
5.31903e-05
5.33396e-05
5.34866e-05
5.36226e-05
5.37605e-05
5.38916e-05
5.40274e-05
5.41582e-05
5.42961e-05
5.44299e-05
5.45707e-05
5.47061e-05
5.48463e-05
5.49805e-05
5.51195e-05
5.52532e-05
5.53926e-05
5.55272e-05
5.56674e-05
5.58035e-05
5.59439e-05
5.60805e-05
5.62209e-05
5.63574e-05
5.64966e-05
5.66327e-05
5.67717e-05
5.69076e-05
5.70472e-05
5.71834e-05
5.73247e-05
5.7463e-05
5.76055e-05
5.77468e-05
5.78897e-05
5.80321e-05
5.81736e-05
5.83154e-05
5.84537e-05
5.8595e-05
5.87305e-05
5.88716e-05
5.90047e-05
5.9147e-05
5.92792e-05
5.94232e-05
5.95549e-05
5.97002e-05
5.9832e-05
5.99788e-05
6.01099e-05
6.02573e-05
6.03882e-05
6.05355e-05
6.06655e-05
6.08127e-05
6.09436e-05
6.10922e-05
6.12249e-05
6.13764e-05
6.15109e-05
6.16666e-05
6.18028e-05
6.19633e-05
6.21012e-05
6.22685e-05
6.24066e-05
6.25824e-05
6.27179e-05
6.29034e-05
6.30359e-05
6.32305e-05
6.33572e-05
6.35611e-05
6.36808e-05
6.38946e-05
6.40072e-05
6.42306e-05
6.43345e-05
6.45664e-05
6.46604e-05
6.49016e-05
6.49866e-05
6.52377e-05
6.53138e-05
6.5573e-05
6.56406e-05
6.59059e-05
6.59657e-05
6.62343e-05
6.62906e-05
6.65585e-05
6.66165e-05
6.68814e-05
6.69495e-05
6.72058e-05
6.72896e-05
6.75355e-05
6.76398e-05
6.78767e-05
6.80001e-05
6.82289e-05
6.83657e-05
6.85883e-05
6.87334e-05
6.89449e-05
6.90949e-05
6.92976e-05
6.94517e-05
6.96494e-05
6.98057e-05
6.9999e-05
7.01557e-05
7.03491e-05
7.05021e-05
7.06908e-05
7.08427e-05
7.1021e-05
7.11718e-05
7.13433e-05
7.14945e-05
7.16608e-05
7.18135e-05
7.19737e-05
7.21253e-05
7.22816e-05
7.24305e-05
7.25795e-05
7.27227e-05
7.28677e-05
7.30069e-05
7.31479e-05
7.32837e-05
7.34191e-05
7.35489e-05
7.36767e-05
7.38e-05
7.39204e-05
7.40399e-05
7.41573e-05
7.4274e-05
7.43879e-05
7.45e-05
7.46092e-05
7.47159e-05
7.48202e-05
7.49243e-05
7.50243e-05
7.51242e-05
7.52192e-05
7.53129e-05
7.54015e-05
7.54873e-05
7.55683e-05
7.56451e-05
7.57171e-05
7.57846e-05
7.58479e-05
7.59067e-05
7.59625e-05
7.60148e-05
7.60629e-05
7.61074e-05
7.61482e-05
7.61873e-05
7.62216e-05
7.62539e-05
7.62826e-05
7.63094e-05
7.63331e-05
7.63544e-05
7.6372e-05
7.63868e-05
7.63982e-05
7.64062e-05
7.64107e-05
7.64124e-05
7.64113e-05
7.64066e-05
7.63992e-05
7.63885e-05
7.63765e-05
7.63619e-05
7.6347e-05
7.63302e-05
7.63137e-05
7.62955e-05
7.62796e-05
7.62622e-05
7.62474e-05
7.62322e-05
7.62201e-05
7.62084e-05
7.61981e-05
7.61889e-05
7.61794e-05
7.61718e-05
7.61649e-05
7.61597e-05
7.61533e-05
7.61463e-05
7.61393e-05
7.61331e-05
7.61262e-05
7.61214e-05
7.61149e-05
7.6111e-05
7.61065e-05
7.61025e-05
7.60973e-05
7.6094e-05
7.60866e-05
7.60804e-05
7.60735e-05
7.60693e-05
7.60639e-05
7.6059e-05
7.60533e-05
7.60488e-05
7.60442e-05
7.60398e-05
7.60369e-05
7.60311e-05
7.60274e-05
7.60222e-05
7.60172e-05
7.6012e-05
7.60067e-05
7.60012e-05
7.59948e-05
7.599e-05
7.59857e-05
7.59823e-05
7.59786e-05
7.59749e-05
7.59718e-05
7.59688e-05
7.59669e-05
7.59654e-05
7.59675e-05
7.5966e-05
7.59681e-05
7.59668e-05
7.59681e-05
7.59679e-05
7.59669e-05
7.59663e-05
7.59671e-05
7.59688e-05
7.59699e-05
7.59736e-05
7.59797e-05
7.59877e-05
7.59986e-05
7.60098e-05
7.6024e-05
7.6042e-05
7.60616e-05
7.60848e-05
7.61094e-05
7.61371e-05
7.61661e-05
7.61954e-05
7.62277e-05
7.626e-05
7.62913e-05
7.63225e-05
7.63511e-05
7.63779e-05
7.64015e-05
7.64241e-05
7.64445e-05
7.64626e-05
7.6479e-05
7.64956e-05
7.65123e-05
7.6529e-05
7.65481e-05
7.657e-05
7.65934e-05
7.66206e-05
7.66516e-05
7.66853e-05
7.67213e-05
7.67607e-05
7.68029e-05
7.68464e-05
7.68921e-05
7.69391e-05
7.69858e-05
7.70322e-05
7.70778e-05
7.71237e-05
7.71691e-05
7.72137e-05
7.72589e-05
7.73026e-05
7.73473e-05
7.73902e-05
7.74354e-05
7.74803e-05
7.75269e-05
7.75753e-05
7.76257e-05
7.76766e-05
7.773e-05
7.77844e-05
7.78397e-05
7.78937e-05
7.79479e-05
7.80006e-05
7.80524e-05
7.81e-05
7.81475e-05
7.81915e-05
7.82338e-05
7.82747e-05
7.83147e-05
7.83543e-05
7.83952e-05
7.84351e-05
7.84779e-05
7.85204e-05
7.85665e-05
7.86139e-05
7.86648e-05
7.872e-05
7.87794e-05
7.88416e-05
7.89076e-05
7.89764e-05
7.90447e-05
7.91143e-05
7.91819e-05
7.92469e-05
7.93078e-05
7.93625e-05
7.94099e-05
7.94484e-05
7.94785e-05
7.94979e-05
7.95097e-05
7.95131e-05
7.95121e-05
7.95048e-05
7.94927e-05
7.94766e-05
7.94555e-05
7.9432e-05
7.94065e-05
7.9377e-05
7.93434e-05
7.93098e-05
7.92776e-05
7.92459e-05
7.92134e-05
7.9189e-05
7.91647e-05
7.9146e-05
7.91335e-05
7.91266e-05
7.91244e-05
7.91301e-05
7.91386e-05
7.91503e-05
7.91651e-05
7.91785e-05
7.91878e-05
7.9196e-05
7.91974e-05
7.91954e-05
7.91852e-05
7.91693e-05
7.91501e-05
7.9125e-05
7.9093e-05
7.90554e-05
7.90158e-05
7.89712e-05
7.8923e-05
7.88741e-05
7.88255e-05
7.87786e-05
7.87317e-05
7.86878e-05
7.86405e-05
7.85938e-05
7.85469e-05
7.84982e-05
7.84498e-05
7.84018e-05
7.83517e-05
7.83007e-05
7.8248e-05
7.81951e-05
7.81349e-05
7.80806e-05
7.80056e-05
7.7954e-05
7.78594e-05
7.78326e-05
7.76796e-05
7.77238e-05
7.74554e-05
7.76316e-05
7.71808e-05
7.75048e-05
7.67774e-05
7.72295e-05
7.61663e-05
7.66731e-05
7.52855e-05
7.57221e-05
7.41221e-05
7.4351e-05
7.25097e-05
7.21345e-05
6.91732e-05
6.55717e-05
5.7971e-05
4.37228e-05
2.95201e-05
2.8586e-05
3.24909e-05
3.0302e-05
3.33653e-05
3.19137e-05
3.39142e-05
3.51444e-05
3.50222e-05
3.47482e-05
3.96105e-05
0.000183576
0.000158331
8.35911e-05
8.0095e-05
8.48333e-05
9.16317e-05
9.23282e-05
8.02984e-05
7.08443e-05
6.20932e-05
5.54468e-05
4.79632e-05
4.2169e-05
3.61652e-05
3.21776e-05
2.88654e-05
2.61073e-05
2.41131e-05
2.29941e-05
2.18976e-05
2.16112e-05
2.11199e-05
2.06456e-05
2.02431e-05
1.99103e-05
1.9631e-05
1.9131e-05
1.87069e-05
1.83163e-05
1.80709e-05
1.78868e-05
1.76902e-05
1.75028e-05
1.74027e-05
1.74977e-05
1.77529e-05
1.79893e-05
1.80051e-05
1.7829e-05
1.76534e-05
1.76737e-05
1.79536e-05
1.84659e-05
1.91355e-05
1.97561e-05
2.0133e-05
2.03679e-05
2.06163e-05
2.1049e-05
2.17772e-05
2.26331e-05
2.35019e-05
2.41823e-05
2.46819e-05
2.50571e-05
2.54126e-05
2.58482e-05
2.64312e-05
2.71656e-05
2.80443e-05
2.90327e-05
3.00354e-05
3.09539e-05
3.17319e-05
3.23744e-05
3.29804e-05
3.34442e-05
3.41356e-05
3.48074e-05
3.55858e-05
3.64878e-05
3.74641e-05
3.84142e-05
3.9376e-05
4.01581e-05
4.10452e-05
4.16515e-05
4.2599e-05
4.35433e-05
4.43863e-05
4.52712e-05
4.61912e-05
4.71366e-05
4.80686e-05
4.89759e-05
4.98456e-05
5.0692e-05
5.14793e-05
5.22383e-05
5.29855e-05
5.37698e-05
5.45291e-05
5.52643e-05
5.5971e-05
5.66637e-05
5.73262e-05
5.79821e-05
5.86157e-05
5.92415e-05
5.98483e-05
6.04563e-05
6.10524e-05
6.16531e-05
6.22439e-05
6.28343e-05
6.34158e-05
6.39922e-05
6.4549e-05
6.51007e-05
6.56209e-05
6.61379e-05
6.66256e-05
6.71055e-05
6.75696e-05
6.80323e-05
6.84774e-05
6.8922e-05
6.93465e-05
6.97686e-05
7.01695e-05
7.05659e-05
7.09464e-05
7.1324e-05
7.16898e-05
7.20577e-05
7.24167e-05
7.27788e-05
7.31331e-05
7.34891e-05
7.38359e-05
7.41835e-05
7.45215e-05
7.4861e-05
7.51915e-05
7.55256e-05
7.58515e-05
7.61822e-05
7.65056e-05
7.68335e-05
7.71544e-05
7.74784e-05
7.77955e-05
7.81137e-05
7.84244e-05
7.87385e-05
7.90463e-05
7.93589e-05
7.96643e-05
7.99741e-05
8.02789e-05
8.05868e-05
8.08914e-05
8.11955e-05
8.14967e-05
8.17939e-05
8.20895e-05
8.23777e-05
8.26675e-05
8.29474e-05
8.32322e-05
8.35048e-05
8.3786e-05
8.40541e-05
8.43335e-05
8.45981e-05
8.48769e-05
8.51395e-05
8.54185e-05
8.56784e-05
8.59565e-05
8.62145e-05
8.64925e-05
8.6749e-05
8.70275e-05
8.72847e-05
8.75661e-05
8.78267e-05
8.81131e-05
8.83778e-05
8.86716e-05
8.89404e-05
8.92429e-05
8.95169e-05
8.98307e-05
9.01082e-05
9.04354e-05
9.07123e-05
9.10562e-05
9.13298e-05
9.16845e-05
9.19523e-05
9.23209e-05
9.25798e-05
9.29623e-05
9.32119e-05
9.36075e-05
9.38451e-05
9.42525e-05
9.44763e-05
9.48959e-05
9.51064e-05
9.55386e-05
9.57356e-05
9.61784e-05
9.63622e-05
9.68132e-05
9.69848e-05
9.74393e-05
9.76032e-05
9.80559e-05
9.82203e-05
9.86682e-05
9.88443e-05
9.92806e-05
9.94768e-05
9.98982e-05
0.000100121
0.000100531
0.000100782
0.000101189
0.000101456
0.000101843
0.000102122
0.000102493
0.000102778
0.000103136
0.000103426
0.000103778
0.000104071
0.000104416
0.000104708
0.00010505
0.000105339
0.000105671
0.00010596
0.00010628
0.000106569
0.000106881
0.00010717
0.000107476
0.000107766
0.000108065
0.000108354
0.000108646
0.00010893
0.000109212
0.000109485
0.000109759
0.000110024
0.00011029
0.000110546
0.0001108
0.000111043
0.000111282
0.000111513
0.000111737
0.000111959
0.000112176
0.00011239
0.0001126
0.000112807
0.000113009
0.000113206
0.0001134
0.000113593
0.000113781
0.000113967
0.000114148
0.000114326
0.000114497
0.000114663
0.000114823
0.000114978
0.000115126
0.000115268
0.000115401
0.000115527
0.000115643
0.000115753
0.000115854
0.000115947
0.000116034
0.000116117
0.000116192
0.000116264
0.000116329
0.00011639
0.000116446
0.000116497
0.000116541
0.000116581
0.000116615
0.000116642
0.000116664
0.000116681
0.000116693
0.000116699
0.000116701
0.000116697
0.000116691
0.000116681
0.00011667
0.000116656
0.000116643
0.000116628
0.000116616
0.000116603
0.000116594
0.000116585
0.00011658
0.000116577
0.000116575
0.000116576
0.000116577
0.00011658
0.000116585
0.000116592
0.000116598
0.000116604
0.000116609
0.000116614
0.000116619
0.000116626
0.000116631
0.000116639
0.000116646
0.000116655
0.00011666
0.000116668
0.000116672
0.000116677
0.000116681
0.000116688
0.000116694
0.0001167
0.000116704
0.00011671
0.000116714
0.000116718
0.000116722
0.000116723
0.000116724
0.000116723
0.00011672
0.000116716
0.000116711
0.000116704
0.000116696
0.000116689
0.000116682
0.000116676
0.00011667
0.000116664
0.000116659
0.000116654
0.000116652
0.000116651
0.000116655
0.000116655
0.00011666
0.000116662
0.000116667
0.000116671
0.000116676
0.000116681
0.000116689
0.000116699
0.00011671
0.000116725
0.000116745
0.000116768
0.000116797
0.000116829
0.000116866
0.000116909
0.000116955
0.000117006
0.000117059
0.000117116
0.000117174
0.000117232
0.000117294
0.000117354
0.000117412
0.000117468
0.000117519
0.000117565
0.000117606
0.000117645
0.000117681
0.000117716
0.000117748
0.00011778
0.000117813
0.000117849
0.00011789
0.000117938
0.000117992
0.000118054
0.000118123
0.0001182
0.000118282
0.000118372
0.000118467
0.000118567
0.000118671
0.000118777
0.000118884
0.000118991
0.000119097
0.000119203
0.000119308
0.000119412
0.000119516
0.000119618
0.000119721
0.000119822
0.000119926
0.00012003
0.000120136
0.000120246
0.000120358
0.000120471
0.000120586
0.000120702
0.000120818
0.000120931
0.000121042
0.000121149
0.000121253
0.000121348
0.000121441
0.000121526
0.000121608
0.000121687
0.000121763
0.000121839
0.000121915
0.000121991
0.000122072
0.000122152
0.000122239
0.000122329
0.000122427
0.000122532
0.000122646
0.000122767
0.000122896
0.00012303
0.000123166
0.000123304
0.000123439
0.000123568
0.000123689
0.000123798
0.000123892
0.000123969
0.000124027
0.000124065
0.000124087
0.000124093
0.000124089
0.000124074
0.000124051
0.000124021
0.000123982
0.000123937
0.000123887
0.00012383
0.000123766
0.000123699
0.000123633
0.000123568
0.000123504
0.000123449
0.000123398
0.000123357
0.000123326
0.000123307
0.000123296
0.000123299
0.000123307
0.000123321
0.000123339
0.000123354
0.000123363
0.000123368
0.000123361
0.000123348
0.000123322
0.000123286
0.000123244
0.000123191
0.000123127
0.000123054
0.000122975
0.000122889
0.000122798
0.000122706
0.000122614
0.000122525
0.000122437
0.000122353
0.000122265
0.00012218
0.000122094
0.000122008
0.000121922
0.000121837
0.000121749
0.00012166
0.000121568
0.000121475
0.00012137
0.00012127
0.000121142
0.000121041
0.000120883
0.00012081
0.000120581
0.000120595
0.00012022
0.000120397
0.000119777
0.000120149
0.000119143
0.000119674
0.000118178
0.000118746
0.000116742
0.000117176
0.00011478
0.000114864
0.000112015
0.000111178
0.000106533
0.000101089
8.89923e-05
6.70708e-05
4.72714e-05
4.06899e-05
4.30674e-05
4.04776e-05
4.10402e-05
3.84049e-05
3.76824e-05
3.73822e-05
4.25404e-05
4.56985e-05
4.28534e-05
0.000189636
0.00014268
8.04541e-05
7.52236e-05
8.04529e-05
8.42448e-05
0.000103126
0.000106186
0.000123799
0.000113188
0.000105089
9.53188e-05
8.65621e-05
7.57722e-05
6.68498e-05
5.87447e-05
5.25831e-05
4.84856e-05
4.65127e-05
4.47978e-05
4.4605e-05
4.36409e-05
4.27449e-05
4.17041e-05
4.09416e-05
4.04831e-05
3.93619e-05
3.83687e-05
3.68092e-05
3.56487e-05
3.45432e-05
3.36137e-05
3.3098e-05
3.27893e-05
3.26499e-05
3.2394e-05
3.18125e-05
3.08767e-05
2.9974e-05
2.93462e-05
2.91231e-05
2.90588e-05
2.89836e-05
2.87543e-05
2.82659e-05
2.77649e-05
2.73944e-05
2.71527e-05
2.71277e-05
2.71659e-05
2.72375e-05
2.72721e-05
2.73204e-05
2.736e-05
2.74737e-05
2.76772e-05
2.79908e-05
2.84256e-05
2.89476e-05
2.95475e-05
3.01812e-05
3.08093e-05
3.14091e-05
3.19648e-05
3.25193e-05
3.31049e-05
3.37797e-05
3.45747e-05
3.54959e-05
3.65618e-05
3.77438e-05
3.90176e-05
4.03447e-05
4.16638e-05
4.29929e-05
4.43201e-05
4.56972e-05
4.71232e-05
4.8599e-05
5.01244e-05
5.17172e-05
5.33218e-05
5.49125e-05
5.64563e-05
5.79311e-05
5.93344e-05
6.07059e-05
6.1993e-05
6.32334e-05
6.44574e-05
6.57156e-05
6.69486e-05
6.81487e-05
6.92893e-05
7.04039e-05
7.14771e-05
7.2546e-05
7.3587e-05
7.46153e-05
7.56217e-05
7.66111e-05
7.7587e-05
7.85535e-05
7.95069e-05
8.04592e-05
8.13851e-05
8.23058e-05
8.31841e-05
8.40572e-05
8.48918e-05
8.57281e-05
8.65316e-05
8.7337e-05
8.81093e-05
8.8874e-05
8.96163e-05
9.03463e-05
9.10508e-05
9.17461e-05
9.24152e-05
9.30758e-05
9.37122e-05
9.43502e-05
9.49659e-05
9.55872e-05
9.61882e-05
9.67935e-05
9.73804e-05
9.79682e-05
9.85377e-05
9.91065e-05
9.96568e-05
0.000100209
0.000100746
0.000101286
0.000101813
0.000102344
0.000102862
0.000103384
0.000103895
0.000104409
0.000104913
0.000105419
0.000105915
0.000106417
0.000106909
0.000107406
0.000107894
0.000108386
0.000108868
0.000109352
0.000109829
0.000110301
0.000110766
0.000111222
0.000111672
0.000112111
0.000112549
0.000112971
0.000113397
0.000113807
0.000114224
0.000114625
0.000115037
0.000115431
0.00011584
0.000116231
0.00011664
0.000117028
0.000117437
0.000117824
0.000118235
0.000118623
0.000119039
0.000119433
0.000119856
0.000120257
0.000120689
0.000121097
0.00012154
0.000121954
0.000122409
0.000122831
0.000123301
0.000123729
0.000124216
0.000124646
0.000125154
0.000125582
0.000126111
0.000126531
0.000127072
0.000127483
0.000128041
0.000128441
0.000129014
0.000129398
0.000129983
0.00013035
0.000130947
0.000131296
0.000131906
0.000132237
0.000132856
0.000133171
0.000133797
0.000134094
0.000134722
0.000135009
0.000135633
0.000135919
0.000136536
0.000136833
0.000137435
0.000137756
0.000138342
0.000138694
0.000139275
0.000139653
0.000140212
0.000140607
0.00014114
0.000141547
0.00014206
0.000142471
0.000142969
0.000143387
0.000143877
0.000144295
0.000144777
0.000145192
0.000145668
0.000146082
0.000146545
0.000146961
0.000147412
0.000147828
0.000148271
0.000148688
0.000149124
0.000149543
0.000149971
0.000150387
0.000150807
0.000151215
0.00015162
0.000152012
0.000152401
0.000152778
0.000153151