/*--------------------------------*- C++ -*----------------------------------*\
| =========                 |                                                 |
| \\      /  F ield         | foam-extend: Open Source CFD                    |
|  \\    /   O peration     | Version:     3.2                                |
|   \\  /    A nd           | Web:         http://www.foam-extend.org         |
|    \\/     M anipulation  | For copyright notice see file Copyright         |
\*---------------------------------------------------------------------------*/
FoamFile
{
    version     2.0;
    format      ascii;
    class       areaScalarField;
    location    "840";
    object      Fi;
}
// * * * * * * * * * * * * * * * * * * * * * * * * * * * * * * * * * * * * * //

dimensions      [0 1 -1 0 0 0 0];

internalField   nonuniform List<scalar> 
550
(
6.39519e-08
5.99002e-08
5.40357e-08
2.94228e-08
-1.12709e-08
-4.69662e-08
-7.9411e-08
-1.07178e-07
-1.23759e-07
-1.3651e-07
-1.3673e-07
-1.36449e-07
1.35588e-07
2.59423e-07
-2.73455e-07
-1.90596e-07
-6.64932e-09
-2.51598e-07
-5.69084e-08
3.16598e-07
2.93565e-07
-3.22834e-07
-2.50191e-07
-9.09266e-09
1.83388e-07
2.5655e-07
7.17263e-08
-1.77163e-07
-2.59838e-07
1.99984e-07
6.13926e-08
-2.53581e-07
-1.45801e-08
2.32928e-07
7.83466e-08
-2.55644e-07
2.07103e-07
2.80821e-07
-1.45653e-07
-2.10156e-07
-4.57556e-09
-9.17468e-09
-1.40697e-08
-8.33369e-09
-1.79588e-09
-3.51878e-09
1.68612e-07
6.60362e-08
-1.71359e-07
-5.51561e-09
-1.57296e-09
4.72412e-09
6.03966e-09
6.09049e-09
1.8803e-09
4.38081e-10
-1.26546e-09
-1.4325e-09
-2.44922e-09
-3.89377e-09
-1.44253e-09
-1.73932e-10
1.52657e-09
1.97385e-09
2.37982e-09
1.73619e-09
1.16488e-09
2.2978e-10
-3.32662e-10
-7.38081e-10
-7.35064e-10
-4.17896e-10
-2.10066e-10
2.17869e-10
1.6658e-10
3.49936e-10
-3.88968e-11
-1.17053e-11
-3.98332e-10
-1.69559e-10
-3.99233e-10
6.81984e-12
-1.09655e-10
2.69504e-10
5.44947e-11
3.16727e-10
3.98129e-11
2.46466e-10
-1.68027e-11
1.71773e-10
-5.59628e-11
1.57629e-10
-2.57289e-11
1.65372e-10
-1.74791e-11
1.49235e-10
-7.22575e-11
1.5839e-11
-2.24505e-10
-1.43199e-10
-3.45617e-10
-2.1954e-10
-3.48999e-10
-1.60122e-10
-2.23042e-10
9.87389e-12
-4.25938e-11
1.65826e-10
5.74432e-11
1.96472e-10
1.4698e-11
1.03458e-10
-9.84719e-11
-4.95967e-12
-1.89941e-10
-6.40568e-11
-2.20704e-10
-6.63193e-11
-2.02955e-10
-3.23258e-11
-1.62426e-10
8.64352e-12
-1.26908e-10
3.537e-11
-1.08643e-10
4.55949e-11
-9.73982e-11
5.24337e-11
-8.86913e-11
5.47369e-11
-8.8498e-11
4.22044e-11
-1.07359e-10
8.03904e-12
-1.41126e-10
-3.35105e-11
-1.70094e-10
-6.12669e-11
-1.75871e-10
-6.12718e-11
-1.46977e-10
-2.41431e-11
-9.03761e-11
2.19783e-11
-4.81563e-11
3.57994e-11
-3.76564e-11
2.10251e-11
-5.01759e-11
-9.17667e-12
-6.75303e-11
-3.72921e-11
-7.50144e-11
-5.29961e-11
-7.39351e-11
-6.37115e-11
-6.50897e-11
-6.8059e-11
-4.72922e-11
-6.82343e-11
-3.40342e-11
-7.26918e-11
-2.34579e-11
-7.76029e-11
-1.17535e-11
-7.98678e-11
5.06552e-12
-7.61043e-11
2.9311e-11
-6.69813e-11
5.48566e-11
-6.14014e-11
6.87736e-11
-7.21599e-11
6.63839e-11
-9.66514e-11
5.09095e-11
-1.33936e-10
2.75443e-11
-1.73839e-10
1.00621e-11
-2.03468e-10
6.58365e-12
-2.16474e-10
2.18942e-11
-2.12544e-10
5.35715e-11
-2.03912e-10
9.03583e-11
-1.9963e-10
1.20216e-10
-2.07163e-10
1.37718e-10
-2.28344e-10
1.45386e-10
-2.54234e-10
1.52322e-10
-2.7685e-10
1.60672e-10
-2.96532e-10
1.69797e-10
-3.1109e-10
1.81996e-10
-3.17432e-10
1.96646e-10
-3.16144e-10
2.1019e-10
-3.07605e-10
2.18053e-10
-2.94443e-10
2.13581e-10
-2.76649e-10
1.98295e-10
-2.47724e-10
1.74914e-10
-2.08487e-10
1.39372e-10
-1.69965e-10
1.00713e-10
-1.37651e-10
7.35107e-11
-1.11512e-10
5.12757e-11
-9.35564e-11
3.20357e-11
-8.10699e-11
1.50254e-11
-7.45553e-11
-9.82205e-13
-7.00739e-11
-1.17126e-11
-6.59264e-11
-2.13084e-11
-6.46515e-11
-2.56249e-11
-5.63004e-11
-2.56083e-11
-4.84415e-11
-2.66167e-11
-4.3852e-11
-2.84174e-11
-4.1282e-11
-2.91988e-11
-3.60314e-11
-2.40139e-11
-2.55631e-11
-1.30379e-11
-1.24931e-11
-2.04993e-12
-1.28616e-13
1.04546e-11
1.56996e-11
2.88499e-11
3.70447e-11
5.06776e-11
5.88642e-11
6.9206e-11
7.29091e-11
7.92331e-11
8.23574e-11
8.88664e-11
9.17476e-11
9.63359e-11
9.68806e-11
9.87362e-11
9.66117e-11
9.60486e-11
9.3087e-11
9.28155e-11
9.06562e-11
9.0289e-11
8.77895e-11
8.70779e-11
8.49013e-11
8.54054e-11
8.37993e-11
8.4655e-11
8.32324e-11
8.38775e-11
8.26971e-11
8.28851e-11
7.97408e-11
7.7398e-11
7.2289e-11
6.86939e-11
6.28439e-11
5.89335e-11
5.32486e-11
5.03004e-11
4.54299e-11
4.27198e-11
3.74623e-11
3.42938e-11
2.89544e-11
2.64754e-11
2.38366e-11
2.51189e-11
2.57027e-11
2.9111e-11
3.04364e-11
3.36497e-11
3.49956e-11
3.89038e-11
4.03796e-11
4.21687e-11
3.96034e-11
3.72181e-11
3.1264e-11
2.68698e-11
2.10951e-11
1.80147e-11
1.34378e-11
1.09386e-11
6.1394e-12
2.49825e-12
-3.77087e-12
-8.86206e-12
-1.53584e-11
-1.93613e-11
-2.52635e-11
-2.93009e-11
-3.56901e-11
-4.04109e-11
-4.79004e-11
-5.37083e-11
-6.03446e-11
-6.2997e-11
-6.60185e-11
-6.57496e-11
-6.68003e-11
-6.61411e-11
-6.80439e-11
-6.89918e-11
-7.25111e-11
-7.47736e-11
-7.92909e-11
-8.25546e-11
-8.82344e-11
-9.25379e-11
-9.82647e-11
-1.00925e-10
-1.04454e-10
-1.05951e-10
-1.09403e-10
-1.11036e-10
-1.145e-10
-1.16504e-10
-1.2089e-10
-1.23264e-10
-1.26384e-10
-1.26209e-10
-1.26311e-10
-1.23203e-10
-1.20991e-10
-1.17206e-10
-1.16173e-10
-1.1369e-10
-1.12455e-10
-1.0852e-10
-1.05593e-10
-1.00258e-10
-9.56369e-11
-8.87948e-11
-8.29958e-11
-7.55766e-11
-7.00749e-11
-6.32647e-11
-5.84064e-11
-5.18512e-11
-4.70166e-11
-4.1117e-11
-3.75054e-11
-3.28251e-11
-3.02073e-11
-2.66697e-11
-2.54913e-11
-2.35661e-11
-2.35843e-11
-2.19271e-11
-2.13821e-11
-1.91147e-11
-1.80435e-11
-1.46366e-11
-1.10546e-11
-3.83236e-12
4.25347e-12
1.53285e-11
2.55613e-11
3.73286e-11
4.82778e-11
6.13821e-11
7.28723e-11
8.58579e-11
9.8179e-11
1.09636e-10
1.16701e-10
1.2149e-10
1.23412e-10
1.25393e-10
1.24613e-10
1.24787e-10
1.2329e-10
1.21921e-10
1.186e-10
1.16802e-10
1.13767e-10
1.12627e-10
1.1243e-10
1.15406e-10
1.18617e-10
1.23781e-10
1.28814e-10
1.35501e-10
1.41069e-10
1.47955e-10
1.53947e-10
1.60525e-10
1.65903e-10
1.70832e-10
1.72261e-10
1.72718e-10
1.70794e-10
1.68893e-10
1.65296e-10
1.62301e-10
1.57987e-10
1.53803e-10
1.49602e-10
1.48461e-10
1.47607e-10
1.47181e-10
1.46728e-10
1.49683e-10
1.51244e-10
1.52873e-10
1.54653e-10
1.55703e-10
1.53881e-10
1.51701e-10
1.47838e-10
1.42667e-10
1.35103e-10
1.24825e-10
1.11688e-10
9.64465e-11
7.85826e-11
6.14274e-11
4.43261e-11
2.70289e-11
1.05829e-11
-4.01312e-12
-1.82129e-11
-3.02947e-11
-4.04219e-11
-4.81157e-11
-5.15237e-11
-5.0058e-11
-4.38671e-11
-3.38478e-11
-2.10699e-11
-7.04372e-12
6.92797e-12
1.93051e-11
3.11911e-11
4.38003e-11
5.79937e-11
7.15614e-11
8.49297e-11
9.58396e-11
1.04445e-10
1.09397e-10
1.11788e-10
1.11001e-10
1.07725e-10
1.01271e-10
9.23003e-11
7.70408e-11
5.85144e-11
3.47476e-11
7.81213e-12
-2.29176e-11
-5.3956e-11
-8.75416e-11
-1.1822e-10
-1.45871e-10
-1.68644e-10
-1.87938e-10
-2.02353e-10
-2.13437e-10
-2.21255e-10
-2.2703e-10
-2.29836e-10
-2.3252e-10
-2.29211e-10
-2.24779e-10
-2.16618e-10
-2.09705e-10
-2.00308e-10
-1.94543e-10
-1.88516e-10
-1.86836e-10
-1.76506e-10
-1.75478e-10
-1.64443e-10
-1.63829e-10
-1.56579e-10
-1.54941e-10
-1.49614e-10
-1.46986e-10
-1.409e-10
-1.34592e-10
-1.26458e-10
-1.14252e-10
-1.04268e-10
-9.52654e-11
-8.2548e-11
-7.02195e-11
-5.64803e-11
-4.36888e-11
-3.01136e-11
-2.07963e-11
-7.56957e-12
-9.52725e-13
1.00652e-11
1.16486e-11
2.05308e-11
1.41072e-11
2.22053e-11
1.05889e-11
1.63705e-11
6.5132e-12
6.42559e-12
6.93906e-12
-1.75617e-12
1.7831e-11
1.77095e-12
5.72054e-11
2.92736e-11
1.70999e-10
1.08665e-07
1.84341e-07
4.79387e-08
5.45765e-08
5.54425e-08
5.79676e-08
5.88869e-08
6.05518e-08
6.01767e-08
6.08625e-08
5.7661e-08
)
;

boundaryField
{
    inlet
    {
        type            calculated;
        value           uniform 6.39524e-08;
    }
    endWall
    {
        type            calculated;
        value           uniform 5.36624e-08;
    }
    sideWall
    {
        type            empty;
    }
}


// ************************************************************************* //
