/*--------------------------------*- C++ -*----------------------------------*\
| =========                 |                                                 |
| \\      /  F ield         | foam-extend: Open Source CFD                    |
|  \\    /   O peration     | Version:     3.2                                |
|   \\  /    A nd           | Web:         http://www.foam-extend.org         |
|    \\/     M anipulation  | For copyright notice see file Copyright         |
\*---------------------------------------------------------------------------*/
FoamFile
{
    version     2.0;
    format      ascii;
    class       areaScalarField;
    location    "840";
    object      Fi1;
}
// * * * * * * * * * * * * * * * * * * * * * * * * * * * * * * * * * * * * * //

dimensions      [0 1 -1 0 0 0 0];

internalField   nonuniform List<scalar> 
550
(
6.39519e-08
5.99002e-08
5.40357e-08
2.94228e-08
-1.12708e-08
-4.69661e-08
-7.94108e-08
-1.07177e-07
-1.2376e-07
-1.36612e-07
-1.39868e-07
7.7616e-08
2.01987e-07
-2.45833e-07
-3.58674e-07
-9.46557e-08
-8.89677e-08
2.72171e-07
4.24041e-07
4.43454e-08
-2.86473e-07
-3.43345e-07
2.18532e-07
2.98625e-07
-3.70114e-08
-1.93385e-07
-2.12181e-07
-3.06116e-08
1.78688e-07
2.68303e-07
-1.46454e-07
-2.47796e-07
2.3644e-07
3.28218e-07
-1.72376e-07
-2.56083e-07
-1.17476e-08
4.37975e-10
-4.82233e-10
-2.89814e-09
1.8294e-07
6.73961e-08
-2.01639e-07
-8.15706e-09
-1.46264e-09
-3.47261e-09
2.31055e-09
2.63265e-10
-5.21712e-09
-5.47914e-09
-1.49491e-09
4.78202e-09
6.08022e-09
6.09212e-09
1.84644e-09
3.90102e-10
-1.30043e-09
-1.44369e-09
-2.46594e-09
-3.9002e-09
-1.39661e-09
-1.22592e-10
1.56732e-09
1.99555e-09
2.38079e-09
1.72007e-09
1.1405e-09
2.0551e-10
-3.50668e-10
-7.46184e-10
-7.33635e-10
-4.09928e-10
-2.00461e-10
2.25096e-10
1.69229e-10
3.47823e-10
-4.3963e-11
-1.68193e-11
-4.01325e-10
-1.69583e-10
-3.96501e-10
1.18553e-11
-1.04753e-10
2.72491e-10
5.58096e-11
3.16524e-10
3.87013e-11
2.44865e-10
-1.80378e-11
1.71478e-10
-5.58452e-11
1.58095e-10
-2.51582e-11
1.65691e-10
-1.77227e-11
1.48126e-10
-7.40705e-11
1.3427e-11
-2.26935e-10
-1.45241e-10
-3.46963e-10
-2.19962e-10
-3.48285e-10
-1.58272e-10
-2.20311e-10
1.29863e-11
-3.98233e-11
1.67808e-10
5.82845e-11
1.96057e-10
1.34511e-11
1.01808e-10
-1.00147e-10
-6.33623e-12
-1.90789e-10
-6.43728e-11
-2.20573e-10
-6.58144e-11
-2.02209e-10
-3.14885e-11
-1.61652e-10
9.29933e-12
-1.26455e-10
3.56252e-11
-1.08509e-10
4.5633e-11
-9.73893e-11
5.23816e-11
-8.88347e-11
5.44835e-11
-8.89365e-11
4.15508e-11
-1.08202e-10
7.0632e-12
-1.4211e-10
-3.4438e-11
-1.70811e-10
-6.1754e-11
-1.76041e-10
-6.11446e-11
-1.46507e-10
-2.34141e-11
-8.96539e-11
2.25187e-11
-4.78566e-11
3.58556e-11
-3.78049e-11
2.06988e-11
-5.05929e-11
-9.6481e-12
-6.79378e-11
-3.76123e-11
-7.52059e-11
-5.31147e-11
-7.39917e-11
-6.37295e-11
-6.50285e-11
-6.79861e-11
-4.72036e-11
-6.81675e-11
-3.39488e-11
-7.2618e-11
-2.33527e-11
-7.74922e-11
-1.15851e-11
-7.96594e-11
5.39543e-12
-7.56904e-11
2.98141e-11
-6.6462e-11
5.53392e-11
-6.10356e-11
6.90177e-11
-7.20359e-11
6.63981e-11
-9.67445e-11
5.07613e-11
-1.34119e-10
2.744e-11
-1.73868e-10
1.01876e-11
-2.03223e-10
7.0327e-12
-2.15861e-10
2.26808e-11
-2.11644e-10
5.45524e-11
-2.02934e-10
9.12549e-11
-1.98824e-10
1.20884e-10
-2.06639e-10
1.38116e-10
-2.2807e-10
1.45633e-10
-2.54026e-10
1.52524e-10
-2.76725e-10
1.6075e-10
-2.96522e-10
1.69799e-10
-3.11097e-10
1.82009e-10
-3.17421e-10
1.96653e-10
-3.16134e-10
2.10195e-10
-3.07628e-10
2.17955e-10
-2.94631e-10
2.13347e-10
-2.76865e-10
1.9813e-10
-2.47809e-10
1.74876e-10
-2.08492e-10
1.39341e-10
-1.69981e-10
1.00717e-10
-1.37597e-10
7.35676e-11
-1.11469e-10
5.13014e-11
-9.35091e-11
3.21004e-11
-8.09937e-11
1.50856e-11
-7.45047e-11
-9.39205e-13
-7.00255e-11
-1.17003e-11
-6.59732e-11
-2.13572e-11
-6.46386e-11
-2.55564e-11
-5.6213e-11
-2.55463e-11
-4.84011e-11
-2.66011e-11
-4.38632e-11
-2.84496e-11
-4.12966e-11
-2.91663e-11
-3.5944e-11
-2.38836e-11
-2.54025e-11
-1.28869e-11
-1.24035e-11
-2.0068e-12
-7.54726e-14
1.05631e-11
1.5887e-11
2.90957e-11
3.7311e-11
5.09235e-11
5.90234e-11
6.92223e-11
7.28318e-11
7.91595e-11
8.23245e-11
8.88534e-11
9.172e-11
9.6272e-11
9.67765e-11
9.85825e-11
9.64038e-11
9.58267e-11
9.28913e-11
9.26445e-11
9.05054e-11
9.01605e-11
8.76763e-11
8.69679e-11
8.47923e-11
8.53089e-11
8.37203e-11
8.45903e-11
8.31874e-11
8.38552e-11
8.26706e-11
8.28167e-11
7.96214e-11
7.72482e-11
7.21282e-11
6.85251e-11
6.26592e-11
5.87393e-11
5.30592e-11
5.01164e-11
4.52332e-11
4.2491e-11
3.71991e-11
3.40065e-11
2.86771e-11
2.62534e-11
2.36963e-11
2.50466e-11
2.56619e-11
2.90709e-11
3.03838e-11
3.35889e-11
3.49589e-11
3.8904e-11
4.0376e-11
4.21159e-11
3.94925e-11
3.70782e-11
3.1131e-11
2.67692e-11
2.10445e-11
1.80149e-11
1.34845e-11
1.10057e-11
6.16795e-12
2.46745e-12
-3.84534e-12
-8.9493e-12
-1.54401e-11
-1.94385e-11
-2.53486e-11
-2.94102e-11
-3.58421e-11
-4.06374e-11
-4.82008e-11
-5.40257e-11
-6.06224e-11
-6.32093e-11
-6.61818e-11
-6.58809e-11
-6.69252e-11
-6.62953e-11
-6.82417e-11
-6.92151e-11
-7.27363e-11
-7.49821e-11
-7.94752e-11
-8.27307e-11
-8.8407e-11
-9.26894e-11
-9.83701e-11
-1.00977e-10
-1.04472e-10
-1.05956e-10
-1.094e-10
-1.11022e-10
-1.14496e-10
-1.16537e-10
-1.20951e-10
-1.23311e-10
-1.26386e-10
-1.26155e-10
-1.26205e-10
-1.23058e-10
-1.20851e-10
-1.17125e-10
-1.16144e-10
-1.13662e-10
-1.124e-10
-1.08436e-10
-1.05478e-10
-1.00118e-10
-9.548e-11
-8.8625e-11
-8.28374e-11
-7.54497e-11
-6.99722e-11
-6.31738e-11
-5.83065e-11
-5.17377e-11
-4.69189e-11
-4.10542e-11
-3.74702e-11
-3.2808e-11
-3.02117e-11
-2.67028e-11
-2.5553e-11
-2.36469e-11
-2.3664e-11
-2.19884e-11
-2.14323e-11
-1.91695e-11
-1.80949e-11
-1.46546e-11
-1.10101e-11
-3.70631e-12
4.45967e-12
1.5572e-11
2.57923e-11
3.75479e-11
4.85119e-11
6.1628e-11
7.31024e-11
8.60712e-11
9.83674e-11
1.09745e-10
1.16698e-10
1.21403e-10
1.23289e-10
1.25253e-10
1.2446e-10
1.24604e-10
1.23059e-10
1.21647e-10
1.18277e-10
1.16441e-10
1.13421e-10
1.1234e-10
1.12233e-10
1.15293e-10
1.18565e-10
1.23785e-10
1.28864e-10
1.35584e-10
1.41189e-10
1.48134e-10
1.54187e-10
1.60827e-10
1.66228e-10
1.71117e-10
1.72514e-10
1.7297e-10
1.71072e-10
1.69207e-10
1.65636e-10
1.62648e-10
1.58337e-10
1.54167e-10
1.5e-10
1.48898e-10
1.4805e-10
1.47609e-10
1.47169e-10
1.50148e-10
1.51694e-10
1.53282e-10
1.54994e-10
1.55928e-10
1.54013e-10
1.51785e-10
1.47875e-10
1.42644e-10
1.34984e-10
1.24588e-10
1.11328e-10
9.59951e-11
7.81063e-11
6.09378e-11
4.38424e-11
2.65756e-11
1.01648e-11
-4.40047e-12
-1.85812e-11
-3.06571e-11
-4.07678e-11
-4.83829e-11
-5.16553e-11
-5.00439e-11
-4.37203e-11
-3.36057e-11
-2.07929e-11
-6.77499e-12
7.14984e-12
1.94454e-11
3.13098e-11
4.39611e-11
5.81708e-11
7.1734e-11
8.50737e-11
9.59188e-11
1.04441e-10
1.09315e-10
1.11638e-10
1.10788e-10
1.07448e-10
1.00924e-10
9.18658e-11
7.64901e-11
5.78279e-11
3.39381e-11
6.91093e-12
-2.38819e-11
-5.49552e-11
-8.8535e-11
-1.19158e-10
-1.46704e-10
-1.69353e-10
-1.88526e-10
-2.02826e-10
-2.13825e-10
-2.2159e-10
-2.2732e-10
-2.30056e-10
-2.32617e-10
-2.29173e-10
-2.24611e-10
-2.16344e-10
-2.09414e-10
-2.00053e-10
-1.94349e-10
-1.88385e-10
-1.86644e-10
-1.76203e-10
-1.75161e-10
-1.64128e-10
-1.6353e-10
-1.56318e-10
-1.54718e-10
-1.49415e-10
-1.46786e-10
-1.4069e-10
-1.34363e-10
-1.26203e-10
-1.13929e-10
-1.03889e-10
-9.48824e-11
-8.21484e-11
-6.97963e-11
-5.60511e-11
-4.32817e-11
-2.97299e-11
-2.04131e-11
-7.18271e-12
-5.71992e-13
1.0358e-11
1.18851e-11
2.06777e-11
1.41943e-11
2.22239e-11
1.0562e-11
1.62983e-11
6.41016e-12
6.28369e-12
6.76183e-12
-2.02661e-12
1.74847e-11
1.32996e-12
5.67112e-11
2.89271e-11
1.7083e-10
1.08666e-07
1.84342e-07
4.79388e-08
5.45765e-08
5.54425e-08
5.79676e-08
5.88869e-08
6.05518e-08
6.01768e-08
6.08625e-08
5.7661e-08
)
;

boundaryField
{
    inlet
    {
        type            calculated;
        value           uniform 6.39524e-08;
    }
    endWall
    {
        type            calculated;
        value           uniform 5.36624e-08;
    }
    sideWall
    {
        type            empty;
    }
}


// ************************************************************************* //
