/*--------------------------------*- C++ -*----------------------------------*\
| =========                 |                                                 |
| \\      /  F ield         | foam-extend: Open Source CFD                    |
|  \\    /   O peration     | Version:     3.2                                |
|   \\  /    A nd           | Web:         http://www.foam-extend.org         |
|    \\/     M anipulation  | For copyright notice see file Copyright         |
\*---------------------------------------------------------------------------*/
FoamFile
{
    version     2.0;
    format      ascii;
    class       areaScalarField;
    location    "840";
    object      Fi2;
}
// * * * * * * * * * * * * * * * * * * * * * * * * * * * * * * * * * * * * * //

dimensions      [0 1 -1 0 0 0 0];

internalField   nonuniform List<scalar> 
550
(
6.39519e-08
5.99002e-08
5.40357e-08
2.94229e-08
-1.12707e-08
-4.6966e-08
-7.94105e-08
-1.07176e-07
-1.23759e-07
-1.36612e-07
-1.39856e-07
-1.40939e-07
-1.28661e-07
-1.16272e-07
-1.09338e-07
1.94649e-07
3.4323e-07
8.61456e-08
4.59309e-08
-2.81894e-07
-3.43986e-07
2.19631e-07
2.88173e-07
-1.58794e-07
-2.55641e-07
-4.07967e-08
2.04403e-07
2.63327e-07
2.94206e-10
5.20833e-08
-1.47043e-07
2.39885e-08
3.27584e-07
-1.7463e-07
-2.59083e-07
-1.97909e-08
-1.13055e-08
2.08266e-07
2.74533e-07
6.12854e-08
6.39706e-08
-1.25712e-07
-2.02045e-07
-7.77677e-09
-1.29161e-09
-3.46068e-09
1.6861e-07
6.61347e-08
-1.71574e-07
-5.71799e-09
-1.2477e-09
4.84218e-09
6.11931e-09
6.09262e-09
1.81173e-09
3.41877e-10
-1.33501e-09
-1.45416e-09
-2.48175e-09
-3.90566e-09
-1.3501e-09
-7.11895e-11
1.60761e-09
2.0166e-09
2.38111e-09
1.7034e-09
1.11591e-09
1.81315e-10
-3.68439e-10
-7.53987e-10
-7.31944e-10
-4.01799e-10
-1.90845e-10
2.3224e-10
1.71743e-10
3.45589e-10
-4.90884e-11
-2.19119e-11
-4.04239e-10
-1.69504e-10
-3.93682e-10
1.69265e-11
-9.98691e-11
2.75424e-10
5.70625e-11
3.16275e-10
3.75708e-11
2.43273e-10
-1.92502e-11
1.71206e-10
-5.5709e-11
1.58569e-10
-2.45948e-11
1.65992e-10
-1.79908e-11
1.46986e-10
-7.59068e-11
1.10033e-11
-2.29366e-10
-1.47275e-10
-3.48289e-10
-2.20356e-10
-3.47537e-10
-1.56387e-10
-2.17557e-10
1.61024e-11
-3.70686e-11
1.69761e-10
5.90872e-11
1.95606e-10
1.21848e-11
1.00155e-10
-1.01817e-10
-7.6958e-12
-1.91615e-10
-6.46674e-11
-2.20423e-10
-6.52948e-11
-2.01455e-10
-3.06482e-11
-1.60879e-10
9.95261e-12
-1.26006e-10
3.5877e-11
-1.08376e-10
4.56704e-11
-9.73812e-11
5.2328e-11
-8.89813e-11
5.42247e-11
-8.93833e-11
4.08871e-11
-1.09054e-10
6.08148e-12
-1.43095e-10
-3.53626e-11
-1.7152e-10
-6.22329e-11
-1.76201e-10
-6.10071e-11
-1.46026e-10
-2.26782e-11
-8.89323e-11
2.30536e-11
-4.75633e-11
3.59065e-11
-3.79576e-11
2.03697e-11
-5.1011e-11
-1.01181e-11
-6.83407e-11
-3.79253e-11
-7.5391e-11
-5.32287e-11
-7.40443e-11
-6.37433e-11
-6.49632e-11
-6.79102e-11
-4.71125e-11
-6.80978e-11
-3.38611e-11
-7.25427e-11
-2.32471e-11
-7.73809e-11
-1.14147e-11
-7.94481e-11
5.72886e-12
-7.52738e-11
3.0318e-11
-6.59446e-11
5.58168e-11
-6.06764e-11
6.92549e-11
-7.19187e-11
6.64058e-11
-9.68429e-11
5.06108e-11
-1.34302e-10
2.73379e-11
-1.73894e-10
1.03164e-11
-2.02974e-10
7.48783e-12
-2.15241e-10
2.34725e-11
-2.10739e-10
5.55358e-11
-2.01956e-10
9.21494e-11
-1.98021e-10
1.21549e-10
-2.06119e-10
1.38512e-10
-2.27796e-10
1.45884e-10
-2.53814e-10
1.52726e-10
-2.76602e-10
1.60827e-10
-2.96511e-10
1.69803e-10
-3.11099e-10
1.82026e-10
-3.17407e-10
1.96663e-10
-3.16121e-10
2.10202e-10
-3.07651e-10
2.17855e-10
-2.94822e-10
2.13113e-10
-2.77078e-10
1.97968e-10
-2.47889e-10
1.74839e-10
-2.08498e-10
1.39307e-10
-1.7e-10
1.0072e-10
-1.37544e-10
7.3621e-11
-1.11431e-10
5.13246e-11
-9.3463e-11
3.21637e-11
-8.09197e-11
1.51431e-11
-7.44564e-11
-8.98573e-13
-6.99807e-11
-1.16925e-11
-6.60239e-11
-2.14069e-11
-6.46249e-11
-2.54891e-11
-5.61284e-11
-2.54879e-11
-4.83644e-11
-2.65887e-11
-4.38773e-11
-2.84837e-11
-4.13109e-11
-2.91325e-11
-3.58555e-11
-2.37525e-11
-2.52425e-11
-1.27393e-11
-1.23182e-11
-1.96531e-12
-2.03692e-14
1.06759e-11
1.60789e-11
2.93441e-11
3.75774e-11
5.11664e-11
5.91756e-11
6.92313e-11
7.27522e-11
7.90875e-11
8.22931e-11
8.88403e-11
9.16904e-11
9.62052e-11
9.66689e-11
9.84244e-11
9.61923e-11
9.56041e-11
9.26961e-11
9.24734e-11
9.03542e-11
9.00316e-11
8.75618e-11
8.68556e-11
8.46815e-11
8.52121e-11
8.36415e-11
8.45262e-11
8.31439e-11
8.38337e-11
8.26431e-11
8.27466e-11
7.95014e-11
7.70997e-11
7.19696e-11
6.83583e-11
6.24756e-11
5.85465e-11
5.28715e-11
4.99338e-11
4.50366e-11
4.22611e-11
3.69354e-11
3.372e-11
2.84021e-11
2.60352e-11
2.356e-11
2.49765e-11
2.5621e-11
2.90293e-11
3.03296e-11
3.35277e-11
3.49238e-11
3.89056e-11
4.0372e-11
4.2061e-11
3.93802e-11
3.69389e-11
3.1e-11
2.66716e-11
2.09982e-11
1.80195e-11
1.35348e-11
1.10745e-11
6.19569e-12
2.43584e-12
-3.91863e-12
-9.03361e-12
-1.55184e-11
-1.95123e-11
-2.54311e-11
-2.95184e-11
-3.59948e-11
-4.08661e-11
-4.85026e-11
-5.43411e-11
-6.08965e-11
-6.34185e-11
-6.63429e-11
-6.60119e-11
-6.70521e-11
-6.64533e-11
-6.84435e-11
-6.94411e-11
-7.29629e-11
-7.51915e-11
-7.9661e-11
-8.29091e-11
-8.85816e-11
-9.28419e-11
-9.84756e-11
-1.01029e-10
-1.0449e-10
-1.05961e-10
-1.09398e-10
-1.11007e-10
-1.14492e-10
-1.16572e-10
-1.21011e-10
-1.23356e-10
-1.26386e-10
-1.26098e-10
-1.26095e-10
-1.2291e-10
-1.20712e-10
-1.17046e-10
-1.16116e-10
-1.13633e-10
-1.12344e-10
-1.0835e-10
-1.05362e-10
-9.99768e-11
-9.53212e-11
-8.84536e-11
-8.26789e-11
-7.53222e-11
-6.98673e-11
-6.30797e-11
-5.82023e-11
-5.1621e-11
-4.68198e-11
-4.09903e-11
-3.74332e-11
-3.2789e-11
-3.02148e-11
-2.67349e-11
-2.56135e-11
-2.37265e-11
-2.37423e-11
-2.20485e-11
-2.14828e-11
-1.92256e-11
-1.81469e-11
-1.46714e-11
-1.09634e-11
-3.57705e-12
4.66871e-12
1.58156e-11
2.60223e-11
3.77675e-11
4.87478e-11
6.18755e-11
7.33332e-11
8.62858e-11
9.85565e-11
1.09853e-10
1.16695e-10
1.21317e-10
1.2317e-10
1.25116e-10
1.24309e-10
1.24421e-10
1.22825e-10
1.2137e-10
1.1795e-10
1.16079e-10
1.13076e-10
1.12055e-10
1.12038e-10
1.15179e-10
1.18509e-10
1.23785e-10
1.28909e-10
1.3566e-10
1.41304e-10
1.48308e-10
1.54422e-10
1.61123e-10
1.66545e-10
1.71392e-10
1.72758e-10
1.73216e-10
1.71344e-10
1.69516e-10
1.65971e-10
1.6299e-10
1.58682e-10
1.54528e-10
1.50395e-10
1.49333e-10
1.4849e-10
1.48035e-10
1.47611e-10
1.50614e-10
1.52144e-10
1.53691e-10
1.5533e-10
1.56149e-10
1.54145e-10
1.51871e-10
1.47915e-10
1.42623e-10
1.34863e-10
1.24347e-10
1.10967e-10
9.55432e-11
7.76307e-11
6.04505e-11
4.3362e-11
2.61262e-11
9.75012e-12
-4.7854e-12
-1.89481e-11
-3.10194e-11
-4.11119e-11
-4.86444e-11
-5.17793e-11
-5.00221e-11
-4.3566e-11
-3.33582e-11
-2.05127e-11
-6.50396e-12
7.37216e-12
1.95867e-11
3.14329e-11
4.41265e-11
5.83514e-11
7.19094e-11
8.52186e-11
9.59971e-11
1.04436e-10
1.09232e-10
1.11487e-10
1.10574e-10
1.07169e-10
1.00574e-10
9.1429e-11
7.59362e-11
5.71381e-11
3.31265e-11
6.00844e-12
-2.48472e-11
-5.59545e-11
-8.95274e-11
-1.20094e-10
-1.47532e-10
-1.70058e-10
-1.89112e-10
-2.03297e-10
-2.14213e-10
-2.21926e-10
-2.27612e-10
-2.30275e-10
-2.3271e-10
-2.29131e-10
-2.24442e-10
-2.1607e-10
-2.09126e-10
-1.99804e-10
-1.94161e-10
-1.88256e-10
-1.86451e-10
-1.75897e-10
-1.74844e-10
-1.63812e-10
-1.63233e-10
-1.56058e-10
-1.54497e-10
-1.49215e-10
-1.46586e-10
-1.40479e-10
-1.34134e-10
-1.25946e-10
-1.13603e-10
-1.03508e-10
-9.44986e-11
-8.17478e-11
-6.93714e-11
-5.56215e-11
-4.28748e-11
-2.93448e-11
-2.00272e-11
-6.794e-12
-1.9135e-13
1.06498e-11
1.21208e-11
2.08246e-11
1.42815e-11
2.22433e-11
1.05364e-11
1.6228e-11
6.30911e-12
6.14335e-12
6.58398e-12
-2.30016e-12
1.71349e-11
8.84609e-13
5.62141e-11
2.8581e-11
1.70662e-10
1.08667e-07
1.84342e-07
4.79389e-08
5.45765e-08
5.54425e-08
5.79676e-08
5.88869e-08
6.05519e-08
6.01768e-08
6.08625e-08
5.7661e-08
)
;

boundaryField
{
    inlet
    {
        type            calculated;
        value           uniform 6.39524e-08;
    }
    endWall
    {
        type            calculated;
        value           uniform 5.36624e-08;
    }
    sideWall
    {
        type            empty;
    }
}


// ************************************************************************* //
