/*--------------------------------*- C++ -*----------------------------------*\
| =========                 |                                                 |
| \\      /  F ield         | foam-extend: Open Source CFD                    |
|  \\    /   O peration     | Version:     3.2                                |
|   \\  /    A nd           | Web:         http://www.foam-extend.org         |
|    \\/     M anipulation  | For copyright notice see file Copyright         |
\*---------------------------------------------------------------------------*/
FoamFile
{
    version     2.0;
    format      ascii;
    class       areaScalarField;
    location    "840";
    object      Hdep;
}
// * * * * * * * * * * * * * * * * * * * * * * * * * * * * * * * * * * * * * //

dimensions      [0 0 0 0 0 0 0];

internalField   nonuniform List<scalar> 
550
(
0
0
0
0
0
0
0
0
0
0
0
8.93047e-06
1.20397e-05
0
0
3.4285e-05
0.00177499
0.000115828
2.91149e-05
1.17769
0.0037493
0.00711041
0.948349
0.803428
0.730893
0.719057
0.739531
0.743289
0.741939
0.755124
0.61335
0.492236
0.453434
0.425437
0.37783
0.319043
0.301291
0.204422
0.178473
0.164789
0.160547
0.13822
0.124905
0.172575
0.155628
0.145502
0.132108
0.116452
0.128827
0.106858
0.0866289
0.0652578
0.0469261
0.0319995
0.0212765
0.0133119
0.00965853
0.00925038
0.0102079
0.00977945
0.00959132
0.00990965
0.00914863
0.00871592
0.00828822
0.00791103
0.00758559
0.00730962
0.00710768
0.006919
0.00667777
0.00656927
0.00641236
0.00640346
0.00640027
0.00638144
0.00627701
0.00627016
0.0062601
0.00626712
0.0061851
0.00621713
0.00617938
0.00615862
0.00607069
0.0060749
0.00604839
0.00614546
0.00610416
0.00610922
0.00601751
0.00613293
0.00617872
0.00632565
0.00640259
0.00651561
0.00659662
0.00670563
0.00680616
0.00692879
0.00702273
0.00716165
0.00725126
0.00739066
0.00747516
0.00761881
0.00770584
0.0078452
0.00792757
0.00806441
0.00814457
0.00828768
0.00836879
0.00851849
0.00860099
0.00875248
0.00883738
0.00898913
0.00907713
0.00921816
0.00930808
0.00944619
0.00952338
0.00966968
0.00974989
0.00989469
0.0099787
0.0101202
0.0102068
0.0103467
0.0104343
0.0105648
0.0106525
0.010785
0.0108723
0.0110035
0.0110874
0.0112158
0.0112979
0.0114235
0.0115141
0.0116279
0.0117231
0.01183
0.0119254
0.0120265
0.0121207
0.0122173
0.0123129
0.0124008
0.0125012
0.0125878
0.0126804
0.0127698
0.01285
0.0129426
0.0130139
0.0131085
0.0131778
0.0132727
0.0133385
0.0134357
0.0134947
0.0135922
0.0136474
0.0137409
0.0137903
0.0138813
0.0139301
0.0140132
0.014059
0.0141407
0.0141837
0.0142643
0.0143061
0.0143861
0.0144226
0.0144978
0.0145333
0.0146019
0.0146412
0.0146993
0.0147427
0.0147887
0.0148429
0.0148768
0.0149383
0.0149686
0.0150343
0.0150663
0.0151307
0.0151517
0.0152229
0.0152292
0.0153136
0.0153001
0.0154062
0.01537
0.0154935
0.0154414
0.0155723
0.0155152
0.0156412
0.0155781
0.015707
0.0156408
0.0157646
0.0156963
0.0158103
0.0157458
0.0158536
0.015798
0.0158904
0.0158367
0.0159128
0.0158618
0.0159254
0.015897
0.0159318
0.0159178
0.0159392
0.0159358
0.0159424
0.0159441
0.0159498
0.0159535
0.0159599
0.0159641
0.0159658
0.0159648
0.0159608
0.0159552
0.0159471
0.0159379
0.0159266
0.0159154
0.0159026
0.0158909
0.0158791
0.0158688
0.0158598
0.015852
0.0158445
0.0158372
0.01583
0.0158228
0.0158159
0.0158095
0.0158039
0.0157989
0.0157939
0.0157894
0.0157847
0.01578
0.015776
0.0157724
0.0157692
0.0157675
0.0157673
0.0157688
0.0157724
0.0157775
0.0157843
0.0157928
0.0158039
0.0158174
0.0158329
0.0158502
0.0158693
0.0158899
0.0159121
0.0159352
0.0159591
0.0159841
0.0160095
0.0160354
0.0160624
0.0160904
0.0161191
0.0161485
0.0161781
0.0162072
0.0162361
0.016265
0.0162938
0.0163226
0.0163512
0.0163792
0.0164068
0.016434
0.0164608
0.0164876
0.0165142
0.0165406
0.0165669
0.0165927
0.016618
0.0166429
0.0166677
0.0166931
0.0167189
0.0167449
0.0167714
0.0167982
0.0168252
0.0168519
0.0168782
0.0169041
0.01693
0.016956
0.0169822
0.0170082
0.0170338
0.0170593
0.0170843
0.0171089
0.0171332
0.017157
0.017181
0.0172047
0.0172277
0.0172506
0.0172729
0.0172944
0.0173159
0.0173373
0.0173584
0.0173797
0.0174005
0.0174208
0.0174404
0.0174589
0.0174766
0.0174938
0.0175106
0.0175267
0.0175422
0.0175568
0.0175712
0.017586
0.0176011
0.0176164
0.0176315
0.017647
0.0176623
0.0176774
0.0176924
0.0177069
0.0177209
0.0177351
0.0177489
0.0177621
0.0177751
0.0177879
0.0178005
0.0178139
0.0178278
0.0178416
0.0178555
0.0178689
0.0178818
0.0178949
0.0179084
0.0179231
0.0179379
0.0179532
0.017969
0.0179852
0.018001
0.0180165
0.0180318
0.0180467
0.0180612
0.018075
0.0180887
0.0181028
0.0181165
0.0181303
0.0181442
0.0181583
0.0181723
0.018186
0.0182004
0.018216
0.0182327
0.0182509
0.0182705
0.0182916
0.0183142
0.0183381
0.0183636
0.0183899
0.0184168
0.0184441
0.0184717
0.0184987
0.0185257
0.0185531
0.0185809
0.0186087
0.0186361
0.0186627
0.0186886
0.0187144
0.0187404
0.0187661
0.0187913
0.0188163
0.0188412
0.0188668
0.018893
0.0189199
0.0189473
0.0189747
0.0190022
0.0190293
0.0190565
0.0190842
0.0191126
0.0191408
0.0191694
0.0191993
0.0192299
0.0192605
0.0192913
0.0193218
0.0193521
0.0193825
0.0194122
0.0194418
0.0194713
0.0195002
0.0195293
0.0195596
0.019591
0.0196233
0.019657
0.0196922
0.0197274
0.0197622
0.0197983
0.0198343
0.019871
0.0199082
0.0199446
0.0199812
0.0200173
0.0200537
0.0200901
0.0201257
0.0201603
0.0201951
0.0202291
0.0202627
0.0202963
0.0203303
0.0203647
0.0203994
0.0204345
0.0204695
0.0205039
0.0205381
0.020573
0.0206071
0.0206401
0.0206725
0.0207038
0.0207343
0.0207647
0.0207945
0.0208226
0.0208495
0.0208765
0.0209032
0.0209282
0.0209525
0.0209762
0.0209994
0.0210242
0.0210492
0.0210736
0.0210985
0.0211233
0.0211477
0.021173
0.0211979
0.0212219
0.0212471
0.0212725
0.0212987
0.0213252
0.0213516
0.0213793
0.021408
0.0214367
0.0214663
0.0214971
0.0215293
0.0215616
0.0215936
0.0216259
0.0216612
0.0216987
0.0217372
0.0217754
0.0218136
0.0218515
0.0218883
0.0219241
0.0219606
0.0219971
0.0220333
0.0220704
0.0221096
0.0221493
0.0221933
0.0222348
0.0222862
0.0223285
0.0223906
0.0224352
0.0225011
0.0225437
0.0226085
0.0226368
0.0226842
0.022693
0.02269
0.022647
0.0225247
0.0224239
0.0221004
0.0218788
0.0211678
0.0207621
0.0193096
0.0184928
0.0153414
0.0205665
0
0
0
0
0
0
0
0
0
0
0
)
;

boundaryField
{
    inlet
    {
        type            calculated;
        value           uniform 0;
    }
    endWall
    {
        type            calculated;
        value           uniform 0;
    }
    sideWall
    {
        type            empty;
    }
}


// ************************************************************************* //
