/*--------------------------------*- C++ -*----------------------------------*\
| =========                 |                                                 |
| \\      /  F ield         | foam-extend: Open Source CFD                    |
|  \\    /   O peration     | Version:     3.2                                |
|   \\  /    A nd           | Web:         http://www.foam-extend.org         |
|    \\/     M anipulation  | For copyright notice see file Copyright         |
\*---------------------------------------------------------------------------*/
FoamFile
{
    version     2.0;
    format      ascii;
    class       areaScalarField;
    location    "840";
    object      He;
}
// * * * * * * * * * * * * * * * * * * * * * * * * * * * * * * * * * * * * * //

dimensions      [0 0 0 0 0 0 0];

internalField   nonuniform List<scalar> 
550
(
0
0
0
0
0
0
0
0
0
0
0
0
0
1.24642e-05
2.38074e-05
1.59238e-05
1.05098e-08
0
0
0
4.05539e-05
1.88654e-05
0
0
0
1.92197e-05
1.6209e-05
2.36792e-06
0
0
1.92757e-05
1.01405e-05
0
0
0.000331329
2.51565e-05
6.97858e-06
2.83846e-07
8.56154e-08
0
0
0
0.000179631
3.95249e-05
5.46871e-06
1.52432e-07
0
5.95006e-08
0.000158516
5.69862e-05
6.19072e-07
0
0
0
0
0
1.96075e-05
2.3013e-05
2.14573e-05
1.2967e-05
3.72082e-06
1.86189e-09
0
0
0
0
0
0
8.54749e-06
6.04097e-06
3.259e-06
1.13781e-06
1.3101e-07
0
0
0
0
3.09448e-06
2.4552e-06
1.57287e-06
7.46162e-07
1.59343e-07
0
0
0
0
0
0
0
0
0
0
0
0
0
0
0
5.96124e-06
5.53971e-06
4.78136e-06
3.82326e-06
2.80126e-06
1.81395e-06
9.81371e-07
3.82108e-07
6.12596e-08
0
0
0
0
0
0
2.35357e-06
2.31484e-06
2.13956e-06
1.88091e-06
1.59138e-06
1.29877e-06
1.03297e-06
8.06432e-07
6.36935e-07
5.21746e-07
4.63152e-07
1.61158e-06
1.77755e-06
1.92839e-06
2.06524e-06
2.18248e-06
2.30197e-06
2.41804e-06
2.53282e-06
2.61778e-06
2.65887e-06
2.62612e-06
2.51561e-06
2.32056e-06
2.0521e-06
1.72527e-06
1.35679e-06
9.81296e-07
6.38653e-07
3.61713e-07
1.75379e-07
7.10284e-07
8.58642e-07
1.00354e-06
1.13027e-06
1.22731e-06
1.28601e-06
1.30444e-06
1.31046e-06
1.3025e-06
1.28688e-06
1.26083e-06
1.23017e-06
1.16614e-06
1.08326e-06
9.74989e-07
8.5649e-07
7.61511e-07
6.79411e-07
5.99167e-07
5.14925e-07
4.26711e-07
3.37837e-07
2.49603e-07
1.66625e-07
9.64408e-08
4.56861e-08
1.53887e-08
2.2024e-09
0
0
1.79138e-06
1.76012e-06
1.72585e-06
1.67292e-06
1.59122e-06
1.47495e-06
1.33149e-06
1.1697e-06
1.00163e-06
8.36828e-07
6.80065e-07
5.40551e-07
4.12685e-07
3.17523e-07
2.40304e-07
1.87752e-07
1.53992e-07
1.45276e-07
1.62766e-07
3.02844e-06
3.25347e-06
3.45932e-06
3.66717e-06
3.82479e-06
3.97433e-06
4.06182e-06
4.14579e-06
4.15411e-06
4.16563e-06
4.07833e-06
4.01278e-06
3.82377e-06
3.69236e-06
3.40809e-06
3.22893e-06
2.86852e-06
2.66742e-06
2.27632e-06
2.09271e-06
1.74695e-06
1.63595e-06
1.42079e-06
1.459e-06
1.52841e-06
1.64429e-06
1.92589e-06
2.03205e-06
2.28768e-06
2.42894e-06
2.73213e-06
3.10087e-06
3.60369e-06
4.03812e-06
4.56665e-06
4.93064e-06
5.2556e-06
5.35961e-06
5.40021e-06
5.24005e-06
5.02672e-06
4.75978e-06
4.505e-06
4.24381e-06
3.99794e-06
3.71711e-06
3.34015e-06
3.17805e-06
2.99527e-06
2.76378e-06
2.50393e-06
2.19959e-06
1.87134e-06
1.51082e-06
1.13853e-06
7.53913e-07
1.27903e-08
0
0
0
0
0
0
0
0
0
0
0
0
0
0
0
0
0
0
0
0
0
0
0
0
0
0
0
0
0
0
0
0
0
0
0
0
0
0
0
0
0
0
0
0
0
0
0
0
0
0
0
0
0
0
0
0
0
0
0
0
0
0
0
0
0
0
1.02282e-05
1.09548e-05
1.16399e-05
1.23687e-05
1.30705e-05
1.37412e-05
1.43758e-05
1.4975e-05
1.55392e-05
1.60674e-05
1.65631e-05
1.7029e-05
1.74715e-05
2.77214e-05
2.74816e-05
2.7135e-05
2.51206e-05
2.52096e-05
2.51972e-05
2.5074e-05
2.48363e-05
2.43084e-05
2.41819e-05
2.39456e-05
2.36008e-05
2.31572e-05
2.26167e-05
2.19801e-05
2.12471e-05
2.01212e-05
1.95892e-05
1.90119e-05
1.83856e-05
1.76974e-05
1.69422e-05
1.61222e-05
1.5243e-05
1.43102e-05
1.33307e-05
1.23112e-05
1.12603e-05
1.01904e-05
9.12175e-06
8.13394e-06
7.33502e-06
5.12976e-06
4.5506e-06
4.00822e-06
3.50214e-06
3.03442e-06
2.61042e-06
2.24785e-06
1.95218e-06
1.69477e-06
1.46615e-06
1.25989e-06
1.07003e-06
8.91262e-07
7.19845e-07
4.21822e-07
4.02217e-07
3.83784e-07
3.60478e-07
3.28153e-07
2.84817e-07
2.30355e-07
1.66751e-07
9.97527e-08
4.03698e-08
4.23253e-09
0
0
0
0
0
0
0
0
0
0
0
0
0
0
0
0
0
0
0
0
0
0
0
0
0
0
0
0
0
0
0
0
0
0
0
0
0
0
0
0
0
0
0
0
0
0
0
0
0
0
0
0
0
0
0
0
0
0
0
0
0
0
0
0
0
4.35563e-07
5.66513e-07
6.31771e-07
6.35149e-07
5.88176e-07
5.02059e-07
3.89961e-07
2.69131e-07
1.56377e-07
6.52413e-08
8.74598e-09
0
0
0
0
0
0
0
0
0
0
0
0
0
0
0
0
0
0
0
2.40429e-05
2.38331e-05
2.34529e-05
2.291e-05
2.2234e-05
2.14423e-05
2.05707e-05
1.96523e-05
1.86944e-05
1.77077e-05
1.66796e-05
1.5613e-05
1.45294e-05
1.34468e-05
1.24021e-05
1.15051e-05
1.07653e-05
1.00792e-05
9.43653e-06
8.84039e-06
8.15032e-06
7.41718e-06
6.81473e-06
6.22962e-06
5.62742e-06
5.02987e-06
4.43108e-06
3.85877e-06
3.31331e-06
2.78656e-06
2.28434e-06
1.81675e-06
1.41538e-06
1.13777e-06
9.24744e-07
7.08785e-07
5.09126e-07
3.44114e-07
2.09943e-07
1.11915e-07
4.68538e-08
1.0381e-08
0
0
0
0
0
0
0
0
0
0
0
0
0
0
0
0
0
0
0
0
0
0
0
0
0
0
0
0
)
;

boundaryField
{
    inlet
    {
        type            calculated;
        value           uniform 0;
    }
    endWall
    {
        type            calculated;
        value           uniform 0;
    }
    sideWall
    {
        type            empty;
    }
}


// ************************************************************************* //
