/*--------------------------------*- C++ -*----------------------------------*\
| =========                 |                                                 |
| \\      /  F ield         | foam-extend: Open Source CFD                    |
|  \\    /   O peration     | Version:     3.2                                |
|   \\  /    A nd           | Web:         http://www.foam-extend.org         |
|    \\/     M anipulation  | For copyright notice see file Copyright         |
\*---------------------------------------------------------------------------*/
FoamFile
{
    version     2.0;
    format      ascii;
    class       volScalarField;
    location    "840";
    object      k;
}
// * * * * * * * * * * * * * * * * * * * * * * * * * * * * * * * * * * * * * //

dimensions      [0 2 -2 0 0 0 0];

internalField   nonuniform List<scalar> 
33000
(
0.000162381
0.000222361
0.000294389
0.000377575
0.000469695
0.000567402
0.000667029
0.00076438
0.00085596
0.000939765
0.00101077
0.00107302
0.0011217
0.00115874
0.00118089
0.00119045
0.00119453
0.00118701
0.00116831
0.00116262
0.00113991
0.00111446
0.00110045
0.00107285
0.00105179
0.00104058
0.00103637
0.00102636
0.00101482
0.00100548
0.000990171
0.000975338
0.000957026
0.000937664
0.000929779
0.000927632
0.000916143
0.000896019
0.000876598
0.000861901
0.000852212
0.000852212
0.000857913
0.000856277
0.000848289
0.000837875
0.000823456
0.000814767
0.000813779
0.000814524
0.000811465
0.000804913
0.000797284
0.000790668
0.000787433
0.000787071
0.00078997
0.000794022
0.000798449
0.000802103
0.000803663
0.000803235
0.000802219
0.000800521
0.000798972
0.000797821
0.000797332
0.000797731
0.000798634
0.000799555
0.000800077
0.000800207
0.000800014
0.00080009
0.000800214
0.000800506
0.000800547
0.000800875
0.000801484
0.000801906
0.000802152
0.000802656
0.000802879
0.000802635
0.000801837
0.000800863
0.000799906
0.000799368
0.000798309
0.000796474
0.000794472
0.000793748
0.000793494
0.00079352
0.000793591
0.000793766
0.000793964
0.000794384
0.00079493
0.000795722
0.00079656
0.00079748
0.00079831
0.000799147
0.000799874
0.000800567
0.000801131
0.000801654
0.000802072
0.000802508
0.000802903
0.000803385
0.000803854
0.000804425
0.000804975
0.000805602
0.000806186
0.000806792
0.000807322
0.000807865
0.00080833
0.000808777
0.000809138
0.000809501
0.00080981
0.000810161
0.000810479
0.000810835
0.000811166
0.000811526
0.000811863
0.000812229
0.000812582
0.000812967
0.000813344
0.000813749
0.000814138
0.000814542
0.000814921
0.000815295
0.000815638
0.000815953
0.000816234
0.000816476
0.00081671
0.000816918
0.000817133
0.000817331
0.000817545
0.00081774
0.000817947
0.000818135
0.000818328
0.000818493
0.000818659
0.000818796
0.000818927
0.000819018
0.000819112
0.00081916
0.000819221
0.000819233
0.00081927
0.000819258
0.000819273
0.000819235
0.000819219
0.000819152
0.000819106
0.000819001
0.000818929
0.000818803
0.000818715
0.000818575
0.00081848
0.000818346
0.000818263
0.000818144
0.000818071
0.000817961
0.000817899
0.000817788
0.000817727
0.000817594
0.000817541
0.000817362
0.000817326
0.000817095
0.000817083
0.000816848
0.000816864
0.000816649
0.000816687
0.000816491
0.000816549
0.000816371
0.000816447
0.000816281
0.000816365
0.000816201
0.000816275
0.000816107
0.000816158
0.000815992
0.000815988
0.00081582
0.000815743
0.000815566
0.000815377
0.000815213
0.000814889
0.000814723
0.000814256
0.000814101
0.000813485
0.000813312
0.000812632
0.000812431
0.00081179
0.000811558
0.00081098
0.000810726
0.000810185
0.000809916
0.000809421
0.000809137
0.000808671
0.000808378
0.00080794
0.000807625
0.000807195
0.000806865
0.000806469
0.000806123
0.000805761
0.000805406
0.000805056
0.0008047
0.00080436
0.000804012
0.000803672
0.000803341
0.000803006
0.000802683
0.000802367
0.000802062
0.000801749
0.000801452
0.00080116
0.000800878
0.0008006
0.000800336
0.000800074
0.000799825
0.00079958
0.000799345
0.000799116
0.000798905
0.000798709
0.000798524
0.000798353
0.000798195
0.000798052
0.00079792
0.000797804
0.000797708
0.000797626
0.000797556
0.000797504
0.000797461
0.000797432
0.000797407
0.000797394
0.000797397
0.000797408
0.000797422
0.000797443
0.000797465
0.000797495
0.000797537
0.000797582
0.000797629
0.000797683
0.000797752
0.000797816
0.00079789
0.000797965
0.000798048
0.000798132
0.000798218
0.000798305
0.000798392
0.00079848
0.000798566
0.000798652
0.000798734
0.000798812
0.000798881
0.000798942
0.000798994
0.000799039
0.000799074
0.000799102
0.000799121
0.000799134
0.000799139
0.000799148
0.000799148
0.000799146
0.000799143
0.000799133
0.000799121
0.0007991
0.00079908
0.000799048
0.000799011
0.000798975
0.000798934
0.000798883
0.000798819
0.000798746
0.000798672
0.000798589
0.000798502
0.000798406
0.000798305
0.000798195
0.000798074
0.000797944
0.00079781
0.000797662
0.000797497
0.000797324
0.000797148
0.000796963
0.000796768
0.000796567
0.000796356
0.000796139
0.000795913
0.000795685
0.000795442
0.00079519
0.000794934
0.000794665
0.000794391
0.000794115
0.000793836
0.000793547
0.000793256
0.000792962
0.000792664
0.000792363
0.000792059
0.000791752
0.000791445
0.000791137
0.000790832
0.000790533
0.000790228
0.000789921
0.000789614
0.000789302
0.000788994
0.000788676
0.000788355
0.000788037
0.000787716
0.000787387
0.000787058
0.000786733
0.000786412
0.000786093
0.000785773
0.000785457
0.000785155
0.000784857
0.000784571
0.0007843
0.000784043
0.000783803
0.000783575
0.000783372
0.000783187
0.000783015
0.00078286
0.000782721
0.000782597
0.000782485
0.000782386
0.00078231
0.000782248
0.000782196
0.000782159
0.000782139
0.000782129
0.000782137
0.000782169
0.000782207
0.000782265
0.000782343
0.000782433
0.000782528
0.000782635
0.000782757
0.00078288
0.000783011
0.000783155
0.000783296
0.000783438
0.000783582
0.000783726
0.000783873
0.000784019
0.000784169
0.000784318
0.00078447
0.000784616
0.000784769
0.000784927
0.000785083
0.000785252
0.000785425
0.000785597
0.000785774
0.000785961
0.000786152
0.000786339
0.000786528
0.000786722
0.000786917
0.000787101
0.000787288
0.000787473
0.000787648
0.000787828
0.000788005
0.00078818
0.00078836
0.000788528
0.000788709
0.000788895
0.000789082
0.000789279
0.000789471
0.00078968
0.000789901
0.000790116
0.000790333
0.000790556
0.000790763
0.000790963
0.00079116
0.000791342
0.000791509
0.000791656
0.000791779
0.000791874
0.000791939
0.000791973
0.000791977
0.000791953
0.000791913
0.000791851
0.000791757
0.000791643
0.000791507
0.000791354
0.000791194
0.00079102
0.000790827
0.000790626
0.000790428
0.000790226
0.000790014
0.000789813
0.000789615
0.000789416
0.000789237
0.000789071
0.000788913
0.00078878
0.000788664
0.000788553
0.000788464
0.000788381
0.000788292
0.000788212
0.000788132
0.000788044
0.000787955
0.000787846
0.000787742
0.000787633
0.000787501
0.000787366
0.000787235
0.000787108
0.000786963
0.000786837
0.000786733
0.000786649
0.0007866
0.000786599
0.000786608
0.000786648
0.000786722
0.000786812
0.000786929
0.000787086
0.000787257
0.00078745
0.000787665
0.000787926
0.000788147
0.000788548
0.000788689
0.000789297
0.000789268
0.000790268
0.000789868
0.000791533
0.000790707
0.000793166
0.000792141
0.000795036
0.000793864
0.000796362
0.000795049
0.000795809
0.000794306
0.00079175
0.000789683
0.000783528
0.000779806
0.000767703
0.000756395
0.000721648
0.000664836
0.000459311
0.000219069
0.000285495
0.000201226
0.00018851
0.000147885
0.000130965
9.54508e-05
0.000104163
0.000156876
0.000256804
0.000113261
0.000116683
0.000122349
0.000129566
0.000139218
0.000150403
0.000162547
0.000175604
0.000188612
0.000205692
0.000221998
0.000245359
0.000269
0.000296628
0.000320446
0.000342001
0.000364364
0.000386564
0.000403046
0.000420117
0.000432555
0.000442533
0.000451763
0.000466531
0.000472615
0.000480934
0.000497793
0.000518733
0.00053674
0.000551108
0.00056775
0.000582355
0.000596701
0.000608676
0.000610714
0.000610524
0.000618751
0.00063491
0.000652863
0.000668366
0.000676461
0.000674879
0.000670532
0.0006717
0.000676387
0.000685652
0.000698319
0.000706754
0.000707881
0.000708205
0.000710118
0.000713888
0.00071928
0.000725122
0.000729238
0.00073146
0.000731374
0.000730467
0.000729749
0.00072983
0.000731606
0.000734665
0.000738402
0.000743326
0.000748126
0.000752846
0.000756513
0.000758997
0.00076036
0.000761092
0.000761387
0.000761628
0.000761848
0.000762294
0.000763165
0.00076447
0.000766253
0.000767906
0.000769148
0.000770218
0.000770913
0.000770853
0.000770665
0.000770261
0.000770399
0.000770548
0.00077106
0.000771222
0.000771847
0.00077296
0.000774122
0.000773762
0.000773327
0.000772945
0.000772614
0.000772394
0.000772144
0.000771831
0.000771407
0.000770805
0.000770104
0.00076931
0.00076846
0.00076751
0.000766474
0.000765387
0.000764248
0.000763138
0.000762078
0.000761164
0.000760404
0.000759795
0.000759315
0.000758858
0.000758378
0.000757865
0.000757317
0.00075675
0.000756158
0.000755547
0.000754926
0.000754329
0.000753751
0.000753215
0.000752704
0.000752245
0.000751832
0.000751494
0.000751213
0.000751008
0.000750849
0.000750753
0.000750689
0.000750675
0.000750686
0.000750743
0.000750822
0.000750943
0.000751089
0.000751279
0.000751497
0.00075178
0.0007521
0.000752493
0.000752914
0.000753395
0.000753906
0.000754456
0.000755038
0.000755644
0.000756286
0.000756944
0.000757636
0.00075834
0.000759069
0.000759804
0.000760561
0.000761331
0.000762108
0.000762914
0.000763707
0.00076454
0.000765338
0.000766188
0.000766994
0.000767852
0.000768669
0.000769534
0.000770362
0.000771242
0.000772085
0.000772979
0.00077384
0.000774749
0.000775627
0.00077655
0.000777439
0.000778372
0.000779264
0.000780193
0.00078107
0.000781986
0.000782848
0.000783766
0.00078461
0.000785561
0.000786396
0.000787404
0.000788269
0.000789288
0.000790189
0.000791221
0.00079214
0.000793188
0.00079412
0.000795177
0.000796112
0.000797171
0.000798102
0.000799162
0.000800093
0.000801156
0.00080209
0.000803154
0.0008041
0.000805161
0.000806119
0.000807173
0.00080815
0.000809174
0.000810165
0.000811148
0.00081215
0.000813075
0.000814091
0.00081497
0.000815969
0.000816812
0.000817753
0.00081857
0.000819447
0.000820229
0.000821069
0.000821806
0.000822582
0.000823245
0.000823933
0.000824483
0.000825071
0.000825576
0.00082616
0.00082667
0.0008272
0.000827742
0.000828155
0.000828666
0.000828951
0.000829394
0.000829608
0.000829995
0.000830181
0.0008305
0.000830664
0.000830929
0.000831048
0.000831241
0.000831342
0.000831489
0.000831548
0.000831652
0.00083168
0.000831731
0.000831722
0.000831727
0.000831692
0.000831666
0.00083163
0.000831579
0.000831519
0.000831443
0.000831365
0.000831271
0.000831173
0.000831072
0.000830964
0.000830836
0.000830705
0.000830548
0.000830381
0.000830184
0.000829976
0.000829749
0.000829511
0.000829231
0.000828947
0.000828647
0.000828334
0.000828017
0.000827681
0.000827328
0.000826976
0.000826636
0.000826296
0.000825941
0.000825616
0.000825271
0.000824954
0.000824616
0.000824301
0.000823966
0.000823647
0.000823306
0.000822965
0.000822601
0.000822233
0.000821844
0.000821452
0.00082105
0.00082065
0.000820242
0.000819841
0.000819438
0.000819049
0.000818665
0.000818299
0.000817955
0.000817616
0.000817313
0.000817019
0.000816741
0.000816487
0.000816258
0.000816053
0.000815856
0.000815686
0.000815532
0.000815383
0.000815238
0.000815108
0.000814998
0.000814897
0.000814791
0.000814709
0.000814613
0.000814542
0.000814447
0.000814368
0.000814265
0.000814184
0.000814058
0.000813966
0.000813862
0.000813777
0.000813664
0.000813569
0.000813459
0.000813366
0.000813267
0.000813177
0.000813088
0.000812978
0.0008129
0.000812798
0.000812709
0.000812617
0.000812532
0.000812432
0.000812339
0.000812239
0.000812136
0.000812022
0.000811907
0.000811779
0.000811657
0.000811525
0.000811394
0.000811248
0.0008111
0.000810922
0.000810766
0.000810576
0.000810403
0.000810205
0.000810002
0.000809798
0.000809589
0.000809367
0.000809147
0.000808936
0.000808738
0.000808542
0.000808368
0.000808197
0.000808058
0.000807925
0.000807803
0.000807705
0.000807606
0.00080753
0.000807443
0.000807375
0.0008073
0.000807221
0.000807126
0.000807029
0.000806912
0.000806782
0.000806629
0.000806468
0.000806284
0.000806084
0.000805872
0.000805673
0.000805473
0.000805282
0.000805127
0.000804984
0.000804862
0.000804789
0.000804743
0.000804725
0.000804743
0.000804806
0.000804891
0.000804985
0.00080511
0.000805237
0.000805354
0.000805475
0.000805591
0.000805707
0.000805817
0.000805927
0.000806033
0.00080614
0.000806246
0.000806361
0.000806498
0.000806639
0.000806805
0.000806984
0.000807168
0.000807372
0.000807608
0.000807865
0.000808124
0.000808399
0.000808681
0.000808965
0.000809227
0.000809483
0.000809739
0.000809968
0.000810202
0.00081043
0.000810638
0.000810859
0.000811087
0.000811324
0.0008116
0.000811876
0.000812173
0.000812494
0.000812839
0.00081323
0.000813625
0.000814031
0.000814473
0.000814935
0.00081538
0.000815841
0.000816279
0.000816674
0.00081703
0.000817329
0.000817565
0.000817723
0.000817811
0.000817822
0.000817766
0.000817652
0.000817498
0.000817279
0.000817037
0.000816762
0.000816466
0.000816146
0.000815816
0.000815458
0.000815105
0.000814768
0.000814458
0.000814153
0.000813898
0.000813697
0.000813533
0.000813433
0.000813395
0.0008134
0.000813459
0.000813576
0.000813706
0.000813867
0.000814029
0.000814159
0.000814252
0.000814305
0.000814294
0.000814222
0.000814093
0.000813901
0.000813673
0.000813375
0.000813015
0.000812622
0.000812209
0.000811728
0.000811244
0.000810771
0.0008103
0.000809796
0.000809316
0.000808804
0.000808279
0.000807767
0.000807284
0.000806737
0.000806279
0.000805745
0.000805267
0.000804713
0.000804278
0.000803733
0.000803309
0.000802841
0.000802256
0.000801964
0.0008012
0.0008011
0.000799999
0.000800364
0.0007987
0.000799844
0.000797531
0.000799323
0.000796493
0.000798723
0.000795719
0.000797898
0.00079526
0.000796542
0.00079474
0.000794189
0.000791181
0.000786688
0.000776602
0.000764574
0.000738135
0.000682575
0.000633849
0.000744209
0.000718309
0.000745019
0.000703728
0.000642763
0.000574714
0.000379618
0.000246843
0.000223616
0.000305002
0.000111173
0.000111594
0.000112705
0.00011388
0.0001152
0.000116605
0.000118086
0.000119664
0.000121166
0.000123329
0.00012545
0.000129606
0.000134163
0.000140617
0.000145872
0.000151355
0.000157832
0.000163922
0.000167025
0.00017157
0.000172918
0.00017604
0.000177946
0.000181151
0.0001827
0.000184859
0.000192535
0.000202155
0.000213863
0.000223538
0.000234842
0.0002455
0.000254
0.00025989
0.00026463
0.000274277
0.000290222
0.000305484
0.000314892
0.000320837
0.000324596
0.000329744
0.000339159
0.000353957
0.000369563
0.000381993
0.000391086
0.000396775
0.000402401
0.00041221
0.000424436
0.000437366
0.000448448
0.000456341
0.000460784
0.000463606
0.000466294
0.000470288
0.000476185
0.000483245
0.000491589
0.000500562
0.000509501
0.000517492
0.000524231
0.000529484
0.000533778
0.000537385
0.000540959
0.000544755
0.000548983
0.000553674
0.000558566
0.000563392
0.000567812
0.000571897
0.00057556
0.000578785
0.000581754
0.000584778
0.000587682
0.000590463
0.000593239
0.000596224
0.00059917
0.000602022
0.000604539
0.000606974
0.000609375
0.000611808
0.000613915
0.000615547
0.000616787
0.000617999
0.000619092
0.000619946
0.000620667
0.000621177
0.000621514
0.000621685
0.000621771
0.000621868
0.000622008
0.000622238
0.000622414
0.000622617
0.000622751
0.000622902
0.000623059
0.000623208
0.00062338
0.000623536
0.000623656
0.000623764
0.00062382
0.000623922
0.000624009
0.000624165
0.000624281
0.000624435
0.000624549
0.000624728
0.000624874
0.000625082
0.000625271
0.000625525
0.000625787
0.000626143
0.000626529
0.000627007
0.000627497
0.000628059
0.000628627
0.000629263
0.000629904
0.000630619
0.000631347
0.000632154
0.000632987
0.000633897
0.000634834
0.000635843
0.00063688
0.000637979
0.000639105
0.000640279
0.000641484
0.000642716
0.00064398
0.000645269
0.000646586
0.000647938
0.000649314
0.000650725
0.000652151
0.000653606
0.000655075
0.00065657
0.000658076
0.000659601
0.000661137
0.000662709
0.000664271
0.000665889
0.000667475
0.000669126
0.000670734
0.000672406
0.000674035
0.000675731
0.000677388
0.000679089
0.00068076
0.000682458
0.000684139
0.000685817
0.0006875
0.000689178
0.000690879
0.000692588
0.000694317
0.000696064
0.000697833
0.000699631
0.00070144
0.000703305
0.00070515
0.000707089
0.000708963
0.000710946
0.000712851
0.000714852
0.00071678
0.000718788
0.000720725
0.000722739
0.000724683
0.000726701
0.000728654
0.000730681
0.000732648
0.00073468
0.000736658
0.000738688
0.000740693
0.000742716
0.000744748
0.000746759
0.000748829
0.000750797
0.00075291
0.000754834
0.000756986
0.000758848
0.000761046
0.000762868
0.000765053
0.000766851
0.000768958
0.000770742
0.000772764
0.000774537
0.0007765
0.000778249
0.000780128
0.000781839
0.000783643
0.000785306
0.000787069
0.000788722
0.000790446
0.000792073
0.000793654
0.000795252
0.000796672
0.000798151
0.00079947
0.00080087
0.000802146
0.000803481
0.000804723
0.000805969
0.000807156
0.00080832
0.000809442
0.000810515
0.000811566
0.000812573
0.000813543
0.000814467
0.000815359
0.000816197
0.000817003
0.00081776
0.00081849
0.000819179
0.000819844
0.00082047
0.000821057
0.00082162
0.00082215
0.000822653
0.000823125
0.000823575
0.000824002
0.000824392
0.000824754
0.000825083
0.000825376
0.000825631
0.000825847
0.000826027
0.000826173
0.000826268
0.000826321
0.00082634
0.000826316
0.000826264
0.000826184
0.000826064
0.000825913
0.00082574
0.000825546
0.000825316
0.000825064
0.000824807
0.000824523
0.000824235
0.000823923
0.000823598
0.000823249
0.000822883
0.000822484
0.000822061
0.000821609
0.00082114
0.000820646
0.000820146
0.000819629
0.000819115
0.000818587
0.000818067
0.000817542
0.000817042
0.000816547
0.000816089
0.000815633
0.000815207
0.000814803
0.00081443
0.000814088
0.000813772
0.000813494
0.000813227
0.000812998
0.000812794
0.000812603
0.000812429
0.000812263
0.000812118
0.00081199
0.000811866
0.000811759
0.000811655
0.000811564
0.000811474
0.00081139
0.000811308
0.000811235
0.000811156
0.000811081
0.000811013
0.000810955
0.000810891
0.000810831
0.000810771
0.000810716
0.000810663
0.000810615
0.000810573
0.000810524
0.000810487
0.000810452
0.000810408
0.000810371
0.000810336
0.000810291
0.00081024
0.000810193
0.00081014
0.000810085
0.000810027
0.000809969
0.000809914
0.00080986
0.000809806
0.000809746
0.000809684
0.000809603
0.000809526
0.00080944
0.000809352
0.000809261
0.000809156
0.000809058
0.000808962
0.000808862
0.000808764
0.000808688
0.000808632
0.000808587
0.000808566
0.000808559
0.000808582
0.000808634
0.000808695
0.000808777
0.000808877
0.000808986
0.000809102
0.000809206
0.000809316
0.000809401
0.000809462
0.000809509
0.000809525
0.000809515
0.000809472
0.000809409
0.000809322
0.00080921
0.000809083
0.000808963
0.00080885
0.000808737
0.000808653
0.000808602
0.000808571
0.000808582
0.000808653
0.000808756
0.000808903
0.000809096
0.000809329
0.000809575
0.000809845
0.000810139
0.000810424
0.000810716
0.000811012
0.0008113
0.000811592
0.00081187
0.000812158
0.00081243
0.000812719
0.000812999
0.00081331
0.000813627
0.000813955
0.000814324
0.000814708
0.000815111
0.000815543
0.000815993
0.000816449
0.000816898
0.000817357
0.000817807
0.000818243
0.00081865
0.000819055
0.000819428
0.00081977
0.000820118
0.000820451
0.000820784
0.000821134
0.000821478
0.000821857
0.000822245
0.000822663
0.000823114
0.000823597
0.000824133
0.000824707
0.000825303
0.000825947
0.000826621
0.000827292
0.000827981
0.00082865
0.000829283
0.000829862
0.000830366
0.000830781
0.000831098
0.000831313
0.000831425
0.000831445
0.00083138
0.000831253
0.00083105
0.000830794
0.000830503
0.000830174
0.00082981
0.000829421
0.000828996
0.000828547
0.000828101
0.000827673
0.000827256
0.000826875
0.000826565
0.000826304
0.000826106
0.000825996
0.000825948
0.000825956
0.000826039
0.000826153
0.00082629
0.00082644
0.000826558
0.000826621
0.000826647
0.000826591
0.000826465
0.000826257
0.000825971
0.000825617
0.000825188
0.000824684
0.000824127
0.000823526
0.000822872
0.00082218
0.000821489
0.000820778
0.000820065
0.000819349
0.000818642
0.000817902
0.000817168
0.00081644
0.000815686
0.000814928
0.000814178
0.00081339
0.000812593
0.000811779
0.000810965
0.000810087
0.000809267
0.000808295
0.000807495
0.000806389
0.000805745
0.000804357
0.000804146
0.00080224
0.000802806
0.000800276
0.000801379
0.000798361
0.000799764
0.000796568
0.000797748
0.000794823
0.000794984
0.000792703
0.000790842
0.000787834
0.000783328
0.000778134
0.000764627
0.000757133
0.000713564
0.00069748
0.000745298
0.000779083
0.000836794
0.000856743
0.000856983
0.000830443
0.000676399
0.000493097
0.000322058
0.000361611
0.000110994
0.000111161
0.000111705
0.000112318
0.00011293
0.000113522
0.000113904
0.000114197
0.000114297
0.000114451
0.000114456
0.000114753
0.000115133
0.000116057
0.000116795
0.000117713
0.000118642
0.0001194
0.000119187
0.000118909
0.000118059
0.000117726
0.000116963
0.000116815
0.000115925
0.000115128
0.000115619
0.000116644
0.000118917
0.000120701
0.000123087
0.000125119
0.000126151
0.000126981
0.000128246
0.000131535
0.000136768
0.000141555
0.000144499
0.000146545
0.000148602
0.00015209
0.000157657
0.000165298
0.000173798
0.000180154
0.000185086
0.00018925
0.000194155
0.000202342
0.000212067
0.000222712
0.000230987
0.00023714
0.000241355
0.00024489
0.000248768
0.000253973
0.000260903
0.000269381
0.000279506
0.00029012
0.000300116
0.000308491
0.00031573
0.00032152
0.000326849
0.000331832
0.000337384
0.000343668
0.000351155
0.000359272
0.000367467
0.000375092
0.000381956
0.000388332
0.000394027
0.000399465
0.000404574
0.000409876
0.000415175
0.000420819
0.000426628
0.00043297
0.000439037
0.000444923
0.000450077
0.000454933
0.000459558
0.000464141
0.000468396
0.000472061
0.000475445
0.000478601
0.000481632
0.000484474
0.00048716
0.000489587
0.000491835
0.000493942
0.000495955
0.000497976
0.000500007
0.00050208
0.000504167
0.000506289
0.000508429
0.000510654
0.000512825
0.000514943
0.000516898
0.000518673
0.000520263
0.000521731
0.000523145
0.000524534
0.000525889
0.000527257
0.000528603
0.000529962
0.000531305
0.000532682
0.000534054
0.000535454
0.000536849
0.00053826
0.000539684
0.000541135
0.000542605
0.000544112
0.000545625
0.000547169
0.000548714
0.000550289
0.000551869
0.000553489
0.000555123
0.00055681
0.000558522
0.000560291
0.000562091
0.000563945
0.000565829
0.000567763
0.000569717
0.00057171
0.00057372
0.000575763
0.000577818
0.000579907
0.000582005
0.00058413
0.000586264
0.00058842
0.000590581
0.000592765
0.000594953
0.000597159
0.000599364
0.000601587
0.000603815
0.000606065
0.000608325
0.000610601
0.000612888
0.000615197
0.000617519
0.000619863
0.000622214
0.00062459
0.000626968
0.000629364
0.000631759
0.00063417
0.000636575
0.000638981
0.000641385
0.000643793
0.000646226
0.000648676
0.000651158
0.00065367
0.000656221
0.000658813
0.000661436
0.000664121
0.000666808
0.000669584
0.000672333
0.000675169
0.000677979
0.000680847
0.000683689
0.000686576
0.000689428
0.000692326
0.00069518
0.000698085
0.000700943
0.000703859
0.000706718
0.000709644
0.0007125
0.000715429
0.000718294
0.000721223
0.000724102
0.000727024
0.000729921
0.000732809
0.000735738
0.000738589
0.000741552
0.000744348
0.000747346
0.000750105
0.000753083
0.000755824
0.000758751
0.000761474
0.00076433
0.000767019
0.000769817
0.000772458
0.000775169
0.00077776
0.000780415
0.000782964
0.000785561
0.000788075
0.000790581
0.000793023
0.00079541
0.000797768
0.000800032
0.0008023
0.000804504
0.000806702
0.000808838
0.000810949
0.000813026
0.000815041
0.000817036
0.000818966
0.000820869
0.000822694
0.000824489
0.000826216
0.000827891
0.000829494
0.000831047
0.00083252
0.00083394
0.000835286
0.000836582
0.000837813
0.000838998
0.000840127
0.000841196
0.000842225
0.000843205
0.000844142
0.000845034
0.000845891
0.000846716
0.000847493
0.000848226
0.000848922
0.000849567
0.000850167
0.00085071
0.000851207
0.000851658
0.000852053
0.00085239
0.000852678
0.000852907
0.000853086
0.00085322
0.000853298
0.000853326
0.000853308
0.000853259
0.000853154
0.000853024
0.000852865
0.00085268
0.000852471
0.000852227
0.000851957
0.000851651
0.000851315
0.000850938
0.000850528
0.00085008
0.000849607
0.000849103
0.000848583
0.000848044
0.0008475
0.000846945
0.000846392
0.000845839
0.000845304
0.000844779
0.00084429
0.000843814
0.000843369
0.000842953
0.000842571
0.000842222
0.000841903
0.000841622
0.000841362
0.000841141
0.000840951
0.000840781
0.000840633
0.000840494
0.000840374
0.000840274
0.000840181
0.000840106
0.000840038
0.000839984
0.000839936
0.000839898
0.000839864
0.000839843
0.000839825
0.000839811
0.000839806
0.000839815
0.000839819
0.000839824
0.000839831
0.000839839
0.000839849
0.000839858
0.000839871
0.000839877
0.000839885
0.000839891
0.000839882
0.000839873
0.00083986
0.000839835
0.000839799
0.000839767
0.00083973
0.000839692
0.000839655
0.000839621
0.000839592
0.000839568
0.00083955
0.000839536
0.000839529
0.000839512
0.000839499
0.000839484
0.000839467
0.000839453
0.000839429
0.000839417
0.000839415
0.00083942
0.000839434
0.000839475
0.000839541
0.000839629
0.000839744
0.000839884
0.000840056
0.000840266
0.000840492
0.00084074
0.000841012
0.000841285
0.000841564
0.000841823
0.000842079
0.000842304
0.000842493
0.000842655
0.000842775
0.000842856
0.000842896
0.000842904
0.000842889
0.000842846
0.000842789
0.000842733
0.000842694
0.000842669
0.000842681
0.000842742
0.000842842
0.000842999
0.000843226
0.000843506
0.000843842
0.000844234
0.000844677
0.000845147
0.000845646
0.000846168
0.000846694
0.000847229
0.000847766
0.0008483
0.000848832
0.000849351
0.000849874
0.000850382
0.000850904
0.000851416
0.000851956
0.000852508
0.00085307
0.000853676
0.0008543
0.000854939
0.000855602
0.000856277
0.000856953
0.000857609
0.000858264
0.000858894
0.000859498
0.000860058
0.000860601
0.000861106
0.000861571
0.000862033
0.000862483
0.000862922
0.000863374
0.000863822
0.000864303
0.000864803
0.00086534
0.00086592
0.000866546
0.000867233
0.000867979
0.000868769
0.00086962
0.000870515
0.000871424
0.000872352
0.000873263
0.000874126
0.000874921
0.000875621
0.000876206
0.000876665
0.000876989
0.00087718
0.000877249
0.000877206
0.000877075
0.000876859
0.000876569
0.000876235
0.000875852
0.000875421
0.000874952
0.000874436
0.000873875
0.000873302
0.000872729
0.000872167
0.000871629
0.000871162
0.000870761
0.000870429
0.000870199
0.000870049
0.000869968
0.000869968
0.000870016
0.00087009
0.000870181
0.000870247
0.00087025
0.00087021
0.000870078
0.000869868
0.000869568
0.000869171
0.000868698
0.000868128
0.000867478
0.000866758
0.000865985
0.000865159
0.000864284
0.000863398
0.000862492
0.000861588
0.000860674
0.000859773
0.000858846
0.000857924
0.000857007
0.000856078
0.000855132
0.000854193
0.000853215
0.000852221
0.00085119
0.00085015
0.000849021
0.000847929
0.000846687
0.000845571
0.000844163
0.000843133
0.000841487
0.000840754
0.000838753
0.000838574
0.00083609
0.000836467
0.000833452
0.000834148
0.000830687
0.000831003
0.000827424
0.000826907
0.000823482
0.000821522
0.000817582
0.000813173
0.000806687
0.000794849
0.000784713
0.000752427
0.00073674
0.000759098
0.000786293
0.000830841
0.000871156
0.000912089
0.000941422
0.000883838
0.000720797
0.000489931
0.000424217
0.000111011
0.00011116
0.000111643
0.000112197
0.000112714
0.000113208
0.000113559
0.000113861
0.000113959
0.000114033
0.000113909
0.000113746
0.000113596
0.000113426
0.000113281
0.000113113
0.000112906
0.000112584
0.000112023
0.000111478
0.000111058
0.000110616
0.000110187
0.0001098
0.000109411
0.000109141
0.00010893
0.000108806
0.000108892
0.00010899
0.000109167
0.000109345
0.000109548
0.000109638
0.000109747
0.000110455
0.000111577
0.000112396
0.000112712
0.00011298
0.000113471
0.00011438
0.000115905
0.000118002
0.000120212
0.000121906
0.000123422
0.000124985
0.000126846
0.000130139
0.000133931
0.000137998
0.000141056
0.000143576
0.000145955
0.00014842
0.000151207
0.000154633
0.000158866
0.000164006
0.00017005
0.000176271
0.0001825
0.000188031
0.000193304
0.000198098
0.000203082
0.000208266
0.000214053
0.000220579
0.000227877
0.000235833
0.000244105
0.000252042
0.000259652
0.000266938
0.00027397
0.000281093
0.00028808
0.000295387
0.000302922
0.000311026
0.000319162
0.000328007
0.000336286
0.00034428
0.000351551
0.000358514
0.000365014
0.000371524
0.000377635
0.000383292
0.000388501
0.000393574
0.000398388
0.000403078
0.000407483
0.000411758
0.000415799
0.000419699
0.000423463
0.000427163
0.000430809
0.00043447
0.000438122
0.000441847
0.00044556
0.000449316
0.00045297
0.000456558
0.000459946
0.000463178
0.000466212
0.000469119
0.000471903
0.000474575
0.00047716
0.00047967
0.000482135
0.000484564
0.000486968
0.000489376
0.00049178
0.0004942
0.00049662
0.000499044
0.000501465
0.000503879
0.000506278
0.000508673
0.000511051
0.000513426
0.000515789
0.000518155
0.00052052
0.000522897
0.000525284
0.000527696
0.000530132
0.000532601
0.000535102
0.000537646
0.00054022
0.00054284
0.000545477
0.000548162
0.000550856
0.000553588
0.000556324
0.000559084
0.000561841
0.000564612
0.000567371
0.000570136
0.00057289
0.000575649
0.000578397
0.000581152
0.000583891
0.000586646
0.000589396
0.00059216
0.000594934
0.000597714
0.000600513
0.000603327
0.000606166
0.000609025
0.000611907
0.000614812
0.000617741
0.000620691
0.00062366
0.000626653
0.000629657
0.000632685
0.000635718
0.00063878
0.000641858
0.000644973
0.000648108
0.000651296
0.000654511
0.000657792
0.000661093
0.00066448
0.000667858
0.000671349
0.000674801
0.000678375
0.000681896
0.000685525
0.000689085
0.000692755
0.000696315
0.000700015
0.000703565
0.00070728
0.000710818
0.000714544
0.00071807
0.000721802
0.000725309
0.000729038
0.000732536
0.00073626
0.000739754
0.000743462
0.00074696
0.000750632
0.000754147
0.00075778
0.000761319
0.000764894
0.000768464
0.000771993
0.000775565
0.000779067
0.000782597
0.00078605
0.000789508
0.000792894
0.000796278
0.000799593
0.000802894
0.000806145
0.000809401
0.000812604
0.000815771
0.000818903
0.000821967
0.000825018
0.000827973
0.000830933
0.000833814
0.000836692
0.000839518
0.000842319
0.000845074
0.000847782
0.000850466
0.000853076
0.00085566
0.000858172
0.00086064
0.000863021
0.000865346
0.000867585
0.000869746
0.000871814
0.0008738
0.000875686
0.000877486
0.000879194
0.000880823