/*--------------------------------*- C++ -*----------------------------------*\
| =========                 |                                                 |
| \\      /  F ield         | foam-extend: Open Source CFD                    |
|  \\    /   O peration     | Version:     3.2                                |
|   \\  /    A nd           | Web:         http://www.foam-extend.org         |
|    \\/     M anipulation  | For copyright notice see file Copyright         |
\*---------------------------------------------------------------------------*/
FoamFile
{
    version     2.0;
    format      ascii;
    class       areaScalarField;
    location    "840";
    object      kTempA;
}
// * * * * * * * * * * * * * * * * * * * * * * * * * * * * * * * * * * * * * //

dimensions      [0 2 -2 0 0 0 0];

internalField   nonuniform List<scalar> 
550
(
0.000162381
0.000222361
0.000294389
0.000377575
0.000469695
0.000567402
0.000667028
0.00076438
0.00085596
0.000939743
0.00101079
0.00107309
0.00112157
0.00115875
0.00118069
0.0011902
0.00119418
0.00118668
0.00116782
0.00116316
0.00114017
0.00111419
0.00110017
0.00107249
0.00105233
0.00104116
0.00103622
0.00102647
0.00101486
0.00100523
0.000989993
0.000975281
0.000956728
0.000937708
0.000930271
0.000928006
0.000916131
0.000895545
0.00087618
0.000861832
0.000852378
0.000852648
0.000858404
0.000856497
0.000848215
0.000837625
0.000823161
0.000814707
0.000814046
0.000814745
0.000811534
0.000804888
0.000797167
0.000790528
0.000787337
0.000787057
0.000790035
0.000794129
0.000798562
0.000802188
0.000803699
0.000803223
0.000802167
0.000800449
0.0007989
0.000797767
0.000797304
0.000797729
0.000798651
0.00079958
0.000800101
0.000800222
0.000800018
0.000800086
0.000800206
0.000800499
0.000800546
0.000800879
0.000801491
0.000801914
0.000802158
0.000802657
0.000802875
0.000802629
0.000801829
0.000800856
0.0007999
0.000799364
0.000798308
0.000796473
0.00079447
0.000793747
0.000793492
0.000793518
0.000793589
0.000793765
0.000793965
0.000794386
0.000794934
0.000795727
0.000796566
0.000797486
0.000798316
0.000799151
0.000799875
0.000800565
0.000801127
0.000801648
0.000802066
0.000802503
0.000802899
0.000803383
0.000803854
0.000804426
0.000804977
0.000805604
0.000806188
0.000806794
0.000807323
0.000807864
0.000808329
0.000808776
0.000809136
0.000809499
0.000809808
0.000810159
0.000810477
0.000810834
0.000811165
0.000811525
0.000811862
0.000812229
0.000812583
0.000812969
0.000813346
0.000813751
0.000814141
0.000814546
0.000814924
0.000815298
0.00081564
0.000815954
0.000816234
0.000816476
0.000816709
0.000816918
0.000817133
0.000817331
0.000817545
0.000817741
0.000817948
0.000818136
0.000818329
0.000818494
0.000818661
0.000818797
0.000818928
0.000819019
0.000819112
0.00081916
0.000819221
0.000819233
0.00081927
0.000819258
0.000819274
0.000819235
0.000819219
0.000819151
0.000819105
0.000819
0.000818928
0.000818802
0.000818713
0.000818573
0.000818478
0.000818344
0.000818262
0.000818144
0.00081807
0.000817961
0.000817898
0.000817787
0.000817726
0.000817593
0.000817539
0.00081736
0.000817323
0.000817091
0.000817079
0.000816844
0.000816859
0.000816645
0.000816683
0.000816487
0.000816545
0.000816367
0.000816444
0.000816278
0.000816362
0.000816198
0.000816273
0.000816105
0.000816156
0.00081599
0.000815987
0.000815819
0.000815742
0.000815565
0.000815376
0.000815212
0.000814889
0.000814723
0.000814256
0.000814101
0.000813485
0.000813312
0.000812632
0.000812431
0.00081179
0.000811558
0.00081098
0.000810726
0.000810185
0.000809916
0.000809421
0.000809137
0.000808671
0.000808377
0.00080794
0.000807625
0.000807195
0.000806865
0.000806469
0.000806123
0.000805761
0.000805406
0.000805055
0.0008047
0.00080436
0.000804012
0.000803672
0.000803341
0.000803005
0.000802682
0.000802366
0.000802061
0.000801749
0.000801451
0.00080116
0.000800878
0.000800599
0.000800335
0.000800073
0.000799824
0.000799579
0.000799344
0.000799115
0.000798904
0.000798709
0.000798524
0.000798353
0.000798195
0.000798052
0.00079792
0.000797804
0.000797709
0.000797626
0.000797557
0.000797505
0.000797461
0.000797433
0.000797407
0.000797395
0.000797398
0.000797408
0.000797423
0.000797443
0.000797465
0.000797495
0.000797538
0.000797582
0.00079763
0.000797684
0.000797752
0.000797816
0.000797891
0.000797966
0.000798049
0.000798133
0.000798219
0.000798306
0.000798393
0.000798482
0.000798568
0.000798654
0.000798736
0.000798813
0.000798882
0.000798943
0.000798995
0.00079904
0.000799075
0.000799103
0.000799122
0.000799135
0.000799139
0.000799149
0.000799149
0.000799147
0.000799143
0.000799134
0.000799121
0.0007991
0.00079908
0.000799049
0.000799011
0.000798976
0.000798934
0.000798884
0.000798819
0.000798747
0.000798673
0.00079859
0.000798503
0.000798407
0.000798306
0.000798196
0.000798075
0.000797945
0.000797811
0.000797663
0.000797498
0.000797326
0.000797149
0.000796964
0.00079677
0.000796568
0.000796357
0.00079614
0.000795914
0.000795686
0.000795443
0.00079519
0.000794935
0.000794666
0.000794391
0.000794116
0.000793836
0.000793548
0.000793256
0.000792962
0.000792664
0.000792363
0.000792059
0.000791751
0.000791444
0.000791137
0.000790832
0.000790533
0.000790228
0.000789921
0.000789613
0.000789302
0.000788994
0.000788675
0.000788354
0.000788036
0.000787715
0.000787386
0.000787057
0.000786732
0.000786411
0.000786092
0.000785772
0.000785456
0.000785154
0.000784856
0.000784571
0.0007843
0.000784043
0.000783803
0.000783575
0.000783372
0.000783187
0.000783015
0.00078286
0.00078272
0.000782596
0.000782484
0.000782385
0.000782309
0.000782247
0.000782195
0.000782158
0.000782138
0.000782127
0.000782136
0.000782168
0.000782207
0.000782265
0.000782343
0.000782433
0.000782528
0.000782636
0.000782757
0.000782881
0.000783012
0.000783156
0.000783297
0.000783439
0.000783583
0.000783727
0.000783874
0.00078402
0.000784169
0.000784318
0.00078447
0.000784615
0.000784768
0.000784926
0.000785082
0.000785251
0.000785424
0.000785596
0.000785772
0.000785959
0.000786151
0.000786337
0.000786526
0.00078672
0.000786914
0.000787098
0.000787286
0.00078747
0.000787645
0.000787825
0.000788002
0.000788178
0.000788357
0.000788526
0.000788707
0.000788893
0.000789081
0.000789278
0.000789471
0.00078968
0.000789901
0.000790117
0.000790334
0.000790557
0.000790765
0.000790965
0.000791162
0.000791345
0.000791511
0.000791658
0.000791781
0.000791876
0.00079194
0.000791974
0.000791977
0.000791953
0.000791913
0.000791851
0.000791757
0.000791643
0.000791506
0.000791353
0.000791193
0.00079102
0.000790826
0.000790626
0.000790428
0.000790227
0.000790014
0.000789814
0.000789616
0.000789417
0.000789239
0.000789074
0.000788916
0.000788784
0.000788668
0.000788558
0.000788469
0.000788386
0.000788297
0.000788217
0.000788137
0.000788049
0.000787959
0.00078785
0.000787746
0.000787637
0.000787504
0.000787369
0.000787236
0.000787109
0.000786964
0.000786838
0.000786733
0.000786649
0.0007866
0.000786598
0.000786608
0.000786647
0.000786721
0.000786811
0.000786928
0.000787085
0.000787256
0.000787449
0.000787664
0.000787924
0.000788145
0.000788546
0.000788687
0.000789295
0.000789265
0.000790266
0.000789865
0.00079153
0.000790704
0.000793163
0.000792138
0.000795033
0.000793861
0.000796359
0.000795047
0.000795808
0.000794305
0.000791749
0.000789682
0.000783527
0.000779806
0.000767703
0.000756396
0.000721649
0.000664837
0.000459312
0.00021907
0.000285494
0.000201226
0.00018851
0.000147885
0.000130965
9.54501e-05
0.000104162
0.000156875
0.000256802
)
;

boundaryField
{
    inlet
    {
        type            calculated;
        value           uniform 0;
    }
    endWall
    {
        type            calculated;
        value           uniform 0;
    }
    sideWall
    {
        type            empty;
    }
}


// ************************************************************************* //
