/*--------------------------------*- C++ -*----------------------------------*\
| =========                 |                                                 |
| \\      /  F ield         | foam-extend: Open Source CFD                    |
|  \\    /   O peration     | Version:     3.2                                |
|   \\  /    A nd           | Web:         http://www.foam-extend.org         |
|    \\/     M anipulation  | For copyright notice see file Copyright         |
\*---------------------------------------------------------------------------*/
FoamFile
{
    version     2.0;
    format      ascii;
    class       volScalarField;
    location    "840";
    object      Ktemp;
}
// * * * * * * * * * * * * * * * * * * * * * * * * * * * * * * * * * * * * * //

dimensions      [0 2 -2 0 0 0 0];

internalField   nonuniform List<scalar> 
33000
(
0.000162381
0.000222361
0.000294389
0.000377575
0.000469695
0.000567402
0.000667028
0.00076438
0.00085596
0.000939743
0.00101079
0.00107309
0.00112157
0.00115875
0.00118069
0.0011902
0.00119418
0.00118668
0.00116782
0.00116316
0.00114017
0.00111419
0.00110017
0.00107249
0.00105233
0.00104116
0.00103622
0.00102647
0.00101486
0.00100523
0.000989993
0.000975281
0.000956728
0.000937708
0.000930271
0.000928006
0.000916131
0.000895545
0.00087618
0.000861832
0.000852378
0.000852648
0.000858404
0.000856497
0.000848215
0.000837625
0.000823161
0.000814707
0.000814046
0.000814745
0.000811534
0.000804888
0.000797167
0.000790528
0.000787337
0.000787057
0.000790035
0.000794129
0.000798562
0.000802188
0.000803699
0.000803223
0.000802167
0.000800449
0.0007989
0.000797767
0.000797304
0.000797729
0.000798651
0.00079958
0.000800101
0.000800222
0.000800018
0.000800086
0.000800206
0.000800499
0.000800546
0.000800879
0.000801491
0.000801914
0.000802158
0.000802657
0.000802875
0.000802629
0.000801829
0.000800856
0.0007999
0.000799364
0.000798308
0.000796473
0.00079447
0.000793747
0.000793492
0.000793518
0.000793589
0.000793765
0.000793965
0.000794386
0.000794934
0.000795727
0.000796566
0.000797486
0.000798316
0.000799151
0.000799875
0.000800565
0.000801127
0.000801648
0.000802066
0.000802503
0.000802899
0.000803383
0.000803854
0.000804426
0.000804977
0.000805604
0.000806188
0.000806794
0.000807323
0.000807864
0.000808329
0.000808776
0.000809136
0.000809499
0.000809808
0.000810159
0.000810477
0.000810834
0.000811165
0.000811525
0.000811862
0.000812229
0.000812583
0.000812969
0.000813346
0.000813751
0.000814141
0.000814546
0.000814924
0.000815298
0.00081564
0.000815954
0.000816234
0.000816476
0.000816709
0.000816918
0.000817133
0.000817331
0.000817545
0.000817741
0.000817948
0.000818136
0.000818329
0.000818494
0.000818661
0.000818797
0.000818928
0.000819019
0.000819112
0.00081916
0.000819221
0.000819233
0.00081927
0.000819258
0.000819274
0.000819235
0.000819219
0.000819151
0.000819105
0.000819
0.000818928
0.000818802
0.000818713
0.000818573
0.000818478
0.000818344
0.000818262
0.000818144
0.00081807
0.000817961
0.000817898
0.000817787
0.000817726
0.000817593
0.000817539
0.00081736
0.000817323
0.000817091
0.000817079
0.000816844
0.000816859
0.000816645
0.000816683
0.000816487
0.000816545
0.000816367
0.000816444
0.000816278
0.000816362
0.000816198
0.000816273
0.000816105
0.000816156
0.00081599
0.000815987
0.000815819
0.000815742
0.000815565
0.000815376
0.000815212
0.000814889
0.000814723
0.000814256
0.000814101
0.000813485
0.000813312
0.000812632
0.000812431
0.00081179
0.000811558
0.00081098
0.000810726
0.000810185
0.000809916
0.000809421
0.000809137
0.000808671
0.000808377
0.00080794
0.000807625
0.000807195
0.000806865
0.000806469
0.000806123
0.000805761
0.000805406
0.000805055
0.0008047
0.00080436
0.000804012
0.000803672
0.000803341
0.000803005
0.000802682
0.000802366
0.000802061
0.000801749
0.000801451
0.00080116
0.000800878
0.000800599
0.000800335
0.000800073
0.000799824
0.000799579
0.000799344
0.000799115
0.000798904
0.000798709
0.000798524
0.000798353
0.000798195
0.000798052
0.00079792
0.000797804
0.000797709
0.000797626
0.000797557
0.000797505
0.000797461
0.000797433
0.000797407
0.000797395
0.000797398
0.000797408
0.000797423
0.000797443
0.000797465
0.000797495
0.000797538
0.000797582
0.00079763
0.000797684
0.000797752
0.000797816
0.000797891
0.000797966
0.000798049
0.000798133
0.000798219
0.000798306
0.000798393
0.000798482
0.000798568
0.000798654
0.000798736
0.000798813
0.000798882
0.000798943
0.000798995
0.00079904
0.000799075
0.000799103
0.000799122
0.000799135
0.000799139
0.000799149
0.000799149
0.000799147
0.000799143
0.000799134
0.000799121
0.0007991
0.00079908
0.000799049
0.000799011
0.000798976
0.000798934
0.000798884
0.000798819
0.000798747
0.000798673
0.00079859
0.000798503
0.000798407
0.000798306
0.000798196
0.000798075
0.000797945
0.000797811
0.000797663
0.000797498
0.000797326
0.000797149
0.000796964
0.00079677
0.000796568
0.000796357
0.00079614
0.000795914
0.000795686
0.000795443
0.00079519
0.000794935
0.000794666
0.000794391
0.000794116
0.000793836
0.000793548
0.000793256
0.000792962
0.000792664
0.000792363
0.000792059
0.000791751
0.000791444
0.000791137
0.000790832
0.000790533
0.000790228
0.000789921
0.000789613
0.000789302
0.000788994
0.000788675
0.000788354
0.000788036
0.000787715
0.000787386
0.000787057
0.000786732
0.000786411
0.000786092
0.000785772
0.000785456
0.000785154
0.000784856
0.000784571
0.0007843
0.000784043
0.000783803
0.000783575
0.000783372
0.000783187
0.000783015
0.00078286
0.00078272
0.000782596
0.000782484
0.000782385
0.000782309
0.000782247
0.000782195
0.000782158
0.000782138
0.000782127
0.000782136
0.000782168
0.000782207
0.000782265
0.000782343
0.000782433
0.000782528
0.000782636
0.000782757
0.000782881
0.000783012
0.000783156
0.000783297
0.000783439
0.000783583
0.000783727
0.000783874
0.00078402
0.000784169
0.000784318
0.00078447
0.000784615
0.000784768
0.000784926
0.000785082
0.000785251
0.000785424
0.000785596
0.000785772
0.000785959
0.000786151
0.000786337
0.000786526
0.00078672
0.000786914
0.000787098
0.000787286
0.00078747
0.000787645
0.000787825
0.000788002
0.000788178
0.000788357
0.000788526
0.000788707
0.000788893
0.000789081
0.000789278
0.000789471
0.00078968
0.000789901
0.000790117
0.000790334
0.000790557
0.000790765
0.000790965
0.000791162
0.000791345
0.000791511
0.000791658
0.000791781
0.000791876
0.00079194
0.000791974
0.000791977
0.000791953
0.000791913
0.000791851
0.000791757
0.000791643
0.000791506
0.000791353
0.000791193
0.00079102
0.000790826
0.000790626
0.000790428
0.000790227
0.000790014
0.000789814
0.000789616
0.000789417
0.000789239
0.000789074
0.000788916
0.000788784
0.000788668
0.000788558
0.000788469
0.000788386
0.000788297
0.000788217
0.000788137
0.000788049
0.000787959
0.00078785
0.000787746
0.000787637
0.000787504
0.000787369
0.000787236
0.000787109
0.000786964
0.000786838
0.000786733
0.000786649
0.0007866
0.000786598
0.000786608
0.000786647
0.000786721
0.000786811
0.000786928
0.000787085
0.000787256
0.000787449
0.000787664
0.000787924
0.000788145
0.000788546
0.000788687
0.000789295
0.000789265
0.000790266
0.000789865
0.00079153
0.000790704
0.000793163
0.000792138
0.000795033
0.000793861
0.000796359
0.000795047
0.000795808
0.000794305
0.000791749
0.000789682
0.000783527
0.000779806
0.000767703
0.000756396
0.000721649
0.000664837
0.000459312
0.00021907
0.000285494
0.000201226
0.00018851
0.000147885
0.000130965
9.54501e-05
0.000104162
0.000156875
0.000256802
0.000113261
0.000116683
0.000122349
0.000129566
0.000139218
0.000150403
0.000162547
0.000175604
0.000188613
0.000205671
0.000221769
0.000245187
0.000269799
0.000297645
0.000320833
0.000341564
0.000363693
0.000385836
0.000403384
0.000420962
0.00043321
0.000441983
0.0004508
0.000466525
0.000473103
0.000481541
0.000498129
0.000518219
0.000536339
0.00055122
0.000567808
0.000582189
0.00059675
0.000608785
0.000610595
0.000610485
0.00061916
0.000635479
0.000653143
0.000668319
0.000676156
0.000674432
0.000670208
0.00067158
0.000676492
0.000685958
0.000698646
0.000706798
0.000707663
0.000707966
0.000709974
0.000713862
0.000719375
0.000725237
0.000729298
0.000731433
0.000731273
0.00073034
0.000729626
0.000729737
0.000731561
0.000734675
0.000738465
0.00074342
0.000748231
0.000752935
0.00075657
0.000759013
0.000760341
0.000761048
0.00076133
0.000761572
0.000761809
0.000762277
0.000763172
0.000764493
0.000766282
0.000767933
0.000769165
0.000770225
0.00077091
0.000770838
0.000770643
0.000770237
0.000770383
0.000770542
0.000771065
0.000771235
0.000771862
0.000772975
0.000774134
0.00077377
0.000773331
0.000772949
0.000772618
0.000772399
0.000772149
0.000771836
0.00077141
0.000770806
0.000770103
0.000769307
0.000768454
0.000767501
0.000766464
0.000765375
0.000764235
0.000763125
0.000762068
0.000761159
0.000760404
0.000759802
0.000759324
0.000758867
0.000758386
0.000757872
0.000757322
0.000756753
0.000756159
0.000755546
0.000754924
0.000754326
0.000753747
0.000753211
0.000752699
0.000752241
0.000751829
0.000751491
0.000751211
0.000751007
0.000750849
0.000750752
0.000750688
0.000750674
0.000750685
0.000750741
0.00075082
0.000750941
0.000751086
0.000751276
0.000751495
0.000751778
0.000752098
0.000752492
0.000752913
0.000753394
0.000753905
0.000754455
0.000755037
0.000755643
0.000756285
0.000756943
0.000757635
0.00075834
0.000759068
0.000759803
0.00076056
0.00076133
0.000762107
0.000762913
0.000763706
0.000764538
0.000765337
0.000766187
0.000766993
0.000767851
0.000768668
0.000769533
0.000770361
0.000771242
0.000772085
0.000772979
0.00077384
0.000774749
0.000775628
0.00077655
0.00077744
0.000778373
0.000779264
0.000780192
0.000781069
0.000781985
0.000782846
0.000783764
0.000784609
0.000785559
0.000786395
0.000787403
0.000788268
0.000789287
0.000790188
0.00079122
0.000792139
0.000793188
0.00079412
0.000795176
0.000796111
0.00079717
0.000798101
0.000799161
0.000800092
0.000801155
0.000802089
0.000803153
0.0008041
0.000805161
0.000806119
0.000807173
0.000808151
0.000809174
0.000810165
0.000811148
0.00081215
0.000813076
0.000814091
0.000814971
0.000815969
0.000816813
0.000817753
0.00081857
0.000819447
0.000820229
0.000821068
0.000821805
0.000822581
0.000823244
0.000823932
0.000824483
0.00082507
0.000825576
0.00082616
0.00082667
0.000827199
0.000827742
0.000828154
0.000828666
0.000828951
0.000829394
0.000829608
0.000829995
0.000830181
0.000830499
0.000830664
0.000830928
0.000831047
0.00083124
0.000831341
0.000831487
0.000831546
0.00083165
0.000831677
0.000831728
0.000831719
0.000831724
0.000831689
0.000831663
0.000831627
0.000831577
0.000831517
0.000831441
0.000831363
0.000831269
0.000831172
0.000831071
0.000830964
0.000830836
0.000830705
0.000830548
0.000830381
0.000830184
0.000829976
0.000829749
0.000829511
0.000829231
0.000828947
0.000828647
0.000828334
0.000828017
0.000827681
0.000827327
0.000826976
0.000826636
0.000826296
0.000825941
0.000825617
0.000825272
0.000824955
0.000824616
0.000824301
0.000823967
0.000823648
0.000823306
0.000822966
0.000822601
0.000822233
0.000821843
0.000821451
0.000821049
0.000820649
0.000820241
0.00081984
0.000819437
0.000819048
0.000818664
0.000818298
0.000817954
0.000817616
0.000817313
0.000817019
0.000816742
0.000816489
0.00081626
0.000816055
0.000815858
0.000815689
0.000815535
0.000815385
0.00081524
0.000815111
0.000815001
0.0008149
0.000814794
0.000814712
0.000814616
0.000814545
0.000814449
0.00081437
0.000814266
0.000814185
0.000814059
0.000813968
0.000813864
0.000813778
0.000813665
0.00081357
0.00081346
0.000813366
0.000813267
0.000813177
0.000813089
0.000812978
0.0008129
0.000812798
0.000812709
0.000812617
0.000812533
0.000812433
0.000812339
0.000812239
0.000812136
0.000812022
0.000811906
0.000811779
0.000811657
0.000811525
0.000811394
0.000811248
0.0008111
0.000810921
0.000810765
0.000810575
0.000810402
0.000810204
0.000810001
0.000809796
0.000809587
0.000809365
0.000809145
0.000808934
0.000808736
0.000808541
0.000808367
0.000808196
0.000808057
0.000807924
0.000807803
0.000807705
0.000807606
0.00080753
0.000807442
0.000807375
0.0008073
0.00080722
0.000807124
0.000807027
0.00080691
0.000806779
0.000806626
0.000806465
0.000806281
0.000806081
0.000805868
0.00080567
0.00080547
0.00080528
0.000805125
0.000804982
0.000804861
0.000804789
0.000804744
0.000804726
0.000804745
0.000804808
0.000804894
0.000804988
0.000805113
0.00080524
0.000805357
0.000805477
0.000805593
0.000805709
0.000805818
0.000805928
0.000806033
0.000806141
0.000806246
0.000806361
0.000806498
0.000806639
0.000806805
0.000806984
0.000807168
0.000807372
0.000807608
0.000807866
0.000808124
0.000808399
0.000808681
0.000808965
0.000809227
0.000809483
0.000809739
0.000809968
0.000810202
0.00081043
0.000810638
0.00081086
0.000811088
0.000811325
0.000811602
0.000811878
0.000812176
0.000812499
0.000812845
0.000813236
0.000813632
0.000814038
0.000814481
0.000814943
0.000815388
0.000815849
0.000816287
0.000816682
0.000817036
0.000817333
0.000817568
0.000817725
0.000817811
0.00081782
0.000817762
0.000817648
0.000817493
0.000817274
0.000817031
0.000816756
0.000816459
0.00081614
0.000815809
0.000815452
0.0008151
0.000814763
0.000814454
0.00081415
0.000813897
0.000813697
0.000813535
0.000813437
0.000813401
0.000813408
0.000813468
0.000813587
0.000813719
0.00081388
0.000814042
0.000814172
0.000814264
0.000814316
0.000814304
0.000814231
0.000814101
0.000813908
0.000813678
0.000813379
0.000813018
0.000812624
0.000812209
0.000811728
0.000811244
0.00081077
0.000810299
0.000809794
0.000809314
0.000808802
0.000808277
0.000807765
0.000807281
0.000806734
0.000806276
0.000805741
0.000805262
0.000804708
0.000804272
0.000803726
0.000803302
0.000802833
0.000802247
0.000801955
0.000801191
0.00080109
0.000799989
0.000800355
0.000798691
0.000799836
0.000797524
0.000799317
0.000796489
0.000798719
0.000795716
0.000797895
0.000795259
0.000796542
0.00079474
0.000794191
0.000791183
0.000786691
0.000776605
0.000764578
0.000738138
0.000682577
0.000633852
0.000744209
0.000718311
0.00074502
0.000703729
0.000642762
0.000574714
0.000379619
0.000246842
0.000223615
0.000305
0.000111173
0.000111594
0.000112705
0.00011388
0.0001152
0.000116605
0.000118087
0.000119664
0.000121166
0.000123324
0.00012543
0.000129602
0.000134271
0.000140792
0.000145917
0.000151232
0.000157643
0.000163717
0.000167145
0.000171841
0.000173078
0.000175879
0.000177633
0.000181212
0.000182817
0.000185009
0.000192653
0.000201866
0.000213614
0.00022364
0.000234941
0.000245378
0.000253919
0.000259878
0.000264702
0.000274577
0.00029065
0.000305679
0.000314552
0.000320127
0.000324129
0.000329665
0.000339329
0.000354234
0.000369797
0.000382121
0.000391074
0.000396616
0.000402195
0.000412175
0.000424546
0.000437506
0.000448536
0.000456339
0.000460692
0.000463467
0.000466167
0.000470219
0.000476172
0.000483278
0.000491665
0.000500667
0.000509601
0.000517563
0.000524257
0.000529472
0.000533738
0.000537335
0.000540911
0.000544719
0.000548967
0.00055368
0.00055859
0.00056342
0.000567833
0.000571908
0.00057556
0.00057878
0.000581749
0.000584774
0.00058768
0.000590464
0.000593244
0.000596233
0.000599182
0.000602031
0.000604546
0.000606979
0.000609378
0.000611808
0.000613914
0.000615545
0.000616785
0.000617996
0.000619088
0.000619941
0.00062066
0.000621169
0.000621505
0.000621676
0.000621763
0.000621862
0.000622005
0.000622238
0.000622415
0.000622618
0.000622752
0.000622904
0.000623062
0.000623211
0.000623384
0.00062354
0.000623659
0.000623767
0.000623823
0.000623925
0.000624012
0.000624168
0.000624282
0.000624436
0.000624547
0.000624725
0.000624871
0.000625078
0.000625267
0.000625521
0.000625784
0.00062614
0.000626527
0.000627006
0.000627495
0.000628057
0.000628625
0.000629261
0.000629902
0.000630617
0.000631345
0.000632153
0.000632986
0.000633897
0.000634834
0.000635844
0.00063688
0.000637979
0.000639105
0.000640279
0.000641484
0.000642716
0.00064398
0.000645269
0.000646585
0.000647938
0.000649314
0.000650725
0.000652151
0.000653606
0.000655075
0.00065657
0.000658076
0.0006596
0.000661137
0.000662709
0.000664271
0.00066589
0.000667476
0.000669127
0.000670735
0.000672407
0.000674036
0.000675732
0.000677389
0.00067909
0.000680761
0.000682458
0.000684139
0.000685816
0.000687498
0.000689177
0.000690878
0.000692586
0.000694316
0.000696062
0.000697832
0.00069963
0.000701439
0.000703305
0.00070515
0.00070709
0.000708963
0.000710947
0.000712852
0.000714853
0.00071678
0.000718789
0.000720725
0.000722738
0.000724683
0.000726701
0.000728654
0.00073068
0.000732648
0.00073468
0.000736658
0.000738687
0.000740693
0.000742716
0.000744749
0.00074676
0.00074883
0.000750798
0.000752911
0.000754835
0.000756987
0.00075885
0.000761047
0.000762869
0.000765054
0.000766852
0.000768959
0.000770743
0.000772765
0.000774538
0.0007765
0.000778249
0.000780128
0.000781838
0.000783642
0.000785306
0.000787069
0.000788721
0.000790446
0.000792073
0.000793654
0.000795251
0.000796671
0.00079815
0.000799469
0.00080087
0.000802145
0.00080348
0.000804722
0.000805968
0.000807155
0.000808319
0.00080944
0.000810513
0.000811564
0.000812571
0.00081354
0.000814464
0.000815355
0.000816193
0.000816999
0.000817756
0.000818485
0.000819174
0.00081984
0.000820466
0.000821053
0.000821617
0.000822147
0.000822651
0.000823123
0.000823574
0.000824001
0.000824391
0.000824754
0.000825083
0.000825377
0.000825632
0.000825847
0.000826027
0.000826173
0.000826268
0.000826322
0.00082634
0.000826316
0.000826264
0.000826184
0.000826064
0.000825913
0.00082574
0.000825546
0.000825316
0.000825065
0.000824807
0.000824523
0.000824236
0.000823923
0.000823599
0.00082325
0.000822883
0.000822484
0.000822061
0.000821608
0.000821139
0.000820645
0.000820145
0.000819628
0.000819114
0.000818585
0.000818065
0.000817541
0.000817041
0.000816546
0.000816089
0.000815633
0.000815207
0.000814803
0.000814431
0.000814089
0.000813774
0.000813496
0.00081323
0.000813001
0.000812797
0.000812607
0.000812433
0.000812267
0.000812122
0.000811994
0.00081187
0.000811762
0.000811659
0.000811568
0.000811477
0.000811393
0.000811311
0.000811238
0.000811159
0.000811084
0.000811015
0.000810957
0.000810893
0.000810832
0.000810772
0.000810717
0.000810663
0.000810615
0.000810573
0.000810524
0.000810487
0.000810451
0.000810408
0.00081037
0.000810336
0.000810291
0.00081024
0.000810193
0.00081014
0.000810084
0.000810027
0.000809968
0.000809914
0.00080986
0.000809806
0.000809746
0.000809684
0.000809603
0.000809526
0.000809439
0.000809351
0.00080926
0.000809154
0.000809056
0.000808961
0.00080886
0.000808762
0.000808687
0.00080863
0.000808586
0.000808565
0.000808558
0.000808581
0.000808633
0.000808695
0.000808777
0.000808877
0.000808987
0.000809102
0.000809206
0.000809316
0.0008094
0.000809461
0.000809507
0.000809522
0.000809512
0.000809468
0.000809405
0.000809317
0.000809205
0.000809078
0.000808958
0.000808845
0.000808733
0.00080865
0.0008086
0.000808569
0.000808581
0.000808653
0.000808757
0.000808905
0.000809099
0.000809332
0.000809578
0.000809848
0.000810142
0.000810427
0.000810718
0.000811014
0.000811301
0.000811593
0.00081187
0.000812157
0.00081243
0.000812718
0.000812998
0.000813308
0.000813625
0.000813953
0.000814323
0.000814707
0.00081511
0.000815543
0.000815993
0.000816449
0.000816898
0.000817357
0.000817806
0.000818243
0.000818649
0.000819054
0.000819426
0.000819768
0.000820116
0.00082045
0.000820783
0.000821134
0.000821478
0.000821858
0.000822247
0.000822667
0.000823119
0.000823603
0.00082414
0.000824716
0.000825312
0.000825957
0.000826632
0.000827304
0.000827993
0.000828662
0.000829294
0.000829873
0.000830374
0.000830787
0.000831102
0.000831315
0.000831425
0.000831443
0.000831377
0.000831248
0.000831045
0.000830789
0.000830497
0.000830167
0.000829803
0.000829414
0.000828989
0.00082854
0.000828095
0.000827667
0.000827252
0.000826872
0.000826565
0.000826305
0.00082611
0.000826002
0.000825957
0.000825967
0.000826053
0.000826168
0.000826306
0.000826457
0.000826574
0.000826636
0.000826661
0.000826604
0.000826477
0.000826267
0.000825979
0.000825624
0.000825194
0.000824688
0.00082413
0.000823527
0.000822872
0.00082218
0.000821488
0.000820777
0.000820063
0.000819347
0.00081864
0.0008179
0.000817166
0.000816438
0.000815683
0.000814924
0.000814174
0.000813385
0.000812587
0.000811772
0.000810957
0.000810079
0.000809258
0.000808285
0.000807484
0.000806377
0.000805732
0.000804345
0.000804134
0.000802229
0.000802795
0.000800267
0.000801371
0.000798354
0.000799758
0.000796564
0.000797744
0.00079482
0.000794983
0.000792703
0.000790843
0.000787836
0.000783331
0.000778137
0.000764631
0.000757137
0.000713567
0.000697483
0.0007453
0.000779084
0.000836794
0.000856742
0.00085698
0.00083044
0.000676398
0.000493095
0.000322056
0.000361608
0.000110994
0.000111161
0.000111705
0.000112318
0.00011293
0.000113522
0.000113904
0.000114197
0.000114297
0.00011445
0.000114459
0.000114761
0.000115139
0.000116064
0.0001168
0.000117701
0.000118609
0.000119375
0.000119217
0.000118934
0.000118061
0.000117717
0.000116931
0.000116832
0.000115926
0.000115128
0.000115647
0.000116594
0.000118862
0.000120718
0.000123106
0.000125079
0.000126124
0.000126977
0.000128278
0.000131648
0.000136899
0.000141627
0.000144332
0.000146237
0.000148427
0.000152108
0.000157757
0.000165446
0.00017389
0.000180195
0.000185057
0.00018917
0.000194068
0.000202359
0.000212168
0.000222806
0.000231028
0.000237116
0.000241277
0.000244792
0.000248692
0.000253942
0.000260923
0.000269451
0.000279608
0.000290223
0.000300188
0.000308515
0.000315705
0.000321461
0.000326775
0.000331761
0.000337333
0.000343651
0.000351175
0.000359319
0.000367517
0.000375128
0.000381972
0.000388329
0.00039401
0.000399443
0.000404553
0.000409862
0.00041517
0.000420831
0.000426654
0.000433004
0.000439066
0.000444943
0.000450086
0.000454934
0.000459553
0.000464132
0.000468387
0.000472053
0.000475436
0.000478592
0.000481623
0.000484462
0.000487147
0.000489572
0.00049182
0.000493928
0.000495943
0.000497967
0.000500003
0.000502079
0.000504171
0.000506296
0.000508441
0.00051067
0.000512841
0.000514957
0.000516908
0.000518678
0.000520263
0.000521731
0.000523143
0.000524532
0.000525886
0.000527255
0.0005286
0.000529959
0.000531301
0.000532678
0.00053405
0.000535451
0.000536845
0.000538257
0.000539681
0.000541133
0.000542603
0.00054411
0.000545623
0.000547167
0.000548712
0.000550286
0.000551867
0.000553486
0.000555121
0.000556808
0.000558521
0.000560291
0.000562091
0.000563946
0.00056583
0.000567765
0.000569719
0.000571711
0.000573722
0.000575764
0.00057782
0.000579908
0.000582007
0.000584132
0.000586265
0.000588421
0.000590582
0.000592766
0.000594953
0.00059716
0.000599364
0.000601587
0.000603815
0.000606066
0.000608326
0.000610602
0.000612889
0.000615198
0.00061752
0.000619864
0.000622216
0.000624591
0.00062697
0.000629365
0.00063176
0.00063417
0.000636574
0.00063898
0.000641383
0.00064379
0.000646224
0.000648673
0.000651156
0.000653668
0.000656219
0.000658811
0.000661435
0.00066412
0.000666808
0.000669584
0.000672334
0.00067517
0.000677981
0.000680848
0.00068369
0.000686577
0.000689429
0.000692326
0.00069518
0.000698085
0.000700943
0.000703859
0.000706718
0.000709644
0.0007125
0.000715429
0.000718294
0.000721224
0.000724103
0.000727025
0.000729922
0.00073281
0.00073574
0.000738592
0.000741554
0.000744351
0.000747349
0.000750108
0.000753086
0.000755826
0.000758753
0.000761476
0.000764332
0.00076702
0.000769818
0.000772459
0.00077517
0.00077776
0.000780415
0.000782964
0.000785561
0.000788075
0.000790581
0.000793023
0.000795409
0.000797767
0.000800032
0.000802299
0.000804503
0.000806701
0.000808837
0.000810948
0.000813024
0.00081504
0.000817034
0.000818964
0.000820867
0.000822691
0.000824486
0.000826212
0.000827887
0.00082949
0.000831042
0.000832515
0.000833934
0.00083528
0.000836577
0.000837807
0.000838993
0.000840122
0.000841191
0.000842221
0.000843201
0.000844139
0.000845032
0.00084589
0.000846715
0.000847493
0.000848227
0.000848923
0.000849568
0.000850168
0.000850712
0.000851209
0.000851659
0.000852055
0.000852391
0.000852679
0.000852908
0.000853087
0.000853221
0.000853298
0.000853327
0.000853308
0.000853259
0.000853154
0.000853024
0.000852866
0.000852681
0.000852472
0.000852228
0.000851958
0.000851651
0.000851315
0.000850937
0.000850527
0.000850079
0.000849606
0.000849102
0.000848582
0.000848042
0.000847499
0.000846943
0.000846391
0.000845837
0.000845302
0.000844778
0.00084429
0.000843814
0.000843369
0.000842953
0.000842573
0.000842224
0.000841905
0.000841625
0.000841365
0.000841145
0.000840955
0.000840786
0.000840637
0.000840498
0.000840378
0.000840278
0.000840186
0.00084011
0.000840042
0.000839989
0.00083994
0.000839902
0.000839868
0.000839847
0.000839829
0.000839814
0.000839809
0.000839817
0.000839822
0.000839825
0.000839832
0.00083984
0.00083985
0.000839858
0.000839871
0.000839877
0.000839885
0.000839891
0.000839882
0.000839873
0.000839859
0.000839834
0.000839798
0.000839766
0.000839729
0.000839692
0.000839654
0.00083962
0.000839591
0.000839568
0.000839551
0.000839536
0.00083953
0.000839512
0.000839499
0.000839483
0.000839465
0.000839452
0.000839427
0.000839415
0.000839413
0.000839418
0.000839432
0.000839473
0.00083954
0.000839627
0.000839743
0.000839883
0.000840055
0.000840266
0.000840493
0.000840741
0.000841012
0.000841286
0.000841565
0.000841824
0.000842078
0.000842303
0.000842491
0.000842652
0.000842771
0.000842851
0.000842891
0.000842899
0.000842882
0.00084284
0.000842783
0.000842727
0.000842688
0.000842663
0.000842677
0.000842738
0.000842839
0.000842997
0.000843226
0.000843507
0.000843844
0.000844237
0.00084468
0.000845151
0.00084565
0.000846172
0.000846697
0.000847232
0.000847768
0.000848302
0.000848833
0.000849352
0.000849874
0.000850381
0.000850902
0.000851414
0.000851954
0.000852506
0.000853069
0.000853674
0.000854299
0.000854938
0.000855601
0.000856276
0.000856952
0.000857608
0.000858263
0.000858892
0.000859496
0.000860056
0.000860598
0.000861103
0.000861567
0.00086203
0.00086248
0.000862919
0.000863372
0.000863821
0.000864303
0.000864804
0.000865342
0.000865924
0.000866551
0.00086724
0.000867988
0.00086878
0.000869633
0.000870529
0.00087144
0.000872368
0.000873279
0.000874142
0.000874935
0.000875633
0.000876216
0.000876672
0.000876994
0.000877182
0.000877249
0.000877203
0.000877071
0.000876854
0.000876564
0.00087623
0.000875846
0.000875415
0.000874945
0.000874428
0.000873867
0.000873294
0.000872722
0.000872161
0.000871625
0.000871161
0.000870761
0.000870433
0.000870205
0.000870058
0.00086998
0.000869983
0.000870033
0.000870109
0.0008702
0.000870266
0.000870269
0.000870227
0.000870094
0.000869883
0.000869581
0.000869182
0.000868707
0.000868135
0.000867483
0.000866762
0.000865987
0.00086516
0.000864284
0.000863398
0.000862491
0.000861586
0.000860672
0.000859771
0.000858844
0.000857922
0.000857004
0.000856075
0.000855129
0.000854189
0.00085321
0.000852216
0.000851183
0.000850142
0.000849012
0.000847919
0.000846674
0.000845558
0.000844148
0.000843118
0.000841472
0.000840739
0.000838738
0.000838561
0.000836077
0.000836456
0.000833443
0.00083414
0.000830681
0.000830998
0.00082742
0.000826905
0.000823481
0.000821523
0.000817583
0.000813176
0.00080669
0.000794853
0.000784717
0.000752431
0.000736744
0.000759101
0.000786295
0.000830842
0.000871155
0.000912086
0.000941417
0.000883835
0.000720793
0.000489928
0.000424214
0.000111011
0.00011116
0.000111643
0.000112197
0.000112714
0.000113208
0.000113559
0.000113861
0.000113959
0.000114034
0.000113914
0.000113752
0.000113588
0.000113411
0.00011328
0.000113121
0.000112912
0.000112595
0.00011203
0.000111458
0.000111041
0.000110633
0.000110208
0.000109805
0.000109392
0.000109117
0.000108927
0.000108819
0.000108899
0.000108986
0.000109166
0.000109355
0.000109556
0.000109617
0.000109738
0.000110483
0.000111596
0.000112392
0.00011268
0.000112934
0.000113444
0.000114383
0.000115933
0.00011804
0.000120232
0.000121909
0.00012341
0.000124964
0.000126832
0.000130154
0.000133963
0.000138023
0.00014106
0.000143562
0.000145931
0.000148394
0.000151191
0.00015463
0.000158883
0.000164041
0.000170092
0.000176309
0.000182519
0.000188025
0.000193277
0.000198059
0.000203041
0.000208233
0.000214034
0.00022058
0.000227901
0.000235872
0.000244144
0.000252068
0.00025966
0.000266931
0.000273953
0.000281072
0.00028806
0.000295374
0.000302923
0.000311043
0.000319188
0.000328036
0.000336308
0.000344295
0.000351558
0.000358513
0.000365009
0.000371517
0.000377629
0.000383285
0.000388494
0.000393565
0.000398378
0.000403067
0.00040747
0.000411745
0.000415786
0.000419686
0.000423452
0.000427154
0.000430804
0.000434469
0.000438126
0.000441856
0.000445574
0.000449332
0.000452986
0.000456572
0.000459957
0.000463185
0.000466216
0.00046912
0.000471901
0.000474572
0.000477156
0.000479664
0.00048213
0.000484558
0.000486963
0.00048937
0.000491775
0.000494196
0.000496617
0.000499042
0.000501463
0.000503877
0.000506275
0.00050867
0.000511048
0.000513423
0.000515786
0.000518151
0.000520517
0.000522893
0.000525281
0.000527694
0.00053013
0.000532599
0.000535102
0.000537646
0.000540221
0.000542841
0.000545479
0.000548165
0.000550858
0.000553591
0.000556327
0.000559087
0.000561844
0.000564614
0.000567373
0.000570138
0.000572891
0.000575651
0.000578397
0.000581152
0.000583891
0.000586646
0.000589395
0.00059216
0.000594934
0.000597714
0.000600513
0.000603327
0.000606167
0.000609026
0.000611909
0.000614813
0.000617742
0.000620692
0.000623661
0.000626654
0.000629656
0.000632684
0.000635716
0.000638778
0.000641856
0.00064497
0.000648106
0.000651293
0.000654508
0.00065779
0.000661091
0.000664478
0.000667857
0.000671348
0.000674801
0.000678375
0.000681897
0.000685526
0.000689086
0.000692756
0.000696316
0.000700016
0.000703566
0.00070728
0.000710818
0.000714544
0.00071807
0.000721802
0.000725309
0.000729039
0.000732536
0.000736261
0.000739755
0.000743464
0.000746962
0.000750634
0.000754149
0.000757783
0.000761322
0.000764898
0.000768468
0.000771996
0.000775569
0.000779071
0.000782601
0.000786053
0.000789511
0.000792897
0.00079628
0.000799595
0.000802895
0.000806146
0.000809402
0.000812604
0.000815771
0.000818903
0.000821967
0.000825018
0.000827973
0.000830932
0.000833813
0.000836691
0.000839517
0.000842318
0.000845072
0.00084778
0.000850464
0.000853074
0.000855658
0.00085817
0.000860637
0.000863017
0.000865341
0.00086758
0.00086974
0.000871808
0.000873794
0.000875679
0.000877479