/*--------------------------------*- C++ -*----------------------------------*\
| =========                 |                                                 |
| \\      /  F ield         | foam-extend: Open Source CFD                    |
|  \\    /   O peration     | Version:     3.2                                |
|   \\  /    A nd           | Web:         http://www.foam-extend.org         |
|    \\/     M anipulation  | For copyright notice see file Copyright         |
\*---------------------------------------------------------------------------*/
FoamFile
{
    version     2.0;
    format      ascii;
    class       volVectorField;
    location    "840";
    object      meshCentreN;
}
// * * * * * * * * * * * * * * * * * * * * * * * * * * * * * * * * * * * * * //

dimensions      [0 1 0 0 0 0 0];

internalField   nonuniform List<vector> 
33000
(
(0.0090909 0.01 0.00248182)
(0.0272727 0.01 0.00244545)
(0.0454546 0.01 0.00240909)
(0.0636364 0.01 0.00237273)
(0.0818182 0.01 0.00233636)
(0.1 0.01 0.0023)
(0.118182 0.01 0.0022636)
(0.136364 0.01 0.00222706)
(0.154545 0.01 0.00219043)
(0.172722 0.01 0.00215004)
(0.190906 0.01 0.00208148)
(0.209062 0.01 0.00205064)
(0.227256 0.01 0.00197188)
(0.245418 0.01 0.00188144)
(0.263623 0.01 0.00181415)
(0.281801 0.01 0.00177017)
(0.299986 0.01 0.00176182)
(0.318173 0.01 0.00168257)
(0.336364 0.01 0.00162768)
(0.354531 0.01 0.00165706)
(0.372767 0.01 0.00154719)
(0.390902 0.01 0.00157965)
(0.409116 0.01 0.0017009)
(0.427299 0.01 0.00161414)
(0.445458 0.01 0.00173949)
(0.46364 0.01 0.0019761)
(0.481812 0.01 0.00208144)
(0.500002 0.01 0.00204611)
(0.518162 0.01 0.00203875)
(0.536364 0.01 0.00203485)
(0.554551 0.01 0.00190786)
(0.572723 0.01 0.00183587)
(0.590925 0.01 0.00171962)
(0.609106 0.01 0.00151564)
(0.627273 0.01 0.00151725)
(0.645457 0.01 0.00167577)
(0.663648 0.01 0.00169288)
(0.681821 0.01 0.00158662)
(0.700004 0.01 0.00146708)
(0.718187 0.01 0.00131386)
(0.736372 0.01 0.00117384)
(0.754543 0.01 0.00118272)
(0.772727 0.01 0.00130871)
(0.790917 0.01 0.0013548)
(0.80909 0.01 0.00135794)
(0.827276 0.01 0.00135264)
(0.845462 0.01 0.00126517)
(0.863635 0.01 0.00121524)
(0.88182 0.01 0.00125037)
(0.899999 0.01 0.00129675)
(0.918188 0.01 0.00129672)
(0.936364 0.01 0.00130035)
(0.954548 0.01 0.00138187)
(0.972725 0.01 0.00153789)
(0.99091 0.01 0.00173303)
(1.00909 0.01 0.00191278)
(1.02727 0.01 0.00207979)
(1.04546 0.01 0.00222439)
(1.06364 0.01 0.00236081)
(1.08182 0.01 0.00249088)
(1.1 0.01 0.00259914)
(1.11818 0.01 0.00269795)
(1.13636 0.01 0.00280856)
(1.15455 0.01 0.0029198)
(1.17273 0.01 0.00302447)
(1.19091 0.01 0.0031243)
(1.20909 0.01 0.00321665)
(1.22727 0.01 0.0033069)
(1.24545 0.01 0.00339025)
(1.26364 0.01 0.0034619)
(1.28182 0.01 0.0035253)
(1.3 0.01 0.00359088)
(1.31818 0.01 0.00366597)
(1.33636 0.01 0.00375581)
(1.35455 0.01 0.00384754)
(1.37273 0.01 0.00393174)
(1.39091 0.01 0.00400423)
(1.40909 0.01 0.00407701)
(1.42727 0.01 0.00415056)
(1.44545 0.01 0.00421469)
(1.46364 0.01 0.00427517)
(1.48182 0.01 0.00433914)
(1.5 0.01 0.00439057)
(1.51818 0.01 0.00442323)
(1.53636 0.01 0.00444599)
(1.55454 0.01 0.00446486)
(1.57273 0.01 0.00448843)
(1.59091 0.01 0.00451524)
(1.60909 0.01 0.00452806)
(1.62727 0.01 0.0045234)
(1.64546 0.01 0.00453877)
(1.66364 0.01 0.00459537)
(1.68182 0.01 0.00467032)
(1.7 0.01 0.00474328)
(1.71818 0.01 0.00481463)
(1.73636 0.01 0.00488719)
(1.75455 0.01 0.00496281)
(1.77273 0.01 0.00504298)
(1.79091 0.01 0.00512848)
(1.80909 0.01 0.00521773)
(1.82727 0.01 0.00530857)
(1.84545 0.01 0.00539938)
(1.86364 0.01 0.00549022)
(1.88182 0.01 0.00558166)
(1.9 0.01 0.00567386)
(1.91818 0.01 0.00576613)
(1.93636 0.01 0.00585771)
(1.95454 0.01 0.00594819)
(1.97273 0.01 0.00603746)
(1.99091 0.01 0.00612587)
(2.00909 0.01 0.00621386)
(2.02727 0.01 0.00630184)
(2.04546 0.01 0.00639006)
(2.06364 0.01 0.00647865)
(2.08182 0.01 0.00656737)
(2.1 0.01 0.00665612)
(2.11818 0.01 0.00674433)
(2.13636 0.01 0.00683141)
(2.15455 0.01 0.00691753)
(2.17273 0.01 0.00700271)
(2.19091 0.01 0.00708652)
(2.20909 0.01 0.00716865)
(2.22727 0.01 0.00724963)
(2.24545 0.01 0.00733016)
(2.26364 0.01 0.00741072)
(2.28182 0.01 0.00749133)
(2.3 0.01 0.00757192)
(2.31818 0.01 0.0076522)
(2.33636 0.01 0.00773216)
(2.35454 0.01 0.0078116)
(2.37273 0.01 0.00789062)
(2.39091 0.01 0.00796901)
(2.40909 0.01 0.00804683)
(2.42727 0.01 0.00812393)
(2.44546 0.01 0.00820042)
(2.46364 0.01 0.00827604)
(2.48182 0.01 0.00835094)
(2.5 0.01 0.00842485)
(2.51818 0.01 0.00849795)
(2.53636 0.01 0.00856997)
(2.55455 0.01 0.00864106)
(2.57273 0.01 0.00871086)
(2.59091 0.01 0.00877951)
(2.60909 0.01 0.00884686)
(2.62727 0.01 0.00891315)
(2.64545 0.01 0.00897805)
(2.66364 0.01 0.00904177)
(2.68182 0.01 0.009104)
(2.7 0.01 0.00916499)
(2.71818 0.01 0.00922441)
(2.73636 0.01 0.00928258)
(2.75454 0.01 0.00933917)
(2.77273 0.01 0.00939445)
(2.79091 0.01 0.00944806)
(2.80909 0.01 0.00950033)
(2.82727 0.01 0.0095509)
(2.84545 0.01 0.00960005)
(2.86364 0.01 0.00964745)
(2.88182 0.01 0.00969354)
(2.9 0.01 0.00973793)
(2.91818 0.01 0.0097809)
(2.93636 0.01 0.00982221)
(2.95454 0.01 0.00986232)
(2.97273 0.01 0.00990085)
(2.99091 0.01 0.00993808)
(3.00909 0.01 0.00997362)
(3.02727 0.01 0.0100079)
(3.04546 0.01 0.0100406)
(3.06364 0.01 0.010072)
(3.08182 0.01 0.0101019)
(3.1 0.01 0.0101306)
(3.11818 0.01 0.0101579)
(3.13636 0.01 0.0101838)
(3.15455 0.01 0.0102082)
(3.17273 0.01 0.0102314)
(3.19091 0.01 0.0102533)
(3.20909 0.01 0.0102742)
(3.22727 0.01 0.0102935)
(3.24545 0.01 0.0103117)
(3.26364 0.01 0.0103286)
(3.28182 0.01 0.0103446)
(3.3 0.01 0.0103591)
(3.31818 0.01 0.010373)
(3.33636 0.01 0.0103856)
(3.35454 0.01 0.0103978)
(3.37273 0.01 0.0104085)
(3.39091 0.01 0.0104196)
(3.40909 0.01 0.0104286)
(3.42727 0.01 0.0104391)
(3.44546 0.01 0.0104468)
(3.46364 0.01 0.0104559)
(3.48182 0.01 0.0104618)
(3.5 0.01 0.0104689)
(3.51818 0.01 0.0104727)
(3.53636 0.01 0.0104777)
(3.55455 0.01 0.0104793)
(3.57273 0.01 0.0104821)
(3.59091 0.01 0.0104812)
(3.60909 0.01 0.0104815)
(3.62727 0.01 0.0104778)
(3.64545 0.01 0.0104752)
(3.66364 0.01 0.0104687)
(3.68182 0.01 0.010463)
(3.7 0.01 0.0104531)
(3.71818 0.01 0.0104435)
(3.73637 0.01 0.01043)
(3.75454 0.01 0.0104159)
(3.77274 0.01 0.0103979)
(3.7909 0.01 0.0103787)
(3.8091 0.01 0.0103564)
(3.82726 0.01 0.0103312)
(3.84546 0.01 0.0103042)
(3.86363 0.01 0.0102733)
(3.88182 0.01 0.0102423)
(3.9 0.01 0.010206)
(3.91818 0.01 0.0101721)
(3.93636 0.01 0.0101327)
(3.95455 0.01 0.0100971)
(3.97273 0.01 0.0100565)
(3.99091 0.01 0.010019)
(4.00909 0.01 0.00997755)
(4.02727 0.01 0.00993799)
(4.04545 0.01 0.00989522)
(4.06364 0.01 0.00985421)
(4.08182 0.01 0.00981072)
(4.1 0.01 0.00976847)
(4.11818 0.01 0.00972441)
(4.13636 0.01 0.00968142)
(4.15454 0.01 0.00963685)
(4.17273 0.01 0.00959257)
(4.19091 0.01 0.00954699)
(4.20909 0.01 0.00950176)
(4.22727 0.01 0.00945537)
(4.24546 0.01 0.0094089)
(4.26364 0.01 0.00936152)
(4.28182 0.01 0.00931432)
(4.3 0.01 0.00926655)
(4.31818 0.01 0.00921912)
(4.33636 0.01 0.00917149)
(4.35455 0.01 0.00912404)
(4.37273 0.01 0.00907641)
(4.39091 0.01 0.00902934)
(4.40909 0.01 0.00898202)
(4.42727 0.01 0.00893503)
(4.44545 0.01 0.00888833)
(4.46364 0.01 0.00884191)
(4.48182 0.01 0.00879544)
(4.5 0.01 0.00874933)
(4.51818 0.01 0.00870362)
(4.53636 0.01 0.00865812)
(4.55454 0.01 0.00861289)
(4.57273 0.01 0.00856815)
(4.59091 0.01 0.00852377)
(4.60909 0.01 0.00847993)
(4.62727 0.01 0.00843652)
(4.64546 0.01 0.00839366)
(4.66364 0.01 0.00835122)
(4.68182 0.01 0.00830962)
(4.7 0.01 0.00826867)
(4.71818 0.01 0.00822826)
(4.73636 0.01 0.00818862)
(4.75454 0.01 0.0081498)
(4.77273 0.01 0.00811182)
(4.79091 0.01 0.00807463)
(4.80909 0.01 0.00803843)
(4.82727 0.01 0.0080034)
(4.84546 0.01 0.00796924)
(4.86364 0.01 0.00793608)
(4.88182 0.01 0.00790404)
(4.9 0.01 0.00787303)
(4.91818 0.01 0.0078431)
(4.93636 0.01 0.00781409)
(4.95455 0.01 0.00778622)
(4.97273 0.01 0.00775963)
(4.99091 0.01 0.00773409)
(5.00909 0.01 0.0077094)
(5.02727 0.01 0.00768574)
(5.04546 0.01 0.00766302)
(5.06364 0.01 0.00764141)
(5.08182 0.01 0.00762115)
(5.1 0.01 0.00760189)
(5.11818 0.01 0.0075835)
(5.13636 0.01 0.00756612)
(5.15454 0.01 0.00754993)
(5.17273 0.01 0.00753448)
(5.19091 0.01 0.00751987)
(5.20909 0.01 0.00750617)
(5.22727 0.01 0.00749323)
(5.24546 0.01 0.00748108)
(5.26364 0.01 0.00746956)
(5.28182 0.01 0.0074587)
(5.3 0.01 0.00744844)
(5.31818 0.01 0.00743875)
(5.33636 0.01 0.0074295)
(5.35455 0.01 0.00742068)
(5.37273 0.01 0.00741224)
(5.39091 0.01 0.00740415)
(5.40909 0.01 0.0073963)
(5.42727 0.01 0.00738864)
(5.44546 0.01 0.00738115)
(5.46364 0.01 0.00737383)
(5.48182 0.01 0.0073666)
(5.5 0.01 0.00735945)
(5.51818 0.01 0.00735233)
(5.53636 0.01 0.00734522)
(5.55455 0.01 0.00733808)
(5.57273 0.01 0.00733105)
(5.59091 0.01 0.00732378)
(5.60909 0.01 0.00731635)
(5.62727 0.01 0.0073089)
(5.64545 0.01 0.00730125)
(5.66364 0.01 0.00729352)
(5.68182 0.01 0.00728557)
(5.7 0.01 0.00727757)
(5.71818 0.01 0.00726916)
(5.73636 0.01 0.00726049)
(5.75455 0.01 0.00725174)
(5.77273 0.01 0.00724264)
(5.79091 0.01 0.0072331)
(5.80909 0.01 0.00722304)
(5.82727 0.01 0.00721264)
(5.84545 0.01 0.00720214)
(5.86364 0.01 0.0071913)
(5.88182 0.01 0.0071801)
(5.9 0.01 0.00716852)
(5.91818 0.01 0.00715659)
(5.93636 0.01 0.00714431)
(5.95454 0.01 0.00713165)
(5.97273 0.01 0.00711868)
(5.99091 0.01 0.00710548)
(6.00909 0.01 0.0070918)
(6.02727 0.01 0.00707747)
(6.04546 0.01 0.00706276)
(6.06364 0.01 0.00704778)
(6.08182 0.01 0.00703235)
(6.1 0.01 0.00701634)
(6.11818 0.01 0.00699986)
(6.13636 0.01 0.00698288)
(6.15454 0.01 0.00696543)
(6.17273 0.01 0.00694752)
(6.19091 0.01 0.0069293)
(6.20909 0.01 0.00691043)
(6.22727 0.01 0.00689109)
(6.24546 0.01 0.00687152)
(6.26364 0.01 0.00685138)
(6.28182 0.01 0.0068309)
(6.3 0.01 0.00681028)
(6.31818 0.01 0.00678928)
(6.33636 0.01 0.00676776)
(6.35454 0.01 0.00674601)
(6.37273 0.01 0.00672412)
(6.39091 0.01 0.00670204)
(6.40909 0.01 0.00667982)
(6.42727 0.01 0.00665744)
(6.44546 0.01 0.00663496)
(6.46364 0.01 0.00661234)
(6.48182 0.01 0.0065896)
(6.5 0.01 0.00656676)
(6.51818 0.01 0.00654393)
(6.53636 0.01 0.0065207)
(6.55454 0.01 0.00649721)
(6.57273 0.01 0.00647358)
(6.59091 0.01 0.00644969)
(6.60909 0.01 0.00642574)
(6.62727 0.01 0.0064013)
(6.64545 0.01 0.0063766)
(6.66364 0.01 0.00635188)
(6.68182 0.01 0.00632688)
(6.7 0.01 0.00630143)
(6.71818 0.01 0.00627592)
(6.73636 0.01 0.00625057)
(6.75455 0.01 0.00622515)
(6.77273 0.01 0.00619967)
(6.79091 0.01 0.00617407)
(6.80909 0.01 0.00614864)
(6.82727 0.01 0.00612374)
(6.84546 0.01 0.00609899)
(6.86364 0.01 0.00607467)
(6.88182 0.01 0.00605097)
(6.9 0.01 0.00602787)
(6.91818 0.01 0.0060055)
(6.93636 0.01 0.00598372)
(6.95454 0.01 0.00596298)
(6.97273 0.01 0.0059431)
(6.99091 0.01 0.00592383)
(7.00909 0.01 0.00590554)
(7.02727 0.01 0.00588815)
(7.04546 0.01 0.00587162)
(7.06364 0.01 0.00585586)
(7.08182 0.01 0.005841)
(7.1 0.01 0.0058272)
(7.11818 0.01 0.00581412)
(7.13636 0.01 0.00580155)
(7.15454 0.01 0.00578969)
(7.17273 0.01 0.00577863)
(7.19091 0.01 0.00576797)
(7.20909 0.01 0.00575785)
(7.22727 0.01 0.00574843)
(7.24546 0.01 0.0057392)
(7.26364 0.01 0.00573039)
(7.28182 0.01 0.00572217)
(7.3 0.01 0.00571409)
(7.31818 0.01 0.00570598)
(7.33636 0.01 0.0056981)
(7.35454 0.01 0.00569052)
(7.37273 0.01 0.00568284)
(7.39091 0.01 0.00567524)
(7.40909 0.01 0.00566797)
(7.42727 0.01 0.00566057)
(7.44545 0.01 0.00565316)
(7.46364 0.01 0.00564585)
(7.48182 0.01 0.00563862)
(7.5 0.01 0.00563145)
(7.51818 0.01 0.00562426)
(7.53636 0.01 0.00561711)
(7.55455 0.01 0.00560986)
(7.57273 0.01 0.00560253)
(7.59091 0.01 0.00559496)
(7.60909 0.01 0.00558749)
(7.62727 0.01 0.00557992)
(7.64546 0.01 0.00557201)
(7.66364 0.01 0.00556423)
(7.68182 0.01 0.00555632)
(7.7 0.01 0.00554805)
(7.71818 0.01 0.00553973)
(7.73636 0.01 0.00553158)
(7.75454 0.01 0.00552328)
(7.77273 0.01 0.00551459)
(7.79091 0.01 0.00550586)
(7.80909 0.01 0.00549727)
(7.82727 0.01 0.00548857)
(7.84546 0.01 0.00547952)
(7.86364 0.01 0.00547058)
(7.88182 0.01 0.00546152)
(7.9 0.01 0.00545211)
(7.91818 0.01 0.00544291)
(7.93636 0.01 0.00543365)
(7.95455 0.01 0.00542417)
(7.97273 0.01 0.00541456)
(7.99091 0.01 0.00540461)
(8.00909 0.01 0.00539478)
(8.02727 0.01 0.00538488)
(8.04545 0.01 0.00537471)
(8.06364 0.01 0.00536437)
(8.08182 0.01 0.00535362)
(8.1 0.01 0.00534303)
(8.11818 0.01 0.00533243)
(8.13636 0.01 0.00532121)
(8.15454 0.01 0.00530962)
(8.17273 0.01 0.00529789)
(8.19091 0.01 0.00528543)
(8.20909 0.01 0.00527256)
(8.22727 0.01 0.00525959)
(8.24546 0.01 0.0052461)
(8.26364 0.01 0.00523208)
(8.28182 0.01 0.00521756)
(8.3 0.01 0.00520255)
(8.31818 0.01 0.00518708)
(8.33636 0.01 0.00517119)
(8.35455 0.01 0.00515494)
(8.37273 0.01 0.00513837)
(8.39091 0.01 0.00512161)
(8.40909 0.01 0.00510488)
(8.42727 0.01 0.00508782)
(8.44546 0.01 0.00507014)
(8.46364 0.01 0.00505232)
(8.48182 0.01 0.00503446)
(8.5 0.01 0.00501659)
(8.51818 0.01 0.00499892)
(8.53636 0.01 0.00498109)
(8.55455 0.01 0.00496278)
(8.57273 0.01 0.00494452)
(8.59091 0.01 0.00492658)
(8.60909 0.01 0.00490855)
(8.62727 0.01 0.00489022)
(8.64545 0.01 0.00487233)
(8.66364 0.01 0.00485457)
(8.68182 0.01 0.00483666)
(8.7 0.01 0.00481933)
(8.71818 0.01 0.0048023)
(8.73636 0.01 0.00478533)
(8.75454 0.01 0.00476911)
(8.77273 0.01 0.0047534)
(8.79091 0.01 0.00473786)
(8.80909 0.01 0.0047232)
(8.82727 0.01 0.0047091)
(8.84546 0.01 0.0046952)
(8.86364 0.01 0.00468225)
(8.88182 0.01 0.00467003)
(8.9 0.01 0.00465823)
(8.91818 0.01 0.00464701)
(8.93636 0.01 0.00463614)
(8.95454 0.01 0.00462631)
(8.97273 0.01 0.00461725)
(8.99091 0.01 0.00460865)
(9.00909 0.01 0.0046011)
(9.02727 0.01 0.00459497)
(9.04546 0.01 0.00459001)
(9.06364 0.01 0.00458604)
(9.08182 0.01 0.00458379)
(9.1 0.01 0.00458334)
(9.11818 0.01 0.00458487)
(9.13636 0.01 0.0045887)
(9.15454 0.01 0.00459484)
(9.17273 0.01 0.00460262)
(9.19091 0.01 0.00461205)
(9.20909 0.01 0.00462379)
(9.22727 0.01 0.00463713)
(9.24545 0.01 0.0046523)
(9.26364 0.01 0.00466984)
(9.28182 0.01 0.00468921)
(9.3 0.01 0.00471029)
(9.31818 0.01 0.00473378)
(9.33636 0.01 0.00475956)
(9.35455 0.01 0.0047874)
(9.37273 0.01 0.00481799)
(9.39091 0.01 0.00484973)
(9.40909 0.01 0.0048854)
(9.42727 0.01 0.0049203)
(9.44545 0.01 0.00496342)
(9.46364 0.01 0.00500026)
(9.48182 0.01 0.00505593)
(9.50001 0.01 0.00509299)
(9.51817 0.01 0.00516185)
(9.53637 0.01 0.00519259)
(9.55453 0.01 0.00525561)
(9.57275 0.01 0.00525813)
(9.59088 0.01 0.00528064)
(9.60912 0.01 0.00521843)
(9.62723 0.01 0.00514497)
(9.64549 0.01 0.00496628)
(9.6636 0.01 0.00471986)
(9.68186 0.01 0.00436271)
(9.69996 0.01 0.00386042)
(9.71821 0.01 0.00317697)
(9.73632 0.01 0.00219987)
(9.75458 0.01 0.000756978)
(9.7727 0.01 -0.00148134)
(9.79098 0.01 -0.00527663)
(9.80931 0.01 -0.0123504)
(9.827 0.01 -0.0169131)
(9.84546 0.01 -0.0171924)
(9.86364 0.01 -0.0172259)
(9.88182 0.01 -0.0172632)
(9.9 0.01 -0.0172998)
(9.91818 0.01 -0.0173362)
(9.93636 0.01 -0.0173726)
(9.95454 0.01 -0.0174091)
(9.97273 0.01 -0.0174454)
(9.99091 0.01 -0.0174818)
(0.0090909 0.01 0.00748182)
(0.0272727 0.01 0.00744545)
(0.0454545 0.01 0.00740908)
(0.0636364 0.01 0.00737271)
(0.0818182 0.01 0.00733635)
(0.1 0.01 0.00729998)
(0.118182 0.01 0.0072632)
(0.136363 0.01 0.00722524)
(0.154543 0.01 0.0071856)
(0.172723 0.01 0.00713564)
(0.190907 0.01 0.00705503)
(0.209067 0.01 0.00697669)
(0.227265 0.01 0.00683491)
(0.245426 0.01 0.00667385)
(0.263621 0.01 0.00653378)
(0.28179 0.01 0.00643376)
(0.29998 0.01 0.00636499)
(0.318175 0.01 0.00624797)
(0.33637 0.01 0.00618575)
(0.354542 0.01 0.00620685)
(0.372771 0.01 0.00614796)
(0.390893 0.01 0.00622597)
(0.409112 0.01 0.00636486)
(0.427296 0.01 0.00635175)
(0.445457 0.01 0.00652018)
(0.463642 0.01 0.00676916)
(0.481816 0.01 0.00687562)
(0.500004 0.01 0.00683786)
(0.518161 0.01 0.00680265)
(0.536365 0.01 0.00676774)
(0.554555 0.01 0.00665312)
(0.572726 0.01 0.00658889)
(0.590926 0.01 0.00649496)
(0.609106 0.01 0.00634096)
(0.627269 0.01 0.00636335)
(0.645452 0.01 0.00651888)
(0.663645 0.01 0.00655289)
(0.68182 0.01 0.00646757)
(0.700003 0.01 0.00635808)
(0.718187 0.01 0.00621921)
(0.736371 0.01 0.00610014)
(0.754541 0.01 0.00611618)
(0.772725 0.01 0.0062358)
(0.790916 0.01 0.00629312)
(0.809089 0.01 0.00630625)
(0.827275 0.01 0.0063026)
(0.845462 0.01 0.00623097)
(0.863634 0.01 0.00618989)
(0.881818 0.01 0.00622376)
(0.899999 0.01 0.00626999)
(0.918189 0.01 0.00627886)
(0.936365 0.01 0.00629361)
(0.954548 0.01 0.00637977)
(0.972725 0.01 0.00653666)
(0.990909 0.01 0.00672971)
(1.00909 0.01 0.00691076)
(1.02727 0.01 0.0070775)
(1.04546 0.01 0.00722342)
(1.06364 0.01 0.00736009)
(1.08182 0.01 0.00748902)
(1.1 0.01 0.00759832)
(1.11818 0.01 0.00769889)
(1.13636 0.01 0.00780865)
(1.15455 0.01 0.00791929)
(1.17273 0.01 0.00802405)
(1.19091 0.01 0.00812364)
(1.20909 0.01 0.00821639)
(1.22727 0.01 0.00830625)
(1.24545 0.01 0.00838922)
(1.26364 0.01 0.00846116)
(1.28182 0.01 0.00852543)
(1.3 0.01 0.00859165)
(1.31818 0.01 0.00866716)
(1.33636 0.01 0.00875596)
(1.35454 0.01 0.00884689)
(1.37273 0.01 0.00893073)
(1.39091 0.01 0.00900414)
(1.40909 0.01 0.00907696)
(1.42727 0.01 0.0091497)
(1.44545 0.01 0.00921426)
(1.46364 0.01 0.00927528)
(1.48182 0.01 0.00933796)
(1.5 0.01 0.00938886)
(1.51818 0.01 0.00942223)
(1.53636 0.01 0.00944551)
(1.55454 0.01 0.00946509)
(1.57273 0.01 0.00948855)
(1.59091 0.01 0.00951401)
(1.60909 0.01 0.00952663)
(1.62727 0.01 0.00952504)
(1.64546 0.01 0.00954216)
(1.66364 0.01 0.00959697)
(1.68182 0.01 0.00967025)
(1.7 0.01 0.00974316)
(1.71818 0.01 0.00981471)
(1.73636 0.01 0.00988742)
(1.75455 0.01 0.00996317)
(1.77273 0.01 0.0100434)
(1.79091 0.01 0.0101288)
(1.80909 0.01 0.0102178)
(1.82727 0.01 0.0103085)
(1.84545 0.01 0.0103993)
(1.86364 0.01 0.0104902)
(1.88182 0.01 0.0105817)
(1.9 0.01 0.0106738)
(1.91818 0.01 0.010766)
(1.93636 0.01 0.0108575)
(1.95454 0.01 0.010948)
(1.97273 0.01 0.0110373)
(1.99091 0.01 0.0111257)
(2.00909 0.01 0.0112138)
(2.02727 0.01 0.0113018)
(2.04546 0.01 0.01139)
(2.06364 0.01 0.0114786)
(2.08182 0.01 0.0115673)
(2.1 0.01 0.011656)
(2.11818 0.01 0.0117441)
(2.13636 0.01 0.0118312)
(2.15455 0.01 0.0119173)
(2.17273 0.01 0.0120025)
(2.19091 0.01 0.0120863)
(2.20909 0.01 0.0121684)
(2.22727 0.01 0.0122495)
(2.24545 0.01 0.01233)
(2.26364 0.01 0.0124106)
(2.28182 0.01 0.0124912)
(2.3 0.01 0.0125718)
(2.31818 0.01 0.012652)
(2.33636 0.01 0.012732)
(2.35454 0.01 0.0128114)
(2.37273 0.01 0.0128904)
(2.39091 0.01 0.0129688)
(2.40909 0.01 0.0130466)
(2.42727 0.01 0.0131237)
(2.44546 0.01 0.0132002)
(2.46364 0.01 0.0132758)
(2.48182 0.01 0.0133507)
(2.5 0.01 0.0134246)
(2.51818 0.01 0.0134977)
(2.53636 0.01 0.0135697)
(2.55455 0.01 0.0136408)
(2.57273 0.01 0.0137106)
(2.59091 0.01 0.0137792)
(2.60909 0.01 0.0138466)
(2.62727 0.01 0.0139128)
(2.64545 0.01 0.0139777)
(2.66364 0.01 0.0140414)
(2.68182 0.01 0.0141037)
(2.7 0.01 0.0141646)
(2.71818 0.01 0.0142241)
(2.73636 0.01 0.0142822)
(2.75454 0.01 0.0143388)
(2.77273 0.01 0.0143941)
(2.79091 0.01 0.0144477)
(2.80909 0.01 0.0145)
(2.82727 0.01 0.0145505)
(2.84545 0.01 0.0145997)
(2.86364 0.01 0.0146471)
(2.88182 0.01 0.0146932)
(2.9 0.01 0.0147376)
(2.91818 0.01 0.0147805)
(2.93636 0.01 0.0148219)
(2.95454 0.01 0.0148619)
(2.97273 0.01 0.0149005)
(2.99091 0.01 0.0149377)
(3.00909 0.01 0.0149732)
(3.02727 0.01 0.0150075)
(3.04546 0.01 0.0150402)
(3.06364 0.01 0.0150716)
(3.08182 0.01 0.0151015)
(3.1 0.01 0.0151303)
(3.11818 0.01 0.0151575)
(3.13636 0.01 0.0151834)
(3.15455 0.01 0.0152078)
(3.17273 0.01 0.0152311)
(3.19091 0.01 0.015253)
(3.20909 0.01 0.0152738)
(3.22727 0.01 0.0152931)
(3.24545 0.01 0.0153113)
(3.26364 0.01 0.0153282)
(3.28182 0.01 0.0153442)
(3.3 0.01 0.0153588)
(3.31818 0.01 0.0153726)
(3.33636 0.01 0.0153853)
(3.35454 0.01 0.0153974)
(3.37273 0.01 0.0154083)
(3.39091 0.01 0.0154191)
(3.40909 0.01 0.0154284)
(3.42727 0.01 0.0154386)
(3.44546 0.01 0.0154466)
(3.46364 0.01 0.0154554)
(3.48182 0.01 0.0154616)
(3.5 0.01 0.0154684)
(3.51818 0.01 0.0154725)
(3.53636 0.01 0.0154771)
(3.55455 0.01 0.0154791)
(3.57273 0.01 0.0154815)
(3.59091 0.01 0.015481)
(3.60909 0.01 0.0154809)
(3.62727 0.01 0.0154776)
(3.64545 0.01 0.0154746)
(3.66364 0.01 0.0154684)
(3.68182 0.01 0.0154624)
(3.7 0.01 0.0154529)
(3.71818 0.01 0.0154429)
(3.73636 0.01 0.0154296)
(3.75454 0.01 0.0154153)
(3.77273 0.01 0.0153975)
(3.7909 0.01 0.0153782)
(3.8091 0.01 0.0153559)
(3.82726 0.01 0.0153308)
(3.84546 0.01 0.0153036)
(3.86364 0.01 0.015273)
(3.88182 0.01 0.0152416)
(3.9 0.01 0.0152059)
(3.91818 0.01 0.0151714)
(3.93636 0.01 0.0151327)
(3.95455 0.01 0.0150964)
(3.97273 0.01 0.0150565)
(3.99091 0.01 0.0150184)
(4.00909 0.01 0.0149774)
(4.02727 0.01 0.0149374)
(4.04545 0.01 0.0148951)
(4.06364 0.01 0.0148537)
(4.08182 0.01 0.0148105)
(4.1 0.01 0.014768)
(4.11818 0.01 0.0147242)
(4.13636 0.01 0.014681)
(4.15454 0.01 0.0146366)
(4.17273 0.01 0.0145922)
(4.19091 0.01 0.0145467)
(4.20909 0.01 0.0145014)
(4.22727 0.01 0.0144551)
(4.24546 0.01 0.0144086)
(4.26364 0.01 0.0143613)
(4.28182 0.01 0.014314)
(4.3 0.01 0.0142663)
(4.31818 0.01 0.0142188)
(4.33636 0.01 0.0141712)
(4.35455 0.01 0.0141238)
(4.37273 0.01 0.0140762)
(4.39091 0.01 0.0140291)
(4.40909 0.01 0.0139818)
(4.42727 0.01 0.0139348)
(4.44545 0.01 0.0138881)
(4.46364 0.01 0.0138416)
(4.48182 0.01 0.0137952)
(4.5 0.01 0.0137491)
(4.51818 0.01 0.0137034)
(4.53636 0.01 0.0136579)
(4.55454 0.01 0.0136127)
(4.57273 0.01 0.0135679)
(4.59091 0.01 0.0135236)
(4.60909 0.01 0.0134797)
(4.62727 0.01 0.0134363)
(4.64546 0.01 0.0133934)
(4.66364 0.01 0.013351)
(4.68182 0.01 0.0133094)
(4.7 0.01 0.0132685)
(4.71818 0.01 0.0132281)
(4.73636 0.01 0.0131884)
(4.75454 0.01 0.0131496)
(4.77273 0.01 0.0131116)
(4.79091 0.01 0.0130745)
(4.80909 0.01 0.0130383)
(4.82727 0.01 0.0130032)
(4.84546 0.01 0.0129691)
(4.86364 0.01 0.0129359)
(4.88182 0.01 0.0129039)
(4.9 0.01 0.0128729)
(4.91818 0.01 0.0128429)
(4.93636 0.01 0.0128139)
(4.95455 0.01 0.0127861)
(4.97273 0.01 0.0127594)
(4.99091 0.01 0.0127339)
(5.00909 0.01 0.0127092)
(5.02727 0.01 0.0126856)
(5.04546 0.01 0.0126628)
(5.06364 0.01 0.0126413)
(5.08182 0.01 0.012621)
(5.1 0.01 0.0126017)
(5.11818 0.01 0.0125833)
(5.13636 0.01 0.0125659)
(5.15454 0.01 0.0125497)
(5.17273 0.01 0.0125343)
(5.19091 0.01 0.0125197)
(5.20909 0.01 0.012506)
(5.22727 0.01 0.012493)
(5.24546 0.01 0.0124809)
(5.26364 0.01 0.0124693)
(5.28182 0.01 0.0124585)
(5.3 0.01 0.0124482)
(5.31818 0.01 0.0124385)
(5.33636 0.01 0.0124293)
(5.35454 0.01 0.0124204)
(5.37273 0.01 0.012412)
(5.39091 0.01 0.0124039)
(5.40909 0.01 0.012396)
(5.42727 0.01 0.0123883)
(5.44546 0.01 0.0123809)
(5.46364 0.01 0.0123735)
(5.48182 0.01 0.0123663)
(5.5 0.01 0.0123592)
(5.51818 0.01 0.0123521)
(5.53636 0.01 0.0123449)
(5.55455 0.01 0.0123378)
(5.57273 0.01 0.0123307)
(5.59091 0.01 0.0123235)
(5.60909 0.01 0.012316)
(5.62727 0.01 0.0123086)
(5.64545 0.01 0.0123009)
(5.66364 0.01 0.0122932)
(5.68182 0.01 0.0122853)
(5.7 0.01 0.0122772)
(5.71818 0.01 0.0122688)
(5.73636 0.01 0.0122602)
(5.75454 0.01 0.0122514)
(5.77273 0.01 0.0122423)
(5.79091 0.01 0.0122327)
(5.80909 0.01 0.0122227)
(5.82727 0.01 0.0122123)
(5.84545 0.01 0.0122018)
(5.86364 0.01 0.012191)
(5.88182 0.01 0.0121798)
(5.9 0.01 0.0121682)
(5.91818 0.01 0.0121562)
(5.93636 0.01 0.012144)
(5.95454 0.01 0.0121313)
(5.97273 0.01 0.0121184)
(5.99091 0.01 0.0121051)
(6.00909 0.01 0.0120914)
(6.02727 0.01 0.0120771)
(6.04546 0.01 0.0120624)
(6.06364 0.01 0.0120474)
(6.08182 0.01 0.012032)
(6.1 0.01 0.012016)
(6.11818 0.01 0.0119995)
(6.13636 0.01 0.0119825)
(6.15455 0.01 0.0119651)
(6.17273 0.01 0.0119472)
(6.19091 0.01 0.0119289)
(6.20909 0.01 0.0119101)
(6.22727 0.01 0.0118907)
(6.24546 0.01 0.0118711)
(6.26364 0.01 0.011851)
(6.28182 0.01 0.0118306)
(6.3 0.01 0.0118099)
(6.31818 0.01 0.0117889)
(6.33636 0.01 0.0117674)
(6.35454 0.01 0.0117457)
(6.37273 0.01 0.0117238)
(6.39091 0.01 0.0117017)
(6.40909 0.01 0.0116795)
(6.42727 0.01 0.0116571)
(6.44545 0.01 0.0116346)
(6.46364 0.01 0.011612)
(6.48182 0.01 0.0115893)
(6.5 0.01 0.0115664)
(6.51818 0.01 0.0115436)
(6.53636 0.01 0.0115204)
(6.55454 0.01 0.0114969)
(6.57273 0.01 0.0114733)
(6.59091 0.01 0.0114494)
(6.60909 0.01 0.0114254)
(6.62727 0.01 0.011401)
(6.64545 0.01 0.0113763)
(6.66364 0.01 0.0113515)
(6.68182 0.01 0.0113265)
(6.7 0.01 0.0113011)
(6.71818 0.01 0.0112756)
(6.73636 0.01 0.0112503)
(6.75455 0.01 0.0112248)
(6.77273 0.01 0.0111994)
(6.79091 0.01 0.0111738)
(6.80909 0.01 0.0111483)
(6.82727 0.01 0.0111234)
(6.84546 0.01 0.0110987)
(6.86364 0.01 0.0110744)
(6.88182 0.01 0.0110507)
(6.9 0.01 0.0110276)
(6.91818 0.01 0.0110052)
(6.93636 0.01 0.0109835)
(6.95454 0.01 0.0109627)
(6.97273 0.01 0.0109428)
(6.99091 0.01 0.0109236)
(7.00909 0.01 0.0109053)
(7.02727 0.01 0.0108879)
(7.04545 0.01 0.0108714)
(7.06364 0.01 0.0108556)
(7.08182 0.01 0.0108408)
(7.1 0.01 0.0108269)
(7.11818 0.01 0.0108138)
(7.13636 0.01 0.0108013)
(7.15454 0.01 0.0107894)
(7.17273 0.01 0.0107783)
(7.19091 0.01 0.0107677)
(7.20909 0.01 0.0107576)
(7.22727 0.01 0.0107481)
(7.24546 0.01 0.0107389)
(7.26364 0.01 0.0107301)
(7.28182 0.01 0.0107219)
(7.3 0.01 0.0107137)
(7.31818 0.01 0.0107057)
(7.33636 0.01 0.0106978)
(7.35454 0.01 0.0106902)
(7.37273 0.01 0.0106825)
(7.39091 0.01 0.0106749)
(7.40909 0.01 0.0106676)
(7.42727 0.01 0.0106603)
(7.44545 0.01 0.0106528)
(7.46364 0.01 0.0106455)
(7.48182 0.01 0.0106383)
(7.5 0.01 0.0106311)
(7.51818 0.01 0.0106239)
(7.53636 0.01 0.0106168)
(7.55455 0.01 0.0106095)
(7.57273 0.01 0.0106022)
(7.59091 0.01 0.0105946)
(7.60909 0.01 0.0105871)
(7.62727 0.01 0.0105795)
(7.64545 0.01 0.0105717)
(7.66364 0.01 0.0105639)
(7.68182 0.01 0.0105559)
(7.7 0.01 0.0105477)
(7.71818 0.01 0.0105394)
(7.73636 0.01 0.0105312)
(7.75455 0.01 0.0105229)
(7.77273 0.01 0.0105142)
(7.79091 0.01 0.0105055)
(7.80909 0.01 0.0104969)
(7.82727 0.01 0.0104882)
(7.84546 0.01 0.0104792)
(7.86364 0.01 0.0104702)
(7.88182 0.01 0.0104612)
(7.9 0.01 0.0104518)
(7.91818 0.01 0.0104425)
(7.93636 0.01 0.0104333)
(7.95455 0.01 0.0104238)
(7.97273 0.01 0.0104142)
(7.99091 0.01 0.0104042)
(8.00909 0.01 0.0103944)
(8.02727 0.01 0.0103845)
(8.04545 0.01 0.0103743)
(8.06364 0.01 0.010364)
(8.08182 0.01 0.0103533)
(8.1 0.01 0.0103427)
(8.11818 0.01 0.010332)
(8.13636 0.01 0.0103208)
(8.15454 0.01 0.0103092)
(8.17273 0.01 0.0102975)
(8.19091 0.01 0.010285)
(8.20909 0.01 0.0102722)
(8.22727 0.01 0.0102592)
(8.24546 0.01 0.0102457)
(8.26364 0.01 0.0102317)
(8.28182 0.01 0.0102172)
(8.3 0.01 0.0102021)
(8.31818 0.01 0.0101867)
(8.33636 0.01 0.0101708)
(8.35455 0.01 0.0101545)
(8.37273 0.01 0.010138)
(8.39091 0.01 0.0101212)
(8.40909 0.01 0.0101045)
(8.42727 0.01 0.0100874)
(8.44546 0.01 0.0100698)
(8.46364 0.01 0.010052)
(8.48182 0.01 0.0100341)
(8.5 0.01 0.0100162)
(8.51818 0.01 0.00999853)
(8.53636 0.01 0.00998068)
(8.55455 0.01 0.00996241)
(8.57273 0.01 0.00994417)
(8.59091 0.01 0.00992621)
(8.60909 0.01 0.00990815)
(8.62727 0.01 0.00988988)
(8.64545 0.01 0.00987198)
(8.66364 0.01 0.0098542)
(8.68182 0.01 0.00983634)
(8.7 0.01 0.00981899)
(8.71818 0.01 0.00980194)
(8.73636 0.01 0.00978502)
(8.75454 0.01 0.00976878)
(8.77273 0.01 0.00975303)
(8.79091 0.01 0.00973755)
(8.80909 0.01 0.00972287)
(8.82727 0.01 0.00970874)
(8.84546 0.01 0.0096949)
(8.86364 0.01 0.00968193)
(8.88182 0.01 0.00966971)
(8.9 0.01 0.00965792)
(8.91818 0.01 0.00964668)
(8.93636 0.01 0.00963586)
(8.95454 0.01 0.009626)
(8.97273 0.01 0.00961691)
(8.99091 0.01 0.00960836)
(9.00909 0.01 0.00960084)
(9.02727 0.01 0.0095947)
(9.04546 0.01 0.00958973)
(9.06364 0.01 0.00958581)
(9.08182 0.01 0.00958357)
(9.1 0.01 0.00958315)
(9.11818 0.01 0.00958469)
(9.13636 0.01 0.00958852)
(9.15454 0.01 0.00959462)
(9.17273 0.01 0.0096024)
(9.19091 0.01 0.00961187)
(9.20909 0.01 0.00962355)
(9.22727 0.01 0.00963691)
(9.24545 0.01 0.00965213)
(9.26364 0.01 0.00966963)
(9.28182 0.01 0.009689)
(9.3 0.01 0.00971014)
(9.31818 0.01 0.00973361)
(9.33636 0.01 0.00975936)
(9.35455 0.01 0.00978726)
(9.37273 0.01 0.00981771)
(9.39091 0.01 0.00984967)
(9.40909 0.01 0.00988497)
(9.42727 0.01 0.00992056)
(9.44545 0.01 0.00996254)
(9.46364 0.01 0.0100014)
(9.48182 0.01 0.0100541)
(9.50001 0.01 0.0100951)
(9.51817 0.01 0.0101584)
(9.53637 0.01 0.0101946)
(9.55453 0.01 0.0102503)
(9.57275 0.01 0.0102591)
(9.59088 0.01 0.0102734)
(9.60912 0.01 0.0102169)
(9.62724 0.01 0.0101362)
(9.64549 0.01 0.00996019)
(9.6636 0.01 0.00971064)
(9.68185 0.01 0.00935029)
(9.69996 0.01 0.00884598)
(9.71821 0.01 0.00815387)
(9.73632 0.01 0.00716879)
(9.75457 0.01 0.00571143)
(9.77269 0.01 0.00346604)
(9.79097 0.01 -0.00027669)
(9.80934 0.01 -0.00682076)
(9.82704 0.01 -0.0113889)
(9.84542 0.01 -0.0121538)
(9.86364 0.01 -0.0122152)
(9.88182 0.01 -0.0122588)
(9.9 0.01 -0.0122976)
(9.91818 0.01 -0.012335)
(9.93636 0.01 -0.0123719)
(9.95454 0.01 -0.0124086)
(9.97273 0.01 -0.0124452)
(9.99091 0.01 -0.0124817)
(0.00909088 0.01 0.0124818)
(0.0272727 0.01 0.0124454)
(0.0454545 0.01 0.0124091)
(0.0636364 0.01 0.0123726)
(0.0818182 0.01 0.0123363)
(0.1 0.01 0.0123)
(0.118181 0.01 0.0122621)
(0.136361 0.01 0.0122193)
(0.154542 0.01 0.0121708)
(0.172723 0.01 0.0121087)
(0.190908 0.01 0.0120187)
(0.209082 0.01 0.0119113)
(0.227272 0.01 0.0117354)
(0.245429 0.01 0.0115238)
(0.263616 0.01 0.011313)
(0.281787 0.01 0.0111394)
(0.299978 0.01 0.0109925)
(0.318172 0.01 0.0108307)
(0.336367 0.01 0.0107625)
(0.354555 0.01 0.0107953)
(0.372766 0.01 0.0108054)
(0.390905 0.01 0.0109317)
(0.409107 0.01 0.0110839)
(0.427286 0.01 0.0111286)
(0.445449 0.01 0.0113234)
(0.463642 0.01 0.0115791)
(0.481827 0.01 0.0117006)
(0.500013 0.01 0.0116819)
(0.518172 0.01 0.011635)
(0.536366 0.01 0.0115777)
(0.554549 0.01 0.0114757)
(0.572723 0.01 0.0114174)
(0.590922 0.01 0.0113436)
(0.609105 0.01 0.0112372)
(0.627269 0.01 0.0112766)
(0.64545 0.01 0.0114206)
(0.663642 0.01 0.0114617)
(0.681817 0.01 0.0113898)
(0.7 0.01 0.0112837)
(0.718185 0.01 0.0111541)
(0.736369 0.01 0.0110518)
(0.754541 0.01 0.0110704)
(0.772725 0.01 0.0111798)
(0.790915 0.01 0.0112445)
(0.80909 0.01 0.0112654)
(0.827275 0.01 0.0112624)
(0.845461 0.01 0.0112051)
(0.863634 0.01 0.011172)
(0.881817 0.01 0.0112027)
(0.899999 0.01 0.0112473)
(0.918188 0.01 0.0112649)