/*--------------------------------*- C++ -*----------------------------------*\
| =========                 |                                                 |
| \\      /  F ield         | foam-extend: Open Source CFD                    |
|  \\    /   O peration     | Version:     3.2                                |
|   \\  /    A nd           | Web:         http://www.foam-extend.org         |
|    \\/     M anipulation  | For copyright notice see file Copyright         |
\*---------------------------------------------------------------------------*/
FoamFile
{
    version     2.0;
    format      ascii;
    class       surfaceScalarField;
    location    "840";
    object      meshPhi;
}
// * * * * * * * * * * * * * * * * * * * * * * * * * * * * * * * * * * * * * //

dimensions      [0 3 -1 0 0 0 0];

internalField   nonuniform List<scalar> 
65390
(
-2.89121e-20
-8.00642e-15
-4.74441e-30
-2.66539e-14
-5.78241e-20
-4.77949e-14
0
-8.0464e-14
1.15648e-19
-8.40392e-14
-9.47949e-28
1.8302e-12
2.31291e-19
8.77953e-12
-2.31262e-19
-2.27039e-11
4.89897e-25
4.51734e-10
2.30494e-19
-2.05621e-08
-2.30018e-19
-2.90286e-07
-3.89443e-23
-2.32939e-07
-4.46181e-19
8.57021e-07
0
1.36688e-06
4.32277e-19
1.75378e-07
0
-8.27391e-07
2.71945e-25
-1.04333e-06
-4.2114e-19
-1.20645e-06
0
-5.64683e-08
-4.17107e-19
1.82499e-06
0
1.20974e-06
-4.26493e-19
-1.24307e-06
0
-1.76787e-06
8.81878e-19
-2.03325e-07
8.84006e-19
1.32188e-06
4.431e-19
1.6485e-06
-4.41345e-19
4.74149e-07
0
-1.11826e-06
8.71998e-19
-1.03524e-06
0
3.43411e-07
0
1.04095e-07
-8.73024e-19
-9.15578e-07
0
-9.52067e-08
8.91037e-19
1.06055e-06
8.91465e-19
3.07316e-07
0
-3.66966e-07
8.9929e-19
9.26378e-07
-7.10322e-23
1.26795e-06
9.03946e-19
-4.25048e-07
9.06763e-19
-1.19589e-06
-1.82279e-18
-5.43822e-07
-8.56788e-24
-1.13456e-07
0
-9.99123e-08
-6.57098e-24
-7.38247e-08
-9.14236e-19
-1.19912e-08
6.13564e-23
3.7279e-07
1.83965e-18
8.3088e-07
-9.19387e-19
2.72127e-07
9.20434e-19
-5.64311e-07
0
-4.0626e-07
-9.23395e-19
-3.33343e-08
9.23459e-19
3.07276e-08
9.25205e-19
5.01723e-08
9.24227e-19
4.45665e-08
0
2.34702e-08
0
3.91273e-09
-1.84953e-18
-7.73479e-09
-1.85077e-18
-1.50655e-08
-1.84969e-18
-2.29157e-08
0
-2.55921e-08
1.85034e-18
-1.54845e-08
9.11189e-25
-8.16772e-10
0
1.07251e-08
0
1.75018e-08
0
1.89304e-08
-1.85055e-18
1.57452e-08
0
9.70881e-09
-1.85029e-18
3.0085e-09
-1.84987e-18
-2.50771e-09
-1.85046e-18
-5.58698e-09
1.8504e-18
-5.82547e-09
-1.85082e-18
-3.99617e-09
-1.85072e-18
-1.42807e-09
-1.85014e-18
8.17522e-10
3.70051e-18
1.96112e-09
-1.84989e-18
1.80478e-09
-1.8509e-18
5.66732e-10
0
-1.01755e-09
-1.85033e-18
-2.16883e-09
-1.85022e-18
-2.5339e-09
1.85074e-18
-2.13932e-09
-1.84935e-18
-1.11115e-09
-1.85042e-18
1.11378e-10
0
1.06719e-09
0
1.55273e-09
-7.06335e-26
1.63655e-09
1.85065e-18
1.45412e-09
-1.84937e-18
1.1716e-09
0
8.76626e-10
1.85133e-18
6.24577e-10
-1.85153e-18
5.05152e-10
3.70026e-18
5.34209e-10
1.8505e-18
6.13729e-10
1.85018e-18
6.49757e-10
3.70128e-18
6.25769e-10
0
4.56196e-10
-1.85072e-18
3.13524e-11
3.70063e-18
-6.07104e-10
-1.85064e-18
-1.30592e-09
-3.70041e-18
-1.9345e-09
5.55167e-18
-2.37758e-09
7.88676e-26
-2.55701e-09
1.85059e-18
-2.42883e-09
1.85022e-18
-2.01e-09
0
-1.34579e-09
2.60438e-26
-5.59812e-10
0
1.94285e-10
1.85017e-18
7.69237e-10
0
1.06274e-09
0
1.03774e-09
3.70114e-18
7.37047e-10
0
2.76815e-10
-3.70115e-18
-2.21166e-10
-3.70038e-18
-6.7098e-10
0
-1.01121e-09
3.70032e-18
-1.21581e-09
0
-1.29194e-09
-3.70033e-18
-1.25846e-09
-3.70108e-18
-1.14343e-09
3.70028e-18
-9.75861e-10
0
-7.9254e-10
3.70033e-18
-6.20185e-10
-3.70111e-18
-4.7929e-10
0
-3.77245e-10
-3.70112e-18
-3.10843e-10
1.10913e-26
-2.61494e-10
5.04998e-27
-2.20276e-10
-3.70037e-18
-1.85268e-10
3.70107e-18
-1.60908e-10
0
-1.5635e-10
0
-1.84947e-10
-3.70038e-18
-2.567e-10
-3.70103e-18
-3.76203e-10
-3.70039e-18
-5.29423e-10
-7.40201e-18
-6.99069e-10
0
-8.57574e-10
0
-9.85001e-10
-3.70043e-18
-1.06045e-09
-3.70093e-18
-1.07246e-09
-3.70044e-18
-1.00633e-09
0
-8.58108e-10
3.70046e-18
-6.47463e-10
0
-4.17632e-10
3.70049e-18
-2.19686e-10
0
-9.23453e-11
6.4187e-26
-3.67256e-11
-3.70079e-18
-4.56059e-11
-3.70054e-18
-1.06497e-10
3.70075e-18
-2.01973e-10
5.78606e-26
-3.08992e-10
-3.70071e-18
-4.11119e-10
0
-4.91879e-10
-3.70067e-18
-5.44851e-10
-3.70064e-18
-5.78605e-10
0
-6.00056e-10
7.40134e-18
-6.04524e-10
-3.70058e-18
-5.94218e-10
4.5979e-26
-5.64045e-10
3.70053e-18
-5.2533e-10
7.40151e-18
-4.95559e-10
0
-4.75331e-10
3.70081e-18
-4.61102e-10
3.70046e-18
-4.48247e-10
3.70084e-18
-4.32318e-10
3.7004e-18
-4.10468e-10
-3.70089e-18
-3.77252e-10
7.40073e-18
-3.30239e-10
3.70092e-18
-2.67023e-10
3.70033e-18
-1.91687e-10
5.09782e-26
-1.13672e-10
-3.70028e-18
-4.41878e-11
-7.402e-18
-6.11771e-13
-3.70025e-18
6.58745e-12
-3.70105e-18
-2.28921e-11
0
-8.39098e-11
3.70107e-18
-1.74729e-10
0
-2.93873e-10
3.70113e-18
-4.30936e-10
7.40026e-18
-5.73768e-10
-3.20219e-26
-7.03144e-10
-3.70007e-18
-8.09562e-10
-2.52542e-26
-8.84384e-10
-7.40001e-18
-9.21505e-10
3.70136e-18
-9.16618e-10
-3.69986e-18
-8.73494e-10
0
-7.93846e-10
0
-7.02096e-10
7.40398e-18
-6.00348e-10
0
-5.07332e-10
-7.40501e-18
-4.30673e-10
0
-3.79854e-10
3.70305e-18
-3.575e-10
3.69797e-18
-3.6529e-10
-8.66147e-26
-3.95214e-10
7.39483e-18
-4.35921e-10
0
-4.78534e-10
7.39369e-18
-5.14289e-10
3.70472e-18
-5.46568e-10
-7.39249e-18
-5.7268e-10
6.12744e-26
-5.9611e-10
-3.69566e-18
-6.09247e-10
-7.41177e-18
-6.1335e-10
3.69506e-18
-6.00822e-10
-3.70642e-18
-5.81102e-10
-3.10704e-26
-5.46268e-10
0
-5.11369e-10
7.38836e-18
-4.63596e-10
-3.70714e-18
-4.24284e-10
-1.10819e-17
-3.79023e-10
0
-3.56554e-10
0
-3.28596e-10
-7.41376e-18
-3.19486e-10
-7.38919e-18
-2.91474e-10
3.70624e-18
-2.76068e-10
3.69552e-18
-2.43553e-10
-3.70527e-18
-2.33331e-10
1.9794e-25
-2.26871e-10
1.11127e-17
-2.27757e-10
-3.69755e-18
-2.39395e-10
7.40681e-18
-2.30637e-10
0
-2.31286e-10
-7.40557e-18
-2.24541e-10
-7.3977e-18
-2.32665e-10
0
-2.36766e-10
1.5171e-25
-2.50854e-10
1.22144e-25
-2.62424e-10
0
-2.85173e-10
7.40318e-18
-3.07265e-10
-7.39974e-18
-3.32517e-10
7.4028e-18
-3.47401e-10
-7.03479e-26
-3.62089e-10
7.40242e-18
-3.75101e-10
-7.40039e-18
-3.92745e-10
7.40223e-18
-3.99617e-10
-7.40065e-18
-3.90662e-10
7.40204e-18
-3.72396e-10
0
-3.5457e-10
7.40191e-18
-3.39352e-10
-1.48019e-17
-3.30818e-10
0
-3.2485e-10
1.73715e-26
-3.22455e-10
-7.40162e-18
-3.18151e-10
-7.40127e-18
-3.07495e-10
0
-2.83915e-10
-7.40128e-18
-2.48392e-10
1.02894e-26
-2.00015e-10
0
-1.45763e-10
-6.71184e-27
-9.12006e-11
7.40133e-18
-3.77937e-11
0
1.90035e-11
-7.40138e-18
8.38005e-11
-1.4803e-17
1.61462e-10
-1.19305e-27
2.51444e-10
7.40149e-18
3.49099e-10
7.40144e-18
4.47713e-10
0
5.39029e-10
0
6.12658e-10
1.48028e-17
6.67957e-10
0
7.12855e-10
0
7.56267e-10
-7.40151e-18
7.9918e-10
-1.20437e-26
8.37643e-10
0
8.65707e-10
1.34759e-26
8.82782e-10
0
8.8768e-10
0
8.81246e-10
7.40158e-18
8.68019e-10
7.40145e-18
8.52434e-10
0
8.39506e-10
-1.48029e-17
8.28069e-10
0
8.15778e-10
7.40151e-18
8.02067e-10
-6.03429e-27
7.88876e-10
-7.40146e-18
7.78114e-10
0
7.71676e-10
7.4015e-18
7.67409e-10
-7.40148e-18
7.64327e-10
0
7.61698e-10
0
7.58258e-10
0
7.5445e-10
0
7.45163e-10
-7.4015e-18
7.25979e-10
0
6.96773e-10
0
6.60607e-10
7.40153e-18
6.19142e-10
7.4014e-18
5.75637e-10
7.40152e-18
5.31846e-10
7.40146e-18
4.90522e-10
-7.40154e-18
4.53273e-10
7.40138e-18
4.17847e-10
7.40145e-18
3.82411e-10
0
3.45206e-10
7.40149e-18
3.06898e-10
-7.40139e-18
2.70221e-10
-7.40141e-18
2.41421e-10
0
2.26651e-10
1.05963e-26
2.2756e-10
0
2.40496e-10
0
2.5997e-10
-3.70087e-29
2.81084e-10
-7.40139e-18
3.01735e-10
-1.48029e-17
3.24047e-10
7.40141e-18
3.47792e-10
2.02094e-26
3.66813e-10
7.40128e-18
3.7216e-10
-7.40139e-18
3.59444e-10
-7.40123e-18
3.29374e-10
7.40144e-18
2.87451e-10
0
2.41332e-10
0
1.98257e-10
-7.40132e-18
1.6071e-10
-1.48028e-17
1.26924e-10
7.40132e-18
9.39991e-11
-7.40125e-18
5.8045e-11
0
1.62975e-11
7.40133e-18
-3.18498e-11
7.40138e-18
-8.36609e-11
7.40127e-18
-1.33685e-10
7.40129e-18
-1.80222e-10
-1.48027e-17
-2.25481e-10
7.40134e-18
-2.71858e-10
0
-3.21068e-10
5.16832e-27
-3.73949e-10
4.46761e-27
-4.31615e-10
-7.40137e-18
-4.89467e-10
-1.80619e-26
-5.38438e-10
-1.4585e-26
-5.72478e-10
-7.40136e-18
-5.92205e-10
0
-6.00299e-10
0
-6.03396e-10
0
-6.07417e-10
7.98085e-27
-6.16838e-10
7.40138e-18
-6.33773e-10
1.48027e-17
-6.56622e-10
4.89628e-27
-6.85117e-10
-1.48026e-17
-7.18228e-10
7.4013e-18
-7.56237e-10
-4.51952e-31
-7.99074e-10
-7.40134e-18
-8.44612e-10
7.40143e-18
-8.85662e-10
-1.48025e-17
-9.18858e-10
-5.94761e-28
-9.44667e-10
0
-9.67532e-10
1.48026e-17
-9.90893e-10
0
-1.01352e-09
0
-1.03767e-09
0
-1.06461e-09
6.62668e-27
-1.09416e-09
-1.48028e-17
-1.12156e-09
7.4014e-18
-1.1411e-09
-1.48028e-17
-1.14695e-09
1.15732e-26
-1.14007e-09
1.48026e-17
-1.12149e-09
1.48027e-17
-1.0963e-09
6.32069e-27
-1.07261e-09
0
-1.05287e-09
7.40132e-18
-1.03602e-09
7.40144e-18
-1.0156e-09
-6.90864e-27
-9.88266e-10
-7.40152e-18
-9.53899e-10
7.36888e-27
-9.12985e-10
0
-8.6389e-10
7.40139e-18
-8.09259e-10
0
-7.50721e-10
-1.48028e-17
-6.91504e-10
7.40133e-18
-6.34562e-10
1.57075e-27
-5.79664e-10
0
-5.2712e-10
-3.59309e-27
-4.75362e-10
7.40142e-18
-4.25267e-10
7.4014e-18
-3.79345e-10
-1.48029e-17
-3.39036e-10
0
-3.03407e-10
1.48028e-17
-2.72902e-10
-7.40135e-18
-2.48264e-10
-7.4013e-18
-2.30454e-10
-7.40142e-18
-2.1898e-10
-2.77427e-27
-2.10531e-10
-7.40142e-18
-2.01666e-10
7.40141e-18
-1.90274e-10
-7.40145e-18
-1.76212e-10
-1.4803e-17
-1.58147e-10
7.40147e-18
-1.31755e-10
-7.40144e-18
-9.09481e-11
-1.89709e-26
-3.16077e-11
7.40151e-18
4.63616e-11
1.48029e-17
1.3784e-10
3.34627e-27
2.36171e-10
1.48031e-17
3.37759e-10
7.4014e-18
4.44009e-10
7.40143e-18
5.54332e-10
-7.40137e-18
6.65884e-10
0
7.78794e-10
0
8.89905e-10
7.40136e-18
9.8477e-10
0
1.05381e-09
-2.22043e-17
1.09659e-09
-7.40133e-18
1.12108e-09
7.40141e-18
1.13346e-09
0
1.13449e-09
7.89254e-27
1.13016e-09
9.22155e-27
1.12047e-09
-1.48029e-17
1.10348e-09
-1.48028e-17
1.08151e-09
0
1.05964e-09
-2.22042e-17
1.03898e-09
7.40133e-18
1.02698e-09
7.4014e-18
1.03035e-09
-1.08279e-26
1.05043e-09
0
1.08387e-09
7.53413e-27
1.12538e-09
0
1.17499e-09
-1.48027e-17
1.22927e-09
-2.22043e-17
1.2854e-09
0
1.34288e-09
0
1.40132e-09
0
1.45608e-09
-1.48028e-17
1.50617e-09
7.40124e-18
1.54361e-09
0
1.56244e-09
-7.40139e-18
1.56457e-09
7.40133e-18
1.55194e-09
-1.48027e-17
1.53095e-09
-7.40142e-18
1.50363e-09
-7.40136e-18
1.47203e-09
6.40377e-28
1.43624e-09
1.48026e-17
1.39928e-09
7.40144e-18
1.36781e-09
-7.40135e-18
1.35079e-09
7.40136e-18
1.34289e-09
-1.48026e-17
1.33839e-09
0
1.34307e-09
0
1.35755e-09
1.48028e-17
1.37479e-09
-3.02447e-27
1.3899e-09
0
1.40349e-09
3.24789e-26
1.40776e-09
7.40137e-18
1.39791e-09
0
1.37435e-09
0
1.33983e-09
2.9605e-17
1.29005e-09
0
1.22028e-09
1.48026e-17
1.12717e-09
0
1.00898e-09
1.88654e-26
8.69728e-10
-8.01216e-27
7.1576e-10
1.48025e-17
5.58606e-10
0
4.02583e-10
-1.48027e-17
2.48304e-10
1.48025e-17
1.01183e-10
0
-3.48163e-11
4.2079e-26
-1.59693e-10
-1.48026e-17
-2.69596e-10
-1.48027e-17
-3.60365e-10
-1.48026e-17
-4.25174e-10
-1.48027e-17
-4.54384e-10
8.54547e-26
-4.41501e-10
-1.48027e-17
-3.87733e-10
0
-2.99797e-10
0
-1.88004e-10
-1.48027e-17
-6.42239e-11
1.48028e-17
5.87692e-11
0
1.74063e-10
0
2.85521e-10
0
4.02422e-10
-1.48027e-17
5.25718e-10
-1.48028e-17
6.4946e-10
1.48028e-17
7.65244e-10
-1.48026e-17
8.64262e-10
0
9.39196e-10
1.48029e-17
9.8727e-10
1.48027e-17
1.00715e-09
0
1.00157e-09
-1.48024e-17
9.70229e-10
1.4803e-17
9.12599e-10
0
8.2235e-10
0
6.90113e-10
8.31237e-26
5.17416e-10
-1.48027e-17
3.0633e-10
-1.48027e-17
6.07405e-11
0
-2.10019e-10
0
-4.96844e-10
1.48029e-17
-7.88133e-10
1.48029e-17
-1.06556e-09
1.48028e-17
-1.31234e-09
-1.48028e-17
-1.52245e-09
0
-1.69561e-09
0
-1.82951e-09
1.48029e-17
-1.93085e-09
1.48028e-17
-2.00494e-09
-1.48028e-17
-2.05567e-09
-1.48031e-17
-2.08749e-09
0
-2.09909e-09
1.4803e-17
-2.07913e-09
1.48029e-17
-2.03363e-09
-1.28301e-26
-1.97131e-09
0
-1.90055e-09
-3.25247e-26
-1.83073e-09
1.48032e-17
-1.76892e-09
0
-1.72344e-09
1.48032e-17
-1.67811e-09
0
-1.62557e-09
0
-1.57229e-09
0
-1.51994e-09
0
-1.47453e-09
-1.48032e-17
-1.43617e-09
0
-1.40016e-09
0
-1.36584e-09
0
-1.32827e-09
1.4803e-17
-1.27937e-09
0
-1.21804e-09
0
-1.13901e-09
0
-1.04375e-09
0
-9.50043e-10
0
-8.57003e-10
0
-7.50519e-10
-2.96095e-17
-6.34797e-10
1.48001e-17
-5.1544e-10
0
-3.9584e-10
1.4793e-17
-2.84085e-10
1.48213e-17
-1.80551e-10
1.4775e-17
-8.45214e-11
0
2.7705e-13
1.47421e-17
6.8998e-11
0
1.20916e-10
0
1.50564e-10
1.49209e-17
1.60296e-10
2.93032e-17
1.55881e-10
1.49573e-17
1.35762e-10
-1.46114e-17
1.1274e-10
-1.49768e-17
8.2358e-11
8.16439e-26
6.02613e-11
1.49632e-17
4.39698e-11
-2.91908e-17
5.00413e-11
0
8.46902e-11
1.45745e-17
1.79816e-10
0
3.34439e-10
0
6.32759e-10
0
8.29298e-10
1.76052e-17
4.54895e-10
0
5.38481e-11
0
-3.77112e-13
-1.48067e-17
2.29501e-13
-1.48047e-17
5.80735e-14
-1.48039e-17
2.66182e-14
-1.48035e-17
1.32687e-14
-2.96066e-17
7.16154e-15
0
3.93449e-15
1.48031e-17
1.98722e-15
6.08462e-16
-5.78241e-20
-7.89273e-14
-5.7824e-20
-2.62062e-13
5.78239e-20
-4.73983e-13
0
-8.00517e-13
0
-5.95878e-13
0
1.49498e-11
0
8.13556e-11
0
5.57996e-11
-2.3072e-19
-1.22109e-09
2.30042e-19
-4.08675e-08
-2.29675e-19
-2.56984e-07
-2.26113e-19
-1.40557e-07
2.24941e-19
7.99671e-07
-1.18335e-22
1.21093e-06
1.46128e-22
1.89033e-07
8.58156e-19
-7.5454e-07
4.23456e-19
-1.02888e-06
2.04987e-22
-1.09235e-06
0
2.50686e-09
-8.4357e-19
1.61668e-06
-8.6902e-19
1.05795e-06
3.04386e-22
-1.07874e-06
-6.37328e-23
-1.58701e-06
4.4271e-19
-2.06227e-07
0
1.21004e-06
8.8996e-19
1.5068e-06
4.44627e-19
4.34852e-07
8.9128e-19
-9.65993e-07
0
-9.16166e-07
0
2.07189e-07
8.85129e-19
4.024e-08
0
-7.54728e-07
0
-7.02594e-08
-9.03595e-19
8.86855e-07
-9.01125e-19
3.09914e-07
-2.67713e-22
-1.96894e-07
-9.05402e-19
8.35773e-07
9.0656e-19
1.08345e-06
-9.08569e-19
-3.38574e-07
-9.11818e-19
-1.06088e-06
-1.42369e-22
-5.58389e-07
0
-1.49729e-07
-1.82573e-18
-9.91672e-08
5.93305e-24
-7.03211e-08
-1.83258e-18
1.60516e-08
-9.17548e-19
3.74487e-07
9.21953e-19
7.32799e-07
9.20724e-19
2.44781e-07
-1.84212e-18
-4.71378e-07
-9.20152e-19
-3.82901e-07
-9.2428e-19
-6.02342e-08
1.84921e-18
2.59217e-08
0
4.72346e-08
-1.84898e-18
4.28061e-08
0
2.34191e-08
0
4.59909e-09
1.84923e-18
-7.293e-09
1.85052e-18
-1.50315e-08
0
-2.23237e-08
4.85993e-24
-2.42834e-08
1.85034e-18
-1.49615e-08
-1.85111e-18
-1.08122e-09
0
1.0234e-08
1.85059e-18
1.69229e-08
0
1.84137e-08
-1.85041e-18
1.54129e-08
1.85001e-18
9.61294e-09
0
3.1201e-09
-1.8497e-18
-2.25273e-09
1.85036e-18
-5.28214e-09
1.85046e-18
-5.59592e-09
-1.85094e-18
-3.90465e-09
1.85078e-18
-1.45331e-09
1.85006e-18
7.05113e-10
0
1.82298e-09
0
1.68804e-09
3.58974e-27
5.26173e-10
0
-9.75717e-10
-1.85017e-18
-2.08596e-09
1.85014e-18
-2.45059e-09
0
-2.06947e-09
-1.84908e-18
-1.08746e-09
1.78591e-25
8.59427e-11
0
1.01826e-09
-1.8506e-18
1.50854e-09
-1.0728e-25
1.60616e-09
-1.20998e-28
1.44096e-09
-2.23507e-26
1.16887e-09
5.71837e-26
8.80904e-10
0
6.38162e-10
1.85192e-18
5.20369e-10
5.55084e-18
5.39536e-10
-1.85047e-18
6.09053e-10
0
6.41961e-10
5.55186e-18
6.08727e-10
-3.70059e-18
4.28379e-10
0
7.83721e-12
1.85034e-18
-6.14672e-10
1.85062e-18
-1.29876e-09
1.85017e-18
-1.91405e-09
-1.85049e-18
-2.34764e-09
1.85016e-18
-2.52213e-09
5.55155e-18
-2.39498e-09
-1.85016e-18
-1.98154e-09
-3.70093e-18
-1.33093e-09
-1.8501e-18
-5.62094e-10
1.09182e-25
1.75298e-10
-1.85009e-18
7.38491e-10
1.85045e-18
1.02726e-09
0
1.00643e-09
-3.70095e-18
7.17832e-10
0
2.70885e-10
3.70097e-18
-2.17161e-10
0
-6.59665e-10
0
-9.96447e-10
0
-1.20124e-09
3.70084e-18
-1.27915e-09
-7.04748e-26
-1.24858e-09
3.70083e-18
-1.13699e-09
3.70007e-18
-9.73317e-10
0
-7.93176e-10
0
-6.23224e-10
-3.70089e-18
-4.83301e-10
-3.70021e-18
-3.81105e-10
0
-3.12879e-10
-3.70018e-18
-2.62643e-10
0
-2.21241e-10
0
-1.86747e-10
-3.70082e-18
-1.63417e-10
0
-1.6034e-10
3.70079e-18
-1.9e-10
0
-2.62191e-10
3.70076e-18
-3.80204e-10
0
-5.31386e-10
-3.70072e-18
-6.98075e-10
0
-8.54072e-10
7.71054e-26
-9.79079e-10
3.70017e-18
-1.05304e-09
0
-1.06345e-09
-3.70018e-18
-9.96953e-10
3.70059e-18
-8.51065e-10
3.70018e-18
-6.4501e-10
3.70057e-18
-4.208e-10
3.7002e-18
-2.27153e-10
0
-1.00341e-10
-3.70022e-18
-4.4145e-11
3.70048e-18
-5.16951e-11
-3.70024e-18
-1.10656e-10
-3.70043e-18
-2.03599e-10
2.27331e-26
-3.08686e-10
0
-4.08941e-10
-3.70029e-18
-4.8899e-10
3.70034e-18
-5.42607e-10
3.70031e-18
-5.77017e-10
-3.70029e-18
-5.98046e-10
3.70033e-18
-6.02693e-10
-3.70025e-18
-5.9208e-10
0
-5.62994e-10
3.7002e-18
-5.26069e-10
-3.7004e-18
-4.96455e-10
0
-4.75903e-10
3.70045e-18
-4.61161e-10
7.40025e-18
-4.47874e-10
-2.97419e-26
-4.3152e-10
0
-4.09109e-10
-3.70052e-18
-3.75619e-10
-7.40006e-18
-3.28394e-10
-3.37944e-26
-2.657e-10
3.7e-18
-1.91397e-10
5.54148e-26
-1.1471e-10
0
-4.71087e-11
3.70063e-18
-4.71608e-12
0
2.34976e-12
6.71069e-26
-2.66664e-11
3.69989e-18
-8.74441e-11
-6.24585e-26
-1.77978e-10
0
-2.95928e-10
0
-4.31519e-10
-3.69982e-18
-5.72326e-10
3.7008e-18
-7.00419e-10
-7.87485e-26
-8.05805e-10
3.70088e-18
-8.79886e-10
7.39938e-18
-9.16531e-10
0
-9.11987e-10
7.39916e-18
-8.69323e-10
-7.40236e-18
-7.92038e-10
-3.69932e-18
-7.00843e-10
0
-6.01115e-10
-3.69884e-18
-5.09056e-10
3.70203e-18
-4.33537e-10
-7.39658e-18
-3.83004e-10
3.70253e-18
-3.60829e-10
0
-3.6778e-10
3.70305e-18
-3.96487e-10
-3.69723e-18
-4.36173e-10
0
-4.77915e-10
-3.69668e-18
-5.13824e-10
-3.70408e-18
-5.45838e-10
-3.69612e-18
-5.72224e-10
0
-5.94876e-10
3.69555e-18
-6.08172e-10
-7.41035e-18
-6.11472e-10
-3.69498e-18
-5.99848e-10
0
-5.79457e-10
-3.23111e-26
-5.4606e-10
0
-5.10063e-10
2.02064e-27
-4.64399e-10
3.70631e-18
-4.23808e-10
-7.38785e-18
-3.81239e-10
5.17307e-26
-3.56194e-10
1.10822e-17
-3.30369e-10
3.70608e-18
-3.1781e-10
-3.6945e-18
-2.92594e-10
-3.7055e-18
-2.74553e-10
3.69542e-18
-2.45685e-10
-3.70461e-18
-2.3381e-10
1.90033e-25
-2.27627e-10
3.70365e-18
-2.28772e-10
1.10922e-17
-2.37495e-10
0
-2.31462e-10
7.39608e-18
-2.30641e-10
-7.40458e-18
-2.25953e-10
-7.39721e-18
-2.32407e-10
0
-2.37743e-10
0
-2.50706e-10
0
-2.63505e-10
0
-2.85132e-10
-7.40236e-18
-3.07489e-10
0
-3.31513e-10
0
-3.47266e-10
7.39952e-18
-3.61839e-10
-7.40167e-18
-3.7538e-10
7.39976e-18
-3.91527e-10
0
-3.97967e-10
7.40003e-18
-3.896e-10
0
-3.72347e-10
0
-3.54809e-10
0
-3.40001e-10
1.48007e-17
-3.31066e-10
7.40115e-18
-3.25186e-10
7.40052e-18
-3.22158e-10
0
-3.17369e-10
7.40066e-18
-3.0604e-10
7.40097e-18
-2.82515e-10
-7.40065e-18
-2.46981e-10
0
-1.99277e-10
7.40075e-18
-1.45614e-10
-7.40091e-18
-9.12065e-11
0
-3.7351e-11
2.40931e-26
1.99173e-11
7.40076e-18
8.52022e-11
0
1.62769e-10
-1.48016e-17
2.52224e-10
-4.05803e-27
3.49109e-10
1.48017e-17
4.46771e-10
0
5.37099e-10
-7.40095e-18
6.10563e-10
0
6.66669e-10
0
7.12456e-10
0
7.55986e-10
7.40093e-18
7.98465e-10
-7.40089e-18
8.36458e-10
-7.40093e-18
8.64304e-10
0
8.81309e-10
0
8.86325e-10
-7.40086e-18
8.80339e-10
0
8.67734e-10
7.4009e-18
8.52541e-10
0
8.39578e-10
7.40091e-18
8.27932e-10
0
8.15599e-10
0
8.02051e-10
7.40099e-18
7.8918e-10
0
7.78484e-10
7.40094e-18
7.7188e-10
0
7.675e-10
-7.40092e-18
7.64287e-10
-7.40099e-18
7.61622e-10
0
7.58057e-10
0
7.53757e-10
-7.40093e-18
7.44017e-10
-1.48019e-17
7.24808e-10
-7.40096e-18
6.95877e-10
-7.40082e-18
6.60014e-10
7.40097e-18
6.18805e-10
7.40083e-18
5.75552e-10
0
5.32058e-10
-7.40082e-18
4.90881e-10
0
4.5349e-10
0
4.17811e-10
7.40085e-18
3.82236e-10
-3.59753e-28
3.45124e-10
7.4008e-18
3.0714e-10
0
2.71119e-10
7.40079e-18
2.43e-10
-7.40077e-18
2.28369e-10
7.40074e-18
2.28917e-10
0
2.41268e-10
7.40072e-18
2.60194e-10
0
2.81095e-10
7.4007e-18
3.01846e-10
7.40074e-18
3.24077e-10
0
3.47149e-10
0
3.65234e-10
-3.46298e-26
3.70091e-10
0
3.57502e-10
7.40058e-18
3.27969e-10
1.00623e-27
2.86893e-10
7.4006e-18
2.41554e-10
-7.40072e-18
1.98767e-10
-7.40063e-18
1.61088e-10
0
1.26975e-10
7.40065e-18
9.36519e-11
-1.48012e-17
5.74086e-11
0
1.56063e-11
0
-3.22474e-11
0
-8.35245e-11
0
-1.33353e-10
0
-1.801e-10
-3.78802e-27
-2.25606e-10
1.48013e-17
-2.72148e-10
0
-3.21488e-10
0
-3.74382e-10
8.16994e-27
-4.31552e-10
0
-4.88461e-10
-7.40055e-18
-5.36793e-10
-7.40065e-18
-5.70844e-10
7.40059e-18
-5.90962e-10
-7.40065e-18
-5.9968e-10
0
-6.03464e-10
7.40061e-18
-6.0799e-10
-7.40058e-18
-6.17628e-10
-7.40064e-18
-6.34532e-10
-7.40053e-18
-6.57255e-10
8.85002e-27
-6.85672e-10
7.40056e-18
-7.18784e-10
-7.24464e-27
-7.56743e-10
0
-7.99272e-10
-1.48012e-17
-8.44199e-10
-7.4006e-18
-8.84756e-10
0
-9.18025e-10
7.40064e-18
-9.44271e-10
0
-9.67441e-10
-7.40057e-18
-9.9087e-10
0
-1.01357e-09
1.48013e-17
-1.03788e-09
9.45426e-29
-1.06476e-09
-7.4006e-18
-1.0938e-09
-2.22019e-17
-1.12053e-09
0
-1.13964e-09
-1.48012e-17
-1.14538e-09
1.48013e-17
-1.13869e-09
7.40062e-18
-1.12067e-09
7.40066e-18
-1.09626e-09
-7.4006e-18
-1.07301e-09
7.40066e-18
-1.053e-09
0
-1.03555e-09
-1.48013e-17
-1.01477e-09
-1.35633e-26
-9.87397e-10
1.49432e-26
-9.53024e-10
7.40054e-18
-9.12112e-10
1.48013e-17
-8.63155e-10
-5.37507e-27
-8.08774e-10
-1.16194e-27
-7.50592e-10
0
-6.91667e-10
7.40063e-18
-6.34832e-10
1.48011e-17
-5.7988e-10
0
-5.2724e-10
1.48013e-17
-4.75586e-10
0
-4.25752e-10
0
-3.79972e-10
-7.40065e-18
-3.39644e-10
-7.4006e-18
-3.04014e-10
0
-2.736e-10
-7.40071e-18
-2.49043e-10
-7.40065e-18
-2.31146e-10
2.40871e-27
-2.19346e-10
0
-2.10483e-10
-7.40078e-18
-2.01373e-10
-7.40074e-18
-1.89907e-10
7.40075e-18
-1.75651e-10
-7.40086e-18
-1.57093e-10
1.48014e-17
-1.30071e-10
7.40081e-18
-8.88102e-11
7.4008e-18
-2.94765e-11
0
4.79554e-11
-1.48016e-17
1.38716e-10
-1.48015e-17
2.36675e-10
7.40082e-18
3.38298e-10
7.4008e-18
4.44448e-10
-7.40073e-18
5.54444e-10
2.22022e-17
6.65905e-10
1.48015e-17
7.78325e-10
4.31398e-26
8.88069e-10
-7.40068e-18
9.81781e-10
0
1.05078e-09
0
1.09434e-09
7.40063e-18
1.11943e-09
-1.48015e-17
1.13214e-09
-7.40066e-18
1.13362e-09
1.48012e-17
1.12939e-09
0
1.11957e-09
7.40066e-18
1.10285e-09
7.40063e-18
1.08139e-09
-1.48011e-17
1.0599e-09
0
1.03988e-09
-1.48012e-17
1.02864e-09
-7.40055e-18
1.03218e-09
-1.94492e-26
1.05188e-09
0
1.08495e-09
-7.40062e-18
1.12624e-09
7.40057e-18
1.17552e-09
-1.86649e-27
1.22948e-09
-1.78358e-27
1.28551e-09
0
1.34282e-09
0
1.40098e-09
7.40051e-18
1.45534e-09
3.25375e-26
1.50466e-09
0
1.54148e-09
-7.40059e-18
1.5604e-09
7.40057e-18
1.56299e-09
-1.57191e-26
1.55079e-09
-7.40046e-18
1.53014e-09
7.40061e-18
1.50308e-09
7.40061e-18
1.47157e-09
0
1.43609e-09
0
1.40006e-09
7.40057e-18
1.36927e-09
7.40054e-18
1.35185e-09
0
1.34342e-09
7.40045e-18
1.33936e-09
-7.40063e-18
1.34425e-09
-7.40045e-18
1.35781e-09
-1.17546e-27
1.37456e-09
-7.40062e-18
1.3896e-09
-1.48009e-17
1.40237e-09
0
1.40604e-09
-2.21881e-26
1.39637e-09
7.40043e-18
1.37279e-09
0
1.33788e-09
1.48008e-17
1.28759e-09
9.67402e-26
1.21742e-09
0
1.12432e-09
-1.48012e-17
1.00641e-09
0
8.67954e-10
0
7.15214e-10
-1.48009e-17
5.58617e-10
1.48009e-17
4.02781e-10
-1.48008e-17
2.49152e-10
-1.48007e-17
1.02467e-10
1.48012e-17
-3.34023e-11
1.48009e-17
-1.57805e-10
8.57234e-26
-2.67159e-10
-1.4801e-17
-3.57189e-10
0
-4.20911e-10
1.48009e-17
-4.49456e-10
0
-4.36707e-10
0
-3.83694e-10
0
-2.96922e-10
1.4801e-17
-1.86503e-10
0
-6.40947e-11
1.4801e-17
5.81104e-11
0
1.73715e-10
0
2.85996e-10
1.48011e-17
4.03007e-10
-1.48009e-17
5.2558e-10
0
6.48387e-10
0
7.63167e-10
0
8.61347e-10
1.48009e-17
9.35862e-10
1.48011e-17
9.83898e-10
0
1.00384e-09
1.08983e-25
9.98248e-10
-1.48011e-17
9.66789e-10
1.48013e-17
9.08452e-10
-1.48009e-17
8.17394e-10
1.54823e-25
6.85164e-10
1.48012e-17
5.12777e-10
1.4801e-17
3.02208e-10
0
5.77071e-11
1.48013e-17
-2.11884e-10
0
-4.97368e-10
0
-7.86528e-10
0
-1.0621e-09
-1.4801e-17
-1.30809e-09
-1.48011e-17
-1.51796e-09
0
-1.69115e-09
0
-1.82545e-09
1.48014e-17
-1.92744e-09
1.48011e-17
-2.00196e-09
0
-2.05314e-09
1.48014e-17
-2.08473e-09
1.48011e-17
-2.09562e-09
0
-2.07597e-09
1.48014e-17
-2.03152e-09
-2.44562e-26
-1.97016e-09
1.48013e-17
-1.90037e-09
1.48014e-17
-1.83162e-09
0
-1.77033e-09
-1.48016e-17
-1.72341e-09
1.48017e-17
-1.67735e-09
-1.48016e-17
-1.62539e-09
2.96035e-17
-1.57225e-09
4.3372e-26
-1.52071e-09
0
-1.47508e-09
1.48017e-17
-1.43633e-09
0
-1.40017e-09
1.48018e-17
-1.36523e-09
-1.48016e-17
-1.32701e-09
-1.48016e-17
-1.27773e-09
0
-1.21596e-09
0
-1.13711e-09
-1.48015e-17
-1.04355e-09
0
-9.49754e-10
0
-8.55545e-10
1.48009e-17
-7.49325e-10
1.48031e-17
-6.34237e-10
-1.47989e-17
-5.15309e-10
0
-3.96546e-10
0
-2.84961e-10
-1.48181e-17
-1.8139e-10
0
-8.58019e-11
1.48404e-17
-1.53977e-12
1.47423e-17
6.70314e-11
-1.48706e-17
1.18379e-10
0
1.48268e-10
0
1.58555e-10
1.46483e-17
1.54126e-10
1.49338e-17
1.3533e-10
-1.46028e-17
1.12101e-10
-1.49451e-17
8.3381e-11
1.45804e-17
6.12627e-11
-2.28531e-25
4.66666e-11
1.45596e-17
5.33278e-11
1.4853e-17
9.03432e-11
1.44868e-17
1.838e-10
0
3.40048e-10
1.43853e-17
6.12029e-10
0
7.92833e-10
-1.77184e-17
4.96181e-10
4.27725e-25
1.0994e-10
0
7.21586e-12
1.48347e-17
1.62356e-12
0
5.85205e-13
0
2.58598e-13
0
1.30462e-13
0
7.06558e-14
-1.48047e-17
3.89124e-14
3.53103e-28
1.96823e-14
6.02903e-15
2.89117e-20
-2.70609e-13
5.78241e-20
-9.02344e-13
0
-1.64361e-12
-1.15645e-19
-2.69174e-12
1.15647e-19
-2.18674e-12
0
4.60962e-11
2.31156e-19
2.66361e-10
0
3.09863e-10
3.07283e-24
-4.13971e-09
0
-5.43899e-08
5.32218e-23
-2.15191e-07
2.28009e-19
-5.6491e-08
-2.2765e-19
7.31085e-07
0
1.04892e-06
-4.42055e-19
1.92545e-07
0
-6.74584e-07
0
-9.84393e-07
-4.24179e-19
-9.63844e-07
0
5.10948e-08
4.27808e-19
1.39374e-06
-4.39055e-19
8.97563e-07
0
-9.07931e-07
-4.42656e-19
-1.38133e-06
-4.46375e-19
-1.99854e-07
8.89849e-19
1.07758e-06
-8.93e-19
1.34416e-06
4.49415e-19
3.95829e-07
0
-8.05122e-07
0
-7.94193e-07
9.01233e-19
8.10597e-08
0
-1.83089e-08
1.80185e-18
-5.9777e-07
-9.08281e-19
-4.45448e-08
-9.16981e-19
7.19856e-07
9.15196e-19
3.09564e-07
0
-4.49412e-08
0
7.42655e-07
9.15178e-19
9.01077e-07
9.15569e-19
-2.60825e-07
-1.8342e-18
-9.16772e-07
9.19718e-19
-5.54078e-07
0
-1.82648e-07
1.83122e-18
-1.01256e-07
-9.18943e-19
-6.38925e-08
-8.49105e-23
4.11673e-08
0
3.63748e-07
-9.22623e-19
6.32588e-07
-2.76628e-18
2.16735e-07
1.84324e-18
-3.82433e-07
0
-3.5077e-07
-9.24652e-19
-8.21453e-08
-9.08038e-24
1.80216e-08
6.63446e-24
4.33744e-08
2.5895e-24
4.05402e-08
0
2.31064e-08
0
5.27304e-09
-1.66776e-24
-6.73763e-09
3.55652e-25
-1.47828e-08
0
-2.14874e-08
0
-2.28023e-08
2.81516e-26
-1.42765e-08
0
-1.32478e-09
-1.84978e-18
9.61571e-09
0
1.61739e-08
-1.84967e-18
1.77372e-08
1.12597e-24
1.49685e-08
-1.84987e-18
9.47102e-09
-1.84985e-18
3.25127e-09
-1.50662e-24
-1.93272e-09
0
-4.89815e-09
-1.85045e-18
-5.29841e-09
0
-3.77444e-09
0
-1.4767e-09
-6.55409e-25
5.69577e-10
1.84986e-18
1.6498e-09
-1.84968e-18
1.54318e-09
0
4.73039e-10
0
-9.28263e-10
1.84995e-18
-1.98343e-09
1.84999e-18
-2.34221e-09
0
-1.98138e-09
0
-1.05538e-09
-1.84971e-18
5.80171e-11
0
9.59014e-10
3.70073e-18
1.4512e-09
-1.8502e-18
1.56511e-09
-1.85023e-18
1.42084e-09
1.84918e-18
1.16345e-09
1.85042e-18
8.86083e-10
0
6.54145e-10
-1.85204e-18
5.37943e-10
-3.70097e-18
5.46069e-10
-3.70077e-18
6.03399e-10
-7.29786e-26
6.29773e-10
0
5.85135e-10
-1.62615e-25
3.93779e-10
3.70124e-18
-2.12041e-11
3.70066e-18
-6.24456e-10
-1.8505e-18
-1.28872e-09
-1.85011e-18
-1.88624e-09
0
-2.30702e-09
1.85009e-18
-2.47505e-09
-1.85034e-18
-2.34929e-09
-1.85006e-18
-1.94414e-09
-1.85027e-18
-1.31144e-09
-3.70001e-18
-5.65229e-10
-1.85023e-18
1.50272e-10
1.84998e-18
6.97884e-10
3.70046e-18
9.80545e-10
0
9.65048e-10
0
6.91456e-10
0
2.61639e-10
-3.70052e-18
-2.12671e-10
0
-6.45196e-10
0
-9.76972e-10
0
-1.18143e-09
0
-1.26151e-09
0
-1.23477e-09
3.70032e-18
-1.12785e-09
3.69978e-18
-9.69338e-10
-3.70024e-18
-7.93574e-10
-3.69982e-18
-6.26865e-10
0
-4.88404e-10
0
-3.86057e-10
0
-3.15955e-10
1.89051e-26
-2.64599e-10
3.70031e-18
-2.22988e-10
0
-1.89175e-10
0
-1.67209e-10
3.69981e-18
-1.65936e-10
0
-1.96901e-10
-3.6998e-18
-2.69381e-10
-3.70019e-18
-3.85534e-10
-3.69974e-18
-5.33848e-10
-3.70017e-18
-6.9669e-10
0
-8.49159e-10
3.70011e-18
-9.70944e-10
0
-1.04269e-09
0
-1.05124e-09
-3.69972e-18
-9.84641e-10
0
-8.41929e-10
-3.69974e-18
-6.41869e-10
0
-4.24797e-10
3.69968e-18
-2.36564e-10
3.69992e-18
-1.11032e-10
0
-5.42456e-11
0
-6.0051e-11
0
-1.16395e-10
0
-2.06082e-10
-3.69971e-18
-3.08433e-10
0
-4.06298e-10
3.6997e-18
-4.85344e-10
-7.39947e-18
-5.39487e-10
3.69971e-18
-5.74529e-10
0
-5.95266e-10
3.69972e-18
-6.00033e-10
0
-5.89357e-10
-3.69975e-18
-5.61601e-10
-3.69961e-18
-5.26643e-10
3.69976e-18
-4.97428e-10
3.69958e-18
-4.76532e-10
2.47779e-26
-4.61164e-10
0
-4.47278e-10
3.69979e-18
-4.30322e-10
-3.6995e-18
-4.0723e-10
3.69983e-18
-3.73364e-10
3.69947e-18
-3.26005e-10
3.69984e-18
-2.64022e-10
0
-1.91118e-10
3.69986e-18
-1.16286e-10
-3.69939e-18
-5.10165e-11
-7.58576e-26
-1.01725e-11
0
-3.41329e-12
-3.69991e-18
-3.19786e-11
-3.69934e-18
-9.23536e-11
-5.86043e-26
-1.82281e-10
0
-2.98646e-10
3.69995e-18
-4.32153e-10
-3.69928e-18
-5.70379e-10
-3.69999e-18
-6.96582e-10
3.69924e-18
-8.00497e-10
3.70005e-18
-8.73527e-10
7.39841e-18
-9.096e-10
-3.70012e-18
-9.05425e-10
-3.69913e-18
-8.63668e-10
-3.70027e-18
-7.88988e-10
7.39792e-18
-6.9912e-10
1.11016e-17
-6.01779e-10
-3.69858e-18
-5.11256e-10
0
-4.37165e-10
0
-3.87165e-10
-3.70121e-18
-3.65101e-10
3.69779e-18
-3.71048e-10
0
-3.98237e-10
0
-4.36549e-10
-7.40386e-18
-4.77234e-10
0
-5.13066e-10
3.70229e-18
-5.44816e-10
-3.69657e-18
-5.71292e-10
0
-5.93211e-10
3.69616e-18
-6.06434e-10
-3.70303e-18
-6.09081e-10
-1.10871e-17
-5.9816e-10
1.11101e-17
-5.77451e-10
0
-5.45285e-10
-6.17213e-27
-5.08747e-10
-3.69505e-18
-4.64911e-10
0
-4.23759e-10
3.69489e-18
-3.83364e-10
-3.33522e-26
-3.56453e-10
3.695e-18
-3.31934e-10
3.70364e-18
-3.16649e-10
9.05346e-26
-2.9338e-10
-1.0561e-25
-2.73627e-10
1.39514e-25
-2.47767e-10
-1.23339e-25
-2.34803e-10
3.69687e-18
-2.2869e-10
3.70199e-18
-2.2971e-10
-7.39503e-18
-2.35963e-10
0
-2.31987e-10
-7.39596e-18
-2.30347e-10
0
-2.27272e-10
7.39683e-18
-2.32536e-10
7.40142e-18
-2.38722e-10
0
-2.50891e-10
-7.40096e-18
-2.64574e-10
0
-2.85269e-10
-7.40049e-18
-3.07553e-10
4.42721e-26
-3.30503e-10
0
-3.46902e-10
7.39848e-18
-3.61505e-10
-7.40002e-18
-3.75323e-10
-2.15654e-27
-3.90014e-10
0
-3.95915e-10
7.39889e-18
-3.882e-10
0
-3.7208e-10
7.39908e-18
-3.55052e-10
-7.39978e-18
-3.40661e-10
0
-3.31401e-10
0
-3.25439e-10
-7.39928e-18
-3.2169e-10
-7.39961e-18
-3.16206e-10
2.29948e-26
-3.04122e-10