/*--------------------------------*- C++ -*----------------------------------*\
| =========                 |                                                 |
| \\      /  F ield         | foam-extend: Open Source CFD                    |
|  \\    /   O peration     | Version:     3.2                                |
|   \\  /    A nd           | Web:         http://www.foam-extend.org         |
|    \\/     M anipulation  | For copyright notice see file Copyright         |
\*---------------------------------------------------------------------------*/
FoamFile
{
    version     2.0;
    format      ascii;
    class       volScalarField;
    location    "840";
    object      nut;
}
// * * * * * * * * * * * * * * * * * * * * * * * * * * * * * * * * * * * * * //

dimensions      [0 2 -1 0 0 0 0];

internalField   nonuniform List<scalar> 
33000
(
6.23147e-06
7.54163e-06
8.88482e-06
1.02317e-05
1.15489e-05
1.28031e-05
1.39687e-05
1.50211e-05
1.59479e-05
1.67238e-05
1.73304e-05
1.76858e-05
1.78108e-05
1.77859e-05
1.76671e-05
1.75655e-05
1.74103e-05
1.72215e-05
1.70301e-05
1.68902e-05
1.58994e-05
1.5315e-05
1.57565e-05
1.41746e-05
1.43533e-05
1.45943e-05
1.42384e-05
1.32738e-05
1.32011e-05
1.33778e-05
1.27091e-05
1.27873e-05
1.27807e-05
1.14049e-05
1.07011e-05
1.16415e-05
1.32171e-05
1.38647e-05
1.25475e-05
1.10486e-05
9.89588e-06
9.64221e-06
1.02387e-05
1.10689e-05
1.21812e-05
1.23793e-05
1.16909e-05
1.07186e-05
1.02501e-05
1.0392e-05
1.08928e-05
1.11654e-05
1.14742e-05
1.13829e-05
1.12545e-05
1.10757e-05
1.10205e-05
1.10772e-05
1.12886e-05
1.1501e-05
1.16351e-05
1.18049e-05
1.20087e-05
1.20547e-05
1.21048e-05
1.19714e-05
1.19158e-05
1.18702e-05
1.18669e-05
1.18861e-05
1.19165e-05
1.19853e-05
1.21039e-05
1.22493e-05
1.23597e-05
1.24121e-05
1.24216e-05
1.24332e-05
1.24635e-05
1.24704e-05
1.24925e-05
1.25698e-05
1.26088e-05
1.26442e-05
1.26341e-05
1.2705e-05
1.27321e-05
1.28198e-05
1.27316e-05
1.26626e-05
1.26309e-05
1.27604e-05
1.27616e-05
1.28138e-05
1.28339e-05
1.28605e-05
1.28701e-05
1.29111e-05
1.29388e-05
1.29844e-05
1.30207e-05
1.30667e-05
1.31026e-05
1.31682e-05
1.32145e-05
1.32837e-05
1.33312e-05
1.33942e-05
1.34371e-05
1.34884e-05
1.35207e-05
1.35642e-05
1.35852e-05
1.36251e-05
1.36443e-05
1.36852e-05
1.3707e-05
1.37465e-05
1.37672e-05
1.3806e-05
1.38269e-05
1.38612e-05
1.38781e-05
1.39082e-05
1.39239e-05
1.39554e-05
1.39713e-05
1.40002e-05
1.40148e-05
1.40395e-05
1.40519e-05
1.4073e-05
1.40837e-05
1.41038e-05
1.41146e-05
1.41351e-05
1.41461e-05
1.41673e-05
1.41792e-05
1.42001e-05
1.42132e-05
1.42313e-05
1.42434e-05
1.42534e-05
1.42634e-05
1.42704e-05
1.42785e-05
1.42842e-05
1.42913e-05
1.4297e-05
1.43014e-05
1.43106e-05
1.43142e-05
1.43227e-05
1.43257e-05
1.43339e-05
1.43368e-05
1.43425e-05
1.43482e-05
1.43483e-05
1.43568e-05
1.43569e-05
1.43664e-05
1.43677e-05
1.4376e-05
1.43792e-05
1.43856e-05
1.43899e-05
1.43959e-05
1.43994e-05
1.44069e-05
1.44077e-05
1.44148e-05
1.44124e-05
1.44203e-05
1.44153e-05
1.44241e-05
1.44176e-05
1.44259e-05
1.44216e-05
1.44319e-05
1.44299e-05
1.44425e-05
1.44405e-05
1.44582e-05
1.44514e-05
1.44757e-05
1.44607e-05
1.44895e-05
1.44741e-05
1.45036e-05
1.44885e-05
1.45187e-05
1.45023e-05
1.45335e-05
1.45164e-05
1.45493e-05
1.45316e-05
1.45661e-05
1.45477e-05
1.45833e-05
1.4565e-05
1.4601e-05
1.45844e-05
1.46172e-05
1.46041e-05
1.46324e-05
1.4623e-05
1.46431e-05
1.4643e-05
1.46507e-05
1.46611e-05
1.46567e-05
1.46804e-05
1.46603e-05
1.46952e-05
1.46688e-05
1.47078e-05
1.46866e-05
1.47219e-05
1.47085e-05
1.47392e-05
1.473e-05
1.47585e-05
1.4755e-05
1.47802e-05
1.47799e-05
1.48027e-05
1.48049e-05
1.48226e-05
1.48243e-05
1.48394e-05
1.4835e-05
1.48521e-05
1.4854e-05
1.48612e-05
1.48738e-05
1.48774e-05
1.48984e-05
1.48976e-05
1.49206e-05
1.49181e-05
1.49392e-05
1.49393e-05
1.49617e-05
1.49618e-05
1.49803e-05
1.4985e-05
1.50028e-05
1.50072e-05
1.5024e-05
1.50303e-05
1.50462e-05
1.50542e-05
1.50691e-05
1.50783e-05
1.50913e-05
1.51028e-05
1.51138e-05
1.51266e-05
1.51379e-05
1.51511e-05
1.51623e-05
1.51747e-05
1.51873e-05
1.51999e-05
1.52111e-05
1.52238e-05
1.5235e-05
1.52479e-05
1.52589e-05
1.52708e-05
1.52826e-05
1.52965e-05
1.53072e-05
1.53196e-05
1.533e-05
1.53403e-05
1.53527e-05
1.53644e-05
1.53656e-05
1.53661e-05
1.53667e-05
1.53672e-05
1.53679e-05
1.53687e-05
1.53694e-05
1.53703e-05
1.53712e-05
1.5372e-05
1.53728e-05
1.53738e-05
1.53747e-05
1.53755e-05
1.53763e-05
1.53772e-05
1.53781e-05
1.53787e-05
1.53792e-05
1.53798e-05
1.53803e-05
1.53807e-05
1.5381e-05
1.53812e-05
1.53812e-05
1.53811e-05
1.53812e-05
1.53812e-05
1.53813e-05
1.53812e-05
1.53812e-05
1.5381e-05
1.53808e-05
1.53804e-05
1.53802e-05
1.53799e-05
1.53795e-05
1.5379e-05
1.53784e-05
1.53778e-05
1.53771e-05
1.53763e-05
1.53756e-05
1.53748e-05
1.53737e-05
1.53727e-05
1.53716e-05
1.53703e-05
1.53691e-05
1.53676e-05
1.53659e-05
1.53644e-05
1.53627e-05
1.53609e-05
1.53589e-05
1.53568e-05
1.53548e-05
1.53527e-05
1.53505e-05
1.53483e-05
1.53458e-05
1.53434e-05
1.53408e-05
1.53381e-05
1.53355e-05
1.53327e-05
1.53298e-05
1.53269e-05
1.5324e-05
1.53211e-05
1.53181e-05
1.5315e-05
1.53118e-05
1.53087e-05
1.53056e-05
1.53024e-05
1.52992e-05
1.52962e-05
1.52931e-05
1.52901e-05
1.5287e-05
1.52838e-05
1.52806e-05
1.52773e-05
1.5274e-05
1.52707e-05
1.52674e-05
1.52641e-05
1.52607e-05
1.52575e-05
1.52542e-05
1.52509e-05
1.52476e-05
1.52443e-05
1.52409e-05
1.52377e-05
1.52347e-05
1.52318e-05
1.5229e-05
1.52265e-05
1.5224e-05
1.52217e-05
1.52197e-05
1.52177e-05
1.5216e-05
1.52145e-05
1.5213e-05
1.52117e-05
1.52106e-05
1.52095e-05
1.52086e-05
1.52079e-05
1.52075e-05
1.52071e-05
1.52068e-05
1.52068e-05
1.5207e-05
1.52071e-05
1.52074e-05
1.52081e-05
1.52089e-05
1.52097e-05
1.52108e-05
1.5212e-05
1.52131e-05
1.52143e-05
1.52157e-05
1.52172e-05
1.52188e-05
1.52202e-05
1.52216e-05
1.52231e-05
1.52246e-05
1.52261e-05
1.52277e-05
1.52292e-05
1.52307e-05
1.52322e-05
1.52338e-05
1.52354e-05
1.52371e-05
1.52388e-05
1.52405e-05
1.52424e-05
1.52442e-05
1.52461e-05
1.5248e-05
1.525e-05
1.5252e-05
1.5254e-05
1.52559e-05
1.52579e-05
1.52598e-05
1.52616e-05
1.52636e-05
1.52654e-05
1.52672e-05
1.5269e-05
1.52708e-05
1.52726e-05
1.52744e-05
1.52763e-05
1.52782e-05
1.52802e-05
1.52823e-05
1.52844e-05
1.52865e-05
1.52888e-05
1.52911e-05
1.52932e-05
1.52954e-05
1.52975e-05
1.52994e-05
1.53013e-05
1.5303e-05
1.53045e-05
1.53058e-05
1.53068e-05
1.53075e-05
1.53078e-05
1.53079e-05
1.53077e-05
1.53072e-05
1.53065e-05
1.53057e-05
1.53045e-05
1.53031e-05
1.53016e-05
1.52999e-05
1.5298e-05
1.52962e-05
1.52942e-05
1.5292e-05
1.52897e-05
1.52877e-05
1.52857e-05
1.52836e-05
1.52818e-05
1.52799e-05
1.52781e-05
1.52766e-05
1.52752e-05
1.52739e-05
1.52729e-05
1.52719e-05
1.5271e-05
1.52701e-05
1.52692e-05
1.52685e-05
1.52676e-05
1.52667e-05
1.52657e-05
1.52646e-05
1.52634e-05
1.52622e-05
1.52609e-05
1.52595e-05
1.52581e-05
1.52568e-05
1.52555e-05
1.52545e-05
1.52537e-05
1.52532e-05
1.5253e-05
1.52531e-05
1.52537e-05
1.52543e-05
1.52553e-05
1.52566e-05
1.52581e-05
1.52598e-05
1.5262e-05
1.52642e-05
1.52668e-05
1.52692e-05
1.52729e-05
1.52751e-05
1.52801e-05
1.52822e-05
1.52885e-05
1.52912e-05
1.52982e-05
1.53034e-05
1.53098e-05
1.53188e-05
1.53237e-05
1.53339e-05
1.53328e-05
1.53372e-05
1.53256e-05
1.53126e-05
1.52886e-05
1.52418e-05
1.51958e-05
1.51011e-05
1.49876e-05
1.4553e-05
1.43651e-05
1.0993e-05
9.40152e-06
8.3301e-06
6.6738e-06
7.10918e-06
5.94075e-06
5.87837e-06
5.44138e-06
4.41863e-06
4.6851e-06
6.09925e-06
2.88722e-05
5.17431e-05
3.10791e-05
2.23203e-05
1.77509e-05
1.50532e-05
1.3423e-05
1.23844e-05
1.17246e-05
1.12917e-05
1.11297e-05
1.10673e-05
1.12615e-05
1.15116e-05
1.18431e-05
1.21318e-05
1.24395e-05
1.28209e-05
1.32546e-05
1.37439e-05
1.41967e-05
1.47017e-05
1.52825e-05
1.58498e-05
1.66e-05
1.72062e-05
1.77984e-05
1.83698e-05
1.88445e-05
1.93944e-05
2.01979e-05
1.99757e-05
2.08347e-05
2.12401e-05
1.99669e-05
1.96313e-05
2.12229e-05
2.31855e-05
2.43461e-05
2.38135e-05
2.24862e-05
2.123e-05
2.09634e-05
2.18963e-05
2.30037e-05
2.48805e-05
2.57779e-05
2.52409e-05
2.43646e-05
2.38033e-05
2.4119e-05
2.48971e-05
2.56751e-05
2.64746e-05
2.68333e-05
2.68981e-05
2.67405e-05
2.66961e-05
2.67527e-05
2.70088e-05
2.73794e-05
2.77015e-05
2.81637e-05
2.87326e-05
2.8986e-05
2.92962e-05
2.93098e-05
2.93853e-05
2.94163e-05
2.94771e-05
2.95228e-05
2.96272e-05
2.97819e-05
3.00858e-05
3.04101e-05
3.06938e-05
3.08823e-05
3.0973e-05
3.11114e-05
3.12365e-05
3.12988e-05
3.13694e-05
3.15744e-05
3.16522e-05
3.17699e-05
3.17922e-05
3.1981e-05
3.21008e-05
3.23403e-05
3.22923e-05
3.22151e-05
3.22441e-05
3.26251e-05
3.27071e-05
3.28217e-05
3.28992e-05
3.29785e-05
3.30476e-05
3.3144e-05
3.32014e-05
3.33104e-05
3.33677e-05
3.34574e-05
3.35042e-05
3.35973e-05
3.36568e-05
3.37461e-05
3.38072e-05
3.38913e-05
3.39684e-05
3.40636e-05
3.41275e-05
3.42217e-05
3.42516e-05
3.43165e-05
3.43484e-05
3.4411e-05
3.44412e-05
3.44947e-05
3.45161e-05
3.45672e-05
3.45869e-05
3.46277e-05
3.46409e-05
3.46788e-05
3.46967e-05
3.47421e-05
3.47656e-05
3.48101e-05
3.48338e-05
3.48746e-05
3.48972e-05
3.49343e-05
3.49561e-05
3.4993e-05
3.5017e-05
3.5056e-05
3.50824e-05
3.51243e-05
3.51541e-05
3.51979e-05
3.52321e-05
3.52744e-05
3.53112e-05
3.5346e-05
3.5385e-05
3.54188e-05
3.54566e-05
3.54923e-05
3.55298e-05
3.557e-05
3.56077e-05
3.56541e-05
3.56934e-05
3.57398e-05
3.57811e-05
3.58279e-05
3.587e-05
3.59154e-05
3.59629e-05
3.60021e-05
3.60563e-05
3.60929e-05
3.61558e-05
3.61909e-05
3.62575e-05
3.62933e-05
3.63593e-05
3.64001e-05
3.64667e-05
3.65079e-05
3.6577e-05
3.66185e-05
3.66842e-05
3.67234e-05
3.67879e-05
3.68281e-05
3.68919e-05
3.69286e-05
3.69924e-05
3.70313e-05
3.70994e-05
3.71414e-05
3.7214e-05
3.7256e-05
3.73402e-05
3.73718e-05
3.74734e-05
3.74868e-05
3.75992e-05
3.76174e-05
3.77256e-05
3.77496e-05
3.78591e-05
3.78817e-05
3.79937e-05
3.80154e-05
3.81305e-05
3.81509e-05
3.82683e-05
3.82871e-05
3.84066e-05
3.84265e-05
3.85474e-05
3.85717e-05
3.86872e-05
3.87199e-05
3.88277e-05
3.88702e-05
3.89639e-05
3.90263e-05
3.90966e-05
3.91826e-05
3.92318e-05
3.93467e-05
3.93684e-05
3.95076e-05
3.95178e-05
3.96659e-05
3.96856e-05
3.98258e-05
3.98601e-05
3.99884e-05
4.00238e-05
4.01514e-05
4.01979e-05
4.02982e-05
4.03437e-05
4.04092e-05
4.04517e-05
4.05125e-05
4.05546e-05
4.06156e-05
4.06567e-05
4.07178e-05
4.07579e-05
4.08149e-05
4.08536e-05
4.09068e-05
4.09447e-05
4.09938e-05
4.10323e-05
4.10775e-05
4.11156e-05
4.11597e-05
4.11967e-05
4.1236e-05
4.12711e-05
4.13093e-05
4.13428e-05
4.13792e-05
4.14119e-05
4.14462e-05
4.14771e-05
4.15084e-05
4.15372e-05
4.15655e-05
4.15941e-05
4.16219e-05
4.16499e-05
4.16766e-05
4.17031e-05
4.17282e-05
4.17525e-05
4.17762e-05
4.17996e-05
4.18212e-05
4.18418e-05
4.18605e-05
4.18778e-05
4.18934e-05
4.19077e-05
4.19206e-05
4.19332e-05
4.19436e-05
4.19531e-05
4.19613e-05
4.1968e-05
4.1974e-05
4.19789e-05
4.19824e-05
4.19854e-05
4.19882e-05
4.1991e-05
4.19921e-05
4.19938e-05
4.19937e-05
4.19943e-05
4.19933e-05
4.19925e-05
4.19899e-05
4.19873e-05
4.19831e-05
4.19782e-05
4.19718e-05
4.19647e-05
4.19565e-05
4.19472e-05
4.19368e-05
4.19255e-05
4.19139e-05
4.19017e-05
4.18895e-05
4.18769e-05
4.18643e-05
4.18512e-05
4.18395e-05
4.18273e-05
4.18169e-05
4.18062e-05
4.17968e-05
4.17875e-05
4.17791e-05
4.17712e-05
4.17632e-05
4.17563e-05
4.17494e-05
4.17438e-05
4.17365e-05
4.17295e-05
4.1723e-05
4.17172e-05
4.17108e-05
4.17062e-05
4.16998e-05
4.16951e-05
4.16903e-05
4.16854e-05
4.16802e-05
4.16766e-05
4.16694e-05
4.16634e-05
4.16578e-05
4.16534e-05
4.16483e-05
4.16431e-05
4.16378e-05
4.16334e-05
4.16292e-05
4.16248e-05
4.1622e-05
4.16165e-05
4.16135e-05
4.1609e-05
4.16056e-05
4.16022e-05
4.15988e-05
4.15957e-05
4.15919e-05
4.15895e-05
4.15872e-05
4.15853e-05
4.15829e-05
4.15804e-05
4.15783e-05
4.15764e-05
4.15742e-05
4.15727e-05
4.1573e-05
4.15704e-05
4.15701e-05
4.1567e-05
4.15658e-05
4.15633e-05
4.15599e-05
4.15566e-05
4.15539e-05
4.15514e-05
4.15477e-05
4.15456e-05
4.15444e-05
4.15435e-05
4.15437e-05
4.15431e-05
4.15436e-05
4.15462e-05
4.1549e-05
4.15539e-05
4.1559e-05
4.15661e-05
4.15733e-05
4.15811e-05
4.15901e-05
4.15998e-05
4.16081e-05
4.16176e-05
4.16256e-05
4.16326e-05
4.16381e-05
4.16425e-05
4.16456e-05
4.16484e-05
4.165e-05
4.1652e-05
4.16536e-05
4.16551e-05
4.16579e-05
4.16612e-05
4.16647e-05
4.16699e-05
4.16762e-05
4.16834e-05
4.16911e-05
4.17005e-05
4.17108e-05
4.17212e-05
4.17325e-05
4.1744e-05
4.17552e-05
4.17661e-05
4.17764e-05
4.17871e-05
4.17975e-05
4.18078e-05
4.18181e-05
4.1828e-05
4.18382e-05
4.18478e-05
4.18587e-05
4.18693e-05
4.18809e-05
4.18931e-05
4.19059e-05
4.19191e-05
4.19339e-05
4.19496e-05
4.19655e-05
4.19815e-05
4.19976e-05
4.20136e-05
4.20292e-05
4.20434e-05
4.20583e-05
4.20718e-05
4.20855e-05
4.20985e-05
4.21109e-05
4.21235e-05
4.21367e-05
4.21498e-05
4.21648e-05
4.21795e-05
4.21956e-05
4.2212e-05
4.22298e-05
4.22491e-05
4.22695e-05
4.22905e-05
4.23127e-05
4.2336e-05
4.23583e-05
4.23813e-05
4.2403e-05
4.24232e-05
4.24417e-05
4.24578e-05
4.24715e-05
4.24817e-05
4.24888e-05
4.24925e-05
4.24931e-05
4.24909e-05
4.24881e-05
4.24817e-05
4.24737e-05
4.24646e-05
4.24543e-05
4.24433e-05
4.24324e-05
4.24197e-05
4.24056e-05
4.23923e-05
4.23802e-05
4.23684e-05
4.23554e-05
4.23485e-05
4.23399e-05
4.23343e-05
4.23311e-05
4.23303e-05
4.23307e-05
4.23358e-05
4.23407e-05
4.23476e-05
4.23556e-05
4.23632e-05
4.23684e-05
4.2373e-05
4.23764e-05
4.23768e-05
4.23743e-05
4.23683e-05
4.23624e-05
4.23535e-05
4.23414e-05
4.23266e-05
4.23134e-05
4.22966e-05
4.22773e-05
4.22591e-05
4.22423e-05
4.2225e-05
4.22081e-05
4.21917e-05
4.21733e-05
4.21548e-05
4.21369e-05
4.21164e-05
4.2098e-05
4.20777e-05
4.20582e-05
4.20361e-05
4.20164e-05
4.19939e-05
4.1972e-05
4.19518e-05
4.19207e-05
4.19068e-05
4.18645e-05
4.18661e-05
4.17895e-05
4.18326e-05
4.16967e-05
4.1812e-05
4.15933e-05
4.17858e-05
4.14359e-05
4.16967e-05
4.11944e-05
4.14904e-05
4.08557e-05
4.1126e-05
4.04168e-05
4.06103e-05
3.97945e-05
3.95868e-05
3.8111e-05
3.64176e-05
3.25423e-05
2.57103e-05
1.81711e-05
1.71621e-05
2.58975e-05
2.26244e-05
2.73928e-05
2.45519e-05
2.80894e-05
2.30894e-05
1.8491e-05
2.00596e-05
2.49814e-05
0.00014809
0.000112779
8.51612e-05
6.69363e-05
5.41109e-05
4.47359e-05
3.69497e-05
3.10876e-05
2.67886e-05
2.323e-05
2.06733e-05
1.82639e-05
1.66135e-05
1.5227e-05
1.43038e-05
1.36731e-05
1.32095e-05
1.29328e-05
1.2813e-05
1.27239e-05
1.27439e-05
1.28274e-05
1.29156e-05
1.31115e-05
1.32875e-05
1.3467e-05
1.37565e-05
1.41345e-05
1.46413e-05
1.51428e-05
1.57061e-05
1.6206e-05
1.65586e-05
1.68055e-05
1.72112e-05
1.80099e-05
1.90161e-05
1.97223e-05
1.99528e-05
1.99565e-05
2.00322e-05
2.04278e-05
2.12364e-05
2.2398e-05
2.35446e-05
2.43461e-05
2.41641e-05
2.45868e-05
2.53738e-05
2.6293e-05
2.64668e-05
2.71473e-05
2.74914e-05
2.80741e-05
2.85507e-05
2.8881e-05
2.94013e-05
2.99346e-05
3.05346e-05
3.12724e-05
3.20283e-05
3.26739e-05
3.33645e-05
3.37096e-05
3.41058e-05
3.44608e-05
3.48284e-05
3.51836e-05
3.56044e-05
3.59563e-05
3.64839e-05
3.69723e-05
3.75842e-05
3.81104e-05
3.85945e-05
3.90985e-05
3.9358e-05
3.98764e-05
4.03222e-05
4.07159e-05
4.10319e-05
4.16494e-05
4.20728e-05
4.26185e-05
4.29256e-05
4.32861e-05
4.36112e-05
4.41431e-05
4.4455e-05
4.46328e-05
4.47916e-05
4.54408e-05
4.60335e-05
4.64721e-05
4.68353e-05
4.71422e-05
4.74301e-05
4.7702e-05
4.79722e-05
4.82252e-05
4.84767e-05
4.87175e-05
4.89614e-05
4.91957e-05
4.9428e-05
4.96466e-05
4.98637e-05
5.00748e-05
5.02856e-05
5.0492e-05
5.07011e-05
5.09053e-05
5.11104e-05
5.13033e-05
5.14971e-05
5.16785e-05
5.18591e-05
5.20257e-05
5.21903e-05
5.23398e-05
5.24869e-05
5.26231e-05
5.27611e-05
5.28921e-05
5.30279e-05
5.31586e-05
5.32964e-05
5.34301e-05
5.35708e-05
5.37062e-05
5.38464e-05
5.39806e-05
5.41196e-05
5.42533e-05
5.43926e-05
5.45272e-05
5.46673e-05
5.48034e-05
5.49438e-05
5.50805e-05
5.52208e-05
5.53574e-05
5.54966e-05
5.56328e-05
5.57718e-05
5.59076e-05
5.60472e-05
5.61834e-05
5.63248e-05
5.64629e-05
5.66054e-05
5.67467e-05
5.68896e-05
5.7032e-05
5.71735e-05
5.73153e-05
5.74536e-05
5.75949e-05
5.77304e-05
5.78716e-05
5.80047e-05
5.8147e-05
5.82792e-05
5.84232e-05
5.85548e-05
5.87001e-05
5.8832e-05
5.89787e-05
5.91099e-05
5.92573e-05
5.93882e-05
5.95356e-05
5.96656e-05
5.98128e-05
5.99437e-05
6.00923e-05
6.0225e-05
6.03764e-05
6.0511e-05
6.06667e-05
6.08029e-05
6.09634e-05
6.11012e-05
6.12685e-05
6.14067e-05
6.15824e-05
6.1718e-05
6.19035e-05
6.2036e-05
6.22305e-05
6.23573e-05
6.25611e-05
6.26808e-05
6.28945e-05
6.30072e-05
6.32306e-05
6.33344e-05
6.35664e-05
6.36604e-05
6.39016e-05
6.39865e-05
6.42375e-05
6.43136e-05
6.45728e-05
6.46404e-05
6.49057e-05
6.49656e-05
6.52341e-05
6.52905e-05
6.55583e-05
6.56162e-05
6.58812e-05
6.59493e-05
6.62056e-05
6.62894e-05
6.65353e-05
6.66397e-05
6.68765e-05
6.69999e-05
6.72288e-05
6.73656e-05
6.75883e-05
6.77333e-05
6.79449e-05
6.80949e-05
6.82976e-05
6.84517e-05
6.86494e-05
6.88057e-05
6.89991e-05
6.91557e-05
6.93491e-05
6.95021e-05
6.96908e-05
6.98428e-05
7.00211e-05
7.01718e-05
7.03434e-05
7.04945e-05
7.06608e-05
7.08135e-05
7.09737e-05
7.11254e-05
7.12818e-05
7.14307e-05
7.15797e-05
7.1723e-05
7.1868e-05
7.20072e-05
7.21482e-05
7.2284e-05
7.24194e-05
7.25493e-05
7.26771e-05
7.28004e-05
7.29209e-05
7.30403e-05
7.31576e-05
7.32742e-05
7.33881e-05
7.35002e-05
7.36094e-05
7.3716e-05
7.38203e-05
7.39244e-05
7.40243e-05
7.41241e-05
7.42191e-05
7.43128e-05
7.44014e-05
7.44872e-05
7.45682e-05
7.4645e-05
7.4717e-05
7.47845e-05
7.48479e-05
7.49067e-05
7.49624e-05
7.50148e-05
7.50629e-05
7.51074e-05
7.51482e-05
7.51873e-05
7.52216e-05
7.52539e-05
7.52826e-05
7.53094e-05
7.53331e-05
7.53544e-05
7.53719e-05
7.53868e-05
7.53982e-05
7.54062e-05
7.54107e-05
7.54124e-05
7.54113e-05
7.54066e-05
7.53993e-05
7.53886e-05
7.53766e-05
7.5362e-05
7.53471e-05
7.53303e-05
7.53138e-05
7.52956e-05
7.52797e-05
7.52623e-05
7.52474e-05
7.52322e-05
7.522e-05
7.52083e-05
7.5198e-05
7.51887e-05
7.51793e-05
7.51716e-05
7.51647e-05
7.51594e-05
7.5153e-05
7.5146e-05
7.5139e-05
7.51329e-05
7.51259e-05
7.5121e-05
7.51146e-05
7.51106e-05
7.51061e-05
7.51022e-05
7.5097e-05
7.50937e-05
7.50864e-05
7.50802e-05
7.50733e-05
7.50691e-05
7.50637e-05
7.50589e-05
7.50532e-05
7.50487e-05
7.50441e-05
7.50397e-05
7.50368e-05
7.50311e-05
7.50274e-05
7.50222e-05
7.50173e-05
7.5012e-05
7.50068e-05
7.50013e-05
7.49949e-05
7.49901e-05
7.49857e-05
7.49823e-05
7.49786e-05
7.49749e-05
7.49719e-05
7.49689e-05
7.49669e-05
7.49654e-05
7.49676e-05
7.4966e-05
7.49681e-05
7.49668e-05
7.49682e-05
7.4968e-05
7.49671e-05
7.49665e-05
7.49672e-05
7.4969e-05
7.497e-05
7.49737e-05
7.49798e-05
7.49878e-05
7.49987e-05
7.50098e-05
7.5024e-05
7.50419e-05
7.50616e-05
7.50848e-05
7.51093e-05
7.51371e-05
7.5166e-05
7.51954e-05
7.52276e-05
7.526e-05
7.52913e-05
7.53226e-05
7.53513e-05
7.53782e-05
7.54018e-05
7.54245e-05
7.54449e-05
7.54631e-05
7.54794e-05
7.5496e-05
7.55127e-05
7.55294e-05
7.55484e-05
7.55702e-05
7.55936e-05
7.56207e-05
7.56516e-05
7.56853e-05
7.57212e-05
7.57605e-05
7.58026e-05
7.58461e-05
7.58918e-05
7.59388e-05
7.59855e-05
7.6032e-05
7.60777e-05
7.61236e-05
7.61691e-05
7.62137e-05
7.62589e-05
7.63027e-05
7.63474e-05
7.63904e-05
7.64357e-05
7.64805e-05
7.65272e-05
7.65755e-05
7.66259e-05
7.66768e-05
7.67301e-05
7.67846e-05
7.68398e-05
7.68938e-05
7.6948e-05
7.70008e-05
7.70526e-05
7.71002e-05
7.71477e-05
7.71917e-05
7.72341e-05
7.7275e-05
7.73149e-05
7.73545e-05
7.73953e-05
7.74351e-05
7.74779e-05
7.75204e-05
7.75663e-05
7.76136e-05
7.76645e-05
7.77195e-05
7.77788e-05
7.78408e-05
7.79067e-05
7.79754e-05
7.80436e-05
7.81133e-05
7.81808e-05
7.82459e-05
7.83068e-05
7.83616e-05
7.84092e-05
7.84479e-05
7.84781e-05
7.84978e-05
7.85097e-05
7.85132e-05
7.85123e-05
7.85051e-05
7.8493e-05
7.84769e-05
7.84559e-05
7.84324e-05
7.8407e-05
7.83775e-05
7.83439e-05
7.83103e-05
7.8278e-05
7.82463e-05
7.82137e-05
7.81892e-05
7.81647e-05
7.81459e-05
7.81332e-05
7.81261e-05
7.81236e-05
7.81292e-05
7.81375e-05
7.81491e-05
7.81638e-05
7.81772e-05
7.81866e-05
7.81948e-05
7.81963e-05
7.81945e-05
7.81844e-05
7.81685e-05
7.81495e-05
7.81245e-05
7.80927e-05
7.80552e-05
7.80157e-05
7.79712e-05
7.79231e-05
7.78743e-05
7.78256e-05
7.77787e-05
7.77318e-05
7.7688e-05
7.76408e-05
7.75941e-05
7.75472e-05
7.74985e-05
7.74501e-05
7.74022e-05
7.73521e-05
7.7301e-05
7.72484e-05
7.71957e-05
7.71356e-05
7.70814e-05
7.70065e-05
7.69549e-05
7.68604e-05
7.68336e-05
7.66806e-05
7.67248e-05
7.64564e-05
7.66325e-05
7.61817e-05
7.65056e-05
7.57781e-05
7.62301e-05
7.51668e-05
7.56734e-05
7.42857e-05
7.47222e-05
7.31221e-05
7.3351e-05
7.15097e-05
7.11344e-05
6.8173e-05
6.45715e-05
5.69707e-05
4.27225e-05
2.85198e-05
2.75858e-05
3.14908e-05
2.93019e-05
3.23653e-05
3.09139e-05
3.29145e-05
3.41447e-05
3.40225e-05
3.37485e-05
3.86107e-05
0.000182576
0.000157321
8.25901e-05
7.90931e-05
8.3833e-05
9.06319e-05
9.13285e-05
7.92984e-05
6.9843e-05
6.10798e-05
5.44031e-05
4.69554e-05
4.12835e-05
3.52977e-05
3.11998e-05
2.78083e-05
2.50322e-05
2.30525e-05
2.20145e-05
2.09559e-05
2.06429e-05
2.0091e-05
1.95981e-05
1.92474e-05
1.89359e-05
1.86591e-05
1.81434e-05
1.76857e-05
1.72951e-05
1.70677e-05
1.68867e-05
1.66849e-05
1.65022e-05
1.64096e-05
1.64987e-05
1.67506e-05
1.69947e-05
1.70159e-05
1.68395e-05
1.66577e-05
1.66716e-05
1.69464e-05
1.74548e-05
1.81234e-05
1.87526e-05
1.91394e-05
1.93794e-05
1.96242e-05
2.00487e-05
2.07686e-05
2.16225e-05
2.24952e-05
2.31817e-05
2.3687e-05
2.40656e-05
2.44209e-05
2.48531e-05
2.54316e-05
2.61614e-05
2.70364e-05
2.80234e-05
2.90278e-05
2.99503e-05
3.0733e-05
3.13815e-05
3.19879e-05
3.24466e-05
3.31419e-05
3.38107e-05
3.45855e-05
3.5484e-05
3.64586e-05
3.7414e-05
3.83795e-05
3.9163e-05
4.00505e-05
4.0655e-05
4.1598e-05
4.25448e-05
4.33871e-05
4.42707e-05
4.51893e-05
4.61339e-05
4.70662e-05
4.79742e-05
4.88447e-05
4.96917e-05
5.04794e-05
5.12386e-05
5.19859e-05
5.27703e-05
5.35297e-05
5.42652e-05
5.4972e-05
5.56649e-05
5.63275e-05
5.69836e-05
5.76172e-05
5.82429e-05
5.88495e-05
5.94571e-05
6.00529e-05
6.06531e-05
6.12436e-05
6.18337e-05
6.24149e-05
6.2991e-05
6.35478e-05
6.40996e-05
6.462e-05
6.51372e-05
6.56251e-05
6.61051e-05
6.65693e-05
6.7032e-05
6.74771e-05
6.79219e-05
6.83465e-05
6.87688e-05
6.91699e-05
6.95665e-05
6.99471e-05
7.03248e-05
7.06906e-05
7.10584e-05
7.14173e-05
7.17792e-05
7.21335e-05
7.24894e-05
7.28362e-05
7.31839e-05
7.35219e-05
7.38614e-05
7.41918e-05
7.45258e-05
7.48517e-05
7.51823e-05
7.55057e-05
7.58335e-05
7.61544e-05
7.64784e-05
7.67955e-05
7.71137e-05
7.74244e-05
7.77386e-05
7.80464e-05
7.83589e-05
7.86642e-05
7.8974e-05
7.92787e-05
7.95866e-05
7.98911e-05
8.01953e-05
8.04965e-05
8.07937e-05
8.10893e-05
8.13776e-05
8.16674e-05
8.19473e-05
8.22322e-05
8.25048e-05
8.2786e-05
8.30541e-05
8.33335e-05
8.35981e-05
8.38769e-05
8.41395e-05
8.44185e-05
8.46784e-05
8.49566e-05
8.52146e-05
8.54926e-05
8.57491e-05
8.60277e-05
8.62849e-05
8.65663e-05
8.68269e-05
8.71132e-05
8.7378e-05
8.76717e-05
8.79406e-05
8.8243e-05
8.8517e-05
8.88308e-05
8.91083e-05
8.94355e-05
8.97124e-05
9.00563e-05
9.03299e-05
9.06846e-05
9.09524e-05
9.13209e-05
9.15798e-05
9.19622e-05
9.22118e-05
9.26075e-05
9.28451e-05
9.32525e-05
9.34763e-05
9.38959e-05
9.41063e-05
9.45385e-05
9.47354e-05
9.51782e-05
9.5362e-05
9.58129e-05
9.59845e-05
9.6439e-05
9.66029e-05
9.70556e-05
9.72198e-05
9.76678e-05
9.78438e-05
9.828e-05
9.84763e-05
9.88978e-05
9.91211e-05
9.95309e-05
9.97817e-05
0.000100188
0.000100455
0.000100843
0.000101122
0.000101493
0.000101777
0.000102136
0.000102426
0.000102778
0.000103071
0.000103416
0.000103708
0.00010405
0.000104339
0.000104671
0.00010496
0.00010528
0.000105569
0.000105881
0.00010617
0.000106476
0.000106767
0.000107065
0.000107354
0.000107646
0.00010793
0.000108212
0.000108486
0.00010876
0.000109025
0.00010929
0.000109547
0.0001098
0.000110044
0.000110283
0.000110513
0.000110738
0.000110959
0.000111176
0.000111391
0.000111601
0.000111807
0.000112009
0.000112207
0.0001124
0.000112593
0.00011278
0.000112967
0.000113147
0.000113325
0.000113496
0.000113663
0.000113822
0.000113978
0.000114126
0.000114267
0.000114401
0.000114526
0.000114643
0.000114752
0.000114853
0.000114947
0.000115034
0.000115117
0.000115192
0.000115264
0.000115329
0.00011539
0.000115446
0.000115497
0.000115541
0.000115581
0.000115614
0.000115642
0.000115664
0.000115681
0.000115693
0.0001157
0.000115701
0.000115698
0.000115691
0.000115681
0.00011567
0.000115656
0.000115643
0.000115628
0.000115616
0.000115603
0.000115594
0.000115585
0.00011558
0.000115576
0.000115575
0.000115575
0.000115576
0.00011558
0.000115585
0.000115591
0.000115598
0.000115603
0.000115608
0.000115614
0.000115619
0.000115625
0.00011563
0.000115639
0.000115646
0.000115654
0.00011566
0.000115668
0.000115672
0.000115677
0.000115681
0.000115688
0.000115694
0.0001157
0.000115704
0.000115709
0.000115714
0.000115718
0.000115722
0.000115723
0.000115724
0.000115723
0.00011572
0.000115716
0.000115711
0.000115705
0.000115697
0.000115689
0.000115683
0.000115676
0.00011567
0.000115664
0.000115659
0.000115654
0.000115652
0.000115651
0.000115655
0.000115655
0.00011566
0.000115662
0.000115668
0.000115672
0.000115676
0.000115682
0.000115689
0.000115699
0.00011571
0.000115725
0.000115745
0.000115768
0.000115798
0.000115829
0.000115866
0.000115909
0.000115955
0.000116006
0.000116059
0.000116116
0.000116174
0.000116232
0.000116294
0.000116354
0.000116412
0.000116468
0.000116519
0.000116566
0.000116607
0.000116646
0.000116682
0.000116717
0.000116749
0.000116781
0.000116814
0.00011685
0.000116891
0.000116939
0.000116992
0.000117054
0.000117123
0.0001172
0.000117282
0.000117371
0.000117467
0.000117566
0.00011767
0.000117776
0.000117884
0.000117991
0.000118097
0.000118203
0.000118308
0.000118412
0.000118516
0.000118618
0.000118721
0.000118822
0.000118926
0.00011903
0.000119137
0.000119246
0.000119358
0.000119471
0.000119586
0.000119702
0.000119818
0.000119931
0.000120043
0.00012015
0.000120253
0.000120349
0.000120441
0.000120527
0.000120609
0.000120687
0.000120764
0.000120839
0.000120916
0.000120992
0.000121072
0.000121152
0.000121239
0.000121329
0.000121426
0.000121531
0.000121645
0.000121766
0.000121894
0.000122028
0.000122164
0.000122301
0.000122437
0.000122566
0.000122687
0.000122796
0.000122891
0.000122968
0.000123026
0.000123065
0.000123087
0.000123093
0.000123089
0.000123075
0.000123052
0.000123021
0.000122983
0.000122938
0.000122888
0.000122831
0.000122766
0.0001227
0.000122634
0.000122569
0.000122504
0.00012245
0.000122398
0.000122357
0.000122326
0.000122306
0.000122295
0.000122297
0.000122305
0.000122319
0.000122336
0.000122352
0.000122361
0.000122366
0.000122359
0.000122346
0.00012232
0.000122285
0.000122243
0.00012219
0.000122127
0.000122054
0.000121975
0.000121889
0.000121798
0.000121706
0.000121614
0.000121525
0.000121437
0.000121353
0.000121266
0.00012118
0.000121095
0.000121009
0.000120923
0.000120838
0.00012075
0.000120661
0.000120569
0.000120476
0.000120371
0.000120272
0.000120143
0.000120043
0.000119885
0.000119812
0.000119583
0.000119597
0.000119222
0.000119399
0.000118778
0.00011915
0.000118145
0.000118675
0.000117179
0.000117747
0.000115743
0.000116176
0.00011378
0.000113864
0.000111015
0.000110177
0.000105533
0.000100088
8.79918e-05
6.60704e-05
4.62711e-05
3.96895e-05
4.2067e-05
3.94773e-05
4.00401e-05
3.74049e-05
3.66826e-05
3.63825e-05
4.15407e-05
4.46989e-05
4.18536e-05
0.000188636
0.000141674
7.94532e-05
7.42212e-05
7.94527e-05
8.32449e-05
0.000102126
0.000105179
0.000122798
0.000112176
0.00010406
9.43272e-05
8.56889e-05
7.49284e-05
6.58795e-05
5.76668e-05
5.14653e-05
4.73836e-05
4.55659e-05
4.38891e-05
4.36373e-05
4.26085e-05
4.16612e-05
4.07216e-05
3.99888e-05
3.9531e-05
3.84135e-05
3.73155e-05
3.5749e-05
3.46437e-05
3.35494e-05
3.25916e-05
3.20908e-05
3.18045e-05
3.16602e-05
3.14121e-05
3.08496e-05
2.99215e-05
2.89562e-05
2.82827e-05
2.80784e-05
2.80487e-05
2.79873e-05
2.77667e-05
2.72811e-05
2.67848e-05
2.64094e-05
2.61528e-05
2.61122e-05
2.61522e-05
2.62332e-05
2.62737e-05
2.63256e-05
2.63661e-05
2.64785e-05
2.66791e-05
2.69897e-05
2.74223e-05
2.79429e-05
2.85427e-05
2.91779e-05
2.98086e-05
3.04116e-05
3.09699e-05
3.15256e-05
3.21109e-05
3.2784e-05
3.35763e-05
3.44947e-05
3.55579e-05
3.67383e-05
3.80121e-05
3.93407e-05
4.06621e-05
4.19933e-05
4.33217e-05
4.46992e-05
4.6125e-05
4.76001e-05
4.91241e-05
5.07152e-05
5.23189e-05
5.39097e-05
5.54544e-05
5.69303e-05
5.83343e-05
5.97062e-05
6.09935e-05
6.22337e-05
6.34576e-05
6.4716e-05
6.59494e-05
6.71498e-05
6.82907e-05
6.94055e-05
7.04786e-05
7.15474e-05
7.25882e-05
7.36164e-05
7.46226e-05
7.56116e-05
7.65872e-05
7.75533e-05
7.85062e-05
7.94581e-05
8.03839e-05
8.13048e-05
8.21833e-05
8.30565e-05
8.38912e-05
8.47275e-05
8.5531e-05
8.63367e-05
8.71089e-05
8.78738e-05
8.86163e-05
8.93465e-05
9.00512e-05
9.07466e-05
9.14159e-05
9.20766e-05
9.27131e-05
9.33511e-05
9.39667e-05
9.4588e-05
9.51889e-05
9.57941e-05
9.6381e-05
9.69688e-05
9.75383e-05
9.81072e-05
9.86575e-05
9.92096e-05
9.97461e-05
0.000100287
0.000100813
0.000101344
0.000101862
0.000102384
0.000102895
0.00010341
0.000103913
0.000104419
0.000104915
0.000105417
0.000105909
0.000106406
0.000106894
0.000107385
0.000107868
0.000108351
0.000108828
0.0001093
0.000109765
0.000110221
0.000110672
0.000111111
0.000111549
0.000111971
0.000112397
0.000112807
0.000113224
0.000113625
0.000114037
0.000114431
0.00011484
0.000115231
0.00011564
0.000116028
0.000116437
0.000116824
0.000117235
0.000117624
0.000118039
0.000118433
0.000118856
0.000119257
0.000119689
0.000120097
0.000120541
0.000120955
0.00012141
0.000121832
0.000122301
0.000122729
0.000123216
0.000123646
0.000124154
0.000124582
0.000125111
0.000125532
0.000126072
0.000126483
0.000127041
0.000127441
0.000128013
0.000128398
0.000128983
0.00012935
0.000129947
0.000130296
0.000130906
0.000131237
0.000131856
0.00013217
0.000132796
0.000133094
0.000133721
0.000134008
0.000134632
0.000134918
0.000135535
0.000135832
0.000136434
0.000136755
0.000137341
0.000137693
0.000138275
0.000138652
0.000139211
0.000139607
0.00014014
0.000140546
0.000141059
0.000141471
0.000141969
0.000142387
0.000142877
0.000143295
0.000143777
0.000144192
0.000144668
0.000145082
0.000145545
0.000145961
0.000146412
0.000146829
0.000147271
0.000147688
0.000148124
0.000148543
0.000148971
0.000149388
0.000149808
0.000150215
0.000150621
0.000151013
0.000151402
0.000151778