/*--------------------------------*- C++ -*----------------------------------*\
| =========                 |                                                 |
| \\      /  F ield         | foam-extend: Open Source CFD                    |
|  \\    /   O peration     | Version:     3.2                                |
|   \\  /    A nd           | Web:         http://www.foam-extend.org         |
|    \\/     M anipulation  | For copyright notice see file Copyright         |
\*---------------------------------------------------------------------------*/
FoamFile
{
    version     2.0;
    format      ascii;
    class       volScalarField;
    location    "840";
    object      omega;
}
// * * * * * * * * * * * * * * * * * * * * * * * * * * * * * * * * * * * * * //

dimensions      [0 0 -1 0 0 0 0];

internalField   nonuniform List<scalar> 
33000
(
26.0583
29.4844
33.134
36.9024
40.6701
44.3177
47.7515
50.887
53.6724
56.1931
58.3235
60.6713
62.9787
65.149
66.8415
67.772
68.6108
68.9263
68.6025
68.8341
67.571
66.0473
65.243
63.3575
62.171
61.6899
61.5928
61.401
61.4622
61.6343
61.0684
60.5796
59.8067
58.628
58.0723
57.9359
57.3361
56.4438
55.6968
55.0854
54.5651
54.4684
54.6795
54.4702
54.0905
53.7457
53.1366
52.765
52.731
52.7494
52.5574
52.2355
51.9463
51.7226
51.6353
51.6064
51.6989
51.8094
51.943
52.0656
52.1016
52.0698
52.0474
51.9998
51.9512
51.9187
51.9002
51.9169
51.9489
51.9745
51.9825
51.9809
51.9703
51.9827
51.993
52.0056
51.9972
52.0073
52.0342
52.0424
52.0437
52.072
52.083
52.0686
52.0401
52.0037
51.9753
51.9723
51.9434
51.8581
51.7805
51.7767
51.784
51.7841
51.7841
51.7883
51.7933
51.8056
51.8235
51.8495
51.8763
51.9045
51.9293
51.9548
51.9773
51.9991
52.0164
52.0325
52.0448
52.058
52.0696
52.0843
52.0984
52.1161
52.1329
52.1525
52.1706
52.189
52.205
52.2219
52.2362
52.2494
52.2597
52.2705
52.2797
52.2905
52.3003
52.3112
52.3213
52.3323
52.3426
52.3538
52.3645
52.3762
52.3878
52.3999
52.4119
52.4241
52.4357
52.447
52.4575
52.4669
52.4755
52.4826
52.49
52.4962
52.5028
52.5086
52.5154
52.521
52.5276
52.533
52.5391
52.5439
52.5492
52.5531
52.5573
52.5597
52.5629
52.564
52.5661
52.5661
52.5675
52.5669
52.5678
52.5662
52.566
52.5637
52.5626
52.559
52.5572
52.5532
52.5508
52.5461
52.5435
52.5393
52.5372
52.5332
52.5312
52.5275
52.5261
52.5221
52.5208
52.516
52.5154
52.5084
52.5094
52.4992
52.5027
52.4917
52.4964
52.4858
52.4911
52.481
52.487
52.4775
52.4841
52.4748
52.4819
52.4726
52.4792
52.4698
52.4758
52.467
52.4704
52.4625
52.4628
52.4555
52.4509
52.4464
52.4349
52.4325
52.4142
52.415
52.3888
52.3913
52.3619
52.3642
52.3372
52.3368
52.3136
52.3109
52.2897
52.2856
52.267
52.2614
52.2445
52.238
52.2229
52.2149
52.2003
52.1918
52.1787
52.169
52.1569
52.1469
52.1354
52.1251
52.1143
52.1041
52.093
52.0837
52.073
52.0632
52.0535
52.0445
52.0347
52.0255
52.0168
52.0082
51.9995
51.9916
51.9834
51.9759
51.9683
51.9613
51.9539
51.9477
51.9418
51.9359
51.9307
51.9259
51.9215
51.9173
51.9136
51.911
51.9083
51.9061
51.9046
51.9032
51.9025
51.9016
51.901
51.9013
51.9018
51.9021
51.9028
51.9034
51.9041
51.9056
51.9071
51.9084
51.9099
51.9125
51.9144
51.9167
51.919
51.9213
51.9238
51.9267
51.9297
51.9321
51.9347
51.9375
51.9404
51.9427
51.9449
51.9473
51.9495
51.951
51.9522
51.9531
51.9539
51.9544
51.9553
51.9557
51.9562
51.956
51.9557
51.9557
51.9553
51.9551
51.9544
51.9543
51.9529
51.9515
51.9506
51.9496
51.9484
51.9461
51.9437
51.9417
51.9388
51.9359
51.9332
51.9301
51.9267
51.9231
51.9187
51.9151
51.9112
51.9056
51.9
51.8947
51.8894
51.8837
51.8776
51.8708
51.864
51.8568
51.8502
51.8428
51.8349
51.8275
51.8188
51.8103
51.8021
51.7937
51.7845
51.7753
51.7663
51.7573
51.7484
51.7392
51.7296
51.7202
51.7109
51.7011
51.6921
51.6824
51.6728
51.6635
51.6538
51.6448
51.6351
51.6253
51.6156
51.6059
51.5956
51.585
51.575
51.565
51.5551
51.5455
51.536
51.5271
51.5177
51.5087
51.5003
51.4922
51.4847
51.4773
51.471
51.4655
51.4599
51.4549
51.4509
51.4472
51.4433
51.4406
51.4387
51.4369
51.435
51.4336
51.4336
51.4329
51.4328
51.4345
51.4359
51.4373
51.4399
51.443
51.4456
51.4486
51.4529
51.4568
51.4607
51.4651
51.4689
51.4737
51.4784
51.4826
51.4873
51.4917
51.4963
51.5011
51.506
51.5102
51.5151
51.5201
51.5243
51.5297
51.5353
51.5402
51.5456
51.5515
51.5576
51.5631
51.5687
51.575
51.5811
51.5864
51.5923
51.5982
51.6032
51.6089
51.6144
51.6198
51.6255
51.6303
51.636
51.6419
51.6475
51.6538
51.6593
51.6658
51.6731
51.6795
51.686
51.6933
51.6995
51.7053
51.7117
51.7173
51.7224
51.7269
51.7306
51.7335
51.7355
51.7364
51.7365
51.7356
51.7346
51.733
51.7297
51.7261
51.7219
51.7171
51.7124
51.7074
51.701
51.6946
51.6889
51.6834
51.6763
51.6699
51.664
51.6573
51.6521
51.6472
51.6418
51.638
51.6347
51.6307
51.6282
51.626
51.6232
51.6209
51.6182
51.6153
51.6128
51.6089
51.6059
51.6028
51.5982
51.5938
51.5899
51.5862
51.5811
51.5772
51.5739
51.571
51.5695
51.57
51.5702
51.5709
51.5738
51.5764
51.5795
51.5848
51.5902
51.5956
51.6023
51.6105
51.6167
51.6303
51.6322
51.6553
51.6461
51.6903
51.6552
51.7404
51.6688
51.8076
51.7103
51.8828
51.7717
51.9384
51.838
51.9269
51.8728
51.7869
51.8102
51.562
51.6389
51.2225
51.2904
50.2361
49.3735
40.688
26.2984
32.7284
28.305
27.597
25.1575
24.0683
21.6019
22.2328
25.7206
7.90986
2.18891
3.75438
5.48151
7.29913
9.24839
11.2049
13.1252
14.9774
16.7036
18.4813
20.0589
21.7875
23.3677
25.0465
26.4137
27.4932
28.4195
29.1646
29.3255
29.5927
29.4222
28.9568
28.5029
28.1042
27.4677
27.0212
27.0985
27.3783
27.4257
27.2855
27.3878
27.3821
27.4393
27.8365
27.7518
26.9363
26.2042
26.0784
26.5876
27.3727
27.9838
28.0172
27.468
26.681
25.9375
25.6759
25.9249
26.2497
26.4276
26.2753
25.9172
25.5702
25.2837
25.1067
25.01
24.9746
24.9198
24.8319
24.7077
24.5479
24.3872
24.2215
24.0653
23.9694
23.9218
23.913
23.9029
23.8796
23.8534
23.8159
23.7637
23.6885
23.5919
23.4847
23.3803
23.3051
23.2409
23.1816
23.1268
23.0877
23.0394
22.9833
22.9291
22.8957
22.8571
22.8059
22.7354
22.6879
22.6797
22.674
22.6219
22.5341
22.453
22.3844
22.3192
22.2624
22.2041
22.1496
22.0935
22.0396
21.9858
21.9359
21.886
21.8381
21.7884
21.7419
21.6929
21.6466
21.5959
21.5481
21.4991
21.4548
21.4122
21.375
21.3375
21.3047
21.2715
21.2429
21.2136
21.1881
21.1618
21.1394
21.1153
21.0943
21.0706
21.0495
21.0265
21.0066
20.9855
20.9681
20.9495
20.9342
20.9177
20.904
20.8888
20.8763
20.8624
20.851
20.8384
20.8282
20.817
20.8082
20.7988
20.7917
20.784
20.7782
20.772
20.7675
20.7622
20.7583
20.7536
20.7497
20.746
20.7426
20.7396
20.7366
20.735
20.7321
20.7313
20.7287
20.7281
20.7253
20.7243
20.7212
20.7201
20.7166
20.7154
20.7111
20.7101
20.7058
20.7049
20.7006
20.7004
20.6962
20.696
20.6915
20.6911
20.6865
20.6861
20.6808
20.68
20.6736
20.6727
20.6649
20.6642
20.6553
20.6556
20.6456
20.6473
20.6353
20.6393
20.6252
20.6318
20.6155
20.6244
20.606
20.6175
20.597
20.6113
20.5885
20.6052
20.5799
20.5988
20.5714
20.5929
20.5636
20.5873
20.5569
20.5818
20.5504
20.5756
20.5437
20.5665
20.5353
20.555
20.5253
20.5394
20.5112
20.519
20.4931
20.496
20.4735
20.4731
20.452
20.4485
20.4288
20.4228
20.4034
20.3964
20.3783
20.3715
20.3535
20.346
20.3287
20.3189
20.3031
20.2908
20.2752
20.2617
20.2468
20.2324
20.2179
20.2031
20.1879
20.1727
20.1581
20.1434
20.1284
20.1135
20.0983
20.0831
20.0677
20.0526
20.0376
20.0228
20.0086
19.9939
19.9794
19.9645
19.9499
19.9353
19.9211
19.9071
19.8934
19.8797
19.8664
19.8535
19.8409
19.8287
19.8166
19.8048
19.7933
19.7817
19.7702
19.7589
19.7479
19.7373
19.7269
19.7166
19.7065
19.6967
19.6874
19.6779
19.6689
19.6604
19.6523
19.6444
19.6368
19.6297
19.6229
19.6166
19.6104
19.6046
19.5989
19.5934
19.588
19.583
19.5783
19.574
19.5697
19.5658
19.5619
19.5585
19.5552
19.5526
19.5498
19.5474
19.5451
19.543
19.5408
19.539
19.5375
19.5362
19.5353
19.5345
19.534
19.533
19.533
19.5331
19.5336
19.5338
19.5343
19.5345
19.5352
19.5357
19.5357
19.5361
19.536
19.5357
19.5361
19.5367
19.5368
19.5368
19.5365
19.5367
19.5365
19.5364
19.536
19.5359
19.5351
19.535
19.5345
19.5342
19.5337
19.533
19.5326
19.5316
19.5312
19.5299
19.5285
19.5267
19.525
19.5231
19.5212
19.5189
19.5168
19.514
19.5103
19.5072
19.5036
19.5004
19.4969
19.4933
19.49
19.4866
19.4829
19.4787
19.4751
19.471
19.4668
19.4625
19.4583
19.4544
19.4508
19.4464
19.4422
19.4375
19.4328
19.4276
19.4221
19.4169
19.4109
19.4044
19.3983
19.3915
19.385
19.3786
19.3724
19.3665
19.3606
19.3545
19.3487
19.343
19.3374
19.3321
19.3271
19.3222
19.3176
19.3134
19.3094
19.3057
19.3025
19.2997
19.297
19.2944
19.2921
19.2899
19.2875
19.2854
19.2834
19.2812
19.2791
19.277
19.2747
19.2727
19.2706
19.2689
19.2671
19.2656
19.2643
19.263
19.2614
19.2603
19.2591
19.258
19.2568
19.2561
19.2554
19.2548
19.2539
19.2535
19.2528
19.2521
19.2513
19.2508
19.2501
19.2496
19.249
19.2486
19.2483
19.2481
19.2478
19.2479
19.248
19.2484
19.2485
19.2486
19.2489
19.2492
19.2496
19.25
19.2505
19.2506
19.2507
19.2504
19.2497
19.2488
19.2477
19.2462
19.2447
19.243
19.2407
19.2384
19.2363
19.234
19.2316
19.2291
19.2262
19.2236
19.2216
19.2197
19.2179
19.216
19.2159
19.2143
19.2143
19.2145
19.2151
19.2156
19.2167
19.2172
19.2181
19.2187
19.2189
19.2186
19.2184
19.2175
19.2158
19.2139
19.212
19.2101
19.2074
19.2044
19.2014
19.1989
19.1951
19.1913
19.1886
19.1857
19.1822
19.1781
19.1744
19.1697
19.1657
19.1619
19.1586
19.1549
19.1524
19.149
19.1465
19.1434
19.142
19.1393
19.1392
19.1372
19.1375
19.1369
19.1379
19.1348
19.1436
19.1326
19.155
19.1295
19.1745
19.1291
19.2223
19.1556
19.3162
19.2309
19.4651
19.3683
19.6636
19.5564
19.8816
19.8725
20.3774
20.9946
22.6823
26.5486
30.7525
32.6928
27.7367
27.5036
24.769
23.5274
20.4601
16.4412
13.3494
11.1476
8.60997
0.750712
0.989489
1.32343
1.70133
2.12897
2.60652
3.19587
3.84925
4.52303
5.30905
6.06823
7.09628
8.07556
9.23472
10.1981
11.0696
11.9484
12.6749
13.0356
13.484
13.5687
13.7237
13.7775
13.8162
13.7498
13.7268
13.996
14.3022
14.6068
14.762
14.9523
15.1487
15.3395
15.4646
15.3754
15.2293
15.2619
15.4893
15.7818
16.0768
16.2037
16.1419
15.9706
15.8031
15.6963
15.6901
15.7877
15.8232
15.7577
15.6585
15.5437
15.4559
15.3869
15.3229
15.2455
15.1602
15.0567
14.9497
14.8558
14.7645
14.6938
14.6384
14.6088
14.5899
14.5793
14.5582
14.5306
14.4889
14.4475
14.4034
14.3601
14.3172
14.2729
14.2317
14.1882
14.1509
14.1071
14.0585
14.0058
13.9593
13.9093
13.8599
13.8106
13.777
13.7407
13.7045
13.6526
13.61
13.5734
13.5386
13.4807
13.4159
13.3452
13.2797
13.2149
13.1506
13.0859
13.022
12.9557
12.8913
12.8262
12.7648
12.704
12.6482
12.5923
12.541
12.4891
12.4394
12.3904
12.3427
12.2952
12.2489
12.2021
12.1584
12.1137
12.0731
12.0328
11.9972
11.9616
11.9304
11.8991
11.8717
11.8435
11.8181
11.7914
11.7671
11.7416
11.7189
11.6953
11.6748
11.6535
11.6349
11.6155
11.5986
11.5807
11.5652
11.5489
11.5349
11.5206
11.5086
11.4963
11.4862
11.476
11.4677
11.4593
11.4524
11.4454
11.4396
11.4333
11.4282
11.4227
11.4181
11.4136
11.4098
11.4065
11.4037
11.4018
11.3998
11.3991
11.3977
11.398
11.3971
11.3981
11.3977
11.3991
11.3991
11.4008
11.4008
11.4031
11.4033
11.4061
11.4064
11.4096
11.4099
11.413
11.4127
11.4155
11.4147
11.4174
11.4163
11.4192
11.4177
11.4209
11.4191
11.4229
11.4205
11.4254
11.4224
11.4283
11.4244
11.4317
11.4265
11.4354
11.4285
11.4388
11.4302
11.4422
11.4322
11.446
11.4345
11.45
11.4369
11.4542
11.4396
11.4587
11.443
11.4637
11.4474
11.4692
11.4523
11.4744
11.4575
11.4783
11.462
11.4806
11.4656
11.4804
11.4667
11.477
11.4645
11.4712
11.4596
11.4641
11.4541
11.4565
11.4475
11.4481
11.4394
11.439
11.4309
11.43
11.4215
11.4191
11.4111
11.4066
11.3987
11.393
11.3852
11.3788
11.371
11.364
11.3559
11.3484
11.3398
11.3318
11.3232
11.3153
11.3065
11.2981
11.2888
11.2799
11.2704
11.2614
11.252
11.2429
11.2338
11.2245
11.2151
11.2053
11.1955
11.1857
11.1759
11.1662
11.1565
11.1466
11.1368
11.1267
11.1169
11.1068
11.097
11.0871
11.0775
11.068
11.0586
11.0494
11.0403
11.0313
11.0224
11.0136
11.005
10.9964
10.9881
10.9799
10.9718
10.9637
10.9561
10.9485
10.9412
10.934
10.9271
10.9203
10.9138
10.9074
10.9011
10.8949
10.8888
10.8829
10.8774
10.8721
10.867
10.8621
10.8573
10.8528
10.8485
10.8446
10.8408
10.8372
10.8337
10.8305
10.8273
10.8244
10.8217
10.8194
10.8172
10.8152
10.8135
10.8117
10.8103
10.8091
10.8082
10.8074
10.8067
10.806
10.8056
10.8049
10.8044
10.8038
10.8035
10.803
10.803
10.8029
10.8029
10.8028
10.8027
10.8026
10.8026
10.8025
10.8025
10.8025
10.8023
10.8025
10.8025
10.8028
10.803
10.8032
10.8035
10.8037
10.8039
10.804
10.8039
10.8037
10.8034
10.8032
10.8029
10.8026
10.8022
10.8016
10.8005
10.7996
10.7983
10.7973
10.7959
10.7947
10.7935
10.7923
10.7909
10.7893
10.7878
10.7863
10.7847
10.7829
10.7811
10.7794
10.7776
10.7758
10.7738
10.7715
10.7693
10.7668
10.7642
10.7614
10.7582
10.7547
10.7511
10.7472
10.7433
10.7394
10.7354
10.7314
10.7273
10.7233
10.7193
10.7153
10.7114
10.7076
10.7038
10.7
10.6963
10.6926
10.6892
10.6858
10.6827
10.6797
10.6768
10.6739
10.671
10.6683
10.6655
10.6628
10.6603
10.6577
10.6551
10.6525
10.65
10.6475
10.645
10.6427
10.6405
10.6383
10.6362
10.6343
10.6323
10.6305
10.6287
10.627
10.6253
10.6237
10.6222
10.6208
10.6193
10.618
10.6167
10.6155
10.6141
10.613
10.6118
10.6107
10.6096
10.6086
10.6076
10.6068
10.6059
10.6053
10.6046
10.6039
10.6032
10.6024
10.6017
10.601
10.6004
10.5997
10.5991
10.5984
10.5976
10.5966
10.5955
10.5943
10.5929
10.5917
10.5904
10.589
10.5876
10.5859
10.5843
10.5828
10.5814
10.5799
10.5784
10.577
10.5758
10.5746
10.5735
10.5725
10.572
10.5714
10.5713
10.5713
10.5716
10.572
10.5724
10.5727
10.5731
10.5732
10.5732
10.5729
10.5724
10.5716
10.5707
10.5694
10.5681
10.5665
10.5646
10.5625
10.5603
10.5583
10.5559
10.5535
10.5512
10.5489
10.5464
10.5436
10.5407
10.5376
10.5344
10.5313
10.5283
10.5252
10.522
10.5188
10.5154
10.5121
10.5087
10.5053
10.5021
10.4989
10.4965
10.4931
10.4916
10.4869
10.4897
10.4809
10.4928
10.476
10.5048
10.4748
10.5355
10.4915
10.5973
10.542
10.6995
10.6392
10.8408
10.7816
11.0172
11.012
11.4141
11.8416
13.2899
16.7023
21.9249
23.0926
22.228
22.973
22.6713
22.7635
21.5681
18.3477
14.2676
9.54288
9.36556
0.607931
0.653719
0.72361
0.815643
0.932792
1.07467
1.24719
1.44009
1.63649
1.87379
2.10385
2.44387
2.78883
3.28794
3.74346
4.23302
4.73956
5.17949
5.41399
5.67425
5.71911
5.85966
5.96808
6.06912
6.12198
6.17005
6.37255
6.59538
6.87572
7.0719
7.28902
7.49893
7.64448
7.73823
7.77311
7.8526
8.04768
8.31903
8.58097
8.79744
8.91348
8.97477
9.03229
9.12073
9.26791
9.41272
9.55069
9.64369
9.68417
9.7427
9.80768
9.90044
9.96419
10.0114
10.0291
10.0279
10.0096
9.98649
9.97282
9.96363
9.97405
9.99457
10.0205
10.0378
10.0532
10.0513
10.0405
10.0125
9.9786
9.93676
9.89613
9.85424
9.81275
9.76951
9.72339
9.67928
9.62808
9.57276
9.50936
9.44696
9.37808
9.31235
9.24758
9.19919
9.15152
9.10895
9.05738
9.01226
8.96899
8.92821
8.87613
8.81867
8.76151
8.70625
8.65235
8.60101
8.54913
8.49723
8.44455
8.39332
8.3414
8.29229
8.24372
8.19808
8.1536
8.11167
8.07147
8.03575
8.00043
7.9688
7.93552
7.90358
7.87023
7.83741
7.80441
7.77351
7.74255
7.71447
7.68667
7.66175
7.63737
7.6155
7.59411
7.57462
7.55503
7.53683
7.51866
7.50186
7.4853
7.47035
7.45554
7.44226
7.42897
7.41711
7.40508
7.39447
7.38369
7.37441
7.36512
7.3573
7.34967
7.34347
7.33759
7.33313
7.32863
7.32526
7.3217
7.31924
7.31656
7.31479
7.31286
7.31159
7.31045
7.30988
7.30974
7.31003
7.31101
7.31209
7.31401
7.31571
7.31854
7.32087
7.32445
7.3272
7.33136
7.33452
7.33923
7.34274
7.34797
7.35187
7.35752
7.36162
7.36753
7.37169
7.37759
7.3814
7.38694
7.3903
7.39576
7.39892
7.40452
7.40761
7.4135
7.41649
7.42284
7.4257
7.43273
7.43516
7.44309
7.44524
7.45422
7.45554
7.4655
7.46585
7.47657
7.47592
7.48753
7.48597
7.49862
7.49616
7.50978
7.50641
7.52096
7.51673
7.53229
7.52741
7.54395
7.5387
7.55589
7.5504
7.56778
7.56227
7.57893
7.57375
7.5891
7.58465
7.59761
7.59386
7.60411
7.60043
7.60867
7.60606
7.61279
7.61097
7.61632
7.61496
7.61928
7.61803
7.62158
7.62041
7.62315
7.62156
7.62334
7.62168
7.62228
7.62066
7.62066
7.61893
7.61831
7.61626
7.61499
7.61258
7.61069
7.60792
7.60557
7.60258
7.59998
7.59672
7.59361
7.58984
7.58624
7.58212
7.57823
7.57402
7.56996
7.56571
7.56131
7.5567
7.55175
7.54677
7.54159
7.53638
7.53105
7.5257
7.52013
7.51454
7.50862
7.5028
7.49671
7.49071
7.48452
7.47839
7.47211
7.4659
7.45962
7.45341
7.44726
7.44122
7.43531
7.42945
7.42364
7.41788
7.41211
7.40636
7.40062
7.39508
7.38952
7.38417
7.3788
7.37362
7.36845
7.3634
7.35836
7.35341
7.34847
7.34362
7.33887
7.33427
7.32983
7.32553
7.32138
7.31731
7.31339
7.3096
7.306
7.30251
7.29921
7.29595
7.29293
7.28994
7.28715
7.28446
7.28202
7.27972
7.27759
7.27564
7.27373
7.27206
7.27051
7.26916
7.26793
7.26684
7.26577
7.26485
7.26386
7.26301
7.26217
7.26151
7.26082
7.26043
7.25998
7.2597
7.2593
7.259
7.25863
7.25843
7.25818
7.25799
7.25782
7.25766
7.25767
7.25765
7.25779
7.25786
7.25804
7.25824
7.25844
7.25863
7.2588
7.25892
7.25897
7.25904
7.25914
7.25921
7.25929
7.25927
7.25923
7.25894
7.25877
7.25832
7.25809
7.25758
7.2572
7.25672
7.25628
7.25577
7.25518
7.25462
7.25403
7.25339
7.25266
7.25183
7.25107
7.25023
7.24938
7.24845
7.24741
7.24643
7.24524
7.244
7.24259
7.24096
7.23916
7.23716
7.23508
7.23295
7.23072
7.22851
7.22618
7.22384
7.22131
7.21883
7.21637
7.21397
7.21155
7.20911
7.20669
7.20426
7.2018
7.19947
7.19716
7.19498
7.19285
7.19078
7.1887
7.18659
7.18453
7.18246
7.18046
7.17856
7.17663
7.17476
7.17285
7.17098
7.16909
7.16725
7.16547
7.16374
7.16213
7.16043
7.15894
7.15745
7.15604
7.15468
7.15338
7.15209
7.15083
7.14966
7.14853
7.14741
7.14638
7.14539
7.1445
7.14351
7.1427
7.1419
7.14108
7.14029
7.13952
7.13877
7.13814
7.13748
7.13695
7.13639
7.13587
7.13534
7.13476
7.13421
7.13371
7.13324
7.1328
7.13238
7.13188
7.13131
7.13067
7.12995
7.12923
7.12847
7.12779
7.12708
7.12637
7.12553
7.12461
7.12359
7.12264
7.12175
7.12084
7.11992
7.11903
7.11819
7.11736
7.11654
7.11571
7.1151
7.11446
7.11417
7.11386
7.11379
7.11373
7.11368
7.11357
7.11349
7.11328
7.11303
7.11265
7.11218
7.11155
7.11087
7.10991
7.10895
7.10777
7.10633
7.10475
7.1031
7.10146
7.0997
7.09793
7.09603
7.09412
7.09203
7.08978
7.08742
7.0849
7.08236
7.07974
7.07716
7.07451
7.07172
7.06892
7.06597
7.06294
7.05979
7.0566
7.05339
7.05012
7.0473
7.04392
7.04146
7.03713
7.03686
7.02991
7.03523
7.02331
7.03909
7.02028
7.05451
7.02883
7.08906
7.05754
7.14882
7.11772
7.23748
7.21497
7.36461
7.38058
7.64396
7.94147
8.91802
11.3883
15.5234
17.0052
16.7989
17.6037
18.3743
19.5695
20.1765
19.3113
15.9986
10.9607
10.1357
0.588494
0.59774
0.61483
0.640022
0.67514
0.720884
0.779601
0.849803
0.928021
1.01656
1.09464
1.20586
1.32568
1.51379
1.71952
1.96149
2.19382
2.37602
2.45848
2.54
2.54502
2.59609
2.64483
2.69637
2.73605
2.76089
2.83571
2.91585
3.04602
3.14602
3.25392
3.35501
3.4137
3.44724
3.4664
3.51632
3.61681
3.75636
3.89249
3.99466
4.04122
4.07792
4.14135
4.24977
4.40643
4.5513
4.67342
4.77902
4.85775
4.97621
5.10539
5.25231
5.35815
5.44546
5.51222
5.56313
5.6024
5.63894
5.68539
5.74601
5.82803
5.91343
6.00099
6.0714
6.13165
6.16919
6.19456
6.20275
6.2054
6.20336
6.20271
6.20417
6.20489
6.19844
6.18318
6.16176
6.1292
6.09415
6.05209
6.01308
5.973
5.94481
5.9203
5.91489
5.90697
5.90184
5.88801
5.8779
5.8652
5.85467
5.83527
5.8119
5.78559
5.76321
5.74001
5.71916
5.69528
5.67252
5.64819
5.62429
5.6005
5.57747
5.55501
5.53421
5.51387
5.49671
5.48013
5.46725
5.45376
5.44226
5.42854
5.41533
5.39994
5.38543
5.37023
5.35539
5.34056
5.32663
5.31299
5.30065
5.28873
5.27839
5.26806
5.2593
5.25035
5.24267
5.23482
5.22799
5.22103
5.21511
5.20911
5.20413
5.19898
5.19473
5.19032
5.18679
5.18319
5.1805
5.17786
5.17616
5.17459
5.17401
5.17357
5.17407
5.17447
5.17577
5.17694
5.17886
5.18064
5.18305
5.18537
5.18811
5.19094
5.19413
5.19762
5.20139
5.20557
5.20985
5.21465
5.21939
5.22483
5.22997
5.23593
5.2414
5.24782
5.25361
5.26043
5.26654
5.27378
5.28021
5.28778
5.29441
5.30217
5.30885
5.31657
5.3231
5.33066
5.33698
5.34448
5.35066
5.35827
5.36445
5.37225
5.37846
5.38659
5.39279
5.40137
5.40738
5.41652
5.42219
5.43207
5.43756
5.44804
5.45302
5.46384
5.46829
5.47956
5.48352
5.49532
5.49874
5.51107
5.51392
5.52672
5.52905
5.54236
5.54428
5.55815
5.55978
5.57398
5.57542
5.58966
5.59104
5.60486
5.60631
5.61929
5.621
5.63257
5.6342
5.64433
5.64646
5.65524
5.65788
5.66559
5.6685
5.67532
5.67833
5.68451
5.68743
5.69295
5.69565
5.70049
5.70283
5.70695
5.70911
5.71258
5.71465
5.71767
5.71952
5.72203
5.72347
5.72539
5.72644
5.72779
5.72849
5.72937
5.72976
5.73029
5.73034
5.73037
5.7299
5.72941
5.72857
5.72777
5.72669
5.72561
5.72433
5.72285
5.72119
5.71923
5.71716
5.71487
5.7125
5.70998
5.70737
5.70456
5.70167
5.69853
5.69534
5.69195
5.68852
5.68495
5.68133
5.67752
5.67373
5.66983
5.6659
5.66196
5.65802
5.65408
5.65018
5.64625
5.64236
5.63848
5.63459
5.63072
5.62689
5.62306
5.6193
5.61554
5.61184
5.60816
5.60452
5.60087
5.59724
5.59363
5.59006
5.58655
5.5831
5.57976
5.57647
5.57329
5.57015
5.56712
5.56414
5.56127
5.55847
5.55579
5.55317
5.5507
5.54828
5.54597
5.54376
5.54167
5.53972
5.53786
5.53614
5.5345
5.53301
5.53163
5.53037
5.52922
5.52818
5.52717
5.52628
5.52535
5.52454
5.52373
5.52306
5.5224
5.52193
5.52143
5.52107
5.52064
5.5203
5.51993
5.51967
5.51939
5.51917
5.51896
5.51879
5.51871
5.51864
5.51868
5.51869
5.51877
5.51887
5.51899
5.5191
5.51922
5.51934
5.51943
5.51954
5.51968
5.51981
5.51994
5.52001
5.5201
5.52005
5.52009
5.51995
5.51996
5.5198
5.51973
5.51959
5.51947
5.51932
5.51914
5.51896
5.51877
5.51854
5.51828
5.51795
5.51765
5.5173
5.51696
5.51658
5.51616
5.51576
5.51525
5.51472
5.51408
5.51331
5.51243
5.51141
5.51033
5.5092
5.508
5.50681
5.50554
5.50426
5.50285
5.50144
5.49994
5.49847
5.49696
5.49546
5.49399
5.49249
5.49098
5.48955
5.48812
5.48676
5.48545
5.48416
5.48285
5.48154
5.48023
5.47894
5.47768
5.47649
5.47531
5.47415
5.47299
5.47183
5.47067
5.46951
5.4684
5.46729
5.46625
5.4652
5.46424
5.46328
5.46238
5.46151
5.46069
5.45987
5.45908
5.45833
5.45763
5.45694
5.45629
5.45566
5.45511
5.45453
5.45404
5.45355
5.45305
5.45254
5.45205
5.45155
5.45113
5.4507
5.45033
5.44997
5.44964
5.44932
5.44899
5.44868
5.44843
5.4482
5.44801
5.44788
5.4477
5.44747
5.4472
5.44689
5.44658
5.44626
5.44598
5.44567
5.44535
5.44492
5.44442
5.4438
5.44318
5.44255
5.44189
5.44121
5.44052
5.43983
5.43911
5.43837
5.43757
5.43686
5.43611
5.43555
5.43497
5.43452
5.43409
5.43369
5.43326
5.43285
5.43236
5.43186
5.43132
5.43074
5.43007
5.42939
5.42853
5.42763
5.42657
5.42534
5.42399
5.42255
5.42109
5.41955
5.41797
5.41627
5.41452
5.41264
5.41064
5.40855
5.40635
5.4041
5.40179
5.39947
5.3971
5.39463
5.39214
5.38956
5.3869
5.38415
5.38133
5.37846
5.37552
5.37281
5.3698
5.36723
5.36369
5.36173
5.35687
5.35802
5.35081
5.35754
5.34696
5.36388
5.34959
5.38131
5.3646
5.41441
5.39855
5.46714
5.45731
5.5512
5.57332
5.74829
5.96058
6.61274
8.2819
11.2732
12.7788
13.0045
13.6782
14.6161
16.1048
17.5496
18.5333
16.9439
12.7217
11.0245
0.585715
0.588096
0.595591
0.606017
0.618669
0.634557
0.65471
0.681453
0.715746
0.754496
0.788983
0.831423
0.879235
0.959015
1.05649
1.17204
1.28131
1.36203
1.39488
1.42054
1.42843
1.46025
1.49863
1.53954
1.57558
1.59894
1.6325
1.67229
1.73793
1.80054
1.86923
1.93738
1.98443
2.01818
2.04848
2.09406
2.1602
2.24136
2.32035
2.38572
2.4264
2.46182
2.50434
2.56144
2.63735
2.71149
2.7761
2.83743
2.88696
2.95162
3.01931
3.09378
3.14876
3.20113
3.24976
3.29513
3.3374
3.3776
3.42088
3.46961
3.52779
3.5876
3.64775
3.70054
3.75012
3.79071
3.82763
3.85779
3.8882
3.91759
3.94976
3.98294
4.01377
4.03983
4.05908
4.0745
4.08212
4.08727
4.08794
4.08959
4.09062
4.09716
4.10452
4.11805
4.12883
4.13983
4.1453
4.15187
4.15613
4.15992
4.15804
4.15374
4.14731
4.14264
4.13708
4.13239
4.12569
4.1192
4.11106
4.10367
4.09549
4.08858
4.08126
4.07551
4.06979
4.06619
4.06304
4.06189
4.06031
4.0595
4.05717
4.05465
4.0503
4.0462
4.04089
4.03617
4.03098
4.02642
4.02171
4.01786
4.0139
4.01118
4.0083
4.0066
4.00463
4.00368
4.00235
4.0019
4.00115
4.00118
4.00098
4.00146
4.00175
4.00266
4.00342
4.00474
4.00597
4.00778
4.00958
4.01198
4.01443
4.01757
4.0207
4.02447
4.02818
4.03247
4.03666
4.04135
4.04595
4.05096
4.0559
4.06111
4.06636
4.07181
4.07744
4.08322
4.08925
4.09533
4.10174
4.1081
4.11489
4.12152
4.12866
4.13554
4.143
4.15015
4.15789
4.16528
4.17335
4.18102
4.18936
4.19723
4.20576
4.21372
4.2223
4.23026
4.23883
4.24676
4.25535
4.26326
4.27196
4.27991
4.28877
4.29677
4.30586
4.31391
4.32326
4.33126
4.34096
4.34876
4.35888
4.36649
4.37698
4.38442
4.39507
4.40222
4.41304
4.41987
4.43088
4.43737
4.44858
4.45471
4.4661
4.47188
4.48346
4.48892
4.50071
4.50593
4.51783
4.52284
4.53469
4.53956
4.55112
4.55583
4.56688
4.57144
4.58172
4.5865
4.59582
4.60078
4.60922
4.61428
4.62199
4.62704
4.63416
4.63912
4.64573
4.65046
4.65654
4.66099
4.66656
4.67067
4.67568
4.67955
4.68413
4.68781
4.69199
4.69536
4.69907
4.70202
4.7052
4.70776
4.71041
4.71258
4.71478
4.7166
4.7184
4.71983
4.72116
4.72209
4.72294
4.72348
4.72396
4.72422
4.72439
4.72436
4.72413
4.72372
4.72306
4.72225
4.72129
4.72019
4.71894
4.71761
4.71609
4.71447
4.71266
4.71077
4.70872
4.70661
4.70438
4.70208
4.69965
4.69718
4.6946
4.69199
4.68934
4.68665
4.68395
4.68124
4.67849
4.67574
4.67295
4.67016
4.66736
4.6646
4.66185
4.65914
4.65644
4.65377
4.6511
4.64845
4.64579
4.64315
4.64051
4.63792
4.63535
4.63283
4.63036
4.62792
4.62555
4.62322
4.62095
4.61871
4.61656
4.61444
4.61241
4.61043
4.60855
4.60672
4.60496
4.60328
4.60167
4.60016
4.59871
4.59738
4.59612
4.59497
4.59387
4.59289
4.59199
4.59117
4.5904
4.58969
4.58897
4.58833
4.58768
4.58714
4.58662
4.58622
4.58582
4.58551
4.58517
4.58491
4.58462
4.58441
4.5842
4.58404
4.58387
4.58376
4.58368
4.58362
4.58361
4.5836
4.58363
4.58367
4.58375
4.58382
4.58391
4.58401
4.58409
4.5842
4.58432
4.58445
4.58457
4.58467
4.58477
4.58482
4.58491
4.58491
4.585
4.58501
4.58507
4.58509
4.58513
4.58515
4.58516
4.58516
4.58516
4.58516
4.58513
4.58508
4.58503
4.58496
4.58491
4.58483
4.58474
4.58467
4.58454
4.58439
4.58419
4.58391
4.58356
4.58313
4.58263
4.5821
4.58152
4.58094
4.5803
4.57965
4.57891
4.57814
4.57733
4.57649
4.57561
4.57472
4.57383
4.57294
4.57207
4.57124
4.57042
4.56965
4.5689
4.56819
4.56746
4.56675
4.56604
4.56534
4.56466
4.56401
4.56337
4.56276
4.56215
4.56152
4.56091
4.56028
4.55967
4.55906
4.55846
4.55786
4.5573
4.55674
4.5562
4.55568
4.5552
4.55471
4.55424
4.55379
4.55338
4.55297
4.55259
4.5522
4.55184
4.55148
4.55115
4.55081
4.55047
4.55012
4.54978
4.54943
4.5491
4.54878
4.54848
4.5482
4.54795
4.54772
4.54751
4.54732
4.54719
4.5471
4.54704
4.54705
4.54702
4.54698
4.54693
4.54684
4.54675
4.54664
4.54654
4.5464
4.54623
4.54596
4.54561
4.54515
4.54464
4.54409
4.54348
4.54282
4.54214
4.54141
4.54063
4.53982
4.53893
4.53805
4.53713
4.53628
4.53542
4.53464
4.53388
4.53314
4.5324
4.53168
4.53091
4.53014
4.52936
4.52857
4.52774
4.52691
4.52596
4.52497
4.52384
4.5226
4.52126
4.51984
4.51838
4.51686
4.51528
4.51362
4.51189
4.51006
4.50816
4.50617
4.50412
4.50203
4.49989
4.49773
4.49554
4.49329
4.49104
4.48872
4.48636
4.48393
4.48145
4.47892
4.47635
4.47387
4.47127
4.46884
4.46596
4.46369
4.4601
4.45933
4.45458
4.45684
4.4507
4.45854
4.45063
4.4669
4.45804
4.48525
4.47751
4.51714
4.51234
4.57181
4.59601
4.71102
4.86277
5.29346
6.37643
8.3782
9.7791
10.2194
10.859
11.761
13.1901
14.8893
16.7757
16.8855
14.0154
11.9468
0.585612
0.587336
0.593575
0.601871
0.609838
0.618732
0.627234
0.638343
0.652037
0.668645
0.684615
0.701868
0.721471
0.757251
0.806339
0.869903
0.937801
0.989431
1.00923
1.03316
1.06644
1.10331
1.1456
1.18969
1.23167
1.28823
1.35856
1.43034
1.49072
1.55048
1.61035
1.6694
1.72381
1.77502
1.82117
1.87314
1.93333
1.99713
2.05775
2.11218
2.15831
2.20088
2.24574
2.29558
2.3511
2.40839
2.46224
2.51221
2.55699
2.60319
2.64925
2.69519
2.73736
2.77839
2.81887
2.85646
2.89096
2.92239
2.95204
2.98156
3.0126
3.0435
3.07506
3.10497
3.13422
3.16115
3.18741
3.21174
3.23598
3.25916
3.28231
3.30501
3.32668
3.34668
3.36422
3.37989
3.39221
3.40284
3.41086
3.4181
3.42399
3.43084
3.43681
3.44368
3.44894
3.45404
3.45685
3.46002
3.46184
3.46294
3.46151
3.45903
3.45526
3.45191
3.4479
3.444
3.43904
3.43402
3.42815
3.42258
3.41659
3.41123
3.40575
3.40116
3.39673
3.39355
3.39074
3.38905
3.38729
3.38607
3.38428
3.38264
3.38035
3.37836
3.37596
3.37412
3.37215
3.37089
3.36965
3.3692
3.36884
3.36934
3.36993
3.37132
3.37269
3.37462
3.3764
3.37871
3.3809
3.38361
3.38624
3.38937
3.39241
3.3959
3.39931
3.40313
3.40688
3.41101
3.41512
3.41963
3.42415
3.42907
3.43401
3.43933
3.44466
3.4503
3.45592
3.46181
3.4677
3.47379
3.47988
3.48611
3.49237
3.49874
3.50521
3.51176
3.51847
3.52522
3.53218
3.5391
3.54634
3.55349
3.56098
3.56838
3.57613
3.58377
3.5918
3.59971
3.60804
3.61623
3.62485
3.63329
3.64213
3.65074
3.65975
3.66848
3.67758
3.68638
3.69558
3.70445
3.71376
3.7227
3.73211
3.74112
3.75066
3.75971
3.76939
3.7784
3.78824
3.79714
3.80715
3.81588
3.82601
3.83453
3.8447
3.85305
3.8632
3.87131
3.88144
3.88928
3.89939
3.90694
3.91701
3.92425
3.93429
3.94123
3.95125
3.95793
3.96789
3.97433
3.98417
3.99033
3.99996
4.00594
4.01522
4.02114
4.02987
4.03577
4.04388
4.04973
4.05726
4.06303
4.07007
4.07569
4.08232
4.08776
4.09396
4.09912
4.1049
4.10977
4.11515
4.11966
4.12457
4.12881
4.13334
4.13728
4.1414
4.14495
4.14859
4.15172
4.15486
4.15755
4.16019
4.16247
4.16466
4.16655
4.16833
4.16981
4.17114
4.17217
4.17306
4.1737
4.17424
4.17457
4.17479
4.17482
4.17469
4.17438
4.17388
4.17325
4.17248
4.1716
4.1706
4.1695
4.16828
4.16697
4.16553
4.16402
4.1624
4.16074
4.15898
4.15718
4.1553
4.15338
4.15138
4.14936
4.14731
4.14523
4.14313
4.14102
4.13889
4.13675
4.13459
4.13244
4.13028
4.12815
4.12602
4.12394
4.12186
4.11983
4.11781
4.11582
4.11384
4.11189
4.10995
4.10805
4.10618
4.10435
4.10256
4.10079
4.09907
4.09738
4.09575
4.09414
4.09259
4.09108
4.08963
4.08822
4.08688
4.08559
4.08434
4.08316
4.08202
4.08095
4.07994
4.07901
4.07812
4.07731
4.07656
4.07587
4.07525
4.0747
4.07417
4.07369
4.07321
4.07276
4.07232
4.07194
4.07158
4.0713
4.07103
4.07083
4.07062
4.07045
4.07028
4.07016
4.07004
4.06996
4.06988
4.06982
4.06979
4.06975
4.06975
4.06974
4.06976
4.06979
4.06984
4.06991
4.06998
4.07006
4.07015
4.07025
4.07037
4.07048
4.07061
4.07072
4.07084
4.07093
4.07105
4.07113
4.07127
4.07136
4.0715
4.07161
4.07174
4.07185
4.07195
4.07207
4.07218
4.07229
4.0724
4.07251
4.07262
4.07273
4.07284
4.07294
4.07305
4.07316
4.07326
4.07334
4.07341
4.07343
4.07341
4.07333