/*--------------------------------*- C++ -*----------------------------------*\
| =========                 |                                                 |
| \\      /  F ield         | foam-extend: Open Source CFD                    |
|  \\    /   O peration     | Version:     3.2                                |
|   \\  /    A nd           | Web:         http://www.foam-extend.org         |
|    \\/     M anipulation  | For copyright notice see file Copyright         |
\*---------------------------------------------------------------------------*/
FoamFile
{
    version     2.0;
    format      ascii;
    class       volScalarField;
    location    "840";
    object      p;
}
// * * * * * * * * * * * * * * * * * * * * * * * * * * * * * * * * * * * * * //

dimensions      [1 -1 -2 0 0 0 0];

internalField   nonuniform List<scalar> 
33000
(
1171.77
1172.84
1173.61
1176.04
1176.91
1179.07
1179.86
1181.42
1182.14
1183.35
1183.36
1187.1
1184.98
1187.63
1184.72
1190.1
1187.4
1190.75
1191.37
1191.78
1185.47
1194.39
1188.21
1192.46
1191.34
1185.56
1184.23
1184.2
1188.49
1185.66
1185.42
1189.56
1190.54
1191.57
1191.36
1190.62
1190.25
1190.13
1190.35
1194.42
1196.08
1195.72
1194.06
1193.31
1193.76
1193.68
1194.16
1194.47
1194.21
1194.79
1193.7
1194.83
1193.43
1192.02
1189.41
1187.58
1185.71
1184.17
1182.88
1181.36
1180.32
1179.29
1178.17
1176.8
1175.81
1174.55
1173.68
1172.63
1171.77
1170.97
1170.37
1169.66
1168.89
1167.88
1166.83
1165.91
1165.08
1164.4
1163.45
1162.84
1162.13
1161.51
1160.73
1160.54
1160.19
1160.08
1159.73
1159.48
1159.19
1159.39
1159.26
1158.65
1157.69
1156.95
1156.09
1155.38
1154.48
1153.68
1152.67
1151.76
1150.7
1149.77
1148.72
1147.79
1146.71
1145.76
1144.7
1143.77
1142.73
1141.82
1140.79
1139.89
1138.85
1137.96
1136.9
1136.01
1134.95
1134.08
1133.04
1132.19
1131.17
1130.35
1129.37
1128.56
1127.59
1126.78
1125.8
1124.99
1124.02
1123.22
1122.26
1121.46
1120.51
1119.73
1118.8
1118.02
1117.11
1116.35
1115.47
1114.72
1113.86
1113.13
1112.3
1111.59
1110.79
1110.1
1109.34
1108.66
1107.95
1107.29
1106.61
1105.98
1105.34
1104.73
1104.13
1103.55
1102.99
1102.43
1101.91
1101.38
1100.9
1100.39
1099.95
1099.46
1099.06
1098.59
1098.23
1097.78
1097.46
1097.03
1096.75
1096.33
1096.09
1095.69
1095.49
1095.1
1094.94
1094.56
1094.44
1094.08
1094
1093.64
1093.6
1093.24
1093.25
1092.86
1092.95
1092.5
1092.69
1092.14
1092.48
1091.79
1092.31
1091.5
1092.19
1091.25
1092.12
1091.05
1092.1
1090.9
1092.15
1090.82
1092.26
1090.81
1092.43
1090.9
1092.69
1091.1
1093.02
1091.43
1093.42
1091.92
1093.9
1092.56
1094.43
1093.33
1094.99
1094.17
1095.58
1095.03
1096.22
1095.9
1096.91
1096.77
1097.64
1097.66
1098.41
1098.54
1099.2
1099.43
1100.02
1100.33
1100.87
1101.24
1101.76
1102.16
1102.66
1103.08
1103.57
1104
1104.48
1104.91
1105.38
1105.82
1106.28
1106.71
1107.17
1107.6
1108.05
1108.48
1108.92
1109.34
1109.77
1110.19
1110.61
1111.02
1111.42
1111.82
1112.21
1112.59
1112.97
1113.34
1113.69
1114.05
1114.39
1114.71
1115.03
1115.34
1115.63
1115.92
1116.19
1116.46
1116.71
1116.95
1117.17
1117.39
1117.6
1117.8
1117.98
1118.16
1118.31
1118.47
1118.61
1118.74
1118.86
1118.98
1119.08
1119.18
1119.27
1119.35
1119.43
1119.5
1119.56
1119.62
1119.67
1119.72
1119.77
1119.82
1119.86
1119.9
1119.93
1119.97
1120.01
1120.04
1120.07
1120.11
1120.14
1120.17
1120.22
1120.25
1120.29
1120.33
1120.38
1120.42
1120.46
1120.52
1120.57
1120.62
1120.68
1120.75
1120.82
1120.89
1120.96
1121.04
1121.12
1121.21
1121.3
1121.4
1121.5
1121.6
1121.7
1121.81
1121.93
1122.05
1122.17
1122.29
1122.43
1122.56
1122.7
1122.85
1123
1123.15
1123.32
1123.48
1123.65
1123.82
1124
1124.17
1124.36
1124.55
1124.74
1124.93
1125.12
1125.32
1125.51
1125.71
1125.91
1126.11
1126.31
1126.51
1126.72
1126.92
1127.14
1127.35
1127.57
1127.79
1128.01
1128.23
1128.46
1128.69
1128.92
1129.15
1129.38
1129.61
1129.85
1130.07
1130.3
1130.52
1130.73
1130.94
1131.14
1131.33
1131.51
1131.68
1131.85
1132
1132.15
1132.28
1132.41
1132.53
1132.64
1132.74
1132.83
1132.92
1133
1133.07
1133.14
1133.21
1133.27
1133.33
1133.38
1133.42
1133.47
1133.52
1133.56
1133.61
1133.65
1133.69
1133.73
1133.77
1133.81
1133.85
1133.88
1133.92
1133.95
1133.98
1134.01
1134.04
1134.08
1134.1
1134.14
1134.17
1134.2
1134.23
1134.27
1134.3
1134.34
1134.38
1134.42
1134.45
1134.49
1134.53
1134.58
1134.62
1134.68
1134.72
1134.77
1134.82
1134.88
1134.93
1135
1135.05
1135.12
1135.18
1135.25
1135.32
1135.39
1135.46
1135.54
1135.62
1135.71
1135.81
1135.91
1136.01
1136.12
1136.23
1136.35
1136.48
1136.61
1136.74
1136.88
1137.02
1137.16
1137.3
1137.46
1137.61
1137.76
1137.92
1138.07
1138.22
1138.38
1138.54
1138.69
1138.85
1139
1139.16
1139.3
1139.46
1139.6
1139.75
1139.89
1140.03
1140.15
1140.28
1140.4
1140.51
1140.62
1140.72
1140.81
1140.9
1140.97
1141.05
1141.12
1141.17
1141.23
1141.26
1141.29
1141.3
1141.3
1141.28
1141.24
1141.19
1141.1
1141
1140.87
1140.73
1140.56
1140.38
1140.18
1139.95
1139.71
1139.45
1139.16
1138.85
1138.5
1138.2
1137.72
1137.51
1136.76
1136.84
1135.51
1136.27
1133.79
1135.9
1131.57
1135.91
1129.39
1136.68
1128.2
1138.86
1129.49
1143.35
1135.19
1151.41
1147.53
1166.9
1173.07
1202.67
1240.57
1313.41
1365.01
1363.41
1367.41
1366.83
1367.92
1369.36
1369.1
1370.23
1369.32
1370.96
1122.81
1123.99
1124.74
1127.2
1128.06
1130.24
1131.03
1132.6
1133.36
1134.62
1135.03
1138.47
1137.6
1140.74
1139.23
1144.13
1142.61
1146.14
1146.49
1147.05
1141.66
1148.26
1142.89
1145.88
1144.18
1138.97
1137.8
1137.76
1141.32
1139.52
1139.67
1142.84
1143.65
1144.52
1144.09
1143.09
1142.61
1142.7
1142.95
1146.36
1147.75
1147.44
1145.88
1145.1
1145.43
1145.27
1145.68
1145.98
1145.63
1146.04
1145.14
1145.9
1144.56
1143.12
1140.6
1138.74
1136.9
1135.36
1134.02
1132.56
1131.5
1130.43
1129.31
1127.97
1126.96
1125.72
1124.83
1123.79
1122.94
1122.13
1121.52
1120.79
1120.01
1119.02
1117.99
1117.08
1116.24
1115.53
1114.62
1113.99
1113.28
1112.66
1111.94
1111.7
1111.36
1111.22
1110.88
1110.64
1110.37
1110.52
1110.33
1109.75
1108.84
1108.09
1107.25
1106.51
1105.62
1104.81
1103.82
1102.9
1101.85
1100.91
1099.87
1098.92
1097.86
1096.91
1095.85
1094.91
1093.89
1092.96
1091.95
1091.03
1090.01
1089.1
1088.06
1087.15
1086.11
1085.22
1084.2
1083.33
1082.33
1081.49
1080.53
1079.71
1078.74
1077.92
1076.95
1076.13
1075.17
1074.36
1073.41
1072.61
1071.67
1070.87
1069.95
1069.17
1068.27
1067.5
1066.62
1065.86
1065.01
1064.27
1063.46
1062.73
1061.95
1061.25
1060.49
1059.81
1059.1
1058.44
1057.77
1057.13
1056.49
1055.88
1055.28
1054.7
1054.14
1053.59
1053.06
1052.53
1052.05
1051.55
1051.1
1050.62
1050.21
1049.75
1049.38
1048.94
1048.61
1048.19
1047.9
1047.49
1047.24
1046.85
1046.64
1046.26
1046.08
1045.72
1045.59
1045.24
1045.14
1044.8
1044.74
1044.4
1044.39
1044.03
1044.08
1043.67
1043.82
1043.32
1043.59
1042.99
1043.41
1042.7
1043.28
1042.46
1043.2
1042.27
1043.17
1042.14
1043.21
1042.07
1043.31
1042.07
1043.48
1042.17
1043.72
1042.38
1044.04
1042.72
1044.45
1043.2
1044.93
1043.83
1045.47
1044.59
1046.05
1045.41
1046.66
1046.25
1047.31
1047.1
1048.02
1047.96
1048.76
1048.83
1049.53
1049.71
1050.33
1050.59
1051.16
1051.49
1052.01
1052.4
1052.9
1053.32
1053.81
1054.23
1054.72
1055.15
1055.63
1056.06
1056.53
1056.97
1057.43
1057.86
1058.32
1058.75
1059.19
1059.63
1060.06
1060.49
1060.92
1061.34
1061.76
1062.16
1062.57
1062.97
1063.36
1063.74
1064.12
1064.49
1064.84
1065.19
1065.53
1065.86
1066.18
1066.49
1066.78
1067.07
1067.34
1067.6
1067.85
1068.09
1068.32
1068.54
1068.74
1068.94
1069.13
1069.3
1069.46
1069.62
1069.76
1069.89
1070.01
1070.13
1070.23
1070.33
1070.42
1070.5
1070.57
1070.64
1070.71
1070.77
1070.82
1070.87
1070.92
1070.96
1071.01
1071.04
1071.08
1071.12
1071.15
1071.19
1071.22
1071.26
1071.29
1071.32
1071.37
1071.4
1071.44
1071.48
1071.52
1071.57
1071.61
1071.67
1071.72
1071.77
1071.83
1071.9
1071.97
1072.04
1072.11
1072.19
1072.28
1072.36
1072.45
1072.55
1072.65
1072.75
1072.85
1072.96
1073.08
1073.2
1073.32
1073.44
1073.58
1073.71
1073.86
1074
1074.15
1074.31
1074.47
1074.63
1074.8
1074.97
1075.15
1075.33
1075.51
1075.7
1075.89
1076.08
1076.27
1076.47
1076.66
1076.86
1077.06
1077.26
1077.46
1077.66
1077.87
1078.07
1078.29
1078.5
1078.72
1078.94
1079.16
1079.38
1079.61
1079.84
1080.07
1080.3
1080.53
1080.76
1081
1081.22
1081.45
1081.67
1081.88
1082.09
1082.28
1082.48
1082.66
1082.83
1083
1083.15
1083.3
1083.43
1083.56
1083.68
1083.79
1083.89
1083.98
1084.07
1084.15
1084.22
1084.29
1084.35
1084.42
1084.47
1084.52
1084.57
1084.62
1084.67
1084.71
1084.76
1084.8
1084.84
1084.88
1084.92
1084.96
1085
1085.03
1085.07
1085.1
1085.13
1085.16
1085.19
1085.23
1085.25
1085.29
1085.32
1085.35
1085.38
1085.42
1085.45
1085.49
1085.53
1085.57
1085.6
1085.64
1085.68
1085.73
1085.77
1085.82
1085.87
1085.92
1085.97
1086.03
1086.08
1086.15
1086.2
1086.27
1086.33
1086.4
1086.47
1086.54
1086.61
1086.69
1086.78
1086.87
1086.96
1087.06
1087.16
1087.27
1087.38
1087.5
1087.63
1087.76
1087.89
1088.03
1088.17
1088.31
1088.45
1088.61
1088.76
1088.91
1089.07
1089.22
1089.37
1089.53
1089.69
1089.84
1090
1090.15
1090.31
1090.46
1090.61
1090.75
1090.9
1091.04
1091.17
1091.3
1091.43
1091.55
1091.66
1091.77
1091.87
1091.96
1092.04
1092.12
1092.2
1092.27
1092.32
1092.37
1092.41
1092.44
1092.45
1092.45
1092.43
1092.39
1092.33
1092.25
1092.14
1092.02
1091.88
1091.71
1091.53
1091.33
1091.1
1090.85
1090.59
1090.3
1090
1089.65
1089.34
1088.87
1088.65
1087.92
1087.96
1086.69
1087.34
1085.05
1086.86
1082.99
1086.73
1081.04
1087.34
1080.11
1089.37
1081.64
1093.82
1087.47
1102.02
1099.95
1117.89
1125.94
1154.92
1192.45
1259.48
1310.92
1314.23
1318.39
1317.95
1319.07
1320.52
1320.28
1321.38
1320.34
1321.87
1073.81
1075.08
1075.85
1078.34
1079.22
1081.39
1082.18
1083.82
1084.64
1086.02
1086.68
1089.99
1089.62
1093.32
1092.98
1097.92
1097.57
1101.27
1101.43
1101.96
1096.9
1102.07
1096.87
1098.96
1096.93
1092.19
1090.91
1090.6
1093.76
1092.53
1092.85
1095.63
1096
1096.66
1096.28
1095.16
1094.39
1094.84
1095.1
1098.01
1099.23
1098.98
1097.59
1096.79
1096.96
1096.74
1097.07
1097.38
1097.01
1097.33
1096.45
1097.01
1095.63
1094.24
1091.81
1089.91
1088.11
1086.53
1085.17
1083.74
1082.65
1081.56
1080.46
1079.12
1078.12
1076.89
1075.98
1074.96
1074.11
1073.3
1072.66
1071.93
1071.14
1070.17
1069.15
1068.24
1067.4
1066.67
1065.8
1065.15
1064.44
1063.81
1063.13
1062.87
1062.52
1062.37
1062.02
1061.81
1061.54
1061.63
1061.42
1060.87
1059.99
1059.24
1058.4
1057.65
1056.77
1055.95
1054.96
1054.04
1053
1052.06
1051.02
1050.07
1049.02
1048.05
1047.01
1046.06
1045.04
1044.11
1043.1
1042.18
1041.16
1040.24
1039.22
1038.3
1037.27
1036.37
1035.36
1034.48
1033.49
1032.64
1031.69
1030.85
1029.9
1029.07
1028.11
1027.28
1026.33
1025.51
1024.57
1023.75
1022.83
1022.02
1021.11
1020.32
1019.43
1018.65
1017.78
1017.02
1016.17
1015.42
1014.61
1013.89
1013.11
1012.4
1011.65
1010.97
1010.26
1009.6
1008.92
1008.29
1007.65
1007.04
1006.44
1005.86
1005.29
1004.74
1004.22
1003.69
1003.21
1002.7
1002.26
1001.78
1001.37
1000.91
1000.54
1000.1
999.765
999.349
999.051
998.651
998.392
998.011
997.788
997.424
997.236
996.888
996.739
996.404
996.292
995.964
995.893
995.566
995.539
995.195
995.229
994.841
994.962
994.49
994.732
994.166
994.546
993.886
994.409
993.652
994.323
993.469
994.29
993.343
994.319
993.28
994.412
993.291
994.574
993.395
994.813
993.608
995.135
993.948
995.538
994.432
996.021
995.055
996.569
995.802
997.158
996.611
997.776
997.442
998.44
998.283
999.152
999.142
999.9
1000.01
1000.68
1000.88
1001.48
1001.76
1002.31
1002.66
1003.17
1003.56
1004.06
1004.47
1004.96
1005.39
1005.87
1006.3
1006.78
1007.21
1007.68
1008.12
1008.58
1009.02
1009.47
1009.91
1010.35
1010.78
1011.22
1011.64
1012.07
1012.49
1012.91
1013.32
1013.72
1014.12
1014.51
1014.9
1015.27
1015.64
1016
1016.35
1016.69
1017.01
1017.33
1017.64
1017.93
1018.22
1018.49
1018.76
1019.01
1019.25
1019.47
1019.69
1019.9
1020.1
1020.28
1020.46
1020.62
1020.77
1020.91
1021.04
1021.16
1021.28
1021.38
1021.48
1021.57
1021.65
1021.73
1021.8
1021.86
1021.92
1021.98
1022.03
1022.07
1022.12
1022.16
1022.2
1022.24
1022.27
1022.31
1022.34
1022.38
1022.41
1022.45
1022.48
1022.52
1022.55
1022.6
1022.64
1022.68
1022.72
1022.77
1022.82
1022.87
1022.93
1022.99
1023.06
1023.13
1023.2
1023.27
1023.35
1023.43
1023.52
1023.61
1023.71
1023.8
1023.91
1024.01
1024.12
1024.24
1024.35
1024.47
1024.6
1024.73
1024.87
1025.01
1025.16
1025.31
1025.46
1025.63
1025.79
1025.96
1026.13
1026.31
1026.48
1026.67
1026.85
1027.04
1027.23
1027.43
1027.62
1027.82
1028.01
1028.21
1028.41
1028.61
1028.82
1029.03
1029.23
1029.44
1029.65
1029.87
1030.09
1030.32
1030.54
1030.77
1031
1031.23
1031.46
1031.69
1031.92
1032.15
1032.38
1032.6
1032.82
1033.03
1033.24
1033.44
1033.63
1033.81
1033.99
1034.15
1034.31
1034.45
1034.59
1034.72
1034.84
1034.94
1035.04
1035.14
1035.22
1035.3
1035.38
1035.45
1035.51
1035.57
1035.63
1035.68
1035.73
1035.78
1035.83
1035.87
1035.92
1035.96
1036
1036.04
1036.08
1036.12
1036.16
1036.19
1036.22
1036.25
1036.29
1036.32
1036.35
1036.38
1036.41
1036.45
1036.48
1036.51
1036.54
1036.58
1036.61
1036.65
1036.68
1036.73
1036.76
1036.8
1036.84
1036.89
1036.93
1036.98
1037.03
1037.08
1037.13
1037.19
1037.24
1037.3
1037.36
1037.43
1037.49
1037.56
1037.63
1037.7
1037.77
1037.85
1037.93
1038.02
1038.12
1038.22
1038.32
1038.43
1038.54
1038.66
1038.79
1038.92
1039.05
1039.19
1039.33
1039.47
1039.61
1039.77
1039.92
1040.07
1040.23
1040.38
1040.53
1040.69
1040.85
1041
1041.16
1041.31
1041.47
1041.61
1041.77
1041.91
1042.06
1042.2
1042.33
1042.46
1042.59
1042.7
1042.82
1042.92
1043.02
1043.11
1043.2
1043.28
1043.36
1043.42
1043.48
1043.53
1043.57
1043.59
1043.6
1043.6
1043.58
1043.55
1043.49
1043.4
1043.3
1043.17
1043.03
1042.86
1042.68
1042.48
1042.26
1042.01
1041.75
1041.46
1041.15
1040.8
1040.49
1040.03
1039.8
1039.08
1039.1
1037.87
1038.45
1036.27
1037.94
1034.3
1037.74
1032.47
1038.29
1031.71
1040.28
1033.4
1044.73
1039.37
1053.1
1052.03
1069.39
1078.37
1107.07
1143.71
1204.87
1255.94
1264.19
1268.99
1268.96
1270.04
1271.64
1271.33
1272.51
1271.37
1273.06
1024.72
1026.16
1026.92
1029.49
1030.38
1032.58
1033.39
1035.13
1036.11
1037.65
1038.4
1041.24
1041.28
1045.07
1045.96
1051.24
1052.16
1056.1
1056.12
1056.38
1051.58
1054.89
1050.1
1051.32
1049.2
1045.04
1043.6
1043.01
1045.29
1044.5
1044.97
1047.3
1047.63
1047.98
1047.49
1046.47
1045.82
1046.38
1046.83
1049.41
1050.5
1050.31
1049.12
1048.33
1048.39
1048.18
1048.44
1048.72
1048.35
1048.57
1047.73
1048.07
1046.7
1045.29
1042.98
1041.1
1039.31
1037.73
1036.35
1034.94
1033.83
1032.7
1031.6
1030.29
1029.28
1028.06
1027.15
1026.13
1025.29
1024.47
1023.81
1023.07
1022.27
1021.31
1020.31
1019.42
1018.56
1017.82
1016.97
1016.32
1015.6
1014.98
1014.34
1014.05
1013.69
1013.52
1013.19
1012.98
1012.72
1012.76
1012.5
1011.97
1011.13
1010.38
1009.55
1008.79
1007.91
1007.08
1006.11
1005.18
1004.16
1003.21
1002.18
1001.22
1000.18
999.205
998.171
997.215
996.199
995.269
994.257
993.337
992.323
991.396
990.377
989.449
988.433
987.521
986.525
985.634
984.658
983.797
982.851
982.006
981.066
980.221
979.278
978.436
977.497
976.663
975.734
974.911
973.994
973.181
972.279
971.477
970.595
969.807
968.948
968.176
967.342
966.587
965.782
965.049
964.274
963.562
962.821
962.133
961.427
960.762
960.092
959.454
958.818
958.208
957.608
957.028
956.463
955.912
955.386
954.86
954.374
953.874
953.424
952.945
952.535
952.078
951.706
951.271
950.934
950.521
950.219
949.825
949.559
949.185
948.954
948.599
948.4
948.065
947.902
947.581
947.454
947.143
947.054
946.745
946.697
946.376
946.384
946.025
946.11
945.683
945.873
945.369
945.68
945.097
945.535
944.872
945.44
944.698
945.4
944.581
945.421
944.529
945.505
944.549
945.661
944.661
945.894
944.881
946.213
945.224
946.616
945.705
947.102
946.321
947.658
947.052
948.259
947.845
948.892
948.66
949.567
949.49
950.289
950.339
951.044
951.199
951.826
952.066
952.63
952.942
953.465
953.831
954.331
954.731
955.225
955.643
956.13
956.559
957.039
957.472
957.948
958.383
958.85
959.289
959.748
960.184
960.637
961.073
961.517
961.948
962.386
962.811
963.241
963.658
964.076
964.484
964.89
965.286
965.675
966.06
966.435
966.804
967.161
967.512
967.85
968.178
968.495
968.803
969.097
969.384
969.656
969.921
970.171
970.411
970.636
970.856
971.062
971.26
971.445
971.618
971.779
971.932
972.074
972.206
972.328
972.443
972.547
972.646
972.734
972.818
972.894
972.965
973.028
973.088
973.143
973.194
973.241
973.285
973.327
973.367
973.405
973.44
973.477
973.51
973.547
973.579
973.617
973.648
973.69
973.723
973.766
973.804
973.849
973.892
973.94
973.991
974.042
974.098
974.158
974.225
974.295
974.367
974.441
974.521
974.603
974.691
974.781
974.877
974.974
975.076
975.18
975.291
975.405
975.524
975.645
975.773
975.905
976.042
976.184
976.33
976.48
976.634
976.797
976.957
977.128
977.299
977.476
977.653
977.839
978.024
978.214
978.404
978.598
978.792
978.988
979.185
979.384
979.583
979.784
979.987
980.195
980.401
980.614
980.825
981.044
981.263
981.485
981.709
981.939
982.168
982.398
982.628
982.859
983.09
983.322
983.547
983.771
983.991
984.203
984.411
984.608
984.801
984.982
985.153
985.319
985.473
985.62
985.756
985.884
986.002
986.11
986.21
986.304
986.392
986.472
986.546
986.617
986.68
986.742
986.799
986.851
986.901
986.95
986.998
987.042
987.086
987.131
987.171
987.212
987.253
987.289
987.326
987.36
987.394
987.426
987.457
987.49
987.52
987.555
987.582
987.618
987.647
987.681
987.714
987.751
987.783
987.819
987.856
987.897
987.932
987.974
988.014
988.062
988.102
988.154
988.2
988.251
988.302
988.357
988.413
988.475
988.53
988.598
988.659
988.731
988.799
988.869
988.944
989.027
989.109
989.199
989.294
989.391
989.493
989.602
989.715
989.836
989.961
990.091
990.225
990.363
990.502
990.644
990.787
990.939
991.091
991.245
991.4
991.552
991.706
991.863
992.02
992.174
992.328
992.485
992.638
992.787
992.941
993.084
993.228
993.368
993.504
993.63
993.759
993.875
993.988
994.095
994.196
994.286
994.373
994.453
994.527
994.594
994.648
994.7
994.738
994.763
994.773
994.772
994.753
994.713
994.655
994.571
994.467
994.339
994.2
994.032
993.85
993.648
993.423
993.175
992.914
992.624
992.321
991.972
991.66
991.199
990.958
990.26
990.242
989.08
989.557
987.548
988.973
985.721
988.691
984.093
989.158
983.563
991.106
985.493
995.601
991.656
1004.22
1004.62
1021.1
1031.57
1059.84
1095.92
1151.69
1200.68
1213.24
1219.07
1219.66
1220.88
1222.6
1222.37
1223.61
1222.44
1224.09
975.567
977.188
977.963
980.63
981.541
983.757
984.583
986.468
987.731
989.517
990.194
992.274
992.123
995.924
998.032
1004.15
1006.45
1010.47
1010.23
1010.02
1005.25
1007.28
1002.7
1003.29
1001.17
997.355
995.521
994.369
995.852
995.246
995.869
997.883
998.202
998.37
997.929
997.044
996.552
997.408
998.145
1000.54
1001.62
1001.55
1000.56
999.783
999.749
999.542
999.763
1000.02
999.675
999.799
998.975
999.115
997.764
996.376
994.167
992.302
990.525
988.921
987.531
986.124
984.987
983.834
982.757
981.451
980.447
979.236
978.324
977.313
976.469
975.642
974.961
974.207
973.398
972.464
971.48
970.598
969.726
968.995
968.148
967.495
966.773
966.171
965.538
965.236
964.859
964.687
964.344
964.156
963.887
963.876
963.592
963.083
962.268
961.535
960.694
959.944
959.059
958.234
957.259
956.344
955.315
954.369
953.336
952.379
951.337
950.37
949.335
948.381
947.366
946.433
945.423
944.502
943.486
942.562
941.543
940.615
939.605
938.687
937.698
936.8
935.833
934.965
934.023
933.173
932.236
931.387
930.45
929.603
928.671
927.83
926.91
926.078
925.171
924.35
923.456
922.647
921.773
920.978
920.126
919.347
918.52
917.76
916.961
916.223
915.454
914.738
914.001
913.311
912.606
911.941
911.271
910.633
909.998
909.388
908.789
908.209
907.645
907.093
906.568
906.042
905.556
905.056
904.606
904.128
903.717
903.261
902.888
902.455
902.115
901.706
901.4
901.011
900.74
900.372
900.134
899.787
899.579
899.254
899.079
898.771
898.631
898.334
898.23
897.937
897.872
897.569
897.556
897.221
897.278
896.885
897.037
896.577
896.838
896.312
896.688
896.094
896.587
895.927
896.541
895.817
896.557
895.771
896.636
895.799
896.786
895.917
897.017
896.142
897.332
896.487
897.735
896.967
898.224
897.576
898.785
898.296
899.395
899.077
900.039
899.882
900.723
900.704
901.451
901.546
902.212
902.4
902.997
903.263
903.806
904.134
904.645
905.02
905.514
905.917
906.407
906.827
907.313
907.741
908.222
908.655
909.13
909.565
910.032
910.471
910.93
911.366
911.819
912.254
912.699
913.129
913.567
913.992
914.421
914.838
915.256
915.664
916.069
916.466
916.855
917.24
917.615
917.983
918.34
918.691
919.029
919.357
919.673
919.982
920.276
920.563
920.835
921.1
921.349
921.589
921.815
922.034
922.24
922.438
922.623
922.796
922.957
923.111
923.253
923.385
923.506
923.623
923.726
923.826
923.914
923.999
924.074
924.146
924.21
924.27
924.325
924.376
924.423
924.467
924.509
924.549
924.588
924.624
924.66
924.694
924.73
924.763
924.8
924.832
924.873
924.907
924.95
924.989
925.033
925.077
925.125
925.175
925.227
925.284
925.344
925.41
925.48
925.552
925.627
925.707
925.788
925.877
925.967
926.063
926.16
926.263
926.367
926.478
926.592
926.71
926.832
926.96
927.092
927.229
927.371
927.517
927.668
927.821
927.984
928.145
928.316
928.486
928.663
928.84
929.026
929.211
929.401
929.591
929.785
929.978
930.175
930.371
930.571
930.77
930.972
931.174
931.383
931.589
931.802
932.013
932.231
932.45
932.673
932.897
933.126
933.355
933.585
933.815
934.046
934.276
934.507
934.733
934.956
935.176
935.388
935.596
935.793
935.986
936.166
936.338
936.503
936.658
936.804
936.94
937.068
937.186
937.295
937.395
937.49
937.577
937.658
937.732
937.803
937.867
937.928
937.985
938.038
938.088
938.138
938.186
938.231
938.275
938.319
938.36
938.401
938.441
938.478
938.516
938.549
938.583
938.616
938.647
938.68
938.71
938.745
938.772
938.808
938.838
938.872
938.905
938.941
938.973
939.01
939.046
939.087
939.123
939.165
939.205
939.252
939.293
939.344
939.391
939.442
939.493
939.548
939.604
939.666
939.722
939.789
939.851
939.922
939.991
940.062
940.137
940.219
940.302
940.392
940.487
940.585
940.687
940.795
940.909
941.029
941.154
941.284
941.418
941.556
941.695
941.837
941.98
942.131
942.284
942.438
942.592
942.745
942.899
943.056
943.212
943.367
943.521
943.677
943.831
943.98
944.133
944.277
944.421
944.559
944.695
944.822
944.95
945.067
945.18
945.287
945.388
945.478
945.565
945.644
945.718
945.785
945.84
945.89
945.928
945.953
945.963
945.961
945.941
945.901
945.843
945.759
945.655
945.527
945.387
945.221
945.039
944.836
944.612
944.364
944.102
943.813
943.51
943.162
942.847
942.393
942.141
941.462
941.412
940.305
940.702
938.831
940.079
937.116
939.753
935.65
940.189
935.316
942.146
937.454
946.726
943.832
955.626
957.13
973.109
984.603
1012.41
1047.43
1098.55
1145.5
1161.46
1168.6
1170.08
1171.41
1173.36
1173.17
1174.66
1173.53
1175.39
926.322
928.19
928.959
931.763
932.696
934.942
935.786
937.845
939.467
941.626
942.306
943.434
942.614
945.83
948.852
955.934
960.109
965.032
964.658
963.237
957.804
958.352
954.45
955.225
953.517
949.74
946.825
944.451
944.788
944.354
945.376
947.46
947.938
947.84
947.223
946.54
946.5
947.788
949.024
951.477
952.636
952.665
951.86
951.179
951.062
950.888
951.093
951.294
950.98
951.014
950.271
950.15
948.843
947.435
945.332
943.501
941.728
940.14
938.712
937.326
936.159
934.993
933.891
932.635
931.607
930.43
929.504
928.501
927.652
926.827
926.121
925.353
924.539
923.617
922.654
921.779
920.905
920.169
919.335
918.675
917.955
917.367
916.748
916.432
916.047
915.86
915.519
915.333
915.06
915.003
914.693
914.19
913.41
912.681
911.852
911.093
910.216
909.382
908.42
907.499
906.483
905.532
904.506
903.545
902.509
901.542
900.51
899.557
898.541
897.609
896.597
895.676
894.662
893.738
892.72
891.794
890.782
889.869
888.877
887.982
887.015
886.147
885.205
884.353
883.417
882.567
881.632
880.784
879.856
879.01
878.098
877.259
876.36
875.532
874.647
873.83
872.965
872.164
871.319
870.535
869.714
868.948
868.155
867.413
866.649
865.93
865.196
864.504
863.802
863.136
862.468
861.83
861.195
860.586
859.986
859.407
858.843
858.292
857.767
857.242
856.755
856.256
855.805
855.33
854.916
854.464
854.086
853.659
853.314
852.911
852.598
852.217
851.938
851.58
851.332
850.996
850.778
850.463
850.277
849.981
849.828
849.544
849.425
849.148
849.066
848.782
848.747
848.437
848.465
848.107
848.219
847.806
848.016
847.549
847.86
847.337
847.754
847.177
847.702
847.074
847.712
847.036
847.786
847.071
847.932
847.196
848.159
847.426
848.473
847.774
848.876
848.251
849.368
848.854
849.934
849.561
850.551
850.329
851.206
851.124
851.899
851.937
852.633
852.771
853.398
853.621
854.188
854.479
855.003
855.345
855.846
856.227
856.716
857.123
857.609
858.031
858.515
858.945
859.424
859.858
860.332
860.768
861.234
861.672
862.13
862.567
863.019
863.455
863.899
864.329
864.767
865.192
865.62
866.038
866.455
866.863
867.268
867.665
868.054
868.439
868.813
869.181
869.538
869.888
870.226
870.554
870.871
871.18
871.473
871.76
872.032
872.297
872.546
872.786
873.012
873.231
873.437
873.635
873.82
873.994
874.155
874.309
874.45
874.583
874.704
874.82
874.925
875.024
875.113
875.198
875.274
875.346
875.41
875.471
875.526
875.577
875.624
875.669
875.712
875.751
875.79
875.827
875.864
875.898
875.934
875.967
876.004
876.037
876.078
876.113
876.155
876.194
876.238
876.282
876.33
876.381
876.433
876.491
876.551
876.617
876.687
876.759
876.833
876.914
876.996
877.085
877.175
877.271
877.368
877.47
877.575
877.686
877.801
877.919
878.042
878.169
878.302
878.438
878.581
878.726
878.877
879.03
879.193
879.354
879.525
879.695
879.872
880.05
880.234
880.42
880.61
880.799
880.993
881.187
881.384
881.58
881.78
881.979
882.181
882.384
882.592
882.798
883.011
883.223
883.441
883.66
883.883
884.107
884.335
884.564
884.794
885.023
885.255
885.484
885.715
885.941
886.164
886.383
886.595
886.803
887
887.192
887.373
887.545
887.71
887.865
888.011
888.147
888.275
888.393
888.502
888.603
888.697
888.784
888.866
888.94
889.012
889.076
889.138
889.195
889.248
889.299
889.349
889.397
889.442
889.487
889.531
889.572
889.613
889.653
889.691
889.728
889.763
889.797
889.829
889.861
889.893
889.924
889.958
889.986
890.022
890.052
890.086
890.119
890.155
890.188
890.225
890.26
890.301
890.337
890.379
890.42
890.466
890.508
890.559
890.606
890.657
890.708
890.764
890.82
890.881
890.939
891.005
891.068
891.139
891.207
891.28
891.354
891.437
891.52
891.61
891.705
891.803
891.905
892.014
892.127
892.248
892.373
892.503
892.636
892.774
892.913
893.056
893.199
893.35
893.502
893.656
893.81
893.964
894.118
894.274
894.43
894.585
894.74
894.895
895.049
895.199
895.351
895.495
895.638
895.776
895.913
896.039
896.167
896.284
896.397
896.504
896.604
896.695
896.782
896.862
896.935
897.002
897.057
897.107
897.144
897.168
897.178
897.175
897.155
897.115
897.056
896.971
896.869
896.741
896.601
896.435
896.253
896.049
895.826
895.579
895.317
895.028
894.725
894.378
894.061
893.614
893.35
892.694
892.609
891.565
891.872
890.156
891.211
888.566
890.849
887.279
891.272
887.166
893.263
889.542
897.972
896.173
907.208
909.873
925.345
937.961
965.222
999.353
1046.33
1090.76
1109.2
1117.74
1120.16
1121.7
1123.87
1123.85
1125.56
1124.69
1126.71
876.986
879.189
879.969
882.93
883.886
886.159
886.99
889.222
891.261
893.849
894.546
894.675
892.735
894.7
898.103
906.485
913.337
920.034
919.838
916.509
909.191
907.803
904.68
906.621
906.053
902.29
897.938
893.902
892.87
892.432
893.852
896.04
896.631
896.33
895.728
895.346
895.848
897.738
899.595
902.219
903.539
903.721
903.083
902.47
902.329
902.194
902.389
902.557
902.288
902.247
901.507
901.222
899.922
898.518
896.514
894.713
892.956
891.36
889.909
888.514
887.323
886.144
885.04
883.809
882.776
881.623
880.69
879.693
878.845
878.006
877.284
876.504
875.687
874.781
873.833
872.965
872.093
871.354
870.525
869.866
869.146
868.572
867.959
867.636
867.236
867.039
866.697
866.509
866.242
866.138
865.803
865.308
864.561
863.836
863.018
862.25
861.381
860.54
859.587
858.666
857.658
856.706
855.684
854.723
853.689
852.723
851.694
850.742
849.729
848.794
847.784
846.861
845.849
844.924
843.911
842.982
841.977
841.059
840.074
839.174
838.214
837.339
836.403
835.544
834.615
833.758
832.832
831.976
831.059
830.204
829.302
828.456
827.565
826.73
825.854
825.031
824.174
823.365
822.529
821.738
820.925
820.153
819.367
818.62
817.862
817.139
816.411
815.714
815.017
814.349
813.684
813.045
812.412
811.802
811.204
810.624
810.061
809.512
808.985
808.464
807.974
807.478
807.024
806.553
806.135
805.689
805.305
804.885
804.533
804.138
803.818
803.446
803.158
802.809
802.552
802.226
801.998
801.693
801.497
801.212
801.047
800.776
800.644
800.38
800.283
800.016
799.963
799.674
799.678
799.349
799.428
799.055
799.221
798.803
799.061
798.598
798.951
798.443
798.894
798.347
798.9
798.315
798.971
798.357
799.113
798.488
799.338
798.721
799.651
799.071
800.055
799.547
800.548
800.144
801.118
800.841
801.742
801.597
802.404
802.383
803.105
803.19
803.844
804.018
804.612
804.863
805.407
805.717
806.227
806.579
807.072
807.459
807.943
808.352
808.836
809.259
809.741
810.172
810.65
811.085
811.558
811.994
812.459
812.897
813.355
813.792
814.243
814.679
815.123
815.553
815.991
816.415
816.843
817.261
817.678
818.086
818.491
818.888
819.276
819.661
820.035
820.403
820.759
821.109
821.446
821.775
822.091
822.4
822.694
822.981
823.252
823.517
823.766
824.006
824.233
824.451
824.658
824.855
825.04
825.214
825.376
825.53
825.672
825.805
825.926
826.042
826.147
826.247
826.337
826.422
826.498
826.57
826.635
826.696
826.751
826.802
826.85
826.896
826.939
826.979
827.018
827.055
827.092
827.127
827.163
827.197
827.233
827.267
827.307
827.344
827.386
827.425
827.469
827.513
827.561
827.612
827.665
827.723
827.784
827.85
827.919
827.992
828.066
828.147
828.229
828.318
828.408
828.505
828.601
828.704
828.809
828.921
829.036
829.154
829.277
829.405
829.537
829.674
829.816
829.961
830.113
830.266
830.429
830.59
830.76
830.931
831.108
831.285
831.47
831.655
831.845
832.035
832.229
832.423
832.619
832.816
833.016
833.215
833.417
833.62
833.828
834.035
834.248
834.46
834.678
834.897
835.119
835.343
835.572
835.8
836.03
836.259
836.491
836.72
836.95
837.176
837.399
837.618
837.83
838.037
838.234
838.426
838.607
838.779
838.944
839.098
839.244
839.381
839.509
839.628
839.737
839.838
839.933
840.02
840.102
840.177
840.249
840.313