/*--------------------------------*- C++ -*----------------------------------*\
| =========                 |                                                 |
| \\      /  F ield         | foam-extend: Open Source CFD                    |
|  \\    /   O peration     | Version:     3.2                                |
|   \\  /    A nd           | Web:         http://www.foam-extend.org         |
|    \\/     M anipulation  | For copyright notice see file Copyright         |
\*---------------------------------------------------------------------------*/
FoamFile
{
    version     2.0;
    format      ascii;
    class       volScalarField;
    location    "840";
    object      pd;
}
// * * * * * * * * * * * * * * * * * * * * * * * * * * * * * * * * * * * * * //

dimensions      [1 -1 -2 0 0 0 0];

internalField   nonuniform List<scalar> 
33000
(
1196.02
1196.73
1197.15
1199.22
1199.74
1201.54
1201.98
1203.18
1203.54
1204.35
1203.66
1207.11
1204.34
1206.17
1202.47
1207.3
1204.5
1207.05
1207.27
1208.18
1200.72
1209.68
1204.64
1208.21
1208.48
1205.05
1204.62
1204.07
1208.29
1205.59
1204.08
1207.39
1207.33
1206.5
1206.22
1206.94
1206.89
1205.78
1204.64
1207.13
1207.49
1207.26
1206.83
1206.54
1207.03
1206.94
1206.62
1206.37
1206.37
1207.42
1206.36
1207.53
1206.94
1207.06
1206.34
1206.27
1206.03
1205.91
1205.94
1205.7
1205.72
1205.65
1205.61
1205.33
1205.36
1205.08
1205.11
1204.94
1204.9
1204.79
1204.81
1204.74
1204.71
1204.58
1204.42
1204.33
1204.2
1204.23
1204.01
1204.02
1203.9
1203.91
1203.63
1203.76
1203.64
1203.7
1203.59
1203.6
1203.43
1203.59
1203.61
1203.55
1203.32
1203.3
1203.14
1203.13
1202.97
1202.96
1202.78
1202.75
1202.57
1202.53
1202.36
1202.32
1202.15
1202.1
1201.93
1201.88
1201.72
1201.67
1201.51
1201.47
1201.29
1201.26
1201.07
1201.04
1200.85
1200.83
1200.63
1200.61
1200.41
1200.39
1200.21
1200.19
1200
1199.98
1199.78
1199.76
1199.57
1199.54
1199.35
1199.32
1199.14
1199.11
1198.92
1198.89
1198.71
1198.67
1198.5
1198.45
1198.29
1198.24
1198.08
1198.03
1197.88
1197.82
1197.68
1197.62
1197.49
1197.42
1197.31
1197.23
1197.13
1197.05
1196.95
1196.87
1196.78
1196.7
1196.62
1196.53
1196.46
1196.36
1196.31
1196.2
1196.16
1196.04
1196.02
1195.89
1195.87
1195.74
1195.73
1195.58
1195.59
1195.43
1195.46
1195.28
1195.32
1195.14
1195.2
1195
1195.07
1194.85
1194.95
1194.71
1194.85
1194.56
1194.76
1194.4
1194.69
1194.21
1194.64
1194.01
1194.6
1193.82
1194.56
1193.64
1194.53
1193.45
1194.51
1193.28
1194.5
1193.1
1194.49
1192.94
1194.48
1192.81
1194.46
1192.7
1194.42
1192.62
1194.36
1192.6
1194.27
1192.63
1194.15
1192.72
1194
1192.83
1193.84
1192.93
1193.7
1193
1193.59
1193.06
1193.5
1193.1
1193.42
1193.13
1193.36
1193.15
1193.3
1193.16
1193.26
1193.17
1193.23
1193.17
1193.2
1193.16
1193.18
1193.14
1193.16
1193.13
1193.14
1193.12
1193.12
1193.1
1193.11
1193.09
1193.09
1193.07
1193.07
1193.06
1193.06
1193.04
1193.04
1193.03
1193.02
1193.01
1193
1192.99
1192.98
1192.97
1192.95
1192.94
1192.93
1192.91
1192.89
1192.88
1192.86
1192.85
1192.82
1192.81
1192.79
1192.76
1192.74
1192.72
1192.69
1192.67
1192.64
1192.62
1192.59
1192.56
1192.54
1192.51
1192.48
1192.45
1192.42
1192.4
1192.36
1192.34
1192.3
1192.27
1192.24
1192.21
1192.18
1192.15
1192.12
1192.08
1192.05
1192.02
1191.98
1191.95
1191.91
1191.88
1191.84
1191.8
1191.77
1191.73
1191.7
1191.66
1191.63
1191.59
1191.56
1191.52
1191.49
1191.46
1191.42
1191.39
1191.35
1191.32
1191.29
1191.26
1191.23
1191.2
1191.17
1191.14
1191.11
1191.08
1191.05
1191.02
1190.99
1190.97
1190.94
1190.91
1190.88
1190.85
1190.82
1190.79
1190.76
1190.73
1190.7
1190.67
1190.65
1190.62
1190.59
1190.57
1190.54
1190.51
1190.49
1190.46
1190.44
1190.41
1190.39
1190.36
1190.34
1190.31
1190.29
1190.27
1190.25
1190.22
1190.2
1190.17
1190.16
1190.13
1190.11
1190.09
1190.07
1190.05
1190.03
1190.01
1189.99
1189.97
1189.96
1189.94
1189.92
1189.9
1189.89
1189.87
1189.85
1189.84
1189.81
1189.8
1189.77
1189.75
1189.73
1189.7
1189.68
1189.65
1189.63
1189.6
1189.57
1189.55
1189.52
1189.49
1189.46
1189.43
1189.4
1189.37
1189.34
1189.32
1189.29
1189.26
1189.23
1189.2
1189.17
1189.13
1189.11
1189.07
1189.04
1189.01
1188.98
1188.94
1188.91
1188.87
1188.83
1188.79
1188.75
1188.71
1188.67
1188.62
1188.58
1188.53
1188.49
1188.44
1188.4
1188.35
1188.3
1188.26
1188.21
1188.17
1188.12
1188.07
1188.03
1187.98
1187.95
1187.9
1187.86
1187.82
1187.78
1187.74
1187.71
1187.66
1187.63
1187.59
1187.56
1187.52
1187.49
1187.45
1187.42
1187.39
1187.36
1187.33
1187.3
1187.27
1187.24
1187.21
1187.18
1187.16
1187.13
1187.11
1187.09
1187.06
1187.04
1187.01
1187
1186.97
1186.95
1186.93
1186.91
1186.89
1186.87
1186.85
1186.83
1186.81
1186.79
1186.76
1186.74
1186.72
1186.69
1186.67
1186.65
1186.62
1186.59
1186.57
1186.54
1186.52
1186.49
1186.47
1186.44
1186.41
1186.38
1186.35
1186.32
1186.28
1186.25
1186.22
1186.19
1186.15
1186.11
1186.07
1186.03
1185.99
1185.94
1185.89
1185.84
1185.8
1185.74
1185.69
1185.64
1185.58
1185.52
1185.47
1185.41
1185.36
1185.28
1185.27
1185.1
1185.24
1184.83
1185.33
1184.36
1185.67
1183.55
1186.33
1182.3
1187.26
1180.77
1188.28
1179.19
1189.13
1178.02
1189.47
1177.82
1189.13
1178.57
1188.39
1180.46
1188.19
1189.01
1192.74
1199.76
1195.43
1199.1
1198.16
1198.89
1199.97
1199.35
1200.13
1198.87
1200.15
1195.91
1196.74
1197.13
1199.23
1199.74
1201.56
1201.99
1203.2
1203.57
1204.33
1203.94
1206.62
1204.47
1206.08
1203.09
1206.91
1204.69
1207.06
1206.92
1207.88
1201.85
1208.97
1204.9
1207.92
1208.02
1205.27
1205.03
1204.46
1207.68
1205.67
1204.68
1207.13
1207.1
1206.58
1206.3
1206.75
1206.73
1206.02
1205.03
1207
1207.3
1207.19
1206.8
1206.58
1207.04
1206.89
1206.64
1206.48
1206.38
1207.26
1206.48
1207.39
1206.9
1206.99
1206.36
1206.27
1206.05
1205.93
1205.93
1205.73
1205.74
1205.65
1205.61
1205.35
1205.36
1205.1
1205.11
1204.95
1204.91
1204.8
1204.81
1204.74
1204.7
1204.57
1204.43
1204.34
1204.22
1204.21
1204.02
1204.02
1203.91
1203.9
1203.67
1203.76
1203.65
1203.7
1203.59
1203.6
1203.46
1203.59
1203.56
1203.52
1203.32
1203.29
1203.14
1203.12
1202.97
1202.95
1202.78
1202.74
1202.57
1202.52
1202.36
1202.32
1202.15
1202.1
1201.94
1201.88
1201.73
1201.67
1201.51
1201.46
1201.3
1201.25
1201.08
1201.04
1200.86
1200.82
1200.64
1200.6
1200.42
1200.39
1200.21
1200.18
1200
1199.97
1199.79
1199.75
1199.57
1199.54
1199.36
1199.32
1199.14
1199.1
1198.93
1198.88
1198.72
1198.67
1198.5
1198.45
1198.29
1198.23
1198.09
1198.02
1197.89
1197.82
1197.69
1197.62
1197.5
1197.42
1197.31
1197.23
1197.13
1197.05
1196.96
1196.87
1196.79
1196.7
1196.62
1196.53
1196.46
1196.37
1196.31
1196.21
1196.16
1196.05
1196.01
1195.89
1195.87
1195.74
1195.73
1195.59
1195.59
1195.44
1195.45
1195.29
1195.32
1195.15
1195.19
1195.01
1195.06
1194.87
1194.95
1194.73
1194.83
1194.58
1194.74
1194.42
1194.66
1194.24
1194.6
1194.06
1194.55
1193.88
1194.51
1193.7
1194.47
1193.53
1194.43
1193.36
1194.41
1193.21
1194.39
1193.06
1194.36
1192.93
1194.34
1192.83
1194.3
1192.75
1194.24
1192.73
1194.16
1192.75
1194.04
1192.82
1193.91
1192.91
1193.77
1192.99
1193.65
1193.05
1193.55
1193.09
1193.47
1193.13
1193.4
1193.15
1193.34
1193.17
1193.29
1193.18
1193.25
1193.18
1193.22
1193.17
1193.2
1193.16
1193.18
1193.15
1193.16
1193.13
1193.14
1193.12
1193.12
1193.1
1193.11
1193.09
1193.09
1193.07
1193.07
1193.06
1193.05
1193.04
1193.04
1193.03
1193.02
1193.01
1193
1192.99
1192.98
1192.97
1192.95
1192.94
1192.93
1192.91
1192.89
1192.88
1192.86
1192.84
1192.82
1192.81
1192.78
1192.76
1192.74
1192.72
1192.69
1192.67
1192.64
1192.62
1192.59
1192.56
1192.54
1192.51
1192.48
1192.45
1192.42
1192.39
1192.36
1192.33
1192.3
1192.27
1192.24
1192.21
1192.18
1192.15
1192.11
1192.08
1192.05
1192.02
1191.98
1191.95
1191.91
1191.88
1191.84
1191.8
1191.77
1191.73
1191.7
1191.66
1191.63
1191.59
1191.56
1191.52
1191.49
1191.46
1191.42
1191.39
1191.35
1191.32
1191.29
1191.26
1191.23
1191.2
1191.17
1191.14
1191.11
1191.08
1191.05
1191.02
1190.99
1190.97
1190.94
1190.91
1190.88
1190.85
1190.82
1190.79
1190.76
1190.73
1190.71
1190.68
1190.65
1190.62
1190.59
1190.57
1190.54
1190.51
1190.49
1190.46
1190.44
1190.41
1190.39
1190.36
1190.34
1190.31
1190.29
1190.27
1190.25
1190.22
1190.2
1190.18
1190.16
1190.13
1190.11
1190.09
1190.07
1190.05
1190.03
1190.01
1189.99
1189.98
1189.96
1189.94
1189.92
1189.9
1189.89
1189.87
1189.85
1189.84
1189.81
1189.8
1189.77
1189.75
1189.73
1189.7
1189.68
1189.65
1189.63
1189.6
1189.57
1189.55
1189.52
1189.49
1189.46
1189.43
1189.4
1189.37
1189.34
1189.32
1189.29
1189.26
1189.23
1189.2
1189.17
1189.13
1189.1
1189.07
1189.04
1189.01
1188.98
1188.94
1188.91
1188.87
1188.83
1188.79
1188.75
1188.71
1188.67
1188.62
1188.58
1188.53
1188.49
1188.44
1188.4
1188.35
1188.31
1188.26
1188.21
1188.16
1188.12
1188.07
1188.03
1187.98
1187.95
1187.9
1187.86
1187.82
1187.78
1187.74
1187.71
1187.66
1187.63
1187.59
1187.56
1187.52
1187.49
1187.45
1187.42
1187.39
1187.36
1187.33
1187.3
1187.27
1187.24
1187.21
1187.18
1187.16
1187.13
1187.11
1187.09
1187.06
1187.04
1187.01
1187
1186.97
1186.95
1186.93
1186.91
1186.89
1186.87
1186.85
1186.83
1186.81
1186.79
1186.76
1186.74
1186.72
1186.69
1186.67
1186.65
1186.62
1186.59
1186.57
1186.54
1186.52
1186.49
1186.47
1186.44
1186.41
1186.38
1186.35
1186.32
1186.28
1186.25
1186.22
1186.18
1186.15
1186.11
1186.07
1186.02
1185.98
1185.94
1185.89
1185.84
1185.79
1185.74
1185.69
1185.63
1185.58
1185.52
1185.47
1185.41
1185.35
1185.28
1185.27
1185.11
1185.23
1184.85
1185.3
1184.41
1185.57
1183.69
1186.12
1182.6
1186.88
1181.28
1187.72
1179.94
1188.41
1178.96
1188.7
1178.83
1188.45
1179.61
1187.93
1181.74
1188.78
1189.74
1192.84
1199.64
1195.48
1199.04
1198.18
1198.91
1200
1199.39
1200.14
1198.74
1199.92
1195.77
1196.68
1197.09
1199.23
1199.75
1201.57
1201.99
1203.21
1203.56
1204.33
1204.08
1206.36
1204.37
1206.04
1203.54
1206.69
1204.87
1206.98
1206.59
1207.6
1202.58
1208.78
1205.01
1207.67
1207.69
1205.47
1205.28
1204.64
1207.35
1205.66
1204.97
1207.12
1206.83
1206.54
1206.49
1206.73
1206.47
1206.23
1205.32
1206.88
1207.16
1207.13
1206.81
1206.65
1207.03
1206.82
1206.62
1206.56
1206.42
1207.19
1206.51
1207.33
1206.84
1206.97
1206.39
1206.26
1206.09
1205.94
1205.92
1205.74
1205.74
1205.64
1205.61
1205.35
1205.37
1205.11
1205.11
1204.96
1204.92
1204.81
1204.81
1204.74
1204.69
1204.57
1204.43
1204.34
1204.22
1204.21
1204.04
1204.03
1203.91
1203.88
1203.7
1203.77
1203.65
1203.71
1203.59
1203.61
1203.46
1203.57
1203.55
1203.51
1203.33
1203.29
1203.15
1203.11
1202.97
1202.93
1202.78
1202.73
1202.58
1202.52
1202.37
1202.31
1202.16
1202.09
1201.94
1201.88
1201.73
1201.66
1201.52
1201.45
1201.3
1201.24
1201.09
1201.03
1200.86
1200.82
1200.65
1200.6
1200.43
1200.38
1200.22
1200.17
1200.01
1199.96
1199.79
1199.75
1199.58
1199.53
1199.36
1199.32
1199.15
1199.1
1198.93
1198.88
1198.72
1198.66
1198.51
1198.45
1198.3
1198.23
1198.09
1198.02
1197.89
1197.82
1197.69
1197.62
1197.5
1197.42
1197.31
1197.23
1197.13
1197.05
1196.96
1196.87
1196.79
1196.7
1196.62
1196.53
1196.46
1196.37
1196.31
1196.21
1196.16
1196.05
1196.01
1195.89
1195.87
1195.74
1195.73
1195.59
1195.59
1195.45
1195.45
1195.3
1195.31
1195.15
1195.18
1195.01
1195.06
1194.87
1194.94
1194.73
1194.83
1194.59
1194.73
1194.43
1194.65
1194.26
1194.58
1194.08
1194.52
1193.91
1194.47
1193.74
1194.43
1193.57
1194.39
1193.41
1194.36
1193.26
1194.33
1193.12
1194.3
1192.99
1194.27
1192.9
1194.23
1192.83
1194.17
1192.8
1194.09
1192.82
1193.99
1192.88
1193.86
1192.95
1193.73
1193.02
1193.63
1193.07
1193.53
1193.11
1193.45
1193.14
1193.39
1193.17
1193.33
1193.18
1193.28
1193.19
1193.25
1193.18
1193.22
1193.17
1193.2
1193.16
1193.18
1193.15
1193.16
1193.13
1193.14
1193.12
1193.12
1193.1
1193.11
1193.09
1193.09
1193.07
1193.07
1193.06
1193.05
1193.04
1193.04
1193.03
1193.02
1193.01
1193
1192.99
1192.97
1192.97
1192.95
1192.94
1192.93
1192.91
1192.89
1192.88
1192.86
1192.84
1192.82
1192.8
1192.78
1192.76
1192.74
1192.72
1192.69
1192.67
1192.64
1192.62
1192.59
1192.56
1192.53
1192.51
1192.48
1192.45
1192.42
1192.39
1192.36
1192.33
1192.3
1192.27
1192.24
1192.21
1192.18
1192.15
1192.11
1192.08
1192.05
1192.01
1191.98
1191.94
1191.91
1191.88
1191.84
1191.8
1191.77
1191.73
1191.7
1191.66
1191.63
1191.59
1191.56
1191.53
1191.49
1191.46
1191.42
1191.39
1191.35
1191.32
1191.29
1191.26
1191.23
1191.2
1191.17
1191.14
1191.11
1191.08
1191.05
1191.02
1190.99
1190.97
1190.94
1190.91
1190.88
1190.85
1190.82
1190.79
1190.76
1190.73
1190.71
1190.68
1190.65
1190.62
1190.59
1190.57
1190.54
1190.51
1190.49
1190.46
1190.44
1190.41
1190.39
1190.36
1190.34
1190.31
1190.29
1190.27
1190.24
1190.22
1190.2
1190.18
1190.16
1190.13
1190.11
1190.09
1190.07
1190.05
1190.03
1190.01
1189.99
1189.97
1189.96
1189.94
1189.92
1189.91
1189.89
1189.87
1189.85
1189.84
1189.81
1189.79
1189.77
1189.75
1189.73
1189.7
1189.68
1189.65
1189.63
1189.6
1189.57
1189.54
1189.52
1189.49
1189.46
1189.43
1189.4
1189.37
1189.34
1189.32
1189.29
1189.26
1189.23
1189.2
1189.16
1189.13
1189.1
1189.07
1189.04
1189.01
1188.98
1188.94
1188.91
1188.87
1188.83
1188.79
1188.75
1188.71
1188.67
1188.62
1188.58
1188.53
1188.49
1188.44
1188.4
1188.35
1188.31
1188.26
1188.21
1188.17
1188.12
1188.07
1188.03
1187.98
1187.95
1187.9
1187.86
1187.82
1187.78
1187.74
1187.71
1187.66
1187.63
1187.59
1187.56
1187.52
1187.49
1187.45
1187.42
1187.39
1187.36
1187.33
1187.3
1187.27
1187.24
1187.21
1187.18
1187.16
1187.13
1187.11
1187.09
1187.06
1187.04
1187.02
1187
1186.98
1186.95
1186.93
1186.91
1186.89
1186.87
1186.85
1186.83
1186.81
1186.78
1186.76
1186.74
1186.72
1186.69
1186.67
1186.65
1186.62
1186.59
1186.57
1186.54
1186.52
1186.49
1186.47
1186.44
1186.41
1186.38
1186.35
1186.32
1186.28
1186.25
1186.22
1186.18
1186.14
1186.11
1186.07
1186.02
1185.98
1185.94
1185.89
1185.84
1185.79
1185.74
1185.68
1185.63
1185.58
1185.52
1185.47
1185.41
1185.35
1185.28
1185.26
1185.11
1185.22
1184.85
1185.28
1184.44
1185.52
1183.76
1186
1182.76
1186.68
1181.54
1187.42
1180.32
1188.03
1179.44
1188.29
1179.36
1188.1
1180.15
1187.72
1182.22
1188.76
1189.34
1192.08
1199.11
1195.55
1198.83
1198.17
1198.81
1200.01
1199.32
1200.13
1198.63
1199.96
1195.53
1196.62
1197.01
1199.23
1199.77
1201.61
1202.04
1203.26
1203.59
1204.37
1204.25
1206.08
1204.47
1205.94
1203.97
1206.51
1205.04
1206.95
1206.35
1207.31
1203.36
1208.34
1205.25
1207.39
1207.32
1205.63
1205.51
1205.02
1207.01
1205.71
1205.28
1206.98
1206.77
1206.52
1206.48
1206.66
1206.43
1206.33
1205.57
1206.82
1207.03
1207.03
1206.79
1206.67
1207.01
1206.8
1206.64
1206.62
1206.46
1207.1
1206.53
1207.24
1206.79
1206.9
1206.39
1206.27
1206.1
1205.96
1205.93
1205.76
1205.75
1205.64
1205.61
1205.36
1205.38
1205.11
1205.12
1204.97
1204.93
1204.82
1204.81
1204.74
1204.68
1204.57
1204.43
1204.35
1204.23
1204.21
1204.05
1204.03
1203.92
1203.88
1203.73
1203.78
1203.66
1203.71
1203.59
1203.61
1203.48
1203.57
1203.53
1203.49
1203.32
1203.28
1203.15
1203.11
1202.97
1202.93
1202.79
1202.72
1202.58
1202.51
1202.37
1202.31
1202.16
1202.09
1201.95
1201.88
1201.73
1201.67
1201.52
1201.46
1201.3
1201.24
1201.09
1201.03
1200.87
1200.81
1200.65
1200.59
1200.43
1200.38
1200.23
1200.17
1200.02
1199.96
1199.8
1199.74
1199.58
1199.53
1199.37
1199.31
1199.15
1199.09
1198.94
1198.87
1198.73
1198.66
1198.51
1198.44
1198.3
1198.23
1198.1
1198.02
1197.89
1197.81
1197.69
1197.61
1197.5
1197.42
1197.32
1197.23
1197.14
1197.05
1196.96
1196.87
1196.79
1196.7
1196.62
1196.53
1196.47
1196.37
1196.31
1196.21
1196.16
1196.05
1196.01
1195.9
1195.87
1195.75
1195.73
1195.6
1195.59
1195.45
1195.45
1195.31
1195.31
1195.16
1195.18
1195.03
1195.05
1194.89
1194.93
1194.75
1194.81
1194.6
1194.71
1194.45
1194.63
1194.29
1194.56
1194.12
1194.49
1193.95
1194.43
1193.79
1194.38
1193.64
1194.33
1193.48
1194.29
1193.34
1194.25
1193.21
1194.22
1193.09
1194.18
1192.99
1194.14
1192.93
1194.08
1192.9
1194
1192.91
1193.91
1192.96
1193.8
1193.02
1193.68
1193.07
1193.59
1193.11
1193.5
1193.14
1193.43
1193.17
1193.37
1193.18
1193.32
1193.19
1193.27
1193.19
1193.24
1193.19
1193.22
1193.18
1193.2
1193.17
1193.18
1193.15
1193.16
1193.13
1193.14
1193.12
1193.12
1193.11
1193.11
1193.09
1193.09
1193.07
1193.07
1193.06
1193.05
1193.04
1193.04
1193.03
1193.02
1193.01
1193
1192.99
1192.97
1192.97
1192.95
1192.94
1192.93
1192.91
1192.89
1192.88
1192.86
1192.84
1192.82
1192.8
1192.78
1192.76
1192.74
1192.71
1192.69
1192.67
1192.64
1192.62
1192.59
1192.56
1192.53
1192.51
1192.48
1192.45
1192.42
1192.39
1192.36
1192.33
1192.3
1192.27
1192.24
1192.21
1192.18
1192.15
1192.11
1192.08
1192.05
1192.02
1191.98
1191.94
1191.91
1191.87
1191.84
1191.8
1191.77
1191.73
1191.7
1191.66
1191.63
1191.59
1191.56
1191.53
1191.49
1191.45
1191.42
1191.39
1191.35
1191.32
1191.29
1191.26
1191.23
1191.2
1191.17
1191.14
1191.11
1191.08
1191.05
1191.02
1190.99
1190.97
1190.94
1190.91
1190.88
1190.85
1190.82
1190.79
1190.76
1190.73
1190.71
1190.67
1190.65
1190.62
1190.59
1190.56
1190.54
1190.51
1190.49
1190.46
1190.44
1190.41
1190.39
1190.36
1190.34
1190.32
1190.29
1190.27
1190.24
1190.22
1190.2
1190.17
1190.15
1190.13
1190.11
1190.09
1190.07
1190.05
1190.03
1190.01
1189.99
1189.97
1189.96
1189.94
1189.93
1189.91
1189.89
1189.87
1189.85
1189.83
1189.81
1189.79
1189.77
1189.75
1189.73
1189.7
1189.68
1189.65
1189.63
1189.6
1189.57
1189.54
1189.52
1189.49
1189.46
1189.43
1189.4
1189.37
1189.34
1189.31
1189.29
1189.26
1189.23
1189.2
1189.16
1189.13
1189.1
1189.07
1189.04
1189.01
1188.97
1188.94
1188.91
1188.87
1188.83
1188.79
1188.75
1188.71
1188.67
1188.62
1188.58
1188.53
1188.49
1188.44
1188.4
1188.35
1188.3
1188.26
1188.21
1188.17
1188.12
1188.07
1188.03
1187.98
1187.95
1187.9
1187.86
1187.82
1187.78
1187.74
1187.7
1187.66
1187.63
1187.59
1187.56
1187.52
1187.49
1187.45
1187.42
1187.39
1187.36
1187.33
1187.3
1187.27
1187.24
1187.21
1187.19
1187.16
1187.13
1187.11
1187.09
1187.06
1187.04
1187.02
1187
1186.97
1186.95
1186.93
1186.91
1186.89
1186.87
1186.85
1186.83
1186.81
1186.79
1186.76
1186.74
1186.72
1186.69
1186.67
1186.64
1186.62
1186.59
1186.57
1186.55
1186.52
1186.49
1186.46
1186.43
1186.41
1186.38
1186.35
1186.32
1186.28
1186.25
1186.22
1186.18
1186.14
1186.1
1186.06
1186.02
1185.98
1185.93
1185.89
1185.84
1185.79
1185.73
1185.68
1185.63
1185.57
1185.52
1185.46
1185.4
1185.35
1185.27
1185.26
1185.11
1185.21
1184.87
1185.25
1184.49
1185.44
1183.88
1185.83
1182.99
1186.39
1181.94
1187
1180.89
1187.51
1180.17
1187.74
1180.15
1187.64
1180.98
1187.45
1183.16
1189.03
1189.75
1192.18
1198.3
1195.57
1198.43
1198.03
1198.65
1199.91
1199.27
1200.12
1198.57
1199.85
1195.23
1196.5
1196.91
1199.22
1199.78
1201.64
1202.06
1203.3
1203.62
1204.4
1204.35
1205.88
1204.51
1205.87
1204.26
1206.37
1205.2
1206.83
1206.18
1207.11
1203.89
1208.07
1205.41
1207.21
1207.09
1205.76
1205.66
1205.22
1206.77
1205.76
1205.55
1206.86
1206.64
1206.47
1206.56
1206.63
1206.35
1206.4
1205.79
1206.77
1206.94
1206.97
1206.8
1206.69
1206.96
1206.77
1206.65
1206.67
1206.51
1207.03
1206.55
1207.15
1206.75
1206.85
1206.42
1206.29
1206.12
1205.98
1205.94
1205.77
1205.75
1205.63
1205.61
1205.36
1205.38
1205.13
1205.13
1204.98
1204.94
1204.83
1204.81
1204.73
1204.67
1204.57
1204.44
1204.36
1204.23
1204.21
1204.05
1204.04
1203.92
1203.9
1203.74
1203.79
1203.66
1203.71
1203.59
1203.62
1203.48
1203.56
1203.51
1203.48
1203.32
1203.28
1203.14
1203.11
1202.97
1202.93
1202.78
1202.73
1202.58
1202.52
1202.37
1202.31
1202.16
1202.09
1201.95
1201.88
1201.74
1201.67
1201.52
1201.46
1201.3
1201.24
1201.09
1201.02
1200.87
1200.81
1200.66
1200.59
1200.44
1200.38
1200.23
1200.17
1200.02
1199.96
1199.81
1199.74
1199.59
1199.52
1199.37
1199.31
1199.16
1199.09
1198.95
1198.87
1198.73
1198.65
1198.52
1198.44
1198.31
1198.23
1198.1
1198.02
1197.89
1197.81
1197.7
1197.62
1197.51
1197.42
1197.32
1197.23
1197.14
1197.05
1196.96
1196.88
1196.79
1196.71
1196.63
1196.53
1196.47
1196.37
1196.31
1196.21
1196.16
1196.06
1196.02
1195.9
1195.87
1195.75
1195.73
1195.6
1195.58
1195.46
1195.44
1195.31
1195.31
1195.17
1195.17
1195.03
1195.05
1194.89
1194.93
1194.76
1194.81
1194.61
1194.7
1194.46
1194.61
1194.31
1194.54
1194.14
1194.46
1193.98
1194.4
1193.83
1194.34
1193.68
1194.29
1193.54
1194.24
1193.4
1194.2
1193.27
1194.16
1193.16
1194.11
1193.07
1194.07
1193.01
1194.01
1192.97
1193.93
1192.97
1193.85
1193.01
1193.75
1193.07
1193.65
1193.11
1193.56
1193.14
1193.48
1193.17
1193.42
1193.19
1193.36
1193.2
1193.31
1193.2
1193.27
1193.2
1193.24
1193.19
1193.22
1193.18
1193.2
1193.17
1193.18
1193.15
1193.16
1193.13
1193.14
1193.12
1193.12
1193.11
1193.11
1193.09
1193.09
1193.07
1193.07
1193.06
1193.06
1193.05
1193.04
1193.03
1193.02
1193.01
1193
1192.99
1192.97
1192.97
1192.95
1192.94
1192.93
1192.91
1192.89
1192.88
1192.86
1192.84
1192.82
1192.8
1192.78
1192.76
1192.74
1192.72
1192.69
1192.67
1192.64
1192.62
1192.59
1192.56
1192.53
1192.5
1192.48
1192.45
1192.42
1192.39
1192.36
1192.33
1192.3
1192.27
1192.24
1192.21
1192.18
1192.14
1192.11
1192.08
1192.05
1192.02
1191.98
1191.94
1191.91
1191.87
1191.84
1191.81
1191.77
1191.73
1191.7
1191.66
1191.63
1191.59
1191.56
1191.53
1191.49
1191.46
1191.42
1191.39
1191.35
1191.32
1191.29
1191.26
1191.23
1191.2
1191.17
1191.14
1191.11
1191.08
1191.05
1191.03
1191
1190.97
1190.94
1190.91
1190.88
1190.85
1190.82
1190.79
1190.77
1190.74
1190.71
1190.68
1190.65
1190.62
1190.59
1190.56
1190.54
1190.51
1190.49
1190.46
1190.44
1190.41
1190.39
1190.36
1190.34
1190.32
1190.29
1190.27
1190.25
1190.22
1190.2
1190.18
1190.16
1190.13
1190.11
1190.09
1190.07
1190.05
1190.03
1190.01
1190
1189.98
1189.96
1189.94
1189.93
1189.91
1189.89
1189.87
1189.85
1189.83
1189.81
1189.79
1189.77
1189.75
1189.72
1189.7
1189.68
1189.65
1189.63
1189.6
1189.57
1189.54
1189.51
1189.49
1189.46
1189.43
1189.4
1189.37
1189.34
1189.31
1189.29
1189.25
1189.22
1189.19
1189.16
1189.13
1189.1
1189.08
1189.04
1189.01
1188.98
1188.94
1188.9
1188.87
1188.83
1188.79
1188.75
1188.71
1188.67
1188.62
1188.58
1188.54
1188.49
1188.44
1188.4
1188.35
1188.31
1188.26
1188.22
1188.17
1188.12
1188.08
1188.03
1187.99
1187.94
1187.9
1187.86
1187.82
1187.78
1187.74
1187.71
1187.66
1187.63
1187.59
1187.56
1187.52
1187.49
1187.45
1187.42
1187.39
1187.36
1187.33
1187.3
1187.27
1187.24
1187.21
1187.19
1187.16
1187.14
1187.11
1187.09
1187.06
1187.04
1187.02
1187
1186.98
1186.96
1186.94
1186.91
1186.89
1186.87
1186.85
1186.83
1186.81
1186.79
1186.76
1186.74
1186.72
1186.69
1186.67
1186.64
1186.62
1186.59
1186.57
1186.54
1186.52
1186.49
1186.47
1186.44
1186.41
1186.38
1186.35
1186.31
1186.28
1186.25
1186.21
1186.18
1186.14
1186.1
1186.06
1186.02
1185.98
1185.93
1185.88
1185.83
1185.79
1185.73
1185.68
1185.63
1185.57
1185.52
1185.46
1185.4
1185.35
1185.27
1185.25
1185.11
1185.2
1184.88
1185.22
1184.52
1185.37
1183.96
1185.71
1183.17
1186.18
1182.22
1186.7
1181.3
1187.13
1180.68
1187.34
1180.72
1187.3
1181.56
1187.25
1183.68
1188.9
1189.47
1191.69
1197.36
1195.42
1197.88
1197.78
1198.28
1199.67
1199.01
1200.07
1198.54
1200.01
1194.84
1196.35
1196.76
1199.21
1199.78
1201.68
1202.1
1203.35
1203.65
1204.44
1204.46
1205.7
1204.62
1205.81
1204.55
1206.26
1205.33
1206.76
1206.08
1206.92
1204.39
1207.75
1205.58
1207.03
1206.87
1205.85
1205.79
1205.45
1206.6
1205.83
1205.75
1206.75
1206.6
1206.47
1206.54
1206.58
1206.36
1206.45
1205.96
1206.74
1206.87
1206.89
1206.78
1206.73
1206.92
1206.75
1206.68
1206.69
1206.54
1206.96
1206.61
1207.04
1206.72
1206.79
1206.41
1206.29
1206.12
1206.01
1205.93
1205.8
1205.75
1205.64
1205.59
1205.38
1205.37
1205.15
1205.14
1204.99
1204.94
1204.84
1204.81
1204.73
1204.67
1204.57
1204.45
1204.37
1204.24
1204.22
1204.07
1204.05
1203.93
1203.91
1203.76
1203.8
1203.67
1203.71
1203.6
1203.62
1203.49
1203.55
1203.49
1203.46
1203.32
1203.27
1203.15
1203.1
1202.97
1202.92
1202.78
1202.72
1202.58
1202.51
1202.37
1202.3
1202.16
1202.09
1201.95
1201.88
1201.74
1201.67
1201.52
1201.46
1201.31
1201.24
1201.09
1201.03
1200.87
1200.81
1200.66
1200.59
1200.44
1200.38
1200.23
1200.17
1200.02
1199.96
1199.81
1199.74
1199.59
1199.52
1199.38
1199.31
1199.17
1199.09
1198.95
1198.87
1198.73
1198.65
1198.52
1198.44
1198.31
1198.23
1198.11
1198.02
1197.9
1197.81
1197.7
1197.62
1197.51
1197.43
1197.32
1197.23
1197.14
1197.06
1196.97
1196.88
1196.79
1196.7
1196.63
1196.54
1196.47
1196.38
1196.32
1196.22
1196.16
1196.06
1196.02
1195.91
1195.87
1195.76
1195.73
1195.61
1195.58
1195.46
1195.44
1195.32
1195.31
1195.18
1195.17
1195.04
1195.04
1194.9
1194.92
1194.76
1194.8
1194.62
1194.69
1194.48
1194.6
1194.33
1194.52
1194.17
1194.43
1194.01
1194.36
1193.87
1194.3
1193.73
1194.24
1193.59
1194.19
1193.46
1194.14
1193.33
1194.09
1193.23
1194.05
1193.15
1194
1193.08
1193.94
1193.05
1193.87
1193.04
1193.79
1193.07
1193.7
1193.11
1193.61
1193.14
1193.53
1193.17
1193.46
1193.19
1193.4
1193.2
1193.35
1193.21
1193.31
1193.21
1193.27
1193.2
1193.24
1193.2
1193.22
1193.18
1193.2
1193.17
1193.18
1193.15
1193.16
1193.14
1193.14
1193.12
1193.13
1193.11
1193.11
1193.09
1193.09
1193.07
1193.07
1193.06
1193.06
1193.05
1193.04
1193.03
1193.02
1193.01
1193
1192.99
1192.98
1192.96
1192.95
1192.94
1192.93
1192.91
1192.89
1192.88
1192.86
1192.84
1192.82
1192.81
1192.78
1192.76
1192.74
1192.72
1192.69
1192.67
1192.64
1192.61
1192.58
1192.56
1192.53
1192.5
1192.48
1192.45
1192.42
1192.39
1192.36
1192.33
1192.3
1192.27
1192.24
1192.21
1192.18
1192.15
1192.11
1192.08
1192.05
1192.02
1191.98
1191.94
1191.91
1191.87
1191.84
1191.8
1191.77
1191.74
1191.7
1191.66
1191.63
1191.59
1191.56
1191.53
1191.49
1191.46
1191.42
1191.39
1191.35
1191.32
1191.29
1191.26
1191.23
1191.2
1191.17
1191.14
1191.11
1191.08
1191.05
1191.03
1191
1190.97
1190.94
1190.91
1190.88
1190.85
1190.82
1190.8
1190.77
1190.74
1190.71
1190.68
1190.65
1190.62
1190.6
1190.57
1190.54
1190.51
1190.49
1190.46
1190.44
1190.41
1190.39
1190.36
1190.34
1190.32
1190.29
1190.27
1190.25
1190.22
1190.2
1190.18
1190.15
1190.13
1190.11
1190.09
1190.07
1190.05
1190.03
1190.02
1190
1189.98
1189.96
1189.94
1189.93
1189.91
1189.89
1189.87
1189.85
1189.83
1189.81
1189.79
1189.77
1189.75
1189.73
1189.7
1189.68
1189.65
1189.63
1189.6
1189.57
1189.54
1189.51
1189.49
1189.46
1189.43
1189.4
1189.37
1189.34
1189.31
1189.28
1189.26
1189.23
1189.2
1189.17
1189.13
1189.1
1189.07
1189.04
1189.01
1188.98
1188.94
1188.9
1188.87
1188.83
1188.79
1188.75
1188.71
1188.67
1188.62
1188.58
1188.54
1188.49
1188.44
1188.4
1188.35
1188.31
1188.26
1188.21
1188.16
1188.12
1188.07
1188.03
1187.99
1187.95
1187.9
1187.86
1187.82
1187.78
1187.74
1187.7
1187.66
1187.63
1187.59
1187.56
1187.53
1187.49
1187.45
1187.42
1187.39
1187.36
1187.33
1187.3
1187.27
1187.24
1187.21
1187.18
1187.16
1187.13
1187.11
1187.09
1187.06
1187.04
1187.02
1187
1186.97
1186.95
1186.93
1186.91
1186.89
1186.87
1186.85
1186.83
1186.8
1186.78
1186.76
1186.74
1186.72
1186.69
1186.67
1186.64
1186.62
1186.59
1186.57
1186.54
1186.52
1186.49
1186.47
1186.44
1186.41
1186.38
1186.34
1186.31
1186.28
1186.25
1186.22
1186.18
1186.14
1186.1
1186.06
1186.02
1185.98
1185.93
1185.88
1185.83
1185.79
1185.73
1185.68
1185.63
1185.57
1185.51
1185.46
1185.4
1185.35
1185.27
1185.25
1185.11
1185.19
1184.89
1185.19
1184.56
1185.31
1184.05
1185.58
1183.34
1185.96
1182.52
1186.39
1181.73
1186.76
1181.23
1186.96
1181.32
1186.99
1182.19
1187.08
1184.33
1188.92
1189.65
1191.57
1196.55
1195.22
1197.31
1197.41
1197.8
1199.25
1198.67
1199.9
1198.59
1200.2
1194.36
1196.2
1196.63
1199.23
1199.82
1201.75
1202.15
1203.4
1203.68
1204.47
1204.55
1205.56
1204.71
1205.75
1204.77
1206.17
1205.45
1206.67
1206.01
1206.77
1204.76
1207.5
1205.73
1206.9
1206.72
1205.94
1205.88
1205.6
1206.47
1205.88
1205.91
1206.65
1206.54
1206.44
1206.57
1206.56
1206.35
1206.48
1206.1
1206.72
1206.83
1206.85
1206.77
1206.74
1206.88
1206.73
1206.69
1206.7
1206.58
1206.91
1206.62
1206.96
1206.69
1206.75
1206.42
1206.3
1206.14
1206.02
1205.94
1205.8
1205.75
1205.64
1205.58
1205.39
1205.36
1205.17
1205.15
1205.01
1204.96
1204.85
1204.81
1204.73
1204.66
1204.57
1204.45
1204.38
1204.25
1204.22
1204.08
1204.06
1203.93
1203.91
1203.77
1203.81
1203.68
1203.72
1203.6
1203.62
1203.51
1203.55
1203.48
1203.45
1203.32
1203.27
1203.15
1203.1
1202.97
1202.92
1202.79
1202.72
1202.58
1202.51
1202.37
1202.3
1202.16
1202.09
1201.95
1201.88
1201.74
1201.67
1201.52
1201.46
1201.31
1201.25
1201.1
1201.03
1200.88
1200.81
1200.66
1200.59
1200.45
1200.38
1200.24
1200.17
1200.03
1199.95
1199.81
1199.74
1199.6
1199.52
1199.39
1199.3
1199.17
1199.09
1198.95
1198.87
1198.74
1198.65
1198.53
1198.44
1198.32
1198.23
1198.11
1198.02
1197.9
1197.81
1197.71
1197.62
1197.51
1197.42
1197.32
1197.24
1197.14
1197.06
1196.97
1196.88
1196.8
1196.71
1196.63
1196.54
1196.47
1196.38
1196.32
1196.22
1196.16
1196.06
1196.02
1195.92
1195.87
1195.77
1195.72
1195.61
1195.58
1195.47
1195.44
1195.33
1195.3
1195.19
1195.17
1195.05
1195.04
1194.91
1194.92
1194.78
1194.8
1194.63
1194.68
1194.49
1194.59
1194.34
1194.5
1194.19
1194.41
1194.04
1194.34
1193.9
1194.27
1193.76
1194.2
1193.63
1194.15
1193.51
1194.09
1193.39
1194.04
1193.29
1193.99
1193.21
1193.94
1193.15
1193.89
1193.11
1193.82
1193.1
1193.74
1193.12
1193.66
1193.15
1193.58
1193.18
1193.51
1193.19
1193.44
1193.21
1193.39
1193.22
1193.34
1193.22
1193.3
1193.21
1193.27
1193.21
1193.24
1193.2
1193.22
1193.18
1193.2
1193.17
1193.18
1193.15
1193.16
1193.14
1193.14
1193.13
1193.13
1193.11
1193.11
1193.09
1193.09
1193.07
1193.07
1193.06
1193.06
1193.05
1193.04
1193.03
1193.02
1193.01
1193
1192.99
1192.98
1192.97
1192.95
1192.94
1192.92
1192.91
1192.89
1192.88
1192.86
1192.84
1192.82
1192.8
1192.78
1192.76
1192.73
1192.71
1192.69
1192.66
1192.64
1192.62
1192.59
1192.56
1192.53
1192.5
1192.47
1192.45
1192.42
1192.39
1192.36
1192.33
1192.3
1192.27
1192.24
1192.21
1192.18
1192.15
1192.11
1192.08
1192.05
1192.01
1191.98
1191.95
1191.91
1191.88
1191.84
1191.81
1191.77
1191.74
1191.7
1191.66
1191.63
1191.59
1191.56
1191.53
1191.49
1191.46
1191.42
1191.39
1191.36
1191.33
1191.29
1191.26
1191.23
1191.2
1191.17
1191.14
1191.11
1191.09
1191.06
1191.03
1191
1190.97
1190.94
1190.91
1190.88
1190.85
1190.83
1190.8
1190.77
1190.74
1190.71
1190.68
1190.65
1190.62
1190.6
1190.57
1190.54
1190.51
1190.49
1190.46
1190.44
1190.41
1190.39
1190.36
1190.34
1190.32
1190.29
1190.27
1190.25
1190.23
1190.2
1190.18
1190.16
1190.13
1190.11
1190.09
1190.07
1190.05
1190.03
1190.02
1190
1189.98
1189.96
1189.94
1189.92
1189.91
1189.89
1189.87
1189.85
1189.84
1189.81
1189.79
1189.77
1189.75
1189.72
1189.7
1189.68
1189.65