/*--------------------------------*- C++ -*----------------------------------*\
| =========                 |                                                 |
| \\      /  F ield         | foam-extend: Open Source CFD                    |
|  \\    /   O peration     | Version:     3.2                                |
|   \\  /    A nd           | Web:         http://www.foam-extend.org         |
|    \\/     M anipulation  | For copyright notice see file Copyright         |
\*---------------------------------------------------------------------------*/
FoamFile
{
    version     2.0;
    format      ascii;
    class       areaScalarField;
    location    "840";
    object      Pef;
}
// * * * * * * * * * * * * * * * * * * * * * * * * * * * * * * * * * * * * * //

dimensions      [0 0 0 0 0 0 0];

internalField   nonuniform List<scalar> 
550
(
0
0
0
0
0.0238416
0.0531158
0.0823532
0.112128
0.139558
0.163735
0.186426
0.20232
0.219163
0.111163
0.113932
0.23808
0.169503
0.239008
0.233064
0.229963
0.0299069
0.12314
0.213828
0.20504
0.195022
0.100125
0.0783889
0.0722843
0.185613
0.184963
0.051031
0.17467
0.171938
0.165657
0.159903
0.158206
0.157223
0.151836
0.146448
0.142676
0.139413
0.137056
0.137467
0.137726
0.134506
0.132786
0.130481
0.126531
0.125739
0.125011
0.124911
0.122061
0.119812
0.117183
0.116418
0.115955
0.116065
0.116518
0.116559
0.117925
0.118138
0.118082
0.117628
0.116987
0.116305
0.11573
0.115429
0.115294
0.115504
0.115582
0.115888
0.115866
0.11603
0.115923
0.115992
0.115815
0.115839
0.11574
0.115948
0.115872
0.116005
0.115973
0.116011
0.115759
0.115697
0.115392
0.115353
0.115128
0.115099
0.11476
0.114671
0.114593
0.114679
0.114569
0.114625
0.114537
0.11462
0.114598
0.114755
0.114807
0.115008
0.115081
0.115278
0.115336
0.115506
0.11552
0.11564
0.115607
0.115695
0.115649
0.115747
0.115727
0.115858
0.115868
0.116024
0.116045
0.116204
0.116212
0.116356
0.116347
0.116471
0.116439
0.116544
0.116502
0.116601
0.116558
0.116655
0.116612
0.116705
0.116662
0.116753
0.116713
0.116805
0.116773
0.116868
0.116847
0.116943
0.116927
0.117016
0.116999
0.117074
0.117046
0.117098
0.117056
0.11709
0.117046
0.11707
0.117033
0.117052
0.117024
0.117039
0.117021
0.117028
0.117013
0.117008
0.116997
0.116977
0.116967
0.116932
0.116921
0.116871
0.116862
0.1168
0.116795
0.11672
0.116718
0.116628
0.11663
0.116525
0.116528
0.116408
0.116414
0.116282
0.116296
0.116155
0.116181
0.116036
0.116075
0.115927
0.11598
0.115827
0.115892
0.115727
0.115805
0.11562
0.115716
0.11549
0.115636
0.115335
0.115586
0.115191
0.115566
0.115069
0.115572
0.11497
0.115603
0.114886
0.115651
0.114814
0.115711
0.114752
0.115777
0.114692
0.115842
0.114633
0.115892
0.11457
0.115914
0.114506
0.115892
0.114439
0.115806
0.114369
0.115637
0.114296
0.115364
0.114212
0.115043
0.114119
0.114744
0.114019
0.114485
0.113915
0.114255
0.113803
0.114047
0.113685
0.113854
0.11356
0.113676
0.113436
0.113506
0.113306
0.113345
0.113177
0.113186
0.113041
0.113026
0.112897
0.112865
0.112752
0.112704
0.112602
0.112547
0.112448
0.112386
0.112292
0.112226
0.112133
0.112064
0.111976
0.111901
0.111816
0.111737
0.111655
0.111571
0.111493
0.111409
0.111332
0.111254
0.11118
0.111104
0.111034
0.110961
0.110897
0.110825
0.110767
0.110702
0.110647
0.110589
0.110536
0.110483
0.110435
0.110385
0.110338
0.110294
0.110251
0.110209
0.11017
0.110126
0.11009
0.11005
0.110019
0.10998
0.109954
0.109921
0.109896
0.109871
0.109847
0.109826
0.109805
0.109788
0.109768
0.109755
0.109737
0.109726
0.109708
0.109699
0.10968
0.10967
0.109649
0.10964
0.109617
0.109607
0.109582
0.109574
0.109549
0.109541
0.109522
0.109513
0.109498
0.109486
0.109474
0.109459
0.109448
0.109435
0.109423
0.10941
0.109399
0.109385
0.109376
0.109358
0.109347
0.109328
0.109316
0.109296
0.109282
0.10926
0.109242
0.109215
0.109191
0.109163
0.109136
0.109105
0.109073
0.109043
0.109008
0.108978
0.108939
0.10891
0.108867
0.108835
0.108793
0.108754
0.10871
0.108669
0.10862
0.108576
0.108526
0.10848
0.108426
0.108378
0.108319
0.108267
0.108202
0.108149
0.108081
0.108027
0.107956
0.1079
0.107832
0.107771
0.107704
0.107639
0.107572
0.107506
0.107435
0.107368
0.107299
0.107231
0.107158
0.107089
0.107017
0.106948
0.106878
0.106804
0.106735
0.106663
0.106592
0.106523
0.106451
0.106384
0.106313
0.106245
0.106178
0.106109
0.106043
0.105973
0.105908
0.105841
0.105775
0.10571
0.105648
0.105588
0.105527
0.105473
0.105422
0.105372
0.10533
0.105292
0.105256
0.105227
0.105201
0.105182
0.105161
0.105149
0.105136
0.105125
0.105118
0.105111
0.105102
0.105097
0.105086
0.105083
0.10507
0.10507
0.105056
0.105058
0.105045
0.105045
0.10504
0.105042
0.105038
0.105047
0.105048
0.105058
0.105061
0.105077
0.105083
0.105098
0.105102
0.105121
0.105124
0.105138
0.105145
0.105156
0.10516
0.105174
0.105177
0.105195
0.1052
0.105217
0.105229
0.105247
0.105269
0.105292
0.105317
0.105348
0.105382
0.105414
0.105452
0.105489
0.105523
0.105561
0.105594
0.105628
0.105655
0.10568
0.105697
0.105709
0.105713
0.105712
0.105702
0.105688
0.105675
0.105651
0.105626
0.105593
0.105559
0.105518
0.105485
0.105441
0.105405
0.105358
0.105328
0.105283
0.105252
0.105218
0.105191
0.105161
0.105147
0.105126
0.105116
0.105108
0.105103
0.105094
0.105095
0.105085
0.105077
0.105068
0.105052
0.105041
0.105017
0.104996
0.104968
0.104937
0.104897
0.104854
0.10481
0.104761
0.104708
0.104663
0.10463
0.104607
0.104589
0.104575
0.104573
0.104573
0.104575
0.104592
0.104602
0.104626
0.104639
0.104678
0.104689
0.104742
0.104761
0.104796
0.104881
0.104794
0.105144
0.104601
0.10579
0.104172
0.107094
0.103776
0.10903
0.103457
0.111356
0.103302
0.113527
0.103467
0.114542
0.104198
0.115434
0.105868
0.118166
0.109063
0.123426
0.109722
3.4419e-06
3.5533e-06
3.79541e-06
4.60526e-06
0
0
0
0
0
0
)
;

boundaryField
{
    inlet
    {
        type            calculated;
        value           uniform 0;
    }
    endWall
    {
        type            calculated;
        value           uniform 0;
    }
    sideWall
    {
        type            empty;
    }
}


// ************************************************************************* //
