/*--------------------------------*- C++ -*----------------------------------*\
| =========                 |                                                 |
| \\      /  F ield         | foam-extend: Open Source CFD                    |
|  \\    /   O peration     | Version:     3.2                                |
|   \\  /    A nd           | Web:         http://www.foam-extend.org         |
|    \\/     M anipulation  | For copyright notice see file Copyright         |
\*---------------------------------------------------------------------------*/
FoamFile
{
    version     2.0;
    format      ascii;
    class       surfaceScalarField;
    location    "840";
    object      phi;
}
// * * * * * * * * * * * * * * * * * * * * * * * * * * * * * * * * * * * * * //

dimensions      [0 3 -1 0 0 0 0];

internalField   nonuniform List<scalar> 
65390
(
3.56079e-05
4.92057e-07
3.51257e-05
4.82273e-07
3.44794e-05
6.46223e-07
3.38437e-05
6.35761e-07
3.31647e-05
6.78968e-07
3.25382e-05
6.26523e-07
3.19099e-05
6.28274e-07
3.13149e-05
5.9507e-07
3.07729e-05
5.41545e-07
3.00871e-05
7.06313e-07
2.94672e-05
9.10226e-07
2.85432e-05
1.15692e-06
2.7622e-05
6.41468e-08
2.65396e-05
-2.84408e-07
2.57655e-05
5.98686e-07
2.52074e-05
1.38551e-06
2.45485e-05
1.70224e-06
2.39516e-05
1.80328e-06
2.37546e-05
2.53469e-07
2.32524e-05
-1.32272e-06
2.30772e-05
-1.03453e-06
2.31671e-05
1.15314e-06
2.30791e-05
1.85587e-06
2.30542e-05
2.28168e-07
2.33834e-05
-1.65101e-06
2.34372e-05
-1.70235e-06
2.29315e-05
3.15658e-08
2.25047e-05
1.54507e-06
2.2279e-05
1.2609e-06
2.20362e-05
-1.00556e-07
2.17878e-05
1.44285e-07
2.16937e-05
1.0097e-06
2.13245e-05
4.64402e-07
2.09115e-05
-6.47548e-07
2.11541e-05
-5.49934e-07
2.17986e-05
-2.77504e-07
2.21281e-05
-1.2559e-06
2.18442e-05
-9.84065e-07
2.11985e-05
1.07077e-06
2.04911e-05
1.90326e-06
2.01274e-05
9.07565e-07
2.02912e-05
-5.0337e-08
2.0692e-05
-3.00957e-07
2.10836e-05
-3.17711e-07
2.12747e-05
-1.7916e-07
2.11024e-05
-2.00457e-07
2.06977e-05
-4.26136e-07
2.0344e-05
8.14982e-08
2.02867e-05
6.21608e-07
2.03806e-05
3.1242e-07
2.04884e-05
-7.45136e-08
2.05449e-05
-8.71965e-08
2.05965e-05
-1.01773e-07
2.05863e-05
-3.44164e-08
2.0564e-05
-1.16801e-09
2.05468e-05
1.33487e-08
2.05693e-05
-1.4815e-08
2.06385e-05
-5.40903e-08
2.07163e-05
-5.48638e-08
2.07702e-05
-2.83203e-08
2.0789e-05
-3.32406e-09
2.08205e-05
-3.07465e-08
2.08141e-05
-4.26964e-09
2.07895e-05
7.09379e-09
2.07356e-05
3.49247e-08
2.06808e-05
3.91113e-08
2.06401e-05
3.10169e-08
2.06223e-05
1.4771e-08
2.06065e-05
1.82471e-08
2.06006e-05
1.15249e-08
2.05969e-05
9.49616e-09
2.06073e-05
-6.40907e-09
2.06324e-05
-2.36672e-08
2.0652e-05
-2.03906e-08
2.06612e-05
-1.11294e-08
2.06424e-05
1.69864e-08
2.06341e-05
7.74703e-09
2.06325e-05
2.57649e-09
2.06355e-05
-8.48015e-10
2.06303e-05
7.75656e-09
2.0651e-05
-1.85087e-08
2.06576e-05
-5.53248e-09
2.06548e-05
2.65405e-09
2.06179e-05
3.58622e-08
2.05889e-05
2.74893e-08
2.05621e-05
2.51106e-08
2.05598e-05
8.60736e-10
2.05252e-05
3.3444e-08
2.04628e-05
6.14803e-08
2.04095e-05
5.26662e-08
2.0423e-05
-1.40061e-08
2.0458e-05
-3.55355e-08
2.04833e-05
-2.59089e-08
2.04945e-05
-1.17989e-08
2.05043e-05
-1.0399e-08
2.0507e-05
-3.1887e-09
2.05197e-05
-1.26971e-08
2.05324e-05
-1.20978e-08
2.05546e-05
-2.08889e-08
2.05739e-05
-1.74399e-08
2.05971e-05
-2.0817e-08
2.06146e-05
-1.4936e-08
2.0637e-05
-1.99556e-08
2.06556e-05
-1.66311e-08
2.06779e-05
-2.09573e-08
2.06937e-05
-1.51868e-08
2.07108e-05
-1.72908e-08
2.07198e-05
-9.78398e-09
2.07314e-05
-1.26779e-08
2.07361e-05
-5.67574e-09
2.0746e-05
-1.06422e-08
2.07514e-05
-5.71168e-09
2.0763e-05
-1.13943e-08
2.07717e-05
-7.99353e-09
2.07865e-05
-1.38154e-08
2.07977e-05
-9.96449e-09
2.08128e-05
-1.38384e-08
2.08232e-05
-9.09127e-09
2.08373e-05
-1.29673e-08
2.08464e-05
-8.15624e-09
2.08577e-05
-1.05026e-08
2.08633e-05
-5.0045e-09
2.08723e-05
-8.54812e-09
2.08771e-05
-4.3882e-09
2.08866e-05
-9.20002e-09
2.08922e-05
-5.33201e-09
2.09015e-05
-9.01219e-09
2.09067e-05
-5.05661e-09
2.09149e-05
-8.0078e-09
2.09191e-05
-4.04671e-09
2.09262e-05
-6.97231e-09
2.09298e-05
-3.28025e-09
2.09365e-05
-6.32441e-09
2.094e-05
-2.97875e-09
2.09467e-05
-6.08161e-09
2.09505e-05
-2.92418e-09
2.09574e-05
-5.88769e-09
2.09616e-05
-3.09611e-09
2.09681e-05
-5.51565e-09
2.09722e-05
-3.00688e-09
2.09779e-05
-4.84496e-09
2.09807e-05
-2.17565e-09
2.09842e-05
-3.1391e-09
2.09851e-05
-6.46811e-10
2.09871e-05
-1.88898e-09
2.09868e-05
3.03329e-10
2.09877e-05
-8.48747e-10
2.09869e-05
9.72955e-10
2.09871e-05
-3.60621e-11
2.09859e-05
1.54058e-09
2.09856e-05
6.38473e-10
2.09846e-05
1.53151e-09
2.09838e-05
1.3565e-09
2.09826e-05
1.78293e-09
2.0981e-05
2.15093e-09
2.09794e-05
2.23388e-09
2.09764e-05
3.56636e-09
2.09745e-05
2.51626e-09
2.09703e-05
4.70718e-09
2.09679e-05
2.86682e-09
2.09631e-05
5.32504e-09
2.09606e-05
2.91606e-09
2.09554e-05
5.64336e-09
2.09528e-05
3.09972e-09
2.0947e-05
6.18516e-09
2.09439e-05
3.424e-09
2.09377e-05
6.60805e-09
2.09346e-05
3.35426e-09
2.09276e-05
7.20146e-09
2.09242e-05
3.45741e-09
2.09166e-05
7.60801e-09
2.09127e-05
3.90793e-09
2.09043e-05
8.41361e-09
2.09e-05
4.36807e-09
2.08913e-05
8.72355e-09
2.08872e-05
4.34772e-09
2.08787e-05
8.80162e-09
2.08747e-05
4.41506e-09
2.08663e-05
8.93456e-09
2.08632e-05
3.83531e-09
2.08552e-05
8.8314e-09
2.08527e-05
3.30161e-09
2.08445e-05
9.19599e-09
2.08431e-05
2.24961e-09
2.0834e-05
1.00388e-08
2.08336e-05
1.12298e-09
2.08229e-05
1.14577e-08
2.08238e-05
-3.14968e-10
2.08117e-05
1.26063e-08
2.08145e-05
-2.38989e-09
2.08001e-05
1.4767e-08
2.08048e-05
-4.29478e-09
2.07876e-05
1.75918e-08
2.07942e-05
-6.21454e-09
2.07746e-05
2.00029e-08
2.07837e-05
-8.60885e-09
2.07618e-05
2.23916e-08
2.07731e-05
-1.0741e-08
2.07483e-05
2.54129e-08
2.07614e-05
-1.25121e-08
2.07337e-05
2.82378e-08
2.07488e-05
-1.44341e-08
2.07185e-05
3.08594e-08
2.07349e-05
-1.58068e-08
2.07018e-05
3.36495e-08
2.07189e-05
-1.66093e-08
2.06832e-05
3.61573e-08
2.06998e-05
-1.61761e-08
2.06625e-05
3.7697e-08
2.06775e-05
-1.46095e-08
2.0639e-05
3.8828e-08
2.06515e-05
-1.22165e-08
2.06144e-05
3.741e-08
2.06234e-05
-8.7277e-09
2.05886e-05
3.50212e-08
2.05948e-05
-5.94116e-09
2.05643e-05
3.07577e-08
2.05684e-05
-3.89581e-09
2.05426e-05
2.6009e-08
2.05444e-05
-1.53716e-09
2.05225e-05
2.21421e-08
2.05213e-05
1.40414e-09
2.05022e-05
1.93558e-08
2.04995e-05
2.91014e-09
2.04828e-05
1.69932e-08
2.04789e-05
4.16667e-09
2.0464e-05
1.51491e-08
2.04597e-05
4.61528e-09
2.04455e-05
1.45583e-08
2.04402e-05
5.58619e-09
2.04263e-05
1.42421e-08
2.04214e-05
5.29694e-09
2.0408e-05
1.37941e-08
2.04034e-05
5.0052e-09
2.03916e-05
1.22278e-08
2.03863e-05
5.68308e-09
2.03759e-05
1.07654e-08
2.03702e-05
5.97367e-09
2.03608e-05
9.741e-09
2.03546e-05
6.51089e-09
2.03464e-05
8.5507e-09
2.03399e-05
6.76965e-09
2.03326e-05
7.66071e-09
2.03272e-05
5.70162e-09
2.03209e-05
6.49108e-09
2.03154e-05
5.74703e-09
2.03095e-05
6.07647e-09
2.03046e-05
4.96496e-09
2.02989e-05
5.67317e-09
2.02943e-05
4.57856e-09
2.02895e-05
4.74189e-09
2.02857e-05
3.66684e-09
2.02817e-05
3.7267e-09
2.02783e-05
3.02682e-09
2.02749e-05
3.03369e-09
2.02713e-05
2.9842e-09
2.02682e-05
2.5089e-09
2.02651e-05
2.4819e-09
2.02625e-05
1.88551e-09
2.02601e-05
1.65062e-09
2.02582e-05
1.04647e-09
2.02565e-05
8.31598e-10
2.02551e-05
5.8663e-10
2.02539e-05
3.30591e-10
2.02533e-05
-3.44396e-10
2.02526e-05
-1.27891e-10
2.02526e-05
-8.55432e-10
2.02525e-05
-8.01915e-10
2.02533e-05
-1.63792e-09
2.0254e-05
-1.55747e-09
2.02552e-05
-1.97968e-09
2.02565e-05
-2.07622e-09
2.02587e-05
-2.95803e-09
2.02607e-05
-2.86921e-09
2.02629e-05
-2.96004e-09
2.02653e-05
-3.11449e-09
2.02675e-05
-3.03006e-09
2.02703e-05
-3.5088e-09
2.02735e-05
-4.00866e-09
2.02767e-05
-3.90592e-09
2.02796e-05
-3.69859e-09
2.02826e-05
-3.66373e-09
2.02862e-05
-4.27574e-09
2.0289e-05
-3.47768e-09
2.02924e-05
-4.03057e-09
2.02954e-05
-3.62611e-09
2.0299e-05
-4.05362e-09
2.03023e-05
-3.79523e-09
2.03058e-05
-3.94787e-09
2.03087e-05
-3.30996e-09
2.0312e-05
-3.75914e-09
2.03153e-05
-3.62987e-09
2.03186e-05
-3.60168e-09
2.03216e-05
-3.26229e-09
2.0325e-05
-3.68023e-09
2.03287e-05
-3.84019e-09
2.03321e-05
-3.65405e-09
2.03351e-05
-3.26035e-09
2.03381e-05
-3.27407e-09
2.03411e-05
-3.27574e-09
2.03438e-05
-2.94011e-09
2.03464e-05
-2.97814e-09
2.03487e-05
-2.63941e-09
2.0351e-05
-2.65313e-09
2.03523e-05
-1.71923e-09
2.03544e-05
-2.43054e-09
2.03557e-05
-1.64813e-09
2.03573e-05
-1.90945e-09
2.03586e-05
-1.49558e-09
2.036e-05
-1.64751e-09
2.0361e-05
-1.14218e-09
2.0362e-05
-1.12304e-09
2.03628e-05
-8.54496e-10
2.03631e-05
-3.24998e-10
2.03633e-05
-2.80079e-10
2.03631e-05
2.60248e-10
2.03631e-05
6.84224e-11
2.03622e-05
9.90081e-10
2.03612e-05
1.25341e-09
2.036e-05
1.43528e-09
2.03588e-05
1.40434e-09
2.03573e-05
1.87865e-09
2.0356e-05
1.66316e-09
2.03537e-05
2.68457e-09
2.03516e-05
2.61031e-09
2.03495e-05
2.62253e-09
2.03472e-05
2.86388e-09
2.0345e-05
2.82871e-09
2.03432e-05
2.40222e-09
2.03403e-05
3.52449e-09
2.03373e-05
3.57444e-09
2.03343e-05
3.6264e-09
2.03313e-05
3.60548e-09
2.03282e-05
3.82553e-09
2.03246e-05
4.21248e-09
2.03211e-05
4.22136e-09
2.03176e-05
4.24758e-09
2.03141e-05
4.29642e-09
2.03103e-05
4.69621e-09
2.03069e-05
4.23113e-09
2.03026e-05
5.26164e-09
2.02988e-05
4.77022e-09
2.02944e-05
5.3668e-09
2.02901e-05
5.24728e-09
2.02858e-05
5.31799e-09
2.02813e-05
5.56431e-09
2.02769e-05
5.46898e-09
2.02719e-05
6.07217e-09
2.02674e-05
5.66404e-09
2.02627e-05
5.81454e-09
2.02582e-05
5.59948e-09
2.02536e-05
5.788e-09
2.0249e-05
5.70201e-09
2.02445e-05
5.61845e-09
2.024e-05
5.58184e-09
2.02352e-05
5.8432e-09
2.02306e-05
5.57795e-09
2.02268e-05
4.81032e-09
2.02222e-05
5.64928e-09
2.02183e-05
4.87332e-09
2.02136e-05
5.55662e-09
2.02095e-05
4.95234e-09
2.02052e-05
5.13822e-09
2.02006e-05
5.37355e-09
2.01959e-05
5.40697e-09
2.01913e-05
5.23503e-09
2.01869e-05
4.99596e-09
2.01818e-05
5.59727e-09
2.01772e-05
5.07118e-09
2.01727e-05
4.94099e-09
2.01681e-05
4.95641e-09
2.01635e-05
4.92368e-09
2.01584e-05
5.37896e-09
2.01533e-05
5.43342e-09
2.01487e-05
4.81881e-09
2.0144e-05
4.8999e-09
2.01399e-05
4.38095e-09
2.01358e-05
4.30025e-09
2.01323e-05
3.64504e-09
2.01292e-05
3.34903e-09
2.01262e-05
3.15739e-09
2.01239e-05
2.4726e-09
2.01222e-05
1.81873e-09
2.01205e-05
1.81282e-09
2.01197e-05
7.88198e-10
2.01191e-05
5.31632e-10
2.01189e-05
1.36647e-10
2.0119e-05
-3.44168e-10
2.01193e-05
-6.87437e-10
2.01198e-05
-9.38148e-10
2.01212e-05
-1.98543e-09
2.01222e-05
-1.61593e-09
2.01238e-05
-2.37163e-09
2.01253e-05
-2.34945e-09
2.01264e-05
-2.15025e-09
2.01281e-05
-2.7429e-09
2.01298e-05
-2.76202e-09
2.01309e-05
-2.26104e-09
2.01325e-05
-2.7144e-09
2.01347e-05
-3.30333e-09
2.01364e-05
-2.89121e-09
2.01376e-05
-2.34246e-09
2.01393e-05
-2.77648e-09
2.01408e-05
-2.61368e-09
2.0142e-05
-2.17e-09
2.01434e-05
-2.43178e-09
2.01452e-05
-2.88135e-09
2.01475e-05
-3.2795e-09
2.01496e-05
-3.1951e-09
2.01514e-05
-2.8674e-09
2.01539e-05
-3.68299e-09
2.01565e-05
-3.68649e-09
2.01588e-05
-3.61275e-09
2.01617e-05
-4.15654e-09
2.01643e-05
-3.9039e-09
2.01671e-05
-4.24669e-09
2.01695e-05
-3.8785e-09
2.01725e-05
-4.43765e-09
2.01749e-05
-4.00961e-09
2.01776e-05
-4.18562e-09
2.01803e-05
-4.27476e-09
2.01829e-05
-4.18886e-09
2.01853e-05
-3.91019e-09
2.01877e-05
-3.93716e-09
2.01903e-05
-4.03653e-09
2.0193e-05
-4.11742e-09
2.0195e-05
-3.46089e-09
2.01974e-05
-3.76386e-09
2.01998e-05
-3.72178e-09
2.02023e-05
-3.86825e-09
2.02042e-05
-3.22711e-09
2.02066e-05
-3.71407e-09
2.02085e-05
-3.30241e-09
2.02105e-05
-3.37524e-09
2.02124e-05
-3.30757e-09
2.02143e-05
-3.27263e-09
2.02157e-05
-2.78406e-09
2.02171e-05
-2.77286e-09
2.02178e-05
-2.09585e-09
2.0219e-05
-2.5206e-09
2.022e-05
-2.28706e-09
2.02211e-05
-2.34348e-09
2.02217e-05
-1.72727e-09
2.02219e-05
-1.25334e-09
2.02224e-05
-1.38719e-09
2.02234e-05
-1.63452e-09
2.02237e-05
-8.81422e-10
2.02241e-05
-7.98611e-10
2.02247e-05
-8.3622e-10
2.02248e-05
-2.21688e-10
2.02249e-05
-8.23716e-11
2.02253e-05
-2.00716e-10
2.02255e-05
3.5936e-11
2.02256e-05
2.28222e-10
2.02257e-05
3.36087e-10
2.0226e-05
1.85016e-10
2.02263e-05
1.53995e-10
2.02265e-05
1.40444e-10
2.02267e-05
8.37019e-11
2.02267e-05
2.2118e-10
2.02263e-05
4.27663e-10
2.02264e-05
-7.62013e-11
2.02256e-05
5.76596e-10
2.02244e-05
8.82907e-10
2.02232e-05
8.6411e-10
2.02217e-05
9.27688e-10
2.02202e-05
8.66513e-10
2.02189e-05
5.52796e-10
2.02171e-05
9.02288e-10
2.02147e-05
1.53034e-09
2.02121e-05
1.54614e-09
2.02096e-05
1.54584e-09
2.02069e-05
1.6664e-09
2.02029e-05
2.98187e-09
2.02004e-05
1.58995e-09
2.01965e-05
3.07576e-09
2.01928e-05
3.07184e-09
2.01888e-05
3.44279e-09
2.01849e-05
3.6077e-09
2.01806e-05
4.23508e-09
2.01772e-05
3.6102e-09
2.01735e-05
4.21778e-09
2.01702e-05
4.04374e-09
2.01676e-05
3.72293e-09
2.01654e-05
3.47978e-09
2.01633e-05
3.66706e-09
2.01618e-05
3.13405e-09
2.01612e-05
2.42235e-09
2.01608e-05
2.35145e-09
2.01604e-05
2.41811e-09
2.01598e-05
2.65882e-09
2.01601e-05
1.81316e-09
2.01606e-05
1.57958e-09
2.01612e-05
1.44764e-09
2.01618e-05
1.4857e-09
2.01637e-05
3.65249e-11
2.01654e-05
1.89755e-10
2.01667e-05
5.66805e-10
2.01681e-05
3.12645e-10
2.01704e-05
-5.62169e-10
2.01738e-05
-1.68744e-09
2.0178e-05
-2.60027e-09
2.01839e-05
-4.28797e-09
2.01891e-05
-3.66803e-09
2.01947e-05
-4.11499e-09
2.02011e-05
-4.97429e-09
2.02069e-05
-4.45064e-09
2.02135e-05
-5.2299e-09
2.02211e-05
-6.21594e-09
2.02286e-05
-6.31442e-09
2.02362e-05
-6.30429e-09
2.02446e-05
-7.29117e-09
2.02536e-05
-7.99236e-09
2.02617e-05
-7.12175e-09
2.02744e-05
-1.18358e-08
2.02806e-05
-5.49624e-09
2.02962e-05
-1.49063e-08
2.02998e-05
-3.13805e-09
2.03246e-05
-2.43403e-08
2.03177e-05
7.11534e-09
2.03623e-05
-4.44045e-08
2.03386e-05
2.3786e-08
2.04148e-05
-7.61257e-08
2.03663e-05
4.83982e-08
2.04748e-05
-1.08622e-07
2.03803e-05
9.43145e-08
2.05104e-05
-1.30213e-07
2.03535e-05
1.56698e-07
2.04785e-05
-1.25153e-07
2.02533e-05
2.25144e-07
2.03368e-05
-8.35876e-08
2.00502e-05
2.86481e-07
2.00856e-05
-3.53987e-08
1.97365e-05
3.49064e-07
1.96313e-05
1.05069e-07
1.89868e-05
6.44349e-07
1.81684e-05
8.18042e-07
1.59925e-05
2.17528e-06
1.04311e-05
5.56055e-06
1.91845e-06
8.51224e-06
1.56009e-06
3.58304e-07
3.01752e-06
-1.45743e-06
2.39171e-06
6.25803e-07
1.79216e-06
5.9955e-07
4.28496e-07
1.36367e-06
-3.0816e-07
7.36656e-07
-1.5846e-06
1.27644e-06
-2.68211e-06
1.09751e-06
-3.54051e-06
8.58402e-07
-3.54051e-06
3.59693e-05
6.22738e-07
3.57764e-05
6.75195e-07
3.53853e-05
1.03729e-06
3.49963e-05
1.02477e-06
3.45945e-05
1.08076e-06
3.42272e-05
9.9386e-07
3.38559e-05
9.9949e-07
3.351e-05
9.40916e-07
3.31872e-05
8.6597e-07
3.28118e-05
1.10208e-06
3.25011e-05
1.18755e-06
3.18484e-05
1.71728e-06
3.13262e-05
6.43693e-07
3.05533e-05
6.44456e-07
2.99289e-05
1.2094e-06
2.92421e-05
1.99945e-06
2.86444e-05
2.2855e-06
2.81995e-05
2.13406e-06
2.81066e-05
2.87463e-07
2.79237e-05
-9.31565e-07
2.82426e-05
-1.20168e-06
2.81071e-05
1.12439e-06
2.81957e-05
1.58636e-06
2.83837e-05
4.30506e-08
2.85779e-05
-1.7333e-06
2.86867e-05
-1.66945e-06
2.84489e-05
3.08583e-07
2.81949e-05
1.6468e-06
2.77559e-05
1.58083e-06
2.75432e-05
2.48438e-07
2.74461e-05
3.05179e-07
2.72878e-05
1.00715e-06
2.72309e-05
4.96368e-07
2.7339e-05
-5.81956e-07
2.74656e-05
-6.79127e-07
2.74189e-05
-4.00857e-07
2.71941e-05
-9.40495e-07
2.69406e-05
-5.46041e-07
2.68185e-05
1.10634e-06
2.67521e-05
1.83469e-06
2.68162e-05
8.58042e-07
2.68665e-05
-6.43528e-08
2.68326e-05
-2.67869e-07
2.67137e-05
-2.0231e-07
2.65313e-05
-2.47252e-08
2.64034e-05
-7.43104e-08
2.63515e-05
-2.76169e-07
2.63398e-05
1.2053e-07
2.63679e-05
5.00644e-07
2.62602e-05
3.96736e-07
2.6162e-05
5.05373e-08
2.60298e-05
4.98759e-08
2.5988e-05
-5.70564e-08
2.59845e-05
-2.91848e-08
2.60233e-05
-3.99047e-08
2.60717e-05
-3.57407e-08
2.61176e-05
-6.11244e-08
2.6155e-05
-9.1539e-08
2.61535e-05
-5.39182e-08
2.61442e-05
-2.03932e-08
2.61019e-05
3.84389e-08
2.60476e-05
2.38778e-08
2.59727e-05
7.11487e-08
2.59191e-05
6.12498e-08
2.58722e-05
8.22998e-08
2.58547e-05
5.69514e-08
2.58348e-05
5.1057e-08
2.58314e-05
1.80262e-08
2.58172e-05
3.21843e-08
2.5808e-05
2.03913e-08
2.57867e-05
3.06219e-08
2.57587e-05
2.14864e-08
2.57263e-05
8.72213e-09
2.56898e-05
1.62766e-08
2.56659e-05
1.29211e-08
2.56357e-05
4.73118e-08
2.56279e-05
1.55074e-08
2.56172e-05
1.33064e-08
2.56169e-05
-6.99273e-10
2.56087e-05
1.58947e-08
2.56122e-05
-2.20957e-08
2.55927e-05
1.39211e-08
2.55787e-05
1.67454e-08
2.55335e-05
8.11316e-08
2.54909e-05
7.01243e-08
2.54384e-05
7.7653e-08
2.54089e-05
3.03803e-08
2.53656e-05
7.67131e-08
2.53304e-05
9.66257e-08
2.52914e-05
9.17221e-08
2.52778e-05
-4.78041e-10
2.52788e-05
-3.64821e-08
2.52922e-05
-3.93283e-08
2.52892e-05
-8.84913e-09
2.52926e-05
-1.37267e-08
2.52891e-05
3.03889e-10
2.52956e-05
-1.91952e-08
2.52974e-05
-1.38066e-08
2.53104e-05
-3.39665e-08
2.53181e-05
-2.51634e-08
2.53323e-05
-3.50041e-08
2.53392e-05
-2.19049e-08
2.53493e-05
-3.00431e-08
2.53514e-05
-1.87995e-08
2.53581e-05
-2.7666e-08
2.53559e-05
-1.29435e-08
2.53577e-05
-1.90445e-08
2.53501e-05
-2.15959e-09
2.53491e-05
-1.1668e-08
2.53409e-05
2.57698e-09
2.53415e-05
-1.12617e-08
2.53378e-05
-1.96719e-09
2.53431e-05
-1.67262e-08
2.53439e-05
-8.79867e-09
2.53529e-05
-2.2834e-08
2.53558e-05
-1.28915e-08
2.53651e-05
-2.31327e-08
2.53676e-05
-1.16273e-08
2.53759e-05
-2.12542e-08
2.53769e-05
-9.1651e-09
2.53827e-05
-1.63529e-08
2.53814e-05
-3.67207e-09
2.5386e-05
-1.3092e-08
2.53843e-05
-2.69471e-09
2.53889e-05
-1.38687e-08
2.53877e-05
-4.0539e-09
2.53925e-05
-1.38315e-08
2.53917e-05
-4.21953e-09
2.53963e-05
-1.26924e-08
2.53956e-05
-3.3047e-09
2.54002e-05
-1.15833e-08
2.53998e-05
-2.85831e-09
2.54044e-05
-1.09464e-08
2.54043e-05
-2.83612e-09
2.5409e-05
-1.0773e-08
2.54092e-05
-3.13736e-09
2.54138e-05
-1.0543e-08
2.54142e-05
-3.45765e-09
2.54184e-05
-9.69264e-09
2.54183e-05
-2.95243e-09
2.54214e-05
-8.00619e-09
2.54206e-05
-1.32194e-09
2.54226e-05
-5.18142e-09
2.54211e-05
8.58788e-10
2.54222e-05
-2.90965e-09
2.54203e-05
2.22055e-09
2.54205e-05
-1.0485e-09
2.54184e-05
3.05259e-09
2.5418e-05
3.54518e-10
2.5416e-05
3.55909e-09
2.54149e-05
1.73096e-09
2.54128e-05
3.63493e-09
2.54111e-05
3.0176e-09
2.5409e-05
3.91438e-09
2.54065e-05
4.66878e-09
2.54039e-05
4.80672e-09
2.54001e-05
7.36667e-09
2.5397e-05
5.62454e-09
2.53921e-05
9.5524e-09
2.53889e-05
6.12063e-09
2.53827e-05
1.15392e-08
2.53792e-05
6.40215e-09
2.5372e-05
1.2788e-08
2.53683e-05
6.81261e-09
2.53602e-05
1.43044e-08
2.53561e-05
7.52453e-09
2.53473e-05
1.53986e-08
2.5343e-05
7.67928e-09
2.53334e-05
1.6776e-08
2.53287e-05
8.14127e-09
2.53185e-05
1.78249e-08
2.53137e-05
8.72267e-09
2.53029e-05
1.9172e-08
2.52982e-05
9.16125e-09
2.52875e-05
1.938e-08
2.52832e-05
8.61398e-09
2.52727e-05
1.93425e-08
2.52691e-05
8.03281e-09
2.52584e-05
1.95802e-08
2.52553e-05
6.97885e-09
2.5244e-05
2.01257e-08
2.52412e-05
6.11473e-09
2.5229e-05
2.13314e-08
2.52267e-05
4.61129e-09
2.52133e-05
2.33883e-08
2.52119e-05
2.49437e-09
2.51965e-05
2.68943e-08
2.51976e-05
-1.46261e-09
2.51793e-05
3.09565e-08
2.51837e-05
-6.75585e-09
2.51615e-05
3.69816e-08
2.51691e-05
-1.19455e-08
2.51428e-05
4.39188e-08
2.51541e-05
-1.75289e-08
2.5124e-05
5.009e-08
2.51393e-05
-2.39045e-08
2.51053e-05
5.64312e-08
2.51241e-05
-2.95269e-08
2.50856e-05
6.38424e-08
2.51077e-05
-3.46014e-08
2.50645e-05
7.1405e-08
2.509e-05
-3.99317e-08
2.50424e-05
7.84822e-08
2.50706e-05
-4.4025e-08
2.50187e-05
8.5569e-08
2.50489e-05
-4.68228e-08
2.49932e-05
9.1897e-08
2.50241e-05
-4.7067e-08
2.49657e-05
9.61066e-08
2.49954e-05
-4.43591e-08
2.49359e-05
9.83042e-08
2.49627e-05
-3.90011e-08
2.49049e-05
9.52505e-08
2.49268e-05
-3.06552e-08
2.48737e-05
8.81782e-08
2.48893e-05
-2.16097e-08
2.48432e-05
7.68561e-08
2.48527e-05
-1.34019e-08
2.48138e-05
6.49271e-08
2.48179e-05
-5.63865e-09
2.47846e-05
5.54456e-08
2.47842e-05
1.82943e-09
2.4755e-05
4.85805e-08
2.47512e-05
6.6506e-09
2.47254e-05
4.28184e-08
2.47195e-05
1.00484e-08
2.46963e-05
3.83248e-08
2.46892e-05
1.17619e-08
2.46679e-05
3.59043e-08
2.466e-05
1.34846e-08
2.464e-05
3.41689e-08
2.46332e-05
1.21483e-08
2.46148e-05
3.21799e-08
2.46067e-05
1.3065e-08
2.45909e-05
2.80498e-08
2.45817e-05
1.48625e-08
2.45666e-05
2.58473e-08
2.45562e-05
1.64255e-08
2.45417e-05
2.42246e-08
2.45311e-05
1.71044e-08
2.45179e-05
2.17445e-08
2.45074e-05
1.73082e-08
2.44953e-05
1.97629e-08
2.44852e-05
1.57783e-08
2.4474e-05
1.76652e-08
2.44644e-05
1.53381e-08
2.44537e-05
1.68424e-08
2.44442e-05
1.43934e-08
2.44339e-05
1.59644e-08
2.44251e-05
1.33993e-08
2.44156e-05
1.42194e-08
2.44075e-05
1.18078e-08
2.43989e-05
1.23002e-08
2.43912e-05
1.08031e-08
2.43831e-05
1.10535e-08
2.43755e-05
1.06369e-08
2.4368e-05
1.00439e-08
2.43606e-05
9.84235e-09
2.43539e-05
8.58759e-09
2.43473e-05
8.23159e-09
2.43413e-05
7.02099e-09
2.43356e-05
6.5782e-09
2.43303e-05
5.88119e-09
2.43251e-05
5.50616e-09
2.43207e-05
4.09076e-09
2.43162e-05
4.35484e-09
2.43127e-05
2.63132e-09
2.43091e-05
2.78487e-09
2.43065e-05
1.00263e-09
2.43038e-05
1.09215e-09
2.43019e-05
7.21899e-12
2.42999e-05
-1.24428e-10
2.42986e-05
-1.69499e-09
2.42974e-05
-1.65565e-09
2.42967e-05
-2.22629e-09
2.42961e-05
-2.53547e-09
2.42958e-05
-2.70509e-09
2.42958e-05
-3.47347e-09
2.4296e-05
-4.24809e-09
2.42964e-05
-4.35584e-09
2.42972e-05
-4.42358e-09
2.42979e-05
-4.3471e-09
2.42992e-05
-5.58505e-09
2.43005e-05
-4.7664e-09
2.43023e-05
-5.83489e-09
2.43037e-05
-5.05727e-09
2.43058e-05
-6.14872e-09
2.43074e-05
-5.44823e-09
2.43096e-05
-6.15448e-09
2.43116e-05
-5.30818e-09
2.43139e-05
-5.97053e-09
2.4316e-05
-5.79764e-09
2.43183e-05
-5.92685e-09
2.43208e-05
-5.70284e-09
2.43234e-05
-6.24578e-09
2.43259e-05
-6.43415e-09
2.43285e-05
-6.21328e-09
2.43312e-05
-5.93846e-09
2.43334e-05
-5.49709e-09
2.43358e-05
-5.64627e-09
2.43377e-05
-4.88267e-09
2.43399e-05
-5.17141e-09
2.43417e-05
-4.47699e-09
2.43437e-05
-4.59297e-09
2.43452e-05
-3.23779e-09
2.4347e-05
-4.25235e-09
2.43482e-05
-2.82155e-09
2.43498e-05
-3.52541e-09
2.43507e-05
-2.40614e-09
2.43521e-05
-3.03236e-09
2.43531e-05
-2.09911e-09
2.43541e-05
-2.18524e-09
2.43551e-05
-1.8132e-09
2.43557e-05
-9.04869e-10
2.4356e-05
-5.79826e-10
2.4356e-05
2.65297e-10
2.43559e-05
1.72902e-10
2.43556e-05
1.30593e-09
2.43549e-05
1.87867e-09
2.4354e-05
2.31494e-09
2.43531e-05
2.36069e-09
2.43519e-05
3.1107e-09
2.43505e-05
3.01422e-09
2.43487e-05
4.50008e-09
2.43472e-05
4.12663e-09
2.43451e-05
4.6923e-09
2.43434e-05
4.5272e-09
2.43412e-05
5.10465e-09
2.43392e-05
4.39401e-09
2.43365e-05
6.14976e-09
2.43341e-05
6.01008e-09
2.43308e-05
6.94314e-09
2.4328e-05
6.44054e-09
2.43246e-05
7.20017e-09
2.43216e-05
7.21406e-09
2.4318e-05
7.79228e-09
2.43146e-05
7.61674e-09
2.43109e-05
7.99959e-09
2.43074e-05
8.24165e-09
2.43037e-05
7.91688e-09
2.42997e-05
9.2768e-09
2.42957e-05
8.806e-09
2.42913e-05
9.75435e-09
2.42869e-05
9.63011e-09
2.42822e-05
9.96902e-09
2.42777e-05
1.01012e-08
2.42729e-05
1.02296e-08
2.42681e-05
1.09203e-08
2.4263e-05
1.07471e-08
2.4258e-05
1.08252e-08
2.4253e-05
1.05617e-08
2.42481e-05
1.07175e-08
2.42431e-05
1.07389e-08
2.4238e-05
1.06642e-08
2.42326e-05
1.09861e-08
2.42275e-05
1.09846e-08
2.42219e-05
1.11122e-08
2.4217e-05
9.70505e-09
2.42115e-05
1.12155e-08
2.42066e-05
9.72446e-09
2.42011e-05
1.11034e-08
2.41961e-05
9.89277e-09
2.41907e-05
1.05585e-08
2.41854e-05
1.07245e-08
2.41798e-05
1.09975e-08
2.41742e-05
1.08174e-08
2.41686e-05
1.06112e-08
2.41629e-05
1.1314e-08
2.4157e-05
1.09402e-08
2.41512e-05
1.06979e-08
2.41454e-05
1.07582e-08
2.41398e-05
1.05782e-08
2.41338e-05
1.13701e-08
2.41281e-05
1.1101e-08
2.41224e-05
1.05164e-08
2.41169e-05
1.03953e-08
2.41117e-05
9.5617e-09
2.41065e-05
9.50509e-09
2.41018e-05
8.34183e-09
2.40974e-05
7.83989e-09
2.40931e-05
7.42509e-09
2.40895e-05
6.06229e-09
2.40861e-05
5.25932e-09
2.40834e-05
4.51195e-09
2.40808e-05
3.33365e-09
2.40787e-05
2.64137e-09
2.40773e-05
1.56178e-09
2.40757e-05
1.23791e-09
2.40747e-05
2.98277e-10
2.4074e-05
-2.17136e-10
2.40735e-05
-1.52595e-09
2.40731e-05
-1.20696e-09
2.40729e-05
-2.15105e-09
2.40729e-05
-2.39681e-09
2.40731e-05
-2.31377e-09
2.40733e-05
-2.89689e-09
2.40738e-05
-3.25543e-09
2.40744e-05
-2.91869e-09
2.40753e-05
-3.62253e-09
2.40761e-05
-4.08381e-09
2.40773e-05
-4.11696e-09
2.40783e-05
-3.28139e-09
2.40791e-05
-3.63883e-09
2.40801e-05
-3.60755e-09
2.40812e-05
-3.24887e-09
2.40825e-05
-3.72786e-09
2.40839e-05
-4.27986e-09
2.40855e-05
-4.86985e-09
2.40873e-05
-4.98003e-09
2.4089e-05
-4.60063e-09
2.40909e-05
-5.61818e-09
2.40928e-05
-5.56565e-09
2.40949e-05
-5.68232e-09
2.4097e-05
-6.28547e-09
2.40992e-05
-6.06236e-09
2.41017e-05
-6.79073e-09
2.41039e-05
-6.02393e-09
2.41064e-05
-6.98764e-09
2.41087e-05
-6.2547e-09
2.41112e-05
-6.71863e-09
2.41133e-05
-6.38539e-09
2.41158e-05
-6.67362e-09
2.41176e-05
-5.7456e-09
2.41201e-05
-6.39603e-09
2.41225e-05
-6.40628e-09
2.41248e-05
-6.42668e-09
2.41271e-05
-5.81053e-09
2.41293e-05
-5.90217e-09
2.41315e-05
-5.9633e-09
2.4134e-05
-6.40293e-09
2.41356e-05
-4.77294e-09
2.41377e-05
-5.81068e-09
2.41394e-05
-4.98082e-09
2.41413e-05
-5.32979e-09
2.41427e-05
-4.71121e-09
2.41439e-05
-4.42857e-09
2.4145e-05
-3.93885e-09
2.41461e-05
-3.87707e-09
2.4147e-05
-2.93348e-09
2.41481e-05
-3.64147e-09
2.41486e-05
-2.77738e-09
2.41496e-05
-3.32641e-09
2.415e-05
-2.15503e-09
2.4151e-05
-2.2519e-09
2.41515e-05
-1.86657e-09
2.4152e-05
-2.18769e-09
2.41528e-05
-1.61672e-09
2.41532e-05
-1.1974e-09
2.41539e-05
-1.59582e-09
2.41542e-05
-5.30379e-10
2.41551e-05
-9.84992e-10
2.41551e-05
-2.09282e-10
2.41553e-05
-1.51317e-10
2.41554e-05
1.21531e-10
2.41554e-05
3.51615e-10
2.41553e-05
2.50983e-10
2.4155e-05
4.46416e-10
2.41551e-05
1.01758e-10
2.41543e-05
8.45658e-10
2.41537e-05
7.88097e-10
2.41527e-05
1.51124e-09
2.41512e-05
1.35869e-09
2.41498e-05
2.0031e-09
2.41481e-05
2.5636e-09
2.41461e-05
2.89649e-09
2.41434e-05
3.61024e-09
2.4141e-05
3.31098e-09
2.41386e-05
2.94836e-09
2.4136e-05
3.51272e-09
2.41329e-05
4.60567e-09
2.41297e-05
4.69684e-09
2.41268e-05
4.50158e-09
2.41236e-05
4.81027e-09
2.41204e-05
6.28376e-09
2.4117e-05
4.98429e-09
2.41133e-05
6.75524e-09
2.41096e-05
6.75663e-09
2.41059e-05
7.13146e-09
2.41022e-05
7.36147e-09
2.40986e-05
7.76155e-09
2.40953e-05
6.9733e-09
2.40923e-05
7.22511e-09
2.40895e-05
6.8574e-09
2.40873e-05
5.87205e-09
2.40853e-05
5.46097e-09
2.40837e-05
5.28549e-09
2.40829e-05
3.93114e-09
2.40813e-05
3.99371e-09
2.4081e-05
2.71776e-09
2.40799e-05
3.46532e-09
2.40793e-05
3.24039e-09
2.4079e-05
2.1131e-09
2.4079e-05
1.61047e-09
2.40791e-05
1.37276e-09
2.40796e-05
9.07462e-10
2.40804e-05
-7.76248e-10
2.40815e-05
-8.9419e-10
2.40827e-05
-5.68043e-10
2.4084e-05
-9.98555e-10
2.4086e-05
-2.56296e-09
2.40886e-05
-4.28709e-09
2.40915e-05
-5.55687e-09
2.40962e-05
-8.92187e-09
2.41008e-05
-8.34454e-09
2.41059e-05
-9.18081e-09
2.41114e-05
-1.04978e-08
2.41172e-05
-1.02563e-08
2.41238e-05
-1.18188e-08
2.41307e-05
-1.30533e-08
2.41383e-05
-1.399e-08
2.41465e-05
-1.44997e-08
2.41552e-05
-1.59721e-08
2.41649e-05
-1.77241e-08
2.41749e-05
-1.70601e-08
2.41861e-05
-2.3025e-08
2.41945e-05
-1.38917e-08
2.42093e-05
-2.97866e-08
2.42143e-05
-8.04901e-09
2.42379e-05
-4.79645e-08
2.4233e-05
1.19819e-08
2.42785e-05
-8.99228e-08
2.42496e-05
5.27385e-08
2.43368e-05
-1.63304e-07
2.42621e-05
1.23047e-07
2.44028e-05
-2.49316e-07
2.42565e-05
2.40582e-07
2.44481e-05
-3.21735e-07
2.42088e-05
3.95975e-07
2.44324e-05
-3.4878e-07
2.40927e-05
5.64869e-07
2.43071e-05
-2.97999e-07
2.38902e-05
7.03435e-07
2.40416e-05
-1.86876e-07
2.35428e-05
8.47897e-07
2.3492e-05
1.55829e-07
2.27318e-05
1.40453e-06
2.18662e-05
1.68371e-06
1.98195e-05
4.22197e-06
1.57563e-05
9.62383e-06
1.10359e-05
1.32326e-05
8.29517e-06
3.09896e-06
7.69031e-06
-8.52569e-07
6.70936e-06
1.60675e-06
5.36866e-06
1.94026e-06
3.50459e-06
3.22773e-06
1.68326e-06
2.55799e-06
-2.1318e-07
3.17288e-06
-1.52021e-06
2.40453e-06
-2.36565e-06
1.70384e-06
-5.90615e-06
3.59691e-05
7.53608e-07
3.57833e-05
8.60996e-07
3.54033e-05
1.41728e-06
3.50391e-05
1.38904e-06
3.46734e-05
1.44647e-06
3.43521e-05
1.31507e-06
3.40622e-05
1.28923e-06
3.37413e-05
1.26156e-06
3.34595e-05
1.15071e-06
3.31778e-05
1.39727e-06
3.29936e-05
1.32994e-06
3.27622e-05
1.86463e-06
3.25188e-05
9.55675e-07
3.19342e-05
1.39109e-06
3.13454e-05
1.79464e-06
3.06756e-05
2.58937e-06
3.01346e-05
2.78201e-06
2.98022e-05
2.3379e-06
2.98101e-05
2.30962e-07
2.99768e-05
-8.75321e-07
3.04216e-05
-1.48606e-06
3.05293e-05
8.45881e-07
3.06546e-05
1.25533e-06
3.07669e-05
-7.55595e-08
3.08026e-05
-1.63658e-06
3.0954e-05
-1.6582e-06
3.10746e-05
2.2697e-07
3.1141e-05
1.41959e-06
3.09072e-05
1.69269e-06
3.07812e-05
5.00556e-07
3.06466e-05
4.98277e-07
3.04952e-05
1.00158e-06
3.05325e-05
4.33367e-07
3.06688e-05
-5.51196e-07
3.06962e-05
-7.06256e-07
3.05829e-05
-4.39525e-07
3.03888e-05
-6.53187e-07
3.01732e-05
-1.48145e-07
3.00865e-05
1.11536e-06
3.00491e-05
1.72793e-06
3.00586e-05
8.44255e-07
2.99968e-05
3.03249e-08
2.99117e-05
-1.80607e-07
2.97578e-05
-5.48727e-08
2.95475e-05
1.60447e-07
2.94635e-05
2.04544e-08
2.94643e-05
-1.76749e-07
2.94412e-05
1.71681e-07
2.94156e-05
4.37258e-07
2.93149e-05
4.65292e-07
2.91924e-05
1.94959e-07
2.90376e-05
2.1261e-07
2.8992e-05
-7.57442e-09
2.89846e-05
-1.95732e-08
2.90089e-05
-6.38755e-08
2.90347e-05
-6.22049e-08
2.90501e-05
-7.71111e-08
2.90549e-05
-9.66177e-08
2.9029e-05
-2.88527e-08
2.89914e-05
1.57232e-08
2.89209e-05
1.08286e-07
2.88394e-05
1.05651e-07
2.87674e-05
1.4376e-07
2.8719e-05
1.10435e-07
2.86735e-05
1.28424e-07
2.86529e-05
7.80109e-08
2.86295e-05
7.45823e-08
2.86194e-05
2.80264e-08
2.86004e-05
5.07918e-08
2.85786e-05
4.19022e-08
2.85425e-05
6.64175e-08
2.84937e-05
7.0143e-08
2.84386e-05
6.38682e-08
2.83874e-05
6.7519e-08
2.83489e-05
5.16344e-08
2.8312e-05
8.43252e-08
2.82923e-05
3.52779e-08
2.82724e-05
3.32024e-08
2.8265e-05
6.60656e-09
2.82506e-05
3.01912e-08
2.824e-05
-1.16315e-08
2.82103e-05
4.35686e-08
2.81813e-05
4.57795e-08
2.81276e-05
1.34881e-07
2.80762e-05
1.21598e-07
2.80168e-05
1.37162e-07
2.79742e-05
7.29654e-08
2.79243e-05
1.26591e-07
2.78885e-05
1.32443e-07
2.78512e-05
1.28985e-07
2.78253e-05
2.53985e-08
2.7804e-05
-1.51543e-08
2.77967e-05
-3.20062e-08
2.77823e-05
5.50922e-09
2.77722e-05
-3.58035e-09
2.77565e-05
1.60581e-08
2.77486e-05
-1.12919e-08
2.77408e-05
-5.95369e-09
2.77402e-05
-3.33742e-08
2.77348e-05
-1.98285e-08
2.77353e-05
-3.5533e-08
2.77303e-05
-1.69368e-08
2.77296e-05
-2.93799e-08
2.77222e-05
-1.15117e-08