/*--------------------------------*- C++ -*----------------------------------*\
| =========                 |                                                 |
| \\      /  F ield         | foam-extend: Open Source CFD                    |
|  \\    /   O peration     | Version:     3.2                                |
|   \\  /    A nd           | Web:         http://www.foam-extend.org         |
|    \\/     M anipulation  | For copyright notice see file Copyright         |
\*---------------------------------------------------------------------------*/
FoamFile
{
    version     2.0;
    format      ascii;
    class       areaVectorField;
    location    "840";
    object      PointNormalVector;
}
// * * * * * * * * * * * * * * * * * * * * * * * * * * * * * * * * * * * * * //

dimensions      [0 0 0 0 0 0 0];

internalField   nonuniform List<vector> 
550
(
(7.27272e-07 0 0.000363636)
(7.27274e-07 0 0.000363636)
(7.27274e-07 2.64698e-23 0.000363638)
(7.2728e-07 -2.64698e-23 0.000363636)
(7.2726e-07 -2.64698e-23 0.000363636)
(7.2728e-07 0 0.000363638)
(7.2726e-07 2.64698e-23 0.00036364)
(7.2728e-07 2.64698e-23 0.00036364)
(7.2728e-07 0 0.00036362)
(7.2726e-07 0 0.00036364)
(1.75955e-06 0 0.00036364)
(-1.58441e-06 -5.29396e-23 0.00036364)
(3.25449e-06 0 0.00036364)
(-1.31699e-06 0 0.00036362)
(2.47972e-06 0 0.00036364)
(-1.62852e-06 5.29396e-23 0.00036364)
(1.03553e-06 2.64698e-23 0.00036364)
(1.45246e-06 0 0.00036364)
(4.9503e-07 -1.32349e-23 0.00036364)
(-2.08101e-06 0 0.00036362)
(7.24053e-06 2.11758e-22 0.00036364)
(-7.53103e-06 0 0.00036364)
(3.21558e-06 0 0.00036364)
(1.82251e-06 0 0.00036364)
(-5.90745e-06 -2.11758e-22 0.00036362)
(-3.31651e-06 -1.05879e-22 0.00036364)
(-9.78996e-07 0 0.00036364)
(2.2387e-06 0 0.00036364)
(-2.52141e-06 0 0.00036364)
(2.0717e-06 0 0.00036364)
(3.17557e-06 0 0.00036362)
(-2.53051e-07 -6.61744e-24 0.00036364)
(5.26596e-06 0 0.00036364)
(3.86902e-06 -1.05879e-22 0.00036364)
(-3.43652e-06 0 0.00036364)
(-2.8257e-06 1.05879e-22 0.00036362)
(2.57999e-06 0 0.00036364)
(2.14661e-06 0 0.00036364)
(2.86575e-06 1.05879e-22 0.00036364)
(3.55821e-06 0 0.00036364)
(2.46603e-06 0 0.00036364)
(-2.63961e-06 1.05879e-22 0.00036362)
(-2.47217e-06 0 0.00036364)
(8.86104e-07 -2.64698e-23 0.00036364)
(-7.90433e-07 0 0.00036364)
(1.05033e-06 0 0.00036364)
(2.76823e-06 0 0.00036362)
(-5.80987e-07 2.64698e-23 0.00036364)
(-8.20919e-07 0 0.00036364)
(-1.01467e-06 0 0.00036364)
(1.19122e-06 5.29396e-23 0.00036364)
(-1.12661e-06 0 0.00036364)
(-2.03574e-06 5.29396e-23 0.00036362)
(-4.16469e-06 1.05879e-22 0.00036364)
(-3.66104e-06 0 0.00036364)
(-3.49307e-06 0 0.0003636)
(-3.18986e-06 0 0.0003636)
(-2.56767e-06 -1.05879e-22 0.0003638)
(-2.88552e-06 -2.11758e-22 0.0003636)
(-2.33993e-06 0 0.0003636)
(-1.97245e-06 -5.29396e-23 0.0003636)
(-1.94876e-06 0 0.0003636)
(-2.49283e-06 0 0.0003636)
(-1.96584e-06 -5.29396e-23 0.0003638)
(-2.21852e-06 1.05879e-22 0.0003636)
(-1.77868e-06 0 0.0003636)
(-1.90752e-06 0 0.0003636)
(-1.70968e-06 0 0.0003636)
(-1.63133e-06 0 0.0003638)
(-1.22985e-06 -5.29396e-23 0.0003636)
(-1.29218e-06 0 0.0003636)
(-1.32119e-06 -5.29396e-23 0.0003636)
(-1.67377e-06 0 0.0003636)
(-1.93855e-06 0 0.0003636)
(-1.74301e-06 5.29396e-23 0.0003638)
(-1.63166e-06 0 0.0003636)
(-1.2504e-06 5.29396e-23 0.0003636)
(-1.66061e-06 5.29396e-23 0.0003636)
(-1.29632e-06 0 0.0003636)
(-1.26034e-06 0 0.0003638)
(-1.14782e-06 0 0.0003636)
(-1.43484e-06 5.29396e-23 0.0003636)
(-6.30446e-07 0 0.0003636)
(-6.63753e-07 0 0.0003636)
(-2.39032e-07 0 0.0003636)
(-5.0385e-07 0 0.0003638)
(-4.39997e-07 0 0.0003636)
(-6.56707e-07 0 0.0003636)
(1.37643e-07 0 0.0003636)
(1.01647e-07 0 0.0003636)
(-6.86222e-07 2.64698e-23 0.0003638)
(-1.61082e-06 0 0.0003636)
(-1.41482e-06 0 0.0003636)
(-1.50199e-06 0 0.0003636)
(-1.34791e-06 0 0.0003636)
(-1.55273e-06 -5.29396e-23 0.0003636)
(-1.46982e-06 0 0.0003638)
(-1.73587e-06 0 0.0003636)
(-1.6858e-06 5.29396e-23 0.0003636)
(-1.88725e-06 0 0.0003636)
(-1.74872e-06 0 0.0003636)
(-1.88372e-06 -5.29396e-23 0.0003638)
(-1.74891e-06 0 0.0003636)
(-1.90832e-06 5.29396e-23 0.0003636)
(-1.78057e-06 -5.29396e-23 0.0003636)
(-1.91152e-06 5.29396e-23 0.0003636)
(-1.75227e-06 0 0.0003636)
(-1.86695e-06 0 0.0003638)
(-1.70349e-06 5.29396e-23 0.0003636)
(-1.83251e-06 -5.29396e-23 0.0003636)
(-1.68625e-06 0 0.0003636)
(-1.83269e-06 0 0.0003636)
(-1.69595e-06 5.29396e-23 0.0003638)
(-1.84814e-06 0 0.0003636)
(-1.70077e-06 5.29396e-23 0.0003636)
(-1.85003e-06 0 0.0003636)
(-1.67907e-06 0 0.0003636)
(-1.80409e-06 -5.29396e-23 0.0003636)
(-1.6405e-06 0 0.0003638)
(-1.76773e-06 0 0.0003636)
(-1.58485e-06 0 0.0003636)
(-1.69986e-06 5.29396e-23 0.0003636)
(-1.53817e-06 5.29396e-23 0.0003636)
(-1.6825e-06 0 0.0003638)
(-1.53971e-06 0 0.0003636)
(-1.68496e-06 0 0.0003636)
(-1.53878e-06 5.29396e-23 0.0003636)
(-1.67251e-06 -5.29396e-23 0.0003636)
(-1.52608e-06 0 0.0003636)
(-1.65189e-06 -5.29396e-23 0.0003638)
(-1.50903e-06 0 0.0003636)
(-1.62656e-06 0 0.0003636)
(-1.48634e-06 0 0.0003636)
(-1.59758e-06 0 0.0003636)
(-1.46236e-06 0 0.0003638)
(-1.5622e-06 0 0.0003636)
(-1.43416e-06 -5.29396e-23 0.0003636)
(-1.52227e-06 -5.29396e-23 0.0003636)
(-1.40209e-06 5.29396e-23 0.0003636)
(-1.47864e-06 0 0.0003636)
(-1.36538e-06 5.29396e-23 0.0003638)
(-1.42647e-06 5.29396e-23 0.0003636)
(-1.31961e-06 0 0.0003636)
(-1.37397e-06 5.29396e-23 0.0003636)
(-1.27832e-06 0 0.0003636)
(-1.31729e-06 -5.29396e-23 0.0003638)
(-1.23227e-06 -5.29396e-23 0.0003636)
(-1.2565e-06 -5.29396e-23 0.0003636)
(-1.1837e-06 0 0.0003636)
(-1.19266e-06 0 0.0003636)
(-1.13436e-06 0 0.0003636)
(-1.12883e-06 -5.29396e-23 0.0003638)
(-1.08291e-06 0 0.0003636)
(-1.06128e-06 5.29396e-23 0.0003636)
(-1.03005e-06 0 0.0003636)
(-9.92191e-07 0 0.0003636)
(-9.74316e-07 -2.64698e-23 0.0003638)
(-9.2119e-07 2.64698e-23 0.0003636)
(-9.23209e-07 0 0.0003636)
(-8.51693e-07 2.64698e-23 0.0003636)
(-8.67552e-07 0 0.0003636)
(-7.84242e-07 0 0.0003636)
(-8.20795e-07 0 0.0003638)
(-7.19926e-07 0 0.0003636)
(-7.7023e-07 2.64698e-23 0.0003636)
(-6.50319e-07 0 0.0003636)
(-7.20415e-07 -2.64698e-23 0.0003636)
(-5.88298e-07 2.64698e-23 0.0003638)
(-6.69864e-07 0 0.0003636)
(-5.24005e-07 -1.32349e-23 0.0003636)
(-6.26384e-07 0 0.0003636)
(-4.61369e-07 0 0.0003636)
(-5.76569e-07 0 0.0003636)
(-3.98531e-07 0 0.0003638)
(-5.32147e-07 0 0.0003636)
(-3.43749e-07 0 0.0003636)
(-4.89487e-07 0 0.0003636)
(-2.82052e-07 -1.32349e-23 0.0003636)
(-4.47208e-07 -1.32349e-23 0.0003638)
(-2.26691e-07 0 0.0003636)
(-4.14238e-07 1.32349e-23 0.0003636)
(-1.68442e-07 0 0.0003636)
(-3.86603e-07 0 0.0003636)
(-1.15881e-07 0 0.0003636)
(-3.7421e-07 0 0.0003638)
(-5.22329e-08 0 0.0003636)
(-3.92674e-07 0 0.0003636)
(3.70597e-08 0 0.0003636)
(-4.63221e-07 0 0.0003636)
(1.6252e-07 0 0.0003638)
(-5.36418e-07 0 0.0003636)
(3.08189e-07 0 0.0003636)
(-5.9996e-07 0 0.0003636)
(4.57831e-07 0 0.0003636)
(-6.65752e-07 2.64698e-23 0.0003636)
(6.09506e-07 0 0.0003638)
(-7.28762e-07 0 0.0003636)
(7.69038e-07 0 0.0003636)
(-7.87366e-07 0 0.0003636)
(9.41089e-07 0 0.0003636)
(-8.4393e-07 0 0.0003638)
(1.11407e-06 0 0.0003636)
(-8.9488e-07 0 0.0003636)
(1.29519e-06 0 0.0003636)
(-9.17847e-07 -2.64698e-23 0.0003636)
(1.46559e-06 0 0.0003636)
(-9.06654e-07 0 0.0003638)
(1.62803e-06 0 0.0003636)
(-8.60821e-07 0 0.0003636)
(1.75123e-06 0 0.0003636)
(-7.39868e-07 -2.64698e-23 0.0003636)
(1.81631e-06 -5.29396e-23 0.0003638)
(-5.72948e-07 0 0.0003636)
(1.80378e-06 -5.29396e-23 0.0003636)
(-3.37247e-07 0 0.0003636)
(1.67849e-06 -5.29396e-23 0.0003636)
(-8.85597e-08 0 0.0003636)
(1.50038e-06 0 0.0003638)
(1.3418e-07 0 0.0003636)
(1.3562e-06 0 0.0003636)
(3.1133e-07 0 0.0003636)
(1.26221e-06 0 0.0003636)
(4.57072e-07 0 0.0003638)
(1.17628e-06 -5.29396e-23 0.0003636)
(5.69368e-07 0 0.0003636)
(1.11538e-06 0 0.0003636)
(6.51779e-07 0 0.0003636)
(1.0637e-06 0 0.0003636)
(7.22143e-07 -2.64698e-23 0.0003638)
(1.04645e-06 0 0.0003636)
(7.79363e-07 0 0.0003636)
(1.02736e-06 0 0.0003636)
(8.30007e-07 -2.64698e-23 0.0003636)
(1.02735e-06 0 0.0003638)
(8.69929e-07 0 0.0003636)
(1.0166e-06 0 0.0003636)
(8.956e-07 0 0.0003636)
(1.00084e-06 0 0.0003636)
(9.04979e-07 0 0.0003636)
(9.92408e-07 0 0.0003638)
(9.14285e-07 -2.64698e-23 0.0003636)
(9.66857e-07 -2.64698e-23 0.0003636)
(9.26749e-07 0 0.0003636)
(9.52892e-07 0 0.0003636)
(9.1524e-07 0 0.0003638)
(9.41091e-07 0 0.0003636)
(9.18203e-07 0 0.0003636)
(9.26451e-07 0 0.0003636)
(9.01523e-07 0 0.0003636)
(9.18517e-07 0 0.0003636)
(8.91177e-07 0 0.0003638)
(8.98169e-07 0 0.0003636)
(8.7711e-07 0 0.0003636)
(8.76456e-07 -2.64698e-23 0.0003636)
(8.60215e-07 0 0.0003636)
(8.53932e-07 0 0.0003638)
(8.44051e-07 0 0.0003636)
(8.19923e-07 0 0.0003636)
(8.17676e-07 0 0.0003636)
(7.9917e-07 0 0.0003636)
(7.86433e-07 -2.64698e-23 0.0003636)
(7.66142e-07 -2.64698e-23 0.0003638)
(7.53344e-07 0 0.0003636)
(7.34245e-07 0 0.0003636)
(7.14274e-07 2.64698e-23 0.0003636)
(6.86263e-07 0 0.0003636)
(6.80499e-07 2.64698e-23 0.0003638)
(6.45892e-07 0 0.0003636)
(6.3571e-07 0 0.0003636)
(6.0471e-07 0 0.0003636)
(5.92236e-07 -2.64698e-23 0.0003636)
(5.68306e-07 -2.64698e-23 0.0003636)
(5.46824e-07 2.64698e-23 0.0003638)
(5.1653e-07 0 0.0003636)
(5.04758e-07 1.32349e-23 0.0003636)
(4.83218e-07 -1.32349e-23 0.0003636)
(4.62805e-07 1.32349e-23 0.0003636)
(4.46205e-07 0 0.0003638)
(4.18397e-07 0 0.0003636)
(3.91895e-07 1.32349e-23 0.0003636)
(3.78015e-07 0 0.0003636)
(3.57989e-07 0 0.0003636)
(3.37364e-07 0 0.0003636)
(3.09654e-07 1.32349e-23 0.0003638)
(3.08307e-07 1.32349e-23 0.0003636)
(2.76118e-07 1.32349e-23 0.0003636)
(2.716e-07 1.32349e-23 0.0003636)
(2.46475e-07 6.61744e-24 0.0003636)
(2.39639e-07 0 0.0003638)
(2.20766e-07 -6.61744e-24 0.0003636)
(2.13078e-07 -6.61744e-24 0.0003636)
(1.97858e-07 0 0.0003636)
(1.89748e-07 0 0.0003636)
(1.79896e-07 6.61744e-24 0.0003636)
(1.72604e-07 0 0.0003638)
(1.65421e-07 6.61744e-24 0.0003636)
(1.58112e-07 6.61744e-24 0.0003636)
(1.5567e-07 0 0.0003636)
(1.49943e-07 0 0.0003636)
(1.49701e-07 0 0.0003638)
(1.43359e-07 6.61744e-24 0.0003636)
(1.46206e-07 0 0.0003636)
(1.39855e-07 0 0.0003636)
(1.45169e-07 6.61744e-24 0.0003636)
(1.38569e-07 -6.61744e-24 0.0003636)
(1.46537e-07 0 0.0003638)
(1.34317e-07 0 0.0003636)
(1.565e-07 0 0.0003636)
(1.41063e-07 -6.61744e-24 0.0003636)
(1.57109e-07 0 0.0003636)
(1.48821e-07 0 0.0003638)
(1.60289e-07 0 0.0003636)
(1.57546e-07 -6.61744e-24 0.0003636)
(1.61682e-07 0 0.0003636)
(1.7563e-07 0 0.0003636)
(1.71328e-07 0 0.0003636)
(1.78482e-07 0 0.0003638)
(1.85021e-07 0 0.0003636)
(1.9613e-07 0 0.0003636)
(2.0689e-07 6.61744e-24 0.0003636)
(2.09474e-07 -6.61744e-24 0.0003636)
(2.09951e-07 0 0.0003638)
(2.24332e-07 0 0.0003636)
(2.23868e-07 -6.61744e-24 0.0003636)
(2.38958e-07 0 0.0003636)
(2.38562e-07 0 0.0003636)
(2.52639e-07 0 0.0003636)
(2.53645e-07 -6.61744e-24 0.0003638)
(2.65603e-07 0 0.0003636)
(2.61587e-07 0 0.0003636)
(2.84412e-07 -1.32349e-23 0.0003636)
(2.89892e-07 0 0.0003636)
(2.9921e-07 0 0.0003638)
(2.99661e-07 0 0.0003636)
(3.17065e-07 0 0.0003636)
(3.23068e-07 0 0.0003636)
(3.35915e-07 0 0.0003636)
(3.44086e-07 0 0.0003636)
(3.5396e-07 0 0.0003638)
(3.63052e-07 0 0.0003636)
(3.64947e-07 0 0.0003636)
(3.89764e-07 0 0.0003636)
(3.84074e-07 0 0.0003636)
(3.98103e-07 0 0.0003638)
(4.08167e-07 1.32349e-23 0.0003636)
(4.11475e-07 0 0.0003636)
(4.12885e-07 -1.32349e-23 0.0003636)
(4.269e-07 0 0.0003636)
(4.34503e-07 0 0.0003636)
(4.35716e-07 0 0.0003638)
(4.3988e-07 1.32349e-23 0.0003636)
(4.43298e-07 0 0.0003636)
(4.44879e-07 0 0.0003636)
(4.50117e-07 0 0.0003636)
(4.49143e-07 0 0.0003638)
(4.55746e-07 1.32349e-23 0.0003636)
(4.53755e-07 1.32349e-23 0.0003636)
(4.60414e-07 0 0.0003636)
(4.52616e-07 0 0.0003636)
(4.7698e-07 0 0.0003636)
(4.63331e-07 0 0.0003638)
(4.81486e-07 0 0.0003636)
(4.74199e-07 0 0.0003636)
(4.82946e-07 0 0.0003636)
(4.94679e-07 0 0.0003636)
(4.93382e-07 0 0.0003638)
(4.94823e-07 0 0.0003636)
(5.05228e-07 0 0.0003636)
(5.12783e-07 0 0.0003636)
(5.08506e-07 -1.32349e-23 0.0003636)
(5.05806e-07 -1.32349e-23 0.0003636)
(5.11123e-07 0 0.0003638)
(5.08355e-07 1.32349e-23 0.0003636)
(5.15023e-07 0 0.0003636)
(5.01858e-07 0 0.0003636)
(4.93583e-07 1.32349e-23 0.0003636)
(4.96731e-07 1.32349e-23 0.0003638)
(4.76313e-07 -1.32349e-23 0.0003636)
(4.71677e-07 0 0.0003636)
(4.52691e-07 0 0.0003636)
(4.42351e-07 0 0.0003636)
(4.29478e-07 -1.32349e-23 0.0003636)
(4.00394e-07 1.32349e-23 0.0003638)
(3.94194e-07 0 0.0003636)
(3.77066e-07 0 0.0003636)
(3.55043e-07 -1.32349e-23 0.0003636)
(3.40154e-07 1.32349e-23 0.0003636)
(3.20753e-07 0 0.0003638)
(3.10249e-07 0 0.0003636)
(2.8358e-07 0 0.0003636)
(2.67669e-07 1.32349e-23 0.0003636)
(2.55311e-07 0 0.0003636)
(2.47955e-07 0 0.0003636)
(2.26968e-07 0 0.0003638)
(2.14492e-07 0 0.0003636)
(2.1258e-07 0 0.0003636)
(1.92645e-07 0 0.0003636)
(1.82983e-07 6.61744e-24 0.0003636)
(1.85739e-07 -6.61744e-24 0.0003638)
(1.67474e-07 0 0.0003636)
(1.60981e-07 0 0.0003636)
(1.61668e-07 0 0.0003636)
(1.63152e-07 6.61744e-24 0.0003636)
(1.52919e-07 0 0.0003636)
(1.49029e-07 0 0.0003638)
(1.58151e-07 0 0.0003636)
(1.46175e-07 0 0.0003636)
(1.44703e-07 0 0.0003636)
(1.52044e-07 0 0.0003636)
(1.43677e-07 0 0.0003638)
(1.48043e-07 0 0.0003636)
(1.41896e-07 0 0.0003636)
(1.44426e-07 0 0.0003636)
(1.4358e-07 0 0.0003636)
(1.42238e-07 -6.61744e-24 0.0003636)
(1.47336e-07 0 0.0003638)
(1.45365e-07 0 0.0003636)
(1.58081e-07 -6.61744e-24 0.0003636)
(1.40532e-07 0 0.0003636)
(1.61799e-07 6.61744e-24 0.0003636)
(1.55805e-07 0 0.0003638)
(1.5487e-07 -6.61744e-24 0.0003636)
(1.61123e-07 0 0.0003636)
(1.70486e-07 0 0.0003636)
(1.62182e-07 0 0.0003636)
(1.63639e-07 0 0.0003636)
(1.67996e-07 0 0.0003638)
(1.80156e-07 0 0.0003636)
(1.69433e-07 0 0.0003636)
(1.73386e-07 0 0.0003636)
(1.74677e-07 0 0.0003636)
(1.87778e-07 0 0.0003638)
(1.69701e-07 0 0.0003636)
(1.91993e-07 0 0.0003636)
(1.85303e-07 0 0.0003636)
(1.82448e-07 0 0.0003636)
(1.87879e-07 0 0.0003636)
(1.91204e-07 0 0.0003638)
(1.92893e-07 6.61744e-24 0.0003636)
(2.05854e-07 -6.61744e-24 0.0003636)
(1.86909e-07 0 0.0003636)
(2.08743e-07 0 0.0003636)
(1.98284e-07 0 0.0003638)
(2.15228e-07 0 0.0003636)
(2.15516e-07 0 0.0003636)
(2.0765e-07 0 0.0003636)
(2.15414e-07 0 0.0003636)
(2.33957e-07 0 0.0003636)
(2.30012e-07 0 0.0003638)
(2.38328e-07 0 0.0003636)
(2.60273e-07 0 0.0003636)
(2.5523e-07 -6.61744e-24 0.0003636)
(2.63052e-07 -1.32349e-23 0.0003636)
(2.76583e-07 0 0.0003638)
(2.84259e-07 0 0.0003636)
(2.96464e-07 0 0.0003636)
(3.04085e-07 0 0.0003636)
(3.14721e-07 0 0.0003636)
(3.20898e-07 -1.32349e-23 0.0003636)
(3.29263e-07 0 0.0003638)
(3.33393e-07 1.32349e-23 0.0003636)
(3.37488e-07 0 0.0003636)
(3.31401e-07 0 0.0003636)
(3.50189e-07 0 0.0003636)
(3.57818e-07 0 0.0003638)
(3.54991e-07 0 0.0003636)
(3.59539e-07 0 0.0003636)
(3.55609e-07 0 0.0003636)
(3.50595e-07 0 0.0003636)
(3.62088e-07 0 0.0003636)
(3.71075e-07 -1.32349e-23 0.0003638)
(3.59997e-07 0 0.0003636)
(3.56933e-07 0 0.0003636)
(3.62871e-07 0 0.0003636)
(3.71397e-07 0 0.0003636)
(3.44607e-07 0 0.0003638)
(3.65296e-07 0 0.0003636)
(3.52582e-07 0 0.0003636)
(3.39903e-07 -1.32349e-23 0.0003636)
(3.40961e-07 0 0.0003636)
(3.38891e-07 -1.32349e-23 0.0003636)
(3.09388e-07 0 0.0003638)
(3.18851e-07 0 0.0003636)
(3.03632e-07 0 0.0003636)
(2.82148e-07 0 0.0003636)
(2.81338e-07 0 0.0003636)
(2.74731e-07 0 0.0003638)
(2.43121e-07 0 0.0003636)
(2.46176e-07 0 0.0003636)
(2.26241e-07 6.61744e-24 0.0003636)
(2.22061e-07 0 0.0003636)
(2.13566e-07 6.61744e-24 0.0003636)
(1.79201e-07 0 0.0003638)
(1.8303e-07 0 0.0003636)
(1.61843e-07 0 0.0003636)
(1.40422e-07 0 0.0003636)
(1.04438e-07 -3.30872e-24 0.0003636)
(9.35312e-08 0 0.0003638)
(6.65749e-08 0 0.0003636)
(2.36224e-08 0 0.0003636)
(-5.74722e-09 0 0.0003636)
(-5.4714e-08 0 0.0003636)
(-9.85854e-08 0 0.0003636)
(-1.47881e-07 -6.61744e-24 0.0003638)
(-1.63133e-07 0 0.0003636)
(-2.13217e-07 6.61744e-24 0.0003636)
(-2.57326e-07 0 0.0003636)
(-2.7634e-07 -1.32349e-23 0.0003636)
(-3.29598e-07 0 0.0003638)
(-3.72643e-07 -1.32349e-23 0.0003636)
(-4.0237e-07 0 0.0003636)
(-4.39815e-07 0 0.0003636)
(-5.00036e-07 0 0.0003636)
(-5.31592e-07 2.64698e-23 0.0003636)
(-5.80902e-07 -2.64698e-23 0.0003638)
(-6.45063e-07 -2.64698e-23 0.0003636)
(-6.20041e-07 -2.64698e-23 0.0003636)
(-8.14538e-07 0 0.0003636)
(-5.66456e-07 0 0.0003636)
(-1.18282e-06 5.29396e-23 0.0003638)
(-2.49436e-07 0 0.0003636)
(-2.03901e-06 -5.29396e-23 0.0003636)
(6.4013e-07 2.64698e-23 0.0003636)
(-3.50933e-06 -1.05879e-22 0.0003636)
(2.39768e-06 0 0.0003636)
(-5.07017e-06 2.11758e-22 0.0003638)
(5.10387e-06 0 0.0003636)
(-6.16934e-06 2.11758e-22 0.0003636)
(8.77027e-06 0 0.0003636)
(-5.95991e-06 0 0.0003636)
(1.31432e-05 0 0.0003638)
(-3.29403e-06 0 0.0003636)
(1.74753e-05 0 0.0003636)
(2.69359e-06 0 0.0003636)
(2.44145e-05 0 0.0003636)
(1.47486e-05 -4.23516e-22 0.0003636)
(4.25872e-05 1.69407e-21 0.0003638)
(4.72901e-05 0 0.0003636)
(0.00010484 0 0.0003636)
(0.000184781 -6.77626e-21 0.0003636)
(7.26e-07 0 0.0003636)
(7.28e-07 2.64698e-23 0.0003638)
(7.28e-07 0 0.0003636)
(7.26e-07 -2.64698e-23 0.0003636)
(7.28e-07 0 0.0003636)
(7.26e-07 -2.64698e-23 0.0003636)
(7.28e-07 -2.64698e-23 0.0003636)
(7.28e-07 0 0.0003638)
(7.26e-07 0 0.0003636)
(7.28e-07 -2.64698e-23 0.0003636)
)
;

boundaryField
{
    inlet
    {
        type            calculated;
        value           uniform (0 0 0);
    }
    endWall
    {
        type            calculated;
        value           uniform (0 0 0);
    }
    sideWall
    {
        type            empty;
    }
}


// ************************************************************************* //
