/*--------------------------------*- C++ -*----------------------------------*\
| =========                 |                                                 |
| \\      /  F ield         | foam-extend: Open Source CFD                    |
|  \\    /   O peration     | Version:     3.2                                |
|   \\  /    A nd           | Web:         http://www.foam-extend.org         |
|    \\/     M anipulation  | For copyright notice see file Copyright         |
\*---------------------------------------------------------------------------*/
FoamFile
{
    version     2.0;
    format      ascii;
    class       edgeScalarField;
    location    "840";
    object      q_f;
}
// * * * * * * * * * * * * * * * * * * * * * * * * * * * * * * * * * * * * * //

dimensions      [0 3 -1 0 0 0 0];

internalField   nonuniform List<scalar> 
549
(
0
0
0
2.17279e-09
8.33848e-09
1.76102e-08
2.94448e-08
4.30128e-08
5.69146e-08
7.08724e-08
8.31528e-08
9.42635e-08
6.86646e-08
3.78489e-08
7.62046e-08
9.04341e-08
9.08107e-08
1.12397e-07
1.09021e-07
5.78331e-08
2.50806e-08
6.94162e-08
9.33681e-08
8.68735e-08
5.7605e-08
2.74515e-08
2.20011e-08
4.91027e-08
7.71706e-08
4.52683e-08
4.2006e-08
6.96604e-08
6.6922e-08
3.2497e-08
3.02509e-08
6.02429e-08
2.99929e-08
0
2.58725e-08
5.08453e-08
4.92968e-08
4.87555e-08
4.89398e-08
4.8159e-08
4.68509e-08
4.57986e-08
2.25986e-08
2.13646e-08
4.25433e-08
4.2334e-08
4.15919e-08
4.03134e-08
3.9106e-08
3.82708e-08
3.79698e-08
3.78834e-08
3.80217e-08
3.81449e-08
3.84909e-08
3.8878e-08
3.8918e-08
3.87941e-08
3.85271e-08
3.82048e-08
3.78995e-08
3.76871e-08
3.75819e-08
3.76002e-08
3.76703e-08
3.77633e-08
3.7832e-08
3.78664e-08
3.78804e-08
3.78715e-08
3.78456e-08
3.78089e-08
3.77911e-08
3.78178e-08
3.78503e-08
3.78645e-08
3.78892e-08
3.78912e-08
3.784e-08
3.77637e-08
3.76743e-08
3.75906e-08
3.75263e-08
3.74643e-08
3.73743e-08
3.72694e-08
3.72277e-08
3.72291e-08
3.72231e-08
3.72101e-08
3.72028e-08
3.72017e-08
3.72166e-08
3.72495e-08
3.73004e-08
3.73619e-08
3.74286e-08
3.74946e-08
3.75568e-08
3.76126e-08
3.76578e-08
3.76909e-08
3.77125e-08
3.77262e-08
3.77368e-08
3.77498e-08
3.77691e-08
3.77965e-08
3.78311e-08
3.78716e-08
3.79147e-08
3.79588e-08
3.79999e-08
3.80374e-08
3.80707e-08
3.8099e-08
3.81219e-08
3.814e-08
3.81555e-08
3.81697e-08
3.81838e-08
3.81973e-08
3.82106e-08
3.82232e-08
3.82357e-08
3.82477e-08
3.82605e-08
3.82734e-08
3.82884e-08
3.83043e-08
3.83226e-08
3.83411e-08
3.83609e-08
3.83792e-08
3.83972e-08
3.84115e-08
3.84233e-08
3.84294e-08
3.84324e-08
3.84309e-08
3.84288e-08
3.84244e-08
3.84214e-08
3.84173e-08
3.84156e-08
3.84128e-08
3.84122e-08
3.84097e-08
3.84081e-08
3.84036e-08
3.83999e-08
3.83927e-08
3.83857e-08
3.83749e-08
3.83641e-08
3.83496e-08
3.83355e-08
3.83184e-08
3.83022e-08
3.82829e-08
3.82644e-08
3.82423e-08
3.82211e-08
3.81962e-08
3.81716e-08
3.81435e-08
3.81161e-08
3.80857e-08
3.8057e-08
3.80264e-08
3.79987e-08
3.797e-08
3.79445e-08
3.79182e-08
3.78952e-08
3.78711e-08
3.78499e-08
3.78261e-08
3.78051e-08
3.77793e-08
3.7758e-08
3.77268e-08
3.77073e-08
3.76702e-08
3.7658e-08
3.76234e-08
3.76186e-08
3.75895e-08
3.75909e-08
3.75671e-08
3.75743e-08
3.75544e-08
3.75659e-08
3.75487e-08
3.7563e-08
3.7548e-08
3.75637e-08
3.75494e-08
3.75649e-08
3.75506e-08
3.75624e-08
3.75474e-08
3.75523e-08
3.75368e-08
3.75314e-08
3.7515e-08
3.74937e-08
3.74767e-08
3.74359e-08
3.74178e-08
3.7352e-08
3.73315e-08
3.72541e-08
3.72311e-08
3.71593e-08
3.71348e-08
3.70725e-08
3.70473e-08
3.69921e-08
3.69649e-08
3.69149e-08
3.68862e-08
3.68399e-08
3.68098e-08
3.67671e-08
3.6737e-08
3.66962e-08
3.6665e-08
3.66261e-08
3.65951e-08
3.65569e-08
3.65242e-08
3.6486e-08
3.64515e-08
3.64129e-08
3.63782e-08
3.63397e-08
3.63037e-08
3.62661e-08
3.62294e-08
3.6191e-08
3.61539e-08
3.61158e-08
3.60779e-08
3.60392e-08
3.60018e-08
3.59632e-08
3.59254e-08
3.58865e-08
3.58482e-08
3.58091e-08
3.57707e-08
3.57324e-08
3.56945e-08
3.56579e-08
3.56222e-08
3.55869e-08
3.55525e-08
3.55189e-08
3.54867e-08
3.5455e-08
3.54246e-08
3.53959e-08
3.53679e-08
3.53413e-08
3.53154e-08
3.5291e-08
3.52675e-08
3.52446e-08
3.52222e-08
3.52011e-08
3.51809e-08
3.51612e-08
3.51424e-08
3.51235e-08
3.51051e-08
3.50876e-08
3.50713e-08
3.50552e-08
3.50402e-08
3.50269e-08
3.50138e-08
3.50022e-08
3.4991e-08
3.4981e-08
3.49714e-08
3.49626e-08
3.49543e-08
3.49469e-08
3.49398e-08
3.49335e-08
3.49271e-08
3.4921e-08
3.49146e-08
3.4908e-08
3.49011e-08
3.48942e-08
3.48868e-08
3.48793e-08
3.48714e-08
3.48637e-08
3.48559e-08
3.48484e-08
3.48422e-08
3.48357e-08
3.48301e-08
3.48239e-08
3.48184e-08
3.48122e-08
3.48062e-08
3.48006e-08
3.47947e-08
3.47888e-08
3.47831e-08
3.47774e-08
3.47719e-08
3.47653e-08
3.47584e-08
3.47514e-08
3.47441e-08
3.47367e-08
3.47287e-08
3.472e-08
3.47104e-08
3.46997e-08
3.46877e-08
3.46756e-08
3.46625e-08
3.46487e-08
3.46338e-08
3.46192e-08
3.46037e-08
3.45883e-08
3.45721e-08
3.45559e-08
3.45389e-08
3.45213e-08
3.45037e-08
3.44844e-08
3.44647e-08
3.44446e-08
3.44233e-08
3.44013e-08
3.43792e-08
3.43567e-08
3.43332e-08
3.43091e-08
3.42838e-08
3.42577e-08
3.42304e-08
3.42026e-08
3.41741e-08
3.41454e-08
3.41161e-08
3.40866e-08
3.40576e-08
3.40274e-08
3.39976e-08
3.39666e-08
3.39356e-08
3.39046e-08
3.38727e-08
3.38406e-08
3.38088e-08
3.37768e-08
3.37441e-08
3.3711e-08
3.36782e-08
3.36452e-08
3.36128e-08
3.35794e-08
3.35461e-08
3.35135e-08
3.34805e-08
3.34481e-08
3.34155e-08
3.33835e-08
3.33518e-08
3.33197e-08
3.32888e-08
3.32577e-08
3.32267e-08
3.31957e-08
3.31649e-08
3.31349e-08
3.31046e-08
3.30748e-08
3.30461e-08
3.30185e-08
3.29913e-08
3.29652e-08
3.29414e-08
3.29187e-08
3.28983e-08
3.28804e-08
3.28638e-08
3.28494e-08
3.28373e-08
3.28274e-08
3.28186e-08
3.28114e-08
3.28063e-08
3.28014e-08
3.27975e-08
3.27947e-08
3.27915e-08
3.27888e-08
3.27856e-08
3.27829e-08
3.27797e-08
3.27771e-08
3.27743e-08
3.2772e-08
3.27699e-08
3.27675e-08
3.27667e-08
3.27663e-08
3.27665e-08
3.27681e-08
3.27707e-08
3.27737e-08
3.2777e-08
3.27818e-08
3.27872e-08
3.27924e-08
3.27972e-08
3.28027e-08
3.28082e-08
3.28126e-08
3.28177e-08
3.28223e-08
3.28261e-08
3.28305e-08
3.28348e-08
3.284e-08
3.28456e-08
3.28508e-08
3.28579e-08
3.28653e-08
3.28749e-08
3.28855e-08
3.28968e-08
3.29099e-08
3.29249e-08
3.29402e-08
3.29565e-08
3.2974e-08
3.29906e-08
3.30072e-08
3.30235e-08
3.3039e-08
3.30531e-08
3.30653e-08
3.30749e-08
3.30816e-08
3.30852e-08
3.30857e-08
3.30832e-08
3.30777e-08
3.30713e-08
3.30627e-08
3.30515e-08
3.30382e-08
3.30227e-08
3.30053e-08
3.29881e-08
3.29703e-08
3.29517e-08
3.29327e-08
3.2915e-08
3.28974e-08
3.28797e-08
3.28646e-08
3.28505e-08
3.28373e-08
3.28272e-08
3.28188e-08
3.28114e-08
3.28071e-08
3.28038e-08
3.28006e-08
3.27987e-08
3.27963e-08
3.27921e-08
3.27881e-08
3.27822e-08
3.27759e-08
3.27677e-08
3.27573e-08
3.2746e-08
3.27324e-08
3.27162e-08
3.26974e-08
3.26777e-08
3.26565e-08
3.26332e-08
3.26111e-08
3.25936e-08
3.2581e-08
3.25719e-08
3.25647e-08
3.25614e-08
3.25611e-08
3.25617e-08
3.25664e-08
3.25727e-08
3.25807e-08
3.25897e-08
3.26019e-08
3.26138e-08
3.2629e-08
3.26458e-08
3.2659e-08
3.26866e-08
3.26874e-08
3.27471e-08
3.27056e-08
3.28518e-08
3.27585e-08
3.30552e-08
3.29702e-08
3.34147e-08
3.33456e-08
3.38856e-08
3.38505e-08
3.43598e-08
3.43902e-08
3.46289e-08
3.47801e-08
3.4988e-08
3.53462e-08
3.60061e-08
3.67241e-08
3.81554e-08
3.89143e-08
1.68169e-08
0
0
0
0
0
0
0
0
0
)
;

boundaryField
{
    inlet
    {
        type            calculated;
        value           uniform 0;
    }
    endWall
    {
        type            calculated;
        value           uniform 0;
    }
    sideWall
    {
        type            empty;
    }
}


// ************************************************************************* //
