/*--------------------------------*- C++ -*----------------------------------*\
| =========                 |                                                 |
| \\      /  F ield         | foam-extend: Open Source CFD                    |
|  \\    /   O peration     | Version:     3.2                                |
|   \\  /    A nd           | Web:         http://www.foam-extend.org         |
|    \\/     M anipulation  | For copyright notice see file Copyright         |
\*---------------------------------------------------------------------------*/
FoamFile
{
    version     2.0;
    format      ascii;
    class       areaScalarField;
    location    "840";
    object      SSd1;
}
// * * * * * * * * * * * * * * * * * * * * * * * * * * * * * * * * * * * * * //

dimensions      [0 1 -2 -1 0 0 0];

internalField   nonuniform List<scalar> 
550
(
9.47353e-06
9.47353e-06
9.47353e-06
9.47353e-06
9.47353e-06
9.47353e-06
9.47353e-06
9.47353e-06
9.47353e-06
9.47322e-06
9.47295e-06
9.48845e-06
9.49895e-06
9.51474e-06
9.54695e-06
9.57224e-06
9.59166e-06
9.61507e-06
9.62963e-06
9.63807e-06
9.64593e-06
9.65691e-06
9.66743e-06
9.66004e-06
9.65798e-06
9.66369e-06
9.66272e-06
9.65347e-06
9.66429e-06
9.66733e-06
9.65075e-06
9.67363e-06
9.68919e-06
9.63449e-06
9.61447e-06
9.64798e-06
9.68246e-06
9.67725e-06
9.64292e-06
9.61345e-06
9.58391e-06
9.57396e-06
9.61233e-06
9.65486e-06
9.67466e-06
9.67665e-06
9.66669e-06
9.61903e-06
9.60135e-06
9.61142e-06
9.62875e-06
9.63558e-06
9.63616e-06
9.62935e-06
9.61895e-06
9.60739e-06
9.59764e-06
9.59139e-06
9.58749e-06
9.58715e-06
9.58887e-06
9.59093e-06
9.59164e-06
9.59113e-06
9.58891e-06
9.58563e-06
9.58148e-06
9.57709e-06
9.573e-06
9.56951e-06
9.56673e-06
9.56449e-06
9.56273e-06
9.5612e-06
9.5602e-06
9.55936e-06
9.55886e-06
9.55807e-06
9.55762e-06
9.55704e-06
9.55648e-06
9.55559e-06
9.55502e-06
9.55409e-06
9.55328e-06
9.55202e-06
9.55079e-06
9.54931e-06
9.54831e-06
9.5472e-06
9.54582e-06
9.54397e-06
9.54243e-06
9.54079e-06
9.53933e-06
9.5377e-06
9.53618e-06
9.53447e-06
9.53288e-06
9.53117e-06
9.52964e-06
9.52801e-06
9.52654e-06
9.52495e-06
9.52349e-06
9.52189e-06
9.52039e-06
9.51874e-06
9.51717e-06
9.51542e-06
9.51377e-06
9.51196e-06
9.51026e-06
9.50842e-06
9.50671e-06
9.50486e-06
9.50315e-06
9.50129e-06
9.49955e-06
9.49764e-06
9.49584e-06
9.49389e-06
9.49203e-06
9.48999e-06
9.48804e-06
9.48593e-06
9.48393e-06
9.48177e-06
9.47972e-06
9.47753e-06
9.47544e-06
9.47323e-06
9.47112e-06
9.4689e-06
9.46678e-06
9.46456e-06
9.46244e-06
9.46022e-06
9.45809e-06
9.45587e-06
9.45372e-06
9.45149e-06
9.44931e-06
9.44704e-06
9.44481e-06
9.44248e-06
9.44019e-06
9.43783e-06
9.43549e-06
9.43309e-06
9.43071e-06
9.42829e-06
9.42587e-06
9.42342e-06
9.42095e-06
9.41847e-06
9.41595e-06
9.41343e-06
9.41086e-06
9.4083e-06
9.40567e-06
9.40305e-06
9.40035e-06
9.3977e-06
9.39494e-06
9.39224e-06
9.38943e-06
9.38668e-06
9.38382e-06
9.38103e-06
9.37811e-06
9.37529e-06
9.37232e-06
9.36947e-06
9.36645e-06
9.36357e-06
9.36052e-06
9.35763e-06
9.35455e-06
9.35165e-06
9.34855e-06
9.34565e-06
9.34252e-06
9.33962e-06
9.33644e-06
9.33354e-06
9.33029e-06
9.32739e-06
9.32402e-06
9.32106e-06
9.3176e-06
9.31459e-06
9.31106e-06
9.30802e-06
9.30445e-06
9.3014e-06
9.29779e-06
9.29474e-06
9.29111e-06
9.28806e-06
9.28442e-06
9.28138e-06
9.27773e-06
9.2747e-06
9.27106e-06
9.26802e-06
9.26442e-06
9.26136e-06
9.25782e-06
9.25475e-06
9.25131e-06
9.2482e-06
9.24489e-06
9.24174e-06
9.2386e-06
9.23539e-06
9.23233e-06
9.22907e-06
9.22597e-06
9.22267e-06
9.2195e-06
9.21618e-06
9.21296e-06
9.20964e-06
9.20639e-06
9.20308e-06
9.19982e-06
9.19651e-06
9.19324e-06
9.18994e-06
9.18668e-06
9.18339e-06
9.18013e-06
9.17684e-06
9.17359e-06
9.17033e-06
9.16709e-06
9.16385e-06
9.16062e-06
9.15739e-06
9.15418e-06
9.15097e-06
9.14777e-06
9.14457e-06
9.14139e-06
9.13821e-06
9.13504e-06
9.13188e-06
9.12873e-06
9.12557e-06
9.12244e-06
9.11931e-06
9.11619e-06
9.11308e-06
9.10999e-06
9.1069e-06
9.10382e-06
9.10076e-06
9.09771e-06
9.09468e-06
9.09166e-06
9.08866e-06
9.08568e-06
9.08272e-06
9.07979e-06
9.07687e-06
9.07397e-06
9.0711e-06
9.06825e-06
9.06543e-06
9.06263e-06
9.05985e-06
9.0571e-06
9.05437e-06
9.05167e-06
9.049e-06
9.04634e-06
9.04371e-06
9.04112e-06
9.03854e-06
9.036e-06
9.03347e-06
9.03098e-06
9.02851e-06
9.02606e-06
9.02365e-06
9.02126e-06
9.0189e-06
9.01656e-06
9.01425e-06
9.01197e-06
9.00972e-06
9.0075e-06
9.0053e-06
9.00312e-06
9.00097e-06
8.99885e-06
8.99675e-06
8.99466e-06
8.9926e-06
8.99055e-06
8.98852e-06
8.9865e-06
8.9845e-06
8.9825e-06
8.98052e-06
8.97854e-06
8.97656e-06
8.9746e-06
8.97264e-06
8.97068e-06
8.96872e-06
8.96676e-06
8.96479e-06
8.96282e-06
8.96085e-06
8.95886e-06
8.95686e-06
8.95486e-06
8.95283e-06
8.9508e-06
8.94874e-06
8.94667e-06
8.94457e-06
8.94245e-06
8.94032e-06
8.93815e-06
8.93596e-06
8.93375e-06
8.93151e-06
8.92925e-06
8.92696e-06
8.92464e-06
8.92231e-06
8.91996e-06
8.91759e-06
8.9152e-06
8.9128e-06
8.91039e-06
8.90797e-06
8.90554e-06
8.9031e-06
8.90066e-06
8.89821e-06
8.89576e-06
8.89331e-06
8.89085e-06
8.88839e-06
8.88593e-06
8.88347e-06
8.881e-06
8.87854e-06
8.87608e-06
8.87361e-06
8.87114e-06
8.86867e-06
8.8662e-06
8.86372e-06
8.86125e-06
8.85876e-06
8.85628e-06
8.85379e-06
8.85131e-06
8.84882e-06
8.84633e-06
8.84384e-06
8.84136e-06
8.83888e-06
8.8364e-06
8.83393e-06
8.83146e-06
8.829e-06
8.82655e-06
8.8241e-06
8.82168e-06
8.81926e-06
8.81685e-06
8.81446e-06
8.81207e-06
8.8097e-06
8.80735e-06
8.805e-06
8.80267e-06
8.80034e-06
8.79803e-06
8.79572e-06
8.79343e-06
8.79113e-06
8.78885e-06
8.78657e-06
8.7843e-06
8.78203e-06
8.77976e-06
8.77751e-06
8.77526e-06
8.77301e-06
8.77077e-06
8.76855e-06
8.76633e-06
8.76413e-06
8.76194e-06
8.75977e-06
8.7576e-06
8.75546e-06
8.75334e-06
8.75123e-06
8.74914e-06
8.74707e-06
8.74502e-06
8.74298e-06
8.74096e-06
8.73896e-06
8.73696e-06
8.73499e-06
8.73302e-06
8.73106e-06
8.72912e-06
8.72718e-06
8.72526e-06
8.72335e-06
8.72145e-06
8.71956e-06
8.71769e-06
8.71582e-06
8.71398e-06
8.71215e-06
8.71032e-06
8.70851e-06
8.70672e-06
8.70495e-06
8.70318e-06
8.70142e-06
8.69968e-06
8.69795e-06
8.69623e-06
8.69452e-06
8.69282e-06
8.69113e-06
8.68945e-06
8.68779e-06
8.68615e-06
8.68451e-06
8.68288e-06
8.68127e-06
8.67968e-06
8.67811e-06
8.67655e-06
8.675e-06
8.67348e-06
8.67197e-06
8.67046e-06
8.66898e-06
8.66751e-06
8.66606e-06
8.66461e-06
8.66317e-06
8.66174e-06
8.66032e-06
8.6589e-06
8.65748e-06
8.65606e-06
8.65464e-06
8.65323e-06
8.6518e-06
8.65036e-06
8.64893e-06
8.64749e-06
8.64605e-06
8.64462e-06
8.64316e-06
8.64171e-06
8.64026e-06
8.63882e-06
8.63737e-06
8.63593e-06
8.6345e-06
8.63308e-06
8.63167e-06
8.63028e-06
8.6289e-06
8.62754e-06
8.6262e-06
8.62488e-06
8.62358e-06
8.62231e-06
8.62105e-06
8.61981e-06
8.6186e-06
8.61738e-06
8.61619e-06
8.61499e-06
8.6138e-06
8.61263e-06
8.61144e-06
8.61027e-06
8.60909e-06
8.60792e-06
8.60674e-06
8.60555e-06
8.60437e-06
8.60317e-06
8.60193e-06
8.60065e-06
8.59935e-06
8.59803e-06
8.59669e-06
8.59534e-06
8.59399e-06
8.59262e-06
8.59125e-06
8.58987e-06
8.58849e-06
8.58709e-06
8.5857e-06
8.58429e-06
8.58288e-06
8.58149e-06
8.58001e-06
8.57871e-06
8.57702e-06
8.57604e-06
8.57376e-06
8.57318e-06
8.56993e-06
8.56942e-06
8.56535e-06
8.56494e-06
8.56044e-06
8.56003e-06
8.55591e-06
8.55526e-06
8.55305e-06
8.55164e-06
8.54976e-06
8.54726e-06
8.54291e-06
8.53921e-06
8.53203e-06
8.52948e-06
8.53001e-06
8.53119e-06
8.53283e-06
8.53303e-06
8.5331e-06
8.53305e-06
8.53202e-06
8.52876e-06
8.52745e-06
8.52717e-06
8.52711e-06
)
;

boundaryField
{
    inlet
    {
        type            calculated;
        value           uniform 0;
    }
    endWall
    {
        type            calculated;
        value           uniform 0;
    }
    sideWall
    {
        type            empty;
    }
}


// ************************************************************************* //
