/*--------------------------------*- C++ -*----------------------------------*\
| =========                 |                                                 |
| \\      /  F ield         | foam-extend: Open Source CFD                    |
|  \\    /   O peration     | Version:     3.2                                |
|   \\  /    A nd           | Web:         http://www.foam-extend.org         |
|    \\/     M anipulation  | For copyright notice see file Copyright         |
\*---------------------------------------------------------------------------*/
FoamFile
{
    version     2.0;
    format      ascii;
    class       areaScalarField;
    location    "840";
    object      SSe1;
}
// * * * * * * * * * * * * * * * * * * * * * * * * * * * * * * * * * * * * * //

dimensions      [0 1 -2 -1 0 0 0];

internalField   nonuniform List<scalar> 
550
(
6.80138e-07
1.23725e-06
2.04361e-06
3.12582e-06
4.49071e-06
6.10805e-06
7.85391e-06
9.83528e-06
1.17607e-05
1.34551e-05
1.52626e-05
1.64786e-05
1.79765e-05
6.4947e-06
6.51042e-06
2.07033e-05
1.01069e-05
2.13391e-05
2.10318e-05
2.03411e-05
3.97485e-06
7.08345e-06
1.86929e-05
1.77911e-05
1.54496e-05
6.3343e-06
5.5749e-06
5.30004e-06
1.5655e-05
1.59691e-05
4.6657e-06
1.52414e-05
1.4595e-05
1.40778e-05
1.22142e-06
1.30219e-05
1.32547e-05
2.84103e-06
2.25935e-06
1.20526e-05
1.18537e-05
1.1409e-05
1.13516e-05
1.1628e-05
1.13075e-05
1.12754e-05
1.10635e-05
1.84648e-06
1.07246e-05
1.05916e-05
1.06312e-05
1.03406e-05
1.0085e-05
9.67671e-06
9.67938e-06
9.63862e-06
9.62518e-06
9.65784e-06
9.55772e-06
9.71233e-06
9.74487e-06
9.74607e-06
9.66465e-06
9.66105e-06
9.58521e-06
9.57192e-06
9.53282e-06
9.52604e-06
9.54456e-06
9.57239e-06
9.59506e-06
9.5855e-06
9.57673e-06
9.54069e-06
9.56475e-06
9.55012e-06
9.58306e-06
9.53138e-06
9.57802e-06
9.56529e-06
9.58522e-06
9.55253e-06
9.62435e-06
9.59787e-06
9.64047e-06
9.59717e-06
9.61342e-06
9.58114e-06
9.64595e-06
9.6348e-06
9.59766e-06
9.52077e-06
9.55238e-06
9.53175e-06
9.54956e-06
9.51832e-06
9.53037e-06
9.49733e-06
9.50988e-06
9.48565e-06
9.50654e-06
9.48832e-06
9.50854e-06
9.48791e-06
9.50621e-06
9.48552e-06
9.50336e-06
9.48136e-06
9.49807e-06
9.47469e-06
9.49129e-06
9.46868e-06
9.48711e-06
9.46618e-06
9.48715e-06
9.46694e-06
9.48995e-06
9.47072e-06
9.49224e-06
9.47201e-06
9.49398e-06
9.47353e-06
9.49299e-06
9.47007e-06
9.48808e-06
9.46533e-06
9.48321e-06
9.46127e-06
9.47863e-06
9.45733e-06
9.47403e-06
9.45376e-06
9.46997e-06
9.45095e-06
9.4668e-06
9.44958e-06
9.46482e-06
9.44925e-06
9.46327e-06
9.44904e-06
9.46149e-06
9.44829e-06
9.45858e-06
9.44561e-06
9.45365e-06
9.44225e-06
9.44858e-06
9.43928e-06
9.44416e-06
9.43729e-06
9.44065e-06
9.43607e-06
9.43785e-06
9.4355e-06
9.43504e-06
9.4349e-06
9.43231e-06
9.43419e-06
9.42884e-06
9.43303e-06
9.42531e-06
9.43109e-06
9.42074e-06
9.42883e-06
9.41618e-06
9.42662e-06
9.41122e-06
9.42349e-06
9.40589e-06
9.42001e-06
9.39956e-06
9.41602e-06
9.39324e-06
9.41175e-06
9.38668e-06
9.40728e-06
9.38056e-06
9.40396e-06
9.37509e-06
9.40103e-06
9.36964e-06
9.39892e-06
9.3638e-06
9.39675e-06
9.35597e-06
9.39579e-06
9.3436e-06
9.39477e-06
9.32451e-06
9.38517e-06
9.30618e-06
9.3739e-06
9.29067e-06
9.36461e-06
9.27685e-06
9.35737e-06
9.26469e-06
9.35102e-06
9.25389e-06
9.34471e-06
9.24445e-06
9.33929e-06
9.23636e-06
9.3334e-06
9.23152e-06
9.32744e-06
9.23029e-06
9.32014e-06
9.23355e-06
9.31263e-06
9.24442e-06
9.30429e-06
9.26079e-06
9.29507e-06
9.28424e-06
9.28577e-06
9.29521e-06
9.27677e-06
9.28824e-06
9.2675e-06
9.27543e-06
9.25816e-06
9.26446e-06
9.25131e-06
9.25494e-06
9.24461e-06
9.24679e-06
9.23866e-06
9.23859e-06
9.23146e-06
9.23157e-06
9.22552e-06
9.22422e-06
9.21866e-06
9.2175e-06
9.21273e-06
9.21113e-06
9.20701e-06
9.2052e-06
9.20022e-06
9.1989e-06
9.19474e-06
9.19158e-06
9.18848e-06
9.18531e-06
9.18106e-06
9.17721e-06
9.17381e-06
9.16995e-06
9.16524e-06
9.16186e-06
9.15716e-06
9.15345e-06
9.14858e-06
9.1445e-06
9.13941e-06
9.13497e-06
9.13089e-06
9.12559e-06
9.12122e-06
9.1168e-06
9.11248e-06
9.10801e-06
9.1035e-06
9.09989e-06
9.09577e-06
9.09119e-06
9.08797e-06
9.0836e-06
9.08039e-06
9.07613e-06
9.07269e-06
9.06938e-06
9.0664e-06
9.06227e-06
9.05893e-06
9.05558e-06
9.05211e-06
9.04968e-06
9.04662e-06
9.04319e-06
9.03977e-06
9.03737e-06
9.03442e-06
9.03079e-06
9.02884e-06
9.02543e-06
9.02341e-06
9.02028e-06
9.01823e-06
9.01538e-06
9.01341e-06
9.01061e-06
9.00875e-06
9.00621e-06
9.00442e-06
9.00188e-06
9.00004e-06
8.99759e-06
8.99578e-06
8.99326e-06
8.99153e-06
8.98906e-06
8.98729e-06
8.98489e-06
8.98334e-06
8.9814e-06
8.97878e-06
8.97785e-06
8.97565e-06
8.97471e-06
8.97274e-06
8.97188e-06
8.97025e-06
8.9684e-06
8.96768e-06
8.96633e-06
8.96491e-06
8.96362e-06
8.96214e-06
8.96182e-06
8.9609e-06
8.95972e-06
8.95883e-06
8.95774e-06
8.95708e-06
8.95597e-06
8.95524e-06
8.9541e-06
8.95341e-06
8.95125e-06
8.95011e-06
8.94879e-06
8.94801e-06
8.94578e-06
8.94491e-06
8.9429e-06
8.94207e-06
8.94022e-06
8.93953e-06
8.93806e-06
8.93616e-06
8.93564e-06
8.93413e-06
8.93231e-06
8.93163e-06
8.93023e-06
8.92839e-06
8.92667e-06
8.92576e-06
8.92387e-06
8.92277e-06
8.92064e-06
8.91918e-06
8.91672e-06
8.91482e-06
8.91226e-06
8.91023e-06
8.90746e-06
8.90403e-06
8.90205e-06
8.89853e-06
8.89635e-06
8.8931e-06
8.88953e-06
8.88721e-06
8.88412e-06
8.88066e-06
8.87733e-06
8.8751e-06
8.87216e-06
8.86893e-06
8.86596e-06
8.8626e-06
8.86082e-06
8.85796e-06
8.85464e-06
8.85269e-06
8.84941e-06
8.84722e-06
8.84381e-06
8.84105e-06
8.83873e-06
8.83463e-06
8.83148e-06
8.82802e-06
8.82411e-06
8.8202e-06
8.81557e-06
8.81202e-06
8.80747e-06
8.8024e-06
8.79715e-06
8.7929e-06
8.78776e-06
8.78222e-06
8.77807e-06
8.77321e-06
8.76806e-06
8.76458e-06
8.76002e-06
8.75566e-06
8.75139e-06
8.74846e-06
8.74484e-06
8.74102e-06
8.73887e-06
8.73571e-06
8.73219e-06
8.73e-06
8.72686e-06
8.72463e-06
8.72119e-06
8.71894e-06
8.71545e-06
8.71288e-06
8.70945e-06
8.70655e-06
8.70436e-06
8.70048e-06
8.6981e-06
8.69595e-06
8.6927e-06
8.69033e-06
8.68855e-06
8.6869e-06
8.68406e-06
8.68222e-06
8.68086e-06
8.67957e-06
8.67708e-06
8.67542e-06
8.67446e-06
8.67168e-06
8.67039e-06
8.66925e-06
8.66671e-06
8.66544e-06
8.66307e-06
8.66156e-06
8.66093e-06
8.65848e-06
8.65785e-06
8.65575e-06
8.6552e-06
8.65535e-06
8.65422e-06
8.65298e-06
8.65359e-06
8.65321e-06
8.6525e-06
8.6539e-06
8.6541e-06
8.65432e-06
8.65481e-06
8.65526e-06
8.65579e-06
8.65616e-06
8.65647e-06
8.65651e-06
8.65649e-06
8.65636e-06
8.65637e-06
8.65431e-06
8.65347e-06
8.65281e-06
8.65175e-06
8.65078e-06
8.64988e-06
8.647e-06
8.64552e-06
8.64458e-06
8.64377e-06
8.64132e-06
8.64055e-06
8.64055e-06
8.6385e-06
8.63863e-06
8.63943e-06
8.63858e-06
8.63951e-06
8.64145e-06
8.64149e-06
8.64332e-06
8.64583e-06
8.64625e-06
8.64813e-06
8.65092e-06
8.65097e-06
8.6529e-06
8.65288e-06
8.65401e-06
8.65569e-06
8.65491e-06
8.65552e-06
8.65607e-06
8.65672e-06
8.65516e-06
8.65476e-06
8.65498e-06
8.6523e-06
8.64468e-06
8.63811e-06
8.63168e-06
8.62811e-06
8.62181e-06
8.61697e-06
8.61386e-06
8.60789e-06
8.60389e-06
8.5999e-06
8.59641e-06
8.58982e-06
8.58746e-06
8.5813e-06
8.57637e-06
8.57723e-06
8.55856e-06
8.58378e-06
8.518e-06
8.62289e-06
8.41987e-06
8.67214e-06
8.25414e-06
8.65796e-06
8.0918e-06
8.63623e-06
7.98527e-06
8.5958e-06
8.01407e-06
8.52211e-06
8.29928e-06
8.39062e-06
8.32974e-06
8.16611e-06
7.84404e-06
7.77613e-06
7.02403e-06
7.73331e-06
1.44623e-05
1.00357e-06
1.94126e-06
1.02876e-06
9.09767e-07
5.62502e-07
4.35066e-07
2.02886e-07
2.53149e-07
1.58574e-07
5.98729e-07
)
;

boundaryField
{
    inlet
    {
        type            calculated;
        value           uniform 0;
    }
    endWall
    {
        type            calculated;
        value           uniform 0;
    }
    sideWall
    {
        type            empty;
    }
}


// ************************************************************************* //
