/*--------------------------------*- C++ -*----------------------------------*\
| =========                 |                                                 |
| \\      /  F ield         | foam-extend: Open Source CFD                    |
|  \\    /   O peration     | Version:     3.2                                |
|   \\  /    A nd           | Web:         http://www.foam-extend.org         |
|    \\/     M anipulation  | For copyright notice see file Copyright         |
\*---------------------------------------------------------------------------*/
FoamFile
{
    version     2.0;
    format      ascii;
    class       areaScalarField;
    location    "840";
    object      tau;
}
// * * * * * * * * * * * * * * * * * * * * * * * * * * * * * * * * * * * * * //

dimensions      [1 1 2 0 0 0 0];

internalField   nonuniform List<scalar> 
550
(
0.0485195
0.0664414
0.0879635
0.11282
0.140345
0.16954
0.199308
0.228397
0.25576
0.280798
0.302033
0.320625
0.335069
0.346217
0.352762
0.35555
0.35672
0.354764
0.349286
0.347455
0.340634
0.332831
0.328693
0.320599
0.314398
0.311037
0.309613
0.306708
0.303337
0.300416
0.29581
0.291397
0.28582
0.280246
0.278084
0.277357
0.273631
0.2674
0.261661
0.257466
0.254754
0.254927
0.256642
0.255968
0.253403
0.250195
0.245879
0.243426
0.243297
0.243509
0.242513
0.240492
0.238158
0.236168
0.235228
0.23517
0.236083
0.237318
0.238644
0.239719
0.240156
0.239999
0.239672
0.239152
0.23869
0.238357
0.238226
0.238361
0.238642
0.238922
0.239077
0.239111
0.239047
0.239064
0.239099
0.239187
0.239203
0.239304
0.239488
0.239614
0.239687
0.239834
0.239898
0.239824
0.239584
0.239294
0.239009
0.238849
0.238534
0.237986
0.237387
0.237171
0.237095
0.237103
0.237124
0.237177
0.237237
0.237363
0.237528
0.237765
0.238016
0.238291
0.238538
0.238787
0.239003
0.239208
0.239375
0.239531
0.239655
0.239786
0.239905
0.24005
0.240191
0.240363
0.240528
0.240715
0.240889
0.24107
0.241228
0.24139
0.241529
0.241662
0.241769
0.241878
0.24197
0.242075
0.24217
0.242277
0.242376
0.242483
0.242584
0.242694
0.2428
0.242915
0.243028
0.24315
0.243266
0.243387
0.2435
0.243612
0.243714
0.243808
0.243891
0.243963
0.244033
0.244095
0.244159
0.244218
0.244283
0.244341
0.244403
0.244459
0.244517
0.244566
0.244616
0.244657
0.244696
0.244723
0.244751
0.244765
0.244783
0.244787
0.244798
0.244794
0.244799
0.244787
0.244783
0.244762
0.244748
0.244717
0.244695
0.244657
0.244631
0.244589
0.244561
0.244521
0.244496
0.244461
0.244439
0.244407
0.244388
0.244355
0.244336
0.244296
0.24428
0.244227
0.244215
0.244146
0.244142
0.244072
0.244076
0.244012
0.244024
0.243965
0.243982
0.243929
0.243952
0.243903
0.243928
0.243879
0.243902
0.243852
0.243867
0.243817
0.243816
0.243766
0.243743
0.24369
0.243634
0.243585
0.243489
0.243439
0.2433
0.243253
0.243069
0.243018
0.242815
0.242754
0.242563
0.242494
0.242321
0.242245
0.242083
0.242003
0.241855
0.24177
0.241631
0.241543
0.241412
0.241318
0.24119
0.241091
0.240973
0.24087
0.240761
0.240655
0.24055
0.240444
0.240343
0.240239
0.240137
0.240038
0.239938
0.239841
0.239747
0.239656
0.239562
0.239473
0.239386
0.239302
0.239219
0.23914
0.239062
0.238987
0.238914
0.238844
0.238775
0.238712
0.238654
0.238599
0.238548
0.238501
0.238458
0.238418
0.238384
0.238355
0.238331
0.23831
0.238295
0.238282
0.238273
0.238266
0.238262
0.238263
0.238266
0.23827
0.238276
0.238283
0.238292
0.238304
0.238318
0.238332
0.238348
0.238369
0.238388
0.23841
0.238433
0.238457
0.238482
0.238508
0.238534
0.23856
0.238587
0.238612
0.238638
0.238663
0.238686
0.238706
0.238725
0.23874
0.238753
0.238764
0.238772
0.238778
0.238782
0.238783
0.238786
0.238786
0.238785
0.238784
0.238781
0.238778
0.238771
0.238765
0.238756
0.238745
0.238734
0.238722
0.238707
0.238687
0.238666
0.238644
0.238619
0.238593
0.238564
0.238534
0.238501
0.238465
0.238426
0.238386
0.238342
0.238293
0.238241
0.238188
0.238133
0.238075
0.238015
0.237952
0.237887
0.23782
0.237751
0.237679
0.237603
0.237527
0.237446
0.237364
0.237282
0.237198
0.237112
0.237025
0.236937
0.236848
0.236758
0.236667
0.236575
0.236484
0.236392
0.236301
0.236211
0.23612
0.236028
0.235936
0.235843
0.235751
0.235656
0.23556
0.235465
0.235369
0.235271
0.235172
0.235075
0.234979
0.234884
0.234788
0.234694
0.234604
0.234515
0.23443
0.234349
0.234272
0.2342
0.234132
0.234072
0.234016
0.233965
0.233918
0.233877
0.23384
0.233806
0.233776
0.233754
0.233735
0.23372
0.233708
0.233703
0.233699
0.233702
0.233712
0.233723
0.233741
0.233764
0.233791
0.23382
0.233852
0.233888
0.233925
0.233964
0.234007
0.23405
0.234092
0.234135
0.234178
0.234222
0.234265
0.23431
0.234354
0.2344
0.234443
0.234488
0.234536
0.234582
0.234633
0.234684
0.234736
0.234788
0.234844
0.234901
0.234957
0.235013
0.235071
0.235129
0.235184
0.23524
0.235295
0.235348
0.235401
0.235454
0.235507
0.235561
0.235611
0.235665
0.235721
0.235777
0.235836
0.235894
0.235956
0.236023
0.236087
0.236152
0.236219
0.236281
0.236341
0.2364
0.236454
0.236504
0.236548
0.236585
0.236613
0.236632
0.236642
0.236643
0.236636
0.236624
0.236605
0.236577
0.236543
0.236502
0.236456
0.236408
0.236357
0.236299
0.236239
0.23618
0.23612
0.236056
0.235997
0.235938
0.235878
0.235825
0.235776
0.235729
0.23569
0.235655
0.235622
0.235596
0.235571
0.235545
0.235521
0.235497
0.23547
0.235443
0.235411
0.235379
0.235347
0.235307
0.235266
0.235227
0.235189
0.235145
0.235107
0.235076
0.235051
0.235036
0.235035
0.235038
0.23505
0.235072
0.235099
0.235134
0.235181
0.235232
0.235289
0.235353
0.235431
0.235497
0.235617
0.235659
0.235841
0.235832
0.236131
0.236011
0.236508
0.236261
0.236996
0.23669
0.237555
0.237205
0.237951
0.237559
0.237787
0.237338
0.236574
0.235957
0.234118
0.233006
0.22939
0.226011
0.215629
0.198654
0.137243
0.0654585
0.0853053
0.0601263
0.0563266
0.044188
0.0391322
0.0285203
0.0311232
0.046874
0.0767321
)
;

boundaryField
{
    inlet
    {
        type            calculated;
        value           uniform 0;
    }
    endWall
    {
        type            calculated;
        value           uniform 0;
    }
    sideWall
    {
        type            empty;
    }
}


// ************************************************************************* //
