/*--------------------------------*- C++ -*----------------------------------*\
| =========                 |                                                 |
| \\      /  F ield         | foam-extend: Open Source CFD                    |
|  \\    /   O peration     | Version:     3.2                                |
|   \\  /    A nd           | Web:         http://www.foam-extend.org         |
|    \\/     M anipulation  | For copyright notice see file Copyright         |
\*---------------------------------------------------------------------------*/
FoamFile
{
    version     2.0;
    format      ascii;
    class       areaScalarField;
    location    "840";
    object      tauCB;
}
// * * * * * * * * * * * * * * * * * * * * * * * * * * * * * * * * * * * * * //

dimensions      [1 1 2 0 0 0 0];

internalField   nonuniform List<scalar> 
550
(
0.0676939
0.0677517
0.0676939
0.0676939
0.0676939
0.0676939
0.0680478
0.0676939
0.0676939
0.0682225
0.0673967
0.0689724
0.0675815
0.136674
0.138872
0.0684821
0.108969
0.0674852
0.0677607
0.0684997
0.180494
0.121963
0.0669766
0.0673786
0.069591
0.122638
0.134401
0.136249
0.0686257
0.0673068
0.14223
0.0680378
0.0663832
0.0667877
0.287079
0.0694294
0.0678348
0.17119
0.190514
0.0668776
0.067193
0.0686595
0.0694174
0.0688757
0.0692521
0.0683857
0.067215
0.199426
0.0684627
0.0690074
0.0684865
0.068964
0.0689115
0.0692791
0.0691764
0.0694107
0.0698773
0.0703321
0.0710785
0.0709112
0.0710417
0.0709827
0.0710556
0.0711257
0.071252
0.0713919
0.0714903
0.0716468
0.0716883
0.0718058
0.0717186
0.0717511
0.0716185
0.0716906
0.071671
0.0718251
0.0718198
0.071936
0.0719223
0.0720396
0.0720046
0.0721092
0.0721239
0.0722265
0.0721241
0.0721317
0.0719887
0.0720263
0.0718603
0.0717381
0.0714425
0.0713616
0.0712676
0.0713362
0.0713159
0.0713974
0.0713846
0.0714707
0.071475
0.0715829
0.0716122
0.0717297
0.0717588
0.0718702
0.0718965
0.0720078
0.0720353
0.0721447
0.0721661
0.0722688
0.0722812
0.072377
0.0723828
0.0724765
0.0724822
0.0725791
0.0725881
0.0726884
0.0726965
0.0727957
0.0728043
0.0729001
0.0729019
0.0729894
0.0729855
0.0730711
0.0730702
0.0731574
0.0731606
0.0732484
0.0732541
0.0733411
0.0733495
0.0734347
0.0734453
0.0735281
0.0735403
0.0736197
0.0736336
0.0737084
0.0737243
0.073795
0.0738134
0.0738791
0.0739002
0.0739615
0.073985
0.0740412
0.0740673
0.0741173
0.0741447
0.0741881
0.0742176
0.0742547
0.0742866
0.0743168
0.0743509
0.0743725
0.074409
0.0744232
0.0744629
0.0744699
0.0745125
0.0745133
0.0745596
0.0745538
0.0746032
0.0745902
0.0746431
0.074623
0.0746797
0.0746542
0.0747156
0.0746834
0.0747483
0.0747103
0.0747799
0.0747369
0.0748101
0.0747604
0.0748382
0.0747813
0.0748657
0.0747978
0.0748956
0.0748084
0.0749331
0.0748083
0.0749803
0.0747943
0.0750258
0.0747711
0.0750656
0.07474
0.0750993
0.0747016
0.0751299
0.0746582
0.0751576
0.0746097
0.0751787
0.0745555
0.075193
0.074498
0.0751979
0.0744393
0.0751918
0.0743828
0.0751654
0.0743341
0.0751199
0.0742995
0.0750504
0.0742892
0.0749594
0.0743103
0.0748596
0.0743437
0.0747677
0.0743654
0.0746851
0.0743711
0.0746072
0.0743637
0.0745393
0.074349
0.0744778
0.0743288
0.0744231
0.0743011
0.074366
0.0742678
0.0743152
0.0742327
0.074267
0.0742003
0.0742234
0.0741702
0.0741859
0.0741443
0.0741505
0.0741212
0.0741219
0.0740979
0.0741002
0.0740833
0.0740832
0.07407
0.0740733
0.0740647
0.0740673
0.0740646
0.0740682
0.074071
0.074076
0.0740836
0.0740894
0.0741014
0.0741121
0.0741253
0.0741382
0.0741551
0.0741708
0.0741902
0.0742073
0.0742322
0.0742517
0.0742771
0.0743001
0.0743264
0.074352
0.074378
0.074404
0.0744335
0.0744623
0.0744906
0.0745191
0.0745473
0.074575
0.0746074
0.0746363
0.0746676
0.0746949
0.0747295
0.0747558
0.0747875
0.074815
0.0748443
0.0748724
0.0748995
0.0749271
0.0749522
0.074979
0.0750015
0.075027
0.0750471
0.075071
0.0750882
0.0751101
0.0751245
0.0751445
0.075156
0.0751743
0.075183
0.0751996
0.0752055
0.0752217
0.0752261
0.0752368
0.0752416
0.0752486
0.0752531
0.0752565
0.0752616
0.0752624
0.0752634
0.0752645
0.0752647
0.0752624
0.0752589
0.0752521
0.0752497
0.0752416
0.0752375
0.0752277
0.0752217
0.0752106
0.0752027
0.0751907
0.0751831
0.0751711
0.0751585
0.0751444
0.0751318
0.0751181
0.0751019
0.0750873
0.0750681
0.0750525
0.0750306
0.0750154
0.0749919
0.0749725
0.0749508
0.0749296
0.0749056
0.0748864
0.0748634
0.0748419
0.0748178
0.074798
0.0747742
0.0747565
0.0747333
0.0747176
0.0746953
0.0746813
0.07466
0.074649
0.0746282
0.0746146
0.0745964
0.074581
0.0745656
0.0745492
0.0745314
0.0745172
0.0745004
0.0744836
0.0744654
0.0744516
0.0744356
0.0744222
0.0744068
0.0743925
0.0743831
0.0743714
0.0743634
0.0743575
0.0743529
0.0743533
0.0743519
0.0743582
0.0743657
0.0743742
0.0743874
0.0744016
0.0744201
0.0744387
0.07446
0.0744855
0.0745121
0.074539
0.0745671
0.074599
0.0746286
0.07466
0.0746941
0.074725
0.0747574
0.0747919
0.0748242
0.0748559
0.0748858
0.0749191
0.0749477
0.0749775
0.0750089
0.0750378
0.0750664
0.0750964
0.0751244
0.075156
0.075183
0.0752163
0.0752424
0.0752768
0.0753008
0.0753347
0.075362
0.0753922
0.0754204
0.0754523
0.075477
0.075507
0.0755336
0.0755653
0.0755881
0.0756178
0.0756424
0.075674
0.075695
0.0757255
0.0757495
0.0757757
0.0758005
0.0758291
0.0758514
0.075881
0.0758997
0.0759285
0.075951
0.0759766
0.076
0.0760209
0.076044
0.0760681
0.0760877
0.076106
0.0761262
0.0761401
0.0761533
0.0761676
0.0761777
0.0761874
0.0761933
0.0761986
0.0762005
0.0762019
0.0762006
0.0761989
0.0761955
0.0761941
0.0761914
0.0761829
0.0761768
0.0761674
0.0761598
0.0761518
0.0761457
0.0761312
0.0761219
0.0761088
0.0761005
0.0760813
0.0760728
0.0760566
0.0760418
0.0760266
0.0760151
0.0759959
0.0759855
0.0759713
0.0759567
0.0759445
0.0759348
0.0759191
0.075911
0.0759017
0.0758915
0.0758855
0.0758725
0.0758686
0.0758618
0.0758549
0.0758492
0.0758494
0.0758518
0.075852
0.0758587
0.0758714
0.0758825
0.075893
0.075906
0.075918
0.075933
0.0759468
0.0759627
0.0759816
0.075999
0.0760232
0.0760428
0.0760721
0.0760951
0.0761265
0.0761657
0.0761788
0.0762642
0.0762096
0.0764338
0.0761616
0.0767651
0.075933
0.0772968
0.0754263
0.0778507
0.0746039
0.0782658
0.0734627
0.0782599
0.0720762
0.07746
0.0706859
0.07561
0.068456
0.0718972
0.0628111
0.0620551
0.0438769
0.0161525
0.0681115
0.0676938
0.0676937
0.0676943
0.0676937
0.0676943
0.068112
0.0681119
0.122609
0.114034
)
;

boundaryField
{
    inlet
    {
        type            calculated;
        value           uniform 0;
    }
    endWall
    {
        type            calculated;
        value           uniform 0;
    }
    sideWall
    {
        type            empty;
    }
}


// ************************************************************************* //
