/*--------------------------------*- C++ -*----------------------------------*\
| =========                 |                                                 |
| \\      /  F ield         | foam-extend: Open Source CFD                    |
|  \\    /   O peration     | Version:     3.2                                |
|   \\  /    A nd           | Web:         http://www.foam-extend.org         |
|    \\/     M anipulation  | For copyright notice see file Copyright         |
\*---------------------------------------------------------------------------*/
FoamFile
{
    version     2.0;
    format      ascii;
    class       areaScalarField;
    location    "840";
    object      tauCSS1;
}
// * * * * * * * * * * * * * * * * * * * * * * * * * * * * * * * * * * * * * //

dimensions      [1 1 2 0 0 0 0];

internalField   nonuniform List<scalar> 
550
(
0.0120735
0.0120838
0.0120735
0.0120735
0.0120735
0.0120735
0.0121367
0.0120735
0.0120735
0.0121678
0.0120205
0.0123016
0.0120535
0.0243766
0.0247685
0.0122141
0.0194351
0.0120363
0.0120855
0.0122173
0.0321921
0.0217526
0.0119456
0.0120173
0.0124119
0.0218731
0.0239711
0.0243007
0.0122397
0.0120045
0.0253674
0.0121349
0.0118398
0.0119119
0.051202
0.0123831
0.0120987
0.0305326
0.0339792
0.011928
0.0119842
0.0122458
0.012381
0.0122843
0.0123515
0.0121969
0.0119881
0.0355687
0.0122107
0.0123078
0.0122149
0.0123001
0.0122907
0.0123562
0.012338
0.0123798
0.012463
0.0125441
0.0126772
0.0126474
0.0126707
0.0126601
0.0126731
0.0126856
0.0127082
0.0127331
0.0127507
0.0127786
0.012786
0.0128069
0.0127914
0.0127971
0.0127735
0.0127864
0.0127829
0.0128104
0.0128094
0.0128301
0.0128277
0.0128486
0.0128424
0.012861
0.0128636
0.012882
0.0128637
0.012865
0.0128395
0.0128463
0.0128166
0.0127949
0.0127421
0.0127277
0.0127109
0.0127232
0.0127196
0.0127341
0.0127318
0.0127472
0.0127479
0.0127671
0.0127723
0.0127934
0.0127985
0.0128184
0.0128231
0.0128429
0.0128478
0.0128674
0.0128712
0.0128895
0.0128917
0.0129088
0.0129099
0.0129266
0.0129275
0.0129448
0.0129465
0.0129643
0.0129658
0.0129834
0.012985
0.0130021
0.0130024
0.013018
0.0130173
0.0130326
0.0130324
0.013048
0.0130486
0.0130642
0.0130652
0.0130807
0.0130823
0.0130974
0.0130993
0.0131141
0.0131163
0.0131304
0.0131329
0.0131463
0.0131491
0.0131617
0.013165
0.0131767
0.0131805
0.0131914
0.0131956
0.0132056
0.0132103
0.0132192
0.0132241
0.0132318
0.0132371
0.0132437
0.0132494
0.0132547
0.0132608
0.0132647
0.0132712
0.0132737
0.0132808
0.0132821
0.0132896
0.0132898
0.0132981
0.013297
0.0133058
0.0133035
0.013313
0.0133094
0.0133195
0.0133149
0.0133259
0.0133202
0.0133317
0.013325
0.0133374
0.0133297
0.0133428
0.0133339
0.0133478
0.0133376
0.0133527
0.0133406
0.013358
0.0133425
0.0133647
0.0133424
0.0133731
0.0133399
0.0133812
0.0133358
0.0133883
0.0133303
0.0133944
0.0133234
0.0133998
0.0133156
0.0134047
0.013307
0.0134085
0.0132973
0.0134111
0.0132871
0.0134119
0.0132766
0.0134108
0.0132665
0.0134061
0.0132578
0.013398
0.0132517
0.0133856
0.0132498
0.0133694
0.0132536
0.0133516
0.0132596
0.0133352
0.0132635
0.0133205
0.0132645
0.0133066
0.0132632
0.0132944
0.0132605
0.0132835
0.0132569
0.0132737
0.013252
0.0132635
0.0132461
0.0132545
0.0132398
0.0132459
0.013234
0.0132381
0.0132286
0.0132314
0.013224
0.0132251
0.0132199
0.01322
0.0132157
0.0132161
0.0132132
0.0132131
0.0132108
0.0132113
0.0132098
0.0132103
0.0132098
0.0132104
0.0132109
0.0132118
0.0132132
0.0132142
0.0132164
0.0132183
0.0132206
0.0132229
0.0132259
0.0132287
0.0132322
0.0132352
0.0132397
0.0132431
0.0132476
0.0132518
0.0132565
0.013261
0.0132657
0.0132703
0.0132756
0.0132807
0.0132857
0.0132909
0.0132959
0.0133009
0.0133066
0.0133118
0.0133174
0.0133222
0.0133284
0.0133331
0.0133387
0.0133436
0.0133489
0.0133539
0.0133587
0.0133636
0.0133681
0.0133729
0.0133769
0.0133814
0.013385
0.0133893
0.0133924
0.0133963
0.0133988
0.0134024
0.0134044
0.0134077
0.0134093
0.0134122
0.0134133
0.0134162
0.013417
0.0134189
0.0134197
0.013421
0.0134218
0.0134224
0.0134233
0.0134234
0.0134236
0.0134238
0.0134238
0.0134234
0.0134228
0.0134216
0.0134212
0.0134197
0.013419
0.0134172
0.0134162
0.0134142
0.0134128
0.0134106
0.0134093
0.0134072
0.0134049
0.0134024
0.0134001
0.0133977
0.0133948
0.0133922
0.0133888
0.0133859
0.0133821
0.0133794
0.0133752
0.0133717
0.0133678
0.0133641
0.0133597
0.0133564
0.0133522
0.0133484
0.0133441
0.0133406
0.0133363
0.0133332
0.0133291
0.0133263
0.0133223
0.0133197
0.013316
0.0133141
0.0133103
0.0133079
0.0133047
0.0133019
0.0132992
0.0132962
0.0132931
0.0132905
0.0132875
0.0132845
0.0132813
0.0132788
0.013276
0.0132735
0.0132708
0.0132683
0.0132666
0.0132645
0.0132631
0.013262
0.0132612
0.0132613
0.013261
0.0132622
0.0132634
0.013265
0.0132673
0.0132699
0.0132732
0.0132765
0.0132803
0.0132849
0.0132896
0.0132944
0.0132994
0.0133051
0.0133104
0.013316
0.0133221
0.0133275
0.0133333
0.0133395
0.0133453
0.0133509
0.0133563
0.0133622
0.0133673
0.0133726
0.0133782
0.0133833
0.0133885
0.0133938
0.0133989
0.0134045
0.0134092
0.0134152
0.0134199
0.013426
0.0134303
0.0134363
0.0134412
0.0134465
0.0134516
0.0134572
0.0134617
0.0134671
0.0134718
0.0134775
0.0134815
0.0134868
0.0134912
0.0134968
0.0135005
0.013506
0.0135103
0.0135149
0.0135194
0.0135245
0.0135285
0.0135338
0.0135371
0.0135423
0.0135463
0.0135508
0.013555
0.0135587
0.0135628
0.0135671
0.0135706
0.0135739
0.0135775
0.0135799
0.0135823
0.0135849
0.0135867
0.0135884
0.0135895
0.0135903
0.0135907
0.013591
0.0135908
0.0135905
0.0135899
0.0135896
0.0135891
0.0135876
0.0135865
0.0135848
0.0135835
0.013582
0.013581
0.0135784
0.0135767
0.0135744
0.0135729
0.0135695
0.0135679
0.0135651
0.0135624
0.0135597
0.0135577
0.0135542
0.0135524
0.0135498
0.0135472
0.013545
0.0135434
0.0135406
0.0135391
0.0135375
0.0135356
0.0135345
0.0135323
0.0135316
0.0135304
0.0135291
0.0135281
0.0135281
0.0135285
0.0135286
0.0135298
0.0135321
0.013534
0.0135359
0.0135382
0.0135403
0.013543
0.0135455
0.0135483
0.0135517
0.0135548
0.0135591
0.0135626
0.0135679
0.013572
0.0135776
0.0135845
0.0135869
0.0136021
0.0135923
0.0136323
0.0135838
0.0136915
0.013543
0.0137862
0.0134527
0.013885
0.0133059
0.0139591
0.0131024
0.013958
0.0128551
0.0138153
0.0126072
0.0134854
0.0122095
0.0128232
0.0112027
0.0110678
0.00782567
0.00288087
0.012148
0.0120735
0.0120735
0.0120736
0.0120735
0.0120736
0.0121481
0.0121481
0.0218679
0.0203386
)
;

boundaryField
{
    inlet
    {
        type            calculated;
        value           uniform 0;
    }
    endWall
    {
        type            calculated;
        value           uniform 0;
    }
    sideWall
    {
        type            empty;
    }
}


// ************************************************************************* //
