/*--------------------------------*- C++ -*----------------------------------*\
| =========                 |                                                 |
| \\      /  F ield         | foam-extend: Open Source CFD                    |
|  \\    /   O peration     | Version:     3.2                                |
|   \\  /    A nd           | Web:         http://www.foam-extend.org         |
|    \\/     M anipulation  | For copyright notice see file Copyright         |
\*---------------------------------------------------------------------------*/
FoamFile
{
    version     2.0;
    format      ascii;
    class       areaScalarField;
    location    "840";
    object      Te;
}
// * * * * * * * * * * * * * * * * * * * * * * * * * * * * * * * * * * * * * //

dimensions      [0 0 1 0 0 0 0];

internalField   nonuniform List<scalar> 
550
(
0
0
0
0
0
0
0
0
0
0
0
0
0
0.008
0.008
0.004
0.004
0
0
0
0.008
0.004
0
0
0
0.008
0.004
0.004
0
0
0.012
0.004
0
0
0.156
0.008
0.004
0.004
0.004
0
0
0
0.296
0.116
0.112
0.004
0
0.004
0.54
0.34
0.052
0
0
0
0
0
0.52
0.516
0.452
0.276
0.168
0.004
0
0
0
0
0
0
0.572
0.448
0.32
0.196
0.068
0
0
0
0
0.592
0.468
0.348
0.228
0.104
0
0
0
0
0
0
0
0
0
0
0
0
0
0
0
1.088
0.968
0.84
0.712
0.584
0.452
0.324
0.204
0.08
0
0
0
0
0
0
1.18
1.116
1.044
0.972
0.9
0.832
0.784
0.748
0.732
0.752
0.896
2.024
1.92
1.82
1.72
1.616
1.508
1.404
1.308
1.216
1.132
1.056
0.984
0.912
0.844
0.772
0.704
0.628
0.552
0.476
0.416
1.408
1.372
1.34
1.32
1.32
1.336
1.364
1.384
1.396
1.4
1.4
1.388
1.332
1.244
1.132
1.012
0.904
0.808
0.728
0.648
0.576
0.504
0.428
0.348
0.264
0.18
0.104
0.04
0
0
1.828
1.668
1.524
1.392
1.264
1.14
1.012
0.888
0.764
0.652
0.548
0.468
0.4
0.352
0.316
0.292
0.284
0.304
0.36
3.5
3.58
3.676
3.732
3.74
3.736
3.728
3.716
3.7
3.684
3.656
3.628
3.592
3.556
3.496
3.448
3.364
3.3
3.2
3.14
3.056
3.02
2.972
2.972
2.992
3.068
3.208
3.248
3.332
3.436
3.776
4.632
4.788
4.924
5.064
5.06
5.028
4.972
4.908
4.82
4.74
4.672
4.596
4.512
4.408
4.276
2.64
2.544
2.48
2.432
2.392
2.356
2.324
2.288
2.256
2.224
0.208
0
0
0
0
0
0
0
0
0
0
0
0
0
0
0
0
0
0
0
0
0
0
0
0
0
0
0
0
0
0
0
0
0
0
0
0
0
0
0
0
0
0
0
0
0
0
0
0
0
0
0
0
0
0
0
0
0
0
0
0
0
0
0
0
0
0
9.808
9.904
8.76
8.672
8.616
8.576
8.548
8.528
8.512
8.504
8.496
8.5
8.556
15.684
15.58
15.488
13.604
13.536
13.48
13.42
13.352
11.9
11.716
11.572
11.44
11.324
11.228
11.136
11.052
9.348
9.056
8.82
8.628
8.52
8.444
8.376
8.312
8.248
8.18
8.104
8.016
7.904
7.736
6.664
6.548
3.836
3.644
3.544
3.46
3.364
3.228
2.876
2.716
2.616
2.54
2.468
2.396
2.312
2.216
0.948
0.868
0.812
0.76
0.708
0.648
0.58
0.496
0.392
0.26
0.088
0
0
0
0
0
0
0
0
0
0
0
0
0
0
0
0
0
0
0
0
0
0
0
0
0
0
0
0
0
0
0
0
0
0
0
0
0
0
0
0
0
0
0
0
0
0
0
0
0
0
0
0
0
0
0
0
0
0
0
0
0
0
0
0
0
0.832
0.8
0.756
0.704
0.648
0.584
0.512
0.432
0.34
0.236
0.1
0
0
0
0
0
0
0
0
0
0
0
0
0
0
0
0
0
0
0
5.616
5.46
5.312
5.172
5.036
4.888
4.716
4.532
4.388
4.272
4.164
4.06
3.944
3.796
3.584
3.272
3.02
2.832
2.684
2.576
2.484
2.404
2.324
2.24
2.144
2.04
1.932
1.816
1.704
1.58
1.436
1.252
1.032
0.868
0.76
0.656
0.56
0.468
0.376
0.28
0.188
0.092
0
0
0
0
0
0
0
0
0
0
0
0
0
0
0
0
0
0
0
0
0
0
0
0
0
0
0
0
)
;

boundaryField
{
    inlet
    {
        type            calculated;
        value           uniform 0;
    }
    endWall
    {
        type            calculated;
        value           uniform 0;
    }
    sideWall
    {
        type            empty;
    }
}


// ************************************************************************* //
