/*--------------------------------*- C++ -*----------------------------------*\
| =========                 |                                                 |
| \\      /  F ield         | foam-extend: Open Source CFD                    |
|  \\    /   O peration     | Version:     3.2                                |
|   \\  /    A nd           | Web:         http://www.foam-extend.org         |
|    \\/     M anipulation  | For copyright notice see file Copyright         |
\*---------------------------------------------------------------------------*/
FoamFile
{
    version     2.0;
    format      ascii;
    class       volScalarField;
    location    "840";
    object      testS;
}
// * * * * * * * * * * * * * * * * * * * * * * * * * * * * * * * * * * * * * //

dimensions      [0 0 0 0 0 0 0];

internalField   uniform 0;

boundaryField
{
    inlet
    {
        type            calculated;
        value           uniform 0;
    }
    outlet
    {
        type            calculated;
        value           uniform 0;
    }
    sideWall
    {
        type            empty;
    }
    bed
    {
        type            calculated;
        value           nonuniform List<scalar> 
550
(
0.0028847
0.00524761
0.00866767
0.0132577
0.0190467
0.0259064
0.0333112
0.0417148
0.0498812
0.0570678
0.0647339
0.0698913
0.0762444
0.0275463
0.027613
0.0878098
0.0428668
0.0905067
0.0892032
0.0862735
0.0168587
0.0300433
0.0792829
0.0754583
0.0655269
0.0268659
0.0236451
0.0224793
0.0663984
0.0677306
0.0197889
0.0646441
0.0619023
0.0597089
0.00518047
0.0552305
0.0562178
0.0120498
0.00958269
0.0511191
0.0502757
0.0483895
0.0481462
0.0493183
0.0479589
0.0478228
0.0469242
0.00783155
0.0454866
0.0449227
0.0450907
0.0438581
0.0427738
0.0410423
0.0410536
0.0408807
0.0408237
0.0409623
0.0405376
0.0411933
0.0413314
0.0413365
0.0409911
0.0409759
0.0406542
0.0405978
0.040432
0.0404032
0.0404818
0.0405998
0.040696
0.0406554
0.0406182
0.0404654
0.0405674
0.0405054
0.0406451
0.0404259
0.0406237
0.0405697
0.0406543
0.0405156
0.0408202
0.0407079
0.0408886
0.0407049
0.0407738
0.0406369
0.0409118
0.0408645
0.040707
0.0403809
0.0405149
0.0404275
0.040503
0.0403705
0.0404216
0.0402815
0.0403347
0.0402319
0.0403205
0.0402432
0.040329
0.0402415
0.0403191
0.0402314
0.0403071
0.0402137
0.0402846
0.0401854
0.0402559
0.04016
0.0402381
0.0401493
0.0402383
0.0401526
0.0402501
0.0401686
0.0402599
0.0401741
0.0402673
0.0401805
0.0402631
0.0401659
0.0402422
0.0401457
0.0402216
0.0401285
0.0402021
0.0401118
0.0401827
0.0400967
0.0401654
0.0400848
0.040152
0.0400789
0.0401436
0.0400776
0.040137
0.0400767
0.0401294
0.0400735
0.0401171
0.0400621
0.0400962
0.0400478
0.0400747
0.0400353
0.040056
0.0400268
0.0400411
0.0400216
0.0400292
0.0400192
0.0400173
0.0400167
0.0400057
0.0400137
0.039991
0.0400087
0.039976
0.0400005
0.0399566
0.0399909
0.0399373
0.0399815
0.0399162
0.0399683
0.0398936
0.0399535
0.0398668
0.0399366
0.03984
0.0399185
0.0398122
0.0398995
0.0397862
0.0398854
0.039763
0.039873
0.0397399
0.0398641
0.0397151
0.0398549
0.0396819
0.0398508
0.0396295
0.0398465
0.0395485
0.0398057
0.0394707
0.039758
0.039405
0.0397186
0.0393463
0.0396878
0.0392947
0.0396609
0.039249
0.0396341
0.0392089
0.0396112
0.0391746
0.0395862
0.0391541
0.0395609
0.0391489
0.0395299
0.0391627
0.0394981
0.0392088
0.0394627
0.0392782
0.0394236
0.0393777
0.0393841
0.0394242
0.039346
0.0393947
0.0393067
0.0393403
0.0392671
0.0392938
0.039238
0.0392534
0.0392096
0.0392188
0.0391844
0.0391841
0.0391538
0.0391543
0.0391286
0.0391231
0.0390995
0.0390946
0.0390744
0.0390676
0.0390501
0.0390424
0.0390213
0.0390157
0.0389981
0.0389847
0.0389715
0.0389581
0.0389401
0.0389237
0.0389093
0.0388929
0.038873
0.0388586
0.0388387
0.0388229
0.0388023
0.038785
0.0387634
0.0387445
0.0387273
0.0387048
0.0386862
0.0386675
0.0386492
0.0386302
0.0386111
0.0385958
0.0385783
0.0385589
0.0385452
0.0385267
0.0385131
0.038495
0.0384804
0.0384664
0.0384538
0.0384362
0.038422
0.0384078
0.0383931
0.0383828
0.0383698
0.0383553
0.0383408
0.0383306
0.0383181
0.0383027
0.0382945
0.03828
0.0382714
0.0382581
0.0382495
0.0382373
0.038229
0.0382171
0.0382092
0.0381985
0.0381909
0.0381801
0.0381723
0.0381619
0.0381542
0.0381435
0.0381362
0.0381257
0.0381182
0.038108
0.0381015
0.0380932
0.0380821
0.0380782
0.0380688
0.0380648
0.0380565
0.0380528
0.0380459
0.0380381
0.038035
0.0380293
0.0380233
0.0380178
0.0380115
0.0380102
0.0380063
0.0380013
0.0379975
0.0379929
0.0379901
0.0379853
0.0379823
0.0379774
0.0379745
0.0379653
0.0379605
0.0379549
0.0379516
0.0379422
0.0379385
0.0379299
0.0379264
0.0379186
0.0379156
0.0379094
0.0379013
0.0378991
0.0378927
0.037885
0.0378822
0.0378762
0.0378684
0.0378611
0.0378573
0.0378492
0.0378446
0.0378355
0.0378293
0.0378189
0.0378109
0.0378
0.0377914
0.0377796
0.0377651
0.0377567
0.0377417
0.0377325
0.0377187
0.0377036
0.0376937
0.0376806
0.0376659
0.0376519
0.0376424
0.0376299
0.0376162
0.0376036
0.0375894
0.0375818
0.0375697
0.0375556
0.0375473
0.0375334
0.0375241
0.0375097
0.0374979
0.0374881
0.0374707
0.0374574
0.0374427
0.0374261
0.0374095
0.0373899
0.0373748
0.0373555
0.037334
0.0373118
0.0372937
0.0372719
0.0372484
0.0372308
0.0372102
0.0371884
0.0371736
0.0371543
0.0371358
0.0371177
0.0371052
0.0370899
0.0370737
0.0370646
0.0370512
0.0370362
0.037027
0.0370136
0.0370042
0.0369896
0.03698
0.0369652
0.0369544
0.0369398
0.0369275
0.0369182
0.0369018
0.0368917
0.0368825
0.0368687
0.0368587
0.0368511
0.0368441
0.0368321
0.0368243
0.0368185
0.0368131
0.0368025
0.0367954
0.0367914
0.0367796
0.0367741
0.0367693
0.0367585
0.0367531
0.0367431
0.0367367
0.036734
0.0367236
0.0367209
0.036712
0.0367097
0.0367103
0.0367055
0.0367003
0.0367029
0.0367013
0.0366982
0.0367042
0.036705
0.036706
0.0367081
0.0367099
0.0367122
0.0367138
0.0367151
0.0367153
0.0367152
0.0367146
0.0367147
0.0367059
0.0367024
0.0366996
0.0366951
0.036691
0.0366871
0.0366749
0.0366687
0.0366647
0.0366612
0.0366508
0.0366476
0.0366476
0.0366389
0.0366394
0.0366428
0.0366392
0.0366432
0.0366514
0.0366516
0.0366593
0.03667
0.0366718
0.0366797
0.0366915
0.0366918
0.0366999
0.0366999
0.0367046
0.0367118
0.0367085
0.0367111
0.0367134
0.0367161
0.0367095
0.0367078
0.0367088
0.0366974
0.0366651
0.0366372
0.03661
0.0365948
0.0365681
0.0365475
0.0365343
0.0365091
0.0364921
0.0364751
0.0364603
0.0364324
0.0364224
0.0363963
0.0363754
0.036379
0.0362998
0.0364068
0.0361278
0.0365726
0.0357116
0.0367816
0.0350087
0.0367214
0.0343201
0.0366292
0.0338683
0.0364577
0.0339905
0.0361452
0.0352001
0.0355875
0.0353293
0.0346353
0.0332693
0.0329812
0.0297913
0.0327996
0.0613395
0.00425649
0.00823354
0.00436335
0.00385864
0.00238577
0.00184527
0.000860508
0.00107369
0.000672566
0.00253942
)
;
    }
    endWall
    {
        type            calculated;
        value           uniform 0;
    }
    topWall
    {
        type            calculated;
        value           uniform 0;
    }
}


// ************************************************************************* //
