/*--------------------------------*- C++ -*----------------------------------*\
| =========                 |                                                 |
| \\      /  F ield         | foam-extend: Open Source CFD                    |
|  \\    /   O peration     | Version:     3.2                                |
|   \\  /    A nd           | Web:         http://www.foam-extend.org         |
|    \\/     M anipulation  | For copyright notice see file Copyright         |
\*---------------------------------------------------------------------------*/
FoamFile
{
    version     2.0;
    format      ascii;
    class       areaScalarField;
    location    "840";
    object      thetaSS1init;
}
// * * * * * * * * * * * * * * * * * * * * * * * * * * * * * * * * * * * * * //

dimensions      [0 0 0 0 0 0 0];

internalField   nonuniform List<scalar> 
550
(
0.51117
0.699438
0.925428
1.1858
1.47371
1.77859
2.08901
2.39219
2.67761
2.93559
3.16036
3.34802
3.49814
3.61157
3.69106
3.73999
3.76259
3.76309
3.74583
3.71572
3.67558
3.62786
3.57459
3.51758
3.45841
3.39841
3.33867
3.28025
3.22385
3.16951
3.1173
3.06738
3.01988
2.97484
2.93226
2.8921
2.85433
2.81885
2.78559
2.75444
2.7253
2.69807
2.67262
2.64884
2.62661
2.60583
2.5864
2.56824
2.55127
2.53541
2.52059
2.50674
2.49379
2.48168
2.47032
2.45966
2.44964
2.4402
2.43129
2.42286
2.41485
2.40724
2.39998
2.39304
2.38639
2.38002
2.37388
2.36797
2.36227
2.35676
2.35142
2.34625
2.34121
2.3363
2.3315
2.3268
2.3222
2.31769
2.31326
2.30892
2.30466
2.30048
2.29637
2.29232
2.28835
2.28444
2.28059
2.27679
2.27305
2.26935
2.26569
2.26205
2.25844
2.25485
2.25128
2.24773
2.24421
2.24071
2.23725
2.23382
2.23041
2.22701
2.22363
2.22025
2.21687
2.21348
2.21009
2.20668
2.20326
2.19983
2.19637
2.19289
2.18938
2.18585
2.1823
2.17871
2.17508
2.17143
2.16775
2.16405
2.16032
2.15656
2.15279
2.14899
2.14518
2.14135
2.1375
2.13364
2.12977
2.12589
2.122
2.11811
2.11421
2.11032
2.10643
2.10255
2.09869
2.09484
2.091
2.08719
2.0834
2.07963
2.07589
2.07218
2.06849
2.06484
2.06121
2.05762
2.05405
2.05052
2.04701
2.04353
2.04009
2.03667
2.03328
2.02992
2.02659
2.02328
2.02001
2.01677
2.01355
2.01035
2.00719
2.00405
2.00093
1.99784
1.99478
1.99174
1.98873
1.98575
1.9828
1.97988
1.97698
1.97411
1.97127
1.96846
1.96568
1.96293
1.96021
1.95753
1.95487
1.95225
1.94967
1.94712
1.94461
1.94213
1.9397
1.9373
1.93494
1.93262
1.93034
1.9281
1.92591
1.92375
1.92164
1.91957
1.91755
1.91557
1.91362
1.91172
1.90986
1.90804
1.90625
1.90451
1.9028
1.90112
1.89949
1.89789
1.89632
1.89479
1.89329
1.89182
1.89038
1.88898
1.88761
1.88627
1.88496
1.88369
1.88246
1.88125
1.88009
1.87896
1.87787
1.87682
1.87581
1.87482
1.87385
1.87291
1.87199
1.87109
1.87022
1.86936
1.86853
1.86772
1.86694
1.86617
1.86542
1.86469
1.86398
1.86328
1.8626
1.86194
1.86129
1.86065
1.86002
1.85939
1.85878
1.85817
1.85757
1.85697
1.85637
1.85577
1.85517
1.85457
1.85396
1.85335
1.85273
1.8521
1.85146
1.85081
1.85015
1.84948
1.84879
1.84808
1.84736
1.84662
1.84587
1.8451
1.84431
1.84351
1.84269
1.84185
1.841
1.84013
1.83925
1.83834
1.83741
1.83647
1.8355
1.83452
1.83352
1.8325
1.83147
1.83042
1.82935
1.82828
1.82718
1.82608
1.82497
1.82385
1.82272
1.82158
1.82044
1.8193
1.81815
1.81699
1.81584
1.81468
1.81352
1.81236
1.8112
1.81005
1.80889
1.80773
1.80657
1.80541
1.80425
1.80309
1.80193
1.80077
1.7996
1.79844
1.79728
1.79612
1.79497
1.79382
1.79268
1.79155
1.79043
1.78932
1.78822
1.78713
1.78605
1.78499
1.78393
1.78288
1.78184
1.78081
1.77978
1.77877
1.77776
1.77677
1.77579
1.77483
1.77388
1.77295
1.77203
1.77114
1.77027
1.76941
1.76857
1.76774
1.76693
1.76613
1.76533
1.76455
1.76376
1.76298
1.7622
1.76141
1.76061
1.75981
1.75899
1.75816
1.75732
1.75647
1.75562
1.75475
1.75387
1.753
1.75212
1.75123
1.75035
1.74948
1.74861
1.74775
1.7469
1.74606
1.74523
1.7444
1.74359
1.74277
1.74196
1.74114
1.74032
1.73949
1.73865
1.73779
1.73691
1.73601
1.73509
1.73414
1.73316
1.73216
1.73112
1.73005
1.72894
1.72781
1.72665
1.72546
1.72425
1.72302
1.72177
1.7205
1.71922
1.71792
1.71662
1.71531
1.714
1.71268
1.71135
1.71003
1.70871
1.70739
1.70607
1.70475
1.70344
1.70211
1.70079
1.69945
1.69811
1.69675
1.69538
1.694
1.6926
1.69118
1.68975
1.6883
1.68683
1.68535
1.68386
1.68235
1.68083
1.67929
1.67774
1.67618
1.67461
1.67303
1.67144
1.66985
1.66825
1.66665
1.66504
1.66344
1.66184
1.66023
1.65863
1.65703
1.65543
1.65383
1.65223
1.65063
1.64903
1.64743
1.64583
1.64424
1.64265
1.64108
1.63951
1.63796
1.63643
1.63492
1.63343
1.63197
1.63054
1.62913
1.62775
1.62639
1.62505
1.62373
1.62243
1.62115
1.61988
1.61862
1.61737
1.61613
1.61489
1.61366
1.61243
1.6112
1.60999
1.60879
1.60759
1.60641
1.60524
1.60408
1.60292
1.60178
1.60064
1.5995
1.59836
1.59722
1.59608
1.59493
1.59378
1.59262
1.59146
1.5903
1.58913
1.58796
1.58679
1.58561
1.58443
1.58325
1.58207
1.58088
1.57968
1.57847
1.57724
1.57601
1.57476
1.57352
1.57227
1.57102
1.56977
1.56852
1.56728
1.56604
1.56479
1.56354
1.56227
1.56099
1.55968
1.55835
1.55698
1.5556
1.55417
1.55274
1.55129
1.54983
1.54836
1.54689
1.54541
1.54393
1.54241
1.54089
1.5393
1.53767
1.53589
1.53401
1.53179
1.52933
1.52613
1.52237
1.51708
1.51053
1.5008
1.48821
1.46901
1.44327
1.40402
1.3499
1.26914
1.15984
1.01011
0.812862
0.512737
0.243776
0.274353
0.482886
)
;

boundaryField
{
    inlet
    {
        type            calculated;
        value           uniform 0;
    }
    endWall
    {
        type            calculated;
        value           uniform 0;
    }
    sideWall
    {
        type            empty;
    }
}


// ************************************************************************* //
