/*--------------------------------*- C++ -*----------------------------------*\
| =========                 |                                                 |
| \\      /  F ield         | foam-extend: Open Source CFD                    |
|  \\    /   O peration     | Version:     3.2                                |
|   \\  /    A nd           | Web:         http://www.foam-extend.org         |
|    \\/     M anipulation  | For copyright notice see file Copyright         |
\*---------------------------------------------------------------------------*/
FoamFile
{
    version     2.0;
    format      ascii;
    class       areaScalarField;
    location    "840";
    object      thetaC2SS2;
}
// * * * * * * * * * * * * * * * * * * * * * * * * * * * * * * * * * * * * * //

dimensions      [0 0 0 0 0 0 0];

internalField   nonuniform List<scalar> 
550
(
0.127601
0.12771
0.127601
0.127601
0.127601
0.127601
0.128268
0.127601
0.127601
0.128598
0.127601
0.128749
0.128775
0.255412
0.263736
0.12781
0.205672
0.127601
0.127601
0.127601
0.349967
0.222159
0.127601
0.127601
0.127601
0.227278
0.251521
0.258488
0.127601
0.127601
0.270924
0.127718
0.127601
0.127601
0.531762
0.128932
0.128883
0.324648
0.362413
0.127601
0.127601
0.127601
0.1291
0.129916
0.129703
0.129082
0.127809
0.373837
0.128208
0.129122
0.12935
0.128981
0.128392
0.127941
0.128018
0.128541
0.129568
0.13075
0.131962
0.13195
0.132396
0.132299
0.132135
0.132557
0.132652
0.133157
0.133269
0.133671
0.133793
0.134237
0.134039
0.134083
0.133638
0.133624
0.133698
0.134047
0.134252
0.134238
0.134418
0.134657
0.134655
0.134688
0.135172
0.135346
0.135396
0.135259
0.135027
0.134975
0.135116
0.134866
0.133864
0.133194
0.133128
0.133207
0.133255
0.133293
0.133316
0.133328
0.133364
0.133452
0.133584
0.133729
0.133858
0.133976
0.134097
0.134231
0.134371
0.134512
0.134643
0.134762
0.134867
0.134964
0.135052
0.135141
0.135234
0.135331
0.135444
0.135561
0.135669
0.135781
0.135901
0.136015
0.13611
0.136192
0.136265
0.136342
0.136424
0.13651
0.1366
0.136692
0.136784
0.136879
0.136976
0.137071
0.137169
0.137266
0.137362
0.137459
0.137555
0.13765
0.137746
0.137842
0.137939
0.13803
0.138125
0.138217
0.13831
0.138401
0.138492
0.13858
0.138665
0.13875
0.138831
0.138913
0.138991
0.13907
0.139145
0.139216
0.139283
0.139351
0.139417
0.139479
0.139537
0.139597
0.139655
0.139715
0.139766
0.13982
0.139871
0.139919
0.139965
0.140014
0.140062
0.140106
0.140149
0.140189
0.140234
0.140276
0.140316
0.140352
0.140388
0.140427
0.140455
0.140489
0.140519
0.140547
0.140578
0.140599
0.140625
0.140648
0.140667
0.140691
0.140704
0.140722
0.140728
0.14074
0.140748
0.140753
0.140765
0.140765
0.140771
0.140766
0.140768
0.140766
0.140763
0.140758
0.140759
0.140748
0.140736
0.14073
0.140722
0.140703
0.140692
0.140677
0.14066
0.140642
0.140621
0.140598
0.140581
0.140553
0.140531
0.140507
0.140471
0.140442
0.14041
0.140377
0.140343
0.140308
0.140282
0.140246
0.140209
0.140172
0.140143
0.140105
0.140076
0.140037
0.140009
0.139971
0.139944
0.139917
0.139883
0.139858
0.139836
0.139806
0.139788
0.139772
0.139758
0.139738
0.139729
0.139723
0.139712
0.139711
0.139705
0.13971
0.13971
0.13972
0.139726
0.139734
0.139753
0.139767
0.139783
0.139803
0.139825
0.13985
0.139871
0.139901
0.139934
0.139961
0.139999
0.14003
0.140071
0.140106
0.140142
0.14018
0.140226
0.140267
0.140309
0.140352
0.140388
0.140433
0.140479
0.140526
0.140565
0.140613
0.140662
0.140702
0.140752
0.140792
0.14084
0.14088
0.140928
0.140966
0.141012
0.141047
0.141091
0.141125
0.141165
0.141196
0.141234
0.141261
0.141295
0.141318
0.141348
0.141368
0.141395
0.141411
0.141435
0.141456
0.141467
0.141485
0.141494
0.141509
0.141514
0.141526
0.141536
0.141535
0.141541
0.141546
0.141548
0.141548
0.141536
0.141532
0.141526
0.141518
0.141508
0.141497
0.141484
0.14147
0.141455
0.141438
0.141429
0.141409
0.141388
0.141364
0.141349
0.141322
0.141303
0.141271
0.141247
0.141212
0.141184
0.141155
0.141115
0.141082
0.141049
0.141005
0.140971
0.140935
0.140899
0.140855
0.14082
0.140777
0.140745
0.140705
0.140674
0.140637
0.140608
0.140572
0.140547
0.140522
0.140488
0.140465
0.140432
0.140408
0.140384
0.14035
0.140324
0.140298
0.140271
0.140235
0.140207
0.14018
0.140153
0.140128
0.140093
0.140071
0.14005
0.140023
0.14001
0.13999
0.139984
0.139974
0.139969
0.139979
0.139984
0.139996
0.140015
0.140038
0.140067
0.140091
0.140129
0.140172
0.140218
0.140258
0.140311
0.140366
0.140413
0.140472
0.140531
0.140581
0.140643
0.140703
0.140764
0.140814
0.140874
0.140934
0.140982
0.141041
0.141099
0.141148
0.141207
0.141256
0.141317
0.141367
0.141429
0.141481
0.141544
0.141597
0.141651
0.141715
0.141767
0.14182
0.141884
0.141936
0.141988
0.142039
0.142101
0.142151
0.142201
0.142249
0.142309
0.142356
0.142403
0.142462
0.142507
0.142552
0.142609
0.142653
0.14271
0.142753
0.142796
0.142851
0.142893
0.142947
0.142987
0.143025
0.143075
0.143123
0.143155
0.143198
0.143238
0.143259
0.143291
0.143318
0.143341
0.14336
0.143374
0.143384
0.143391
0.143394
0.143393
0.143389
0.143383
0.143389
0.143378
0.143364
0.143349
0.143332
0.143314
0.14331
0.143288
0.143263
0.143238
0.143225
0.143194
0.143162
0.143145
0.143109
0.143072
0.143051
0.143014
0.142976
0.142955
0.142919
0.142883
0.142864
0.142831
0.142797
0.142781
0.142749
0.142735
0.142706
0.142678
0.142668
0.142642
0.142618
0.142596
0.142594
0.142579
0.142565
0.142572
0.142563
0.142556
0.14255
0.142564
0.142562
0.142561
0.14258
0.142583
0.14259
0.142618
0.142632
0.142651
0.142675
0.142704
0.142738
0.142778
0.142821
0.142868
0.142918
0.142969
0.143023
0.143078
0.143135
0.143195
0.143237
0.143301
0.143354
0.14341
0.143465
0.143508
0.143565
0.143602
0.143726
0.143783
0.144218
0.144942
0.14701
0.154225
0.156071
0.127601
0.127601
0.127601
0.127601
0.127601
0.127601
0.127601
0.127601
0.229698
0.213632
)
;

boundaryField
{
    inlet
    {
        type            calculated;
        value           uniform 0;
    }
    endWall
    {
        type            calculated;
        value           uniform 0;
    }
    sideWall
    {
        type            empty;
    }
}


// ************************************************************************* //
