/*--------------------------------*- C++ -*----------------------------------*\
| =========                 |                                                 |
| \\      /  F ield         | foam-extend: Open Source CFD                    |
|  \\    /   O peration     | Version:     3.2                                |
|   \\  /    A nd           | Web:         http://www.foam-extend.org         |
|    \\/     M anipulation  | For copyright notice see file Copyright         |
\*---------------------------------------------------------------------------*/
FoamFile
{
    version     2.0;
    format      ascii;
    class       areaScalarField;
    location    "840";
    object      thetaSS2;
}
// * * * * * * * * * * * * * * * * * * * * * * * * * * * * * * * * * * * * * //

dimensions      [0 0 0 0 0 0 0];

internalField   nonuniform List<scalar> 
550
(
0.511207
0.700034
0.926792
1.18868
1.47869
1.78629
2.09993
2.40641
2.69472
2.95852
3.18225
3.37814
3.53032
3.64778
3.71674
3.74611
3.75844
3.73783
3.68012
3.66082
3.58896
3.50674
3.46314
3.37787
3.31253
3.27712
3.26212
3.2315
3.19599
3.16521
3.11668
3.07018
3.01143
2.9527
2.92992
2.92227
2.883
2.81735
2.75688
2.71269
2.68411
2.68593
2.70401
2.69691
2.66988
2.63608
2.59061
2.56476
2.5634
2.56564
2.55514
2.53384
2.50926
2.48829
2.47839
2.47777
2.48739
2.50041
2.51438
2.5257
2.53031
2.52865
2.5252
2.51974
2.51486
2.51135
2.50998
2.5114
2.51436
2.51731
2.51894
2.5193
2.51862
2.51881
2.51917
2.5201
2.52026
2.52133
2.52327
2.5246
2.52536
2.52692
2.52759
2.52681
2.52429
2.52122
2.51822
2.51654
2.51322
2.50744
2.50114
2.49886
2.49806
2.49814
2.49836
2.49892
2.49955
2.50088
2.50262
2.50512
2.50776
2.51066
2.51326
2.51589
2.51816
2.52032
2.52208
2.52372
2.52503
2.52641
2.52766
2.52919
2.53068
2.53249
2.53422
2.5362
2.53804
2.53994
2.54161
2.54331
2.54477
2.54617
2.54731
2.54845
2.54942
2.55053
2.55153
2.55265
2.5537
2.55483
2.55589
2.55705
2.55816
2.55938
2.56057
2.56185
2.56308
2.56435
2.56554
2.56672
2.5678
2.56878
2.56966
2.57042
2.57115
2.57181
2.57249
2.57311
2.57379
2.5744
2.57506
2.57565
2.57626
2.57678
2.5773
2.57773
2.57814
2.57843
2.57872
2.57887
2.57906
2.5791
2.57922
2.57918
2.57923
2.5791
2.57905
2.57884
2.57869
2.57836
2.57813
2.57774
2.57746
2.57702
2.57672
2.5763
2.57604
2.57567
2.57544
2.57509
2.5749
2.57455
2.57435
2.57393
2.57376
2.5732
2.57308
2.57235
2.57231
2.57156
2.57161
2.57094
2.57106
2.57044
2.57062
2.57007
2.57031
2.56979
2.57005
2.56954
2.56977
2.56925
2.56941
2.56889
2.56888
2.56835
2.5681
2.56755
2.56696
2.56644
2.56542
2.5649
2.56343
2.56294
2.561
2.56046
2.55832
2.55769
2.55567
2.55494
2.55312
2.55232
2.55061
2.54977
2.54821
2.54731
2.54585
2.54492
2.54354
2.54255
2.5412
2.54016
2.53892
2.53783
2.53669
2.53557
2.53446
2.53335
2.53228
2.53118
2.53011
2.52907
2.52801
2.52699
2.526
2.52504
2.52405
2.52312
2.5222
2.52131
2.52044
2.5196
2.51878
2.51799
2.51722
2.51648
2.51576
2.5151
2.51448
2.5139
2.51336
2.51287
2.51242
2.512
2.51164
2.51134
2.51108
2.51086
2.5107
2.51056
2.51047
2.51039
2.51035
2.51036
2.51039
2.51044
2.5105
2.51057
2.51067
2.5108
2.51094
2.51109
2.51126
2.51148
2.51168
2.51191
2.51215
2.51241
2.51268
2.51295
2.51322
2.51349
2.51377
2.51405
2.51432
2.51457
2.51482
2.51503
2.51523
2.51539
2.51553
2.51564
2.51573
2.51579
2.51583
2.51584
2.51587
2.51587
2.51587
2.51586
2.51583
2.51579
2.51572
2.51566
2.51556
2.51544
2.51533
2.5152
2.51504
2.51483
2.51461
2.51437
2.51411
2.51384
2.51354
2.51322
2.51287
2.51249
2.51208
2.51166
2.5112
2.51068
2.51013
2.50958
2.509
2.50838
2.50775
2.50709
2.5064
2.50569
2.50497
2.50421
2.50341
2.50261
2.50176
2.50089
2.50003
2.49915
2.49824
2.49732
2.49639
2.49546
2.49451
2.49355
2.49258
2.49161
2.49065
2.48969
2.48874
2.48778
2.48682
2.48585
2.48487
2.4839
2.4829
2.48188
2.48088
2.47987
2.47884
2.4778
2.47678
2.47577
2.47476
2.47376
2.47276
2.47181
2.47087
2.46998
2.46912
2.46831
2.46756
2.46684
2.4662
2.46562
2.46508
2.46459
2.46415
2.46376
2.4634
2.46309
2.46285
2.46266
2.46249
2.46238
2.46231
2.46228
2.46231
2.46241
2.46253
2.46271
2.46296
2.46325
2.46355
2.46389
2.46427
2.46466
2.46507
2.46553
2.46597
2.46642
2.46687
2.46732
2.46778
2.46824
2.46871
2.46918
2.46966
2.47011
2.47059
2.47109
2.47158
2.47211
2.47266
2.4732
2.47375
2.47434
2.47494
2.47553
2.47613
2.47674
2.47735
2.47792
2.47851
2.4791
2.47965
2.48021
2.48077
2.48132
2.48189
2.48242
2.48299
2.48358
2.48417
2.48479
2.4854
2.48606
2.48676
2.48744
2.48812
2.48883
2.48948
2.49011
2.49073
2.49131
2.49183
2.4923
2.49268
2.49298
2.49318
2.49329
2.49329
2.49322
2.49309
2.49289
2.4926
2.49224
2.49181
2.49133
2.49082
2.49028
2.48967
2.48904
2.48842
2.48778
2.48712
2.48648
2.48586
2.48524
2.48468
2.48416
2.48367
2.48325
2.48289
2.48254
2.48226
2.482
2.48172
2.48147
2.48122
2.48094
2.48066
2.48031
2.47998
2.47964
2.47922
2.47879
2.47837
2.47797
2.47751
2.47712
2.47679
2.47652
2.47636
2.47636
2.47639
2.47651
2.47674
2.47703
2.47739
2.47789
2.47843
2.47903
2.47971
2.48053
2.48122
2.48248
2.48293
2.48484
2.48475
2.4879
2.48664
2.49188
2.48927
2.49702
2.49379
2.50291
2.49922
2.50708
2.50295
2.50535
2.50062
2.49257
2.48606
2.46669
2.45497
2.41687
2.38128
2.27189
2.09304
1.446
0.689677
0.898785
0.633497
0.593463
0.46557
0.412301
0.300493
0.327917
0.49387
0.808457
)
;

boundaryField
{
    inlet
    {
        type            calculated;
        value           uniform 0;
    }
    endWall
    {
        type            calculated;
        value           uniform 0;
    }
    sideWall
    {
        type            empty;
    }
}


// ************************************************************************* //
