/*--------------------------------*- C++ -*----------------------------------*\
| =========                 |                                                 |
| \\      /  F ield         | foam-extend: Open Source CFD                    |
|  \\    /   O peration     | Version:     3.2                                |
|   \\  /    A nd           | Web:         http://www.foam-extend.org         |
|    \\/     M anipulation  | For copyright notice see file Copyright         |
\*---------------------------------------------------------------------------*/
FoamFile
{
    version     2.0;
    format      ascii;
    class       areaScalarField;
    location    "840";
    object      thetaHMaxB;
}
// * * * * * * * * * * * * * * * * * * * * * * * * * * * * * * * * * * * * * //

dimensions      [0 0 0 0 0 0 0];

internalField   nonuniform List<scalar> 
550
(
0
0
0
0
0
0
0
0
0
0
0
0
0
0
0
0
0
0
0
0
0
0
0
0
0
0
0
0
0
0
0
0
0
0
0
0
0
0
0
0
0
0
0
0
0
0
0
0
0
0
0
0
0
0
0
0
0
0.0747585
0.075176
0.0749089
0.0749137
0.0746229
0.0743052
0.0743272
0.0741737
0.0742571
0.0741278
0.0741666
0.0740555
0.0741283
0.0738512
0.073713
0.0733103
0.0731492
0.073039
0.0730823
0.0730491
0.0728995
0.0728577
0.0728508
0.0727153
0.0726012
0.0727318
0.0726968
0.0725978
0.0724005
0.0721544
0.0720062
0.0719632
0.0717131
0.0710656
0.0705964
0.0704486
0.0703785
0.0702926
0.0702016
0.0701035
0.0700005
0.0699112
0.0698503
0.0698126
0.0697817
0.069743
0.0696985
0.0696551
0.0696182
0.0695844
0.0695496
0.0695097
0.0694626
0.0694077
0.0693471
0.0692817
0.0692152
0.0691506
0.069086
0.069029
0.0689722
0.0689104
0.0688496
0.0687917
0.0687294
0.0686573
0.0685772
0.0684927
0.0684089
0.0683269
0.0682467
0.0681678
0.0680894
0.0680106
0.067933
0.0678557
0.0677779
0.0677014
0.0676243
0.0675475
0.0674714
0.0673946
0.0673185
0.0672429
0.0671681
0.0670942
0.0670185
0.0669452
0.0668716
0.0667992
0.0667265
0.0666548
0.0665824
0.0665094
0.0664371
0.066364
0.0662918
0.0662187
0.0661466
0.0660735
0.0659995
0.0659247
0.065851
0.0657767
0.0657015
0.0656256
0.0655513
0.0654762
0.0654031
0.0653267
0.0652524
0.0651777
0.0651025
0.065027
0.064954
0.0648808
0.0648074
0.0647339
0.0646601
0.0645892
0.0645182
0.0644472
0.0643759
0.0643045
0.0642362
0.0641644
0.0640958
0.0640269
0.0639579
0.0638921
0.0638227
0.0637566
0.0636903
0.063624
0.0635611
0.0634945
0.0634315
0.0633648
0.0633018
0.0632388
0.0631759
0.0631169
0.0630543
0.0629956
0.0629333
0.062875
0.0628169
0.0627591
0.0627015
0.0626479
0.0625906
0.0625334
0.0624803
0.0624274
0.0623705
0.0623178
0.0622652
0.0622127
0.0621603
0.062108
0.0620558
0.0620077
0.0619557
0.0619079
0.0618602
0.0618085
0.061761
0.0617137
0.0616667
0.0616201
0.0615737
0.061532
0.0614866
0.0614416
0.0613972
0.0613575
0.0613141
0.0612757
0.0612337
0.0611967
0.0611563
0.0611209
0.0610865
0.0610491
0.0610168
0.0609856
0.0609517
0.060923
0.0608957
0.0608695
0.060841
0.0608174
0.0607952
0.0607705
0.0607507
0.0607284
0.0607108
0.0606908
0.0606753
0.0606573
0.0606403
0.0606276
0.0606123
0.0605979
0.0605843
0.0605714
0.0605591
0.0605443
0.0605333
0.0605228
0.0605094
0.0604997
0.0604869
0.0604777
0.0604652
0.0604529
0.0604406
0.0604317
0.0604193
0.0604069
0.0603943
0.060378
0.0603651
0.060352
0.0603387
0.0603215
0.0603076
0.0602934
0.0602752
0.0602602
0.0602411
0.0602251
0.0602052
0.0601881
0.0601669
0.0601487
0.0601263
0.0601068
0.0600829
0.0600621
0.0600369
0.0600145
0.0599877
0.0599638
0.0599353
0.0599098
0.0598798
0.0598529
0.0598212
0.0597926
0.0597632
0.0597294
0.0596987
0.0596635
0.0596314
0.0595949
0.0595616
0.0595275
0.0594892
0.059454
0.0594184
0.059382
0.0593452
0.059304
0.0592662
0.0592278
0.0591891
0.05915
0.0591104
0.0590708
0.0590305
0.0589901
0.0589496
0.0589126
0.0588713
0.05883
0.0587883
0.0587506
0.0587085
0.0586701
0.0586275
0.0585887
0.0585456
0.0585064
0.0584669
0.0584234
0.0583835
0.0583434
0.0582994
0.058259
0.0582187
0.058178
0.0581336
0.058093
0.0580488
0.0580085
0.0579644
0.0579243
0.0578807
0.0578411
0.0577977
0.0577584
0.0577194
0.0576765
0.0576379
0.0575953
0.0575568
0.0575184
0.057476
0.0574376
0.0573994
0.057361
0.0573188
0.0572807
0.0572429
0.0572052
0.0571681
0.0571271
0.0570906
0.0570547
0.0570155
0.0569811
0.0569435
0.056911
0.0568757
0.0568414
0.0568126
0.0567809
0.0567505
0.0567217
0.0566939
0.0566675
0.0566384
0.0566141
0.0565909
0.0565685
0.056543
0.0565221
0.0565016
0.0564777
0.0564581
0.0564387
0.0564153
0.0563963
0.0563772
0.0563578
0.0563344
0.0563149
0.0562952
0.0562711
0.0562507
0.0562302
0.0562055
0.0561846
0.0561593
0.056138
0.0561121
0.0560904
0.056064
0.0560416
0.0560144
0.0559867
0.055963
0.0559342
0.0559048
0.0558793
0.0558488
0.0558175
0.0557857
0.0557579
0.0557248
0.0556913
0.0556572
0.0556274
0.0555924
0.0555572
0.0555264
0.0554906
0.0554545
0.0554233
0.0553868
0.0553553
0.0553185
0.0552816
0.0552494
0.055212
0.0551793
0.0551411
0.0551025
0.0550686
0.0550343
0.0549941
0.0549586
0.0549224
0.05488
0.0548422
0.0548036
0.0547642
0.054724
0.054683
0.0546413
0.0545987
0.0545555
0.0545116
0.0544671
0.054422
0.054382
0.0543358
0.054289
0.0542418
0.0541941
0.0541459
0.0541031
0.054054
0.0540045
0.0539545
0.0539103
0.0538593
0.0538082
0.0537628
0.0537111
0.0536592
0.0536131
0.0535609
0.0535087
0.0534625
0.0534104
0.0533584
0.0533128
0.0532614
0.0532098
0.0531649
0.053114
0.0530696
0.0530194
0.0529694
0.0529262
0.0528771
0.0528285
0.0527804
0.0527392
0.0526924
0.0526463
0.052607
0.0525621
0.0525178
0.0524741
0.0524374
0.052395
0.0523532
0.0523185
0.0522782
0.0522388
0.0522065
0.0521689
0.0521321
0.0520963
0.0520614
0.0520275
0.0519944
0.0519621
0.0519305
0.0518997
0.0518693
0.0518395
0.0518099
0.0517807
0.0517513
0.0517157
0.0516854
0.0516496
0.0516102
0.0515668
0.0515074
0.0514451
0.0513508
0.0512685
0.0511107
0.0510438
0.0509696
0.0512631
0.0530854
0.0527795
0
0
0
0
0
0
0
0
0
0
)
;

boundaryField
{
    inlet
    {
        type            calculated;
        value           uniform 0;
    }
    endWall
    {
        type            calculated;
        value           uniform 0;
    }
    sideWall
    {
        type            empty;
    }
}


// ************************************************************************* //
