/*--------------------------------*- C++ -*----------------------------------*\
| =========                 |                                                 |
| \\      /  F ield         | foam-extend: Open Source CFD                    |
|  \\    /   O peration     | Version:     3.2                                |
|   \\  /    A nd           | Web:         http://www.foam-extend.org         |
|    \\/     M anipulation  | For copyright notice see file Copyright         |
\*---------------------------------------------------------------------------*/
FoamFile
{
    version     2.0;
    format      ascii;
    class       areaScalarField;
    location    "840";
    object      thetaHMaxSS1;
}
// * * * * * * * * * * * * * * * * * * * * * * * * * * * * * * * * * * * * * //

dimensions      [0 0 0 0 0 0 0];

internalField   nonuniform List<scalar> 
550
(
0
0
0
0
0
0
0
0
0
0
0
0
0
0
0
0
0
0
0
0
0
0
0
0
0
0
0
0
0
0
0
0
0
0
0
0
0
0
0
0
0
0
0
0
0
0
0
0
0
0
0
0
0
0
0
0
0
2.50041
2.51438
2.50544
2.5056
2.49587
2.48525
2.48598
2.48085
2.48364
2.47932
2.48061
2.4769
2.47933
2.47006
2.46544
2.45198
2.44658
2.4429
2.44435
2.44324
2.43824
2.43684
2.43661
2.43207
2.42826
2.43262
2.43146
2.42814
2.42154
2.41331
2.40836
2.40692
2.39855
2.3769
2.3612
2.35626
2.35392
2.35104
2.348
2.34472
2.34127
2.33829
2.33625
2.33499
2.33396
2.33266
2.33117
2.32972
2.32849
2.32736
2.32619
2.32486
2.32328
2.32145
2.31942
2.31723
2.31501
2.31285
2.31069
2.30878
2.30688
2.30481
2.30278
2.30084
2.29876
2.29635
2.29367
2.29084
2.28804
2.2853
2.28261
2.27997
2.27735
2.27472
2.27212
2.26954
2.26693
2.26438
2.2618
2.25923
2.25668
2.25411
2.25157
2.24904
2.24654
2.24407
2.24154
2.23908
2.23662
2.2342
2.23177
2.22937
2.22695
2.22451
2.22209
2.21964
2.21723
2.21478
2.21237
2.20993
2.20745
2.20495
2.20249
2.2
2.19749
2.19495
2.19246
2.18995
2.1875
2.18495
2.18247
2.17997
2.17745
2.17493
2.17248
2.17004
2.16758
2.16512
2.16265
2.16029
2.15791
2.15553
2.15315
2.15076
2.14848
2.14608
2.14378
2.14148
2.13917
2.13697
2.13465
2.13244
2.13022
2.128
2.1259
2.12367
2.12156
2.11933
2.11722
2.11512
2.11301
2.11104
2.10895
2.10698
2.1049
2.10295
2.10101
2.09907
2.09715
2.09535
2.09344
2.09153
2.08975
2.08798
2.08608
2.08431
2.08255
2.0808
2.07905
2.0773
2.07555
2.07394
2.0722
2.0706
2.06901
2.06728
2.06569
2.06411
2.06254
2.06098
2.05943
2.05803
2.05651
2.05501
2.05352
2.05219
2.05074
2.04946
2.04805
2.04681
2.04546
2.04428
2.04313
2.04188
2.0408
2.03976
2.03862
2.03766
2.03675
2.03587
2.03492
2.03413
2.03339
2.03256
2.0319
2.03115
2.03056
2.0299
2.02938
2.02878
2.02821
2.02778
2.02727
2.02679
2.02633
2.0259
2.02549
2.025
2.02463
2.02428
2.02383
2.0235
2.02307
2.02277
2.02235
2.02194
2.02153
2.02123
2.02082
2.0204
2.01998
2.01943
2.019
2.01856
2.01812
2.01754
2.01708
2.01661
2.016
2.01549
2.01485
2.01432
2.01365
2.01308
2.01237
2.01176
2.01102
2.01036
2.00956
2.00887
2.00803
2.00728
2.00638
2.00558
2.00463
2.00377
2.00277
2.00187
2.00081
1.99985
1.99887
1.99774
1.99671
1.99553
1.99446
1.99324
1.99213
1.99099
1.98971
1.98853
1.98734
1.98612
1.98489
1.98351
1.98225
1.98096
1.97967
1.97836
1.97704
1.97571
1.97437
1.97301
1.97166
1.97042
1.96904
1.96766
1.96626
1.965
1.96359
1.96231
1.96089
1.95959
1.95815
1.95684
1.95551
1.95406
1.95272
1.95138
1.94991
1.94856
1.94721
1.94585
1.94437
1.94301
1.94153
1.94018
1.93871
1.93737
1.93591
1.93458
1.93313
1.93182
1.93051
1.92908
1.92779
1.92636
1.92507
1.92379
1.92237
1.92109
1.91981
1.91853
1.91712
1.91584
1.91457
1.91332
1.91207
1.9107
1.90948
1.90828
1.90697
1.90582
1.90456
1.90348
1.90229
1.90115
1.90018
1.89912
1.89811
1.89714
1.89621
1.89533
1.89436
1.89354
1.89277
1.89202
1.89117
1.89047
1.88978
1.88898
1.88833
1.88768
1.8869
1.88626
1.88562
1.88497
1.88419
1.88354
1.88288
1.88207
1.88139
1.88071
1.87988
1.87918
1.87833
1.87762
1.87676
1.87603
1.87515
1.8744
1.87349
1.87256
1.87177
1.8708
1.86982
1.86897
1.86795
1.8669
1.86584
1.86491
1.8638
1.86268
1.86154
1.86054
1.85937
1.85819
1.85717
1.85597
1.85476
1.85371
1.8525
1.85144
1.85021
1.84898
1.8479
1.84665
1.84556
1.84428
1.84299
1.84185
1.84071
1.83936
1.83817
1.83696
1.83555
1.83428
1.83299
1.83167
1.83033
1.82896
1.82756
1.82614
1.82469
1.82322
1.82173
1.82022
1.81889
1.81734
1.81578
1.8142
1.8126
1.81099
1.80956
1.80792
1.80626
1.80459
1.80311
1.80141
1.7997
1.79818
1.79645
1.79471
1.79317
1.79143
1.78968
1.78813
1.78639
1.78465
1.78313
1.78141
1.77968
1.77818
1.77648
1.77499
1.77331
1.77164
1.7702
1.76855
1.76693
1.76532
1.76394
1.76238
1.76084
1.75952
1.75802
1.75654
1.75508
1.75385
1.75243
1.75103
1.74987
1.74852
1.74721
1.74613
1.74487
1.74364
1.74244
1.74127
1.74014
1.73903
1.73795
1.7369
1.73587
1.73485
1.73385
1.73286
1.73188
1.7309
1.72971
1.7287
1.7275
1.72618
1.72473
1.72274
1.72066
1.7175
1.71475
1.70948
1.70724
1.70476
1.71457
1.77552
1.76529
0
0
0
0
0
0
0
0
0
0
)
;

boundaryField
{
    inlet
    {
        type            calculated;
        value           uniform 0;
    }
    endWall
    {
        type            calculated;
        value           uniform 0;
    }
    sideWall
    {
        type            empty;
    }
}


// ************************************************************************* //
