/*--------------------------------*- C++ -*----------------------------------*\
| =========                 |                                                 |
| \\      /  F ield         | foam-extend: Open Source CFD                    |
|  \\    /   O peration     | Version:     3.2                                |
|   \\  /    A nd           | Web:         http://www.foam-extend.org         |
|    \\/     M anipulation  | For copyright notice see file Copyright         |
\*---------------------------------------------------------------------------*/
FoamFile
{
    version     2.0;
    format      ascii;
    class       areaScalarField;
    location    "840";
    object      thetaCSS2;
}
// * * * * * * * * * * * * * * * * * * * * * * * * * * * * * * * * * * * * * //

dimensions      [0 0 0 0 0 0 0];

internalField   nonuniform List<scalar> 
550
(
0.127208
0.127316
0.127208
0.127208
0.127208
0.127208
0.127873
0.127208
0.127208
0.128202
0.12665
0.129611
0.126997
0.256834
0.260963
0.128689
0.20477
0.126816
0.127334
0.128722
0.339179
0.229188
0.12586
0.126616
0.130773
0.230457
0.252562
0.256035
0.128959
0.126481
0.267273
0.127854
0.124745
0.125505
0.539469
0.130469
0.127473
0.321694
0.358008
0.125674
0.126267
0.129023
0.130447
0.129429
0.130137
0.128508
0.126308
0.374755
0.128653
0.129676
0.128698
0.129595
0.129496
0.130187
0.129994
0.130434
0.131311
0.132166
0.133569
0.133254
0.133499
0.133388
0.133525
0.133657
0.133895
0.134157
0.134342
0.134636
0.134714
0.134935
0.134771
0.134832
0.134583
0.134719
0.134682
0.134971
0.134961
0.135179
0.135154
0.135374
0.135309
0.135505
0.135533
0.135726
0.135533
0.135547
0.135278
0.135349
0.135037
0.134808
0.134252
0.134101
0.133924
0.134053
0.134015
0.134168
0.134143
0.134305
0.134313
0.134516
0.134571
0.134792
0.134847
0.135056
0.135105
0.135315
0.135366
0.135572
0.135612
0.135805
0.135828
0.136008
0.13602
0.136196
0.136206
0.136388
0.136405
0.136594
0.136609
0.136795
0.136811
0.136992
0.136995
0.137159
0.137152
0.137313
0.137311
0.137475
0.137481
0.137646
0.137656
0.13782
0.137836
0.137996
0.138016
0.138172
0.138194
0.138343
0.13837
0.13851
0.13854
0.138673
0.138708
0.138831
0.138871
0.138986
0.139031
0.139136
0.139185
0.139279
0.13933
0.139412
0.139467
0.139537
0.139597
0.139653
0.139717
0.139758
0.139827
0.139853
0.139928
0.139942
0.140021
0.140022
0.14011
0.140099
0.140192
0.140168
0.140267
0.14023
0.140336
0.140287
0.140403
0.140343
0.140465
0.140393
0.140524
0.140443
0.140581
0.140487
0.140634
0.140527
0.140685
0.140558
0.140741
0.140578
0.140812
0.140577
0.140901
0.140551
0.140986
0.140508
0.141061
0.140449
0.141124
0.140377
0.141182
0.140295
0.141234
0.140204
0.141273
0.140102
0.1413
0.139994
0.141309
0.139884
0.141298
0.139777
0.141248
0.139686
0.141163
0.139621
0.141032
0.139602
0.140861
0.139641
0.140674
0.139704
0.140501
0.139745
0.140346
0.139756
0.1402
0.139742
0.140072
0.139714
0.139956
0.139676
0.139854
0.139625
0.139746
0.139562
0.139651
0.139496
0.13956
0.139435
0.139478
0.139378
0.139407
0.13933
0.139341
0.139286
0.139287
0.139242
0.139246
0.139215
0.139215
0.13919
0.139196
0.13918
0.139185
0.13918
0.139187
0.139192
0.139201
0.139215
0.139226
0.139249
0.139269
0.139294
0.139318
0.139349
0.139379
0.139416
0.139448
0.139495
0.139531
0.139579
0.139622
0.139671
0.13972
0.139769
0.139818
0.139873
0.139927
0.13998
0.140034
0.140087
0.140139
0.1402
0.140254
0.140313
0.140364
0.140429
0.140479
0.140538
0.14059
0.140645
0.140698
0.140748
0.1408
0.140848
0.140898
0.14094
0.140988
0.141026
0.141071
0.141103
0.141144
0.141172
0.141209
0.14123
0.141265
0.141281
0.141312
0.141324
0.141354
0.141362
0.141383
0.141391
0.141405
0.141413
0.141419
0.141429
0.14143
0.141433
0.141434
0.141435
0.14143
0.141424
0.141411
0.141407
0.141392
0.141384
0.141365
0.141354
0.141333
0.141318
0.141296
0.141281
0.141259
0.141236
0.141209
0.141185
0.141159
0.141129
0.141102
0.141065
0.141036
0.140995
0.140966
0.140922
0.140885
0.140845
0.140805
0.14076
0.140724
0.140681
0.14064
0.140595
0.140558
0.140513
0.14048
0.140437
0.140407
0.140365
0.140338
0.140298
0.140278
0.140238
0.140213
0.140179
0.14015
0.140121
0.14009
0.140057
0.14003
0.139998
0.139967
0.139933
0.139907
0.139877
0.139851
0.139823
0.139796
0.139778
0.139756
0.139741
0.13973
0.139722
0.139722
0.13972
0.139732
0.139745
0.139761
0.139786
0.139813
0.139848
0.139883
0.139923
0.139971
0.140021
0.140071
0.140124
0.140184
0.14024
0.140299
0.140363
0.14042
0.140481
0.140547
0.140607
0.140667
0.140723
0.140785
0.14084
0.140895
0.140955
0.141008
0.141063
0.141119
0.141172
0.141231
0.141281
0.141344
0.141393
0.141457
0.141503
0.141566
0.141618
0.141674
0.141727
0.141787
0.141834
0.14189
0.14194
0.142
0.142043
0.142099
0.142144
0.142204
0.142243
0.142301
0.142346
0.142395
0.142442
0.142496
0.142538
0.142593
0.142628
0.142683
0.142725
0.142773
0.142817
0.142856
0.142899
0.142945
0.142981
0.143016
0.143054
0.14308
0.143105
0.143132
0.143151
0.143169
0.14318
0.143189
0.143193
0.143196
0.143194
0.143191
0.143184
0.143181
0.143176
0.143161
0.143149
0.143131
0.143117
0.143102
0.143091
0.143063
0.143045
0.143021
0.143005
0.142969
0.142953
0.142923
0.142895
0.142866
0.142845
0.142809
0.142789
0.142762
0.142735
0.142712
0.142694
0.142665
0.14265
0.142632
0.142613
0.142601
0.142577
0.14257
0.142557
0.142544
0.142533
0.142533
0.142538
0.142539
0.142551
0.142576
0.142596
0.142615
0.14264
0.142662
0.142691
0.142716
0.142746
0.142782
0.142815
0.14286
0.142897
0.142953
0.142996
0.143055
0.143127
0.143153
0.143313
0.14321
0.143632
0.14312
0.144255
0.142691
0.145253
0.141739
0.146294
0.140193
0.147074
0.138048
0.147063
0.135443
0.14556
0.132831
0.142084
0.12864
0.135107
0.118032
0.116612
0.082452
0.0303532
0.127993
0.127208
0.127208
0.127209
0.127208
0.127209
0.127994
0.127994
0.230403
0.21429
)
;

boundaryField
{
    inlet
    {
        type            calculated;
        value           uniform 0;
    }
    endWall
    {
        type            calculated;
        value           uniform 0;
    }
    sideWall
    {
        type            empty;
    }
}


// ************************************************************************* //
