/*--------------------------------*- C++ -*----------------------------------*\
| =========                 |                                                 |
| \\      /  F ield         | foam-extend: Open Source CFD                    |
|  \\    /   O peration     | Version:     3.2                                |
|   \\  /    A nd           | Web:         http://www.foam-extend.org         |
|    \\/     M anipulation  | For copyright notice see file Copyright         |
\*---------------------------------------------------------------------------*/
FoamFile
{
    version     2.0;
    format      ascii;
    class       areaScalarField;
    location    "840";
    object      thetaB;
}
// * * * * * * * * * * * * * * * * * * * * * * * * * * * * * * * * * * * * * //

dimensions      [0 0 0 0 0 0 0];

internalField   nonuniform List<scalar> 
550
(
0.0152843
0.0209299
0.0277097
0.0355397
0.0442105
0.0534073
0.0627847
0.071948
0.080568
0.0884551
0.0951445
0.101001
0.105551
0.109063
0.111125
0.112003
0.112372
0.111755
0.11003
0.109453
0.107304
0.104846
0.103543
0.100993
0.0990396
0.0979809
0.0975324
0.0966171
0.0955552
0.0946351
0.0931841
0.0917939
0.0900371
0.0882813
0.0876003
0.0873713
0.0861973
0.0842346
0.0824266
0.0811052
0.0802508
0.0803053
0.0808458
0.0806334
0.0798254
0.0788148
0.0774553
0.0766825
0.0766418
0.0767088
0.0763948
0.0757581
0.075023
0.0743961
0.0741001
0.0740816
0.0743692
0.0747585
0.075176
0.0755147
0.0756523
0.0756029
0.0754998
0.0753363
0.0751905
0.0750856
0.0750445
0.075087
0.0751755
0.0752638
0.0753125
0.0753231
0.0753029
0.0753085
0.0753195
0.0753472
0.0753521
0.075384
0.0754419
0.0754817
0.0755045
0.0755511
0.0755711
0.0755477
0.0754723
0.0753807
0.0752909
0.0752406
0.0751414
0.0749687
0.0747802
0.0747121
0.0746881
0.0746905
0.0746972
0.0747138
0.0747328
0.0747727
0.0748244
0.0748992
0.0749782
0.0750648
0.0751428
0.0752212
0.0752891
0.0753538
0.0754065
0.0754554
0.0754946
0.0755358
0.0755733
0.0756191
0.0756635
0.0757175
0.0757694
0.0758285
0.0758834
0.0759404
0.0759901
0.0760411
0.0760847
0.0761267
0.0761606
0.0761948
0.0762238
0.0762569
0.0762868
0.0763204
0.0763516
0.0763855
0.0764173
0.0764519
0.0764852
0.0765216
0.0765573
0.0765954
0.0766322
0.0766703
0.0767059
0.076741
0.0767732
0.0768027
0.0768289
0.0768517
0.0768736
0.0768932
0.0769134
0.0769321
0.0769523
0.0769708
0.0769903
0.077008
0.0770262
0.0770417
0.0770574
0.0770703
0.0770826
0.0770911
0.0770999
0.0771044
0.0771101
0.0771112
0.0771147
0.0771135
0.077115
0.0771113
0.0771098
0.0771034
0.077099
0.0770891
0.0770823
0.0770704
0.077062
0.0770489
0.07704
0.0770274
0.0770197
0.0770085
0.0770017
0.0769914
0.0769855
0.076975
0.0769692
0.0769567
0.0769516
0.0769347
0.0769311
0.0769092
0.0769081
0.0768859
0.0768873
0.0768672
0.0768707
0.0768523
0.0768578
0.0768411
0.0768483
0.0768327
0.0768407
0.0768253
0.0768323
0.0768166
0.0768214
0.0768058
0.0768055
0.0767897
0.0767824
0.0767658
0.0767481
0.0767327
0.0767022
0.0766866
0.0766427
0.0766281
0.0765701
0.0765539
0.0764899
0.0764709
0.0764106
0.0763887
0.0763343
0.0763104
0.0762595
0.0762341
0.0761875
0.0761608
0.076117
0.0760893
0.0760481
0.0760185
0.075978
0.075947
0.0759098
0.0758772
0.0758431
0.0758096
0.0757766
0.0757432
0.0757112
0.0756785
0.0756464
0.0756153
0.0755837
0.0755533
0.0755236
0.0754948
0.0754654
0.0754374
0.0754099
0.0753834
0.0753572
0.0753323
0.0753077
0.0752842
0.0752611
0.075239
0.0752174
0.0751976
0.0751792
0.0751618
0.0751457
0.0751309
0.0751174
0.075105
0.0750941
0.0750852
0.0750774
0.0750709
0.075066
0.0750619
0.0750592
0.0750569
0.0750557
0.075056
0.075057
0.0750583
0.0750603
0.0750623
0.0750651
0.0750691
0.0750733
0.0750778
0.0750829
0.0750893
0.0750954
0.0751024
0.0751095
0.0751173
0.0751252
0.0751333
0.0751415
0.0751497
0.075158
0.0751662
0.0751743
0.075182
0.0751892
0.0751957
0.0752015
0.0752063
0.0752105
0.0752138
0.0752165
0.0752182
0.0752194
0.0752199
0.0752208
0.0752208
0.0752206
0.0752203
0.0752194
0.0752182
0.0752162
0.0752143
0.0752113
0.0752078
0.0752044
0.0752006
0.0751958
0.0751897
0.0751829
0.0751759
0.0751681
0.07516
0.075151
0.0751415
0.0751311
0.0751198
0.0751075
0.0750949
0.075081
0.0750654
0.0750492
0.0750326
0.0750152
0.0749969
0.0749779
0.0749581
0.0749376
0.0749164
0.0748949
0.074872
0.0748482
0.0748241
0.0747988
0.0747729
0.074747
0.0747207
0.0746935
0.0746661
0.0746384
0.0746104
0.074582
0.0745533
0.0745244
0.0744955
0.0744665
0.0744379
0.0744097
0.074381
0.0743521
0.0743231
0.0742938
0.0742648
0.0742348
0.0742046
0.0741746
0.0741444
0.0741135
0.0740825
0.0740519
0.0740217
0.0739917
0.0739615
0.0739318
0.0739034
0.0738754
0.0738485
0.073823
0.0737988
0.0737763
0.0737548
0.0737357
0.0737183
0.0737021
0.0736874
0.0736743
0.0736626
0.073652
0.0736427
0.0736356
0.0736297
0.0736248
0.0736213
0.0736195
0.0736185
0.0736193
0.0736223
0.073626
0.0736314
0.0736388
0.0736473
0.0736563
0.0736664
0.0736779
0.0736896
0.073702
0.0737155
0.0737288
0.0737421
0.0737557
0.0737692
0.073783
0.0737967
0.0738108
0.0738248
0.0738391
0.0738527
0.073867
0.0738819
0.0738966
0.0739125
0.0739288
0.0739449
0.0739615
0.0739791
0.0739971
0.0740147
0.0740324
0.0740506
0.0740689
0.0740862
0.0741038
0.0741212
0.0741377
0.0741546
0.0741713
0.0741878
0.0742047
0.0742207
0.0742377
0.0742552
0.074273
0.0742915
0.0743097
0.0743295
0.0743503
0.0743707
0.0743911
0.0744122
0.0744317
0.0744505
0.0744691
0.0744863
0.074502
0.0745159
0.0745274
0.0745363
0.0745423
0.0745455
0.0745457
0.0745435
0.0745397
0.0745338
0.0745249
0.0745142
0.0745013
0.0744869
0.0744718
0.0744555
0.0744373
0.0744184
0.0743999
0.0743809
0.074361
0.0743421
0.0743235
0.0743049
0.0742881
0.0742726
0.0742579
0.0742455
0.0742346
0.0742242
0.0742159
0.0742081
0.0741997
0.0741922
0.0741846
0.0741763
0.0741679
0.0741575
0.0741477
0.0741374
0.0741249
0.0741121
0.0740996
0.0740876
0.0740739
0.074062
0.0740521
0.0740442
0.0740396
0.0740394
0.0740402
0.0740439
0.0740509
0.0740593
0.0740703
0.074085
0.0741012
0.0741193
0.0741395
0.074164
0.0741848
0.0742225
0.0742358
0.074293
0.0742902
0.0743843
0.0743466
0.0745033
0.0744255
0.074657
0.0745606
0.0748331
0.0747228
0.0749579
0.0748344
0.0749061
0.0747646
0.074524
0.0743295
0.0737502
0.0734
0.0722608
0.0711966
0.067926
0.0625786
0.0432333
0.0206203
0.0268723
0.0189406
0.0177437
0.0139198
0.0123272
0.00898427
0.00980423
0.0147659
0.0241716
)
;

boundaryField
{
    inlet
    {
        type            calculated;
        value           uniform 0;
    }
    endWall
    {
        type            calculated;
        value           uniform 0;
    }
    sideWall
    {
        type            empty;
    }
}


// ************************************************************************* //
