/*--------------------------------*- C++ -*----------------------------------*\
| =========                 |                                                 |
| \\      /  F ield         | foam-extend: Open Source CFD                    |
|  \\    /   O peration     | Version:     3.2                                |
|   \\  /    A nd           | Web:         http://www.foam-extend.org         |
|    \\/     M anipulation  | For copyright notice see file Copyright         |
\*---------------------------------------------------------------------------*/
FoamFile
{
    version     2.0;
    format      ascii;
    class       areaScalarField;
    location    "840";
    object      thetaCB;
}
// * * * * * * * * * * * * * * * * * * * * * * * * * * * * * * * * * * * * * //

dimensions      [0 0 0 0 0 0 0];

internalField   nonuniform List<scalar> 
550
(
0.0367204
0.0367518
0.0367204
0.0367204
0.0367204
0.0367204
0.0369124
0.0367204
0.0367204
0.0370072
0.0365592
0.0374139
0.0366594
0.0741388
0.0753307
0.037148
0.0591098
0.0366072
0.0367567
0.0371575
0.0979088
0.0661583
0.0363313
0.0365494
0.0377495
0.0665248
0.0729055
0.0739081
0.0372259
0.0365104
0.0771522
0.0369069
0.0360094
0.0362289
0.155725
0.0376618
0.0367968
0.0928616
0.103344
0.0362776
0.0364487
0.0372442
0.0376553
0.0373615
0.0375657
0.0370957
0.0364606
0.108178
0.0371374
0.0374329
0.0371504
0.0374094
0.0373809
0.0375803
0.0375246
0.0376517
0.0379048
0.0381515
0.0385564
0.0384656
0.0385364
0.0385044
0.0385439
0.038582
0.0386505
0.0387264
0.0387797
0.0388646
0.0388872
0.0389509
0.0389036
0.0389212
0.0388493
0.0388884
0.0388778
0.0389613
0.0389585
0.0390215
0.0390141
0.0390777
0.0390587
0.0391155
0.0391234
0.0391791
0.0391235
0.0391277
0.0390501
0.0390705
0.0389804
0.0389142
0.0387538
0.03871
0.038659
0.0386962
0.0386852
0.0387293
0.0387224
0.0387691
0.0387715
0.03883
0.0388459
0.0389096
0.0389254
0.0389858
0.0390001
0.0390605
0.0390754
0.0391347
0.0391464
0.0392021
0.0392088
0.0392607
0.0392639
0.0393147
0.0393178
0.0393704
0.0393752
0.0394297
0.039434
0.0394879
0.0394925
0.0395445
0.0395455
0.0395929
0.0395908
0.0396373
0.0396368
0.039684
0.0396858
0.0397334
0.0397365
0.0397837
0.0397883
0.0398345
0.0398403
0.0398851
0.0398918
0.0399348
0.0399424
0.039983
0.0399916
0.0400299
0.0400399
0.0400756
0.040087
0.0401203
0.040133
0.0401635
0.0401777
0.0402048
0.0402196
0.0402432
0.0402592
0.0402793
0.0402966
0.040313
0.0403315
0.0403432
0.040363
0.0403707
0.0403922
0.040396
0.0404191
0.0404196
0.0404447
0.0404415
0.0404683
0.0404613
0.04049
0.0404791
0.0405099
0.040496
0.0405293
0.0405119
0.0405471
0.0405264
0.0405642
0.0405408
0.0405806
0.0405536
0.0405958
0.040565
0.0406108
0.0405739
0.0406269
0.0405796
0.0406473
0.0405796
0.0406729
0.040572
0.0406976
0.0405594
0.0407192
0.0405425
0.0407375
0.0405217
0.0407541
0.0404982
0.0407691
0.0404719
0.0407805
0.0404425
0.0407883
0.0404113
0.0407909
0.0403794
0.0407876
0.0403488
0.0407733
0.0403224
0.0407486
0.0403036
0.0407109
0.040298
0.0406616
0.0403095
0.0406074
0.0403276
0.0405576
0.0403393
0.0405128
0.0403424
0.0404705
0.0403384
0.0404337
0.0403305
0.0404003
0.0403195
0.0403707
0.0403045
0.0403397
0.0402864
0.0403121
0.0402674
0.040286
0.0402498
0.0402623
0.0402335
0.040242
0.0402194
0.0402228
0.0402069
0.0402073
0.0401943
0.0401955
0.0401863
0.0401863
0.0401791
0.0401809
0.0401762
0.0401777
0.0401762
0.0401781
0.0401796
0.0401824
0.0401865
0.0401896
0.0401962
0.0402019
0.0402091
0.0402161
0.0402253
0.0402338
0.0402443
0.0402536
0.0402671
0.0402777
0.0402915
0.0403039
0.0403182
0.0403321
0.0403462
0.0403603
0.0403763
0.0403919
0.0404072
0.0404227
0.040438
0.0404531
0.0404706
0.0404863
0.0405033
0.0405181
0.0405368
0.0405511
0.0405683
0.0405832
0.0405991
0.0406144
0.0406291
0.040644
0.0406576
0.0406722
0.0406844
0.0406983
0.0407091
0.0407221
0.0407314
0.0407433
0.0407511
0.040762
0.0407682
0.0407781
0.0407828
0.0407918
0.0407951
0.0408038
0.0408062
0.0408121
0.0408146
0.0408184
0.0408209
0.0408227
0.0408255
0.0408259
0.0408265
0.0408271
0.0408272
0.0408259
0.0408241
0.0408203
0.040819
0.0408147
0.0408124
0.0408071
0.0408039
0.0407978
0.0407936
0.040787
0.0407829
0.0407764
0.0407696
0.0407619
0.0407551
0.0407477
0.0407389
0.0407309
0.0407205
0.040712
0.0407002
0.0406919
0.0406792
0.0406686
0.0406569
0.0406454
0.0406324
0.040622
0.0406095
0.0405978
0.0405848
0.040574
0.0405611
0.0405515
0.0405389
0.0405304
0.0405183
0.0405107
0.0404992
0.0404932
0.0404819
0.0404746
0.0404646
0.0404563
0.040448
0.040439
0.0404294
0.0404217
0.0404126
0.0404035
0.0403936
0.0403861
0.0403775
0.0403701
0.0403618
0.0403541
0.040349
0.0403426
0.0403383
0.0403351
0.0403326
0.0403328
0.040332
0.0403354
0.0403395
0.0403441
0.0403513
0.040359
0.040369
0.0403791
0.0403906
0.0404045
0.0404189
0.0404335
0.0404487
0.040466
0.0404821
0.0404991
0.0405177
0.0405344
0.040552
0.0405707
0.0405882
0.0406054
0.0406216
0.0406397
0.0406552
0.0406714
0.0406884
0.0407041
0.0407196
0.0407359
0.0407511
0.0407682
0.0407828
0.0408009
0.0408151
0.0408337
0.0408468
0.0408651
0.0408799
0.0408963
0.0409117
0.0409289
0.0409423
0.0409586
0.0409731
0.0409903
0.0410026
0.0410187
0.0410321
0.0410492
0.0410606
0.0410771
0.0410901
0.0411044
0.0411178
0.0411334
0.0411454
0.0411615
0.0411716
0.0411873
0.0411994
0.0412134
0.0412261
0.0412374
0.0412499
0.041263
0.0412736
0.0412835
0.0412945
0.0413021
0.0413092
0.041317
0.0413224
0.0413277
0.0413309
0.0413337
0.0413348
0.0413355
0.0413348
0.0413339
0.0413321
0.0413313
0.0413299
0.0413252
0.0413219
0.0413168
0.0413127
0.0413084
0.0413051
0.0412972
0.0412921
0.041285
0.0412806
0.0412701
0.0412655
0.0412567
0.0412487
0.0412405
0.0412342
0.0412238
0.0412182
0.0412105
0.0412026
0.0411959
0.0411907
0.0411821
0.0411778
0.0411727
0.0411672
0.041164
0.0411569
0.0411548
0.0411511
0.0411473
0.0411442
0.0411443
0.0411457
0.0411457
0.0411494
0.0411563
0.0411623
0.041168
0.041175
0.0411815
0.0411897
0.0411972
0.0412058
0.041216
0.0412255
0.0412386
0.0412492
0.0412652
0.0412776
0.0412947
0.0413159
0.041323
0.0413694
0.0413398
0.0414613
0.0413137
0.0416411
0.0411897
0.0419295
0.0409148
0.04223
0.0404687
0.0424551
0.0398497
0.0424519
0.0390976
0.042018
0.0383434
0.0410145
0.0371338
0.0390005
0.0340718
0.0336617
0.0238009
0.00876188
0.0369469
0.0367204
0.0367203
0.0367206
0.0367203
0.0367206
0.0369472
0.0369472
0.0665091
0.0618576
)
;

boundaryField
{
    inlet
    {
        type            calculated;
        value           uniform 0;
    }
    endWall
    {
        type            calculated;
        value           uniform 0;
    }
    sideWall
    {
        type            empty;
    }
}


// ************************************************************************* //
