/*--------------------------------*- C++ -*----------------------------------*\
| =========                 |                                                 |
| \\      /  F ield         | foam-extend: Open Source CFD                    |
|  \\    /   O peration     | Version:     3.2                                |
|   \\  /    A nd           | Web:         http://www.foam-extend.org         |
|    \\/     M anipulation  | For copyright notice see file Copyright         |
\*---------------------------------------------------------------------------*/
FoamFile
{
    version     2.0;
    format      ascii;
    class       areaScalarField;
    location    "840";
    object      thetaC2B;
}
// * * * * * * * * * * * * * * * * * * * * * * * * * * * * * * * * * * * * * //

dimensions      [0 0 0 0 0 0 0];

internalField   nonuniform List<scalar> 
550
(
0.0368338
0.0368653
0.0368338
0.0368338
0.0368338
0.0368338
0.0370264
0.0368338
0.0368338
0.0371214
0.0368338
0.0371651
0.0371727
0.0737284
0.0761312
0.0368941
0.0593701
0.0368338
0.0368338
0.0368338
0.101023
0.0641292
0.0368338
0.0368338
0.0368338
0.065607
0.0726051
0.0746162
0.0368338
0.0368338
0.0782059
0.0368675
0.0368338
0.0368338
0.153501
0.037218
0.0372039
0.0937143
0.104616
0.0368338
0.0368338
0.0368338
0.0372664
0.0375022
0.0374406
0.0372614
0.0368938
0.107913
0.037009
0.037273
0.0373387
0.0372321
0.0370623
0.036932
0.0369541
0.037105
0.0374015
0.0377426
0.0380925
0.0380893
0.038218
0.0381901
0.0381425
0.0382644
0.0382918
0.0384376
0.0384698
0.0385859
0.0386211
0.0387495
0.0386923
0.0387051
0.0385765
0.0385726
0.0385938
0.0386946
0.0387537
0.0387497
0.0388015
0.0388708
0.0388702
0.0388798
0.0390194
0.0390695
0.039084
0.0390445
0.0389776
0.0389623
0.0390032
0.0389309
0.0386418
0.0384483
0.0384292
0.0384521
0.038466
0.0384769
0.0384835
0.0384869
0.0384973
0.0385229
0.038561
0.0386026
0.0386399
0.0386741
0.038709
0.0387476
0.0387882
0.0388287
0.0388666
0.0389009
0.0389314
0.0389591
0.0389847
0.0390102
0.0390373
0.0390651
0.0390979
0.0391314
0.0391628
0.0391952
0.0392298
0.0392626
0.0392901
0.0393136
0.0393349
0.0393571
0.0393807
0.0394056
0.0394316
0.0394582
0.0394848
0.0395122
0.0395399
0.0395674
0.0395957
0.0396236
0.0396515
0.0396796
0.0397071
0.0397347
0.0397623
0.0397901
0.0398179
0.0398442
0.0398716
0.0398983
0.0399251
0.0399513
0.0399776
0.0400031
0.0400277
0.0400522
0.0400757
0.0400994
0.0401219
0.0401446
0.0401662
0.0401867
0.0402061
0.0402259
0.0402446
0.0402625
0.0402794
0.0402969
0.0403134
0.0403306
0.0403454
0.0403609
0.0403756
0.0403896
0.0404028
0.0404171
0.0404307
0.0404437
0.040456
0.0404676
0.0404804
0.0404925
0.040504
0.0405148
0.0405248
0.0405361
0.0405445
0.040554
0.0405628
0.0405707
0.0405799
0.040586
0.0405934
0.0405999
0.0406054
0.0406124
0.0406161
0.0406213
0.0406231
0.0406265
0.0406289
0.0406305
0.0406338
0.0406338
0.0406356
0.0406342
0.0406345
0.0406342
0.0406333
0.0406317
0.040632
0.0406291
0.0406255
0.0406239
0.0406216
0.0406161
0.0406125
0.0406084
0.0406037
0.0405982
0.0405922
0.0405854
0.0405806
0.0405724
0.0405662
0.0405593
0.0405489
0.0405404
0.0405314
0.0405219
0.0405121
0.040502
0.0404944
0.0404839
0.0404733
0.0404624
0.0404543
0.0404432
0.0404349
0.0404238
0.0404156
0.0404047
0.0403968
0.040389
0.0403791
0.0403722
0.0403657
0.0403571
0.0403518
0.0403471
0.0403431
0.0403374
0.0403349
0.0403331
0.0403298
0.0403296
0.0403279
0.0403293
0.0403293
0.0403322
0.0403338
0.0403362
0.0403416
0.0403456
0.0403505
0.0403561
0.0403626
0.0403698
0.0403757
0.0403844
0.040394
0.0404019
0.0404127
0.0404217
0.0404335
0.0404435
0.0404539
0.0404648
0.0404784
0.0404901
0.0405021
0.0405145
0.0405248
0.0405379
0.0405512
0.0405647
0.040576
0.04059
0.0406041
0.0406158
0.0406299
0.0406415
0.0406556
0.0406671
0.0406807
0.0406917
0.0407049
0.0407154
0.040728
0.0407376
0.0407494
0.0407583
0.0407692
0.0407769
0.0407867
0.0407934
0.0408023
0.0408079
0.0408158
0.0408204
0.0408271
0.0408333
0.0408364
0.0408418
0.0408441
0.0408486
0.04085
0.0408534
0.0408563
0.0408561
0.0408579
0.0408592
0.0408599
0.0408598
0.0408566
0.0408553
0.0408534
0.0408511
0.0408484
0.0408451
0.0408415
0.0408374
0.0408329
0.0408281
0.0408256
0.0408197
0.0408136
0.0408069
0.0408024
0.0407946
0.0407889
0.0407799
0.0407731
0.0407628
0.0407549
0.0407464
0.0407349
0.0407255
0.0407158
0.0407033
0.0406931
0.040683
0.0406726
0.0406597
0.0406497
0.0406374
0.040628
0.0406163
0.0406076
0.0405966
0.0405887
0.0405783
0.0405709
0.0405638
0.040554
0.0405473
0.0405377
0.0405308
0.0405239
0.040514
0.0405066
0.0404992
0.0404914
0.0404807
0.0404728
0.040465
0.0404572
0.04045
0.04044
0.0404334
0.0404276
0.0404198
0.0404158
0.04041
0.0404084
0.0404055
0.0404039
0.0404069
0.0404086
0.040412
0.0404172
0.0404239
0.0404322
0.0404392
0.0404503
0.0404626
0.040476
0.0404876
0.0405028
0.0405186
0.0405322
0.0405491
0.0405663
0.0405807
0.0405983
0.040616
0.0406335
0.0406479
0.0406653
0.0406824
0.0406965
0.0407134
0.0407303
0.0407443
0.0407614
0.0407756
0.0407931
0.0408076
0.0408255
0.0408405
0.0408589
0.0408741
0.0408894
0.0409079
0.0409233
0.0409385
0.0409569
0.0409719
0.0409868
0.0410014
0.0410194
0.0410339
0.0410482
0.0410622
0.0410796
0.0410932
0.0411066
0.0411236
0.0411366
0.0411496
0.0411661
0.0411787
0.0411951
0.0412075
0.0412199
0.0412359
0.041248
0.0412636
0.041275
0.0412862
0.0413006
0.0413145
0.0413237
0.0413362
0.0413476
0.0413538
0.041363
0.0413708
0.0413775
0.0413828
0.041387
0.0413899
0.0413918
0.0413925
0.0413923
0.0413912
0.0413894
0.0413912
0.0413879
0.0413841
0.0413798
0.041375
0.0413698
0.0413684
0.0413621
0.0413552
0.0413475
0.0413441
0.0413351
0.0413258
0.0413206
0.0413104
0.0412999
0.0412938
0.041283
0.0412722
0.0412661
0.0412556
0.0412452
0.0412398
0.04123
0.0412202
0.0412156
0.0412066
0.0412027
0.0411941
0.041186
0.0411829
0.0411755
0.0411687
0.0411625
0.041162
0.0411573
0.0411535
0.0411553
0.0411528
0.0411508
0.0411493
0.0411531
0.0411526
0.0411524
0.0411577
0.0411587
0.0411606
0.0411685
0.0411727
0.0411781
0.041185
0.0411935
0.0412035
0.0412149
0.0412274
0.041241
0.0412552
0.0412702
0.0412855
0.0413016
0.0413179
0.0413351
0.0413475
0.041366
0.041381
0.0413975
0.0414133
0.0414256
0.0414421
0.0414527
0.0414885
0.041505
0.0416305
0.0418395
0.0424365
0.0445193
0.0450523
0.0368338
0.0368338
0.0368338
0.0368338
0.0368338
0.0368338
0.0368338
0.0368338
0.0663056
0.0616678
)
;

boundaryField
{
    inlet
    {
        type            calculated;
        value           uniform 0;
    }
    endWall
    {
        type            calculated;
        value           uniform 0;
    }
    sideWall
    {
        type            empty;
    }
}


// ************************************************************************* //
