/*--------------------------------*- C++ -*----------------------------------*\
| =========                 |                                                 |
| \\      /  F ield         | foam-extend: Open Source CFD                    |
|  \\    /   O peration     | Version:     3.2                                |
|   \\  /    A nd           | Web:         http://www.foam-extend.org         |
|    \\/     M anipulation  | For copyright notice see file Copyright         |
\*---------------------------------------------------------------------------*/
FoamFile
{
    version     2.0;
    format      ascii;
    class       areaScalarField;
    location    "840";
    object      totH;
}
// * * * * * * * * * * * * * * * * * * * * * * * * * * * * * * * * * * * * * //

dimensions      [0 0 0 0 0 0 0];

internalField   nonuniform List<scalar> 
550
(
0
5e-11
-5e-11
0
-5e-10
0
5e-10
0
0
5e-10
-2.58067e-05
6.17872e-06
7.89583e-07
-1.1284e-05
-3.98834e-06
1.10946e-05
6.22832e-05
3.64475e-05
2.41233e-05
0.000100137
7.51251e-06
5.11379e-05
0.000195388
0.000105799
0.000244287
0.00051125
0.000655
0.000659872
0.000703299
0.000750912
0.00065609
0.000619387
0.000530435
0.00033842
0.000363978
0.000556893
0.000599396
0.000517601
0.000428652
0.000304413
0.000190177
0.000230877
0.000395031
0.000471053
0.000505021
0.000534894
0.00047579
0.000457469
0.000528886
0.000611136
0.000643082
0.000677837
0.000793256
0.000984626
0.00121664
0.00143185
0.0016353
0.00181559
0.00198828
0.00215529
0.00229946
0.00243385
0.00258126
0.00272909
0.00287006
0.00300636
0.00313487
0.00326167
0.00338156
0.00348944
0.00358887
0.00369056
0.00380179
0.00392847
0.00405687
0.0041776
0.00428602
0.00439515
0.00450545
0.00460572
0.00470229
0.00480322
0.00489122
0.00495993
0.00501887
0.0050738
0.00513376
0.00519755
0.00524688
0.00527727
0.00532825
0.00542203
0.00553404
0.00564332
0.00575093
0.00585982
0.00597174
0.00608824
0.00621015
0.00633584
0.00646311
0.00659028
0.00671746
0.00684526
0.00697384
0.0071025
0.00723047
0.00735731
0.00748293
0.0076077
0.00773203
0.00785637
0.00798095
0.00810591
0.008231
0.00835613
0.00848072
0.00860417
0.00872664
0.00884821
0.00896839
0.00908687
0.00920419
0.00932107
0.00943798
0.00955497
0.00967192
0.00978856
0.0099049
0.0100207
0.0101361
0.0102509
0.010365
0.0104785
0.0105914
0.0107033
0.0108146
0.0109249
0.0110344
0.0111427
0.0112502
0.0113564
0.0114614
0.0115651
0.0116678
0.011769
0.0118691
0.0119677
0.0120651
0.0121608
0.0122554
0.0123483
0.01244
0.0125299
0.0126186
0.0127055
0.012791
0.0128748
0.0129573
0.013038
0.0131173
0.013195
0.0132715
0.0133464
0.01342
0.0134919
0.0135625
0.0136316
0.0136994
0.0137656
0.0138307
0.0138943
0.0139566
0.0140173
0.014077
0.0141352
0.0141924
0.0142481
0.0143027
0.0143559
0.0144083
0.0144592
0.0145094
0.0145584
0.014607
0.014654
0.0147015
0.0147467
0.0147938
0.0148376
0.0148834
0.0149254
0.0149691
0.015009
0.0150506
0.0150883
0.0151277
0.015163
0.0151999
0.0152324
0.0152663
0.0152959
0.0153268
0.0153532
0.0153801
0.0154028
0.0154252
0.0154435
0.0154607
0.0154748
0.0154859
0.0154953
0.0155006
0.0155062
0.0155059
0.0155087
0.0155053
0.0155064
0.0155019
0.015501
0.0154957
0.0154927
0.0154861
0.0154816
0.0154743
0.0154686
0.0154608
0.0154542
0.015446
0.0154381
0.0154288
0.01542
0.0154099
0.0153999
0.0153888
0.015378
0.0153666
0.0153555
0.0153442
0.0153332
0.0153219
0.0153112
0.0153002
0.0152896
0.0152793
0.0152692
0.0152591
0.0152493
0.01524
0.0152309
0.015222
0.0152136
0.0152056
0.0151981
0.0151911
0.0151846
0.0151785
0.0151733
0.0151687
0.0151646
0.0151613
0.0151589
0.0151573
0.0151564
0.0151566
0.015158
0.0151601
0.0151633
0.0151677
0.015173
0.0151795
0.0151868
0.0151953
0.0152051
0.0152159
0.0152276
0.0152402
0.0152539
0.0152687
0.0152847
0.0153019
0.0153199
0.0153388
0.015359
0.01538
0.0154017
0.0154244
0.0154477
0.015472
0.0154969
0.0155223
0.0155484
0.0155752
0.0156022
0.0156298
0.0156578
0.015686
0.0157145
0.0157432
0.0157721
0.0158012
0.0158302
0.0158595
0.0158887
0.015918
0.0159472
0.0159766
0.0160056
0.0160346
0.0160634
0.0160922
0.0161209
0.0161492
0.0161776
0.0162056
0.0162332
0.0162609
0.0162882
0.016315
0.0163413
0.0163672
0.0163931
0.0164186
0.0164437
0.0164686
0.016493
0.016517
0.0165408
0.0165642
0.0165873
0.0166101
0.016632
0.0166537
0.0166751
0.016696
0.0167164
0.0167363
0.0167556
0.0167746
0.0167931
0.0168112
0.0168287
0.0168456
0.0168625
0.0168787
0.0168945
0.0169103
0.0169257
0.0169405
0.0169551
0.0169697
0.0169839
0.0169981
0.017012
0.0170259
0.0170397
0.0170533
0.0170668
0.0170804
0.0170934
0.0171063
0.0171191
0.0171315
0.017144
0.0171558
0.0171675
0.0171792
0.0171905
0.0172015
0.0172124
0.0172233
0.0172343
0.0172452
0.0172559
0.0172669
0.0172783
0.0172899
0.017302
0.0173146
0.0173279
0.0173419
0.0173564
0.0173721
0.0173886
0.0174056
0.0174237
0.0174427
0.0174625
0.0174832
0.0175046
0.0175272
0.0175506
0.0175743
0.0175988
0.0176242
0.0176498
0.0176761
0.017703
0.0177301
0.0177577
0.0177858
0.0178141
0.0178424
0.0178708
0.0178997
0.0179284
0.0179571
0.0179862
0.0180151
0.0180441
0.0180732
0.0181023
0.0181315
0.0181607
0.0181898
0.018219
0.0182481
0.0182768
0.0183057
0.0183345
0.0183629
0.0183916
0.01842
0.0184481
0.0184762
0.0185043
0.0185324
0.0185601
0.0185877
0.0186155
0.0186431
0.0186705
0.0186979
0.0187252
0.0187521
0.0187793
0.0188064
0.0188333
0.0188601
0.0188864
0.018913
0.0189394
0.0189657
0.0189917
0.0190173
0.0190431
0.0190689
0.019094
0.0191188
0.0191435
0.0191673
0.0191908
0.0192141
0.0192371
0.0192594
0.0192812
0.0193026
0.0193235
0.0193439
0.0193641
0.0193839
0.0194034
0.0194231
0.0194424
0.0194611
0.0194797
0.0194981
0.0195166
0.0195354
0.0195538
0.0195719
0.01959
0.0196084
0.0196268
0.0196448
0.0196633
0.0196819
0.0197003
0.0197194
0.0197387
0.019758
0.0197782
0.0197989
0.0198197
0.0198414
0.0198636
0.0198861
0.0199096
0.0199337
0.0199582
0.0199834
0.0200088
0.0200354
0.0200628
0.0200905
0.0201193
0.0201495
0.0201809
0.0202133
0.0202474
0.0202833
0.0203212
0.0203614
0.0204039
0.0204481
0.0204938
0.020542
0.0205916
0.0206432
0.0206971
0.0207528
0.0208102
0.0208701
0.0209322
0.0209964
0.0210635
0.0211314
0.0212037
0.0212745
0.0213546
0.0214269
0.0215204
0.0215917
0.0216999
0.021764
0.0218672
0.0219027
0.0219657
0.021937
0.0219031
0.0217599
0.0215501
0.0212318
0.020764
0.0201227
0.0191799
0.0177829
0.0155724
0.0118055
0.00460133
-5e-08
3.46945e-18
0
-5e-08
6.93889e-18
5e-08
3.46945e-18
0
5e-08
3.46945e-18
)
;

boundaryField
{
    inlet
    {
        type            calculated;
        value           uniform 0;
    }
    endWall
    {
        type            calculated;
        value           uniform 0;
    }
    sideWall
    {
        type            empty;
    }
}


// ************************************************************************* //
