/*--------------------------------*- C++ -*----------------------------------*\
| =========                 |                                                 |
| \\      /  F ield         | foam-extend: Open Source CFD                    |
|  \\    /   O peration     | Version:     3.2                                |
|   \\  /    A nd           | Web:         http://www.foam-extend.org         |
|    \\/     M anipulation  | For copyright notice see file Copyright         |
\*---------------------------------------------------------------------------*/
FoamFile
{
    version     2.0;
    format      ascii;
    class       areaScalarField;
    location    "840";
    object      totH1;
}
// * * * * * * * * * * * * * * * * * * * * * * * * * * * * * * * * * * * * * //

dimensions      [0 0 0 0 0 0 0];

internalField   nonuniform List<scalar> 
550
(
0
5e-11
-5e-11
0
-5e-10
0
5e-10
0
0
5e-10
-2.77471e-05
-2.75175e-06
-1.12501e-05
-7.36684e-06
1.63116e-05
2.70184e-05
6.22937e-05
1.44621e-05
-4.99165e-06
9.44799e-05
2.93108e-05
7.00033e-05
0.000185579
8.63296e-05
0.000243506
0.000527149
0.000671209
0.00066224
0.000688423
0.000736691
0.0006629
0.000629528
0.000516602
0.000320408
0.000370793
0.000574301
0.000606375
0.000517885
0.000428738
0.000299997
0.000179418
0.000227974
0.000403632
0.000476538
0.000505385
0.000535046
0.000475754
0.000457528
0.000529277
0.000611578
0.000643174
0.000677483
0.00079268
0.000984123
0.00121638
0.00143182
0.00163539
0.00181576
0.00198854
0.00215558
0.00229963
0.00243385
0.00258113
0.00272889
0.00286984
0.00300618
0.00313476
0.00326164
0.00338159
0.00348951
0.00358893
0.0036906
0.00380181
0.00392846
0.00405685
0.00417758
0.00428601
0.00439517
0.00450547
0.00460575
0.00470231
0.00480324
0.00489121
0.00495992
0.00501885
0.00507379
0.00513374
0.00519753
0.00524687
0.00527726
0.00532824
0.00542203
0.00553404
0.00564332
0.00575092
0.00585981
0.00597174
0.00608825
0.00621017
0.00633586
0.00646314
0.00659031
0.00671748
0.00684528
0.00697385
0.00710251
0.00723046
0.0073573
0.00748292
0.00760769
0.00773202
0.00785637
0.00798095
0.00810592
0.00823101
0.00835614
0.00848073
0.00860418
0.00872665
0.00884822
0.0089684
0.00908688
0.0092042
0.00932107
0.00943799
0.00955497
0.00967192
0.00978857
0.0099049
0.0100207
0.0101361
0.0102509
0.010365
0.0104785
0.0105914
0.0107033
0.0108146
0.0109249
0.0110344
0.0111428
0.0112502
0.0113564
0.0114614
0.0115651
0.0116678
0.011769
0.0118691
0.0119677
0.0120651
0.0121608
0.0122554
0.0123483
0.01244
0.0125299
0.0126186
0.0127055
0.012791
0.0128748
0.0129573
0.013038
0.0131173
0.013195
0.0132715
0.0133464
0.01342
0.0134919
0.0135625
0.0136316
0.0136994
0.0137656
0.0138307
0.0138943
0.0139566
0.0140173
0.014077
0.0141352
0.0141924
0.0142481
0.0143027
0.0143559
0.0144083
0.0144592
0.0145094
0.0145584
0.014607
0.014654
0.0147015
0.0147468
0.0147938
0.0148377
0.0148834
0.0149254
0.0149691
0.015009
0.0150506
0.0150883
0.0151277
0.015163
0.0151999
0.0152324
0.0152663
0.0152959
0.0153268
0.0153532
0.0153801
0.0154028
0.0154252
0.0154435
0.0154607
0.0154748
0.0154859
0.0154953
0.0155006
0.0155062
0.0155059
0.0155087
0.0155053
0.0155064
0.0155019
0.015501
0.0154957
0.0154927
0.0154861
0.0154816
0.0154743
0.0154686
0.0154608
0.0154542
0.015446
0.0154381
0.0154288
0.01542
0.01541
0.0153999
0.0153888
0.015378
0.0153666
0.0153555
0.0153442
0.0153332
0.0153219
0.0153112
0.0153002
0.0152896
0.0152793
0.0152692
0.0152591
0.0152493
0.01524
0.0152309
0.015222
0.0152136
0.0152056
0.0151981
0.0151911
0.0151846
0.0151785
0.0151733
0.0151687
0.0151646
0.0151613
0.0151589
0.0151573
0.0151564
0.0151566
0.0151579
0.0151601
0.0151633
0.0151677
0.015173
0.0151794
0.0151868
0.0151953
0.0152051
0.0152159
0.0152276
0.0152402
0.0152539
0.0152687
0.0152847
0.0153019
0.0153199
0.0153388
0.015359
0.01538
0.0154017
0.0154244
0.0154477
0.015472
0.0154969
0.0155223
0.0155484
0.0155752
0.0156022
0.0156298
0.0156578
0.015686
0.0157145
0.0157432
0.0157721
0.0158012
0.0158302
0.0158595
0.0158887
0.0159179
0.0159472
0.0159766
0.0160056
0.0160346
0.0160634
0.0160922
0.0161209
0.0161492
0.0161776
0.0162056
0.0162332
0.0162609
0.0162882
0.016315
0.0163413
0.0163672
0.0163931
0.0164186
0.0164437
0.0164686
0.016493
0.0165171
0.0165408
0.0165642
0.0165873
0.0166101
0.016632
0.0166537
0.0166751
0.016696
0.0167164
0.0167363
0.0167556
0.0167746
0.0167931
0.0168112
0.0168287
0.0168456
0.0168625
0.0168787
0.0168945
0.0169103
0.0169257
0.0169405
0.0169552
0.0169697
0.0169839
0.0169981
0.017012
0.0170259
0.0170397
0.0170533
0.0170668
0.0170804
0.0170934
0.0171063
0.0171191
0.0171315
0.017144
0.0171558
0.0171675
0.0171792
0.0171905
0.0172015
0.0172124
0.0172233
0.0172343
0.0172452
0.0172559
0.0172669
0.0172783
0.0172899
0.017302
0.0173146
0.0173279
0.0173419
0.0173564
0.0173721
0.0173886
0.0174056
0.0174237
0.0174426
0.0174625
0.0174831
0.0175046
0.0175272
0.0175505
0.0175743
0.0175988
0.0176241
0.0176498
0.017676
0.0177029
0.0177301
0.0177577
0.0177858
0.0178141
0.0178424
0.0178708
0.0178997
0.0179284
0.0179571
0.0179862
0.0180151
0.0180441
0.0180732
0.0181022
0.0181315
0.0181607
0.0181898
0.018219
0.0182481
0.0182768
0.0183057
0.0183345
0.0183629
0.0183916
0.01842
0.0184481
0.0184762
0.0185043
0.0185324
0.0185601
0.0185877
0.0186155
0.0186431
0.0186704
0.0186979
0.0187252
0.0187521
0.0187793
0.0188064
0.0188333
0.0188601
0.0188864
0.018913
0.0189394
0.0189656
0.0189917
0.0190172
0.0190431
0.0190689
0.019094
0.0191188
0.0191435
0.0191673
0.0191908
0.0192141
0.0192371
0.0192594
0.0192812
0.0193026
0.0193235
0.0193439
0.0193641
0.0193839
0.0194034
0.0194231
0.0194424
0.0194611
0.0194797
0.0194981
0.0195166
0.0195354
0.0195538
0.0195719
0.01959
0.0196084
0.0196268
0.0196448
0.0196633
0.0196819
0.0197003
0.0197194
0.0197387
0.019758
0.0197782
0.0197989
0.0198197
0.0198414
0.0198637
0.0198862
0.0199096
0.0199337
0.0199583
0.0199835
0.0200089
0.0200355
0.0200628
0.0200905
0.0201193
0.0201495
0.0201809
0.0202133
0.0202474
0.0202833
0.0203212
0.0203614
0.0204039
0.0204481
0.0204938
0.020542
0.0205916
0.0206432
0.0206971
0.0207528
0.0208103
0.0208702
0.0209322
0.0209965
0.0210635
0.0211314
0.0212037
0.0212745
0.0213546
0.0214269
0.0215204
0.0215917
0.0216999
0.021764
0.0218672
0.0219027
0.0219657
0.021937
0.0219031
0.0217599
0.0215501
0.0212318
0.020764
0.0201227
0.0191799
0.0177829
0.0155724
0.0118054
0.00460132
-5e-08
3.46945e-18
0
-5e-08
6.93889e-18
5e-08
3.46945e-18
0
5e-08
3.46945e-18
)
;

boundaryField
{
    inlet
    {
        type            calculated;
        value           uniform 0;
    }
    endWall
    {
        type            calculated;
        value           uniform 0;
    }
    sideWall
    {
        type            empty;
    }
}


// ************************************************************************* //
