/*--------------------------------*- C++ -*----------------------------------*\
| =========                 |                                                 |
| \\      /  F ield         | foam-extend: Open Source CFD                    |
|  \\    /   O peration     | Version:     3.2                                |
|   \\  /    A nd           | Web:         http://www.foam-extend.org         |
|    \\/     M anipulation  | For copyright notice see file Copyright         |
\*---------------------------------------------------------------------------*/
FoamFile
{
    version     2.0;
    format      ascii;
    class       volVectorField;
    location    "840";
    object      U;
}
// * * * * * * * * * * * * * * * * * * * * * * * * * * * * * * * * * * * * * //

dimensions      [0 1 -1 0 0 0 0];

internalField   nonuniform List<vector> 
33000
(
(0.358005 0 0.00039851)
(0.354216 0 0.000396983)
(0.348178 6.06669e-34 0.000546654)
(0.341609 -5.94551e-29 0.000563738)
(0.335089 -7.00299e-30 0.000632305)
(0.328369 0 0.000586938)
(0.322265 9.37063e-29 0.000570631)
(0.316048 1.0312e-28 0.000541953)
(0.310262 0 0.000466752)
(0.305461 0 0.000592722)
(0.29803 -6.56194e-27 -0.000255857)
(0.29502 7.34674e-28 0.00177468)
(0.289418 -1.94754e-29 -0.000934162)
(0.283987 1.0569e-27 0.00163173)
(0.278695 0 -0.000985508)
(0.273778 -2.55176e-27 0.00155035)
(0.271028 0 2.19196e-05)
(0.265708 -1.20881e-29 -0.000251529)
(0.260082 -1.40904e-28 0.000132379)
(0.262264 7.75297e-27 0.00209031)
(0.251913 -1.48497e-28 -0.00339156)
(0.248143 0 0.00375224)
(0.252737 -3.38078e-27 -0.000957246)
(0.240495 0 -0.000365699)
(0.243288 -2.30471e-26 0.00330056)
(0.245799 5.89547e-27 0.00216863)
(0.243767 -6.55103e-28 0.0012944)
(0.236635 9.92423e-27 -0.000531236)
(0.235188 -1.54836e-26 0.00131387)
(0.237058 7.40823e-31 -0.000711489)
(0.230413 -1.54386e-26 -0.00146439)
(0.230657 4.24441e-28 -0.000222105)
(0.228807 -6.06783e-27 -0.00180932)
(0.218573 0 -0.00057267)
(0.215823 0 0.00119762)
(0.223375 -4.75828e-27 -0.000106484)
(0.228474 0 -0.00197111)
(0.227035 -1.18859e-26 -0.000961873)
(0.221253 -9.68843e-27 -0.000379968)
(0.213037 0 -0.000158965)
(0.20501 0 -0.000153115)
(0.20366 0 0.0010766)
(0.208877 1.73983e-27 0.00023683)
(0.211804 1.49073e-28 -0.00148921)
(0.214723 -1.01931e-28 -0.000158911)
(0.215845 -2.99558e-28 -0.000207389)
(0.210563 0 -0.000411029)
(0.205789 -3.49082e-28 0.00109623)
(0.203605 0 0.000664407)
(0.20449 1.92708e-27 0.000116336)
(0.205375 -7.27193e-28 -0.000864247)
(0.205442 -1.77701e-27 0.000250806)
(0.206065 0 0.00102963)
(0.205958 1.63535e-27 0.00226326)
(0.206103 4.5676e-28 0.00214243)
(0.205394 0 0.00205034)
(0.205651 -8.75614e-28 0.00175943)
(0.205919 6.34468e-28 0.00138978)
(0.20679 1.84057e-28 0.00144408)
(0.207654 0 0.00121566)
(0.207871 -2.36961e-28 0.00105479)
(0.207909 -6.07251e-29 0.00102042)
(0.208359 1.15011e-28 0.00131113)
(0.208033 0 0.00117985)
(0.207718 2.44124e-29 0.00133598)
(0.207078 0 0.00115658)
(0.206529 3.79337e-29 0.00117385)
(0.206305 -1.14846e-28 0.00101777)
(0.206172 3.14673e-32 0.000941594)
(0.206057 -2.50143e-32 0.000731557)
(0.20595 -9.8856e-30 0.000719907)
(0.205974 5.0141e-29 0.000705487)
(0.206082 8.69534e-33 0.000863179)
(0.206484 7.69952e-29 0.000992362)
(0.206603 -1.4997e-32 0.000954007)
(0.206652 0 0.000944544)
(0.206291 0 0.000762489)
(0.206299 0 0.00091204)
(0.206422 2.0856e-28 0.000750889)
(0.20632 0 0.000721272)
(0.206303 0 0.000630804)
(0.20666 1.48902e-28 0.00075063)
(0.206676 2.50075e-28 0.000409135)
(0.20645 -4.41443e-29 0.000426726)
(0.206003 0 0.000221109)
(0.205726 0 0.000289479)
(0.205518 0 0.00025192)
(0.205637 1.99155e-29 0.000400005)
(0.205055 2.05337e-29 6.93901e-05)
(0.204222 0 8.09297e-05)
(0.203752 0 0.000298786)
(0.204459 0 0.000759496)
(0.204732 0 0.000745859)
(0.204928 5.38336e-29 0.000811457)
(0.204986 7.88078e-29 0.000747725)
(0.205059 -2.75176e-28 0.000862163)
(0.205085 1.73105e-29 0.000810977)
(0.205251 -1.20364e-28 0.00094023)
(0.20539 0 0.000924683)
(0.205658 -9.83679e-29 0.00101281)
(0.205839 0 0.00096313)
(0.206079 -7.51916e-29 0.00102075)
(0.206233 0 0.000956693)
(0.206475 0 0.0010295)
(0.206655 -3.64671e-32 0.000972547)
(0.206879 -6.78196e-29 0.00103729)
(0.207022 0 0.000964489)
(0.207174 0 0.00103392)
(0.207252 0 0.000952904)
(0.207353 0 0.00102866)
(0.207393 0 0.000950285)
(0.207499 0 0.00102198)
(0.207548 -7.43107e-29 0.000955157)
(0.207685 0 0.00102526)
(0.20777 0 0.000955054)
(0.207936 -8.75011e-29 0.00102676)
(0.208044 9.48961e-29 0.000944396)
(0.208196 7.52363e-29 0.00100506)
(0.208292 0 0.00092412)
(0.208437 0 0.000985869)
(0.208521 1.01619e-28 0.0008985)
(0.20862 0 0.000954847)
(0.208671 0 0.00087591)
(0.208756 3.81298e-32 0.000945553)
(0.208806 -7.66368e-29 0.000875023)
(0.208905 -4.0241e-32 0.000946346)
(0.20896 0 0.000875745)
(0.209051 0 0.000942095)
(0.209104 8.00348e-29 0.000871588)
(0.209178 -6.68931e-29 0.000933109)
(0.209224 7.89262e-29 0.000864717)
(0.209287 6.28578e-29 0.000921368)
(0.209329 7.89915e-29 0.000853149)
(0.209388 -5.94833e-29 0.000905791)
(0.209432 0 0.000838847)
(0.209492 0 0.000886148)
(0.209538 0 0.000822621)
(0.209601 4.5946e-29 0.000863393)
(0.209649 -6.90126e-29 0.000804038)
(0.209708 0 0.000839014)
(0.209755 6.58838e-29 0.000783623)
(0.209798 0 0.000812358)
(0.209835 0 0.000763283)
(0.209847 3.19053e-29 0.000786076)
(0.209873 0 0.000741093)
(0.20987 0 0.000756471)
(0.209884 5.68717e-29 0.000715758)
(0.209872 0 0.000723621)
(0.209882 -5.00812e-29 0.000687875)
(0.209865 -4.79069e-30 0.000690264)
(0.209868 -4.55195e-29 0.000658184)
(0.209852 -8.13317e-30 0.000652611)
(0.209853 0 0.000629052)
(0.209832 0 0.000614265)
(0.20983 0 0.000598546)
(0.209804 9.80326e-34 0.000578208)
(0.209792 1.12443e-29 0.000566321)
(0.209754 0 0.000538107)
(0.20974 -8.35727e-30 0.00053719)
(0.209687 1.98177e-29 0.000500647)
(0.209674 0 0.000503898)
(0.209611 0 0.000462691)
(0.209601 8.94219e-31 0.000475531)
(0.209533 0 0.000425431)
(0.209521 0 0.000446469)
(0.209447 0 0.000386156)
(0.209428 0 0.000417728)
(0.209354 0 0.000350412)
(0.209332 0 0.000388913)
(0.209249 -2.2517e-29 0.000314836)
(0.209228 2.00535e-29 0.000363461)
(0.209138 -2.54432e-29 0.000281448)
(0.209109 2.26377e-29 0.000335884)
(0.209011 0 0.000247728)
(0.208978 0 0.000310208)
(0.208882 -5.9348e-29 0.000217268)
(0.208852 -1.6378e-29 0.000284395)
(0.208757 3.32463e-29 0.000183042)
(0.208725 -8.84746e-33 0.000257449)
(0.208636 -1.76986e-29 0.000150605)
(0.208614 0 0.000234969)
(0.208526 1.985e-29 0.000117509)
(0.208513 0 0.00021632)
(0.208415 3.28909e-29 8.69657e-05)
(0.208429 0 0.000206791)
(0.208293 -6.39902e-30 5.27534e-05)
(0.208352 0 0.000212314)
(0.208161 -4.20717e-30 9.42656e-06)
(0.208265 0 0.00023868)
(0.20805 0 -4.79582e-05)
(0.208166 0 0.000267257)
(0.207944 0 -0.000115552)
(0.208055 0 0.000292052)
(0.207826 0 -0.000186592)
(0.207936 0 0.000316092)
(0.207709 4.03085e-28 -0.000259689)
(0.207822 0 0.000338208)
(0.207593 0 -0.000336655)
(0.207702 0 0.000358102)
(0.207468 5.43353e-28 -0.000419327)
(0.207567 0 0.000376088)
(0.207337 0 -0.000502886)
(0.207421 0 0.0003908)
(0.207208 0 -0.000590057)
(0.20725 1.95631e-31 0.000392039)
(0.207068 -1.48595e-27 -0.000673589)
(0.207054 -7.23688e-28 0.000377018)
(0.20691 0 -0.000753397)
(0.206815 -7.55673e-28 0.000344847)
(0.206745 0 -0.000816391)
(0.206534 -3.76417e-28 0.000279167)
(0.206545 -1.57758e-27 -0.000854699)
(0.206227 0 0.000191682)
(0.206338 1.46161e-27 -0.000858365)
(0.205903 0 7.66837e-05)
(0.206095 1.2394e-27 -0.000812363)
(0.205622 0 -4.17082e-05)
(0.205832 -9.77909e-28 -0.000742077)
(0.205407 0 -0.000146196)
(0.205572 -7.55001e-28 -0.00068476)
(0.20522 1.58836e-28 -0.000229841)
(0.205331 0 -0.000647058)
(0.205022 -2.47034e-28 -0.000298272)
(0.205099 0 -0.000613552)
(0.204837 0 -0.000351249)
(0.20488 -1.71311e-28 -0.000589674)
(0.204654 -1.47864e-28 -0.000389556)
(0.204677 2.61881e-28 -0.000569714)
(0.204482 -1.07983e-28 -0.000418293)
(0.204474 1.06394e-28 -0.000563258)
(0.204298 -8.25785e-29 -0.000442667)
(0.204271 0 -0.000557329)
(0.204131 0 -0.000466026)
(0.204069 0 -0.000560066)
(0.203975 0 -0.000483391)
(0.20389 -2.15173e-33 -0.00055283)
(0.203816 -1.95929e-29 -0.000500679)
(0.203726 0 -0.000545454)
(0.203663 0 -0.000506858)
(0.203574 0 -0.00054106)
(0.203507 0 -0.000510901)
(0.203434 1.46317e-29 -0.000529863)
(0.203362 0 -0.000515604)
(0.203298 0 -0.000524587)
(0.203242 3.78985e-30 -0.000509968)
(0.203185 2.85787e-34 -0.000518041)
(0.203122 0 -0.000510303)
(0.203071 0 -0.000511715)
(0.203019 -1.40197e-30 -0.000501916)
(0.202967 0 -0.000506578)
(0.202917 0 -0.000496228)
(0.202878 0 -0.000497327)
(0.202836 1.71543e-30 -0.000488806)
(0.202802 2.07774e-30 -0.000486645)
(0.202765 -5.05986e-35 -0.000479058)
(0.202734 0 -0.000474455)
(0.202695 0 -0.000468919)
(0.202667 0 -0.000457719)
(0.202638 -9.43852e-31 -0.000454689)
(0.202611 -5.39995e-30 -0.000446005)
(0.20259 0 -0.000438843)
(0.202573 -5.58016e-35 -0.000428554)
(0.202558 2.20784e-30 -0.000420899)
(0.202543 0 -0.000411138)
(0.202534 -7.25046e-35 -0.00040026)
(0.20253 -6.34304e-30 -0.000386537)
(0.202524 -2.85874e-34 -0.000380459)
(0.202523 0 -0.000365366)
(0.202529 3.81985e-30 -0.000357615)
(0.202534 8.5452e-30 -0.000342656)
(0.202547 0 -0.000334953)
(0.202556 -3.85711e-35 -0.000322235)
(0.202572 -7.03479e-30 -0.000310919)
(0.202598 -3.99278e-30 -0.000295063)
(0.202618 -2.72886e-30 -0.000287644)
(0.20264 0 -0.000275688)
(0.202665 0 -0.00026451)
(0.202687 6.59708e-30 -0.000255412)
(0.202716 0 -0.000241347)
(0.202752 -9.114e-30 -0.000226925)
(0.202782 0 -0.000217912)
(0.20281 0 -0.000206939)
(0.202841 4.26457e-30 -0.000195612)
(0.20288 4.74986e-30 -0.000180709)
(0.202904 -5.03894e-30 -0.000177342)
(0.202942 4.65026e-30 -0.00016212)
(0.202971 -2.20013e-34 -0.000157091)
(0.203007 1.8667e-30 -0.000145415)
(0.203039 0 -0.000139721)
(0.203074 0 -0.000130205)
(0.203105 -1.21638e-30 -0.000124846)
(0.203138 -1.49215e-30 -0.000116922)
(0.203171 1.1826e-30 -0.0001117)
(0.203202 0 -0.000106409)
(0.203236 0 -0.000102328)
(0.203269 -4.31013e-35 -9.84553e-05)
(0.203305 9.92677e-31 -9.4506e-05)
(0.203338 0 -9.24008e-05)
(0.20337 7.8299e-31 -8.92172e-05)
(0.203399 0 -8.81834e-05)
(0.203428 7.72551e-31 -8.49602e-05)
(0.203452 6.63239e-35 -8.53641e-05)
(0.203478 0 -8.25119e-05)
(0.2035 0 -8.40198e-05)
(0.203521 -1.25875e-30 -8.10731e-05)
(0.203536 0 -8.38841e-05)
(0.203558 0 -7.85924e-05)
(0.203568 -1.22573e-30 -8.78598e-05)
(0.203583 9.75464e-31 -8.20086e-05)
(0.203598 1.40439e-34 -8.87032e-05)
(0.203609 0 -8.54081e-05)
(0.20362 0 -9.01967e-05)
(0.203627 1.78772e-31 -8.94139e-05)
(0.203638 -2.41057e-31 -9.08483e-05)
(0.203636 9.76253e-31 -9.6851e-05)
(0.203634 -2.56028e-31 -9.57559e-05)
(0.203636 -7.42002e-31 -9.91819e-05)
(0.203632 5.51016e-31 -0.000101984)
(0.203624 7.57169e-31 -0.000107299)
(0.20361 9.27271e-31 -0.00011276)
(0.203597 0 -0.000114806)
(0.203588 0 -0.000115404)
(0.20357 1.65923e-34 -0.000121532)
(0.203553 -4.429e-31 -0.000122088)
(0.203529 -1.19081e-30 -0.000128995)
(0.20351 -4.59852e-31 -0.000130128)
(0.203487 1.12724e-30 -0.000136685)
(0.203465 -5.03744e-36 -0.000138498)
(0.203442 0 -0.000144332)
(0.203424 7.91683e-31 -0.000143343)
(0.203395 -3.50405e-30 -0.00015291)
(0.203362 -2.25434e-30 -0.00015694)
(0.203331 2.29334e-30 -0.000161814)
(0.203302 1.37719e-30 -0.000163124)
(0.203269 -3.20265e-30 -0.000171064)
(0.203234 2.23316e-30 -0.000175153)
(0.2032 -2.99953e-30 -0.000181493)
(0.203163 2.4277e-30 -0.00018604)
(0.203126 0 -0.000191415)
(0.203088 2.38975e-30 -0.000196439)
(0.203055 0 -0.000198532)
(0.20301 0 -0.00020933)
(0.202969 9.19012e-31 -0.00020892)
(0.20293 0 -0.000214972)
(0.202882 1.33384e-34 -0.000220468)
(0.202838 0 -0.000222767)
(0.202796 1.54965e-30 -0.000224082)
(0.202749 3.11241e-30 -0.000230297)
(0.202699 0 -0.000234622)
(0.202652 0 -0.000236027)
(0.202607 0 -0.000238527)
(0.202562 -1.62573e-30 -0.000240382)
(0.202517 0 -0.000241674)
(0.202472 0 -0.000243932)
(0.202426 0 -0.000243974)
(0.20238 0 -0.000246699)
(0.202333 1.25916e-30 -0.000247008)
(0.202289 0 -0.000249835)
(0.20225 -5.70908e-31 -0.000247545)
(0.202203 -3.96399e-30 -0.000257233)
(0.202161 0 -0.000253173)
(0.202118 0 -0.000260531)
(0.202074 0 -0.000258804)
(0.202035 0 -0.000262427)
(0.201985 2.86513e-30 -0.000267766)
(0.201938 0 -0.000268064)
(0.201896 0 -0.000269137)
(0.201849 0 -0.000273716)
(0.201798 0 -0.000277528)
(0.201751 7.73501e-31 -0.000276273)
(0.201706 9.3836e-31 -0.000275252)
(0.20166 0 -0.000276721)
(0.201612 -4.96084e-35 -0.000275787)
(0.20156 0 -0.000278092)
(0.201511 5.50268e-31 -0.000272716)
(0.20147 -6.65737e-35 -0.000268526)
(0.201421 1.09569e-30 -0.000268607)
(0.20138 1.62072e-30 -0.000260071)
(0.201342 0 -0.00025689)
(0.201308 -1.80675e-30 -0.000248032)
(0.201279 0 -0.000242197)
(0.201247 1.40705e-30 -0.000235504)
(0.201231 3.6016e-30 -0.000222141)
(0.201214 9.33798e-31 -0.000217509)
(0.201199 0 -0.000208926)
(0.201192 3.06218e-30 -0.000198372)
(0.20119 0 -0.000189989)
(0.20119 2.9398e-30 -0.000180066)
(0.20119 -4.15249e-30 -0.000173579)
(0.201194 -4.60501e-30 -0.000161273)
(0.201208 -3.15511e-30 -0.000152803)
(0.20122 0 -0.00014534)
(0.20123 0 -0.000141332)
(0.201245 -1.71085e-30 -0.000129865)
(0.201263 0 -0.000122534)
(0.201272 -4.78387e-31 -0.000121148)
(0.201288 7.81243e-35 -0.000110847)
(0.201309 0 -0.00010476)
(0.201318 2.42387e-31 -0.000105401)
(0.201337 0 -9.72876e-05)
(0.201359 0 -9.31004e-05)
(0.201376 3.62381e-35 -9.21179e-05)
(0.201386 7.57357e-32 -9.23133e-05)
(0.201402 0 -8.78151e-05)
(0.201419 5.33504e-31 -8.50307e-05)
(0.201429 0 -8.88526e-05)
(0.201444 -8.23925e-31 -8.46565e-05)
(0.201468 3.35578e-31 -8.37105e-05)
(0.201486 -2.74284e-31 -8.67271e-05)
(0.201507 0 -8.36708e-05)
(0.20153 0 -8.5404e-05)
(0.201554 0 -8.3133e-05)
(0.20158 -8.96993e-34 -8.40931e-05)
(0.201604 0 -8.38391e-05)
(0.201633 2.31458e-31 -8.36723e-05)
(0.20166 0 -8.56098e-05)
(0.20169 -1.90976e-31 -8.52368e-05)
(0.201712 1.77185e-34 -9.02275e-05)
(0.201742 1.13957e-30 -8.38553e-05)
(0.201769 -2.08745e-34 -9.20245e-05)
(0.201789 0 -9.07552e-05)
(0.20182 0 -9.04273e-05)
(0.201846 -2.78836e-31 -9.31605e-05)
(0.201867 0 -9.70958e-05)
(0.201892 0 -9.45218e-05)
(0.201921 0 -9.4701e-05)
(0.201946 8.3113e-32 -9.66187e-05)
(0.201964 0 -0.000101725)
(0.201988 -1.22211e-34 -9.86459e-05)
(0.202015 1.27799e-31 -9.98835e-05)
(0.202039 1.25937e-31 -0.000100562)
(0.202054 4.94113e-31 -0.000105983)
(0.20208 -1.42341e-30 -9.92691e-05)
(0.202101 0 -0.000108319)
(0.202115 0 -0.000106133)
(0.202139 0 -0.000104579)
(0.202155 0 -0.000106561)
(0.202166 -1.51721e-35 -0.000108036)
(0.202182 -6.45633e-32 -0.000108673)
(0.202183 -7.9477e-31 -0.000114531)
(0.202199 -1.4373e-30 -0.000106861)
(0.20221 0 -0.000116403)
(0.202217 0 -0.000111542)
(0.202226 7.15201e-35 -0.000118827)
(0.202221 0 -0.000119773)
(0.202232 0 -0.000117223)
(0.202243 4.44973e-31 -0.000120359)
(0.202242 0 -0.000128367)
(0.202245 -6.98194e-35 -0.000128503)
(0.202256 0 -0.000132337)
(0.202251 0 -0.000142443)
(0.202253 0 -0.000142283)
(0.20226 1.45837e-30 -0.000146758)
(0.20226 0 -0.000152946)
(0.202261 -1.28917e-30 -0.000157836)
(0.202263 0 -0.000164385)
(0.202266 -1.20949e-30 -0.000169261)
(0.202269 0 -0.000174879)
(0.202271 0 -0.000178771)
(0.202272 0 -0.000182707)
(0.20227 -8.32669e-31 -0.000185391)
(0.202265 6.2084e-31 -0.000187585)
(0.202266 0 -0.000184925)
(0.202257 0 -0.000192859)
(0.202241 -1.40484e-30 -0.000196724)
(0.202229 0 -0.000196117)
(0.202213 9.89122e-31 -0.000198016)
(0.202197 0 -0.000196482)
(0.202186 0 -0.000193942)
(0.202166 0 -0.000197923)
(0.202136 1.89183e-30 -0.000201403)
(0.202109 0 -0.000197329)
(0.202088 6.34823e-32 -0.000194965)
(0.202058 0 -0.000196861)
(0.202018 0 -0.000199622)
(0.20199 0 -0.000188575)
(0.201952 -3.41567e-30 -0.000195042)
(0.201907 0 -0.000189728)
(0.201873 -1.64597e-30 -0.000183281)
(0.201832 1.20451e-30 -0.000182665)
(0.201787 0 -0.000180845)
(0.201756 0 -0.000168439)
(0.201722 0 -0.000170432)
(0.201685 0 -0.000164005)
(0.201667 -5.0302e-30 -0.000154387)
(0.201647 0 -0.00015289)
(0.201624 0 -0.000149951)
(0.201618 2.15325e-30 -0.000135788)
(0.201613 -1.97144e-31 -0.000135672)
(0.201606 0 -0.000126034)
(0.201606 2.52898e-31 -0.000122726)
(0.201594 -8.13348e-31 -0.000118683)
(0.201605 0 -0.000103225)
(0.201614 1.57452e-31 -0.000102491)
(0.201612 0 -9.19943e-05)
(0.201625 2.17359e-30 -8.21143e-05)
(0.201646 1.32589e-30 -6.3852e-05)
(0.201666 0 -5.43949e-05)
(0.201667 9.73316e-31 -4.12382e-05)
(0.20169 -9.36247e-31 -2.05043e-05)
(0.201717 0 -4.7377e-06)
(0.201752 0 2.0032e-05)
(0.201802 0 4.39052e-05)
(0.201869 0 7.05032e-05)
(0.201914 0 8.18602e-05)
(0.201973 -3.88656e-30 0.000106939)
(0.202043 -8.70305e-30 0.00013115)
(0.202097 5.68286e-30 0.000143017)
(0.202167 0 0.000169502)
(0.202249 0 0.000192577)
(0.202323 0 0.000211017)
(0.202398 0 0.000230733)
(0.202484 0 0.000262304)
(0.202589 2.31543e-29 0.000280871)
(0.202633 0 0.00030242)
(0.202858 0 0.000346772)
(0.20274 0 0.000328435)
(0.20319 7.50779e-29 0.000434271)
(0.202793 -9.42882e-29 0.000309344)
(0.20368 4.27771e-28 0.000620069)
(0.202713 0 0.00016596)
(0.204388 0 0.00102188)
(0.202627 0 -0.000228117)
(0.205226 5.20942e-27 0.00168186)
(0.202781 0 -0.000996755)
(0.205864 -1.82557e-26 0.00235768)
(0.203011 2.50159e-26 -0.00220455)
(0.20587 -5.4322e-26 0.00276036)
(0.203141 0 -0.00388759)
(0.204705 0 0.00246042)
(0.202894 0 -0.00597277)
(0.20197 2.35637e-26 0.000939871)
(0.201749 -9.8855e-26 -0.00823201)
(0.198463 0 -0.00218042)
(0.199184 -2.03881e-25 -0.011797)
(0.192602 -4.4235e-26 -0.00781623)
(0.190947 -5.09287e-25 -0.0197362)
(0.172135 3.03265e-25 -0.018631)
(0.151727 -1.05734e-26 -0.0326744)
(0.049412 0 -0.00822047)
(-0.0160763 0 0.00126308)
(0.0451579 3.20236e-28 -0.00408224)
(0.0159652 0 0.000656739)
(0.0314428 -1.33846e-28 0.000143553)
(0.00448358 0 0.00177572)
(0.00422165 5.79662e-33 0.000216)
(-0.0105891 -2.58626e-28 0.00142919)
(-0.0208791 0 0.00183397)
(-0.0330594 0 0.00102389)
(-0.0375002 1.45273e-27 -0.0062794)
(0.360409 0 0.000855385)
(0.359059 2.97303e-28 0.000846627)
(0.356331 6.23157e-28 0.00160042)
(0.351595 0 0.00155186)
(0.348145 0 0.00173272)
(0.343926 0 0.00152259)
(0.340477 0 0.00156367)
(0.336944 -1.81805e-28 0.00140781)
(0.333843 0 0.00122171)
(0.331661 3.17288e-28 0.00132988)
(0.327945 -1.50619e-26 0.000198491)
(0.327003 1.11559e-27 0.00280967)
(0.323923 2.19614e-27 -0.000616107)
(0.321105 1.57189e-27 0.00249502)
(0.318663 0 -0.000587299)
(0.315302 -1.16563e-26 0.00231316)
(0.314561 0 0.000529437)
(0.311729 9.49877e-28 0.000408531)
(0.306818 -2.81227e-28 0.000942932)
(0.30855 0 0.00302484)
(0.30269 1.43901e-25 -0.00348927)
(0.300129 0 0.00538164)
(0.303065 -4.67608e-27 -0.000639545)
(0.295785 0 0.000726118)
(0.297384 0 0.00426037)
(0.298762 1.10221e-26 0.00276827)
(0.297858 -1.08334e-27 0.00187269)
(0.293848 0 -0.000525795)
(0.291727 0 0.00204425)
(0.292132 -9.11378e-28 -0.000484073)
(0.287421 -2.27582e-26 -0.00156676)
(0.286544 0 0.000559267)
(0.283852 -2.60245e-26 -0.00165467)
(0.279413 0 -0.000958647)
(0.280659 0 0.00160019)
(0.283131 -5.26399e-27 0.000781587)
(0.28048 0 -0.00180059)
(0.275649 -1.75039e-26 -0.000503787)
(0.27402 -5.01658e-30 -0.000115088)
(0.272185 -6.12274e-27 -0.000133287)
(0.270565 0 -0.000230971)
(0.271074 0 0.00126669)
(0.272928 -1.08539e-30 0.000811263)
(0.27093 -4.17306e-28 -0.00112823)
(0.268006 -4.30299e-29 8.628e-05)
(0.267738 -1.41384e-27 0.000184994)
(0.264713 0 -0.000289441)
(0.264339 -2.90254e-28 0.00113269)
(0.264844 0 0.000739268)
(0.26499 2.83085e-27 0.0007283)
(0.262874 -8.77737e-28 -0.000656599)
(0.261074 2.50678e-27 0.000849225)
(0.259722 2.58591e-27 0.00153154)
(0.259714 2.07394e-27 0.00295899)
(0.260288 0 0.00275069)
(0.260454 0 0.0025292)
(0.2612 -2.71635e-27 0.00219068)
(0.261473 0 0.00162414)
(0.261605 4.35254e-28 0.00176583)
(0.261698 1.11574e-27 0.00153406)
(0.261401 0 0.00142976)
(0.260639 -1.58255e-28 0.00137382)
(0.260121 0 0.00184162)
(0.259491 -2.22281e-28 0.00156421)
(0.258867 0 0.00174287)
(0.258725 2.92803e-28 0.00147827)
(0.258389 0 0.00145977)
(0.258389 0 0.00127528)
(0.258329 -2.46463e-28 0.00120079)
(0.258191 -2.15231e-28 0.000915346)
(0.257985 0 0.000946816)
(0.257717 0 0.000949377)
(0.257306 2.67618e-28 0.00112243)
(0.257102 3.91046e-29 0.0013284)
(0.256775 -2.77257e-28 0.00122796)
(0.256632 0 0.00121451)
(0.256239 0 0.000950182)
(0.256221 0 0.00113451)
(0.256257 0 0.0009157)
(0.256157 -1.19922e-28 0.000901536)
(0.256068 0 0.000753193)
(0.256146 3.09639e-28 0.000941648)
(0.256033 0 0.000495697)
(0.255647 0 0.000580672)
(0.255195 0 0.000310912)
(0.254579 5.3658e-32 0.000464105)
(0.254203 0 0.000347541)
(0.253958 0 0.000530027)
(0.253657 2.63274e-29 0.000181879)
(0.252966 0 0.000150546)
(0.252479 0 0.000483596)
(0.252664 0 0.000964876)
(0.252916 4.82199e-29 0.000919539)
(0.25292 1.19224e-28 0.000996245)
(0.252907 1.22199e-28 0.000929329)
(0.252893 2.76821e-32 0.0010486)
(0.252895 8.92514e-29 0.00099965)
(0.252935 -4.99108e-28 0.00114766)
(0.253004 0 0.00109959)
(0.253152 -1.58891e-28 0.00122967)
(0.25325 0 0.00114179)
(0.253377 0 0.0012364)
(0.253452 0 0.00115798)
(0.253508 0 0.00125527)
(0.253565 -1.36903e-28 0.00118235)
(0.253585 0 0.00127034)
(0.253594 0 0.00118765)
(0.253557 0 0.00125505)
(0.253511 0 0.00117062)
(0.253461 0 0.00124112)
(0.253414 0 0.00116056)
(0.253401 0 0.00124386)
(0.253406 0 0.00115684)
(0.25344 0 0.00124302)
(0.253492 0 0.00114846)
(0.253557 -1.42632e-28 0.00122934)
(0.253625 0 0.00113263)
(0.253681 0 0.00120209)
(0.253738 -1.60009e-28 0.00110981)
(0.253786 0 0.00118166)
(0.253827 0 0.00108362)
(0.25384 1.1043e-28 0.00115042)
(0.253855 1.57357e-28 0.00105986)
(0.253862 -3.45321e-32 0.00114092)
(0.253879 0 0.00105901)
(0.253895 3.76939e-32 0.00114006)
(0.253917 0 0.00105892)
(0.253935 0 0.00113218)
(0.253959 0 0.00105286)
(0.253974 0 0.0011215)
(0.253999 0 0.00104315)
(0.254016 0 0.00110728)
(0.254043 0 0.00102834)
(0.254059 0 0.00108768)
(0.25409 0 0.00100998)
(0.254107 0 0.00106317)
(0.254141 0 0.000989357)
(0.254159 7.92023e-29 0.00103573)
(0.25419 0 0.000967292)
(0.254203 0 0.00100764)
(0.254228 1.11663e-28 0.000943745)
(0.254232 0 0.00097697)
(0.254246 0 0.00091769)
(0.254241 0 0.000948635)
(0.254248 0 0.000893109)
(0.254234 3.42715e-29 0.000914056)
(0.254236 0 0.000863522)
(0.254216 0 0.000875774)
(0.254216 8.00475e-29 0.000830232)
(0.254191 7.76085e-33 0.000832541)
(0.254192 -6.85455e-29 0.000796652)
(0.254158 0 0.000789358)
(0.254158 0 0.000760638)
(0.25412 0 0.000745946)
(0.254118 -2.19932e-29 0.000724737)
(0.254074 1.91477e-29 0.000699055)
(0.25406 0 0.000689785)
(0.254009 0 0.000653451)
(0.253983 0 0.000656808)
(0.253932 2.3496e-29 0.000607654)
(0.253896 1.66447e-29 0.00062013)
(0.253833 0 0.000562632)
(0.253796 6.69073e-33 0.00058626)
(0.253723 0 0.000521589)
(0.253687 8.88828e-31 0.000550952)
(0.253601 4.76124e-29 0.000477912)
(0.253561 -1.05206e-29 0.000515379)
(0.253471 0 0.000436467)
(0.253428 0 0.000481039)
(0.253329 0 0.000394888)
(0.25328 2.8292e-29 0.000449861)
(0.253182 5.80307e-33 0.000354438)
(0.253126 3.56005e-29 0.000416315)
(0.253028 0 0.000313113)
(0.252966 0 0.000383158)
(0.252878 -4.50287e-29 0.000275002)
(0.252816 -3.07606e-29 0.000351286)
(0.252736 5.19743e-29 0.000233437)
(0.252674 7.94275e-33 0.000319683)
(0.252593 -5.55426e-29 0.000193885)
(0.252535 0 0.000294115)
(0.252448 0 0.000154302)
(0.252392 0 0.000273329)
(0.252293 3.43117e-29 0.000118296)
(0.252251 5.95313e-29 0.000262752)
(0.252126 0 7.90339e-05)
(0.252109 0 0.000271077)
(0.25195 2.0016e-29 2.80108e-05)
(0.251968 0 0.000306446)
(0.251788 0 -4.51813e-05)
(0.251815 0 0.000342413)
(0.251627 5.10487e-29 -0.00013008)
(0.251649 2.14682e-28 0.00037276)
(0.251459 0 -0.000217552)
(0.251478 0 0.000402626)
(0.251293 -1.52755e-28 -0.000307554)
(0.251311 -3.15025e-28 0.000430545)
(0.251127 0 -0.000401153)
(0.251137 0 0.000456904)
(0.25095 0 -0.00050079)
(0.250946 4.18845e-28 0.000481208)
(0.250762 9.3019e-28 -0.000601772)
(0.250741 0 0.000500942)
(0.250569 0 -0.00070659)
(0.250512 5.1604e-28 0.000505228)
(0.25036 0 -0.000806732)
(0.25026 -1.10242e-27 0.000489898)
(0.250133 0 -0.000900939)
(0.249969 0 0.000453954)
(0.24989 0 -0.000974063)
(0.249641 5.73339e-28 0.000378635)
(0.249611 2.38903e-27 -0.00101646)
(0.249282 1.36548e-28 0.00027523)
(0.249314 0 -0.00101714)
(0.248905 0 0.000139156)
(0.248985 -2.99071e-31 -0.000958591)
(0.248553 0 -1.01543e-06)
(0.248639 -1.49352e-27 -0.000871288)
(0.248242 0 -0.000127383)
(0.248293 0 -0.000799834)
(0.247949 7.09835e-28 -0.000229085)
(0.247958 4.51795e-28 -0.000751266)
(0.247647 -3.63706e-28 -0.000311538)
(0.247628 0 -0.000709162)
(0.247349 0 -0.000375656)
(0.247306 -2.65972e-28 -0.000679485)
(0.247055 0 -0.000422704)
(0.246999 2.05198e-28 -0.000655733)
(0.246775 -3.21186e-33 -0.000463091)
(0.2467 1.66314e-28 -0.000649611)
(0.246497 -1.2049e-28 -0.000496736)
(0.24641 0 -0.000646031)
(0.246262 6.72887e-29 -0.000525442)
(0.246133 0 -0.000651519)
(0.246014 0 -0.000556809)
(0.24589 -4.16435e-29 -0.000649491)
(0.245763 1.32288e-29 -0.000570925)
(0.245644 2.11523e-29 -0.000640675)
(0.245504 0 -0.000576489)
(0.2454 0 -0.000633626)
(0.24525 0 -0.000584558)
(0.245167 -1.41372e-29 -0.000618419)
(0.245019 1.79984e-30 -0.000593168)
(0.244938 0 -0.00061373)
(0.244803 -9.59081e-31 -0.000588818)
(0.244731 1.8329e-29 -0.000605859)
(0.2446 0 -0.000590538)
(0.244521 -4.04206e-30 -0.00059858)
(0.244404 -2.59032e-30 -0.000580306)
(0.244326 0 -0.000593686)
(0.244215 0 -0.000575792)
(0.244144 0 -0.000583081)
(0.244045 6.80547e-31 -0.000569259)
(0.243977 0 -0.000570201)
(0.243887 -7.59488e-31 -0.000559411)
(0.243818 0 -0.000554012)
(0.243733 0 -0.00054893)
(0.243662 3.25787e-30 -0.000533571)
(0.243593 5.10833e-31 -0.000533049)
(0.243523 2.92778e-35 -0.000522013)
(0.243462 0 -0.000515216)
(0.243401 -4.70277e-30 -0.00050235)
(0.243349 0 -0.000494546)
(0.243294 0 -0.000482635)
(0.243245 8.206e-30 -0.000472038)
(0.243202 -6.34553e-30 -0.000452965)
(0.243162 6.89919e-30 -0.000450739)
(0.243124 0 -0.000428828)
(0.243097 7.66459e-30 -0.000424231)
(0.243066 2.02258e-29 -0.000404682)
(0.243048 0 -0.000396622)
(0.243024 -1.88707e-29 -0.000381886)
(0.243009 0 -0.000370389)
(0.242997 -1.06208e-29 -0.00035152)
(0.24299 0 -0.000342543)
(0.24298 5.46879e-30 -0.00032992)
(0.242978 0 -0.000316006)
(0.242975 5.25941e-30 -0.000305711)
(0.242973 -6.7292e-30 -0.000290021)
(0.242981 -1.16197e-29 -0.000272461)
(0.242987 0 -0.000261742)
(0.242993 0 -0.000248574)
(0.243 4.42279e-35 -0.000237647)
(0.243018 5.14239e-30 -0.000217459)
(0.243035 -4.32023e-30 -0.000217434)
(0.243045 -5.89526e-30 -0.00019612)
(0.243071 4.13756e-30 -0.000193842)
(0.243082 0 -0.000176736)
(0.24311 -1.89046e-30 -0.000172347)
(0.243124 0 -0.000159691)
(0.243151 -1.71424e-30 -0.000154354)
(0.243168 -1.91185e-30 -0.000144534)
(0.243197 -1.31632e-35 -0.000138965)
(0.243216 0 -0.000132907)
(0.243245 0 -0.000128356)
(0.243267 -2.03577e-35 -0.000124128)
(0.243298 -3.92425e-35 -0.000118942)
(0.243321 -8.65427e-31 -0.000116961)
(0.24335 7.08941e-31 -0.000112014)
(0.243368 0 -0.000111398)
(0.243395 5.98821e-31 -0.00010631)
(0.243411 -5.77663e-31 -0.000107909)
(0.243437 0 -0.000103007)
(0.243451 0 -0.000105855)
(0.243473 -1.98823e-31 -0.000100114)
(0.243484 0 -0.000105562)
(0.243506 -6.78636e-31 -9.69225e-05)
(0.243517 -2.57773e-30 -0.000109698)
(0.243529 0 -0.000101073)
(0.243542 9.18744e-31 -0.000110213)
(0.243552 -4.3828e-31 -0.000104748)
(0.243565 0 -0.000111057)
(0.243571 -1.24895e-31 -0.000109684)
(0.243585 0 -0.000110634)
(0.243586 1.06863e-30 -0.000117437)
(0.243587 0 -0.000115424)
(0.243589 -1.05479e-30 -0.000119389)
(0.243586 8.03326e-31 -0.000122551)
(0.243583 1.16519e-30 -0.000127523)
(0.243574 1.03122e-30 -0.000133853)
(0.243562 0 -0.000136531)
(0.243554 -9.41342e-31 -0.000135255)
(0.243542 2.33158e-30 -0.000144017)
(0.243524 0 -0.000142402)
(0.24351 -1.20033e-30 -0.000152272)
(0.243488 -9.09923e-31 -0.000151728)
(0.243475 0 -0.000160986)
(0.243449 1.16662e-30 -0.000160786)
(0.243433 0 -0.000170169)
(0.243406 5.11932e-30 -0.000165967)
(0.243389 -4.57339e-30 -0.000178554)
(0.243351 0 -0.00018114)
(0.243324 2.69332e-30 -0.000188718)
(0.243291 2.84594e-30 -0.000187973)
(0.243264 1.36636e-34 -0.000199148)
(0.243226 3.43568e-30 -0.00020254)
(0.243195 -4.106e-30 -0.000211005)
(0.243157 0 -0.000215586)
(0.243123 0 -0.000221837)
(0.243084 5.58063e-30 -0.00022883)
(0.243049 3.96364e-30 -0.0002283)
(0.243009 -4.49435e-30 -0.000243859)
(0.24296 0 -0.000240688)
(0.242925 -4.08544e-30 -0.000248192)
(0.242874 -5.39915e-35 -0.000254499)
(0.242829 -2.12396e-30 -0.000257397)
(0.242782 2.74682e-30 -0.000257684)
(0.242738 0 -0.000265296)
(0.242682 2.64346e-30 -0.000270621)
(0.242634 1.97508e-30 -0.000271686)
(0.242583 0 -0.000274943)
(0.242535 -1.97829e-30 -0.000277377)
(0.242483 0 -0.000278225)
(0.242435 2.21411e-30 -0.000281496)
(0.24238 0 -0.000279736)
(0.24233 2.09404e-30 -0.000284477)
(0.242274 -2.17507e-30 -0.000282912)
(0.242222 1.55199e-30 -0.000289871)
(0.242172 -2.69492e-30 -0.000282582)
(0.242121 3.53087e-30 -0.000299731)
(0.242064 0 -0.000289856)
(0.242018 0 -0.000302454)
(0.241959 0 -0.000298045)
(0.241914 0 -0.000302253)
(0.241854 3.06956e-30 -0.000309121)
(0.241797 0 -0.000309035)
(0.241743 0 -0.000310014)
(0.241689 0 -0.000315239)
(0.241626 0 -0.000320407)
(0.241568 0 -0.000318399)
(0.241511 1.6206e-30 -0.000316216)
(0.241455 -1.68798e-30 -0.00031941)
(0.241396 5.40639e-35 -0.00031629)
(0.241337 0 -0.000320964)
(0.241274 1.16015e-30 -0.00031391)
(0.241225 4.28058e-31 -0.000307753)
(0.241168 -4.12308e-32 -0.000310577)
(0.241113 0 -0.000298453)
(0.241068 0 -0.000296802)
(0.241015 0 -0.00028578)
(0.24098 1.13805e-30 -0.00027879)
(0.24093 3.2221e-30 -0.000273682)
(0.240901 0 -0.000255922)
(0.240871 -1.80782e-30 -0.000252912)
(0.240841 0 -0.000243811)
(0.240819 3.98093e-30 -0.000231044)
(0.240802 -3.79327e-30 -0.000223267)
(0.240788 -1.01522e-34 -0.000209953)
(0.240774 -7.23364e-30 -0.000204559)
(0.240763 -5.49747e-30 -0.000189274)
(0.240761 -3.81741e-30 -0.00018023)
(0.240758 0 -0.00017158)
(0.240754 1.39e-30 -0.000166791)
(0.240751 0 -0.000155508)
(0.240757 0 -0.000146181)
(0.240757 7.77097e-31 -0.000143802)
(0.240757 2.4489e-30 -0.00013429)
(0.240769 1.14026e-30 -0.000126141)
(0.240775 0 -0.000127805)