/*--------------------------------*- C++ -*----------------------------------*\
| =========                 |                                                 |
| \\      /  F ield         | foam-extend: Open Source CFD                    |
|  \\    /   O peration     | Version:     3.2                                |
|   \\  /    A nd           | Web:         http://www.foam-extend.org         |
|    \\/     M anipulation  | For copyright notice see file Copyright         |
\*---------------------------------------------------------------------------*/
FoamFile
{
    version     2.0;
    format      ascii;
    class       areaVectorField;
    location    "840";
    object      Ub2;
}
// * * * * * * * * * * * * * * * * * * * * * * * * * * * * * * * * * * * * * //

dimensions      [0 1 -1 0 0 0 0];

internalField   nonuniform List<vector> 
550
(
(0 0 0)
(0 0 0)
(0 0 0)
(0 0 0)
(0.0429762 1.21597e-23 -8.5951e-05)
(0.0547399 0 -0.00010948)
(0.0655332 -1.79859e-23 -0.000131063)
(0.0757023 -2.04697e-23 -0.000151405)
(0.0845171 0 -0.000169043)
(0.0918818 -9.96448e-30 -0.000183758)
(0.0985744 0 -0.000476973)
(0.102981 2.28665e-23 0.000448695)
(0.107754 0 -0.000964373)
(0.0788402 0 0.00028555)
(0.0797321 0 -0.000543707)
(0.112782 -1.78526e-23 0.000505083)
(0.0931814 -2.01432e-23 -0.000265352)
(0.113087 1.55662e-27 -0.000451696)
(0.111447 6.39213e-24 -0.000151714)
(0.110611 0 0.00063303)
(0.061268 -2.47255e-22 -0.00121992)
(0.0811474 0 0.00168057)
(0.106338 1.52326e-27 -0.000940316)
(0.103836 0 -0.00052041)
(0.100879 -1.60502e-22 0.0016389)
(0.074792 -6.12652e-24 0.000682126)
(0.069607 0 0.000187397)
(0.0680445 0 -0.000418907)
(0.0982494 2.37296e-27 0.000681243)
(0.0981511 0 -0.00055918)
(0.062565 0 -0.000546394)
(0.0951282 -3.27383e-24 6.61981e-05)
(0.0944063 0 -0.00136712)
(0.0925036 2.23274e-22 -0.00098421)
(0.090678 2.84572e-27 0.000964029)
(0.0901645 2.26817e-22 0.000700671)
(0.0899582 0 -0.000638244)
(0.0883389 6.61776e-28 -0.000524212)
(0.0866835 -2.19042e-27 -0.000682335)
(0.0855098 7.08535e-28 -0.000836712)
(0.0844689 5.39846e-28 -0.000572828)
(0.0836903 4.62695e-23 0.000607529)
(0.0838078 1.51687e-28 0.000569759)
(0.0839157 -2.87869e-23 -0.000204483)
(0.0829175 -4.58609e-29 0.000180235)
(0.0823926 0 -0.000237982)
(0.08167 0 -0.000621751)
(0.0803922 0 0.000130107)
(0.0801256 1.99002e-29 0.000180884)
(0.0798906 0 0.00022292)
(0.0798656 1.08528e-23 -0.000261625)
(0.0789547 0 0.000244613)
(0.0782316 6.11533e-24 0.000437983)
(0.0773779 1.01808e-23 0.000886191)
(0.077127 -1.71845e-28 0.000776496)
(0.0769746 0 0.000739488)
(0.077012 0 0.000675625)
(0.0771635 -7.34869e-24 0.000544614)
(0.0771847 -4.29573e-23 0.000612535)
(0.0776266 0 0.000499563)
(0.0776995 -4.03285e-24 0.000421503)
(0.0776833 1.13431e-29 0.000416354)
(0.0775389 0 0.000531605)
(0.0773342 3.11037e-24 0.000417885)
(0.077115 -7.68189e-24 0.00047052)
(0.0769303 0 0.000376331)
(0.076833 0 0.000403081)
(0.0767905 0 0.000361076)
(0.0768584 0 0.000344644)
(0.0768853 1.867e-24 0.000260058)
(0.0769829 0 0.000273585)
(0.0769765 -2.32832e-24 0.000279705)
(0.077028 5.55211e-29 0.000354586)
(0.0769947 -2.86966e-29 0.0004105)
(0.077017 1.90854e-24 0.000368998)
(0.0769619 0 0.000345367)
(0.0769698 -2.89668e-24 0.000264696)
(0.0769389 1.65209e-24 0.00035139)
(0.077006 7.77703e-29 0.000274545)
(0.0769834 1.1695e-29 0.0002667)
(0.0770259 0 0.000243156)
(0.077017 3.51742e-24 0.000303925)
(0.0770304 0 0.000133563)
(0.0769508 0 0.000140474)
(0.0769291 -2.00917e-29 5.05734e-05)
(0.0768307 2.94039e-30 0.000106408)
(0.0768158 0 9.29559e-05)
(0.0767435 0 0.000138608)
(0.0767315 0 -2.90472e-05)
(0.0766199 0 -2.14197e-05)
(0.0765861 2.34222e-24 0.000144461)
(0.0765592 0 0.000339172)
(0.0765858 0 0.000298006)
(0.0765509 0 0.000316223)
(0.076569 0 0.00028385)
(0.0765415 -7.3217e-25 0.000326865)
(0.0765681 0 0.000309349)
(0.076562 0 0.000365517)
(0.0766131 1.49788e-24 0.000355211)
(0.0766312 -3.66549e-29 0.000397751)
(0.0766969 0 0.00036887)
(0.0767221 -2.51671e-24 0.00039726)
(0.0767868 0 0.000369344)
(0.076807 2.93974e-24 0.000403115)
(0.0768628 -2.14425e-24 0.000376401)
(0.076869 2.72105e-24 0.000404116)
(0.0769085 0 0.00037064)
(0.0768995 0 0.000394632)
(0.0769284 9.69803e-25 0.000360414)
(0.0769149 -8.80763e-25 0.000387643)
(0.0769467 0 0.000356852)
(0.0769416 0 0.000387816)
(0.0769842 6.66396e-25 0.000358883)
(0.0769887 0 0.000391325)
(0.077039 9.088e-25 0.000360355)
(0.077047 0 0.000392023)
(0.0770986 0 0.000356033)
(0.0771028 -1.50934e-24 0.000382564)
(0.0771495 0 0.000347895)
(0.077148 -2.74743e-29 0.000375073)
(0.0771883 0 0.000336446)
(0.0771795 1.10321e-24 0.00036082)
(0.0772133 3.69156e-25 0.000326642)
(0.077201 2.80879e-29 0.000357039)
(0.077233 0 0.000327052)
(0.0772205 0 0.000357849)
(0.0772518 4.61824e-25 0.000326936)
(0.077239 -1.04874e-24 0.00035529)
(0.0772693 0 0.000324309)
(0.0772566 -8.96232e-25 0.000350795)
(0.0772861 0 0.000320757)
(0.0772745 2.32271e-29 0.000345686)
(0.0773041 0 0.000316008)
(0.0772953 0 0.000339618)
(0.0773261 0 0.000310827)
(0.0773205 1.97003e-29 0.000332206)
(0.0773515 -2.08814e-25 0.0003051)
(0.0773476 -7.60701e-25 0.000323828)
(0.0773766 2.37206e-25 0.000298375)
(0.0773723 0 0.000314648)
(0.0773966 1.94117e-25 0.000290478)
(0.0773888 5.75158e-25 0.000303609)
(0.0774058 0 0.000280929)
(0.0773937 3.69762e-25 0.000292456)
(0.0774048 0 0.000272134)
(0.077392 -1.85182e-25 0.00028023)
(0.0774 2.38512e-25 0.000262315)
(0.0773889 -8.81488e-26 0.000267434)
(0.0773956 0 0.000251962)
(0.0773877 -1.75874e-30 0.000253843)
(0.0773929 0 0.00024145)
(0.0773877 7.8472e-26 0.000240126)
(0.0773905 0 0.000230492)
(0.0773865 -9.63166e-26 0.000225876)
(0.0773854 0 0.000219226)
(0.0773824 0 0.000211161)
(0.0773767 1.19806e-25 0.000207227)
(0.0773739 -1.79586e-25 0.000196029)
(0.0773633 0 0.000196432)
(0.0773604 -2.54342e-25 0.000181208)
(0.077345 0 0.000184546)
(0.0773424 0 0.000166818)
(0.0773232 3.30961e-31 0.000174454)
(0.0773217 0 0.000153097)
(0.0772985 -7.05122e-26 0.000163745)
(0.0772979 0 0.000138252)
(0.07727 7.48252e-26 0.000153098)
(0.0772705 -3.18628e-25 0.000124954)
(0.0772378 5.26567e-30 0.000142296)
(0.0772385 1.78479e-25 0.000111313)
(0.0772014 0 0.000132997)
(0.0772029 0 9.79622e-05)
(0.0771617 0 0.000122357)
(0.0771655 0 8.45324e-05)
(0.0771218 5.29926e-30 0.000112872)
(0.0771294 1.09579e-29 7.29184e-05)
(0.0770844 -6.04702e-30 0.000103773)
(0.077096 2.83671e-25 5.9805e-05)
(0.07705 1.16071e-26 9.47151e-05)
(0.077066 -6.54246e-30 4.80478e-05)
(0.0770186 3.62586e-26 8.77449e-05)
(0.0770383 0 3.56889e-05)
(0.0769874 0 8.18579e-05)
(0.0770108 -8.10441e-30 2.45437e-05)
(0.0769537 0 7.91557e-05)
(0.0769829 0 1.1059e-05)
(0.0769129 -1.8203e-29 8.3063e-05)
(0.0769571 0 -7.84381e-06)
(0.0768644 2.81153e-29 9.79242e-05)
(0.0769408 0 -3.43717e-05)
(0.0768191 0 0.000113331)
(0.0769341 0 -6.52096e-05)
(0.076781 0 0.000126693)
(0.0769354 6.21896e-29 -9.6874e-05)
(0.0767499 1.73685e-24 0.000140529)
(0.0769444 0 -0.000128912)
(0.0767239 0 0.000153778)
(0.0769589 0 -0.000162773)
(0.0767014 0 0.000166095)
(0.076977 0 -0.000199236)
(0.0766817 0 0.000177883)
(0.0769969 0 -0.00023592)
(0.0766629 0 0.00018868)
(0.0770165 0 -0.000274343)
(0.0766441 -3.53013e-24 0.000193475)
(0.0770312 0 -0.000310496)
(0.0766238 0 0.00019096)
(0.0770368 0 -0.000344935)
(0.0766028 0 0.000181357)
(0.0770289 0 -0.000371)
(0.0765803 -3.80865e-24 0.000155829)
(0.0770004 9.57461e-24 -0.000384432)
(0.0765566 0 0.000120635)
(0.0769462 8.97304e-24 -0.000381723)
(0.076531 0 7.09841e-05)
(0.0768594 7.55017e-24 -0.000354806)
(0.0765022 0 1.86332e-05)
(0.0767571 -3.64658e-28 -0.000316562)
(0.0764701 7.66916e-29 -2.82198e-05)
(0.0766617 0 -0.000285941)
(0.0764362 0 -6.54479e-05)
(0.0765787 0 -0.000265838)
(0.0764012 -9.20513e-29 -9.59893e-05)
(0.0765048 2.71356e-24 -0.000247499)
(0.0763638 -7.06676e-29 -0.000119579)
(0.0764377 0 -0.00023448)
(0.0763244 0 -0.000136817)
(0.0763754 0 -0.000223433)
(0.076283 -3.36311e-25 -0.000151422)
(0.0763176 0 -0.000219643)
(0.0762417 0 -0.000163421)
(0.0762622 0 -0.00021548)
(0.0761989 -1.65333e-27 -0.000173943)
(0.0762094 2.22026e-29 -0.000215211)
(0.0761563 1.22103e-29 -0.000182207)
(0.0761576 -1.40805e-29 -0.000212932)
(0.0761114 0 -0.000187474)
(0.0761055 0 -0.000209487)
(0.0760643 0 -0.00018932)
(0.076053 0 -0.000207465)
(0.0760168 2.22022e-26 -0.000191147)
(0.0760005 3.01371e-25 -0.000202095)
(0.0759677 0 -0.000193627)
(0.0759493 0 -0.000199041)
(0.0759175 0 -0.000190992)
(0.0758971 -3.39685e-30 -0.000196441)
(0.0758669 0 -0.000191587)
(0.0758451 -1.95693e-30 -0.000193253)
(0.0758152 -5.28619e-31 -0.000187979)
(0.0757925 0 -0.000191465)
(0.0757642 0 -0.000185595)
(0.07574 0 -0.000187094)
(0.0757128 -6.36904e-31 -0.000182641)
(0.0756871 5.97386e-26 -0.000182443)
(0.0756607 0 -0.000179)
(0.075634 0 -0.000177532)
(0.0756086 0 -0.000175516)
(0.0755818 0 -0.000170438)
(0.0755572 -3.51277e-31 -0.000169915)
(0.0755322 0 -0.000166015)
(0.0755087 -1.80505e-26 -0.000163318)
(0.0754844 -5.27623e-26 -0.000158966)
(0.0754622 0 -0.00015635)
(0.075439 1.3245e-30 -0.00015234)
(0.0754187 6.46665e-26 -0.000148156)
(0.0753961 0 -0.000142304)
(0.0753777 4.42768e-26 -0.000140996)
(0.0753575 -3.43466e-30 -0.000133864)
(0.0753401 0 -0.000131723)
(0.0753219 3.17499e-30 -0.000125269)
(0.0753055 -1.36533e-25 -0.000122658)
(0.0752892 -1.52603e-25 -0.000117677)
(0.075274 1.73845e-25 -0.000113144)
(0.0752587 0 -0.000106912)
(0.0752443 8.6031e-26 -0.000104456)
(0.0752306 -8.63044e-26 -9.99802e-05)
(0.0752174 8.85523e-26 -9.57399e-05)
(0.0752045 -1.22445e-30 -9.22392e-05)
(0.0751926 0 -8.65247e-05)
(0.0751795 1.13269e-25 -8.10299e-05)
(0.0751685 0 -7.81485e-05)
(0.0751564 0 -7.39966e-05)
(0.0751471 -1.58106e-30 -6.97247e-05)
(0.0751353 1.08196e-25 -6.39527e-05)
(0.0751275 7.13179e-26 -6.37029e-05)
(0.0751179 1.07907e-25 -5.70445e-05)
(0.0751106 7.38303e-26 -5.61057e-05)
(0.075103 5.2529e-26 -5.09104e-05)
(0.0750962 0 -4.94667e-05)
(0.0750901 -4.64452e-26 -4.55923e-05)
(0.0750839 -3.91186e-26 -4.40009e-05)
(0.075079 0 -4.08553e-05)
(0.0750733 0 -3.91778e-05)
(0.0750697 3.95277e-26 -3.71418e-05)
(0.0750645 0 -3.56143e-05)
(0.0750618 4.02085e-26 -3.41496e-05)
(0.0750566 4.09735e-26 -3.26386e-05)
(0.0750541 0 -3.21333e-05)
(0.0750484 2.8887e-31 -3.09488e-05)
(0.0750458 0 -3.08808e-05)
(0.0750395 3.18774e-26 -2.95862e-05)
(0.0750368 -8.93716e-32 -3.01729e-05)
(0.0750299 0 -2.88595e-05)
(0.075027 1.85867e-26 -2.99548e-05)
(0.0750195 -2.35009e-26 -2.85901e-05)
(0.0750168 0 -3.02163e-05)
(0.0750091 -3.94861e-31 -2.7709e-05)
(0.0750068 0 -3.22843e-05)
(0.0750009 -2.02861e-26 -2.90974e-05)
(0.074998 0 -3.24061e-05)
(0.0749934 2.04256e-31 -3.06779e-05)
(0.0749898 -2.40433e-31 -3.30583e-05)
(0.0749859 -7.86107e-27 -3.2491e-05)
(0.0749813 0 -3.3342e-05)
(0.0749778 -3.60364e-31 -3.62165e-05)
(0.0749736 0 -3.53275e-05)
(0.0749696 0 -3.67803e-05)
(0.0749655 2.03717e-31 -3.81468e-05)
(0.0749618 -2.78232e-31 -4.04352e-05)
(0.0749574 -2.0745e-26 -4.26511e-05)
(0.074954 1.67253e-26 -4.31819e-05)
(0.0749481 0 -4.32529e-05)
(0.0749443 0 -4.62388e-05)
(0.0749381 2.17815e-26 -4.61393e-05)
(0.074934 0 -4.92467e-05)
(0.0749274 1.69376e-31 -4.91608e-05)
(0.0749226 4.14915e-31 -5.20583e-05)
(0.0749151 2.25053e-26 -5.22315e-05)
(0.0749089 0 -5.47195e-05)
(0.0749 -2.9126e-31 -5.38858e-05)
(0.074892 8.3152e-26 -5.85813e-05)
(0.0748826 -8.2958e-31 -5.97026e-05)
(0.0748734 0 -6.15802e-05)
(0.0748629 5.05556e-31 -6.16983e-05)
(0.0748523 0 -6.52724e-05)
(0.074842 8.2424e-31 -6.6499e-05)
(0.0748302 0 -6.91325e-05)
(0.07482 -8.92528e-31 -7.08045e-05)
(0.0748072 9.70932e-31 -7.27837e-05)
(0.0747969 0 -7.46841e-05)
(0.0747828 0 -7.50598e-05)
(0.0747717 -1.60855e-30 -8.01522e-05)
(0.0747575 0 -7.89669e-05)
(0.0747442 0 -8.17919e-05)
(0.0747293 -9.76859e-26 -8.3889e-05)
(0.0747154 0 -8.45531e-05)
(0.0746988 8.32077e-26 -8.48239e-05)
(0.0746839 1.14824e-30 -8.76857e-05)
(0.0746672 9.02613e-31 -8.92276e-05)
(0.0746517 0 -8.94088e-05)
(0.0746336 -8.8205e-26 -9.02911e-05)
(0.0746173 0 -9.09727e-05)
(0.0745975 5.6408e-31 -9.1273e-05)
(0.0745802 0 -9.23262e-05)
(0.0745586 0 -9.20492e-05)
(0.0745406 -9.33474e-26 -9.34311e-05)
(0.0745181 -7.3507e-26 -9.29949e-05)
(0.0744998 0 -9.43365e-05)
(0.0744765 0 -9.27098e-05)
(0.0744578 -1.45946e-30 -9.76758e-05)
(0.0744352 0 -9.47997e-05)
(0.0744149 0 -9.85417e-05)
(0.0743928 0 -9.70214e-05)
(0.0743709 -8.62156e-31 -9.87819e-05)
(0.0743486 -1.05262e-30 -0.000101151)
(0.0743268 0 -0.000100801)
(0.0743033 5.02232e-31 -0.000101119)
(0.074281 -9.41651e-31 -0.000103215)
(0.0742578 0 -0.000104725)
(0.0742354 7.87294e-26 -0.000103821)
(0.0742111 7.15135e-26 -0.000103236)
(0.0741882 0 -0.000104231)
(0.0741642 -8.1493e-26 -0.00010369)
(0.0741412 7.33442e-31 -0.000105018)
(0.0741179 2.03304e-31 -0.000102301)
(0.0740934 -6.64532e-26 -0.000100581)
(0.0740706 -8.57332e-26 -0.000101136)
(0.074047 4.99642e-26 -9.7001e-05)
(0.0740236 2.08927e-33 -9.60264e-05)
(0.0740009 0 -9.2133e-05)
(0.0739773 0 -8.99998e-05)
(0.0739557 2.9521e-26 -8.73552e-05)
(0.0739325 8.99462e-27 -8.13693e-05)
(0.0739104 0 -8.01294e-05)
(0.073889 8.82948e-31 -7.66256e-05)
(0.0738668 -2.56931e-26 -7.21283e-05)
(0.0738455 2.37603e-26 -6.90837e-05)
(0.0738235 0 -6.50883e-05)
(0.0738026 7.61328e-31 -6.29735e-05)
(0.0737816 0 -5.75439e-05)
(0.0737606 6.26857e-26 -5.42998e-05)
(0.0737403 0 -5.17786e-05)
(0.0737209 0 -5.02735e-05)
(0.0737022 6.26396e-31 -4.59814e-05)
(0.0736833 4.33977e-31 -4.34667e-05)
(0.0736665 0 -4.30693e-05)
(0.0736507 0 -3.90222e-05)
(0.0736356 2.30405e-26 -3.70574e-05)
(0.0736229 -1.74707e-26 -3.75884e-05)
(0.0736114 -4.76357e-31 -3.39054e-05)
(0.0736007 -2.89952e-31 -3.25861e-05)
(0.0735923 7.14683e-32 -3.27215e-05)
(0.0735848 1.28745e-26 -3.30185e-05)
(0.0735794 2.55698e-31 -3.09453e-05)
(0.0735736 0 -3.01392e-05)
(0.0735706 1.28839e-31 -3.20001e-05)
(0.0735676 -3.00354e-31 -2.95758e-05)
(0.0735649 -1.23497e-31 -2.92769e-05)
(0.0735634 0 -3.07614e-05)
(0.0735621 0 -2.90521e-05)
(0.0735603 0 -2.99508e-05)
(0.0735595 0 -2.87068e-05)
(0.073557 0 -2.92177e-05)
(0.073557 -9.12152e-32 -2.90465e-05)
(0.0735539 -3.17804e-26 -2.87739e-05)
(0.0735546 0 -2.9789e-05)
(0.0735512 0 -2.94052e-05)
(0.0735527 -1.66843e-26 -3.19781e-05)
(0.0735496 0 -2.8427e-05)
(0.0735506 1.48191e-26 -3.27293e-05)
(0.0735498 0 -3.14992e-05)
(0.0735514 -2.95766e-26 -3.13281e-05)
(0.0735514 -1.0196e-31 -3.25929e-05)
(0.073555 0 -3.44887e-05)
(0.0735564 0 -3.28095e-05)
(0.0735605 0 -3.31061e-05)
(0.0735624 -3.01497e-32 -3.39698e-05)
(0.0735687 0 -3.64516e-05)
(0.0735713 0 -3.42833e-05)
(0.0735772 0 -3.5086e-05)
(0.0735795 0 -3.53482e-05)
(0.0735863 -1.7953e-31 -3.79822e-05)
(0.0735885 5.18027e-31 -3.43455e-05)
(0.0735938 0 -3.886e-05)
(0.073597 0 -3.75075e-05)
(0.0736015 0 -3.6932e-05)
(0.0736036 0 -3.80324e-05)
(0.073609 8.38391e-33 -3.86871e-05)
(0.0736109 9.45852e-27 -3.90512e-05)
(0.0736175 -4.31277e-28 -4.16789e-05)
(0.0736199 -5.23781e-31 -3.78444e-05)
(0.0736262 4.94981e-31 -4.22689e-05)
(0.073631 -2.46572e-31 -4.01315e-05)
(0.0736379 4.31025e-31 -4.3589e-05)
(0.0736456 0 -4.36519e-05)
(0.0736539 0 -4.20634e-05)
(0.0736627 1.62674e-31 -4.36413e-05)
(0.0736735 4.65718e-31 -4.74049e-05)
(0.073685 0 -4.65871e-05)
(0.0736961 0 -4.83054e-05)
(0.0737089 0 -5.27625e-05)
(0.0737215 -2.07646e-27 -5.17489e-05)
(0.0737331 -5.69132e-27 -5.33433e-05)
(0.0737456 0 -5.60658e-05)
(0.0737567 -4.6735e-31 -5.76622e-05)
(0.0737679 0 -6.01473e-05)
(0.073777 0 -6.1701e-05)
(0.0737852 0 -6.38663e-05)
(0.0737908 -3.69257e-27 -6.51246e-05)
(0.0737947 0 -6.67892e-05)
(0.0737959 -7.62766e-28 -6.7665e-05)
(0.0737953 0 -6.84956e-05)
(0.0737922 0 -6.72575e-05)
(0.0737875 0 -7.1066e-05)
(0.0737829 0 -7.25697e-05)
(0.073775 0 -7.20282e-05)
(0.0737666 3.60021e-31 -7.29428e-05)
(0.0737557 0 -7.21347e-05)
(0.0737443 0 -7.11067e-05)
(0.0737307 0 -7.34242e-05)
(0.0737195 6.3494e-26 -7.51937e-05)
(0.0737049 -1.85794e-31 -7.29745e-05)
(0.0736926 -2.66477e-32 -7.23414e-05)
(0.0736773 0 -7.35296e-05)
(0.0736668 0 -7.52465e-05)
(0.0736517 0 -6.97661e-05)
(0.073641 -1.24627e-30 -7.39845e-05)
(0.0736295 0 -7.13983e-05)
(0.0736202 7.26025e-26 -6.88221e-05)
(0.0736101 0 -6.90269e-05)
(0.073605 9.64356e-26 -6.86031e-05)
(0.0735976 0 -6.25898e-05)
(0.0735938 0 -6.45365e-05)
(0.0735907 -4.83079e-31 -6.14536e-05)
(0.0735885 0 -5.71036e-05)
(0.0735856 0 -5.69373e-05)
(0.0735852 0 -5.55693e-05)
(0.0735817 0 -4.92003e-05)
(0.0735788 -7.2249e-32 -4.98166e-05)
(0.0735755 3.86154e-27 -4.57806e-05)
(0.07357 0 -4.49314e-05)
(0.0735661 1.85168e-27 -4.32102e-05)
(0.073558 0 -3.62333e-05)
(0.073551 5.76429e-32 -3.70242e-05)
(0.0735417 0 -3.27343e-05)
(0.0735314 0 -2.83977e-05)
(0.0735184 -1.96383e-26 -2.11169e-05)
(0.0735046 0 -1.88977e-05)
(0.0734904 3.55047e-31 -1.3456e-05)
(0.0734746 -1.70543e-31 -4.77351e-06)
(0.0734576 0 1.1611e-06)
(0.0734435 0 1.10517e-05)
(0.0734332 0 1.99105e-05)
(0.0734261 -7.6481e-26 2.98471e-05)
(0.0734207 0 3.2941e-05)
(0.0734166 7.60398e-26 4.30519e-05)
(0.0734165 -1.58222e-30 5.19582e-05)
(0.0734169 -1.4007e-25 5.57975e-05)
(0.0734183 0 6.6516e-05)
(0.0734244 -1.94459e-25 7.52505e-05)
(0.0734283 0 8.1258e-05)
(0.0734368 0 8.88302e-05)
(0.0734423 0 0.000101)
(0.0734556 4.04861e-25 0.000107394)
(0.0734605 -5.58034e-25 0.000117299)
(0.0734789 -3.46295e-25 0.000130359)
(0.0734858 -4.56787e-25 0.000125314)
(0.0734999 0 0.000164655)
(0.0735259 3.41744e-29 0.000114547)
(0.073505 2.21425e-24 0.000238987)
(0.0736097 0 5.04975e-05)
(0.0734531 -6.50329e-24 0.000411913)
(0.073812 -3.41045e-24 -0.000129948)
(0.0733309 -3.10947e-23 0.000707762)
(0.074218 0 -0.000489415)
(0.0732194 1.05844e-22 0.00102044)
(0.0748166 0 -0.0010502)
(0.0731282 1.51536e-22 0.00124079)
(0.075527 0 -0.00182176)
(0.0730783 0 0.00119785)
(0.0761745 0 -0.002752)
(0.0731077 0 0.000662318)
(0.0764431 -3.74695e-26 -0.00367401)
(0.0732799 0 -0.000542866)
(0.0766233 0 -0.00514499)
(0.0736555 -1.69407e-24 -0.00298766)
(0.0771583 -4.86425e-21 -0.00903231)
(0.0739915 0 -0.00962339)
(0.0769362 -3.79219e-25 -0.0221837)
(0.0683552 4.01511e-19 -0.034738)
(0.0324548 -5.05589e-26 -6.48024e-05)
(0.0324555 5.66911e-24 -6.49466e-05)
(0.0324501 0 -6.49716e-05)
(0.0324482 5.23548e-23 -6.47894e-05)
(0 0 0)
(0 0 0)
(0 0 0)
(0 0 0)
(0 0 0)
(0 0 0)
)
;

boundaryField
{
    inlet
    {
        type            calculated;
        value           uniform (0 0 0);
    }
    endWall
    {
        type            calculated;
        value           uniform (0 0 0);
    }
    sideWall
    {
        type            empty;
    }
}


// ************************************************************************* //
