/*--------------------------------*- C++ -*----------------------------------*\
| =========                 |                                                 |
| \\      /  F ield         | foam-extend: Open Source CFD                    |
|  \\    /   O peration     | Version:     3.2                                |
|   \\  /    A nd           | Web:         http://www.foam-extend.org         |
|    \\/     M anipulation  | For copyright notice see file Copyright         |
\*---------------------------------------------------------------------------*/
FoamFile
{
    version     2.0;
    format      ascii;
    class       areaScalarField;
    location    "840";
    object      Uf;
}
// * * * * * * * * * * * * * * * * * * * * * * * * * * * * * * * * * * * * * //

dimensions      [0 1 -1 0 0 0 0];

internalField   nonuniform List<scalar> 
550
(
0.00697957
0.00816751
0.0093977
0.010643
0.0118705
0.0130469
0.014146
0.0151431
0.0160246
0.0167906
0.0174137
0.0179424
0.0183432
0.0186447
0.0188204
0.018896
0.0189276
0.0188681
0.0187175
0.0186801
0.0184947
0.0182827
0.0181673
0.0179373
0.0177679
0.0176733
0.0176314
0.0175483
0.0174487
0.0173658
0.0172336
0.0171051
0.0169416
0.0167724
0.0167057
0.0166854
0.0165783
0.016391
0.0162128
0.0160795
0.015991
0.0159936
0.0160475
0.0160296
0.0159519
0.0158521
0.0157146
0.0156337
0.0156273
0.015634
0.0156032
0.0155392
0.0154645
0.0153999
0.0153688
0.0153661
0.0153951
0.015435
0.015478
0.0155131
0.0155277
0.0155231
0.0155129
0.0154963
0.0154813
0.0154703
0.0154658
0.0154699
0.0154789
0.0154879
0.0154929
0.0154941
0.0154921
0.0154928
0.0154939
0.0154968
0.0154972
0.0155004
0.0155064
0.0155105
0.0155128
0.0155176
0.0155197
0.0155174
0.0155096
0.0155002
0.015491
0.0154858
0.0154755
0.0154577
0.0154383
0.0154313
0.0154288
0.015429
0.0154297
0.0154314
0.0154334
0.0154375
0.0154428
0.0154505
0.0154587
0.0154676
0.0154756
0.0154837
0.0154907
0.0154974
0.0155028
0.0155079
0.0155119
0.0155161
0.01552
0.0155247
0.0155292
0.0155347
0.01554
0.0155461
0.0155517
0.0155576
0.0155627
0.0155679
0.0155724
0.0155767
0.0155801
0.0155836
0.0155866
0.01559
0.015593
0.0155965
0.0155997
0.0156031
0.0156064
0.0156099
0.0156133
0.015617
0.0156206
0.0156245
0.0156283
0.0156321
0.0156358
0.0156394
0.0156426
0.0156456
0.0156483
0.0156507
0.0156529
0.0156549
0.0156569
0.0156588
0.0156609
0.0156628
0.0156647
0.0156666
0.0156684
0.01567
0.0156716
0.0156729
0.0156741
0.015675
0.0156759
0.0156764
0.0156769
0.015677
0.0156774
0.0156773
0.0156774
0.0156771
0.0156769
0.0156763
0.0156758
0.0156748
0.0156741
0.0156729
0.0156721
0.0156707
0.0156698
0.0156685
0.0156678
0.0156666
0.0156659
0.0156649
0.0156643
0.0156632
0.0156626
0.0156613
0.0156608
0.0156591
0.0156588
0.0156565
0.0156564
0.0156542
0.0156543
0.0156523
0.0156526
0.0156507
0.0156513
0.0156496
0.0156503
0.0156487
0.0156496
0.015648
0.0156487
0.0156471
0.0156476
0.015646
0.015646
0.0156443
0.0156436
0.0156419
0.0156401
0.0156385
0.0156354
0.0156338
0.0156294
0.0156279
0.015622
0.0156203
0.0156138
0.0156118
0.0156057
0.0156034
0.0155979
0.0155954
0.0155902
0.0155876
0.0155829
0.0155801
0.0155757
0.0155728
0.0155686
0.0155656
0.0155614
0.0155583
0.0155544
0.0155511
0.0155476
0.0155442
0.0155408
0.0155374
0.0155341
0.0155307
0.0155274
0.0155242
0.015521
0.0155179
0.0155148
0.0155119
0.0155089
0.015506
0.0155032
0.0155004
0.0154977
0.0154952
0.0154926
0.0154902
0.0154879
0.0154856
0.0154834
0.0154813
0.0154794
0.0154776
0.015476
0.0154744
0.0154731
0.0154718
0.0154707
0.0154697
0.0154689
0.0154683
0.0154678
0.0154673
0.0154671
0.0154668
0.0154667
0.0154667
0.0154668
0.015467
0.0154672
0.0154674
0.0154677
0.0154681
0.0154685
0.015469
0.0154695
0.0154702
0.0154708
0.0154715
0.0154722
0.015473
0.0154738
0.0154747
0.0154755
0.0154764
0.0154772
0.0154781
0.0154789
0.0154797
0.0154804
0.0154811
0.0154817
0.0154822
0.0154826
0.015483
0.0154832
0.0154834
0.0154836
0.0154836
0.0154837
0.0154837
0.0154837
0.0154836
0.0154835
0.0154834
0.0154832
0.015483
0.0154827
0.0154824
0.015482
0.0154816
0.0154811
0.0154805
0.0154798
0.0154791
0.0154783
0.0154774
0.0154765
0.0154755
0.0154745
0.0154733
0.015472
0.0154707
0.0154693
0.0154677
0.015466
0.0154643
0.0154625
0.0154606
0.0154587
0.0154566
0.0154545
0.0154523
0.0154501
0.0154477
0.0154453
0.0154428
0.0154402
0.0154375
0.0154349
0.0154321
0.0154293
0.0154265
0.0154236
0.0154207
0.0154178
0.0154148
0.0154119
0.0154089
0.0154059
0.0154029
0.0154
0.015397
0.015394
0.015391
0.015388
0.015385
0.0153819
0.0153788
0.0153757
0.0153725
0.0153693
0.0153661
0.0153629
0.0153598
0.0153567
0.0153536
0.0153505
0.0153475
0.0153446
0.0153418
0.0153392
0.0153366
0.0153343
0.0153321
0.0153301
0.0153283
0.0153266
0.0153251
0.0153237
0.0153225
0.0153214
0.0153204
0.0153197
0.0153191
0.0153186
0.0153182
0.015318
0.0153179
0.015318
0.0153183
0.0153187
0.0153192
0.01532
0.0153209
0.0153218
0.0153229
0.0153241
0.0153253
0.0153266
0.015328
0.0153294
0.0153307
0.0153322
0.0153336
0.015335
0.0153364
0.0153379
0.0153393
0.0153408
0.0153422
0.0153437
0.0153453
0.0153468
0.0153485
0.0153502
0.0153518
0.0153536
0.0153554
0.0153573
0.0153591
0.0153609
0.0153628
0.0153647
0.0153665
0.0153683
0.0153701
0.0153718
0.0153736
0.0153753
0.015377
0.0153788
0.0153804
0.0153822
0.015384
0.0153858
0.0153878
0.0153896
0.0153917
0.0153938
0.0153959
0.0153981
0.0154002
0.0154023
0.0154042
0.0154061
0.0154079
0.0154095
0.015411
0.0154121
0.0154131
0.0154137
0.015414
0.0154141
0.0154138
0.0154134
0.0154128
0.0154119
0.0154108
0.0154095
0.015408
0.0154064
0.0154047
0.0154029
0.0154009
0.015399
0.015397
0.0153949
0.015393
0.0153911
0.0153891
0.0153874
0.0153858
0.0153842
0.015383
0.0153818
0.0153807
0.0153799
0.0153791
0.0153782
0.0153774
0.0153766
0.0153758
0.0153749
0.0153738
0.0153728
0.0153718
0.0153705
0.0153691
0.0153679
0.0153666
0.0153652
0.015364
0.0153629
0.0153621
0.0153616
0.0153616
0.0153617
0.0153621
0.0153628
0.0153637
0.0153648
0.0153664
0.015368
0.0153699
0.015372
0.0153746
0.0153767
0.0153806
0.015382
0.0153879
0.0153876
0.0153974
0.0153935
0.0154097
0.0154017
0.0154256
0.0154156
0.0154438
0.0154324
0.0154566
0.0154439
0.0154513
0.0154367
0.0154118
0.0153917
0.0153316
0.0152952
0.015176
0.0150638
0.0147138
0.0141227
0.0117385
0.00810685
0.00925463
0.00776967
0.00752017
0.00666074
0.00626813
0.00535117
0.00559004
0.00686022
0.00877728
)
;

boundaryField
{
    inlet
    {
        type            calculated;
        value           uniform 0;
    }
    endWall
    {
        type            calculated;
        value           uniform 0;
    }
    sideWall
    {
        type            empty;
    }
}


// ************************************************************************* //
