/*--------------------------------*- C++ -*----------------------------------*\
| =========                 |                                                 |
| \\      /  F ield         | foam-extend: Open Source CFD                    |
|  \\    /   O peration     | Version:     3.2                                |
|   \\  /    A nd           | Web:         http://www.foam-extend.org         |
|    \\/     M anipulation  | For copyright notice see file Copyright         |
\*---------------------------------------------------------------------------*/
FoamFile
{
    version     2.0;
    format      ascii;
    class       areaScalarField;
    location    "840";
    object      Uf2;
}
// * * * * * * * * * * * * * * * * * * * * * * * * * * * * * * * * * * * * * //

dimensions      [0 1 -1 0 0 0 0];

internalField   nonuniform List<scalar> 
550
(
0.0358005
0.0354216
0.0348178
0.034161
0.033509
0.032837
0.0322266
0.0316049
0.0310262
0.0305443
0.0298203
0.029525
0.0288953
0.0283208
0.0278696
0.0274219
0.0271525
0.0266364
0.0260128
0.0261214
0.025132
0.024891
0.0253617
0.0240516
0.0242727
0.0245022
0.0243558
0.0237184
0.0235717
0.0236752
0.0230341
0.0231273
0.0228833
0.0217864
0.0215694
0.0223813
0.0228255
0.0226434
0.0221393
0.0213457
0.0205
0.020362
0.0209004
0.0211967
0.0214829
0.0215769
0.021014
0.0205567
0.0203843
0.020465
0.0205423
0.0205494
0.0206043
0.0205931
0.0206074
0.0205378
0.0205656
0.0205939
0.0206823
0.0207686
0.0207896
0.0207924
0.020836
0.0208022
0.0207703
0.0207061
0.0206516
0.0206299
0.0206173
0.0206064
0.0205957
0.0205982
0.0206087
0.0206487
0.0206602
0.0206651
0.0206289
0.02063
0.0206424
0.0206323
0.0206306
0.0206664
0.0206677
0.0206451
0.0206003
0.0205725
0.0205517
0.0205635
0.0205055
0.0204221
0.0203752
0.0204461
0.0204733
0.0204929
0.0204986
0.020506
0.0205085
0.0205253
0.0205392
0.0205661
0.0205842
0.0206082
0.0206237
0.0206479
0.0206658
0.0206883
0.0207024
0.0207176
0.0207253
0.0207354
0.0207393
0.0207501
0.020755
0.0207687
0.0207772
0.0207939
0.0208047
0.0208199
0.0208295
0.020844
0.0208523
0.0208623
0.0208673
0.0208758
0.0208809
0.0208907
0.0208962
0.0209053
0.0209106
0.020918
0.0209226
0.0209289
0.0209331
0.020939
0.0209434
0.0209494
0.0209541
0.0209604
0.0209651
0.020971
0.0209757
0.02098
0.0209836
0.0209849
0.0209874
0.0209871
0.0209886
0.0209873
0.0209883
0.0209866
0.0209869
0.0209854
0.0209855
0.0209834
0.0209832
0.0209806
0.0209794
0.0209755
0.0209741
0.0209688
0.0209675
0.0209612
0.0209602
0.0209534
0.0209522
0.0209448
0.0209429
0.0209355
0.0209333
0.0209249
0.0209228
0.0209138
0.0209109
0.020901
0.0208978
0.0208882
0.0208851
0.0208756
0.0208725
0.0208636
0.0208614
0.0208526
0.0208513
0.0208414
0.0208429
0.0208293
0.0208351
0.020816
0.0208265
0.0208049
0.0208166
0.0207943
0.0208054
0.0207826
0.0207936
0.0207709
0.0207822
0.0207593
0.0207702
0.0207469
0.0207568
0.0207338
0.0207422
0.0207209
0.020725
0.0207069
0.0207055
0.0206911
0.0206815
0.0206747
0.0206535
0.0206547
0.0206227
0.020634
0.0205903
0.0206097
0.0205622
0.0205833
0.0205407
0.0205573
0.020522
0.0205332
0.0205022
0.0205099
0.0204837
0.0204881
0.0204654
0.0204677
0.0204482
0.0204475
0.0204298
0.0204272
0.0204131
0.020407
0.0203975
0.020389
0.0203816
0.0203726
0.0203663
0.0203575
0.0203507
0.0203434
0.0203362
0.0203299
0.0203242
0.0203186
0.0203123
0.0203072
0.0203019
0.0202968
0.0202918
0.0202878
0.0202836
0.0202802
0.0202766
0.0202734
0.0202695
0.0202667
0.0202638
0.0202612
0.0202591
0.0202573
0.0202559
0.0202543
0.0202534
0.020253
0.0202524
0.0202523
0.0202529
0.0202535
0.0202547
0.0202556
0.0202572
0.0202598
0.0202618
0.020264
0.0202665
0.0202687
0.0202716
0.0202753
0.0202782
0.020281
0.0202841
0.020288
0.0202905
0.0202942
0.0202971
0.0203008
0.020304
0.0203074
0.0203105
0.0203138
0.0203171
0.0203202
0.0203236
0.020327
0.0203306
0.0203339
0.0203371
0.0203399
0.0203428
0.0203453
0.0203478
0.02035
0.0203521
0.0203536
0.0203559
0.0203569
0.0203583
0.0203598
0.0203609
0.020362
0.0203627
0.0203638
0.0203636
0.0203634
0.0203636
0.0203633
0.0203625
0.0203611
0.0203598
0.0203588
0.020357
0.0203553
0.020353
0.020351
0.0203488
0.0203465
0.0203443
0.0203424
0.0203396
0.0203362
0.0203331
0.0203302
0.0203269
0.0203234
0.02032
0.0203163
0.0203126
0.0203088
0.0203055
0.020301
0.0202969
0.020293
0.0202882
0.0202838
0.0202796
0.0202749
0.0202699
0.0202652
0.0202607
0.0202562
0.0202517
0.0202472
0.0202427
0.020238
0.0202333
0.0202289
0.0202251
0.0202204
0.0202161
0.0202118
0.0202074
0.0202035
0.0201985
0.0201939
0.0201896
0.0201849
0.0201798
0.0201751
0.0201707
0.020166
0.0201613
0.0201561
0.0201512
0.020147
0.0201422
0.0201381
0.0201343
0.0201309
0.0201279
0.0201248
0.0201231
0.0201214
0.0201199
0.0201193
0.020119
0.020119
0.020119
0.0201194
0.0201208
0.020122
0.020123
0.0201245
0.0201263
0.0201272
0.0201289
0.0201309
0.0201318
0.0201337
0.020136
0.0201376
0.0201386
0.0201402
0.020142
0.0201429
0.0201444
0.0201468
0.0201486
0.0201507
0.020153
0.0201554
0.020158
0.0201604
0.0201633
0.0201659
0.0201689
0.0201711
0.0201741
0.0201767
0.0201788
0.0201819
0.0201845
0.0201866
0.020189
0.0201919
0.0201944
0.0201963
0.0201986
0.0202013
0.0202037
0.0202052
0.0202079
0.02021
0.0202114
0.0202138
0.0202153
0.0202165
0.0202181
0.0202182
0.0202199
0.020221
0.0202216
0.0202225
0.0202221
0.0202231
0.0202243
0.0202242
0.0202245
0.0202256
0.0202252
0.0202253
0.020226
0.020226
0.0202261
0.0202264
0.0202266
0.0202269
0.0202272
0.0202273
0.0202271
0.0202266
0.0202267
0.0202258
0.0202242
0.020223
0.0202214
0.0202198
0.0202187
0.0202167
0.0202137
0.020211
0.0202089
0.0202058
0.0202018
0.0201991
0.0201953
0.0201907
0.0201873
0.0201832
0.0201787
0.0201756
0.0201723
0.0201685
0.0201667
0.0201647
0.0201624
0.0201619
0.0201613
0.0201606
0.0201607
0.0201595
0.0201605
0.0201615
0.0201612
0.0201625
0.0201646
0.0201666
0.0201667
0.020169
0.0201717
0.0201752
0.0201802
0.0201869
0.0201914
0.0201973
0.0202043
0.0202097
0.0202167
0.0202249
0.0202323
0.0202398
0.0202484
0.0202589
0.0202634
0.0202858
0.020274
0.020319
0.0202793
0.0203681
0.0202713
0.0204391
0.0202627
0.0205233
0.0202783
0.0205877
0.0203023
0.0205888
0.0203178
0.020472
0.0202982
0.0201973
0.0201917
0.0198475
0.0199533
0.0192761
0.0191965
0.0173141
0.0155205
0.00500913
0.0016125
0.00453421
0.00159789
0.00314432
0.00048228
0.000422713
0.00106848
0.00209592
0.00330749
0.00380221
)
;

boundaryField
{
    inlet
    {
        type            calculated;
        value           uniform 0;
    }
    endWall
    {
        type            calculated;
        value           uniform 0;
    }
    sideWall
    {
        type            empty;
    }
}


// ************************************************************************* //
