/*--------------------------------*- C++ -*----------------------------------*\
| =========                 |                                                 |
| \\      /  F ield         | foam-extend: Open Source CFD                    |
|  \\    /   O peration     | Version:     3.2                                |
|   \\  /    A nd           | Web:         http://www.foam-extend.org         |
|    \\/     M anipulation  | For copyright notice see file Copyright         |
\*---------------------------------------------------------------------------*/
FoamFile
{
    version     2.0;
    format      ascii;
    class       areaVectorField;
    location    "840";
    object      uNormal;
}
// * * * * * * * * * * * * * * * * * * * * * * * * * * * * * * * * * * * * * //

dimensions      [0 0 0 0 0 0 0];

internalField   nonuniform List<vector> 
550
(
(0.002 0 0.999998)
(0.002 0 0.999998)
(0.00199999 7.27914e-20 0.999998)
(0.00200002 -7.27918e-20 0.999998)
(0.00199996 -7.27918e-20 0.999998)
(0.00200001 0 0.999998)
(0.00199994 7.2791e-20 0.999998)
(0.002 7.2791e-20 0.999998)
(0.00200011 0 0.999998)
(0.00199994 0 0.999998)
(0.00483865 0 0.999988)
(-0.00435703 -1.45581e-19 0.999991)
(0.0089494 0 0.99996)
(-0.00362186 0 0.999993)
(0.00681902 0 0.999977)
(-0.00447834 1.45581e-19 0.99999)
(0.00284768 7.27909e-20 0.999996)
(0.00399419 0 0.999992)
(0.00136132 -3.63955e-20 0.999999)
(-0.00572293 0 0.999984)
(0.0199073 5.82214e-19 0.999802)
(-0.0207057 0 0.999786)
(0.0088424 0 0.999961)
(0.00501178 0 0.999987)
(-0.0162441 -5.82285e-19 0.999868)
(-0.00911993 -2.91153e-19 0.999958)
(-0.0026922 0 0.999996)
(0.00615626 0 0.999981)
(-0.00693365 0 0.999976)
(0.00569704 0 0.999984)
(0.00873288 0 0.999962)
(-0.000695883 -1.81978e-20 1)
(0.0144797 0 0.999895)
(0.0106391 -2.91148e-19 0.999943)
(-0.00944992 0 0.999955)
(-0.0077708 2.91172e-19 0.99997)
(0.00709472 0 0.999975)
(0.00590302 0 0.999983)
(0.00788049 2.91156e-19 0.999969)
(0.00978451 0 0.999952)
(0.00678137 0 0.999977)
(-0.00725907 2.91173e-19 0.999974)
(-0.00679825 0 0.999977)
(0.00243675 -7.27909e-20 0.999997)
(-0.00217366 0 0.999998)
(0.00288838 0 0.999996)
(0.00761274 0 0.999971)
(-0.0015977 7.27911e-20 0.999999)
(-0.0022575 0 0.999997)
(-0.00279031 0 0.999996)
(0.0032758 1.45582e-19 0.999995)
(-0.00309813 0 0.999995)
(-0.00559845 1.45588e-19 0.999984)
(-0.011452 2.91146e-19 0.999934)
(-0.0100672 0 0.999949)
(-0.00960647 0 0.999954)
(-0.00877264 0 0.999962)
(-0.00705775 -2.91029e-19 0.999975)
(-0.00793571 -5.82375e-19 0.999969)
(-0.00643533 0 0.999979)
(-0.00542471 -1.45596e-19 0.999985)
(-0.00535955 0 0.999986)
(-0.00685582 0 0.999976)
(-0.00540354 -1.45516e-19 0.999985)
(-0.00610143 2.91191e-19 0.999981)
(-0.00489179 0 0.999988)
(-0.00524612 0 0.999986)
(-0.00470204 0 0.999989)
(-0.0044841 0 0.99999)
(-0.0033824 -1.45598e-19 0.999994)
(-0.00355382 0 0.999994)
(-0.00363362 -1.45597e-19 0.999993)
(-0.00460329 0 0.999989)
(-0.00533146 0 0.999986)
(-0.00479107 1.45517e-19 0.999989)
(-0.00448746 0 0.99999)
(-0.00343894 1.45597e-19 0.999994)
(-0.00456709 1.45597e-19 0.99999)
(-0.00356522 0 0.999994)
(-0.00346437 0 0.999994)
(-0.00315679 0 0.999995)
(-0.00394618 1.45597e-19 0.999992)
(-0.0017339 0 0.999998)
(-0.0018255 0 0.999998)
(-0.000657403 0 1)
(-0.00138496 0 0.999999)
(-0.00121011 0 0.999999)
(-0.00180612 0 0.999998)
(0.000378557 0 1)
(0.000279558 0 1)
(-0.00188626 7.2759e-20 0.999998)
(-0.00443014 0 0.99999)
(-0.00389111 0 0.999992)
(-0.00413084 0 0.999991)
(-0.00370709 0 0.999993)
(-0.00427039 -1.45597e-19 0.999991)
(-0.00404015 0 0.999992)
(-0.00477408 0 0.999989)
(-0.00463638 1.45597e-19 0.999989)
(-0.00519038 0 0.999987)
(-0.00480939 0 0.999988)
(-0.00517784 -1.45516e-19 0.999987)
(-0.00480994 0 0.999988)
(-0.00524834 1.45596e-19 0.999986)
(-0.00489699 -1.45597e-19 0.999988)
(-0.00525712 1.45596e-19 0.999986)
(-0.00481917 0 0.999988)
(-0.00513172 0 0.999987)
(-0.00468501 1.45597e-19 0.999989)
(-0.00503984 -1.45596e-19 0.999987)
(-0.0046376 0 0.999989)
(-0.00504032 0 0.999987)
(-0.00466173 1.45517e-19 0.999989)
(-0.00508283 0 0.999987)
(-0.00467752 1.45597e-19 0.999989)
(-0.00508803 0 0.999987)
(-0.00461784 0 0.999989)
(-0.00496168 -1.45597e-19 0.999988)
(-0.00450931 0 0.99999)
(-0.00486168 0 0.999988)
(-0.00435872 0 0.999991)
(-0.00467503 1.45597e-19 0.999989)
(-0.00423034 1.45597e-19 0.999991)
(-0.00462474 0 0.999989)
(-0.00423458 0 0.999991)
(-0.00463406 0 0.999989)
(-0.00423204 1.45597e-19 0.999991)
(-0.00459983 -1.45597e-19 0.999989)
(-0.00419709 0 0.999991)
(-0.00454061 -1.45517e-19 0.99999)
(-0.00415022 0 0.999991)
(-0.00447344 0 0.99999)
(-0.00408781 0 0.999992)
(-0.00439373 0 0.99999)
(-0.00401966 0 0.999992)
(-0.00429644 0 0.999991)
(-0.0039443 -1.45597e-19 0.999992)
(-0.00418662 -1.45597e-19 0.999991)
(-0.00385611 1.45597e-19 0.999993)
(-0.00406664 0 0.999992)
(-0.00375308 1.45517e-19 0.999993)
(-0.00392314 1.45597e-19 0.999992)
(-0.00362928 0 0.999993)
(-0.00377878 1.45597e-19 0.999993)
(-0.00351571 0 0.999994)
(-0.0036209 -1.45517e-19 0.999993)
(-0.00338906 -1.45598e-19 0.999994)
(-0.00345569 -1.45597e-19 0.999994)
(-0.00325549 0 0.999995)
(-0.00328013 0 0.999995)
(-0.00311978 0 0.999995)
(-0.00310288 -1.45518e-19 0.999995)
(-0.00297829 0 0.999996)
(-0.00291879 1.45598e-19 0.999996)
(-0.0028329 0 0.999996)
(-0.00272879 0 0.999996)
(-0.00267815 -7.27589e-20 0.999996)
(-0.00253352 7.27989e-20 0.999997)
(-0.00253907 0 0.999997)
(-0.00234238 7.2799e-20 0.999997)
(-0.002386 0 0.999997)
(-0.00215688 0 0.999998)
(-0.00225616 0 0.999997)
(-0.00197999 0 0.999998)
(-0.00211834 7.2799e-20 0.999998)
(-0.00178855 0 0.999998)
(-0.00198134 -7.2799e-20 0.999998)
(-0.00161709 7.27591e-20 0.999999)
(-0.00184231 0 0.999998)
(-0.00144116 -3.63995e-20 0.999999)
(-0.00172273 0 0.999999)
(-0.00126889 0 0.999999)
(-0.00158572 0 0.999999)
(-0.00109547 0 0.999999)
(-0.00146355 0 0.999999)
(-0.000945403 0 1)
(-0.00134622 0 0.999999)
(-0.000775721 -3.63996e-20 1)
(-0.00122927 -3.63795e-20 0.999999)
(-0.000623463 0 1)
(-0.00113927 3.63996e-20 0.999999)
(-0.000463262 0 1)
(-0.00106326 0 0.999999)
(-0.000318705 0 1)
(-0.00102861 0 0.999999)
(-0.000143655 0 1)
(-0.00107996 0 0.999999)
(0.000101924 0 1)
(-0.00127399 0 0.999999)
(0.000446729 0 1)
(-0.0014753 0 0.999999)
(0.000847604 0 1)
(-0.00165005 0 0.999999)
(0.00125916 0 0.999999)
(-0.001831 7.27991e-20 0.999998)
(0.00167539 0 0.999999)
(-0.00200429 0 0.999998)
(0.00211506 0 0.999998)
(-0.00216547 0 0.999998)
(0.00258824 0 0.999997)
(-0.00231976 0 0.999997)
(0.003064 0 0.999995)
(-0.00246116 0 0.999997)
(0.00356211 0 0.999994)
(-0.00252432 -7.27989e-20 0.999997)
(0.00403076 0 0.999992)
(-0.00249217 0 0.999997)
(0.00447749 0 0.99999)
(-0.00236749 0 0.999997)
(0.00481632 0 0.999988)
(-0.00203484 -7.2799e-20 0.999998)
(0.00499254 -1.45516e-19 0.999988)
(-0.00157576 0 0.999999)
(0.00496084 -1.45597e-19 0.999988)
(-0.000927521 0 1)
(0.00461625 -1.45597e-19 0.999989)
(-0.000243564 0 1)
(0.00412417 0 0.999991)
(0.000369031 0 1)
(0.00372988 0 0.999993)
(0.000856243 0 1)
(0.00347141 0 0.999994)
(0.00125638 0 0.999999)
(0.00323506 -1.45598e-19 0.999995)
(0.00156592 0 0.999999)
(0.00306759 0 0.999995)
(0.00179257 0 0.999998)
(0.00292545 0 0.999996)
(0.001985 -7.2759e-20 0.999998)
(0.002878 0 0.999996)
(0.00214346 0 0.999998)
(0.0028255 0 0.999996)
(0.00228274 -7.2799e-20 0.999997)
(0.00282393 0 0.999996)
(0.00239254 0 0.999997)
(0.00279593 0 0.999996)
(0.00246314 0 0.999997)
(0.00275258 0 0.999996)
(0.00248893 0 0.999997)
(0.00272789 0 0.999996)
(0.00251453 -7.27989e-20 0.999997)
(0.00265911 -7.27989e-20 0.999996)
(0.00254881 0 0.999997)
(0.00262071 0 0.999997)
(0.00251577 0 0.999997)
(0.00258825 0 0.999997)
(0.0025253 0 0.999997)
(0.00254799 0 0.999997)
(0.00247943 0 0.999997)
(0.00252617 0 0.999997)
(0.00244963 0 0.999997)
(0.0024702 0 0.999997)
(0.00241229 0 0.999997)
(0.00241049 -7.2799e-20 0.999997)
(0.00236582 0 0.999997)
(0.00234725 0 0.999997)
(0.00232137 0 0.999997)
(0.00225501 0 0.999997)
(0.00224883 0 0.999997)
(0.00219793 0 0.999998)
(0.0021629 -7.2799e-20 0.999998)
(0.00210594 -7.2759e-20 0.999998)
(0.0020719 0 0.999998)
(0.00201937 0 0.999998)
(0.00196445 7.2799e-20 0.999998)
(0.00188741 0 0.999998)
(0.00187053 7.2759e-20 0.999998)
(0.00177638 0 0.999998)
(0.00174837 0 0.999998)
(0.00166312 0 0.999999)
(0.00162881 -7.27991e-20 0.999999)
(0.00156299 -7.27991e-20 0.999999)
(0.00150309 7.27591e-20 0.999999)
(0.0014206 0 0.999999)
(0.00138822 3.63996e-20 0.999999)
(0.00132898 -3.63996e-20 0.999999)
(0.00127284 3.63996e-20 0.999999)
(0.00122651 0 0.999999)
(0.00115071 0 0.999999)
(0.00107782 3.63996e-20 0.999999)
(0.00103964 0 0.999999)
(0.000984568 0 1)
(0.000927843 0 1)
(0.000851166 3.63796e-20 1)
(0.00084793 3.63996e-20 1)
(0.000759399 3.63996e-20 1)
(0.000746974 3.63996e-20 1)
(0.000677875 1.81998e-20 1)
(0.000658711 0 1)
(0.000607167 -1.81998e-20 1)
(0.000586023 -1.81998e-20 1)
(0.000544164 0 1)
(0.00052186 0 1)
(0.000494764 1.81998e-20 1)
(0.000474449 0 1)
(0.000454953 1.81998e-20 1)
(0.000434853 1.81998e-20 1)
(0.000428134 0 1)
(0.000412384 0 1)
(0.000411493 0 1)
(0.000394276 1.81998e-20 1)
(0.000402108 0 1)
(0.00038464 0 1)
(0.000399254 1.81998e-20 1)
(0.000381102 -1.81998e-20 1)
(0.000402794 0 1)
(0.000369409 0 1)
(0.000430418 0 1)
(0.000387961 -1.81998e-20 1)
(0.000432092 0 1)
(0.000409075 0 1)
(0.000440837 0 1)
(0.000433294 -1.81998e-20 1)
(0.000444671 0 1)
(0.00048303 0 1)
(0.000471199 0 1)
(0.000490603 0 1)
(0.000508859 0 1)
(0.000539411 0 1)
(0.000569004 1.81998e-20 1)
(0.000576112 -1.81998e-20 1)
(0.000577105 0 1)
(0.000616975 0 1)
(0.000615699 -1.81998e-20 1)
(0.000657201 0 1)
(0.000656112 0 1)
(0.000694828 0 1)
(0.000697209 -1.81898e-20 1)
(0.00073048 0 1)
(0.000719436 0 1)
(0.00078221 -3.63996e-20 1)
(0.000797282 0 1)
(0.000822457 0 1)
(0.00082415 0 1)
(0.000872015 0 1)
(0.000888525 0 1)
(0.000923858 0 1)
(0.000946331 0 1)
(0.000972951 0 1)
(0.000998492 0 1)
(0.0010037 0 0.999999)
(0.00107196 0 0.999999)
(0.00105631 0 0.999999)
(0.00109429 0 0.999999)
(0.00112257 3.63996e-20 0.999999)
(0.00113167 0 0.999999)
(0.00113555 -3.63996e-20 0.999999)
(0.00117409 0 0.999999)
(0.001195 0 0.999999)
(0.00119768 0 0.999999)
(0.00120979 3.63996e-20 0.999999)
(0.00121919 0 0.999999)
(0.00122354 0 0.999999)
(0.00123794 0 0.999999)
(0.00123459 0 0.999999)
(0.00125343 3.63996e-20 0.999999)
(0.00124795 3.63996e-20 0.999999)
(0.00126626 0 0.999999)
(0.00124482 0 0.999999)
(0.00131183 0 0.999999)
(0.00127359 0 0.999999)
(0.00132422 0 0.999999)
(0.00130418 0 0.999999)
(0.00132823 0 0.999999)
(0.0013605 0 0.999999)
(0.00135619 0 0.999999)
(0.0013609 0 0.999999)
(0.00138951 0 0.999999)
(0.00141029 0 0.999999)
(0.00139853 -3.63996e-20 0.999999)
(0.00139111 -3.63996e-20 0.999999)
(0.00140495 0 0.999999)
(0.00139811 3.63996e-20 0.999999)
(0.00141645 0 0.999999)
(0.00138025 0 0.999999)
(0.00135749 3.63996e-20 0.999999)
(0.0013654 3.63795e-20 0.999999)
(0.00130999 -3.63996e-20 0.999999)
(0.00129724 0 0.999999)
(0.00124502 0 0.999999)
(0.00121659 0 0.999999)
(0.00118118 -3.63996e-20 0.999999)
(0.00110059 3.63796e-20 0.999999)
(0.00108414 0 0.999999)
(0.00103704 0 0.999999)
(0.000976464 -3.63996e-20 1)
(0.000935515 3.63996e-20 1)
(0.000881674 0 1)
(0.000853269 0 1)
(0.000779922 0 1)
(0.000736163 3.63996e-20 1)
(0.000702175 0 1)
(0.000681944 0 1)
(0.000623881 0 1)
(0.000589912 0 1)
(0.000584653 0 1)
(0.000529828 0 1)
(0.000503255 1.81998e-20 1)
(0.000510553 -1.81898e-20 1)
(0.0004606 0 1)
(0.000442742 0 1)
(0.000444632 0 1)
(0.000448714 1.81998e-20 1)
(0.00042057 0 1)
(0.000409646 0 1)
(0.000434958 0 1)
(0.000402022 0 1)
(0.000397974 0 1)
(0.000418162 0 1)
(0.000394933 0 1)
(0.00040716 0 1)
(0.000390253 0 1)
(0.000397212 0 1)
(0.000394884 0 1)
(0.000391194 -1.81998e-20 1)
(0.000404992 0 1)
(0.000399792 0 1)
(0.000434765 -1.81998e-20 1)
(0.000386501 0 1)
(0.000444991 1.81998e-20 1)
(0.00042827 0 1)
(0.000425935 -1.81998e-20 1)
(0.000443131 0 1)
(0.000468882 0 1)
(0.000446046 0 1)
(0.000450053 0 1)
(0.000461781 0 1)
(0.000495477 0 1)
(0.000465987 0 1)
(0.00047686 0 1)
(0.000480409 0 1)
(0.000516158 0 1)
(0.000466724 0 1)
(0.000528034 0 1)
(0.000509633 0 1)
(0.000501783 0 1)
(0.000516719 0 1)
(0.000525576 0 1)
(0.000530508 1.81998e-20 1)
(0.000566154 -1.81998e-20 1)
(0.000514051 0 1)
(0.000574101 0 1)
(0.000545035 0 1)
(0.000591937 0 1)
(0.000592728 0 1)
(0.000571096 0 1)
(0.000592447 0 1)
(0.000643446 0 1)
(0.000632247 0 1)
(0.000655467 0 1)
(0.000715822 0 1)
(0.000701952 -1.81998e-20 1)
(0.000723465 -3.63996e-20 1)
(0.00076026 0 1)
(0.000781789 0 1)
(0.000815358 0 1)
(0.000836317 0 1)
(0.000865569 0 1)
(0.000882557 -3.63996e-20 1)
(0.000905066 0 1)
(0.000916921 3.63996e-20 1)
(0.000928183 0 1)
(0.000911445 0 1)
(0.000963116 0 1)
(0.000983557 0 1)
(0.000976323 0 1)
(0.000988832 0 1)
(0.000978021 0 1)
(0.000964232 0 1)
(0.000995842 0 1)
(0.00102 -3.63796e-20 0.999999)
(0.00099009 0 1)
(0.000981665 0 1)
(0.000997995 0 1)
(0.00102144 0 0.999999)
(0.000947242 0 1)
(0.00100466 0 0.999999)
(0.000969696 0 1)
(0.000934826 -3.63996e-20 1)
(0.000937736 0 1)
(0.000932044 -3.63996e-20 1)
(0.000850433 0 1)
(0.000876928 0 1)
(0.000835072 0 1)
(0.000775985 0 1)
(0.000773757 0 1)
(0.000755169 0 1)
(0.000668649 0 1)
(0.000677051 0 1)
(0.000622225 1.81998e-20 1)
(0.00061073 0 1)
(0.000587365 1.81998e-20 1)
(0.000492582 0 1)
(0.000503382 0 1)
(0.000445112 0 1)
(0.000386198 0 1)
(0.000287233 -9.0999e-21 1)
(0.000257095 0 1)
(0.000183099 0 1)
(6.49682e-05 0 1)
(-1.58064e-05 0 1)
(-0.000150479 0 1)
(-0.000271137 0 1)
(-0.000406491 -1.81898e-20 1)
(-0.000448661 0 1)
(-0.000586405 1.81998e-20 1)
(-0.000707718 0 1)
(-0.00076001 -3.63996e-20 1)
(-0.000905986 0 1)
(-0.00102487 -3.63996e-20 0.999999)
(-0.00110663 0 0.999999)
(-0.00120961 0 0.999999)
(-0.00137524 0 0.999999)
(-0.00146202 7.27991e-20 0.999999)
(-0.00159676 -7.27591e-20 0.999999)
(-0.0017741 -7.27991e-20 0.999998)
(-0.00170528 -7.27991e-20 0.999999)
(-0.0022402 0 0.999997)
(-0.00155791 0 0.999999)
(-0.00325128 1.45518e-19 0.999995)
(-0.000686017 0 1)
(-0.00560775 -1.45596e-19 0.999984)
(0.00176053 7.27991e-20 0.999998)
(-0.00965118 -2.91183e-19 0.999953)
(0.00659415 0 0.999978)
(-0.0139353 5.82017e-19 0.999903)
(0.0140357 0 0.999901)
(-0.0169649 5.8231e-19 0.999856)
(0.0241137 0 0.999709)
(-0.0163892 0 0.999866)
(0.036104 0 0.999348)
(-0.0090591 0 0.999959)
(0.0480066 0 0.998847)
(0.00740791 0 0.999973)
(0.0669957 0 0.997753)
(0.0405294 -1.16383e-18 0.999178)
(0.116268 4.625e-18 0.993218)
(0.128974 0 0.991648)
(0.277052 0 0.960855)
(0.453051 -1.66142e-17 0.891484)
(0.0019967 0 0.999998)
(0.0020011 7.2759e-20 0.999998)
(0.0020022 0 0.999998)
(0.0019967 -7.2799e-20 0.999998)
(0.0020022 0 0.999998)
(0.0019967 -7.2799e-20 0.999998)
(0.0020022 -7.2799e-20 0.999998)
(0.0020011 0 0.999998)
(0.0019967 0 0.999998)
(0.0020022 -7.2799e-20 0.999998)
)
;

boundaryField
{
    inlet
    {
        type            calculated;
        value           uniform (0 0 0);
    }
    endWall
    {
        type            calculated;
        value           uniform (0 0 0);
    }
    sideWall
    {
        type            empty;
    }
}


// ************************************************************************* //
