/*--------------------------------*- C++ -*----------------------------------*\
| =========                 |                                                 |
| \\      /  F ield         | foam-extend: Open Source CFD                    |
|  \\    /   O peration     | Version:     3.2                                |
|   \\  /    A nd           | Web:         http://www.foam-extend.org         |
|    \\/     M anipulation  | For copyright notice see file Copyright         |
\*---------------------------------------------------------------------------*/
FoamFile
{
    version     2.0;
    format      ascii;
    class       areaVectorField;
    location    "840";
    object      Utau;
}
// * * * * * * * * * * * * * * * * * * * * * * * * * * * * * * * * * * * * * //

dimensions      [0 1 -1 0 0 0 0];

internalField   nonuniform List<vector> 
550
(
(0.0697952 0 -0.00013959)
(0.0816746 0 -0.00016335)
(0.0939762 -2.44213e-23 -0.000187952)
(0.106429 2.82794e-23 -0.00021286)
(0.118704 3.35862e-23 -0.000237403)
(0.130467 0 -0.000260936)
(0.141458 -3.8824e-23 -0.000282909)
(0.15143 -4.09462e-23 -0.00030286)
(0.160245 0 -0.000320507)
(0.167904 -1.8209e-29 -0.000335799)
(0.174134 0 -0.000842582)
(0.179422 3.98399e-23 0.000781753)
(0.183422 0 -0.00164158)
(0.186445 0 0.000675284)
(0.188198 0 -0.00128336)
(0.188958 -2.99106e-23 0.000846227)
(0.189274 -4.09157e-23 -0.000538994)
(0.188678 2.5971e-27 -0.000753622)
(0.187175 1.07356e-23 -0.000254805)
(0.186798 0 0.00106905)
(0.184905 -7.46209e-22 -0.0036817)
(0.182785 0 0.0037855)
(0.181664 2.60229e-27 -0.00160641)
(0.17937 0 -0.000898973)
(0.177655 -2.82655e-22 0.00288622)
(0.176726 -1.44764e-23 0.0016118)
(0.176313 0 0.000474671)
(0.175478 0 -0.00108031)
(0.174483 4.21418e-27 0.00120983)
(0.173654 0 -0.000989332)
(0.172329 0 -0.00150498)
(0.171051 -5.88669e-24 0.000119031)
(0.169395 0 -0.00245305)
(0.167708 4.04795e-22 -0.00178437)
(0.167049 0 0.00157867)
(0.166842 4.19708e-22 0.00129654)
(0.165778 0 -0.00117618)
(0.163906 -3.58787e-28 -0.00096756)
(0.162119 -3.14883e-22 -0.00127762)
(0.160781 1.33223e-27 -0.00157323)
(0.159904 1.02196e-27 -0.00108439)
(0.159931 8.84206e-23 0.00116098)
(0.160468 2.90438e-28 0.00109093)
(0.160294 -5.49882e-23 -0.000390598)
(0.159518 -8.82282e-29 0.00034674)
(0.15852 0 -0.000457867)
(0.157139 0 -0.00119629)
(0.156335 -4.61741e-23 0.000249777)
(0.156273 3.88123e-29 0.000352787)
(0.156339 0 0.000436236)
(0.156031 2.12029e-23 -0.00051113)
(0.155391 0 0.000481423)
(0.154642 1.20883e-23 0.00086577)
(0.153989 2.02607e-23 0.00176361)
(0.153681 -3.42412e-28 0.00154722)
(0.153654 0 0.00147614)
(0.153946 0 0.00135056)
(0.154346 -1.46992e-23 0.00108936)
(0.154775 -8.61404e-23 0.00122829)
(0.155128 0 0.000998319)
(0.155275 -8.05924e-24 0.000842333)
(0.155229 2.26661e-29 0.000831969)
(0.155125 0 0.00106354)
(0.154961 6.2325e-24 0.000837348)
(0.15481 -1.54216e-23 0.000944579)
(0.154701 0 0.000756774)
(0.154656 0 0.000811355)
(0.154698 0 0.000727402)
(0.154787 0 0.000694087)
(0.154878 3.76089e-24 0.000523861)
(0.154928 0 0.00055059)
(0.15494 -4.68649e-24 0.000562995)
(0.154919 1.11665e-28 0.000713147)
(0.154925 -5.77421e-29 0.00082599)
(0.154938 3.83947e-24 0.000742325)
(0.154966 0 0.000695411)
(0.154971 -5.83219e-24 0.000532939)
(0.155003 3.32834e-24 0.000707919)
(0.155063 1.56602e-28 0.000552836)
(0.155104 2.35626e-29 0.000537339)
(0.155127 0 0.000489708)
(0.155175 7.08695e-24 0.000612353)
(0.155197 0 0.000269097)
(0.155173 0 0.00028327)
(0.155096 -4.05067e-29 0.000101961)
(0.155002 5.93208e-30 0.000214672)
(0.15491 0 0.000187458)
(0.154857 0 0.000279692)
(0.154755 0 -5.85837e-05)
(0.154577 0 -4.32133e-05)
(0.154383 4.72145e-24 0.000291206)
(0.154311 0 0.000683627)
(0.154287 0 0.000600351)
(0.154289 0 0.00063735)
(0.154296 0 0.000571994)
(0.154313 -1.4761e-24 0.000658982)
(0.154333 0 0.000623533)
(0.154373 0 0.000736998)
(0.154426 3.01923e-24 0.000715987)
(0.154503 -7.39032e-29 0.00080194)
(0.154585 0 0.000743468)
(0.154674 -5.07375e-24 0.000800885)
(0.154754 0 0.000744367)
(0.154835 5.92621e-24 0.000812638)
(0.154905 -4.32142e-24 0.00075858)
(0.154972 5.48577e-24 0.000814718)
(0.155027 0 0.000747108)
(0.155077 0 0.000795822)
(0.155117 1.9555e-24 0.000726735)
(0.155159 -1.77675e-24 0.000781988)
(0.155198 0 0.000719755)
(0.155245 0 0.000782493)
(0.15529 1.34424e-24 0.000723929)
(0.155345 0 0.000789604)
(0.155399 1.83318e-24 0.000726889)
(0.155459 0 0.000790991)
(0.155516 0 0.000718154)
(0.155574 -3.04547e-24 0.000771917)
(0.155625 0 0.00070177)
(0.155677 -5.54404e-29 0.000756861)
(0.155722 0 0.000678757)
(0.155765 2.22651e-24 0.000728214)
(0.1558 7.44879e-25 0.000659093)
(0.155835 5.66971e-29 0.000720703)
(0.155865 0 0.000660027)
(0.155898 0 0.00072245)
(0.155929 9.3217e-25 0.000659904)
(0.155963 -2.11764e-24 0.000717411)
(0.155995 0 0.000654732)
(0.15603 -1.81006e-24 0.000708477)
(0.156062 0 0.000647698)
(0.156097 4.69197e-29 0.0006983)
(0.156132 0 0.000638242)
(0.156168 0 0.000686169)
(0.156205 0 0.000627896)
(0.156244 3.9809e-29 0.000671298)
(0.156281 -4.21889e-25 0.000616426)
(0.15632 -1.53738e-24 0.000654458)
(0.156357 4.79327e-25 0.000602932)
(0.156392 0 0.000635996)
(0.156425 3.92327e-25 0.000587081)
(0.156455 1.16278e-24 0.000613801)
(0.156482 0 0.000567922)
(0.156505 7.47732e-25 0.000591403)
(0.156528 0 0.000550309)
(0.156548 -3.74585e-25 0.000566847)
(0.156569 4.82473e-25 0.000530624)
(0.156587 -1.78359e-25 0.000541121)
(0.156608 0 0.000509839)
(0.156627 -3.55956e-30 0.00051376)
(0.156647 0 0.000488705)
(0.156665 1.5886e-25 0.000486115)
(0.156683 0 0.000466651)
(0.156699 -1.95031e-25 0.000457374)
(0.156715 0 0.000443961)
(0.156728 0 0.00042768)
(0.156741 2.42689e-25 0.000419778)
(0.15675 -3.63818e-25 0.000397129)
(0.156758 0 0.000398022)
(0.156763 -5.154e-25 0.0003672)
(0.156769 0 0.000374052)
(0.15677 0 0.000338135)
(0.156774 6.71026e-31 0.000353708)
(0.156773 0 0.000310409)
(0.156774 -1.4301e-25 0.000332101)
(0.15677 0 0.000280393)
(0.156769 1.51809e-25 0.000310612)
(0.156762 -6.46417e-25 0.000253499)
(0.156758 1.06869e-29 0.000288797)
(0.156748 3.62206e-25 0.000225899)
(0.156741 0 0.000270022)
(0.156729 0 0.000198872)
(0.156721 0 0.000248515)
(0.156707 0 0.000171668)
(0.156698 1.07672e-29 0.000229336)
(0.156685 2.22606e-29 0.000148131)
(0.156677 -1.22908e-29 0.000210923)
(0.156666 5.76445e-25 0.000121529)
(0.156659 2.35997e-26 0.000192576)
(0.156649 -1.32986e-29 9.76647e-05)
(0.156643 7.37438e-26 0.000178458)
(0.156632 0 7.25618e-05)
(0.156626 0 0.000166535)
(0.156613 -1.64816e-29 4.99135e-05)
(0.156608 0 0.00016109)
(0.156591 0 2.24951e-05)
(0.156588 -3.70596e-29 0.000169109)
(0.156565 0 -1.59578e-05)
(0.156564 5.72678e-29 0.000199461)
(0.156542 0 -6.99317e-05)
(0.156543 0 0.000230947)
(0.156523 0 -0.000132669)
(0.156526 0 0.000258276)
(0.156507 1.2651e-28 -0.000197068)
(0.156513 3.54189e-24 0.000286575)
(0.156496 0 -0.000262191)
(0.156503 0 0.000313679)
(0.156487 0 -0.000330981)
(0.156495 0 0.000338886)
(0.156479 0 -0.000405008)
(0.156487 0 0.000363012)
(0.15647 0 -0.000479427)
(0.156475 0 0.000385112)
(0.156459 0 -0.000557327)
(0.156459 -7.2063e-24 0.000394955)
(0.156442 0 -0.000630585)
(0.156436 0 0.000389865)
(0.156417 0 -0.000700365)
(0.156401 0 0.000370278)
(0.156383 0 -0.000753201)
(0.156354 -7.77612e-24 0.000318155)
(0.156336 1.94396e-23 -0.000780525)
(0.156293 0 0.000246282)
(0.156277 1.82241e-23 -0.000775273)
(0.156219 0 0.000144897)
(0.156201 1.53442e-23 -0.000721072)
(0.156138 0 3.80294e-05)
(0.156117 -7.41681e-28 -0.000643858)
(0.156057 1.56509e-28 -5.75897e-05)
(0.156033 0 -0.00058199)
(0.155979 0 -0.000133556)
(0.155953 0 -0.000541381)
(0.155902 -1.87837e-28 -0.000195873)
(0.155876 5.52879e-24 -0.00050427)
(0.155829 -1.44205e-28 -0.000244015)
(0.155801 0 -0.000477935)
(0.155756 0 -0.000279204)
(0.155728 0 -0.000455576)
(0.155686 -6.86376e-25 -0.000309037)
(0.155655 0 -0.000447978)
(0.155614 0 -0.000333553)
(0.155582 0 -0.000439598)
(0.155544 -3.37494e-27 -0.000355068)
(0.15551 4.53058e-29 -0.000439153)
(0.155476 2.49278e-29 -0.000371982)
(0.155441 -2.8739e-29 -0.000434604)
(0.155408 0 -0.000382791)
(0.155373 0 -0.000427678)
(0.15534 0 -0.000386633)
(0.155307 0 -0.000423661)
(0.155274 4.53508e-26 -0.000390442)
(0.155242 6.15594e-25 -0.000412807)
(0.15521 0 -0.0003956)
(0.155178 0 -0.000406678)
(0.155148 0 -0.000390317)
(0.155118 -6.94248e-30 -0.000401486)
(0.155088 0 -0.000391645)
(0.155059 -4.00078e-30 -0.00039509)
(0.155031 -1.08095e-30 -0.00038439)
(0.155004 0 -0.000391567)
(0.154977 0 -0.000379637)
(0.154951 0 -0.000382762)
(0.154926 -1.30325e-30 -0.000373727)
(0.154902 1.22261e-25 -0.00037339)
(0.154878 0 -0.000366415)
(0.154855 0 -0.000363486)
(0.154833 0 -0.000359426)
(0.154813 0 -0.000349105)
(0.154794 -7.19661e-31 -0.000348106)
(0.154776 0 -0.000340188)
(0.154759 -3.69955e-26 -0.00033473)
(0.154744 -1.08163e-25 -0.000325882)
(0.15473 0 -0.000320586)
(0.154717 2.71641e-30 -0.000312433)
(0.154706 1.3265e-25 -0.000303913)
(0.154697 0 -0.000291977)
(0.154689 9.08641e-26 -0.000289351)
(0.154682 -7.05015e-30 -0.000274775)
(0.154677 0 -0.000270434)
(0.154673 6.51983e-30 -0.00025724)
(0.15467 -2.80427e-25 -0.000251929)
(0.154668 -3.13495e-25 -0.000241745)
(0.154667 3.57203e-25 -0.000232478)
(0.154667 0 -0.00021972)
(0.154668 1.76841e-25 -0.000214714)
(0.154669 -1.77436e-25 -0.000205553)
(0.154671 1.82092e-25 -0.000196872)
(0.154674 -2.51834e-30 -0.000189709)
(0.154677 0 -0.000177987)
(0.154681 2.33049e-25 -0.000166718)
(0.154685 0 -0.000160817)
(0.15469 0 -0.000152302)
(0.154695 -3.25472e-30 -0.000143533)
(0.154701 2.22773e-25 -0.000131677)
(0.154708 1.46863e-25 -0.000131181)
(0.154715 2.22248e-25 -0.00011749)
(0.154722 1.52085e-25 -0.000115574)
(0.15473 1.08222e-25 -0.000104888)
(0.154738 0 -0.000101928)
(0.154747 -9.57148e-26 -9.39572e-05)
(0.154755 -8.06273e-26 -9.06901e-05)
(0.154764 0 -8.42167e-05)
(0.154772 0 -8.07695e-05)
(0.154781 8.14993e-26 -7.65798e-05)
(0.154789 0 -7.34394e-05)
(0.154797 8.29204e-26 -7.04253e-05)
(0.154804 8.4508e-26 -6.73171e-05)
(0.154811 0 -6.62799e-05)
(0.154817 5.95909e-31 -6.3844e-05)
(0.154822 0 -6.37082e-05)
(0.154826 6.57715e-26 -6.10442e-05)
(0.15483 -1.84408e-31 -6.22582e-05)
(0.154832 0 -5.95548e-05)
(0.154834 3.83576e-26 -6.18182e-05)
(0.154836 -4.85043e-26 -5.90082e-05)
(0.154836 0 -6.2367e-05)
(0.154837 -8.15088e-31 -5.71981e-05)
(0.154837 0 -6.66446e-05)
(0.154837 -4.188e-26 -6.00706e-05)
(0.154836 0 -6.69036e-05)
(0.154835 4.21719e-31 -6.33393e-05)
(0.154834 -4.96431e-31 -6.82567e-05)
(0.154832 -1.62317e-26 -6.70879e-05)
(0.15483 0 -6.88485e-05)
(0.154827 -7.44143e-31 -7.47862e-05)
(0.154824 0 -7.29528e-05)
(0.15482 0 -7.59553e-05)
(0.154816 4.20708e-31 -7.87795e-05)
(0.154811 -5.74606e-31 -8.35068e-05)
(0.154805 -4.28433e-26 -8.80847e-05)
(0.154798 3.45418e-26 -8.91809e-05)
(0.154791 0 -8.93305e-05)
(0.154783 0 -9.5497e-05)
(0.154774 4.49866e-26 -9.52944e-05)
(0.154765 0 -0.000101712)
(0.154755 3.49828e-31 -0.000101537)
(0.154745 8.56961e-31 -0.000107521)
(0.154733 4.64834e-26 -0.000107881)
(0.15472 0 -0.00011302)
(0.154707 -6.01602e-31 -0.000111302)
(0.154693 1.71754e-25 -0.000121002)
(0.154677 -1.71357e-30 -0.000123321)
(0.15466 0 -0.000127201)
(0.154643 1.04432e-30 -0.000127449)
(0.154625 0 -0.000134836)
(0.154606 1.70269e-30 -0.000137372)
(0.154587 0 -0.000142816)
(0.154566 -1.84382e-30 -0.000146271)
(0.154545 2.00586e-30 -0.000150365)
(0.154523 0 -0.00015429)
(0.154501 0 -0.000155073)
(0.154477 -3.32325e-30 -0.000165593)
(0.154453 0 -0.00016315)
(0.154428 0 -0.000168989)
(0.154402 -2.01834e-25 -0.000173327)
(0.154375 0 -0.000174702)
(0.154348 1.7193e-25 -0.00017527)
(0.154321 2.37263e-30 -0.000181187)
(0.154293 1.86517e-30 -0.000184381)
(0.154265 0 -0.00018476)
(0.154236 -1.82283e-25 -0.000186594)
(0.154207 0 -0.000188008)
(0.154178 1.16584e-30 -0.000188643)
(0.154148 0 -0.000190827)
(0.154118 0 -0.000190273)
(0.154089 -1.92966e-25 -0.000193139)
(0.154059 -1.51968e-25 -0.000192257)
(0.154029 0 -0.000195042)
(0.154 0 -0.000191702)
(0.15397 -3.01799e-30 -0.000201982)
(0.15394 0 -0.000196056)
(0.15391 0 -0.000203811)
(0.15388 0 -0.000200687)
(0.15385 -1.78353e-30 -0.000204348)
(0.153819 -2.17775e-30 -0.000209271)
(0.153787 0 -0.000208565)
(0.153756 1.03927e-30 -0.000209247)
(0.153725 -1.94875e-30 -0.000213603)
(0.153693 0 -0.000216752)
(0.153661 1.62963e-25 -0.0002149)
(0.153629 1.48045e-25 -0.000213715)
(0.153598 0 -0.000215798)
(0.153567 -1.68742e-25 -0.000214704)
(0.153535 1.51885e-30 -0.000217476)
(0.153505 4.21059e-31 -0.000211874)
(0.153475 -1.37649e-25 -0.000208341)
(0.153446 -1.77606e-25 -0.000209515)
(0.153418 1.03521e-25 -0.000200976)
(0.153391 4.32939e-33 -0.000198986)
(0.153366 0 -0.000190945)
(0.153343 0 -0.000186555)
(0.153321 6.12012e-26 -0.0001811)
(0.153301 1.86506e-26 -0.000168721)
(0.153283 0 -0.00016618)
(0.153266 1.83147e-30 -0.000158942)
(0.153251 -5.33051e-26 -0.000149644)
(0.153237 4.93049e-26 -0.000143356)
(0.153225 0 -0.000135094)
(0.153214 1.58051e-30 -0.000130733)
(0.153204 0 -0.000119487)
(0.153197 1.30195e-25 -0.000112778)
(0.153191 0 -0.000107567)
(0.153186 0 -0.000104464)
(0.153182 1.3019e-30 -9.55673e-05)
(0.15318 9.02193e-31 -9.03627e-05)
(0.153179 0 -8.95565e-05)
(0.15318 0 -8.11589e-05)
(0.153183 4.79309e-26 -7.70901e-05)
(0.153187 -3.63513e-26 -7.821e-05)
(0.153192 -9.91346e-31 -7.05604e-05)
(0.1532 -6.03535e-31 -6.78281e-05)
(0.153209 1.48787e-31 -6.81215e-05)
(0.153218 2.68073e-26 -6.87512e-05)
(0.153229 5.3249e-31 -6.44435e-05)
(0.153241 0 -6.27745e-05)
(0.153253 2.6838e-31 -6.66585e-05)
(0.153266 -6.25737e-31 -6.16162e-05)
(0.15328 -2.57319e-31 -6.10014e-05)
(0.153294 0 -6.41016e-05)
(0.153307 0 -6.05461e-05)
(0.153322 0 -6.24264e-05)
(0.153336 0 -5.98396e-05)
(0.15335 0 -6.09124e-05)
(0.153364 -1.90181e-31 -6.05611e-05)
(0.153379 -6.62703e-26 -6.00009e-05)
(0.153393 0 -6.21232e-05)
(0.153408 0 -6.13315e-05)
(0.153422 -3.48016e-26 -6.67027e-05)
(0.153437 0 -5.93037e-05)
(0.153453 3.0918e-26 -6.82851e-05)
(0.153468 0 -6.57258e-05)
(0.153485 -6.17194e-26 -6.53745e-05)
(0.153502 -2.12791e-31 -6.80214e-05)
(0.153518 0 -7.1982e-05)
(0.153536 0 -6.84839e-05)
(0.153554 0 -6.91073e-05)
(0.153572 -6.2942e-32 -7.09169e-05)
(0.153591 0 -7.61007e-05)
(0.153609 0 -7.15798e-05)
(0.153628 0 -7.32591e-05)
(0.153647 0 -7.38134e-05)
(0.153665 -3.74899e-31 -7.93154e-05)
(0.153683 1.08186e-30 -7.17277e-05)
(0.153701 0 -8.11595e-05)
(0.153718 0 -7.834e-05)
(0.153736 0 -7.71421e-05)
(0.153753 0 -7.94473e-05)
(0.15377 1.75141e-32 -8.0818e-05)
(0.153788 1.97607e-26 -8.15857e-05)
(0.153804 -9.0104e-28 -8.7077e-05)
(0.153822 -1.09439e-30 -7.90723e-05)
(0.15384 1.03425e-30 -8.83198e-05)
(0.153858 -5.15234e-31 -8.38583e-05)
(0.153878 9.00694e-31 -9.10859e-05)
(0.153896 0 -9.12188e-05)
(0.153917 0 -8.79013e-05)
(0.153938 3.39952e-31 -9.12003e-05)
(0.153959 9.73237e-31 -9.90646e-05)
(0.153981 0 -9.73538e-05)
(0.154002 0 -0.000100944)
(0.154023 0 -0.000110253)
(0.154042 -4.3388e-27 -0.00010813)
(0.154061 -1.18917e-26 -0.000111458)
(0.154079 0 -0.00011714)
(0.154095 -9.76404e-31 -0.00012047)
(0.15411 0 -0.000125655)
(0.154121 0 -0.000128894)
(0.154131 0 -0.000133411)
(0.154137 -7.71318e-27 -0.000136035)
(0.15414 0 -0.000139507)
(0.154141 -1.59322e-27 -0.000141335)
(0.154138 0 -0.000143069)
(0.154134 0 -0.000140485)
(0.154128 0 -0.000148443)
(0.154119 0 -0.000151585)
(0.154108 0 -0.000150459)
(0.154095 7.52066e-31 -0.000152374)
(0.15408 0 -0.000150693)
(0.154064 0 -0.000148554)
(0.154047 0 -0.000153407)
(0.154028 1.32664e-25 -0.000157109)
(0.154009 -3.88222e-31 -0.000152483)
(0.15399 -5.56836e-32 -0.000151166)
(0.15397 0 -0.000153661)
(0.153949 0 -0.000157251)
(0.15393 0 -0.000145809)
(0.153911 -2.60473e-30 -0.000154628)
(0.153891 0 -0.000149228)
(0.153874 1.51747e-25 -0.000143845)
(0.153858 0 -0.000144278)
(0.153842 2.01561e-25 -0.000143388)
(0.153829 0 -0.000130822)
(0.153818 0 -0.000134888)
(0.153807 -1.00965e-30 -0.00012844)
(0.153799 0 -0.000119346)
(0.153791 0 -0.000118997)
(0.153782 0 -0.000116131)
(0.153774 0 -0.000102821)
(0.153766 -1.50987e-31 -0.000104108)
(0.153758 8.06982e-27 -9.5672e-05)
(0.153749 0 -9.38991e-05)
(0.153738 3.86964e-27 -9.03006e-05)
(0.153728 0 -7.57237e-05)
(0.153718 1.2047e-31 -7.73786e-05)
(0.153705 0 -6.84158e-05)
(0.153691 0 -5.93554e-05)
(0.153679 -4.10507e-26 -4.41416e-05)
(0.153666 0 -3.95068e-05)
(0.153652 7.42324e-31 -2.81335e-05)
(0.15364 -3.56616e-31 -9.98169e-06)
(0.153629 0 2.42833e-06)
(0.153621 0 2.31167e-05)
(0.153616 0 4.16511e-05)
(0.153616 -1.60007e-25 6.24436e-05)
(0.153617 0 6.8922e-05)
(0.153621 1.5911e-25 9.00841e-05)
(0.153628 -3.31089e-30 0.000108726)
(0.153637 -2.93119e-25 0.000116766)
(0.153648 0 0.000139203)
(0.153664 -4.06967e-25 0.000157485)
(0.15368 0 0.000170067)
(0.153699 0 0.000185917)
(0.15372 0 0.000211402)
(0.153745 8.47391e-25 0.00022478)
(0.153767 -1.16807e-24 0.000245529)
(0.153806 -7.24865e-25 0.000272867)
(0.15382 -9.56142e-25 0.000262306)
(0.153879 0 0.00034472)
(0.153876 7.15207e-29 0.000239725)
(0.153973 4.63825e-24 0.000500612)
(0.153935 0 0.000105602)
(0.154095 -1.3643e-23 0.000864137)
(0.154016 -7.11625e-24 -0.000271151)
(0.154249 -6.54064e-23 0.00148875)
(0.154153 0 -0.00101653)
(0.154422 2.23228e-22 0.00215214)
(0.154308 0 -0.00216603)
(0.154543 3.20244e-22 0.00262219)
(0.154392 0 -0.00372404)
(0.154491 0 0.00253232)
(0.154263 0 -0.00557314)
(0.154111 0 0.00139616)
(0.153736 -7.53552e-26 -0.00738884)
(0.153311 0 -0.00113574)
(0.152603 0 -0.0102468)
(0.151635 -3.48759e-24 -0.00615073)
(0.149603 -9.43134e-21 -0.0175128)
(0.145875 0 -0.0189726)
(0.13538 -6.67287e-25 -0.0390352)
(0.0998073 5.86257e-19 -0.0507219)
(-0.0808317 0 0.000161397)
(0.0921868 5.92801e-22 -0.000184475)
(0.0776243 0 -0.000155419)
(0.0751999 3.59194e-23 -0.000150152)
(0.0618787 0 -0.000123894)
(0.0625928 2.42237e-22 -0.000124979)
(-0.053045 5.13317e-22 0.000106207)
(-0.0556955 0 0.000111452)
(-0.0685733 0 0.00013692)
(-0.0865382 -1.06788e-21 0.000173267)
)
;

boundaryField
{
    inlet
    {
        type            calculated;
        value           uniform (0 0 0);
    }
    endWall
    {
        type            calculated;
        value           uniform (0 0 0);
    }
    sideWall
    {
        type            empty;
    }
}


// ************************************************************************* //
