/*--------------------------------*- C++ -*----------------------------------*\
| =========                 |                                                 |
| \\      /  F ield         | foam-extend: Open Source CFD                    |
|  \\    /   O peration     | Version:     3.2                                |
|   \\  /    A nd           | Web:         http://www.foam-extend.org         |
|    \\/     M anipulation  | For copyright notice see file Copyright         |
\*---------------------------------------------------------------------------*/
FoamFile
{
    version     2.0;
    format      ascii;
    class       areaVectorField;
    location    "840";
    object      Wt;
}
// * * * * * * * * * * * * * * * * * * * * * * * * * * * * * * * * * * * * * //

dimensions      [1 1 -2 0 0 0 0];

internalField   nonuniform List<vector> 
550
(
(5.45265e-10 0 -1.09053e-12)
(5.45267e-10 0 -1.09054e-12)
(5.45264e-10 1.98454e-26 -1.09052e-12)
(5.45271e-10 -1.98455e-26 -1.09055e-12)
(5.45256e-10 -1.98455e-26 -1.09049e-12)
(5.45268e-10 0 -1.09054e-12)
(5.4525e-10 1.98452e-26 -1.09047e-12)
(5.45265e-10 1.98452e-26 -1.09053e-12)
(5.45295e-10 0 -1.09065e-12)
(5.4525e-10 0 -1.09047e-12)
(1.31916e-09 0 -6.38306e-12)
(-1.18786e-09 -3.96899e-26 -5.17561e-12)
(2.43981e-09 0 -2.18357e-11)
(-9.87435e-10 0 -3.57637e-12)
(1.85905e-09 0 -1.26772e-11)
(-1.22093e-09 3.96898e-26 -5.46782e-12)
(7.7637e-10 1.98452e-26 -2.21086e-12)
(1.08894e-09 0 -4.34947e-12)
(3.71141e-10 -9.92264e-27 -5.05242e-13)
(-1.56024e-09 0 -8.92928e-12)
(5.42633e-09 1.587e-25 -1.08045e-10)
(-5.64386e-09 0 -1.16885e-10)
(2.41064e-09 0 -2.13167e-11)
(1.36636e-09 0 -6.848e-12)
(-4.4281e-09 -1.58729e-25 -7.19399e-11)
(-2.4863e-09 -7.93747e-26 -2.26758e-11)
(-7.33983e-10 0 -1.97604e-12)
(1.67837e-09 0 -1.03327e-11)
(-1.8903e-09 0 -1.3107e-11)
(1.55318e-09 0 -8.84867e-12)
(2.38079e-09 0 -2.07919e-11)
(-1.89721e-10 -4.96133e-27 -1.32024e-13)
(3.94724e-09 0 -5.7161e-11)
(2.90041e-09 -7.93723e-26 -3.08595e-11)
(-2.57625e-09 0 -2.43464e-11)
(-2.11852e-09 7.93809e-26 -1.64631e-11)
(1.93421e-09 0 -1.3723e-11)
(1.60933e-09 0 -9.5001e-12)
(2.14842e-09 7.93764e-26 -1.69311e-11)
(2.66746e-09 0 -2.6101e-11)
(1.84879e-09 0 -1.25376e-11)
(-1.97901e-09 7.93815e-26 -1.43662e-11)
(-1.85339e-09 0 -1.26001e-11)
(6.64339e-10 -1.98452e-26 -1.61884e-12)
(-5.92613e-10 0 -1.28814e-12)
(7.87466e-10 0 -2.27451e-12)
(2.07543e-09 0 -1.58002e-11)
(-4.35585e-10 1.98453e-26 -6.95934e-13)
(-6.15468e-10 0 -1.38942e-12)
(-7.60728e-10 0 -2.12267e-12)
(8.93089e-10 3.96902e-26 -2.9256e-12)
(-8.44649e-10 0 -2.61684e-12)
(-1.5263e-09 3.96916e-26 -8.54505e-12)
(-3.122e-09 7.93709e-26 -3.57556e-11)
(-2.74453e-09 0 -2.76313e-11)
(-2.61893e-09 0 -2.51598e-11)
(-2.39163e-09 0 -2.09817e-11)
(-1.92413e-09 -7.93424e-26 -1.35804e-11)
(-2.16347e-09 -1.5877e-25 -1.71693e-11)
(-1.75445e-09 0 -1.12907e-11)
(-1.47894e-09 -3.96938e-26 -8.02291e-12)
(-1.46117e-09 0 -7.83135e-12)
(-1.86908e-09 0 -1.28144e-11)
(-1.47317e-09 -3.9672e-26 -7.96044e-12)
(-1.66342e-09 7.93871e-26 -1.01494e-11)
(-1.33365e-09 0 -6.52401e-12)
(-1.43025e-09 0 -7.50336e-12)
(-1.28192e-09 0 -6.02771e-12)
(-1.2225e-09 0 -5.48188e-12)
(-9.2215e-10 -3.96946e-26 -3.11909e-12)
(-9.68885e-10 0 -3.44326e-12)
(-9.90639e-10 -3.96945e-26 -3.59963e-12)
(-1.255e-09 0 -5.77718e-12)
(-1.45351e-09 0 -7.74946e-12)
(-1.30619e-09 3.96723e-26 -6.25813e-12)
(-1.22342e-09 0 -5.49011e-12)
(-9.37564e-10 3.96945e-26 -3.22424e-12)
(-1.24513e-09 3.96942e-26 -5.68667e-12)
(-9.71994e-10 0 -3.4654e-12)
(-9.44497e-10 0 -3.2721e-12)
(-8.60644e-10 0 -2.71689e-12)
(-1.07585e-09 3.96944e-26 -4.24554e-12)
(-4.72718e-10 0 -8.19647e-13)
(-4.97692e-10 0 -9.08539e-13)
(-1.7923e-10 0 -1.17826e-13)
(-3.77587e-10 0 -5.22945e-13)
(-3.29917e-10 0 -3.99237e-13)
(-4.92409e-10 0 -8.89353e-13)
(1.03207e-10 0 -3.90698e-14)
(7.62168e-11 0 -2.1307e-14)
(-5.14257e-10 1.98365e-26 -9.70022e-13)
(-1.20779e-09 0 -5.35076e-12)
(-1.06084e-09 0 -4.12786e-12)
(-1.1262e-09 0 -4.65218e-12)
(-1.01067e-09 0 -3.74667e-12)
(-1.16424e-09 -3.96943e-26 -4.9718e-12)
(-1.10147e-09 0 -4.45016e-12)
(-1.30156e-09 0 -6.21382e-12)
(-1.26402e-09 3.96942e-26 -5.86053e-12)
(-1.41505e-09 0 -7.34476e-12)
(-1.31119e-09 0 -6.30609e-12)
(-1.41163e-09 -3.96721e-26 -7.3093e-12)
(-1.31134e-09 0 -6.30751e-12)
(-1.43085e-09 3.96939e-26 -7.50971e-12)
(-1.33507e-09 -3.96941e-26 -6.5379e-12)
(-1.43325e-09 3.96939e-26 -7.53487e-12)
(-1.31385e-09 0 -6.33176e-12)
(-1.39906e-09 0 -7.17969e-12)
(-1.27728e-09 3.96941e-26 -5.98412e-12)
(-1.37401e-09 -3.9694e-26 -6.92488e-12)
(-1.26435e-09 0 -5.86363e-12)
(-1.37414e-09 0 -6.92622e-12)
(-1.27093e-09 3.96723e-26 -5.92479e-12)
(-1.38573e-09 0 -7.04353e-12)
(-1.27524e-09 3.96941e-26 -5.96501e-12)
(-1.38715e-09 0 -7.05796e-12)
(-1.25897e-09 0 -5.81377e-12)
(-1.35271e-09 -3.9694e-26 -6.71178e-12)
(-1.22938e-09 0 -5.5437e-12)
(-1.32544e-09 0 -6.44394e-12)
(-1.18832e-09 0 -5.17962e-12)
(-1.27456e-09 3.96941e-26 -5.95865e-12)
(-1.15332e-09 3.96943e-26 -4.87899e-12)
(-1.26085e-09 0 -5.83115e-12)
(-1.15448e-09 0 -4.88877e-12)
(-1.26339e-09 0 -5.85468e-12)
(-1.15379e-09 3.96943e-26 -4.88292e-12)
(-1.25405e-09 -3.96942e-26 -5.76849e-12)
(-1.14426e-09 0 -4.8026e-12)
(-1.23791e-09 -3.96724e-26 -5.62092e-12)
(-1.13148e-09 0 -4.69592e-12)
(-1.2196e-09 0 -5.45586e-12)
(-1.11447e-09 0 -4.55577e-12)
(-1.19787e-09 0 -5.26316e-12)
(-1.09588e-09 0 -4.40512e-12)
(-1.17134e-09 0 -5.03266e-12)
(-1.07534e-09 -3.96944e-26 -4.2415e-12)
(-1.1414e-09 -3.96943e-26 -4.77867e-12)
(-1.0513e-09 3.96944e-26 -4.05395e-12)
(-1.10869e-09 0 -4.5087e-12)
(-1.02321e-09 3.96726e-26 -3.84022e-12)
(-1.06957e-09 3.96944e-26 -4.19611e-12)
(-9.89457e-10 0 -3.59104e-12)
(-1.03021e-09 3.96944e-26 -3.89298e-12)
(-9.58494e-10 0 -3.3698e-12)
(-9.87172e-10 -3.96727e-26 -3.57447e-12)
(-9.23968e-10 -3.96946e-26 -3.1314e-12)
(-9.42132e-10 -3.96945e-26 -3.25574e-12)
(-8.87551e-10 0 -2.88943e-12)
(-8.9427e-10 0 -2.93334e-12)
(-8.50552e-10 0 -2.65354e-12)
(-8.45946e-10 -3.96728e-26 -2.62488e-12)
(-8.11979e-10 0 -2.41832e-12)
(-7.95758e-10 3.96947e-26 -2.32267e-12)
(-7.72342e-10 0 -2.18798e-12)
(-7.43957e-10 0 -2.03011e-12)
(-7.30152e-10 -1.98365e-26 -1.95547e-12)
(-6.9072e-10 1.98474e-26 -1.74996e-12)
(-6.92234e-10 0 -1.75764e-12)
(-6.38611e-10 1.98474e-26 -1.49587e-12)
(-6.50502e-10 0 -1.5521e-12)
(-5.88036e-10 0 -1.26832e-12)
(-6.15105e-10 0 -1.38778e-12)
(-5.39811e-10 0 -1.06882e-12)
(-5.7753e-10 1.98474e-26 -1.22341e-12)
(-4.87619e-10 0 -8.72135e-13)
(-5.40178e-10 -1.98474e-26 -1.07028e-12)
(-4.40873e-10 1.98365e-26 -7.12932e-13)
(-5.02274e-10 0 -9.25346e-13)
(-3.92908e-10 -9.92373e-27 -5.66242e-13)
(-4.69672e-10 0 -8.09117e-13)
(-3.45942e-10 0 -4.38963e-13)
(-4.3232e-10 0 -6.8554e-13)
(-2.98661e-10 0 -3.27174e-13)
(-3.99012e-10 0 -5.83974e-13)
(-2.57749e-10 0 -2.43676e-13)
(-3.67025e-10 0 -4.94098e-13)
(-2.11487e-10 -9.92375e-27 -1.64055e-13)
(-3.35139e-10 -9.91828e-27 -4.11976e-13)
(-1.69977e-10 0 -1.05974e-13)
(-3.10603e-10 9.92374e-27 -3.5386e-13)
(-1.26301e-10 0 -5.85104e-14)
(-2.89881e-10 0 -3.0822e-13)
(-8.68897e-11 0 -2.76922e-14)
(-2.80435e-10 0 -2.88459e-13)
(-3.91651e-11 0 -5.62626e-15)
(-2.94434e-10 0 -3.17977e-13)
(2.7788e-11 0 -2.83228e-15)
(-3.47331e-10 0 -4.42495e-13)
(1.21793e-10 0 -5.44085e-14)
(-4.02215e-10 0 -5.93386e-13)
(2.31085e-10 0 -1.95869e-13)
(-4.49859e-10 0 -7.42291e-13)
(3.43289e-10 0 -4.32256e-13)
(-4.99191e-10 1.98474e-26 -9.14018e-13)
(4.56766e-10 0 -7.6526e-13)
(-5.46437e-10 0 -1.09522e-12)
(5.76636e-10 0 -1.21962e-12)
(-5.90378e-10 0 -1.27845e-12)
(7.0564e-10 0 -1.82637e-12)
(-6.32442e-10 0 -1.46712e-12)
(8.35345e-10 0 -2.55951e-12)
(-6.70993e-10 0 -1.65142e-12)
(9.71145e-10 0 -3.45935e-12)
(-6.88214e-10 -1.98474e-26 -1.73728e-12)
(1.09891e-09 0 -4.42948e-12)
(-6.79447e-10 0 -1.6933e-12)
(1.2207e-09 0 -5.46574e-12)
(-6.45455e-10 0 -1.52811e-12)
(1.31307e-09 0 -6.32426e-12)
(-5.54763e-10 -1.98474e-26 -1.12885e-12)
(1.36112e-09 -3.96722e-26 -6.7955e-12)
(-4.29605e-10 0 -6.76957e-13)
(1.35248e-09 -3.9694e-26 -6.7095e-12)
(-2.52873e-10 0 -2.34545e-13)
(1.25853e-09 -3.96942e-26 -5.80977e-12)
(-6.64036e-11 0 -1.61735e-14)
(1.12438e-09 0 -4.63716e-12)
(1.0061e-10 0 -3.71282e-14)
(1.01689e-09 0 -3.79289e-12)
(2.3344e-10 0 -1.99882e-13)
(9.46417e-10 0 -3.28542e-12)
(3.42532e-10 0 -4.30352e-13)
(8.81983e-10 -3.96946e-26 -2.85328e-12)
(4.26921e-10 0 -6.68524e-13)
(8.36324e-10 0 -2.56551e-12)
(4.88713e-10 0 -8.76053e-13)
(7.97573e-10 0 -2.33327e-12)
(5.41176e-10 -1.98365e-26 -1.07423e-12)
(7.84637e-10 0 -2.2582e-12)
(5.84378e-10 0 -1.25259e-12)
(7.70323e-10 0 -2.17656e-12)
(6.2235e-10 -1.98474e-26 -1.42067e-12)
(7.69896e-10 0 -2.17414e-12)
(6.52284e-10 0 -1.56062e-12)
(7.62261e-10 0 -2.13124e-12)
(6.71532e-10 0 -1.65408e-12)
(7.50443e-10 0 -2.06566e-12)
(6.78565e-10 0 -1.68891e-12)
(7.43711e-10 0 -2.02876e-12)
(6.85543e-10 -1.98474e-26 -1.72382e-12)
(7.24961e-10 -1.98474e-26 -1.92776e-12)
(6.94888e-10 0 -1.77114e-12)
(7.1449e-10 0 -1.87248e-12)
(6.85881e-10 0 -1.72552e-12)
(7.05642e-10 0 -1.82639e-12)
(6.8848e-10 0 -1.73863e-12)
(6.94665e-10 0 -1.77e-12)
(6.75974e-10 0 -1.67603e-12)
(6.88716e-10 0 -1.73982e-12)
(6.67849e-10 0 -1.63599e-12)
(6.73459e-10 0 -1.66358e-12)
(6.57668e-10 0 -1.58649e-12)
(6.57178e-10 -1.98474e-26 -1.58412e-12)
(6.45e-10 0 -1.52596e-12)
(6.39938e-10 0 -1.5021e-12)
(6.32881e-10 0 -1.46915e-12)
(6.14789e-10 0 -1.38636e-12)
(6.13104e-10 0 -1.37877e-12)
(5.99229e-10 0 -1.31707e-12)
(5.89678e-10 -1.98474e-26 -1.27542e-12)
(5.74149e-10 -1.98365e-26 -1.20912e-12)
(5.64868e-10 0 -1.17035e-12)
(5.50548e-10 0 -1.11176e-12)
(5.35573e-10 1.98474e-26 -1.05211e-12)
(5.1457e-10 0 -9.71206e-13)
(5.09968e-10 1.98365e-26 -9.53911e-13)
(4.843e-10 0 -8.603e-13)
(4.76665e-10 0 -8.33389e-13)
(4.53421e-10 0 -7.54093e-13)
(4.44067e-10 -1.98475e-26 -7.23302e-13)
(4.26124e-10 -1.98475e-26 -6.66031e-13)
(4.09792e-10 1.98365e-26 -6.15954e-13)
(3.87302e-10 0 -5.50201e-13)
(3.78476e-10 9.92373e-27 -5.2541e-13)
(3.62325e-10 -9.92374e-27 -4.81523e-13)
(3.47019e-10 9.92374e-27 -4.417e-13)
(3.34388e-10 0 -4.1013e-13)
(3.13721e-10 0 -3.61001e-13)
(2.9385e-10 9.92374e-27 -3.16717e-13)
(2.83442e-10 0 -2.94679e-13)
(2.68426e-10 0 -2.64284e-13)
(2.52961e-10 0 -2.34708e-13)
(2.32056e-10 9.91829e-27 -1.97519e-13)
(2.31174e-10 9.92375e-27 -1.9602e-13)
(2.07038e-10 9.92375e-27 -1.57224e-13)
(2.0365e-10 9.92375e-27 -1.52121e-13)
(1.84811e-10 4.96187e-27 -1.25279e-13)
(1.79587e-10 0 -1.18296e-13)
(1.65534e-10 -4.96187e-27 -1.00507e-13)
(1.5977e-10 -4.96187e-27 -9.36287e-14)
(1.48357e-10 0 -8.07307e-14)
(1.42277e-10 0 -7.42485e-14)
(1.34889e-10 4.96188e-27 -6.67383e-14)
(1.29351e-10 0 -6.13703e-14)
(1.24035e-10 4.96188e-27 -5.64303e-14)
(1.18555e-10 4.96188e-27 -5.15542e-14)
(1.16724e-10 0 -4.99735e-14)
(1.1243e-10 0 -4.63641e-14)
(1.12187e-10 0 -4.61641e-14)
(1.07493e-10 4.96188e-27 -4.23818e-14)
(1.09628e-10 0 -4.40823e-14)
(1.04866e-10 0 -4.03357e-14)
(1.0885e-10 4.96188e-27 -4.34588e-14)
(1.03901e-10 -4.96188e-27 -3.95971e-14)
(1.09815e-10 0 -4.42329e-14)
(1.00713e-10 0 -3.72044e-14)
(1.17346e-10 0 -5.0508e-14)
(1.05771e-10 -4.96188e-27 -4.10352e-14)
(1.17803e-10 0 -5.09017e-14)
(1.11528e-10 0 -4.56231e-14)
(1.20187e-10 0 -5.2983e-14)
(1.18131e-10 -4.96188e-27 -5.11853e-14)
(1.21232e-10 0 -5.39084e-14)
(1.3169e-10 0 -6.36104e-14)
(1.28465e-10 0 -6.05325e-14)
(1.33755e-10 0 -6.56207e-14)
(1.38732e-10 0 -7.0595e-14)
(1.47061e-10 0 -7.93266e-14)
(1.5513e-10 4.96187e-27 -8.82695e-14)
(1.57068e-10 -4.96187e-27 -9.04885e-14)
(1.57338e-10 0 -9.08006e-14)
(1.68208e-10 0 -1.0378e-13)
(1.6786e-10 -4.96187e-27 -1.03351e-13)
(1.79175e-10 0 -1.17754e-13)
(1.78878e-10 0 -1.17364e-13)
(1.89433e-10 0 -1.31624e-13)
(1.90083e-10 -4.95915e-27 -1.32527e-13)
(1.99153e-10 0 -1.45478e-13)
(1.96142e-10 0 -1.41112e-13)
(2.13257e-10 -9.92375e-27 -1.66812e-13)
(2.17366e-10 0 -1.73302e-13)
(2.24229e-10 0 -1.84419e-13)
(2.24691e-10 0 -1.85179e-13)
(2.37741e-10 0 -2.07314e-13)
(2.42242e-10 0 -2.15238e-13)
(2.51875e-10 0 -2.32696e-13)
(2.58001e-10 0 -2.44155e-13)
(2.65259e-10 0 -2.58084e-13)
(2.72222e-10 0 -2.71812e-13)
(2.73643e-10 0 -2.74657e-13)
(2.92252e-10 0 -3.13282e-13)
(2.87985e-10 0 -3.04201e-13)
(2.9834e-10 0 -3.26471e-13)
(3.06051e-10 9.92374e-27 -3.43564e-13)
(3.08531e-10 0 -3.49155e-13)
(3.09588e-10 -9.92374e-27 -3.51551e-13)
(3.20097e-10 0 -3.75823e-13)
(3.25798e-10 0 -3.89329e-13)
(3.26527e-10 0 -3.91075e-13)
(3.29829e-10 9.92374e-27 -3.99024e-13)
(3.32392e-10 0 -4.05249e-13)
(3.33578e-10 0 -4.08146e-13)
(3.37505e-10 0 -4.17813e-13)
(3.3659e-10 0 -4.1555e-13)
(3.41726e-10 9.92374e-27 -4.28328e-13)
(3.40233e-10 9.92374e-27 -4.24593e-13)
(3.45226e-10 0 -4.37148e-13)
(3.39379e-10 0 -4.22466e-13)
(3.57648e-10 0 -4.69172e-13)
(3.47222e-10 0 -4.42217e-13)
(3.61026e-10 0 -4.78078e-13)
(3.55562e-10 0 -4.63717e-13)
(3.6212e-10 0 -4.8098e-13)
(3.70918e-10 0 -5.04635e-13)
(3.69743e-10 0 -5.01442e-13)
(3.71026e-10 0 -5.0493e-13)
(3.78828e-10 0 -5.26388e-13)
(3.84493e-10 0 -5.42248e-13)
(3.81286e-10 -9.92373e-27 -5.33241e-13)
(3.79262e-10 -9.92373e-27 -5.27594e-13)
(3.83037e-10 0 -5.3815e-13)
(3.81173e-10 9.92373e-27 -5.32924e-13)
(3.86172e-10 0 -5.46996e-13)
(3.76301e-10 0 -5.19389e-13)
(3.70097e-10 9.92373e-27 -5.02402e-13)
(3.72252e-10 9.91828e-27 -5.08272e-13)
(3.57147e-10 -9.92374e-27 -4.6786e-13)
(3.53671e-10 0 -4.58796e-13)
(3.39435e-10 0 -4.22606e-13)
(3.31682e-10 0 -4.03519e-13)
(3.2203e-10 -9.92374e-27 -3.80376e-13)
(3.00057e-10 9.91829e-27 -3.30239e-13)
(2.95573e-10 0 -3.20444e-13)
(2.82731e-10 0 -2.93202e-13)
(2.66217e-10 -9.92374e-27 -2.59951e-13)
(2.55053e-10 9.92374e-27 -2.38606e-13)
(2.40374e-10 0 -2.11931e-13)
(2.3263e-10 0 -1.98496e-13)
(2.12633e-10 0 -1.65837e-13)
(2.00703e-10 9.92375e-27 -1.4775e-13)
(1.91436e-10 0 -1.34422e-13)
(1.85921e-10 0 -1.26788e-13)
(1.70091e-10 0 -1.06116e-13)
(1.6083e-10 0 -9.48753e-14)
(1.59396e-10 0 -9.31913e-14)
(1.44449e-10 0 -7.6533e-14)
(1.37204e-10 4.96188e-27 -6.90486e-14)
(1.39194e-10 -4.95915e-27 -7.10659e-14)
(1.25575e-10 0 -5.78398e-14)
(1.20706e-10 0 -5.34417e-14)
(1.21222e-10 0 -5.38989e-14)
(1.22334e-10 4.96188e-27 -5.48932e-14)
(1.14662e-10 0 -4.82233e-14)
(1.11683e-10 0 -4.57507e-14)
(1.18584e-10 0 -5.15791e-14)
(1.09605e-10 0 -4.40636e-14)
(1.08501e-10 0 -4.31807e-14)
(1.14005e-10 0 -4.76726e-14)
(1.07672e-10 0 -4.25232e-14)
(1.11005e-10 0 -4.5197e-14)
(1.06396e-10 0 -4.15213e-14)
(1.08293e-10 0 -4.30154e-14)
(1.07659e-10 0 -4.25127e-14)
(1.06653e-10 -4.96188e-27 -4.17219e-14)
(1.10415e-10 0 -4.4717e-14)
(1.08997e-10 0 -4.35761e-14)
(1.18532e-10 -4.96188e-27 -5.15334e-14)
(1.05373e-10 0 -4.07269e-14)
(1.21319e-10 4.96188e-27 -5.3986e-14)
(1.16761e-10 0 -5.00051e-14)
(1.16124e-10 -4.96188e-27 -4.94614e-14)
(1.20813e-10 0 -5.35358e-14)
(1.27833e-10 0 -5.99387e-14)
(1.21607e-10 0 -5.42423e-14)
(1.227e-10 0 -5.52213e-14)
(1.25897e-10 0 -5.81369e-14)
(1.35084e-10 0 -6.6931e-14)
(1.27044e-10 0 -5.92006e-14)
(1.30008e-10 0 -6.19956e-14)
(1.30976e-10 0 -6.29219e-14)
(1.40722e-10 0 -7.26347e-14)
(1.27245e-10 0 -5.93882e-14)
(1.4396e-10 0 -7.60156e-14)
(1.38943e-10 0 -7.08101e-14)
(1.36803e-10 0 -6.86454e-14)
(1.40875e-10 0 -7.27928e-14)
(1.4329e-10 0 -7.53096e-14)
(1.44634e-10 4.96187e-27 -7.67296e-14)
(1.54353e-10 -4.96187e-27 -8.73875e-14)
(1.40147e-10 0 -7.20429e-14)
(1.56519e-10 0 -8.9858e-14)
(1.48595e-10 0 -8.09895e-14)
(1.61382e-10 0 -9.5528e-14)
(1.61598e-10 0 -9.57835e-14)
(1.557e-10 0 -8.89196e-14)
(1.61521e-10 0 -9.56926e-14)
(1.75425e-10 0 -1.12876e-13)
(1.72372e-10 0 -1.08982e-13)
(1.78702e-10 0 -1.17134e-13)
(1.95157e-10 0 -1.39698e-13)
(1.91376e-10 -4.96187e-27 -1.34336e-13)
(1.97241e-10 -9.92375e-27 -1.42697e-13)
(2.07272e-10 0 -1.57581e-13)
(2.13142e-10 0 -1.66632e-13)
(2.22294e-10 0 -1.81249e-13)
(2.28008e-10 0 -1.90687e-13)
(2.35983e-10 0 -2.0426e-13)
(2.40615e-10 -9.92374e-27 -2.12356e-13)
(2.46751e-10 0 -2.23327e-13)
(2.49984e-10 9.92374e-27 -2.29215e-13)
(2.53054e-10 0 -2.34881e-13)
(2.4849e-10 0 -2.26485e-13)
(2.62578e-10 0 -2.52893e-13)
(2.68151e-10 0 -2.63742e-13)
(2.66178e-10 0 -2.59876e-13)
(2.69589e-10 0 -2.66578e-13)
(2.66641e-10 0 -2.60781e-13)
(2.62882e-10 0 -2.5348e-13)
(2.715e-10 0 -2.70371e-13)
(2.78085e-10 -9.91829e-27 -2.83647e-13)
(2.69932e-10 0 -2.67257e-13)
(2.67635e-10 0 -2.62728e-13)
(2.72087e-10 0 -2.71541e-13)
(2.7848e-10 0 -2.84451e-13)
(2.5825e-10 0 -2.44625e-13)
(2.73905e-10 0 -2.75182e-13)
(2.64372e-10 0 -2.5636e-13)
(2.54865e-10 -9.92374e-27 -2.38254e-13)
(2.55658e-10 0 -2.3974e-13)
(2.54106e-10 -9.92374e-27 -2.36838e-13)
(2.31857e-10 0 -1.97179e-13)
(2.3908e-10 0 -2.09656e-13)
(2.27669e-10 0 -1.9012e-13)
(2.1156e-10 0 -1.64167e-13)
(2.10952e-10 0 -1.63226e-13)
(2.05884e-10 0 -1.55478e-13)
(1.82296e-10 0 -1.21892e-13)
(1.84587e-10 0 -1.24975e-13)
(1.69639e-10 4.96187e-27 -1.05554e-13)
(1.66505e-10 0 -1.0169e-13)
(1.60136e-10 4.96187e-27 -9.40581e-14)
(1.34294e-10 0 -6.61509e-14)
(1.37239e-10 0 -6.90835e-14)
(1.21352e-10 0 -5.40154e-14)
(1.05291e-10 0 -4.06631e-14)
(7.83095e-11 -2.48094e-27 -2.24931e-14)
(7.00928e-11 0 -1.80205e-14)
(4.9919e-11 0 -9.14013e-15)
(1.77125e-11 0 -1.15075e-15)
(-4.30937e-12 0 -6.81157e-17)
(-4.10255e-11 0 -6.17346e-15)
(-7.39211e-11 0 -2.00427e-14)
(-1.10823e-10 -4.95915e-27 -4.50486e-14)
(-1.2232e-10 0 -5.48802e-14)
(-1.59874e-10 4.96187e-27 -9.37507e-14)
(-1.92948e-10 0 -1.36553e-13)
(-2.07204e-10 -9.92375e-27 -1.57477e-13)
(-2.47002e-10 0 -2.23781e-13)
(-2.79414e-10 -9.92374e-27 -2.86363e-13)
(-3.01704e-10 0 -3.33875e-13)
(-3.29781e-10 0 -3.98907e-13)
(-3.74935e-10 0 -5.15625e-13)
(-3.98596e-10 1.98475e-26 -5.82757e-13)
(-4.3533e-10 -1.98365e-26 -6.95119e-13)
(-4.83678e-10 -1.98474e-26 -8.58094e-13)
(-4.64916e-10 -1.98474e-26 -7.92814e-13)
(-6.10752e-10 0 -1.36821e-12)
(-4.24737e-10 0 -6.61702e-13)
(-8.86404e-10 3.96728e-26 -2.88196e-12)
(-1.87031e-10 0 -1.28307e-13)
(-1.52884e-09 -3.96938e-26 -8.57347e-12)
(4.79979e-10 1.98474e-26 -8.45019e-13)
(-2.63111e-09 -7.93826e-26 -2.53945e-11)
(1.79775e-09 0 -1.18549e-11)
(-3.79887e-09 1.58662e-25 -5.29437e-11)
(3.82622e-09 0 -5.37088e-11)
(-4.62455e-09 1.58734e-25 -7.84665e-11)
(6.57228e-09 0 -1.58528e-10)
(-4.46764e-09 0 -7.32309e-11)
(9.83675e-09 0 -3.55378e-10)
(-2.46972e-09 0 -2.23743e-11)
(1.30731e-08 0 -6.28321e-10)
(2.01959e-09 0 -1.49614e-11)
(1.82242e-08 0 -1.2237e-09)
(1.10406e-08 -3.17038e-25 -4.47836e-10)
(3.14836e-08 1.25238e-24 -3.68554e-09)
(3.48691e-08 0 -4.5351e-09)
(7.25769e-08 0 -2.09268e-08)
(1.10113e-07 -4.03807e-24 -5.59595e-08)
(5.44365e-10 0 -1.08693e-12)
(5.45565e-10 1.98365e-26 -1.09173e-12)
(5.45865e-10 0 -1.09293e-12)
(5.44365e-10 -1.98474e-26 -1.08693e-12)
(5.45865e-10 0 -1.09293e-12)
(5.44365e-10 -1.98474e-26 -1.08693e-12)
(5.45865e-10 -1.98474e-26 -1.09293e-12)
(5.45565e-10 0 -1.09173e-12)
(5.44365e-10 0 -1.08693e-12)
(5.45865e-10 -1.98474e-26 -1.09293e-12)
)
;

boundaryField
{
    inlet
    {
        type            calculated;
        value           uniform (0 0 0);
    }
    endWall
    {
        type            calculated;
        value           uniform (0 0 0);
    }
    sideWall
    {
        type            empty;
    }
}


// ************************************************************************* //
