/*--------------------------------*- C++ -*----------------------------------*\
| =========                 |                                                 |
| \\      /  F ield         | foam-extend: Open Source CFD                    |
|  \\    /   O peration     | Version:     3.2                                |
|   \\  /    A nd           | Web:         http://www.foam-extend.org         |
|    \\/     M anipulation  | For copyright notice see file Copyright         |
\*---------------------------------------------------------------------------*/
FoamFile
{
    version     2.0;
    format      ascii;
    class       areaScalarField;
    location    "840";
    object      zCo;
}
// * * * * * * * * * * * * * * * * * * * * * * * * * * * * * * * * * * * * * //

dimensions      [0 1 0 0 0 0 0];

internalField   nonuniform List<scalar> 
550
(
-1.81818e-05
-5.45454e-05
-9.09091e-05
-0.000127273
-0.000163636
-0.0002
-0.000236364
-0.000272727
-0.000309091
-0.000345454
-0.000407625
-0.000412003
-0.000453755
-0.000502193
-0.000531261
-0.000552541
-0.000537717
-0.000599917
-0.000648604
-0.000608954
-0.000737942
-0.00073068
-0.000622794
-0.000748746
-0.000646622
-0.000416023
-0.000308636
-0.000340128
-0.000333061
-0.000321818
-0.000453
-0.000526063
-0.000651385
-0.00087976
-0.000890572
-0.000734017
-0.000727874
-0.000846039
-0.000971348
-0.00113195
-0.00128255
-0.00127821
-0.00115042
-0.00111077
-0.00111316
-0.00111966
-0.00121512
-0.0012698
-0.00123475
-0.00118886
-0.00119328
-0.00119489
-0.00111583
-0.000960824
-0.000765181
-0.000586328
-0.000419255
-0.000275316
-0.000138987
-8.35042e-06
9.94593e-05
0.00019749
0.000308529
0.000419996
0.000524605
0.000624535
0.00071669
0.00080712
0.000890645
0.000962174
0.00102523
0.00109056
0.00116543
0.00125574
0.00134778
0.00143215
0.0015042
0.00157697
0.0016509
0.00171481
0.00177502
0.00183958
0.00189122
0.00192357
0.00194614
0.00196471
0.00198831
0.00201573
0.0020287
0.00202272
0.00203734
0.00209476
0.0021704
0.00224332
0.00231457
0.00238709
0.00246265
0.00254279
0.00262833
0.00271766
0.00280856
0.00289937
0.00299019
0.00308162
0.00317384
0.00326614
0.00335774
0.00344822
0.00353748
0.00362588
0.00371385
0.00380182
0.00389004
0.00397864
0.00406736
0.00415613
0.00424436
0.00433144
0.00441755
0.00450276
0.00458657
0.00466869
0.00474964
0.00483016
0.00491071
0.00499133
0.00507192
0.0051522
0.00523217
0.00531162
0.00539064
0.00546903
0.00554685
0.00562395
0.00570045
0.00577606
0.00585097
0.00592488
0.00599799
0.00607001
0.00614111
0.00621091
0.00627956
0.0063469
0.00641321
0.0064781
0.00654184
0.00660406
0.00666506
0.00672447
0.00678265
0.00683923
0.00689452
0.00694812
0.00700041
0.00705096
0.00710013
0.00714751
0.00719362
0.007238
0.00728098
0.00732227
0.0073624
0.00740092
0.00743817
0.00747368
0.00750795
0.00754067
0.00757212
0.00760197
0.00763073
0.00765792
0.00768387
0.00770825
0.00773152
0.00775341
0.00777424
0.00779353
0.00781176
0.00782861
0.00784464
0.0078592
0.00787308
0.00788564
0.00789789
0.00790855
0.00791968
0.00792857
0.00793922
0.00794674
0.00795609
0.00796179
0.00796909
0.00797264
0.00797784
0.00797924
0.00798222
0.00798122
0.00798168
0.00797783
0.0079754
0.00796865
0.00796317
0.00795316
0.00794373
0.00793004
0.00791606
0.00789803
0.00787885
0.00785659
0.0078313
0.00780439
0.00777331
0.00774254
0.00770587
0.00767234
0.00763259
0.0075973
0.00755643
0.00751918
0.00747749
0.00743815
0.00739517
0.00735433
0.00731069
0.00726857
0.00722439
0.00718151
0.00713686
0.00709265
0.007047
0.00700183
0.0069554
0.00690897
0.00686153
0.00681437
0.00676656
0.00671915
0.00667151
0.00662407
0.00657641
0.00652938
0.00648204
0.00643505
0.00638834
0.00634193
0.00629545
0.00624934
0.00620364
0.00615814
0.00611289
0.00606816
0.00602378
0.00597994
0.00593652
0.00589367
0.00585122
0.00580962
0.00576868
0.00572826
0.00568862
0.0056498
0.00561182
0.00557463
0.00553841
0.0055034
0.00546923
0.00543607
0.00540403
0.00537302
0.0053431
0.00531408
0.00528621
0.00525962
0.00523409
0.00520939
0.00518574
0.00516301
0.0051414
0.00512114
0.00510189
0.00508349
0.00506611
0.00504994
0.00503449
0.00501988
0.00500618
0.00499323
0.00498108
0.00496957
0.00495872
0.00494845
0.00493876
0.00492952
0.0049207
0.00491225
0.00490417
0.00489632
0.00488868
0.00488119
0.00487386
0.00486662
0.00485947
0.00485235
0.00484525
0.00483813
0.0048311
0.00482383
0.00481639
0.00480894
0.00480129
0.00479356
0.00478562
0.00477764
0.00476921
0.00476053
0.00475179
0.0047427
0.00473317
0.00472309
0.00471268
0.0047022
0.00469134
0.00468014
0.00466857
0.00465663
0.00464435
0.00463169
0.00461871
0.00460553
0.00459188
0.00457752
0.0045628
0.00454782
0.00453241
0.0045164
0.00449993
0.00448293
0.00446548
0.00444755
0.00442935
0.00441048
0.00439114
0.00437158
0.00435143
0.00433094
0.00431033
0.00428933
0.0042678
0.00424604
0.00422415
0.00420207
0.00417987
0.00415749
0.00413501
0.00411239
0.00408965
0.0040668
0.00404397
0.00402073
0.00399722
0.0039736
0.00394971
0.00392578
0.00390134
0.00387664
0.00385193
0.00382693
0.00380148
0.00377595
0.00375059
0.00372517
0.00369968
0.0036741
0.00364868
0.00362379
0.00359903
0.00357471
0.00355101
0.0035279
0.00350552
0.00348373
0.00346298
0.00344311
0.00342383
0.00340553
0.00338815
0.00337163
0.00335585
0.00334101
0.00332723
0.00331415
0.00330157
0.0032897
0.00327866
0.00326798
0.00325785
0.00324846
0.00323924
0.00323041
0.0032222
0.00321414
0.00320602
0.00319811
0.00319056
0.00318289
0.00317528
0.00316801
0.00316059
0.00315319
0.0031459
0.00313865
0.00313149
0.00312429
0.00311715
0.00310991
0.00310259
0.00309501
0.00308754
0.00307998
0.00307204
0.00306427
0.00305638
0.00304808
0.00303977
0.00303162
0.00302333
0.00301463
0.00300589
0.00299732
0.00298862
0.00297955
0.00297062
0.00296158
0.00295214
0.00294295
0.00293369
0.00292421
0.00291461
0.00290464
0.00289482
0.00288493
0.00287476
0.00286442
0.00285365
0.00284307
0.00283249
0.00282126
0.00280966
0.00279795
0.00278549
0.0027726
0.00275964
0.00274615
0.00273213
0.00271761
0.0027026
0.00268713
0.00267124
0.00265498
0.00263842
0.00262165
0.00260492
0.00258788
0.00257018
0.00255236
0.0025345
0.00251662
0.00249897
0.00248115
0.00246282
0.00244454
0.00242662
0.00240863
0.00239027
0.00237237
0.00235462
0.00233667
0.00231936
0.00230234
0.00228534
0.00226914
0.00225343
0.00223787
0.00222322
0.00220914
0.00219524
0.00218229
0.00217006
0.00215825
0.00214704
0.00213615
0.00212633
0.00211727
0.00210865
0.0021011
0.00209497
0.00209002
0.00208602
0.00208377
0.00208332
0.00208483
0.00208866
0.00209483
0.0021026
0.00211201
0.00212377
0.00213711
0.00215226
0.00216982
0.00218919
0.00221025
0.00223375
0.00225954
0.00228735
0.002318
0.00234963
0.00238549
0.00242001
0.00246375
0.00249955
0.00255676
0.00259174
0.00266347
0.00269126
0.00275807
0.00275723
0.00278386
0.00271884
0.00264858
0.002469
0.00222277
0.00186824
0.00136401
0.000686311
-0.000292766
-0.00172616
-0.00397309
-0.00777635
-0.0150169
-0.0196545
-0.0196909
-0.0197273
-0.0197636
-0.0198
-0.0198363
-0.0198727
-0.0199091
-0.0199454
-0.0199818
)
;

boundaryField
{
    inlet
    {
        type            calculated;
        value           uniform 0;
    }
    endWall
    {
        type            calculated;
        value           uniform 0;
    }
    sideWall
    {
        type            empty;
    }
}


// ************************************************************************* //
