/*--------------------------------*- C++ -*----------------------------------*\
| =========                 |                                                 |
| \\      /  F ield         | foam-extend: Open Source CFD                    |
|  \\    /   O peration     | Version:     3.2                                |
|   \\  /    A nd           | Web:         http://www.foam-extend.org         |
|    \\/     M anipulation  | For copyright notice see file Copyright         |
\*---------------------------------------------------------------------------*/
FoamFile
{
    version     2.0;
    format      ascii;
    class       volScalarField;
    location    "840";
    object      zDim;
}
// * * * * * * * * * * * * * * * * * * * * * * * * * * * * * * * * * * * * * //

dimensions      [0 1 0 0 0 0 0];

internalField   nonuniform List<scalar> 
33000
(
0.00503636
0.00503637
0.00503636
0.00503636
0.00503636
0.00503636
0.00503635
0.00503624
0.00503563
0.00503519
0.0050711
0.00497325
0.00504027
0.00482431
0.00483428
0.00470151
0.00467187
0.00465047
0.0045767
0.00461515
0.00487313
0.00498636
0.00477058
0.00477676
0.00507339
0.00495614
0.00481899
0.00488198
0.00483878
0.0048163
0.00487274
0.00473075
0.0049814
0.00496018
0.00498766
0.00496453
0.00495225
0.00496738
0.00501395
0.00506106
0.00502359
0.00505032
0.00504179
0.00496248
0.0049798
0.0049928
0.00508736
0.00499682
0.00501377
0.00502047
0.0050293
0.005047
0.00510189
0.00520305
0.00518102
0.00517311
0.00515721
0.00512946
0.00514242
0.00511579
0.00509854
0.00509936
0.00512289
0.00509925
0.00510946
0.00508943
0.00509472
0.00508526
0.00508022
0.00506172
0.00506469
0.00506726
0.00508462
0.00509629
0.00508684
0.00508028
0.00506394
0.00508179
0.00506471
0.00506261
0.00505839
0.00506899
0.00503167
0.00503169
0.00501283
0.00502492
0.00502274
0.00503014
0.00500418
0.0050052
0.00503744
0.00507988
0.00507108
0.00507459
0.00506812
0.00507735
0.00507443
0.00508664
0.00508502
0.00509391
0.00508794
0.00509375
0.00508803
0.005095
0.00508952
0.00509505
0.00508804
0.00509281
0.00508565
0.00509114
0.00508484
0.00509117
0.00508535
0.00509191
0.00508558
0.00509193
0.00508441
0.00508965
0.00508248
0.00508776
0.00507966
0.00508444
0.00507741
0.00508364
0.0050775
0.00508375
0.00507741
0.00508312
0.00507674
0.0050821
0.00507586
0.00508084
0.0050747
0.0050794
0.00507347
0.00507766
0.00507201
0.00507569
0.00507036
0.00507352
0.00506848
0.00507094
0.00506616
0.00506835
0.00506403
0.00506555
0.00506168
0.00506254
0.00505919
0.00505941
0.00505667
0.00505625
0.00505404
0.00505292
0.00505134
0.00504951
0.0050485
0.00504603
0.00504587
0.0050426
0.00504305
0.0050393
0.00504065
0.00503612
0.00503805
0.00503271
0.00503551
0.00502965
0.00503294
0.00502651
0.00503069
0.00502341
0.00502816
0.00502034
0.00502589
0.00501763
0.00502369
0.00501462
0.00502153
0.00501192
0.0050198
0.00500912
0.00501833
0.00500663
0.00501752
0.00500373
0.00501807
0.00500169
0.00502091
0.00500588
0.00502381
0.0050124
0.00502626
0.00501915
0.00502879
0.00502598
0.00503117
0.00503318
0.00503329
0.00504097
0.00503533
0.00504884
0.00503706
0.00505708
0.00503754
0.00506493
0.00503646
0.00507253
0.0050339
0.00507843
0.00502806
0.00508189
0.00502034
0.00508188
0.0050098
0.00507686
0.00500612
0.00506944
0.00501142
0.00506349
0.00501917
0.00505974
0.00502561
0.00505626
0.00503054
0.00505382
0.00503415
0.0050517
0.00503725
0.00505114
0.00503985
0.00505045
0.00504213
0.00505062
0.005044
0.00505026
0.00504516
0.00504962
0.00504554
0.00504927
0.00504594
0.00504811
0.00504643
0.0050475
0.00504585
0.00504692
0.00504594
0.00504624
0.00504512
0.00504582
0.0050446
0.00504483
0.00504388
0.00504377
0.00504302
0.00504267
0.00504218
0.00504103
0.00504084
0.00503997
0.00503931
0.00503832
0.00503766
0.00503672
0.00503573
0.00503435
0.00503399
0.00503236
0.00503176
0.00503029
0.0050296
0.00502844
0.00502735
0.00502587
0.00502522
0.00502417
0.00502315
0.00502231
0.00502095
0.00501962
0.00501889
0.00501791
0.00501688
0.00501551
0.00501535
0.00501383
0.00501352
0.00501235
0.00501196
0.00501107
0.00501058
0.00500987
0.00500946
0.005009
0.00500857
0.00500822
0.00500789
0.00500776
0.00500742
0.0050074
0.00500712
0.00500724
0.00500697
0.0050072
0.00500692
0.00500719
0.00500665
0.00500765
0.00500702
0.00500772
0.00500739
0.0050079
0.00500781
0.00500797
0.00500862
0.00500853
0.00500882
0.00500918
0.00500966
0.00501021
0.00501038
0.0050104
0.00501107
0.00501116
0.00501185
0.00501185
0.00501255
0.0050126
0.00501319
0.00501306
0.00501404
0.00501437
0.00501488
0.00501491
0.00501576
0.00501603
0.00501665
0.00501708
0.00501762
0.00501805
0.00501821
0.00501932
0.00501917
0.00501976
0.0050203
0.00502052
0.00502055
0.00502124
0.00502161
0.00502174
0.00502193
0.00502212
0.00502216
0.00502239
0.00502235
0.0050227
0.00502258
0.00502291
0.0050226
0.00502372
0.00502319
0.00502398
0.00502371
0.00502408
0.00502464
0.0050246
0.00502464
0.00502516
0.0050255
0.00502536
0.00502524
0.0050255
0.0050254
0.0050257
0.00502503
0.00502459
0.00502471
0.00502377
0.00502349
0.00502259
0.00502206
0.00502145
0.00502002
0.0050197
0.00501882
0.00501779
0.00501702
0.00501601
0.00501551
0.00501422
0.00501332
0.00501273
0.00501232
0.00501136
0.00501069
0.00501054
0.00500966
0.00500912
0.00500918
0.00500832
0.00500801
0.005008
0.00500805
0.00500763
0.0050074
0.00500779
0.00500725
0.00500713
0.00500755
0.00500718
0.00500728
0.00500703
0.00500715
0.00500708
0.00500706
0.00500727
0.00500718
0.00500776
0.00500698
0.00500792
0.00500772
0.00500768
0.00500795
0.00500842
0.00500806
0.00500809
0.00500832
0.00500888
0.00500844
0.00500858
0.00500865
0.00500927
0.00500847
0.00500945
0.00500921
0.00500905
0.00500931
0.00500947
0.00500956
0.00501017
0.00500933
0.00501028
0.00500987
0.00501063
0.00501069
0.00501033
0.00501067
0.00501155
0.00501144
0.00501181
0.00501287
0.00501269
0.00501305
0.0050137
0.00501411
0.0050147
0.0050151
0.00501563
0.00501594
0.00501636
0.00501658
0.00501677
0.00501652
0.00501737
0.00501779
0.00501767
0.00501789
0.00501771
0.00501747
0.00501799
0.00501844
0.00501797
0.00501777
0.00501805
0.00501837
0.00501724
0.00501811
0.0050176
0.00501695
0.00501697
0.00501686
0.0050155
0.00501582
0.00501516
0.00501409
0.005014
0.00501367
0.00501209
0.00501222
0.00501129
0.00501104
0.00501062
0.005009
0.00500905
0.00500809
0.005007
0.00500527
0.00500462
0.00500334
0.00500125
0.00500037
0.00500281
0.00500501
0.00500736
0.00500825
0.00501072
0.00501285
0.00501391
0.00501655
0.00501864
0.00502016
0.00502211
0.00502503
0.00502666
0.00502919
0.00503209
0.0050316
0.00503977
0.00503041
0.00505577
0.00501867
0.00509251
0.00502257
0.00515491
0.00509933
0.0052184
0.00522008
0.00525734
0.00538739
0.00523329
0.00559246
0.0050952
0.00580427
0.00518879
0.00615061
0.00577885
0.00705217
0.00738832
0.0101697
0.0143841
0.00598279
0.00502581
0.00504084
0.00503756
0.00503697
0.00503661
0.00503658
0.00503651
0.00503636
0.00503643
0.00503636
0.00503637
0.00503635
0.00503634
0.00503633
0.00503636
0.00503646
0.00503551
0.00503184
0.00503961
0.00507073
0.00498143
0.0051039
0.00491079
0.00493508
0.00472528
0.00473176
0.0046752
0.00457859
0.00462455
0.00480362
0.00500192
0.00473261
0.00478585
0.00509997
0.00498916
0.00483395
0.0049123
0.00481676
0.00485322
0.00489713
0.00478352
0.0049955
0.00498033
0.00504217
0.00501223
0.00495573
0.0049898
0.00503076
0.00507097
0.00502588
0.00506329
0.00505688
0.00495747
0.004987
0.00499518
0.00507422
0.00500029
0.00502318
0.00502107
0.0050123
0.00505354
0.00511519
0.00519919
0.00518394
0.00517289
0.00515567
0.00513215
0.00513883
0.00511577
0.00509966
0.00510144
0.00511915
0.00510158
0.00510674
0.00509099
0.00509324
0.00508515
0.00507863
0.00506304
0.00506469
0.00506871
0.00508453
0.00509453
0.00508665
0.00507896
0.00506639
0.00507882
0.0050654
0.00506208
0.00505929
0.00506451
0.00503369
0.00502962
0.00501495
0.00502373
0.00502334
0.00502613
0.0050008
0.00500368
0.00503901
0.0050765
0.005072
0.00507368
0.0050693
0.00507641
0.0050757
0.00508562
0.00508584
0.00509265
0.0050887
0.00509268
0.00508886
0.00509385
0.00509018
0.00509384
0.0050887
0.00509162
0.00508639
0.00508998
0.00508561
0.00508999
0.00508612
0.00509066
0.00508633
0.00509057
0.00508512
0.00508837
0.00508316
0.00508638
0.00508035
0.0050832
0.00507815
0.00508241
0.0050782
0.00508248
0.00507806
0.00508187
0.00507735
0.00508088
0.00507642
0.00507964
0.00507522
0.00507822
0.00507392
0.00507653
0.00507238
0.00507461
0.00507065
0.0050725
0.00506868
0.00506997
0.0050663
0.00506744
0.00506407
0.00506473
0.00506164
0.00506179
0.00505905
0.00505875
0.0050564
0.00505569
0.00505369
0.00505244
0.00505087
0.00504912
0.00504793
0.00504575
0.00504516
0.00504243
0.00504225
0.00503923
0.00503973
0.00503616
0.005037
0.00503288
0.00503435
0.0050299
0.00503169
0.00502687
0.00502931
0.00502389
0.00502668
0.00502092
0.00502432
0.00501829
0.00502203
0.0050154
0.00501976
0.00501283
0.00501786
0.00501021
0.00501621
0.00500794
0.00501512
0.00500551
0.00501502
0.00500251
0.00501665
0.00500174
0.00501812
0.00500598
0.00501912
0.00501126
0.00502018
0.00501663
0.00502108
0.00502232
0.00502167
0.00502857
0.00502216
0.00503488
0.00502233
0.00504162
0.00502144
0.00504828
0.00501931
0.00505495
0.00501605
0.00506056
0.00501039
0.00506457
0.00500721
0.00506602
0.00500643
0.00506355
0.0050125
0.00505897
0.00501966
0.00505536
0.0050254
0.00505333
0.00503026
0.0050513
0.00503394
0.00504994
0.00503663
0.00504868
0.00503902
0.00504866
0.00504112
0.00504848
0.005043
0.00504896
0.00504457
0.00504891
0.00504548
0.0050485
0.0050457
0.00504827
0.00504594
0.00504737
0.00504623
0.00504685
0.00504563
0.00504632
0.00504562
0.00504571
0.00504483
0.00504524
0.0050443
0.00504432
0.00504353
0.00504332
0.00504264
0.00504225
0.00504174
0.0050407
0.00504038
0.00503959
0.0050389
0.00503796
0.00503724
0.00503633
0.00503532
0.00503405
0.00503351
0.00503206
0.00503132
0.00502997
0.00502918
0.00502807
0.00502695
0.00502556
0.0050248
0.0050238
0.00502278
0.00502189
0.00502059
0.00501929
0.00501848
0.00501752
0.00501647
0.00501522
0.00501487
0.00501355
0.00501305
0.00501199
0.00501147
0.00501073
0.00501016
0.00500946
0.005009
0.0050086
0.00500815
0.00500777
0.00500743
0.00500733
0.00500702
0.00500694
0.00500669
0.00500674
0.00500652
0.00500667
0.00500654
0.0050067
0.00500633
0.00500707
0.00500666
0.00500717
0.00500699
0.00500739
0.00500738
0.00500757
0.00500807
0.00500809
0.00500831
0.00500874
0.0050092
0.00500971
0.00500991
0.00500999
0.0050105
0.00501069
0.0050113
0.00501137
0.005012
0.00501212
0.00501261
0.00501267
0.00501351
0.00501385
0.00501434
0.00501444
0.00501523
0.00501558
0.00501616
0.00501655
0.0050171
0.00501749
0.00501777
0.00501869
0.00501875
0.00501924
0.00501974
0.00502002
0.00502007
0.00502072
0.00502106
0.00502121
0.00502139
0.00502161
0.0050217
0.00502191
0.00502187
0.0050222
0.00502214
0.00502235
0.00502218
0.00502304
0.00502273
0.00502335
0.00502322
0.00502357
0.00502409
0.00502413
0.00502416
0.00502467
0.00502497
0.00502484
0.00502474
0.00502493
0.00502488
0.00502517
0.00502461
0.00502419
0.00502419
0.00502338
0.00502301
0.00502217
0.00502158
0.00502096
0.0050196
0.00501921
0.00501832
0.00501731
0.00501656
0.00501555
0.00501496
0.00501383
0.00501289
0.0050123
0.00501179
0.00501091
0.00501026
0.00500997
0.00500919
0.00500869
0.00500866
0.00500786
0.00500753
0.00500752
0.00500747
0.00500712
0.00500693
0.00500723
0.0050068
0.0050066
0.00500691
0.00500672
0.00500674
0.00500652
0.00500662
0.00500653
0.00500654
0.00500673
0.00500672
0.00500715
0.00500659
0.00500729
0.00500718
0.00500717
0.00500743
0.00500778
0.00500756
0.00500758
0.00500778
0.00500826
0.00500791
0.00500803
0.00500816
0.00500859
0.00500805
0.0050088
0.0050087
0.00500855
0.0050087
0.00500886
0.005009
0.00500947
0.00500888
0.00500958
0.00500935
0.00500997
0.00501013
0.00500982
0.00501012
0.0050109
0.00501086
0.00501124
0.00501216
0.00501218
0.00501249
0.00501311
0.00501356
0.00501412
0.00501452
0.005015
0.00501537
0.00501573
0.00501601
0.00501618
0.005016
0.00501674
0.00501718
0.00501714
0.00501725
0.00501711
0.00501692
0.00501738
0.00501776
0.00501739
0.00501725
0.00501755
0.00501773
0.00501684
0.00501745
0.00501702
0.00501644
0.00501638
0.00501621
0.00501503
0.00501517
0.00501455
0.0050136
0.00501338
0.00501312
0.00501172
0.00501159
0.00501082
0.00501047
0.00501
0.00500857
0.00500841
0.00500751
0.00500641
0.0050048
0.00500405
0.00500275
0.00500077
0.00499995
0.00500226
0.00500453
0.00500677
0.00500786
0.0050102
0.00501223
0.00501352
0.00501599
0.0050181
0.00501972
0.00502172
0.00502442
0.00502622
0.00502871
0.00503123
0.0050318
0.00503779
0.00503269
0.00505013
0.00502716
0.00507691
0.00501265
0.00511993
0.00505263
0.0051569
0.00514496
0.00516527
0.005283
0.00511354
0.00546612
0.00504802
0.00567498
0.00529842
0.00602696
0.00587293
0.00692157
0.00743552
0.00988353
0.0134988
0.00697814
0.00515515
0.00506598
0.00504771
0.00504177
0.00503923
0.00503804
0.00503739
0.0050369
0.00503664
0.00503637
0.00503632
0.00503637
0.00503632
0.0050362
0.00503632
0.0050379
0.00503743
0.00502985
0.00503928
0.00506501
0.00505107
0.00516951
0.00506241
0.00505132
0.004835
0.00483585
0.00473448
0.00459512
0.00467652
0.00474559
0.00503808
0.00478347
0.00488856
0.00512315
0.00502322
0.00487978
0.0049524
0.00489927
0.00496358
0.00498416
0.00488349
0.00502771
0.00500721
0.00510276
0.00507163
0.00499201
0.00503883
0.00506721
0.00508879
0.0050302
0.00506746
0.00506666
0.00497197
0.00499105
0.00499744
0.00505866
0.00500016
0.00502749
0.0050224
0.00499724
0.00505865
0.00512362
0.00519328
0.00518506
0.00517169
0.0051541
0.00513446
0.0051355
0.00511603
0.00510137
0.0051031
0.00511554
0.00510333
0.00510426
0.00509221
0.00509178
0.00508473
0.00507725
0.00506441
0.00506494
0.00507001
0.00508401
0.00509243
0.0050861
0.00507792
0.00506841
0.00507595
0.00506582
0.00506162
0.00505948
0.00506022
0.00503538
0.00502809
0.00501686
0.00502264
0.00502326
0.00502259
0.00500012
0.00500508
0.00503983
0.00507264
0.00507228
0.00507285
0.00507022
0.00507554
0.00507658
0.00508453
0.00508626
0.00509128
0.0050891
0.0050916
0.00508934
0.00509262
0.00509048
0.00509259
0.00508904
0.00509043
0.00508677
0.00508882
0.00508599
0.00508875
0.00508647
0.00508939
0.00508665
0.00508914
0.00508545
0.00508697
0.00508342
0.00508496
0.00508059
0.00508189
0.00507855
0.00508109
0.00507843
0.00508105
0.00507824
0.00508048
0.00507754
0.00507952
0.00507652
0.0050783
0.00507526
0.00507684
0.00507393
0.00507519
0.0050723
0.00507339
0.00507047
0.00507125
0.00506846
0.00506882
0.00506606
0.00506624
0.0050637
0.00506362
0.00506116
0.00506074
0.0050585
0.00505777
0.00505577
0.00505477
0.00505294
0.00505159
0.00505003
0.00504834
0.00504702
0.00504507
0.00504413
0.00504184
0.00504114
0.00503872
0.00503849
0.00503571
0.00503567
0.00503256
0.00503292
0.00502964
0.00503019
0.00502669
0.00502767
0.00502378
0.00502498
0.00502092
0.00502253
0.00501832
0.00502013
0.00501554
0.00501779
0.00501307
0.00501575
0.00501063
0.00501395
0.00500853
0.00501262
0.00500644
0.00501202
0.00500417
0.00501262
0.005001
0.0050129
0.00500063
0.00501271
0.00500415
0.00501254
0.00500828
0.00501218
0.00501273
0.00501151
0.00501766
0.0050107
0.00502269
0.00500954
0.00502819
0.00500751
0.00503384
0.00500447
0.00503975
0.00500414
0.00504514
0.00500413
0.0050496
0.00500751
0.0050523
0.00501465
0.00505199
0.00502087
0.00504981
0.00502588
0.00504813
0.00503
0.0050475
0.00503356
0.0050467
0.00503621
0.00504621
0.00503815
0.00504568
0.00503994
0.0050461
0.00504163
0.00504633
0.00504317
0.00504705
0.00504449
0.00504725
0.00504519
0.00504706
0.00504532
0.00504692
0.00504542
0.00504623
0.00504552
0.0050458
0.00504494
0.00504531
0.00504482
0.00504475
0.00504409
0.00504425
0.00504353
0.00504339
0.00504272
0.00504242
0.00504182
0.00504138
0.00504084
0.00503993
0.0050395
0.00503876
0.00503804
0.00503715
0.0050364
0.0050355
0.00503447
0.00503331
0.0050326
0.00503131
0.00503045
0.0050292
0.00502833
0.00502726
0.00502612
0.0050248
0.00502395
0.00502298
0.00502197
0.00502103
0.00501977
0.00501852
0.00501764
0.00501668
0.00501563
0.00501447
0.00501394
0.00501279
0.00501215
0.00501119
0.0050106
0.00500989
0.00500929
0.00500862
0.00500813
0.00500772
0.00500727
0.00500689
0.00500657
0.00500642
0.00500615
0.00500602
0.00500581
0.00500581
0.00500564
0.00500572
0.00500565
0.00500573
0.00500551
0.00500603
0.00500582
0.00500617
0.0050061
0.00500641
0.00500645
0.00500665
0.00500707
0.00500717
0.00500737
0.00500778
0.00500823
0.00500871
0.00500892
0.00500905
0.0050095
0.00500976
0.00501027
0.00501046
0.00501097
0.00501117
0.00501158
0.00501177
0.00501247
0.00501288
0.00501331
0.00501351
0.00501418
0.0050146
0.00501513
0.00501555
0.00501608
0.00501648
0.00501683
0.0050176
0.00501779
0.00501824
0.00501871
0.00501899
0.00501913
0.00501968
0.00502003
0.00502022
0.0050204
0.0050206
0.00502071
0.00502088
0.00502091
0.00502116
0.00502116
0.00502131
0.00502127
0.00502192
0.00502181
0.00502227
0.00502225
0.00502256
0.00502302
0.00502311
0.00502319
0.00502363
0.00502392
0.00502384
0.00502376
0.00502389
0.0050239
0.00502409
0.00502363
0.00502324
0.00502312
0.00502245
0.00502199
0.00502122
0.0050206
0.00501992
0.00501873
0.00501819
0.00501735
0.00501637
0.00501557
0.00501462
0.00501395
0.00501288
0.00501195
0.00501132
0.00501077
0.00500994
0.0050093
0.00500892
0.00500822
0.00500773
0.00500757
0.00500689
0.00500654
0.00500648
0.00500641
0.0050061
0.00500593
0.00500612
0.00500578
0.0050056
0.00500581
0.00500568
0.00500566
0.00500549
0.00500555
0.00500548
0.00500549
0.00500562
0.00500568
0.00500598
0.00500563
0.00500613
0.0050061
0.00500609
0.00500638
0.00500664
0.00500646
0.00500651
0.00500669
0.00500711
0.00500686
0.0050069
0.0050071
0.00500739
0.00500706
0.00500758
0.00500756
0.00500751
0.00500763
0.00500778
0.00500794
0.00500828
0.00500791
0.00500841
0.00500834
0.00500877
0.00500894
0.00500877
0.00500901
0.00500971
0.00500978
0.00501017
0.00501089
0.00501105
0.00501134
0.0050119
0.00501238
0.00501293
0.00501339
0.00501381
0.00501423
0.00501455
0.00501481
0.00501501
0.00501493
0.00501552
0.00501594
0.00501603
0.0050161
0.00501597
0.00501584
0.00501622
0.00501656
0.00501624
0.00501613
0.00501634
0.00501646
0.00501579
0.0050162
0.00501585
0.00501536
0.00501521
0.00501501
0.00501402
0.00501399
0.00501338
0.00501257
0.00501223
0.00501182
0.00501069
0.00501034
0.00500972
0.00500929
0.00500878
0.00500754
0.00500723
0.00500637
0.00500526
0.00500375
0.00500287
0.0050016
0.00499968
0.0049989
0.00500118
0.00500347
0.00500555
0.00500684
0.00500908
0.00501103
0.00501254
0.00501484
0.00501696
0.0050186
0.00502063
0.00502316
0.00502515
0.00502756
0.00502989
0.00503119
0.0050355
0.00503368
0.005045
0.00503286
0.00506361
0.00502097
0.00509022
0.00501312
0.00510461
0.0050813
0.00508684
0.00519459
0.00502366
0.00535933
0.0051096
0.00556667
0.00539062
0.0059265
0.00595856
0.00682343
0.00749775
0.00965164
0.0125537
0.0077301
0.00541004
0.00512548
0.00507091
0.00505275
0.0050452
0.00504149
0.00503944
0.00503818
0.00503731
0.00503642
0.00503629
0.00503637
0.00503637
0.00503605
0.00503619
0.00504095
0.00504745
0.00503327
0.0050267
0.00504941
0.00509373
0.00522943
0.00522251
0.00522304
0.00501127
0.00493924
0.00479433
0.00464533
0.00477067
0.00483378
0.00512727
0.00491477
0.00500031
0.00516164
0.00508659
0.00496189
0.00496555
0.00500044
0.0050614
0.00508362
0.00500929
0.00510083
0.00506683
0.00517247
0.0051262
0.00504149
0.00509234
0.00511163
0.00511369
0.00504238
0.00506677
0.00507191
0.00499766
0.00499438
0.00500007
0.0050453
0.00499866
0.00502848
0.00502482
0.00499968
0.0050645
0.00512873
0.00518674
0.00518421
0.0051705
0.00515296
0.00513587
0.00513287
0.0051164
0.00510328
0.00510438
0.00511257
0.00510411
0.00510226
0.00509287
0.00509051
0.00508408
0.00507624
0.00506564
0.00506547
0.0050709
0.00508303
0.0050902
0.0050852
0.00507718
0.00506974
0.0050734
0.00506565
0.00506114
0.00505886
0.0050564
0.00503633
0.00502707
0.00501828
0.00502162
0.00502244
0.00501976
0.00500273
0.00500886
0.00504007
0.00506891
0.00507187
0.00507215
0.00507078
0.00507489
0.00507708
0.00508359
0.00508623
0.00509001
0.00508911
0.00509061
0.00508938
0.00509148
0.00509036
0.00509126
0.00508878
0.00508914
0.00508669
0.0050876
0.00508589
0.0050876
0.00508637
0.00508804
0.00508642
0.00508776
0.00508513
0.00508562
0.00508322
0.00508345
0.00508036
0.00508068
0.00507831
0.00507974
0.00507819
0.00507971
0.00507799
0.00507914
0.00507713
0.00507813
0.00507615
0.00507684
0.00507484
0.00507549
0.00507352
0.00507382
0.00507181
0.00507195
0.00506983
0.00506985
0.00506771
0.00506739
0.00506522
0.00506489
0.0050629
0.00506231
0.00506025
0.00505941
0.00505754
0.00505648
0.00505472
0.00505358
0.00505185
0.00505044
0.00504883
0.00504717
0.00504576
0.00504401
0.00504279
0.00504081
0.00503969
0.00503774
0.00503701
0.00503479
0.00503408
0.00503162
0.00503123
0.00502878
0.00502846
0.00502585
0.00502588
0.005023
0.00502309
0.0050202
0.00502065
0.00501768
0.00501821
0.00501496
0.00501576
0.00501257
0.00501362
0.00501021
0.00501177
0.00500824
0.00501029
0.00500637
0.0050093
0.00500451
0.00500921
0.00500209
0.00500865
0.00499905
0.00500762
0.00499874
0.00500662
0.00500188
0.00500539
0.00500546
0.00500388
0.00500952
0.00500215
0.00501365
0.00500009
0.00501829
0.00500007
0.00502328
0.00500033
0.00502857
0.00500396
0.00503385
0.00500943
0.00503866
0.00501512
0.00504214
0.00502103
0.00504335
0.00502571
0.00504289
0.00502929
0.00504247
0.00503229
0.00504284
0.00503497
0.00504284
0.00503697
0.00504289
0.00503838
0.0050429
0.00503983
0.00504357
0.00504125
0.00504416
0.00504257
0.00504496
0.00504369
0.00504536
0.00504429
0.00504537
0.00504437
0.00504522
0.00504434
0.0050447
0.00504432
0.00504437
0.00504374
0.00504388
0.00504353
0.00504335
0.00504284
0.00504282
0.00504225
0.00504207
0.00504147
0.00504104
0.00504052
0.00504008
0.0050395
0.00503874
0.00503816
0.00503748
0.00503672
0.0050359
0.00503511
0.00503418
0.00503317
0.00503208
0.00503127
0.00503007
0.0050292
0.00502799
0.00502709
0.00502595
0.00502481
0.00502365
0.0050227
0.00502166
0.00502069
0.00501971
0.00501848
0.00501735
0.00501636
0.00501544
0.00501432
0.00501325
0.0050126
0.00501156
0.00501084
0.00500995
0.00500928
0.0050086
0.00500798
0.00500733
0.00500683
0.00500639
0.00500595
0.00500556
0.00500524
0.00500506
0.00500481
0.00500465
0.00500447
0.00500442
0.00500429
0.00500433
0.00500428
0.00500431
0.0050042
0.00500456
0.00500448
0.00500473
0.00500473
0.00500498
0.00500505
0.00500525
0.00500561
0.00500575
0.00500596
0.00500634
0.00500679
0.00500723
0.00500747
0.00500764
0.00500803
0.00500834
0.00500878
0.00500903
0.00500948
0.00500974
0.00501009
0.00501035
0.00501096
0.00501139
0.0050118
0.00501209
0.00501267
0.00501313
0.00501364
0.00501407
0.00501457
0.00501498
0.00501538
0.00501604
0.00501631
0.00501674
0.0050172
0.00501748
0.00501768
0.00501816
0.00501851
0.00501871
0.00501889
0.00501908
0.00501922
0.00501936
0.00501944
0.00501963
0.00501968
0.00501979
0.00501984
0.00502033
0.00502035
0.0050207
0.00502078
0.00502106
0.00502146
0.00502159
0.0050217
0.00502209
0.00502236
0.00502232
0.00502227
0.00502237
0.0050224
0.00502251
0.00502213
0.00502177
0.00502156
0.00502097
0.00502045
0.00501975
0.00501912
0.00501838
0.00501731
0.00501667
0.00501585
0.00501491
0.00501407
0.00501315
0.00501242
0.00501141
0.0050105
0.00500983
0.00500923
0.00500846
0.00500782
0.00500737
0.00500672
0.00500624
0.00500598
0.00500539
0.00500503
0.00500493
0.00500483
0.00500456
0.00500441
0.0050045
0.00500423
0.00500406
0.00500419
0.00500411
0.00500406
0.00500392
0.00500394
0.00500389
0.00500391
0.00500401
0.0050041
0.00500429
0.00500411
0.00500446
0.00500448
0.0050045
0.00500474
0.00500496
0.00500485
0.0050049
0.00500507
0.00500539
0.00500524
0.00500527
0.00500546
0.00500567
0.00500549
0.00500586
0.00500589
0.00500586
0.00500597
0.0050061
0.00500628
0.00500653
0.00500633
0.00500667
0.0050067
0.00500705
0.00500721
0.00500713
0.00500737
0.00500794
0.00500811
0.00500848
0.00500912
0.00500934
0.00500965
0.00501016
0.00501066
0.00501118
0.00501164
0.00501207
0.00501249
0.0050128
0.00501307
0.00501325
0.00501326
0.00501376
0.00501416
0.00501428
0.00501434
0.00501424
0.00501417
0.00501447
0.00501474
0.00501453
0.00501443
0.00501458
0.00501464
0.00501417
0.00501438
0.00501409
0.00501366
0.00501347
0.00501319
0.0050124
0.0050122
0.00501163
0.00501089
0.00501049
0.00501001
0.00500904
0.00500858
0.005008
0.00500754
0.00500697
0.0050059
0.00500542
0.0050046
0.00500349
0.00500209
0.00500109
0.0049998
0.00499798
0.00499726
0.00499948
0.00500173
0.00500375
0.00500522
0.00500732
0.00500926
0.00501088
0.00501309
0.00501516
0.00501688
0.00501893
0.00502134
0.00502341
0.00502576
0.00502794
0.00502966
0.00503297
0.00503315
0.00504051
0.00503527
0.00505345
0.00503004
0.00506836
0.0050035
0.00506664
0.0050371
0.00502998
0.00513341
0.00501647
0.00528512
0.00517629
0.00549267
0.00545492
0.00586155
0.00602415
0.00676549
0.00754586
0.00943386
0.0117082
0.0082063
0.0057257
0.00522166
0.00510907
0.00507113
0.00505515
0.0050473
0.00504298
0.00504037
0.00503862
0.00503645
0.00503631
0.00503637
0.0050364
0.0050359
0.00503583
0.00504565
0.00506621
0.00505628
0.00500837
0.00498318
0.00506831
0.00527553
0.00538475
0.00540232
0.00518886
0.00503908
0.00483578
0.00477834
0.00494211
0.00501149
0.00515772
0.00497351
0.00502846
0.00516886
0.00516403
0.00511115
0.00509556
0.0051262
0.00519329
0.00521381
0.00513951
0.00516685
0.00513177
0.00524024
0.00518072
0.00512122
0.00516242
0.00516629
0.00514161
0.00505461
0.00505968
0.00507173
0.00501321
0.0049955
0.00500081
0.00503442
0.00499677
0.0050278
0.00502701
0.0050156
0.00506967
0.00513027
0.00518071
0.00518178
0.00516827
0.00515197
0.00513752
0.00513146
0.00511677
0.00510505
0.00510507
0.00511012
0.00510414
0.0051007
0.00509297
0.00508938
0.00508325
0.00507536
0.00506651
0.0050661
0.00507151
0.00508206
0.00508798
0.00508389
0.0050765
0.00507025
0.00507138
0.00506527
0.00506056
0.0050578
0.00505341
0.00503664
0.00502658
0.00501924
0.00502085
0.00502152
0.00501795
0.00500569
0.00501235
0.00503999
0.00506543
0.00507073
0.00507123
0.00507091
0.00507416
0.00507709
0.00508259
0.0050856
0.00508874
0.00508863
0.00508949
0.00508899
0.00509033
0.00508967
0.00509001
0.00508832
0.00508807
0.00508622
0.00508646
0.00508549
0.00508629
0.00508569
0.00508672
0.00508576
0.00508624
0.00508444
0.00508425
0.0050824
0.00508201
0.00507967
0.00507926
0.00507757
0.00507837
0.00507734
0.00507815
0.00507708
0.00507756
0.00507629
0.00507665
0.00507517
0.00507533
0.00507392
0.00507386
0.00507245
0.00507218
0.00507068
0.0050703
0.00506874
0.00506828
0.00506667
0.00506584
0.00506405
0.00506332
0.00506156
0.00506071
0.00505889
0.00505783
0.00505617
0.00505489
0.00505327
0.00505201
0.00505029
0.00504885
0.00504722
0.00504562
0.00504417
0.00504249
0.00504106
0.00503929
0.00503795
0.0050363
0.0050352
0.00503331
0.00503221
0.00503022
0.00502939
0.00502741
0.00502653
0.00502449
0.00502391
0.00502163
0.0050211
0.00501893
0.0050186
0.00501632
0.00501606
0.00501364
0.0050136
0.00501132
0.00501137
0.00500903
0.00500939
0.00500708
0.00500778
0.00500534
0.0050067
0.00500378
0.00500619
0.00500178
0.00500511
0.00499925
0.0050035
0.00499644
0.00500204
0.00499702
0.00500028
0.00500001
0.00499817
0.0050035
0.00499656
0.00500715
0.00499678
0.00501129
0.00499967
0.00501577
0.00500368
0.00502074
0.00500809
0.00502592
0.0050134
0.0050309
0.0050188
0.00503488
0.0050239
0.00503706
0.00502762
0.00503757
0.0050304
0.00503809
0.00503269
0.00503891
0.00503485
0.00503951
0.00503648
0.00503995
0.00503758
0.00504023
0.00503882
0.00504103
0.00504
0.00504181
0.00504124
0.00504272
0.00504224
0.00504319
0.0050427
0.0050433
0.00504283
0.00504323
0.00504275
0.00504281
0.0050426
0.00504254
0.00504208
0.00504208
0.00504181
0.00504159
0.00504117
0.00504104
0.00504059
0.00504028
0.00503979
0.00503939
0.00503879
0.00503834
0.00503769
0.00503706
0.00503641
0.00503576
0.00503506
0.00503417
0.00503341
0.00503255
0.00503146
0.00503041
0.00502954
0.00502834
0.00502746
0.00502626
0.0050254
0.00502427
0.00502304
0.00502197
0.00502102
0.00502007
0.00501899
0.00501799
0.00501672
0.00501566
0.0050146
0.00501374
0.0050126
0.00501157
0.00501083
0.00500986
0.00500908
0.00500822
0.00500751
0.0050068
0.00500625
0.00500559
0.00500505
0.00500457
0.0050042
0.00500379
0.00500344
0.00500321
0.00500305
0.00500285
0.00500267
0.00500258
0.00500246
0.00500245
0.00500241
0.00500249
0.00500244
0.00500268
0.00500266
0.00500284
0.00500289
0.00500309
0.0050032
0.00500341
0.00500365
0.00500385
0.00500411
0.00500443
0.00500483
0.00500533
0.00500557
0.00500577
0.00500614
0.00500638
0.00500681
0.00500714
0.00500748
0.00500782
0.00500813
0.0050084
0.00500895
0.0050094
0.0050098
0.00501017
0.00501066
0.00501121
0.00501169
0.00501215
0.00501255
0.00501301
0.00501338
0.00501403
0.00501432
0.00501478
0.00501517
0.00501543
0.00501574
0.00501612
0.00501651
0.00501676
0.00501686
0.00501712
0.00501721
0.00501738
0.0050174
0.00501761
0.00501764
0.0050178
0.00501788
0.00501825
0.00501834
0.00501862
0.00501874
0.00501903
0.0050194
0.00501958
0.00501976
0.00502004
0.00502035
0.00502031
0.00502025
0.0050203
0.00502034
0.00502047
0.00502015
0.0050198
0.00501954
0.00501901
0.00501846
0.00501777
0.0050171
0.00501632
0.00501537
0.00501467
0.00501383
0.00501295
0.0050121
0.00501117
0.00501041
0.00500945
0.00500854
0.00500781
0.00500722
0.00500641
0.00500581
0.00500533
0.00500475
0.00500419
0.0050039
0.00500341
0.00500298
0.00500287
0.00500276
0.00500244
0.00500231
0.00500236
0.00500216
0.00500203
0.0050021
0.00500202
0.00500196
0.00500182
0.00500177
0.00500178
0.00500173
0.00500185
0.00500197
0.00500211
0.00500202
0.00500226
0.0050023
0.00500233
0.00500255
0.00500274
0.00500269
0.00500273
0.00500289
0.00500315
0.00500307
0.00500309
0.00500326
0.00500342
0.00500334
0.0050036
0.00500367
0.00500366
0.00500375
0.00500388
0.00500405
0.00500425
0.00500415
0.0050044
0.00500449
0.00500478
0.00500493
0.0050049
0.00500514
0.00500563
0.00500585
0.00500624
0.00500678
0.00500708
0.00500739
0.00500786
0.00500836
0.00500888
0.00500933
0.00500976
0.00501016
0.00501048
0.00501075
0.00501093
0.00501102
0.00501144
0.0050118
0.00501195
0.00501201
0.00501193
0.0050119
0.00501216
0.00501235
0.00501221
0.00501214
0.00501225
0.00501226
0.00501191
0.00501199
0.00501175