/*--------------------------------*- C++ -*----------------------------------*\
| =========                 |                                                 |
| \\      /  F ield         | foam-extend: Open Source CFD                    |
|  \\    /   O peration     | Version:     3.2                                |
|   \\  /    A nd           | Web:         http://www.foam-extend.org         |
|    \\/     M anipulation  | For copyright notice see file Copyright         |
\*---------------------------------------------------------------------------*/
FoamFile
{
    version     2.0;
    format      ascii;
    class       areaScalarField;
    location    "840";
    object      zDimA;
}
// * * * * * * * * * * * * * * * * * * * * * * * * * * * * * * * * * * * * * //

dimensions      [0 1 0 0 0 0 0];

internalField   nonuniform List<scalar> 
550
(
0.00503636
0.00503637
0.00503636
0.00503636
0.00503636
0.00503636
0.00503635
0.00503624
0.00503563
0.00503519
0.0050711
0.00497325
0.00504027
0.00482431
0.00483428
0.00470151
0.00467187
0.00465047
0.0045767
0.00461515
0.00487313
0.00498636
0.00477058
0.00477676
0.00507339
0.00495614
0.00481899
0.00488198
0.00483878
0.0048163
0.00487274
0.00473075
0.0049814
0.00496018
0.00498766
0.00496453
0.00495225
0.00496738
0.00501395
0.00506106
0.00502359
0.00505032
0.00504179
0.00496248
0.0049798
0.0049928
0.00508736
0.00499682
0.00501377
0.00502047
0.0050293
0.005047
0.00510189
0.00520305
0.00518102
0.00517311
0.00515721
0.00512946
0.00514242
0.00511579
0.00509854
0.00509936
0.00512289
0.00509925
0.00510946
0.00508943
0.00509472
0.00508526
0.00508022
0.00506172
0.00506469
0.00506726
0.00508462
0.00509629
0.00508684
0.00508028
0.00506394
0.00508179
0.00506471
0.00506261
0.00505839
0.00506899
0.00503167
0.00503169
0.00501283
0.00502492
0.00502274
0.00503014
0.00500418
0.0050052
0.00503744
0.00507988
0.00507108
0.00507459
0.00506812
0.00507735
0.00507443
0.00508664
0.00508502
0.00509391
0.00508794
0.00509375
0.00508803
0.005095
0.00508952
0.00509505
0.00508804
0.00509281
0.00508565
0.00509114
0.00508484
0.00509117
0.00508535
0.00509191
0.00508558
0.00509193
0.00508441
0.00508965
0.00508248
0.00508776
0.00507966
0.00508444
0.00507741
0.00508364
0.0050775
0.00508375
0.00507741
0.00508312
0.00507674
0.0050821
0.00507586
0.00508084
0.0050747
0.0050794
0.00507347
0.00507766
0.00507201
0.00507569
0.00507036
0.00507352
0.00506848
0.00507094
0.00506616
0.00506835
0.00506403
0.00506555
0.00506168
0.00506254
0.00505919
0.00505941
0.00505667
0.00505625
0.00505404
0.00505292
0.00505134
0.00504951
0.0050485
0.00504603
0.00504587
0.0050426
0.00504305
0.0050393
0.00504065
0.00503612
0.00503805
0.00503271
0.00503551
0.00502965
0.00503294
0.00502651
0.00503069
0.00502341
0.00502816
0.00502034
0.00502589
0.00501763
0.00502369
0.00501462
0.00502153
0.00501192
0.0050198
0.00500912
0.00501833
0.00500663
0.00501752
0.00500373
0.00501807
0.00500169
0.00502091
0.00500588
0.00502381
0.0050124
0.00502626
0.00501915
0.00502879
0.00502598
0.00503117
0.00503318
0.00503329
0.00504097
0.00503533
0.00504884
0.00503706
0.00505708
0.00503754
0.00506493
0.00503646
0.00507253
0.0050339
0.00507843
0.00502806
0.00508189
0.00502034
0.00508188
0.0050098
0.00507686
0.00500612
0.00506944
0.00501142
0.00506349
0.00501917
0.00505974
0.00502561
0.00505626
0.00503054
0.00505382
0.00503415
0.0050517
0.00503725
0.00505114
0.00503985
0.00505045
0.00504213
0.00505062
0.005044
0.00505026
0.00504516
0.00504962
0.00504554
0.00504927
0.00504594
0.00504811
0.00504643
0.0050475
0.00504585
0.00504692
0.00504594
0.00504624
0.00504512
0.00504582
0.0050446
0.00504483
0.00504388
0.00504377
0.00504302
0.00504267
0.00504218
0.00504103
0.00504084
0.00503997
0.00503931
0.00503832
0.00503766
0.00503672
0.00503573
0.00503435
0.00503399
0.00503236
0.00503176
0.00503029
0.0050296
0.00502844
0.00502735
0.00502587
0.00502522
0.00502417
0.00502315
0.00502231
0.00502095
0.00501962
0.00501889
0.00501791
0.00501688
0.00501551
0.00501535
0.00501383
0.00501352
0.00501235
0.00501196
0.00501107
0.00501058
0.00500987
0.00500946
0.005009
0.00500857
0.00500822
0.00500789
0.00500776
0.00500742
0.0050074
0.00500712
0.00500724
0.00500697
0.0050072
0.00500692
0.00500719
0.00500665
0.00500765
0.00500702
0.00500772
0.00500739
0.0050079
0.00500781
0.00500797
0.00500862
0.00500853
0.00500882
0.00500918
0.00500966
0.00501021
0.00501038
0.0050104
0.00501107
0.00501116
0.00501185
0.00501185
0.00501255
0.0050126
0.00501319
0.00501306
0.00501404
0.00501437
0.00501488
0.00501491
0.00501576
0.00501603
0.00501665
0.00501708
0.00501762
0.00501805
0.00501821
0.00501932
0.00501917
0.00501976
0.0050203
0.00502052
0.00502055
0.00502124
0.00502161
0.00502174
0.00502193
0.00502212
0.00502216
0.00502239
0.00502235
0.0050227
0.00502258
0.00502291
0.0050226
0.00502372
0.00502319
0.00502398
0.00502371
0.00502408
0.00502464
0.0050246
0.00502464
0.00502516
0.0050255
0.00502536
0.00502524
0.0050255
0.0050254
0.0050257
0.00502503
0.00502459
0.00502471
0.00502377
0.00502349
0.00502259
0.00502206
0.00502145
0.00502002
0.0050197
0.00501882
0.00501779
0.00501702
0.00501601
0.00501551
0.00501422
0.00501332
0.00501273
0.00501232
0.00501136
0.00501069
0.00501054
0.00500966
0.00500912
0.00500918
0.00500832
0.00500801
0.005008
0.00500805
0.00500763
0.0050074
0.00500779
0.00500725
0.00500713
0.00500755
0.00500718
0.00500728
0.00500703
0.00500715
0.00500708
0.00500706
0.00500727
0.00500718
0.00500776
0.00500698
0.00500792
0.00500772
0.00500768
0.00500795
0.00500842
0.00500806
0.00500809
0.00500832
0.00500888
0.00500844
0.00500858
0.00500865
0.00500927
0.00500847
0.00500945
0.00500921
0.00500905
0.00500931
0.00500947
0.00500956
0.00501017
0.00500933
0.00501028
0.00500987
0.00501063
0.00501069
0.00501033
0.00501067
0.00501155
0.00501144
0.00501181
0.00501287
0.00501269
0.00501305
0.0050137
0.00501411
0.0050147
0.0050151
0.00501563
0.00501594
0.00501636
0.00501658
0.00501677
0.00501652
0.00501737
0.00501779
0.00501767
0.00501789
0.00501771
0.00501747
0.00501799
0.00501844
0.00501797
0.00501777
0.00501805
0.00501837
0.00501724
0.00501811
0.0050176
0.00501695
0.00501697
0.00501686
0.0050155
0.00501582
0.00501516
0.00501409
0.005014
0.00501367
0.00501209
0.00501222
0.00501129
0.00501104
0.00501062
0.005009
0.00500905
0.00500809
0.005007
0.00500527
0.00500462
0.00500334
0.00500125
0.00500037
0.00500281
0.00500501
0.00500736
0.00500825
0.00501072
0.00501285
0.00501391
0.00501655
0.00501864
0.00502016
0.00502211
0.00502503
0.00502666
0.00502919
0.00503209
0.0050316
0.00503977
0.00503041
0.00505577
0.00501867
0.00509251
0.00502257
0.00515491
0.00509933
0.0052184
0.00522008
0.00525734
0.00538739
0.00523329
0.00559246
0.0050952
0.00580427
0.00518879
0.00615061
0.00577885
0.00705217
0.00738832
0.0101697
0.0143841
0.00598279
0.00502581
0.00504084
0.00503756
0.00503697
0.00503661
0.00503658
0.00503651
0.00503636
0.00503643
)
;

boundaryField
{
    inlet
    {
        type            calculated;
        value           uniform 0;
    }
    endWall
    {
        type            calculated;
        value           uniform 0;
    }
    sideWall
    {
        type            empty;
    }
}


// ************************************************************************* //
