/*--------------------------------*- C++ -*----------------------------------*\
| =========                 |                                                 |
| \\      /  F ield         | foam-extend: Open Source CFD                    |
|  \\    /   O peration     | Version:     3.2                                |
|   \\  /    A nd           | Web:         http://www.foam-extend.org         |
|    \\/     M anipulation  | For copyright notice see file Copyright         |
\*---------------------------------------------------------------------------*/
FoamFile
{
    version     2.0;
    format      ascii;
    class       regIOobject;
    location    "2020/uniform";
    object      profilingInfo;
}
// * * * * * * * * * * * * * * * * * * * * * * * * * * * * * * * * * * * * * //

profilingInfo
(

    {
        id              33;
        parentId        30;
        description     "Foam::Time::writeObject - outputTime";
        calls           28;
        totalTime       2.15511;
        childTime       0;
        onStack         1;
    }

    {
        id              30;
        parentId        1;
        description     "Foam::Time::writeObject";
        calls           50000;
        totalTime       2.24406;
        childTime       2.15511;
        onStack         1;
    }

    {
        id              1;
        description     "application::main";
        calls           1;
        totalTime       4101.55;
        childTime       2300.12;
        onStack         1;
    }

    {
        id              32;
        parentId        31;
        description     "FO::fieldMinMax1::execute";
        calls           49999;
        totalTime       0.094415;
        childTime       0;
        onStack         0;
    }

    {
        id              7;
        parentId        6;
        description     "FO::fieldMinMax1::start";
        calls           1;
        totalTime       2.5e-05;
        childTime       0;
        onStack         0;
    }

    {
        id              15;
        parentId        1;
        description     "MULES::explicitSolve";
        calls           100000;
        totalTime       38.9994;
        childTime       0;
        onStack         0;
    }

    {
        id              6;
        parentId        5;
        description     "functionObjectList::read";
        calls           1;
        totalTime       7.6e-05;
        childTime       2.5e-05;
        onStack         0;
    }

    {
        id              34;
        parentId        1;
        description     "functionObjectList::read";
        calls           1;
        totalTime       3.2e-05;
        childTime       0;
        onStack         0;
    }

    {
        id              31;
        parentId        1;
        description     "functionObjects_.execute()";
        calls           49999;
        totalTime       0.268556;
        childTime       0.094415;
        onStack         0;
    }

    {
        id              5;
        parentId        1;
        description     "functionObjects_.start()";
        calls           1;
        totalTime       7.9e-05;
        childTime       7.6e-05;
        onStack         0;
    }

    {
        id              8;
        parentId        1;
        description     "fvMatrix::solve_C1";
        calls           50000;
        totalTime       22.5697;
        childTime       20.0283;
        onStack         0;
    }

    {
        id              11;
        parentId        1;
        description     "fvMatrix::solve_C2";
        calls           50000;
        totalTime       3.33735;
        childTime       1.99766;
        onStack         0;
    }

    {
        id              16;
        parentId        1;
        description     "fvMatrix::solve_U";
        calls           50000;
        totalTime       19.6459;
        childTime       12.0118;
        onStack         0;
    }

    {
        id              27;
        parentId        1;
        description     "fvMatrix::solve_k";
        calls           50000;
        totalTime       6.50606;
        childTime       4.45473;
        onStack         0;
    }

    {
        id              24;
        parentId        1;
        description     "fvMatrix::solve_omega";
        calls           50000;
        totalTime       11.5491;
        childTime       5.01187;
        onStack         0;
    }

    {
        id              2;
        parentId        1;
        description     "fvMatrix::solve_pcorr";
        calls           2;
        totalTime       0.039413;
        childTime       0.039242;
        onStack         0;
    }

    {
        id              21;
        parentId        1;
        description     "fvMatrix::solve_pd";
        calls           200000;
        totalTime       1883.67;
        childTime       1860.91;
        onStack         0;
    }

    {
        id              10;
        parentId        9;
        description     "lduMatrix::smoother_C1";
        calls           50000;
        totalTime       17.528;
        childTime       0;
        onStack         0;
    }

    {
        id              18;
        parentId        17;
        description     "lduMatrix::smoother_Ux";
        calls           49852;
        totalTime       2.94564;
        childTime       0;
        onStack         0;
    }

    {
        id              20;
        parentId        19;
        description     "lduMatrix::smoother_Uz";
        calls           50000;
        totalTime       4.86622;
        childTime       0;
        onStack         0;
    }

    {
        id              29;
        parentId        28;
        description     "lduMatrix::smoother_k";
        calls           49934;
        totalTime       2.53099;
        childTime       0;
        onStack         0;
    }

    {
        id              26;
        parentId        25;
        description     "lduMatrix::smoother_omega";
        calls           49883;
        totalTime       2.64342;
        childTime       0;
        onStack         0;
    }

    {
        id              9;
        parentId        8;
        description     "lduMatrix::solver_C1";
        calls           50000;
        totalTime       20.0283;
        childTime       17.528;
        onStack         0;
    }

    {
        id              12;
        parentId        11;
        description     "lduMatrix::solver_C2";
        calls           50000;
        totalTime       1.99766;
        childTime       0;
        onStack         0;
    }

    {
        id              17;
        parentId        16;
        description     "lduMatrix::solver_Ux";
        calls           50000;
        totalTime       5.29376;
        childTime       2.94564;
        onStack         0;
    }

    {
        id              19;
        parentId        16;
        description     "lduMatrix::solver_Uz";
        calls           50000;
        totalTime       6.71809;
        childTime       4.86622;
        onStack         0;
    }

    {
        id              4;
        parentId        3;
        description     "lduMatrix::solver_coarsestLevelCorr";
        calls           19;
        totalTime       0.035349;
        childTime       0;
        onStack         0;
    }

    {
        id              23;
        parentId        22;
        description     "lduMatrix::solver_coarsestLevelCorr";
        calls           764800;
        totalTime       1698.56;
        childTime       0;
        onStack         0;
    }

    {
        id              28;
        parentId        27;
        description     "lduMatrix::solver_k";
        calls           50000;
        totalTime       4.45473;
        childTime       2.53099;
        onStack         0;
    }

    {
        id              13;
        parentId        1;
        description     "lduMatrix::solver_motionUx";
        calls           50001;
        totalTime       38.227;
        childTime       0;
        onStack         0;
    }

    {
        id              14;
        parentId        1;
        description     "lduMatrix::solver_motionUz";
        calls           50001;
        totalTime       273.06;
        childTime       0;
        onStack         0;
    }

    {
        id              25;
        parentId        24;
        description     "lduMatrix::solver_omega";
        calls           50000;
        totalTime       5.01187;
        childTime       2.64342;
        onStack         0;
    }

    {
        id              3;
        parentId        2;
        description     "lduMatrix::solver_pcorr";
        calls           2;
        totalTime       0.039242;
        childTime       0.035349;
        onStack         0;
    }

    {
        id              22;
        parentId        21;
        description     "lduMatrix::solver_pd";
        calls           200000;
        totalTime       1860.91;
        childTime       1698.56;
        onStack         0;
    }
);


// ************************************************************************* //
