/*--------------------------------*- C++ -*----------------------------------*\
| =========                 |                                                 |
| \\      /  F ield         | foam-extend: Open Source CFD                    |
|  \\    /   O peration     | Version:     3.2                                |
|   \\  /    A nd           | Web:         http://www.foam-extend.org         |
|    \\/     M anipulation  | For copyright notice see file Copyright         |
\*---------------------------------------------------------------------------*/
FoamFile
{
    version     2.0;
    format      ascii;
    class       areaScalarField;
    location    "120";
    object      a;
}
// * * * * * * * * * * * * * * * * * * * * * * * * * * * * * * * * * * * * * //

dimensions      [1 -1 0 0 0 0 0];

internalField   nonuniform List<scalar> 
550
(
2.78678e-05
2.78678e-05
2.78678e-05
2.78678e-05
2.78678e-05
2.78678e-05
2.78678e-05
2.78678e-05
2.78678e-05
2.78678e-05
2.78678e-05
2.78678e-05
2.78678e-05
2.78678e-05
2.78678e-05
2.78678e-05
2.78678e-05
2.78678e-05
2.78678e-05
2.78678e-05
2.78678e-05
2.78678e-05
2.78678e-05
2.78678e-05
2.78678e-05
2.78678e-05
2.78678e-05
2.78678e-05
2.78678e-05
2.78002e-05
2.7802e-05
2.77991e-05
2.7791e-05
2.77792e-05
2.77661e-05
2.77525e-05
2.77394e-05
2.7727e-05
2.77157e-05
2.77054e-05
2.76963e-05
2.76884e-05
2.76816e-05
2.76757e-05
2.76707e-05
2.76664e-05
2.76627e-05
2.76597e-05
2.7657e-05
2.76547e-05
2.76524e-05
2.76502e-05
2.76479e-05
2.76454e-05
2.76427e-05
2.76398e-05
2.76368e-05
2.76337e-05
2.76305e-05
2.76274e-05
2.76242e-05
2.76211e-05
2.76179e-05
2.76147e-05
2.76116e-05
2.76085e-05
2.76053e-05
2.76022e-05
2.75991e-05
2.75961e-05
2.75933e-05
2.75906e-05
2.75881e-05
2.7586e-05
2.75842e-05
2.75826e-05
2.75812e-05
2.75802e-05
2.75795e-05
2.7579e-05
2.75788e-05
2.75787e-05
2.75787e-05
2.75786e-05
2.75784e-05
2.75781e-05
2.75776e-05
2.75769e-05
2.75761e-05
2.75751e-05
2.7574e-05
2.75728e-05
2.75717e-05
2.75707e-05
2.75699e-05
2.75692e-05
2.75686e-05
2.75682e-05
2.75679e-05
2.75675e-05
2.7567e-05
2.75664e-05
2.75657e-05
2.75648e-05
2.75638e-05
2.75627e-05
2.75616e-05
2.75603e-05
2.75591e-05
2.75578e-05
2.75566e-05
2.75553e-05
2.75541e-05
2.75529e-05
2.75517e-05
2.75505e-05
2.75494e-05
2.75484e-05
2.75474e-05
2.75465e-05
2.75457e-05
2.7545e-05
2.75445e-05
2.7544e-05
2.75437e-05
2.75434e-05
2.75433e-05
2.75432e-05
2.75432e-05
2.75432e-05
2.75433e-05
2.75435e-05
2.75437e-05
2.75438e-05
2.7544e-05
2.75441e-05
2.75443e-05
2.75444e-05
2.75445e-05
2.75446e-05
2.75447e-05
2.75448e-05
2.7545e-05
2.75451e-05
2.75453e-05
2.75455e-05
2.75458e-05
2.75461e-05
2.75465e-05
2.75469e-05
2.75473e-05
2.75479e-05
2.75485e-05
2.75491e-05
2.75499e-05
2.75508e-05
2.75517e-05
2.75528e-05
2.7554e-05
2.75552e-05
2.75566e-05
2.75581e-05
2.75596e-05
2.75613e-05
2.7563e-05
2.75647e-05
2.75664e-05
2.75681e-05
2.75699e-05
2.75715e-05
2.75732e-05
2.75747e-05
2.75762e-05
2.75775e-05
2.75786e-05
2.75795e-05
2.75802e-05
2.75807e-05
2.75808e-05
2.75807e-05
2.75802e-05
2.75794e-05
2.75784e-05
2.7577e-05
2.75752e-05
2.75732e-05
2.7571e-05
2.75684e-05
2.75655e-05
2.75624e-05
2.7559e-05
2.75553e-05
2.75514e-05
2.75472e-05
2.75427e-05
2.75379e-05
2.75329e-05
2.75277e-05
2.75222e-05
2.75165e-05
2.75106e-05
2.75045e-05
2.74983e-05
2.74919e-05
2.74855e-05
2.74791e-05
2.74729e-05
2.74666e-05
2.74603e-05
2.74538e-05
2.74473e-05
2.74406e-05
2.74339e-05
2.7427e-05
2.74201e-05
2.74132e-05
2.74062e-05
2.73993e-05
2.73925e-05
2.73857e-05
2.7379e-05
2.73724e-05
2.7366e-05
2.73598e-05
2.73539e-05
2.73482e-05
2.73428e-05
2.73378e-05
2.73332e-05
2.7329e-05
2.73252e-05
2.73219e-05
2.73192e-05
2.73169e-05
2.7315e-05
2.73137e-05
2.73129e-05
2.73126e-05
2.73127e-05
2.73133e-05
2.73143e-05
2.73157e-05
2.73175e-05
2.73197e-05
2.73222e-05
2.73251e-05
2.73284e-05
2.7332e-05
2.73359e-05
2.73401e-05
2.73447e-05
2.73496e-05
2.73548e-05
2.73602e-05
2.7366e-05
2.7372e-05
2.73783e-05
2.73848e-05
2.73915e-05
2.73983e-05
2.74053e-05
2.74124e-05
2.74197e-05
2.74271e-05
2.74346e-05
2.74422e-05
2.745e-05
2.74578e-05
2.74657e-05
2.74738e-05
2.74819e-05
2.74903e-05
2.74988e-05
2.75075e-05
2.75164e-05
2.75255e-05
2.75348e-05
2.75443e-05
2.7554e-05
2.75637e-05
2.75736e-05
2.75834e-05
2.75931e-05
2.76026e-05
2.76118e-05
2.76207e-05
2.76291e-05
2.7637e-05
2.76443e-05
2.76508e-05
2.76567e-05
2.76617e-05
2.76659e-05
2.76693e-05
2.76719e-05
2.76736e-05
2.76746e-05
2.76748e-05
2.76742e-05
2.76729e-05
2.76709e-05
2.76682e-05
2.76649e-05
2.7661e-05
2.76565e-05
2.76514e-05
2.76458e-05
2.76396e-05
2.76329e-05
2.76257e-05
2.7618e-05
2.76098e-05
2.7601e-05
2.75917e-05
2.75819e-05
2.75716e-05
2.75608e-05
2.75496e-05
2.75381e-05
2.75262e-05
2.75142e-05
2.7502e-05
2.74897e-05
2.74775e-05
2.74654e-05
2.74535e-05
2.74419e-05
2.74306e-05
2.74198e-05
2.74095e-05
2.73998e-05
2.73907e-05
2.73821e-05
2.73742e-05
2.73669e-05
2.73602e-05
2.7354e-05
2.73483e-05
2.7343e-05
2.73381e-05
2.73336e-05
2.73293e-05
2.73251e-05
2.73212e-05
2.73173e-05
2.73135e-05
2.73097e-05
2.73059e-05
2.73021e-05
2.72982e-05
2.72944e-05
2.72907e-05
2.7287e-05
2.72835e-05
2.72801e-05
2.7277e-05
2.72743e-05
2.72719e-05
2.72699e-05
2.72685e-05
2.72675e-05
2.72671e-05
2.72672e-05
2.72679e-05
2.72691e-05
2.72708e-05
2.7273e-05
2.72755e-05
2.72785e-05
2.72817e-05
2.72852e-05
2.72888e-05
2.72927e-05
2.72966e-05
2.73007e-05
2.73048e-05
2.7309e-05
2.73133e-05
2.73176e-05
2.73219e-05
2.73264e-05
2.73309e-05
2.73355e-05
2.73402e-05
2.73451e-05
2.73503e-05
2.73557e-05
2.73615e-05
2.73676e-05
2.7374e-05
2.73808e-05
2.73881e-05
2.73958e-05
2.74039e-05
2.74125e-05
2.74216e-05
2.7431e-05
2.74409e-05
2.74511e-05
2.74616e-05
2.74724e-05
2.74834e-05
2.74945e-05
2.75057e-05
2.75168e-05
2.75278e-05
2.75386e-05
2.7549e-05
2.7559e-05
2.75684e-05
2.75772e-05
2.75853e-05
2.75928e-05
2.75995e-05
2.76054e-05
2.76106e-05
2.76151e-05
2.76189e-05
2.7622e-05
2.76247e-05
2.76268e-05
2.76286e-05
2.763e-05
2.76311e-05
2.76321e-05
2.76328e-05
2.76334e-05
2.76338e-05
2.76341e-05
2.76342e-05
2.7634e-05
2.76337e-05
2.7633e-05
2.76319e-05
2.76304e-05
2.76284e-05
2.76259e-05
2.76227e-05
2.76189e-05
2.76144e-05
2.76093e-05
2.76034e-05
2.7597e-05
2.75898e-05
2.75821e-05
2.75738e-05
2.75649e-05
2.75555e-05
2.75456e-05
2.75351e-05
2.75243e-05
2.7513e-05
2.75014e-05
2.74896e-05
2.74777e-05
2.74656e-05
2.74535e-05
2.74415e-05
2.74295e-05
2.74177e-05
2.7406e-05
2.73944e-05
2.7383e-05
2.73717e-05
2.73605e-05
2.73494e-05
2.73383e-05
2.7327e-05
2.73157e-05
2.73041e-05
2.72923e-05
2.72801e-05
2.72677e-05
2.72549e-05
2.72419e-05
2.72286e-05
2.72152e-05
2.72017e-05
2.71882e-05
2.71749e-05
2.71618e-05
2.71491e-05
2.71368e-05
2.71252e-05
2.71142e-05
2.7104e-05
2.70946e-05
2.7086e-05
2.70784e-05
2.70716e-05
2.70658e-05
2.70609e-05
2.7057e-05
2.7054e-05
2.70517e-05
2.70501e-05
2.7049e-05
2.70483e-05
2.70479e-05
2.70476e-05
2.70475e-05
2.70476e-05
2.70477e-05
2.70479e-05
2.70482e-05
2.70486e-05
2.70492e-05
2.70499e-05
2.70509e-05
2.70519e-05
2.70532e-05
2.70546e-05
2.70562e-05
2.70581e-05
2.70602e-05
2.70625e-05
2.7065e-05
2.70678e-05
2.70707e-05
2.70739e-05
2.70773e-05
2.70809e-05
2.70848e-05
2.70887e-05
2.70929e-05
2.70971e-05
2.71014e-05
2.71058e-05
2.71101e-05
2.71145e-05
2.71187e-05
2.71224e-05
2.71251e-05
2.71252e-05
2.71214e-05
2.71088e-05
2.7087e-05
2.70202e-05
2.70602e-05
2.72641e-05
2.78678e-05
2.78678e-05
2.78678e-05
2.78678e-05
2.78678e-05
2.78678e-05
2.78678e-05
2.78678e-05
2.78678e-05
2.78678e-05
)
;

boundaryField
{
    inlet
    {
        type            calculated;
        value           uniform 0;
    }
    endWall
    {
        type            calculated;
        value           uniform 0;
    }
    sideWall
    {
        type            empty;
    }
}


// ************************************************************************* //
