/*--------------------------------*- C++ -*----------------------------------*\
| =========                 |                                                 |
| \\      /  F ield         | foam-extend: Open Source CFD                    |
|  \\    /   O peration     | Version:     3.2                                |
|   \\  /    A nd           | Web:         http://www.foam-extend.org         |
|    \\/     M anipulation  | For copyright notice see file Copyright         |
\*---------------------------------------------------------------------------*/
FoamFile
{
    version     2.0;
    format      ascii;
    class       areaVectorField;
    location    "120";
    object      aMeshCentreN;
}
// * * * * * * * * * * * * * * * * * * * * * * * * * * * * * * * * * * * * * //

dimensions      [0 0 0 0 0 0 0];

internalField   nonuniform List<vector> 
550
(
(0.00909091 0.01 -1.81818e-05)
(0.0272727 0.01 -5.45455e-05)
(0.0454545 0.01 -9.09091e-05)
(0.0636364 0.01 -0.000127273)
(0.0818182 0.01 -0.000163636)
(0.1 0.01 -0.0002)
(0.118182 0.01 -0.000236364)
(0.136364 0.01 -0.000272727)
(0.154545 0.01 -0.000309091)
(0.172727 0.01 -0.000345455)
(0.190909 0.01 -0.000381818)
(0.209091 0.01 -0.000418182)
(0.227273 0.01 -0.000454545)
(0.245455 0.01 -0.000490909)
(0.263636 0.01 -0.000527273)
(0.281818 0.01 -0.000563636)
(0.3 0.01 -0.0006)
(0.318182 0.01 -0.000636364)
(0.336364 0.01 -0.000672727)
(0.354545 0.01 -0.000709091)
(0.372727 0.01 -0.000745455)
(0.390909 0.01 -0.000781818)
(0.409091 0.01 -0.000818182)
(0.427273 0.01 -0.000854545)
(0.445455 0.01 -0.000890909)
(0.463636 0.01 -0.000927274)
(0.481818 0.01 -0.000963639)
(0.5 0.01 -0.001)
(0.518182 0.01 -0.0010372)
(0.536364 0.01 -0.00107273)
(0.554545 0.01 -0.00110163)
(0.572727 0.01 -0.00112352)
(0.590909 0.01 -0.00114062)
(0.609091 0.01 -0.00115616)
(0.627273 0.01 -0.0011726)
(0.645455 0.01 -0.0011904)
(0.663636 0.01 -0.00120978)
(0.681818 0.01 -0.00123064)
(0.7 0.01 -0.00125285)
(0.718182 0.01 -0.00127629)
(0.736364 0.01 -0.00130081)
(0.754545 0.01 -0.0013263)
(0.772727 0.01 -0.00135263)
(0.790909 0.01 -0.0013797)
(0.809091 0.01 -0.00140744)
(0.827273 0.01 -0.00143581)
(0.845455 0.01 -0.00146478)
(0.863636 0.01 -0.00149429)
(0.881818 0.01 -0.00152429)
(0.9 0.01 -0.00155472)
(0.918182 0.01 -0.00158553)
(0.936364 0.01 -0.00161665)
(0.954545 0.01 -0.00164805)
(0.972727 0.01 -0.00167969)
(0.990909 0.01 -0.00171153)
(1.00909 0.01 -0.00174357)
(1.02727 0.01 -0.00177578)
(1.04545 0.01 -0.00180818)
(1.06364 0.01 -0.00184073)
(1.08182 0.01 -0.00187342)
(1.1 0.01 -0.00190624)
(1.11818 0.01 -0.00193919)
(1.13636 0.01 -0.00197225)
(1.15455 0.01 -0.00200543)
(1.17273 0.01 -0.00203869)
(1.19091 0.01 -0.00207204)
(1.20909 0.01 -0.00210546)
(1.22727 0.01 -0.00213895)
(1.24545 0.01 -0.0021725)
(1.26364 0.01 -0.00220611)
(1.28182 0.01 -0.00223979)
(1.3 0.01 -0.00227354)
(1.31818 0.01 -0.00230736)
(1.33636 0.01 -0.00234125)
(1.35455 0.01 -0.00237519)
(1.37273 0.01 -0.00240918)
(1.39091 0.01 -0.00244321)
(1.40909 0.01 -0.00247727)
(1.42727 0.01 -0.00251138)
(1.44545 0.01 -0.00254553)
(1.46364 0.01 -0.00257971)
(1.48182 0.01 -0.00261391)
(1.5 0.01 -0.00264813)
(1.51818 0.01 -0.00268236)
(1.53636 0.01 -0.00271659)
(1.55455 0.01 -0.00275083)
(1.57273 0.01 -0.00278507)
(1.59091 0.01 -0.00281933)
(1.60909 0.01 -0.0028536)
(1.62727 0.01 -0.00288788)
(1.64545 0.01 -0.00292216)
(1.66364 0.01 -0.00295646)
(1.68182 0.01 -0.0029908)
(1.7 0.01 -0.00302517)
(1.71818 0.01 -0.00305958)
(1.73636 0.01 -0.00309402)
(1.75455 0.01 -0.0031285)
(1.77273 0.01 -0.00316302)
(1.79091 0.01 -0.00319752)
(1.80909 0.01 -0.00323201)
(1.82727 0.01 -0.00326646)
(1.84545 0.01 -0.00330087)
(1.86364 0.01 -0.00333524)
(1.88182 0.01 -0.00336957)
(1.9 0.01 -0.00340386)
(1.91818 0.01 -0.00343811)
(1.93636 0.01 -0.00347234)
(1.95455 0.01 -0.00350654)
(1.97273 0.01 -0.00354071)
(1.99091 0.01 -0.00357487)
(2.00909 0.01 -0.00360901)
(2.02727 0.01 -0.00364313)
(2.04545 0.01 -0.00367722)
(2.06364 0.01 -0.00371129)
(2.08182 0.01 -0.00374536)
(2.1 0.01 -0.00377943)
(2.11818 0.01 -0.0038135)
(2.13636 0.01 -0.00384757)
(2.15455 0.01 -0.00388165)
(2.17273 0.01 -0.00391574)
(2.19091 0.01 -0.00394985)
(2.20909 0.01 -0.00398397)
(2.22727 0.01 -0.0040181)
(2.24545 0.01 -0.00405225)
(2.26364 0.01 -0.00408642)
(2.28182 0.01 -0.00412061)
(2.3 0.01 -0.00415482)
(2.31818 0.01 -0.00418905)
(2.33636 0.01 -0.0042233)
(2.35455 0.01 -0.00425758)
(2.37273 0.01 -0.0042919)
(2.39091 0.01 -0.00432624)
(2.40909 0.01 -0.00436061)
(2.42727 0.01 -0.00439502)
(2.44545 0.01 -0.00442946)
(2.46364 0.01 -0.00446394)
(2.48182 0.01 -0.00449845)
(2.5 0.01 -0.00453301)
(2.51818 0.01 -0.00456761)
(2.53636 0.01 -0.00460224)
(2.55455 0.01 -0.00463692)
(2.57273 0.01 -0.00467164)
(2.59091 0.01 -0.00470641)
(2.60909 0.01 -0.00474121)
(2.62727 0.01 -0.00477606)
(2.64545 0.01 -0.00481096)
(2.66364 0.01 -0.0048459)
(2.68182 0.01 -0.00488088)
(2.7 0.01 -0.00491591)
(2.71818 0.01 -0.00495098)
(2.73636 0.01 -0.0049861)
(2.75455 0.01 -0.00502126)
(2.77273 0.01 -0.00505647)
(2.79091 0.01 -0.00509172)
(2.80909 0.01 -0.00512703)
(2.82727 0.01 -0.00516237)
(2.84545 0.01 -0.00519777)
(2.86364 0.01 -0.00523321)
(2.88182 0.01 -0.0052687)
(2.9 0.01 -0.00530424)
(2.91818 0.01 -0.00533982)
(2.93636 0.01 -0.00537546)
(2.95455 0.01 -0.00541114)
(2.97273 0.01 -0.00544687)
(2.99091 0.01 -0.00548265)
(3.00909 0.01 -0.00551847)
(3.02727 0.01 -0.00555434)
(3.04545 0.01 -0.00559025)
(3.06364 0.01 -0.00562621)
(3.08182 0.01 -0.00566221)
(3.1 0.01 -0.00569825)
(3.11818 0.01 -0.00573432)
(3.13636 0.01 -0.00577043)
(3.15455 0.01 -0.00580657)
(3.17273 0.01 -0.00584274)
(3.19091 0.01 -0.00587893)
(3.20909 0.01 -0.00591516)
(3.22727 0.01 -0.0059514)
(3.24545 0.01 -0.00598766)
(3.26364 0.01 -0.00602395)
(3.28182 0.01 -0.00606025)
(3.3 0.01 -0.00609658)
(3.31818 0.01 -0.00613292)
(3.33636 0.01 -0.00616928)
(3.35455 0.01 -0.00620565)
(3.37273 0.01 -0.00624205)
(3.39091 0.01 -0.00627845)
(3.40909 0.01 -0.00631487)
(3.42727 0.01 -0.00635131)
(3.44545 0.01 -0.00638775)
(3.46364 0.01 -0.00642421)
(3.48182 0.01 -0.00646068)
(3.5 0.01 -0.00649715)
(3.51818 0.01 -0.00653364)
(3.53636 0.01 -0.00657013)
(3.55455 0.01 -0.00660664)
(3.57273 0.01 -0.00664314)
(3.59091 0.01 -0.00667966)
(3.60909 0.01 -0.00671618)
(3.62727 0.01 -0.00675271)
(3.64545 0.01 -0.00678925)
(3.66364 0.01 -0.00682578)
(3.68182 0.01 -0.00686231)
(3.7 0.01 -0.00689884)
(3.71818 0.01 -0.00693534)
(3.73636 0.01 -0.00697183)
(3.75455 0.01 -0.00700829)
(3.77273 0.01 -0.00704472)
(3.79091 0.01 -0.00708111)
(3.80909 0.01 -0.00711748)
(3.82727 0.01 -0.00715383)
(3.84545 0.01 -0.00719016)
(3.86364 0.01 -0.00722648)
(3.88182 0.01 -0.00726279)
(3.9 0.01 -0.00729909)
(3.91818 0.01 -0.00733539)
(3.93636 0.01 -0.00737168)
(3.95455 0.01 -0.00740796)
(3.97273 0.01 -0.00744424)
(3.99091 0.01 -0.00748053)
(4.00909 0.01 -0.00751681)
(4.02727 0.01 -0.0075531)
(4.04545 0.01 -0.00758939)
(4.06364 0.01 -0.00762568)
(4.08182 0.01 -0.00766199)
(4.1 0.01 -0.0076983)
(4.11818 0.01 -0.00773463)
(4.13636 0.01 -0.00777097)
(4.15455 0.01 -0.00780733)
(4.17273 0.01 -0.0078437)
(4.19091 0.01 -0.00788009)
(4.20909 0.01 -0.0079165)
(4.22727 0.01 -0.00795292)
(4.24545 0.01 -0.00798936)
(4.26364 0.01 -0.00802583)
(4.28182 0.01 -0.00806231)
(4.3 0.01 -0.00809881)
(4.31818 0.01 -0.00813533)
(4.33636 0.01 -0.00817187)
(4.35455 0.01 -0.00820843)
(4.37273 0.01 -0.00824501)
(4.39091 0.01 -0.0082816)
(4.40909 0.01 -0.00831822)
(4.42727 0.01 -0.00835485)
(4.44545 0.01 -0.0083915)
(4.46364 0.01 -0.00842817)
(4.48182 0.01 -0.00846486)
(4.5 0.01 -0.00850156)
(4.51818 0.01 -0.00853828)
(4.53636 0.01 -0.00857502)
(4.55455 0.01 -0.00861178)
(4.57273 0.01 -0.00864856)
(4.59091 0.01 -0.00868536)
(4.60909 0.01 -0.00872217)
(4.62727 0.01 -0.00875899)
(4.64545 0.01 -0.00879583)
(4.66364 0.01 -0.00883269)
(4.68182 0.01 -0.00886956)
(4.7 0.01 -0.00890644)
(4.71818 0.01 -0.00894334)
(4.73636 0.01 -0.00898025)
(4.75455 0.01 -0.00901718)
(4.77273 0.01 -0.00905412)
(4.79091 0.01 -0.00909108)
(4.80909 0.01 -0.00912805)
(4.82727 0.01 -0.00916505)
(4.84545 0.01 -0.00920206)
(4.86364 0.01 -0.0092391)
(4.88182 0.01 -0.00927615)
(4.9 0.01 -0.00931323)
(4.91818 0.01 -0.00935033)
(4.93636 0.01 -0.00938745)
(4.95455 0.01 -0.00942459)
(4.97273 0.01 -0.00946176)
(4.99091 0.01 -0.00949894)
(5.00909 0.01 -0.00953614)
(5.02727 0.01 -0.00957335)
(5.04545 0.01 -0.00961057)
(5.06364 0.01 -0.0096478)
(5.08182 0.01 -0.00968503)
(5.1 0.01 -0.00972226)
(5.11818 0.01 -0.00975948)
(5.13636 0.01 -0.00979669)
(5.15455 0.01 -0.00983389)
(5.17273 0.01 -0.00987108)
(5.19091 0.01 -0.00990825)
(5.20909 0.01 -0.0099454)
(5.22727 0.01 -0.00998252)
(5.24545 0.01 -0.0100196)
(5.26364 0.01 -0.0100567)
(5.28182 0.01 -0.0100938)
(5.3 0.01 -0.0101308)
(5.31818 0.01 -0.0101678)
(5.33636 0.01 -0.0102048)
(5.35455 0.01 -0.0102417)
(5.37273 0.01 -0.0102786)
(5.39091 0.01 -0.0103155)
(5.40909 0.01 -0.0103524)
(5.42727 0.01 -0.0103893)
(5.44545 0.01 -0.0104261)
(5.46364 0.01 -0.0104629)
(5.48182 0.01 -0.0104997)
(5.5 0.01 -0.0105365)
(5.51818 0.01 -0.0105733)
(5.53636 0.01 -0.0106101)
(5.55455 0.01 -0.0106469)
(5.57273 0.01 -0.0106836)
(5.59091 0.01 -0.0107204)
(5.60909 0.01 -0.0107571)
(5.62727 0.01 -0.0107938)
(5.64545 0.01 -0.0108305)
(5.66364 0.01 -0.0108672)
(5.68182 0.01 -0.0109038)
(5.7 0.01 -0.0109405)
(5.71818 0.01 -0.0109771)
(5.73636 0.01 -0.0110137)
(5.75455 0.01 -0.0110504)
(5.77273 0.01 -0.011087)
(5.79091 0.01 -0.0111235)
(5.80909 0.01 -0.0111601)
(5.82727 0.01 -0.0111967)
(5.84545 0.01 -0.0112332)
(5.86364 0.01 -0.0112698)
(5.88182 0.01 -0.0113063)
(5.9 0.01 -0.0113428)
(5.91818 0.01 -0.0113794)
(5.93636 0.01 -0.0114159)
(5.95455 0.01 -0.0114524)
(5.97273 0.01 -0.0114889)
(5.99091 0.01 -0.0115254)
(6.00909 0.01 -0.0115619)
(6.02727 0.01 -0.0115984)
(6.04545 0.01 -0.0116349)
(6.06364 0.01 -0.0116714)
(6.08182 0.01 -0.0117079)
(6.1 0.01 -0.0117444)
(6.11818 0.01 -0.0117808)
(6.13636 0.01 -0.0118173)
(6.15455 0.01 -0.0118537)
(6.17273 0.01 -0.0118901)
(6.19091 0.01 -0.0119265)
(6.20909 0.01 -0.0119629)
(6.22727 0.01 -0.0119993)
(6.24545 0.01 -0.0120357)
(6.26364 0.01 -0.0120721)
(6.28182 0.01 -0.0121084)
(6.3 0.01 -0.0121448)
(6.31818 0.01 -0.0121812)
(6.33636 0.01 -0.0122175)
(6.35455 0.01 -0.0122539)
(6.37273 0.01 -0.0122902)
(6.39091 0.01 -0.0123266)
(6.40909 0.01 -0.0123629)
(6.42727 0.01 -0.0123993)
(6.44545 0.01 -0.0124357)
(6.46364 0.01 -0.0124721)
(6.48182 0.01 -0.0125085)
(6.5 0.01 -0.0125449)
(6.51818 0.01 -0.0125813)
(6.53636 0.01 -0.0126178)
(6.55455 0.01 -0.0126542)
(6.57273 0.01 -0.0126907)
(6.59091 0.01 -0.0127272)
(6.60909 0.01 -0.0127636)
(6.62727 0.01 -0.0128001)
(6.64545 0.01 -0.0128366)
(6.66364 0.01 -0.0128731)
(6.68182 0.01 -0.0129096)
(6.7 0.01 -0.0129461)
(6.71818 0.01 -0.0129826)
(6.73636 0.01 -0.013019)
(6.75455 0.01 -0.0130555)
(6.77273 0.01 -0.013092)
(6.79091 0.01 -0.0131284)
(6.80909 0.01 -0.0131649)
(6.82727 0.01 -0.0132013)
(6.84545 0.01 -0.0132378)
(6.86364 0.01 -0.0132742)
(6.88182 0.01 -0.0133107)
(6.9 0.01 -0.0133471)
(6.91818 0.01 -0.0133836)
(6.93636 0.01 -0.01342)
(6.95455 0.01 -0.0134565)
(6.97273 0.01 -0.013493)
(6.99091 0.01 -0.0135295)
(7.00909 0.01 -0.013566)
(7.02727 0.01 -0.0136026)
(7.04545 0.01 -0.0136391)
(7.06364 0.01 -0.0136757)
(7.08182 0.01 -0.0137123)
(7.1 0.01 -0.0137489)
(7.11818 0.01 -0.0137856)
(7.13636 0.01 -0.0138222)
(7.15455 0.01 -0.0138589)
(7.17273 0.01 -0.0138956)
(7.19091 0.01 -0.0139324)
(7.20909 0.01 -0.0139691)
(7.22727 0.01 -0.0140058)
(7.24545 0.01 -0.0140426)
(7.26364 0.01 -0.0140794)
(7.28182 0.01 -0.0141162)
(7.3 0.01 -0.014153)
(7.31818 0.01 -0.0141898)
(7.33636 0.01 -0.0142266)
(7.35455 0.01 -0.0142634)
(7.37273 0.01 -0.0143002)
(7.39091 0.01 -0.014337)
(7.40909 0.01 -0.0143738)
(7.42727 0.01 -0.0144106)
(7.44545 0.01 -0.0144473)
(7.46364 0.01 -0.0144841)
(7.48182 0.01 -0.0145208)
(7.5 0.01 -0.0145575)
(7.51818 0.01 -0.0145943)
(7.53636 0.01 -0.014631)
(7.55455 0.01 -0.0146677)
(7.57273 0.01 -0.0147043)
(7.59091 0.01 -0.014741)
(7.60909 0.01 -0.0147777)
(7.62727 0.01 -0.0148144)
(7.64545 0.01 -0.014851)
(7.66364 0.01 -0.0148877)
(7.68182 0.01 -0.0149244)
(7.7 0.01 -0.014961)
(7.71818 0.01 -0.0149977)
(7.73636 0.01 -0.0150344)
(7.75455 0.01 -0.0150711)
(7.77273 0.01 -0.0151078)
(7.79091 0.01 -0.0151445)
(7.80909 0.01 -0.0151812)
(7.82727 0.01 -0.0152179)
(7.84545 0.01 -0.0152546)
(7.86364 0.01 -0.0152913)
(7.88182 0.01 -0.015328)
(7.9 0.01 -0.0153647)
(7.91818 0.01 -0.0154013)
(7.93636 0.01 -0.015438)
(7.95455 0.01 -0.0154746)
(7.97273 0.01 -0.0155113)
(7.99091 0.01 -0.0155479)
(8.00909 0.01 -0.0155845)
(8.02727 0.01 -0.0156211)
(8.04545 0.01 -0.0156577)
(8.06364 0.01 -0.0156942)
(8.08182 0.01 -0.0157308)
(8.1 0.01 -0.0157673)
(8.11818 0.01 -0.0158039)
(8.13636 0.01 -0.0158404)
(8.15455 0.01 -0.0158769)
(8.17273 0.01 -0.0159134)
(8.19091 0.01 -0.0159499)
(8.20909 0.01 -0.0159864)
(8.22727 0.01 -0.0160229)
(8.24545 0.01 -0.0160594)
(8.26364 0.01 -0.0160959)
(8.28182 0.01 -0.0161324)
(8.3 0.01 -0.0161689)
(8.31818 0.01 -0.0162054)
(8.33636 0.01 -0.0162418)
(8.35455 0.01 -0.0162783)
(8.37273 0.01 -0.0163148)
(8.39091 0.01 -0.0163513)
(8.40909 0.01 -0.0163878)
(8.42727 0.01 -0.0164243)
(8.44545 0.01 -0.0164607)
(8.46364 0.01 -0.0164972)
(8.48182 0.01 -0.0165337)
(8.5 0.01 -0.0165701)
(8.51818 0.01 -0.0166066)
(8.53636 0.01 -0.016643)
(8.55455 0.01 -0.0166794)
(8.57273 0.01 -0.0167159)
(8.59091 0.01 -0.0167523)
(8.60909 0.01 -0.0167887)
(8.62727 0.01 -0.0168251)
(8.64545 0.01 -0.0168614)
(8.66364 0.01 -0.0168978)
(8.68182 0.01 -0.0169342)
(8.7 0.01 -0.0169706)
(8.71818 0.01 -0.0170071)
(8.73636 0.01 -0.0170435)
(8.75455 0.01 -0.0170799)
(8.77273 0.01 -0.0171164)
(8.79091 0.01 -0.0171529)
(8.80909 0.01 -0.0171894)
(8.82727 0.01 -0.0172259)
(8.84545 0.01 -0.0172624)
(8.86364 0.01 -0.0172989)
(8.88182 0.01 -0.0173355)
(8.9 0.01 -0.017372)
(8.91818 0.01 -0.0174086)
(8.93636 0.01 -0.0174452)
(8.95455 0.01 -0.0174818)
(8.97273 0.01 -0.0175185)
(8.99091 0.01 -0.0175551)
(9.00909 0.01 -0.0175917)
(9.02727 0.01 -0.0176283)
(9.04545 0.01 -0.0176649)
(9.06364 0.01 -0.0177015)
(9.08182 0.01 -0.0177381)
(9.1 0.01 -0.0177748)
(9.11818 0.01 -0.0178114)
(9.13636 0.01 -0.017848)
(9.15455 0.01 -0.0178846)
(9.17273 0.01 -0.0179212)
(9.19091 0.01 -0.0179578)
(9.20909 0.01 -0.0179944)
(9.22727 0.01 -0.018031)
(9.24545 0.01 -0.0180676)
(9.26364 0.01 -0.0181042)
(9.28182 0.01 -0.0181408)
(9.3 0.01 -0.0181773)
(9.31818 0.01 -0.0182139)
(9.33636 0.01 -0.0182505)
(9.35455 0.01 -0.0182871)
(9.37273 0.01 -0.0183237)
(9.39091 0.01 -0.0183603)
(9.40909 0.01 -0.0183968)
(9.42727 0.01 -0.0184334)
(9.44545 0.01 -0.01847)
(9.46364 0.01 -0.0185066)
(9.48182 0.01 -0.0185432)
(9.5 0.01 -0.0185797)
(9.51818 0.01 -0.0186163)
(9.53636 0.01 -0.0186528)
(9.55455 0.01 -0.0186893)
(9.57273 0.01 -0.0187258)
(9.59091 0.01 -0.0187622)
(9.60909 0.01 -0.0187984)
(9.62727 0.01 -0.0188345)
(9.64545 0.01 -0.0188702)
(9.66364 0.01 -0.0189055)
(9.68182 0.01 -0.0189401)
(9.7 0.01 -0.0189737)
(9.71818 0.01 -0.0190059)
(9.73636 0.01 -0.0190361)
(9.75455 0.01 -0.0190663)
(9.77273 0.01 -0.0190945)
(9.79091 0.01 -0.0192367)
(9.80909 0.01 -0.0195014)
(9.82727 0.01 -0.0196545)
(9.84545 0.01 -0.0196909)
(9.86364 0.01 -0.0197273)
(9.88182 0.01 -0.0197636)
(9.9 0.01 -0.0198)
(9.91818 0.01 -0.0198364)
(9.93636 0.01 -0.0198727)
(9.95455 0.01 -0.0199091)
(9.97273 0.01 -0.0199455)
(9.99091 0.01 -0.0199818)
)
;

boundaryField
{
    inlet
    {
        type            calculated;
        value           uniform (0 0 0);
    }
    endWall
    {
        type            calculated;
        value           uniform (0 0 0);
    }
    sideWall
    {
        type            empty;
    }
}


// ************************************************************************* //
