/*--------------------------------*- C++ -*----------------------------------*\
| =========                 |                                                 |
| \\      /  F ield         | foam-extend: Open Source CFD                    |
|  \\    /   O peration     | Version:     3.2                                |
|   \\  /    A nd           | Web:         http://www.foam-extend.org         |
|    \\/     M anipulation  | For copyright notice see file Copyright         |
\*---------------------------------------------------------------------------*/
FoamFile
{
    version     2.0;
    format      ascii;
    class       volScalarField;
    location    "120";
    object      C1;
}
// * * * * * * * * * * * * * * * * * * * * * * * * * * * * * * * * * * * * * //

dimensions      [1 -3 0 0 0 0 0];

internalField   nonuniform List<scalar> 
33000
(
0.0261
0.0261
0.0261
0.0261
0.0261
0.0261
0.0261
0.0261
0.0261
0.0261
0.0261
0.0261
0.0261
0.0261
0.0261
0.0261
0.0261
0.0261
0.0261
0.0261
0.0261
0.0261
0.0261
0.0261
0.0261
0.0261
0.0261001
0.0261192
0.026118
0.0261304
0.0261723
0.0262055
0.026233
0.0262552
0.0262725
0.0262853
0.0262939
0.0262986
0.0263
0.0262984
0.0262942
0.0262877
0.0262793
0.0262692
0.0262577
0.026245
0.0262313
0.0262166
0.0262013
0.0261853
0.0261688
0.0261519
0.0261347
0.0261174
0.0260999
0.0260823
0.0260648
0.0260473
0.02603
0.0260128
0.0259958
0.025979
0.0259624
0.025946
0.0259298
0.0259139
0.0258981
0.0258826
0.0258673
0.0258523
0.0258374
0.0258227
0.0258083
0.025794
0.0257799
0.025766
0.0257523
0.0257387
0.0257254
0.0257121
0.0256991
0.0256861
0.0256733
0.0256606
0.0256481
0.0256356
0.0256232
0.0256109
0.0255987
0.0255865
0.0255744
0.0255623
0.0255503
0.0255383
0.0255263
0.0255143
0.0255024
0.0254904
0.0254784
0.0254665
0.0254545
0.0254425
0.0254304
0.0254183
0.0254062
0.025394
0.0253817
0.0253694
0.025357
0.0253445
0.025332
0.0253193
0.0253066
0.0252937
0.0252808
0.0252678
0.0252547
0.0252414
0.0252281
0.0252147
0.0252012
0.0251875
0.0251738
0.02516
0.0251461
0.0251321
0.0251181
0.0251039
0.0250897
0.0250754
0.025061
0.0250466
0.0250321
0.0250175
0.0250029
0.0249882
0.0249735
0.0249587
0.0249439
0.0249291
0.0249143
0.0248994
0.0248845
0.0248696
0.0248546
0.0248397
0.0248248
0.0248098
0.0247949
0.02478
0.0247651
0.0247502
0.0247354
0.0247206
0.0247058
0.024691
0.0246763
0.0246617
0.024647
0.0246325
0.024618
0.0246035
0.0245891
0.0245748
0.0245606
0.0245464
0.0245324
0.0245184
0.0245045
0.0244907
0.024477
0.0244633
0.0244498
0.0244364
0.0244231
0.0244099
0.0243968
0.0243838
0.0243709
0.0243582
0.0243455
0.0243329
0.0243205
0.0243081
0.0242959
0.0242838
0.0242718
0.0242598
0.024248
0.0242363
0.0242247
0.0242133
0.0242019
0.0241906
0.0241794
0.0241683
0.0241573
0.0241465
0.0241357
0.024125
0.0241145
0.024104
0.0240936
0.0240833
0.0240731
0.024063
0.0240529
0.0240429
0.0240329
0.0240231
0.0240132
0.0240034
0.0239937
0.023984
0.0239744
0.0239648
0.0239553
0.0239458
0.0239363
0.0239269
0.0239175
0.0239081
0.0238988
0.0238895
0.0238802
0.023871
0.0238618
0.0238527
0.0238435
0.0238344
0.0238254
0.0238163
0.0238073
0.0237983
0.0237894
0.0237804
0.0237715
0.0237626
0.0237537
0.0237449
0.023736
0.0237272
0.0237183
0.0237095
0.0237006
0.0236918
0.0236829
0.0236741
0.0236652
0.0236563
0.0236474
0.0236385
0.0236295
0.0236205
0.0236115
0.0236024
0.0235934
0.0235842
0.0235751
0.0235659
0.0235567
0.0235475
0.0235382
0.0235289
0.0235196
0.0235103
0.023501
0.0234916
0.0234823
0.0234729
0.0234636
0.0234543
0.023445
0.0234357
0.0234264
0.0234171
0.0234078
0.0233986
0.0233893
0.0233801
0.0233709
0.0233618
0.0233526
0.0233435
0.0233344
0.0233253
0.0233162
0.0233072
0.0232982
0.0232892
0.0232802
0.0232712
0.0232622
0.0232533
0.0232443
0.0232354
0.0232265
0.0232176
0.0232087
0.0231998
0.0231909
0.023182
0.0231732
0.0231644
0.0231556
0.0231468
0.023138
0.0231292
0.0231204
0.0231117
0.023103
0.0230943
0.0230856
0.0230769
0.0230683
0.0230596
0.023051
0.0230424
0.0230338
0.0230253
0.0230167
0.0230082
0.0229996
0.0229911
0.0229826
0.0229741
0.0229655
0.022957
0.0229485
0.0229399
0.0229314
0.0229229
0.0229143
0.0229058
0.0228972
0.0228886
0.0228801
0.0228715
0.0228629
0.0228543
0.0228457
0.0228371
0.0228286
0.02282
0.0228114
0.0228028
0.0227943
0.0227857
0.0227772
0.0227687
0.0227602
0.0227517
0.0227433
0.0227348
0.0227264
0.022718
0.0227097
0.0227013
0.022693
0.0226847
0.0226765
0.0226683
0.0226601
0.0226519
0.0226438
0.0226357
0.0226276
0.0226196
0.0226116
0.0226036
0.0225956
0.0225877
0.0225797
0.0225718
0.0225639
0.022556
0.0225482
0.0225403
0.0225324
0.0225245
0.0225166
0.0225087
0.0225008
0.0224928
0.0224849
0.0224769
0.0224689
0.0224609
0.0224528
0.0224447
0.0224366
0.0224285
0.0224203
0.0224121
0.0224039
0.0223956
0.0223873
0.0223789
0.0223706
0.0223621
0.0223537
0.0223453
0.0223368
0.0223282
0.0223197
0.0223111
0.0223026
0.0222939
0.0222853
0.0222767
0.022268
0.0222594
0.0222507
0.022242
0.0222333
0.0222245
0.0222157
0.0222069
0.0221981
0.0221893
0.0221804
0.0221715
0.0221626
0.0221536
0.0221446
0.0221356
0.0221266
0.0221176
0.0221085
0.0220994
0.0220903
0.0220812
0.0220721
0.022063
0.0220539
0.0220448
0.0220357
0.0220265
0.0220174
0.0220083
0.0219992
0.0219901
0.021981
0.0219719
0.0219628
0.0219537
0.0219446
0.0219356
0.0219265
0.0219174
0.0219084
0.0218993
0.0218903
0.0218813
0.0218723
0.0218632
0.0218542
0.0218452
0.0218362
0.0218273
0.0218183
0.0218093
0.0218003
0.0217913
0.0217824
0.0217734
0.0217645
0.0217555
0.0217466
0.0217377
0.0217288
0.0217199
0.021711
0.0217022
0.0216933
0.0216845
0.0216756
0.0216668
0.0216579
0.0216491
0.0216403
0.0216315
0.0216227
0.0216139
0.0216051
0.0215963
0.0215876
0.0215788
0.0215701
0.0215613
0.0215526
0.0215438
0.0215351
0.0215264
0.0215176
0.0215089
0.0215003
0.0214916
0.021483
0.0214743
0.0214657
0.0214572
0.0214486
0.02144
0.0214315
0.021423
0.0214145
0.021406
0.0213975
0.0213891
0.0213806
0.0213722
0.0213637
0.0213553
0.0213469
0.0213385
0.0213301
0.0213216
0.0213132
0.0213048
0.0212964
0.021288
0.0212795
0.0212711
0.0212626
0.0212542
0.0212457
0.0212371
0.0212284
0.0212195
0.0212104
0.0212009
0.0211908
0.02118
0.0211681
0.0211545
0.0211401
0.0211211
0.0211007
0.0211698
0.0212297
0.0212823
0.0213282
0.0213669
0.0214013
0.0214287
0.0214603
0.0216618
0.0218623
0.0218713
0.0261
0.0261
0.0261
0.0261
0.0261
0.0261
0.0261
0.0261
0.0261
0.0261
0.0261
0.0261
0.0261
0.0261
0.0261
0.0261
0.0261
0.0261
0.0261
0.0261
0.0261
0.0261
0.0261
0.0261
0.0261
0.0261
0.0261
0.0261008
0.0261014
0.0261025
0.026105
0.0261087
0.0261133
0.0261186
0.0261241
0.0261298
0.0261355
0.0261409
0.026146
0.0261506
0.0261548
0.0261583
0.0261613
0.0261636
0.0261653
0.0261663
0.0261667
0.0261664
0.0261655
0.026164
0.0261619
0.0261592
0.026156
0.0261522
0.026148
0.0261433
0.0261382
0.0261328
0.026127
0.0261209
0.0261146
0.026108
0.0261013
0.0260943
0.0260872
0.02608
0.0260726
0.0260651
0.0260575
0.0260498
0.026042
0.0260342
0.0260262
0.0260182
0.0260101
0.026002
0.0259938
0.0259856
0.0259773
0.025969
0.0259606
0.0259522
0.0259438
0.0259353
0.0259267
0.0259181
0.0259094
0.0259007
0.025892
0.0258831
0.0258743
0.0258653
0.0258563
0.0258472
0.025838
0.0258287
0.0258193
0.0258099
0.0258003
0.0257907
0.0257809
0.0257711
0.0257612
0.0257512
0.0257411
0.0257309
0.0257206
0.0257102
0.0256997
0.0256892
0.0256785
0.0256678
0.025657
0.0256461
0.0256352
0.0256241
0.025613
0.0256018
0.0255906
0.0255793
0.0255679
0.0255564
0.0255449
0.0255334
0.0255218
0.0255101
0.0254984
0.0254866
0.0254748
0.025463
0.0254511
0.0254391
0.0254272
0.0254152
0.0254032
0.0253911
0.0253791
0.025367
0.0253548
0.0253427
0.0253306
0.0253184
0.0253062
0.0252941
0.0252819
0.0252697
0.0252575
0.0252453
0.0252331
0.0252209
0.0252088
0.0251966
0.0251844
0.0251723
0.0251602
0.025148
0.025136
0.0251239
0.0251118
0.0250998
0.0250878
0.0250759
0.0250639
0.025052
0.0250402
0.0250284
0.0250166
0.0250049
0.0249932
0.0249816
0.02497
0.0249584
0.024947
0.0249355
0.0249242
0.0249129
0.0249016
0.0248904
0.0248793
0.0248682
0.0248572
0.0248462
0.0248354
0.0248245
0.0248138
0.0248031
0.0247924
0.0247819
0.0247714
0.0247609
0.0247505
0.0247402
0.02473
0.0247198
0.0247096
0.0246996
0.0246896
0.0246797
0.0246698
0.02466
0.0246503
0.0246406
0.024631
0.0246215
0.0246121
0.0246027
0.0245934
0.0245841
0.024575
0.0245659
0.0245568
0.0245479
0.024539
0.0245301
0.0245213
0.0245126
0.024504
0.0244953
0.0244868
0.0244783
0.0244698
0.0244614
0.024453
0.0244447
0.0244364
0.0244282
0.0244199
0.0244118
0.0244036
0.0243955
0.0243873
0.0243792
0.0243711
0.024363
0.0243549
0.0243468
0.0243387
0.0243306
0.0243224
0.0243142
0.0243059
0.0242977
0.0242894
0.024281
0.0242726
0.0242641
0.0242556
0.024247
0.0242384
0.0242297
0.024221
0.0242121
0.0242033
0.0241943
0.0241853
0.0241762
0.0241671
0.0241579
0.0241486
0.0241393
0.0241299
0.0241205
0.024111
0.0241015
0.0240919
0.0240823
0.0240727
0.0240631
0.0240534
0.0240437
0.0240341
0.0240244
0.0240147
0.024005
0.0239954
0.0239857
0.0239761
0.0239665
0.0239569
0.0239473
0.0239377
0.0239282
0.0239187
0.0239092
0.0238997
0.0238903
0.0238809
0.0238715
0.0238621
0.0238528
0.0238435
0.0238343
0.0238251
0.0238159
0.0238068
0.0237977
0.0237886
0.0237796
0.0237706
0.0237616
0.0237527
0.0237438
0.023735
0.0237262
0.0237174
0.0237086
0.0236999
0.0236913
0.0236826
0.023674
0.0236655
0.0236569
0.0236484
0.02364
0.0236315
0.0236231
0.0236148
0.0236065
0.0235982
0.0235899
0.0235817
0.0235735
0.0235653
0.0235572
0.0235491
0.023541
0.023533
0.0235249
0.0235169
0.0235089
0.0235009
0.023493
0.0234851
0.0234771
0.0234692
0.0234614
0.0234535
0.0234457
0.0234378
0.02343
0.0234223
0.0234145
0.0234068
0.0233991
0.0233914
0.0233837
0.0233761
0.0233685
0.0233609
0.0233534
0.0233459
0.0233384
0.023331
0.0233236
0.0233163
0.0233089
0.0233016
0.0232944
0.0232871
0.0232799
0.0232728
0.0232656
0.0232585
0.0232515
0.0232445
0.0232375
0.0232305
0.0232236
0.0232167
0.0232098
0.0232029
0.0231961
0.0231893
0.0231825
0.0231757
0.0231689
0.0231621
0.0231553
0.0231484
0.0231415
0.0231346
0.0231277
0.0231207
0.0231137
0.0231066
0.0230995
0.0230923
0.0230851
0.0230778
0.0230704
0.023063
0.0230555
0.0230479
0.0230403
0.0230326
0.0230248
0.023017
0.0230091
0.0230012
0.0229932
0.0229851
0.022977
0.0229688
0.0229606
0.0229524
0.0229441
0.0229357
0.0229274
0.022919
0.0229105
0.0229021
0.0228936
0.0228851
0.0228766
0.0228681
0.0228595
0.022851
0.0228424
0.0228338
0.0228252
0.0228166
0.022808
0.0227993
0.0227907
0.0227821
0.0227734
0.0227647
0.0227561
0.0227474
0.0227388
0.0227301
0.0227214
0.0227128
0.0227041
0.0226955
0.0226868
0.0226782
0.0226696
0.0226609
0.0226523
0.0226438
0.0226352
0.0226266
0.0226181
0.0226096
0.0226011
0.0225926
0.0225841
0.0225757
0.0225673
0.0225589
0.0225505
0.0225422
0.0225339
0.0225256
0.0225173
0.0225091
0.0225008
0.0224927
0.0224845
0.0224764
0.0224683
0.0224602
0.0224521
0.0224441
0.0224361
0.0224281
0.0224201
0.0224122
0.0224043
0.0223964
0.0223885
0.0223807
0.0223729
0.0223651
0.0223574
0.0223496
0.0223419
0.0223342
0.0223266
0.0223189
0.0223113
0.0223037
0.0222961
0.0222886
0.022281
0.0222735
0.022266
0.0222585
0.022251
0.0222435
0.022236
0.0222286
0.0222211
0.0222137
0.0222063
0.0221989
0.0221915
0.0221841
0.0221768
0.0221695
0.0221622
0.0221549
0.0221476
0.0221403
0.0221331
0.0221259
0.0221187
0.0221115
0.0221043
0.0220971
0.02209
0.0220828
0.0220757
0.0220685
0.0220614
0.0220543
0.0220471
0.02204
0.0220328
0.0220256
0.0220185
0.0220113
0.022004
0.0219968
0.0219895
0.0219822
0.0219748
0.0219674
0.0219598
0.0219521
0.0219442
0.021936
0.0219274
0.0219183
0.0219085
0.0218985
0.0218828
0.0218599
0.0218443
0.0218299
0.021813
0.0217894
0.0217607
0.0217222
0.021666
0.021618
0.021652
0.0218355
0.0218717
0.0261
0.0261
0.0261
0.0261
0.0261
0.0261
0.0261
0.0261
0.0261
0.0261
0.0261
0.0261
0.0261
0.0261
0.0261
0.0261
0.0261
0.0261
0.0261
0.0261
0.0261
0.0261
0.0261
0.0261
0.0261
0.0261
0.0261
0.0261
0.0261001
0.0261002
0.0261004
0.0261007
0.0261012
0.026102
0.0261029
0.0261041
0.0261054
0.026107
0.0261086
0.0261104
0.0261123
0.0261142
0.0261161
0.0261181
0.02612
0.0261218
0.0261235
0.026125
0.0261264
0.0261276
0.0261285
0.0261293
0.0261297
0.0261299
0.0261299
0.0261295
0.0261288
0.0261279
0.0261266
0.0261251
0.0261233
0.0261213
0.026119
0.0261165
0.0261137
0.0261107
0.0261074
0.026104
0.0261003
0.0260964
0.0260923
0.026088
0.0260835
0.0260788
0.026074
0.0260689
0.0260636
0.0260582
0.0260526
0.0260468
0.0260408
0.0260346
0.0260283
0.0260218
0.0260151
0.0260082
0.0260012
0.025994
0.0259866
0.025979
0.0259713
0.0259635
0.0259554
0.0259472
0.0259389
0.0259303
0.0259217
0.0259129
0.025904
0.0258949
0.0258857
0.0258764
0.025867
0.0258575
0.0258479
0.0258381
0.0258283
0.0258184
0.0258084
0.0257983
0.0257881
0.0257779
0.0257676
0.0257573
0.0257469
0.0257364
0.0257259
0.0257154
0.0257048
0.0256942
0.0256835
0.0256728
0.0256621
0.0256514
0.0256406
0.0256298
0.025619
0.0256082
0.0255974
0.0255866
0.0255757
0.0255649
0.025554
0.0255432
0.0255323
0.0255215
0.0255106
0.0254998
0.0254889
0.0254781
0.0254672
0.0254564
0.0254455
0.0254347
0.0254239
0.0254131
0.0254023
0.0253915
0.0253807
0.02537
0.0253592
0.0253485
0.0253378
0.0253271
0.0253164
0.0253057
0.0252951
0.0252844
0.0252738
0.0252632
0.0252527
0.0252421
0.0252316
0.0252211
0.0252106
0.0252002
0.0251898
0.0251794
0.0251691
0.0251588
0.0251485
0.0251383
0.0251281
0.0251179
0.0251078
0.0250977
0.0250876
0.0250776
0.0250676
0.0250577
0.0250478
0.025038
0.0250282
0.0250184
0.0250087
0.024999
0.0249894
0.0249798
0.0249703
0.0249608
0.0249514
0.024942
0.0249327
0.0249234
0.0249142
0.024905
0.0248958
0.0248868
0.0248777
0.0248688
0.0248599
0.024851
0.0248422
0.0248334
0.0248247
0.0248161
0.0248075
0.024799
0.0247906
0.0247822
0.0247738
0.0247656
0.0247574
0.0247492
0.0247411
0.0247331
0.0247251
0.0247171
0.0247093
0.0247014
0.0246936
0.0246859
0.0246782
0.0246705
0.0246629
0.0246553
0.0246477
0.0246401
0.0246325
0.024625
0.0246174
0.0246097
0.0246021
0.0245944
0.0245866
0.0245788
0.024571
0.024563
0.024555
0.0245469
0.0245388
0.0245305
0.0245221
0.0245137
0.0245052
0.0244966
0.0244878
0.024479
0.0244702
0.0244612
0.0244521
0.024443
0.0244337
0.0244244
0.024415
0.0244056
0.0243961
0.0243865
0.0243768
0.0243671
0.0243573
0.0243475
0.0243376
0.0243277
0.0243177
0.0243078
0.0242978
0.0242878
0.0242778
0.0242677
0.0242577
0.0242477
0.0242377
0.0242278
0.0242178
0.0242079
0.024198
0.0241882
0.0241783
0.0241686
0.0241588
0.0241491
0.0241394
0.0241298
0.0241202
0.0241107
0.0241012
0.0240917
0.0240823
0.024073
0.0240637
0.0240544
0.0240452
0.0240361
0.0240269
0.0240179
0.0240089
0.0239999
0.023991
0.0239821
0.0239733
0.0239646
0.0239559
0.0239472
0.0239386
0.02393
0.0239215
0.023913
0.0239046
0.0238962
0.0238879
0.0238796
0.0238714
0.0238632
0.023855
0.0238469
0.0238389
0.0238308
0.0238229
0.0238149
0.023807
0.0237992
0.0237914
0.0237836
0.0237759
0.0237682
0.0237605
0.0237529
0.0237453
0.0237377
0.0237302
0.0237227
0.0237152
0.0237078
0.0237003
0.023693
0.0236856
0.0236783
0.023671
0.0236638
0.0236566
0.0236494
0.0236422
0.0236351
0.0236281
0.023621
0.023614
0.0236071
0.0236001
0.0235932
0.0235864
0.0235796
0.0235728
0.0235661
0.0235594
0.0235527
0.0235461
0.0235395
0.0235329
0.0235264
0.0235199
0.0235135
0.0235071
0.0235007
0.0234944
0.0234881
0.0234818
0.0234756
0.0234694
0.0234632
0.023457
0.0234508
0.0234446
0.0234384
0.0234322
0.0234259
0.0234197
0.0234133
0.0234069
0.0234005
0.0233939
0.0233873
0.0233806
0.0233739
0.023367
0.02336
0.0233529
0.0233458
0.0233386
0.0233312
0.0233238
0.0233163
0.0233087
0.023301
0.0232932
0.0232854
0.0232775
0.0232695
0.0232615
0.0232534
0.0232452
0.023237
0.0232287
0.0232204
0.023212
0.0232036
0.0231952
0.0231867
0.0231782
0.0231697
0.0231612
0.0231526
0.0231441
0.0231355
0.0231269
0.0231183
0.0231097
0.0231012
0.0230926
0.023084
0.0230754
0.0230668
0.0230583
0.0230497
0.0230412
0.0230326
0.0230241
0.0230156
0.0230071
0.0229986
0.0229901
0.0229817
0.0229733
0.0229649
0.0229565
0.0229481
0.0229397
0.0229314
0.0229231
0.0229148
0.0229066
0.0228983
0.0228901
0.0228819
0.0228738
0.0228656
0.0228575
0.0228494
0.0228414
0.0228334
0.0228254
0.0228175
0.0228095
0.0228017
0.0227938
0.022786
0.0227783
0.0227705
0.0227629
0.0227552
0.0227476
0.02274
0.0227325
0.022725
0.0227176
0.0227101
0.0227028
0.0226954
0.0226881
0.0226808
0.0226736
0.0226664
0.0226592
0.022652
0.0226449
0.0226379
0.0226308
0.0226238
0.0226168
0.0226099
0.0226029
0.022596
0.0225891
0.0225823
0.0225755
0.0225687
0.0225619
0.0225551
0.0225484
0.0225417
0.022535
0.0225283
0.0225216
0.022515
0.0225083
0.0225017
0.0224951
0.0224885
0.022482
0.0224754
0.0224689
0.0224624
0.0224559
0.0224495
0.022443
0.0224366
0.0224301
0.0224237
0.0224173
0.0224109
0.0224046
0.0223982
0.0223918
0.0223854
0.022379
0.0223726
0.0223661
0.0223597
0.0223532
0.0223467
0.0223401
0.0223335
0.0223269
0.0223202
0.0223135
0.0223067
0.0222999
0.022293
0.022286
0.0222789
0.0222716
0.0222642
0.0222566
0.0222487
0.0222406
0.022232
0.0222229
0.0222093
0.0221906
0.0221711
0.0221485
0.0221204
0.0220822
0.0220325
0.0219666
0.0218739
0.0217766
0.0217291
0.0218018
0.0218725
0.0261
0.0261
0.0261
0.0261
0.0261
0.0261
0.0261
0.0261
0.0261
0.0261
0.0261
0.0261
0.0261
0.0261
0.0261
0.0261
0.0261
0.0261
0.0261
0.0261
0.0261
0.0261
0.0261
0.0261
0.0261
0.0261
0.0261
0.0261
0.0261
0.0261
0.0261
0.0261
0.0261
0.0261001
0.0261002
0.0261003
0.0261005
0.0261007
0.026101
0.0261013
0.0261017
0.0261022
0.0261027
0.0261032
0.0261038
0.0261044
0.0261051
0.0261058
0.0261065
0.0261072
0.0261079
0.0261086
0.0261093
0.0261098
0.0261103
0.0261107
0.026111
0.0261112
0.0261112
0.0261111
0.0261109
0.0261104
0.0261098
0.026109
0.026108
0.0261068
0.0261054
0.0261038
0.0261019
0.0260998
0.0260974
0.0260947
0.0260918
0.0260886
0.0260852
0.0260814
0.0260774
0.0260731
0.0260685
0.0260636
0.0260584
0.0260529
0.0260471
0.0260411
0.0260348
0.0260282
0.0260213
0.0260143
0.0260069
0.0259993
0.0259916
0.0259836
0.0259754
0.025967
0.0259584
0.0259497
0.0259409
0.0259318
0.0259227
0.0259134
0.025904
0.0258945
0.025885
0.0258753
0.0258655
0.0258557
0.0258458
0.0258359
0.0258259
0.0258159
0.0258058
0.0257957
0.0257855
0.0257754
0.0257652
0.025755
0.0257448
0.0257346
0.0257244
0.0257142
0.025704
0.0256938
0.0256836
0.0256734
0.0256632
0.025653
0.0256429
0.0256328
0.0256227
0.0256126
0.0256025
0.0255924
0.0255824
0.0255724
0.0255624
0.0255524
0.0255425
0.0255326
0.0255227
0.0255128
0.0255029
0.0254931
0.0254833
0.0254735
0.0254637
0.0254539
0.0254442
0.0254345
0.0254248
0.0254151
0.0254054
0.0253958
0.0253861
0.0253765
0.0253669
0.0253574
0.0253478
0.0253383
0.0253288
0.0253193
0.0253098
0.0253004
0.025291
0.0252816
0.0252722
0.0252628
0.0252535
0.0252442
0.0252349
0.0252256
0.0252164
0.0252072
0.025198
0.0251889
0.0251797
0.0251706
0.0251616
0.0251525
0.0251435
0.0251345
0.0251256
0.0251167
0.0251078
0.0250989
0.0250901
0.0250813
0.0250726
0.0250639
0.0250552
0.0250466
0.025038
0.0250295
0.025021
0.0250126
0.0250042
0.0249958
0.0249875
0.0249792
0.024971
0.0249628
0.0249547
0.0249466
0.0249385
0.0249305
0.0249226
0.0249147
0.0249068
0.024899
0.0248913
0.0248836
0.024876
0.0248684
0.0248608
0.0248533
0.0248459
0.0248385
0.0248311
0.0248238
0.0248166
0.0248094
0.0248022
0.024795
0.0247879
0.0247808
0.0247737
0.0247666
0.0247594
0.0247523
0.024745
0.0247378
0.0247304
0.024723
0.0247154
0.0247078
0.0247001
0.0246922
0.0246842
0.0246761
0.0246679
0.0246595
0.024651
0.0246424
0.0246336
0.0246248
0.0246158
0.0246067
0.0245975
0.0245882
0.0245788
0.0245693
0.0245597
0.02455
0.0245402
0.0245304
0.0245205
0.0245105
0.0245005
0.0244905
0.0244803
0.0244702
0.02446
0.0244497
0.0244394
0.0244292
0.0244188
0.0244085
0.0243982
0.0243879
0.0243776
0.0243673
0.0243571
0.0243469
0.0243367
0.0243265
0.0243164
0.0243064
0.0242964
0.0242864
0.0242766
0.0242667
0.024257
0.0242472
0.0242376
0.024228
0.0242185
0.024209
0.0241996
0.0241903
0.024181
0.0241717
0.0241626
0.0241535
0.0241444
0.0241354
0.0241265
0.0241177
0.0241089
0.0241001
0.0240914
0.0240828
0.0240742
0.0240657
0.0240573
0.0240489
0.0240405
0.0240322
0.024024
0.0240158
0.0240077
0.0239997
0.0239916
0.0239837
0.0239758
0.0239679
0.0239601
0.0239524
0.0239447
0.0239371
0.0239295
0.0239219
0.0239144
0.0239069
0.0238995
0.0238921
0.0238848
0.0238775
0.0238702
0.023863
0.0238559
0.0238487
0.0238416
0.0238346
0.0238275
0.0238206
0.0238136
0.0238067
0.0237998
0.023793
0.0237862
0.0237795
0.0237727
0.0237661
0.0237594
0.0237528
0.0237463
0.0237397
0.0237333
0.0237268
0.0237204
0.023714
0.0237077
0.0237014
0.0236952
0.023689
0.0236828
0.0236766
0.0236705
0.0236645
0.0236584
0.0236524
0.0236465
0.0236406
0.0236347
0.0236288
0.023623
0.0236172
0.0236115
0.0236057
0.0236
0.0235942
0.0235885
0.0235827
0.0235768
0.023571
0.023565
0.023559
0.0235529
0.0235467
0.0235404
0.023534
0.0235274
0.0235207
0.0235139
0.0235069
0.0234998
0.0234926
0.0234853
0.0234778
0.0234703
0.0234626
0.0234548
0.023447
0.023439
0.023431
0.0234229
0.0234147
0.0234064
0.0233981
0.0233898
0.0233814
0.0233729
0.0233644
0.0233559
0.0233473
0.0233387
0.0233301
0.0233215
0.0233128
0.0233042
0.0232955
0.0232869
0.0232782
0.0232696
0.0232609
0.0232523
0.0232436
0.023235
0.0232264
0.0232178
0.0232092
0.0232007
0.0231921
0.0231836
0.0231751
0.0231667
0.0231583
0.0231499
0.0231415
0.0231332
0.0231248
0.0231166
0.0231083
0.0231001
0.0230919
0.0230838
0.0230757
0.0230676
0.0230595
0.0230515
0.0230435
0.0230356
0.0230276
0.0230197
0.0230119
0.0230041
0.0229963
0.0229885
0.0229808
0.0229731
0.0229654
0.0229578
0.0229503
0.0229427
0.0229353
0.0229278
0.0229204
0.0229131
0.0229058
0.0228985
0.0228913
0.0228842
0.0228771
0.02287
0.022863
0.022856
0.0228491
0.0228422
0.0228353
0.0228285
0.0228218
0.022815
0.0228084
0.0228017
0.0227951
0.0227885
0.022782
0.0227755
0.022769
0.0227626
0.0227562
0.0227498
0.0227434
0.0227371
0.0227308
0.0227245
0.0227183
0.0227121
0.0227059
0.0226997
0.0226936
0.0226875
0.0226814
0.0226753
0.0226692
0.0226632
0.0226572
0.0226512
0.0226452
0.0226393
0.0226333
0.0226274
0.0226215
0.0226157
0.0226098
0.0226039
0.0225981
0.0225923
0.0225865
0.0225806
0.0225748
0.022569
0.0225631
0.0225572
0.0225513
0.0225454
0.0225394
0.0225333
0.0225273
0.0225211
0.0225149
0.0225086
0.0225023
0.0224959
0.0224894
0.0224829
0.0224762
0.0224695
0.0224627
0.0224558
0.0224488
0.0224417
0.0224344
0.0224269
0.0224193
0.0224114
0.022403
0.0223941
0.0223823
0.0223672
0.0223502
0.0223295
0.0223033
0.022267
0.0222177
0.0221489
0.0220478
0.0219253
0.0218309
0.0218218
0.0218744
0.0261
0.0261
0.0261
0.0261
0.0261
0.0261
0.0261
0.0261
0.0261
0.0261
0.0261
0.0261
0.0261
0.0261
0.0261
0.0261
0.0261
0.0261
0.0261
0.0261
0.0261
0.0261
0.0261
0.0261
0.0260999
0.0260999
0.0260999
0.0260999
0.0260998
0.0260998
0.0260998
0.0260997
0.0260996
0.0260996
0.0260995
0.0260995
0.0260994
0.0260993
0.0260993
0.0260992
0.0260991
0.026099
0.026099
0.0260989
0.0260988
0.0260987
0.0260986
0.0260986
0.0260984
0.0260983
0.0260982
0.026098
0.0260978
0.0260976
0.0260973
0.0260969
0.0260965
0.026096
0.0260954
0.0260946
0.0260938
0.0260928
0.0260917
0.0260903
0.0260888
0.0260871
0.0260852
0.026083
0.0260806
0.0260779
0.0260749
0.0260716
0.026068
0.0260641
0.0260599
0.0260554
0.0260506
0.0260455
0.02604
0.0260342
0.0260282
0.0260218
0.0260152
0.0260083
0.0260012
0.0259937
0.0259861
0.0259782
0.0259702
0.0259619
0.0259535
0.0259449
0.0259361
0.0259272
0.0259182
0.0259091
0.0258999
0.0258905
0.0258812
0.0258717
0.0258622
0.0258526
0.025843
0.0258334
0.0258237
0.0258141
0.0258044
0.0257947
0.025785
0.0257753
0.0257656
0.0257559
0.0257462
0.0257366
0.0257269
0.0257173
0.0257077
0.0256981
0.0256885
0.025679
0.0256695
0.02566
0.0256506
0.0256412
0.0256318
0.0256225
0.0256132
0.0256039
0.0255947
0.0255855
0.0255763
0.0255672
0.0255581
0.025549
0.02554
0.025531
0.025522
0.025513
0.0255041
0.0254953
0.0254864
0.0254776
0.0254688
0.02546
0.0254512
0.0254425
0.0254338
0.0254251
0.0254164
0.0254078
0.0253992
0.0253905
0.0253819
0.0253734
0.0253648
0.0253562
0.0253477
0.0253392
0.0253307
0.0253222
0.0253137
0.0253053
0.0252969
0.0252885
0.0252801
0.0252717
0.0252633
0.025255
0.0252467
0.0252384
0.0252301
0.0252218
0.0252136
0.0252053
0.0251971
0.025189
0.0251808
0.0251727
0.0251645
0.0251564
0.0251484
0.0251403
0.0251323
0.0251244
0.0251164
0.0251085
0.0251006
0.0250927
0.0250849
0.0250772
0.0250694
0.0250617
0.025054
0.0250464
0.0250388
0.0250313
0.0250237
0.0250163
0.0250088
0.0250014
0.0249941
0.0249867
0.0249795
0.0249722
0.024965
0.0249579
0.0249507
0.0249437
0.0249366
0.0249296
0.0249227
0.0249158
0.0249089
0.0249021
0.0248953
0.0248885
0.0248818
0.0248752
0.0248685
0.0248619
0.0248553
0.0248487
0.0248421
0.0248354
0.0248287
0.0248219
0.0248151
0.0248081
0.024801
0.0247938
0.0247864
0.0247788
0.0247711
0.0247632
0.0247552
0.0247469
0.0247385
0.0247299
0.0247211
0.0247122
0.0247031
0.0246939
0.0246845
0.024675
0.0246653
0.0246556
0.0246457
0.0246357
0.0246257
0.0246156
0.0246054
0.0245951
0.0245848
0.0245744
0.024564
0.0245536
0.0245431
0.0245326
0.0245221
0.0245116
0.024501
0.0244904
0.0244799
0.0244693
0.0244588
0.0244482
0.0244377
0.0244273
0.0244168
0.0244064
0.0243961
0.0243858
0.0243756
0.0243654
0.0243553
0.0243453
0.0243354
0.0243255
0.0243157
0.024306
0.0242964
0.0242868
0.0242773
0.0242679
0.0242586
0.0242494
0.0242402
0.0242311
0.024222
0.0242131
0.0242042
0.0241954
0.0241866
0.024178
0.0241693
0.0241608
0.0241523
0.0241439
0.0241355
0.0241273
0.024119
0.0241109
0.0241028
0.0240947
0.0240868
0.0240789
0.024071
0.0240632
0.0240555
0.0240479
0.0240402
0.0240327
0.0240252
0.0240178
0.0240104
0.0240031
0.0239958
0.0239886
0.0239814
0.0239743
0.0239672
0.0239602
0.0239532
0.0239462
0.0239393
0.0239325
0.0239257
0.0239189
0.0239122
0.0239055
0.0238988
0.0238922
0.0238857
0.0238791
0.0238726
0.0238662
0.0238598
0.0238534
0.0238471
0.0238408
0.0238345
0.0238283
0.0238222
0.023816
0.0238099
0.0238039
0.0237978
0.0237919
0.0237859
0.02378
0.0237741
0.0237683
0.0237625
0.0237567
0.023751
0.0237453
0.0237396
0.023734
0.0237284
0.0237229
0.0237173
0.0237119
0.0237064
0.023701
0.0236956
0.0236902
0.0236848
0.0236794
0.0236739
0.0236684
0.0236629
0.0236573
0.0236516
0.0236458
0.0236398
0.0236338
0.0236275
0.0236211
0.0236146
0.0236079
0.0236009
0.0235938
0.0235866
0.0235791
0.0235715
0.0235638
0.0235559
0.0235479
0.0235398
0.0235315
0.0235232
0.0235148
0.0235063
0.0234978
0.0234892
0.0234805
0.0234718
0.0234631
0.0234543
0.0234456
0.0234368
0.023428
0.0234191
0.0234103
0.0234015
0.0233927
0.0233838
0.023375
0.0233662
0.0233575
0.0233487
0.02334
0.0233312
0.0233225
0.0233139
0.0233052
0.0232966
0.023288
0.0232795
0.023271
0.0232625
0.023254
0.0232456
0.0232373
0.023229
0.0232207
0.0232125
0.0232043
0.0231961
0.023188
0.02318
0.023172
0.023164
0.0231561
0.0231482
0.0231404
0.0231326
0.0231248
0.0231171
0.0231094
0.0231018
0.0230942
0.0230866
0.0230791
0.0230716
0.0230642
0.0230568
0.0230494
0.0230421
0.0230348
0.0230276
0.0230204
0.0230132
0.0230062
0.0229991
0.0229921
0.0229852
0.0229783
0.0229715
0.0229647
0.0229579
0.0229513
0.0229446
0.022938
0.0229315
0.022925
0.0229186
0.0229122
0.0229059
0.0228995
0.0228933
0.0228871
0.0228809
0.0228747
0.0228686
0.0228626
0.0228565
0.0228505
0.0228445
0.0228386
0.0228327
0.0228268
0.022821
0.0228151
0.0228093
0.0228036
0.0227978
0.0227921
0.0227864
0.0227808
0.0227751
0.0227695
0.0227639
0.0227584
0.0227528
0.0227473
0.0227418
0.0227363
0.0227308
0.0227254
0.0227199
0.0227145
0.0227091
0.0227037
0.0226984
0.022693
0.0226876
0.0226822
0.0226768
0.0226714
0.0226659
0.0226604
0.0226548
0.0226492
0.0226435
0.0226377
0.0226318
0.0226258
0.0226198
0.0226136
0.0226073
0.022601
0.0225945
0.0225879
0.0225813
0.0225745
0.0225676
0.0225607
0.0225536
0.0225464
0.0225391
0.0225317
0.0225241
0.0225164
0.0225084
0.0225
0.0224912
0.0224806
0.0224679
0.0224535
0.022436
0.0224142
0.0223842
0.0223425
0.0222813
0.0221862
0.0220574
0.0219363
0.0218742
0.0218913
0.0261
0.0261
0.0261
0.0261
0.0261
0.0261
0.0261
0.0261
0.0261
0.0261
0.0261
0.0261
0.0261
0.0261
0.0261
0.0261
0.0261
0.0261
0.0261
0.0261
0.0261
0.0260999
0.0260999
0.0260999
0.0260998
0.0260998
0.0260997
0.0260996
0.0260995
0.0260994
0.0260993
0.0260992
0.026099
0.0260988
0.0260986
0.0260984
0.0260981
0.0260978
0.0260975
0.0260971
0.0260967
0.0260963
0.0260958
0.0260952
0.0260946
0.0260939
0.0260931
0.0260923
0.0260913
0.0260903
0.0260892
0.0260879
0.0260865
0.026085
0.0260833
0.0260814
0.0260794
0.0260771
0.0260747
0.026072
0.0260691
0.0260659
0.0260625
0.0260588
0.0260548
0.0260505
0.026046
0.0260411
0.0260359
0.0260304
0.0260247
0.0260186
0.0260124
0.0260058
0.0259991
0.0259921
0.0259849
0.0259776
0.0259701
0.0259624
0.0259545
0.0259466
0.0259385
0.0259303
0.025922
0.0259136
0.0259051
0.0258965
0.0258878
0.0258791
0.0258703
0.0258614
0.0258525
0.0258435
0.0258345
0.0258255
0.0258165
0.0258074
0.0257984
0.0257893
0.0257803
0.0257712
0.0257622
0.0257532
0.0257442
0.0257352
0.0257263
0.0257174
0.0257085
0.0256996
0.0256907
0.0256819
0.0256732
0.0256644
0.0256557
0.025647
0.0256384
0.0256298
0.0256212
0.0256127
0.0256042
0.0255957
0.0255873
0.0255789
0.0255706
0.0255623
0.0255541
0.0255458
0.0255377
0.0255295
0.0255214
0.0255134
0.0255054
0.0254974
0.0254894
0.0254815
0.0254736
0.0254657
0.0254579
0.0254501
0.0254423
0.0254345
0.0254268
0.025419
0.0254113
0.0254036
0.0253959
0.0253883
0.0253806
0.025373
0.0253654
0.0253578
0.0253501
0.0253426
0.025335
0.0253274
0.0253198
0.0253123
0.0253048
0.0252972
0.0252897
0.0252822
0.0252747
0.0252673
0.0252598
0.0252523
0.0252449
0.0252375
0.0252301
0.0252226
0.0252153
0.0252079
0.0252005
0.0251932
0.0251858
0.0251785
0.0251712
0.025164
0.0251567
0.0251495
0.0251422
0.025135
0.0251279
0.0251207
0.0251136
0.0251065
0.0250995
0.0250925
0.0250855
0.0250785
0.0250716
0.0250647
0.0250578
0.025051
0.0250442
0.0250374
0.0250307
0.025024
0.0250173
0.0250107
0.0250041
0.0249975
0.024991
0.0249845
0.024978
0.0249716
0.0249651
0.0249588
0.0249524
0.0249461
0.0249398
0.0249336
0.0249274
0.0249212
0.0249151
0.024909
0.0249029
0.0248968
0.0248907
0.0248846
0.0248785
0.0248724
0.0248661
0.0248597
0.0248532
0.0248466
0.0248397
0.0248327
0.0248254
0.0248179
0.0248102
0.0248022
0.024794
0.0247855
0.0247768
0.0247678
0.0247587
0.0247493
0.0247398
0.02473
0.0247201
0.0247101
0.0246999
0.0246896