/*--------------------------------*- C++ -*----------------------------------*\
| =========                 |                                                 |
| \\      /  F ield         | foam-extend: Open Source CFD                    |
|  \\    /   O peration     | Version:     3.2                                |
|   \\  /    A nd           | Web:         http://www.foam-extend.org         |
|    \\/     M anipulation  | For copyright notice see file Copyright         |
\*---------------------------------------------------------------------------*/
FoamFile
{
    version     2.0;
    format      ascii;
    class       areaScalarField;
    location    "120";
    object      Cpost;
}
// * * * * * * * * * * * * * * * * * * * * * * * * * * * * * * * * * * * * * //

dimensions      [1 -3 0 0 0 0 0];

internalField   nonuniform List<scalar> 
550
(
0.0261
0.0261
0.0261
0.0261
0.0261
0.0261
0.0261
0.0261
0.0261
0.0261
0.0261
0.0261
0.0261
0.0261
0.0261
0.0261
0.0261
0.0261
0.0261
0.0261
0.0261
0.0261
0.0261
0.0261
0.0261
0.0261
0.0261001
0.0261192
0.026118
0.0261304
0.0261723
0.0262055
0.026233
0.0262552
0.0262725
0.0262853
0.0262939
0.0262986
0.0263
0.0262984
0.0262942
0.0262877
0.0262793
0.0262692
0.0262577
0.026245
0.0262313
0.0262166
0.0262013
0.0261853
0.0261688
0.0261519
0.0261347
0.0261174
0.0260999
0.0260823
0.0260648
0.0260473
0.02603
0.0260128
0.0259958
0.025979
0.0259624
0.025946
0.0259298
0.0259139
0.0258981
0.0258826
0.0258673
0.0258523
0.0258374
0.0258227
0.0258083
0.025794
0.0257799
0.025766
0.0257523
0.0257387
0.0257254
0.0257121
0.0256991
0.0256861
0.0256733
0.0256606
0.0256481
0.0256356
0.0256232
0.0256109
0.0255987
0.0255865
0.0255744
0.0255623
0.0255503
0.0255383
0.0255263
0.0255143
0.0255024
0.0254904
0.0254784
0.0254665
0.0254545
0.0254425
0.0254304
0.0254183
0.0254062
0.025394
0.0253817
0.0253694
0.025357
0.0253445
0.025332
0.0253193
0.0253066
0.0252937
0.0252808
0.0252678
0.0252547
0.0252414
0.0252281
0.0252147
0.0252012
0.0251875
0.0251738
0.02516
0.0251461
0.0251321
0.0251181
0.0251039
0.0250897
0.0250754
0.025061
0.0250466
0.0250321
0.0250175
0.0250029
0.0249882
0.0249735
0.0249587
0.0249439
0.0249291
0.0249143
0.0248994
0.0248845
0.0248696
0.0248546
0.0248397
0.0248248
0.0248098
0.0247949
0.02478
0.0247651
0.0247502
0.0247354
0.0247206
0.0247058
0.024691
0.0246763
0.0246617
0.024647
0.0246325
0.024618
0.0246035
0.0245891
0.0245748
0.0245606
0.0245464
0.0245324
0.0245184
0.0245045
0.0244907
0.024477
0.0244633
0.0244498
0.0244364
0.0244231
0.0244099
0.0243968
0.0243838
0.0243709
0.0243582
0.0243455
0.0243329
0.0243205
0.0243081
0.0242959
0.0242838
0.0242718
0.0242598
0.024248
0.0242363
0.0242247
0.0242133
0.0242019
0.0241906
0.0241794
0.0241683
0.0241573
0.0241465
0.0241357
0.024125
0.0241145
0.024104
0.0240936
0.0240833
0.0240731
0.024063
0.0240529
0.0240429
0.0240329
0.0240231
0.0240132
0.0240034
0.0239937
0.023984
0.0239744
0.0239648
0.0239553
0.0239458
0.0239363
0.0239269
0.0239175
0.0239081
0.0238988
0.0238895
0.0238802
0.023871
0.0238618
0.0238527
0.0238435
0.0238344
0.0238254
0.0238163
0.0238073
0.0237983
0.0237894
0.0237804
0.0237715
0.0237626
0.0237537
0.0237449
0.023736
0.0237272
0.0237183
0.0237095
0.0237006
0.0236918
0.0236829
0.0236741
0.0236652
0.0236563
0.0236474
0.0236385
0.0236295
0.0236205
0.0236115
0.0236024
0.0235934
0.0235842
0.0235751
0.0235659
0.0235567
0.0235475
0.0235382
0.0235289
0.0235196
0.0235103
0.023501
0.0234916
0.0234823
0.0234729
0.0234636
0.0234543
0.023445
0.0234357
0.0234264
0.0234171
0.0234078
0.0233986
0.0233893
0.0233801
0.0233709
0.0233618
0.0233526
0.0233435
0.0233344
0.0233253
0.0233162
0.0233072
0.0232982
0.0232892
0.0232802
0.0232712
0.0232622
0.0232533
0.0232443
0.0232354
0.0232265
0.0232176
0.0232087
0.0231998
0.0231909
0.023182
0.0231732
0.0231644
0.0231556
0.0231468
0.023138
0.0231292
0.0231204
0.0231117
0.023103
0.0230943
0.0230856
0.0230769
0.0230683
0.0230596
0.023051
0.0230424
0.0230338
0.0230253
0.0230167
0.0230082
0.0229996
0.0229911
0.0229826
0.0229741
0.0229655
0.022957
0.0229485
0.0229399
0.0229314
0.0229229
0.0229143
0.0229058
0.0228972
0.0228886
0.0228801
0.0228715
0.0228629
0.0228543
0.0228457
0.0228371
0.0228286
0.02282
0.0228114
0.0228028
0.0227943
0.0227857
0.0227772
0.0227687
0.0227602
0.0227517
0.0227433
0.0227348
0.0227264
0.022718
0.0227097
0.0227013
0.022693
0.0226847
0.0226765
0.0226683
0.0226601
0.0226519
0.0226438
0.0226357
0.0226276
0.0226196
0.0226116
0.0226036
0.0225956
0.0225877
0.0225797
0.0225718
0.0225639
0.022556
0.0225482
0.0225403
0.0225324
0.0225245
0.0225166
0.0225087
0.0225008
0.0224928
0.0224849
0.0224769
0.0224689
0.0224609
0.0224528
0.0224447
0.0224366
0.0224285
0.0224203
0.0224121
0.0224039
0.0223956
0.0223873
0.0223789
0.0223706
0.0223621
0.0223537
0.0223453
0.0223368
0.0223282
0.0223197
0.0223111
0.0223026
0.0222939
0.0222853
0.0222767
0.022268
0.0222594
0.0222507
0.022242
0.0222333
0.0222245
0.0222157
0.0222069
0.0221981
0.0221893
0.0221804
0.0221715
0.0221626
0.0221536
0.0221446
0.0221356
0.0221266
0.0221176
0.0221085
0.0220994
0.0220903
0.0220812
0.0220721
0.022063
0.0220539
0.0220448
0.0220357
0.0220265
0.0220174
0.0220083
0.0219992
0.0219901
0.021981
0.0219719
0.0219628
0.0219537
0.0219446
0.0219356
0.0219265
0.0219174
0.0219084
0.0218993
0.0218903
0.0218813
0.0218723
0.0218632
0.0218542
0.0218452
0.0218362
0.0218273
0.0218183
0.0218093
0.0218003
0.0217913
0.0217824
0.0217734
0.0217645
0.0217555
0.0217466
0.0217377
0.0217288
0.0217199
0.021711
0.0217022
0.0216933
0.0216845
0.0216756
0.0216668
0.0216579
0.0216491
0.0216403
0.0216315
0.0216227
0.0216139
0.0216051
0.0215963
0.0215876
0.0215788
0.0215701
0.0215613
0.0215526
0.0215438
0.0215351
0.0215264
0.0215176
0.0215089
0.0215003
0.0214916
0.021483
0.0214743
0.0214657
0.0214572
0.0214486
0.02144
0.0214315
0.021423
0.0214145
0.021406
0.0213975
0.0213891
0.0213806
0.0213722
0.0213637
0.0213553
0.0213469
0.0213385
0.0213301
0.0213216
0.0213132
0.0213048
0.0212964
0.021288
0.0212795
0.0212711
0.0212626
0.0212542
0.0212457
0.0212371
0.0212284
0.0212195
0.0212104
0.0212009
0.0211908
0.02118
0.0211681
0.0211545
0.0211401
0.0211211
0.0211007
0.0211698
0.0212297
0.0212823
0.0213282
0.0213669
0.0214013
0.0214287
0.0214603
0.0216618
0.0218623
0.0218713
)
;

boundaryField
{
    inlet
    {
        type            calculated;
        value           uniform 0;
    }
    endWall
    {
        type            calculated;
        value           uniform 0;
    }
    sideWall
    {
        type            empty;
    }
}


// ************************************************************************* //
