/*--------------------------------*- C++ -*----------------------------------*\
| =========                 |                                                 |
| \\      /  F ield         | foam-extend: Open Source CFD                    |
|  \\    /   O peration     | Version:     3.2                                |
|   \\  /    A nd           | Web:         http://www.foam-extend.org         |
|    \\/     M anipulation  | For copyright notice see file Copyright         |
\*---------------------------------------------------------------------------*/
FoamFile
{
    version     2.0;
    format      ascii;
    class       areaScalarField;
    location    "120";
    object      deltaHs;
}
// * * * * * * * * * * * * * * * * * * * * * * * * * * * * * * * * * * * * * //

dimensions      [0 1 -1 0 0 0 0];

internalField   nonuniform List<scalar> 
550
(
6.79321e-08
6.40789e-08
5.86332e-08
5.14493e-08
4.25474e-08
3.21739e-08
2.07352e-08
8.8062e-09
-3.0334e-09
-1.41975e-08
-2.42466e-08
-3.28393e-08
-3.98252e-08
-4.5142e-08
-4.88578e-08
-5.10974e-08
-5.20527e-08
-5.1923e-08
-5.09294e-08
-4.9318e-08
-4.72337e-08
-4.47997e-08
-4.21221e-08
-3.92911e-08
-3.63863e-08
-3.34711e-08
-3.05965e-08
-2.77583e-08
-2.50762e-08
-2.21354e-08
-1.96533e-08
-1.73132e-08
-1.51049e-08
-1.30171e-08
-1.10626e-08
-9.24148e-09
-7.55041e-09
-5.98336e-09
-4.53315e-09
-3.1923e-09
-1.9537e-09
-8.10201e-10
2.45351e-10
1.21997e-09
2.12029e-09
2.95233e-09
3.72127e-09
4.43187e-09
5.08866e-09
5.69598e-09
6.25814e-09
6.77915e-09
7.26271e-09
7.71233e-09
8.13128e-09
8.52256e-09
8.88875e-09
9.23191e-09
9.55404e-09
9.85709e-09
1.01428e-08
1.04126e-08
1.06679e-08
1.09099e-08
1.11397e-08
1.13584e-08
1.15672e-08
1.17669e-08
1.19584e-08
1.21423e-08
1.23194e-08
1.24901e-08
1.26547e-08
1.28136e-08
1.29669e-08
1.31154e-08
1.32595e-08
1.33997e-08
1.35361e-08
1.36688e-08
1.37984e-08
1.39251e-08
1.40494e-08
1.41715e-08
1.42917e-08
1.44104e-08
1.45279e-08
1.4644e-08
1.47588e-08
1.48725e-08
1.49853e-08
1.50972e-08
1.52078e-08
1.53172e-08
1.54253e-08
1.55321e-08
1.56374e-08
1.57409e-08
1.58431e-08
1.59443e-08
1.60449e-08
1.61453e-08
1.62458e-08
1.63467e-08
1.64482e-08
1.65504e-08
1.66535e-08
1.67575e-08
1.68624e-08
1.69682e-08
1.70749e-08
1.71824e-08
1.72909e-08
1.74005e-08
1.7511e-08
1.76223e-08
1.77344e-08
1.78471e-08
1.79604e-08
1.80741e-08
1.81881e-08
1.83022e-08
1.84165e-08
1.85308e-08
1.86451e-08
1.87593e-08
1.88734e-08
1.89873e-08
1.9101e-08
1.92144e-08
1.93273e-08
1.94397e-08
1.95515e-08
1.96626e-08
1.97729e-08
1.98824e-08
1.99909e-08
2.00983e-08
2.02046e-08
2.03096e-08
2.04135e-08
2.0516e-08
2.06171e-08
2.07167e-08
2.08149e-08
2.09114e-08
2.10064e-08
2.10998e-08
2.11915e-08
2.12816e-08
2.13699e-08
2.14565e-08
2.15413e-08
2.16244e-08
2.17056e-08
2.17849e-08
2.18624e-08
2.19379e-08
2.20116e-08
2.20834e-08
2.21532e-08
2.22209e-08
2.22867e-08
2.23505e-08
2.24122e-08
2.24719e-08
2.25296e-08
2.25853e-08
2.2639e-08
2.26908e-08
2.27406e-08
2.27885e-08
2.28346e-08
2.28789e-08
2.29217e-08
2.29629e-08
2.30027e-08
2.3041e-08
2.30781e-08
2.3114e-08
2.31487e-08
2.31823e-08
2.32148e-08
2.32464e-08
2.32769e-08
2.33065e-08
2.33351e-08
2.33629e-08
2.33898e-08
2.34159e-08
2.34412e-08
2.34658e-08
2.34896e-08
2.35128e-08
2.35352e-08
2.35571e-08
2.35784e-08
2.35992e-08
2.36194e-08
2.36391e-08
2.36583e-08
2.3677e-08
2.36953e-08
2.37132e-08
2.37309e-08
2.37483e-08
2.37657e-08
2.37834e-08
2.38019e-08
2.38212e-08
2.38413e-08
2.38622e-08
2.3884e-08
2.39065e-08
2.39298e-08
2.39537e-08
2.39781e-08
2.40031e-08
2.40286e-08
2.40544e-08
2.40805e-08
2.41069e-08
2.41334e-08
2.41601e-08
2.41868e-08
2.42134e-08
2.42398e-08
2.4266e-08
2.42919e-08
2.43173e-08
2.43423e-08
2.43667e-08
2.43905e-08
2.44136e-08
2.44361e-08
2.44578e-08
2.44787e-08
2.44989e-08
2.45183e-08
2.45369e-08
2.45546e-08
2.45715e-08
2.45876e-08
2.46028e-08
2.46172e-08
2.46308e-08
2.46436e-08
2.46555e-08
2.46666e-08
2.46769e-08
2.46862e-08
2.46948e-08
2.47024e-08
2.47091e-08
2.4715e-08
2.47201e-08
2.47244e-08
2.47279e-08
2.47306e-08
2.47325e-08
2.47337e-08
2.47341e-08
2.47336e-08
2.47324e-08
2.47303e-08
2.47274e-08
2.47237e-08
2.47191e-08
2.47136e-08
2.47071e-08
2.46996e-08
2.46912e-08
2.46818e-08
2.46713e-08
2.46598e-08
2.46473e-08
2.46338e-08
2.46194e-08
2.46042e-08
2.45883e-08
2.45717e-08
2.45548e-08
2.45376e-08
2.45205e-08
2.45035e-08
2.44868e-08
2.44707e-08
2.44552e-08
2.44406e-08
2.4427e-08
2.44145e-08
2.44031e-08
2.43931e-08
2.43843e-08
2.43769e-08
2.43706e-08
2.43656e-08
2.43617e-08
2.43587e-08
2.43568e-08
2.43557e-08
2.43554e-08
2.43558e-08
2.43569e-08
2.43586e-08
2.43609e-08
2.43638e-08
2.43672e-08
2.4371e-08
2.43754e-08
2.43804e-08
2.43859e-08
2.43919e-08
2.43986e-08
2.44059e-08
2.44139e-08
2.44224e-08
2.44316e-08
2.44414e-08
2.44518e-08
2.44628e-08
2.44743e-08
2.44864e-08
2.44989e-08
2.45118e-08
2.45252e-08
2.45388e-08
2.45528e-08
2.45672e-08
2.45818e-08
2.45966e-08
2.46117e-08
2.4627e-08
2.46426e-08
2.46585e-08
2.46748e-08
2.46915e-08
2.47086e-08
2.47263e-08
2.47445e-08
2.47632e-08
2.47825e-08
2.48024e-08
2.48229e-08
2.4844e-08
2.48656e-08
2.48879e-08
2.49107e-08
2.49341e-08
2.49579e-08
2.49821e-08
2.50066e-08
2.50313e-08
2.50561e-08
2.50809e-08
2.51056e-08
2.51301e-08
2.51544e-08
2.51783e-08
2.52018e-08
2.52249e-08
2.52474e-08
2.52695e-08
2.52912e-08
2.53124e-08
2.53333e-08
2.5354e-08
2.53746e-08
2.53952e-08
2.5416e-08
2.54369e-08
2.5458e-08
2.54794e-08
2.55012e-08
2.55233e-08
2.55457e-08
2.55684e-08
2.55914e-08
2.56146e-08
2.5638e-08
2.56614e-08
2.56848e-08
2.57081e-08
2.57311e-08
2.57538e-08
2.57759e-08
2.57976e-08
2.58185e-08
2.58388e-08
2.58582e-08
2.58769e-08
2.58945e-08
2.59112e-08
2.59269e-08
2.59414e-08
2.5955e-08
2.59675e-08
2.5979e-08
2.59895e-08
2.59992e-08
2.60081e-08
2.60162e-08
2.60236e-08
2.60305e-08
2.6037e-08
2.60431e-08
2.60491e-08
2.60551e-08
2.60612e-08
2.60676e-08
2.60743e-08
2.60816e-08
2.60894e-08
2.60978e-08
2.6107e-08
2.61168e-08
2.61274e-08
2.61387e-08
2.61505e-08
2.61628e-08
2.61756e-08
2.61885e-08
2.62017e-08
2.62148e-08
2.6228e-08
2.6241e-08
2.62538e-08
2.62665e-08
2.62789e-08
2.62912e-08
2.63032e-08
2.63152e-08
2.63271e-08
2.63391e-08
2.63513e-08
2.63637e-08
2.63764e-08
2.63895e-08
2.64032e-08
2.64174e-08
2.64321e-08
2.64476e-08
2.64637e-08
2.64804e-08
2.64978e-08
2.65158e-08
2.65345e-08
2.65537e-08
2.65736e-08
2.65941e-08
2.66151e-08
2.66366e-08
2.66587e-08
2.66813e-08
2.67042e-08
2.67276e-08
2.67512e-08
2.6775e-08
2.67991e-08
2.68233e-08
2.68475e-08
2.68719e-08
2.68963e-08
2.69208e-08
2.69454e-08
2.69701e-08
2.69951e-08
2.70203e-08
2.7046e-08
2.70722e-08
2.70989e-08
2.71263e-08
2.71544e-08
2.7183e-08
2.72123e-08
2.72421e-08
2.72723e-08
2.73029e-08
2.73336e-08
2.73644e-08
2.73951e-08
2.74255e-08
2.74555e-08
2.7485e-08
2.75138e-08
2.75419e-08
2.75693e-08
2.75959e-08
2.76218e-08
2.76468e-08
2.7671e-08
2.76944e-08
2.77169e-08
2.77386e-08
2.77597e-08
2.77802e-08
2.78004e-08
2.78203e-08
2.78402e-08
2.78601e-08
2.78802e-08
2.79004e-08
2.79207e-08
2.79412e-08
2.79619e-08
2.79825e-08
2.80033e-08
2.80241e-08
2.80452e-08
2.80662e-08
2.80875e-08
2.81089e-08
2.81306e-08
2.81524e-08
2.81746e-08
2.81969e-08
2.82197e-08
2.82423e-08
2.82655e-08
2.82884e-08
2.83117e-08
2.83346e-08
2.8358e-08
2.83811e-08
2.84051e-08
2.84291e-08
2.84547e-08
2.84808e-08
2.85108e-08
2.85423e-08
2.85829e-08
2.86285e-08
2.86944e-08
2.87739e-08
2.88975e-08
2.90537e-08
2.93144e-08
2.96434e-08
3.04445e-08
3.15203e-08
3.18792e-08
3.37099e-08
3.63834e-08
3.97761e-08
4.40831e-08
4.91732e-08
5.5462e-08
5.97448e-08
5.95896e-08
5.63336e-08
)
;

boundaryField
{
    inlet
    {
        type            calculated;
        value           uniform 0;
    }
    endWall
    {
        type            calculated;
        value           uniform 0;
    }
    sideWall
    {
        type            empty;
    }
}


// ************************************************************************* //
