/*--------------------------------*- C++ -*----------------------------------*\
| =========                 |                                                 |
| \\      /  F ield         | foam-extend: Open Source CFD                    |
|  \\    /   O peration     | Version:     3.2                                |
|   \\  /    A nd           | Web:         http://www.foam-extend.org         |
|    \\/     M anipulation  | For copyright notice see file Copyright         |
\*---------------------------------------------------------------------------*/
FoamFile
{
    version     2.0;
    format      ascii;
    class       areaScalarField;
    location    "120";
    object      Fi;
}
// * * * * * * * * * * * * * * * * * * * * * * * * * * * * * * * * * * * * * //

dimensions      [0 1 -1 0 0 0 0];

internalField   nonuniform List<scalar> 
550
(
6.79321e-08
6.40789e-08
5.86332e-08
3.9972e-08
5.74552e-09
-2.72617e-08
-5.3753e-08
-7.5226e-08
-9.03965e-08
-9.89689e-08
-1.01519e-07
-9.91414e-08
-9.31779e-08
-8.48275e-08
-7.52485e-08
-6.53271e-08
-5.57384e-08
-4.69098e-08
-3.93233e-08
-3.29067e-08
-2.72585e-08
-2.23223e-08
-1.80486e-08
-1.43963e-08
-1.13121e-08
-8.72102e-09
-6.59809e-09
-4.8269e-09
-2.4763e-09
-5.50103e-10
-6.0429e-11
8.52989e-10
1.63531e-09
2.41895e-09
3.24038e-09
4.01071e-09
4.73126e-09
5.39324e-09
6.00186e-09
6.56022e-09
7.07278e-09
7.54436e-09
7.97985e-09
8.38334e-09
8.75809e-09
9.10605e-09
9.42867e-09
9.72788e-09
1.00059e-08
1.02653e-08
1.05085e-08
1.07377e-08
1.09547e-08
1.1162e-08
1.13609e-08
1.15522e-08
1.17363e-08
1.19132e-08
1.20838e-08
1.22484e-08
1.24076e-08
1.25617e-08
1.27107e-08
1.28552e-08
1.29961e-08
1.31338e-08
1.32689e-08
1.34017e-08
1.35323e-08
1.36605e-08
1.37864e-08
1.39097e-08
1.40304e-08
1.41482e-08
1.42637e-08
1.43777e-08
1.44906e-08
1.4602e-08
1.47116e-08
1.48193e-08
1.49258e-08
1.50314e-08
1.51362e-08
1.52405e-08
1.53446e-08
1.54486e-08
1.55522e-08
1.56554e-08
1.57582e-08
1.58612e-08
1.59642e-08
1.60666e-08
1.61679e-08
1.62679e-08
1.63666e-08
1.64639e-08
1.65594e-08
1.66535e-08
1.67477e-08
1.68429e-08
1.69396e-08
1.70382e-08
1.71388e-08
1.72414e-08
1.73461e-08
1.74526e-08
1.75607e-08
1.76704e-08
1.77813e-08
1.78934e-08
1.80063e-08
1.81203e-08
1.82358e-08
1.83521e-08
1.84688e-08
1.8586e-08
1.87034e-08
1.88208e-08
1.8938e-08
1.90549e-08
1.91715e-08
1.92876e-08
1.94033e-08
1.95185e-08
1.96333e-08
1.97474e-08
1.9861e-08
1.99739e-08
2.00858e-08
2.01966e-08
2.03063e-08
2.04147e-08
2.05218e-08
2.06275e-08
2.07317e-08
2.08343e-08
2.09354e-08
2.10347e-08
2.11325e-08
2.12287e-08
2.13232e-08
2.1416e-08
2.1507e-08
2.15962e-08
2.16836e-08
2.17692e-08
2.1853e-08
2.19349e-08
2.2015e-08
2.20932e-08
2.21695e-08
2.2244e-08
2.23166e-08
2.23872e-08
2.24557e-08
2.25223e-08
2.25869e-08
2.26495e-08
2.271e-08
2.27684e-08
2.28247e-08
2.28787e-08
2.29305e-08
2.29801e-08
2.30277e-08
2.30731e-08
2.31165e-08
2.31578e-08
2.31972e-08
2.32347e-08
2.32704e-08
2.33044e-08
2.33369e-08
2.33682e-08
2.33982e-08
2.3427e-08
2.34547e-08
2.34814e-08
2.35073e-08
2.35322e-08
2.35563e-08
2.35797e-08
2.36023e-08
2.36241e-08
2.36453e-08
2.36658e-08
2.36857e-08
2.37049e-08
2.37235e-08
2.37416e-08
2.37591e-08
2.3776e-08
2.37925e-08
2.38085e-08
2.38242e-08
2.38395e-08
2.38544e-08
2.38691e-08
2.38834e-08
2.38974e-08
2.39112e-08
2.3925e-08
2.39389e-08
2.39532e-08
2.39684e-08
2.39847e-08
2.40024e-08
2.4022e-08
2.40432e-08
2.40656e-08
2.4089e-08
2.41132e-08
2.41382e-08
2.41639e-08
2.419e-08
2.42166e-08
2.42435e-08
2.42707e-08
2.42982e-08
2.43258e-08
2.43534e-08
2.4381e-08
2.44085e-08
2.44358e-08
2.44628e-08
2.44894e-08
2.45156e-08
2.45412e-08
2.45662e-08
2.45904e-08
2.46139e-08
2.46366e-08
2.46584e-08
2.46794e-08
2.46994e-08
2.47185e-08
2.47367e-08
2.4754e-08
2.47704e-08
2.47859e-08
2.48004e-08
2.4814e-08
2.48268e-08
2.48388e-08
2.48499e-08
2.48602e-08
2.48696e-08
2.48782e-08
2.48859e-08
2.48928e-08
2.48987e-08
2.49038e-08
2.4908e-08
2.49114e-08
2.4914e-08
2.49159e-08
2.49169e-08
2.49171e-08
2.49165e-08
2.4915e-08
2.49126e-08
2.49093e-08
2.49051e-08
2.48998e-08
2.48935e-08
2.48863e-08
2.48781e-08
2.48688e-08
2.48584e-08
2.4847e-08
2.48344e-08
2.48209e-08
2.48062e-08
2.47905e-08
2.47738e-08
2.47563e-08
2.47381e-08
2.47193e-08
2.47e-08
2.46805e-08
2.46611e-08
2.46419e-08
2.46231e-08
2.46052e-08
2.4588e-08
2.45718e-08
2.45567e-08
2.45428e-08
2.45304e-08
2.45193e-08
2.45098e-08
2.45017e-08
2.44951e-08
2.44899e-08
2.44859e-08
2.44829e-08
2.44809e-08
2.44797e-08
2.44788e-08
2.44785e-08
2.4479e-08
2.44801e-08
2.44817e-08
2.44837e-08
2.44862e-08
2.44892e-08
2.44927e-08
2.44968e-08
2.45013e-08
2.45063e-08
2.45119e-08
2.45182e-08
2.45252e-08
2.45329e-08
2.45414e-08
2.45508e-08
2.45609e-08
2.45718e-08
2.45835e-08
2.4596e-08
2.46093e-08
2.46232e-08
2.46379e-08
2.46531e-08
2.46689e-08
2.46853e-08
2.47021e-08
2.47195e-08
2.47372e-08
2.47554e-08
2.47738e-08
2.47926e-08
2.48118e-08
2.48315e-08
2.48516e-08
2.48722e-08
2.48932e-08
2.49148e-08
2.49367e-08
2.49591e-08
2.49818e-08
2.5005e-08
2.50285e-08
2.50524e-08
2.50766e-08
2.51014e-08
2.51265e-08
2.51519e-08
2.51775e-08
2.52032e-08
2.52288e-08
2.52544e-08
2.52798e-08
2.53049e-08
2.53296e-08
2.53539e-08
2.53778e-08
2.54013e-08
2.54242e-08
2.54465e-08
2.54682e-08
2.54894e-08
2.55102e-08
2.55307e-08
2.55511e-08
2.55716e-08
2.55923e-08
2.56133e-08
2.56347e-08
2.56564e-08
2.56785e-08
2.5701e-08
2.57239e-08
2.57472e-08
2.57708e-08
2.57947e-08
2.58187e-08
2.58428e-08
2.58667e-08
2.58905e-08
2.5914e-08
2.5937e-08
2.59594e-08
2.59812e-08
2.60022e-08
2.60224e-08
2.60416e-08
2.606e-08
2.60774e-08
2.60937e-08
2.61089e-08
2.6123e-08
2.61358e-08
2.61475e-08
2.61581e-08
2.61677e-08
2.61763e-08
2.61841e-08
2.61911e-08
2.61974e-08
2.6203e-08
2.62081e-08
2.62128e-08
2.62173e-08
2.62218e-08
2.62263e-08
2.62311e-08
2.62363e-08
2.6242e-08
2.62484e-08
2.62554e-08
2.62634e-08
2.62723e-08
2.62821e-08
2.62928e-08
2.63043e-08
2.63165e-08
2.63292e-08
2.63423e-08
2.63556e-08
2.63689e-08
2.63821e-08
2.6395e-08
2.64077e-08
2.642e-08
2.6432e-08
2.64437e-08
2.6455e-08
2.6466e-08
2.64769e-08
2.64878e-08
2.64988e-08
2.65099e-08
2.65214e-08
2.65333e-08
2.65457e-08
2.65587e-08
2.65724e-08
2.65869e-08
2.66021e-08
2.66181e-08
2.6635e-08
2.66526e-08
2.66709e-08
2.66898e-08
2.67094e-08
2.67296e-08
2.67504e-08
2.67718e-08
2.67938e-08
2.68164e-08
2.68396e-08
2.68633e-08
2.68874e-08
2.69118e-08
2.69364e-08
2.69612e-08
2.69861e-08
2.70111e-08
2.7036e-08
2.70609e-08
2.70858e-08
2.71107e-08
2.71358e-08
2.71611e-08
2.71867e-08
2.72127e-08
2.72393e-08
2.72666e-08
2.72946e-08
2.73235e-08
2.7353e-08
2.73832e-08
2.74139e-08
2.74451e-08
2.74766e-08
2.75082e-08
2.75397e-08
2.7571e-08
2.76018e-08
2.7632e-08
2.76614e-08
2.769e-08
2.77176e-08
2.77445e-08
2.77705e-08
2.77957e-08
2.78201e-08
2.78437e-08
2.78664e-08
2.78882e-08
2.7909e-08
2.79291e-08
2.79487e-08
2.7968e-08
2.79871e-08
2.80063e-08
2.80257e-08
2.80455e-08
2.80655e-08
2.80858e-08
2.81063e-08
2.81269e-08
2.81477e-08
2.81686e-08
2.81894e-08
2.82103e-08
2.82314e-08
2.82527e-08
2.82743e-08
2.82962e-08
2.83184e-08
2.8341e-08
2.83638e-08
2.83871e-08
2.84105e-08
2.84342e-08
2.84577e-08
2.84812e-08
2.85044e-08
2.85279e-08
2.8551e-08
2.8575e-08
2.85995e-08
2.86256e-08
2.86539e-08
2.86852e-08
2.87228e-08
2.87677e-08
2.88271e-08
2.89052e-08
2.90151e-08
2.91671e-08
2.93869e-08
2.96975e-08
3.0107e-08
3.07614e-08
3.00182e-08
3.16856e-08
3.59109e-08
3.77438e-08
3.95547e-08
3.90529e-08
3.97761e-08
4.40831e-08
4.91732e-08
5.5462e-08
5.97448e-08
5.95896e-08
5.63336e-08
)
;

boundaryField
{
    inlet
    {
        type            calculated;
        value           uniform 0;
    }
    endWall
    {
        type            calculated;
        value           uniform 0;
    }
    sideWall
    {
        type            empty;
    }
}


// ************************************************************************* //
