/*--------------------------------*- C++ -*----------------------------------*\
| =========                 |                                                 |
| \\      /  F ield         | foam-extend: Open Source CFD                    |
|  \\    /   O peration     | Version:     3.2                                |
|   \\  /    A nd           | Web:         http://www.foam-extend.org         |
|    \\/     M anipulation  | For copyright notice see file Copyright         |
\*---------------------------------------------------------------------------*/
FoamFile
{
    version     2.0;
    format      ascii;
    class       areaScalarField;
    location    "120";
    object      Fi2;
}
// * * * * * * * * * * * * * * * * * * * * * * * * * * * * * * * * * * * * * //

dimensions      [0 1 -1 0 0 0 0];

internalField   nonuniform List<scalar> 
550
(
6.79321e-08
6.40789e-08
5.86332e-08
3.9972e-08
5.7454e-09
-2.72619e-08
-5.37533e-08
-7.52265e-08
-9.03971e-08
-9.89696e-08
-1.0152e-07
-9.91422e-08
-9.31788e-08
-8.48284e-08
-7.52494e-08
-6.5328e-08
-5.57392e-08
-4.69105e-08
-3.93239e-08
-3.29071e-08
-2.72587e-08
-2.23224e-08
-1.80486e-08
-1.43962e-08
-1.13119e-08
-8.7208e-09
-6.59782e-09
2.46696e-10
-9.54782e-11
-5.84533e-09
3.42866e-10
8.52943e-10
1.63532e-09
2.41901e-09
3.24044e-09
4.01073e-09
4.73123e-09
5.39318e-09
6.00177e-09
6.56013e-09
7.07271e-09
7.54432e-09
7.97982e-09
8.38334e-09
8.75809e-09
9.10604e-09
9.42864e-09
9.72782e-09
1.00058e-08
1.02652e-08
1.05084e-08
1.07375e-08
1.09546e-08
1.11618e-08
1.13607e-08
1.15521e-08
1.17362e-08
1.19132e-08
1.20837e-08
1.22484e-08
1.24076e-08
1.25616e-08
1.27107e-08
1.28552e-08
1.29961e-08
1.31338e-08
1.3269e-08
1.34018e-08
1.35323e-08
1.36606e-08
1.37865e-08
1.39098e-08
1.40305e-08
1.41483e-08
1.42638e-08
1.43778e-08
1.44907e-08
1.46022e-08
1.47117e-08
1.48194e-08
1.49259e-08
1.50314e-08
1.51362e-08
1.52405e-08
1.53446e-08
1.54486e-08
1.55522e-08
1.56554e-08
1.57582e-08
1.58611e-08
1.59642e-08
1.60666e-08
1.61678e-08
1.62679e-08
1.63666e-08
1.64639e-08
1.65594e-08
1.66535e-08
1.67477e-08
1.68428e-08
1.69395e-08
1.70381e-08
1.71387e-08
1.72414e-08
1.7346e-08
1.74525e-08
1.75607e-08
1.76704e-08
1.77813e-08
1.78934e-08
1.80063e-08
1.81202e-08
1.82357e-08
1.83521e-08
1.84688e-08
1.8586e-08
1.87034e-08
1.88208e-08
1.8938e-08
1.90549e-08
1.91715e-08
1.92876e-08
1.94033e-08
1.95185e-08
1.96332e-08
1.97474e-08
1.9861e-08
1.99739e-08
2.00858e-08
2.01966e-08
2.03062e-08
2.04146e-08
2.05217e-08
2.06274e-08
2.07316e-08
2.08343e-08
2.09353e-08
2.10347e-08
2.11325e-08
2.12286e-08
2.13232e-08
2.1416e-08
2.1507e-08
2.15962e-08
2.16836e-08
2.17692e-08
2.1853e-08
2.19349e-08
2.2015e-08
2.20932e-08
2.21695e-08
2.2244e-08
2.23166e-08
2.23872e-08
2.24558e-08
2.25223e-08
2.25869e-08
2.26495e-08
2.271e-08
2.27684e-08
2.28247e-08
2.28787e-08
2.29305e-08
2.29801e-08
2.30277e-08
2.30731e-08
2.31165e-08
2.31578e-08
2.31972e-08
2.32347e-08
2.32704e-08
2.33044e-08
2.33369e-08
2.33682e-08
2.33981e-08
2.3427e-08
2.34547e-08
2.34814e-08
2.35073e-08
2.35322e-08
2.35563e-08
2.35797e-08
2.36023e-08
2.36242e-08
2.36453e-08
2.36658e-08
2.36857e-08
2.37049e-08
2.37236e-08
2.37416e-08
2.37591e-08
2.3776e-08
2.37925e-08
2.38085e-08
2.38242e-08
2.38395e-08
2.38545e-08
2.38691e-08
2.38834e-08
2.38974e-08
2.39112e-08
2.3925e-08
2.39389e-08
2.39532e-08
2.39684e-08
2.39847e-08
2.40024e-08
2.40221e-08
2.40432e-08
2.40656e-08
2.4089e-08
2.41133e-08
2.41383e-08
2.41639e-08
2.41901e-08
2.42167e-08
2.42436e-08
2.42708e-08
2.42983e-08
2.43259e-08
2.43535e-08
2.43811e-08
2.44086e-08
2.44358e-08
2.44629e-08
2.44895e-08
2.45156e-08
2.45412e-08
2.45662e-08
2.45904e-08
2.46139e-08
2.46366e-08
2.46584e-08
2.46794e-08
2.46994e-08
2.47185e-08
2.47367e-08
2.4754e-08
2.47704e-08
2.47858e-08
2.48004e-08
2.4814e-08
2.48268e-08
2.48388e-08
2.48499e-08
2.48602e-08
2.48696e-08
2.48782e-08
2.48859e-08
2.48927e-08
2.48987e-08
2.49038e-08
2.4908e-08
2.49114e-08
2.4914e-08
2.49158e-08
2.49169e-08
2.49171e-08
2.49165e-08
2.4915e-08
2.49126e-08
2.49093e-08
2.4905e-08
2.48997e-08
2.48934e-08
2.48862e-08
2.4878e-08
2.48688e-08
2.48584e-08
2.48469e-08
2.48344e-08
2.48209e-08
2.48062e-08
2.47905e-08
2.47738e-08
2.47564e-08
2.47382e-08
2.47194e-08
2.47001e-08
2.46806e-08
2.46611e-08
2.46419e-08
2.46232e-08
2.46052e-08
2.45881e-08
2.45718e-08
2.45567e-08
2.45429e-08
2.45304e-08
2.45193e-08
2.45098e-08
2.45017e-08
2.44951e-08
2.44899e-08
2.44859e-08
2.44829e-08
2.44809e-08
2.44797e-08
2.44788e-08
2.44784e-08
2.44789e-08
2.44801e-08
2.44816e-08
2.44837e-08
2.44862e-08
2.44892e-08
2.44927e-08
2.44967e-08
2.45012e-08
2.45062e-08
2.45118e-08
2.45182e-08
2.45252e-08
2.45329e-08
2.45414e-08
2.45507e-08
2.45608e-08
2.45718e-08
2.45835e-08
2.4596e-08
2.46092e-08
2.46232e-08
2.46378e-08
2.46531e-08
2.46689e-08
2.46853e-08
2.47021e-08
2.47195e-08
2.47373e-08
2.47554e-08
2.47738e-08
2.47926e-08
2.48118e-08
2.48315e-08
2.48516e-08
2.48722e-08
2.48932e-08
2.49148e-08
2.49367e-08
2.49591e-08
2.49818e-08
2.50049e-08
2.50284e-08
2.50523e-08
2.50766e-08
2.51013e-08
2.51264e-08
2.51518e-08
2.51774e-08
2.52031e-08
2.52288e-08
2.52543e-08
2.52797e-08
2.53048e-08
2.53296e-08
2.53539e-08
2.53778e-08
2.54013e-08
2.54242e-08
2.54465e-08
2.54682e-08
2.54894e-08
2.55102e-08
2.55307e-08
2.55511e-08
2.55716e-08
2.55923e-08
2.56133e-08
2.56347e-08
2.56564e-08
2.56785e-08
2.5701e-08
2.5724e-08
2.57473e-08
2.57709e-08
2.57947e-08
2.58188e-08
2.58428e-08
2.58668e-08
2.58906e-08
2.5914e-08
2.5937e-08
2.59594e-08
2.59812e-08
2.60022e-08
2.60224e-08
2.60417e-08
2.606e-08
2.60774e-08
2.60937e-08
2.6109e-08
2.6123e-08
2.61358e-08
2.61475e-08
2.61581e-08
2.61677e-08
2.61763e-08
2.61841e-08
2.61911e-08
2.61973e-08
2.6203e-08
2.62081e-08
2.62128e-08
2.62173e-08
2.62217e-08
2.62263e-08
2.62311e-08
2.62363e-08
2.6242e-08
2.62483e-08
2.62554e-08
2.62634e-08
2.62723e-08
2.62821e-08
2.62928e-08
2.63043e-08
2.63165e-08
2.63292e-08
2.63423e-08
2.63556e-08
2.63689e-08
2.63821e-08
2.6395e-08
2.64077e-08
2.642e-08
2.64321e-08
2.64437e-08
2.6455e-08
2.6466e-08
2.6477e-08
2.64878e-08
2.64988e-08
2.65099e-08
2.65214e-08
2.65333e-08
2.65457e-08
2.65587e-08
2.65724e-08
2.65869e-08
2.66021e-08
2.66181e-08
2.6635e-08
2.66526e-08
2.66709e-08
2.66898e-08
2.67094e-08
2.67297e-08
2.67505e-08
2.67718e-08
2.67938e-08
2.68164e-08
2.68396e-08
2.68633e-08
2.68874e-08
2.69118e-08
2.69364e-08
2.69613e-08
2.69862e-08
2.70111e-08
2.7036e-08
2.7061e-08
2.70858e-08
2.71107e-08
2.71358e-08
2.71611e-08
2.71867e-08
2.72127e-08
2.72393e-08
2.72666e-08
2.72946e-08
2.73234e-08
2.7353e-08
2.73832e-08
2.74139e-08
2.74451e-08
2.74766e-08
2.75082e-08
2.75397e-08
2.7571e-08
2.76018e-08
2.7632e-08
2.76614e-08
2.769e-08
2.77176e-08
2.77445e-08
2.77705e-08
2.77957e-08
2.78201e-08
2.78437e-08
2.78664e-08
2.78882e-08
2.7909e-08
2.79291e-08
2.79487e-08
2.7968e-08
2.79871e-08
2.80063e-08
2.80257e-08
2.80454e-08
2.80654e-08
2.80858e-08
2.81062e-08
2.81269e-08
2.81477e-08
2.81685e-08
2.81893e-08
2.82103e-08
2.82313e-08
2.82527e-08
2.82742e-08
2.82962e-08
2.83184e-08
2.8341e-08
2.83638e-08
2.83871e-08
2.84105e-08
2.84342e-08
2.84576e-08
2.84812e-08
2.85044e-08
2.85278e-08
2.8551e-08
2.8575e-08
2.85994e-08
2.86256e-08
2.86539e-08
2.86851e-08
2.87228e-08
2.87677e-08
2.88271e-08
2.89052e-08
2.90151e-08
2.91671e-08
2.93869e-08
2.96975e-08
3.01071e-08
3.07615e-08
3.00185e-08
3.16859e-08
3.59096e-08
3.7742e-08
3.95553e-08
3.90534e-08
3.97756e-08
4.40826e-08
4.91728e-08
5.54617e-08
5.97447e-08
5.95897e-08
5.63337e-08
)
;

boundaryField
{
    inlet
    {
        type            calculated;
        value           uniform 0;
    }
    endWall
    {
        type            calculated;
        value           uniform 0;
    }
    sideWall
    {
        type            empty;
    }
}


// ************************************************************************* //
