/*--------------------------------*- C++ -*----------------------------------*\
| =========                 |                                                 |
| \\      /  F ield         | foam-extend: Open Source CFD                    |
|  \\    /   O peration     | Version:     3.2                                |
|   \\  /    A nd           | Web:         http://www.foam-extend.org         |
|    \\/     M anipulation  | For copyright notice see file Copyright         |
\*---------------------------------------------------------------------------*/
FoamFile
{
    version     2.0;
    format      ascii;
    class       volVectorField;
    location    "120";
    object      meshCentreN;
}
// * * * * * * * * * * * * * * * * * * * * * * * * * * * * * * * * * * * * * //

dimensions      [0 1 0 0 0 0 0];

internalField   nonuniform List<vector> 
33000
(
(0.00909091 0.01 0.00248182)
(0.0272727 0.01 0.00244545)
(0.0454545 0.01 0.00240909)
(0.0636364 0.01 0.00237273)
(0.0818182 0.01 0.00233636)
(0.1 0.01 0.0023)
(0.118182 0.01 0.00226364)
(0.136364 0.01 0.00222727)
(0.154545 0.01 0.00219091)
(0.172727 0.01 0.00215455)
(0.190909 0.01 0.00211818)
(0.209091 0.01 0.00208182)
(0.227273 0.01 0.00204545)
(0.245455 0.01 0.00200909)
(0.263636 0.01 0.00197273)
(0.281818 0.01 0.00193636)
(0.3 0.01 0.0019)
(0.318182 0.01 0.00186364)
(0.336364 0.01 0.00182727)
(0.354545 0.01 0.00179091)
(0.372727 0.01 0.00175455)
(0.390909 0.01 0.00171818)
(0.409091 0.01 0.00168182)
(0.427273 0.01 0.00164545)
(0.445455 0.01 0.00160909)
(0.463636 0.01 0.00157273)
(0.481818 0.01 0.00153636)
(0.5 0.01 0.00149997)
(0.518182 0.01 0.00146286)
(0.536364 0.01 0.0014275)
(0.554545 0.01 0.00139861)
(0.572727 0.01 0.00137664)
(0.590909 0.01 0.00135943)
(0.609091 0.01 0.0013438)
(0.627273 0.01 0.00132735)
(0.645455 0.01 0.00130954)
(0.663636 0.01 0.00129016)
(0.681818 0.01 0.00126931)
(0.7 0.01 0.0012471)
(0.718182 0.01 0.00122367)
(0.736364 0.01 0.00119915)
(0.754545 0.01 0.00117367)
(0.772727 0.01 0.00114734)
(0.790909 0.01 0.00112028)
(0.809091 0.01 0.00109254)
(0.827273 0.01 0.00106417)
(0.845455 0.01 0.0010352)
(0.863636 0.01 0.00100569)
(0.881818 0.01 0.000975692)
(0.9 0.01 0.000945262)
(0.918182 0.01 0.000914461)
(0.936364 0.01 0.000883339)
(0.954545 0.01 0.00085194)
(0.972727 0.01 0.000820303)
(0.990909 0.01 0.00078846)
(1.00909 0.01 0.000756425)
(1.02727 0.01 0.000724208)
(1.04545 0.01 0.000691816)
(1.06364 0.01 0.000659267)
(1.08182 0.01 0.000626577)
(1.1 0.01 0.000593756)
(1.11818 0.01 0.000560809)
(1.13636 0.01 0.000527743)
(1.15455 0.01 0.000494569)
(1.17273 0.01 0.000461302)
(1.19091 0.01 0.000427955)
(1.20909 0.01 0.000394537)
(1.22727 0.01 0.000361051)
(1.24545 0.01 0.0003275)
(1.26364 0.01 0.000293885)
(1.28182 0.01 0.000260205)
(1.3 0.01 0.000226457)
(1.31818 0.01 0.000192637)
(1.33636 0.01 0.000158749)
(1.35455 0.01 0.000124803)
(1.37273 0.01 9.08152e-05)
(1.39091 0.01 5.67917e-05)
(1.40909 0.01 2.27275e-05)
(1.42727 0.01 -1.13828e-05)
(1.44545 0.01 -4.55333e-05)
(1.46364 0.01 -7.97131e-05)
(1.48182 0.01 -0.000113914)
(1.5 0.01 -0.000148131)
(1.51818 0.01 -0.000182357)
(1.53636 0.01 -0.000216589)
(1.55455 0.01 -0.000250827)
(1.57273 0.01 -0.000285074)
(1.59091 0.01 -0.000319334)
(1.60909 0.01 -0.000353605)
(1.62727 0.01 -0.000387879)
(1.64545 0.01 -0.000422162)
(1.66364 0.01 -0.000456467)
(1.68182 0.01 -0.000490804)
(1.7 0.01 -0.000525174)
(1.71818 0.01 -0.000559578)
(1.73636 0.01 -0.000594021)
(1.75455 0.01 -0.000628506)
(1.77273 0.01 -0.000663017)
(1.79091 0.01 -0.000697524)
(1.80909 0.01 -0.000732007)
(1.82727 0.01 -0.000766457)
(1.84545 0.01 -0.000800867)
(1.86364 0.01 -0.000835236)
(1.88182 0.01 -0.000869565)
(1.9 0.01 -0.000903857)
(1.91818 0.01 -0.000938114)
(1.93636 0.01 -0.00097234)
(1.95455 0.01 -0.00100654)
(1.97273 0.01 -0.00104071)
(1.99091 0.01 -0.00107487)
(2.00909 0.01 -0.00110901)
(2.02727 0.01 -0.00114313)
(2.04545 0.01 -0.00117722)
(2.06364 0.01 -0.00121129)
(2.08182 0.01 -0.00124537)
(2.1 0.01 -0.00127943)
(2.11818 0.01 -0.0013135)
(2.13636 0.01 -0.00134758)
(2.15455 0.01 -0.00138166)
(2.17273 0.01 -0.00141575)
(2.19091 0.01 -0.00144985)
(2.20909 0.01 -0.00148397)
(2.22727 0.01 -0.0015181)
(2.24545 0.01 -0.00155225)
(2.26364 0.01 -0.00158642)
(2.28182 0.01 -0.00162061)
(2.3 0.01 -0.00165482)
(2.31818 0.01 -0.00168905)
(2.33636 0.01 -0.0017233)
(2.35455 0.01 -0.00175759)
(2.37273 0.01 -0.0017919)
(2.39091 0.01 -0.00182624)
(2.40909 0.01 -0.00186061)
(2.42727 0.01 -0.00189502)
(2.44545 0.01 -0.00192946)
(2.46364 0.01 -0.00196394)
(2.48182 0.01 -0.00199846)
(2.5 0.01 -0.00203301)
(2.51818 0.01 -0.00206761)
(2.53636 0.01 -0.00210225)
(2.55455 0.01 -0.00213692)
(2.57273 0.01 -0.00217164)
(2.59091 0.01 -0.00220641)
(2.60909 0.01 -0.00224122)
(2.62727 0.01 -0.00227607)
(2.64545 0.01 -0.00231096)
(2.66364 0.01 -0.0023459)
(2.68182 0.01 -0.00238088)
(2.7 0.01 -0.00241591)
(2.71818 0.01 -0.00245098)
(2.73636 0.01 -0.0024861)
(2.75455 0.01 -0.00252126)
(2.77273 0.01 -0.00255647)
(2.79091 0.01 -0.00259173)
(2.80909 0.01 -0.00262703)
(2.82727 0.01 -0.00266238)
(2.84545 0.01 -0.00269777)
(2.86364 0.01 -0.00273322)
(2.88182 0.01 -0.0027687)
(2.9 0.01 -0.00280424)
(2.91818 0.01 -0.00283983)
(2.93636 0.01 -0.00287546)
(2.95455 0.01 -0.00291114)
(2.97273 0.01 -0.00294687)
(2.99091 0.01 -0.00298265)
(3.00909 0.01 -0.00301847)
(3.02727 0.01 -0.00305434)
(3.04545 0.01 -0.00309025)
(3.06364 0.01 -0.00312621)
(3.08182 0.01 -0.00316221)
(3.1 0.01 -0.00319825)
(3.11818 0.01 -0.00323432)
(3.13636 0.01 -0.00327043)
(3.15455 0.01 -0.00330657)
(3.17273 0.01 -0.00334274)
(3.19091 0.01 -0.00337894)
(3.20909 0.01 -0.00341516)
(3.22727 0.01 -0.0034514)
(3.24545 0.01 -0.00348767)
(3.26364 0.01 -0.00352395)
(3.28182 0.01 -0.00356026)
(3.3 0.01 -0.00359658)
(3.31818 0.01 -0.00363292)
(3.33636 0.01 -0.00366928)
(3.35455 0.01 -0.00370566)
(3.37273 0.01 -0.00374205)
(3.39091 0.01 -0.00377845)
(3.40909 0.01 -0.00381487)
(3.42727 0.01 -0.00385131)
(3.44545 0.01 -0.00388775)
(3.46364 0.01 -0.00392421)
(3.48182 0.01 -0.00396068)
(3.5 0.01 -0.00399716)
(3.51818 0.01 -0.00403364)
(3.53636 0.01 -0.00407014)
(3.55455 0.01 -0.00410664)
(3.57273 0.01 -0.00414314)
(3.59091 0.01 -0.00417966)
(3.60909 0.01 -0.00421618)
(3.62727 0.01 -0.00425271)
(3.64545 0.01 -0.00428925)
(3.66364 0.01 -0.00432578)
(3.68182 0.01 -0.00436231)
(3.7 0.01 -0.00439884)
(3.71818 0.01 -0.00443535)
(3.73636 0.01 -0.00447183)
(3.75455 0.01 -0.00450829)
(3.77273 0.01 -0.00454472)
(3.79091 0.01 -0.00458111)
(3.80909 0.01 -0.00461748)
(3.82727 0.01 -0.00465383)
(3.84545 0.01 -0.00469016)
(3.86364 0.01 -0.00472648)
(3.88182 0.01 -0.00476279)
(3.9 0.01 -0.00479909)
(3.91818 0.01 -0.00483539)
(3.93636 0.01 -0.00487168)
(3.95455 0.01 -0.00490796)
(3.97273 0.01 -0.00494425)
(3.99091 0.01 -0.00498053)
(4.00909 0.01 -0.00501681)
(4.02727 0.01 -0.0050531)
(4.04545 0.01 -0.00508939)
(4.06364 0.01 -0.00512569)
(4.08182 0.01 -0.00516199)
(4.1 0.01 -0.00519831)
(4.11818 0.01 -0.00523463)
(4.13636 0.01 -0.00527097)
(4.15455 0.01 -0.00530733)
(4.17273 0.01 -0.0053437)
(4.19091 0.01 -0.00538009)
(4.20909 0.01 -0.0054165)
(4.22727 0.01 -0.00545292)
(4.24545 0.01 -0.00548936)
(4.26364 0.01 -0.00552583)
(4.28182 0.01 -0.00556231)
(4.3 0.01 -0.00559881)
(4.31818 0.01 -0.00563533)
(4.33636 0.01 -0.00567187)
(4.35455 0.01 -0.00570843)
(4.37273 0.01 -0.00574501)
(4.39091 0.01 -0.00578161)
(4.40909 0.01 -0.00581822)
(4.42727 0.01 -0.00585485)
(4.44545 0.01 -0.0058915)
(4.46364 0.01 -0.00592817)
(4.48182 0.01 -0.00596486)
(4.5 0.01 -0.00600156)
(4.51818 0.01 -0.00603829)
(4.53636 0.01 -0.00607503)
(4.55455 0.01 -0.00611179)
(4.57273 0.01 -0.00614856)
(4.59091 0.01 -0.00618536)
(4.60909 0.01 -0.00622217)
(4.62727 0.01 -0.00625899)
(4.64545 0.01 -0.00629584)
(4.66364 0.01 -0.00633269)
(4.68182 0.01 -0.00636956)
(4.7 0.01 -0.00640645)
(4.71818 0.01 -0.00644334)
(4.73636 0.01 -0.00648025)
(4.75455 0.01 -0.00651718)
(4.77273 0.01 -0.00655412)
(4.79091 0.01 -0.00659108)
(4.80909 0.01 -0.00662806)
(4.82727 0.01 -0.00666505)
(4.84545 0.01 -0.00670206)
(4.86364 0.01 -0.0067391)
(4.88182 0.01 -0.00677616)
(4.9 0.01 -0.00681323)
(4.91818 0.01 -0.00685033)
(4.93636 0.01 -0.00688745)
(4.95455 0.01 -0.0069246)
(4.97273 0.01 -0.00696176)
(4.99091 0.01 -0.00699894)
(5.00909 0.01 -0.00703614)
(5.02727 0.01 -0.00707335)
(5.04545 0.01 -0.00711057)
(5.06364 0.01 -0.0071478)
(5.08182 0.01 -0.00718503)
(5.1 0.01 -0.00722226)
(5.11818 0.01 -0.00725948)
(5.13636 0.01 -0.00729669)
(5.15455 0.01 -0.00733389)
(5.17273 0.01 -0.00737108)
(5.19091 0.01 -0.00740825)
(5.20909 0.01 -0.0074454)
(5.22727 0.01 -0.00748252)
(5.24545 0.01 -0.00751963)
(5.26364 0.01 -0.00755671)
(5.28182 0.01 -0.00759376)
(5.3 0.01 -0.00763078)
(5.31818 0.01 -0.00766778)
(5.33636 0.01 -0.00770475)
(5.35455 0.01 -0.0077417)
(5.37273 0.01 -0.00777863)
(5.39091 0.01 -0.00781553)
(5.40909 0.01 -0.00785242)
(5.42727 0.01 -0.00788927)
(5.44545 0.01 -0.0079261)
(5.46364 0.01 -0.00796292)
(5.48182 0.01 -0.00799973)
(5.5 0.01 -0.00803653)
(5.51818 0.01 -0.00807333)
(5.53636 0.01 -0.0081101)
(5.55455 0.01 -0.00814687)
(5.57273 0.01 -0.00818363)
(5.59091 0.01 -0.00822037)
(5.60909 0.01 -0.0082571)
(5.62727 0.01 -0.00829381)
(5.64545 0.01 -0.0083305)
(5.66364 0.01 -0.00836718)
(5.68182 0.01 -0.00840384)
(5.7 0.01 -0.00844049)
(5.71818 0.01 -0.00847713)
(5.73636 0.01 -0.00851375)
(5.75455 0.01 -0.00855036)
(5.77273 0.01 -0.00858696)
(5.79091 0.01 -0.00862354)
(5.80909 0.01 -0.00866011)
(5.82727 0.01 -0.00869668)
(5.84545 0.01 -0.00873323)
(5.86364 0.01 -0.00876978)
(5.88182 0.01 -0.00880632)
(5.9 0.01 -0.00884285)
(5.91818 0.01 -0.00887938)
(5.93636 0.01 -0.0089159)
(5.95455 0.01 -0.00895242)
(5.97273 0.01 -0.00898893)
(5.99091 0.01 -0.00902544)
(6.00909 0.01 -0.00906194)
(6.02727 0.01 -0.00909844)
(6.04545 0.01 -0.00913493)
(6.06364 0.01 -0.00917142)
(6.08182 0.01 -0.00920789)
(6.1 0.01 -0.00924436)
(6.11818 0.01 -0.00928081)
(6.13636 0.01 -0.00931725)
(6.15455 0.01 -0.00935369)
(6.17273 0.01 -0.00939011)
(6.19091 0.01 -0.00942652)
(6.20909 0.01 -0.00946292)
(6.22727 0.01 -0.00949931)
(6.24545 0.01 -0.0095357)
(6.26364 0.01 -0.00957207)
(6.28182 0.01 -0.00960844)
(6.3 0.01 -0.0096448)
(6.31818 0.01 -0.00968115)
(6.33636 0.01 -0.0097175)
(6.35455 0.01 -0.00975385)
(6.37273 0.01 -0.0097902)
(6.39091 0.01 -0.00982656)
(6.40909 0.01 -0.00986292)
(6.42727 0.01 -0.00989929)
(6.44545 0.01 -0.00993567)
(6.46364 0.01 -0.00997206)
(6.48182 0.01 -0.0100085)
(6.5 0.01 -0.0100449)
(6.51818 0.01 -0.0100813)
(6.53636 0.01 -0.0101178)
(6.55455 0.01 -0.0101542)
(6.57273 0.01 -0.0101907)
(6.59091 0.01 -0.0102272)
(6.60909 0.01 -0.0102636)
(6.62727 0.01 -0.0103001)
(6.64545 0.01 -0.0103366)
(6.66364 0.01 -0.0103731)
(6.68182 0.01 -0.0104096)
(6.7 0.01 -0.0104461)
(6.71818 0.01 -0.0104826)
(6.73636 0.01 -0.010519)
(6.75455 0.01 -0.0105555)
(6.77273 0.01 -0.010592)
(6.79091 0.01 -0.0106284)
(6.80909 0.01 -0.0106649)
(6.82727 0.01 -0.0107013)
(6.84545 0.01 -0.0107378)
(6.86364 0.01 -0.0107742)
(6.88182 0.01 -0.0108107)
(6.9 0.01 -0.0108471)
(6.91818 0.01 -0.0108836)
(6.93636 0.01 -0.01092)
(6.95455 0.01 -0.0109565)
(6.97273 0.01 -0.010993)
(6.99091 0.01 -0.0110295)
(7.00909 0.01 -0.011066)
(7.02727 0.01 -0.0111026)
(7.04545 0.01 -0.0111391)
(7.06364 0.01 -0.0111757)
(7.08182 0.01 -0.0112123)
(7.1 0.01 -0.0112489)
(7.11818 0.01 -0.0112856)
(7.13636 0.01 -0.0113222)
(7.15455 0.01 -0.0113589)
(7.17273 0.01 -0.0113956)
(7.19091 0.01 -0.0114324)
(7.20909 0.01 -0.0114691)
(7.22727 0.01 -0.0115058)
(7.24545 0.01 -0.0115426)
(7.26364 0.01 -0.0115794)
(7.28182 0.01 -0.0116162)
(7.3 0.01 -0.011653)
(7.31818 0.01 -0.0116898)
(7.33636 0.01 -0.0117266)
(7.35455 0.01 -0.0117634)
(7.37273 0.01 -0.0118002)
(7.39091 0.01 -0.011837)
(7.40909 0.01 -0.0118738)
(7.42727 0.01 -0.0119106)
(7.44545 0.01 -0.0119473)
(7.46364 0.01 -0.0119841)
(7.48182 0.01 -0.0120208)
(7.5 0.01 -0.0120575)
(7.51818 0.01 -0.0120943)
(7.53636 0.01 -0.012131)
(7.55455 0.01 -0.0121677)
(7.57273 0.01 -0.0122043)
(7.59091 0.01 -0.012241)
(7.60909 0.01 -0.0122777)
(7.62727 0.01 -0.0123144)
(7.64545 0.01 -0.012351)
(7.66364 0.01 -0.0123877)
(7.68182 0.01 -0.0124244)
(7.7 0.01 -0.0124611)
(7.71818 0.01 -0.0124977)
(7.73636 0.01 -0.0125344)
(7.75455 0.01 -0.0125711)
(7.77273 0.01 -0.0126078)
(7.79091 0.01 -0.0126445)
(7.80909 0.01 -0.0126812)
(7.82727 0.01 -0.0127179)
(7.84545 0.01 -0.0127546)
(7.86364 0.01 -0.0127913)
(7.88182 0.01 -0.012828)
(7.9 0.01 -0.0128647)
(7.91818 0.01 -0.0129013)
(7.93636 0.01 -0.012938)
(7.95455 0.01 -0.0129746)
(7.97273 0.01 -0.0130113)
(7.99091 0.01 -0.0130479)
(8.00909 0.01 -0.0130845)
(8.02727 0.01 -0.0131211)
(8.04545 0.01 -0.0131577)
(8.06364 0.01 -0.0131942)
(8.08182 0.01 -0.0132308)
(8.1 0.01 -0.0132673)
(8.11818 0.01 -0.0133039)
(8.13636 0.01 -0.0133404)
(8.15455 0.01 -0.0133769)
(8.17273 0.01 -0.0134134)
(8.19091 0.01 -0.0134499)
(8.20909 0.01 -0.0134864)
(8.22727 0.01 -0.0135229)
(8.24545 0.01 -0.0135594)
(8.26364 0.01 -0.0135959)
(8.28182 0.01 -0.0136324)
(8.3 0.01 -0.0136689)
(8.31818 0.01 -0.0137054)
(8.33636 0.01 -0.0137418)
(8.35455 0.01 -0.0137783)
(8.37273 0.01 -0.0138148)
(8.39091 0.01 -0.0138513)
(8.40909 0.01 -0.0138878)
(8.42727 0.01 -0.0139243)
(8.44545 0.01 -0.0139607)
(8.46364 0.01 -0.0139972)
(8.48182 0.01 -0.0140337)
(8.5 0.01 -0.0140701)
(8.51818 0.01 -0.0141066)
(8.53636 0.01 -0.014143)
(8.55455 0.01 -0.0141794)
(8.57273 0.01 -0.0142159)
(8.59091 0.01 -0.0142523)
(8.60909 0.01 -0.0142887)
(8.62727 0.01 -0.0143251)
(8.64545 0.01 -0.0143614)
(8.66364 0.01 -0.0143978)
(8.68182 0.01 -0.0144342)
(8.7 0.01 -0.0144706)
(8.71818 0.01 -0.0145071)
(8.73636 0.01 -0.0145435)
(8.75455 0.01 -0.0145799)
(8.77273 0.01 -0.0146164)
(8.79091 0.01 -0.0146529)
(8.80909 0.01 -0.0146894)
(8.82727 0.01 -0.0147259)
(8.84545 0.01 -0.0147624)
(8.86364 0.01 -0.0147989)
(8.88182 0.01 -0.0148355)
(8.9 0.01 -0.014872)
(8.91818 0.01 -0.0149086)
(8.93636 0.01 -0.0149452)
(8.95455 0.01 -0.0149818)
(8.97273 0.01 -0.0150185)
(8.99091 0.01 -0.0150551)
(9.00909 0.01 -0.0150917)
(9.02727 0.01 -0.0151283)
(9.04545 0.01 -0.0151649)
(9.06364 0.01 -0.0152015)
(9.08182 0.01 -0.0152381)
(9.1 0.01 -0.0152748)
(9.11818 0.01 -0.0153114)
(9.13636 0.01 -0.015348)
(9.15455 0.01 -0.0153846)
(9.17273 0.01 -0.0154212)
(9.19091 0.01 -0.0154578)
(9.20909 0.01 -0.0154944)
(9.22727 0.01 -0.015531)
(9.24545 0.01 -0.0155676)
(9.26364 0.01 -0.0156042)
(9.28182 0.01 -0.0156408)
(9.3 0.01 -0.0156773)
(9.31818 0.01 -0.0157139)
(9.33636 0.01 -0.0157505)
(9.35455 0.01 -0.0157871)
(9.37273 0.01 -0.0158237)
(9.39091 0.01 -0.0158603)
(9.40909 0.01 -0.0158968)
(9.42727 0.01 -0.0159334)
(9.44545 0.01 -0.01597)
(9.46364 0.01 -0.0160066)
(9.48182 0.01 -0.0160432)
(9.5 0.01 -0.0160797)
(9.51818 0.01 -0.0161163)
(9.53636 0.01 -0.0161528)
(9.55455 0.01 -0.0161893)
(9.57273 0.01 -0.0162258)
(9.59091 0.01 -0.0162622)
(9.60909 0.01 -0.0162984)
(9.62727 0.01 -0.0163345)
(9.64545 0.01 -0.0163702)
(9.66364 0.01 -0.0164055)
(9.68182 0.01 -0.0164401)
(9.7 0.01 -0.0164737)
(9.71818 0.01 -0.0165059)
(9.73636 0.01 -0.0165362)
(9.75455 0.01 -0.0165662)
(9.77272 0.01 -0.0165983)
(9.79091 0.01 -0.0167407)
(9.8091 0.01 -0.0169975)
(9.82727 0.01 -0.0171506)
(9.84545 0.01 -0.0171909)
(9.86364 0.01 -0.0172272)
(9.88182 0.01 -0.0172636)
(9.9 0.01 -0.0173)
(9.91818 0.01 -0.0173364)
(9.93636 0.01 -0.0173727)
(9.95455 0.01 -0.0174091)
(9.97273 0.01 -0.0174455)
(9.99091 0.01 -0.0174818)
(0.00909091 0.01 0.00748182)
(0.0272727 0.01 0.00744545)
(0.0454545 0.01 0.00740909)
(0.0636364 0.01 0.00737273)
(0.0818182 0.01 0.00733636)
(0.1 0.01 0.0073)
(0.118182 0.01 0.00726364)
(0.136364 0.01 0.00722727)
(0.154545 0.01 0.00719091)
(0.172727 0.01 0.00715455)
(0.190909 0.01 0.00711818)
(0.209091 0.01 0.00708182)
(0.227273 0.01 0.00704545)
(0.245455 0.01 0.00700909)
(0.263636 0.01 0.00697273)
(0.281818 0.01 0.00693636)
(0.3 0.01 0.0069)
(0.318182 0.01 0.00686364)
(0.336364 0.01 0.00682727)
(0.354545 0.01 0.00679091)
(0.372727 0.01 0.00675455)
(0.390909 0.01 0.00671818)
(0.409091 0.01 0.00668182)
(0.427273 0.01 0.00664546)
(0.445455 0.01 0.00660909)
(0.463636 0.01 0.00657273)
(0.481818 0.01 0.00653637)
(0.5 0.01 0.00649994)
(0.518182 0.01 0.00646304)
(0.536364 0.01 0.00642806)
(0.554545 0.01 0.00639921)
(0.572727 0.01 0.00637706)
(0.590909 0.01 0.00635958)
(0.609091 0.01 0.00634374)
(0.627273 0.01 0.00632723)
(0.645455 0.01 0.00630939)
(0.663636 0.01 0.00629002)
(0.681818 0.01 0.00626917)
(0.7 0.01 0.00624698)
(0.718182 0.01 0.00622356)
(0.736364 0.01 0.00619905)
(0.754545 0.01 0.00617358)
(0.772727 0.01 0.00614726)
(0.790909 0.01 0.0061202)
(0.809091 0.01 0.00609247)
(0.827273 0.01 0.0060641)
(0.845455 0.01 0.00603514)
(0.863636 0.01 0.00600564)
(0.881818 0.01 0.00597564)
(0.9 0.01 0.00594522)
(0.918182 0.01 0.00591442)
(0.936364 0.01 0.0058833)
(0.954545 0.01 0.00585191)
(0.972727 0.01 0.00582028)
(0.990909 0.01 0.00578843)
(1.00909 0.01 0.0057564)
(1.02727 0.01 0.00572418)
(1.04545 0.01 0.00569179)
(1.06364 0.01 0.00565925)
(1.08182 0.01 0.00562656)
(1.1 0.01 0.00559374)
(1.11818 0.01 0.00556079)
(1.13636 0.01 0.00552773)
(1.15455 0.01 0.00549455)
(1.17273 0.01 0.00546129)
(1.19091 0.01 0.00542794)
(1.20909 0.01 0.00539452)
(1.22727 0.01 0.00536104)
(1.24545 0.01 0.00532749)
(1.26364 0.01 0.00529387)
(1.28182 0.01 0.00526019)
(1.3 0.01 0.00522644)
(1.31818 0.01 0.00519262)
(1.33636 0.01 0.00515874)
(1.35455 0.01 0.00512479)
(1.37273 0.01 0.0050908)
(1.39091 0.01 0.00505678)
(1.40909 0.01 0.00502272)
(1.42727 0.01 0.00498861)
(1.44545 0.01 0.00495446)
(1.46364 0.01 0.00492028)
(1.48182 0.01 0.00488608)
(1.5 0.01 0.00485186)
(1.51818 0.01 0.00481763)
(1.53636 0.01 0.0047834)
(1.55455 0.01 0.00474916)
(1.57273 0.01 0.00471492)
(1.59091 0.01 0.00468066)
(1.60909 0.01 0.00464639)
(1.62727 0.01 0.00461211)
(1.64545 0.01 0.00457783)
(1.66364 0.01 0.00454352)
(1.68182 0.01 0.00450919)
(1.7 0.01 0.00447482)
(1.71818 0.01 0.00444041)
(1.73636 0.01 0.00440597)
(1.75455 0.01 0.00437148)
(1.77273 0.01 0.00433698)
(1.79091 0.01 0.00430247)
(1.80909 0.01 0.00426799)
(1.82727 0.01 0.00423354)
(1.84545 0.01 0.00419913)
(1.86364 0.01 0.00416476)
(1.88182 0.01 0.00413043)
(1.9 0.01 0.00409614)
(1.91818 0.01 0.00406188)
(1.93636 0.01 0.00402765)
(1.95455 0.01 0.00399346)
(1.97273 0.01 0.00395928)
(1.99091 0.01 0.00392512)
(2.00909 0.01 0.00389098)
(2.02727 0.01 0.00385687)
(2.04545 0.01 0.00382278)
(2.06364 0.01 0.0037887)
(2.08182 0.01 0.00375463)
(2.1 0.01 0.00372056)
(2.11818 0.01 0.00368649)
(2.13636 0.01 0.00365242)
(2.15455 0.01 0.00361834)
(2.17273 0.01 0.00358424)
(2.19091 0.01 0.00355014)
(2.20909 0.01 0.00351602)
(2.22727 0.01 0.00348189)
(2.24545 0.01 0.00344773)
(2.26364 0.01 0.00341356)
(2.28182 0.01 0.00337938)
(2.3 0.01 0.00334517)
(2.31818 0.01 0.00331094)
(2.33636 0.01 0.00327668)
(2.35455 0.01 0.0032424)
(2.37273 0.01 0.00320809)
(2.39091 0.01 0.00317375)
(2.40909 0.01 0.00313938)
(2.42727 0.01 0.00310497)
(2.44545 0.01 0.00307053)
(2.46364 0.01 0.00303605)
(2.48182 0.01 0.00300153)
(2.5 0.01 0.00296697)
(2.51818 0.01 0.00293238)
(2.53636 0.01 0.00289774)
(2.55455 0.01 0.00286306)
(2.57273 0.01 0.00282834)
(2.59091 0.01 0.00279358)
(2.60909 0.01 0.00275877)
(2.62727 0.01 0.00272392)
(2.64545 0.01 0.00268903)
(2.66364 0.01 0.00265409)
(2.68182 0.01 0.0026191)
(2.7 0.01 0.00258408)
(2.71818 0.01 0.002549)
(2.73636 0.01 0.00251389)
(2.75455 0.01 0.00247872)
(2.77273 0.01 0.00244352)
(2.79091 0.01 0.00240826)
(2.80909 0.01 0.00237296)
(2.82727 0.01 0.00233761)
(2.84545 0.01 0.00230221)
(2.86364 0.01 0.00226677)
(2.88182 0.01 0.00223128)
(2.9 0.01 0.00219575)
(2.91818 0.01 0.00216016)
(2.93636 0.01 0.00212453)
(2.95455 0.01 0.00208884)
(2.97273 0.01 0.00205311)
(2.99091 0.01 0.00201734)
(3.00909 0.01 0.00198151)
(3.02727 0.01 0.00194565)
(3.04545 0.01 0.00190973)
(3.06364 0.01 0.00187378)
(3.08182 0.01 0.00183778)
(3.1 0.01 0.00180174)
(3.11818 0.01 0.00176566)
(3.13636 0.01 0.00172955)
(3.15455 0.01 0.00169342)
(3.17273 0.01 0.00165725)
(3.19091 0.01 0.00162105)
(3.20909 0.01 0.00158483)
(3.22727 0.01 0.00154859)
(3.24545 0.01 0.00151232)
(3.26364 0.01 0.00147604)
(3.28182 0.01 0.00143973)
(3.3 0.01 0.00140341)
(3.31818 0.01 0.00136707)
(3.33636 0.01 0.00133071)
(3.35455 0.01 0.00129433)
(3.37273 0.01 0.00125794)
(3.39091 0.01 0.00122154)
(3.40909 0.01 0.00118512)
(3.42727 0.01 0.00114868)
(3.44545 0.01 0.00111224)
(3.46364 0.01 0.00107578)
(3.48182 0.01 0.00103931)
(3.5 0.01 0.00100284)
(3.51818 0.01 0.000966349)
(3.53636 0.01 0.000929855)
(3.55455 0.01 0.000893354)
(3.57273 0.01 0.000856846)
(3.59091 0.01 0.00082033)
(3.60909 0.01 0.000783808)
(3.62727 0.01 0.000747279)
(3.64545 0.01 0.000710745)
(3.66364 0.01 0.00067421)
(3.68182 0.01 0.000637679)
(3.7 0.01 0.000601157)
(3.71818 0.01 0.000564648)
(3.73636 0.01 0.00052816)
(3.75455 0.01 0.0004917)
(3.77273 0.01 0.000455275)
(3.79091 0.01 0.000418882)
(3.80909 0.01 0.000382513)
(3.82727 0.01 0.000346164)
(3.84545 0.01 0.000309831)
(3.86364 0.01 0.000273511)
(3.88182 0.01 0.000237202)
(3.9 0.01 0.0002009)
(3.91818 0.01 0.000164605)
(3.93636 0.01 0.000128315)
(3.95455 0.01 9.20295e-05)
(3.97273 0.01 5.57459e-05)
(3.99091 0.01 1.94629e-05)
(4.00909 0.01 -1.68209e-05)
(4.02727 0.01 -5.31073e-05)
(4.04545 0.01 -8.93979e-05)
(4.06364 0.01 -0.000125695)
(4.08182 0.01 -0.000162)
(4.1 0.01 -0.000198316)
(4.11818 0.01 -0.000234643)
(4.13636 0.01 -0.000270984)
(4.15455 0.01 -0.00030734)
(4.17273 0.01 -0.000343712)
(4.19091 0.01 -0.000380101)
(4.20909 0.01 -0.000416507)
(4.22727 0.01 -0.000452932)
(4.24545 0.01 -0.000489375)
(4.26364 0.01 -0.000525838)
(4.28182 0.01 -0.000562321)
(4.3 0.01 -0.000598822)
(4.31818 0.01 -0.000635342)
(4.33636 0.01 -0.000671882)
(4.35455 0.01 -0.000708441)
(4.37273 0.01 -0.000745019)
(4.39091 0.01 -0.000781616)
(4.40909 0.01 -0.00081823)
(4.42727 0.01 -0.000854863)
(4.44545 0.01 -0.000891513)
(4.46364 0.01 -0.000928181)
(4.48182 0.01 -0.000964868)
(4.5 0.01 -0.00100157)
(4.51818 0.01 -0.0010383)
(4.53636 0.01 -0.00107504)
(4.55455 0.01 -0.0011118)
(4.57273 0.01 -0.00114857)
(4.59091 0.01 -0.00118537)
(4.60909 0.01 -0.00122218)
(4.62727 0.01 -0.001259)
(4.64545 0.01 -0.00129584)
(4.66364 0.01 -0.0013327)
(4.68182 0.01 -0.00136957)
(4.7 0.01 -0.00140646)
(4.71818 0.01 -0.00144335)
(4.73636 0.01 -0.00148026)
(4.75455 0.01 -0.00151719)
(4.77273 0.01 -0.00155413)
(4.79091 0.01 -0.00159109)
(4.80909 0.01 -0.00162807)
(4.82727 0.01 -0.00166506)
(4.84545 0.01 -0.00170207)
(4.86364 0.01 -0.00173911)
(4.88182 0.01 -0.00177617)
(4.9 0.01 -0.00181324)
(4.91818 0.01 -0.00185034)
(4.93636 0.01 -0.00188746)
(4.95455 0.01 -0.00192461)
(4.97273 0.01 -0.00196177)
(4.99091 0.01 -0.00199895)
(5.00909 0.01 -0.00203615)
(5.02727 0.01 -0.00207336)
(5.04545 0.01 -0.00211058)
(5.06364 0.01 -0.00214781)
(5.08182 0.01 -0.00218504)
(5.1 0.01 -0.00222227)
(5.11818 0.01 -0.00225948)
(5.13636 0.01 -0.0022967)
(5.15455 0.01 -0.0023339)
(5.17273 0.01 -0.00237108)
(5.19091 0.01 -0.00240825)
(5.20909 0.01 -0.0024454)
(5.22727 0.01 -0.00248253)
(5.24545 0.01 -0.00251963)
(5.26364 0.01 -0.00255671)
(5.28182 0.01 -0.00259376)
(5.3 0.01 -0.00263079)
(5.31818 0.01 -0.00266778)
(5.33636 0.01 -0.00270476)
(5.35455 0.01 -0.0027417)
(5.37273 0.01 -0.00277863)
(5.39091 0.01 -0.00281554)
(5.40909 0.01 -0.00285242)
(5.42727 0.01 -0.00288928)
(5.44545 0.01 -0.00292611)
(5.46364 0.01 -0.00296293)
(5.48182 0.01 -0.00299974)
(5.5 0.01 -0.00303654)
(5.51818 0.01 -0.00307333)
(5.53636 0.01 -0.00311011)
(5.55455 0.01 -0.00314688)
(5.57273 0.01 -0.00318364)
(5.59091 0.01 -0.00322038)
(5.60909 0.01 -0.0032571)
(5.62727 0.01 -0.00329382)
(5.64545 0.01 -0.00333051)
(5.66364 0.01 -0.00336719)
(5.68182 0.01 -0.00340385)
(5.7 0.01 -0.0034405)
(5.71818 0.01 -0.00347713)
(5.73636 0.01 -0.00351376)
(5.75455 0.01 -0.00355036)
(5.77273 0.01 -0.00358696)
(5.79091 0.01 -0.00362355)
(5.80909 0.01 -0.00366012)
(5.82727 0.01 -0.00369668)
(5.84545 0.01 -0.00373324)
(5.86364 0.01 -0.00376978)
(5.88182 0.01 -0.00380632)
(5.9 0.01 -0.00384286)
(5.91818 0.01 -0.00387938)
(5.93636 0.01 -0.00391591)
(5.95455 0.01 -0.00395242)
(5.97273 0.01 -0.00398894)
(5.99091 0.01 -0.00402544)
(6.00909 0.01 -0.00406195)
(6.02727 0.01 -0.00409845)
(6.04545 0.01 -0.00413494)
(6.06364 0.01 -0.00417142)
(6.08182 0.01 -0.0042079)
(6.1 0.01 -0.00424436)
(6.11818 0.01 -0.00428082)
(6.13636 0.01 -0.00431726)
(6.15455 0.01 -0.00435369)
(6.17273 0.01 -0.00439012)
(6.19091 0.01 -0.00442653)
(6.20909 0.01 -0.00446293)
(6.22727 0.01 -0.00449932)
(6.24545 0.01 -0.00453571)
(6.26364 0.01 -0.00457208)
(6.28182 0.01 -0.00460845)
(6.3 0.01 -0.00464481)
(6.31818 0.01 -0.00468116)
(6.33636 0.01 -0.00471751)
(6.35455 0.01 -0.00475386)
(6.37273 0.01 -0.00479021)
(6.39091 0.01 -0.00482657)
(6.40909 0.01 -0.00486293)
(6.42727 0.01 -0.0048993)
(6.44545 0.01 -0.00493568)
(6.46364 0.01 -0.00497207)
(6.48182 0.01 -0.00500847)
(6.5 0.01 -0.00504489)
(6.51818 0.01 -0.00508132)
(6.53636 0.01 -0.00511776)
(6.55455 0.01 -0.00515422)
(6.57273 0.01 -0.00519069)
(6.59091 0.01 -0.00522717)
(6.60909 0.01 -0.00526365)
(6.62727 0.01 -0.00530014)
(6.64545 0.01 -0.00533664)
(6.66364 0.01 -0.00537313)
(6.68182 0.01 -0.00540961)
(6.7 0.01 -0.0054461)
(6.71818 0.01 -0.00548257)
(6.73636 0.01 -0.00551905)
(6.75455 0.01 -0.00555551)
(6.77273 0.01 -0.00559197)
(6.79091 0.01 -0.00562843)
(6.80909 0.01 -0.00566488)
(6.82727 0.01 -0.00570133)
(6.84545 0.01 -0.00573777)
(6.86364 0.01 -0.00577422)
(6.88182 0.01 -0.00581067)
(6.9 0.01 -0.00584712)
(6.91818 0.01 -0.00588358)
(6.93636 0.01 -0.00592005)
(6.95455 0.01 -0.00595653)
(6.97273 0.01 -0.00599302)
(6.99091 0.01 -0.00602953)
(7.00909 0.01 -0.00606605)
(7.02727 0.01 -0.00610259)
(7.04545 0.01 -0.00613915)
(7.06364 0.01 -0.00617573)
(7.08182 0.01 -0.00621233)
(7.1 0.01 -0.00624895)
(7.11818 0.01 -0.00628559)
(7.13636 0.01 -0.00632225)
(7.15455 0.01 -0.00635894)
(7.17273 0.01 -0.00639564)
(7.19091 0.01 -0.00643236)
(7.20909 0.01 -0.0064691)
(7.22727 0.01 -0.00650585)
(7.24545 0.01 -0.00654262)
(7.26364 0.01 -0.0065794)
(7.28182 0.01 -0.00661619)
(7.3 0.01 -0.00665298)
(7.31818 0.01 -0.00668979)
(7.33636 0.01 -0.00672659)
(7.35455 0.01 -0.0067634)
(7.37273 0.01 -0.0068002)
(7.39091 0.01 -0.006837)
(7.40909 0.01 -0.00687379)
(7.42727 0.01 -0.00691057)
(7.44545 0.01 -0.00694734)
(7.46364 0.01 -0.00698409)
(7.48182 0.01 -0.00702083)
(7.5 0.01 -0.00705755)
(7.51818 0.01 -0.00709427)
(7.53636 0.01 -0.00713097)
(7.55455 0.01 -0.00716766)
(7.57273 0.01 -0.00720434)
(7.59091 0.01 -0.00724102)
(7.60909 0.01 -0.00727769)
(7.62727 0.01 -0.00731436)
(7.64545 0.01 -0.00735103)
(7.66364 0.01 -0.0073877)
(7.68182 0.01 -0.00742438)
(7.7 0.01 -0.00746106)
(7.71818 0.01 -0.00749774)
(7.73636 0.01 -0.00753443)
(7.75455 0.01 -0.00757113)
(7.77273 0.01 -0.00760782)
(7.79091 0.01 -0.00764452)
(7.80909 0.01 -0.00768122)
(7.82727 0.01 -0.00771792)
(7.84545 0.01 -0.00775462)
(7.86364 0.01 -0.00779131)
(7.88182 0.01 -0.007828)
(7.9 0.01 -0.00786467)
(7.91818 0.01 -0.00790134)
(7.93636 0.01 -0.007938)
(7.95455 0.01 -0.00797464)
(7.97273 0.01 -0.00801127)
(7.99091 0.01 -0.00804789)
(8.00909 0.01 -0.00808449)
(8.02727 0.01 -0.00812109)
(8.04545 0.01 -0.00815767)
(8.06364 0.01 -0.00819424)
(8.08182 0.01 -0.0082308)
(8.1 0.01 -0.00826734)
(8.11818 0.01 -0.00830388)
(8.13636 0.01 -0.00834041)
(8.15455 0.01 -0.00837694)
(8.17273 0.01 -0.00841345)
(8.19091 0.01 -0.00844995)
(8.20909 0.01 -0.00848645)
(8.22727 0.01 -0.00852294)
(8.24545 0.01 -0.00855943)
(8.26364 0.01 -0.00859591)
(8.28182 0.01 -0.0086324)
(8.3 0.01 -0.00866888)
(8.31818 0.01 -0.00870536)
(8.33636 0.01 -0.00874184)
(8.35455 0.01 -0.00877833)
(8.37273 0.01 -0.00881481)
(8.39091 0.01 -0.00885129)
(8.40909 0.01 -0.00888778)
(8.42727 0.01 -0.00892426)
(8.44545 0.01 -0.00896074)
(8.46364 0.01 -0.00899721)
(8.48182 0.01 -0.00903368)
(8.5 0.01 -0.00907013)
(8.51818 0.01 -0.00910658)
(8.53636 0.01 -0.00914302)
(8.55455 0.01 -0.00917944)
(8.57273 0.01 -0.00921586)
(8.59091 0.01 -0.00925226)
(8.60909 0.01 -0.00928866)
(8.62727 0.01 -0.00932506)
(8.64545 0.01 -0.00936145)
(8.66364 0.01 -0.00939785)
(8.68182 0.01 -0.00943425)
(8.7 0.01 -0.00947065)
(8.71818 0.01 -0.00950707)
(8.73636 0.01 -0.0095435)
(8.75455 0.01 -0.00957994)
(8.77273 0.01 -0.0096164)
(8.79091 0.01 -0.00965288)
(8.80909 0.01 -0.00968937)
(8.82727 0.01 -0.00972588)
(8.84545 0.01 -0.0097624)
(8.86364 0.01 -0.00979894)
(8.88182 0.01 -0.00983549)
(8.9 0.01 -0.00987206)
(8.91818 0.01 -0.00990864)
(8.93636 0.01 -0.00994524)
(8.95455 0.01 -0.00998184)
(8.97273 0.01 -0.0100185)
(8.99091 0.01 -0.0100551)
(9.00909 0.01 -0.0100917)
(9.02727 0.01 -0.0101283)
(9.04545 0.01 -0.0101649)
(9.06364 0.01 -0.0102015)
(9.08182 0.01 -0.0102382)
(9.1 0.01 -0.0102748)
(9.11818 0.01 -0.0103114)
(9.13636 0.01 -0.010348)
(9.15455 0.01 -0.0103846)
(9.17273 0.01 -0.0104212)
(9.19091 0.01 -0.0104578)
(9.20909 0.01 -0.0104944)
(9.22727 0.01 -0.010531)
(9.24545 0.01 -0.0105676)
(9.26364 0.01 -0.0106042)
(9.28182 0.01 -0.0106408)
(9.3 0.01 -0.0106773)
(9.31818 0.01 -0.0107139)
(9.33636 0.01 -0.0107505)
(9.35455 0.01 -0.0107871)
(9.37273 0.01 -0.0108237)
(9.39091 0.01 -0.0108603)
(9.40909 0.01 -0.0108968)
(9.42727 0.01 -0.0109334)
(9.44545 0.01 -0.01097)
(9.46364 0.01 -0.0110066)
(9.48182 0.01 -0.0110432)
(9.5 0.01 -0.0110797)
(9.51818 0.01 -0.0111163)
(9.53636 0.01 -0.0111528)
(9.55455 0.01 -0.0111893)
(9.57273 0.01 -0.0112258)
(9.59091 0.01 -0.0112622)
(9.60909 0.01 -0.0112984)
(9.62727 0.01 -0.0113345)
(9.64545 0.01 -0.0113702)
(9.66364 0.01 -0.0114054)
(9.68182 0.01 -0.01144)
(9.7 0.01 -0.0114736)
(9.71818 0.01 -0.0115058)
(9.73636 0.01 -0.0115364)
(9.75455 0.01 -0.0115668)
(9.77272 0.01 -0.0116073)
(9.79091 0.01 -0.0117496)
(9.8091 0.01 -0.0119888)
(9.82727 0.01 -0.0121411)
(9.84545 0.01 -0.0121902)
(9.86364 0.01 -0.012227)
(9.88182 0.01 -0.0122635)
(9.9 0.01 -0.0122999)
(9.91818 0.01 -0.0123363)
(9.93636 0.01 -0.0123727)
(9.95455 0.01 -0.0124091)
(9.97273 0.01 -0.0124454)
(9.99091 0.01 -0.0124818)
(0.00909091 0.01 0.0124818)
(0.0272727 0.01 0.0124455)
(0.0454545 0.01 0.0124091)
(0.0636364 0.01 0.0123727)
(0.0818182 0.01 0.0123364)
(0.1 0.01 0.0123)
(0.118182 0.01 0.0122636)
(0.136364 0.01 0.0122273)
(0.154545 0.01 0.0121909)
(0.172727 0.01 0.0121545)
(0.190909 0.01 0.0121182)