/*--------------------------------*- C++ -*----------------------------------*\
| =========                 |                                                 |
| \\      /  F ield         | foam-extend: Open Source CFD                    |
|  \\    /   O peration     | Version:     3.2                                |
|   \\  /    A nd           | Web:         http://www.foam-extend.org         |
|    \\/     M anipulation  | For copyright notice see file Copyright         |
\*---------------------------------------------------------------------------*/
FoamFile
{
    version     2.0;
    format      ascii;
    class       tetPointVectorField;
    location    "120";
    object      motionU;
}
// * * * * * * * * * * * * * * * * * * * * * * * * * * * * * * * * * * * * * //

dimensions      [0 1 -1 0 0 0 0];

internalField   nonuniform List<vector> 
232832
(
(0 0 0)
(0 0 0)
(0 0 0)
(0 0 0)
(0 0 0)
(0 0 0)
(0 0 0)
(0 0 0)
(0 0 0)
(0 0 0)
(0 0 0)
(0 0 0)
(0 0 0)
(0 0 0)
(0 0 0)
(0 0 0)
(0 0 0)
(0 0 0)
(0 0 0)
(0 0 0)
(0 0 0)
(0 0 0)
(0 0 0)
(0 0 0)
(0 0 0)
(0 0 0)
(0 0 0)
(0 0 0)
(0 0 0)
(0 0 -6.87629e-08)
(0 0 -7.63165e-08)
(0 0 9.907e-08)
(0 0 3.11037e-07)
(0 0 5.06782e-07)
(0 0 7.07417e-07)
(0 0 9.06387e-07)
(0 0 1.09275e-06)
(0 0 1.26556e-06)
(0 0 1.42439e-06)
(0 0 1.57026e-06)
(0 0 1.70412e-06)
(0 0 1.82714e-06)
(0 0 1.94053e-06)
(0 0 2.0454e-06)
(0 0 2.14268e-06)
(0 0 2.23302e-06)
(0 0 2.31684e-06)
(0 0 2.39457e-06)
(0 0 2.46672e-06)
(0 0 2.5339e-06)
(0 0 2.59672e-06)
(0 0 2.65577e-06)
(0 0 2.71155e-06)
(0 0 2.76459e-06)
(0 0 2.81535e-06)
(0 0 2.86413e-06)
(0 0 2.91106e-06)
(0 0 2.95619e-06)
(0 0 2.99962e-06)
(0 0 3.04153e-06)
(0 0 3.08201e-06)
(0 0 3.12116e-06)
(0 0 3.15904e-06)
(0 0 3.19574e-06)
(0 0 3.23141e-06)
(0 0 3.26623e-06)
(0 0 3.30034e-06)
(0 0 3.33383e-06)
(0 0 3.36675e-06)
(0 0 3.3991e-06)
(0 0 3.43086e-06)
(0 0 3.46201e-06)
(0 0 3.49251e-06)
(0 0 3.52232e-06)
(0 0 3.55148e-06)
(0 0 3.58017e-06)
(0 0 3.60854e-06)
(0 0 3.63658e-06)
(0 0 3.6642e-06)
(0 0 3.69136e-06)
(0 0 3.71815e-06)
(0 0 3.74465e-06)
(0 0 3.77094e-06)
(0 0 3.79708e-06)
(0 0 3.82314e-06)
(0 0 3.84916e-06)
(0 0 3.87511e-06)
(0 0 3.90095e-06)
(0 0 3.9267e-06)
(0 0 3.95242e-06)
(0 0 3.97817e-06)
(0 0 4.00386e-06)
(0 0 4.02931e-06)
(0 0 4.05447e-06)
(0 0 4.07931e-06)
(0 0 4.10382e-06)
(0 0 4.12792e-06)
(0 0 4.15162e-06)
(0 0 4.17516e-06)
(0 0 4.19883e-06)
(0 0 4.22281e-06)
(0 0 4.24722e-06)
(0 0 4.27213e-06)
(0 0 4.29753e-06)
(0 0 4.32344e-06)
(0 0 4.34983e-06)
(0 0 4.37666e-06)
(0 0 4.40389e-06)
(0 0 4.43146e-06)
(0 0 4.45934e-06)
(0 0 4.48747e-06)
(0 0 4.51582e-06)
(0 0 4.5445e-06)
(0 0 4.57348e-06)
(0 0 4.60262e-06)
(0 0 4.63186e-06)
(0 0 4.66118e-06)
(0 0 4.69052e-06)
(0 0 4.71984e-06)
(0 0 4.74912e-06)
(0 0 4.7783e-06)
(0 0 4.80739e-06)
(0 0 4.83637e-06)
(0 0 4.86523e-06)
(0 0 4.89397e-06)
(0 0 4.92259e-06)
(0 0 4.95106e-06)
(0 0 4.97936e-06)
(0 0 5.00746e-06)
(0 0 5.0353e-06)
(0 0 5.06286e-06)
(0 0 5.09012e-06)
(0 0 5.11706e-06)
(0 0 5.14366e-06)
(0 0 5.16989e-06)
(0 0 5.19575e-06)
(0 0 5.22121e-06)
(0 0 5.24626e-06)
(0 0 5.2709e-06)
(0 0 5.29514e-06)
(0 0 5.31898e-06)
(0 0 5.3424e-06)
(0 0 5.36537e-06)
(0 0 5.3879e-06)
(0 0 5.40998e-06)
(0 0 5.4316e-06)
(0 0 5.45277e-06)
(0 0 5.47349e-06)
(0 0 5.49374e-06)
(0 0 5.51352e-06)
(0 0 5.53284e-06)
(0 0 5.5517e-06)
(0 0 5.57008e-06)
(0 0 5.58797e-06)
(0 0 5.60536e-06)
(0 0 5.62226e-06)
(0 0 5.63865e-06)
(0 0 5.65454e-06)
(0 0 5.66994e-06)
(0 0 5.68481e-06)
(0 0 5.69914e-06)
(0 0 5.71292e-06)
(0 0 5.72615e-06)
(0 0 5.73883e-06)
(0 0 5.75098e-06)
(0 0 5.7626e-06)
(0 0 5.7737e-06)
(0 0 5.78429e-06)
(0 0 5.79439e-06)
(0 0 5.804e-06)
(0 0 5.81314e-06)
(0 0 5.82185e-06)
(0 0 5.83017e-06)
(0 0 5.83814e-06)
(0 0 5.8458e-06)
(0 0 5.85315e-06)
(0 0 5.86021e-06)
(0 0 5.86701e-06)
(0 0 5.87359e-06)
(0 0 5.87994e-06)
(0 0 5.88607e-06)
(0 0 5.892e-06)
(0 0 5.89774e-06)
(0 0 5.9033e-06)
(0 0 5.90868e-06)
(0 0 5.91389e-06)
(0 0 5.91893e-06)
(0 0 5.92382e-06)
(0 0 5.92856e-06)
(0 0 5.93314e-06)
(0 0 5.93759e-06)
(0 0 5.94189e-06)
(0 0 5.94606e-06)
(0 0 5.95012e-06)
(0 0 5.95408e-06)
(0 0 5.95796e-06)
(0 0 5.96174e-06)
(0 0 5.96544e-06)
(0 0 5.96906e-06)
(0 0 5.9726e-06)
(0 0 5.97608e-06)
(0 0 5.97952e-06)
(0 0 5.98298e-06)
(0 0 5.98651e-06)
(0 0 5.9902e-06)
(0 0 5.99414e-06)
(0 0 5.99838e-06)
(0 0 6.00306e-06)
(0 0 6.00815e-06)
(0 0 6.0136e-06)
(0 0 6.01932e-06)
(0 0 6.02527e-06)
(0 0 6.03143e-06)
(0 0 6.03776e-06)
(0 0 6.04423e-06)
(0 0 6.05082e-06)
(0 0 6.05751e-06)
(0 0 6.06428e-06)
(0 0 6.07112e-06)
(0 0 6.078e-06)
(0 0 6.0849e-06)
(0 0 6.0918e-06)
(0 0 6.09869e-06)
(0 0 6.10554e-06)
(0 0 6.11232e-06)
(0 0 6.11903e-06)
(0 0 6.12563e-06)
(0 0 6.1321e-06)
(0 0 6.13842e-06)
(0 0 6.14457e-06)
(0 0 6.15054e-06)
(0 0 6.15631e-06)
(0 0 6.16188e-06)
(0 0 6.16723e-06)
(0 0 6.17235e-06)
(0 0 6.17724e-06)
(0 0 6.18191e-06)
(0 0 6.18634e-06)
(0 0 6.19056e-06)
(0 0 6.19454e-06)
(0 0 6.19828e-06)
(0 0 6.2018e-06)
(0 0 6.20511e-06)
(0 0 6.20821e-06)
(0 0 6.21109e-06)
(0 0 6.21377e-06)
(0 0 6.21623e-06)
(0 0 6.21848e-06)
(0 0 6.22051e-06)
(0 0 6.22233e-06)
(0 0 6.22394e-06)
(0 0 6.22531e-06)
(0 0 6.22647e-06)
(0 0 6.22742e-06)
(0 0 6.22817e-06)
(0 0 6.22873e-06)
(0 0 6.2291e-06)
(0 0 6.22926e-06)
(0 0 6.22921e-06)
(0 0 6.22894e-06)
(0 0 6.22845e-06)
(0 0 6.22774e-06)
(0 0 6.2268e-06)
(0 0 6.22561e-06)
(0 0 6.22416e-06)
(0 0 6.22247e-06)
(0 0 6.22055e-06)
(0 0 6.21836e-06)
(0 0 6.21591e-06)
(0 0 6.21318e-06)
(0 0 6.21018e-06)
(0 0 6.20691e-06)
(0 0 6.20338e-06)
(0 0 6.19958e-06)
(0 0 6.19553e-06)
(0 0 6.19127e-06)
(0 0 6.1868e-06)
(0 0 6.18218e-06)
(0 0 6.17742e-06)
(0 0 6.17257e-06)
(0 0 6.1677e-06)
(0 0 6.16287e-06)
(0 0 6.15813e-06)
(0 0 6.15354e-06)
(0 0 6.14915e-06)
(0 0 6.14498e-06)
(0 0 6.14106e-06)
(0 0 6.13744e-06)
(0 0 6.13415e-06)
(0 0 6.13121e-06)
(0 0 6.12863e-06)
(0 0 6.12643e-06)
(0 0 6.12461e-06)
(0 0 6.12313e-06)
(0 0 6.12197e-06)
(0 0 6.1211e-06)
(0 0 6.12048e-06)
(0 0 6.12008e-06)
(0 0 6.11981e-06)
(0 0 6.11966e-06)
(0 0 6.11968e-06)
(0 0 6.11988e-06)
(0 0 6.12022e-06)
(0 0 6.12067e-06)
(0 0 6.12124e-06)
(0 0 6.12193e-06)
(0 0 6.12275e-06)
(0 0 6.12369e-06)
(0 0 6.12476e-06)
(0 0 6.12594e-06)
(0 0 6.12727e-06)
(0 0 6.12877e-06)
(0 0 6.13044e-06)
(0 0 6.13227e-06)
(0 0 6.1343e-06)
(0 0 6.13652e-06)
(0 0 6.13896e-06)
(0 0 6.14159e-06)
(0 0 6.14442e-06)
(0 0 6.14744e-06)
(0 0 6.15066e-06)
(0 0 6.15406e-06)
(0 0 6.15764e-06)
(0 0 6.16137e-06)
(0 0 6.16526e-06)
(0 0 6.16928e-06)
(0 0 6.17342e-06)
(0 0 6.1777e-06)
(0 0 6.18209e-06)
(0 0 6.18657e-06)
(0 0 6.19114e-06)
(0 0 6.19579e-06)
(0 0 6.20055e-06)
(0 0 6.20541e-06)
(0 0 6.21038e-06)
(0 0 6.21548e-06)
(0 0 6.22068e-06)
(0 0 6.226e-06)
(0 0 6.23144e-06)
(0 0 6.23698e-06)
(0 0 6.24262e-06)
(0 0 6.24835e-06)
(0 0 6.25418e-06)
(0 0 6.2601e-06)
(0 0 6.26612e-06)
(0 0 6.27225e-06)
(0 0 6.27848e-06)
(0 0 6.2848e-06)
(0 0 6.29118e-06)
(0 0 6.29759e-06)
(0 0 6.304e-06)
(0 0 6.3104e-06)
(0 0 6.31677e-06)
(0 0 6.32309e-06)
(0 0 6.32931e-06)
(0 0 6.33544e-06)
(0 0 6.34147e-06)
(0 0 6.34739e-06)
(0 0 6.35318e-06)
(0 0 6.35884e-06)
(0 0 6.36434e-06)
(0 0 6.36971e-06)
(0 0 6.37495e-06)
(0 0 6.38011e-06)
(0 0 6.38522e-06)
(0 0 6.39033e-06)
(0 0 6.39548e-06)
(0 0 6.4007e-06)
(0 0 6.406e-06)
(0 0 6.41138e-06)
(0 0 6.41686e-06)
(0 0 6.42244e-06)
(0 0 6.42812e-06)
(0 0 6.4339e-06)
(0 0 6.43976e-06)
(0 0 6.44569e-06)
(0 0 6.45168e-06)
(0 0 6.45769e-06)
(0 0 6.46369e-06)
(0 0 6.46966e-06)
(0 0 6.47556e-06)
(0 0 6.48137e-06)
(0 0 6.48705e-06)
(0 0 6.49257e-06)
(0 0 6.49792e-06)
(0 0 6.50307e-06)
(0 0 6.508e-06)
(0 0 6.5127e-06)
(0 0 6.51717e-06)
(0 0 6.52139e-06)
(0 0 6.52533e-06)
(0 0 6.52899e-06)
(0 0 6.53235e-06)
(0 0 6.53542e-06)
(0 0 6.53821e-06)
(0 0 6.54073e-06)
(0 0 6.543e-06)
(0 0 6.54505e-06)
(0 0 6.5469e-06)
(0 0 6.54856e-06)
(0 0 6.55005e-06)
(0 0 6.55139e-06)
(0 0 6.55262e-06)
(0 0 6.55377e-06)
(0 0 6.55489e-06)
(0 0 6.55601e-06)
(0 0 6.55717e-06)
(0 0 6.55842e-06)
(0 0 6.55979e-06)
(0 0 6.5613e-06)
(0 0 6.56297e-06)
(0 0 6.56485e-06)
(0 0 6.56695e-06)
(0 0 6.56929e-06)
(0 0 6.57185e-06)
(0 0 6.57463e-06)
(0 0 6.57759e-06)
(0 0 6.58071e-06)
(0 0 6.58394e-06)
(0 0 6.58724e-06)
(0 0 6.59056e-06)
(0 0 6.59387e-06)
(0 0 6.59713e-06)
(0 0 6.60034e-06)
(0 0 6.60346e-06)
(0 0 6.60651e-06)
(0 0 6.60947e-06)
(0 0 6.61233e-06)
(0 0 6.61513e-06)
(0 0 6.61787e-06)
(0 0 6.6206e-06)
(0 0 6.62332e-06)
(0 0 6.62608e-06)
(0 0 6.62891e-06)
(0 0 6.63184e-06)
(0 0 6.63488e-06)
(0 0 6.63805e-06)
(0 0 6.64139e-06)
(0 0 6.64491e-06)
(0 0 6.64862e-06)
(0 0 6.65253e-06)
(0 0 6.65664e-06)
(0 0 6.66094e-06)
(0 0 6.66543e-06)
(0 0 6.67009e-06)
(0 0 6.67491e-06)
(0 0 6.67988e-06)
(0 0 6.68501e-06)
(0 0 6.69028e-06)
(0 0 6.6957e-06)
(0 0 6.70128e-06)
(0 0 6.707e-06)
(0 0 6.71286e-06)
(0 0 6.71883e-06)
(0 0 6.72489e-06)
(0 0 6.73102e-06)
(0 0 6.73721e-06)
(0 0 6.74342e-06)
(0 0 6.74965e-06)
(0 0 6.75589e-06)
(0 0 6.76212e-06)
(0 0 6.76834e-06)
(0 0 6.77457e-06)
(0 0 6.78082e-06)
(0 0 6.78711e-06)
(0 0 6.79347e-06)
(0 0 6.79993e-06)
(0 0 6.80651e-06)
(0 0 6.81325e-06)
(0 0 6.82016e-06)
(0 0 6.82726e-06)
(0 0 6.83456e-06)
(0 0 6.84202e-06)
(0 0 6.84964e-06)
(0 0 6.85738e-06)
(0 0 6.86522e-06)
(0 0 6.8731e-06)
(0 0 6.88099e-06)
(0 0 6.88884e-06)
(0 0 6.8966e-06)
(0 0 6.90422e-06)
(0 0 6.91167e-06)
(0 0 6.91892e-06)
(0 0 6.92595e-06)
(0 0 6.93276e-06)
(0 0 6.93937e-06)
(0 0 6.94578e-06)
(0 0 6.95198e-06)
(0 0 6.95798e-06)
(0 0 6.96376e-06)
(0 0 6.96932e-06)
(0 0 6.97465e-06)
(0 0 6.97977e-06)
(0 0 6.98473e-06)
(0 0 6.98959e-06)
(0 0 6.99439e-06)
(0 0 6.99918e-06)
(0 0 7.00401e-06)
(0 0 7.0089e-06)
(0 0 7.01387e-06)
(0 0 7.01891e-06)
(0 0 7.02401e-06)
(0 0 7.02915e-06)
(0 0 7.03433e-06)
(0 0 7.03954e-06)
(0 0 7.04474e-06)
(0 0 7.04996e-06)
(0 0 7.05521e-06)
(0 0 7.06051e-06)
(0 0 7.06587e-06)
(0 0 7.07131e-06)
(0 0 7.07683e-06)
(0 0 7.08243e-06)
(0 0 7.08811e-06)
(0 0 7.09387e-06)
(0 0 7.09971e-06)
(0 0 7.10559e-06)
(0 0 7.11148e-06)
(0 0 7.11736e-06)
(0 0 7.12321e-06)
(0 0 7.12904e-06)
(0 0 7.13486e-06)
(0 0 7.14075e-06)
(0 0 7.14681e-06)
(0 0 7.15314e-06)
(0 0 7.15994e-06)
(0 0 7.16738e-06)
(0 0 7.17599e-06)
(0 0 7.18632e-06)
(0 0 7.19936e-06)
(0 0 7.21653e-06)
(0 0 7.24003e-06)
(0 0 7.27277e-06)
(0 0 7.31925e-06)
(0 0 7.38554e-06)
(0 0 7.47556e-06)
(0 0 7.60856e-06)
(0 0 7.59746e-06)
(0 0 7.71298e-06)
(0 0 3.96071e-06)
(0 0 0)
(0 0 0)
(0 0 0)
(0 0 0)
(0 0 0)
(0 0 0)
(0 0 0)
(0 0 0)
(0 0 0)
(0 0 0)
(0 0 0)
(0 0 0)
(0 0 0)
(0 0 0)
(0 0 0)
(0 0 0)
(0 0 0)
(0 0 0)
(0 0 0)
(0 0 0)
(0 0 0)
(0 0 0)
(0 0 0)
(0 0 0)
(0 0 0)
(0 0 0)
(0 0 0)
(0 0 0)
(0 0 0)
(0 0 0)
(0 0 0)
(0 0 0)
(0 0 0)
(0 0 0)
(0 0 0)
(0 0 0)
(0 0 0)
(0 0 0)
(0 0 0)
(0 0 0)
(0 0 -6.87629e-08)
(0 0 -7.63165e-08)
(0 0 9.907e-08)
(0 0 3.11037e-07)
(0 0 5.06782e-07)
(0 0 7.07417e-07)
(0 0 9.06387e-07)
(0 0 1.09275e-06)
(0 0 1.26556e-06)
(0 0 1.42439e-06)
(0 0 1.57026e-06)
(0 0 1.70412e-06)
(0 0 1.82714e-06)
(0 0 1.94053e-06)
(0 0 2.0454e-06)
(0 0 2.14268e-06)
(0 0 2.23302e-06)
(0 0 2.31684e-06)
(0 0 2.39457e-06)
(0 0 2.46672e-06)
(0 0 2.5339e-06)
(0 0 2.59672e-06)
(0 0 2.65577e-06)
(0 0 2.71155e-06)
(0 0 2.76459e-06)
(0 0 2.81535e-06)
(0 0 2.86413e-06)
(0 0 2.91106e-06)
(0 0 2.95619e-06)
(0 0 2.99962e-06)
(0 0 3.04153e-06)
(0 0 3.08201e-06)
(0 0 3.12116e-06)
(0 0 3.15904e-06)
(0 0 3.19574e-06)
(0 0 3.23141e-06)
(0 0 3.26623e-06)
(0 0 3.30034e-06)
(0 0 3.33383e-06)
(0 0 3.36675e-06)
(0 0 3.3991e-06)
(0 0 3.43086e-06)
(0 0 3.46201e-06)
(0 0 3.49251e-06)
(0 0 3.52232e-06)
(0 0 3.55148e-06)
(0 0 3.58017e-06)
(0 0 3.60854e-06)
(0 0 3.63658e-06)
(0 0 3.6642e-06)
(0 0 3.69136e-06)
(0 0 3.71815e-06)
(0 0 3.74465e-06)
(0 0 3.77094e-06)
(0 0 3.79708e-06)
(0 0 3.82314e-06)
(0 0 3.84916e-06)
(0 0 3.87511e-06)
(0 0 3.90095e-06)
(0 0 3.9267e-06)
(0 0 3.95242e-06)
(0 0 3.97817e-06)
(0 0 4.00386e-06)
(0 0 4.02931e-06)
(0 0 4.05447e-06)
(0 0 4.07931e-06)
(0 0 4.10382e-06)
(0 0 4.12792e-06)
(0 0 4.15162e-06)
(0 0 4.17516e-06)
(0 0 4.19883e-06)
(0 0 4.22281e-06)
(0 0 4.24722e-06)
(0 0 4.27213e-06)
(0 0 4.29753e-06)
(0 0 4.32344e-06)
(0 0 4.34983e-06)
(0 0 4.37666e-06)
(0 0 4.40389e-06)
(0 0 4.43146e-06)
(0 0 4.45934e-06)
(0 0 4.48747e-06)
(0 0 4.51582e-06)
(0 0 4.5445e-06)
(0 0 4.57348e-06)
(0 0 4.60262e-06)
(0 0 4.63186e-06)
(0 0 4.66118e-06)
(0 0 4.69052e-06)
(0 0 4.71984e-06)
(0 0 4.74912e-06)
(0 0 4.7783e-06)
(0 0 4.80739e-06)
(0 0 4.83637e-06)
(0 0 4.86523e-06)
(0 0 4.89397e-06)
(0 0 4.92259e-06)
(0 0 4.95106e-06)
(0 0 4.97936e-06)
(0 0 5.00746e-06)
(0 0 5.0353e-06)
(0 0 5.06286e-06)
(0 0 5.09012e-06)
(0 0 5.11706e-06)
(0 0 5.14366e-06)
(0 0 5.16989e-06)
(0 0 5.19575e-06)
(0 0 5.22121e-06)
(0 0 5.24626e-06)
(0 0 5.2709e-06)
(0 0 5.29514e-06)
(0 0 5.31898e-06)
(0 0 5.3424e-06)
(0 0 5.36537e-06)
(0 0 5.3879e-06)
(0 0 5.40998e-06)
(0 0 5.4316e-06)
(0 0 5.45277e-06)
(0 0 5.47349e-06)
(0 0 5.49374e-06)
(0 0 5.51352e-06)
(0 0 5.53284e-06)
(0 0 5.5517e-06)
(0 0 5.57008e-06)
(0 0 5.58797e-06)
(0 0 5.60536e-06)
(0 0 5.62226e-06)
(0 0 5.63865e-06)
(0 0 5.65454e-06)
(0 0 5.66994e-06)
(0 0 5.68481e-06)
(0 0 5.69914e-06)
(0 0 5.71292e-06)
(0 0 5.72615e-06)
(0 0 5.73883e-06)
(0 0 5.75098e-06)
(0 0 5.7626e-06)
(0 0 5.7737e-06)
(0 0 5.78429e-06)
(0 0 5.79439e-06)
(0 0 5.804e-06)
(0 0 5.81314e-06)
(0 0 5.82185e-06)
(0 0 5.83017e-06)
(0 0 5.83814e-06)
(0 0 5.8458e-06)
(0 0 5.85315e-06)
(0 0 5.86021e-06)
(0 0 5.86701e-06)
(0 0 5.87359e-06)
(0 0 5.87994e-06)
(0 0 5.88607e-06)
(0 0 5.892e-06)
(0 0 5.89774e-06)
(0 0 5.9033e-06)
(0 0 5.90868e-06)
(0 0 5.91389e-06)
(0 0 5.91893e-06)
(0 0 5.92382e-06)
(0 0 5.92856e-06)
(0 0 5.93314e-06)
(0 0 5.93759e-06)
(0 0 5.94189e-06)
(0 0 5.94606e-06)
(0 0 5.95012e-06)
(0 0 5.95408e-06)
(0 0 5.95796e-06)
(0 0 5.96174e-06)
(0 0 5.96544e-06)
(0 0 5.96906e-06)
(0 0 5.9726e-06)
(0 0 5.97608e-06)
(0 0 5.97952e-06)
(0 0 5.98298e-06)
(0 0 5.98651e-06)
(0 0 5.9902e-06)
(0 0 5.99414e-06)
(0 0 5.99838e-06)
(0 0 6.00306e-06)
(0 0 6.00815e-06)
(0 0 6.0136e-06)
(0 0 6.01932e-06)
(0 0 6.02527e-06)
(0 0 6.03143e-06)
(0 0 6.03776e-06)
(0 0 6.04423e-06)
(0 0 6.05082e-06)
(0 0 6.05751e-06)
(0 0 6.06428e-06)
(0 0 6.07112e-06)
(0 0 6.078e-06)
(0 0 6.0849e-06)
(0 0 6.0918e-06)
(0 0 6.09869e-06)
(0 0 6.10554e-06)
(0 0 6.11232e-06)
(0 0 6.11903e-06)
(0 0 6.12563e-06)
(0 0 6.1321e-06)
(0 0 6.13842e-06)
(0 0 6.14457e-06)
(0 0 6.15054e-06)
(0 0 6.15631e-06)
(0 0 6.16188e-06)
(0 0 6.16723e-06)
(0 0 6.17235e-06)
(0 0 6.17724e-06)
(0 0 6.18191e-06)
(0 0 6.18634e-06)
(0 0 6.19056e-06)
(0 0 6.19454e-06)
(0 0 6.19828e-06)
(0 0 6.2018e-06)
(0 0 6.20511e-06)
(0 0 6.20821e-06)
(0 0 6.21109e-06)
(0 0 6.21377e-06)
(0 0 6.21623e-06)
(0 0 6.21848e-06)
(0 0 6.22051e-06)
(0 0 6.22233e-06)
(0 0 6.22394e-06)
(0 0 6.22531e-06)
(0 0 6.22647e-06)
(0 0 6.22742e-06)
(0 0 6.22817e-06)
(0 0 6.22873e-06)
(0 0 6.2291e-06)
(0 0 6.22926e-06)
(0 0 6.22921e-06)
(0 0 6.22894e-06)
(0 0 6.22845e-06)
(0 0 6.22774e-06)
(0 0 6.2268e-06)
(0 0 6.22561e-06)
(0 0 6.22416e-06)
(0 0 6.22247e-06)
(0 0 6.22055e-06)
(0 0 6.21836e-06)
(0 0 6.21591e-06)
(0 0 6.21318e-06)
(0 0 6.21018e-06)
(0 0 6.20691e-06)
(0 0 6.20338e-06)
(0 0 6.19958e-06)
(0 0 6.19553e-06)
(0 0 6.19127e-06)
(0 0 6.1868e-06)
(0 0 6.18218e-06)
(0 0 6.17742e-06)
(0 0 6.17257e-06)
(0 0 6.1677e-06)
(0 0 6.16287e-06)
(0 0 6.15813e-06)
(0 0 6.15354e-06)
(0 0 6.14915e-06)
(0 0 6.14498e-06)
(0 0 6.14106e-06)
(0 0 6.13744e-06)
(0 0 6.13415e-06)
(0 0 6.13121e-06)
(0 0 6.12863e-06)
(0 0 6.12643e-06)
(0 0 6.12461e-06)
(0 0 6.12313e-06)
(0 0 6.12197e-06)
(0 0 6.1211e-06)
(0 0 6.12048e-06)
(0 0 6.12008e-06)
(0 0 6.11981e-06)
(0 0 6.11966e-06)
(0 0 6.11968e-06)
(0 0 6.11988e-06)
(0 0 6.12022e-06)
(0 0 6.12067e-06)
(0 0 6.12124e-06)
(0 0 6.12193e-06)
(0 0 6.12275e-06)
(0 0 6.12369e-06)
(0 0 6.12476e-06)
(0 0 6.12594e-06)
(0 0 6.12727e-06)
(0 0 6.12877e-06)
(0 0 6.13044e-06)
(0 0 6.13227e-06)
(0 0 6.1343e-06)
(0 0 6.13652e-06)
(0 0 6.13896e-06)
(0 0 6.14159e-06)
(0 0 6.14442e-06)
(0 0 6.14744e-06)
(0 0 6.15066e-06)
(0 0 6.15406e-06)
(0 0 6.15764e-06)
(0 0 6.16137e-06)
(0 0 6.16526e-06)
(0 0 6.16928e-06)
(0 0 6.17342e-06)
(0 0 6.1777e-06)
(0 0 6.18209e-06)
(0 0 6.18657e-06)
(0 0 6.19114e-06)
(0 0 6.19579e-06)
(0 0 6.20055e-06)
(0 0 6.20541e-06)
(0 0 6.21038e-06)
(0 0 6.21548e-06)
(0 0 6.22068e-06)
(0 0 6.226e-06)
(0 0 6.23144e-06)
(0 0 6.23698e-06)
(0 0 6.24262e-06)
(0 0 6.24835e-06)
(0 0 6.25418e-06)
(0 0 6.2601e-06)
(0 0 6.26612e-06)
(0 0 6.27225e-06)
(0 0 6.27848e-06)
(0 0 6.2848e-06)
(0 0 6.29118e-06)
(0 0 6.29759e-06)
(0 0 6.304e-06)
(0 0 6.3104e-06)
(0 0 6.31677e-06)
(0 0 6.32309e-06)
(0 0 6.32931e-06)
(0 0 6.33544e-06)
(0 0 6.34147e-06)
(0 0 6.34739e-06)
(0 0 6.35318e-06)
(0 0 6.35884e-06)
(0 0 6.36434e-06)
(0 0 6.36971e-06)
(0 0 6.37495e-06)
(0 0 6.38011e-06)
(0 0 6.38522e-06)
(0 0 6.39033e-06)
(0 0 6.39548e-06)
(0 0 6.4007e-06)
(0 0 6.406e-06)
(0 0 6.41138e-06)
(0 0 6.41686e-06)
(0 0 6.42244e-06)
(0 0 6.42812e-06)
(0 0 6.4339e-06)
(0 0 6.43976e-06)
(0 0 6.44569e-06)
(0 0 6.45168e-06)
(0 0 6.45769e-06)
(0 0 6.46369e-06)
(0 0 6.46966e-06)
(0 0 6.47556e-06)
(0 0 6.48137e-06)
(0 0 6.48705e-06)
(0 0 6.49257e-06)
(0 0 6.49792e-06)
(0 0 6.50307e-06)
(0 0 6.508e-06)
(0 0 6.5127e-06)
(0 0 6.51717e-06)
(0 0 6.52139e-06)
(0 0 6.52533e-06)
(0 0 6.52899e-06)
(0 0 6.53235e-06)
(0 0 6.53542e-06)
(0 0 6.53821e-06)
(0 0 6.54073e-06)
(0 0 6.543e-06)
(0 0 6.54505e-06)
(0 0 6.5469e-06)
(0 0 6.54856e-06)
(0 0 6.55005e-06)
(0 0 6.55139e-06)
(0 0 6.55262e-06)
(0 0 6.55377e-06)
(0 0 6.55489e-06)
(0 0 6.55601e-06)
(0 0 6.55717e-06)
(0 0 6.55842e-06)
(0 0 6.55979e-06)
(0 0 6.5613e-06)
(0 0 6.56297e-06)
(0 0 6.56485e-06)
(0 0 6.56695e-06)
(0 0 6.56929e-06)
(0 0 6.57185e-06)
(0 0 6.57463e-06)
(0 0 6.57759e-06)
(0 0 6.58071e-06)
(0 0 6.58394e-06)
(0 0 6.58724e-06)
(0 0 6.59056e-06)
(0 0 6.59387e-06)
(0 0 6.59713e-06)
(0 0 6.60034e-06)
(0 0 6.60346e-06)
(0 0 6.60651e-06)
(0 0 6.60947e-06)
(0 0 6.61233e-06)
(0 0 6.61513e-06)
(0 0 6.61787e-06)
(0 0 6.6206e-06)
(0 0 6.62332e-06)
(0 0 6.62608e-06)
(0 0 6.62891e-06)
(0 0 6.63184e-06)
(0 0 6.63488e-06)
(0 0 6.63805e-06)
(0 0 6.64139e-06)
(0 0 6.64491e-06)
(0 0 6.64862e-06)
(0 0 6.65253e-06)
(0 0 6.65664e-06)
(0 0 6.66094e-06)
(0 0 6.66543e-06)
(0 0 6.67009e-06)
(0 0 6.67491e-06)
(0 0 6.67988e-06)
(0 0 6.68501e-06)
(0 0 6.69028e-06)
(0 0 6.6957e-06)
(0 0 6.70128e-06)
(0 0 6.707e-06)
(0 0 6.71286e-06)
(0 0 6.71883e-06)
(0 0 6.72489e-06)
(0 0 6.73102e-06)
(0 0 6.73721e-06)
(0 0 6.74342e-06)
(0 0 6.74965e-06)
(0 0 6.75589e-06)
(0 0 6.76212e-06)
(0 0 6.76834e-06)
(0 0 6.77457e-06)
(0 0 6.78082e-06)
(0 0 6.78711e-06)
(0 0 6.79347e-06)
(0 0 6.79993e-06)
(0 0 6.80651e-06)
(0 0 6.81325e-06)
(0 0 6.82016e-06)
(0 0 6.82726e-06)
(0 0 6.83456e-06)
(0 0 6.84202e-06)
(0 0 6.84964e-06)
(0 0 6.85738e-06)
(0 0 6.86522e-06)
(0 0 6.8731e-06)
(0 0 6.88099e-06)
(0 0 6.88884e-06)
(0 0 6.8966e-06)
(0 0 6.90422e-06)
(0 0 6.91167e-06)
(0 0 6.91892e-06)
(0 0 6.92595e-06)
(0 0 6.93276e-06)
(0 0 6.93937e-06)
(0 0 6.94578e-06)
(0 0 6.95198e-06)
(0 0 6.95798e-06)
(0 0 6.96376e-06)
(0 0 6.96932e-06)
(0 0 6.97465e-06)
(0 0 6.97977e-06)
(0 0 6.98473e-06)
(0 0 6.98959e-06)
(0 0 6.99439e-06)
(0 0 6.99918e-06)
(0 0 7.00401e-06)
(0 0 7.0089e-06)
(0 0 7.01387e-06)
(0 0 7.01891e-06)
(0 0 7.02401e-06)
(0 0 7.02915e-06)
(0 0 7.03433e-06)
(0 0 7.03954e-06)
(0 0 7.04474e-06)
(0 0 7.04996e-06)
(0 0 7.05521e-06)
(0 0 7.06051e-06)
(0 0 7.06587e-06)
(0 0 7.07131e-06)
(0 0 7.07683e-06)
(0 0 7.08243e-06)
(0 0 7.08811e-06)
(0 0 7.09387e-06)
(0 0 7.09971e-06)
(0 0 7.10559e-06)
(0 0 7.11148e-06)
(0 0 7.11736e-06)
(0 0 7.12321e-06)
(0 0 7.12904e-06)
(0 0 7.13486e-06)
(0 0 7.14075e-06)
(0 0 7.14681e-06)
(0 0 7.15314e-06)
(0 0 7.15994e-06)
(0 0 7.16738e-06)
(0 0 7.17599e-06)
(0 0 7.18632e-06)
(0 0 7.19936e-06)
(0 0 7.21653e-06)
(0 0 7.24003e-06)
(0 0 7.27277e-06)
(0 0 7.31925e-06)
(0 0 7.38554e-06)
(0 0 7.47556e-06)
(0 0 7.60856e-06)
(0 0 7.59746e-06)
(0 0 7.71298e-06)
(0 0 3.96071e-06)
(0 0 0)
(0 0 0)
(0 0 0)
(0 0 0)
(0 0 0)
(0 0 0)
(0 0 0)
(0 0 0)
(0 0 0)
(0 0 0)
(0 0 0)
(0 0 0)
(0 0 2.44865e-15)
(0 0 5.07758e-15)
(0 0 8.09648e-15)
(0 0 1.17423e-14)
(0 0 1.6301e-14)
(0 0 2.21322e-14)
(0 0 2.96989e-14)
(0 0 3.96072e-14)
(0 0 5.266e-14)
(0 0 6.99305e-14)
(0 0 9.28642e-14)
(0 0 1.23419e-13)
(0 0 1.6427e-13)
(0 0 2.1911e-13)
(0 0 2.93189e-13)
(0 0 3.94217e-13)
(0 0 5.33443e-13)
(0 0 7.26518e-13)
(0 0 9.95413e-13)
(0 0 1.37377e-12)
(0 0 1.91717e-12)
(0 0 2.7512e-12)
(0 0 4.06108e-12)
(0 0 5.54292e-12)
(0 0 6.90527e-12)
(0 0 -2.41141e-12)
(0 0 9.89674e-11)
(0 0 -4.58311e-09)
(0 0 -6.46033e-08)
(0 0 -6.39798e-08)
(0 0 1.01443e-07)
(0 0 3.09948e-07)
(0 0 5.07113e-07)
(0 0 7.07263e-07)
(0 0 9.05489e-07)
(0 0 1.09178e-06)
(0 0 1.26456e-06)
(0 0 1.42345e-06)
(0 0 1.56939e-06)
(0 0 1.70333e-06)
(0 0 1.82643e-06)
(0 0 1.93989e-06)
(0 0 2.04483e-06)
(0 0 2.14216e-06)
(0 0 2.23253e-06)
(0 0 2.31638e-06)
(0 0 2.39414e-06)
(0 0 2.46634e-06)
(0 0 2.53356e-06)
(0 0 2.59643e-06)
(0 0 2.65551e-06)
(0 0 2.71133e-06)
(0 0 2.7644e-06)
(0 0 2.81518e-06)
(0 0 2.86397e-06)
(0 0 2.91091e-06)
(0 0 2.95604e-06)
(0 0 2.99949e-06)
(0 0 3.0414e-06)
(0 0 3.08189e-06)
(0 0 3.12105e-06)
(0 0 3.15893e-06)
(0 0 3.19564e-06)
(0 0 3.23133e-06)
(0 0 3.26616e-06)
(0 0 3.30027e-06)
(0 0 3.33377e-06)
(0 0 3.36668e-06)
(0 0 3.39903e-06)
(0 0 3.43079e-06)
(0 0 3.46194e-06)
(0 0 3.49243e-06)
(0 0 3.52224e-06)
(0 0 3.55142e-06)
(0 0 3.58012e-06)
(0 0 3.60849e-06)
(0 0 3.63652e-06)
(0 0 3.66414e-06)
(0 0 3.69131e-06)
(0 0 3.7181e-06)
(0 0 3.74461e-06)
(0 0 3.77091e-06)
(0 0 3.79705e-06)
(0 0 3.82311e-06)
(0 0 3.84912e-06)
(0 0 3.87507e-06)
(0 0 3.90092e-06)
(0 0 3.92667e-06)
(0 0 3.95239e-06)
(0 0 3.97814e-06)
(0 0 4.00381e-06)
(0 0 4.02926e-06)
(0 0 4.05442e-06)
(0 0 4.07926e-06)
(0 0 4.10376e-06)
(0 0 4.12786e-06)
(0 0 4.15158e-06)
(0 0 4.17514e-06)
(0 0 4.19882e-06)
(0 0 4.22281e-06)
(0 0 4.24723e-06)
(0 0 4.27213e-06)
(0 0 4.29754e-06)
(0 0 4.32344e-06)
(0 0 4.34983e-06)
(0 0 4.37666e-06)
(0 0 4.40389e-06)
(0 0 4.43146e-06)
(0 0 4.45933e-06)
(0 0 4.48745e-06)
(0 0 4.51582e-06)
(0 0 4.54449e-06)
(0 0 4.57346e-06)
(0 0 4.6026e-06)
(0 0 4.63183e-06)
(0 0 4.66115e-06)
(0 0 4.69049e-06)
(0 0 4.71981e-06)
(0 0 4.74908e-06)
(0 0 4.77827e-06)
(0 0 4.80735e-06)
(0 0 4.83633e-06)
(0 0 4.86519e-06)
(0 0 4.89393e-06)
(0 0 4.92255e-06)
(0 0 4.95102e-06)
(0 0 4.97932e-06)
(0 0 5.00741e-06)
(0 0 5.03525e-06)
(0 0 5.06281e-06)
(0 0 5.09006e-06)
(0 0 5.117e-06)
(0 0 5.1436e-06)
(0 0 5.16983e-06)
(0 0 5.19569e-06)
(0 0 5.22115e-06)
(0 0 5.2462e-06)
(0 0 5.27085e-06)
(0 0 5.29509e-06)
(0 0 5.31892e-06)
(0 0 5.34234e-06)
(0 0 5.36531e-06)
(0 0 5.38784e-06)
(0 0 5.40991e-06)
(0 0 5.43154e-06)
(0 0 5.45271e-06)
(0 0 5.47343e-06)
(0 0 5.49368e-06)
(0 0 5.51346e-06)
(0 0 5.53278e-06)
(0 0 5.55163e-06)
(0 0 5.57002e-06)
(0 0 5.58791e-06)
(0 0 5.6053e-06)
(0 0 5.6222e-06)
(0 0 5.63859e-06)
(0 0 5.65448e-06)
(0 0 5.66987e-06)
(0 0 5.68474e-06)
(0 0 5.69907e-06)
(0 0 5.71285e-06)
(0 0 5.72608e-06)
(0 0 5.73876e-06)
(0 0 5.75092e-06)
(0 0 5.76254e-06)
(0 0 5.77364e-06)
(0 0 5.78423e-06)
(0 0 5.79433e-06)
(0 0 5.80394e-06)
(0 0 5.81309e-06)
(0 0 5.8218e-06)
(0 0 5.83012e-06)
(0 0 5.8381e-06)
(0 0 5.84575e-06)
(0 0 5.8531e-06)
(0 0 5.86017e-06)
(0 0 5.86697e-06)
(0 0 5.87355e-06)
(0 0 5.8799e-06)
(0 0 5.88603e-06)
(0 0 5.89197e-06)
(0 0 5.89771e-06)
(0 0 5.90327e-06)
(0 0 5.90865e-06)
(0 0 5.91386e-06)
(0 0 5.9189e-06)
(0 0 5.92379e-06)
(0 0 5.92852e-06)
(0 0 5.93311e-06)
(0 0 5.93755e-06)
(0 0 5.94186e-06)
(0 0 5.94603e-06)
(0 0 5.95009e-06)
(0 0 5.95405e-06)
(0 0 5.95793e-06)
(0 0 5.96171e-06)
(0 0 5.96541e-06)
(0 0 5.96903e-06)
(0 0 5.97257e-06)
(0 0 5.97605e-06)
(0 0 5.9795e-06)
(0 0 5.98296e-06)
(0 0 5.98649e-06)
(0 0 5.9902e-06)
(0 0 5.99413e-06)
(0 0 5.99839e-06)
(0 0 6.00306e-06)
(0 0 6.00815e-06)
(0 0 6.01359e-06)
(0 0 6.01931e-06)
(0 0 6.02526e-06)
(0 0 6.03142e-06)
(0 0 6.03775e-06)
(0 0 6.04422e-06)
(0 0 6.0508e-06)
(0 0 6.05749e-06)
(0 0 6.06426e-06)
(0 0 6.0711e-06)
(0 0 6.07798e-06)
(0 0 6.08487e-06)
(0 0 6.09177e-06)
(0 0 6.09866e-06)
(0 0 6.10551e-06)
(0 0 6.11229e-06)
(0 0 6.119e-06)
(0 0 6.12559e-06)
(0 0 6.13206e-06)
(0 0 6.13838e-06)
(0 0 6.14453e-06)
(0 0 6.1505e-06)
(0 0 6.15627e-06)
(0 0 6.16184e-06)
(0 0 6.16719e-06)
(0 0 6.17231e-06)
(0 0 6.1772e-06)
(0 0 6.18187e-06)
(0 0 6.1863e-06)
(0 0 6.19052e-06)
(0 0 6.1945e-06)
(0 0 6.19824e-06)
(0 0 6.20177e-06)
(0 0 6.20507e-06)
(0 0 6.20817e-06)
(0 0 6.21105e-06)
(0 0 6.21373e-06)
(0 0 6.21619e-06)
(0 0 6.21844e-06)
(0 0 6.22048e-06)
(0 0 6.2223e-06)
(0 0 6.2239e-06)
(0 0 6.22528e-06)
(0 0 6.22643e-06)
(0 0 6.22738e-06)
(0 0 6.22814e-06)
(0 0 6.2287e-06)
(0 0 6.22906e-06)
(0 0 6.22922e-06)
(0 0 6.22917e-06)
(0 0 6.2289e-06)
(0 0 6.22842e-06)
(0 0 6.22771e-06)
(0 0 6.22676e-06)
(0 0 6.22557e-06)
(0 0 6.22412e-06)
(0 0 6.22244e-06)
(0 0 6.22051e-06)
(0 0 6.21832e-06)
(0 0 6.21587e-06)
(0 0 6.21314e-06)
(0 0 6.21014e-06)
(0 0 6.20687e-06)
(0 0 6.20334e-06)
(0 0 6.19954e-06)
(0 0 6.1955e-06)
(0 0 6.19123e-06)
(0 0 6.18677e-06)
(0 0 6.18215e-06)
(0 0 6.1774e-06)
(0 0 6.17255e-06)
(0 0 6.16769e-06)
(0 0 6.16285e-06)
(0 0 6.15812e-06)
(0 0 6.15354e-06)
(0 0 6.14915e-06)
(0 0 6.14498e-06)
(0 0 6.14106e-06)
(0 0 6.13744e-06)
(0 0 6.13415e-06)
(0 0 6.13121e-06)
(0 0 6.12864e-06)
(0 0 6.12644e-06)
(0 0 6.12461e-06)
(0 0 6.12313e-06)
(0 0 6.12197e-06)
(0 0 6.12109e-06)
(0 0 6.12047e-06)
(0 0 6.12006e-06)
(0 0 6.1198e-06)
(0 0 6.11965e-06)
(0 0 6.11967e-06)
(0 0 6.11987e-06)
(0 0 6.12021e-06)
(0 0 6.12066e-06)
(0 0 6.12123e-06)
(0 0 6.12192e-06)
(0 0 6.12274e-06)
(0 0 6.12368e-06)
(0 0 6.12474e-06)
(0 0 6.12593e-06)
(0 0 6.12726e-06)
(0 0 6.12876e-06)
(0 0 6.13042e-06)
(0 0 6.13226e-06)
(0 0 6.13429e-06)
(0 0 6.13652e-06)
(0 0 6.13895e-06)
(0 0 6.14158e-06)
(0 0 6.14441e-06)
(0 0 6.14743e-06)
(0 0 6.15065e-06)
(0 0 6.15405e-06)
(0 0 6.15762e-06)
(0 0 6.16136e-06)
(0 0 6.16524e-06)
(0 0 6.16926e-06)
(0 0 6.17341e-06)
(0 0 6.17768e-06)
(0 0 6.18207e-06)
(0 0 6.18656e-06)
(0 0 6.19112e-06)
(0 0 6.19578e-06)
(0 0 6.20053e-06)
(0 0 6.20539e-06)
(0 0 6.21037e-06)
(0 0 6.21546e-06)
(0 0 6.22066e-06)
(0 0 6.22599e-06)
(0 0 6.23142e-06)
(0 0 6.23696e-06)
(0 0 6.2426e-06)
(0 0 6.24833e-06)
(0 0 6.25416e-06)
(0 0 6.26008e-06)
(0 0 6.2661e-06)
(0 0 6.27223e-06)
(0 0 6.27846e-06)
(0 0 6.28478e-06)
(0 0 6.29115e-06)
(0 0 6.29756e-06)
(0 0 6.30397e-06)
(0 0 6.31037e-06)
(0 0 6.31674e-06)
(0 0 6.32306e-06)
(0 0 6.32928e-06)
(0 0 6.33541e-06)
(0 0 6.34144e-06)
(0 0 6.34736e-06)
(0 0 6.35315e-06)
(0 0 6.3588e-06)
(0 0 6.3643e-06)
(0 0 6.36967e-06)
(0 0 6.37492e-06)
(0 0 6.38009e-06)
(0 0 6.3852e-06)
(0 0 6.39031e-06)
(0 0 6.39546e-06)
(0 0 6.40068e-06)
(0 0 6.40598e-06)
(0 0 6.41136e-06)
(0 0 6.41684e-06)
(0 0 6.42242e-06)
(0 0 6.4281e-06)
(0 0 6.43388e-06)
(0 0 6.43974e-06)
(0 0 6.44567e-06)
(0 0 6.45165e-06)
(0 0 6.45766e-06)
(0 0 6.46366e-06)
(0 0 6.46963e-06)
(0 0 6.47553e-06)
(0 0 6.48134e-06)
(0 0 6.48701e-06)
(0 0 6.49254e-06)
(0 0 6.49788e-06)
(0 0 6.50303e-06)
(0 0 6.50796e-06)
(0 0 6.51266e-06)
(0 0 6.51713e-06)
(0 0 6.52134e-06)
(0 0 6.52529e-06)
(0 0 6.52894e-06)
(0 0 6.5323e-06)
(0 0 6.53537e-06)
(0 0 6.53816e-06)
(0 0 6.54069e-06)
(0 0 6.54296e-06)
(0 0 6.54501e-06)
(0 0 6.54686e-06)
(0 0 6.54852e-06)
(0 0 6.55001e-06)
(0 0 6.55136e-06)
(0 0 6.55259e-06)
(0 0 6.55374e-06)
(0 0 6.55486e-06)
(0 0 6.55599e-06)
(0 0 6.55716e-06)
(0 0 6.55841e-06)
(0 0 6.55977e-06)
(0 0 6.56129e-06)
(0 0 6.56296e-06)
(0 0 6.56484e-06)
(0 0 6.56695e-06)
(0 0 6.56928e-06)
(0 0 6.57184e-06)
(0 0 6.57461e-06)
(0 0 6.57758e-06)
(0 0 6.58069e-06)
(0 0 6.58392e-06)
(0 0 6.58722e-06)
(0 0 6.59053e-06)
(0 0 6.59384e-06)
(0 0 6.59711e-06)
(0 0 6.60031e-06)
(0 0 6.60343e-06)
(0 0 6.60648e-06)
(0 0 6.60944e-06)
(0 0 6.61231e-06)
(0 0 6.6151e-06)
(0 0 6.61785e-06)
(0 0 6.62057e-06)
(0 0 6.6233e-06)
(0 0 6.62606e-06)
(0 0 6.6289e-06)
(0 0 6.63182e-06)
(0 0 6.63486e-06)
(0 0 6.63804e-06)
(0 0 6.64138e-06)
(0 0 6.6449e-06)
(0 0 6.64861e-06)
(0 0 6.65252e-06)
(0 0 6.65663e-06)
(0 0 6.66093e-06)
(0 0 6.66541e-06)
(0 0 6.67007e-06)
(0 0 6.67489e-06)
(0 0 6.67987e-06)
(0 0 6.68499e-06)
(0 0 6.69027e-06)
(0 0 6.69569e-06)
(0 0 6.70126e-06)
(0 0 6.70698e-06)
(0 0 6.71284e-06)
(0 0 6.71881e-06)
(0 0 6.72487e-06)
(0 0 6.731e-06)
(0 0 6.73718e-06)
(0 0 6.7434e-06)
(0 0 6.74962e-06)
(0 0 6.75586e-06)
(0 0 6.76209e-06)
(0 0 6.76832e-06)
(0 0 6.77454e-06)
(0 0 6.78079e-06)
(0 0 6.78709e-06)
(0 0 6.79345e-06)
(0 0 6.79991e-06)
(0 0 6.80649e-06)
(0 0 6.81323e-06)
(0 0 6.82014e-06)
(0 0 6.82725e-06)
(0 0 6.83454e-06)
(0 0 6.842e-06)
(0 0 6.84962e-06)
(0 0 6.85736e-06)
(0 0 6.86519e-06)
(0 0 6.87307e-06)
(0 0 6.88096e-06)
(0 0 6.88881e-06)
(0 0 6.89656e-06)
(0 0 6.90418e-06)
(0 0 6.91163e-06)
(0 0 6.91888e-06)
(0 0 6.92591e-06)
(0 0 6.93272e-06)
(0 0 6.93933e-06)
(0 0 6.94574e-06)
(0 0 6.95194e-06)
(0 0 6.95794e-06)
(0 0 6.96372e-06)
(0 0 6.96927e-06)
(0 0 6.9746e-06)
(0 0 6.97973e-06)
(0 0 6.9847e-06)
(0 0 6.98956e-06)
(0 0 6.99436e-06)
(0 0 6.99916e-06)
(0 0 7.00399e-06)
(0 0 7.00888e-06)
(0 0 7.01384e-06)
(0 0 7.01888e-06)
(0 0 7.02398e-06)
(0 0 7.02913e-06)
(0 0 7.03431e-06)
(0 0 7.03951e-06)
(0 0 7.04471e-06)
(0 0 7.04993e-06)
(0 0 7.05518e-06)
(0 0 7.06048e-06)
(0 0 7.06585e-06)
(0 0 7.07129e-06)
(0 0 7.0768e-06)
(0 0 7.0824e-06)
(0 0 7.08808e-06)
(0 0 7.09385e-06)
(0 0 7.09968e-06)
(0 0 7.10556e-06)
(0 0 7.11145e-06)
(0 0 7.11733e-06)
(0 0 7.12318e-06)
(0 0 7.12901e-06)
(0 0 7.13484e-06)
(0 0 7.14074e-06)
(0 0 7.1468e-06)
(0 0 7.15314e-06)
(0 0 7.15995e-06)
(0 0 7.16743e-06)
(0 0 7.17607e-06)
(0 0 7.18646e-06)
(0 0 7.19959e-06)
(0 0 7.2169e-06)
(0 0 7.24058e-06)
(0 0 7.27359e-06)
(0 0 7.32041e-06)
(0 0 7.38679e-06)
(0 0 7.4781e-06)
(0 0 7.59714e-06)
(0 0 7.60864e-06)
(0 0 7.45962e-06)
(0 0 3.96312e-06)
(0 0 2.75106e-07)
(0 0 -3.02202e-09)
(0 0 1.55702e-09)
(0 0 4.37489e-10)
(0 0 2.15288e-10)
(0 0 1.15314e-10)
(0 0 6.65098e-11)
(0 0 3.92304e-11)
(0 0 2.21595e-11)
(0 0 1.00404e-11)
(0 0 0)
(0 0 0)
(0 0 2.44872e-15)
(0 0 5.07778e-15)
(0 0 8.09679e-15)
(0 0 1.17428e-14)
(0 0 1.63016e-14)
(0 0 2.2133e-14)
(0 0 2.96999e-14)
(0 0 3.96085e-14)
(0 0 5.26615e-14)
(0 0 6.99323e-14)
(0 0 9.28661e-14)
(0 0 1.23421e-13)
(0 0 1.6427e-13)
(0 0 2.1911e-13)
(0 0 2.93197e-13)
(0 0 3.94249e-13)
(0 0 5.33466e-13)
(0 0 7.26416e-13)
(0 0 9.95295e-13)
(0 0 1.37279e-12)