/*--------------------------------*- C++ -*----------------------------------*\
| =========                 |                                                 |
| \\      /  F ield         | foam-extend: Open Source CFD                    |
|  \\    /   O peration     | Version:     3.2                                |
|   \\  /    A nd           | Web:         http://www.foam-extend.org         |
|    \\/     M anipulation  | For copyright notice see file Copyright         |
\*---------------------------------------------------------------------------*/
FoamFile
{
    version     2.0;
    format      ascii;
    class       pointVectorField;
    location    "120";
    object      newMeshPoints;
}
// * * * * * * * * * * * * * * * * * * * * * * * * * * * * * * * * * * * * * //

dimensions      [0 1 0 0 0 0 0];

internalField   nonuniform List<vector> 
67222
(
(0 0 0)
(0.0181818 0 -3.63636e-05)
(0.0363636 0 -7.27273e-05)
(0.0545455 0 -0.000109091)
(0.0727273 0 -0.000145455)
(0.0909091 0 -0.000181818)
(0.109091 0 -0.000218182)
(0.127273 0 -0.000254545)
(0.145455 0 -0.000290909)
(0.163636 0 -0.000327273)
(0.181818 0 -0.000363636)
(0.2 0 -0.0004)
(0.218182 0 -0.000436364)
(0.236364 0 -0.000472727)
(0.254545 0 -0.000509091)
(0.272727 0 -0.000545455)
(0.290909 0 -0.000581818)
(0.309091 0 -0.000618182)
(0.327273 0 -0.000654545)
(0.345455 0 -0.000690909)
(0.363636 0 -0.000727273)
(0.381818 0 -0.000763636)
(0.4 0 -0.0008)
(0.418182 0 -0.000836364)
(0.436364 0 -0.000872727)
(0.454545 0 -0.000909091)
(0.472727 0 -0.000945457)
(0.490909 0 -0.000981821)
(0.509091 0 -0.00101818)
(0.527273 0 -0.00105622)
(0.545455 0 -0.00108924)
(0.563636 0 -0.00111401)
(0.581818 0 -0.00113302)
(0.6 0 -0.00114822)
(0.618182 0 -0.0011641)
(0.636364 0 -0.0011811)
(0.654545 0 -0.00119971)
(0.672727 0 -0.00121986)
(0.690909 0 -0.00124143)
(0.709091 0 -0.00126428)
(0.727273 0 -0.00128829)
(0.745455 0 -0.00131333)
(0.763636 0 -0.00133927)
(0.781818 0 -0.00136599)
(0.8 0 -0.00139341)
(0.818182 0 -0.00142147)
(0.836364 0 -0.00145015)
(0.854545 0 -0.0014794)
(0.872727 0 -0.00150918)
(0.890909 0 -0.00153941)
(0.909091 0 -0.00157004)
(0.927273 0 -0.00160101)
(0.945455 0 -0.00163229)
(0.963636 0 -0.00166381)
(0.981818 0 -0.00169556)
(1 0 -0.0017275)
(1.01818 0 -0.00175963)
(1.03636 0 -0.00179194)
(1.05455 0 -0.00182441)
(1.07273 0 -0.00185704)
(1.09091 0 -0.0018898)
(1.10909 0 -0.00192268)
(1.12727 0 -0.00195569)
(1.14545 0 -0.00198881)
(1.16364 0 -0.00202204)
(1.18182 0 -0.00205535)
(1.2 0 -0.00208873)
(1.21818 0 -0.00212219)
(1.23636 0 -0.00215571)
(1.25455 0 -0.00218929)
(1.27273 0 -0.00222294)
(1.29091 0 -0.00225665)
(1.30909 0 -0.00229043)
(1.32727 0 -0.00232429)
(1.34545 0 -0.00235821)
(1.36364 0 -0.00239218)
(1.38182 0 -0.00242619)
(1.4 0 -0.00246023)
(1.41818 0 -0.00249431)
(1.43636 0 -0.00252845)
(1.45455 0 -0.00256262)
(1.47273 0 -0.00259681)
(1.49091 0 -0.00263102)
(1.50909 0 -0.00266524)
(1.52727 0 -0.00269947)
(1.54545 0 -0.0027337)
(1.56364 0 -0.00276795)
(1.58182 0 -0.0028022)
(1.6 0 -0.00283647)
(1.61818 0 -0.00287074)
(1.63636 0 -0.00290502)
(1.65455 0 -0.00293931)
(1.67273 0 -0.00297362)
(1.69091 0 -0.00300798)
(1.70909 0 -0.00304236)
(1.72727 0 -0.00307679)
(1.74545 0 -0.00311125)
(1.76364 0 -0.00314576)
(1.78182 0 -0.00318027)
(1.8 0 -0.00321477)
(1.81818 0 -0.00324924)
(1.83636 0 -0.00328367)
(1.85455 0 -0.00331806)
(1.87273 0 -0.00335241)
(1.89091 0 -0.00338672)
(1.90909 0 -0.00342099)
(1.92727 0 -0.00345523)
(1.94545 0 -0.00348945)
(1.96364 0 -0.00352363)
(1.98182 0 -0.0035578)
(2 0 -0.00359194)
(2.01818 0 -0.00362608)
(2.03636 0 -0.00366018)
(2.05455 0 -0.00369426)
(2.07273 0 -0.00372833)
(2.09091 0 -0.0037624)
(2.10909 0 -0.00379647)
(2.12727 0 -0.00383054)
(2.14545 0 -0.00386461)
(2.16364 0 -0.0038987)
(2.18182 0 -0.00393279)
(2.2 0 -0.0039669)
(2.21818 0 -0.00400103)
(2.23636 0 -0.00403517)
(2.25455 0 -0.00406933)
(2.27273 0 -0.00410351)
(2.29091 0 -0.00413771)
(2.30909 0 -0.00417193)
(2.32727 0 -0.00420617)
(2.34545 0 -0.00424044)
(2.36364 0 -0.00427473)
(2.38182 0 -0.00430906)
(2.4 0 -0.00434342)
(2.41818 0 -0.0043778)
(2.43636 0 -0.00441223)
(2.45455 0 -0.00444669)
(2.47273 0 -0.00448118)
(2.49091 0 -0.00451572)
(2.50909 0 -0.0045503)
(2.52727 0 -0.00458492)
(2.54545 0 -0.00461957)
(2.56364 0 -0.00465427)
(2.58182 0 -0.00468901)
(2.6 0 -0.0047238)
(2.61818 0 -0.00475863)
(2.63636 0 -0.0047935)
(2.65455 0 -0.00482842)
(2.67273 0 -0.00486338)
(2.69091 0 -0.00489838)
(2.70909 0 -0.00493343)
(2.72727 0 -0.00496853)
(2.74545 0 -0.00500367)
(2.76364 0 -0.00503885)
(2.78182 0 -0.00507408)
(2.8 0 -0.00510936)
(2.81818 0 -0.00514469)
(2.83636 0 -0.00518006)
(2.85455 0 -0.00521548)
(2.87273 0 -0.00525095)
(2.89091 0 -0.00528646)
(2.90909 0 -0.00532202)
(2.92727 0 -0.00535763)
(2.94545 0 -0.00539329)
(2.96364 0 -0.00542899)
(2.98182 0 -0.00546475)
(3 0 -0.00550055)
(3.01818 0 -0.00553639)
(3.03636 0 -0.00557228)
(3.05455 0 -0.00560822)
(3.07273 0 -0.0056442)
(3.09091 0 -0.00568022)
(3.10909 0 -0.00571628)
(3.12727 0 -0.00575237)
(3.14545 0 -0.00578849)
(3.16364 0 -0.00582465)
(3.18182 0 -0.00586083)
(3.2 0 -0.00589704)
(3.21818 0 -0.00593327)
(3.23636 0 -0.00596953)
(3.25455 0 -0.0060058)
(3.27273 0 -0.0060421)
(3.29091 0 -0.00607841)
(3.30909 0 -0.00611474)
(3.32727 0 -0.00615109)
(3.34545 0 -0.00618746)
(3.36364 0 -0.00622385)
(3.38182 0 -0.00626025)
(3.4 0 -0.00629666)
(3.41818 0 -0.00633309)
(3.43636 0 -0.00636952)
(3.45455 0 -0.00640598)
(3.47273 0 -0.00644244)
(3.49091 0 -0.00647891)
(3.50909 0 -0.0065154)
(3.52727 0 -0.00655189)
(3.54545 0 -0.00658838)
(3.56364 0 -0.00662489)
(3.58182 0 -0.0066614)
(3.6 0 -0.00669792)
(3.61818 0 -0.00673445)
(3.63636 0 -0.00677098)
(3.65455 0 -0.00680751)
(3.67273 0 -0.00684405)
(3.69091 0 -0.00688058)
(3.70909 0 -0.00691709)
(3.72727 0 -0.0069536)
(3.74545 0 -0.00699007)
(3.76364 0 -0.00702652)
(3.78182 0 -0.00706292)
(3.8 0 -0.0070993)
(3.81818 0 -0.00713566)
(3.83636 0 -0.007172)
(3.85455 0 -0.00720832)
(3.87273 0 -0.00724464)
(3.89091 0 -0.00728094)
(3.90909 0 -0.00731724)
(3.92727 0 -0.00735353)
(3.94545 0 -0.00738982)
(3.96364 0 -0.0074261)
(3.98182 0 -0.00746239)
(4 0 -0.00749867)
(4.01818 0 -0.00753495)
(4.03636 0 -0.00757124)
(4.05455 0 -0.00760753)
(4.07273 0 -0.00764383)
(4.09091 0 -0.00768014)
(4.10909 0 -0.00771646)
(4.12727 0 -0.0077528)
(4.14545 0 -0.00778915)
(4.16364 0 -0.00782551)
(4.18182 0 -0.00786189)
(4.2 0 -0.00789829)
(4.21818 0 -0.0079347)
(4.23636 0 -0.00797114)
(4.25455 0 -0.00800759)
(4.27273 0 -0.00804406)
(4.29091 0 -0.00808055)
(4.30909 0 -0.00811707)
(4.32727 0 -0.0081536)
(4.34545 0 -0.00819014)
(4.36364 0 -0.00822671)
(4.38182 0 -0.0082633)
(4.4 0 -0.00829991)
(4.41818 0 -0.00833653)
(4.43636 0 -0.00837317)
(4.45455 0 -0.00840983)
(4.47273 0 -0.00844651)
(4.49091 0 -0.0084832)
(4.50909 0 -0.00851992)
(4.52727 0 -0.00855665)
(4.54545 0 -0.0085934)
(4.56364 0 -0.00863017)
(4.58182 0 -0.00866695)
(4.6 0 -0.00870376)
(4.61818 0 -0.00874058)
(4.63636 0 -0.00877741)
(4.65455 0 -0.00881426)
(4.67273 0 -0.00885112)
(4.69091 0 -0.008888)
(4.70909 0 -0.00892489)
(4.72727 0 -0.00896179)
(4.74545 0 -0.00899871)
(4.76364 0 -0.00903565)
(4.78182 0 -0.0090726)
(4.8 0 -0.00910956)
(4.81818 0 -0.00914655)
(4.83636 0 -0.00918355)
(4.85455 0 -0.00922057)
(4.87273 0 -0.00925762)
(4.89091 0 -0.00929469)
(4.90909 0 -0.00933178)
(4.92727 0 -0.00936889)
(4.94545 0 -0.00940602)
(4.96364 0 -0.00944317)
(4.98182 0 -0.00948034)
(5 0 -0.00951753)
(5.01818 0 -0.00955474)
(5.03636 0 -0.00959196)
(5.05455 0 -0.00962919)
(5.07273 0 -0.00966642)
(5.09091 0 -0.00970365)
(5.10909 0 -0.00974087)
(5.12727 0 -0.00977809)
(5.14545 0 -0.00981529)
(5.16364 0 -0.00985249)
(5.18182 0 -0.00988967)
(5.2 0 -0.00992683)
(5.21818 0 -0.00996397)
(5.23636 0 -0.0100011)
(5.25455 0 -0.0100382)
(5.27273 0 -0.0100752)
(5.29091 0 -0.0101123)
(5.30909 0 -0.0101493)
(5.32727 0 -0.0101863)
(5.34545 0 -0.0102232)
(5.36364 0 -0.0102602)
(5.38182 0 -0.0102971)
(5.4 0 -0.010334)
(5.41818 0 -0.0103709)
(5.43636 0 -0.0104077)
(5.45455 0 -0.0104445)
(5.47273 0 -0.0104813)
(5.49091 0 -0.0105181)
(5.50909 0 -0.0105549)
(5.52727 0 -0.0105917)
(5.54545 0 -0.0106285)
(5.56364 0 -0.0106653)
(5.58182 0 -0.010702)
(5.6 0 -0.0107387)
(5.61818 0 -0.0107755)
(5.63636 0 -0.0108122)
(5.65455 0 -0.0108488)
(5.67273 0 -0.0108855)
(5.69091 0 -0.0109222)
(5.70909 0 -0.0109588)
(5.72727 0 -0.0109954)
(5.74545 0 -0.0110321)
(5.76364 0 -0.0110687)
(5.78182 0 -0.0111053)
(5.8 0 -0.0111418)
(5.81818 0 -0.0111784)
(5.83636 0 -0.011215)
(5.85455 0 -0.0112515)
(5.87273 0 -0.011288)
(5.89091 0 -0.0113246)
(5.90909 0 -0.0113611)
(5.92727 0 -0.0113976)
(5.94545 0 -0.0114342)
(5.96364 0 -0.0114707)
(5.98182 0 -0.0115072)
(6 0 -0.0115437)
(6.01818 0 -0.0115802)
(6.03636 0 -0.0116167)
(6.05455 0 -0.0116532)
(6.07273 0 -0.0116897)
(6.09091 0 -0.0117261)
(6.10909 0 -0.0117626)
(6.12727 0 -0.011799)
(6.14545 0 -0.0118355)
(6.16364 0 -0.0118719)
(6.18182 0 -0.0119083)
(6.2 0 -0.0119447)
(6.21818 0 -0.0119811)
(6.23636 0 -0.0120175)
(6.25455 0 -0.0120539)
(6.27273 0 -0.0120903)
(6.29091 0 -0.0121266)
(6.30909 0 -0.012163)
(6.32727 0 -0.0121993)
(6.34545 0 -0.0122357)
(6.36364 0 -0.012272)
(6.38182 0 -0.0123084)
(6.4 0 -0.0123447)
(6.41818 0 -0.0123811)
(6.43636 0 -0.0124175)
(6.45455 0 -0.0124539)
(6.47273 0 -0.0124903)
(6.49091 0 -0.0125267)
(6.50909 0 -0.0125631)
(6.52727 0 -0.0125995)
(6.54545 0 -0.012636)
(6.56364 0 -0.0126724)
(6.58182 0 -0.0127089)
(6.6 0 -0.0127454)
(6.61818 0 -0.0127819)
(6.63636 0 -0.0128184)
(6.65455 0 -0.0128549)
(6.67273 0 -0.0128914)
(6.69091 0 -0.0129278)
(6.70909 0 -0.0129643)
(6.72727 0 -0.0130008)
(6.74545 0 -0.0130373)
(6.76364 0 -0.0130737)
(6.78182 0 -0.0131102)
(6.8 0 -0.0131466)
(6.81818 0 -0.0131831)
(6.83636 0 -0.0132195)
(6.85455 0 -0.013256)
(6.87273 0 -0.0132924)
(6.89091 0 -0.0133289)
(6.90909 0 -0.0133653)
(6.92727 0 -0.0134018)
(6.94545 0 -0.0134383)
(6.96364 0 -0.0134748)
(6.98182 0 -0.0135113)
(7 0 -0.0135478)
(7.01818 0 -0.0135843)
(7.03636 0 -0.0136209)
(7.05455 0 -0.0136574)
(7.07273 0 -0.013694)
(7.09091 0 -0.0137306)
(7.10909 0 -0.0137673)
(7.12727 0 -0.0138039)
(7.14545 0 -0.0138406)
(7.16364 0 -0.0138773)
(7.18182 0 -0.013914)
(7.2 0 -0.0139507)
(7.21818 0 -0.0139875)
(7.23636 0 -0.0140242)
(7.25455 0 -0.014061)
(7.27273 0 -0.0140978)
(7.29091 0 -0.0141346)
(7.30909 0 -0.0141714)
(7.32727 0 -0.0142082)
(7.34545 0 -0.014245)
(7.36364 0 -0.0142818)
(7.38182 0 -0.0143186)
(7.4 0 -0.0143554)
(7.41818 0 -0.0143922)
(7.43636 0 -0.014429)
(7.45455 0 -0.0144657)
(7.47273 0 -0.0145025)
(7.49091 0 -0.0145392)
(7.50909 0 -0.0145759)
(7.52727 0 -0.0146126)
(7.54545 0 -0.0146493)
(7.56364 0 -0.014686)
(7.58182 0 -0.0147227)
(7.6 0 -0.0147593)
(7.61818 0 -0.014796)
(7.63636 0 -0.0148327)
(7.65455 0 -0.0148694)
(7.67273 0 -0.014906)
(7.69091 0 -0.0149427)
(7.70909 0 -0.0149794)
(7.72727 0 -0.0150161)
(7.74545 0 -0.0150528)
(7.76364 0 -0.0150895)
(7.78182 0 -0.0151262)
(7.8 0 -0.0151629)
(7.81818 0 -0.0151996)
(7.83636 0 -0.0152363)
(7.85455 0 -0.015273)
(7.87273 0 -0.0153096)
(7.89091 0 -0.0153463)
(7.90909 0 -0.015383)
(7.92727 0 -0.0154197)
(7.94545 0 -0.0154563)
(7.96364 0 -0.015493)
(7.98182 0 -0.0155296)
(8 0 -0.0155662)
(8.01818 0 -0.0156028)
(8.03636 0 -0.0156394)
(8.05455 0 -0.0156759)
(8.07273 0 -0.0157125)
(8.09091 0 -0.0157491)
(8.10909 0 -0.0157856)
(8.12727 0 -0.0158221)
(8.14545 0 -0.0158587)
(8.16364 0 -0.0158952)
(8.18182 0 -0.0159317)
(8.2 0 -0.0159682)
(8.21818 0 -0.0160047)
(8.23636 0 -0.0160412)
(8.25455 0 -0.0160777)
(8.27273 0 -0.0161141)
(8.29091 0 -0.0161506)
(8.30909 0 -0.0161871)
(8.32727 0 -0.0162236)
(8.34545 0 -0.0162601)
(8.36364 0 -0.0162966)
(8.38182 0 -0.016333)
(8.4 0 -0.0163695)
(8.41818 0 -0.016406)
(8.43636 0 -0.0164425)
(8.45455 0 -0.016479)
(8.47273 0 -0.0165154)
(8.49091 0 -0.0165519)
(8.50909 0 -0.0165884)
(8.52727 0 -0.0166248)
(8.54545 0 -0.0166612)
(8.56364 0 -0.0166976)
(8.58182 0 -0.0167341)
(8.6 0 -0.0167705)
(8.61818 0 -0.0168069)
(8.63636 0 -0.0168432)
(8.65455 0 -0.0168796)
(8.67273 0 -0.016916)
(8.69091 0 -0.0169524)
(8.70909 0 -0.0169888)
(8.72727 0 -0.0170253)
(8.74545 0 -0.0170617)
(8.76364 0 -0.0170982)
(8.78182 0 -0.0171346)
(8.8 0 -0.0171711)
(8.81818 0 -0.0172076)
(8.83636 0 -0.0172441)
(8.85455 0 -0.0172807)
(8.87273 0 -0.0173172)
(8.89091 0 -0.0173538)
(8.90909 0 -0.0173903)
(8.92727 0 -0.0174269)
(8.94545 0 -0.0174635)
(8.96364 0 -0.0175001)
(8.98182 0 -0.0175368)
(9 0 -0.0175734)
(9.01818 0 -0.01761)
(9.03636 0 -0.0176466)
(9.05455 0 -0.0176832)
(9.07273 0 -0.0177198)
(9.09091 0 -0.0177565)
(9.10909 0 -0.0177931)
(9.12727 0 -0.0178297)
(9.14545 0 -0.0178663)
(9.16364 0 -0.0179029)
(9.18182 0 -0.0179395)
(9.2 0 -0.0179761)
(9.21818 0 -0.0180127)
(9.23636 0 -0.0180493)
(9.25455 0 -0.0180859)
(9.27273 0 -0.0181225)
(9.29091 0 -0.018159)
(9.30909 0 -0.0181956)
(9.32727 0 -0.0182322)
(9.34545 0 -0.0182688)
(9.36364 0 -0.0183054)
(9.38182 0 -0.018342)
(9.4 0 -0.0183785)
(9.41818 0 -0.0184151)
(9.43636 0 -0.0184517)
(9.45455 0 -0.0184883)
(9.47273 0 -0.0185249)
(9.49091 0 -0.0185614)
(9.50909 0 -0.018598)
(9.52727 0 -0.0186346)
(9.54545 0 -0.0186711)
(9.56364 0 -0.0187076)
(9.58182 0 -0.018744)
(9.6 0 -0.0187803)
(9.61818 0 -0.0188165)
(9.63636 0 -0.0188524)
(9.65455 0 -0.018888)
(9.67273 0 -0.018923)
(9.69091 0 -0.0189572)
(9.70909 0 -0.0189902)
(9.72727 0 -0.0190217)
(9.74545 0 -0.0190506)
(9.76364 0 -0.019082)
(9.78182 0 -0.0191071)
(9.8 0 -0.0193663)
(9.81818 0 -0.0196364)
(9.83636 0 -0.0196727)
(9.85455 0 -0.0197091)
(9.87273 0 -0.0197455)
(9.89091 0 -0.0197818)
(9.90909 0 -0.0198182)
(9.92727 0 -0.0198545)
(9.94545 0 -0.0198909)
(9.96364 0 -0.0199273)
(9.98182 0 -0.0199636)
(10 0 -0.02)
(0 0.02 0)
(0.0181818 0.02 -3.63636e-05)
(0.0363636 0.02 -7.27273e-05)
(0.0545455 0.02 -0.000109091)
(0.0727273 0.02 -0.000145455)
(0.0909091 0.02 -0.000181818)
(0.109091 0.02 -0.000218182)
(0.127273 0.02 -0.000254545)
(0.145455 0.02 -0.000290909)
(0.163636 0.02 -0.000327273)
(0.181818 0.02 -0.000363636)
(0.2 0.02 -0.0004)
(0.218182 0.02 -0.000436364)
(0.236364 0.02 -0.000472727)
(0.254545 0.02 -0.000509091)
(0.272727 0.02 -0.000545455)
(0.290909 0.02 -0.000581818)
(0.309091 0.02 -0.000618182)
(0.327273 0.02 -0.000654545)
(0.345455 0.02 -0.000690909)
(0.363636 0.02 -0.000727273)
(0.381818 0.02 -0.000763636)
(0.4 0.02 -0.0008)
(0.418182 0.02 -0.000836364)
(0.436364 0.02 -0.000872727)
(0.454545 0.02 -0.000909091)
(0.472727 0.02 -0.000945457)
(0.490909 0.02 -0.000981821)
(0.509091 0.02 -0.00101818)
(0.527273 0.02 -0.00105622)
(0.545455 0.02 -0.00108924)
(0.563636 0.02 -0.00111401)
(0.581818 0.02 -0.00113302)
(0.6 0.02 -0.00114822)
(0.618182 0.02 -0.0011641)
(0.636364 0.02 -0.0011811)
(0.654545 0.02 -0.00119971)
(0.672727 0.02 -0.00121986)
(0.690909 0.02 -0.00124143)
(0.709091 0.02 -0.00126428)
(0.727273 0.02 -0.00128829)
(0.745455 0.02 -0.00131333)
(0.763636 0.02 -0.00133927)
(0.781818 0.02 -0.00136599)
(0.8 0.02 -0.00139341)
(0.818182 0.02 -0.00142147)
(0.836364 0.02 -0.00145015)
(0.854545 0.02 -0.0014794)
(0.872727 0.02 -0.00150918)
(0.890909 0.02 -0.00153941)
(0.909091 0.02 -0.00157004)
(0.927273 0.02 -0.00160101)
(0.945455 0.02 -0.00163229)
(0.963636 0.02 -0.00166381)
(0.981818 0.02 -0.00169556)
(1 0.02 -0.0017275)
(1.01818 0.02 -0.00175963)
(1.03636 0.02 -0.00179194)
(1.05455 0.02 -0.00182441)
(1.07273 0.02 -0.00185704)
(1.09091 0.02 -0.0018898)
(1.10909 0.02 -0.00192268)
(1.12727 0.02 -0.00195569)
(1.14545 0.02 -0.00198881)
(1.16364 0.02 -0.00202204)
(1.18182 0.02 -0.00205535)
(1.2 0.02 -0.00208873)
(1.21818 0.02 -0.00212219)
(1.23636 0.02 -0.00215571)
(1.25455 0.02 -0.00218929)
(1.27273 0.02 -0.00222294)
(1.29091 0.02 -0.00225665)
(1.30909 0.02 -0.00229043)
(1.32727 0.02 -0.00232429)
(1.34545 0.02 -0.00235821)
(1.36364 0.02 -0.00239218)
(1.38182 0.02 -0.00242619)
(1.4 0.02 -0.00246023)
(1.41818 0.02 -0.00249431)
(1.43636 0.02 -0.00252845)
(1.45455 0.02 -0.00256262)
(1.47273 0.02 -0.00259681)
(1.49091 0.02 -0.00263102)
(1.50909 0.02 -0.00266524)
(1.52727 0.02 -0.00269947)
(1.54545 0.02 -0.0027337)
(1.56364 0.02 -0.00276795)
(1.58182 0.02 -0.0028022)
(1.6 0.02 -0.00283647)
(1.61818 0.02 -0.00287074)
(1.63636 0.02 -0.00290502)
(1.65455 0.02 -0.00293931)
(1.67273 0.02 -0.00297362)
(1.69091 0.02 -0.00300798)
(1.70909 0.02 -0.00304236)
(1.72727 0.02 -0.00307679)
(1.74545 0.02 -0.00311125)
(1.76364 0.02 -0.00314576)
(1.78182 0.02 -0.00318027)
(1.8 0.02 -0.00321477)
(1.81818 0.02 -0.00324924)
(1.83636 0.02 -0.00328367)
(1.85455 0.02 -0.00331806)
(1.87273 0.02 -0.00335241)
(1.89091 0.02 -0.00338672)
(1.90909 0.02 -0.00342099)
(1.92727 0.02 -0.00345523)
(1.94545 0.02 -0.00348945)
(1.96364 0.02 -0.00352363)
(1.98182 0.02 -0.0035578)
(2 0.02 -0.00359194)
(2.01818 0.02 -0.00362608)
(2.03636 0.02 -0.00366018)
(2.05455 0.02 -0.00369426)
(2.07273 0.02 -0.00372833)
(2.09091 0.02 -0.0037624)
(2.10909 0.02 -0.00379647)
(2.12727 0.02 -0.00383054)
(2.14545 0.02 -0.00386461)
(2.16364 0.02 -0.0038987)
(2.18182 0.02 -0.00393279)
(2.2 0.02 -0.0039669)
(2.21818 0.02 -0.00400103)
(2.23636 0.02 -0.00403517)
(2.25455 0.02 -0.00406933)
(2.27273 0.02 -0.00410351)
(2.29091 0.02 -0.00413771)
(2.30909 0.02 -0.00417193)
(2.32727 0.02 -0.00420617)
(2.34545 0.02 -0.00424044)
(2.36364 0.02 -0.00427473)
(2.38182 0.02 -0.00430906)
(2.4 0.02 -0.00434342)
(2.41818 0.02 -0.0043778)
(2.43636 0.02 -0.00441223)
(2.45455 0.02 -0.00444669)
(2.47273 0.02 -0.00448118)
(2.49091 0.02 -0.00451572)
(2.50909 0.02 -0.0045503)
(2.52727 0.02 -0.00458492)
(2.54545 0.02 -0.00461957)
(2.56364 0.02 -0.00465427)
(2.58182 0.02 -0.00468901)
(2.6 0.02 -0.0047238)
(2.61818 0.02 -0.00475863)
(2.63636 0.02 -0.0047935)
(2.65455 0.02 -0.00482842)
(2.67273 0.02 -0.00486338)
(2.69091 0.02 -0.00489838)
(2.70909 0.02 -0.00493343)
(2.72727 0.02 -0.00496853)
(2.74545 0.02 -0.00500367)
(2.76364 0.02 -0.00503885)
(2.78182 0.02 -0.00507408)
(2.8 0.02 -0.00510936)
(2.81818 0.02 -0.00514469)
(2.83636 0.02 -0.00518006)
(2.85455 0.02 -0.00521548)
(2.87273 0.02 -0.00525095)
(2.89091 0.02 -0.00528646)
(2.90909 0.02 -0.00532202)
(2.92727 0.02 -0.00535763)
(2.94545 0.02 -0.00539329)
(2.96364 0.02 -0.00542899)
(2.98182 0.02 -0.00546475)
(3 0.02 -0.00550055)
(3.01818 0.02 -0.00553639)
(3.03636 0.02 -0.00557228)
(3.05455 0.02 -0.00560822)
(3.07273 0.02 -0.0056442)
(3.09091 0.02 -0.00568022)
(3.10909 0.02 -0.00571628)
(3.12727 0.02 -0.00575237)
(3.14545 0.02 -0.00578849)
(3.16364 0.02 -0.00582465)
(3.18182 0.02 -0.00586083)
(3.2 0.02 -0.00589704)
(3.21818 0.02 -0.00593327)
(3.23636 0.02 -0.00596953)
(3.25455 0.02 -0.0060058)
(3.27273 0.02 -0.0060421)
(3.29091 0.02 -0.00607841)
(3.30909 0.02 -0.00611474)
(3.32727 0.02 -0.00615109)
(3.34545 0.02 -0.00618746)
(3.36364 0.02 -0.00622385)
(3.38182 0.02 -0.00626025)
(3.4 0.02 -0.00629666)
(3.41818 0.02 -0.00633309)
(3.43636 0.02 -0.00636952)
(3.45455 0.02 -0.00640598)
(3.47273 0.02 -0.00644244)
(3.49091 0.02 -0.00647891)
(3.50909 0.02 -0.0065154)
(3.52727 0.02 -0.00655189)
(3.54545 0.02 -0.00658838)
(3.56364 0.02 -0.00662489)
(3.58182 0.02 -0.0066614)
(3.6 0.02 -0.00669792)
(3.61818 0.02 -0.00673445)
(3.63636 0.02 -0.00677098)
(3.65455 0.02 -0.00680751)
(3.67273 0.02 -0.00684405)
(3.69091 0.02 -0.00688058)
(3.70909 0.02 -0.00691709)
(3.72727 0.02 -0.0069536)
(3.74545 0.02 -0.00699007)
(3.76364 0.02 -0.00702652)
(3.78182 0.02 -0.00706292)
(3.8 0.02 -0.0070993)
(3.81818 0.02 -0.00713566)
(3.83636 0.02 -0.007172)
(3.85455 0.02 -0.00720832)
(3.87273 0.02 -0.00724464)
(3.89091 0.02 -0.00728094)
(3.90909 0.02 -0.00731724)
(3.92727 0.02 -0.00735353)
(3.94545 0.02 -0.00738982)
(3.96364 0.02 -0.0074261)
(3.98182 0.02 -0.00746239)
(4 0.02 -0.00749867)
(4.01818 0.02 -0.00753495)
(4.03636 0.02 -0.00757124)
(4.05455 0.02 -0.00760753)
(4.07273 0.02 -0.00764383)
(4.09091 0.02 -0.00768014)
(4.10909 0.02 -0.00771646)
(4.12727 0.02 -0.0077528)
(4.14545 0.02 -0.00778915)
(4.16364 0.02 -0.00782551)
(4.18182 0.02 -0.00786189)
(4.2 0.02 -0.00789829)
(4.21818 0.02 -0.0079347)
(4.23636 0.02 -0.00797114)
(4.25455 0.02 -0.00800759)
(4.27273 0.02 -0.00804406)
(4.29091 0.02 -0.00808055)
(4.30909 0.02 -0.00811707)
(4.32727 0.02 -0.0081536)
(4.34545 0.02 -0.00819014)
(4.36364 0.02 -0.00822671)
(4.38182 0.02 -0.0082633)
(4.4 0.02 -0.00829991)
(4.41818 0.02 -0.00833653)
(4.43636 0.02 -0.00837317)
(4.45455 0.02 -0.00840983)
(4.47273 0.02 -0.00844651)
(4.49091 0.02 -0.0084832)
(4.50909 0.02 -0.00851992)
(4.52727 0.02 -0.00855665)
(4.54545 0.02 -0.0085934)
(4.56364 0.02 -0.00863017)
(4.58182 0.02 -0.00866695)
(4.6 0.02 -0.00870376)
(4.61818 0.02 -0.00874058)
(4.63636 0.02 -0.00877741)
(4.65455 0.02 -0.00881426)
(4.67273 0.02 -0.00885112)
(4.69091 0.02 -0.008888)
(4.70909 0.02 -0.00892489)
(4.72727 0.02 -0.00896179)
(4.74545 0.02 -0.00899871)
(4.76364 0.02 -0.00903565)
(4.78182 0.02 -0.0090726)
(4.8 0.02 -0.00910956)
(4.81818 0.02 -0.00914655)
(4.83636 0.02 -0.00918355)
(4.85455 0.02 -0.00922057)
(4.87273 0.02 -0.00925762)
(4.89091 0.02 -0.00929469)
(4.90909 0.02 -0.00933178)
(4.92727 0.02 -0.00936889)
(4.94545 0.02 -0.00940602)
(4.96364 0.02 -0.00944317)
(4.98182 0.02 -0.00948034)
(5 0.02 -0.00951753)
(5.01818 0.02 -0.00955474)
(5.03636 0.02 -0.00959196)
(5.05455 0.02 -0.00962919)
(5.07273 0.02 -0.00966642)
(5.09091 0.02 -0.00970365)
(5.10909 0.02 -0.00974087)
(5.12727 0.02 -0.00977809)
(5.14545 0.02 -0.00981529)
(5.16364 0.02 -0.00985249)
(5.18182 0.02 -0.00988967)
(5.2 0.02 -0.00992683)
(5.21818 0.02 -0.00996397)
(5.23636 0.02 -0.0100011)
(5.25455 0.02 -0.0100382)
(5.27273 0.02 -0.0100752)
(5.29091 0.02 -0.0101123)
(5.30909 0.02 -0.0101493)
(5.32727 0.02 -0.0101863)
(5.34545 0.02 -0.0102232)
(5.36364 0.02 -0.0102602)
(5.38182 0.02 -0.0102971)
(5.4 0.02 -0.010334)
(5.41818 0.02 -0.0103709)
(5.43636 0.02 -0.0104077)
(5.45455 0.02 -0.0104445)
(5.47273 0.02 -0.0104813)
(5.49091 0.02 -0.0105181)
(5.50909 0.02 -0.0105549)
(5.52727 0.02 -0.0105917)
(5.54545 0.02 -0.0106285)
(5.56364 0.02 -0.0106653)
(5.58182 0.02 -0.010702)
(5.6 0.02 -0.0107387)
(5.61818 0.02 -0.0107755)
(5.63636 0.02 -0.0108122)
(5.65455 0.02 -0.0108488)
(5.67273 0.02 -0.0108855)
(5.69091 0.02 -0.0109222)
(5.70909 0.02 -0.0109588)
(5.72727 0.02 -0.0109954)
(5.74545 0.02 -0.0110321)
(5.76364 0.02 -0.0110687)
(5.78182 0.02 -0.0111053)
(5.8 0.02 -0.0111418)
(5.81818 0.02 -0.0111784)
(5.83636 0.02 -0.011215)
(5.85455 0.02 -0.0112515)
(5.87273 0.02 -0.011288)
(5.89091 0.02 -0.0113246)
(5.90909 0.02 -0.0113611)
(5.92727 0.02 -0.0113976)
(5.94545 0.02 -0.0114342)
(5.96364 0.02 -0.0114707)
(5.98182 0.02 -0.0115072)
(6 0.02 -0.0115437)
(6.01818 0.02 -0.0115802)
(6.03636 0.02 -0.0116167)
(6.05455 0.02 -0.0116532)
(6.07273 0.02 -0.0116897)
(6.09091 0.02 -0.0117261)
(6.10909 0.02 -0.0117626)
(6.12727 0.02 -0.011799)
(6.14545 0.02 -0.0118355)
(6.16364 0.02 -0.0118719)
(6.18182 0.02 -0.0119083)
(6.2 0.02 -0.0119447)
(6.21818 0.02 -0.0119811)
(6.23636 0.02 -0.0120175)
(6.25455 0.02 -0.0120539)
(6.27273 0.02 -0.0120903)
(6.29091 0.02 -0.0121266)
(6.30909 0.02 -0.012163)
(6.32727 0.02 -0.0121993)
(6.34545 0.02 -0.0122357)
(6.36364 0.02 -0.012272)
(6.38182 0.02 -0.0123084)
(6.4 0.02 -0.0123447)
(6.41818 0.02 -0.0123811)
(6.43636 0.02 -0.0124175)
(6.45455 0.02 -0.0124539)
(6.47273 0.02 -0.0124903)
(6.49091 0.02 -0.0125267)
(6.50909 0.02 -0.0125631)
(6.52727 0.02 -0.0125995)
(6.54545 0.02 -0.012636)
(6.56364 0.02 -0.0126724)
(6.58182 0.02 -0.0127089)
(6.6 0.02 -0.0127454)
(6.61818 0.02 -0.0127819)
(6.63636 0.02 -0.0128184)
(6.65455 0.02 -0.0128549)
(6.67273 0.02 -0.0128914)
(6.69091 0.02 -0.0129278)
(6.70909 0.02 -0.0129643)
(6.72727 0.02 -0.0130008)
(6.74545 0.02 -0.0130373)
(6.76364 0.02 -0.0130737)
(6.78182 0.02 -0.0131102)
(6.8 0.02 -0.0131466)
(6.81818 0.02 -0.0131831)
(6.83636 0.02 -0.0132195)
(6.85455 0.02 -0.013256)
(6.87273 0.02 -0.0132924)
(6.89091 0.02 -0.0133289)
(6.90909 0.02 -0.0133653)
(6.92727 0.02 -0.0134018)
(6.94545 0.02 -0.0134383)
(6.96364 0.02 -0.0134748)
(6.98182 0.02 -0.0135113)
(7 0.02 -0.0135478)
(7.01818 0.02 -0.0135843)
(7.03636 0.02 -0.0136209)
(7.05455 0.02 -0.0136574)
(7.07273 0.02 -0.013694)
(7.09091 0.02 -0.0137306)
(7.10909 0.02 -0.0137673)
(7.12727 0.02 -0.0138039)
(7.14545 0.02 -0.0138406)
(7.16364 0.02 -0.0138773)
(7.18182 0.02 -0.013914)
(7.2 0.02 -0.0139507)
(7.21818 0.02 -0.0139875)
(7.23636 0.02 -0.0140242)
(7.25455 0.02 -0.014061)
(7.27273 0.02 -0.0140978)
(7.29091 0.02 -0.0141346)
(7.30909 0.02 -0.0141714)
(7.32727 0.02 -0.0142082)
(7.34545 0.02 -0.014245)
(7.36364 0.02 -0.0142818)
(7.38182 0.02 -0.0143186)
(7.4 0.02 -0.0143554)
(7.41818 0.02 -0.0143922)
(7.43636 0.02 -0.014429)
(7.45455 0.02 -0.0144657)
(7.47273 0.02 -0.0145025)
(7.49091 0.02 -0.0145392)
(7.50909 0.02 -0.0145759)
(7.52727 0.02 -0.0146126)
(7.54545 0.02 -0.0146493)
(7.56364 0.02 -0.014686)
(7.58182 0.02 -0.0147227)
(7.6 0.02 -0.0147593)
(7.61818 0.02 -0.014796)
(7.63636 0.02 -0.0148327)
(7.65455 0.02 -0.0148694)
(7.67273 0.02 -0.014906)
(7.69091 0.02 -0.0149427)
(7.70909 0.02 -0.0149794)
(7.72727 0.02 -0.0150161)
(7.74545 0.02 -0.0150528)
(7.76364 0.02 -0.0150895)
(7.78182 0.02 -0.0151262)
(7.8 0.02 -0.0151629)
(7.81818 0.02 -0.0151996)
(7.83636 0.02 -0.0152363)
(7.85455 0.02 -0.015273)
(7.87273 0.02 -0.0153096)
(7.89091 0.02 -0.0153463)
(7.90909 0.02 -0.015383)
(7.92727 0.02 -0.0154197)
(7.94545 0.02 -0.0154563)
(7.96364 0.02 -0.015493)
(7.98182 0.02 -0.0155296)
(8 0.02 -0.0155662)
(8.01818 0.02 -0.0156028)
(8.03636 0.02 -0.0156394)
(8.05455 0.02 -0.0156759)
(8.07273 0.02 -0.0157125)
(8.09091 0.02 -0.0157491)
(8.10909 0.02 -0.0157856)
(8.12727 0.02 -0.0158221)
(8.14545 0.02 -0.0158587)
(8.16364 0.02 -0.0158952)
(8.18182 0.02 -0.0159317)
(8.2 0.02 -0.0159682)
(8.21818 0.02 -0.0160047)
(8.23636 0.02 -0.0160412)
(8.25455 0.02 -0.0160777)
(8.27273 0.02 -0.0161141)
(8.29091 0.02 -0.0161506)
(8.30909 0.02 -0.0161871)
(8.32727 0.02 -0.0162236)
(8.34545 0.02 -0.0162601)
(8.36364 0.02 -0.0162966)
(8.38182 0.02 -0.016333)
(8.4 0.02 -0.0163695)
(8.41818 0.02 -0.016406)
(8.43636 0.02 -0.0164425)
(8.45455 0.02 -0.016479)
(8.47273 0.02 -0.0165154)
(8.49091 0.02 -0.0165519)
(8.50909 0.02 -0.0165884)
(8.52727 0.02 -0.0166248)
(8.54545 0.02 -0.0166612)
(8.56364 0.02 -0.0166976)
(8.58182 0.02 -0.0167341)
(8.6 0.02 -0.0167705)
(8.61818 0.02 -0.0168069)
(8.63636 0.02 -0.0168432)
(8.65455 0.02 -0.0168796)
(8.67273 0.02 -0.016916)
(8.69091 0.02 -0.0169524)
(8.70909 0.02 -0.0169888)
(8.72727 0.02 -0.0170253)
(8.74545 0.02 -0.0170617)
(8.76364 0.02 -0.0170982)
(8.78182 0.02 -0.0171346)
(8.8 0.02 -0.0171711)
(8.81818 0.02 -0.0172076)
(8.83636 0.02 -0.0172441)
(8.85455 0.02 -0.0172807)
(8.87273 0.02 -0.0173172)
(8.89091 0.02 -0.0173538)
(8.90909 0.02 -0.0173903)
(8.92727 0.02 -0.0174269)
(8.94545 0.02 -0.0174635)
(8.96364 0.02 -0.0175001)
(8.98182 0.02 -0.0175368)
(9 0.02 -0.0175734)
(9.01818 0.02 -0.01761)
(9.03636 0.02 -0.0176466)
(9.05455 0.02 -0.0176832)
(9.07273 0.02 -0.0177198)
(9.09091 0.02 -0.0177565)
(9.10909 0.02 -0.0177931)
(9.12727 0.02 -0.0178297)
(9.14545 0.02 -0.0178663)
(9.16364 0.02 -0.0179029)
(9.18182 0.02 -0.0179395)
(9.2 0.02 -0.0179761)
(9.21818 0.02 -0.0180127)
(9.23636 0.02 -0.0180493)
(9.25455 0.02 -0.0180859)
(9.27273 0.02 -0.0181225)
(9.29091 0.02 -0.018159)
(9.30909 0.02 -0.0181956)
(9.32727 0.02 -0.0182322)
(9.34545 0.02 -0.0182688)
(9.36364 0.02 -0.0183054)
(9.38182 0.02 -0.018342)
(9.4 0.02 -0.0183785)
(9.41818 0.02 -0.0184151)
(9.43636 0.02 -0.0184517)
(9.45455 0.02 -0.0184883)
(9.47273 0.02 -0.0185249)
(9.49091 0.02 -0.0185614)
(9.50909 0.02 -0.018598)
(9.52727 0.02 -0.0186346)
(9.54545 0.02 -0.0186711)
(9.56364 0.02 -0.0187076)
(9.58182 0.02 -0.018744)
(9.6 0.02 -0.0187803)
(9.61818 0.02 -0.0188165)
(9.63636 0.02 -0.0188524)
(9.65455 0.02 -0.018888)
(9.67273 0.02 -0.018923)
(9.69091 0.02 -0.0189572)
(9.70909 0.02 -0.0189902)
(9.72727 0.02 -0.0190217)
(9.74545 0.02 -0.0190506)
(9.76364 0.02 -0.019082)
(9.78182 0.02 -0.0191071)
(9.8 0.02 -0.0193663)
(9.81818 0.02 -0.0196364)
(9.83636 0.02 -0.0196727)
(9.85455 0.02 -0.0197091)
(9.87273 0.02 -0.0197455)
(9.89091 0.02 -0.0197818)
(9.90909 0.02 -0.0198182)
(9.92727 0.02 -0.0198545)
(9.94545 0.02 -0.0198909)
(9.96364 0.02 -0.0199273)
(9.98182 0.02 -0.0199636)
(10 0.02 -0.02)
(0 0 0.005)
(0.0181818 0 0.00496364)
(0.0363636 0 0.00492727)
(0.0545455 0 0.00489091)
(0.0727273 0 0.00485455)
(0.0909091 0 0.00481818)
(0.109091 0 0.00478182)
(0.127273 0 0.00474545)
(0.145455 0 0.00470909)
(0.163636 0 0.00467273)
(0.181818 0 0.00463636)
(0.2 0 0.0046)
(0.218182 0 0.00456364)
(0.236364 0 0.00452727)
(0.254545 0 0.00449091)
(0.272727 0 0.00445455)
(0.290909 0 0.00441818)
(0.309091 0 0.00438182)
(0.327273 0 0.00434545)
(0.345455 0 0.00430909)
(0.363636 0 0.00427273)
(0.381818 0 0.00423636)
(0.4 0 0.0042)
(0.418182 0 0.00416364)
(0.436364 0 0.00412727)
(0.454545 0 0.00409091)
(0.472727 0 0.00405454)
(0.490909 0 0.00401818)
(0.509091 0 0.00398171)
(0.527273 0 0.00394412)
(0.545455 0 0.00391131)
(0.563636 0 0.00388637)
(0.581818 0 0.00386723)
(0.6 0 0.00385172)
(0.618182 0 0.00383582)
(0.636364 0 0.00381879)
(0.654545 0 0.00380018)
(0.672727 0 0.00378004)
(0.690909 0 0.00375848)
(0.709091 0 0.00373563)
(0.727273 0 0.00371163)
(0.745455 0 0.0036866)
(0.763636 0 0.00366067)
(0.781818 0 0.00363396)
(0.8 0 0.00360654)
(0.818182 0 0.00357848)
(0.836364 0 0.0035498)
(0.854545 0 0.00352056)
(0.872727 0 0.00349079)
(0.890909 0 0.00346056)
(0.909091 0 0.00342993)
(0.927273 0 0.00339896)
(0.945455 0 0.00336769)
(0.963636 0 0.00333617)
(0.981818 0 0.00330442)
(1 0 0.00327248)
(1.01818 0 0.00324035)
(1.03636 0 0.00320805)
(1.05455 0 0.00317557)
(1.07273 0 0.00314295)
(1.09091 0 0.00311019)
(1.10909 0 0.00307731)
(1.12727 0 0.0030443)
(1.14545 0 0.00301118)
(1.16364 0 0.00297795)
(1.18182 0 0.00294464)
(1.2 0 0.00291126)
(1.21818 0 0.00287781)
(1.23636 0 0.00284429)
(1.25455 0 0.00281071)
(1.27273 0 0.00277706)
(1.29091 0 0.00274334)
(1.30909 0 0.00270956)
(1.32727 0 0.00267571)
(1.34545 0 0.00264179)
(1.36364 0 0.00260782)
(1.38182 0 0.00257381)
(1.4 0 0.00253977)
(1.41818 0 0.00250568)
(1.43636 0 0.00247155)
(1.45455 0 0.00243738)
(1.47273 0 0.00240319)
(1.49091 0 0.00236898)
(1.50909 0 0.00233476)
(1.52727 0 0.00230053)
(1.54545 0 0.00226629)
(1.56364 0 0.00223205)
(1.58182 0 0.0021978)