/*--------------------------------*- C++ -*----------------------------------*\
| =========                 |                                                 |
| \\      /  F ield         | foam-extend: Open Source CFD                    |
|  \\    /   O peration     | Version:     3.2                                |
|   \\  /    A nd           | Web:         http://www.foam-extend.org         |
|    \\/     M anipulation  | For copyright notice see file Copyright         |
\*---------------------------------------------------------------------------*/
FoamFile
{
    version     2.0;
    format      ascii;
    class       areaScalarField;
    location    "120";
    object      tau;
}
// * * * * * * * * * * * * * * * * * * * * * * * * * * * * * * * * * * * * * //

dimensions      [1 1 2 0 0 0 0];

internalField   nonuniform List<scalar> 
550
(
0.0481503
0.0652785
0.0855884
0.108703
0.133972
0.160445
0.187127
0.212934
0.237
0.258566
0.277199
0.292626
0.304862
0.314005
0.320313
0.324085
0.325686
0.325469
0.323803
0.32109
0.317564
0.31342
0.308829
0.303935
0.298871
0.293743
0.288641
0.283653
0.278814
0.274134
0.269665
0.265441
0.261474
0.25775
0.25425
0.250959
0.247866
0.244962
0.242236
0.23968
0.237284
0.235038
0.232936
0.230967
0.229123
0.227397
0.22578
0.224266
0.222849
0.221523
0.220281
0.219119
0.21803
0.217009
0.21605
0.215148
0.214298
0.213495
0.212735
0.212016
0.211333
0.210683
0.210064
0.209474
0.20891
0.20837
0.207851
0.207353
0.206872
0.206407
0.205957
0.205519
0.205094
0.20468
0.204275
0.203881
0.203494
0.203114
0.202741
0.202374
0.202013
0.201658
0.201308
0.200964
0.200625
0.20029
0.19996
0.199634
0.199313
0.198995
0.19868
0.198367
0.198056
0.197748
0.197441
0.197136
0.196833
0.196532
0.196233
0.195937
0.195642
0.195348
0.195054
0.194759
0.194464
0.194167
0.193868
0.193567
0.193263
0.192957
0.192647
0.192335
0.19202
0.191701
0.191379
0.191054
0.190726
0.190396
0.190062
0.189726
0.189388
0.189048
0.188706
0.188362
0.188016
0.187669
0.187321
0.186971
0.186621
0.186271
0.18592
0.18557
0.18522
0.184871
0.184523
0.184176
0.183831
0.183488
0.183147
0.182809
0.182472
0.182139
0.181808
0.18148
0.181154
0.180832
0.180513
0.180197
0.179885
0.179575
0.17927
0.178967
0.178669
0.178374
0.178082
0.177795
0.177511
0.177231
0.176955
0.176683
0.176415
0.176152
0.175893
0.175638
0.175388
0.175144
0.174904
0.174669
0.17444
0.174216
0.173997
0.173784
0.173577
0.173375
0.173178
0.172987
0.172802
0.172622
0.172447
0.172278
0.172114
0.171956
0.171802
0.171654
0.17151
0.171372
0.171237
0.171108
0.170982
0.170861
0.170744
0.170632
0.170523
0.170418
0.170317
0.17022
0.170126
0.170036
0.169949
0.169865
0.169784
0.169706
0.16963
0.169557
0.169485
0.169414
0.169343
0.16927
0.169198
0.169124
0.169049
0.168973
0.168896
0.168818
0.168738
0.168658
0.168576
0.168494
0.16841
0.168324
0.168238
0.16815
0.168061
0.167971
0.167879
0.167786
0.167692
0.167596
0.167499
0.1674
0.1673
0.167198
0.167095
0.166991
0.166886
0.166779
0.166671
0.166563
0.166454
0.166344
0.166233
0.166122
0.166011
0.165899
0.165788
0.165676
0.165564
0.165452
0.16534
0.165228
0.165116
0.165004
0.164892
0.164781
0.164669
0.164558
0.164448
0.164337
0.164228
0.164119
0.164011
0.163903
0.163797
0.163692
0.163589
0.163487
0.163386
0.163286
0.163189
0.163093
0.162998
0.162906
0.162815
0.162725
0.162637
0.16255
0.162465
0.162381
0.162298
0.162217
0.162136
0.162058
0.16198
0.161904
0.161829
0.161755
0.161683
0.161613
0.161545
0.161478
0.161413
0.161349
0.161288
0.161228
0.16117
0.161114
0.16106
0.161007
0.160956
0.160908
0.160861
0.160817
0.160774
0.160734
0.160695
0.160658
0.160624
0.160591
0.16056
0.16053
0.160503
0.160477
0.160453
0.160431
0.16041
0.160391
0.160373
0.160356
0.160339
0.160323
0.160307
0.16029
0.160272
0.160253
0.160232
0.160209
0.160183
0.160154
0.160122
0.160086
0.160047
0.160002
0.159954
0.159901
0.159844
0.159783
0.159717
0.159647
0.159573
0.159495
0.159414
0.159331
0.159244
0.159155
0.159064
0.158972
0.158877
0.158782
0.158685
0.158587
0.158487
0.158387
0.158286
0.158185
0.158082
0.157978
0.157872
0.157765
0.157657
0.157547
0.157436
0.157322
0.157207
0.15709
0.156972
0.156851
0.156728
0.156604
0.156477
0.156349
0.156219
0.156088
0.155955
0.15582
0.155684
0.155547
0.155409
0.15527
0.15513
0.154989
0.154848
0.154706
0.154564
0.154422
0.154279
0.154136
0.153993
0.15385
0.153706
0.153563
0.153419
0.153275
0.153131
0.152986
0.152842
0.152698
0.152554
0.15241
0.152267
0.152124
0.151981
0.151839
0.151698
0.151558
0.151419
0.151281
0.151145
0.151012
0.15088
0.15075
0.150623
0.150498
0.150375
0.150255
0.150137
0.150021
0.149907
0.149794
0.149684
0.149575
0.149467
0.14936
0.149255
0.149151
0.149048
0.148946
0.148845
0.148746
0.148648
0.148551
0.148455
0.148361
0.148268
0.148178
0.148089
0.148002
0.147917
0.147835
0.147754
0.147676
0.147599
0.147525
0.147452
0.147381
0.147312
0.147243
0.147177
0.147111
0.147047
0.146984
0.146921
0.146859
0.146798
0.146736
0.146675
0.146612
0.146549
0.146485
0.14642
0.146355
0.146287
0.146219
0.14615
0.14608
0.146009
0.145937
0.145865
0.145792
0.145719
0.145646
0.145572
0.145498
0.145424
0.145351
0.145277
0.145202
0.145128
0.145052
0.144976
0.144899
0.144821
0.144742
0.144661
0.144578
0.144493
0.144406
0.144317
0.144225
0.14413
0.144033
0.143932
0.143829
0.143723
0.143615
0.143504
0.143392
0.143277
0.143161
0.143044
0.142926
0.142806
0.142687
0.142566
0.142444
0.142322
0.142199
0.142074
0.141949
0.141822
0.141695
0.141566
0.141436
0.141304
0.141171
0.141035
0.140898
0.140758
0.140617
0.140474
0.140331
0.140185
0.140039
0.139891
0.139742
0.139591
0.139438
0.13928
0.13912
0.138948
0.13877
0.138564
0.138345
0.138069
0.137761
0.13734
0.136855
0.136135
0.135388
0.133515
0.130277
0.126247
0.121275
0.113929
0.104032
0.0905002
0.0726535
0.0457809
0.0217683
0.027906
0.0474621
)
;

boundaryField
{
    inlet
    {
        type            calculated;
        value           uniform 0;
    }
    endWall
    {
        type            calculated;
        value           uniform 0;
    }
    sideWall
    {
        type            empty;
    }
}


// ************************************************************************* //
