/*--------------------------------*- C++ -*----------------------------------*\
| =========                 |                                                 |
| \\      /  F ield         | foam-extend: Open Source CFD                    |
|  \\    /   O peration     | Version:     3.2                                |
|   \\  /    A nd           | Web:         http://www.foam-extend.org         |
|    \\/     M anipulation  | For copyright notice see file Copyright         |
\*---------------------------------------------------------------------------*/
FoamFile
{
    version     2.0;
    format      ascii;
    class       areaScalarField;
    location    "120";
    object      tauCB;
}
// * * * * * * * * * * * * * * * * * * * * * * * * * * * * * * * * * * * * * //

dimensions      [1 1 2 0 0 0 0];

internalField   nonuniform List<scalar> 
550
(
0.0676939
0.0676939
0.0676939
0.0676939
0.0676939
0.0676939
0.0676939
0.0676939
0.0676939
0.0676939
0.0676939
0.0676939
0.0676939
0.0676939
0.0676939
0.0676939
0.0676939
0.0676939
0.0676939
0.0676939
0.0676939
0.0676939
0.0676939
0.0676939
0.0676939
0.0676939
0.0676939
0.067694
0.0676843
0.0678779
0.067921
0.0679613
0.068003
0.0680279
0.0680536
0.0680775
0.0681009
0.068123
0.0681436
0.0681621
0.0681785
0.0681928
0.0682051
0.0682155
0.0682242
0.0682313
0.0682369
0.0682415
0.0682454
0.0682488
0.0682523
0.0682561
0.0682603
0.0682653
0.0682708
0.0682769
0.0682833
0.06829
0.0682968
0.0683039
0.0683109
0.0683181
0.0683252
0.0683324
0.0683397
0.0683471
0.0683545
0.0683618
0.0683691
0.0683761
0.0683828
0.068389
0.0683947
0.0683996
0.0684038
0.0684076
0.0684107
0.0684131
0.0684145
0.0684154
0.0684158
0.068416
0.068416
0.0684161
0.0684165
0.0684173
0.0684185
0.0684201
0.0684221
0.0684246
0.0684273
0.06843
0.0684325
0.0684347
0.0684366
0.0684382
0.0684393
0.0684402
0.0684412
0.0684424
0.0684438
0.0684455
0.0684475
0.0684499
0.0684525
0.0684555
0.0684586
0.0684618
0.068465
0.0684682
0.0684714
0.0684746
0.0684779
0.0684809
0.0684839
0.0684868
0.0684896
0.0684921
0.0684945
0.0684966
0.0684985
0.0685001
0.0685014
0.0685024
0.0685032
0.0685037
0.0685039
0.068504
0.0685039
0.0685036
0.0685032
0.0685026
0.068502
0.0685014
0.0685008
0.0685002
0.0684997
0.0684991
0.0684986
0.0684981
0.0684976
0.068497
0.0684965
0.0684958
0.0684951
0.0684943
0.0684934
0.0684923
0.0684912
0.0684899
0.0684885
0.0684869
0.0684852
0.0684832
0.0684811
0.0684786
0.068476
0.068473
0.0684698
0.0684664
0.0684627
0.0684588
0.0684546
0.0684503
0.0684458
0.0684413
0.0684367
0.0684322
0.0684277
0.0684232
0.068419
0.0684149
0.0684111
0.0684077
0.0684047
0.0684023
0.0684004
0.0683992
0.0683987
0.068399
0.0684
0.0684018
0.0684044
0.0684078
0.0684119
0.0684168
0.0684224
0.0684287
0.0684358
0.0684435
0.0684519
0.0684609
0.0684707
0.0684811
0.0684922
0.068504
0.0685164
0.0685294
0.0685431
0.0685572
0.0685719
0.068587
0.0686025
0.0686185
0.0686347
0.0686507
0.0686665
0.0686824
0.0686984
0.0687146
0.0687311
0.0687479
0.0687649
0.0687821
0.0687995
0.068817
0.0688344
0.0688518
0.0688691
0.0688861
0.0689029
0.0689194
0.0689355
0.0689511
0.0689661
0.0689803
0.0689938
0.0690064
0.069018
0.0690285
0.0690378
0.069046
0.0690529
0.0690586
0.0690631
0.0690663
0.0690682
0.069069
0.0690686
0.0690671
0.0690644
0.0690607
0.0690561
0.0690504
0.0690439
0.0690364
0.0690281
0.069019
0.0690089
0.0689981
0.0689865
0.0689741
0.0689609
0.068947
0.0689324
0.0689171
0.0689013
0.0688849
0.068868
0.0688507
0.068833
0.068815
0.0687967
0.068778
0.0687591
0.0687399
0.0687205
0.0687008
0.0686808
0.0686606
0.06864
0.068619
0.0685976
0.0685758
0.0685535
0.0685307
0.0685075
0.0684838
0.0684598
0.0684356
0.0684112
0.068387
0.068363
0.0683395
0.0683167
0.0682948
0.0682741
0.0682548
0.068237
0.068221
0.0682067
0.0681945
0.0681842
0.068176
0.0681698
0.0681656
0.0681634
0.0681631
0.0681647
0.068168
0.0681729
0.0681796
0.0681878
0.0681976
0.0682088
0.0682214
0.0682353
0.0682506
0.0682672
0.068285
0.0683042
0.0683247
0.0683465
0.0683697
0.0683941
0.0684198
0.0684466
0.0684744
0.0685032
0.0685327
0.0685628
0.0685933
0.0686239
0.0686545
0.0686848
0.0687146
0.0687437
0.0687718
0.068799
0.0688248
0.0688493
0.0688723
0.0688938
0.0689137
0.0689322
0.0689492
0.0689649
0.0689794
0.0689927
0.0690051
0.0690167
0.0690276
0.0690381
0.0690482
0.069058
0.0690677
0.0690774
0.069087
0.0690967
0.0691063
0.0691159
0.0691254
0.0691347
0.0691436
0.069152
0.0691598
0.0691667
0.0691727
0.0691775
0.0691812
0.0691835
0.0691845
0.0691841
0.0691824
0.0691793
0.069175
0.0691695
0.069163
0.0691557
0.0691475
0.0691388
0.0691295
0.0691198
0.0691099
0.0690996
0.0690892
0.0690785
0.0690678
0.0690568
0.0690458
0.0690346
0.0690232
0.0690115
0.0689994
0.0689868
0.0689737
0.0689599
0.0689453
0.0689299
0.0689135
0.0688962
0.0688778
0.0688584
0.0688378
0.0688161
0.0687933
0.0687695
0.0687447
0.0687191
0.0686927
0.0686656
0.0686382
0.0686104
0.0685825
0.0685547
0.0685273
0.0685006
0.0684748
0.0684501
0.0684268
0.068405
0.0683849
0.0683666
0.06835
0.0683354
0.0683226
0.0683116
0.0683022
0.0682944
0.0682879
0.0682826
0.0682782
0.0682747
0.0682718
0.0682695
0.0682677
0.0682662
0.0682652
0.0682645
0.0682643
0.0682645
0.0682655
0.0682672
0.0682699
0.0682736
0.0682786
0.068285
0.0682929
0.0683024
0.0683136
0.0683264
0.0683409
0.068357
0.0683747
0.068394
0.0684146
0.0684367
0.0684602
0.0684849
0.0685109
0.068538
0.068566
0.0685949
0.0686244
0.0686543
0.0686845
0.0687147
0.0687448
0.0687748
0.0688045
0.0688339
0.068863
0.0688917
0.0689201
0.0689483
0.0689764
0.0690045
0.0690329
0.0690617
0.069091
0.069121
0.0691519
0.0691835
0.0692159
0.0692491
0.0692829
0.069317
0.0693514
0.0693857
0.0694197
0.069453
0.0694855
0.0695167
0.0695465
0.0695745
0.0696006
0.0696247
0.0696466
0.0696662
0.0696835
0.0696984
0.0697108
0.0697209
0.0697287
0.0697345
0.0697387
0.0697416
0.0697434
0.0697445
0.0697451
0.0697454
0.0697453
0.0697451
0.0697446
0.0697438
0.0697427
0.0697411
0.0697392
0.0697369
0.0697341
0.0697309
0.0697272
0.069723
0.0697183
0.069713
0.069707
0.0697005
0.0696934
0.0696857
0.0696775
0.0696688
0.0696595
0.0696497
0.0696396
0.0696291
0.0696185
0.0696079
0.0695972
0.069587
0.0695772
0.0695685
0.0695623
0.0695603
0.0695669
0.069586
0.0696332
0.0696745
0.0698842
0.0683887
0.0678131
0.0676939
0.0676939
0.0676939
0.0676939
0.0676939
0.0676939
0.0676939
0.0676939
0.0681118
0.0681118
)
;

boundaryField
{
    inlet
    {
        type            calculated;
        value           uniform 0;
    }
    endWall
    {
        type            calculated;
        value           uniform 0;
    }
    sideWall
    {
        type            empty;
    }
}


// ************************************************************************* //
