/*--------------------------------*- C++ -*----------------------------------*\
| =========                 |                                                 |
| \\      /  F ield         | foam-extend: Open Source CFD                    |
|  \\    /   O peration     | Version:     3.2                                |
|   \\  /    A nd           | Web:         http://www.foam-extend.org         |
|    \\/     M anipulation  | For copyright notice see file Copyright         |
\*---------------------------------------------------------------------------*/
FoamFile
{
    version     2.0;
    format      ascii;
    class       areaScalarField;
    location    "120";
    object      thetaCSS2;
}
// * * * * * * * * * * * * * * * * * * * * * * * * * * * * * * * * * * * * * //

dimensions      [0 0 0 0 0 0 0];

internalField   nonuniform List<scalar> 
550
(
0.127208
0.127208
0.127208
0.127208
0.127208
0.127208
0.127208
0.127208
0.127208
0.127208
0.127208
0.127208
0.127208
0.127208
0.127208
0.127208
0.127208
0.127208
0.127208
0.127208
0.127208
0.127208
0.127208
0.127208
0.127208
0.127208
0.127208
0.127208
0.12719
0.127554
0.127635
0.127711
0.127789
0.127836
0.127884
0.127929
0.127973
0.128015
0.128053
0.128088
0.128119
0.128146
0.128169
0.128188
0.128205
0.128218
0.128228
0.128237
0.128244
0.128251
0.128257
0.128264
0.128273
0.128282
0.128292
0.128304
0.128316
0.128328
0.128341
0.128354
0.128368
0.128381
0.128394
0.128408
0.128422
0.128436
0.128449
0.128463
0.128477
0.12849
0.128503
0.128514
0.128525
0.128534
0.128542
0.128549
0.128555
0.12856
0.128562
0.128564
0.128565
0.128565
0.128565
0.128565
0.128566
0.128567
0.12857
0.128573
0.128577
0.128581
0.128586
0.128591
0.128596
0.1286
0.128604
0.128607
0.128609
0.12861
0.128612
0.128615
0.128617
0.12862
0.128624
0.128629
0.128634
0.128639
0.128645
0.128651
0.128657
0.128663
0.128669
0.128675
0.128681
0.128687
0.128693
0.128698
0.128703
0.128708
0.128713
0.128717
0.12872
0.128723
0.128726
0.128727
0.128729
0.12873
0.12873
0.12873
0.12873
0.12873
0.128729
0.128728
0.128727
0.128726
0.128724
0.128723
0.128722
0.128721
0.12872
0.128719
0.128718
0.128717
0.128716
0.128715
0.128714
0.128712
0.12871
0.128708
0.128706
0.128704
0.128701
0.128698
0.128695
0.128691
0.128687
0.128683
0.128678
0.128672
0.128666
0.12866
0.128653
0.128645
0.128638
0.128629
0.128621
0.128613
0.128604
0.128595
0.128587
0.128579
0.128571
0.128563
0.128556
0.128549
0.128544
0.128539
0.128536
0.128534
0.128533
0.128533
0.128535
0.128538
0.128543
0.12855
0.128557
0.128567
0.128577
0.128589
0.128602
0.128617
0.128632
0.128649
0.128668
0.128687
0.128708
0.12873
0.128754
0.128778
0.128804
0.12883
0.128858
0.128886
0.128915
0.128946
0.128976
0.129006
0.129036
0.129066
0.129096
0.129126
0.129157
0.129189
0.129221
0.129253
0.129286
0.129319
0.129351
0.129384
0.129416
0.129448
0.12948
0.129511
0.129541
0.129571
0.129599
0.129626
0.129651
0.129675
0.129696
0.129716
0.129734
0.129749
0.129762
0.129773
0.129781
0.129787
0.129791
0.129792
0.129791
0.129789
0.129784
0.129777
0.129768
0.129757
0.129745
0.129731
0.129715
0.129698
0.129679
0.129659
0.129637
0.129614
0.129589
0.129563
0.129535
0.129507
0.129477
0.129446
0.129414
0.129382
0.129349
0.129315
0.12928
0.129245
0.12921
0.129174
0.129137
0.1291
0.129063
0.129025
0.128986
0.128947
0.128906
0.128865
0.128823
0.128781
0.128737
0.128692
0.128647
0.128602
0.128556
0.12851
0.128465
0.128421
0.128378
0.128337
0.128298
0.128262
0.128229
0.128199
0.128172
0.128149
0.128129
0.128114
0.128102
0.128095
0.12809
0.12809
0.128093
0.128099
0.128108
0.128121
0.128136
0.128155
0.128176
0.128199
0.128226
0.128254
0.128285
0.128319
0.128355
0.128393
0.128434
0.128478
0.128524
0.128572
0.128622
0.128675
0.128729
0.128784
0.128841
0.128898
0.128956
0.129013
0.12907
0.129126
0.129181
0.129234
0.129285
0.129333
0.129379
0.129423
0.129463
0.1295
0.129535
0.129567
0.129597
0.129624
0.129649
0.129672
0.129694
0.129714
0.129734
0.129753
0.129771
0.12979
0.129808
0.129826
0.129844
0.129862
0.12988
0.129898
0.129916
0.129932
0.129948
0.129963
0.129976
0.129987
0.129996
0.130003
0.130007
0.130009
0.130008
0.130005
0.129999
0.129991
0.129981
0.129969
0.129955
0.12994
0.129923
0.129906
0.129888
0.129869
0.12985
0.12983
0.12981
0.12979
0.129769
0.129749
0.129727
0.129706
0.129684
0.129661
0.129638
0.129613
0.129587
0.12956
0.129531
0.1295
0.129467
0.129433
0.129396
0.129358
0.129317
0.129274
0.129229
0.129183
0.129135
0.129085
0.129034
0.128983
0.12893
0.128878
0.128826
0.128774
0.128724
0.128676
0.128629
0.128585
0.128544
0.128507
0.128472
0.128441
0.128414
0.12839
0.128369
0.128351
0.128337
0.128324
0.128314
0.128306
0.1283
0.128294
0.12829
0.128286
0.128284
0.128282
0.12828
0.12828
0.12828
0.128282
0.128285
0.12829
0.128297
0.128307
0.128319
0.128334
0.128352
0.128373
0.128397
0.128424
0.128454
0.128487
0.128524
0.128562
0.128604
0.128648
0.128695
0.128743
0.128794
0.128847
0.128901
0.128957
0.129013
0.12907
0.129126
0.129183
0.129239
0.129295
0.12935
0.129405
0.129459
0.129512
0.129565
0.129618
0.129671
0.129724
0.129778
0.129833
0.12989
0.129948
0.130007
0.130068
0.130131
0.130194
0.130258
0.130323
0.130387
0.130451
0.130514
0.130575
0.130633
0.130689
0.130742
0.130791
0.130836
0.130878
0.130914
0.130947
0.130975
0.130998
0.131017
0.131032
0.131043
0.131051
0.131056
0.131059
0.131062
0.131063
0.131063
0.131063
0.131063
0.131062
0.13106
0.131058
0.131055
0.131052
0.131047
0.131042
0.131036
0.131029
0.131021
0.131012
0.131002
0.130991
0.130979
0.130966
0.130951
0.130936
0.130919
0.130902
0.130883
0.130864
0.130845
0.130825
0.130805
0.130785
0.130765
0.130747
0.130731
0.130719
0.130715
0.130728
0.130764
0.130852
0.13093
0.131324
0.128514
0.127432
0.127208
0.127208
0.127208
0.127208
0.127208
0.127208
0.127208
0.127208
0.127993
0.127993
)
;

boundaryField
{
    inlet
    {
        type            calculated;
        value           uniform 0;
    }
    endWall
    {
        type            calculated;
        value           uniform 0;
    }
    sideWall
    {
        type            empty;
    }
}


// ************************************************************************* //
