/*--------------------------------*- C++ -*----------------------------------*\
| =========                 |                                                 |
| \\      /  F ield         | foam-extend: Open Source CFD                    |
|  \\    /   O peration     | Version:     3.2                                |
|   \\  /    A nd           | Web:         http://www.foam-extend.org         |
|    \\/     M anipulation  | For copyright notice see file Copyright         |
\*---------------------------------------------------------------------------*/
FoamFile
{
    version     2.0;
    format      ascii;
    class       areaScalarField;
    location    "120";
    object      thetaB;
}
// * * * * * * * * * * * * * * * * * * * * * * * * * * * * * * * * * * * * * //

dimensions      [0 0 0 0 0 0 0];

internalField   nonuniform List<scalar> 
550
(
0.015168
0.0205636
0.0269615
0.0342429
0.0422028
0.0505422
0.0589474
0.0670772
0.0746583
0.0814518
0.0873214
0.0921811
0.0960355
0.0989158
0.100903
0.102091
0.102596
0.102527
0.102002
0.101148
0.100037
0.0987317
0.0972852
0.0957437
0.0941484
0.0925331
0.0909259
0.0893545
0.0878302
0.086356
0.0849482
0.0836174
0.0823677
0.0811949
0.080092
0.0790555
0.0780812
0.0771664
0.0763078
0.0755024
0.0747475
0.0740403
0.073378
0.0727577
0.0721769
0.071633
0.0711236
0.0706467
0.0702004
0.0697826
0.0693916
0.0690254
0.0686824
0.0683608
0.0680587
0.0677745
0.0675066
0.0672537
0.0670145
0.0667878
0.0665726
0.066368
0.066173
0.0659871
0.0658094
0.0656392
0.0654759
0.0653189
0.0651674
0.0650209
0.0648791
0.0647414
0.0646074
0.0644769
0.0643495
0.0642251
0.0641034
0.0639838
0.0638662
0.0637506
0.0636369
0.0635251
0.0634149
0.0633064
0.0631995
0.0630941
0.0629901
0.0628875
0.0627861
0.062686
0.0625868
0.0624882
0.0623904
0.0622932
0.0621966
0.0621005
0.062005
0.0619102
0.0618161
0.0617228
0.0616298
0.0615371
0.0614445
0.0613518
0.0612587
0.0611652
0.0610711
0.0609762
0.0608805
0.0607839
0.0606864
0.0605881
0.0604888
0.0603884
0.060287
0.0601846
0.0600814
0.0599772
0.0598722
0.0597664
0.0596598
0.0595526
0.0594448
0.0593365
0.0592276
0.0591182
0.0590085
0.0588985
0.0587882
0.0586778
0.0585674
0.058457
0.0583467
0.0582367
0.0581271
0.0580179
0.0579093
0.0578012
0.0576938
0.0575872
0.0574813
0.0573762
0.0572719
0.0571685
0.0570661
0.0569646
0.0568641
0.0567646
0.0566661
0.0565687
0.0564724
0.0563772
0.0562831
0.0561902
0.0560984
0.0560078
0.0559184
0.0558302
0.0557432
0.0556575
0.0555732
0.0554902
0.0554085
0.0553284
0.0552497
0.0551726
0.0550971
0.0550232
0.0549509
0.0548804
0.0548115
0.0547444
0.054679
0.0546153
0.0545534
0.0544933
0.0544349
0.0543782
0.0543232
0.05427
0.0542184
0.0541684
0.0541201
0.0540733
0.0540281
0.0539844
0.0539421
0.0539012
0.0538617
0.0538236
0.0537868
0.0537512
0.053717
0.053684
0.0536521
0.0536215
0.0535919
0.0535635
0.0535361
0.0535097
0.0534842
0.0534596
0.0534358
0.0534128
0.0533902
0.0533677
0.0533452
0.0533225
0.0532995
0.0532762
0.0532526
0.0532287
0.0532044
0.0531798
0.0531549
0.0531296
0.0531039
0.0530778
0.0530513
0.0530244
0.0529972
0.0529695
0.0529415
0.0529131
0.0528842
0.0528549
0.0528252
0.052795
0.0527644
0.0527333
0.0527017
0.0526697
0.0526373
0.0526044
0.0525712
0.0525376
0.0525037
0.0524696
0.0524351
0.0524005
0.0523657
0.0523307
0.0522957
0.0522605
0.0522253
0.0521901
0.0521548
0.0521195
0.0520842
0.0520489
0.0520137
0.0519784
0.0519432
0.0519081
0.051873
0.0518381
0.0518032
0.0517685
0.0517339
0.0516996
0.0516656
0.0516318
0.0515984
0.0515653
0.0515327
0.0515005
0.0514687
0.0514375
0.0514067
0.0513765
0.0513467
0.0513175
0.0512888
0.0512606
0.0512328
0.0512055
0.0511786
0.0511521
0.0511261
0.0511004
0.0510752
0.0510503
0.0510259
0.0510018
0.0509782
0.0509551
0.0509324
0.0509103
0.0508887
0.0508677
0.0508472
0.0508272
0.0508079
0.0507891
0.0507708
0.0507531
0.0507359
0.0507194
0.0507034
0.0506881
0.0506734
0.0506594
0.050646
0.0506332
0.0506211
0.0506096
0.0505986
0.0505882
0.0505784
0.0505692
0.0505605
0.0505524
0.0505449
0.0505379
0.0505314
0.0505253
0.0505196
0.0505142
0.050509
0.0505039
0.0504987
0.0504934
0.0504879
0.0504818
0.0504752
0.050468
0.0504598
0.0504508
0.0504407
0.0504294
0.0504168
0.0504029
0.0503877
0.0503711
0.0503531
0.0503337
0.0503129
0.0502909
0.0502676
0.0502432
0.0502177
0.0501913
0.0501641
0.0501361
0.0501075
0.0500782
0.0500485
0.0500184
0.0499878
0.0499569
0.0499257
0.0498942
0.0498624
0.0498303
0.0497978
0.0497651
0.0497319
0.0496982
0.0496641
0.0496295
0.0495943
0.0495586
0.0495224
0.0494856
0.0494482
0.0494102
0.0493715
0.0493323
0.0492925
0.0492521
0.0492112
0.0491698
0.0491279
0.0490855
0.0490427
0.0489995
0.048956
0.0489121
0.048868
0.0488237
0.0487792
0.0487345
0.0486898
0.0486449
0.0486
0.048555
0.0485099
0.0484648
0.0484196
0.0483743
0.048329
0.0482836
0.0482382
0.0481928
0.0481474
0.048102
0.0480566
0.0480113
0.0479661
0.047921
0.0478761
0.0478313
0.0477869
0.0477427
0.047699
0.0476556
0.0476129
0.0475707
0.0475291
0.0474883
0.0474482
0.0474088
0.0473702
0.0473323
0.0472951
0.0472585
0.0472226
0.0471872
0.0471524
0.047118
0.0470841
0.0470505
0.0470174
0.0469846
0.0469522
0.0469201
0.0468883
0.046857
0.046826
0.0467954
0.0467653
0.0467356
0.0467065
0.0466779
0.0466499
0.0466226
0.0465959
0.0465699
0.0465445
0.0465198
0.0464958
0.0464723
0.0464494
0.046427
0.0464051
0.0463837
0.0463626
0.046342
0.0463218
0.0463018
0.0462822
0.0462627
0.0462433
0.046224
0.0462045
0.0461849
0.046165
0.0461449
0.0461244
0.0461037
0.0460825
0.0460611
0.0460393
0.0460172
0.0459948
0.0459722
0.0459495
0.0459265
0.0459034
0.0458803
0.0458571
0.0458339
0.0458107
0.0457874
0.0457641
0.0457407
0.0457171
0.0456934
0.0456695
0.0456452
0.0456206
0.0455956
0.0455701
0.045544
0.0455173
0.0454899
0.0454617
0.0454327
0.0454029
0.0453722
0.0453406
0.0453082
0.0452748
0.0452407
0.0452058
0.0451703
0.0451342
0.0450977
0.0450608
0.0450235
0.044986
0.0449482
0.0449101
0.0448719
0.0448332
0.0447945
0.0447553
0.0447159
0.044676
0.0446359
0.0445952
0.0445543
0.0445126
0.0444706
0.0444278
0.0443847
0.0443407
0.0442964
0.0442513
0.0442061
0.0441602
0.0441142
0.0440675
0.0440207
0.0439729
0.0439248
0.0438751
0.0438246
0.0437704
0.0437143
0.0436497
0.0435806
0.0434937
0.0433965
0.0432638
0.0431113
0.0428843
0.0426492
0.0420589
0.041039
0.0397694
0.0382031
0.0358893
0.0327716
0.0285088
0.0228868
0.0144216
0.0068573
0.00879076
0.0149512
)
;

boundaryField
{
    inlet
    {
        type            calculated;
        value           uniform 0;
    }
    endWall
    {
        type            calculated;
        value           uniform 0;
    }
    sideWall
    {
        type            empty;
    }
}


// ************************************************************************* //
