/*--------------------------------*- C++ -*----------------------------------*\
| =========                 |                                                 |
| \\      /  F ield         | foam-extend: Open Source CFD                    |
|  \\    /   O peration     | Version:     3.2                                |
|   \\  /    A nd           | Web:         http://www.foam-extend.org         |
|    \\/     M anipulation  | For copyright notice see file Copyright         |
\*---------------------------------------------------------------------------*/
FoamFile
{
    version     2.0;
    format      ascii;
    class       areaScalarField;
    location    "120";
    object      thetaBinit;
}
// * * * * * * * * * * * * * * * * * * * * * * * * * * * * * * * * * * * * * //

dimensions      [0 0 0 0 0 0 0];

internalField   nonuniform List<scalar> 
550
(
0.0151679
0.0205644
0.0269622
0.0342407
0.042193
0.0505172
0.0589025
0.0670082
0.0745649
0.0813327
0.0871776
0.092014
0.0958473
0.0987101
0.100683
0.101861
0.102358
0.102285
0.101756
0.100901
0.0997898
0.0984848
0.0970387
0.0954978
0.093903
0.092289
0.0906837
0.0891161
0.0876033
0.0861464
0.0847475
0.0834113
0.0821407
0.0809369
0.0797998
0.0787286
0.0777216
0.0767767
0.0758912
0.0750625
0.0742877
0.0735638
0.0728877
0.0722563
0.0716664
0.0711153
0.0706003
0.0701191
0.0696694
0.069249
0.0688554
0.0684866
0.0681405
0.0678152
0.0675089
0.06722
0.066947
0.0666887
0.066444
0.0662117
0.0659908
0.0657804
0.0655797
0.0653879
0.0652044
0.0650284
0.0648593
0.0646963
0.0645391
0.0643871
0.06424
0.0640974
0.0639591
0.063825
0.0636947
0.0635679
0.0634442
0.0633235
0.0632055
0.0630901
0.0629771
0.0628661
0.062757
0.0626495
0.0625433
0.0624383
0.0623342
0.0622311
0.062129
0.0620276
0.0619269
0.0618269
0.0617276
0.0616292
0.0615317
0.061435
0.0613393
0.0612447
0.0611509
0.0610576
0.0609647
0.0608717
0.0607784
0.0606848
0.0605906
0.0604957
0.0604
0.0603035
0.0602061
0.0601079
0.0600088
0.0599088
0.0598079
0.059706
0.0596032
0.0594995
0.059395
0.0592897
0.0591838
0.0590774
0.0589704
0.058863
0.0587552
0.0586471
0.0585388
0.0584302
0.0583214
0.0582125
0.0581035
0.0579945
0.0578855
0.0577767
0.0576681
0.0575597
0.0574517
0.0573441
0.057237
0.0571305
0.0570246
0.0569194
0.0568149
0.0567113
0.0566085
0.0565066
0.0564058
0.0563059
0.0562071
0.0561093
0.0560127
0.0559173
0.055823
0.05573
0.0556382
0.0555477
0.0554585
0.0553706
0.0552842
0.0551992
0.0551155
0.0550334
0.0549527
0.0548735
0.0547959
0.0547199
0.0546454
0.0545725
0.0545012
0.0544316
0.0543635
0.054297
0.0542321
0.0541687
0.0541069
0.0540465
0.0539874
0.0539297
0.0538732
0.053818
0.0537639
0.0537109
0.0536589
0.053608
0.053558
0.053509
0.053461
0.0534138
0.0533676
0.0533221
0.0532776
0.0532338
0.0531908
0.0531486
0.0531071
0.0530663
0.0530262
0.0529868
0.052948
0.0529098
0.0528722
0.0528351
0.0527987
0.0527628
0.0527274
0.0526924
0.0526578
0.0526234
0.0525893
0.0525549
0.0525201
0.0524849
0.0524491
0.0524128
0.052376
0.0523387
0.052301
0.0522628
0.0522243
0.0521855
0.0521464
0.0521071
0.0520676
0.052028
0.0519883
0.0519486
0.051909
0.0518694
0.0518301
0.051791
0.0517522
0.0517137
0.0516757
0.0516381
0.051601
0.0515645
0.0515285
0.0514931
0.0514584
0.0514242
0.0513907
0.0513578
0.0513256
0.051294
0.051263
0.0512327
0.0512029
0.0511738
0.0511453
0.0511174
0.0510901
0.0510634
0.0510373
0.0510119
0.050987
0.0509627
0.050939
0.0509159
0.0508933
0.0508712
0.0508497
0.0508287
0.0508082
0.0507882
0.0507688
0.0507499
0.0507317
0.0507141
0.050697
0.0506807
0.050665
0.05065
0.0506358
0.0506224
0.0506097
0.0505979
0.0505868
0.0505766
0.0505672
0.0505585
0.0505504
0.0505429
0.050536
0.0505293
0.0505229
0.0505165
0.05051
0.0505033
0.0504963
0.0504887
0.0504806
0.0504717
0.050462
0.0504514
0.0504399
0.0504274
0.0504139
0.0503995
0.0503842
0.0503681
0.0503512
0.0503337
0.0503155
0.0502967
0.0502773
0.0502575
0.0502372
0.0502166
0.0501955
0.050174
0.0501522
0.05013
0.0501074
0.0500844
0.0500611
0.0500372
0.050013
0.0499883
0.0499631
0.0499375
0.0499114
0.0498849
0.049858
0.0498306
0.0498029
0.0497748
0.0497464
0.0497177
0.0496887
0.0496594
0.0496299
0.0496001
0.0495702
0.04954
0.0495096
0.049479
0.0494481
0.0494169
0.0493854
0.0493534
0.0493211
0.0492883
0.0492551
0.0492214
0.0491873
0.0491527
0.0491177
0.0490822
0.0490462
0.0490098
0.0489731
0.0489359
0.0488985
0.048861
0.0488232
0.0487855
0.0487477
0.0487101
0.0486727
0.0486356
0.0485987
0.0485622
0.0485261
0.0484904
0.0484552
0.0484204
0.0483859
0.0483517
0.0483178
0.048284
0.0482501
0.0482163
0.0481824
0.0481483
0.048114
0.0480795
0.0480447
0.0480097
0.0479744
0.0479389
0.0479032
0.0478674
0.0478315
0.0477956
0.0477597
0.047724
0.0476885
0.0476534
0.0476186
0.0475843
0.0475505
0.0475172
0.0474845
0.0474525
0.0474212
0.0473907
0.0473609
0.0473318
0.0473035
0.0472759
0.0472489
0.0472226
0.0471968
0.0471716
0.0471468
0.0471224
0.0470983
0.0470743
0.0470504
0.0470265
0.0470024
0.0469781
0.0469534
0.0469283
0.0469027
0.0468766
0.0468498
0.0468224
0.0467944
0.0467658
0.0467366
0.046707
0.046677
0.0466467
0.0466162
0.0465856
0.046555
0.0465245
0.046494
0.0464636
0.0464333
0.0464031
0.0463731
0.046343
0.046313
0.0462829
0.0462526
0.0462222
0.0461914
0.0461603
0.0461288
0.0460969
0.0460645
0.0460315
0.045998
0.045964
0.0459294
0.0458944
0.0458588
0.0458227
0.0457862
0.0457492
0.0457117
0.0456738
0.0456355
0.0455967
0.0455577
0.0455184
0.0454788
0.045439
0.0453991
0.045359
0.0453189
0.0452787
0.0452384
0.0451981
0.0451577
0.0451171
0.0450764
0.0450354
0.044994
0.0449523
0.0449101
0.0448674
0.0448242
0.0447805
0.0447362
0.0446916
0.0446465
0.0446013
0.0445558
0.0445103
0.0444649
0.0444197
0.0443748
0.0443304
0.0442865
0.0442431
0.0442004
0.0441583
0.0441168
0.044076
0.0440358
0.0439964
0.0439577
0.0439196
0.043882
0.0438449
0.0438081
0.0437715
0.043735
0.0436985
0.0436619
0.0436253
0.0435885
0.0435517
0.0435147
0.0434777
0.0434406
0.0434036
0.0433664
0.0433291
0.0432917
0.0432542
0.0432164
0.0431786
0.0431403
0.0431021
0.0430634
0.0430248
0.0429857
0.0429469
0.0429076
0.0428687
0.0428293
0.0427901
0.0427502
0.0427101
0.0426685
0.0426263
0.0425804
0.0425327
0.0424765
0.0424149
0.0423345
0.0422402
0.0421052
0.0419371
0.0416829
0.041352
0.0408401
0.0401501
0.0390866
0.0376123
0.0353951
0.0323841
0.0282423
0.0227688
0.0144743
0.00687523
0.00768174
0.0135501
)
;

boundaryField
{
    inlet
    {
        type            calculated;
        value           uniform 0;
    }
    endWall
    {
        type            calculated;
        value           uniform 0;
    }
    sideWall
    {
        type            empty;
    }
}


// ************************************************************************* //
