/*--------------------------------*- C++ -*----------------------------------*\
| =========                 |                                                 |
| \\      /  F ield         | foam-extend: Open Source CFD                    |
|  \\    /   O peration     | Version:     3.2                                |
|   \\  /    A nd           | Web:         http://www.foam-extend.org         |
|    \\/     M anipulation  | For copyright notice see file Copyright         |
\*---------------------------------------------------------------------------*/
FoamFile
{
    version     2.0;
    format      ascii;
    class       areaScalarField;
    location    "120";
    object      totH;
}
// * * * * * * * * * * * * * * * * * * * * * * * * * * * * * * * * * * * * * //

dimensions      [0 0 0 0 0 0 0];

internalField   nonuniform List<scalar> 
550
(
0
0
0
0
0
0
0
0
0
0
0
0
0
0
0
0
0
0
0
0
0
0
0
0
0
-1.32564e-09
-2.58345e-09
-8.53183e-10
-8.34888e-07
6.99757e-11
7.46425e-06
2.19363e-05
4.11962e-05
6.20195e-05
8.19458e-05
0.000100505
0.000117489
0.000132995
0.000147147
0.000160078
0.000171916
0.000182791
0.000192827
0.000202121
0.000210742
0.000218733
0.000226132
0.000232983
0.000239345
0.000245277
0.000250838
0.000256077
0.00026104
0.000265767
0.000270286
0.000274615
0.000278761
0.000282732
0.000286546
0.00029022
0.000293761
0.000297178
0.000300475
0.000303665
0.000306761
0.000309777
0.000312722
0.0003156
0.000318413
0.000321161
0.000323844
0.00032646
0.000329005
0.000331479
0.000333897
0.000336272
0.000338613
0.000340912
0.000343165
0.000345378
0.000347562
0.000349724
0.000351871
0.000354008
0.000356139
0.000358265
0.000360382
0.000362486
0.000364578
0.000366668
0.000368749
0.000370808
0.000372835
0.000374828
0.000376788
0.000378709
0.000380587
0.000382439
0.000384294
0.000386174
0.000388089
0.000390042
0.000392037
0.000394071
0.000396143
0.00039825
0.000400388
0.000402553
0.000404741
0.000406948
0.000409172
0.000411419
0.000413692
0.00041598
0.000418272
0.000420566
0.000422862
0.000425153
0.000427438
0.000429711
0.000431972
0.000434216
0.000436445
0.000438656
0.00044085
0.000443026
0.000445182
0.000447317
0.000449426
0.000451507
0.000453559
0.000455581
0.000457572
0.00045953
0.000461452
0.000463337
0.000465183
0.000466989
0.000468756
0.000470483
0.000472169
0.000473813
0.000475413
0.000476969
0.000478482
0.00047995
0.000481375
0.000482756
0.000484092
0.000485382
0.000486629
0.000487831
0.000488986
0.000490095
0.000491157
0.000492171
0.000493139
0.00049406
0.000494935
0.000495762
0.00049654
0.000497269
0.00049795
0.000498583
0.000499171
0.000499712
0.000500207
0.000500657
0.000501065
0.00050143
0.000501754
0.000502041
0.000502295
0.000502519
0.000502715
0.000502883
0.000503026
0.000503147
0.000503246
0.000503324
0.000503383
0.000503422
0.000503444
0.000503449
0.000503436
0.000503408
0.000503366
0.000503309
0.00050324
0.000503158
0.000503065
0.000502961
0.000502846
0.000502723
0.000502593
0.000502456
0.000502311
0.000502159
0.000502
0.000501834
0.000501664
0.000501492
0.000501324
0.000501164
0.000501019
0.000500893
0.000500796
0.000500736
0.000500706
0.000500701
0.000500716
0.000500748
0.000500792
0.000500847
0.000500909
0.000500978
0.000501052
0.00050113
0.00050121
0.000501291
0.000501371
0.000501448
0.000501522
0.000501589
0.000501647
0.000501695
0.000501732
0.000501755
0.000501762
0.000501754
0.000501729
0.000501687
0.000501626
0.000501546
0.000501447
0.000501328
0.00050119
0.000501033
0.000500857
0.000500662
0.000500447
0.000500214
0.000499963
0.000499695
0.000499408
0.000499103
0.00049878
0.000498439
0.00049808
0.000497703
0.000497307
0.000496893
0.000496462
0.000496015
0.000495552
0.000495075
0.000494583
0.000494076
0.000493555
0.000493021
0.000492474
0.00049191
0.000491331
0.000490737
0.000490127
0.000489497
0.000488846
0.000488175
0.000487482
0.000486767
0.000486032
0.000485274
0.000484496
0.000483697
0.00048288
0.000482045
0.000481195
0.000480335
0.000479471
0.000478606
0.000477742
0.000476886
0.000476039
0.000475202
0.000474379
0.000473572
0.000472785
0.000472021
0.000471281
0.000470567
0.00046988
0.00046922
0.000468586
0.000467977
0.000467392
0.000466828
0.000466284
0.000465764
0.000465274
0.000464809
0.000464353
0.000463904
0.000463466
0.000463039
0.000462623
0.000462219
0.000461826
0.000461447
0.000461084
0.000460737
0.000460406
0.000460091
0.000459793
0.000459509
0.000459238
0.000458979
0.000458733
0.0004585
0.000458278
0.000458068
0.000457869
0.000457679
0.000457496
0.000457321
0.000457152
0.000456988
0.000456829
0.000456676
0.000456528
0.000456382
0.000456241
0.000456105
0.000455977
0.000455857
0.000455746
0.000455644
0.000455553
0.000455474
0.000455405
0.000455346
0.000455298
0.00045526
0.000455231
0.000455211
0.0004552
0.000455197
0.000455202
0.000455213
0.000455227
0.000455241
0.000455253
0.000455261
0.000455263
0.000455257
0.00045524
0.000455212
0.000455172
0.00045512
0.000455055
0.000454975
0.000454882
0.000454778
0.000454662
0.000454539
0.000454411
0.000454282
0.000454155
0.000454031
0.000453912
0.000453798
0.000453689
0.000453587
0.000453491
0.0004534
0.000453313
0.000453229
0.000453147
0.000453065
0.00045298
0.000452892
0.000452797
0.000452692
0.000452576
0.000452447
0.000452303
0.000452141
0.000451963
0.000451766
0.000451551
0.000451317
0.000451061
0.000450783
0.000450485
0.000450165
0.000449825
0.000449468
0.000449093
0.000448703
0.0004483
0.000447885
0.00044746
0.000447026
0.000446585
0.000446142
0.000445699
0.000445259
0.000444824
0.000444397
0.00044398
0.000443577
0.00044319
0.000442816
0.000442453
0.000442103
0.000441764
0.000441437
0.000441119
0.000440808
0.000440501
0.000440195
0.000439889
0.00043958
0.000439268
0.000438951
0.000438629
0.000438303
0.000437973
0.00043764
0.000437304
0.000436967
0.000436631
0.000436297
0.000435968
0.000435647
0.000435334
0.000435031
0.000434738
0.000434458
0.000434191
0.000433936
0.000433695
0.000433466
0.000433249
0.000433043
0.000432847
0.000432662
0.000432486
0.00043232
0.000432162
0.000432013
0.000431872
0.000431738
0.00043161
0.000431486
0.000431366
0.000431247
0.000431129
0.000431011
0.000430893
0.000430773
0.000430654
0.000430533
0.000430412
0.000430294
0.000430179
0.000430069
0.000429966
0.000429872
0.000429788
0.000429716
0.000429655
0.000429604
0.000429561
0.000429525
0.000429494
0.000429464
0.000429433
0.000429398
0.000429356
0.000429304
0.000429239
0.000429159
0.000429063
0.00042895
0.000428822
0.000428677
0.000428518
0.000428344
0.000428156
0.000427952
0.000427733
0.000427501
0.000427256
0.000427004
0.000426748
0.00042649
0.000426233
0.00042598
0.000425732
0.000425488
0.000425247
0.000425009
0.000424772
0.000424535
0.000424298
0.00042406
0.000423821
0.000423584
0.000423348
0.000423115
0.000422885
0.000422658
0.000422434
0.000422213
0.000421996
0.000421781
0.000421568
0.000421353
0.000421138
0.00042092
0.000420702
0.000420484
0.000420273
0.000420073
0.000419894
0.000419747
0.000419651
0.000419638
0.000419754
0.000420069
0.00042069
0.000421768
0.000423525
0.000426277
0.000430421
0.000436607
0.000442797
0.000450907
0.000345101
0.000116831
0
0
0
0
0
0
0
0
0
0
)
;

boundaryField
{
    inlet
    {
        type            calculated;
        value           uniform 0;
    }
    endWall
    {
        type            calculated;
        value           uniform 0;
    }
    sideWall
    {
        type            empty;
    }
}


// ************************************************************************* //
