/*--------------------------------*- C++ -*----------------------------------*\
| =========                 |                                                 |
| \\      /  F ield         | foam-extend: Open Source CFD                    |
|  \\    /   O peration     | Version:     3.2                                |
|   \\  /    A nd           | Web:         http://www.foam-extend.org         |
|    \\/     M anipulation  | For copyright notice see file Copyright         |
\*---------------------------------------------------------------------------*/
FoamFile
{
    version     2.0;
    format      ascii;
    class       areaScalarField;
    location    "120";
    object      totH1;
}
// * * * * * * * * * * * * * * * * * * * * * * * * * * * * * * * * * * * * * //

dimensions      [0 0 0 0 0 0 0];

internalField   nonuniform List<scalar> 
550
(
0
0
0
0
0
0
0
0
0
0
0
0
0
0
0
0
0
0
0
0
0
0
0
0
0
-1.32564e-09
-2.58345e-09
-8.53183e-10
-8.34888e-07
-7.88748e-11
7.46374e-06
2.19353e-05
4.11945e-05
6.20171e-05
8.19425e-05
0.000100501
0.000117485
0.000132989
0.000147141
0.000160071
0.000171909
0.000182784
0.000192819
0.000202112
0.000210733
0.000218724
0.000226122
0.000232974
0.000239335
0.000245267
0.000250827
0.000256067
0.000261029
0.000265755
0.000270275
0.000274604
0.000278749
0.00028272
0.000286534
0.000290207
0.000293749
0.000297165
0.000300463
0.000303652
0.000306748
0.000309764
0.000312709
0.000315586
0.000318399
0.000321147
0.000323831
0.000326446
0.000328991
0.000331465
0.000333883
0.000336258
0.000338598
0.000340898
0.000343151
0.000345363
0.000347547
0.000349709
0.000351856
0.000353993
0.000356124
0.00035825
0.000360367
0.00036247
0.000364563
0.000366652
0.000368733
0.000370792
0.000372818
0.000374812
0.000376772
0.000378692
0.00038057
0.000382422
0.000384278
0.000386158
0.000388072
0.000390025
0.00039202
0.000394054
0.000396125
0.000398232
0.00040037
0.000402535
0.000404723
0.00040693
0.000409154
0.000411401
0.000413674
0.000415961
0.000418253
0.000420548
0.000422843
0.000425134
0.000427419
0.000429692
0.000431952
0.000434197
0.000436425
0.000438637
0.000440831
0.000443006
0.000445163
0.000447297
0.000449406
0.000451487
0.000453539
0.000455561
0.000457552
0.000459509
0.000461431
0.000463316
0.000465162
0.000466968
0.000468735
0.000470461
0.000472148
0.000473791
0.000475391
0.000476948
0.00047846
0.000479929
0.000481354
0.000482734
0.00048407
0.00048536
0.000486607
0.000487808
0.000488964
0.000490073
0.000491134
0.000492148
0.000493116
0.000494038
0.000494912
0.000495739
0.000496517
0.000497246
0.000497927
0.00049856
0.000499148
0.000499689
0.000500184
0.000500634
0.000501042
0.000501407
0.000501731
0.000502018
0.000502272
0.000502496
0.000502692
0.00050286
0.000503003
0.000503123
0.000503222
0.0005033
0.000503359
0.000503398
0.00050342
0.000503425
0.000503413
0.000503385
0.000503342
0.000503286
0.000503216
0.000503135
0.000503041
0.000502937
0.000502822
0.000502699
0.000502569
0.000502432
0.000502287
0.000502135
0.000501976
0.00050181
0.00050164
0.000501468
0.0005013
0.000501141
0.000500995
0.000500869
0.000500772
0.000500712
0.000500682
0.000500677
0.000500692
0.000500723
0.000500768
0.000500822
0.000500885
0.000500954
0.000501028
0.000501106
0.000501186
0.000501267
0.000501347
0.000501424
0.000501497
0.000501564
0.000501623
0.000501671
0.000501707
0.00050173
0.000501738
0.00050173
0.000501705
0.000501662
0.000501601
0.000501521
0.000501422
0.000501303
0.000501165
0.000501009
0.000500833
0.000500637
0.000500422
0.000500189
0.000499938
0.00049967
0.000499383
0.000499078
0.000498755
0.000498414
0.000498055
0.000497678
0.000497282
0.000496868
0.000496437
0.00049599
0.000495528
0.00049505
0.000494558
0.000494051
0.00049353
0.000492997
0.000492449
0.000491885
0.000491306
0.000490712
0.000490102
0.000489472
0.000488822
0.00048815
0.000487457
0.000486742
0.000486007
0.00048525
0.000484471
0.000483673
0.000482855
0.00048202
0.00048117
0.00048031
0.000479447
0.000478581
0.000477718
0.000476861
0.000476015
0.000475178
0.000474354
0.000473547
0.00047276
0.000471996
0.000471257
0.000470543
0.000469855
0.000469195
0.000468562
0.000467953
0.000467367
0.000466803
0.00046626
0.00046574
0.00046525
0.000464784
0.000464328
0.00046388
0.000463442
0.000463014
0.000462598
0.000462194
0.000461802
0.000461423
0.000461059
0.000460712
0.000460381
0.000460066
0.000459768
0.000459485
0.000459214
0.000458955
0.000458708
0.000458475
0.000458254
0.000458044
0.000457844
0.000457654
0.000457472
0.000457296
0.000457127
0.000456963
0.000456805
0.000456652
0.000456503
0.000456358
0.000456216
0.00045608
0.000455952
0.000455832
0.000455721
0.000455619
0.000455529
0.000455449
0.00045538
0.000455321
0.000455273
0.000455235
0.000455206
0.000455186
0.000455175
0.000455172
0.000455177
0.000455188
0.000455202
0.000455215
0.000455227
0.000455236
0.000455238
0.000455232
0.000455215
0.000455187
0.000455147
0.000455095
0.00045503
0.00045495
0.000454857
0.000454752
0.000454637
0.000454513
0.000454385
0.000454257
0.000454129
0.000454005
0.000453886
0.000453772
0.000453664
0.000453561
0.000453465
0.000453374
0.000453287
0.000453203
0.000453121
0.000453039
0.000452954
0.000452866
0.000452771
0.000452666
0.00045255
0.000452421
0.000452277
0.000452115
0.000451937
0.00045174
0.000451525
0.000451291
0.000451035
0.000450757
0.000450458
0.000450139
0.000449799
0.000449441
0.000449067
0.000448677
0.000448274
0.000447859
0.000447434
0.000446999
0.000446559
0.000446116
0.000445673
0.000445233
0.000444798
0.000444371
0.000443954
0.000443551
0.000443164
0.00044279
0.000442427
0.000442076
0.000441738
0.00044141
0.000441092
0.000440781
0.000440474
0.000440169
0.000439863
0.000439554
0.000439241
0.000438924
0.000438603
0.000438277
0.000437947
0.000437613
0.000437278
0.000436941
0.000436604
0.00043627
0.000435942
0.00043562
0.000435307
0.000435004
0.000434712
0.000434432
0.000434164
0.000433909
0.000433668
0.000433439
0.000433222
0.000433016
0.000432821
0.000432635
0.000432459
0.000432293
0.000432135
0.000431986
0.000431845
0.000431711
0.000431583
0.00043146
0.000431339
0.00043122
0.000431102
0.000430984
0.000430866
0.000430746
0.000430626
0.000430506
0.000430385
0.000430266
0.000430151
0.000430042
0.000429939
0.000429845
0.000429761
0.000429688
0.000429627
0.000429576
0.000429534
0.000429498
0.000429467
0.000429437
0.000429406
0.000429371
0.000429329
0.000429276
0.000429211
0.000429131
0.000429035
0.000428922
0.000428794
0.00042865
0.000428491
0.000428317
0.000428128
0.000427924
0.000427705
0.000427473
0.000427228
0.000426976
0.00042672
0.000426462
0.000426205
0.000425952
0.000425704
0.00042546
0.000425219
0.00042498
0.000424744
0.000424507
0.00042427
0.000424032
0.000423793
0.000423556
0.00042332
0.000423087
0.000422857
0.00042263
0.000422406
0.000422185
0.000421967
0.000421753
0.000421539
0.000421325
0.000421109
0.000420892
0.000420673
0.000420455
0.000420244
0.000420044
0.000419865
0.000419718
0.000419622
0.00041961
0.000419725
0.00042004
0.000420661
0.000421739
0.000423496
0.000426248
0.000430391
0.000436577
0.000442767
0.000450877
0.000345078
0.000116824
0
0
0
0
0
0
0
0
0
0
)
;

boundaryField
{
    inlet
    {
        type            calculated;
        value           uniform 0;
    }
    endWall
    {
        type            calculated;
        value           uniform 0;
    }
    sideWall
    {
        type            empty;
    }
}


// ************************************************************************* //
