/*--------------------------------*- C++ -*----------------------------------*\
| =========                 |                                                 |
| \\      /  F ield         | foam-extend: Open Source CFD                    |
|  \\    /   O peration     | Version:     3.2                                |
|   \\  /    A nd           | Web:         http://www.foam-extend.org         |
|    \\/     M anipulation  | For copyright notice see file Copyright         |
\*---------------------------------------------------------------------------*/
FoamFile
{
    version     2.0;
    format      ascii;
    class       volVectorField;
    location    "120";
    object      U;
}
// * * * * * * * * * * * * * * * * * * * * * * * * * * * * * * * * * * * * * //

dimensions      [0 1 -1 0 0 0 0];

internalField   nonuniform List<vector> 
33000
(
(0.338422 0 0.000522224)
(0.334319 0 0.000406614)
(0.328773 6.30232e-29 0.000537813)
(0.322469 0 0.000513458)
(0.316482 7.78389e-30 0.000575552)
(0.310387 1.26044e-28 0.000519418)
(0.304831 -9.84117e-29 0.000490257)
(0.299238 -8.13732e-29 0.000472979)
(0.294047 4.6351e-29 0.0004881)
(0.288883 -7.27353e-29 0.000471024)
(0.284045 -7.40478e-29 0.000449437)
(0.279288 0 0.000408375)
(0.274831 9.78027e-38 0.000379275)
(0.270468 8.25033e-29 0.000335163)
(0.266299 0 0.000286758)
(0.262254 7.93765e-29 0.000237826)
(0.258415 -1.70058e-28 0.000177234)
(0.254734 7.36571e-29 0.000121301)
(0.251223 4.3532e-29 7.48444e-05)
(0.247831 0 3.39483e-05)
(0.244578 1.27414e-29 3.65289e-06)
(0.241445 -1.16564e-29 -2.31379e-05)
(0.238447 0 -4.76463e-05)
(0.235583 1.43709e-29 -7.25541e-05)
(0.232862 0 -9.66651e-05)
(0.230279 0 -0.000120911)
(0.227843 1.87022e-29 -0.000142227)
(0.225533 0 -0.000152918)
(0.223288 0 -0.000171988)
(0.221171 -1.08895e-33 -0.000133343)
(0.219265 -2.19015e-29 -6.24831e-05)
(0.217524 -1.61446e-29 -9.68129e-06)
(0.215913 0 2.28951e-05)
(0.214376 -9.11104e-30 1.56483e-05)
(0.212892 8.12705e-30 1.78887e-07)
(0.211476 0 -2.26609e-05)
(0.210125 0 -4.65653e-05)
(0.208845 0 -6.94821e-05)
(0.20763 1.17676e-29 -9.10484e-05)
(0.206479 2.27503e-29 -0.000111891)
(0.205391 -1.11786e-29 -0.000132473)
(0.204365 1.08945e-29 -0.000151345)
(0.203395 2.12002e-29 -0.000168276)
(0.20248 0 -0.000184077)
(0.201615 0 -0.000198827)
(0.200797 0 -0.000213058)
(0.200024 2.19509e-29 -0.000227461)
(0.199293 -2.22981e-29 -0.000241276)
(0.198603 0 -0.000253993)
(0.197951 0 -0.000265447)
(0.197336 0 -0.00027578)
(0.196755 0 -0.000285164)
(0.196206 0 -0.000293443)
(0.195689 0 -0.000300569)
(0.195199 -2.07507e-29 -0.000306702)
(0.194734 -2.05112e-29 -0.000312158)
(0.194294 2.01582e-29 -0.000316869)
(0.193876 6.76813e-37 -0.000320606)
(0.19348 -1.9159e-29 -0.000323781)
(0.193103 1.88941e-29 -0.000326609)
(0.192744 0 -0.000329144)
(0.192401 3.66523e-29 -0.000331333)
(0.192075 1.77868e-29 -0.000332926)
(0.191764 -1.7257e-29 -0.000334019)
(0.191468 0 -0.000334739)
(0.191185 -1.64018e-29 -0.000335255)
(0.190915 0 -0.000335714)
(0.190656 0 -0.000336144)
(0.190407 1.56492e-29 -0.000336582)
(0.190168 6.44643e-38 -0.000337023)
(0.189938 0 -0.000337522)
(0.189717 0 -0.000338023)
(0.189502 -1.48879e-29 -0.000338601)
(0.189295 0 -0.000339306)
(0.189095 1.38764e-29 -0.000339696)
(0.188902 -2.36678e-38 -0.000339872)
(0.188713 0 -0.000340261)
(0.188528 -1.33639e-29 -0.000341051)
(0.188347 1.30251e-29 -0.000341697)
(0.188171 -1.23045e-29 -0.000341822)
(0.187999 -6.61504e-37 -0.000341734)
(0.187832 1.15181e-29 -0.000341711)
(0.187668 -1.11686e-29 -0.000341622)
(0.187507 -1.08862e-29 -0.000341531)
(0.18735 -2.11348e-29 -0.000341366)
(0.187196 0 -0.000341164)
(0.187045 2.63343e-37 -0.00034105)
(0.186897 0 -0.000341106)
(0.186751 9.63666e-30 -0.000341033)
(0.186609 0 -0.00034079)
(0.186467 0 -0.000340124)
(0.186327 1.65711e-29 -0.000339354)
(0.186189 -1.66404e-29 -0.000339125)
(0.186053 8.36269e-30 -0.000339262)
(0.185919 8.40398e-30 -0.000339646)
(0.185788 3.23114e-37 -0.000340453)
(0.185659 0 -0.000341739)
(0.185534 -1.8613e-29 -0.000343043)
(0.185412 0 -0.000343648)
(0.185293 0 -0.000343462)
(0.185174 -8.25996e-30 -0.000342973)
(0.185057 8.10172e-30 -0.000342329)
(0.18494 -1.60827e-29 -0.000341663)
(0.184824 0 -0.000340993)
(0.184708 8.0031e-30 -0.000340334)
(0.184592 -1.59917e-29 -0.000339665)
(0.184476 8.02009e-30 -0.000339022)
(0.184358 -8.04839e-30 -0.000338397)
(0.184241 0 -0.000337745)
(0.184122 0 -0.000337176)
(0.184002 0 -0.000336555)
(0.183882 0 -0.00033567)
(0.18376 0 -0.000335039)
(0.183636 0 -0.000334552)
(0.183511 -9.34589e-38 -0.000333884)
(0.183385 -8.04421e-30 -0.000333277)
(0.183258 0 -0.000332725)
(0.18313 0 -0.000332211)
(0.183 -8.05122e-30 -0.000331731)
(0.182868 8.03673e-30 -0.000331273)
(0.182736 0 -0.000330825)
(0.182602 0 -0.000330379)
(0.182466 3.53036e-38 -0.000329936)
(0.182329 -1.57851e-29 -0.000329492)
(0.182191 -7.8552e-30 -0.000329057)
(0.182051 -7.8194e-30 -0.000328632)
(0.18191 -5.31962e-37 -0.000328228)
(0.181768 7.77504e-30 -0.000327864)
(0.181624 7.76327e-30 -0.000327549)
(0.181479 7.74502e-30 -0.000327273)
(0.181333 -7.72421e-30 -0.000327033)
(0.181187 0 -0.00032683)
(0.181039 7.6835e-30 -0.000326673)
(0.180892 7.66118e-30 -0.00032656)
(0.180744 2.69894e-37 -0.000326489)
(0.180596 7.61422e-30 -0.000326457)
(0.180448 -7.58973e-30 -0.000326463)
(0.1803 -7.55368e-30 -0.00032649)
(0.180152 3.94414e-38 -0.000326529)
(0.180005 7.47655e-30 -0.000326587)
(0.179858 -1.65875e-37 -0.000326674)
(0.179712 -7.41115e-30 -0.00032679)
(0.179566 -7.36697e-30 -0.000326926)
(0.179421 0 -0.000327081)
(0.179276 7.26003e-30 -0.000327257)
(0.179132 -7.19144e-30 -0.000327438)
(0.178989 -7.12664e-30 -0.000327635)
(0.178847 -1.41251e-29 -0.000327852)
(0.178706 0 -0.00032808)
(0.178566 -8.13351e-38 -0.000328311)
(0.178428 2.05606e-37 -0.000328549)
(0.17829 0 -0.000328803)
(0.178153 0 -0.00032907)
(0.178017 0 -0.000329344)
(0.177882 1.30714e-29 -0.000329619)
(0.177748 0 -0.000329894)
(0.177614 0 -0.000330168)
(0.177482 0 -0.000330446)
(0.177351 0 -0.000330742)
(0.17722 0 -0.00033106)
(0.177091 6.14626e-30 -0.000331401)
(0.176962 8.34579e-38 -0.000331748)
(0.176835 6.02842e-30 -0.000332107)
(0.176709 0 -0.000332466)
(0.176585 0 -0.000332838)
(0.176461 -5.8587e-30 -0.000333225)
(0.176339 1.16128e-29 -0.000333617)
(0.176219 0 -0.000334011)
(0.1761 -5.69883e-30 -0.000334401)
(0.175983 5.65118e-30 -0.0003348)
(0.175868 0 -0.000335182)
(0.175754 5.52445e-30 -0.000335547)
(0.175642 5.45761e-30 -0.000335892)
(0.175533 5.39933e-30 -0.000336235)
(0.175425 0 -0.000336579)
(0.175319 5.29686e-30 -0.000336938)
(0.175216 5.2451e-30 -0.000337292)
(0.175115 0 -0.00033764)
(0.175016 0 -0.000337992)
(0.174919 -5.11142e-30 -0.000338339)
(0.174825 -1.25112e-37 -0.000338692)
(0.174733 -1.00394e-29 -0.000339041)
(0.174643 9.93586e-30 -0.000339389)
(0.174555 4.92141e-30 -0.000339749)
(0.17447 -9.73716e-30 -0.000340105)
(0.174387 -9.63486e-30 -0.000340463)
(0.174306 7.96211e-38 -0.000340806)
(0.174228 -4.70446e-30 -0.000341138)
(0.174152 0 -0.000341471)
(0.174078 0 -0.000341794)
(0.174006 0 -0.000342103)
(0.173936 -4.49823e-30 -0.000342409)
(0.173868 0 -0.000342693)
(0.173802 -4.39736e-30 -0.000342968)
(0.173738 0 -0.000343233)
(0.173676 -2.82694e-39 -0.000343496)
(0.173616 4.29856e-30 -0.000343756)
(0.173557 0 -0.000344004)
(0.173501 -4.23857e-30 -0.000344243)
(0.173446 4.20684e-30 -0.000344469)
(0.173393 4.16489e-30 -0.000344668)
(0.173342 -4.01121e-37 -0.000344821)
(0.173292 0 -0.000344928)
(0.173244 -3.9364e-30 -0.000344886)
(0.173197 3.73044e-30 -0.000344604)
(0.173151 0 -0.00034416)
(0.173104 -3.43263e-30 -0.00034365)
(0.173059 -3.3506e-30 -0.000343135)
(0.173014 3.31178e-30 -0.000342689)
(0.172969 5.12812e-37 -0.000342302)
(0.172924 0 -0.000341962)
(0.17288 -3.16033e-30 -0.000341666)
(0.172836 -3.09376e-30 -0.000341402)
(0.172793 -3.02399e-30 -0.000341164)
(0.172749 0 -0.000340949)
(0.172706 -2.87641e-30 -0.000340742)
(0.172663 0 -0.000340542)
(0.172619 2.75094e-30 -0.000340344)
(0.172576 0 -0.000340154)
(0.172532 -2.66129e-30 -0.00033996)
(0.172488 -2.51743e-37 -0.000339769)
(0.172443 2.59818e-30 -0.000339575)
(0.172397 0 -0.000339385)
(0.17235 2.57278e-30 -0.000339203)
(0.172303 0 -0.000339028)
(0.172254 -4.24239e-37 -0.00033886)
(0.172205 0 -0.000338711)
(0.172154 0 -0.000338576)
(0.172103 -2.62592e-30 -0.000338452)
(0.172051 -2.66035e-30 -0.000338339)
(0.171997 0 -0.000338237)
(0.171943 -2.74479e-30 -0.000338139)
(0.171888 2.79513e-30 -0.000338059)
(0.171832 -2.83981e-30 -0.000337988)
(0.171775 0 -0.000337938)
(0.171717 2.91527e-30 -0.000337895)
(0.171659 2.94464e-30 -0.000337866)
(0.1716 -2.97269e-30 -0.000337858)
(0.171541 5.98452e-30 -0.000337863)
(0.171482 0 -0.000337883)
(0.171423 -3.01894e-30 -0.000337905)
(0.171363 -3.02589e-30 -0.000337934)
(0.171304 -3.02227e-30 -0.000337962)
(0.171244 0 -0.000337992)
(0.171185 -3.00958e-30 -0.000338029)
(0.171125 2.9947e-30 -0.00033806)
(0.171066 0 -0.000338089)
(0.171006 0 -0.000338118)
(0.170947 2.93678e-30 -0.000338148)
(0.170887 0 -0.000338176)
(0.170827 2.90321e-30 -0.000338207)
(0.170768 2.88244e-30 -0.000338224)
(0.170708 2.86471e-30 -0.000338224)
(0.170648 -1.4702e-37 -0.000338213)
(0.170588 -2.84866e-30 -0.000338191)
(0.170528 0 -0.000338175)
(0.170467 -2.86038e-30 -0.000338161)
(0.170407 2.87099e-30 -0.000338157)
(0.170346 0 -0.000338152)
(0.170286 1.68824e-37 -0.000338151)
(0.170225 0 -0.000338173)
(0.170165 0 -0.00033821)
(0.170105 0 -0.000338252)
(0.170045 0 -0.000338304)
(0.169986 0 -0.000338403)
(0.169927 2.98402e-30 -0.000338541)
(0.169869 0 -0.000338694)
(0.169811 0 -0.000338875)
(0.169754 0 -0.000339072)
(0.169698 0 -0.000339285)
(0.169643 0 -0.000339513)
(0.16959 5.82284e-30 -0.000339755)
(0.169537 0 -0.000340012)
(0.169486 2.821e-30 -0.000340267)
(0.169436 0 -0.000340517)
(0.169388 0 -0.000340751)
(0.169341 6.96782e-37 -0.000340949)
(0.169295 0 -0.000341092)
(0.169251 2.40777e-30 -0.000341183)
(0.169208 0 -0.000341255)
(0.169165 0 -0.000341273)
(0.169124 0 -0.000341228)
(0.169084 0 -0.000341172)
(0.169044 0 -0.000341088)
(0.169005 0 -0.00034096)
(0.168967 0 -0.000340798)
(0.168929 3.2384e-37 -0.000340605)
(0.168892 0 -0.000340385)
(0.168855 0 -0.000340148)
(0.168818 0 -0.000339892)
(0.168783 1.57594e-30 -0.00033962)
(0.168747 1.54087e-30 -0.000339341)
(0.168712 0 -0.000339069)
(0.168677 -1.50392e-30 -0.000338811)
(0.168643 0 -0.000338573)
(0.168609 0 -0.000338352)
(0.168575 0 -0.000338155)
(0.168542 0 -0.00033792)
(0.168509 0 -0.000337645)
(0.168477 0 -0.000337495)
(0.168445 1.52139e-30 -0.000337437)
(0.168414 0 -0.000337364)
(0.168384 0 -0.000337299)
(0.168354 -2.90871e-30 -0.000337237)
(0.168325 0 -0.000337178)
(0.168296 1.42548e-30 -0.000337121)
(0.168269 0 -0.000337061)
(0.168242 -1.39218e-30 -0.000336991)
(0.168216 0 -0.000336906)
(0.168191 -1.36016e-30 -0.000336828)
(0.168166 0 -0.000336763)
(0.168143 1.32143e-30 -0.000336692)
(0.16812 0 -0.00033663)
(0.168098 0 -0.000336592)
(0.168077 -1.29106e-30 -0.000336565)
(0.168057 0 -0.000336526)
(0.168038 1.25149e-30 -0.000336487)
(0.16802 0 -0.000336439)
(0.168002 -1.2262e-30 -0.00033639)
(0.167985 1.21911e-30 -0.000336339)
(0.167969 1.20807e-30 -0.000336272)
(0.167953 -1.19926e-30 -0.000336193)
(0.167937 -1.09256e-30 -0.000336091)
(0.167921 0 -0.00033594)
(0.167904 -9.67401e-31 -0.00033576)
(0.167888 0 -0.00033557)
(0.16787 9.7906e-31 -0.000335373)
(0.167853 0 -0.000335177)
(0.167834 0 -0.000334976)
(0.167815 0 -0.00033477)
(0.167795 0 -0.000334538)
(0.167774 0 -0.000334266)
(0.167752 0 -0.000333966)
(0.167728 0 -0.000333638)
(0.167704 0 -0.000333288)
(0.167677 0 -0.000332922)
(0.167649 0 -0.000332545)
(0.16762 1.23424e-30 -0.000332171)
(0.167589 -1.27663e-30 -0.000331808)
(0.167557 3.08539e-38 -0.000331459)
(0.167523 0 -0.000331121)
(0.167489 -2.75819e-30 -0.000330797)
(0.167453 1.40603e-30 -0.000330486)
(0.167416 0 -0.000330177)
(0.167378 0 -0.000329875)
(0.167339 0 -0.000329582)
(0.167299 1.48905e-30 -0.000329301)
(0.167258 -1.52206e-30 -0.000329044)
(0.167217 1.55466e-30 -0.000328813)
(0.167174 -1.58899e-30 -0.00032861)
(0.167131 0 -0.000328424)
(0.167086 0 -0.00032826)
(0.167041 0 -0.000328115)
(0.166996 1.73029e-30 -0.00032799)
(0.166949 1.76942e-30 -0.000327873)
(0.166902 -1.80767e-30 -0.000327753)
(0.166854 1.85219e-30 -0.000327631)
(0.166805 0 -0.000327516)
(0.166755 -3.94252e-30 -0.000327409)
(0.166705 2.03442e-30 -0.000327304)
(0.166653 0 -0.000327194)
(0.166601 0 -0.000327072)
(0.166548 0 -0.000326945)
(0.166494 -2.21583e-30 -0.000326791)
(0.166439 0 -0.000326611)
(0.166384 2.27652e-30 -0.00032641)
(0.166329 0 -0.000326191)
(0.166273 0 -0.000325957)
(0.166216 0 -0.00032572)
(0.166159 0 -0.000325474)
(0.166101 0 -0.000325224)
(0.166042 0 -0.000324972)
(0.165983 -2.44511e-30 -0.000324719)
(0.165924 4.92213e-30 -0.000324478)
(0.165864 0 -0.000324246)
(0.165803 -2.49143e-30 -0.000324022)
(0.165742 -2.5164e-30 -0.000323818)
(0.16568 2.07681e-37 -0.000323637)
(0.165618 0 -0.000323475)
(0.165555 -2.57357e-30 -0.000323329)
(0.165492 2.59037e-30 -0.000323213)
(0.165428 0 -0.000323122)
(0.165364 0 -0.000323039)
(0.1653 0 -0.000322976)
(0.165235 0 -0.000322927)
(0.165169 0 -0.000322879)
(0.165103 -2.60774e-30 -0.000322832)
(0.165037 0 -0.000322787)
(0.16497 2.61617e-30 -0.00032274)
(0.164902 0 -0.0003227)
(0.164834 -4.02393e-38 -0.000322669)
(0.164765 0 -0.000322635)
(0.164695 1.11376e-37 -0.000322599)
(0.164624 2.63259e-30 -0.000322546)
(0.164553 0 -0.000322471)
(0.164482 0 -0.00032239)
(0.164409 0 -0.000322295)
(0.164336 0 -0.000322203)
(0.164263 -2.74203e-30 -0.000322107)
(0.164189 0 -0.000322012)
(0.164115 -1.45862e-37 -0.000321925)
(0.164041 -2.8692e-30 -0.000321846)
(0.163967 2.90215e-30 -0.00032177)
(0.163893 -2.32557e-37 -0.0003217)
(0.163819 0 -0.000321635)
(0.163746 0 -0.000321583)
(0.163674 0 -0.000321537)
(0.163603 -2.68131e-37 -0.000321492)
(0.163533 0 -0.000321443)
(0.163465 2.83521e-30 -0.000321383)
(0.163397 2.77707e-30 -0.000321348)
(0.163332 0 -0.000321342)
(0.163268 0 -0.000321341)
(0.163206 0 -0.000321333)
(0.163145 0 -0.000321315)
(0.163086 -2.37508e-30 -0.000321289)
(0.163028 0 -0.000321256)
(0.162972 2.23488e-30 -0.000321228)
(0.162916 0 -0.000321202)
(0.162861 -2.14652e-30 -0.000321177)
(0.162806 0 -0.000321154)
(0.162752 0 -0.000321133)
(0.162699 0 -0.000321116)
(0.162645 0 -0.000321096)
(0.162592 0 -0.000321077)
(0.16254 0 -0.000321062)
(0.162488 0 -0.000321051)
(0.162436 0 -0.000321041)
(0.162385 -2.10886e-30 -0.000321034)
(0.162335 0 -0.000321032)
(0.162285 0 -0.000321025)
(0.162236 0 -0.000321015)
(0.162188 0 -0.000321001)
(0.16214 -2.12522e-30 -0.000320998)
(0.162094 2.11391e-30 -0.000320997)
(0.16205 0 -0.000321003)
(0.162006 4.13837e-30 -0.000321015)
(0.161964 0 -0.000321035)
(0.161923 3.99941e-30 -0.000321053)
(0.161884 -1.95297e-30 -0.00032107)
(0.161847 0 -0.000321085)
(0.161811 0 -0.000321099)
(0.161776 0 -0.000321111)
(0.161743 -1.75168e-30 -0.000321132)
(0.16171 0 -0.000321154)
(0.161679 0 -0.000321184)
(0.161649 1.60689e-30 -0.0003212)
(0.16162 0 -0.000321218)
(0.161592 4.11983e-37 -0.000321217)
(0.161565 -1.43405e-30 -0.000321208)
(0.161539 -1.36809e-30 -0.000321171)
(0.161513 0 -0.000321128)
(0.161488 2.54256e-30 -0.000321064)
(0.161462 0 -0.00032099)
(0.161437 0 -0.000320897)
(0.161412 0 -0.000320802)
(0.161386 0 -0.00032069)
(0.161359 0 -0.000320578)
(0.161333 0 -0.000320458)
(0.161305 0 -0.000320331)
(0.161278 -1.10161e-30 -0.000320191)
(0.161249 0 -0.000320049)
(0.16122 0 -0.000319872)
(0.16119 0 -0.000319693)
(0.16116 0 -0.000319492)
(0.161129 -1.08336e-30 -0.000319285)
(0.161097 0 -0.000319062)
(0.161064 -1.10938e-30 -0.000318838)
(0.161031 3.21284e-38 -0.000318599)
(0.160997 0 -0.000318368)
(0.160963 0 -0.000318142)
(0.160929 0 -0.00031794)
(0.160894 1.20002e-30 -0.000317745)
(0.160859 1.21571e-30 -0.000317574)
(0.160823 1.21303e-30 -0.000317414)
(0.160788 0 -0.00031727)
(0.160751 1.21952e-30 -0.000317126)
(0.160715 -1.24766e-30 -0.000317008)
(0.160677 0 -0.000316887)
(0.160639 0 -0.000316788)
(0.1606 0 -0.000316681)
(0.160561 1.376e-30 -0.000316592)
(0.16052 -1.40516e-30 -0.000316484)
(0.160478 0 -0.000316375)
(0.160435 1.48291e-30 -0.000316242)
(0.160391 -1.53787e-30 -0.000316114)
(0.160346 0 -0.000315954)
(0.1603 -1.64946e-30 -0.000315812)
(0.160252 0 -0.00031563)
(0.160203 1.77895e-30 -0.000315472)
(0.160153 -3.6448e-30 -0.000315268)
(0.160101 0 -0.000315083)
(0.160048 -1.8819e-30 -0.000314828)
(0.159993 -1.95379e-30 -0.000314597)
(0.159937 -1.96088e-30 -0.000314306)
(0.159879 3.60698e-37 -0.000314063)
(0.15982 -3.96928e-30 -0.000313745)
(0.159761 -2.0223e-30 -0.000313502)
(0.159701 0 -0.000313186)
(0.15964 0 -0.000312968)
(0.159579 1.86172e-30 -0.000312674)
(0.159517 0 -0.000312459)
(0.159453 -1.78076e-30 -0.000312131)
(0.15939 -1.85612e-30 -0.000311911)
(0.159324 0 -0.000311535)
(0.159258 0 -0.000311281)
(0.159189 -1.76615e-30 -0.000310854)
(0.15912 0 -0.00031056)
(0.159048 1.85318e-30 -0.000310076)
(0.158975 0 -0.000309754)
(0.158899 0 -0.000309229)
(0.158823 0 -0.000308875)
(0.158743 0 -0.000308315)
(0.158664 -2.47893e-30 -0.000307969)
(0.15858 -2.46177e-30 -0.000307401)
(0.158497 0 -0.00030713)
(0.15841 -5.5321e-30 -0.000306644)
(0.158325 -3.08853e-30 -0.000306479)
(0.158236 3.0569e-30 -0.000306037)
(0.158148 -3.38348e-30 -0.000305932)
(0.158057 3.29185e-30 -0.000305432)
(0.157968 0 -0.000305286)
(0.157874 0 -0.000304555)
(0.157783 3.73755e-30 -0.000304246)
(0.157685 0 -0.00030304)
(0.157588 0 -0.000302158)
(0.157482 0 -0.000300411)
(0.157379 5.97548e-30 -0.000297445)
(0.157245 2.62432e-30 -0.000293316)
(0.157121 -1.27749e-35 -0.000286804)
(0.156923 0 -0.000276908)
(0.156746 -8.28731e-32 -0.000264126)
(0.156417 -4.452e-30 -0.000243757)
(0.156122 -5.91725e-30 -0.000219722)
(0.15553 0 -0.000180673)
(0.155028 0 -0.000143491)
(0.153865 0 -0.000121403)
(0.153432 7.52072e-29 0.000136906)
(0.149048 -1.25255e-29 -0.00108874)
(0.142861 -1.62156e-27 -0.00108728)
(0.137595 0 0.000509445)
(0.131336 -1.53435e-28 0.00108881)
(0.119524 0 0.0017533)
(0.105661 0 0.00206778)
(0.0858419 0 0.00267226)
(0.0624289 2.81866e-28 0.00465088)
(0.0173662 0 0.00279759)
(0.00107963 0 0.00167099)
(-0.0208718 0 0.00225888)
(-0.0319333 0 -0.00491828)
(0.341107 0 0.00122768)
(0.338973 0 0.000845419)
(0.336716 2.17115e-28 0.0014848)
(0.332157 0 0.00147444)
(0.32897 0 0.00152635)
(0.325459 2.68959e-28 0.00135969)
(0.322275 -1.47638e-28 0.00138017)
(0.319242 -9.45062e-37 0.00122043)
(0.316825 5.65851e-29 0.0011718)
(0.314636 -2.2107e-28 0.00105282)
(0.312717 -6.65832e-29 0.00102117)
(0.310852 0 0.00093893)
(0.30906 -1.08744e-36 0.000895183)
(0.307267 4.25791e-29 0.00085809)
(0.305497 -1.04559e-29 0.000842457)
(0.303707 0 0.000803366)
(0.301902 -7.65293e-30 0.000782231)
(0.299944 0 0.000753916)
(0.298014 0 0.000731032)
(0.296045 9.16929e-30 0.000706932)
(0.294132 -1.71609e-29 0.000676623)
(0.292197 0 0.000641708)
(0.29029 0 0.00060288)
(0.28838 0 0.00056079)
(0.286498 0 0.000516929)
(0.284623 -4.54204e-29 0.000471811)
(0.282765 0 0.000426693)
(0.280928 0 0.000391402)
(0.27911 0 0.000324401)
(0.277296 1.361e-33 0.000332875)
(0.275617 0 0.000386923)
(0.27404 0 0.000414081)
(0.272541 0 0.000430128)
(0.271102 -2.4504e-29 0.00039105)
(0.269661 0 0.000345622)
(0.268264 0 0.000292861)
(0.266885 0 0.000241901)
(0.265547 -2.97468e-29 0.000193656)
(0.264241 0 0.000149051)
(0.262976 2.72628e-29 0.000108056)
(0.261748 0 7.12099e-05)
(0.260563 -2.4525e-29 3.77939e-05)
(0.259414 4.67987e-29 7.20454e-06)
(0.258305 0 -2.0367e-05)
(0.25723 0 -4.58297e-05)
(0.256192 0 -6.93469e-05)
(0.255186 3.90532e-29 -9.03167e-05)
(0.254207 -3.72938e-29 -0.00010939)
(0.253256 -3.57359e-29 -0.000127031)
(0.252331 3.42212e-29 -0.000143323)
(0.251434 0 -0.000158338)
(0.250562 -3.15571e-29 -0.000172322)
(0.249718 0 -0.000185308)
(0.248899 0 -0.000197215)
(0.248106 0 -0.000208294)
(0.247337 -2.77526e-29 -0.000218809)
(0.246593 0 -0.000229358)
(0.245872 -2.69697e-29 -0.00023979)
(0.245175 -2.6107e-29 -0.000249291)
(0.244498 2.51545e-37 -0.000258068)
(0.243843 0 -0.000266366)
(0.243207 2.47215e-29 -0.000274434)
(0.242592 2.46209e-29 -0.000282641)
(0.241995 -2.42191e-29 -0.000290606)
(0.241417 0 -0.000298034)
(0.240857 -2.27723e-29 -0.000304873)
(0.240313 0 -0.000311069)
(0.239785 2.13668e-29 -0.000316771)
(0.239273 4.14124e-29 -0.000321986)
(0.238775 -4.01159e-29 -0.000326811)
(0.238291 0 -0.000331243)
(0.23782 0 -0.000335433)
(0.237363 -1.8464e-29 -0.000339285)
(0.236917 0 -0.000342858)
(0.236484 1.7406e-29 -0.000346324)
(0.236064 -1.63156e-29 -0.000348917)
(0.235655 0 -0.000350496)
(0.235254 6.15937e-38 -0.000351793)
(0.234864 -1.73091e-36 -0.000353767)
(0.234483 -1.50007e-29 -0.000356049)
(0.234113 -1.44628e-29 -0.000357952)
(0.233752 0 -0.000359492)
(0.2334 0 -0.000360905)
(0.233056 0 -0.000362137)
(0.232722 -1.28739e-29 -0.000363238)
(0.232395 0 -0.000364334)
(0.232077 -1.24007e-29 -0.000365482)
(0.231767 1.20514e-29 -0.000366548)
(0.231465 -4.66955e-37 -0.000367502)
(0.231171 0 -0.000367995)
(0.230884 0 -0.000368856)
(0.230602 1.22038e-29 -0.000370522)
(0.230325 -1.19647e-29 -0.000371964)
(0.230054 1.16698e-29 -0.000373058)
(0.229786 2.27783e-29 -0.000373954)
(0.229524 -8.40119e-37 -0.000374663)
(0.229262 0 -0.000375187)
(0.229003 -9.99075e-30 -0.000375426)
(0.228749 0 -0.000375199)
(0.228496 0 -0.000374864)
(0.228245 0 -0.000374493)
(0.227995 0 -0.000374008)
(0.227747 -9.0476e-30 -0.000373392)
(0.2275 0 -0.000372659)
(0.227254 0 -0.000371814)
(0.227009 -8.81588e-30 -0.000370895)
(0.226764 0 -0.000369916)
(0.22652 8.72856e-30 -0.000368901)
(0.226277 0 -0.000367918)
(0.226034 8.71914e-30 -0.00036689)
(0.225791 0 -0.000366103)
(0.225549 0 -0.000365141)
(0.225308 0 -0.000363416)
(0.225065 0 -0.000362367)
(0.224823 8.60801e-30 -0.000361816)
(0.224582 0 -0.00036094)
(0.224341 0 -0.00036011)
(0.224101 8.35785e-30 -0.00035929)
(0.223861 0 -0.00035852)
(0.223621 0 -0.000357784)
(0.223382 0 -0.000357098)
(0.223143 -8.04483e-30 -0.000356432)
(0.222905 -7.94539e-30 -0.000355777)
(0.222667 -1.56872e-29 -0.000355121)
(0.22243 0 -0.000354476)
(0.222194 -7.6739e-30 -0.000353846)
(0.221958 1.52248e-29 -0.000353244)
(0.221723 1.51354e-29 -0.000352701)
(0.221488 0 -0.000352237)
(0.221254 7.50298e-30 -0.000351855)
(0.221021 -7.48837e-30 -0.00035155)
(0.220788 0 -0.00035134)
(0.220557 -7.49818e-30 -0.000351222)
(0.220328 5.04728e-37 -0.000351198)
(0.220099 -6.04594e-37 -0.000351248)
(0.219872 0 -0.000351373)
(0.219647 0 -0.000351576)
(0.219423 -7.63456e-30 -0.00035183)
(0.219202 -7.66096e-30 -0.000352118)
(0.218982 -7.69806e-30 -0.000352442)
(0.218764 1.54838e-29 -0.000352819)
(0.218549 -7.77323e-30 -0.000353242)
(0.218335 0 -0.000353708)
(0.218123 0 -0.00035421)
(0.217914 -7.79402e-30 -0.000354744)
(0.217706 7.75277e-30 -0.000355305)
(0.217501 -1.54182e-29 -0.000355892)
(0.217298 -7.65332e-30 -0.00035651)
(0.217097 0 -0.000357153)
(0.216899 -1.503e-29 -0.000357794)
(0.216702 -1.49001e-29 -0.000358436)
(0.216508 7.37949e-30 -0.000359088)
(0.216315 0 -0.000359745)
(0.216125 0 -0.000360396)
(0.215937 1.42314e-29 -0.000361038)
(0.215751 0 -0.000361668)
(0.215566 0 -0.000362288)
(0.215384 0 -0.000362902)
(0.215203 0 -0.000363529)
(0.215023 0 -0.000364181)
(0.214846 6.701e-30 -0.000364873)
(0.21467 6.65569e-30 -0.000365584)
(0.214496 -3.57824e-37 -0.00036633)
(0.214324 -6.58455e-30 -0.000367086)
(0.214154 0 -0.000367869)
(0.213986 -1.31113e-29 -0.000368683)
(0.213819 -3.15026e-37 -0.000369515)
(0.213655 -6.55299e-30 -0.000370366)
(0.213493 -6.56615e-30 -0.000371227)
(0.213333 6.58149e-30 -0.000372116)
(0.213175 -6.59038e-30 -0.000373001)
(0.21302 6.60041e-30 -0.000373881)
(0.212867 6.62054e-30 -0.000374752)
(0.212717 0 -0.000375636)
(0.212569 0 -0.000376523)
(0.212423 6.73587e-30 -0.00037743)
(0.21228 6.76636e-30 -0.000378312)
(0.21214 0 -0.000379176)
(0.212002 0 -0.000380042)
(0.211866 0 -0.000380893)
(0.211733 -6.89075e-30 -0.000381754)
(0.211602 -6.90425e-30 -0.000382611)
(0.211474 6.91442e-30 -0.000383461)
(0.211347 -6.92115e-30 -0.000384328)
(0.211223 -1.38331e-29 -0.000385159)
(0.211102 1.89434e-37 -0.000385992)
(0.210982 6.91182e-30 -0.000386787)
(0.210864 -6.89846e-30 -0.000387554)
(0.210749 0 -0.0003883)
(0.210635 0 -0.000389026)
(0.210522 0 -0.000389732)
(0.210411 2.92194e-37 -0.000390433)
(0.210302 -6.64122e-30 -0.000391094)
(0.210195 -6.59061e-30 -0.000391729)
(0.210088 6.55238e-30 -0.000392336)
(0.209984 -1.81891e-38 -0.000392936)
(0.20988 -8.7298e-38 -0.000393523)
(0.209778 0 -0.000394101)
(0.209678 0 -0.000394674)
(0.209579 6.46675e-30 -0.000395233)
(0.209481 0 -0.000395766)
(0.209385 -6.3961e-30 -0.000396234)
(0.20929 -6.32945e-30 -0.000396641)
(0.209197 -6.13313e-30 -0.000396902)
(0.209106 5.81553e-30 -0.000396977)
(0.209016 5.56746e-30 -0.000396879)
(0.208929 0 -0.000396663)
(0.208843 0 -0.000396407)
(0.208759 1.28207e-36 -0.000396226)
(0.208676 -9.73197e-37 -0.000396095)
(0.208595 0 -0.000395998)
(0.208516 -5.07196e-30 -0.000395931)
(0.208437 -4.94142e-30 -0.000395875)
(0.20836 0 -0.000395819)
(0.208284 -4.64864e-30 -0.000395756)
(0.20821 -8.96436e-30 -0.000395655)
(0.208135 0 -0.000395511)
(0.208062 0 -0.00039531)
(0.207989 -3.96688e-30 -0.00039507)
(0.207915 -7.60636e-30 -0.00039478)
(0.207842 3.65004e-30 -0.000394458)
(0.207768 3.51441e-30 -0.000394107)
(0.207695 0 -0.000393739)
(0.20762 3.30667e-30 -0.000393364)
(0.207546 3.2288e-30 -0.000392988)
(0.207471 3.17173e-30 -0.00039261)
(0.207395 0 -0.000392246)
(0.207319 0 -0.000391888)
(0.207242 -3.12817e-30 -0.000391528)
(0.207165 -3.15578e-30 -0.000391171)
(0.207087 -3.20115e-30 -0.000390824)
(0.207008 -3.26818e-30 -0.000390483)
(0.206929 3.3497e-30 -0.000390186)
(0.206848 0 -0.000389917)
(0.206768 0 -0.000389707)
(0.206687 3.60423e-30 -0.000389534)
(0.206606 3.68116e-30 -0.000389401)
(0.206524 -3.75067e-30 -0.00038932)
(0.206443 7.61538e-30 -0.000389273)
(0.206361 0 -0.000389264)
(0.20628 -3.88525e-30 -0.00038927)
(0.206198 -7.81874e-30 -0.000389299)
(0.206117 -3.91515e-30 -0.000389343)
(0.206036 0 -0.000389393)
(0.205955 3.89875e-30 -0.000389465)
(0.205875 3.87066e-30 -0.000389525)
(0.205794 3.82873e-30 -0.000389583)
(0.205714 0 -0.000389632)
(0.205634 7.4671e-30 -0.000389685)
(0.205554 0 -0.000389725)
(0.205475 -1.86601e-37 -0.000389779)
(0.205395 3.59686e-30 -0.000389808)
(0.205316 7.10924e-30 -0.000389805)
(0.205237 -3.5232e-30 -0.000389776)
(0.205157 -3.50516e-30 -0.000389716)
(0.205078 0 -0.000389661)
(0.204998 -3.52398e-30 -0.000389613)
(0.204919 -2.07055e-37 -0.000389598)
(0.20484 0 -0.000389609)
(0.204761 -2.08251e-37 -0.000389643)
(0.204682 0 -0.000389727)
(0.204603 0 -0.000389836)
(0.204525 0 -0.000389962)
(0.204447 0 -0.000390102)
(0.20437 0 -0.000390328)
(0.204293 0 -0.00039063)
(0.204217 0 -0.000390983)
(0.204142 -4.23039e-30 -0.000391403)
(0.204068 -4.28671e-30 -0.000391878)
(0.203995 0 -0.000392395)
(0.203923 4.37168e-30 -0.000392956)
(0.203852 4.38994e-30 -0.000393549)
(0.203783 0 -0.000394186)
(0.203715 -3.53403e-37 -0.000394833)
(0.203648 4.27509e-30 -0.000395475)
(0.203583 -4.18122e-30 -0.000396099)
(0.203519 4.05372e-30 -0.000396674)
(0.203457 0 -0.000397171)
(0.203396 3.73855e-30 -0.000397573)
(0.203337 -3.57484e-30 -0.000397924)
(0.203278 0 -0.000398183)
(0.203221 0 -0.000398324)
(0.203164 0 -0.000398426)
(0.203108 0 -0.000398469)
(0.203053 0 -0.000398439)
(0.202999 -2.52551e-30 -0.000398361)
(0.202945 2.37767e-30 -0.000398242)
(0.202892 0 -0.000398087)
(0.202839 0 -0.00039791)
(0.202788 0 -0.000397707)
(0.202736 1.92558e-30 -0.000397487)
(0.202685 1.85096e-30 -0.00039725)
(0.202635 1.80148e-30 -0.000397014)
(0.202586 1.76542e-30 -0.00039678)
(0.202536 0 -0.00039657)
(0.202487 0 -0.000396374)
(0.202439 0 -0.000396214)
(0.202391 -1.69003e-30 -0.000396029)
(0.202344 0 -0.00039578)
(0.202297 1.78409e-30 -0.000395704)
(0.20225 1.81177e-30 -0.000395772)
(0.202204 1.79168e-30 -0.00039583)
(0.202159 0 -0.000395917)
(0.202115 4.07199e-38 -0.000396009)
(0.202071 0 -0.000396099)
(0.202028 1.76332e-30 -0.000396183)
(0.201986 0 -0.000396257)
(0.201945 -1.75139e-30 -0.000396314)
(0.201904 0 -0.000396351)
(0.201863 0 -0.000396404)
(0.201824 0 -0.000396498)
(0.201785 5.98173e-38 -0.000396599)
(0.201747 1.77457e-30 -0.000396715)
(0.20171 0 -0.00039686)
(0.201674 0 -0.00039702)
(0.201638 1.80325e-30 -0.000397157)
(0.201604 0 -0.000397287)
(0.20157 0 -0.000397385)
(0.201537 -3.6484e-30 -0.000397466)
(0.201505 0 -0.000397515)
(0.201473 1.81927e-30 -0.00039753)
(0.201442 -1.80205e-30 -0.0003975)
(0.201411 -1.76835e-30 -0.000397386)
(0.20138 0 -0.000397195)
(0.20135 -1.73755e-30 -0.000396989)
(0.20132 0 -0.000396751)
(0.201289 8.59565e-38 -0.000396466)
(0.201258 0 -0.000396141)
(0.201227 -1.67542e-30 -0.000395762)
(0.201196 0 -0.000395337)
(0.201163 0 -0.000394837)
(0.20113 0 -0.000394253)
(0.201096 0 -0.000393615)
(0.20106 0 -0.00039292)
(0.201024 0 -0.000392174)
(0.200986 -1.352e-30 -0.000391386)
(0.200946 0 -0.000390562)
(0.200906 0 -0.000389733)
(0.200863 0 -0.000388927)
(0.20082 -1.33676e-30 -0.000388161)
(0.200775 -1.34104e-30 -0.000387443)
(0.200729 -1.34509e-30 -0.000386777)
(0.200682 -1.4137e-38 -0.000386157)
(0.200634 1.32122e-30 -0.00038555)
(0.200585 0 -0.000384956)
(0.200535 0 -0.000384367)
(0.200485 5.01212e-37 -0.000383787)
(0.200433 -4.31475e-37 -0.000383245)
(0.200381 1.32816e-30 -0.000382746)
(0.200328 0 -0.000382306)
(0.200274 0 -0.000381904)
(0.200219 1.42113e-30 -0.000381553)
(0.200164 1.47348e-30 -0.000381236)
(0.200108 1.53308e-30 -0.000380953)
(0.200052 0 -0.000380682)
(0.199995 -1.65201e-30 -0.000380394)
(0.199937 -1.72664e-30 -0.000380085)
(0.199879 0 -0.000379757)
(0.19982 -1.92887e-30 -0.000379426)
(0.19976 0 -0.000379089)
(0.1997 2.15826e-30 -0.000378773)
(0.199638 2.27068e-30 -0.000378463)
(0.199576 0 -0.000378185)
(0.199514 0 -0.000377879)
(0.199451 0 -0.000377539)
(0.199387 5.14417e-30 -0.000377158)
(0.199323 0 -0.000376754)
(0.199259 0 -0.000376322)
(0.199193 0 -0.000375897)
(0.199128 0 -0.000375473)
(0.199062 0 -0.000375055)
(0.198995 0 -0.000374644)
(0.198928 0 -0.000374229)
(0.19886 2.84003e-30 -0.000373828)
(0.198792 0 -0.00037343)
(0.198723 -4.23774e-37 -0.000373024)
(0.198654 -5.70888e-30 -0.000372632)
(0.198585 -5.73348e-30 -0.000372267)
(0.198514 0 -0.000371931)
(0.198443 -6.49069e-37 -0.000371632)
(0.198372 0 -0.000371389)