/*--------------------------------*- C++ -*----------------------------------*\
| =========                 |                                                 |
| \\      /  F ield         | foam-extend: Open Source CFD                    |
|  \\    /   O peration     | Version:     3.2                                |
|   \\  /    A nd           | Web:         http://www.foam-extend.org         |
|    \\/     M anipulation  | For copyright notice see file Copyright         |
\*---------------------------------------------------------------------------*/
FoamFile
{
    version     2.0;
    format      ascii;
    class       areaVectorField;
    location    "120";
    object      uNormal;
}
// * * * * * * * * * * * * * * * * * * * * * * * * * * * * * * * * * * * * * //

dimensions      [0 0 0 0 0 0 0];

internalField   nonuniform List<vector> 
550
(
(0.002 0 0.999998)
(0.002 0 0.999998)
(0.002 0 0.999998)
(0.002 0 0.999998)
(0.002 7.27917e-20 0.999998)
(0.002 0 0.999998)
(0.002 0 0.999998)
(0.002 0 0.999998)
(0.002 7.27917e-20 0.999998)
(0.002 0 0.999998)
(0.002 0 0.999998)
(0.002 0 0.999998)
(0.002 7.27917e-20 0.999998)
(0.002 0 0.999998)
(0.002 0 0.999998)
(0.002 7.27917e-20 0.999998)
(0.002 -7.27917e-20 0.999998)
(0.002 7.27917e-20 0.999998)
(0.002 7.27917e-20 0.999998)
(0.002 0 0.999998)
(0.002 7.27917e-20 0.999998)
(0.002 -7.27917e-20 0.999998)
(0.002 0 0.999998)
(0.002 7.27917e-20 0.999998)
(0.002 0 0.999998)
(0.00200014 0 0.999998)
(0.00199999 7.27917e-20 0.999998)
(0.00199981 0 0.999998)
(0.00209192 0 0.999998)
(0.00181622 7.27918e-20 0.999998)
(0.00136271 -3.63959e-20 0.999999)
(0.00104536 3.63959e-20 0.999999)
(0.000836058 -3.63959e-20 1)
(0.000873369 0 1)
(0.000934745 0 1)
(0.00102375 3.63959e-20 0.999999)
(0.00110798 -3.63959e-20 0.999999)
(0.0011864 -3.63959e-20 0.999999)
(0.0012569 0 0.999999)
(0.00132065 0 0.999999)
(0.00137719 -3.63959e-20 0.999999)
(0.00142649 0 0.999999)
(0.00146961 0 0.999999)
(0.00150807 0 0.999999)
(0.00154359 -7.27918e-20 0.999999)
(0.00157733 0 0.999999)
(0.00160886 7.27918e-20 0.999999)
(0.00163744 0 0.999999)
(0.00166278 7.27918e-20 0.999999)
(0.00168469 0 0.999999)
(0.00170362 0 0.999999)
(0.00172003 0 0.999999)
(0.00173403 -7.27918e-20 0.999998)
(0.00174608 0 0.999998)
(0.00175679 7.27918e-20 0.999998)
(0.00176699 -7.27918e-20 0.999998)
(0.00177699 0 0.999998)
(0.00178614 0 0.999998)
(0.00179427 0 0.999998)
(0.00180168 -7.27918e-20 0.999998)
(0.0018087 0 0.999998)
(0.00181548 0 0.999998)
(0.00182181 0 0.999998)
(0.00182736 0 0.999998)
(0.00183205 7.27918e-20 0.999998)
(0.00183615 7.27918e-20 0.999998)
(0.00183991 -7.27918e-20 0.999998)
(0.00184353 0 0.999998)
(0.00184706 -7.27918e-20 0.999998)
(0.0018506 7.27918e-20 0.999998)
(0.00185422 7.27918e-20 0.999998)
(0.00185804 7.27918e-20 0.999998)
(0.00186207 0 0.999998)
(0.00186569 7.27918e-20 0.999998)
(0.00186839 -7.27918e-20 0.999998)
(0.00187032 -7.27918e-20 0.999998)
(0.00187224 7.27918e-20 0.999998)
(0.0018748 0 0.999998)
(0.00187735 7.27918e-20 0.999998)
(0.00187923 0 0.999998)
(0.00188057 0 0.999998)
(0.00188156 0 0.999998)
(0.00188226 -7.27918e-20 0.999998)
(0.00188267 7.27918e-20 0.999998)
(0.00188287 0 0.999998)
(0.00188325 0 0.999998)
(0.00188391 0 0.999998)
(0.00188471 7.27918e-20 0.999998)
(0.00188507 0 0.999998)
(0.00188512 7.27918e-20 0.999998)
(0.00188593 0 0.999998)
(0.00188759 0 0.999998)
(0.00188945 0 0.999998)
(0.00189123 0 0.999998)
(0.00189318 0 0.999998)
(0.00189559 0 0.999998)
(0.00189782 -7.27918e-20 0.999998)
(0.00189843 -7.27918e-20 0.999998)
(0.00189745 7.27918e-20 0.999998)
(0.00189575 0 0.999998)
(0.00189367 0 0.999998)
(0.00189143 0 0.999998)
(0.00188918 -7.27918e-20 0.999998)
(0.00188706 0 0.999998)
(0.00188504 7.27918e-20 0.999998)
(0.00188319 7.27918e-20 0.999998)
(0.0018816 0 0.999998)
(0.00188023 -7.27918e-20 0.999998)
(0.00187904 -7.27918e-20 0.999998)
(0.00187817 0 0.999998)
(0.0018772 0 0.999998)
(0.00187561 0 0.999998)
(0.00187436 -7.27918e-20 0.999998)
(0.00187401 0 0.999998)
(0.00187386 7.27918e-20 0.999998)
(0.00187372 7.27918e-20 0.999998)
(0.0018738 7.27918e-20 0.999998)
(0.00187411 0 0.999998)
(0.00187461 0 0.999998)
(0.00187528 -7.27918e-20 0.999998)
(0.00187609 0 0.999998)
(0.00187697 0 0.999998)
(0.0018779 -7.27918e-20 0.999998)
(0.00187883 -7.27918e-20 0.999998)
(0.00187982 7.27918e-20 0.999998)
(0.00188084 0 0.999998)
(0.00188195 -7.27918e-20 0.999998)
(0.00188325 -7.27918e-20 0.999998)
(0.00188474 7.27918e-20 0.999998)
(0.00188633 0 0.999998)
(0.00188794 0 0.999998)
(0.00188961 0 0.999998)
(0.00189139 0 0.999998)
(0.00189329 0 0.999998)
(0.00189527 -7.27918e-20 0.999998)
(0.00189735 7.27918e-20 0.999998)
(0.00189956 0 0.999998)
(0.00190176 0 0.999998)
(0.00190392 7.27918e-20 0.999998)
(0.0019061 7.27918e-20 0.999998)
(0.0019084 -7.27918e-20 0.999998)
(0.00191078 -7.27918e-20 0.999998)
(0.00191319 7.27918e-20 0.999998)
(0.0019156 0 0.999998)
(0.00191803 0 0.999998)
(0.00192041 -7.27918e-20 0.999998)
(0.00192282 -7.27918e-20 0.999998)
(0.0019253 0 0.999998)
(0.00192779 0 0.999998)
(0.00193023 7.27918e-20 0.999998)
(0.00193265 0 0.999998)
(0.00193515 -7.27918e-20 0.999998)
(0.00193771 0 0.999998)
(0.00194032 0 0.999998)
(0.00194291 0 0.999998)
(0.0019455 0 0.999998)
(0.00194804 0 0.999998)
(0.00195058 7.27918e-20 0.999998)
(0.00195318 0 0.999998)
(0.00195585 0 0.999998)
(0.00195858 0 0.999998)
(0.00196123 0 0.999998)
(0.00196387 0 0.999998)
(0.00196642 0 0.999998)
(0.00196897 0 0.999998)
(0.00197151 -7.27918e-20 0.999998)
(0.001974 -7.27918e-20 0.999998)
(0.00197642 0 0.999998)
(0.00197875 0 0.999998)
(0.00198109 0 0.999998)
(0.00198324 7.27918e-20 0.999998)
(0.00198517 7.27918e-20 0.999998)
(0.00198687 0 0.999998)
(0.00198848 0 0.999998)
(0.00198999 0 0.999998)
(0.00199149 7.27918e-20 0.999998)
(0.00199278 0 0.999998)
(0.00199397 0 0.999998)
(0.00199514 0 0.999998)
(0.00199623 7.27917e-20 0.999998)
(0.00199732 7.27917e-20 0.999998)
(0.00199832 -7.27917e-20 0.999998)
(0.00199926 7.27917e-20 0.999998)
(0.00200023 7.27917e-20 0.999998)
(0.0020011 0 0.999998)
(0.00200197 7.27917e-20 0.999998)
(0.00200274 7.27917e-20 0.999998)
(0.00200344 0 0.999998)
(0.00200416 7.27917e-20 0.999998)
(0.00200483 0 0.999998)
(0.00200543 0 0.999998)
(0.00200607 0 0.999998)
(0.00200653 0 0.999998)
(0.00200696 0 0.999998)
(0.00200735 0 0.999998)
(0.00200776 0 0.999998)
(0.00200817 0 0.999998)
(0.00200855 0 0.999998)
(0.00200893 0 0.999998)
(0.00200927 7.27917e-20 0.999998)
(0.00200947 -7.27917e-20 0.999998)
(0.00200941 0 0.999998)
(0.00200909 -7.27917e-20 0.999998)
(0.00200844 0 0.999998)
(0.00200759 0 0.999998)
(0.00200625 0 0.999998)
(0.00200434 -7.27917e-20 0.999998)
(0.00200236 0 0.999998)
(0.00200085 -7.27917e-20 0.999998)
(0.00199967 7.27917e-20 0.999998)
(0.00199868 0 0.999998)
(0.00199789 0 0.999998)
(0.00199724 0 0.999998)
(0.00199673 0 0.999998)
(0.00199637 -7.27917e-20 0.999998)
(0.00199606 -7.27917e-20 0.999998)
(0.0019958 0 0.999998)
(0.00199561 7.27917e-20 0.999998)
(0.00199555 0 0.999998)
(0.00199555 7.27917e-20 0.999998)
(0.00199565 0 0.999998)
(0.00199582 7.27917e-20 0.999998)
(0.00199611 0 0.999998)
(0.00199652 7.27917e-20 0.999998)
(0.00199705 0 0.999998)
(0.00199763 7.27917e-20 0.999998)
(0.00199835 0 0.999998)
(0.00199914 0 0.999998)
(0.00199999 0 0.999998)
(0.0020009 0 0.999998)
(0.00200186 0 0.999998)
(0.00200281 7.27917e-20 0.999998)
(0.00200387 0 0.999998)
(0.00200491 0 0.999998)
(0.00200602 7.27917e-20 0.999998)
(0.00200706 0 0.999998)
(0.00200808 0 0.999998)
(0.00200915 0 0.999998)
(0.0020102 -7.27917e-20 0.999998)
(0.00201129 0 0.999998)
(0.0020123 7.27917e-20 0.999998)
(0.00201332 0 0.999998)
(0.00201429 0 0.999998)
(0.00201525 0 0.999998)
(0.00201627 0 0.999998)
(0.00201726 0 0.999998)
(0.00201825 -7.27917e-20 0.999998)
(0.00201926 0 0.999998)
(0.00202026 0 0.999998)
(0.00202123 0 0.999998)
(0.00202227 7.27917e-20 0.999998)
(0.00202325 0 0.999998)
(0.00202415 7.27917e-20 0.999998)
(0.00202503 0 0.999998)
(0.00202582 0 0.999998)
(0.00202667 0 0.999998)
(0.00202746 0 0.999998)
(0.00202829 0 0.999998)
(0.002029 0 0.999998)
(0.00202971 7.27917e-20 0.999998)
(0.00203055 0 0.999998)
(0.00203144 0 0.999998)
(0.00203226 0 0.999998)
(0.00203305 0 0.999998)
(0.00203407 0 0.999998)
(0.00203522 -7.27917e-20 0.999998)
(0.00203634 0 0.999998)
(0.00203753 0 0.999998)
(0.0020387 0 0.999998)
(0.00203988 0 0.999998)
(0.00204105 0 0.999998)
(0.00204222 7.27917e-20 0.999998)
(0.00204339 0 0.999998)
(0.00204447 0 0.999998)
(0.00204547 0 0.999998)
(0.00204639 0 0.999998)
(0.00204709 0 0.999998)
(0.00204746 0 0.999998)
(0.00204756 0 0.999998)
(0.00204762 0 0.999998)
(0.00204738 -7.27917e-20 0.999998)
(0.00204681 0 0.999998)
(0.00204632 0 0.999998)
(0.00204572 0 0.999998)
(0.00204488 0 0.999998)
(0.00204387 0 0.999998)
(0.00204268 -7.27917e-20 0.999998)
(0.00204136 0 0.999998)
(0.00203998 0 0.999998)
(0.00203854 -7.27917e-20 0.999998)
(0.00203705 7.27917e-20 0.999998)
(0.00203556 0 0.999998)
(0.00203415 0 0.999998)
(0.00203282 0 0.999998)
(0.00203159 0 0.999998)
(0.00203043 0 0.999998)
(0.00202934 -7.27917e-20 0.999998)
(0.00202786 0 0.999998)
(0.00202603 0 0.999998)
(0.00202519 0 0.999998)
(0.00202494 0 0.999998)
(0.00202439 7.27917e-20 0.999998)
(0.00202381 0 0.999998)
(0.00202319 7.27917e-20 0.999998)
(0.00202255 0 0.999998)
(0.00202192 -7.27917e-20 0.999998)
(0.00202123 7.27917e-20 0.999998)
(0.00202044 0 0.999998)
(0.00201952 -7.27917e-20 0.999998)
(0.00201864 0 0.999998)
(0.00201779 0 0.999998)
(0.00201684 0 0.999998)
(0.00201593 0 0.999998)
(0.00201523 0 0.999998)
(0.0020146 7.27917e-20 0.999998)
(0.00201388 0 0.999998)
(0.00201318 0 0.999998)
(0.00201248 -7.27917e-20 0.999998)
(0.00201184 0 0.999998)
(0.00201125 7.27917e-20 0.999998)
(0.00201069 0 0.999998)
(0.00201022 0 0.999998)
(0.00200984 7.27917e-20 0.999998)
(0.00200947 0 0.999998)
(0.00200915 7.27917e-20 0.999998)
(0.00200886 0 0.999998)
(0.00200855 0 0.999998)
(0.00200829 0 0.999998)
(0.00200806 7.27917e-20 0.999998)
(0.0020079 0 0.999998)
(0.00200766 -7.27917e-20 0.999998)
(0.00200727 0 0.999998)
(0.00200685 0 0.999998)
(0.00200636 0 0.999998)
(0.00200584 0 0.999998)
(0.00200529 0 0.999998)
(0.00200469 0 0.999998)
(0.00200408 -7.27917e-20 0.999998)
(0.0020035 0 0.999998)
(0.00200293 0 0.999998)
(0.00200236 0 0.999998)
(0.00200182 0 0.999998)
(0.00200135 7.27917e-20 0.999998)
(0.00200085 0 0.999998)
(0.00200036 0 0.999998)
(0.00199991 0 0.999998)
(0.00199951 0 0.999998)
(0.00199929 7.27917e-20 0.999998)
(0.0019992 0 0.999998)
(0.00199928 0 0.999998)
(0.00199941 0 0.999998)
(0.00199967 0 0.999998)
(0.00200006 0 0.999998)
(0.00200061 0 0.999998)
(0.00200124 -7.27917e-20 0.999998)
(0.00200185 0 0.999998)
(0.00200249 7.27917e-20 0.999998)
(0.00200321 0 0.999998)
(0.00200399 -7.27917e-20 0.999998)
(0.00200476 7.27917e-20 0.999998)
(0.00200546 0 0.999998)
(0.00200606 0 0.999998)
(0.00200662 -7.27917e-20 0.999998)
(0.00200696 0 0.999998)
(0.00200709 0 0.999998)
(0.00200707 0 0.999998)
(0.00200693 0 0.999998)
(0.00200668 0 0.999998)
(0.00200643 0 0.999998)
(0.00200612 0 0.999998)
(0.00200579 0 0.999998)
(0.00200544 0 0.999998)
(0.00200513 0 0.999998)
(0.00200488 0 0.999998)
(0.0020047 7.27917e-20 0.999998)
(0.00200451 0 0.999998)
(0.00200447 0 0.999998)
(0.00200455 -7.27917e-20 0.999998)
(0.00200474 0 0.999998)
(0.002005 0 0.999998)
(0.00200545 -7.27917e-20 0.999998)
(0.00200605 -7.27917e-20 0.999998)
(0.0020067 0 0.999998)
(0.00200749 0 0.999998)
(0.00200839 0 0.999998)
(0.00200932 0 0.999998)
(0.0020103 7.27917e-20 0.999998)
(0.00201131 0 0.999998)
(0.00201234 0 0.999998)
(0.00201347 0 0.999998)
(0.00201466 0 0.999998)
(0.00201585 0 0.999998)
(0.00201702 7.27917e-20 0.999998)
(0.00201815 7.27917e-20 0.999998)
(0.00201917 0 0.999998)
(0.00202018 7.27917e-20 0.999998)
(0.00202102 0 0.999998)
(0.00202182 0 0.999998)
(0.00202252 -7.27917e-20 0.999998)
(0.00202313 0 0.999998)
(0.00202366 7.27917e-20 0.999998)
(0.00202409 7.27917e-20 0.999998)
(0.00202433 0 0.999998)
(0.00202441 0 0.999998)
(0.00202431 -7.27917e-20 0.999998)
(0.0020241 -7.27917e-20 0.999998)
(0.00202374 0 0.999998)
(0.00202325 -7.27917e-20 0.999998)
(0.00202258 0 0.999998)
(0.0020217 0 0.999998)
(0.0020209 0 0.999998)
(0.00202026 0 0.999998)
(0.00201962 0 0.999998)
(0.00201894 0 0.999998)
(0.00201829 -7.27917e-20 0.999998)
(0.00201772 0 0.999998)
(0.00201725 0 0.999998)
(0.00201696 -7.27917e-20 0.999998)
(0.00201681 -7.27917e-20 0.999998)
(0.00201679 -7.27917e-20 0.999998)
(0.00201688 0 0.999998)
(0.00201706 -7.27917e-20 0.999998)
(0.00201731 0 0.999998)
(0.00201756 0 0.999998)
(0.0020178 -7.27917e-20 0.999998)
(0.00201804 7.27917e-20 0.999998)
(0.00201826 0 0.999998)
(0.0020184 0 0.999998)
(0.0020185 0 0.999998)
(0.00201855 0 0.999998)
(0.00201847 0 0.999998)
(0.00201825 -7.27917e-20 0.999998)
(0.00201789 7.27917e-20 0.999998)
(0.00201747 0 0.999998)
(0.00201696 7.27917e-20 0.999998)
(0.00201638 0 0.999998)
(0.00201574 -7.27917e-20 0.999998)
(0.00201507 7.27917e-20 0.999998)
(0.00201436 0 0.999998)
(0.00201363 0 0.999998)
(0.00201292 0 0.999998)
(0.00201226 0 0.999998)
(0.00201161 0 0.999998)
(0.00201103 -7.27917e-20 0.999998)
(0.00201044 0 0.999998)
(0.00200995 0 0.999998)
(0.00200939 0 0.999998)
(0.00200892 7.27917e-20 0.999998)
(0.00200841 7.27917e-20 0.999998)
(0.00200798 0 0.999998)
(0.00200751 7.27917e-20 0.999998)
(0.00200719 0 0.999998)
(0.00200689 -7.27917e-20 0.999998)
(0.00200671 0 0.999998)
(0.00200656 0 0.999998)
(0.00200652 0 0.999998)
(0.00200646 0 0.999998)
(0.00200649 7.27917e-20 0.999998)
(0.00200652 0 0.999998)
(0.00200658 0 0.999998)
(0.0020066 0 0.999998)
(0.00200669 0 0.999998)
(0.00200657 0 0.999998)
(0.00200646 0 0.999998)
(0.00200618 0 0.999998)
(0.00200586 0 0.999998)
(0.00200542 0 0.999998)
(0.00200493 0 0.999998)
(0.0020043 -7.27917e-20 0.999998)
(0.00200367 0 0.999998)
(0.00200305 0 0.999998)
(0.00200255 0 0.999998)
(0.00200212 7.27917e-20 0.999998)
(0.0020018 0 0.999998)
(0.00200163 -7.27917e-20 0.999998)
(0.00200163 7.27917e-20 0.999998)
(0.00200175 0 0.999998)
(0.00200209 -7.27917e-20 0.999998)
(0.00200254 7.27917e-20 0.999998)
(0.00200319 7.27917e-20 0.999998)
(0.00200396 0 0.999998)
(0.00200483 7.27917e-20 0.999998)
(0.00200576 0 0.999998)
(0.00200662 0 0.999998)
(0.00200752 0 0.999998)
(0.00200833 0 0.999998)
(0.00200916 0 0.999998)
(0.00200997 0 0.999998)
(0.00201079 0 0.999998)
(0.00201161 7.27917e-20 0.999998)
(0.00201244 -7.27917e-20 0.999998)
(0.00201316 0 0.999998)
(0.0020137 7.27917e-20 0.999998)
(0.00201403 0 0.999998)
(0.00201417 0 0.999998)
(0.00201419 0 0.999998)
(0.00201401 -7.27917e-20 0.999998)
(0.00201382 -7.27917e-20 0.999998)
(0.00201352 -7.27917e-20 0.999998)
(0.0020133 0 0.999998)
(0.00201318 0 0.999998)
(0.00201303 0 0.999998)
(0.00201298 0 0.999998)
(0.00201303 0 0.999998)
(0.00201307 0 0.999998)
(0.00201311 0 0.999998)
(0.00201313 7.27917e-20 0.999998)
(0.002013 0 0.999998)
(0.00201289 0 0.999998)
(0.00201276 0 0.999998)
(0.00201256 0 0.999998)
(0.0020124 0 0.999998)
(0.00201223 0 0.999998)
(0.00201206 0 0.999998)
(0.00201185 7.27917e-20 0.999998)
(0.00201173 7.27917e-20 0.999998)
(0.00201177 0 0.999998)
(0.00201178 7.27917e-20 0.999998)
(0.00201192 0 0.999998)
(0.002012 7.27917e-20 0.999998)
(0.00201206 7.27917e-20 0.999998)
(0.00201186 0 0.999998)
(0.0020114 0 0.999998)
(0.00201056 0 0.999998)
(0.00200909 0 0.999998)
(0.00200711 -7.27917e-20 0.999998)
(0.00200343 0 0.999998)
(0.00199795 0 0.999998)
(0.00198934 0 0.999998)
(0.001976 0 0.999998)
(0.00195565 0 0.999998)
(0.00192574 -7.27918e-20 0.999998)
(0.00188099 0 0.999998)
(0.00181627 0 0.999998)
(0.00172791 0 0.999999)
(0.00159163 7.27918e-20 0.999999)
(0.00172741 7.27918e-20 0.999999)
(0.00138048 0 0.999999)
(0.0142568 0 0.999898)
(0.0148498 0 0.99989)
(0.002 0 0.999998)
(0.002 0 0.999998)
(0.002 0 0.999998)
(0.002 0 0.999998)
(0.002 0 0.999998)
(0.002 -7.27917e-20 0.999998)
(0.002 0 0.999998)
(0.002 0 0.999998)
(0.002 0 0.999998)
(0.002 0 0.999998)
)
;

boundaryField
{
    inlet
    {
        type            calculated;
        value           uniform (0 0 0);
    }
    endWall
    {
        type            calculated;
        value           uniform (0 0 0);
    }
    sideWall
    {
        type            empty;
    }
}


// ************************************************************************* //
