/*--------------------------------*- C++ -*----------------------------------*\
| =========                 |                                                 |
| \\      /  F ield         | foam-extend: Open Source CFD                    |
|  \\    /   O peration     | Version:     3.2                                |
|   \\  /    A nd           | Web:         http://www.foam-extend.org         |
|    \\/     M anipulation  | For copyright notice see file Copyright         |
\*---------------------------------------------------------------------------*/
FoamFile
{
    version     2.0;
    format      ascii;
    class       areaVectorField;
    location    "120";
    object      Utau;
}
// * * * * * * * * * * * * * * * * * * * * * * * * * * * * * * * * * * * * * //

dimensions      [0 1 -1 0 0 0 0];

internalField   nonuniform List<vector> 
550
(
(0.069529 0 -0.000139058)
(0.0809566 0 -0.000161913)
(0.0926988 1.77703e-29 -0.000185398)
(0.104469 0 -0.000208938)
(0.115977 -3.22374e-23 -0.000231954)
(0.12692 0 -0.000253839)
(0.137067 -4.42497e-29 -0.000274135)
(0.146214 3.97586e-29 -0.000292428)
(0.154256 -4.1096e-23 -0.000308511)
(0.161121 4.05648e-29 -0.000322242)
(0.166825 4.34877e-29 -0.000333651)
(0.171405 0 -0.00034281)
(0.174952 -4.30452e-23 -0.000349903)
(0.177556 5.416e-29 -0.000355112)
(0.179331 0 -0.000358661)
(0.180383 -3.81684e-23 -0.000360767)
(0.180829 3.53536e-23 -0.000361657)
(0.180769 -3.25831e-23 -0.000361537)
(0.180305 -3.01599e-23 -0.00036061)
(0.179548 0 -0.000359097)
(0.17856 -2.61897e-23 -0.00035712)
(0.177391 2.4588e-23 -0.000354782)
(0.176087 0 -0.000352174)
(0.174686 -2.15155e-23 -0.000349373)
(0.173225 0 -0.00034645)
(0.171733 0 -0.00034349)
(0.170235 -1.70481e-23 -0.000340468)
(0.168757 0 -0.000337484)
(0.167312 0 -0.000350004)
(0.165902 -1.46524e-23 -0.000301315)
(0.164544 6.45413e-24 -0.000224226)
(0.16325 -5.94643e-24 -0.000170655)
(0.162026 5.55525e-24 -0.000135463)
(0.160868 0 -0.000140497)
(0.159772 0 -0.000149346)
(0.158735 -5.29489e-24 -0.000162504)
(0.157753 5.08863e-24 -0.000174787)
(0.156826 4.87231e-24 -0.00018606)
(0.155952 0 -0.000196016)
(0.155126 8.54582e-30 -0.000204867)
(0.154349 4.11301e-24 -0.000212569)
(0.153617 0 -0.000219133)
(0.152928 1.59392e-29 -0.000224745)
(0.152281 -1.58803e-29 -0.000229651)
(0.151672 6.15369e-24 -0.000234119)
(0.151099 0 -0.000238333)
(0.150561 -5.16901e-24 -0.000242231)
(0.150055 1.67865e-29 -0.000245707)
(0.14958 -4.17951e-24 -0.00024872)
(0.149135 0 -0.000251246)
(0.148716 1.6511e-29 -0.000253357)
(0.148323 -1.64322e-29 -0.000255121)
(0.147954 2.56808e-24 -0.000256558)
(0.147607 0 -0.000257735)
(0.147281 -1.98958e-24 -0.000258743)
(0.146973 1.75473e-24 -0.000259701)
(0.146682 1.52164e-29 -0.000260654)
(0.146407 0 -0.000261505)
(0.146147 0 -0.000262227)
(0.145899 1.17189e-24 -0.000262865)
(0.145664 0 -0.000263463)
(0.14544 -1.38535e-29 -0.000264044)
(0.145226 0 -0.000264575)
(0.145022 0 -0.000265008)
(0.144827 -8.83465e-25 -0.00026533)
(0.144639 -8.69842e-25 -0.00026558)
(0.144459 8.56927e-25 -0.000265793)
(0.144286 -1.20147e-29 -0.000265996)
(0.144119 8.32789e-25 -0.000266196)
(0.143957 -8.21439e-25 -0.000266407)
(0.1438 -8.08435e-25 -0.000266637)
(0.143647 -7.98145e-25 -0.000266902)
(0.143498 0 -0.000267204)
(0.143353 -7.64145e-25 -0.000267453)
(0.143211 7.50267e-25 -0.000267576)
(0.143073 7.40716e-25 -0.000267592)
(0.142937 -7.19885e-25 -0.000267614)
(0.142804 -1.01254e-29 -0.000267729)
(0.142673 -6.55965e-25 -0.000267848)
(0.142544 0 -0.000267873)
(0.142416 8.93699e-30 -0.000267825)
(0.142291 0 -0.00026773)
(0.142168 6.40391e-25 -0.000267597)
(0.142046 -6.32955e-25 -0.000267426)
(0.141926 0 -0.000267229)
(0.141808 0 -0.00026706)
(0.141691 0 -0.000266933)
(0.141575 -6.1395e-25 -0.000266828)
(0.141461 0 -0.000266665)
(0.141348 -6.057e-25 -0.000266458)
(0.141236 0 -0.000266363)
(0.141125 6.27592e-30 -0.000266388)
(0.141015 0 -0.00026644)
(0.140905 6.33317e-30 -0.000266484)
(0.140795 -6.3638e-30 -0.000266551)
(0.140687 0 -0.000266684)
(0.140578 5.84446e-25 -0.000266792)
(0.140471 5.05657e-25 -0.000266674)
(0.140364 -4.49613e-25 -0.000266335)
(0.140258 0 -0.000265895)
(0.140152 0 -0.000265403)
(0.140047 -6.12992e-30 -0.000264889)
(0.139942 4.25223e-25 -0.000264376)
(0.139836 0 -0.000263879)
(0.13973 -4.32045e-25 -0.000263396)
(0.139623 -4.38085e-25 -0.000262938)
(0.139516 0 -0.000262513)
(0.139407 4.53544e-25 -0.000262118)
(0.139298 4.65119e-25 -0.000261747)
(0.139187 -6.12541e-30 -0.000261418)
(0.139076 0 -0.000261074)
(0.138963 0 -0.00026064)
(0.138849 5.16755e-25 -0.000260253)
(0.138734 0 -0.000259989)
(0.138617 -5.49407e-25 -0.000259749)
(0.138499 -5.6842e-25 -0.00025951)
(0.138381 -5.86343e-25 -0.000259298)
(0.138261 6.08382e-30 -0.000259116)
(0.138139 0 -0.000258958)
(0.138017 6.40488e-25 -0.000258821)
(0.137894 6.04759e-30 -0.000258703)
(0.13777 6.01674e-30 -0.000258591)
(0.137646 6.98285e-25 -0.000258484)
(0.13752 7.17789e-25 -0.000258378)
(0.137394 -7.37176e-25 -0.000258276)
(0.137267 0 -0.000258178)
(0.137139 7.74651e-25 -0.00025809)
(0.137012 7.92694e-25 -0.000258027)
(0.136883 -8.09901e-25 -0.00025799)
(0.136755 -5.8362e-30 -0.000257965)
(0.136626 0 -0.000257941)
(0.136497 5.80103e-30 -0.000257927)
(0.136368 0 -0.000257926)
(0.13624 -5.76868e-30 -0.000257942)
(0.136111 8.80668e-25 -0.000257968)
(0.135983 -8.8758e-25 -0.000258009)
(0.135856 0 -0.000258067)
(0.135729 0 -0.000258125)
(0.135603 -9.02141e-25 -0.000258178)
(0.135478 -9.05069e-25 -0.000258235)
(0.135353 9.07563e-25 -0.000258309)
(0.135229 9.09279e-25 -0.000258394)
(0.135106 -9.10178e-25 -0.000258484)
(0.134984 -5.50282e-30 -0.000258577)
(0.134863 0 -0.000258672)
(0.134743 9.07317e-25 -0.000258763)
(0.134624 9.05083e-25 -0.000258859)
(0.134507 0 -0.000258966)
(0.13439 0 -0.000259076)
(0.134274 -8.9572e-25 -0.00025918)
(0.13416 5.14093e-30 -0.000259284)
(0.134047 8.87414e-25 -0.000259401)
(0.133935 5.03034e-30 -0.000259528)
(0.133824 0 -0.000259662)
(0.133715 0 -0.000259797)
(0.133607 0 -0.000259932)
(0.1335 0 -0.000260064)
(0.133395 -8.6131e-25 -0.000260198)
(0.133291 0 -0.000260342)
(0.133189 0 -0.000260498)
(0.133088 0 -0.000260663)
(0.132988 0 -0.000260821)
(0.13289 0 -0.00026098)
(0.132794 0 -0.000261129)
(0.1327 0 -0.000261282)
(0.132607 8.02089e-25 -0.000261437)
(0.132516 7.91504e-25 -0.000261588)
(0.132427 4.32108e-30 -0.000261732)
(0.13234 -4.28046e-30 -0.000261869)
(0.132255 -4.24455e-30 -0.00026201)
(0.132172 -7.43919e-25 -0.000262129)
(0.132091 -7.3029e-25 -0.000262224)
(0.132012 -4.10002e-30 -0.000262292)
(0.131936 0 -0.000262352)
(0.131861 0 -0.000262402)
(0.131788 -6.67812e-25 -0.000262455)
(0.131717 3.94262e-30 -0.000262484)
(0.131649 0 -0.000262504)
(0.131582 -3.87624e-30 -0.000262526)
(0.131518 -5.93268e-25 -0.00026254)
(0.131455 -5.74186e-25 -0.000262559)
(0.131395 5.54586e-25 -0.000262569)
(0.131336 -5.34752e-25 -0.000262575)
(0.131279 -5.14787e-25 -0.000262589)
(0.131224 0 -0.000262593)
(0.131171 -4.73963e-25 -0.000262601)
(0.13112 -4.53732e-25 -0.000262599)
(0.13107 0 -0.000262592)
(0.131022 -4.13964e-25 -0.00026259)
(0.130976 0 -0.000262584)
(0.130931 0 -0.000262574)
(0.130888 -3.38575e-30 -0.00026257)
(0.130846 0 -0.000262546)
(0.130806 -3.31045e-30 -0.000262523)
(0.130767 0 -0.000262496)
(0.13073 0 -0.000262474)
(0.130694 0 -0.000262456)
(0.130659 0 -0.000262435)
(0.130625 0 -0.000262418)
(0.130593 -2.21148e-25 -0.000262397)
(0.130562 2.06389e-25 -0.000262361)
(0.130532 0 -0.000262293)
(0.130503 1.77475e-25 -0.000262192)
(0.130475 -2.96284e-30 -0.000262052)
(0.130447 2.80859e-30 -0.000261885)
(0.13042 0 -0.000261655)
(0.130392 1.82016e-25 -0.000261351)
(0.130365 2.5261e-30 -0.000261037)
(0.130337 1.91756e-25 -0.000260785)
(0.130308 -1.9681e-25 -0.000260573)
(0.130279 2.42595e-30 -0.000260386)
(0.13025 0 -0.000260226)
(0.13022 0 -0.000260081)
(0.13019 -2.28312e-30 -0.000259956)
(0.13016 2.15578e-25 -0.000259847)
(0.130129 2.19132e-25 -0.000259745)
(0.130097 -2.12107e-30 -0.000259649)
(0.130065 -2.27171e-25 -0.000259561)
(0.130033 0 -0.000259487)
(0.13 -2.37861e-25 -0.000259422)
(0.129967 0 -0.000259368)
(0.129933 -2.51624e-25 -0.000259323)
(0.129898 0 -0.000259292)
(0.129863 -2.68455e-25 -0.000259276)
(0.129828 0 -0.000259273)
(0.129792 -2.87114e-25 -0.000259277)
(0.129756 0 -0.000259297)
(0.129719 0 -0.000259326)
(0.129681 0 -0.000259361)
(0.129643 0 -0.000259402)
(0.129604 0 -0.000259449)
(0.129565 -3.41453e-25 -0.000259494)
(0.129525 2.10304e-30 -0.00025955)
(0.129484 2.13655e-30 -0.000259604)
(0.129443 -3.64309e-25 -0.000259666)
(0.129402 0 -0.000259718)
(0.12936 0 -0.000259766)
(0.129318 0 -0.00025982)
(0.129276 3.82285e-25 -0.000259871)
(0.129233 -2.26827e-30 -0.000259926)
(0.12919 -3.86697e-25 -0.00025997)
(0.129147 -2.27908e-30 -0.000260015)
(0.129104 0 -0.000260052)
(0.12906 0 -0.000260089)
(0.129017 -2.26768e-30 -0.000260133)
(0.128973 0 -0.000260174)
(0.12893 3.9308e-25 -0.000260213)
(0.128886 -2.23076e-30 -0.000260254)
(0.128842 0 -0.000260295)
(0.128799 0 -0.000260332)
(0.128755 -3.97801e-25 -0.000260378)
(0.128711 0 -0.000260416)
(0.128668 -4.01228e-25 -0.000260444)
(0.128624 0 -0.000260469)
(0.128581 0 -0.000260483)
(0.128538 0 -0.000260503)
(0.128494 0 -0.000260518)
(0.128451 2.16357e-30 -0.000260536)
(0.128408 0 -0.000260542)
(0.128366 -4.10313e-25 -0.000260545)
(0.128323 0 -0.000260567)
(0.128281 0 -0.000260596)
(0.12824 0 -0.000260618)
(0.128199 -2.20847e-30 -0.000260635)
(0.128158 0 -0.000260683)
(0.128118 4.00692e-25 -0.000260749)
(0.128079 0 -0.000260812)
(0.12804 0 -0.000260885)
(0.128001 0 -0.000260958)
(0.127964 -2.23497e-30 -0.000261031)
(0.127927 0 -0.000261106)
(0.12789 -3.6185e-25 -0.00026118)
(0.127855 0 -0.000261257)
(0.127819 0 -0.000261323)
(0.127785 0 -0.000261381)
(0.127751 0 -0.000261428)
(0.127717 0 -0.000261448)
(0.127684 0 -0.000261429)
(0.127652 0 -0.000261375)
(0.12762 0 -0.000261317)
(0.127588 2.78838e-25 -0.000261222)
(0.127557 0 -0.000261085)
(0.127527 -1.57043e-30 -0.000260961)
(0.127497 0 -0.000260823)
(0.127467 -1.45427e-30 -0.000260655)
(0.127438 0 -0.000260467)
(0.12741 2.4491e-25 -0.000260258)
(0.127382 0 -0.000260034)
(0.127355 0 -0.000259803)
(0.127329 2.33184e-25 -0.000259565)
(0.127303 -2.3027e-25 -0.000259323)
(0.127278 0 -0.000259083)
(0.127254 0 -0.000258854)
(0.12723 0 -0.000258636)
(0.127207 0 -0.000258434)
(0.127185 1.12135e-30 -0.000258241)
(0.127164 2.16039e-25 -0.000258059)
(0.127143 0 -0.000257828)
(0.127123 0 -0.000257555)
(0.127104 0 -0.00025741)
(0.127085 -1.14458e-30 -0.00025734)
(0.127068 -1.95816e-25 -0.000257235)
(0.127051 0 -0.000257128)
(0.127035 -1.84992e-25 -0.000257016)
(0.12702 0 -0.000256904)
(0.127005 1.73341e-25 -0.000256795)
(0.126991 -1.67232e-25 -0.00025668)
(0.126978 0 -0.000256553)
(0.126966 1.54092e-25 -0.000256411)
(0.126954 0 -0.000256275)
(0.126944 0 -0.000256146)
(0.126933 -9.95562e-31 -0.000256005)
(0.126924 0 -0.00025587)
(0.126915 0 -0.000255764)
(0.126907 -1.12227e-25 -0.000255668)
(0.126899 -9.52813e-31 -0.000255561)
(0.126892 0 -0.000255457)
(0.126885 9.33242e-26 -0.000255355)
(0.126879 0 -0.00025526)
(0.126872 -8.37554e-26 -0.000255173)
(0.126866 0 -0.000255088)
(0.126859 0 -0.000255015)
(0.126852 -7.911e-26 -0.000254953)
(0.126844 0 -0.00025489)
(0.126836 -8.74223e-26 -0.000254833)
(0.126827 0 -0.000254779)
(0.126817 0 -0.000254718)
(0.126805 0 -0.000254663)
(0.126793 -1.12862e-25 -0.000254608)
(0.126779 0 -0.000254559)
(0.126763 1.28904e-25 -0.000254497)
(0.126745 0 -0.000254413)
(0.126726 0 -0.000254321)
(0.126705 0 -0.000254217)
(0.126683 0 -0.000254106)
(0.126658 0 -0.000253988)
(0.126632 0 -0.000253859)
(0.126605 2.06566e-25 -0.000253726)
(0.126575 0 -0.000253594)
(0.126544 9.97442e-31 -0.00025346)
(0.126512 0 -0.000253324)
(0.126479 -1.04465e-30 -0.000253189)
(0.126445 -2.55316e-25 -0.000253061)
(0.12641 0 -0.000252927)
(0.126373 0 -0.000252793)
(0.126337 0 -0.000252662)
(0.126299 0 -0.000252537)
(0.126261 -2.93965e-25 -0.000252433)
(0.126222 0 -0.000252345)
(0.126183 0 -0.000252276)
(0.126144 -1.22099e-30 -0.000252214)
(0.126104 0 -0.000252168)
(0.126064 0 -0.000252136)
(0.126023 0 -0.000252125)
(0.125982 3.41994e-25 -0.000252121)
(0.125941 -1.36116e-30 -0.000252116)
(0.125899 -3.56395e-25 -0.000252112)
(0.125856 0 -0.000252117)
(0.125813 3.71502e-25 -0.000252129)
(0.125769 -3.78767e-25 -0.000252137)
(0.125725 0 -0.000252136)
(0.125679 0 -0.000252121)
(0.125633 3.98352e-25 -0.000252099)
(0.125587 0 -0.000252048)
(0.125539 0 -0.00025197)
(0.125491 0 -0.00025187)
(0.125442 1.74198e-30 -0.000251753)
(0.125392 0 -0.000251622)
(0.125342 0 -0.00025149)
(0.12529 0 -0.000251348)
(0.125238 0 -0.000251202)
(0.125185 1.83373e-30 -0.000251053)
(0.125132 0 -0.000250907)
(0.125078 -1.85678e-30 -0.000250768)
(0.125024 -4.53689e-25 -0.000250636)
(0.124969 0 -0.000250501)
(0.124913 1.89828e-30 -0.000250385)
(0.124857 4.65349e-25 -0.000250283)
(0.124801 0 -0.000250193)
(0.124744 0 -0.000250112)
(0.124687 4.75892e-25 -0.000250055)
(0.12463 4.79248e-25 -0.000250015)
(0.124573 0 -0.000249981)
(0.124516 0 -0.000249964)
(0.124458 1.967e-30 -0.000249961)
(0.1244 1.9656e-30 -0.000249961)
(0.124343 -4.97441e-25 -0.000249966)
(0.124285 0 -0.000249976)
(0.124227 0 -0.000249987)
(0.124169 0 -0.00025001)
(0.124111 0 -0.000250042)
(0.124052 0 -0.000250072)
(0.123994 -5.25576e-25 -0.0002501)
(0.123936 -5.30798e-25 -0.000250121)
(0.123877 0 -0.00025013)
(0.123819 -5.41856e-25 -0.000250137)
(0.12376 0 -0.000250124)
(0.123702 0 -0.000250104)
(0.123644 5.54297e-25 -0.000250073)
(0.123586 0 -0.00025003)
(0.123528 -5.58295e-25 -0.000249979)
(0.12347 -5.58229e-25 -0.000249915)
(0.123413 2.1818e-30 -0.000249828)
(0.123356 2.20258e-30 -0.000249723)
(0.123299 5.47316e-25 -0.000249596)
(0.123243 5.40248e-25 -0.000249457)
(0.123188 0 -0.0002493)
(0.123133 5.21771e-25 -0.000249129)
(0.123079 0 -0.000248938)
(0.123026 2.13525e-30 -0.000248723)
(0.122974 -2.09218e-30 -0.00024852)
(0.122923 -2.04681e-30 -0.000248338)
(0.122873 0 -0.000248158)
(0.122824 0 -0.000247975)
(0.122776 4.3609e-25 -0.000247798)
(0.122728 -1.78964e-30 -0.000247632)
(0.122682 0 -0.00024748)
(0.122636 4.09592e-25 -0.000247352)
(0.12259 4.03475e-25 -0.000247242)
(0.122546 3.9855e-25 -0.00024715)
(0.122502 0 -0.000247072)
(0.122458 3.91315e-25 -0.000247006)
(0.122415 0 -0.000246949)
(0.122372 1.56344e-30 -0.000246893)
(0.12233 3.83335e-25 -0.000246838)
(0.122288 -3.80577e-25 -0.000246783)
(0.122247 0 -0.000246727)
(0.122206 0 -0.000246661)
(0.122165 -1.58365e-30 -0.000246592)
(0.122126 0 -0.000246518)
(0.122086 0 -0.000246428)
(0.122048 3.51667e-25 -0.000246322)
(0.12201 -3.43949e-25 -0.000246202)
(0.121972 0 -0.000246076)
(0.121936 -3.25706e-25 -0.000245939)
(0.1219 0 -0.000245797)
(0.121865 3.04243e-25 -0.000245648)
(0.121831 -2.92665e-25 -0.000245499)
(0.121798 0 -0.000245345)
(0.121765 0 -0.000245191)
(0.121734 0 -0.000245041)
(0.121703 0 -0.0002449)
(0.121673 0 -0.00024476)
(0.121644 2.27083e-25 -0.00024463)
(0.121615 1.28794e-30 -0.000244501)
(0.121587 0 -0.000244385)
(0.12156 1.21254e-30 -0.000244261)
(0.121533 -1.90173e-25 -0.00024415)
(0.121506 -1.82591e-25 -0.000244034)
(0.12148 -1.08311e-30 -0.00024393)
(0.121454 -1.71135e-25 -0.000243821)
(0.121429 9.97361e-31 -0.000243731)
(0.121403 1.65772e-25 -0.000243643)
(0.121378 9.32909e-31 -0.000243571)
(0.121352 0 -0.000243501)
(0.121327 0 -0.000243445)
(0.121301 0 -0.000243385)
(0.121274 -1.74381e-25 -0.000243336)
(0.121247 0 -0.000243286)
(0.12122 0 -0.000243238)
(0.121192 0 -0.000243185)
(0.121164 0 -0.000243139)
(0.121135 0 -0.000243067)
(0.121106 0 -0.000242996)
(0.121077 0 -0.000242902)
(0.121047 0 -0.000242805)
(0.121017 0 -0.00024269)
(0.120987 8.32905e-31 -0.000242571)
(0.120957 2.26759e-25 -0.000242434)
(0.120926 0 -0.000242296)
(0.120896 0 -0.000242161)
(0.120865 0 -0.000242038)
(0.120834 -2.39165e-25 -0.000241925)
(0.120804 0 -0.000241825)
(0.120773 2.45256e-25 -0.000241743)
(0.120742 -2.492e-25 -0.000241681)
(0.120711 9.1401e-31 -0.000241633)
(0.120679 2.59543e-25 -0.000241612)
(0.120648 -2.66054e-25 -0.000241603)
(0.120616 -2.72983e-25 -0.000241617)
(0.120583 0 -0.000241644)
(0.12055 -2.8946e-25 -0.000241683)
(0.120516 0 -0.000241727)
(0.120482 0 -0.000241762)
(0.120447 0 -0.0002418)
(0.12041 0 -0.000241824)
(0.120373 0 -0.000241849)
(0.120335 0 -0.000241869)
(0.120295 0 -0.000241888)
(0.120255 -3.71136e-25 -0.000241905)
(0.120213 3.84041e-25 -0.000241921)
(0.12017 0 -0.000241921)
(0.120125 -4.07603e-25 -0.000241897)
(0.12008 1.46706e-30 -0.000241846)
(0.120034 -1.47273e-30 -0.000241769)
(0.119987 -1.52385e-30 -0.000241676)
(0.119939 4.44309e-25 -0.000241558)
(0.11989 4.49264e-25 -0.000241437)
(0.119841 4.57156e-25 -0.000241303)
(0.119791 0 -0.000241176)
(0.119741 0 -0.000241062)
(0.119691 1.42326e-30 -0.000240942)
(0.11964 0 -0.000240835)
(0.119589 1.39401e-30 -0.000240738)
(0.119538 0 -0.000240639)
(0.119486 1.39086e-30 -0.000240539)
(0.119434 -5.23945e-25 -0.000240437)
(0.119381 0 -0.000240315)
(0.119328 0 -0.000240195)
(0.119274 0 -0.000240071)
(0.11922 0 -0.000239938)
(0.119165 0 -0.000239808)
(0.11911 0 -0.000239676)
(0.119053 1.85004e-30 -0.000239543)
(0.118996 -6.35119e-25 -0.000239403)
(0.118938 -6.39887e-25 -0.000239272)
(0.118879 0 -0.000239158)
(0.11882 -6.57461e-25 -0.00023904)
(0.118759 0 -0.000238935)
(0.118699 -6.70261e-25 -0.000238822)
(0.118637 -6.88261e-25 -0.000238705)
(0.118575 -2.70857e-30 -0.000238557)
(0.118512 0 -0.000238376)
(0.118449 0 -0.00023815)
(0.118385 0 -0.000237846)
(0.11832 7.73856e-25 -0.000237482)
(0.118253 0 -0.000236912)
(0.118185 -2.24684e-30 -0.000236129)
(0.118112 1.97681e-30 -0.000234965)
(0.118036 -1.63517e-30 -0.00023324)
(0.117949 0 -0.000230667)
(0.117856 2.06562e-24 -0.00022696)
(0.117738 -3.34341e-30 -0.000221465)
(0.117606 0 -0.000213606)
(0.117427 0 -0.000202902)
(0.117219 -5.68305e-24 -0.00018657)
(0.11691 -7.98639e-24 -0.000201953)
(0.116589 0 -0.000160949)
(0.115765 0 -0.00165061)
(0.114352 0 -0.00169829)
(0.112583 0 -0.000225165)
(0.110339 1.28909e-28 -0.000220678)
(0.106936 0 -0.000213873)
(0.102177 0 -0.000204353)
(0.0952695 0 -0.000190539)
(0.0851585 4.74269e-22 -0.000170317)
(0.0669121 0 -0.000133824)
(0.0252892 0 -5.05783e-05)
(-0.0526362 0 0.000105272)
(-0.0682054 0 0.000136411)
)
;

boundaryField
{
    inlet
    {
        type            calculated;
        value           uniform (0 0 0);
    }
    endWall
    {
        type            calculated;
        value           uniform (0 0 0);
    }
    sideWall
    {
        type            empty;
    }
}


// ************************************************************************* //
