/*--------------------------------*- C++ -*----------------------------------*\
| =========                 |                                                 |
| \\      /  F ield         | foam-extend: Open Source CFD                    |
|  \\    /   O peration     | Version:     3.2                                |
|   \\  /    A nd           | Web:         http://www.foam-extend.org         |
|    \\/     M anipulation  | For copyright notice see file Copyright         |
\*---------------------------------------------------------------------------*/
FoamFile
{
    version     2.0;
    format      ascii;
    class       areaScalarField;
    location    "910";
    object      Cs;
}
// * * * * * * * * * * * * * * * * * * * * * * * * * * * * * * * * * * * * * //

dimensions      [0 0 0 0 0 0 0];

internalField   nonuniform List<scalar> 
550
(
0.342991
0.342704
0.342991
0.342991
0.342991
0.342991
0.340843
0.342991
0.342991
0.339949
0.342991
0.339624
0.342991
0.342991
0.339427
0.342991
0.342991
0.339418
0.339437
0.339464
0.339498
0.342991
0.339573
0.342991
0.342991
0.342991
0.342991
0.339738
0.342991
0.342991
0.342991
0.342991
0.339964
0.340012
0.340052
0.340081
0.342991
0.34012
0.340136
0.342991
0.340174
0.340198
0.342991
0.340243
0.34026
0.34027
0.34027
0.340258
0.340239
0.340209
0.342991
0.342991
0.340129
0.342991
0.340118
0.342991
0.340156
0.342991
0.342991
0.340274
0.340313
0.342991
0.342991
0.342991
0.342991
0.340437
0.342991
0.340449
0.342991
0.340445
0.340434
0.342991
0.342991
0.340376
0.340354
0.342991
0.342991
0.342991
0.340303
0.342991
0.340346
0.340392
0.342991
0.342991
0.342991
0.342991
0.342991
0.340805
0.340863
0.340904
0.340934
0.342991
0.340946
0.340934
0.342991
0.342991
0.34086
0.342991
0.340808
0.340791
0.340776
0.342991
0.342991
0.340765
0.342991
0.342991
0.342991
0.342991
0.342991
0.342991
0.342991
0.311522
0.341006
0.341036
0.275845
0.283764
0.341102
0.259029
0.276221
0.341237
0.341307
0.2386
0.341387
0.341398
0.342991
0.208688
0.341523
0.34145
0.341408
0.341499
0.342991
0.203501
0.341486
0.341516
0.341501
0.341492
0.341525
0.341561
0.14783
0.341612
0.341535
0.341471
0.341503
0.341515
0.341578
0.341595
0.146042
0.341618
0.341607
0.34162
0.34164
0.342991
0.3417
0.341633
0.341677
0.342991
0.341705
0.341697
0.341767
0.125447
0.341817
0.341808
0.341801
0.341826
0.341872
0.341859
0.341922
0.342991
0.342002
0.341989
0.34209
0.342156
0.342159
0.342219
0.34226
0.342264
0.342247
0.342286
0.0765876
0.342382
0.342435
0.342467
0.342456
0.342476
0.342554
0.342664
0.342672
0.342665
0.342766
0.342862
0.342903
0.342983
0.0683082
0.342929
0.342948
0.342986
0.342944
0.342979
0.342971
0.342941
0.342975
0.342887
0.342807
0.342762
0.342636
0.342515
0.342339
0.342319
0.342298
0.342253
0.34233
0.342342
0.3424
0.342494
0.342904
0.342991
0.342417
0.341696
0.340882
0.340016
0.339178
0.338342
0.337554
0.336762
0.336001
0.335227
0.334474
0.333721
0.332991
0.332283
0.331604
0.330963
0.33037
0.329809
0.329324
0.328841
0.328472
0.328173
0.32773
0.327448
0.327749
0.327719
0.326729
0.328346
0.328228
0.329332
0.328992
0.32775
0.328991
0.329198
0.329157
0.329623
0.329255
0.330087
0.330703
0.33062
0.330317
0.330214
0.330142
0.330631
0.330441
0.330234
0.330611
0.331186
0.331917
0.332328
0.332859
0.333256
0.333464
0.333926
0.334349
0.334505
0.334804
0.334956
0.334949
0.334968
0.335064
0.335013
0.334816
0.334746
0.33476
0.33472
0.33457
0.334345
0.334131
0.333973
0.333834
0.333638
0.333441
0.333292
0.333191
0.333106
0.33299
0.332865
0.332781
0.332737
0.33272
0.33271
0.33267
0.332611
0.332541
0.332467
0.332409
0.332375
0.332355
0.332344
0.33234
0.332343
0.332353
0.332368
0.33239
0.332416
0.332444
0.332476
0.332512
0.332553
0.332597
0.332643
0.332685
0.332721
0.332747
0.332764
0.332772
0.332771
0.332763
0.332746
0.332722
0.332691
0.332656
0.332614
0.332567
0.332518
0.332466
0.33241
0.332349
0.332284
0.332214
0.33214
0.33206
0.331977
0.331888
0.33179
0.331682
0.331564
0.331438
0.3313
0.331152
0.330999
0.330836
0.330665
0.330506
0.33036
0.330238
0.33016
0.330129
0.330138
0.330202
0.330311
0.330441
0.330612
0.330807
0.331001
0.331225
0.331494
0.331754
0.332026
0.332323
0.332577
0.332747
0.332841
0.332913
0.333005
0.333116
0.333243
0.333373
0.333503
0.333639
0.333769
0.33389
0.334
0.3341
0.334168
0.334205
0.334217
0.334189
0.334146
0.334091
0.334035
0.333981
0.333937
0.333909
0.33389
0.333883
0.333888
0.33391
0.333938
0.333979
0.334026
0.334076
0.334129
0.334181
0.334231
0.334283
0.334331
0.334379
0.334424
0.334469
0.334509
0.334552
0.334592
0.334637
0.33468
0.334732
0.334778
0.334828
0.334883
0.334936
0.334993
0.335049
0.335108
0.335171
0.335232
0.335295
0.335354
0.335413
0.335473
0.335533
0.335587
0.335641
0.335691
0.335745
0.335793
0.335841
0.335882
0.335928
0.335966
0.336008
0.336043
0.336078
0.336105
0.336138
0.336164
0.33619
0.336219
0.336237
0.336259
0.336279
0.336291
0.336301
0.336307
0.336309
0.336308
0.336298
0.33629
0.336274
0.336249
0.336228
0.336204
0.336173
0.33614
0.336106
0.33607
0.336034
0.335993
0.335958
0.335916
0.335873
0.335835
0.335788
0.335744
0.335697
0.335637
0.335577
0.335509
0.335437
0.33535
0.335258
0.335155
0.335048
0.334924
0.334793
0.334652
0.3345
0.334343
0.334171
0.333989
0.333799
0.333603
0.333401
0.333196
0.332987
0.332777
0.332564
0.332351
0.332137
0.331925
0.331709
0.331493
0.331275
0.331064
0.330848
0.330639
0.330431
0.330222
0.330021
0.329819
0.329627
0.329434
0.329246
0.329063
0.328887
0.328718
0.328548
0.328391
0.328232
0.328078
0.327926
0.327783
0.327634
0.327488
0.327341
0.327203
0.327064
0.326925
0.326795
0.326658
0.326536
0.326399
0.326291
0.326132
0.326028
0.325755
0.325555
0.324868
0.324389
0.322863
0.321211
0.318282
0.312354
0.323927
0.342991
0.342991
0.342991
0.342991
0.342991
0.342991
0.342991
0.342991
0.229995
0.247998
)
;

boundaryField
{
    inlet
    {
        type            calculated;
        value           uniform 0;
    }
    endWall
    {
        type            calculated;
        value           uniform 0;
    }
    sideWall
    {
        type            empty;
    }
}


// ************************************************************************* //
