/*--------------------------------*- C++ -*----------------------------------*\
| =========                 |                                                 |
| \\      /  F ield         | foam-extend: Open Source CFD                    |
|  \\    /   O peration     | Version:     3.2                                |
|   \\  /    A nd           | Web:         http://www.foam-extend.org         |
|    \\/     M anipulation  | For copyright notice see file Copyright         |
\*---------------------------------------------------------------------------*/
FoamFile
{
    version     2.0;
    format      ascii;
    class       volVectorField;
    location    "910";
    object      meshCentreN;
}
// * * * * * * * * * * * * * * * * * * * * * * * * * * * * * * * * * * * * * //

dimensions      [0 1 0 0 0 0 0];

internalField   nonuniform List<vector> 
33000
(
(0.0090909 0.01 0.00248182)
(0.0272727 0.01 0.00244545)
(0.0454546 0.01 0.00240909)
(0.0636364 0.01 0.00237273)
(0.0818182 0.01 0.00233636)
(0.1 0.01 0.0023)
(0.118182 0.01 0.00226364)
(0.136364 0.01 0.00222727)
(0.154546 0.01 0.00219091)
(0.172727 0.01 0.00215455)
(0.190909 0.01 0.00211818)
(0.209091 0.01 0.00208182)
(0.227273 0.01 0.00204545)
(0.245455 0.01 0.00200909)
(0.263636 0.01 0.00197273)
(0.281818 0.01 0.00193636)
(0.3 0.01 0.0019)
(0.318182 0.01 0.00186364)
(0.336364 0.01 0.00182727)
(0.354546 0.01 0.00179091)
(0.372727 0.01 0.00175455)
(0.390909 0.01 0.00171818)
(0.409091 0.01 0.00168182)
(0.427273 0.01 0.00164545)
(0.445455 0.01 0.00160909)
(0.463636 0.01 0.00157273)
(0.481818 0.01 0.00153636)
(0.5 0.01 0.0015)
(0.518182 0.01 0.00146364)
(0.536364 0.01 0.00142727)
(0.554545 0.01 0.00139091)
(0.572727 0.01 0.00135455)
(0.590909 0.01 0.00131818)
(0.609091 0.01 0.00128182)
(0.627273 0.01 0.00124546)
(0.645455 0.01 0.00120909)
(0.663636 0.01 0.00117273)
(0.681818 0.01 0.00113637)
(0.7 0.01 0.0011)
(0.718182 0.01 0.00106364)
(0.736364 0.01 0.00102727)
(0.754546 0.01 0.00099091)
(0.772727 0.01 0.000954545)
(0.790909 0.01 0.00091818)
(0.809091 0.01 0.00088182)
(0.827273 0.01 0.000845455)
(0.845455 0.01 0.00080909)
(0.863636 0.01 0.00077273)
(0.881818 0.01 0.000736365)
(0.9 0.01 0.0007)
(0.918182 0.01 0.000663635)
(0.936364 0.01 0.00062727)
(0.954546 0.01 0.00059091)
(0.972727 0.01 0.000554545)
(0.990909 0.01 0.00051818)
(1.00909 0.01 0.00048182)
(1.02727 0.01 0.000445455)
(1.04545 0.01 0.00040909)
(1.06364 0.01 0.00037273)
(1.08182 0.01 0.000336365)
(1.1 0.01 0.0003)
(1.11818 0.01 0.000263635)
(1.13636 0.01 0.00022727)
(1.15454 0.01 0.00019091)
(1.17273 0.01 0.000154545)
(1.19091 0.01 0.00011818)
(1.20909 0.01 8.182e-05)
(1.22727 0.01 4.5455e-05)
(1.24545 0.01 9.09e-06)
(1.26364 0.01 -2.727e-05)
(1.28182 0.01 -6.3635e-05)
(1.3 0.01 -0.0001)
(1.31818 0.01 -0.000136365)
(1.33636 0.01 -0.00017273)
(1.35454 0.01 -0.00020909)
(1.37273 0.01 -0.000245455)
(1.39091 0.01 -0.00028182)
(1.40909 0.01 -0.00031818)
(1.42727 0.01 -0.000354545)
(1.44545 0.01 -0.00039091)
(1.46364 0.01 -0.00042727)
(1.48182 0.01 -0.000463635)
(1.5 0.01 -0.0005)
(1.51818 0.01 -0.000536365)
(1.53636 0.01 -0.00057273)
(1.55454 0.01 -0.00060909)
(1.57273 0.01 -0.000645455)
(1.59091 0.01 -0.00068182)
(1.60909 0.01 -0.00071818)
(1.62727 0.01 -0.000754545)
(1.64545 0.01 -0.00079091)
(1.66364 0.01 -0.00082727)
(1.68182 0.01 -0.000863635)
(1.7 0.01 -0.0009)
(1.71818 0.01 -0.000936365)
(1.73636 0.01 -0.00097273)
(1.75454 0.01 -0.00100909)
(1.77273 0.01 -0.00104546)
(1.79091 0.01 -0.00108182)
(1.80909 0.01 -0.00111818)
(1.82727 0.01 -0.00115455)
(1.84545 0.01 -0.00119091)
(1.86364 0.01 -0.00122727)
(1.88182 0.01 -0.00126364)
(1.9 0.01 -0.0013)
(1.91818 0.01 -0.00133637)
(1.93636 0.01 -0.00137273)
(1.95455 0.01 -0.00140909)
(1.97273 0.01 -0.00144547)
(1.99091 0.01 -0.00148223)
(2.00909 0.01 -0.0015194)
(2.02727 0.01 -0.00155569)
(2.04545 0.01 -0.00159037)
(2.06364 0.01 -0.0016259)
(2.08182 0.01 -0.00166498)
(2.1 0.01 -0.00170286)
(2.11818 0.01 -0.00173553)
(2.13636 0.01 -0.00177409)
(2.15454 0.01 -0.00181045)
(2.17273 0.01 -0.00184306)
(2.19091 0.01 -0.00188275)
(2.20909 0.01 -0.00192102)
(2.22727 0.01 -0.00195461)
(2.24545 0.01 -0.00198831)
(2.26364 0.01 -0.00203107)
(2.28182 0.01 -0.00207107)
(2.3 0.01 -0.00209839)
(2.31818 0.01 -0.00212479)
(2.33636 0.01 -0.00216356)
(2.35454 0.01 -0.00221273)
(2.37273 0.01 -0.00225727)
(2.39091 0.01 -0.00229203)
(2.40909 0.01 -0.0023215)
(2.42727 0.01 -0.00235643)
(2.44545 0.01 -0.00239344)
(2.46364 0.01 -0.00242741)
(2.48182 0.01 -0.00246614)
(2.5 0.01 -0.00251144)
(2.51818 0.01 -0.00255461)
(2.53636 0.01 -0.00258549)
(2.55454 0.01 -0.00260464)
(2.57273 0.01 -0.00264051)
(2.59091 0.01 -0.00268591)
(2.60909 0.01 -0.00272044)
(2.62727 0.01 -0.00276083)
(2.64545 0.01 -0.00280415)
(2.66364 0.01 -0.00284247)
(2.68182 0.01 -0.00287518)
(2.7 0.01 -0.00290676)
(2.71818 0.01 -0.00294338)
(2.73636 0.01 -0.00298245)
(2.75455 0.01 -0.00302464)
(2.77273 0.01 -0.00305785)
(2.79091 0.01 -0.00308184)
(2.80909 0.01 -0.00312363)
(2.82727 0.01 -0.0031708)
(2.84545 0.01 -0.00320135)
(2.86364 0.01 -0.00323357)
(2.88182 0.01 -0.00327612)
(2.9 0.01 -0.00331278)
(2.91818 0.01 -0.00334203)
(2.93636 0.01 -0.00337328)
(2.95454 0.01 -0.00340802)
(2.97273 0.01 -0.00344933)
(2.99091 0.01 -0.00348946)
(3.00909 0.01 -0.0035196)
(3.02727 0.01 -0.00355806)
(3.04546 0.01 -0.00360312)
(3.06364 0.01 -0.00363407)
(3.08182 0.01 -0.00366096)
(3.1 0.01 -0.00370109)
(3.11818 0.01 -0.00374325)
(3.13636 0.01 -0.0037787)
(3.15455 0.01 -0.00381314)
(3.17273 0.01 -0.00384658)
(3.19091 0.01 -0.00388017)
(3.20909 0.01 -0.00391763)
(3.22727 0.01 -0.00396138)
(3.24545 0.01 -0.00399839)
(3.26364 0.01 -0.0040255)
(3.28182 0.01 -0.00405687)
(3.3 0.01 -0.00408883)
(3.31818 0.01 -0.00412479)
(3.33636 0.01 -0.00416679)
(3.35454 0.01 -0.00420737)
(3.37273 0.01 -0.00425006)
(3.39091 0.01 -0.00428391)
(3.40909 0.01 -0.0043106)
(3.42727 0.01 -0.00435114)
(3.44545 0.01 -0.0043935)
(3.46364 0.01 -0.00442673)
(3.48182 0.01 -0.00446135)
(3.5 0.01 -0.00448833)
(3.51818 0.01 -0.00450887)
(3.53636 0.01 -0.00454369)
(3.55455 0.01 -0.00459077)
(3.57273 0.01 -0.00463435)
(3.59091 0.01 -0.00467057)
(3.60909 0.01 -0.00469719)
(3.62727 0.01 -0.00472567)
(3.64546 0.01 -0.00476536)
(3.66364 0.01 -0.00479288)
(3.68182 0.01 -0.00480781)
(3.7 0.01 -0.00482368)
(3.71818 0.01 -0.0048389)
(3.73636 0.01 -0.00485667)
(3.75454 0.01 -0.00487712)
(3.77273 0.01 -0.00490451)
(3.79091 0.01 -0.00493008)
(3.80909 0.01 -0.00495472)
(3.82727 0.01 -0.00498324)
(3.84546 0.01 -0.00500734)
(3.86364 0.01 -0.00503242)
(3.88182 0.01 -0.00505991)
(3.9 0.01 -0.00508407)
(3.91818 0.01 -0.00506495)
(3.93636 0.01 -0.00499862)
(3.95455 0.01 -0.00493606)
(3.97273 0.01 -0.00488088)
(3.99091 0.01 -0.00482376)
(4.00909 0.01 -0.0047683)
(4.02727 0.01 -0.00471162)
(4.04546 0.01 -0.00465587)
(4.06364 0.01 -0.00460026)
(4.08182 0.01 -0.00454644)
(4.1 0.01 -0.00449402)
(4.11818 0.01 -0.00444406)
(4.13636 0.01 -0.00439662)
(4.15455 0.01 -0.00435219)
(4.17273 0.01 -0.00431137)
(4.19091 0.01 -0.00427415)
(4.20909 0.01 -0.00424131)
(4.22727 0.01 -0.00421267)
(4.24545 0.01 -0.0041886)
(4.26364 0.01 -0.00416922)
(4.28182 0.01 -0.00415369)
(4.3 0.01 -0.00414335)
(4.31818 0.01 -0.00413415)
(4.33636 0.01 -0.00413318)
(4.35454 0.01 -0.00413924)
(4.37273 0.01 -0.00414657)
(4.39091 0.01 -0.00414858)
(4.40909 0.01 -0.00416862)
(4.42727 0.01 -0.00419945)
(4.44546 0.01 -0.0042171)
(4.46364 0.01 -0.00423022)
(4.48182 0.01 -0.00422821)
(4.5 0.01 -0.00424552)
(4.51818 0.01 -0.0042785)
(4.53636 0.01 -0.00429867)
(4.55455 0.01 -0.00432026)
(4.57273 0.01 -0.00434346)
(4.59091 0.01 -0.00436985)
(4.60909 0.01 -0.00440289)
(4.62727 0.01 -0.00442433)
(4.64546 0.01 -0.00443685)
(4.66364 0.01 -0.00445171)
(4.68182 0.01 -0.00447228)
(4.7 0.01 -0.00449939)
(4.71818 0.01 -0.00452739)
(4.73636 0.01 -0.00455263)
(4.75455 0.01 -0.00458703)
(4.77273 0.01 -0.00463211)
(4.79091 0.01 -0.00468044)
(4.80909 0.01 -0.0047269)
(4.82727 0.01 -0.00477012)
(4.84545 0.01 -0.00481282)
(4.86364 0.01 -0.00485255)
(4.88182 0.01 -0.00489245)
(4.9 0.01 -0.00493297)
(4.91818 0.01 -0.00496893)
(4.93636 0.01 -0.00500123)
(4.95454 0.01 -0.00503149)
(4.97273 0.01 -0.00505684)
(4.99091 0.01 -0.0050793)
(5.00909 0.01 -0.00510067)
(5.02727 0.01 -0.0051192)
(5.04545 0.01 -0.00513344)
(5.06364 0.01 -0.00514627)
(5.08182 0.01 -0.00515948)
(5.1 0.01 -0.0051708)
(5.11818 0.01 -0.00517839)
(5.13636 0.01 -0.00518252)
(5.15455 0.01 -0.00518495)
(5.17273 0.01 -0.00518718)
(5.19091 0.01 -0.00518915)
(5.20909 0.01 -0.00518997)
(5.22727 0.01 -0.00518994)
(5.24545 0.01 -0.00519029)
(5.26364 0.01 -0.00519145)
(5.28182 0.01 -0.00519296)
(5.3 0.01 -0.00519411)
(5.31818 0.01 -0.00519503)
(5.33636 0.01 -0.00519661)
(5.35454 0.01 -0.0051993)
(5.37273 0.01 -0.00520268)
(5.39091 0.01 -0.00520625)
(5.40909 0.01 -0.00520938)
(5.42727 0.01 -0.00521197)
(5.44546 0.01 -0.00521434)
(5.46364 0.01 -0.0052169)
(5.48182 0.01 -0.00522002)
(5.5 0.01 -0.00522403)
(5.51818 0.01 -0.00522882)
(5.53636 0.01 -0.00523426)
(5.55455 0.01 -0.00524024)
(5.57273 0.01 -0.00524673)
(5.59091 0.01 -0.00525369)
(5.60909 0.01 -0.00526114)
(5.62727 0.01 -0.00526903)
(5.64545 0.01 -0.00527734)
(5.66364 0.01 -0.00528599)
(5.68182 0.01 -0.00529495)
(5.7 0.01 -0.00530417)
(5.71818 0.01 -0.00531365)
(5.73636 0.01 -0.0053233)
(5.75455 0.01 -0.00533297)
(5.77273 0.01 -0.00534252)
(5.79091 0.01 -0.00535179)
(5.80909 0.01 -0.00536059)
(5.82727 0.01 -0.0053689)
(5.84545 0.01 -0.00537672)
(5.86364 0.01 -0.00538401)
(5.88182 0.01 -0.00539074)
(5.9 0.01 -0.00539692)
(5.91818 0.01 -0.00540248)
(5.93636 0.01 -0.00540745)
(5.95455 0.01 -0.00541183)
(5.97273 0.01 -0.00541559)
(5.99091 0.01 -0.00541873)
(6.00909 0.01 -0.00542122)
(6.02727 0.01 -0.00542301)
(6.04546 0.01 -0.00542394)
(6.06364 0.01 -0.00542373)
(6.08182 0.01 -0.00542244)
(6.1 0.01 -0.00542018)
(6.11818 0.01 -0.00541708)
(6.13636 0.01 -0.00541328)
(6.15454 0.01 -0.00540883)
(6.17273 0.01 -0.00540378)
(6.19091 0.01 -0.00539815)
(6.20909 0.01 -0.00539206)
(6.22727 0.01 -0.00538571)
(6.24546 0.01 -0.00537925)
(6.26364 0.01 -0.00537283)
(6.28182 0.01 -0.00536669)
(6.3 0.01 -0.0053611)
(6.31818 0.01 -0.00535627)
(6.33636 0.01 -0.00535247)
(6.35455 0.01 -0.00535016)
(6.37273 0.01 -0.00534937)
(6.39091 0.01 -0.00535006)
(6.40909 0.01 -0.00535282)
(6.42727 0.01 -0.00535802)
(6.44546 0.01 -0.0053657)
(6.46364 0.01 -0.00537594)
(6.48182 0.01 -0.00538882)
(6.5 0.01 -0.00540396)
(6.51818 0.01 -0.00542127)
(6.53636 0.01 -0.00544076)
(6.55454 0.01 -0.00546191)
(6.57273 0.01 -0.00548472)
(6.59091 0.01 -0.00550943)
(6.60909 0.01 -0.00553535)
(6.62727 0.01 -0.00556177)
(6.64546 0.01 -0.00558856)
(6.66364 0.01 -0.00561474)
(6.68182 0.01 -0.00563907)
(6.7 0.01 -0.00566152)
(6.71818 0.01 -0.00568318)
(6.73636 0.01 -0.00570529)
(6.75455 0.01 -0.00572818)
(6.77273 0.01 -0.00575155)
(6.79091 0.01 -0.00577512)
(6.80909 0.01 -0.00579864)
(6.82727 0.01 -0.00582197)
(6.84546 0.01 -0.0058449)
(6.86364 0.01 -0.00586715)
(6.88182 0.01 -0.0058885)
(6.9 0.01 -0.00590881)
(6.91818 0.01 -0.00592774)
(6.93636 0.01 -0.00594503)
(6.95455 0.01 -0.00596078)
(6.97273 0.01 -0.00597504)
(6.99091 0.01 -0.00598811)
(7.00909 0.01 -0.00600044)
(7.02727 0.01 -0.00601231)
(7.04545 0.01 -0.006024)
(7.06364 0.01 -0.00603575)
(7.08182 0.01 -0.00604775)
(7.1 0.01 -0.00606004)
(7.11818 0.01 -0.00607263)
(7.13636 0.01 -0.0060856)
(7.15454 0.01 -0.00609901)
(7.17273 0.01 -0.0061128)
(7.19091 0.01 -0.00612688)
(7.20909 0.01 -0.00614122)
(7.22727 0.01 -0.00615573)
(7.24546 0.01 -0.00617034)
(7.26364 0.01 -0.00618499)
(7.28182 0.01 -0.00619961)
(7.3 0.01 -0.00621421)
(7.31818 0.01 -0.00622881)
(7.33636 0.01 -0.00624337)
(7.35455 0.01 -0.00625789)
(7.37273 0.01 -0.00627238)
(7.39091 0.01 -0.00628688)
(7.40909 0.01 -0.00630137)
(7.42727 0.01 -0.00631593)
(7.44545 0.01 -0.00633062)
(7.46364 0.01 -0.00634545)
(7.48182 0.01 -0.00636041)
(7.5 0.01 -0.00637551)
(7.51818 0.01 -0.0063907)
(7.53636 0.01 -0.00640608)
(7.55454 0.01 -0.00642162)
(7.57273 0.01 -0.00643728)
(7.59091 0.01 -0.00645309)
(7.60909 0.01 -0.00646904)
(7.62727 0.01 -0.00648516)
(7.64545 0.01 -0.00650141)
(7.66364 0.01 -0.00651772)
(7.68182 0.01 -0.00653409)
(7.7 0.01 -0.00655051)
(7.71818 0.01 -0.006567)
(7.73636 0.01 -0.00658355)
(7.75454 0.01 -0.00660011)
(7.77273 0.01 -0.00661665)
(7.79091 0.01 -0.0066332)
(7.80909 0.01 -0.00664979)
(7.82727 0.01 -0.0066664)
(7.84545 0.01 -0.00668295)
(7.86364 0.01 -0.00669944)
(7.88182 0.01 -0.00671591)
(7.9 0.01 -0.00673233)
(7.91818 0.01 -0.00674868)
(7.93636 0.01 -0.00676495)
(7.95454 0.01 -0.00678109)
(7.97273 0.01 -0.00679711)
(7.99091 0.01 -0.00681305)
(8.00909 0.01 -0.0068289)
(8.02727 0.01 -0.00684462)
(8.04546 0.01 -0.00686025)
(8.06364 0.01 -0.00687569)
(8.08182 0.01 -0.00689089)
(8.1 0.01 -0.00690593)
(8.11818 0.01 -0.00692068)
(8.13636 0.01 -0.00693514)
(8.15455 0.01 -0.00694933)
(8.17273 0.01 -0.00696323)
(8.19091 0.01 -0.00697683)
(8.20909 0.01 -0.00699009)
(8.22727 0.01 -0.00700304)
(8.24545 0.01 -0.00701571)
(8.26364 0.01 -0.00702802)
(8.28182 0.01 -0.00704007)
(8.3 0.01 -0.00705194)
(8.31818 0.01 -0.00706353)
(8.33636 0.01 -0.00707486)
(8.35455 0.01 -0.00708601)
(8.37273 0.01 -0.00709698)
(8.39091 0.01 -0.00710776)
(8.40909 0.01 -0.00711834)
(8.42727 0.01 -0.00712873)
(8.44545 0.01 -0.00713893)
(8.46364 0.01 -0.00714883)
(8.48182 0.01 -0.0071585)
(8.5 0.01 -0.00716782)
(8.51818 0.01 -0.00717671)
(8.53636 0.01 -0.00718508)
(8.55455 0.01 -0.00719277)
(8.57273 0.01 -0.00719966)
(8.59091 0.01 -0.00720571)
(8.60909 0.01 -0.00721071)
(8.62727 0.01 -0.00721445)
(8.64546 0.01 -0.00721673)
(8.66364 0.01 -0.00721711)
(8.68182 0.01 -0.0072154)
(8.7 0.01 -0.00721176)
(8.71818 0.01 -0.00720651)
(8.73636 0.01 -0.00719983)
(8.75454 0.01 -0.00719189)
(8.77273 0.01 -0.00718287)
(8.79091 0.01 -0.00717287)
(8.80909 0.01 -0.00716201)
(8.82727 0.01 -0.00715048)
(8.84545 0.01 -0.00713841)
(8.86364 0.01 -0.00712592)
(8.88182 0.01 -0.0071131)
(8.9 0.01 -0.00710003)
(8.91818 0.01 -0.00708678)
(8.93636 0.01 -0.00707342)
(8.95454 0.01 -0.00705999)
(8.97273 0.01 -0.00704656)
(8.99091 0.01 -0.00703318)
(9.00909 0.01 -0.00701983)
(9.02727 0.01 -0.00700656)
(9.04545 0.01 -0.00699349)
(9.06364 0.01 -0.00698063)
(9.08182 0.01 -0.006968)
(9.1 0.01 -0.00695563)
(9.11818 0.01 -0.00694352)
(9.13636 0.01 -0.00693164)
(9.15455 0.01 -0.00692003)
(9.17273 0.01 -0.00690867)
(9.19091 0.01 -0.00689755)
(9.20909 0.01 -0.00688661)
(9.22727 0.01 -0.00687582)
(9.24545 0.01 -0.00686518)
(9.26364 0.01 -0.00685465)
(9.28182 0.01 -0.00684409)
(9.3 0.01 -0.00683345)
(9.31818 0.01 -0.00682262)
(9.33636 0.01 -0.00681166)
(9.35454 0.01 -0.00680039)
(9.37273 0.01 -0.00678862)
(9.39091 0.01 -0.0067767)
(9.40909 0.01 -0.00676357)
(9.42727 0.01 -0.00675066)
(9.44545 0.01 -0.00673472)
(9.46364 0.01 -0.00672129)
(9.48182 0.01 -0.00669993)
(9.5 0.01 -0.00668642)
(9.51818 0.01 -0.0066587)
(9.53637 0.01 -0.00664802)
(9.55454 0.01 -0.00662144)
(9.57274 0.01 -0.00662308)
(9.5909 0.01 -0.00661174)
(9.6091 0.01 -0.00664059)
(9.62725 0.01 -0.00666735)
(9.64547 0.01 -0.00674443)
(9.66362 0.01 -0.00684331)
(9.68184 0.01 -0.00699557)
(9.69998 0.01 -0.00721124)
(9.7182 0.01 -0.00749675)
(9.73634 0.01 -0.00792304)
(9.75456 0.01 -0.00856602)
(9.77271 0.01 -0.00959847)
(9.79092 0.01 -0.0114192)
(9.80921 0.01 -0.0148405)
(9.82716 0.01 -0.0170598)
(9.84546 0.01 -0.0171916)
(9.86364 0.01 -0.0172267)
(9.88182 0.01 -0.0172634)
(9.9 0.01 -0.0172999)
(9.91818 0.01 -0.0173363)
(9.93636 0.01 -0.0173727)
(9.95454 0.01 -0.0174091)
(9.97273 0.01 -0.0174454)
(9.99091 0.01 -0.0174818)
(0.0090909 0.01 0.00748182)
(0.0272727 0.01 0.00744546)
(0.0454545 0.01 0.00740909)
(0.0636364 0.01 0.00737273)
(0.0818182 0.01 0.00733637)
(0.1 0.01 0.0073)
(0.118182 0.01 0.00726363)
(0.136364 0.01 0.00722727)
(0.154545 0.01 0.00719091)
(0.172727 0.01 0.00715454)
(0.190909 0.01 0.00711818)
(0.209091 0.01 0.00708182)
(0.227273 0.01 0.00704545)
(0.245454 0.01 0.00700909)
(0.263636 0.01 0.00697273)
(0.281818 0.01 0.00693637)
(0.3 0.01 0.0069)
(0.318182 0.01 0.00686364)
(0.336364 0.01 0.00682727)
(0.354545 0.01 0.00679091)
(0.372727 0.01 0.00675455)
(0.390909 0.01 0.00671818)
(0.409091 0.01 0.00668182)
(0.427273 0.01 0.00664546)
(0.445454 0.01 0.00660909)
(0.463636 0.01 0.00657273)
(0.481818 0.01 0.00653637)
(0.5 0.01 0.0065)
(0.518182 0.01 0.00646364)
(0.536364 0.01 0.00642727)
(0.554546 0.01 0.00639091)
(0.572727 0.01 0.00635454)
(0.590909 0.01 0.00631818)
(0.609091 0.01 0.00628182)
(0.627273 0.01 0.00624545)
(0.645454 0.01 0.00620909)
(0.663636 0.01 0.00617273)
(0.681818 0.01 0.00613637)
(0.7 0.01 0.0061)
(0.718182 0.01 0.00606363)
(0.736364 0.01 0.00602727)
(0.754545 0.01 0.00599091)
(0.772727 0.01 0.00595454)
(0.790909 0.01 0.00591818)
(0.809091 0.01 0.00588182)
(0.827273 0.01 0.00584545)
(0.845455 0.01 0.00580909)
(0.863636 0.01 0.00577273)
(0.881818 0.01 0.00573636)
(0.9 0.01 0.0057)
(0.918182 0.01 0.00566363)
(0.936364 0.01 0.00562727)
(0.954545 0.01 0.00559091)
(0.972727 0.01 0.00555454)
(0.990909 0.01 0.00551818)
(1.00909 0.01 0.00548182)
(1.02727 0.01 0.00544545)
(1.04545 0.01 0.00540909)
(1.06364 0.01 0.00537273)
(1.08182 0.01 0.00533636)
(1.1 0.01 0.0053)
(1.11818 0.01 0.00526363)
(1.13636 0.01 0.00522727)
(1.15454 0.01 0.00519091)
(1.17273 0.01 0.00515454)
(1.19091 0.01 0.00511818)
(1.20909 0.01 0.00508182)
(1.22727 0.01 0.00504545)
(1.24545 0.01 0.00500909)
(1.26364 0.01 0.00497273)
(1.28182 0.01 0.00493636)
(1.3 0.01 0.0049)
(1.31818 0.01 0.00486363)
(1.33636 0.01 0.00482727)
(1.35454 0.01 0.00479091)
(1.37273 0.01 0.00475454)
(1.39091 0.01 0.00471818)
(1.40909 0.01 0.00468182)
(1.42727 0.01 0.00464545)
(1.44545 0.01 0.00460909)
(1.46364 0.01 0.00457273)
(1.48182 0.01 0.00453636)
(1.5 0.01 0.0045)
(1.51818 0.01 0.00446363)
(1.53636 0.01 0.00442727)
(1.55454 0.01 0.00439091)
(1.57273 0.01 0.00435454)
(1.59091 0.01 0.00431818)
(1.60909 0.01 0.00428182)
(1.62727 0.01 0.00424545)
(1.64545 0.01 0.00420909)
(1.66364 0.01 0.00417273)
(1.68182 0.01 0.00413636)
(1.7 0.01 0.0041)
(1.71818 0.01 0.00406363)
(1.73636 0.01 0.00402727)
(1.75454 0.01 0.00399091)
(1.77273 0.01 0.00395454)
(1.79091 0.01 0.00391818)
(1.80909 0.01 0.00388182)
(1.82727 0.01 0.00384545)
(1.84545 0.01 0.00380909)
(1.86364 0.01 0.00377273)
(1.88182 0.01 0.00373636)
(1.9 0.01 0.0037)
(1.91818 0.01 0.00366363)
(1.93636 0.01 0.00362727)
(1.95454 0.01 0.00359091)
(1.97273 0.01 0.00355449)
(1.99091 0.01 0.00351771)
(2.00909 0.01 0.00348061)
(2.02727 0.01 0.0034443)
(2.04545 0.01 0.0034093)
(2.06364 0.01 0.0033734)
(2.08182 0.01 0.00333445)
(2.1 0.01 0.00329661)
(2.11818 0.01 0.00326273)
(2.13636 0.01 0.00322438)
(2.15454 0.01 0.00318767)
(2.17273 0.01 0.00315374)
(2.19091 0.01 0.0031143)
(2.20909 0.01 0.00307589)
(2.22727 0.01 0.00304136)
(2.24545 0.01 0.00300641)
(2.26364 0.01 0.00296425)
(2.28182 0.01 0.00292436)
(2.3 0.01 0.00289519)
(2.31818 0.01 0.00286648)
(2.33636 0.01 0.00282655)
(2.35454 0.01 0.00277727)
(2.37273 0.01 0.00273171)
(2.39091 0.01 0.0026957)
(2.40909 0.01 0.00266415)
(2.42727 0.01 0.00262838)
(2.44545 0.01 0.00259106)
(2.46364 0.01 0.00255546)
(2.48182 0.01 0.00251528)
(2.5 0.01 0.0024689)
(2.51818 0.01 0.00242517)
(2.53636 0.01 0.0023936)
(2.55454 0.01 0.0023719)
(2.57273 0.01 0.00233675)
(2.59091 0.01 0.00229349)
(2.60909 0.01 0.00225758)
(2.62727 0.01 0.00221694)
(2.64546 0.01 0.00217394)
(2.66364 0.01 0.00213543)
(2.68182 0.01 0.00210209)
(2.7 0.01 0.00206955)
(2.71818 0.01 0.00203303)
(2.73636 0.01 0.00199408)
(2.75455 0.01 0.0019529)
(2.77273 0.01 0.00191996)
(2.79091 0.01 0.00189423)
(2.80909 0.01 0.0018538)
(2.82727 0.01 0.00180883)
(2.84545 0.01 0.00177725)
(2.86364 0.01 0.00174459)
(2.88182 0.01 0.00170361)
(2.9 0.01 0.00166745)
(2.91818 0.01 0.00163774)
(2.93636 0.01 0.00160662)
(2.95454 0.01 0.00157205)
(2.97273 0.01 0.0015317)
(2.99091 0.01 0.00149256)
(3.00909 0.01 0.00146162)
(3.02727 0.01 0.00142404)
(3.04546 0.01 0.00138124)
(3.06364 0.01 0.00135014)
(3.08182 0.01 0.00132251)
(3.1 0.01 0.0012839)
(3.11818 0.01 0.00124304)
(3.13636 0.01 0.00120761)
(3.15455 0.01 0.00117367)
(3.17273 0.01 0.00114059)
(3.19091 0.01 0.00110702)
(3.20909 0.01 0.00106972)
(3.22727 0.01 0.00102731)
(3.24545 0.01 0.00099111)
(3.26364 0.01 0.000963621)
(3.28182 0.01 0.000932943)
(3.3 0.01 0.00090104)
(3.31818 0.01 0.000865436)
(3.33636 0.01 0.000824443)
(3.35454 0.01 0.000783915)
(3.37273 0.01 0.000742491)
(3.39091 0.01 0.000708869)
(3.40909 0.01 0.000680779)
(3.42727 0.01 0.000641415)
(3.44545 0.01 0.000600249)
(3.46364 0.01 0.000566461)
(3.48182 0.01 0.000532632)
(3.5 0.01 0.000505712)
(3.51818 0.01 0.000483727)
(3.53636 0.01 0.000449272)
(3.55455 0.01 0.000403842)
(3.57273 0.01 0.000360947)
(3.59091 0.01 0.000325022)
(3.60909 0.01 0.000297705)
(3.62727 0.01 0.000268802)
(3.64546 0.01 0.000231045)
(3.66364 0.01 0.000203705)
(3.68182 0.01 0.000187989)
(3.7 0.01 0.000172357)
(3.71818 0.01 0.000157015)
(3.73636 0.01 0.000139564)
(3.75454 0.01 0.000119059)
(3.77273 0.01 9.25169e-05)
(3.79091 0.01 6.69785e-05)
(3.80909 0.01 4.19957e-05)
(3.82727 0.01 1.41494e-05)
(3.84545 0.01 -1.03168e-05)
(3.86364 0.01 -3.53965e-05)
(3.88182 0.01 -6.21893e-05)
(3.9 0.01 -8.29568e-05)
(3.91818 0.01 -6.32911e-05)
(3.93636 0.01 -6.06716e-07)
(3.95455 0.01 6.21142e-05)
(3.97273 0.01 0.000118414)
(3.99091 0.01 0.000175523)
(4.00909 0.01 0.000231372)
(4.02727 0.01 0.000287997)
(4.04546 0.01 0.000343908)
(4.06364 0.01 0.000399458)
(4.08182 0.01 0.000453331)
(4.1 0.01 0.00050564)
(4.11818 0.01 0.000555583)
(4.13636 0.01 0.000603023)
(4.15455 0.01 0.000647441)
(4.17273 0.01 0.000688253)
(4.19091 0.01 0.000725404)
(4.20909 0.01 0.000758262)
(4.22727 0.01 0.000786863)
(4.24545 0.01 0.000810919)
(4.26364 0.01 0.000830363)
(4.28182 0.01 0.000845789)
(4.3 0.01 0.000856438)
(4.31818 0.01 0.000865083)
(4.33636 0.01 0.000866147)
(4.35454 0.01 0.000860543)
(4.37273 0.01 0.000853732)
(4.39091 0.01 0.000849893)
(4.40909 0.01 0.000830445)
(4.42727 0.01 0.000801549)
(4.44546 0.01 0.000783246)
(4.46364 0.01 0.00077092)
(4.48182 0.01 0.000770185)
(4.5 0.01 0.000753155)
(4.51818 0.01 0.000722425)
(4.53636 0.01 0.000701159)
(4.55455 0.01 0.000679548)
(4.57273 0.01 0.000656227)
(4.59091 0.01 0.000629594)
(4.60909 0.01 0.000598014)
(4.62727 0.01 0.000576358)
(4.64545 0.01 0.000562918)
(4.66364 0.01 0.000547761)
(4.68182 0.01 0.000527109)
(4.7 0.01 0.000500445)
(4.71818 0.01 0.00047272)
(4.73636 0.01 0.000446532)
(4.75455 0.01 0.00041202)
(4.77273 0.01 0.00036755)
(4.79091 0.01 0.000319662)
(4.80909 0.01 0.000273333)
(4.82727 0.01 0.000229903)
(4.84545 0.01 0.000187396)
(4.86364 0.01 0.000147421)
(4.88182 0.01 0.000107491)
(4.9 0.01 6.7391e-05)
(4.91818 0.01 3.13659e-05)
(4.93636 0.01 -1.05974e-06)
(4.95454 0.01 -3.10904e-05)
(4.97273 0.01 -5.66111e-05)
(4.99091 0.01 -7.92152e-05)
(5.00909 0.01 -0.000100445)
(5.02727 0.01 -0.000118862)
(5.04545 0.01 -0.000133342)
(5.06364 0.01 -0.000146326)
(5.08182 0.01 -0.00015935)
(5.1 0.01 -0.000170514)
(5.11818 0.01 -0.000178124)
(5.13636 0.01 -0.000182411)
(5.15455 0.01 -0.00018497)
(5.17273 0.01 -0.000187192)
(5.19091 0.01 -0.000189094)
(5.20909 0.01 -0.000189941)
(5.22727 0.01 -0.00019002)
(5.24545 0.01 -0.000190419)
(5.26364 0.01 -0.000191536)
(5.28182 0.01 -0.000192991)
(5.3 0.01 -0.000194163)
(5.31818 0.01 -0.000195149)
(5.33636 0.01 -0.000196757)
(5.35454 0.01 -0.000199416)
(5.37273 0.01 -0.00020275)
(5.39091 0.01 -0.000206265)
(5.40909 0.01 -0.000209397)
(5.42727 0.01 -0.000212025)
(5.44546 0.01 -0.000214436)
(5.46364 0.01 -0.000217021)
(5.48182 0.01 -0.00022017)
(5.5 0.01 -0.000224176)
(5.51818 0.01 -0.000228956)
(5.53636 0.01 -0.000234386)
(5.55455 0.01 -0.000240372)
(5.57273 0.01 -0.00024686)
(5.59091 0.01 -0.000253808)
(5.60909 0.01 -0.000261242)
(5.62727 0.01 -0.000269132)
(5.64545 0.01 -0.000277445)
(5.66364 0.01 -0.00028611)
(5.68182 0.01 -0.000295065)
(5.7 0.01 -0.00030427)
(5.71818 0.01 -0.000313734)
(5.73636 0.01 -0.000323373)
(5.75454 0.01 -0.000333018)
(5.77273 0.01 -0.000342565)
(5.79091 0.01 -0.000351837)
(5.80909 0.01 -0.000360615)
(5.82727 0.01 -0.000368915)
(5.84546 0.01 -0.000376747)
(5.86364 0.01 -0.000384034)
(5.88182 0.01 -0.000390769)
(5.9 0.01 -0.000396954)
(5.91818 0.01 -0.000402508)
(5.93636 0.01 -0.000407469)
(5.95454 0.01 -0.000411838)
(5.97273 0.01 -0.0004156)
(5.99091 0.01 -0.000418742)
(6.00909 0.01 -0.000421231)
(6.02727 0.01 -0.000423013)
(6.04546 0.01 -0.000423923)
(6.06364 0.01 -0.000423723)
(6.08182 0.01 -0.000422446)
(6.1 0.01 -0.000420184)
(6.11818 0.01 -0.000417077)
(6.13636 0.01 -0.000413279)
(6.15455 0.01 -0.000408855)
(6.17273 0.01 -0.000403832)
(6.19091 0.01 -0.000398207)
(6.20909 0.01 -0.000392122)
(6.22727 0.01 -0.000385786)
(6.24545 0.01 -0.00037934)
(6.26364 0.01 -0.00037294)
(6.28182 0.01 -0.000366844)
(6.3 0.01 -0.000361278)
(6.31818 0.01 -0.000356472)
(6.33636 0.01 -0.000352709)
(6.35455 0.01 -0.000350407)
(6.37273 0.01 -0.000349617)
(6.39091 0.01 -0.000350352)
(6.40909 0.01 -0.000353148)
(6.42727 0.01 -0.000358355)
(6.44545 0.01 -0.000366028)
(6.46364 0.01 -0.00037628)
(6.48182 0.01 -0.000389143)
(6.5 0.01 -0.000404265)
(6.51818 0.01 -0.000421572)
(6.53636 0.01 -0.000441028)
(6.55454 0.01 -0.000462159)
(6.57273 0.01 -0.000484986)
(6.59091 0.01 -0.000509644)
(6.60909 0.01 -0.000535502)
(6.62727 0.01 -0.000561903)
(6.64546 0.01 -0.000588596)
(6.66364 0.01 -0.000614674)
(6.68182 0.01 -0.000639015)
(6.7 0.01 -0.000661543)
(6.71818 0.01 -0.000683294)
(6.73636 0.01 -0.000705452)
(6.75455 0.01 -0.000728324)
(6.77273 0.01 -0.000751657)
(6.79091 0.01 -0.000775204)
(6.80909 0.01 -0.000798723)
(6.82727 0.01 -0.000822042)
(6.84546 0.01 -0.000844948)
(6.86364 0.01 -0.000867165)
(6.88182 0.01 -0.000888497)
(6.9 0.01 -0.000908787)
(6.91818 0.01 -0.000927699)
(6.93636 0.01 -0.000944996)
(6.95454 0.01 -0.000960748)
(6.97273 0.01 -0.00097503)
(6.99091 0.01 -0.00098815)
(7.00909 0.01 -0.00100051)
(7.02727 0.01 -0.00101241)
(7.04545 0.01 -0.00102413)
(7.06364 0.01 -0.0010359)
(7.08182 0.01 -0.0010479)
(7.1 0.01 -0.00106019)
(7.11818 0.01 -0.00107278)
(7.13636 0.01 -0.00108574)
(7.15455 0.01 -0.00109916)
(7.17273 0.01 -0.00111295)
(7.19091 0.01 -0.00112701)
(7.20909 0.01 -0.00114133)
(7.22727 0.01 -0.00115584)
(7.24546 0.01 -0.00117045)
(7.26364 0.01 -0.00118511)
(7.28182 0.01 -0.00119973)
(7.3 0.01 -0.00121432)
(7.31818 0.01 -0.00122891)
(7.33636 0.01 -0.00124349)
(7.35454 0.01 -0.00125799)
(7.37273 0.01 -0.00127249)
(7.39091 0.01 -0.001287)
(7.40909 0.01 -0.00130149)
(7.42727 0.01 -0.00131604)
(7.44546 0.01 -0.00133074)
(7.46364 0.01 -0.00134559)
(7.48182 0.01 -0.00136055)
(7.5 0.01 -0.00137564)
(7.51818 0.01 -0.00139083)
(7.53636 0.01 -0.00140621)
(7.55454 0.01 -0.00142175)
(7.57273 0.01 -0.00143742)
(7.59091 0.01 -0.00145322)
(7.60909 0.01 -0.00146916)
(7.62727 0.01 -0.00148529)
(7.64546 0.01 -0.00150153)
(7.66364 0.01 -0.00151784)
(7.68182 0.01 -0.00153421)
(7.7 0.01 -0.00155063)
(7.71818 0.01 -0.00156713)
(7.73636 0.01 -0.00158367)
(7.75454 0.01 -0.00160022)
(7.77273 0.01 -0.00161676)
(7.79091 0.01 -0.00163332)
(7.80909 0.01 -0.00164992)
(7.82727 0.01 -0.00166652)
(7.84546 0.01 -0.00168307)
(7.86364 0.01 -0.00169956)
(7.88182 0.01 -0.00171603)
(7.9 0.01 -0.00173244)
(7.91818 0.01 -0.00174878)
(7.93636 0.01 -0.00176504)
(7.95454 0.01 -0.00178119)
(7.97273 0.01 -0.00179722)
(7.99091 0.01 -0.00181317)
(8.00909 0.01 -0.00182902)
(8.02727 0.01 -0.00184473)
(8.04546 0.01 -0.00186035)
(8.06364 0.01 -0.00187578)
(8.08182 0.01 -0.00189099)
(8.1 0.01 -0.00190604)
(8.11818 0.01 -0.00192079)
(8.13636 0.01 -0.00193523)
(8.15454 0.01 -0.00194943)
(8.17273 0.01 -0.00196335)
(8.19091 0.01 -0.00197693)
(8.20909 0.01 -0.00199018)
(8.22727 0.01 -0.00200314)
(8.24546 0.01 -0.0020158)
(8.26364 0.01 -0.00202812)
(8.28182 0.01 -0.00204018)
(8.3 0.01 -0.00205204)
(8.31818 0.01 -0.00206362)
(8.33636 0.01 -0.00207496)
(8.35454 0.01 -0.00208612)
(8.37273 0.01 -0.00209709)
(8.39091 0.01 -0.00210788)
(8.40909 0.01 -0.00211846)
(8.42727 0.01 -0.00212885)
(8.44546 0.01 -0.00213903)
(8.46364 0.01 -0.00214894)
(8.48182 0.01 -0.00215861)
(8.5 0.01 -0.00216793)
(8.51818 0.01 -0.00217681)
(8.53636 0.01 -0.00218517)
(8.55455 0.01 -0.00219283)
(8.57273 0.01 -0.00219971)
(8.59091 0.01 -0.00220574)
(8.60909 0.01 -0.00221074)
(8.62727 0.01 -0.00221446)
(8.64546 0.01 -0.0022167)
(8.66364 0.01 -0.00221706)
(8.68182 0.01 -0.00221535)
(8.7 0.01 -0.00221173)
(8.71818 0.01 -0.0022065)
(8.73636 0.01 -0.00219986)
(8.75455 0.01 -0.00219194)
(8.77273 0.01 -0.00218293)
(8.79091 0.01 -0.00217293)
(8.80909 0.01 -0.00216209)
(8.82727 0.01 -0.00215057)
(8.84545 0.01 -0.00213851)
(8.86364 0.01 -0.00212604)
(8.88182 0.01 -0.00211324)
(8.9 0.01 -0.00210016)
(8.91818 0.01 -0.00208691)
(8.93636 0.01 -0.00207356)
(8.95454 0.01 -0.00206013)
(8.97273 0.01 -0.0020467)
(8.99091 0.01 -0.00203332)
(9.00909 0.01 -0.00201999)
(9.02727 0.01 -0.00200674)
(9.04546 0.01 -0.00199366)
(9.06364 0.01 -0.00198081)
(9.08182 0.01 -0.00196817)
(9.1 0.01 -0.0019558)
(9.11818 0.01 -0.00194371)
(9.13636 0.01 -0.00193184)
(9.15455 0.01 -0.00192024)
(9.17273 0.01 -0.00190888)
(9.19091 0.01 -0.00189775)
(9.20909 0.01 -0.00188681)
(9.22727 0.01 -0.00187601)
(9.24546 0.01 -0.00186535)
(9.26364 0.01 -0.00185481)
(9.28182 0.01 -0.00184425)
(9.3 0.01 -0.0018336)
(9.31818 0.01 -0.00182279)
(9.33636 0.01 -0.00181181)
(9.35454 0.01 -0.00180051)
(9.37273 0.01 -0.00178878)
(9.39091 0.01 -0.00177678)
(9.40909 0.01 -0.00176375)
(9.42727 0.01 -0.00175058)
(9.44545 0.01 -0.00173508)
(9.46364 0.01 -0.00172083)
(9.48182 0.01 -0.00170072)
(9.5 0.01 -0.00168551)
(9.51818 0.01 -0.00166028)
(9.53637 0.01 -0.00164705)
(9.55454 0.01 -0.00162397)
(9.57274 0.01 -0.00162243)
(9.5909 0.01 -0.0016153)
(9.6091 0.01 -0.00164091)
(9.62725 0.01 -0.00167181)
(9.64547 0.01 -0.0017468)
(9.66362 0.01 -0.00184824)
(9.68184 0.01 -0.00200161)
(9.69998 0.01 -0.00221802)
(9.71819 0.01 -0.00250969)
(9.73634 0.01 -0.00294163)
(9.75455 0.01 -0.00359677)
(9.7727 0.01 -0.00464794)
(9.79093 0.01 -0.00648378)
(9.80923 0.01 -0.00966298)
(9.82717 0.01 -0.0118473)
(9.84544 0.01 -0.0121756)
(9.86364 0.01 -0.012222)
(9.88182 0.01 -0.0122615)
(9.9 0.01 -0.012299)
(9.91818 0.01 -0.0123358)
(9.93636 0.01 -0.0123724)
(9.95454 0.01 -0.0124089)
(9.97273 0.01 -0.0124453)
(9.99091 0.01 -0.0124818)
(0.00909089 0.01 0.0124818)