/*--------------------------------*- C++ -*----------------------------------*\
| =========                 |                                                 |
| \\      /  F ield         | foam-extend: Open Source CFD                    |
|  \\    /   O peration     | Version:     3.2                                |
|   \\  /    A nd           | Web:         http://www.foam-extend.org         |
|    \\/     M anipulation  | For copyright notice see file Copyright         |
\*---------------------------------------------------------------------------*/
FoamFile
{
    version     2.0;
    format      ascii;
    class       surfaceScalarField;
    location    "910";
    object      phi;
}
// * * * * * * * * * * * * * * * * * * * * * * * * * * * * * * * * * * * * * //

dimensions      [0 3 -1 0 0 0 0];

internalField   nonuniform List<scalar> 
65390
(
3.7488e-05
5.12007e-07
3.69644e-05
5.23622e-07
3.62831e-05
6.81264e-07
3.55956e-05
6.87472e-07
3.48723e-05
7.23313e-07
3.41942e-05
6.78169e-07
3.35226e-05
6.7151e-07
3.28965e-05
6.26108e-07
3.22831e-05
6.13481e-07
3.17007e-05
5.82313e-07
3.11365e-05
5.64244e-07
3.06013e-05
5.35188e-07
3.00866e-05
5.14682e-07
2.95954e-05
4.91256e-07
2.91213e-05
4.74083e-07
2.86674e-05
4.53877e-07
2.82342e-05
4.33196e-07
2.78213e-05
4.12906e-07
2.74248e-05
3.96516e-07
2.70438e-05
3.80949e-07
2.66782e-05
3.65638e-07
2.6328e-05
3.50178e-07
2.59932e-05
3.34811e-07
2.56745e-05
3.18736e-07
2.53724e-05
3.02058e-07
2.50872e-05
2.85217e-07
2.48184e-05
2.68823e-07
2.45644e-05
2.54018e-07
2.43235e-05
2.40837e-07
2.4095e-05
2.28568e-07
2.38781e-05
2.16825e-07
2.36728e-05
2.0531e-07
2.34789e-05
1.9394e-07
2.32959e-05
1.82938e-07
2.31235e-05
1.72431e-07
2.29611e-05
1.62386e-07
2.28082e-05
1.52882e-07
2.26644e-05
1.43892e-07
2.25288e-05
1.35588e-07
2.24009e-05
1.27837e-07
2.22803e-05
1.20616e-07
2.21665e-05
1.13863e-07
2.20589e-05
1.07552e-07
2.19574e-05
1.01507e-07
2.18617e-05
9.57176e-08
2.17716e-05
9.00663e-08
2.16871e-05
8.45502e-08
2.16077e-05
7.93419e-08
2.15333e-05
7.43856e-08
2.14635e-05
6.98715e-08
2.13977e-05
6.57313e-08
2.13357e-05
6.20364e-08
2.12769e-05
5.87991e-08
2.12208e-05
5.60834e-08
2.11671e-05
5.37232e-08
2.11154e-05
5.16876e-08
2.10656e-05
4.97588e-08
2.10178e-05
4.78192e-08
2.0972e-05
4.58296e-08
2.09282e-05
4.38124e-08
2.08863e-05
4.18284e-08
2.08466e-05
3.97287e-08
2.08089e-05
3.76889e-08
2.07732e-05
3.57185e-08
2.07394e-05
3.38484e-08
2.07073e-05
3.20653e-08
2.06769e-05
3.04045e-08
2.06481e-05
2.88192e-08
2.06207e-05
2.73342e-08
2.05948e-05
2.59809e-08
2.05701e-05
2.46991e-08
2.05464e-05
2.3612e-08
2.05238e-05
2.26043e-08
2.05021e-05
2.1743e-08
2.04811e-05
2.10121e-08
2.04607e-05
2.04028e-08
2.04408e-05
1.99218e-08
2.0421e-05
1.97199e-08
2.04014e-05
1.9664e-08
2.03818e-05
1.96304e-08
2.03622e-05
1.95995e-08
2.03426e-05
1.9556e-08
2.0323e-05
1.958e-08
2.03035e-05
1.94796e-08
2.02842e-05
1.93164e-08
2.02652e-05
1.90523e-08
2.02465e-05
1.86801e-08
2.02283e-05
1.81787e-08
2.02108e-05
1.75218e-08
2.01941e-05
1.67166e-08
2.01782e-05
1.58388e-08
2.01632e-05
1.50668e-08
2.01488e-05
1.43307e-08
2.01351e-05
1.37605e-08
2.01219e-05
1.31329e-08
2.01093e-05
1.26503e-08
2.0097e-05
1.22797e-08
2.00849e-05
1.21536e-08
2.00728e-05
1.20934e-08
2.00606e-05
1.21728e-08
2.00485e-05
1.2101e-08
2.00362e-05
1.22509e-08
2.00237e-05
1.25753e-08
2.00108e-05
1.29134e-08
1.99974e-05
1.33382e-08
1.99836e-05
1.3832e-08
1.99693e-05
1.43e-08
1.99543e-05
1.49843e-08
1.99376e-05
1.5933e-08
1.99254e-05
1.20995e-08
1.99138e-05
1.83016e-08
1.98762e-05
3.29559e-08
1.98344e-05
2.3983e-08
1.98435e-05
5.17413e-10
1.98652e-05
-3.6029e-09
1.98517e-05
1.15857e-10
1.98387e-05
7.76293e-09
1.98732e-05
-8.46882e-09
1.98256e-05
3.72551e-08
1.97605e-05
3.61396e-08
1.98027e-05
-9.70183e-09
1.98005e-05
1.84233e-08
1.96812e-05
6.96428e-08
1.96407e-05
2.97822e-08
1.97525e-05
-5.39735e-08
1.97598e-05
4.33113e-09
1.96245e-05
8.867e-08
1.956e-05
5.92028e-08
1.95328e-05
2.69354e-08
1.95094e-05
1.70875e-08
1.96198e-05
-6.25142e-08
1.96394e-05
-7.85216e-09
1.94817e-05
1.09662e-07
1.94128e-05
6.33599e-08
1.94125e-05
1.66583e-08
1.93635e-05
2.7352e-08
1.93623e-05
-6.56658e-09
1.95138e-05
-8.63543e-08
1.95246e-05
3.99511e-09
1.93517e-05
1.07446e-07
1.92776e-05
6.68613e-08
1.92951e-05
3.91874e-09
1.92757e-05
1.95959e-08
1.92195e-05
3.59993e-08
1.92195e-05
-7.57167e-09
1.93731e-05
-9.14508e-08
1.9394e-05
-6.60029e-09
1.92163e-05
1.15289e-07
1.91461e-05
6.35191e-08
1.91657e-05
1.08088e-10
1.91254e-05
3.96758e-08
1.91091e-05
1.84069e-08
1.91283e-05
-1.87615e-08
1.91095e-05
1.67097e-08
1.90503e-05
5.87947e-08
1.90251e-05
2.74082e-08
1.90001e-05
6.36511e-09
1.90145e-05
-2.31855e-08
1.91467e-05
-7.46096e-08
1.91534e-05
8.33306e-09
1.89928e-05
1.02769e-07
1.89369e-05
4.89322e-08
1.89472e-05
8.7893e-09
1.89281e-05
1.88159e-08
1.8927e-05
1.38141e-09
1.8922e-05
4.23134e-09
1.88819e-05
3.98035e-08
1.88674e-05
1.58898e-08
1.88865e-05
-1.8927e-08
1.88731e-05
1.26165e-08
1.88318e-05
4.12021e-08
1.88054e-05
2.66457e-08
1.88062e-05
-8.44844e-10
1.87894e-05
1.67332e-08
1.87581e-05
3.15539e-08
1.87161e-05
2.47039e-08
1.87284e-05
-2.07243e-08
1.88652e-05
-8.42505e-08
1.88823e-05
-7.12615e-10
1.87392e-05
9.04392e-08
1.86867e-05
4.4775e-08
1.87011e-05
3.07157e-09
1.86994e-05
1.30393e-09
1.86832e-05
1.62237e-08
1.86498e-05
3.3432e-08
1.86381e-05
1.18367e-08
1.86445e-05
-6.4091e-09
1.86237e-05
2.04404e-08
1.85917e-05
3.22574e-08
1.85486e-05
2.69979e-08
1.85642e-05
-2.4017e-08
1.87052e-05
-9.13195e-08
1.87415e-05
-2.00206e-08
1.8622e-05
6.95574e-08
1.85432e-05
7.11092e-08
1.8543e-05
1.69147e-08
1.85566e-05
-1.38006e-08
1.85527e-05
4.08359e-09
1.8537e-05
1.5578e-08
1.85252e-05
1.15717e-08
1.85213e-05
4.13043e-09
1.85217e-05
-2.94669e-10
1.85221e-05
-4.48081e-10
1.85215e-05
5.85199e-10
1.85194e-05
2.05715e-09
1.8521e-05
-1.65962e-09
1.85097e-05
1.12778e-08
1.85024e-05
7.31021e-09
1.84929e-05
9.55913e-09
1.84834e-05
9.4261e-09
1.84704e-05
1.31527e-08
1.84606e-05
9.70964e-09
1.84469e-05
1.34873e-08
1.84148e-05
3.1859e-08
1.84127e-05
2.41867e-09
1.84632e-05
-4.98296e-08
1.8515e-05
-5.19423e-08
1.85527e-05
-3.80086e-08
1.85809e-05
-2.8268e-08
1.86099e-05
-2.89252e-08
1.86361e-05
-2.62197e-08
1.86588e-05
-2.26804e-08
1.8682e-05
-2.32554e-08
1.87001e-05
-1.80488e-08
1.87209e-05
-2.07789e-08
1.87371e-05
-1.62425e-08
1.87554e-05
-1.8299e-08
1.87693e-05
-1.38544e-08
1.87847e-05
-1.54872e-08
1.87958e-05
-1.10942e-08
1.88076e-05
-1.17146e-08
1.88141e-05
-6.54774e-09
1.88217e-05
-7.63006e-09
1.88235e-05
-1.74517e-09
1.88279e-05
-4.47455e-09
1.88253e-05
2.69442e-09
1.88291e-05
-3.84845e-09
1.88246e-05
4.50253e-09
1.88207e-05
3.89027e-09
1.88034e-05
1.72959e-08
1.88093e-05
-5.84619e-09
1.87978e-05
1.14561e-08
1.8776e-05
2.18383e-08
1.87489e-05
2.70382e-08
1.87427e-05
6.19199e-09
1.87504e-05
-7.63415e-09
1.87559e-05
-5.49692e-09
1.87342e-05
2.16354e-08
1.87165e-05
1.77261e-08
1.87099e-05
6.59344e-09
1.87041e-05
5.82538e-09
1.86912e-05
1.28766e-08
1.86725e-05
1.87458e-08
1.86602e-05
1.23148e-08
1.86606e-05
-4.69487e-10
1.86672e-05
-6.60254e-09
1.86625e-05
4.76441e-09
1.86513e-05
1.11372e-08
1.86406e-05
1.07384e-08
1.86423e-05
-1.67976e-09
1.86347e-05
7.59653e-09
1.86175e-05
1.72167e-08
1.85905e-05
2.69716e-08
1.8575e-05
1.54418e-08
1.85582e-05
1.68078e-08
1.8546e-05
1.22257e-08
1.85347e-05
1.13485e-08
1.85241e-05
1.05374e-08
1.85109e-05
1.32209e-08
1.85027e-05
8.19538e-09
1.84941e-05
8.59767e-09
1.84886e-05
5.47354e-09
1.84847e-05
3.89282e-09
1.84839e-05
8.44955e-10
1.84816e-05
2.30399e-09
1.84803e-05
1.25125e-09
1.84822e-05
-1.87991e-09
1.84851e-05
-2.90448e-09
1.84855e-05
-4.18765e-10
1.8485e-05
5.09611e-10
1.84867e-05
-1.66444e-09
1.84934e-05
-6.71081e-09
1.84997e-05
-6.33681e-09
1.85052e-05
-5.4527e-09
1.85091e-05
-3.861e-09
1.85137e-05
-4.61542e-09
1.85191e-05
-5.41057e-09
1.85239e-05
-4.80359e-09
1.85269e-05
-3.00471e-09
1.85297e-05
-2.83512e-09
1.85324e-05
-2.68605e-09
1.85357e-05
-3.30636e-09
1.85383e-05
-2.59253e-09
1.85399e-05
-1.56189e-09
1.85403e-05
-4.69759e-10
1.85405e-05
-1.98227e-10
1.85404e-05
1.61005e-10
1.85414e-05
-9.85478e-10
1.85423e-05
-9.24009e-10
1.85437e-05
-1.43211e-09
1.85443e-05
-6.184e-10
1.85445e-05
-1.48914e-10
1.85433e-05
1.18913e-09
1.85426e-05
7.33744e-10
1.85409e-05
1.68267e-09
1.85396e-05
1.32521e-09
1.85378e-05
1.79135e-09
1.85362e-05
1.522e-09
1.85339e-05
2.36365e-09
1.85319e-05
2.03165e-09
1.85293e-05
2.59624e-09
1.85269e-05
2.31834e-09
1.85244e-05
2.52237e-09
1.85221e-05
2.27589e-09
1.85193e-05
2.86699e-09
1.85168e-05
2.44394e-09
1.85144e-05
2.45345e-09
1.85119e-05
2.48244e-09
1.85099e-05
1.96506e-09
1.85086e-05
1.32334e-09
1.85071e-05
1.50571e-09
1.85059e-05
1.19943e-09
1.85051e-05
7.5117e-10
1.85043e-05
8.4687e-10
1.8504e-05
2.96661e-10
1.85039e-05
1.0078e-10
1.85039e-05
-4.1486e-11
1.85041e-05
-1.83833e-10
1.85043e-05
-2.10128e-10
1.85046e-05
-2.83972e-10
1.8505e-05
-3.88646e-10
1.85055e-05
-4.67543e-10
1.85063e-05
-8.60454e-10
1.85078e-05
-1.48249e-09
1.851e-05
-2.17047e-09
1.85126e-05
-2.62433e-09
1.8515e-05
-2.38094e-09
1.85173e-05
-2.33309e-09
1.85193e-05
-2.01265e-09
1.85218e-05
-2.41676e-09
1.85243e-05
-2.52545e-09
1.85269e-05
-2.58049e-09
1.85292e-05
-2.31584e-09
1.85319e-05
-2.727e-09
1.85343e-05
-2.35831e-09
1.85365e-05
-2.27384e-09
1.85386e-05
-2.05587e-09
1.85404e-05
-1.79155e-09
1.85414e-05
-1.0105e-09
1.85418e-05
-4.18672e-10
1.85423e-05
-4.41111e-10
1.8542e-05
2.12698e-10
1.85408e-05
1.20946e-09
1.85387e-05
2.1769e-09
1.85357e-05
2.98341e-09
1.85309e-05
4.79606e-09
1.85256e-05
5.25377e-09
1.85198e-05
5.83509e-09
1.85126e-05
7.19552e-09
1.85056e-05
6.99843e-09
1.8498e-05
7.58181e-09
1.84893e-05
8.75509e-09
1.84803e-05
8.92344e-09
1.84715e-05
8.88756e-09
1.84625e-05
8.9697e-09
1.84543e-05
8.16017e-09
1.84476e-05
6.73313e-09
1.84429e-05
4.68059e-09
1.84394e-05
3.49346e-09
1.84352e-05
4.2451e-09
1.84299e-05
5.25064e-09
1.84246e-05
5.3317e-09
1.84191e-05
5.44043e-09
1.84136e-05
5.5152e-09
1.84082e-05
5.48068e-09
1.8403e-05
5.15946e-09
1.83982e-05
4.76393e-09
1.83939e-05
4.28765e-09
1.83902e-05
3.72874e-09
1.83871e-05
3.13034e-09
1.83853e-05
1.81025e-09
1.8384e-05
1.25155e-09
1.8384e-05
-1.62985e-11
1.83843e-05
-2.16526e-10
1.8385e-05
-7.38636e-10
1.83859e-05
-9.29245e-10
1.83868e-05
-8.56456e-10
1.83876e-05
-7.85914e-10
1.83881e-05
-5.55424e-10
1.83885e-05
-3.94115e-10
1.83886e-05
-1.26696e-10
1.83886e-05
7.22927e-11
1.83881e-05
5.14827e-10
1.83871e-05
9.48952e-10
1.83863e-05
7.70323e-10
1.83855e-05
8.01536e-10
1.83847e-05
8.31666e-10
1.83835e-05
1.21413e-09
1.83825e-05
9.79987e-10
1.83813e-05
1.24931e-09
1.83803e-05
9.61843e-10
1.83792e-05
1.04396e-09
1.83779e-05
1.37431e-09
1.83768e-05
1.11329e-09
1.83756e-05
1.16777e-09
1.8374e-05
1.58182e-09
1.83727e-05
1.35659e-09
1.83712e-05
1.42267e-09
1.83696e-05
1.6621e-09
1.83675e-05
2.08185e-09
1.83655e-05
2.00069e-09
1.83634e-05
2.05155e-09
1.83613e-05
2.17088e-09
1.83588e-05
2.47374e-09
1.83562e-05
2.60539e-09
1.83534e-05
2.75625e-09
1.83506e-05
2.86533e-09
1.83475e-05
3.06934e-09
1.83443e-05
3.15849e-09
1.83411e-05
3.26339e-09
1.83376e-05
3.46699e-09
1.83342e-05
3.38972e-09
1.83306e-05
3.62693e-09
1.8327e-05
3.56732e-09
1.83232e-05
3.81949e-09
1.83195e-05
3.73077e-09
1.83157e-05
3.7845e-09
1.8312e-05
3.72317e-09
1.83081e-05
3.82478e-09
1.83043e-05
3.79456e-09
1.83006e-05
3.74408e-09
1.82968e-05
3.76501e-09
1.82932e-05
3.66549e-09
1.82894e-05
3.7312e-09
1.82858e-05
3.68604e-09
1.82821e-05
3.63061e-09
1.82786e-05
3.50133e-09
1.82752e-05
3.39822e-09
1.82719e-05
3.36714e-09
1.82685e-05
3.34917e-09
1.82652e-05
3.31292e-09
1.82618e-05
3.37968e-09
1.82587e-05
3.15003e-09
1.82556e-05
3.09852e-09
1.82526e-05
2.97387e-09
1.82499e-05
2.72974e-09
1.82472e-05
2.61775e-09
1.82449e-05
2.37397e-09
1.82427e-05
2.129e-09
1.82407e-05
1.99298e-09
1.82389e-05
1.83012e-09
1.82373e-05
1.60109e-09
1.82359e-05
1.46202e-09
1.82346e-05
1.24854e-09
1.82335e-05
1.13751e-09
1.82323e-05
1.11795e-09
1.82314e-05
9.87549e-10
1.82305e-05
8.44464e-10
1.82298e-05
7.56075e-10
1.82291e-05
6.62646e-10
1.82284e-05
6.57223e-10
1.82278e-05
6.23399e-10
1.82272e-05
5.64978e-10
1.82266e-05
6.24711e-10
1.82261e-05
5.19876e-10
1.82256e-05
5.32013e-10
1.82252e-05
4.02464e-10
1.82248e-05
3.30379e-10
1.82248e-05
7.25154e-11
1.8225e-05
-1.90689e-10
1.82255e-05
-5.24106e-10
1.82263e-05
-8.00162e-10
1.82274e-05
-1.07324e-09
1.82288e-05
-1.45367e-09
1.82306e-05
-1.79998e-09
1.82336e-05
-2.9701e-09
1.82379e-05
-4.29245e-09
1.82435e-05
-5.56543e-09
1.82494e-05
-5.97371e-09
1.82559e-05
-6.5112e-09
1.82626e-05
-6.6603e-09
1.82693e-05
-6.73328e-09
1.82762e-05
-6.86479e-09
1.8283e-05
-6.84485e-09
1.829e-05
-6.94046e-09
1.82969e-05
-6.87304e-09
1.83038e-05
-6.91464e-09
1.83106e-05
-6.78834e-09
1.83172e-05
-6.62926e-09
1.83235e-05
-6.3407e-09
1.83297e-05
-6.14065e-09
1.83355e-05
-5.83029e-09
1.8341e-05
-5.53914e-09
1.83463e-05
-5.27406e-09
1.83513e-05
-5.03773e-09
1.83563e-05
-4.92143e-09
1.83608e-05
-4.50247e-09
1.8365e-05
-4.23611e-09
1.8369e-05
-3.95731e-09
1.83725e-05
-3.55719e-09
1.83759e-05
-3.35392e-09
1.83791e-05
-3.21177e-09
1.83821e-05
-2.99003e-09
1.83851e-05
-3.07046e-09
1.8388e-05
-2.90459e-09
1.83912e-05
-3.12798e-09
1.83942e-05
-3.0422e-09
1.83975e-05
-3.24136e-09
1.84006e-05
-3.08753e-09
1.8404e-05
-3.45607e-09
1.84073e-05
-3.24511e-09
1.84109e-05
-3.62743e-09
1.84142e-05
-3.34143e-09
1.84175e-05
-3.2656e-09
1.84224e-05
-4.90342e-09
1.8425e-05
-2.58648e-09
1.84313e-05
-6.3202e-09
1.84338e-05
-2.45424e-09
1.84443e-05
-1.04934e-08
1.84431e-05
1.1956e-09
1.84622e-05
-1.91938e-08
1.84548e-05
7.43113e-09
1.8489e-05
-3.421e-08
1.84723e-05
1.67671e-08
1.85237e-05
-5.1414e-08
1.84888e-05
3.49013e-08
1.85553e-05
-6.6571e-08
1.84951e-05
6.02397e-08
1.85689e-05
-7.37833e-08
1.84808e-05
8.80509e-08
1.85465e-05
-6.56756e-08
1.84351e-05
1.11427e-07
1.84796e-05
-4.45575e-08
1.83491e-05
1.3057e-07
1.83544e-05
-5.34804e-09
1.81253e-05
2.29094e-07
1.79084e-05
2.16907e-07
1.68525e-05
1.05584e-06
1.39391e-05
2.91347e-06
1.08521e-05
3.08702e-06
9.86153e-06
9.90645e-07
9.64681e-06
2.14718e-07
8.30462e-06
1.34219e-06
6.43804e-06
1.86658e-06
3.50181e-06
2.93623e-06
9.95497e-07
2.50632e-06
-6.33378e-07
1.62888e-06
-2.13244e-06
1.49906e-06
-3.52498e-06
1.39255e-06
-3.52498e-06
3.78641e-05
6.4786e-07
3.76378e-05
7.49932e-07
3.72168e-05
1.10227e-06
3.67853e-05
1.11903e-06
3.6343e-05
1.16556e-06
3.59384e-05
1.08276e-06
3.55517e-05
1.05829e-06
3.52014e-05
9.76404e-07
3.48834e-05
9.31434e-07
3.4625e-05
8.40746e-07
3.43847e-05
8.04475e-07
3.41624e-05
7.57534e-07
3.3944e-05
7.3304e-07
3.37324e-05
7.0289e-07
3.35208e-05
6.85688e-07
3.33107e-05
6.64021e-07
3.30915e-05
6.52322e-07
3.28665e-05
6.37963e-07
3.26406e-05
6.22407e-07
3.24164e-05
6.05156e-07
3.21944e-05
5.87602e-07
3.19739e-05
5.70646e-07
3.17549e-05
5.53837e-07
3.15376e-05
5.36037e-07
3.13229e-05
5.16815e-07
3.11107e-05
4.97391e-07
3.09014e-05
4.78096e-07
3.06961e-05
4.59359e-07
3.0496e-05
4.40953e-07
3.03005e-05
4.24064e-07
3.01095e-05
4.07813e-07
2.99232e-05
3.91622e-07
2.97419e-05
3.75234e-07
2.95659e-05
3.58894e-07
2.93954e-05
3.42895e-07
2.92308e-05
3.27027e-07
2.9072e-05
3.11645e-07
2.89192e-05
2.96772e-07
2.87717e-05
2.83042e-07
2.86292e-05
2.70316e-07
2.84914e-05
2.58397e-07
2.8358e-05
2.47329e-07
2.82284e-05
2.3712e-07
2.81025e-05
2.27437e-07
2.79803e-05
2.17905e-07
2.78619e-05
2.0847e-07
2.77471e-05
1.99332e-07
2.76362e-05
1.90283e-07
2.75294e-05
1.81171e-07
2.74267e-05
1.72588e-07
2.7328e-05
1.64438e-07
2.72328e-05
1.5721e-07
2.71407e-05
1.50911e-07
2.70513e-05
1.45493e-07
2.69641e-05
1.4092e-07
2.68786e-05
1.37121e-07
2.67947e-05
1.3367e-07
2.67124e-05
1.30127e-07
2.66318e-05
1.26394e-07
2.65533e-05
1.22335e-07
2.6477e-05
1.18197e-07
2.6403e-05
1.13713e-07
2.63315e-05
1.09209e-07
2.62623e-05
1.04829e-07
2.61956e-05
1.00582e-07
2.61311e-05
9.6578e-08
2.60687e-05
9.28393e-08
2.60081e-05
8.93577e-08
2.59495e-05
8.59905e-08
2.58926e-05
8.28771e-08
2.58376e-05
7.964e-08
2.57846e-05
7.66509e-08
2.57336e-05
7.35919e-08
2.56847e-05
7.06417e-08
2.56378e-05
6.78892e-08
2.55929e-05
6.53333e-08
2.55497e-05
6.31419e-08
2.55078e-05
6.16398e-08
2.54667e-05
6.07141e-08
2.54264e-05
5.9935e-08
2.53866e-05
5.9419e-08
2.53472e-05
5.89124e-08
2.5308e-05
5.88434e-08
2.52688e-05
5.86122e-08
2.52298e-05
5.83677e-08
2.51909e-05
5.79746e-08
2.51523e-05
5.7276e-08
2.51142e-05
5.62754e-08
2.50769e-05
5.47767e-08
2.5041e-05
5.26186e-08
2.50068e-05
5.00884e-08
2.49743e-05
4.75522e-08
2.49437e-05
4.49442e-08
2.49145e-05
4.2873e-08
2.48867e-05
4.09362e-08
2.48599e-05
3.94612e-08
2.48333e-05
3.89276e-08
2.48069e-05
3.85725e-08
2.47803e-05
3.86444e-08
2.47534e-05
3.90651e-08
2.47268e-05
3.86975e-08
2.47001e-05
3.89575e-08
2.46734e-05
3.93333e-08
2.46467e-05
3.95422e-08
2.46195e-05
4.05525e-08
2.45926e-05
4.07445e-08
2.45648e-05
4.21128e-08
2.45366e-05
4.30097e-08
2.45075e-05
4.41987e-08
2.44798e-05
4.05507e-08
2.44521e-05
5.31843e-08
2.44064e-05
7.14648e-08
2.43565e-05
5.32822e-08
2.43435e-05
2.55276e-08
2.43493e-05
1.27419e-08
2.43337e-05
2.45445e-09
2.43088e-05
2.90027e-08
2.43238e-05
6.34081e-09
2.42769e-05
7.16479e-08
2.42159e-05
6.55483e-08
2.42303e-05
1.31236e-08
2.42153e-05
5.02738e-08
2.41157e-05
1.10119e-07
2.40671e-05
6.6787e-08
2.4137e-05
-5.3707e-08
2.41447e-05
1.24994e-08
2.40407e-05
1.3645e-07
2.39635e-05
1.21955e-07
2.39196e-05
6.8593e-08
2.38925e-05
4.40665e-08
2.39576e-05
-6.79143e-08
2.39758e-05
-1.15158e-08
2.38528e-05
1.74667e-07
2.37819e-05
1.21654e-07
2.37643e-05
4.90195e-08
2.37133e-05
5.40081e-08
2.36934e-05
1.15374e-08
2.37896e-05
-1.01474e-07
2.38067e-05
5.26271e-09
2.36764e-05
1.5881e-07
2.35892e-05
1.3726e-07
2.35898e-05
2.66058e-08
2.35601e-05
4.91359e-08
2.35013e-05
6.97637e-08
2.34912e-05
6.71245e-11
2.35923e-05
-1.15449e-07
2.36169e-05
-1.36678e-08
2.34887e-05
1.68041e-07
2.34117e-05
1.24829e-07
2.34034e-05
3.0126e-08
2.33645e-05
8.06547e-08
2.33518e-05
3.34672e-08
2.33509e-05
-1.75603e-08
2.33206e-05
4.43448e-08
2.32736e-05
1.05048e-07
2.32417e-05
5.89399e-08
2.32096e-05
1.55795e-08
2.3215e-05
-3.23151e-08
2.33028e-05
-9.03711e-08
2.33136e-05
1.65994e-08
2.31914e-05
1.55561e-07
2.31218e-05
1.03235e-07
2.31108e-05
4.07592e-08
2.30911e-05
4.0573e-08
2.30761e-05
1.6424e-08
2.30549e-05
2.43475e-08
2.30202e-05
7.38318e-08
2.30044e-05
3.29131e-08
2.3009e-05
-2.34626e-08
2.29907e-05
2.99295e-08
2.29507e-05
8.10698e-08
2.29184e-05
5.89966e-08
2.29086e-05
8.8761e-09
2.28894e-05
3.57013e-08
2.28544e-05
6.43044e-08
2.28131e-05
4.46215e-08
2.28157e-05
-2.72772e-08
2.29089e-05
-1.11445e-07
2.29283e-05
3.86019e-10
2.28249e-05
1.30766e-07
2.27657e-05
8.83181e-08
2.27578e-05
2.96479e-08
2.27502e-05
1.04893e-08
2.27247e-05
4.16046e-08
2.26894e-05
6.8517e-08
2.26772e-05
2.38881e-08
2.26703e-05
2.45529e-10
2.2648e-05
4.21362e-08
2.26185e-05
5.95784e-08
2.25776e-05
4.77797e-08
2.25836e-05
-3.44436e-08
2.26822e-05
-1.27695e-07
2.27115e-05
-2.92725e-08
2.26125e-05
1.08889e-07
2.25356e-05
1.32771e-07
2.25211e-05
4.94045e-08
2.25214e-05
-1.22163e-08
2.25174e-05
8.38314e-09
2.2498e-05
3.49237e-08
2.24812e-05
2.81963e-08
2.24693e-05
1.6288e-08
2.24588e-05
1.05537e-08
2.24569e-05
1.34109e-09
2.24519e-05
5.60896e-09
2.24472e-05
6.74288e-09
2.24444e-05
1.0328e-09
2.24283e-05
2.72839e-08
2.24223e-05
1.34565e-08
2.24039e-05
2.79043e-08
2.23948e-05
1.85014e-08
2.23809e-05
2.71416e-08
2.23656e-05
2.48828e-08
2.23495e-05
2.93113e-08
2.23271e-05
5.40118e-08
2.23274e-05
2.64587e-09
2.23462e-05
-6.77679e-08
2.23789e-05
-8.47416e-08
2.24122e-05
-7.1776e-08
2.24344e-05
-5.0585e-08
2.24594e-05
-5.39318e-08
2.24815e-05
-4.82769e-08
2.25009e-05
-4.21634e-08
2.25195e-05
-4.17915e-08
2.25322e-05
-3.07203e-08
2.25487e-05
-3.7308e-08
2.25601e-05
-2.76664e-08
2.25776e-05
-3.57996e-08
2.25896e-05
-2.57912e-08
2.2604e-05
-2.9968e-08
2.26128e-05
-1.98222e-08
2.26237e-05
-2.262e-08
2.26298e-05
-1.26429e-08
2.26371e-05
-1.49282e-08
2.26393e-05
-3.97472e-09
2.2644e-05
-9.14495e-09
2.26415e-05
5.11616e-09
2.26459e-05
-8.24127e-09
2.26373e-05
1.31198e-08
2.26378e-05
3.43793e-09
2.26237e-05
3.13559e-08
2.26279e-05
-1.00573e-08
2.2605e-05
3.43684e-08
2.26019e-05
2.49586e-08
2.25761e-05
5.28727e-08
2.25734e-05
8.83684e-09
2.25715e-05
-5.75023e-09
2.25619e-05
4.12725e-09
2.25553e-05
2.82109e-08
2.25402e-05
3.28713e-08
2.2527e-05
1.98002e-08
2.25218e-05
1.09751e-08
2.25067e-05
2.8013e-08
2.2494e-05
3.14696e-08
2.24846e-05
2.16669e-08
2.2477e-05
7.16085e-09
2.24761e-05
-5.75154e-09
2.24705e-05
1.04475e-08
2.24641e-05
1.74955e-08
2.24519e-05
2.29028e-08
2.2443e-05
7.26021e-09
2.24322e-05
1.83531e-08
2.2423e-05
2.64241e-08
2.23984e-05
5.16301e-08
2.23827e-05
3.1076e-08
2.23633e-05
3.62113e-08
2.23506e-05
2.49982e-08
2.23357e-05
2.61721e-08
2.23242e-05
2.20944e-08
2.23086e-05
2.88196e-08
2.22975e-05
1.92594e-08
2.22862e-05
1.99619e-08
2.22789e-05
1.27528e-08
2.22724e-05
1.03959e-08
2.2268e-05
5.1944e-09
2.22627e-05
7.65036e-09
2.22592e-05
4.75889e-09
2.22575e-05
-1.71916e-10
2.22566e-05
-2.01954e-09
2.22547e-05
1.44262e-09
2.22537e-05
1.49441e-09
2.22532e-05
-1.17086e-09
2.22556e-05
-9.0874e-09
2.2258e-05
-8.70818e-09
2.22615e-05
-9.00238e-09
2.22641e-05
-6.37833e-09
2.2267e-05
-7.57531e-09
2.22694e-05
-7.82027e-09
2.22729e-05
-8.30719e-09
2.2275e-05
-5.10198e-09
2.22772e-05
-4.97646e-09
2.22784e-05
-3.91e-09
2.22806e-05
-5.51534e-09
2.22821e-05
-4.06158e-09
2.22832e-05
-2.72727e-09
2.2283e-05
-2.56515e-10
2.22831e-05
-2.87465e-10
2.22827e-05
5.49075e-10
2.22831e-05
-1.37034e-09
2.22832e-05
-1.0046e-09
2.22836e-05
-1.84631e-09
2.22833e-05
-3.31162e-10
2.2283e-05
1.82517e-10
2.22819e-05
2.30092e-09
2.22806e-05
1.97956e-09
2.2279e-05
3.3324e-09
2.22775e-05
2.83166e-09
2.22754e-05
3.8778e-09
2.22733e-05
3.56619e-09
2.22709e-05
4.79003e-09
2.22685e-05
4.39946e-09
2.22658e-05
5.3086e-09
2.22633e-05
4.83352e-09
2.22605e-05
5.35294e-09
2.22577e-05
5.04928e-09
2.22547e-05
5.84786e-09
2.22519e-05
5.28063e-09
2.2249e-05
5.38902e-09
2.22464e-05
5.01679e-09
2.2244e-05
4.41474e-09
2.22419e-05
3.40003e-09
2.224e-05
3.43896e-09
2.22384e-05
2.78532e-09
2.22368e-05
2.31381e-09
2.22357e-05
1.92563e-09
2.22347e-05
1.2984e-09
2.2234e-05
8.33272e-10
2.22334e-05
5.79889e-10
2.22329e-05
2.90381e-10
2.22325e-05
1.8636e-10
2.22324e-05
-1.55248e-10
2.22323e-05
-2.80477e-10
2.22324e-05
-6.28879e-10
2.22329e-05
-1.31093e-09
2.22336e-05
-2.19898e-09
2.22348e-05
-3.32839e-09
2.22362e-05
-4.02575e-09
2.22379e-05
-4.12444e-09
2.22396e-05
-4.02469e-09
2.22415e-05
-3.94209e-09
2.22434e-05
-4.26416e-09
2.22454e-05
-4.57294e-09
2.22475e-05
-4.6482e-09
2.22497e-05
-4.53666e-09
2.22519e-05
-4.93283e-09
2.22542e-05
-4.60096e-09
2.22563e-05
-4.42558e-09
2.22583e-05
-4.00599e-09
2.226e-05
-3.53278e-09
2.22612e-05
-2.2066e-09
2.22621e-05
-1.35425e-09
2.22625e-05
-7.92407e-10
2.22624e-05
2.50515e-10
2.22618e-05
1.90163e-09
2.22602e-05
3.77682e-09
2.22578e-05
5.38434e-09
2.22544e-05
8.16691e-09
2.22503e-05
9.35411e-09
2.22452e-05
1.09588e-08
2.22394e-05
1.29028e-08
2.2233e-05
1.34671e-08
2.2226e-05
1.45788e-08
2.22184e-05
1.63546e-08
2.22103e-05
1.70209e-08
2.22019e-05
1.73001e-08
2.21933e-05
1.7522e-08
2.21851e-05
1.63426e-08
2.21778e-05
1.40364e-08
2.21719e-05
1.06144e-08
2.21668e-05
8.6176e-09
2.21618e-05
9.25587e-09
2.21564e-05
1.06352e-08
2.21505e-05
1.11862e-08
2.21444e-05
1.15309e-08
2.21385e-05
1.14979e-08
2.21324e-05
1.14916e-08
2.21267e-05
1.09153e-08
2.21211e-05
1.03166e-08
2.2116e-05
9.40084e-09
2.21113e-05
8.44382e-09
2.21074e-05
7.06208e-09
2.21041e-05
5.06865e-09
2.21017e-05
3.64083e-09
2.21001e-05
1.56971e-09
2.20991e-05
8.4194e-10
2.20985e-05
-1.41181e-10
2.20981e-05
-5.4306e-10
2.20978e-05
-6.06577e-10
2.20976e-05
-5.76498e-10
2.20972e-05
-1.57656e-10
2.20968e-05
2.49349e-11
2.20961e-05
6.28278e-10
2.20952e-05
9.69231e-10
2.2094e-05
1.69037e-09
2.20928e-05
2.16924e-09
2.20913e-05
2.19787e-09
2.20899e-05
2.26345e-09
2.20883e-05
2.38078e-09
2.20868e-05
2.78832e-09
2.20851e-05
2.64738e-09
2.20835e-05
2.88498e-09
2.20817e-05
2.70522e-09
2.208e-05
2.72958e-09
2.20783e-05
3.12965e-09
2.20764e-05
2.93944e-09
2.20746e-05
3.06305e-09
2.20726e-05
3.49354e-09
2.20706e-05
3.42961e-09
2.20684e-05
3.6105e-09
2.20661e-05
3.93869e-09
2.20638e-05
4.43093e-09
2.20613e-05
4.47921e-09
2.20587e-05
4.59601e-09
2.2056e-05
4.87678e-09
2.20531e-05
5.38486e-09
2.205e-05
5.73917e-09
2.20466e-05
6.1236e-09
2.20432e-05
6.26453e-09
2.20399e-05
6.337e-09
2.20362e-05
6.84529e-09
2.20323e-05
7.16252e-09
2.20287e-05
7.16276e-09
2.20246e-05
7.48853e-09
2.20206e-05
7.61531e-09
2.20163e-05
7.86623e-09
2.20121e-05
8.02203e-09
2.20079e-05
7.85752e-09
2.20037e-05
8.03959e-09
2.19994e-05
7.99431e-09
2.1995e-05
8.2062e-09
2.19906e-05
8.20349e-09
2.19862e-05
8.16734e-09
2.19821e-05
7.82988e-09
2.19777e-05
8.08644e-09
2.19736e-05
7.81339e-09
2.19695e-05
7.80621e-09
2.19655e-05
7.68899e-09
2.19614e-05
7.55759e-09
2.19573e-05
7.4494e-09
2.19533e-05
7.4103e-09
2.19493e-05
7.38523e-09
2.19456e-05
6.96096e-09
2.19419e-05
7.14166e-09
2.19382e-05
6.79182e-09
2.19345e-05
6.83004e-09
2.19309e-05
6.59176e-09
2.19274e-05
6.23521e-09
2.19244e-05
5.58738e-09
2.19216e-05
5.17571e-09
2.19186e-05
5.14695e-09
2.1916e-05
4.55085e-09
2.1914e-05
3.86554e-09
2.19117e-05
3.83354e-09
2.19096e-05
3.62753e-09
2.1908e-05
2.85016e-09
2.19061e-05
3.01868e-09
2.19047e-05
2.52901e-09
2.19033e-05
2.34366e-09
2.1902e-05
2.15004e-09
2.19008e-05
2.01898e-09
2.18996e-05
1.84165e-09
2.18984e-05
1.85058e-09
2.18976e-05
1.36512e-09
2.18965e-05
1.66286e-09
2.18957e-05
1.4211e-09
2.1895e-05
1.24567e-09
2.18939e-05
1.70554e-09
2.18932e-05
1.08936e-09
2.18925e-05
9.95978e-10
2.18922e-05
4.20376e-10
2.1892e-05
-3.21256e-11
2.18925e-05
-1.02151e-09
2.18928e-05
-1.12779e-09
2.18935e-05
-1.71332e-09
2.18945e-05
-2.46157e-09
2.18964e-05
-3.66668e-09
2.18986e-05
-5.17985e-09
2.19019e-05
-7.64366e-09
2.1906e-05
-9.62477e-09
2.1911e-05
-1.10221e-08
2.19164e-05
-1.18907e-08
2.19221e-05
-1.2317e-08
2.19284e-05
-1.30835e-08
2.19346e-05
-1.30687e-08
2.19413e-05
-1.34849e-08
2.19478e-05
-1.34429e-08
2.19547e-05
-1.38095e-08
2.19614e-05
-1.36383e-08
2.19681e-05
-1.34607e-08
2.19747e-05
-1.32891e-08
2.19816e-05
-1.32258e-08
2.1988e-05
-1.25354e-08
2.19942e-05
-1.20042e-08
2.20002e-05
-1.15919e-08
2.20062e-05
-1.11997e-08
2.2012e-05
-1.08327e-08
2.20172e-05
-1.02e-08
2.20227e-05
-9.93244e-09
2.20278e-05
-9.41089e-09
2.20324e-05
-8.46661e-09
2.20369e-05
-8.07447e-09
2.20408e-05
-7.26501e-09
2.20446e-05
-6.9818e-09
2.20482e-05
-6.64365e-09
2.2052e-05
-6.81807e-09
2.20556e-05
-6.57089e-09
2.20595e-05
-7.02387e-09
2.20633e-05
-6.79606e-09
2.20672e-05
-7.18853e-09
2.20711e-05
-6.97768e-09
2.20749e-05
-7.24557e-09
2.2079e-05
-7.31039e-09
2.2083e-05
-7.68624e-09
2.20875e-05
-7.77911e-09
2.20923e-05
-8.1196e-09
2.20975e-05
-1.01004e-08
2.21022e-05
-7.22547e-09
2.21086e-05
-1.27568e-08
2.21123e-05
-6.12647e-09
2.21224e-05
-2.06171e-08
2.21224e-05
1.19098e-09
2.21417e-05
-3.84526e-08
2.21331e-05
1.60207e-08
2.21698e-05
-7.09315e-08
2.21437e-05
4.28803e-08
2.22061e-05
-1.13791e-07
2.21506e-05
9.03467e-08
2.22404e-05
-1.56362e-07
2.21454e-05
1.55283e-07
2.22582e-05
-1.86608e-07
2.21178e-05
2.28431e-07
2.22392e-05
-1.87052e-07
2.2062e-05
2.88612e-07
2.21631e-05
-1.45633e-07
2.1956e-05
3.37599e-07
2.19712e-05
-2.0547e-08
2.16392e-05
5.61079e-07
2.12399e-05
6.16222e-07
2.03411e-05
1.95458e-06
1.81836e-05
5.07105e-06
1.62867e-05
4.98393e-06
1.47858e-05
2.49166e-06
1.41158e-05
8.8467e-07
1.29755e-05
2.48251e-06
1.12886e-05
3.55347e-06
8.64269e-06
5.58217e-06
4.81888e-06
6.33013e-06
1.14793e-06
5.29982e-06
-9.85806e-07
3.6328e-06
-2.22744e-06
2.63418e-06
-5.75242e-06
3.78587e-05
7.89199e-07
3.76492e-05
9.59393e-07
3.72349e-05
1.51657e-06
3.6832e-05
1.52192e-06
3.64229e-05
1.57468e-06
3.6069e-05
1.43667e-06
3.57591e-05
1.36818e-06
3.54992e-05
1.23629e-06
3.52821e-05
1.14849e-06
3.50951e-05
1.02778e-06
3.49413e-05
9.58311e-07
3.48061e-05
8.92667e-07
3.46816e-05
8.57607e-07
3.45684e-05
8.16117e-07
3.44706e-05
7.83429e-07
3.43895e-05
7.451e-07
3.43111e-05
7.30744e-07
3.42355e-05
7.13562e-07
3.41596e-05
6.98284e-07
3.40839e-05
6.80876e-07
3.40071e-05
6.64463e-07
3.39274e-05
6.5032e-07
3.38451e-05
6.36067e-07
3.37609e-05
6.20295e-07
3.36725e-05
6.05183e-07
3.35805e-05
5.89429e-07
3.34853e-05
5.73311e-07
3.33836e-05
5.60999e-07
3.32766e-05
5.4795e-07
3.31647e-05
5.36039e-07
3.30493e-05
5.23199e-07
3.29314e-05
5.09525e-07
3.28098e-05
4.96816e-07
3.26857e-05
4.82967e-07
3.25602e-05
4.68373e-07
3.24326e-05
4.54653e-07
3.23042e-05
4.401e-07
3.21762e-05
4.24723e-07
3.20475e-05
4.11795e-07
3.19196e-05
3.98189e-07
3.17912e-05
3.86734e-07
3.16631e-05
3.75444e-07
3.15358e-05
3.64452e-07
3.14079e-05
3.55296e-07
3.12805e-05
3.45301e-07
3.11547e-05
3.34267e-07
3.103e-05
3.24126e-07
3.09073e-05
3.1294e-07
3.07881e-05
3.00385e-07
3.06711e-05
2.89552e-07
3.0558e-05
2.77521e-07
3.04473e-05
2.6799e-07
3.03392e-05
2.58961e-07
3.02344e-05
2.50314e-07
3.0131e-05
2.44324e-07
3.00293e-05
2.38832e-07
2.99296e-05
2.3333e-07
2.98307e-05
2.29057e-07
2.97333e-05
2.23797e-07
2.96384e-05
2.17223e-07
2.95446e-05
2.11943e-07
2.94533e-05
2.05034e-07
2.93633e-05
1.99219e-07
2.92754e-05
1.92755e-07
2.91903e-05
1.85629e-07
2.91068e-05
1.80126e-07
2.90254e-05
1.74247e-07
2.89466e-05
1.68091e-07
2.88693e-05
1.63359e-07
2.87939e-05
1.58282e-07
2.87213e-05
1.52252e-07
2.86501e-05
1.47773e-07
2.8582e-05
1.41708e-07
2.85157e-05
1.36946e-07
2.84519e-05
1.31717e-07
2.83912e-05
1.26004e-07
2.83322e-05
1.22142e-07
2.82752e-05
1.18704e-07
2.82202e-05
1.15676e-07
2.81659e-05
1.14273e-07
2.81125e-05
1.12737e-07
2.80608e-05
1.10686e-07
2.80088e-05
1.10774e-07
2.79579e-05
1.09504e-07
2.79067e-05
1.09629e-07
2.78557e-05
1.08988e-07
2.78057e-05
1.07282e-07
2.77555e-05
1.06445e-07
2.77061e-05
1.04208e-07
2.76585e-05
1.00184e-07
2.76118e-05
9.68091e-08
2.75667e-05
9.25783e-08
2.7524e-05
8.76548e-08
2.74818e-05
8.51256e-08
2.7441e-05
8.17026e-08
2.74004e-05
8.00621e-08
2.73602e-05
7.91777e-08
2.7321e-05
7.77597e-08
2.72813e-05
7.83461e-08
2.72415e-05
7.8817e-08
2.72029e-05
7.73373e-08
2.71637e-05
7.81272e-08
2.71248e-05
7.82356e-08
2.70867e-05
7.76128e-08
2.7048e-05
7.93211e-08
2.70101e-05
7.86352e-08
2.69711e-05
8.10552e-08
2.69319e-05
8.19836e-08
2.68929e-05
8.25458e-08
2.68529e-05
8.20318e-08
2.6814e-05
9.80377e-08
2.67627e-05
1.14276e-07
2.67033e-05