/*--------------------------------*- C++ -*----------------------------------*\
| =========                 |                                                 |
| \\      /  F ield         | foam-extend: Open Source CFD                    |
|  \\    /   O peration     | Version:     3.2                                |
|   \\  /    A nd           | Web:         http://www.foam-extend.org         |
|    \\/     M anipulation  | For copyright notice see file Copyright         |
\*---------------------------------------------------------------------------*/
FoamFile
{
    version     2.0;
    format      ascii;
    class       areaScalarField;
    location    "910";
    object      tau;
}
// * * * * * * * * * * * * * * * * * * * * * * * * * * * * * * * * * * * * * //

dimensions      [1 1 2 0 0 0 0];

internalField   nonuniform List<scalar> 
550
(
0.0488575
0.0674689
0.0900926
0.116528
0.146137
0.177908
0.210637
0.242973
0.273723
0.301796
0.32648
0.34729
0.364106
0.376979
0.386175
0.392029
0.394986
0.395493
0.394019
0.391096
0.387037
0.38211
0.376546
0.370544
0.364283
0.357911
0.351547
0.345304
0.339267
0.333439
0.327832
0.322466
0.317357
0.312518
0.307949
0.303649
0.299608
0.295817
0.292262
0.28893
0.285809
0.282889
0.280157
0.277605
0.275225
0.273006
0.270943
0.269025
0.267244
0.265588
0.264045
0.262603
0.261252
0.259981
0.25878
0.257642
0.25656
0.255531
0.254553
0.253624
0.252742
0.251903
0.251107
0.25035
0.249629
0.248941
0.248285
0.247656
0.247055
0.246478
0.245925
0.245394
0.244881
0.244384
0.243899
0.243425
0.242956
0.24249
0.242025
0.241557
0.241087
0.240615
0.24014
0.239665
0.239191
0.23872
0.238257
0.237803
0.237361
0.236932
0.236518
0.236119
0.235733
0.235357
0.234989
0.234627
0.234269
0.233912
0.233556
0.233199
0.23284
0.23248
0.232119
0.231754
0.231385
0.231011
0.230631
0.230245
0.229853
0.229449
0.229041
0.22863
0.228224
0.227813
0.227389
0.226956
0.226579
0.226117
0.225686
0.22527
0.224811
0.224361
0.223925
0.223497
0.223014
0.222559
0.222132
0.221747
0.22134
0.220845
0.220361
0.219934
0.219532
0.219071
0.218638
0.2182
0.217735
0.217268
0.21683
0.21635
0.215956
0.215556
0.215095
0.214649
0.214173
0.213726
0.213287
0.212848
0.212426
0.211992
0.211556
0.211092
0.210681
0.210307
0.209869
0.20942
0.209042
0.208648
0.208211
0.207791
0.207404
0.207029
0.206658
0.206272
0.205878
0.205525
0.205132
0.204721
0.204389
0.204057
0.203664
0.203296
0.202972
0.20262
0.202284
0.201977
0.201686
0.201368
0.201042
0.200739
0.20043
0.200139
0.199878
0.199606
0.199304
0.19899
0.19874
0.198504
0.198211
0.197926
0.197678
0.197412
0.19719
0.197017
0.1968
0.196576
0.196402
0.196188
0.196002
0.195833
0.195631
0.195502
0.195373
0.195227
0.19513
0.195034
0.194973
0.194826
0.194683
0.194557
0.194364
0.194211
0.194035
0.193842
0.193472
0.19326
0.193477
0.193753
0.194085
0.194449
0.194801
0.195155
0.195484
0.195818
0.196136
0.196463
0.196778
0.197093
0.197394
0.197683
0.197955
0.198204
0.198424
0.198624
0.19878
0.198933
0.199018
0.199135
0.19919
0.199215
0.19916
0.199218
0.199202
0.198991
0.198905
0.198718
0.198774
0.198758
0.198572
0.198489
0.198374
0.198265
0.19816
0.197958
0.197815
0.197743
0.197698
0.197632
0.197539
0.197434
0.197395
0.197307
0.197147
0.196939
0.19673
0.196522
0.19631
0.19612
0.195929
0.195728
0.195549
0.195385
0.195228
0.195104
0.195001
0.194904
0.194818
0.194765
0.194725
0.19468
0.194637
0.194614
0.194618
0.194631
0.194649
0.194664
0.194687
0.194718
0.194748
0.194772
0.194793
0.194813
0.194834
0.194853
0.194864
0.194868
0.194865
0.194862
0.194862
0.194863
0.194865
0.194868
0.194865
0.194859
0.19485
0.194836
0.194821
0.194801
0.19478
0.194755
0.194729
0.194699
0.194668
0.194635
0.1946
0.194563
0.194525
0.194487
0.194449
0.194413
0.194379
0.194348
0.194319
0.194294
0.194271
0.194252
0.194235
0.194222
0.194211
0.194204
0.194199
0.194196
0.194197
0.194203
0.194217
0.194237
0.194262
0.194291
0.194325
0.194361
0.194401
0.194446
0.194493
0.194543
0.194595
0.194648
0.194701
0.194753
0.194803
0.194849
0.194889
0.194925
0.194956
0.194974
0.194983
0.194979
0.194958
0.194923
0.194873
0.194809
0.194735
0.194651
0.194554
0.194449
0.194338
0.194219
0.194099
0.193987
0.193887
0.193797
0.193709
0.193622
0.193533
0.193443
0.193352
0.193262
0.193171
0.193082
0.192996
0.192914
0.192838
0.19277
0.19271
0.19266
0.192619
0.192585
0.192557
0.192533
0.19251
0.192487
0.192463
0.192438
0.192412
0.192382
0.19235
0.192315
0.192278
0.192239
0.192198
0.192156
0.192114
0.192071
0.192028
0.191985
0.191942
0.191899
0.191857
0.191815
0.191773
0.191731
0.191689
0.191646
0.191602
0.191557
0.191512
0.191465
0.191417
0.191367
0.191317
0.191264
0.19121
0.191155
0.191098
0.191041
0.190982
0.190923
0.190863
0.190804
0.190744
0.190684
0.190625
0.190567
0.190509
0.190453
0.190398
0.190344
0.190292
0.190241
0.190192
0.190143
0.190096
0.190051
0.190006
0.189963
0.189921
0.189881
0.189843
0.189807
0.189772
0.18974
0.189708
0.189678
0.18965
0.189623
0.189597
0.189571
0.189545
0.18952
0.189495
0.189469
0.189443
0.189417
0.18939
0.189362
0.189333
0.189305
0.189277
0.18925
0.189224
0.1892
0.189179
0.189162
0.18915
0.189142
0.189142
0.189148
0.189166
0.189198
0.189244
0.189302
0.18937
0.189447
0.18953
0.18962
0.189717
0.189818
0.189924
0.190032
0.190142
0.190253
0.190363
0.190472
0.19058
0.190686
0.190789
0.19089
0.190987
0.191082
0.191173
0.191262
0.191348
0.191432
0.191516
0.191598
0.19168
0.191763
0.191845
0.191929
0.192012
0.192098
0.192184
0.192273
0.192363
0.192456
0.192546
0.192653
0.192734
0.192865
0.192929
0.193108
0.193131
0.19339
0.193362
0.193726
0.19367
0.194112
0.194033
0.194472
0.194384
0.194673
0.194603
0.194544
0.194515
0.193976
0.193916
0.192802
0.192165
0.188886
0.182696
0.158417
0.1307
0.117429
0.102859
0.0888889
0.0701283
0.0474882
0.0278072
0.0256872
0.0416236
0.0677541
)
;

boundaryField
{
    inlet
    {
        type            calculated;
        value           uniform 0;
    }
    endWall
    {
        type            calculated;
        value           uniform 0;
    }
    sideWall
    {
        type            empty;
    }
}


// ************************************************************************* //
