/*--------------------------------*- C++ -*----------------------------------*\
| =========                 |                                                 |
| \\      /  F ield         | foam-extend: Open Source CFD                    |
|  \\    /   O peration     | Version:     3.2                                |
|   \\  /    A nd           | Web:         http://www.foam-extend.org         |
|    \\/     M anipulation  | For copyright notice see file Copyright         |
\*---------------------------------------------------------------------------*/
FoamFile
{
    version     2.0;
    format      ascii;
    class       areaScalarField;
    location    "910";
    object      Uf;
}
// * * * * * * * * * * * * * * * * * * * * * * * * * * * * * * * * * * * * * //

dimensions      [0 1 -1 0 0 0 0];

internalField   nonuniform List<scalar> 
550
(
0.00700383
0.00823043
0.00951075
0.0108164
0.012113
0.013365
0.0145425
0.0156188
0.0165777
0.0174071
0.018105
0.0186731
0.0191198
0.0194549
0.0196907
0.0198394
0.0199141
0.0199268
0.0198897
0.0198158
0.0197127
0.0195868
0.0194436
0.0192881
0.0191244
0.0189564
0.0187871
0.0186196
0.0184561
0.0182969
0.0181424
0.0179933
0.0178502
0.0177136
0.0175836
0.0174604
0.0173439
0.0172338
0.0171299
0.017032
0.0169398
0.016853
0.0167715
0.0166949
0.0166232
0.016556
0.0164933
0.0164349
0.0163803
0.0163295
0.016282
0.0162375
0.0161957
0.0161562
0.0161189
0.0160834
0.0160496
0.0160174
0.0159867
0.0159575
0.0159297
0.0159033
0.0158781
0.0158541
0.0158313
0.0158095
0.0157886
0.0157686
0.0157494
0.015731
0.0157134
0.0156964
0.01568
0.0156641
0.0156485
0.0156333
0.0156182
0.0156033
0.0155883
0.0155733
0.0155581
0.0155429
0.0155275
0.0155122
0.0154968
0.0154816
0.0154666
0.0154518
0.0154374
0.0154235
0.01541
0.015397
0.0153844
0.0153721
0.0153601
0.0153482
0.0153365
0.0153248
0.0153132
0.0153015
0.0152897
0.0152779
0.015266
0.015254
0.0152419
0.0152295
0.015217
0.0152043
0.0151913
0.015178
0.0151646
0.0151509
0.0151373
0.015124
0.0151099
0.0150951
0.0150826
0.0150673
0.015053
0.015039
0.0150237
0.0150085
0.0149939
0.0149802
0.014964
0.0149481
0.0149337
0.0149206
0.014907
0.0148914
0.014875
0.0148595
0.0148461
0.0148306
0.0148155
0.0148009
0.0147861
0.0147702
0.0147542
0.014738
0.0147248
0.0147107
0.0146948
0.0146805
0.0146651
0.0146493
0.0146334
0.0146185
0.0146038
0.0145889
0.0145749
0.0145587
0.0145434
0.0145307
0.0145167
0.014501
0.0144871
0.0144735
0.0144585
0.0144438
0.0144304
0.0144173
0.0144043
0.0143909
0.0143768
0.0143646
0.0143517
0.0143373
0.0143246
0.0143132
0.0143004
0.0142873
0.0142752
0.0142629
0.0142512
0.0142403
0.0142301
0.0142188
0.0142073
0.0141966
0.0141857
0.0141753
0.0141658
0.0141563
0.0141464
0.0141352
0.0141256
0.0141173
0.014107
0.0140968
0.0140879
0.0140784
0.0140703
0.0140642
0.0140573
0.0140493
0.0140423
0.0140346
0.0140282
0.0140221
0.0140148
0.0140102
0.0140056
0.0140004
0.0139969
0.0139935
0.0139913
0.013986
0.0139809
0.0139764
0.0139694
0.013964
0.0139576
0.0139507
0.0139374
0.0139297
0.0139375
0.0139474
0.0139594
0.0139725
0.0139851
0.0139978
0.0140096
0.0140216
0.014033
0.0140447
0.0140559
0.0140672
0.0140779
0.0140882
0.0140979
0.0141068
0.0141146
0.0141217
0.0141272
0.0141327
0.0141357
0.0141399
0.0141418
0.0141427
0.0141408
0.0141428
0.0141422
0.0141347
0.0141317
0.014125
0.014127
0.0141264
0.0141198
0.0141169
0.0141128
0.0141089
0.0141052
0.014098
0.0140929
0.0140903
0.0140887
0.0140864
0.014083
0.0140793
0.0140779
0.0140748
0.014069
0.0140616
0.0140542
0.0140467
0.0140391
0.0140323
0.0140255
0.0140183
0.0140119
0.014006
0.0140004
0.013996
0.0139923
0.0139888
0.0139857
0.0139838
0.0139824
0.0139808
0.0139792
0.0139784
0.0139785
0.013979
0.0139797
0.0139802
0.013981
0.0139821
0.0139832
0.0139841
0.0139848
0.0139856
0.0139863
0.013987
0.0139874
0.0139875
0.0139875
0.0139873
0.0139873
0.0139874
0.0139875
0.0139875
0.0139875
0.0139872
0.0139869
0.0139864
0.0139858
0.0139852
0.0139844
0.0139835
0.0139825
0.0139815
0.0139804
0.0139792
0.0139779
0.0139766
0.0139752
0.0139739
0.0139725
0.0139712
0.01397
0.0139689
0.0139678
0.0139669
0.0139661
0.0139654
0.0139648
0.0139643
0.0139639
0.0139637
0.0139635
0.0139634
0.0139634
0.0139637
0.0139641
0.0139649
0.0139658
0.0139668
0.013968
0.0139693
0.0139708
0.0139724
0.013974
0.0139758
0.0139777
0.0139796
0.0139815
0.0139834
0.0139852
0.0139868
0.0139883
0.0139896
0.0139906
0.0139913
0.0139916
0.0139915
0.0139907
0.0139895
0.0139877
0.0139854
0.0139827
0.0139797
0.0139762
0.0139724
0.0139684
0.0139642
0.0139599
0.0139558
0.0139522
0.013949
0.0139458
0.0139427
0.0139395
0.0139362
0.013933
0.0139297
0.0139264
0.0139232
0.0139201
0.0139172
0.0139144
0.013912
0.0139098
0.013908
0.0139065
0.0139053
0.0139043
0.0139034
0.0139026
0.0139018
0.0139009
0.0139
0.0138991
0.013898
0.0138969
0.0138956
0.0138943
0.0138929
0.0138914
0.0138899
0.0138883
0.0138868
0.0138852
0.0138837
0.0138821
0.0138806
0.0138791
0.0138776
0.0138761
0.0138745
0.013873
0.0138714
0.0138699
0.0138682
0.0138666
0.0138649
0.0138632
0.0138614
0.0138595
0.0138576
0.0138557
0.0138537
0.0138516
0.0138495
0.0138474
0.0138453
0.0138431
0.0138409
0.0138388
0.0138366
0.0138344
0.0138323
0.0138302
0.0138282
0.0138262
0.0138242
0.0138223
0.0138205
0.0138187
0.0138169
0.0138152
0.0138135
0.0138119
0.0138103
0.0138088
0.0138074
0.013806
0.0138047
0.0138034
0.0138022
0.0138011
0.0138
0.0137989
0.0137979
0.013797
0.0137961
0.0137951
0.0137942
0.0137933
0.0137924
0.0137914
0.0137905
0.0137895
0.0137885
0.0137874
0.0137864
0.0137854
0.0137844
0.0137834
0.0137826
0.0137818
0.0137812
0.0137808
0.0137805
0.0137805
0.0137807
0.0137813
0.0137825
0.0137842
0.0137863
0.0137888
0.0137916
0.0137946
0.0137979
0.0138014
0.0138051
0.0138089
0.0138128
0.0138168
0.0138209
0.0138249
0.0138288
0.0138328
0.0138366
0.0138403
0.013844
0.0138475
0.0138509
0.0138542
0.0138575
0.0138606
0.0138636
0.0138666
0.0138696
0.0138726
0.0138756
0.0138786
0.0138816
0.0138846
0.0138877
0.0138908
0.013894
0.0138973
0.0139006
0.0139039
0.0139077
0.0139106
0.0139154
0.0139177
0.0139241
0.0139249
0.0139343
0.0139333
0.0139464
0.0139444
0.0139603
0.0139574
0.0139732
0.0139701
0.0139804
0.0139779
0.0139758
0.0139748
0.0139554
0.0139532
0.0139131
0.0138901
0.0137711
0.0135436
0.0126116
0.0114553
0.0108582
0.0101623
0.00944702
0.00839109
0.00690501
0.00528383
0.00507841
0.00646458
0.00824781
)
;

boundaryField
{
    inlet
    {
        type            calculated;
        value           uniform 0;
    }
    endWall
    {
        type            calculated;
        value           uniform 0;
    }
    sideWall
    {
        type            empty;
    }
}


// ************************************************************************* //
