/*--------------------------------*- C++ -*----------------------------------*\
| =========                 |                                                 |
| \\      /  F ield         | foam-extend: Open Source CFD                    |
|  \\    /   O peration     | Version:     3.2                                |
|   \\  /    A nd           | Web:         http://www.foam-extend.org         |
|    \\/     M anipulation  | For copyright notice see file Copyright         |
\*---------------------------------------------------------------------------*/
FoamFile
{
    version     2.0;
    format      ascii;
    class       areaScalarField;
    location    "120";
    object      angBeta;
}
// * * * * * * * * * * * * * * * * * * * * * * * * * * * * * * * * * * * * * //

dimensions      [0 0 0 0 0 0 0];

internalField   nonuniform List<scalar> 
550
(
0.002
0.002
0.002
0.002
0.002
0.002
0.002
0.002
0.002
0.002
0.002
0.002
0.002
0.002
0.002
0.002
0.002
0.002
0.002
0.002
0.002
0.002
0.002
0.002
0.002
0.002
0.002
0.002
0.002
0.002
0.002
0.002
0.002
0.002
0.002
0.002
0.002
0.002
0.002
0.002
0.002
0.002
0.002
0.002
0.002
0.002
0.002
0.002
0.002
0.002
0.002
0.002
0.002
0.002
0.002
0.002
0.002
0.002
0.002
0.002
0.002
0.002
0.002
0.002
0.002
0.002
0.002
0.002
0.002
0.002
0.002
0.002
0.002
0.002
0.002
0.002
0.002
0.002
0.002
0.002
0.002
0.002
0.002
0.002
0.002
0.002
0.002
0.002
0.002
0.002
0.002
0.002
0.002
0.002
0.002
0.002
0.002
0.002
0.002
0.002
0.002
0.002
0.002
0.002
0.002
0.002
0.002
0.002
0.002
0.002
0.002
0.002
0.002
0.002
0.002
0.002
0.002
0.002
0.002
0.002
0.002
0.002
0.002
0.002
0.002
0.002
0.002
0.002
0.002
0.002
0.002
0.002
0.002
0.002
0.002
0.002
0.002
0.002
0.002
0.002
0.002
0.002
0.002
0.002
0.002
0.002
0.002
0.002
0.002
0.002
0.002
0.002
0.002
0.002
0.002
0.002
0.002
0.002
0.002
0.002
0.002
0.002
0.002
0.002
0.002
0.002
0.002
0.002
0.002
0.002
0.002
0.002
0.002
0.002
0.002
0.002
0.002
0.002
0.002
0.002
0.002
0.002
0.002
0.002
0.002
0.002
0.002
0.002
0.002
0.002
0.002
0.002
0.002
0.002
0.002
0.002
0.002
0.002
0.002
0.002
0.002
0.002
0.002
0.002
0.002
0.002
0.002
0.002
0.002
0.002
0.002
0.002
0.002
0.002
0.002
0.002
0.002
0.002
0.002
0.002
0.002
0.002
0.002
0.002
0.002
0.002
0.002
0.002
0.002
0.002
0.002
0.002
0.002
0.002
0.00200004
0.00200022
0.00199948
0.00199929
0.00199467
0.00198705
0.0019802
0.0019722
0.00196506
0.00195631
0.00195402
0.00195737
0.00195682
0.00195556
0.00195522
0.00195516
0.00195525
0.00195509
0.00195486
0.00195462
0.00195439
0.00195417
0.00195398
0.0019538
0.00195365
0.00195353
0.00195343
0.00195336
0.00195332
0.00195331
0.00195334
0.0019534
0.00195349
0.0019536
0.00195375
0.00195392
0.00195413
0.00195436
0.00195462
0.0019549
0.00195522
0.00195556
0.00195593
0.00195634
0.00195677
0.00195722
0.00195771
0.00195822
0.00195875
0.00195931
0.00195988
0.00196048
0.0019611
0.00196174
0.0019624
0.00196309
0.00196382
0.00196459
0.00196541
0.00196629
0.00196724
0.00196824
0.0019693
0.0019704
0.00197152
0.00197265
0.00197378
0.0019749
0.00197601
0.0019771
0.00197817
0.00197923
0.00198028
0.0019813
0.00198231
0.00198329
0.00198426
0.0019852
0.00198612
0.00198701
0.00198789
0.00198875
0.00198957
0.00199038
0.00199115
0.00199189
0.0019926
0.00199326
0.00199388
0.00199446
0.00199498
0.00199546
0.00199588
0.00199625
0.00199655
0.0019968
0.00199698
0.0019971
0.00199716
0.00199715
0.00199707
0.00199692
0.00199671
0.00199643
0.00199609
0.00199567
0.0019952
0.00199467
0.00199408
0.00199344
0.00199273
0.00199199
0.00199119
0.00199036
0.00198948
0.00198857
0.00198764
0.00198668
0.0019857
0.0019847
0.00198368
0.00198266
0.00198163
0.00198059
0.00197955
0.00197852
0.00197749
0.00197648
0.00197547
0.00197448
0.0019735
0.00197253
0.00197159
0.00197065
0.00196974
0.00196885
0.00196798
0.00196714
0.00196632
0.00196553
0.00196478
0.00196405
0.00196336
0.0019627
0.00196209
0.00196151
0.00196096
0.00196045
0.00195997
0.00195953
0.00195911
0.00195871
0.00195835
0.00195801
0.0019577
0.00195742
0.00195717
0.00195694
0.00195674
0.00195657
0.00195641
0.00195628
0.00195618
0.00195609
0.00195603
0.00195599
0.00195598
0.00195599
0.00195602
0.00195607
0.00195615
0.00195626
0.00195639
0.00195654
0.00195672
0.00195693
0.00195715
0.0019574
0.00195767
0.00195795
0.00195825
0.00195856
0.00195889
0.00195923
0.00195958
0.00195995
0.00196033
0.00196073
0.00196115
0.00196159
0.00196205
0.00196252
0.00196301
0.00196352
0.00196403
0.00196456
0.00196511
0.00196567
0.00196626
0.00196688
0.00196754
0.00196823
0.00196898
0.00196977
0.00197059
0.00197145
0.00197232
0.0019732
0.00197408
0.00197495
0.00197581
0.00197665
0.00197746
0.00197825
0.00197903
0.00197978
0.00198051
0.00198123
0.00198194
0.00198264
0.00198333
0.00198401
0.00198468
0.00198533
0.00198598
0.00198661
0.00198722
0.00198781
0.00198838
0.00198893
0.00198945
0.00198994
0.0019904
0.00199083
0.00199123
0.0019916
0.00199194
0.00199225
0.00199253
0.00199278
0.001993
0.00199318
0.00199333
0.00199344
0.00199353
0.00199357
0.00199358
0.00199355
0.00199349
0.00199339
0.00199326
0.00199308
0.00199287
0.00199262
0.00199235
0.00199203
0.00199169
0.00199133
0.00199094
0.00199054
0.00199012
0.00198969
0.00198924
0.00198879
0.00198833
0.00198786
0.00198739
0.00198691
0.00198644
0.00198596
0.00198549
0.00198502
0.00198456
0.0019841
0.00198367
0.00198322
0.00198279
0.00198235
0.00198192
0.00198146
0.001981
0.00198048
0.00197994
0.00197929
0.00197855
0.00197761
0.00197643
0.00197484
0.00197272
0.00196996
0.00196567
0.0019604
0.00195177
0.00193959
0.00192138
0.00189568
0.00185774
0.0018051
0.00172747
0.00162139
0.00146686
0.00124836
0.00114834
0.000421227
0.00763746
0.00880073
0.002
0.002
0.002
0.002
0.002
0.002
0.002
0.002
0.002
0.002
)
;

boundaryField
{
    inlet
    {
        type            calculated;
        value           uniform 0;
    }
    endWall
    {
        type            calculated;
        value           uniform 0;
    }
    sideWall
    {
        type            empty;
    }
}


// ************************************************************************* //
