/*--------------------------------*- C++ -*----------------------------------*\
| =========                 |                                                 |
| \\      /  F ield         | foam-extend: Open Source CFD                    |
|  \\    /   O peration     | Version:     3.2                                |
|   \\  /    A nd           | Web:         http://www.foam-extend.org         |
|    \\/     M anipulation  | For copyright notice see file Copyright         |
\*---------------------------------------------------------------------------*/
FoamFile
{
    version     2.0;
    format      ascii;
    class       areaScalarField;
    location    "120";
    object      Hdep;
}
// * * * * * * * * * * * * * * * * * * * * * * * * * * * * * * * * * * * * * //

dimensions      [0 0 0 0 0 0 0];

internalField   nonuniform List<scalar> 
550
(
0
0
0
0
0
0
0
0
0
0
0
0
0
0
0
0
0
0
0
0
0
0
0
0
0
0
0
0
0
0
0
0
0
0
0
0
0
0
0
0
0
0
0
0
0
0
0
0
0
0
0
0
0
0
0
0
0
0
0
0
0
0
0
0
0
0
0
0
0
0
0
0
0
0
0
0
0
0
0
0
0
0
0
0
0
0
0
0
0
0
0
0
0
0
0
0
0
0
0
0
0
0
0
0
0
0
0
0
0
0
0
0
0
0
0
0
0
0
0
0
0
0
0
0
0
0
0
0
0
0
0
0
0
0
0
0
0
0
0
0
0
0
0
0
0
0
0
0
0
0
0
0
0
0
0
0
0
0
0
0
0
0
0
0
0
0
0
0
0
0
0
0
0
0
0
0
0
0
0
0
0
0
0
0
0
0
0
0
0
0
0
0
0
0
0
0
0
0
0
0
0
0
0
0
0
0
0
0
0
0
0
0
0
0
0
0
0
0
0
0
0
0
0
0
0
0
0
0
0
0
0
0
0
0
0
0
0
5.1214e-08
2.38805e-07
4.47117e-07
8.85026e-07
1.28471e-06
1.77597e-06
2.38062e-06
3.17154e-06
3.94384e-06
4.69517e-06
5.46967e-06
6.26136e-06
7.07031e-06
7.88466e-06
8.6997e-06
9.51833e-06
1.03412e-05
1.11684e-05
1.19996e-05
1.28346e-05
1.36729e-05
1.45141e-05
1.53578e-05
1.62036e-05
1.7051e-05
1.78993e-05
1.8748e-05
1.95966e-05
2.04444e-05
2.12909e-05
2.21355e-05
2.29777e-05
2.38169e-05
2.46528e-05
2.54847e-05
2.63122e-05
2.71347e-05
2.79517e-05
2.87627e-05
2.95673e-05
3.03648e-05
3.11547e-05
3.19366e-05
3.27099e-05
3.34742e-05
3.42289e-05
3.49738e-05
3.57084e-05
3.64323e-05
3.71453e-05
3.78467e-05
3.85363e-05
3.92136e-05
3.9878e-05
4.05287e-05
4.1165e-05
4.17859e-05
4.23901e-05
4.29766e-05
4.35443e-05
4.40924e-05
4.46203e-05
4.51277e-05
4.56146e-05
4.60811e-05
4.65274e-05
4.69537e-05
4.73602e-05
4.77474e-05
4.81154e-05
4.84646e-05
4.87954e-05
4.91081e-05
4.9403e-05
4.96806e-05
4.99414e-05
5.01856e-05
5.04137e-05
5.06261e-05
5.08231e-05
5.10053e-05
5.11731e-05
5.13272e-05
5.14681e-05
5.15967e-05
5.17135e-05
5.18194e-05
5.19154e-05
5.20022e-05
5.20809e-05
5.21525e-05
5.22179e-05
5.22783e-05
5.23348e-05
5.23885e-05
5.24407e-05
5.24924e-05
5.2545e-05
5.25996e-05
5.26574e-05
5.27197e-05
5.27877e-05
5.28626e-05
5.29454e-05
5.30374e-05
5.31396e-05
5.32531e-05
5.33788e-05
5.35176e-05
5.36705e-05
5.38381e-05
5.40214e-05
5.42209e-05
5.44371e-05
5.46705e-05
5.49217e-05
5.51908e-05
5.54782e-05
5.57841e-05
5.61088e-05
5.64522e-05
5.68145e-05
5.71956e-05
5.75954e-05
5.80138e-05
5.84506e-05
5.89056e-05
5.93785e-05
5.9869e-05
6.0377e-05
6.0902e-05
6.14439e-05
6.20021e-05
6.25765e-05
6.31663e-05
6.37712e-05
6.43906e-05
6.50241e-05
6.56711e-05
6.63309e-05
6.7003e-05
6.76867e-05
6.83813e-05
6.90861e-05
6.98005e-05
7.05239e-05
7.12557e-05
7.19954e-05
7.27424e-05
7.34963e-05
7.42566e-05
7.50229e-05
7.57945e-05
7.6571e-05
7.73517e-05
7.81364e-05
7.89244e-05
7.97155e-05
8.05091e-05
8.13048e-05
8.21024e-05
8.29013e-05
8.3701e-05
8.45012e-05
8.53014e-05
8.61014e-05
8.69004e-05
8.76984e-05
8.84946e-05
8.92887e-05
9.00803e-05
9.08687e-05
9.16537e-05
9.24347e-05
9.32115e-05
9.39835e-05
9.47506e-05
9.55124e-05
9.62687e-05
9.70191e-05
9.77635e-05
9.85016e-05
9.92332e-05
9.99578e-05
0.000100675
0.000101385
0.000102088
0.000102782
0.000103467
0.000104144
0.000104812
0.000105471
0.00010612
0.000106759
0.000107388
0.000108007
0.000108615
0.000109211
0.000109795
0.000110365
0.000110922
0.000111464
0.000111991
0.000112502
0.000112997
0.000113477
0.00011394
0.000114387
0.00011482
0.000115237
0.000115639
0.000116028
0.000116402
0.000116763
0.000117111
0.000117445
0.000117767
0.000118077
0.000118373
0.000118658
0.000118931
0.000119191
0.000119441
0.000119678
0.000119905
0.000120122
0.000120328
0.000120524
0.000120712
0.000120891
0.000121061
0.000121224
0.00012138
0.00012153
0.000121673
0.000121812
0.000121945
0.000122074
0.0001222
0.000122323
0.000122443
0.000122561
0.000122679
0.000122795
0.000122912
0.00012303
0.000123149
0.000123271
0.000123395
0.000123522
0.000123654
0.000123791
0.000123933
0.000124081
0.000124235
0.000124396
0.000124565
0.00012474
0.000124924
0.000125115
0.000125315
0.000125523
0.000125739
0.000125964
0.000126198
0.00012644
0.000126691
0.00012695
0.000127218
0.000127495
0.00012778
0.000128073
0.000128374
0.000128683
0.000129
0.000129324
0.000129657
0.000129998
0.000130348
0.000130708
0.000131079
0.000131462
0.00013186
0.000132278
0.000132721
0.000133198
0.000133719
0.000134304
0.000134976
0.000135774
0.000136762
0.000138026
0.000139689
0.000141931
0.000144996
0.000149245
0.000155164
0.000163453
0.000175132
0.000189707
0.000211799
0.000174905
0
0
0
0
0
0
0
0
0
0
0
)
;

boundaryField
{
    inlet
    {
        type            calculated;
        value           uniform 0;
    }
    endWall
    {
        type            calculated;
        value           uniform 0;
    }
    sideWall
    {
        type            empty;
    }
}


// ************************************************************************* //
