/*--------------------------------*- C++ -*----------------------------------*\
| =========                 |                                                 |
| \\      /  F ield         | foam-extend: Open Source CFD                    |
|  \\    /   O peration     | Version:     3.2                                |
|   \\  /    A nd           | Web:         http://www.foam-extend.org         |
|    \\/     M anipulation  | For copyright notice see file Copyright         |
\*---------------------------------------------------------------------------*/
FoamFile
{
    version     2.0;
    format      ascii;
    class       areaScalarField;
    location    "120";
    object      kTempA;
}
// * * * * * * * * * * * * * * * * * * * * * * * * * * * * * * * * * * * * * //

dimensions      [0 2 -2 0 0 0 0];

internalField   nonuniform List<scalar> 
550
(
0.000163516
0.000225634
0.000301014
0.000388903
0.000487115
0.000592238
0.00070027
0.000806743
0.00090778
0.000999818
0.00108059
0.00114855
0.00120339
0.00124528
0.00127512
0.00129403
0.00130349
0.00130497
0.00129999
0.00129031
0.00127695
0.00126076
0.00124251
0.00122284
0.00120232
0.00118144
0.0011606
0.00114018
0.00112046
0.00110144
0.00108316
0.00106568
0.00104904
0.00103326
0.00101835
0.00100428
0.000991051
0.000978624
0.000966971
0.00095606
0.000945856
0.000936321
0.000927414
0.000919097
0.00091133
0.000904076
0.000897304
0.000890982
0.000885082
0.000879573
0.000874429
0.000869623
0.000865128
0.00086092
0.000856974
0.000853265
0.000849772
0.000846476
0.00084336
0.000840408
0.000837605
0.000834939
0.000832399
0.000829975
0.000827658
0.000825437
0.000823305
0.000821254
0.000819276
0.000817366
0.000815516
0.00081372
0.000811974
0.000810271
0.000808608
0.000806981
0.000805384
0.000803815
0.000802273
0.000800755
0.000799264
0.000797797
0.000796353
0.000794931
0.000793531
0.000792151
0.000790791
0.00078945
0.000788127
0.000786821
0.000785532
0.000784256
0.000782989
0.000781731
0.000780482
0.00077924
0.000778008
0.000776785
0.00077557
0.000774366
0.000773171
0.000771983
0.000770798
0.000769613
0.000768426
0.000767233
0.000766032
0.000764822
0.000763601
0.000762367
0.00076112
0.00075986
0.000758585
0.000757296
0.000755994
0.000754679
0.000753348
0.000752002
0.000750643
0.000749271
0.000747886
0.000746489
0.000745081
0.000743662
0.000742233
0.000740795
0.000739349
0.000737896
0.000736439
0.000734977
0.000733512
0.000732045
0.000730575
0.000729105
0.000727634
0.000726163
0.000724692
0.000723223
0.000721755
0.00072029
0.000718828
0.000717369
0.000715915
0.000714465
0.00071302
0.000711581
0.000710147
0.000708721
0.000707301
0.000705889
0.000704484
0.000703089
0.000701702
0.000700325
0.000698959
0.000697604
0.000696261
0.000694931
0.000693615
0.000692312
0.000691024
0.000689751
0.000688492
0.000687249
0.000686022
0.000684812
0.000683618
0.000682442
0.000681283
0.000680143
0.00067902
0.000677916
0.000676831
0.000675765
0.000674718
0.000673691
0.000672682
0.000671693
0.000670723
0.000669772
0.000668839
0.000667926
0.000667031
0.000666154
0.000665296
0.000664457
0.000663635
0.000662832
0.000662046
0.000661278
0.000660529
0.000659797
0.000659083
0.000658387
0.000657709
0.000657049
0.000656406
0.000655782
0.000655175
0.000654587
0.000654016
0.000653463
0.000652928
0.00065241
0.000651909
0.000651426
0.000650959
0.000650507
0.000650071
0.00064965
0.000649242
0.000648847
0.000648465
0.000648094
0.000647733
0.000647382
0.00064704
0.000646706
0.00064638
0.000646059
0.000645744
0.000645434
0.000645128
0.000644826
0.000644526
0.000644228
0.000643928
0.000643625
0.000643316
0.000643001
0.00064268
0.000642354
0.000642023
0.000641688
0.000641349
0.000641007
0.000640663
0.000640315
0.000639965
0.000639615
0.000639266
0.000638918
0.000638572
0.00063823
0.000637892
0.000637554
0.000637216
0.000636879
0.000636542
0.000636204
0.000635865
0.000635524
0.000635181
0.000634835
0.000634486
0.000634132
0.000633775
0.000633412
0.000633044
0.000632672
0.000632296
0.000631915
0.000631529
0.000631139
0.000630745
0.000630346
0.000629944
0.000629538
0.000629129
0.000628718
0.000628303
0.000627887
0.000627468
0.000627048
0.000626627
0.000626206
0.000625784
0.000625363
0.000624941
0.00062452
0.000624099
0.000623678
0.000623259
0.000622842
0.000622427
0.000622016
0.000621608
0.000621204
0.000620805
0.00062041
0.000620021
0.000619637
0.000619259
0.000618887
0.000618522
0.000618163
0.000617811
0.000617466
0.000617129
0.000616798
0.000616473
0.000616155
0.000615842
0.000615534
0.000615232
0.000614933
0.000614638
0.000614347
0.00061406
0.000613777
0.000613497
0.000613222
0.000612952
0.000612685
0.000612423
0.000612166
0.000611913
0.000611664
0.000611419
0.000611178
0.000610941
0.000610708
0.00061048
0.000610256
0.000610036
0.000609821
0.00060961
0.000609403
0.0006092
0.000609001
0.000608805
0.000608613
0.000608423
0.000608237
0.000608053
0.000607872
0.000607694
0.000607517
0.000607343
0.000607169
0.000606997
0.000606825
0.000606653
0.00060648
0.000606306
0.00060613
0.00060595
0.000605767
0.00060558
0.000605387
0.000605188
0.000604982
0.000604769
0.000604548
0.00060432
0.000604083
0.000603839
0.000603587
0.000603328
0.000603061
0.000602788
0.000602507
0.00060222
0.000601926
0.000601624
0.000601316
0.000601001
0.000600678
0.000600349
0.000600013
0.00059967
0.000599321
0.000598964
0.0005986
0.000598229
0.00059785
0.000597462
0.000597066
0.000596662
0.000596249
0.000595828
0.000595399
0.000594962
0.000594518
0.000594066
0.000593607
0.000593142
0.000592671
0.000592193
0.00059171
0.000591221
0.000590727
0.000590229
0.000589726
0.000589221
0.000588712
0.000588201
0.000587686
0.00058717
0.000586651
0.000586129
0.000585606
0.000585081
0.000584554
0.000584027
0.000583499
0.00058297
0.000582441
0.000581911
0.000581382
0.000580852
0.000580322
0.000579791
0.00057926
0.000578728
0.000578194
0.000577659
0.000577123
0.000576585
0.000576045
0.000575504
0.000574961
0.000574416
0.000573871
0.000573324
0.000572776
0.000572227
0.000571679
0.00057113
0.000570582
0.000570036
0.000569491
0.000568949
0.00056841
0.000567875
0.000567345
0.000566819
0.000566298
0.000565782
0.000565273
0.000564769
0.000564273
0.000563783
0.000563301
0.000562827
0.000562361
0.000561903
0.000561453
0.000561011
0.000560576
0.000560148
0.000559726
0.00055931
0.0005589
0.000558496
0.000558098
0.000557705
0.000557318
0.000556937
0.000556561
0.00055619
0.000555824
0.000555461
0.000555102
0.000554744
0.000554389
0.000554036
0.000553684
0.000553335
0.000552989
0.000552644
0.000552302
0.000551963
0.000551625
0.00055129
0.000550957
0.000550627
0.0005503
0.000549977
0.000549657
0.00054934
0.000549027
0.000548717
0.00054841
0.000548105
0.000547803
0.000547503
0.000547205
0.000546906
0.000546608
0.000546309
0.000546009
0.000545707
0.000545403
0.000545097
0.000544789
0.000544478
0.000544167
0.000543853
0.00054354
0.000543224
0.000542909
0.000542591
0.000542272
0.000541947
0.00054162
0.000541285
0.000540945
0.000540597
0.000540244
0.000539881
0.000539514
0.000539139
0.000538759
0.00053837
0.000537978
0.000537577
0.000537174
0.000536763
0.000536351
0.000535931
0.000535508
0.000535073
0.000534632
0.000534172
0.000533698
0.000533194
0.000532669
0.000532084
0.000531461
0.000530715
0.000529887
0.000528816
0.00052757
0.000525841
0.00052377
0.000520671
0.000517043
0.000510225
0.00049929
0.000484379
0.000464957
0.000436293
0.000397614
0.000344893
0.000275636
0.000170999
8.17386e-05
0.000106868
0.000181426
)
;

boundaryField
{
    inlet
    {
        type            calculated;
        value           uniform 0;
    }
    endWall
    {
        type            calculated;
        value           uniform 0;
    }
    sideWall
    {
        type            empty;
    }
}


// ************************************************************************* //
