/*--------------------------------*- C++ -*----------------------------------*\
| =========                 |                                                 |
| \\      /  F ield         | foam-extend: Open Source CFD                    |
|  \\    /   O peration     | Version:     3.2                                |
|   \\  /    A nd           | Web:         http://www.foam-extend.org         |
|    \\/     M anipulation  | For copyright notice see file Copyright         |
\*---------------------------------------------------------------------------*/
FoamFile
{
    version     2.0;
    format      ascii;
    class       volScalarField;
    location    "120";
    object      p;
}
// * * * * * * * * * * * * * * * * * * * * * * * * * * * * * * * * * * * * * //

dimensions      [1 -1 -2 0 0 0 0];

internalField   nonuniform List<scalar> 
33000
(
1177.38
1178.91
1180.2
1182.8
1184.1
1186.38
1187.45
1189.12
1189.95
1191.12
1191.82
1192.69
1193.28
1193.93
1194.45
1195
1195.48
1195.96
1196.41
1196.86
1197.28
1197.7
1198.11
1198.52
1198.92
1199.32
1199.72
1200.11
1200.5
1200.89
1201.27
1201.66
1202.04
1202.41
1202.79
1203.17
1203.54
1203.91
1204.29
1204.66
1205.03
1205.4
1205.76
1206.13
1206.49
1206.86
1207.22
1207.59
1207.95
1208.31
1208.67
1209.03
1209.39
1209.75
1210.11
1210.47
1210.83
1211.19
1211.54
1211.9
1212.26
1212.62
1212.98
1213.33
1213.69
1214.05
1214.41
1214.76
1215.12
1215.48
1215.83
1216.19
1216.55
1216.9
1217.26
1217.61
1217.97
1218.32
1218.68
1219.03
1219.39
1219.74
1220.1
1220.45
1220.8
1221.16
1221.51
1221.86
1222.21
1222.57
1222.92
1223.27
1223.62
1223.97
1224.32
1224.67
1225.02
1225.37
1225.71
1226.06
1226.41
1226.75
1227.1
1227.44
1227.79
1228.13
1228.48
1228.82
1229.16
1229.51
1229.85
1230.19
1230.54
1230.88
1231.22
1231.57
1231.91
1232.25
1232.59
1232.94
1233.28
1233.62
1233.97
1234.31
1234.65
1234.99
1235.34
1235.68
1236.02
1236.36
1236.7
1237.05
1237.39
1237.73
1238.07
1238.42
1238.76
1239.1
1239.44
1239.79
1240.13
1240.48
1240.82
1241.17
1241.52
1241.86
1242.21
1242.56
1242.91
1243.26
1243.61
1243.96
1244.31
1244.66
1245.02
1245.37
1245.72
1246.07
1246.42
1246.77
1247.12
1247.47
1247.82
1248.17
1248.51
1248.86
1249.21
1249.55
1249.9
1250.24
1250.58
1250.93
1251.27
1251.61
1251.95
1252.29
1252.63
1252.97
1253.31
1253.65
1253.99
1254.33
1254.67
1255.01
1255.35
1255.68
1256.02
1256.36
1256.7
1257.04
1257.37
1257.71
1258.05
1258.39
1258.73
1259.07
1259.41
1259.75
1260.09
1260.43
1260.77
1261.11
1261.45
1261.8
1262.14
1262.48
1262.83
1263.17
1263.51
1263.86
1264.2
1264.55
1264.89
1265.24
1265.58
1265.93
1266.27
1266.62
1266.97
1267.31
1267.66
1268.01
1268.36
1268.71
1269.06
1269.41
1269.76
1270.11
1270.46
1270.82
1271.17
1271.52
1271.88
1272.23
1272.59
1272.94
1273.3
1273.66
1274.01
1274.36
1274.71
1275.06
1275.41
1275.75
1276.1
1276.44
1276.78
1277.12
1277.46
1277.8
1278.14
1278.48
1278.82
1279.16
1279.49
1279.83
1280.16
1280.5
1280.83
1281.16
1281.5
1281.83
1282.16
1282.49
1282.82
1283.15
1283.47
1283.8
1284.13
1284.45
1284.78
1285.1
1285.43
1285.75
1286.08
1286.4
1286.73
1287.05
1287.38
1287.7
1288.03
1288.36
1288.68
1289.01
1289.34
1289.66
1289.99
1290.32
1290.65
1290.98
1291.31
1291.64
1291.97
1292.3
1292.63
1292.96
1293.29
1293.63
1293.96
1294.29
1294.62
1294.96
1295.29
1295.63
1295.96
1296.3
1296.63
1296.97
1297.31
1297.64
1297.98
1298.32
1298.66
1299
1299.34
1299.68
1300.02
1300.36
1300.7
1301.04
1301.38
1301.72
1302.06
1302.4
1302.74
1303.08
1303.42
1303.76
1304.11
1304.45
1304.79
1305.13
1305.48
1305.82
1306.16
1306.51
1306.85
1307.2
1307.54
1307.89
1308.24
1308.59
1308.93
1309.28
1309.63
1309.99
1310.34
1310.69
1311.04
1311.4
1311.75
1312.1
1312.46
1312.81
1313.17
1313.52
1313.88
1314.23
1314.59
1314.94
1315.3
1315.65
1316
1316.36
1316.71
1317.06
1317.42
1317.77
1318.12
1318.47
1318.82
1319.17
1319.53
1319.88
1320.23
1320.58
1320.93
1321.28
1321.64
1321.99
1322.34
1322.69
1323.04
1323.39
1323.74
1324.09
1324.44
1324.79
1325.14
1325.49
1325.83
1326.18
1326.53
1326.87
1327.22
1327.56
1327.9
1328.24
1328.59
1328.93
1329.27
1329.6
1329.94
1330.28
1330.62
1330.96
1331.29
1331.63
1331.97
1332.3
1332.64
1332.98
1333.31
1333.65
1333.99
1334.33
1334.67
1335.01
1335.35
1335.69
1336.03
1336.38
1336.72
1337.06
1337.41
1337.75
1338.1
1338.45
1338.79
1339.14
1339.49
1339.84
1340.19
1340.53
1340.88
1341.23
1341.58
1341.93
1342.28
1342.62
1342.97
1343.32
1343.67
1344.02
1344.36
1344.71
1345.06
1345.4
1345.75
1346.1
1346.45
1346.79
1347.14
1347.49
1347.84
1348.18
1348.53
1348.88
1349.23
1349.58
1349.93
1350.28
1350.64
1350.99
1351.34
1351.69
1352.05
1352.4
1352.75
1353.11
1353.46
1353.81
1354.16
1354.51
1354.86
1355.21
1355.57
1355.92
1356.27
1356.62
1356.97
1357.32
1357.66
1358.01
1358.36
1358.71
1359.06
1359.41
1359.76
1360.11
1360.46
1360.81
1361.16
1361.5
1361.85
1362.19
1362.54
1362.88
1363.23
1363.57
1363.91
1364.26
1364.6
1364.94
1365.28
1365.63
1365.97
1366.31
1366.66
1367
1367.34
1367.69
1368.03
1368.37
1368.72
1369.06
1369.4
1369.75
1370.09
1370.44
1370.78
1371.13
1371.47
1371.82
1372.16
1372.51
1372.86
1373.21
1373.55
1373.9
1374.23
1374.6
1374.9
1375.3
1375.56
1376
1376.18
1376.78
1377.31
1379.98
1381.24
1383.01
1383.85
1386.84
1388.14
1392.14
1392.13
1394.3
1392.93
1394.34
1128.42
1130.08
1131.34
1133.95
1135.25
1137.55
1138.61
1140.29
1141.11
1142.28
1142.99
1143.85
1144.44
1145.09
1145.61
1146.16
1146.65
1147.13
1147.57
1148.01
1148.43
1148.85
1149.26
1149.67
1150.07
1150.47
1150.87
1151.26
1151.65
1152.04
1152.42
1152.8
1153.18
1153.56
1153.94
1154.32
1154.69
1155.06
1155.44
1155.81
1156.18
1156.55
1156.91
1157.28
1157.64
1158.01
1158.37
1158.74
1159.1
1159.46
1159.82
1160.18
1160.54
1160.9
1161.26
1161.62
1161.98
1162.34
1162.69
1163.05
1163.41
1163.77
1164.13
1164.48
1164.84
1165.2
1165.56
1165.91
1166.27
1166.63
1166.98
1167.34
1167.69
1168.05
1168.41
1168.76
1169.12
1169.47
1169.83
1170.18
1170.54
1170.89
1171.25
1171.6
1171.95
1172.31
1172.66
1173.01
1173.36
1173.71
1174.06
1174.42
1174.77
1175.12
1175.47
1175.82
1176.17
1176.51
1176.86
1177.21
1177.56
1177.9
1178.25
1178.59
1178.94
1179.28
1179.62
1179.97
1180.31
1180.65
1181
1181.34
1181.68
1182.03
1182.37
1182.71
1183.06
1183.4
1183.74
1184.09
1184.43
1184.77
1185.11
1185.46
1185.8
1186.14
1186.48
1186.83
1187.17
1187.51
1187.85
1188.19
1188.54
1188.88
1189.22
1189.56
1189.91
1190.25
1190.59
1190.94
1191.28
1191.63
1191.97
1192.32
1192.66
1193.01
1193.36
1193.71
1194.06
1194.41
1194.76
1195.11
1195.46
1195.81
1196.16
1196.51
1196.87
1197.22
1197.57
1197.92
1198.27
1198.62
1198.97
1199.31
1199.66
1200.01
1200.35
1200.7
1201.04
1201.39
1201.73
1202.07
1202.42
1202.76
1203.1
1203.44
1203.78
1204.12
1204.46
1204.8
1205.14
1205.48
1205.82
1206.16
1206.49
1206.83
1207.17
1207.51
1207.85
1208.18
1208.52
1208.86
1209.2
1209.54
1209.88
1210.21
1210.55
1210.89
1211.23
1211.57
1211.92
1212.26
1212.6
1212.94
1213.29
1213.63
1213.97
1214.32
1214.66
1215.01
1215.35
1215.69
1216.04
1216.38
1216.73
1217.08
1217.42
1217.77
1218.11
1218.46
1218.81
1219.15
1219.5
1219.85
1220.2
1220.55
1220.9
1221.26
1221.61
1221.96
1222.32
1222.67
1223.03
1223.38
1223.74
1224.09
1224.45
1224.8
1225.16
1225.51
1225.86
1226.21
1226.56
1226.9
1227.24
1227.59
1227.93
1228.27
1228.61
1228.95
1229.29
1229.63
1229.97
1230.3
1230.64
1230.98
1231.31
1231.65
1231.98
1232.31
1232.64
1232.97
1233.31
1233.64
1233.96
1234.29
1234.62
1234.95
1235.27
1235.6
1235.93
1236.25
1236.58
1236.9
1237.23
1237.55
1237.88
1238.2
1238.53
1238.85
1239.18
1239.5
1239.83
1240.16
1240.48
1240.81
1241.14
1241.47
1241.8
1242.13
1242.46
1242.79
1243.12
1243.45
1243.78
1244.11
1244.44
1244.77
1245.11
1245.44
1245.77
1246.1
1246.44
1246.77
1247.11
1247.44
1247.78
1248.12
1248.45
1248.79
1249.13
1249.47
1249.8
1250.14
1250.48
1250.82
1251.16
1251.5
1251.84
1252.18
1252.52
1252.87
1253.21
1253.55
1253.89
1254.23
1254.57
1254.91
1255.25
1255.59
1255.94
1256.28
1256.62
1256.96
1257.31
1257.65
1258
1258.34
1258.69
1259.04
1259.38
1259.73
1260.08
1260.43
1260.78
1261.13
1261.48
1261.84
1262.19
1262.54
1262.9
1263.25
1263.61
1263.96
1264.32
1264.67
1265.03
1265.38
1265.73
1266.09
1266.44
1266.8
1267.15
1267.5
1267.86
1268.21
1268.56
1268.91
1269.27
1269.62
1269.97
1270.32
1270.67
1271.02
1271.38
1271.73
1272.08
1272.43
1272.78
1273.13
1273.49
1273.84
1274.19
1274.54
1274.89
1275.24
1275.59
1275.94
1276.29
1276.63
1276.98
1277.33
1277.67
1278.02
1278.36
1278.71
1279.05
1279.39
1279.73
1280.07
1280.41
1280.75
1281.09
1281.43
1281.77
1282.1
1282.44
1282.78
1283.11
1283.45
1283.79
1284.12
1284.46
1284.8
1285.14
1285.48
1285.82
1286.16
1286.5
1286.84
1287.18
1287.52
1287.87
1288.21
1288.56
1288.9
1289.25
1289.59
1289.94
1290.29
1290.64
1290.98
1291.33
1291.68
1292.03
1292.38
1292.73
1293.08
1293.42
1293.77
1294.12
1294.47
1294.82
1295.16
1295.51
1295.86
1296.2
1296.55
1296.9
1297.25
1297.59
1297.94
1298.29
1298.64
1298.98
1299.33
1299.68
1300.03
1300.38
1300.73
1301.08
1301.43
1301.78
1302.14
1302.49
1302.84
1303.19
1303.55
1303.9
1304.25
1304.6
1304.96
1305.31
1305.66
1306.01
1306.36
1306.71
1307.06
1307.41
1307.76
1308.11
1308.46
1308.81
1309.16
1309.51
1309.86
1310.21
1310.56
1310.91
1311.26
1311.61
1311.96
1312.3
1312.65
1313
1313.34
1313.69
1314.03
1314.37
1314.72
1315.06
1315.4
1315.75
1316.09
1316.43
1316.77
1317.12
1317.46
1317.8
1318.15
1318.49
1318.83
1319.18
1319.52
1319.86
1320.21
1320.55
1320.9
1321.24
1321.59
1321.93
1322.28
1322.62
1322.97
1323.31
1323.66
1324
1324.35
1324.69
1325.05
1325.37
1325.74
1326.04
1326.44
1326.7
1327.14
1327.32
1327.96
1328.57
1331.1
1332.27
1334.13
1334.97
1337.98
1339.24
1343.24
1343.27
1345.49
1343.97
1345.34
1079.43
1081.17
1082.45
1085.1
1086.42
1088.71
1089.77
1091.44
1092.25
1093.44
1094.13
1095
1095.58
1096.23
1096.74
1097.29
1097.78
1098.26
1098.7
1099.15
1099.58
1100
1100.41
1100.82
1101.22
1101.62
1102.02
1102.41
1102.8
1103.19
1103.57
1103.96
1104.34
1104.71
1105.09
1105.47
1105.84
1106.22
1106.59
1106.96
1107.33
1107.7
1108.06
1108.43
1108.79
1109.16
1109.52
1109.88
1110.25
1110.61
1110.97
1111.33
1111.69
1112.05
1112.41
1112.77
1113.13
1113.48
1113.84
1114.2
1114.56
1114.92
1115.27
1115.63
1115.99
1116.35
1116.7
1117.06
1117.42
1117.77
1118.13
1118.49
1118.84
1119.2
1119.55
1119.91
1120.26
1120.62
1120.97
1121.33
1121.68
1122.04
1122.39
1122.75
1123.1
1123.45
1123.8
1124.16
1124.51
1124.86
1125.21
1125.56
1125.91
1126.26
1126.61
1126.96
1127.31
1127.66
1128.01
1128.36
1128.7
1129.05
1129.39
1129.74
1130.08
1130.43
1130.77
1131.11
1131.46
1131.8
1132.14
1132.49
1132.83
1133.17
1133.52
1133.86
1134.2
1134.55
1134.89
1135.23
1135.57
1135.92
1136.26
1136.6
1136.94
1137.29
1137.63
1137.97
1138.31
1138.66
1139
1139.34
1139.68
1140.02
1140.37
1140.71
1141.05
1141.39
1141.74
1142.08
1142.43
1142.77
1143.12
1143.46
1143.81
1144.16
1144.51
1144.85
1145.2
1145.55
1145.9
1146.26
1146.61
1146.96
1147.31
1147.66
1148.01
1148.36
1148.71
1149.06
1149.41
1149.76
1150.11
1150.46
1150.81
1151.15
1151.5
1151.85
1152.19
1152.53
1152.88
1153.22
1153.56
1153.9
1154.24
1154.59
1154.93
1155.27
1155.61
1155.95
1156.29
1156.62
1156.96
1157.3
1157.64
1157.98
1158.32
1158.65
1158.99
1159.33
1159.67
1160.01
1160.34
1160.68
1161.02
1161.36
1161.7
1162.04
1162.38
1162.72
1163.06
1163.4
1163.75
1164.09
1164.43
1164.78
1165.12
1165.46
1165.81
1166.15
1166.5
1166.84
1167.19
1167.53
1167.88
1168.22
1168.57
1168.91
1169.26
1169.61
1169.95
1170.3
1170.65
1171
1171.35
1171.7
1172.05
1172.4
1172.76
1173.11
1173.46
1173.82
1174.17
1174.53
1174.88
1175.24
1175.59
1175.95
1176.3
1176.66
1177.01
1177.36
1177.7
1178.05
1178.39
1178.73
1179.08
1179.42
1179.76
1180.1
1180.44
1180.78
1181.11
1181.45
1181.79
1182.12
1182.46
1182.79
1183.13
1183.46
1183.79
1184.12
1184.45
1184.78
1185.11
1185.44
1185.77
1186.09
1186.42
1186.75
1187.07
1187.4
1187.72
1188.05
1188.37
1188.7
1189.02
1189.35
1189.67
1190
1190.32
1190.65
1190.98
1191.3
1191.63
1191.96
1192.29
1192.61
1192.94
1193.27
1193.6
1193.93
1194.26
1194.59
1194.92
1195.26
1195.59
1195.92
1196.25
1196.58
1196.92
1197.25
1197.58
1197.92
1198.25
1198.59
1198.93
1199.26
1199.6
1199.94
1200.27
1200.61
1200.95
1201.29
1201.63
1201.97
1202.31
1202.65
1202.99
1203.33
1203.67
1204.01
1204.35
1204.69
1205.03
1205.38
1205.72
1206.06
1206.4
1206.74
1207.08
1207.43
1207.77
1208.11
1208.45
1208.8
1209.14
1209.49
1209.84
1210.18
1210.53
1210.88
1211.23
1211.58
1211.93
1212.28
1212.63
1212.98
1213.34
1213.69
1214.04
1214.4
1214.75
1215.11
1215.46
1215.82
1216.17
1216.53
1216.88
1217.24
1217.59
1217.94
1218.3
1218.65
1219
1219.36
1219.71
1220.06
1220.41
1220.76
1221.12
1221.47
1221.82
1222.17
1222.52
1222.87
1223.23
1223.58
1223.93
1224.28
1224.63
1224.98
1225.33
1225.68
1226.04
1226.39
1226.73
1227.08
1227.43
1227.78
1228.13
1228.47
1228.82
1229.17
1229.51
1229.85
1230.2
1230.54
1230.88
1231.22
1231.56
1231.9
1232.24
1232.57
1232.91
1233.25
1233.59
1233.92
1234.26
1234.6
1234.93
1235.27
1235.61
1235.94
1236.28
1236.62
1236.96
1237.3
1237.64
1237.98
1238.33
1238.67
1239.01
1239.36
1239.7
1240.05
1240.39
1240.74
1241.09
1241.44
1241.78
1242.13
1242.48
1242.83
1243.18
1243.52
1243.87
1244.22
1244.57
1244.92
1245.27
1245.61
1245.96
1246.31
1246.66
1247
1247.35
1247.7
1248.05
1248.39
1248.74
1249.09
1249.43
1249.78
1250.13
1250.48
1250.83
1251.18
1251.53
1251.88
1252.23
1252.58
1252.93
1253.28
1253.63
1253.99
1254.34
1254.69
1255.05
1255.4
1255.75
1256.1
1256.45
1256.81
1257.16
1257.51
1257.86
1258.21
1258.56
1258.91
1259.26
1259.61
1259.96
1260.31
1260.66
1261.01
1261.36
1261.71
1262.06
1262.41
1262.75
1263.1
1263.45
1263.8
1264.14
1264.49
1264.83
1265.18
1265.52
1265.86
1266.21
1266.55
1266.89
1267.23
1267.58
1267.92
1268.26
1268.61
1268.95
1269.29
1269.64
1269.98
1270.32
1270.67
1271.01
1271.35
1271.7
1272.04
1272.39
1272.73
1273.07
1273.42
1273.77
1274.11
1274.46
1274.81
1275.15
1275.5
1275.84
1276.19
1276.52
1276.88
1277.18
1277.58
1277.83
1278.28
1278.44
1279.17
1279.76
1282.12
1283.28
1285.16
1285.96
1288.93
1290.09
1294.06
1294.17
1296.49
1295
1296.54
1030.34
1032.24
1033.53
1036.26
1037.59
1039.91
1040.97
1042.64
1043.46
1044.63
1045.31
1046.17
1046.74
1047.4
1047.91
1048.46
1048.94
1049.42
1049.86
1050.31
1050.73
1051.15
1051.56
1051.97
1052.37
1052.77
1053.16
1053.56
1053.95
1054.33
1054.72
1055.1
1055.48
1055.86
1056.24
1056.61
1056.99
1057.36
1057.73
1058.11
1058.48
1058.84
1059.21
1059.58
1059.94
1060.31
1060.67
1061.03
1061.4
1061.76
1062.12
1062.48
1062.84
1063.2
1063.56
1063.92
1064.28
1064.63
1064.99
1065.35
1065.71
1066.07
1066.42
1066.78
1067.14
1067.49
1067.85
1068.21
1068.57
1068.92
1069.28
1069.63
1069.99
1070.35
1070.7
1071.06
1071.41
1071.77
1072.12
1072.48
1072.83
1073.19
1073.54
1073.89
1074.25
1074.6
1074.95
1075.31
1075.66
1076.01
1076.36
1076.71
1077.06
1077.41
1077.76
1078.11
1078.46
1078.81
1079.16
1079.5
1079.85
1080.2
1080.54
1080.89
1081.23
1081.57
1081.92
1082.26
1082.61
1082.95
1083.29
1083.64
1083.98
1084.32
1084.66
1085.01
1085.35
1085.69
1086.04
1086.38
1086.72
1087.06
1087.41
1087.75
1088.09
1088.43
1088.78
1089.12
1089.46
1089.8
1090.15
1090.49
1090.83
1091.17
1091.51
1091.86
1092.2
1092.54
1092.89
1093.23
1093.57
1093.92
1094.26
1094.61
1094.96
1095.31
1095.65
1096
1096.35
1096.7
1097.05
1097.4
1097.75
1098.11
1098.46
1098.81
1099.16
1099.51
1099.86
1100.21
1100.56
1100.91
1101.26
1101.61
1101.96
1102.3
1102.65
1102.99
1103.34
1103.68
1104.02
1104.37
1104.71
1105.05
1105.39
1105.73
1106.07
1106.41
1106.75
1107.09
1107.43
1107.77
1108.11
1108.45
1108.79
1109.13
1109.46
1109.8
1110.14
1110.48
1110.82
1111.15
1111.49
1111.83
1112.17
1112.51
1112.85
1113.19
1113.53
1113.87
1114.21
1114.55
1114.89
1115.24
1115.58
1115.92
1116.27
1116.61
1116.95
1117.3
1117.64
1117.99
1118.33
1118.68
1119.02
1119.37
1119.71
1120.06
1120.41
1120.75
1121.1
1121.45
1121.8
1122.15
1122.5
1122.85
1123.2
1123.55
1123.9
1124.26
1124.61
1124.96
1125.32
1125.67
1126.03
1126.38
1126.74
1127.1
1127.45
1127.8
1128.15
1128.5
1128.85
1129.19
1129.54
1129.88
1130.22
1130.56
1130.9
1131.24
1131.58
1131.92
1132.26
1132.6
1132.93
1133.27
1133.6
1133.94
1134.27
1134.6
1134.94
1135.27
1135.6
1135.93
1136.26
1136.59
1136.91
1137.24
1137.57
1137.89
1138.22
1138.54
1138.87
1139.19
1139.52
1139.84
1140.17
1140.49
1140.82
1141.14
1141.47
1141.8
1142.12
1142.45
1142.78
1143.1
1143.43
1143.76
1144.09
1144.42
1144.75
1145.08
1145.41
1145.74
1146.07
1146.4
1146.73
1147.07
1147.4
1147.73
1148.06
1148.4
1148.73
1149.07
1149.4
1149.74
1150.07
1150.41
1150.75
1151.08
1151.42
1151.76
1152.1
1152.44
1152.78
1153.12
1153.46
1153.8
1154.14
1154.48
1154.82
1155.16
1155.5
1155.84
1156.18
1156.52
1156.86
1157.2
1157.55
1157.89
1158.23
1158.57
1158.91
1159.26
1159.6
1159.95
1160.29
1160.64
1160.98
1161.33
1161.68
1162.02
1162.37
1162.72
1163.07
1163.42
1163.78
1164.13
1164.48
1164.84
1165.19
1165.54
1165.9
1166.25
1166.61
1166.96
1167.32
1167.67
1168.03
1168.38
1168.74
1169.09
1169.44
1169.8
1170.15
1170.5
1170.86
1171.21
1171.56
1171.91
1172.26
1172.61
1172.97
1173.32
1173.67
1174.02
1174.37
1174.72
1175.08
1175.43
1175.78
1176.13
1176.48
1176.83
1177.18
1177.53
1177.88
1178.23
1178.58
1178.93
1179.27
1179.62
1179.97
1180.31
1180.66
1181
1181.34
1181.68
1182.03
1182.37
1182.71
1183.04
1183.38
1183.72
1184.06
1184.4
1184.73
1185.07
1185.41
1185.74
1186.08
1186.42
1186.75
1187.09
1187.43
1187.77
1188.11
1188.45
1188.79
1189.13
1189.47
1189.82
1190.16
1190.5
1190.85
1191.19
1191.54
1191.89
1192.23
1192.58
1192.93
1193.28
1193.63
1193.97
1194.32
1194.67
1195.02
1195.37
1195.72
1196.06
1196.41
1196.76
1197.11
1197.46
1197.8
1198.15
1198.5
1198.84
1199.19
1199.54
1199.89
1200.23
1200.58
1200.93
1201.28
1201.62
1201.97
1202.32
1202.67
1203.02
1203.37
1203.72
1204.08
1204.43
1204.78
1205.13
1205.49
1205.84
1206.19
1206.54
1206.9
1207.25
1207.6
1207.95
1208.3
1208.65
1209
1209.36
1209.7
1210.05
1210.4
1210.75
1211.1
1211.45
1211.8
1212.15
1212.5
1212.85
1213.2
1213.55
1213.9
1214.25
1214.6
1214.94
1215.29
1215.63
1215.98
1216.32
1216.67
1217.01
1217.35
1217.7
1218.04
1218.38
1218.72
1219.07
1219.41
1219.75
1220.1
1220.44
1220.78
1221.13
1221.47
1221.81
1222.16
1222.5
1222.84
1223.19
1223.53
1223.88
1224.22
1224.57
1224.91
1225.26
1225.6
1225.95
1226.29
1226.64
1226.98
1227.34
1227.66
1228.03
1228.32
1228.71
1228.96
1229.42
1229.59
1230.35
1230.96
1233.18
1234.23
1236.16
1236.89
1239.84
1240.84
1244.75
1244.94
1247.46
1246.14
1247.71
981.178
983.256
984.587
987.403
988.757
991.094
992.151
993.828
994.636
995.81
996.478
997.332
997.902
998.554
999.06
999.607
1000.08
1000.56
1001.01
1001.45
1001.88
1002.3
1002.71
1003.12
1003.52
1003.92
1004.32
1004.71
1005.1
1005.49
1005.87
1006.26
1006.63
1007.01
1007.39
1007.77
1008.14
1008.51
1008.88
1009.26
1009.62
1009.99
1010.36
1010.72
1011.09
1011.45
1011.82
1012.18
1012.54
1012.9
1013.26
1013.62
1013.98
1014.34
1014.7
1015.06
1015.42
1015.78
1016.14
1016.5
1016.85
1017.21
1017.57
1017.93
1018.28
1018.64
1019
1019.36
1019.71
1020.07
1020.42
1020.78
1021.14
1021.49
1021.85
1022.2
1022.56
1022.91
1023.27
1023.63
1023.98
1024.33
1024.69
1025.04
1025.4
1025.75
1026.1
1026.45
1026.81
1027.16
1027.51
1027.86
1028.21
1028.56
1028.91
1029.26
1029.61
1029.96
1030.3
1030.65
1031
1031.34
1031.69
1032.03
1032.38
1032.72
1033.07
1033.41
1033.75
1034.1
1034.44
1034.78
1035.13
1035.47
1035.81
1036.15
1036.5
1036.84
1037.18
1037.53
1037.87
1038.21
1038.55
1038.9
1039.24
1039.58
1039.92
1040.27
1040.61
1040.95
1041.29
1041.63
1041.98
1042.32
1042.66
1043
1043.35
1043.69
1044.03
1044.38
1044.72
1045.07
1045.41
1045.76
1046.1
1046.45
1046.8
1047.15
1047.5
1047.85
1048.2
1048.55
1048.9
1049.25
1049.6
1049.96
1050.31
1050.66
1051.01
1051.36
1051.71
1052.06
1052.41
1052.75
1053.1
1053.45
1053.79
1054.14
1054.48
1054.83
1055.17
1055.51
1055.86
1056.2
1056.54
1056.88
1057.22
1057.56
1057.9
1058.24
1058.58
1058.92
1059.26
1059.6
1059.93
1060.27
1060.61
1060.95
1061.29
1061.62
1061.96
1062.3
1062.64
1062.98
1063.32
1063.65
1063.99
1064.33
1064.67
1065.02
1065.36
1065.7
1066.04
1066.38
1066.73
1067.07
1067.41
1067.76
1068.1
1068.45
1068.79
1069.14
1069.48
1069.83
1070.17
1070.52
1070.86
1071.21
1071.55
1071.9
1072.25
1072.59
1072.94
1073.29
1073.64
1073.99
1074.34
1074.7
1075.05
1075.4
1075.76
1076.11
1076.47
1076.82
1077.18
1077.53
1077.89
1078.24
1078.6
1078.95
1079.3
1079.65
1080
1080.34
1080.68
1081.03
1081.37
1081.71
1082.05
1082.39
1082.73
1083.07
1083.41
1083.74
1084.08
1084.42
1084.75
1085.09
1085.42
1085.75
1086.08
1086.42
1086.75
1087.08
1087.4
1087.73
1088.06
1088.39
1088.71
1089.04
1089.37
1089.69
1090.02
1090.34
1090.67
1090.99
1091.31
1091.64
1091.96
1092.29
1092.62
1092.94
1093.27
1093.6
1093.92
1094.25
1094.58
1094.91
1095.24
1095.57
1095.9
1096.23
1096.56
1096.89
1097.22
1097.55
1097.88
1098.21
1098.55
1098.88
1099.21
1099.54
1099.88
1100.21
1100.55
1100.88
1101.22
1101.55
1101.89
1102.23
1102.57
1102.91
1103.24
1103.58
1103.92
1104.26
1104.6
1104.94
1105.28
1105.62
1105.96
1106.31
1106.65
1106.99
1107.33
1107.67
1108.01
1108.35
1108.69
1109.03
1109.38
1109.72
1110.06
1110.4
1110.75
1111.09
1111.44
1111.78
1112.13
1112.47
1112.82
1113.17
1113.52
1113.87
1114.22
1114.57
1114.92
1115.27
1115.63
1115.98
1116.34
1116.69
1117.04
1117.4
1117.75
1118.11
1118.46
1118.82
1119.17
1119.53
1119.88
1120.24
1120.59
1120.94
1121.3
1121.65
1122
1122.35
1122.71
1123.06
1123.41
1123.76
1124.11
1124.46
1124.82
1125.17
1125.52
1125.87
1126.22
1126.57
1126.92
1127.28
1127.63
1127.98
1128.33
1128.68
1129.03
1129.38
1129.73
1130.07
1130.42
1130.77
1131.11
1131.46
1131.8
1132.15
1132.49
1132.83
1133.17
1133.51
1133.85
1134.19
1134.53
1134.87
1135.21
1135.54
1135.88
1136.22
1136.55
1136.89
1137.23
1137.56
1137.9
1138.24
1138.58
1138.91
1139.25
1139.59
1139.94
1140.28
1140.62
1140.96
1141.31
1141.65
1141.99
1142.34
1142.69
1143.03
1143.38
1143.73
1144.08
1144.42
1144.77
1145.12
1145.47
1145.82
1146.17
1146.52
1146.86
1147.21
1147.56
1147.91
1148.26
1148.6
1148.95
1149.3
1149.64
1149.99
1150.34
1150.69
1151.03
1151.38
1151.73
1152.07
1152.42
1152.77
1153.12
1153.47
1153.82
1154.17
1154.52
1154.87
1155.22
1155.57
1155.93
1156.28
1156.63
1156.99
1157.34
1157.69
1158.04
1158.4
1158.75
1159.1
1159.45
1159.8
1160.15
1160.5
1160.85
1161.2
1161.55
1161.9
1162.25
1162.6
1162.95
1163.3
1163.65
1164
1164.35
1164.7
1165.05
1165.4
1165.74
1166.09
1166.44
1166.78
1167.13
1167.47
1167.81
1168.16
1168.5
1168.84
1169.19
1169.53
1169.87
1170.21
1170.56
1170.9
1171.24
1171.59
1171.93
1172.27
1172.62
1172.96
1173.3
1173.65
1173.99
1174.34
1174.68
1175.02
1175.37
1175.71
1176.06
1176.41
1176.75
1177.1
1177.44
1177.79
1178.12
1178.48
1178.8
1179.17
1179.46
1179.85
1180.09
1180.55
1180.72
1181.54
1182.11
1184.18
1185.15
1187.09
1187.72
1190.6
1191.44
1195.22
1195.46
1198.21
1197.14
1199.11
931.924
934.241
935.603
938.545
939.923
942.294
943.348
945.031
945.836
947.003
947.666
948.513
949.076
949.726
950.229
950.776
951.247
951.728
952.168
952.612
953.033
953.452
953.861
954.269
954.67
955.07
955.465
955.859
956.248
956.634
957.019
957.401
957.781
958.159
958.536
958.913
959.287
959.66
960.032
960.403
960.773
961.141
961.507
961.873
962.238
962.603
962.966
963.329
963.691
964.053
964.414
964.774
965.134
965.493
965.852
966.211
966.57
966.928
967.286
967.644
968.002
968.36
968.717
969.075
969.432
969.79
970.147
970.504
970.861
971.217
971.573
971.929
972.285
972.641
972.997
973.352
973.708
974.064
974.419
974.774
975.129
975.483
975.837
976.191
976.544
976.897
977.25
977.603
977.955
978.306
978.657
979.007
979.358
979.708
980.058
980.408
980.757
981.106
981.454
981.801
982.147
982.492
982.837
983.182
983.527
983.871
984.215
984.558
984.902
985.245
985.588
985.932
986.275
986.618
986.961
987.303
987.646
987.989
988.332
988.675
989.017
989.36
989.703
990.045
990.388
990.73
991.072
991.414
991.756
992.098
992.44
992.782
993.125
993.467
993.809
994.151
994.494
994.837
995.181
995.524
995.869
996.214
996.559
996.905
997.252
997.599
997.948
998.296
998.646
998.996
999.346
999.697
1000.05
1000.4
1000.75
1001.1
1001.45
1001.81
1002.16
1002.51
1002.86
1003.21
1003.55
1003.9
1004.25
1004.6
1004.94
1005.29
1005.63
1005.98
1006.32
1006.66
1007
1007.35
1007.69
1008.03
1008.37
1008.71
1009.05
1009.39
1009.73
1010.07
1010.4
1010.74
1011.08
1011.42
1011.76
1012.1
1012.43
1012.77
1013.11
1013.45
1013.79
1014.12
1014.46
1014.8
1015.14
1015.48
1015.82
1016.16
1016.5
1016.85
1017.19
1017.53
1017.87
1018.22
1018.56
1018.9
1019.25
1019.59
1019.94
1020.28
1020.63
1020.97
1021.32
1021.66
1022.01
1022.35
1022.7
1023.05
1023.39
1023.74
1024.09
1024.44
1024.79
1025.14
1025.49
1025.84
1026.2
1026.55
1026.9
1027.26
1027.61
1027.97
1028.32
1028.68
1029.03
1029.39
1029.74
1030.1
1030.45
1030.8
1031.14
1031.49
1031.83
1032.17
1032.52
1032.86
1033.2
1033.54
1033.88
1034.22
1034.55
1034.89
1035.23
1035.56
1035.9
1036.23
1036.57
1036.9
1037.23
1037.56
1037.89
1038.22
1038.55
1038.88
1039.21
1039.53
1039.86
1040.19
1040.51
1040.84
1041.16
1041.49
1041.81
1042.14
1042.46
1042.79
1043.11
1043.44
1043.76
1044.09
1044.42
1044.74
1045.07
1045.4
1045.73
1046.05
1046.38
1046.71
1047.04
1047.37
1047.7
1048.03
1048.37
1048.7
1049.03
1049.36
1049.69
1050.02
1050.36
1050.69
1051.03
1051.36
1051.69
1052.03
1052.37
1052.7
1053.04
1053.38
1053.71
1054.05
1054.39
1054.73
1055.07
1055.41
1055.75
1056.09
1056.43
1056.77
1057.11
1057.45
1057.79
1058.13
1058.47
1058.82
1059.16
1059.5
1059.84
1060.18
1060.52
1060.86
1061.21
1061.55
1061.89
1062.24
1062.58
1062.93
1063.27
1063.62
1063.97
1064.32
1064.67
1065.02
1065.37
1065.72
1066.07
1066.42
1066.77
1067.13
1067.48
1067.84
1068.19
1068.55
1068.9
1069.26
1069.61
1069.97
1070.32
1070.68
1071.03
1071.38
1071.74
1072.09
1072.44
1072.8
1073.15
1073.5
1073.85
1074.2
1074.56
1074.91
1075.26
1075.61
1075.96
1076.31
1076.67
1077.02
1077.37
1077.72
1078.07
1078.42
1078.77
1079.12
1079.48
1079.83
1080.18
1080.52
1080.87
1081.22
1081.57
1081.92
1082.26
1082.61
1082.95
1083.29
1083.64
1083.98
1084.32
1084.66
1085
1085.34
1085.68
1086.01
1086.35
1086.69
1087.03
1087.36
1087.7
1088.04
1088.37
1088.71
1089.05
1089.38
1089.72
1090.06
1090.4
1090.74
1091.08
1091.42
1091.77
1092.11
1092.45
1092.8
1093.14
1093.49
1093.83
1094.18
1094.53
1094.88
1095.22
1095.57
1095.92
1096.27
1096.62
1096.97
1097.31
1097.66
1098.01
1098.36
1098.71
1099.05
1099.4
1099.75
1100.1
1100.44
1100.79
1101.14
1101.49
1101.83
1102.18
1102.53
1102.87
1103.22
1103.57
1103.92
1104.27
1104.62
1104.97
1105.32
1105.67
1106.02
1106.37
1106.72
1107.07
1107.43
1107.78
1108.13
1108.49
1108.84
1109.19
1109.54
1109.9
1110.25
1110.6
1110.95
1111.3
1111.65
1112
1112.35
1112.7
1113.05
1113.4
1113.75
1114.1
1114.45
1114.8
1115.15
1115.5
1115.85
1116.19
1116.54
1116.89
1117.24
1117.58
1117.93
1118.27
1118.62
1118.96
1119.3
1119.65
1119.99
1120.33
1120.67
1121.02
1121.36
1121.7
1122.05
1122.39
1122.73
1123.08
1123.42
1123.76
1124.11
1124.45
1124.79
1125.14
1125.48
1125.83
1126.17
1126.51
1126.86
1127.2
1127.55
1127.89
1128.24
1128.58
1128.93
1129.27
1129.62
1129.94
1130.31
1130.59
1130.99
1131.21
1131.69
1131.86
1132.71
1133.25
1135.2
1136.04
1137.99
1138.5
1141.28
1141.96
1145.58
1145.85
1148.81
1148.22
1150.48
882.585
885.219
886.631
889.724
891.127
893.526
894.567
896.244
897.032
898.191
898.842
899.684
900.242
900.888
901.388
901.93
902.397
902.877
903.316
903.76
904.181
904.602
905.011
905.42
905.821
906.221
906.616
907.01
907.399
907.786
908.17
908.553
908.933
909.311
909.688
910.063
910.438
910.81
911.182
911.553
911.922
912.289
912.656
913.022
913.386
913.75
914.114
914.476
914.838
915.2
915.56
915.92
916.28
916.639
916.998
917.357
917.716
918.075
918.433
918.791
919.149
919.507
919.865
920.222
920.58
920.937
921.295
921.652
922.009
922.365
922.722
923.078
923.434
923.789
924.145
924.5
924.855
925.211
925.568
925.924
926.278
926.632
926.986
927.339
927.693
928.046
928.399
928.751
929.103
929.455
929.806
930.157
930.507
930.858
931.207
931.557
931.906
932.254
932.602
932.949
933.295
933.64
933.986
934.33
934.675
935.019
935.363
935.707
936.05
936.393
936.736
937.08
937.423
937.766
938.109
938.451
938.793
939.137
939.48
939.823
940.165
940.508
940.85
941.193
941.535
941.878
942.22
942.562
942.904
943.246
943.588
943.93
944.272
944.614
944.956
945.299
945.642
945.985
946.328
946.672
947.016
947.361
947.706
948.052
948.399
948.747
949.095
949.443
949.793
950.143
950.493
950.844
951.196
951.547
951.899
952.25
952.602
952.953
953.304
953.654
954.004
954.353
954.702
955.05
955.398
955.744
956.09
956.435
956.78
957.124
957.467
957.809
958.152
958.493
958.834
959.175
959.516
959.856
960.195
960.535
960.874
961.213
961.552
961.891
962.229
962.567
962.905
963.243
963.581
963.919
964.257
964.595
964.933
965.271
965.61
965.949
966.288
966.628
966.968
967.309
967.65
967.992
968.334
968.677
969.02
969.364
969.707
970.051
970.396
970.74
971.085
971.429
971.774
972.119
972.464
972.809
973.155
973.501
973.847
974.193
974.541
974.888
975.236
975.585
975.935
976.286
976.637
976.989
977.342
977.695
978.049
978.404
978.759
979.114
979.47
979.825
980.18
980.535
980.889
981.242
981.593
981.942
982.289
982.635
982.979
983.322
983.664
984.005
984.346
984.686
985.025
985.363
985.701
986.038
986.374
986.71
987.045
987.379
987.713
988.046
988.378
988.709
989.04
989.37
989.699
990.027
990.355
990.682
991.008
991.334
991.66
991.985
992.31
992.634
992.959
993.283
993.608
993.933
994.258
994.584
994.909
995.236
995.562
995.889
996.217
996.545
996.873
997.202
997.531
997.86
998.19
998.52
998.85
999.181
999.512
999.843
1000.17
1000.51
1000.84
1001.17
1001.5
1001.84
1002.17
1002.51
1002.84
1003.18
1003.51
1003.85
1004.19
1004.52
1004.86
1005.2
1005.54
1005.88
1006.22
1006.56
1006.9
1007.24
1007.58
1007.92
1008.26
1008.6
1008.94
1009.28
1009.62
1009.96
1010.3
1010.64
1010.99
1011.33
1011.67
1012.01
1012.35
1012.7
1013.04
1013.38
1013.73
1014.07
1014.42
1014.77
1015.12
1015.46
1015.81
1016.16
1016.51
1016.86
1017.22
1017.57
1017.92
1018.27
1018.63
1018.98
1019.34
1019.69
1020.05
1020.4
1020.76
1021.11
1021.47
1021.82
1022.18
1022.53
1022.88
1023.24
1023.59
1023.94
1024.29
1024.65
1025
1025.35
1025.7
1026.05
1026.41
1026.76
1027.11
1027.46
1027.81
1028.16
1028.52
1028.87
1029.22
1029.57
1029.92
1030.27
1030.62
1030.97
1031.32
1031.67
1032.02
1032.37
1032.72
1033.06
1033.41
1033.75
1034.1
1034.44
1034.78
1035.13
1035.47