/*--------------------------------*- C++ -*----------------------------------*\
| =========                 |                                                 |
| \\      /  F ield         | foam-extend: Open Source CFD                    |
|  \\    /   O peration     | Version:     3.2                                |
|   \\  /    A nd           | Web:         http://www.foam-extend.org         |
|    \\/     M anipulation  | For copyright notice see file Copyright         |
\*---------------------------------------------------------------------------*/
FoamFile
{
    version     2.0;
    format      ascii;
    class       areaVectorField;
    location    "120";
    object      PointNormalVector;
}
// * * * * * * * * * * * * * * * * * * * * * * * * * * * * * * * * * * * * * //

dimensions      [0 0 0 0 0 0 0];

internalField   nonuniform List<vector> 
550
(
(7.27273e-07 0 0.000363636)
(7.27273e-07 0 0.000363636)
(7.27273e-07 0 0.000363636)
(7.27273e-07 0 0.000363636)
(7.27273e-07 2.64698e-23 0.000363636)
(7.27273e-07 0 0.000363636)
(7.27273e-07 0 0.000363636)
(7.27273e-07 0 0.000363636)
(7.27273e-07 2.64698e-23 0.000363636)
(7.27273e-07 0 0.000363636)
(7.27273e-07 0 0.000363636)
(7.27273e-07 0 0.000363636)
(7.27273e-07 2.64698e-23 0.000363636)
(7.27273e-07 0 0.000363636)
(7.27273e-07 0 0.000363636)
(7.27273e-07 2.64698e-23 0.000363636)
(7.27273e-07 -2.64698e-23 0.000363636)
(7.27273e-07 2.64698e-23 0.000363636)
(7.27273e-07 2.64698e-23 0.000363636)
(7.27273e-07 0 0.000363636)
(7.27273e-07 2.64698e-23 0.000363636)
(7.27273e-07 -2.64698e-23 0.000363636)
(7.27273e-07 0 0.000363636)
(7.27273e-07 2.64698e-23 0.000363636)
(7.27273e-07 0 0.000363636)
(7.27273e-07 0 0.000363636)
(7.27273e-07 2.64698e-23 0.000363636)
(7.27273e-07 0 0.000363636)
(7.27273e-07 0 0.000363636)
(7.27273e-07 0 0.000363636)
(7.27273e-07 0 0.000363636)
(7.27273e-07 0 0.000363636)
(7.27273e-07 0 0.000363636)
(7.27273e-07 0 0.000363636)
(7.27273e-07 0 0.000363636)
(7.27273e-07 0 0.000363636)
(7.27273e-07 0 0.000363636)
(7.27273e-07 0 0.000363636)
(7.27273e-07 2.64698e-23 0.000363636)
(7.27273e-07 0 0.000363636)
(7.27273e-07 0 0.000363636)
(7.27273e-07 0 0.000363636)
(7.27273e-07 0 0.000363636)
(7.27273e-07 0 0.000363636)
(7.27273e-07 0 0.000363636)
(7.27273e-07 0 0.000363636)
(7.27273e-07 0 0.000363636)
(7.27273e-07 0 0.000363636)
(7.27273e-07 0 0.000363636)
(7.27273e-07 0 0.000363636)
(7.27273e-07 0 0.000363636)
(7.27273e-07 0 0.000363636)
(7.27273e-07 0 0.000363636)
(7.27273e-07 0 0.000363636)
(7.27273e-07 0 0.000363636)
(7.27273e-07 -2.64698e-23 0.000363636)
(7.27273e-07 -2.64698e-23 0.000363636)
(7.27273e-07 2.64698e-23 0.000363636)
(7.27273e-07 0 0.000363636)
(7.27273e-07 0 0.000363636)
(7.27273e-07 -2.64698e-23 0.000363636)
(7.27273e-07 -2.64698e-23 0.000363636)
(7.27273e-07 -2.64698e-23 0.000363636)
(7.27273e-07 0 0.000363636)
(7.27273e-07 0 0.000363636)
(7.27273e-07 -2.64698e-23 0.000363636)
(7.27273e-07 0 0.000363636)
(7.27273e-07 0 0.000363636)
(7.27273e-07 0 0.000363636)
(7.27273e-07 0 0.000363636)
(7.27273e-07 -2.64698e-23 0.000363636)
(7.27273e-07 -2.64698e-23 0.000363636)
(7.27273e-07 0 0.000363636)
(7.27273e-07 0 0.000363636)
(7.27273e-07 0 0.000363636)
(7.27273e-07 -2.64698e-23 0.000363636)
(7.27273e-07 0 0.000363636)
(7.27273e-07 0 0.000363636)
(7.27273e-07 -2.64698e-23 0.000363636)
(7.27273e-07 2.64698e-23 0.000363636)
(7.27273e-07 0 0.000363636)
(7.27273e-07 0 0.000363636)
(7.27273e-07 0 0.000363636)
(7.27273e-07 0 0.000363636)
(7.27273e-07 -2.64698e-23 0.000363636)
(7.27273e-07 0 0.000363636)
(7.27273e-07 0 0.000363636)
(7.27273e-07 0 0.000363636)
(7.27273e-07 -2.64698e-23 0.000363636)
(7.27273e-07 -2.64698e-23 0.000363636)
(7.27273e-07 0 0.000363636)
(7.27273e-07 0 0.000363636)
(7.27273e-07 -2.64698e-23 0.000363636)
(7.27273e-07 0 0.000363636)
(7.27273e-07 -2.64698e-23 0.000363636)
(7.27273e-07 0 0.000363636)
(7.27273e-07 0 0.000363636)
(7.27273e-07 0 0.000363636)
(7.27273e-07 -2.64698e-23 0.000363636)
(7.27273e-07 0 0.000363636)
(7.27273e-07 0 0.000363636)
(7.27273e-07 2.64698e-23 0.000363636)
(7.27273e-07 0 0.000363636)
(7.27273e-07 0 0.000363636)
(7.27273e-07 0 0.000363636)
(7.27273e-07 0 0.000363636)
(7.27273e-07 -2.64698e-23 0.000363636)
(7.27273e-07 2.64698e-23 0.000363636)
(7.27273e-07 -2.64698e-23 0.000363636)
(7.27273e-07 0 0.000363636)
(7.27273e-07 -2.64698e-23 0.000363636)
(7.27273e-07 -2.64698e-23 0.000363636)
(7.27273e-07 2.64698e-23 0.000363636)
(7.27273e-07 2.64698e-23 0.000363636)
(7.27273e-07 -2.64698e-23 0.000363636)
(7.27273e-07 -2.64698e-23 0.000363636)
(7.27273e-07 -2.64698e-23 0.000363636)
(7.27273e-07 0 0.000363636)
(7.27273e-07 0 0.000363636)
(7.27273e-07 0 0.000363636)
(7.27273e-07 -2.64698e-23 0.000363636)
(7.27273e-07 2.64698e-23 0.000363636)
(7.27273e-07 -2.64698e-23 0.000363636)
(7.27273e-07 2.64698e-23 0.000363636)
(7.27273e-07 -2.64698e-23 0.000363636)
(7.27273e-07 -2.64698e-23 0.000363636)
(7.27273e-07 -2.64698e-23 0.000363636)
(7.27273e-07 -2.64698e-23 0.000363636)
(7.27273e-07 -2.64698e-23 0.000363636)
(7.27273e-07 2.64698e-23 0.000363636)
(7.27273e-07 -2.64698e-23 0.000363636)
(7.27273e-07 2.64698e-23 0.000363636)
(7.27273e-07 -2.64698e-23 0.000363636)
(7.27273e-07 -2.64698e-23 0.000363636)
(7.27273e-07 2.64698e-23 0.000363636)
(7.27273e-07 -2.64698e-23 0.000363636)
(7.27273e-07 -2.64698e-23 0.000363636)
(7.27273e-07 0 0.000363636)
(7.27273e-07 -2.64698e-23 0.000363636)
(7.27273e-07 -2.64698e-23 0.000363636)
(7.27273e-07 2.64698e-23 0.000363636)
(7.27273e-07 -2.64698e-23 0.000363636)
(7.27273e-07 2.64698e-23 0.000363636)
(7.27273e-07 -2.64698e-23 0.000363636)
(7.27273e-07 -2.64698e-23 0.000363636)
(7.27273e-07 2.64698e-23 0.000363636)
(7.27273e-07 -2.64698e-23 0.000363636)
(7.27273e-07 -2.64698e-23 0.000363636)
(7.27273e-07 -2.64698e-23 0.000363636)
(7.27273e-07 -2.64698e-23 0.000363636)
(7.27273e-07 2.64698e-23 0.000363636)
(7.27273e-07 2.64698e-23 0.000363636)
(7.27273e-07 -2.64698e-23 0.000363636)
(7.27273e-07 -2.64698e-23 0.000363636)
(7.27273e-07 -2.64698e-23 0.000363636)
(7.27273e-07 0 0.000363636)
(7.27273e-07 0 0.000363636)
(7.27273e-07 2.64698e-23 0.000363636)
(7.27273e-07 -2.64698e-23 0.000363636)
(7.27273e-07 2.64698e-23 0.000363636)
(7.27273e-07 0 0.000363636)
(7.27273e-07 2.64698e-23 0.000363636)
(7.27273e-07 2.64698e-23 0.000363636)
(7.27273e-07 -2.64698e-23 0.000363636)
(7.27273e-07 -2.64698e-23 0.000363636)
(7.27273e-07 -2.64698e-23 0.000363636)
(7.27273e-07 -2.64698e-23 0.000363636)
(7.27273e-07 2.64698e-23 0.000363636)
(7.27273e-07 -2.64698e-23 0.000363636)
(7.27273e-07 -2.64698e-23 0.000363636)
(7.27273e-07 -2.64698e-23 0.000363636)
(7.27273e-07 -2.64698e-23 0.000363636)
(7.27273e-07 0 0.000363636)
(7.27273e-07 0 0.000363636)
(7.27273e-07 0 0.000363636)
(7.27273e-07 -2.64698e-23 0.000363636)
(7.27273e-07 2.64698e-23 0.000363636)
(7.27273e-07 0 0.000363636)
(7.27273e-07 2.64698e-23 0.000363636)
(7.27273e-07 -2.64698e-23 0.000363636)
(7.27273e-07 -2.64698e-23 0.000363636)
(7.27273e-07 -2.64698e-23 0.000363636)
(7.27273e-07 -2.64698e-23 0.000363636)
(7.27273e-07 -2.64698e-23 0.000363636)
(7.27273e-07 2.64698e-23 0.000363636)
(7.27273e-07 -2.64698e-23 0.000363636)
(7.27273e-07 2.64698e-23 0.000363636)
(7.27273e-07 -2.64698e-23 0.000363636)
(7.27273e-07 -2.64698e-23 0.000363636)
(7.27273e-07 2.64698e-23 0.000363636)
(7.27273e-07 -2.64698e-23 0.000363636)
(7.27273e-07 -2.64698e-23 0.000363636)
(7.27273e-07 0 0.000363636)
(7.27273e-07 -2.64698e-23 0.000363636)
(7.27273e-07 -2.64698e-23 0.000363636)
(7.27273e-07 2.64698e-23 0.000363636)
(7.27273e-07 -2.64698e-23 0.000363636)
(7.27273e-07 2.64698e-23 0.000363636)
(7.27273e-07 -2.64698e-23 0.000363636)
(7.27273e-07 -2.64698e-23 0.000363636)
(7.27273e-07 2.64698e-23 0.000363636)
(7.27273e-07 -2.64698e-23 0.000363636)
(7.27273e-07 -2.64698e-23 0.000363636)
(7.27273e-07 2.64698e-23 0.000363636)
(7.27273e-07 -2.64698e-23 0.000363636)
(7.27273e-07 2.64698e-23 0.000363636)
(7.27273e-07 2.64698e-23 0.000363636)
(7.27273e-07 -2.64698e-23 0.000363636)
(7.27273e-07 -2.64698e-23 0.000363636)
(7.27273e-07 -2.64698e-23 0.000363636)
(7.27273e-07 0 0.000363636)
(7.27273e-07 0 0.000363636)
(7.27273e-07 2.64698e-23 0.000363636)
(7.27273e-07 -2.64698e-23 0.000363636)
(7.27273e-07 2.64698e-23 0.000363636)
(7.27273e-07 0 0.000363636)
(7.27273e-07 -2.64698e-23 0.000363636)
(7.27273e-07 2.64698e-23 0.000363636)
(7.27273e-07 0 0.000363636)
(7.27273e-07 -2.64698e-23 0.000363636)
(7.27273e-07 0 0.000363636)
(7.27273e-07 0 0.000363636)
(7.27273e-07 0 0.000363636)
(7.27273e-07 0 0.000363636)
(7.27273e-07 0 0.000363636)
(7.27273e-07 0 0.000363636)
(7.27273e-07 0 0.000363636)
(7.27273e-07 0 0.000363636)
(7.27273e-07 0 0.000363636)
(7.27273e-07 0 0.000363636)
(7.27273e-07 0 0.000363636)
(7.27273e-07 0 0.000363636)
(7.27273e-07 0 0.000363636)
(7.27273e-07 0 0.000363636)
(7.27287e-07 0 0.000363636)
(7.27353e-07 0 0.000363636)
(7.27084e-07 0 0.000363636)
(7.27015e-07 2.64698e-23 0.000363636)
(7.25336e-07 0 0.000363636)
(7.22565e-07 0 0.000363636)
(7.20073e-07 0 0.000363636)
(7.17164e-07 0 0.000363636)
(7.14567e-07 -2.64698e-23 0.000363636)
(7.11388e-07 0 0.000363636)
(7.10554e-07 0 0.000363636)
(7.11771e-07 0 0.000363636)
(7.11573e-07 -2.64698e-23 0.000363636)
(7.11115e-07 0 0.000363636)
(7.10991e-07 2.64698e-23 0.000363636)
(7.10969e-07 2.64698e-23 0.000363636)
(7.11002e-07 0 0.000363636)
(7.10942e-07 2.64698e-23 0.000363636)
(7.10859e-07 0 0.000363636)
(7.10771e-07 0 0.000363636)
(7.10687e-07 0 0.000363636)
(7.10609e-07 0 0.000363636)
(7.10538e-07 0 0.000363636)
(7.10475e-07 0 0.000363636)
(7.10421e-07 2.64698e-23 0.000363636)
(7.10375e-07 0 0.000363636)
(7.10339e-07 0 0.000363636)
(7.10313e-07 0 0.000363636)
(7.10299e-07 0 0.000363636)
(7.10297e-07 0 0.000363636)
(7.10306e-07 0 0.000363636)
(7.10327e-07 0 0.000363636)
(7.10359e-07 0 0.000363636)
(7.10402e-07 0 0.000363636)
(7.10455e-07 0 0.000363636)
(7.10519e-07 0 0.000363636)
(7.10593e-07 -2.64698e-23 0.000363636)
(7.10676e-07 0 0.000363636)
(7.1077e-07 0 0.000363636)
(7.10875e-07 0 0.000363636)
(7.10989e-07 0 0.000363636)
(7.11114e-07 0 0.000363636)
(7.11249e-07 -2.64698e-23 0.000363636)
(7.11395e-07 0 0.000363636)
(7.11552e-07 -2.64698e-23 0.000363636)
(7.11718e-07 0 0.000363636)
(7.11895e-07 -2.64698e-23 0.000363636)
(7.1208e-07 0 0.000363636)
(7.12274e-07 0 0.000363636)
(7.12476e-07 0 0.000363636)
(7.12685e-07 0 0.000363636)
(7.12902e-07 0 0.000363636)
(7.13127e-07 0 0.000363636)
(7.1336e-07 0 0.000363636)
(7.13601e-07 -2.64698e-23 0.000363636)
(7.13853e-07 0 0.000363636)
(7.14118e-07 -2.64698e-23 0.000363636)
(7.14398e-07 2.64698e-23 0.000363636)
(7.14696e-07 0 0.000363636)
(7.15016e-07 0 0.000363636)
(7.15359e-07 0 0.000363636)
(7.15725e-07 2.64698e-23 0.000363636)
(7.16111e-07 0 0.000363636)
(7.16511e-07 -2.64698e-23 0.000363636)
(7.16919e-07 0 0.000363636)
(7.17329e-07 0 0.000363636)
(7.1774e-07 0 0.000363636)
(7.18146e-07 0 0.000363636)
(7.18548e-07 -2.64698e-23 0.000363636)
(7.18946e-07 2.64698e-23 0.000363636)
(7.19337e-07 2.64698e-23 0.000363636)
(7.19722e-07 0 0.000363636)
(7.20102e-07 0 0.000363636)
(7.20475e-07 0 0.000363636)
(7.2084e-07 0 0.000363636)
(7.21198e-07 0 0.000363636)
(7.21549e-07 0 0.000363636)
(7.21891e-07 0 0.000363636)
(7.22225e-07 0 0.000363636)
(7.22551e-07 0 0.000363636)
(7.2287e-07 2.64698e-23 0.000363636)
(7.23181e-07 0 0.000363636)
(7.23483e-07 -2.64698e-23 0.000363636)
(7.23775e-07 0 0.000363636)
(7.24057e-07 0 0.000363636)
(7.24326e-07 0 0.000363636)
(7.24582e-07 0 0.000363636)
(7.24824e-07 0 0.000363636)
(7.25049e-07 -2.64698e-23 0.000363636)
(7.25258e-07 0 0.000363636)
(7.2545e-07 0 0.000363636)
(7.25622e-07 0 0.000363636)
(7.25775e-07 0 0.000363636)
(7.25909e-07 0 0.000363636)
(7.2602e-07 2.64698e-23 0.000363636)
(7.26109e-07 0 0.000363636)
(7.26176e-07 0 0.000363636)
(7.2622e-07 2.64698e-23 0.000363636)
(7.2624e-07 0 0.000363636)
(7.26236e-07 -2.64698e-23 0.000363636)
(7.26208e-07 0 0.000363636)
(7.26155e-07 0 0.000363636)
(7.26077e-07 0 0.000363636)
(7.25976e-07 0 0.000363636)
(7.2585e-07 2.64698e-23 0.000363636)
(7.25701e-07 -2.64698e-23 0.000363636)
(7.2553e-07 0 0.000363636)
(7.25336e-07 0 0.000363636)
(7.25122e-07 2.64698e-23 0.000363636)
(7.24887e-07 0 0.000363636)
(7.24632e-07 0 0.000363636)
(7.2436e-07 -2.64698e-23 0.000363636)
(7.24071e-07 2.64698e-23 0.000363636)
(7.23766e-07 2.64698e-23 0.000363636)
(7.23449e-07 -2.64698e-23 0.000363636)
(7.23118e-07 2.64698e-23 0.000363636)
(7.22779e-07 0 0.000363636)
(7.22429e-07 0 0.000363636)
(7.22072e-07 0 0.000363636)
(7.21709e-07 0 0.000363636)
(7.2134e-07 2.64698e-23 0.000363636)
(7.20968e-07 0 0.000363636)
(7.20592e-07 2.64698e-23 0.000363636)
(7.20216e-07 0 0.000363636)
(7.19838e-07 0 0.000363636)
(7.19463e-07 -2.64698e-23 0.000363636)
(7.19089e-07 2.64698e-23 0.000363636)
(7.1872e-07 0 0.000363636)
(7.18354e-07 0 0.000363636)
(7.17993e-07 0 0.000363636)
(7.17637e-07 0 0.000363636)
(7.17286e-07 0 0.000363636)
(7.16941e-07 -2.64698e-23 0.000363636)
(7.16602e-07 2.64698e-23 0.000363636)
(7.16269e-07 -2.64698e-23 0.000363636)
(7.15945e-07 0 0.000363636)
(7.15629e-07 0 0.000363636)
(7.15323e-07 0 0.000363636)
(7.15027e-07 2.64698e-23 0.000363636)
(7.1474e-07 0 0.000363636)
(7.14466e-07 -2.64698e-23 0.000363636)
(7.14202e-07 -2.64698e-23 0.000363636)
(7.1395e-07 0 0.000363636)
(7.13712e-07 0 0.000363636)
(7.13487e-07 2.64698e-23 0.000363636)
(7.13276e-07 0 0.000363636)
(7.13077e-07 0 0.000363636)
(7.12892e-07 0 0.000363636)
(7.12718e-07 0 0.000363636)
(7.12556e-07 0 0.000363636)
(7.12403e-07 0 0.000363636)
(7.1226e-07 -2.64698e-23 0.000363636)
(7.12128e-07 0 0.000363636)
(7.12005e-07 0 0.000363636)
(7.11891e-07 0 0.000363636)
(7.11789e-07 0 0.000363636)
(7.11698e-07 0 0.000363636)
(7.11616e-07 0 0.000363636)
(7.11544e-07 2.64698e-23 0.000363636)
(7.1148e-07 0 0.000363636)
(7.11424e-07 2.64698e-23 0.000363636)
(7.11376e-07 0 0.000363636)
(7.11338e-07 0 0.000363636)
(7.11306e-07 0 0.000363636)
(7.11284e-07 -2.64698e-23 0.000363636)
(7.11271e-07 2.64698e-23 0.000363636)
(7.11266e-07 0 0.000363636)
(7.1127e-07 0 0.000363636)
(7.1128e-07 0 0.000363636)
(7.113e-07 0 0.000363636)
(7.11329e-07 2.64698e-23 0.000363636)
(7.11366e-07 -2.64698e-23 0.000363636)
(7.11414e-07 0 0.000363636)
(7.1147e-07 0 0.000363636)
(7.11537e-07 0 0.000363636)
(7.11611e-07 2.64698e-23 0.000363636)
(7.11693e-07 0 0.000363636)
(7.11783e-07 -2.64698e-23 0.000363636)
(7.1188e-07 0 0.000363636)
(7.11982e-07 -2.64698e-23 0.000363636)
(7.1209e-07 -2.64698e-23 0.000363636)
(7.12204e-07 2.64698e-23 0.000363636)
(7.12323e-07 0 0.000363636)
(7.12447e-07 0 0.000363636)
(7.12575e-07 0 0.000363636)
(7.1271e-07 0 0.000363636)
(7.1285e-07 0 0.000363636)
(7.12995e-07 0 0.000363636)
(7.13148e-07 2.64698e-23 0.000363636)
(7.13308e-07 0 0.000363636)
(7.13474e-07 0 0.000363636)
(7.13646e-07 0 0.000363636)
(7.13824e-07 -2.64698e-23 0.000363636)
(7.14007e-07 0 0.000363636)
(7.14194e-07 -2.64698e-23 0.000363636)
(7.14388e-07 0 0.000363636)
(7.14586e-07 0 0.000363636)
(7.14792e-07 0 0.000363636)
(7.15006e-07 -2.64698e-23 0.000363636)
(7.1523e-07 0 0.000363636)
(7.1547e-07 0 0.000363636)
(7.15722e-07 2.64698e-23 0.000363636)
(7.15993e-07 0 0.000363636)
(7.1628e-07 0 0.000363636)
(7.1658e-07 -2.64698e-23 0.000363636)
(7.16892e-07 0 0.000363636)
(7.1721e-07 -2.64698e-23 0.000363636)
(7.17529e-07 0 0.000363636)
(7.17849e-07 0 0.000363636)
(7.18166e-07 -2.64698e-23 0.000363636)
(7.18476e-07 0 0.000363636)
(7.18781e-07 0 0.000363636)
(7.19078e-07 -2.64698e-23 0.000363636)
(7.19366e-07 2.64698e-23 0.000363636)
(7.19647e-07 0 0.000363636)
(7.19921e-07 0 0.000363636)
(7.20188e-07 -2.64698e-23 0.000363636)
(7.2045e-07 0 0.000363636)
(7.20707e-07 -2.64698e-23 0.000363636)
(7.20962e-07 0 0.000363636)
(7.21212e-07 0 0.000363636)
(7.21458e-07 0 0.000363636)
(7.21702e-07 -2.64698e-23 0.000363636)
(7.2194e-07 2.64698e-23 0.000363636)
(7.22175e-07 0 0.000363636)
(7.22404e-07 0 0.000363636)
(7.22626e-07 0 0.000363636)
(7.22842e-07 -2.64698e-23 0.000363636)
(7.23049e-07 2.64698e-23 0.000363636)
(7.23248e-07 -2.64698e-23 0.000363636)
(7.23436e-07 0 0.000363636)
(7.23615e-07 0 0.000363636)
(7.23782e-07 0 0.000363636)
(7.2394e-07 -2.64698e-23 0.000363636)
(7.24084e-07 2.64698e-23 0.000363636)
(7.2422e-07 2.64698e-23 0.000363636)
(7.24344e-07 -2.64698e-23 0.000363636)
(7.24456e-07 0 0.000363636)
(7.24559e-07 0 0.000363636)
(7.24648e-07 -2.64698e-23 0.000363636)
(7.24727e-07 2.64698e-23 0.000363636)
(7.24793e-07 0 0.000363636)
(7.24848e-07 0 0.000363636)
(7.2489e-07 0 0.000363636)
(7.24919e-07 0 0.000363636)
(7.24935e-07 2.64698e-23 0.000363636)
(7.24939e-07 0 0.000363636)
(7.24929e-07 0 0.000363636)
(7.24905e-07 0 0.000363636)
(7.24871e-07 0 0.000363636)
(7.24821e-07 0 0.000363636)
(7.24758e-07 0 0.000363636)
(7.24682e-07 0 0.000363636)
(7.24592e-07 0 0.000363636)
(7.2449e-07 0 0.000363636)
(7.24375e-07 2.64698e-23 0.000363636)
(7.24252e-07 2.64698e-23 0.000363636)
(7.24121e-07 2.64698e-23 0.000363636)
(7.2398e-07 -2.64698e-23 0.000363636)
(7.23833e-07 0 0.000363636)
(7.23681e-07 0 0.000363636)
(7.23523e-07 0 0.000363636)
(7.23362e-07 0 0.000363636)
(7.23197e-07 0 0.000363636)
(7.2303e-07 -2.64698e-23 0.000363636)
(7.22859e-07 0 0.000363636)
(7.22689e-07 -2.64698e-23 0.000363636)
(7.22515e-07 0 0.000363636)
(7.22343e-07 0 0.000363636)
(7.22168e-07 0 0.000363636)
(7.21997e-07 0 0.000363636)
(7.21827e-07 -2.64698e-23 0.000363636)
(7.21659e-07 0 0.000363636)
(7.21493e-07 0 0.000363636)
(7.21334e-07 0 0.000363636)
(7.21173e-07 0 0.000363636)
(7.21016e-07 0 0.000363636)
(7.20857e-07 -2.64698e-23 0.000363636)
(7.207e-07 0 0.000363636)
(7.20532e-07 0 0.000363636)
(7.20363e-07 0 0.000363636)
(7.20177e-07 0 0.000363636)
(7.19979e-07 0 0.000363636)
(7.19743e-07 -2.64698e-23 0.000363636)
(7.19474e-07 0 0.000363636)
(7.19131e-07 0 0.000363636)
(7.18704e-07 2.64698e-23 0.000363636)
(7.18126e-07 0 0.000363636)
(7.17352e-07 0 0.000363636)
(7.16351e-07 2.64698e-23 0.000363636)
(7.14791e-07 -2.64698e-23 0.000363636)
(7.12875e-07 0 0.000363636)
(7.09737e-07 -2.64698e-23 0.000363636)
(7.05307e-07 -2.64698e-23 0.000363636)
(6.98683e-07 0 0.000363636)
(6.89339e-07 -2.64698e-23 0.000363636)
(6.75541e-07 0 0.000363636)
(6.56402e-07 0 0.000363636)
(6.28173e-07 0 0.000363636)
(5.89596e-07 2.64698e-23 0.000363636)
(5.33402e-07 2.64698e-23 0.000363636)
(4.5395e-07 0 0.000363636)
(4.17579e-07 0 0.000363636)
(1.53174e-07 0 0.000363636)
(2.77731e-06 1.05879e-22 0.000363636)
(3.20035e-06 0 0.000363636)
(7.27273e-07 0 0.000363636)
(7.27273e-07 0 0.000363636)
(7.27273e-07 0 0.000363636)
(7.27273e-07 0 0.000363636)
(7.27273e-07 0 0.000363636)
(7.27273e-07 -2.64698e-23 0.000363636)
(7.27273e-07 0 0.000363636)
(7.27273e-07 0 0.000363636)
(7.27273e-07 0 0.000363636)
(7.27273e-07 0 0.000363636)
)
;

boundaryField
{
    inlet
    {
        type            calculated;
        value           uniform (0 0 0);
    }
    endWall
    {
        type            calculated;
        value           uniform (0 0 0);
    }
    sideWall
    {
        type            empty;
    }
}


// ************************************************************************* //
