/*--------------------------------*- C++ -*----------------------------------*\
| =========                 |                                                 |
| \\      /  F ield         | foam-extend: Open Source CFD                    |
|  \\    /   O peration     | Version:     3.2                                |
|   \\  /    A nd           | Web:         http://www.foam-extend.org         |
|    \\/     M anipulation  | For copyright notice see file Copyright         |
\*---------------------------------------------------------------------------*/
FoamFile
{
    version     2.0;
    format      ascii;
    class       volVectorField;
    location    "120";
    object      q_b_slide;
}
// * * * * * * * * * * * * * * * * * * * * * * * * * * * * * * * * * * * * * //

dimensions      [0 2 -1 0 0 0 0];

internalField   uniform (0 0 0);

boundaryField
{
    inlet
    {
        type            calculated;
        value           uniform (0 0 0);
    }
    outlet
    {
        type            calculated;
        value           uniform (0 0 0);
    }
    sideWall
    {
        type            empty;
    }
    bed
    {
        type            calculated;
        value           nonuniform List<vector> 
550
(
(0 0 0)
(0 0 0)
(0 0 0)
(1.1171e-07 0 -2.2342e-10)
(4.62561e-07 -1.33823e-28 -9.25121e-10)
(9.9424e-07 0 -1.98848e-09)
(1.68801e-06 -4.59149e-34 -3.37601e-09)
(2.50249e-06 1.16569e-33 -5.00498e-09)
(3.38435e-06 -9.2838e-28 -6.7687e-09)
(4.27242e-06 -1.0362e-33 -8.54484e-09)
(5.11327e-06 1.47172e-33 -1.02265e-08)
(5.86226e-06 0 -1.17245e-08)
(6.49228e-06 -1.66385e-27 -1.29846e-08)
(6.98823e-06 2.34532e-33 -1.39765e-08)
(7.34888e-06 0 -1.46978e-08)
(7.58056e-06 -1.67631e-27 -1.51611e-08)
(7.69732e-06 1.57213e-27 -1.53946e-08)
(7.71561e-06 -1.45444e-27 -1.54312e-08)
(7.654e-06 -1.3417e-27 -1.5308e-08)
(7.53478e-06 0 -1.50696e-08)
(7.37122e-06 -1.12575e-27 -1.47424e-08)
(7.17472e-06 1.033e-27 -1.43494e-08)
(6.95517e-06 0 -1.39103e-08)
(6.72106e-06 -8.60546e-28 -1.34421e-08)
(6.47982e-06 0 -1.29596e-08)
(6.23747e-06 0 -1.24749e-08)
(5.99878e-06 -6.19595e-28 -1.19976e-08)
(5.76807e-06 0 -1.15361e-08)
(5.54823e-06 0 -1.10965e-08)
(5.33918e-06 0 -1.06784e-08)
(5.14095e-06 -3.21607e-34 -1.02819e-08)
(4.95395e-06 3.16335e-34 -9.90791e-09)
(4.77832e-06 -3.08599e-34 -9.55664e-09)
(4.61393e-06 -3.1619e-34 -9.22785e-09)
(4.46046e-06 3.27919e-34 -8.92092e-09)
(4.3175e-06 -3.34389e-34 -8.63499e-09)
(4.18456e-06 0 -8.36913e-09)
(4.06114e-06 0 -8.12228e-09)
(3.94666e-06 -2.46579e-28 -7.89333e-09)
(3.84059e-06 3.46023e-34 -7.68118e-09)
(3.74237e-06 -3.63084e-34 -7.48473e-09)
(3.65145e-06 0 -7.3029e-09)
(3.56729e-06 0 -7.13458e-09)
(3.48937e-06 0 -6.97873e-09)
(3.41719e-06 -3.55248e-34 -6.83437e-09)
(3.35029e-06 0 -6.70059e-09)
(3.2883e-06 0 -6.57659e-09)
(3.23082e-06 -3.73741e-34 -6.46164e-09)
(3.17752e-06 3.71738e-34 -6.35504e-09)
(3.12806e-06 -3.69237e-34 -6.25612e-09)
(3.08214e-06 0 -6.16429e-09)
(3.03947e-06 0 -6.07895e-09)
(2.99978e-06 -3.5568e-34 -5.99956e-09)
(2.9628e-06 3.48067e-34 -5.92559e-09)
(2.92827e-06 -3.38245e-34 -5.85654e-09)
(2.89597e-06 3.38433e-29 -5.79193e-09)
(2.86566e-06 2.9949e-29 -5.73132e-09)
(2.83718e-06 -2.71842e-29 -5.67437e-09)
(2.81036e-06 0 -5.62072e-09)
(2.78503e-06 0 -5.57007e-09)
(2.76107e-06 2.11501e-29 -5.52214e-09)
(2.73835e-06 2.01301e-29 -5.4767e-09)
(2.71678e-06 1.93599e-29 -5.43355e-09)
(2.69625e-06 0 -5.39249e-09)
(2.67667e-06 0 -5.35335e-09)
(2.65797e-06 1.77193e-29 -5.31594e-09)
(2.64006e-06 2.46391e-34 -5.28012e-09)
(2.62287e-06 0 -5.24574e-09)
(2.60634e-06 0 -5.21268e-09)
(2.59041e-06 0 -5.18082e-09)
(2.57502e-06 1.62083e-29 -5.15003e-09)
(2.56011e-06 1.58992e-29 -5.12023e-09)
(2.54565e-06 2.13297e-34 -5.09129e-09)
(2.53158e-06 0 -5.06315e-09)
(2.51786e-06 -2.0181e-34 -5.03572e-09)
(2.50447e-06 1.41356e-29 -5.00893e-09)
(2.49135e-06 1.97505e-34 -4.9827e-09)
(2.47849e-06 0 -4.95698e-09)
(2.46587e-06 1.22115e-29 -4.93174e-09)
(2.45348e-06 -1.20271e-29 -4.90696e-09)
(2.44133e-06 1.69422e-34 -4.88265e-09)
(2.42939e-06 0 -4.85879e-09)
(2.41767e-06 0 -4.83535e-09)
(2.40615e-06 0 -4.8123e-09)
(2.39482e-06 1.11267e-29 -4.78965e-09)
(2.38368e-06 0 -4.76736e-09)
(2.37272e-06 0 -4.74544e-09)
(2.36193e-06 0 -4.72386e-09)
(2.3513e-06 1.01503e-29 -4.70261e-09)
(2.34084e-06 1.00151e-29 -4.68167e-09)
(2.33051e-06 1.30058e-34 -4.66103e-09)
(2.32032e-06 -1.21161e-34 -4.64063e-09)
(2.31022e-06 1.06581e-29 -4.62043e-09)
(2.3002e-06 -1.15356e-34 -4.60039e-09)
(2.29026e-06 1.09313e-29 -4.58052e-09)
(2.28041e-06 1.0831e-34 -4.56082e-09)
(2.27064e-06 0 -4.54128e-09)
(2.26096e-06 0 -4.52193e-09)
(2.25137e-06 8.67352e-30 -4.50274e-09)
(2.24188e-06 -1.18095e-34 -4.48375e-09)
(2.23247e-06 0 -4.46494e-09)
(2.22313e-06 -6.74388e-30 -4.44626e-09)
(2.21383e-06 -1.0637e-34 -4.42766e-09)
(2.20455e-06 0 -4.40909e-09)
(2.19526e-06 -1.03166e-34 -4.39052e-09)
(2.18594e-06 0 -4.37189e-09)
(2.17658e-06 7.06843e-30 -4.35317e-09)
(2.16716e-06 -7.18835e-30 -4.33433e-09)
(2.15768e-06 7.33584e-30 -4.31535e-09)
(2.14811e-06 0 -4.29621e-09)
(2.13845e-06 7.65104e-30 -4.2769e-09)
(2.12871e-06 7.84317e-30 -4.25741e-09)
(2.11887e-06 -8.03765e-30 -4.23774e-09)
(2.10894e-06 -8.18575e-30 -4.21788e-09)
(2.09893e-06 8.52463e-30 -4.19786e-09)
(2.08883e-06 8.86095e-30 -4.17767e-09)
(2.07864e-06 8.99214e-30 -4.15728e-09)
(2.06835e-06 9.7884e-35 -4.1367e-09)
(2.05798e-06 -9.57468e-35 -4.11596e-09)
(2.04753e-06 -9.55353e-35 -4.09506e-09)
(2.03701e-06 1.01925e-29 -4.07401e-09)
(2.02641e-06 -1.04649e-29 -4.05282e-09)
(2.01575e-06 1.07259e-29 -4.0315e-09)
(2.00503e-06 -1.09829e-29 -4.01005e-09)
(1.99425e-06 1.12263e-29 -3.98851e-09)
(1.98343e-06 1.14639e-29 -3.96687e-09)
(1.97258e-06 1.16868e-29 -3.94516e-09)
(1.9617e-06 1.18954e-29 -3.9234e-09)
(1.9508e-06 1.20896e-29 -3.90161e-09)
(1.9399e-06 -1.22727e-29 -3.8798e-09)
(1.929e-06 1.24474e-29 -3.85799e-09)
(1.9181e-06 -1.26173e-29 -3.83619e-09)
(1.90721e-06 1.27825e-29 -3.81442e-09)
(1.89634e-06 1.29438e-29 -3.79267e-09)
(1.88548e-06 -1.30997e-29 -3.77097e-09)
(1.87465e-06 1.32485e-29 -3.74931e-09)
(1.86385e-06 1.33916e-29 -3.72771e-09)
(1.85308e-06 0 -3.70617e-09)
(1.84235e-06 1.3655e-29 -3.6847e-09)
(1.83166e-06 1.37792e-29 -3.66332e-09)
(1.82102e-06 -1.38985e-29 -3.64204e-09)
(1.81042e-06 1.40114e-29 -3.62085e-09)
(1.79988e-06 -1.41169e-29 -3.59977e-09)
(1.7894e-06 1.42128e-29 -3.5788e-09)
(1.77898e-06 1.42985e-29 -3.55795e-09)
(1.76862e-06 -1.43709e-29 -3.53724e-09)
(1.75833e-06 1.44281e-29 -3.51665e-09)
(1.7481e-06 1.44686e-29 -3.49621e-09)
(1.73795e-06 1.44917e-29 -3.47591e-09)
(1.72788e-06 1.44949e-29 -3.45576e-09)
(1.71789e-06 -1.44768e-29 -3.43577e-09)
(1.70798e-06 -1.44354e-29 -3.41595e-09)
(1.69815e-06 1.43681e-29 -3.3963e-09)
(1.68842e-06 1.42752e-29 -3.37683e-09)
(1.67878e-06 1.41573e-29 -3.35756e-09)
(1.66924e-06 -7.44966e-35 -3.33849e-09)
(1.65981e-06 -7.40016e-35 -3.31963e-09)
(1.65049e-06 -1.36862e-29 -3.30099e-09)
(1.64129e-06 1.35033e-29 -3.28258e-09)
(1.6322e-06 -1.3312e-29 -3.2644e-09)
(1.62323e-06 -7.11009e-35 -3.24646e-09)
(1.61438e-06 -1.29147e-29 -3.22877e-09)
(1.60566e-06 -1.27039e-29 -3.21132e-09)
(1.59706e-06 1.24853e-29 -3.19412e-09)
(1.58859e-06 1.22609e-29 -3.17718e-09)
(1.58025e-06 1.20322e-29 -3.1605e-09)
(1.57204e-06 1.1801e-29 -3.14408e-09)
(1.56397e-06 -1.15694e-29 -3.12793e-09)
(1.55603e-06 1.13386e-29 -3.11206e-09)
(1.54823e-06 1.11105e-29 -3.09646e-09)
(1.54057e-06 1.08844e-29 -3.08115e-09)
(1.53305e-06 1.06621e-29 -3.06611e-09)
(1.52568e-06 0 -3.05136e-09)
(1.51845e-06 0 -3.03689e-09)
(1.51136e-06 5.63769e-35 -3.02271e-09)
(1.50441e-06 9.8053e-30 -3.00882e-09)
(1.4976e-06 -9.5986e-30 -2.99521e-09)
(1.49094e-06 5.33652e-35 -2.98188e-09)
(1.48441e-06 -9.19138e-30 -2.96883e-09)
(1.47803e-06 8.99003e-30 -2.95605e-09)
(1.47178e-06 8.78971e-30 -2.94355e-09)
(1.46566e-06 8.59022e-30 -2.93133e-09)
(1.45968e-06 8.39257e-30 -2.91937e-09)
(1.45384e-06 8.19576e-30 -2.90767e-09)
(1.44812e-06 -8.00094e-30 -2.89624e-09)
(1.44254e-06 7.80725e-30 -2.88507e-09)
(1.43708e-06 -7.61657e-30 -2.87416e-09)
(1.43175e-06 7.4253e-30 -2.8635e-09)
(1.42655e-06 7.23661e-30 -2.8531e-09)
(1.42147e-06 -7.05096e-30 -2.84295e-09)
(1.41652e-06 6.86915e-30 -2.83305e-09)
(1.4117e-06 6.69271e-30 -2.82339e-09)
(1.40699e-06 0 -2.81399e-09)
(1.40242e-06 6.34842e-30 -2.80483e-09)
(1.39796e-06 6.18112e-30 -2.79592e-09)
(1.39363e-06 -6.01708e-30 -2.78726e-09)
(1.38942e-06 5.85522e-30 -2.77884e-09)
(1.38533e-06 -5.69263e-30 -2.77066e-09)
(1.38136e-06 5.53277e-30 -2.76273e-09)
(1.37752e-06 5.37552e-30 -2.75504e-09)
(1.3738e-06 -5.21674e-30 -2.74759e-09)
(1.37019e-06 5.05709e-30 -2.74038e-09)
(1.36671e-06 4.8988e-30 -2.73341e-09)
(1.36334e-06 -4.7395e-30 -2.72667e-09)
(1.36008e-06 4.57901e-30 -2.72017e-09)
(1.35695e-06 -4.41793e-30 -2.71389e-09)
(1.35392e-06 -4.25649e-30 -2.70783e-09)
(1.35099e-06 4.09456e-30 -2.70198e-09)
(1.34817e-06 3.93222e-30 -2.69633e-09)
(1.34544e-06 3.77091e-30 -2.69088e-09)
(1.3428e-06 0 -2.68561e-09)
(1.34025e-06 3.25112e-35 -2.68051e-09)
(1.33778e-06 -3.31189e-30 -2.67557e-09)
(1.33539e-06 3.17326e-30 -2.67078e-09)
(1.33306e-06 -3.04259e-30 -2.66613e-09)
(1.3308e-06 0 -2.66161e-09)
(1.3286e-06 2.80841e-30 -2.6572e-09)
(1.32645e-06 -2.70735e-30 -2.6529e-09)
(1.32435e-06 2.89545e-35 -2.6487e-09)
(1.32229e-06 2.53899e-30 -2.64458e-09)
(1.32027e-06 0 -2.64053e-09)
(1.31828e-06 0 -2.63655e-09)
(1.31631e-06 2.74874e-35 -2.63262e-09)
(1.31437e-06 2.72666e-35 -2.62874e-09)
(1.31245e-06 -2.70678e-35 -2.6249e-09)
(1.31054e-06 -2.60946e-35 -2.62108e-09)
(1.30863e-06 0 -2.61725e-09)
(1.30668e-06 0 -2.61337e-09)
(1.30471e-06 0 -2.60942e-09)
(1.3027e-06 0 -2.60539e-09)
(1.30065e-06 2.53239e-35 -2.6013e-09)
(1.29857e-06 0 -2.59714e-09)
(1.29646e-06 -2.56591e-35 -2.59292e-09)
(1.29432e-06 0 -2.58865e-09)
(1.29217e-06 2.59523e-35 -2.58439e-09)
(1.28999e-06 -2.58886e-35 -2.58027e-09)
(1.2878e-06 0 -2.57493e-09)
(1.28459e-06 -3.42163e-30 -2.56827e-09)
(1.28183e-06 2.38763e-35 -2.55684e-09)
(1.2811e-06 -2.13974e-35 -2.54562e-09)
(1.27886e-06 2.06373e-35 -2.53241e-09)
(1.27663e-06 1.97545e-35 -2.51778e-09)
(1.27442e-06 2.87259e-30 -2.50432e-09)
(1.27223e-06 0 -2.48888e-09)
(1.27008e-06 -2.14952e-35 -2.48176e-09)
(1.26795e-06 0 -2.48185e-09)
(1.26582e-06 2.87429e-30 -2.47698e-09)
(1.26368e-06 0 -2.47121e-09)
(1.26155e-06 -2.82841e-30 -2.46662e-09)
(1.25942e-06 -2.83133e-30 -2.46237e-09)
(1.25728e-06 0 -2.45831e-09)
(1.25514e-06 -2.84131e-30 -2.4539e-09)
(1.25298e-06 2.059e-35 -2.44939e-09)
(1.2508e-06 0 -2.44484e-09)
(1.2486e-06 0 -2.44025e-09)
(1.24638e-06 0 -2.43564e-09)
(1.24413e-06 0 -2.43101e-09)
(1.24185e-06 0 -2.42634e-09)
(1.23955e-06 -2.94378e-30 -2.42165e-09)
(1.23721e-06 0 -2.41694e-09)
(1.23485e-06 0 -2.4122e-09)
(1.23247e-06 0 -2.40746e-09)
(1.23006e-06 0 -2.4027e-09)
(1.22762e-06 0 -2.39793e-09)
(1.22516e-06 0 -2.39315e-09)
(1.22267e-06 0 -2.38837e-09)
(1.22016e-06 0 -2.38358e-09)
(1.21764e-06 0 -2.37878e-09)
(1.21509e-06 -1.83927e-35 -2.37399e-09)
(1.21253e-06 0 -2.3692e-09)
(1.20996e-06 3.24269e-30 -2.36441e-09)
(1.20737e-06 0 -2.35963e-09)
(1.20477e-06 0 -2.35487e-09)
(1.20217e-06 1.74509e-35 -2.35013e-09)
(1.19956e-06 0 -2.34541e-09)
(1.19696e-06 0 -2.34073e-09)
(1.19435e-06 3.40944e-30 -2.33607e-09)
(1.19175e-06 0 -2.33146e-09)
(1.18915e-06 3.47517e-30 -2.32688e-09)
(1.18655e-06 0 -2.32234e-09)
(1.18396e-06 3.53945e-30 -2.31784e-09)
(1.18137e-06 0 -2.31338e-09)
(1.17879e-06 0 -2.30897e-09)
(1.17623e-06 0 -2.3046e-09)
(1.17369e-06 0 -2.30029e-09)
(1.17116e-06 0 -2.29605e-09)
(1.16867e-06 0 -2.29187e-09)
(1.16619e-06 0 -2.28777e-09)
(1.16375e-06 3.58731e-30 -2.28375e-09)
(1.16134e-06 0 -2.27983e-09)
(1.15897e-06 3.53503e-30 -2.27601e-09)
(1.15663e-06 -3.49875e-30 -2.2723e-09)
(1.15432e-06 0 -2.26873e-09)
(1.15206e-06 0 -2.26529e-09)
(1.14984e-06 0 -2.26201e-09)
(1.14766e-06 -3.28956e-30 -2.25887e-09)
(1.14552e-06 0 -2.25588e-09)
(1.14343e-06 3.15549e-30 -2.25302e-09)
(1.14138e-06 0 -2.25026e-09)
(1.13938e-06 1.53289e-35 -2.2476e-09)
(1.13741e-06 1.49235e-35 -2.245e-09)
(1.13549e-06 0 -2.24247e-09)
(1.13359e-06 2.86115e-30 -2.23999e-09)
(1.13174e-06 -2.82032e-30 -2.23756e-09)
(1.12991e-06 -2.78579e-30 -2.23516e-09)
(1.1281e-06 0 -2.23278e-09)
(1.12633e-06 -1.32174e-35 -2.23044e-09)
(1.12457e-06 0 -2.22812e-09)
(1.12284e-06 0 -2.22582e-09)
(1.12114e-06 -1.30219e-35 -2.22354e-09)
(1.11946e-06 0 -2.22129e-09)
(1.1178e-06 0 -2.21906e-09)
(1.11617e-06 0 -2.21686e-09)
(1.11458e-06 0 -2.21468e-09)
(1.113e-06 -2.52431e-30 -2.21253e-09)
(1.11146e-06 -1.26754e-35 -2.21041e-09)
(1.10994e-06 2.45144e-30 -2.20831e-09)
(1.10845e-06 0 -2.20623e-09)
(1.10698e-06 0 -2.20417e-09)
(1.10554e-06 0 -2.20211e-09)
(1.10412e-06 0 -2.20007e-09)
(1.10273e-06 0 -2.19802e-09)
(1.10136e-06 2.19475e-30 -2.19599e-09)
(1.10002e-06 0 -2.19395e-09)
(1.09871e-06 0 -2.19191e-09)
(1.09742e-06 0 -2.18986e-09)
(1.09616e-06 -1.05822e-35 -2.18781e-09)
(1.09493e-06 0 -2.18575e-09)
(1.09372e-06 -1.95655e-30 -2.18366e-09)
(1.09253e-06 0 -2.18156e-09)
(1.09136e-06 0 -2.17942e-09)
(1.09021e-06 -1.88723e-30 -2.17726e-09)
(1.08908e-06 8.87019e-36 -2.17506e-09)
(1.08797e-06 1.8663e-30 -2.17283e-09)
(1.08687e-06 0 -2.17056e-09)
(1.0858e-06 0 -2.16825e-09)
(1.08473e-06 0 -2.1659e-09)
(1.08368e-06 7.78621e-36 -2.1635e-09)
(1.08264e-06 -1.89039e-30 -2.16105e-09)
(1.08161e-06 1.91058e-30 -2.15855e-09)
(1.08058e-06 0 -2.15599e-09)
(1.07956e-06 0 -2.15337e-09)
(1.07854e-06 -2.00118e-30 -2.1507e-09)
(1.07751e-06 0 -2.14795e-09)
(1.07648e-06 0 -2.14514e-09)
(1.07543e-06 2.12291e-30 -2.14224e-09)
(1.07436e-06 -2.16849e-30 -2.13927e-09)
(1.07328e-06 -2.217e-30 -2.1362e-09)
(1.07216e-06 2.26851e-30 -2.13305e-09)
(1.07102e-06 -2.32285e-30 -2.1298e-09)
(1.06984e-06 0 -2.12645e-09)
(1.06862e-06 0 -2.123e-09)
(1.06735e-06 0 -2.11944e-09)
(1.06605e-06 0 -2.11578e-09)
(1.06469e-06 -2.59688e-30 -2.11201e-09)
(1.06329e-06 0 -2.10815e-09)
(1.06185e-06 -2.68719e-30 -2.10419e-09)
(1.06036e-06 0 -2.10014e-09)
(1.05883e-06 0 -2.096e-09)
(1.05725e-06 2.79995e-30 -2.0918e-09)
(1.05564e-06 -2.83358e-30 -2.08752e-09)
(1.05398e-06 0 -2.08318e-09)
(1.05229e-06 -1.2172e-35 -2.07877e-09)
(1.05056e-06 -1.21781e-35 -2.0743e-09)
(1.04878e-06 0 -2.06978e-09)
(1.04697e-06 0 -2.06519e-09)
(1.04512e-06 3.02294e-30 -2.06054e-09)
(1.04322e-06 -3.06212e-30 -2.05583e-09)
(1.04129e-06 3.10475e-30 -2.05107e-09)
(1.03932e-06 0 -2.04627e-09)
(1.03731e-06 0 -2.04141e-09)
(1.03526e-06 0 -2.03651e-09)
(1.03318e-06 -3.31294e-30 -2.03156e-09)
(1.03105e-06 0 -2.02657e-09)
(1.02888e-06 3.43658e-30 -2.02153e-09)
(1.02667e-06 3.50054e-30 -2.01643e-09)
(1.02441e-06 0 -2.01128e-09)
(1.0221e-06 0 -2.00608e-09)
(1.01975e-06 -3.69396e-30 -2.00083e-09)
(1.01735e-06 1.38217e-35 -1.99553e-09)
(1.0149e-06 0 -1.99018e-09)
(1.01241e-06 0 -1.98479e-09)
(1.00988e-06 0 -1.97934e-09)
(1.00731e-06 0 -1.97384e-09)
(1.00469e-06 0 -1.9683e-09)
(1.00204e-06 4.0725e-30 -1.96271e-09)
(9.99355e-07 1.58269e-35 -1.95709e-09)
(9.96635e-07 0 -1.95142e-09)
(9.93883e-07 1.6149e-35 -1.94573e-09)
(9.911e-07 0 -1.94e-09)
(9.88289e-07 1.64516e-35 -1.93425e-09)
(9.85453e-07 0 -1.92848e-09)
(9.82595e-07 -4.16009e-30 -1.92269e-09)
(9.79717e-07 0 -1.91688e-09)
(9.76823e-07 -4.15073e-30 -1.91107e-09)
(9.73915e-07 0 -1.90525e-09)
(9.70993e-07 0 -1.89944e-09)
(9.6806e-07 0 -1.89362e-09)
(9.65117e-07 4.12565e-30 -1.8878e-09)
(9.62163e-07 -4.11738e-30 -1.88199e-09)
(9.592e-07 -1.56683e-35 -1.87618e-09)
(9.56229e-07 0 -1.87038e-09)
(9.53251e-07 -1.53062e-35 -1.86458e-09)
(9.50269e-07 1.51198e-35 -1.8588e-09)
(9.47285e-07 -4.08514e-30 -1.85304e-09)
(9.443e-07 4.08888e-30 -1.84729e-09)
(9.41316e-07 0 -1.84158e-09)
(9.38334e-07 1.42994e-35 -1.83589e-09)
(9.35355e-07 0 -1.83023e-09)
(9.32377e-07 -4.14624e-30 -1.8246e-09)
(9.29403e-07 0 -1.81899e-09)
(9.2643e-07 4.19228e-30 -1.8134e-09)
(9.23457e-07 0 -1.80782e-09)
(9.20485e-07 4.24751e-30 -1.80227e-09)
(9.17511e-07 4.27971e-30 -1.79671e-09)
(9.14535e-07 -4.31541e-30 -1.79117e-09)
(9.11555e-07 0 -1.78563e-09)
(9.0857e-07 0 -1.7801e-09)
(9.0558e-07 -1.37992e-35 -1.77456e-09)
(9.02584e-07 0 -1.76902e-09)
(8.99583e-07 0 -1.76349e-09)
(8.96576e-07 0 -1.75795e-09)
(8.93565e-07 -4.57703e-30 -1.75242e-09)
(8.90551e-07 -1.48788e-35 -1.7469e-09)
(8.87535e-07 0 -1.74139e-09)
(8.84518e-07 0 -1.73589e-09)
(8.81501e-07 4.67692e-30 -1.7304e-09)
(8.78488e-07 0 -1.72493e-09)
(8.75479e-07 4.69537e-30 -1.71947e-09)
(8.72478e-07 0 -1.71404e-09)
(8.69489e-07 0 -1.70864e-09)
(8.66513e-07 0 -1.70329e-09)
(8.63556e-07 4.64953e-30 -1.69798e-09)
(8.6062e-07 1.69531e-35 -1.69274e-09)
(8.57709e-07 0 -1.68758e-09)
(8.54825e-07 -4.52516e-30 -1.6825e-09)
(8.5197e-07 0 -1.67751e-09)
(8.49147e-07 0 -1.67262e-09)
(8.46357e-07 4.34261e-30 -1.66783e-09)
(8.43602e-07 1.64418e-35 -1.66312e-09)
(8.40884e-07 4.19746e-30 -1.6585e-09)
(8.38206e-07 0 -1.65395e-09)
(8.3557e-07 0 -1.64949e-09)
(8.32977e-07 3.95868e-30 -1.64509e-09)
(8.30429e-07 0 -1.64077e-09)
(8.27928e-07 0 -1.63652e-09)
(8.25473e-07 3.71536e-30 -1.63234e-09)
(8.23063e-07 -3.64262e-30 -1.62823e-09)
(8.20697e-07 0 -1.62418e-09)
(8.18372e-07 0 -1.6202e-09)
(8.16086e-07 3.46543e-30 -1.61627e-09)
(8.13836e-07 0 -1.6124e-09)
(8.11621e-07 3.37063e-30 -1.60859e-09)
(8.09439e-07 0 -1.60483e-09)
(8.07289e-07 0 -1.60112e-09)
(8.05173e-07 0 -1.59747e-09)
(8.03089e-07 3.22753e-30 -1.59388e-09)
(8.01038e-07 -3.20277e-30 -1.59033e-09)
(7.9902e-07 1.07054e-35 -1.58684e-09)
(7.97033e-07 0 -1.58339e-09)
(7.95073e-07 0 -1.57999e-09)
(7.93138e-07 3.14259e-30 -1.57661e-09)
(7.91224e-07 -3.13144e-30 -1.57326e-09)
(7.89328e-07 3.11848e-30 -1.56992e-09)
(7.87446e-07 1.06976e-35 -1.56658e-09)
(7.85577e-07 0 -1.56325e-09)
(7.83719e-07 -1.10362e-35 -1.55992e-09)
(7.81874e-07 3.02731e-30 -1.55658e-09)
(7.80041e-07 -2.99129e-30 -1.55324e-09)
(7.78222e-07 -2.94923e-30 -1.54991e-09)
(7.76418e-07 2.90742e-30 -1.54658e-09)
(7.74628e-07 0 -1.54326e-09)
(7.72851e-07 0 -1.53993e-09)
(7.71087e-07 2.78163e-30 -1.53661e-09)
(7.69336e-07 -2.74702e-30 -1.53329e-09)
(7.67599e-07 0 -1.52996e-09)
(7.65878e-07 0 -1.52665e-09)
(7.64175e-07 0 -1.52334e-09)
(7.6249e-07 0 -1.52004e-09)
(7.60825e-07 -2.63859e-30 -1.51676e-09)
(7.59178e-07 0 -1.51348e-09)
(7.57551e-07 0 -1.51022e-09)
(7.55941e-07 0 -1.50696e-09)
(7.54349e-07 0 -1.50372e-09)
(7.52772e-07 8.93464e-36 -1.50047e-09)
(7.51208e-07 0 -1.49722e-09)
(7.49655e-07 0 -1.49397e-09)
(7.4811e-07 0 -1.4907e-09)
(7.46568e-07 0 -1.48742e-09)
(7.45028e-07 -2.50347e-30 -1.48412e-09)
(7.43484e-07 -2.48684e-30 -1.48079e-09)
(7.41936e-07 -2.45987e-30 -1.47744e-09)
(7.40379e-07 2.44534e-30 -1.47405e-09)
(7.38815e-07 0 -1.47064e-09)
(7.37239e-07 0 -1.4672e-09)
(7.35655e-07 0 -1.46372e-09)
(7.34059e-07 0 -1.46022e-09)
(7.3246e-07 0 -1.45671e-09)
(7.30852e-07 2.33266e-30 -1.45318e-09)
(7.29245e-07 8.25358e-36 -1.44964e-09)
(7.27631e-07 2.31928e-30 -1.44609e-09)
(7.26017e-07 0 -1.44253e-09)
(7.24391e-07 0 -1.43896e-09)
(7.2276e-07 0 -1.43537e-09)
(7.21106e-07 -6.83368e-36 -1.43175e-09)
(7.19435e-07 2.41212e-30 -1.4281e-09)
(7.1773e-07 -6.92794e-36 -1.42438e-09)
(7.16001e-07 0 -1.42062e-09)
(7.1423e-07 0 -1.41679e-09)
(7.12434e-07 0 -1.41292e-09)
(7.10595e-07 0 -1.40896e-09)
(7.08735e-07 2.71165e-30 -1.40497e-09)
(7.06832e-07 0 -1.40089e-09)
(7.04911e-07 8.38464e-36 -1.39675e-09)
(7.02946e-07 0 -1.39254e-09)
(7.00966e-07 0 -1.38825e-09)
(6.98945e-07 0 -1.38387e-09)
(6.96914e-07 2.98658e-30 -1.3794e-09)
(6.94847e-07 0 -1.37479e-09)
(6.92776e-07 0 -1.37004e-09)
(6.90664e-07 -3.26854e-30 -1.36505e-09)
(6.88541e-07 -8.40978e-36 -1.35976e-09)
(6.8636e-07 0 -1.35399e-09)
(6.84144e-07 -3.68907e-30 -1.34774e-09)
(6.81836e-07 3.9962e-30 -1.34027e-09)
(6.79463e-07 0 -1.33202e-09)
(6.7693e-07 4.78878e-30 -1.32122e-09)
(6.7429e-07 5.58999e-30 -1.30785e-09)
(6.71338e-07 0 -1.28989e-09)
(6.68183e-07 8.18132e-30 -1.26666e-09)
(6.64398e-07 0 -1.23428e-09)
(6.60179e-07 0 -1.19169e-09)
(6.54711e-07 -4.28738e-35 -1.131e-09)
(6.48335e-07 -2.24278e-29 -1.0512e-09)
(6.39506e-07 -3.1305e-29 -9.38063e-10)
(6.28912e-07 0 -7.8511e-10)
(6.13728e-07 7.92681e-35 -7.04771e-10)
(5.94665e-07 0 -2.50489e-10)
(5.79752e-07 -9.09801e-28 -4.42791e-09)
(5.31883e-07 0 -4.68108e-09)
(4.50773e-07 0 -9.01545e-10)
(3.70312e-07 -3.52007e-34 -7.40624e-10)
(2.62004e-07 3.02463e-34 -5.24008e-10)
(1.36522e-07 0 -2.73043e-10)
(6.49233e-09 0 -1.29847e-11)
(0 0 0)
(0 0 0)
(0 0 0)
(0 0 0)
(0 0 0)
)
;
    }
    endWall
    {
        type            calculated;
        value           uniform (0 0 0);
    }
    topWall
    {
        type            calculated;
        value           uniform (0 0 0);
    }
}


// ************************************************************************* //
