/*--------------------------------*- C++ -*----------------------------------*\
| =========                 |                                                 |
| \\      /  F ield         | foam-extend: Open Source CFD                    |
|  \\    /   O peration     | Version:     3.2                                |
|   \\  /    A nd           | Web:         http://www.foam-extend.org         |
|    \\/     M anipulation  | For copyright notice see file Copyright         |
\*---------------------------------------------------------------------------*/
FoamFile
{
    version     2.0;
    format      ascii;
    class       areaScalarField;
    location    "120";
    object      thetaSS2;
}
// * * * * * * * * * * * * * * * * * * * * * * * * * * * * * * * * * * * * * //

dimensions      [0 0 0 0 0 0 0];

internalField   nonuniform List<scalar> 
550
(
0.51478
0.710337
0.947648
1.22434
1.53353
1.86448
2.20458
2.53978
2.85786
3.14761
3.40189
3.61586
3.78848
3.92035
4.01429
4.07384
4.10363
4.10829
4.0926
4.06212
4.02006
3.96911
3.91165
3.84971
3.78511
3.71939
3.65378
3.5895
3.5274
3.46753
3.40998
3.35495
3.30257
3.25291
3.20595
3.16168
3.12002
3.08089
3.04421
3.00986
2.97773
2.94771
2.91968
2.89349
2.86904
2.8462
2.82488
2.80498
2.78641
2.76906
2.75287
2.73774
2.72359
2.71034
2.69792
2.68624
2.67524
2.66487
2.65506
2.64576
2.63694
2.62854
2.62055
2.61292
2.60562
2.59863
2.59192
2.58546
2.57924
2.57322
2.5674
2.56174
2.55625
2.55089
2.54565
2.54053
2.5355
2.53056
2.5257
2.52093
2.51623
2.51161
2.50707
2.50259
2.49818
2.49384
2.48956
2.48533
2.48117
2.47706
2.473
2.46898
2.465
2.46104
2.4571
2.45319
2.44931
2.44546
2.44164
2.43785
2.43409
2.43035
2.42661
2.42288
2.41915
2.41539
2.41161
2.4078
2.40396
2.40007
2.39615
2.39218
2.38817
2.38411
2.38001
2.37587
2.37168
2.36744
2.36316
2.35884
2.35448
2.35008
2.34565
2.34118
2.33668
2.33216
2.3276
2.32303
2.31844
2.31384
2.30923
2.30461
2.29999
2.29536
2.29073
2.28609
2.28146
2.27684
2.27222
2.26761
2.263
2.25841
2.25383
2.24927
2.24472
2.24019
2.23568
2.23119
2.22672
2.22227
2.21785
2.21346
2.20909
2.20476
2.20046
2.19619
2.19197
2.18778
2.18363
2.17953
2.17548
2.17147
2.16751
2.1636
2.15973
2.15592
2.15216
2.14846
2.14481
2.14122
2.13769
2.13421
2.1308
2.12744
2.12414
2.12091
2.11773
2.11462
2.11156
2.10857
2.10563
2.10276
2.09994
2.09718
2.09448
2.09183
2.08925
2.08672
2.08424
2.08183
2.07947
2.07716
2.07491
2.07272
2.07059
2.06851
2.06649
2.06452
2.06261
2.06076
2.05896
2.05722
2.05554
2.05391
2.05233
2.05081
2.04934
2.04792
2.04654
2.04522
2.04393
2.04269
2.04149
2.04032
2.03918
2.03808
2.037
2.03595
2.03492
2.03391
2.03292
2.03195
2.03098
2.03003
2.02908
2.02815
2.0272
2.02625
2.02528
2.02429
2.02328
2.02225
2.02121
2.02016
2.01909
2.01801
2.01693
2.01584
2.01474
2.01363
2.01253
2.01144
2.01035
2.00928
2.00821
2.00715
2.00608
2.00502
2.00396
2.0029
2.00183
2.00076
1.99968
1.99859
1.99749
1.99637
1.99525
1.9941
1.99295
1.99177
1.99059
1.98939
1.98817
1.98694
1.9857
1.98445
1.98318
1.9819
1.98061
1.97932
1.97801
1.9767
1.97538
1.97406
1.97273
1.9714
1.97008
1.96875
1.96742
1.96609
1.96477
1.96344
1.96212
1.96081
1.95951
1.95821
1.95692
1.95565
1.9544
1.95315
1.95193
1.95072
1.94953
1.94836
1.94721
1.94608
1.94497
1.94389
1.94282
1.94178
1.94076
1.93976
1.93877
1.93781
1.93685
1.93591
1.93498
1.93407
1.93316
1.93227
1.93139
1.93053
1.92967
1.92884
1.92801
1.9272
1.9264
1.92562
1.92485
1.92409
1.92335
1.92261
1.92189
1.92119
1.9205
1.91982
1.91916
1.9185
1.91787
1.91724
1.91662
1.91602
1.91542
1.91483
1.91425
1.91368
1.91312
1.91257
1.91202
1.91147
1.91093
1.91039
1.90985
1.90931
1.90876
1.9082
1.90764
1.90706
1.90647
1.90587
1.90524
1.90459
1.90392
1.90323
1.90251
1.90177
1.901
1.90021
1.89939
1.89855
1.89769
1.89681
1.8959
1.89498
1.89403
1.89306
1.89207
1.89105
1.89002
1.88896
1.88788
1.88678
1.88566
1.88452
1.88335
1.88215
1.88093
1.87969
1.87841
1.87711
1.87579
1.87444
1.87306
1.87166
1.87024
1.8688
1.86734
1.86585
1.86435
1.86282
1.86129
1.85973
1.85816
1.85658
1.85499
1.85339
1.85178
1.85016
1.84853
1.8469
1.84526
1.84361
1.84195
1.8403
1.83863
1.83697
1.83531
1.83364
1.83197
1.8303
1.82864
1.82697
1.8253
1.82362
1.82195
1.82027
1.81858
1.81689
1.8152
1.8135
1.8118
1.81009
1.80837
1.80665
1.80493
1.80321
1.80148
1.79975
1.79803
1.7963
1.79458
1.79287
1.79116
1.78947
1.78778
1.78611
1.78446
1.78282
1.7812
1.77959
1.77801
1.77644
1.7749
1.77339
1.77189
1.77043
1.76898
1.76757
1.76618
1.76481
1.76346
1.76213
1.76082
1.75953
1.75826
1.757
1.75577
1.75455
1.75335
1.75217
1.751
1.74984
1.7487
1.74757
1.74645
1.74533
1.74422
1.74311
1.74201
1.74092
1.73983
1.73876
1.73769
1.73663
1.73557
1.73452
1.73348
1.73245
1.73144
1.73043
1.72943
1.72844
1.72747
1.7265
1.72554
1.72459
1.72365
1.72271
1.72177
1.72083
1.71989
1.71894
1.71799
1.71704
1.71607
1.7151
1.71412
1.71314
1.71215
1.71117
1.71017
1.70918
1.70818
1.70717
1.70615
1.70512
1.70407
1.703
1.7019
1.70079
1.69965
1.69849
1.69731
1.69611
1.69489
1.69365
1.69239
1.69112
1.68983
1.68853
1.68721
1.68588
1.68451
1.68312
1.68167
1.68018
1.67859
1.67694
1.6751
1.67314
1.67079
1.66818
1.66481
1.66089
1.65544
1.64893
1.63917
1.62775
1.60628
1.57186
1.52491
1.46377
1.37353
1.25176
1.08579
0.867752
0.538337
0.257328
0.336441
0.571166
)
;

boundaryField
{
    inlet
    {
        type            calculated;
        value           uniform 0;
    }
    endWall
    {
        type            calculated;
        value           uniform 0;
    }
    sideWall
    {
        type            empty;
    }
}


// ************************************************************************* //
