/*--------------------------------*- C++ -*----------------------------------*\
| =========                 |                                                 |
| \\      /  F ield         | foam-extend: Open Source CFD                    |
|  \\    /   O peration     | Version:     3.2                                |
|   \\  /    A nd           | Web:         http://www.foam-extend.org         |
|    \\/     M anipulation  | For copyright notice see file Copyright         |
\*---------------------------------------------------------------------------*/
FoamFile
{
    version     2.0;
    format      ascii;
    class       areaScalarField;
    location    "120";
    object      totH1;
}
// * * * * * * * * * * * * * * * * * * * * * * * * * * * * * * * * * * * * * //

dimensions      [0 0 0 0 0 0 0];

internalField   nonuniform List<scalar> 
550
(
0
0
0
0
0
0
0
0
0
0
0
0
0
0
0
0
0
0
0
0
0
0
0
0
0
0
0
0
0
0
0
0
0
0
0
0
0
0
0
0
0
0
0
0
0
0
0
0
0
0
0
0
0
0
0
0
0
0
0
0
0
0
0
0
0
0
0
0
0
0
0
0
0
0
0
0
0
0
0
0
0
0
0
0
0
0
0
0
0
0
0
0
0
0
0
0
0
0
0
0
0
0
0
0
0
0
0
0
0
0
0
0
0
0
0
0
0
0
0
0
0
0
0
0
0
0
0
0
0
0
0
0
0
0
0
0
0
0
0
0
0
0
0
0
0
0
0
0
0
0
0
0
0
0
0
0
0
0
0
0
0
0
0
0
0
0
0
0
0
0
0
0
0
0
0
0
0
0
0
0
0
0
0
0
0
0
0
0
0
0
0
0
0
0
0
0
0
0
0
0
0
0
0
0
0
0
0
0
0
0
0
0
0
0
0
0
0
0
0
0
0
0
0
0
0
0
0
0
0
0
0
0
0
0
-3.59507e-10
-2.73612e-09
-4.26092e-11
1.11397e-08
6.60131e-08
2.32069e-07
5.29703e-07
9.62374e-07
1.53268e-06
2.2474e-06
3.06246e-06
3.86796e-06
4.64798e-06
5.44439e-06
6.25534e-06
7.06994e-06
7.88425e-06
8.69925e-06
9.51785e-06
1.03407e-05
1.11678e-05
1.1999e-05
1.28339e-05
1.36722e-05
1.45134e-05
1.53571e-05
1.62029e-05
1.70502e-05
1.78984e-05
1.87471e-05
1.95956e-05
2.04434e-05
2.12898e-05
2.21344e-05
2.29765e-05
2.38158e-05
2.46516e-05
2.54834e-05
2.63109e-05
2.71333e-05
2.79503e-05
2.87613e-05
2.95658e-05
3.03633e-05
3.11532e-05
3.1935e-05
3.27083e-05
3.34725e-05
3.42273e-05
3.49721e-05
3.57067e-05
3.64306e-05
3.71435e-05
3.78449e-05
3.85345e-05
3.92118e-05
3.98761e-05
4.05268e-05
4.11631e-05
4.17839e-05
4.23881e-05
4.29746e-05
4.35423e-05
4.40904e-05
4.46182e-05
4.51256e-05
4.56125e-05
4.6079e-05
4.65253e-05
4.69515e-05
4.73581e-05
4.77452e-05
4.81132e-05
4.84624e-05
4.87932e-05
4.91059e-05
4.94008e-05
4.96784e-05
4.99391e-05
5.01834e-05
5.04114e-05
5.06238e-05
5.08208e-05
5.1003e-05
5.11708e-05
5.13249e-05
5.14658e-05
5.15943e-05
5.17111e-05
5.18171e-05
5.1913e-05
5.19998e-05
5.20785e-05
5.21501e-05
5.22155e-05
5.22759e-05
5.23324e-05
5.23861e-05
5.24383e-05
5.249e-05
5.25426e-05
5.25971e-05
5.2655e-05
5.27173e-05
5.27852e-05
5.28601e-05
5.2943e-05
5.3035e-05
5.31371e-05
5.32506e-05
5.33762e-05
5.35151e-05
5.36679e-05
5.38356e-05
5.40188e-05
5.42183e-05
5.44345e-05
5.46679e-05
5.4919e-05
5.51881e-05
5.54755e-05
5.57815e-05
5.61061e-05
5.64495e-05
5.68117e-05
5.71928e-05
5.75926e-05
5.8011e-05
5.84478e-05
5.89027e-05
5.93756e-05
5.98661e-05
6.0374e-05
6.0899e-05
6.14409e-05
6.19991e-05
6.25733e-05
6.31631e-05
6.3768e-05
6.43874e-05
6.50208e-05
6.56678e-05
6.63276e-05
6.69996e-05
6.76832e-05
6.83778e-05
6.90826e-05
6.97969e-05
7.05202e-05
7.1252e-05
7.19916e-05
7.27386e-05
7.34925e-05
7.42528e-05
7.5019e-05
7.57905e-05
7.65669e-05
7.73476e-05
7.81322e-05
7.89202e-05
7.97112e-05
8.05048e-05
8.13005e-05
8.2098e-05
8.28968e-05
8.36965e-05
8.44967e-05
8.52969e-05
8.60967e-05
8.68958e-05
8.76936e-05
8.84898e-05
8.92839e-05
9.00754e-05
9.08638e-05
9.16487e-05
9.24297e-05
9.32064e-05
9.39784e-05
9.47454e-05
9.55072e-05
9.62634e-05
9.70138e-05
9.77581e-05
9.84962e-05
9.92276e-05
9.99522e-05
0.00010067
0.00010138
0.000102082
0.000102776
0.000103462
0.000104138
0.000104806
0.000105465
0.000106114
0.000106753
0.000107382
0.000108001
0.000108608
0.000109205
0.000109788
0.000110359
0.000110916
0.000111458
0.000111985
0.000112496
0.000112991
0.00011347
0.000113933
0.000114381
0.000114813
0.00011523
0.000115633
0.000116021
0.000116395
0.000116756
0.000117104
0.000117438
0.00011776
0.00011807
0.000118367
0.000118651
0.000118924
0.000119184
0.000119434
0.000119671
0.000119898
0.000120115
0.000120321
0.000120517
0.000120705
0.000120883
0.000121054
0.000121217
0.000121373
0.000121523
0.000121666
0.000121804
0.000121938
0.000122067
0.000122193
0.000122315
0.000122435
0.000122554
0.000122671
0.000122788
0.000122905
0.000123023
0.000123142
0.000123263
0.000123387
0.000123515
0.000123647
0.000123783
0.000123925
0.000124073
0.000124227
0.000124389
0.000124557
0.000124733
0.000124916
0.000125108
0.000125307
0.000125515
0.000125732
0.000125956
0.00012619
0.000126432
0.000126683
0.000126942
0.00012721
0.000127487
0.000127772
0.000128065
0.000128366
0.000128675
0.000128991
0.000129316
0.000129649
0.00012999
0.00013034
0.0001307
0.00013107
0.000131453
0.000131852
0.00013227
0.000132713
0.000133189
0.00013371
0.000134295
0.000134967
0.000135765
0.000136753
0.000138017
0.00013968
0.000141921
0.000144986
0.000149235
0.000155154
0.000163442
0.000175121
0.000189696
0.000211789
0.000174893
6.18228e-05
0
0
0
0
0
0
0
0
0
0
)
;

boundaryField
{
    inlet
    {
        type            calculated;
        value           uniform 0;
    }
    endWall
    {
        type            calculated;
        value           uniform 0;
    }
    sideWall
    {
        type            empty;
    }
}


// ************************************************************************* //
