/*--------------------------------*- C++ -*----------------------------------*\
| =========                 |                                                 |
| \\      /  F ield         | foam-extend: Open Source CFD                    |
|  \\    /   O peration     | Version:     3.2                                |
|   \\  /    A nd           | Web:         http://www.foam-extend.org         |
|    \\/     M anipulation  | For copyright notice see file Copyright         |
\*---------------------------------------------------------------------------*/
FoamFile
{
    version     2.0;
    format      ascii;
    class       areaScalarField;
    location    "120";
    object      Uf;
}
// * * * * * * * * * * * * * * * * * * * * * * * * * * * * * * * * * * * * * //

dimensions      [0 1 -1 0 0 0 0];

internalField   nonuniform List<scalar> 
550
(
0.00700392
0.0082274
0.00950285
0.0108014
0.0120886
0.0133293
0.0144942
0.0155571
0.0165025
0.0173189
0.0180049
0.0185625
0.0190004
0.0193283
0.0195585
0.019703
0.0197749
0.0197861
0.0197483
0.0196747
0.0195725
0.0194481
0.0193068
0.0191534
0.018992
0.0188264
0.0186596
0.0184947
0.018334
0.0181778
0.0180263
0.0178802
0.0177401
0.0176062
0.0174787
0.0173576
0.0172428
0.0171344
0.0170321
0.0169357
0.0168451
0.01676
0.0166801
0.0166051
0.0165348
0.0164688
0.016407
0.0163492
0.0162949
0.0162441
0.0161966
0.016152
0.0161102
0.016071
0.0160341
0.0159994
0.0159666
0.0159356
0.0159062
0.0158784
0.0158519
0.0158266
0.0158025
0.0157795
0.0157575
0.0157363
0.015716
0.0156964
0.0156775
0.0156592
0.0156414
0.0156242
0.0156074
0.0155911
0.0155751
0.0155594
0.015544
0.0155288
0.0155139
0.0154992
0.0154848
0.0154706
0.0154566
0.0154428
0.0154292
0.0154157
0.0154025
0.0153894
0.0153765
0.0153638
0.0153512
0.0153387
0.0153263
0.015314
0.0153018
0.0152896
0.0152775
0.0152655
0.0152536
0.0152417
0.0152299
0.0152182
0.0152066
0.0151949
0.0151831
0.0151713
0.0151595
0.0151475
0.0151354
0.0151232
0.0151108
0.0150983
0.0150856
0.0150728
0.0150598
0.0150467
0.0150334
0.01502
0.0150064
0.0149927
0.0149788
0.0149649
0.0149507
0.0149365
0.0149221
0.0149077
0.0148931
0.0148785
0.0148638
0.014849
0.0148342
0.0148194
0.0148045
0.0147896
0.0147746
0.0147597
0.0147448
0.0147298
0.0147148
0.0146999
0.014685
0.0146701
0.0146552
0.0146403
0.0146255
0.0146108
0.014596
0.0145814
0.0145668
0.0145522
0.0145377
0.0145233
0.014509
0.0144947
0.0144806
0.0144666
0.0144526
0.0144388
0.0144251
0.0144116
0.0143982
0.0143849
0.0143718
0.0143588
0.014346
0.0143333
0.0143208
0.0143085
0.0142963
0.0142844
0.0142726
0.014261
0.0142495
0.0142383
0.0142273
0.0142164
0.0142058
0.0141953
0.0141851
0.014175
0.0141652
0.0141555
0.014146
0.0141367
0.0141276
0.0141187
0.0141099
0.0141014
0.014093
0.0140849
0.0140769
0.0140691
0.0140615
0.014054
0.0140468
0.0140398
0.0140329
0.0140262
0.0140197
0.0140134
0.0140073
0.0140014
0.0139957
0.0139901
0.0139847
0.0139795
0.0139745
0.0139697
0.013965
0.0139605
0.0139561
0.0139519
0.0139477
0.0139437
0.0139399
0.0139361
0.0139324
0.0139288
0.0139253
0.0139218
0.0139185
0.0139151
0.0139118
0.0139085
0.0139053
0.0139021
0.0138989
0.0138956
0.0138923
0.0138889
0.0138854
0.0138819
0.0138783
0.0138747
0.013871
0.0138673
0.0138636
0.0138598
0.013856
0.0138522
0.0138485
0.0138447
0.0138409
0.0138372
0.0138336
0.0138299
0.0138262
0.0138226
0.0138189
0.0138152
0.0138116
0.0138079
0.0138041
0.0138004
0.0137966
0.0137927
0.0137888
0.0137849
0.0137809
0.0137769
0.0137728
0.0137686
0.0137644
0.0137601
0.0137558
0.0137515
0.0137471
0.0137427
0.0137382
0.0137337
0.0137292
0.0137246
0.0137201
0.0137155
0.0137109
0.0137063
0.0137017
0.013697
0.0136924
0.0136878
0.0136832
0.0136786
0.013674
0.0136694
0.0136649
0.0136603
0.0136559
0.0136514
0.013647
0.0136427
0.0136384
0.0136342
0.01363
0.0136259
0.0136219
0.013618
0.0136141
0.0136103
0.0136066
0.0136029
0.0135993
0.0135958
0.0135924
0.013589
0.0135856
0.0135823
0.0135791
0.0135759
0.0135727
0.0135696
0.0135665
0.0135634
0.0135604
0.0135575
0.0135546
0.0135517
0.0135489
0.0135462
0.0135435
0.0135408
0.0135382
0.0135356
0.0135331
0.0135306
0.0135282
0.0135258
0.0135234
0.0135211
0.0135189
0.0135167
0.0135145
0.0135124
0.0135103
0.0135082
0.0135061
0.0135041
0.0135022
0.0135002
0.0134983
0.0134963
0.0134944
0.0134925
0.0134906
0.0134887
0.0134867
0.0134848
0.0134828
0.0134807
0.0134786
0.0134765
0.0134743
0.013472
0.0134696
0.0134672
0.0134646
0.013462
0.0134593
0.0134565
0.0134536
0.0134506
0.0134475
0.0134444
0.0134412
0.0134379
0.0134346
0.0134311
0.0134276
0.013424
0.0134203
0.0134166
0.0134127
0.0134088
0.0134048
0.0134008
0.0133966
0.0133923
0.013388
0.0133836
0.013379
0.0133744
0.0133697
0.0133649
0.01336
0.013355
0.0133499
0.0133447
0.0133395
0.0133342
0.0133288
0.0133234
0.0133179
0.0133123
0.0133067
0.0133011
0.0132953
0.0132896
0.0132838
0.013278
0.0132722
0.0132663
0.0132604
0.0132545
0.0132486
0.0132426
0.0132366
0.0132306
0.0132246
0.0132186
0.0132126
0.0132066
0.0132006
0.0131946
0.0131885
0.0131825
0.0131764
0.0131704
0.0131643
0.0131581
0.013152
0.0131459
0.0131397
0.0131335
0.0131273
0.013121
0.0131148
0.0131085
0.0131022
0.0130959
0.0130897
0.0130834
0.0130771
0.0130709
0.0130646
0.0130584
0.0130523
0.0130462
0.0130402
0.0130342
0.0130282
0.0130224
0.0130166
0.0130108
0.0130052
0.0129996
0.0129942
0.0129888
0.0129835
0.0129783
0.0129732
0.0129681
0.0129632
0.0129583
0.0129535
0.0129487
0.0129441
0.0129394
0.0129349
0.0129304
0.012926
0.0129216
0.0129173
0.0129131
0.0129088
0.0129047
0.0129005
0.0128964
0.0128923
0.0128882
0.0128841
0.0128801
0.0128761
0.0128721
0.0128681
0.0128642
0.0128603
0.0128564
0.0128526
0.0128487
0.012845
0.0128412
0.0128375
0.0128339
0.0128302
0.0128266
0.0128231
0.0128196
0.012816
0.0128125
0.0128091
0.0128056
0.0128021
0.0127985
0.012795
0.0127914
0.0127878
0.0127842
0.0127806
0.0127769
0.0127733
0.0127696
0.0127659
0.0127622
0.0127584
0.0127547
0.0127509
0.012747
0.0127431
0.0127391
0.012735
0.0127308
0.0127265
0.0127222
0.0127178
0.0127133
0.0127087
0.0127041
0.0126993
0.0126946
0.0126897
0.0126848
0.0126799
0.0126749
0.0126697
0.0126645
0.012659
0.0126534
0.0126475
0.0126412
0.0126343
0.0126269
0.012618
0.0126082
0.0125954
0.0125806
0.0125599
0.0125352
0.012498
0.0124544
0.012372
0.0122387
0.0120546
0.0118105
0.0114406
0.0109217
0.0101719
0.00909345
0.00716239
0.00495193
0.00566218
0.00737753
)
;

boundaryField
{
    inlet
    {
        type            calculated;
        value           uniform 0;
    }
    endWall
    {
        type            calculated;
        value           uniform 0;
    }
    sideWall
    {
        type            empty;
    }
}


// ************************************************************************* //
