/*--------------------------------*- C++ -*----------------------------------*\
| =========                 |                                                 |
| \\      /  F ield         | foam-extend: Open Source CFD                    |
|  \\    /   O peration     | Version:     3.2                                |
|   \\  /    A nd           | Web:         http://www.foam-extend.org         |
|    \\/     M anipulation  | For copyright notice see file Copyright         |
\*---------------------------------------------------------------------------*/
FoamFile
{
    version     2.0;
    format      ascii;
    class       areaScalarField;
    location    "120";
    object      Uf2;
}
// * * * * * * * * * * * * * * * * * * * * * * * * * * * * * * * * * * * * * //

dimensions      [0 1 -1 0 0 0 0];

internalField   nonuniform List<scalar> 
550
(
0.0376452
0.0371415
0.0364566
0.0357275
0.0350043
0.0342786
0.03361
0.0329515
0.032346
0.0317461
0.0311854
0.0306389
0.0301263
0.0296294
0.0291562
0.0286976
0.028262
0.0278455
0.0274483
0.0270653
0.0266984
0.0263459
0.0260087
0.0256866
0.0253807
0.0250911
0.0248182
0.024561
0.0243176
0.0240869
0.0238681
0.0236609
0.023465
0.0232798
0.0231045
0.0229389
0.0227825
0.0226349
0.0224957
0.0223646
0.0222412
0.022125
0.0220155
0.0219124
0.0218151
0.0217235
0.0216371
0.0215558
0.0214792
0.021407
0.021339
0.0212749
0.0212144
0.0211574
0.0211034
0.0210522
0.0210036
0.0209576
0.0209138
0.0208721
0.0208322
0.0207943
0.0207581
0.0207235
0.0206905
0.020659
0.0206288
0.0205999
0.0205722
0.0205455
0.0205199
0.0204952
0.0204712
0.020448
0.0204254
0.0204034
0.0203819
0.0203609
0.0203404
0.0203204
0.0203011
0.0202823
0.0202638
0.0202458
0.0202282
0.0202109
0.020194
0.0201775
0.0201614
0.0201456
0.0201301
0.0201149
0.0200997
0.0200848
0.02007
0.0200556
0.0200416
0.0200278
0.0200144
0.0200014
0.0199888
0.0199763
0.0199639
0.0199516
0.0199393
0.019927
0.0199146
0.0199022
0.0198897
0.0198771
0.0198643
0.0198514
0.0198383
0.0198251
0.0198117
0.0197982
0.0197843
0.0197702
0.019756
0.0197415
0.0197269
0.0197121
0.019697
0.0196818
0.0196664
0.0196508
0.019635
0.019619
0.0196029
0.0195867
0.0195704
0.0195539
0.0195374
0.0195207
0.0195039
0.019487
0.0194699
0.0194528
0.0194355
0.0194182
0.0194007
0.0193831
0.0193655
0.0193477
0.0193299
0.0193119
0.0192939
0.0192759
0.0192578
0.0192397
0.0192215
0.0192034
0.0191853
0.0191673
0.0191493
0.0191315
0.0191137
0.0190962
0.0190788
0.0190615
0.0190445
0.0190276
0.0190109
0.0189944
0.0189782
0.0189621
0.0189463
0.0189307
0.0189153
0.0189002
0.0188852
0.0188705
0.018856
0.0188418
0.0188277
0.0188139
0.0188003
0.0187868
0.0187736
0.0187607
0.0187479
0.0187353
0.018723
0.0187108
0.0186989
0.0186872
0.0186757
0.0186644
0.0186532
0.0186423
0.0186316
0.0186211
0.0186108
0.0186006
0.0185906
0.0185808
0.0185711
0.0185617
0.0185523
0.0185432
0.0185342
0.0185254
0.0185168
0.0185084
0.0185002
0.0184921
0.0184843
0.0184767
0.0184692
0.018462
0.018455
0.0184481
0.0184414
0.018435
0.0184286
0.0184224
0.0184164
0.0184105
0.0184047
0.018399
0.0183933
0.0183878
0.0183822
0.0183767
0.0183713
0.0183658
0.0183602
0.0183545
0.0183487
0.0183428
0.0183368
0.0183308
0.0183247
0.0183186
0.0183124
0.0183063
0.0183001
0.018294
0.0182879
0.018282
0.0182762
0.0182706
0.0182651
0.0182598
0.0182547
0.0182495
0.0182443
0.0182393
0.0182342
0.0182292
0.0182243
0.0182194
0.0182145
0.0182096
0.0182047
0.0181999
0.018195
0.0181902
0.0181853
0.0181803
0.0181754
0.0181705
0.0181655
0.0181605
0.0181555
0.0181505
0.0181455
0.0181404
0.0181353
0.0181302
0.0181251
0.01812
0.0181148
0.0181096
0.0181043
0.018099
0.0180937
0.0180883
0.0180829
0.0180774
0.0180719
0.0180664
0.0180608
0.0180552
0.0180495
0.0180439
0.0180383
0.0180327
0.0180271
0.0180215
0.018016
0.0180105
0.018005
0.0179997
0.0179944
0.0179891
0.017984
0.017979
0.017974
0.0179692
0.0179645
0.0179598
0.0179553
0.0179508
0.0179464
0.017942
0.0179377
0.0179334
0.0179292
0.017925
0.0179208
0.0179166
0.0179125
0.0179084
0.0179044
0.0179005
0.0178966
0.0178928
0.017889
0.0178853
0.0178817
0.0178782
0.0178747
0.0178712
0.0178679
0.0178646
0.0178613
0.0178582
0.017855
0.017852
0.0178489
0.0178459
0.0178429
0.0178399
0.0178369
0.0178339
0.0178309
0.0178279
0.0178248
0.0178218
0.0178187
0.0178155
0.0178123
0.0178091
0.0178058
0.0178024
0.017799
0.0177955
0.0177919
0.0177882
0.0177845
0.0177807
0.0177768
0.0177729
0.0177688
0.0177647
0.0177604
0.0177561
0.0177518
0.0177474
0.0177429
0.0177384
0.0177339
0.0177293
0.0177247
0.01772
0.0177153
0.0177105
0.0177056
0.0177007
0.0176957
0.0176906
0.0176854
0.0176802
0.0176748
0.0176693
0.0176638
0.0176581
0.0176523
0.0176465
0.0176405
0.0176344
0.0176282
0.0176219
0.0176155
0.0176091
0.0176026
0.0175961
0.0175895
0.0175829
0.0175763
0.0175696
0.017563
0.0175563
0.0175496
0.017543
0.0175363
0.0175297
0.0175231
0.0175165
0.0175099
0.0175032
0.0174966
0.01749
0.0174834
0.0174768
0.0174701
0.0174634
0.0174567
0.0174499
0.0174431
0.0174363
0.0174293
0.0174223
0.0174153
0.0174081
0.0174009
0.0173936
0.0173862
0.0173787
0.0173711
0.0173634
0.0173556
0.0173477
0.0173398
0.0173318
0.0173237
0.0173156
0.0173074
0.0172992
0.017291
0.0172827
0.0172745
0.0172663
0.0172582
0.0172501
0.0172421
0.0172342
0.0172264
0.0172187
0.0172112
0.0172037
0.0171964
0.0171892
0.0171822
0.0171754
0.0171686
0.0171621
0.0171557
0.0171494
0.0171432
0.0171371
0.0171311
0.0171252
0.0171193
0.0171135
0.0171077
0.0171019
0.0170962
0.0170906
0.0170849
0.0170793
0.0170737
0.0170682
0.0170626
0.0170571
0.0170516
0.0170461
0.0170407
0.0170354
0.0170301
0.017025
0.0170199
0.0170149
0.01701
0.0170052
0.0170003
0.0169956
0.0169908
0.0169861
0.0169814
0.0169767
0.0169721
0.0169674
0.0169628
0.0169582
0.0169536
0.016949
0.0169445
0.01694
0.0169356
0.0169312
0.0169269
0.0169226
0.0169183
0.016914
0.0169098
0.0169056
0.0169013
0.0168972
0.0168929
0.0168888
0.0168846
0.0168804
0.0168761
0.0168718
0.0168673
0.0168628
0.0168581
0.0168533
0.0168483
0.0168433
0.0168381
0.0168329
0.0168275
0.0168221
0.0168164
0.0168108
0.0168049
0.016799
0.0167926
0.0167863
0.0167795
0.0167725
0.0167647
0.0167567
0.0167471
0.0167374
0.0167238
0.0167107
0.0166891
0.0166683
0.0166308
0.0165942
0.0165248
0.0164587
0.0163188
0.0162131
0.01584
0.0152998
0.0146859
0.0139522
0.0126754
0.011168
0.00902739
0.00652775
0.0016892
0.000188081
0.00227101
0.0034189
)
;

boundaryField
{
    inlet
    {
        type            calculated;
        value           uniform 0;
    }
    endWall
    {
        type            calculated;
        value           uniform 0;
    }
    sideWall
    {
        type            empty;
    }
}


// ************************************************************************* //
