/*--------------------------------*- C++ -*----------------------------------*\
| =========                 |                                                 |
| \\      /  F ield         | foam-extend: Open Source CFD                    |
|  \\    /   O peration     | Version:     3.2                                |
|   \\  /    A nd           | Web:         http://www.foam-extend.org         |
|    \\/     M anipulation  | For copyright notice see file Copyright         |
\*---------------------------------------------------------------------------*/
FoamFile
{
    version     2.0;
    format      ascii;
    class       areaVectorField;
    location    "120";
    object      Wt;
}
// * * * * * * * * * * * * * * * * * * * * * * * * * * * * * * * * * * * * * //

dimensions      [1 1 -2 0 0 0 0];

internalField   nonuniform List<vector> 
550
(
(1.80184e-10 0 -3.60368e-13)
(1.80184e-10 0 -3.60368e-13)
(1.80184e-10 0 -3.60368e-13)
(1.80184e-10 0 -3.60368e-13)
(1.80184e-10 6.55798e-27 -3.60368e-13)
(1.80184e-10 0 -3.60368e-13)
(1.80184e-10 0 -3.60368e-13)
(1.80184e-10 0 -3.60368e-13)
(1.80184e-10 6.55798e-27 -3.60368e-13)
(1.80184e-10 0 -3.60368e-13)
(1.80184e-10 0 -3.60368e-13)
(1.80184e-10 0 -3.60368e-13)
(1.80184e-10 6.55798e-27 -3.60368e-13)
(1.80184e-10 0 -3.60368e-13)
(1.80184e-10 0 -3.60368e-13)
(1.80184e-10 6.55798e-27 -3.60368e-13)
(1.80184e-10 -6.55798e-27 -3.60368e-13)
(1.80184e-10 6.55798e-27 -3.60368e-13)
(1.80184e-10 6.55798e-27 -3.60368e-13)
(1.80184e-10 0 -3.60368e-13)
(1.80184e-10 6.55798e-27 -3.60368e-13)
(1.80184e-10 -6.55798e-27 -3.60368e-13)
(1.80184e-10 0 -3.60368e-13)
(1.80184e-10 6.55798e-27 -3.60368e-13)
(1.80184e-10 0 -3.60368e-13)
(1.80184e-10 0 -3.60368e-13)
(1.80184e-10 6.55798e-27 -3.60368e-13)
(1.80184e-10 0 -3.60368e-13)
(1.80184e-10 0 -3.60368e-13)
(1.80184e-10 0 -3.60368e-13)
(1.80184e-10 0 -3.60368e-13)
(1.80184e-10 0 -3.60368e-13)
(1.80184e-10 0 -3.60368e-13)
(1.80184e-10 0 -3.60368e-13)
(1.80184e-10 0 -3.60368e-13)
(1.80184e-10 0 -3.60368e-13)
(1.80184e-10 0 -3.60368e-13)
(1.80184e-10 0 -3.60368e-13)
(1.80184e-10 6.55798e-27 -3.60368e-13)
(1.80184e-10 0 -3.60368e-13)
(1.80184e-10 0 -3.60368e-13)
(1.80184e-10 0 -3.60368e-13)
(1.80184e-10 0 -3.60368e-13)
(1.80184e-10 0 -3.60368e-13)
(1.80184e-10 0 -3.60368e-13)
(1.80184e-10 0 -3.60368e-13)
(1.80184e-10 0 -3.60368e-13)
(1.80184e-10 0 -3.60368e-13)
(1.80184e-10 0 -3.60368e-13)
(1.80184e-10 0 -3.60368e-13)
(1.80184e-10 0 -3.60368e-13)
(1.80184e-10 0 -3.60368e-13)
(1.80184e-10 0 -3.60368e-13)
(1.80184e-10 0 -3.60368e-13)
(1.80184e-10 0 -3.60368e-13)
(1.80184e-10 -6.55798e-27 -3.60368e-13)
(1.80184e-10 -6.55798e-27 -3.60368e-13)
(1.80184e-10 6.55798e-27 -3.60368e-13)
(1.80184e-10 0 -3.60368e-13)
(1.80184e-10 0 -3.60368e-13)
(1.80184e-10 -6.55798e-27 -3.60368e-13)
(1.80184e-10 -6.55798e-27 -3.60368e-13)
(1.80184e-10 -6.55798e-27 -3.60368e-13)
(1.80184e-10 0 -3.60368e-13)
(1.80184e-10 0 -3.60368e-13)
(1.80184e-10 -6.55798e-27 -3.60368e-13)
(1.80184e-10 0 -3.60368e-13)
(1.80184e-10 0 -3.60368e-13)
(1.80184e-10 0 -3.60368e-13)
(1.80184e-10 0 -3.60368e-13)
(1.80184e-10 -6.55798e-27 -3.60368e-13)
(1.80184e-10 -6.55798e-27 -3.60368e-13)
(1.80184e-10 0 -3.60368e-13)
(1.80184e-10 0 -3.60368e-13)
(1.80184e-10 0 -3.60368e-13)
(1.80184e-10 -6.55798e-27 -3.60368e-13)
(1.80184e-10 0 -3.60368e-13)
(1.80184e-10 0 -3.60368e-13)
(1.80184e-10 -6.55798e-27 -3.60368e-13)
(1.80184e-10 6.55798e-27 -3.60368e-13)
(1.80184e-10 0 -3.60368e-13)
(1.80184e-10 0 -3.60368e-13)
(1.80184e-10 0 -3.60368e-13)
(1.80184e-10 0 -3.60368e-13)
(1.80184e-10 -6.55798e-27 -3.60368e-13)
(1.80184e-10 0 -3.60368e-13)
(1.80184e-10 0 -3.60368e-13)
(1.80184e-10 0 -3.60368e-13)
(1.80184e-10 -6.55798e-27 -3.60368e-13)
(1.80184e-10 -6.55798e-27 -3.60368e-13)
(1.80184e-10 0 -3.60368e-13)
(1.80184e-10 0 -3.60368e-13)
(1.80184e-10 -6.55798e-27 -3.60368e-13)
(1.80184e-10 0 -3.60368e-13)
(1.80184e-10 -6.55798e-27 -3.60368e-13)
(1.80184e-10 0 -3.60368e-13)
(1.80184e-10 0 -3.60368e-13)
(1.80184e-10 0 -3.60368e-13)
(1.80184e-10 -6.55798e-27 -3.60368e-13)
(1.80184e-10 0 -3.60368e-13)
(1.80184e-10 0 -3.60368e-13)
(1.80184e-10 6.55798e-27 -3.60368e-13)
(1.80184e-10 0 -3.60368e-13)
(1.80184e-10 0 -3.60368e-13)
(1.80184e-10 0 -3.60368e-13)
(1.80184e-10 0 -3.60368e-13)
(1.80184e-10 -6.55798e-27 -3.60368e-13)
(1.80184e-10 6.55798e-27 -3.60368e-13)
(1.80184e-10 -6.55798e-27 -3.60368e-13)
(1.80184e-10 0 -3.60368e-13)
(1.80184e-10 -6.55798e-27 -3.60368e-13)
(1.80184e-10 -6.55798e-27 -3.60368e-13)
(1.80184e-10 6.55798e-27 -3.60368e-13)
(1.80184e-10 6.55798e-27 -3.60368e-13)
(1.80184e-10 -6.55798e-27 -3.60368e-13)
(1.80184e-10 -6.55798e-27 -3.60368e-13)
(1.80184e-10 -6.55798e-27 -3.60368e-13)
(1.80184e-10 0 -3.60368e-13)
(1.80184e-10 0 -3.60368e-13)
(1.80184e-10 0 -3.60368e-13)
(1.80184e-10 -6.55798e-27 -3.60368e-13)
(1.80184e-10 6.55798e-27 -3.60368e-13)
(1.80184e-10 -6.55798e-27 -3.60368e-13)
(1.80184e-10 6.55798e-27 -3.60368e-13)
(1.80184e-10 -6.55798e-27 -3.60368e-13)
(1.80184e-10 -6.55798e-27 -3.60368e-13)
(1.80184e-10 -6.55798e-27 -3.60368e-13)
(1.80184e-10 -6.55798e-27 -3.60368e-13)
(1.80184e-10 -6.55798e-27 -3.60368e-13)
(1.80184e-10 6.55798e-27 -3.60368e-13)
(1.80184e-10 -6.55798e-27 -3.60368e-13)
(1.80184e-10 6.55798e-27 -3.60368e-13)
(1.80184e-10 -6.55798e-27 -3.60368e-13)
(1.80184e-10 -6.55798e-27 -3.60368e-13)
(1.80184e-10 6.55798e-27 -3.60368e-13)
(1.80184e-10 -6.55798e-27 -3.60368e-13)
(1.80184e-10 -6.55798e-27 -3.60368e-13)
(1.80184e-10 0 -3.60368e-13)
(1.80184e-10 -6.55798e-27 -3.60368e-13)
(1.80184e-10 -6.55798e-27 -3.60368e-13)
(1.80184e-10 6.55798e-27 -3.60368e-13)
(1.80184e-10 -6.55798e-27 -3.60368e-13)
(1.80184e-10 6.55798e-27 -3.60368e-13)
(1.80184e-10 -6.55798e-27 -3.60368e-13)
(1.80184e-10 -6.55798e-27 -3.60368e-13)
(1.80184e-10 6.55798e-27 -3.60368e-13)
(1.80184e-10 -6.55798e-27 -3.60368e-13)
(1.80184e-10 -6.55798e-27 -3.60368e-13)
(1.80184e-10 -6.55798e-27 -3.60368e-13)
(1.80184e-10 -6.55798e-27 -3.60368e-13)
(1.80184e-10 6.55798e-27 -3.60368e-13)
(1.80184e-10 6.55798e-27 -3.60368e-13)
(1.80184e-10 -6.55798e-27 -3.60368e-13)
(1.80184e-10 -6.55798e-27 -3.60368e-13)
(1.80184e-10 -6.55798e-27 -3.60368e-13)
(1.80184e-10 0 -3.60368e-13)
(1.80184e-10 0 -3.60368e-13)
(1.80184e-10 6.55798e-27 -3.60368e-13)
(1.80184e-10 -6.55798e-27 -3.60368e-13)
(1.80184e-10 6.55798e-27 -3.60368e-13)
(1.80184e-10 0 -3.60368e-13)
(1.80184e-10 6.55798e-27 -3.60368e-13)
(1.80184e-10 6.55798e-27 -3.60368e-13)
(1.80184e-10 -6.55798e-27 -3.60368e-13)
(1.80184e-10 -6.55798e-27 -3.60368e-13)
(1.80184e-10 -6.55798e-27 -3.60368e-13)
(1.80184e-10 -6.55798e-27 -3.60368e-13)
(1.80184e-10 6.55798e-27 -3.60368e-13)
(1.80184e-10 -6.55798e-27 -3.60368e-13)
(1.80184e-10 -6.55798e-27 -3.60368e-13)
(1.80184e-10 -6.55798e-27 -3.60368e-13)
(1.80184e-10 -6.55798e-27 -3.60368e-13)
(1.80184e-10 0 -3.60368e-13)
(1.80184e-10 0 -3.60368e-13)
(1.80184e-10 0 -3.60368e-13)
(1.80184e-10 -6.55798e-27 -3.60368e-13)
(1.80184e-10 6.55798e-27 -3.60368e-13)
(1.80184e-10 0 -3.60368e-13)
(1.80184e-10 6.55798e-27 -3.60368e-13)
(1.80184e-10 -6.55798e-27 -3.60368e-13)
(1.80184e-10 -6.55798e-27 -3.60368e-13)
(1.80184e-10 -6.55798e-27 -3.60368e-13)
(1.80184e-10 -6.55798e-27 -3.60368e-13)
(1.80184e-10 -6.55798e-27 -3.60368e-13)
(1.80184e-10 6.55798e-27 -3.60368e-13)
(1.80184e-10 -6.55798e-27 -3.60368e-13)
(1.80184e-10 6.55798e-27 -3.60368e-13)
(1.80184e-10 -6.55798e-27 -3.60368e-13)
(1.80184e-10 -6.55798e-27 -3.60368e-13)
(1.80184e-10 6.55798e-27 -3.60368e-13)
(1.80184e-10 -6.55798e-27 -3.60368e-13)
(1.80184e-10 -6.55798e-27 -3.60368e-13)
(1.80184e-10 0 -3.60368e-13)
(1.80184e-10 -6.55798e-27 -3.60368e-13)
(1.80184e-10 -6.55798e-27 -3.60368e-13)
(1.80184e-10 6.55798e-27 -3.60368e-13)
(1.80184e-10 -6.55798e-27 -3.60368e-13)
(1.80184e-10 6.55798e-27 -3.60368e-13)
(1.80184e-10 -6.55798e-27 -3.60368e-13)
(1.80184e-10 -6.55798e-27 -3.60368e-13)
(1.80184e-10 6.55798e-27 -3.60368e-13)
(1.80184e-10 -6.55798e-27 -3.60368e-13)
(1.80184e-10 -6.55798e-27 -3.60368e-13)
(1.80184e-10 6.55798e-27 -3.60368e-13)
(1.80184e-10 -6.55798e-27 -3.60368e-13)
(1.80184e-10 6.55798e-27 -3.60368e-13)
(1.80184e-10 6.55798e-27 -3.60368e-13)
(1.80184e-10 -6.55798e-27 -3.60368e-13)
(1.80184e-10 -6.55798e-27 -3.60368e-13)
(1.80184e-10 -6.55798e-27 -3.60368e-13)
(1.80184e-10 0 -3.60368e-13)
(1.80184e-10 0 -3.60368e-13)
(1.80184e-10 6.55798e-27 -3.60368e-13)
(1.80184e-10 -6.55798e-27 -3.60368e-13)
(1.80184e-10 6.55798e-27 -3.60368e-13)
(1.80184e-10 0 -3.60368e-13)
(1.80184e-10 -6.55798e-27 -3.60368e-13)
(1.80184e-10 6.55798e-27 -3.60368e-13)
(1.80184e-10 0 -3.60368e-13)
(1.80184e-10 -6.55798e-27 -3.60368e-13)
(1.80184e-10 0 -3.60368e-13)
(1.80184e-10 0 -3.60368e-13)
(1.80184e-10 0 -3.60368e-13)
(1.80184e-10 0 -3.60368e-13)
(1.80184e-10 0 -3.60368e-13)
(1.80184e-10 0 -3.60368e-13)
(1.80184e-10 0 -3.60368e-13)
(1.80184e-10 0 -3.60368e-13)
(1.80184e-10 0 -3.60368e-13)
(1.80184e-10 0 -3.60368e-13)
(1.80184e-10 0 -3.60368e-13)
(1.80184e-10 0 -3.60368e-13)
(1.80184e-10 0 -3.60368e-13)
(1.80184e-10 0 -3.60368e-13)
(1.80188e-10 0 -3.60383e-13)
(1.80204e-10 0 -3.60448e-13)
(1.80138e-10 0 -3.60182e-13)
(1.8012e-10 6.55798e-27 -3.60113e-13)
(1.79704e-10 0 -3.58452e-13)
(1.79018e-10 0 -3.55718e-13)
(1.784e-10 0 -3.53269e-13)
(1.7768e-10 0 -3.50421e-13)
(1.77036e-10 -6.55798e-27 -3.47887e-13)
(1.76249e-10 0 -3.44799e-13)
(1.76042e-10 0 -3.4399e-13)
(1.76344e-10 0 -3.45169e-13)
(1.76295e-10 -6.55798e-27 -3.44978e-13)
(1.76181e-10 0 -3.44534e-13)
(1.7615e-10 6.55798e-27 -3.44414e-13)
(1.76145e-10 6.55798e-27 -3.44393e-13)
(1.76153e-10 0 -3.44425e-13)
(1.76138e-10 6.55798e-27 -3.44366e-13)
(1.76118e-10 0 -3.44285e-13)
(1.76096e-10 0 -3.44201e-13)
(1.76075e-10 0 -3.44119e-13)
(1.76056e-10 0 -3.44044e-13)
(1.76038e-10 0 -3.43975e-13)
(1.76023e-10 0 -3.43914e-13)
(1.76009e-10 6.55798e-27 -3.43861e-13)
(1.75998e-10 0 -3.43817e-13)
(1.75989e-10 0 -3.43782e-13)
(1.75982e-10 0 -3.43757e-13)
(1.75979e-10 0 -3.43744e-13)
(1.75978e-10 0 -3.43742e-13)
(1.75981e-10 0 -3.43751e-13)
(1.75986e-10 0 -3.43771e-13)
(1.75994e-10 0 -3.43802e-13)
(1.76005e-10 0 -3.43843e-13)
(1.76018e-10 0 -3.43895e-13)
(1.76033e-10 0 -3.43956e-13)
(1.76052e-10 -6.55798e-27 -3.44028e-13)
(1.76072e-10 0 -3.44109e-13)
(1.76096e-10 0 -3.442e-13)
(1.76122e-10 0 -3.44301e-13)
(1.7615e-10 0 -3.44412e-13)
(1.76181e-10 0 -3.44533e-13)
(1.76214e-10 -6.55798e-27 -3.44664e-13)
(1.76251e-10 0 -3.44806e-13)
(1.76289e-10 -6.55798e-27 -3.44957e-13)
(1.76331e-10 0 -3.45119e-13)
(1.76374e-10 -6.55798e-27 -3.4529e-13)
(1.7642e-10 0 -3.4547e-13)
(1.76468e-10 0 -3.45658e-13)
(1.76518e-10 0 -3.45854e-13)
(1.7657e-10 0 -3.46057e-13)
(1.76624e-10 0 -3.46268e-13)
(1.7668e-10 0 -3.46486e-13)
(1.76737e-10 0 -3.46712e-13)
(1.76797e-10 -6.55798e-27 -3.46947e-13)
(1.76859e-10 0 -3.47192e-13)
(1.76925e-10 -6.55798e-27 -3.47449e-13)
(1.76994e-10 6.55798e-27 -3.47722e-13)
(1.77068e-10 0 -3.48013e-13)
(1.77148e-10 0 -3.48325e-13)
(1.77233e-10 0 -3.48659e-13)
(1.77323e-10 6.55798e-27 -3.49016e-13)
(1.77419e-10 0 -3.49392e-13)
(1.77518e-10 -6.55798e-27 -3.49782e-13)
(1.77619e-10 0 -3.5018e-13)
(1.77721e-10 0 -3.50582e-13)
(1.77822e-10 0 -3.50983e-13)
(1.77923e-10 0 -3.51381e-13)
(1.78023e-10 -6.55798e-27 -3.51775e-13)
(1.78121e-10 6.55798e-27 -3.52164e-13)
(1.78218e-10 6.55798e-27 -3.52547e-13)
(1.78314e-10 0 -3.52925e-13)
(1.78408e-10 0 -3.53297e-13)
(1.785e-10 0 -3.53663e-13)
(1.78591e-10 0 -3.54022e-13)
(1.78679e-10 0 -3.54374e-13)
(1.78766e-10 0 -3.54718e-13)
(1.78851e-10 0 -3.55055e-13)
(1.78934e-10 0 -3.55384e-13)
(1.79014e-10 0 -3.55704e-13)
(1.79093e-10 6.55798e-27 -3.56019e-13)
(1.7917e-10 0 -3.56325e-13)
(1.79245e-10 -6.55798e-27 -3.56622e-13)
(1.79318e-10 0 -3.56911e-13)
(1.79387e-10 0 -3.57188e-13)
(1.79454e-10 0 -3.57454e-13)
(1.79518e-10 0 -3.57707e-13)
(1.79577e-10 0 -3.57945e-13)
(1.79633e-10 -6.55798e-27 -3.58168e-13)
(1.79685e-10 0 -3.58374e-13)
(1.79733e-10 0 -3.58564e-13)
(1.79775e-10 0 -3.58734e-13)
(1.79813e-10 0 -3.58886e-13)
(1.79846e-10 0 -3.59018e-13)
(1.79874e-10 6.55798e-27 -3.59128e-13)
(1.79896e-10 0 -3.59216e-13)
(1.79912e-10 0 -3.59282e-13)
(1.79923e-10 6.55798e-27 -3.59326e-13)
(1.79928e-10 0 -3.59346e-13)
(1.79927e-10 -6.55798e-27 -3.59342e-13)
(1.7992e-10 0 -3.59314e-13)
(1.79907e-10 0 -3.59261e-13)
(1.79888e-10 0 -3.59185e-13)
(1.79863e-10 0 -3.59085e-13)
(1.79832e-10 6.55798e-27 -3.5896e-13)
(1.79795e-10 -6.55798e-27 -3.58812e-13)
(1.79752e-10 0 -3.58643e-13)
(1.79704e-10 0 -3.58452e-13)
(1.79651e-10 6.55798e-27 -3.5824e-13)
(1.79593e-10 0 -3.58008e-13)
(1.7953e-10 0 -3.57756e-13)
(1.79463e-10 -6.55798e-27 -3.57488e-13)
(1.79391e-10 6.55798e-27 -3.57203e-13)
(1.79316e-10 6.55798e-27 -3.56902e-13)
(1.79237e-10 -6.55798e-27 -3.56589e-13)
(1.79155e-10 6.55798e-27 -3.56263e-13)
(1.79071e-10 0 -3.55928e-13)
(1.78984e-10 0 -3.55584e-13)
(1.78896e-10 0 -3.55233e-13)
(1.78806e-10 0 -3.54875e-13)
(1.78714e-10 6.55798e-27 -3.54513e-13)
(1.78622e-10 0 -3.54147e-13)
(1.78529e-10 6.55798e-27 -3.53778e-13)
(1.78436e-10 0 -3.53409e-13)
(1.78342e-10 0 -3.53038e-13)
(1.78249e-10 -6.55798e-27 -3.5267e-13)
(1.78157e-10 6.55798e-27 -3.52304e-13)
(1.78065e-10 0 -3.51942e-13)
(1.77975e-10 0 -3.51584e-13)
(1.77885e-10 0 -3.51231e-13)
(1.77797e-10 0 -3.50883e-13)
(1.7771e-10 0 -3.5054e-13)
(1.77625e-10 -6.55798e-27 -3.50203e-13)
(1.7754e-10 6.55798e-27 -3.49871e-13)
(1.77458e-10 -6.55798e-27 -3.49547e-13)
(1.77378e-10 0 -3.4923e-13)
(1.77299e-10 0 -3.48922e-13)
(1.77224e-10 0 -3.48623e-13)
(1.7715e-10 6.55798e-27 -3.48335e-13)
(1.77079e-10 0 -3.48056e-13)
(1.77011e-10 -6.55798e-27 -3.47788e-13)
(1.76946e-10 -6.55798e-27 -3.47531e-13)
(1.76883e-10 0 -3.47286e-13)
(1.76824e-10 0 -3.47055e-13)
(1.76769e-10 6.55798e-27 -3.46836e-13)
(1.76716e-10 0 -3.46631e-13)
(1.76667e-10 0 -3.46438e-13)
(1.76621e-10 0 -3.46258e-13)
(1.76578e-10 0 -3.46089e-13)
(1.76538e-10 0 -3.45931e-13)
(1.765e-10 0 -3.45783e-13)
(1.76465e-10 -6.55798e-27 -3.45644e-13)
(1.76432e-10 0 -3.45516e-13)
(1.76402e-10 0 -3.45396e-13)
(1.76373e-10 0 -3.45287e-13)
(1.76348e-10 0 -3.45188e-13)
(1.76326e-10 0 -3.45099e-13)
(1.76305e-10 0 -3.4502e-13)
(1.76287e-10 6.55798e-27 -3.44949e-13)
(1.76271e-10 0 -3.44887e-13)
(1.76258e-10 6.55798e-27 -3.44833e-13)
(1.76246e-10 0 -3.44787e-13)
(1.76236e-10 0 -3.4475e-13)
(1.76228e-10 0 -3.44719e-13)
(1.76223e-10 -6.55798e-27 -3.44698e-13)
(1.7622e-10 6.55798e-27 -3.44685e-13)
(1.76219e-10 0 -3.4468e-13)
(1.76219e-10 0 -3.44684e-13)
(1.76222e-10 0 -3.44694e-13)
(1.76227e-10 0 -3.44713e-13)
(1.76234e-10 6.55798e-27 -3.44741e-13)
(1.76243e-10 -6.55798e-27 -3.44778e-13)
(1.76255e-10 0 -3.44824e-13)
(1.76269e-10 0 -3.44878e-13)
(1.76286e-10 0 -3.44943e-13)
(1.76304e-10 6.55798e-27 -3.45014e-13)
(1.76324e-10 0 -3.45094e-13)
(1.76347e-10 -6.55798e-27 -3.45181e-13)
(1.76371e-10 0 -3.45275e-13)
(1.76396e-10 -6.55798e-27 -3.45375e-13)
(1.76423e-10 -6.55798e-27 -3.4548e-13)
(1.76451e-10 6.55798e-27 -3.4559e-13)
(1.7648e-10 0 -3.45705e-13)
(1.76511e-10 0 -3.45825e-13)
(1.76543e-10 0 -3.4595e-13)
(1.76576e-10 0 -3.46081e-13)
(1.76611e-10 0 -3.46217e-13)
(1.76647e-10 0 -3.46358e-13)
(1.76685e-10 6.55798e-27 -3.46506e-13)
(1.76724e-10 0 -3.46662e-13)
(1.76765e-10 0 -3.46823e-13)
(1.76808e-10 0 -3.46991e-13)
(1.76852e-10 -6.55798e-27 -3.47164e-13)
(1.76898e-10 0 -3.47342e-13)
(1.76944e-10 -6.55798e-27 -3.47524e-13)
(1.76992e-10 0 -3.47713e-13)
(1.77041e-10 0 -3.47906e-13)
(1.77092e-10 0 -3.48106e-13)
(1.77145e-10 -6.55798e-27 -3.48314e-13)
(1.77201e-10 0 -3.48533e-13)
(1.7726e-10 0 -3.48766e-13)
(1.77323e-10 6.55798e-27 -3.49013e-13)
(1.7739e-10 0 -3.49277e-13)
(1.77461e-10 0 -3.49557e-13)
(1.77535e-10 -6.55798e-27 -3.4985e-13)
(1.77612e-10 0 -3.50154e-13)
(1.77691e-10 -6.55798e-27 -3.50465e-13)
(1.7777e-10 0 -3.50777e-13)
(1.7785e-10 0 -3.5109e-13)
(1.77928e-10 -6.55798e-27 -3.514e-13)
(1.78005e-10 0 -3.51704e-13)
(1.7808e-10 0 -3.52003e-13)
(1.78154e-10 -6.55798e-27 -3.52294e-13)
(1.78225e-10 6.55798e-27 -3.52576e-13)
(1.78295e-10 0 -3.5285e-13)
(1.78363e-10 0 -3.53119e-13)
(1.78429e-10 -6.55798e-27 -3.53382e-13)
(1.78494e-10 0 -3.53638e-13)
(1.78557e-10 -6.55798e-27 -3.53891e-13)
(1.78621e-10 0 -3.54141e-13)
(1.78683e-10 0 -3.54387e-13)
(1.78744e-10 0 -3.54629e-13)
(1.78804e-10 -6.55798e-27 -3.54869e-13)
(1.78863e-10 6.55798e-27 -3.55103e-13)
(1.78921e-10 0 -3.55334e-13)
(1.78978e-10 0 -3.55559e-13)
(1.79033e-10 0 -3.55778e-13)
(1.79086e-10 -6.55798e-27 -3.55991e-13)
(1.79138e-10 6.55798e-27 -3.56195e-13)
(1.79187e-10 -6.55798e-27 -3.56391e-13)
(1.79234e-10 0 -3.56576e-13)
(1.79278e-10 0 -3.56752e-13)
(1.79319e-10 0 -3.56917e-13)
(1.79358e-10 -6.55798e-27 -3.57073e-13)
(1.79394e-10 6.55798e-27 -3.57216e-13)
(1.79428e-10 6.55798e-27 -3.57349e-13)
(1.79459e-10 -6.55798e-27 -3.57472e-13)
(1.79486e-10 0 -3.57582e-13)
(1.79512e-10 0 -3.57684e-13)
(1.79534e-10 -6.55798e-27 -3.57772e-13)
(1.79553e-10 6.55798e-27 -3.5785e-13)
(1.7957e-10 0 -3.57915e-13)
(1.79584e-10 0 -3.5797e-13)
(1.79594e-10 0 -3.58011e-13)
(1.79601e-10 0 -3.5804e-13)
(1.79605e-10 6.55798e-27 -3.58055e-13)
(1.79606e-10 0 -3.58059e-13)
(1.79604e-10 0 -3.5805e-13)
(1.79598e-10 0 -3.58026e-13)
(1.79589e-10 0 -3.57992e-13)
(1.79577e-10 0 -3.57943e-13)
(1.79561e-10 0 -3.57881e-13)
(1.79542e-10 0 -3.57805e-13)
(1.7952e-10 0 -3.57716e-13)
(1.79495e-10 0 -3.57616e-13)
(1.79466e-10 6.55798e-27 -3.57503e-13)
(1.79436e-10 6.55798e-27 -3.57381e-13)
(1.79403e-10 6.55798e-27 -3.57251e-13)
(1.79368e-10 -6.55798e-27 -3.57112e-13)
(1.79332e-10 0 -3.56967e-13)
(1.79294e-10 0 -3.56818e-13)
(1.79255e-10 0 -3.56662e-13)
(1.79215e-10 0 -3.56503e-13)
(1.79174e-10 0 -3.56341e-13)
(1.79133e-10 -6.55798e-27 -3.56177e-13)
(1.79091e-10 0 -3.56008e-13)
(1.79049e-10 -6.55798e-27 -3.5584e-13)
(1.79005e-10 0 -3.55669e-13)
(1.78963e-10 0 -3.555e-13)
(1.78919e-10 0 -3.55327e-13)
(1.78877e-10 0 -3.55159e-13)
(1.78835e-10 -6.55798e-27 -3.54992e-13)
(1.78794e-10 0 -3.54827e-13)
(1.78752e-10 0 -3.54664e-13)
(1.78713e-10 0 -3.54507e-13)
(1.78673e-10 0 -3.54349e-13)
(1.78634e-10 0 -3.54194e-13)
(1.78595e-10 -6.55798e-27 -3.54039e-13)
(1.78556e-10 0 -3.53884e-13)
(1.78514e-10 0 -3.53719e-13)
(1.78472e-10 0 -3.53554e-13)
(1.78426e-10 0 -3.53371e-13)
(1.78377e-10 0 -3.53176e-13)
(1.78319e-10 -6.55798e-27 -3.52945e-13)
(1.78252e-10 0 -3.52681e-13)
(1.78167e-10 0 -3.52345e-13)
(1.78061e-10 6.55798e-27 -3.51926e-13)
(1.77918e-10 0 -3.51361e-13)
(1.77726e-10 0 -3.50604e-13)
(1.77478e-10 6.55798e-27 -3.49626e-13)
(1.77092e-10 -6.55798e-27 -3.48105e-13)
(1.76617e-10 0 -3.46242e-13)
(1.7584e-10 -6.55798e-27 -3.432e-13)
(1.74742e-10 -6.55798e-27 -3.38929e-13)
(1.73101e-10 0 -3.32592e-13)
(1.70786e-10 -6.55798e-27 -3.23756e-13)
(1.67368e-10 0 -3.10925e-13)
(1.62626e-10 0 -2.93557e-13)
(1.55632e-10 0 -2.68851e-13)
(1.46075e-10 6.55798e-27 -2.36844e-13)
(1.32152e-10 6.55799e-27 -1.93849e-13)
(1.12468e-10 0 -1.404e-13)
(1.03457e-10 0 -1.18804e-13)
(3.79494e-11 0 -1.59853e-14)
(6.8805e-10 2.62305e-26 -5.25506e-12)
(7.92838e-10 0 -6.97774e-12)
(1.80184e-10 0 -3.60368e-13)
(1.80184e-10 0 -3.60368e-13)
(1.80184e-10 0 -3.60369e-13)
(1.80184e-10 0 -3.60368e-13)
(1.80184e-10 0 -3.60369e-13)
(1.80184e-10 -6.55798e-27 -3.60368e-13)
(1.80184e-10 0 -3.60369e-13)
(1.80184e-10 0 -3.60368e-13)
(1.80184e-10 0 -3.60368e-13)
(1.80184e-10 0 -3.60369e-13)
)
;

boundaryField
{
    inlet
    {
        type            calculated;
        value           uniform (0 0 0);
    }
    endWall
    {
        type            calculated;
        value           uniform (0 0 0);
    }
    sideWall
    {
        type            empty;
    }
}


// ************************************************************************* //
