/*--------------------------------*- C++ -*----------------------------------*\
| =========                 |                                                 |
| \\      /  F ield         | foam-extend: Open Source CFD                    |
|  \\    /   O peration     | Version:     3.2                                |
|   \\  /    A nd           | Web:         http://www.foam-extend.org         |
|    \\/     M anipulation  | For copyright notice see file Copyright         |
\*---------------------------------------------------------------------------*/
FoamFile
{
    version     2.0;
    format      ascii;
    class       areaScalarField;
    location    "160";
    object      a;
}
// * * * * * * * * * * * * * * * * * * * * * * * * * * * * * * * * * * * * * //

dimensions      [1 -1 0 0 0 0 0];

internalField   nonuniform List<scalar> 
300
(
0.00216728
0.00216728
0.00216728
0.00216728
0.00216728
0.00216728
0.00216728
0.00216728
0.00216728
0.00216728
0.00216728
0.00216728
0.00216728
0.00216728
0.00216728
0.00216728
0.00216728
0.00216728
0.00216728
0.00216728
0.00216728
0.00216728
0.00216728
0.00216728
0.00216728
0.00216728
0.00216728
0.00216728
0.00216728
0.00216728
0.00216728
0.00216728
0.00216728
0.00216728
0.00216728
0.00216728
0.00216728
0.00216728
0.00216728
0.00216728
0.00216728
0.00216728
0.00216728
0.00216728
0.00216728
0.00216728
0.00216728
0.00216728
0.00216728
0.00216728
0.00216728
0.00216728
0.00216728
0.00216728
0.00216728
0.00216728
0.00216728
0.00216728
0.00216728
0.00216728
0.00216728
0.00216728
0.00216728
0.00216728
0.00216728
0.00216728
0.00216728
0.00216728
0.00216728
0.00216728
0.00216728
0.00216728
0.00216728
0.00216728
0.00216728
0.00216728
0.00216728
0.00216728
0.00216728
0.00216728
0.00216728
0.00216728
0.00216728
0.00216728
0.00216728
0.00216728
0.00216728
0.00216728
0.00216728
0.00216728
0.00216728
0.00216728
0.00216728
0.00216728
0.00216728
0.00216728
0.00216728
0.00216728
0.00216728
0.00216728
0.00216728
0.00216728
0.00216728
0.00216728
0.00216728
0.00216728
0.00216728
0.00216728
0.00216728
0.000743028
0.000725659
0.000711353
0.000698366
0.000687078
0.00216728
0.00216728
0.00216728
0.00216728
0.000625171
0.000621033
0.000616468
0.000612523
0.00216728
0.00216728
0.00216728
0.00216728
0.00216728
0.00216728
0.000586702
0.000585622
0.000586036
0.000588221
0.00216728
0.00216728
0.00216728
0.000601798
0.000597556
0.000592882
0.000592944
0.000594474
0.00216728
0.00216728
0.00216728
0.000623464
0.000627769
0.000625435
0.000623015
0.00216728
0.00216728
0.00216728
0.000650701
0.000660027
0.00066349
0.00065881
0.00216728
0.00216728
0.00216728
0.000659154
0.000655945
0.000662049
0.000672633
0.00216728
0.00216728
0.00216728
0.000675314
0.000665672
0.000656088
0.00216728
0.00216728
0.00216728
0.00216728
0.000674893
0.000681194
0.000685322
0.00216728
0.00216728
0.00216728
0.00216728
0.000659761
0.000663092
0.000667015
0.000667509
0.00216728
0.00216728
0.00216728
0.00216728
0.000658765
0.00066145
0.000656383
0.000653276
0.00216728
0.00216728
0.00216728
0.00066871
0.000676557
0.000673171
0.000664971
0.00216728
0.00216728
0.00216728
0.000640592
0.000650636
0.00065467
0.00065867
0.00216728
0.00216728
0.00216728
0.000677966
0.000672788
0.000671037
0.00216728
0.00216728
0.00216728
0.00216728
0.000695143
0.000688643
0.000679461
0.000665118
0.00216728
0.00216728
0.00216728
0.00216728
0.000649466
0.000656097
0.000657423
0.00216728
0.00216728
0.00216728
0.00216728
0.000675605
0.000674859
0.000676105
0.000676773
0.00216728
0.00216728
0.00216728
0.000685707
0.000689305
0.000695586
0.00216728
0.00216728
0.00216728
0.00216728
0.000681438
0.000683534
0.000691199
0.000688691
0.00216728
0.00216728
0.00216728
0.000665443
0.000668874
0.000673254
0.00216728
0.00216728
0.00216728
0.00216728
0.000690694
0.000694691
0.000693902
0.000701421
0.00216728
0.00216728
0.00216728
0.00216728
0.00216728
0.00216728
0.00216728
0.00216728
0.00216728
0.00216728
0.00216728
0.00216728
0.00216728
0.00216728
0.00216728
0.00216728
0.00216728
0.00216728
0.00216728
0.00216728
0.00216728
0.00216728
0.00216728
0.00216728
0.00216728
0.00216728
0.00216728
0.00216728
0.00216728
0.00216728
0.00216728
0.00216728
0.00216728
0.00216728
0.00216728
0.00216728
0.00216728
0.00216728
0.00216728
)
;

boundaryField
{
    inlet
    {
        type            calculated;
        value           uniform 0;
    }
    outlet
    {
        type            calculated;
        value           uniform 0;
    }
    sideWall
    {
        type            empty;
    }
}


// ************************************************************************* //
