/*--------------------------------*- C++ -*----------------------------------*\
| =========                 |                                                 |
| \\      /  F ield         | foam-extend: Open Source CFD                    |
|  \\    /   O peration     | Version:     3.2                                |
|   \\  /    A nd           | Web:         http://www.foam-extend.org         |
|    \\/     M anipulation  | For copyright notice see file Copyright         |
\*---------------------------------------------------------------------------*/
FoamFile
{
    version     2.0;
    format      ascii;
    class       surfaceScalarField;
    location    "160";
    object      AdSS1;
}
// * * * * * * * * * * * * * * * * * * * * * * * * * * * * * * * * * * * * * //

dimensions      [0 3 -1 0 0 0 0];

internalField   nonuniform List<scalar> 
191380
(
6.20162e-05
2.38443e-05
4.34316e-05
3.1951e-06
3.68831e-05
-8.84091e-06
3.4861e-05
-1.33674e-05
3.39662e-05
-1.44946e-05
3.33299e-05
-1.47532e-05
3.27754e-05
-1.4835e-05
3.22528e-05
-1.48668e-05
3.17611e-05
-1.48978e-05
3.13152e-05
-1.49436e-05
3.09159e-05
-1.49901e-05
3.05513e-05
-1.50249e-05
3.0221e-05
-1.50592e-05
2.99228e-05
-1.50912e-05
2.96509e-05
-1.51176e-05
2.94014e-05
-1.51399e-05
2.91694e-05
-1.51575e-05
2.89547e-05
-1.51748e-05
2.87583e-05
-1.51931e-05
2.85779e-05
-1.52091e-05
2.84077e-05
-1.52193e-05
2.82466e-05
-1.52283e-05
2.80941e-05
-1.5237e-05
2.79505e-05
-1.52459e-05
2.78145e-05
-1.52535e-05
2.76852e-05
-1.52601e-05
2.75619e-05
-1.52662e-05
2.74442e-05
-1.52717e-05
2.73324e-05
-1.52777e-05
2.72255e-05
-1.52825e-05
2.71233e-05
-1.52872e-05
2.7025e-05
-1.52911e-05
2.69306e-05
-1.52951e-05
2.68399e-05
-1.52988e-05
2.6753e-05
-1.53026e-05
2.66692e-05
-1.53057e-05
2.65883e-05
-1.53086e-05
2.65103e-05
-1.53114e-05
2.64346e-05
-1.53138e-05
2.63619e-05
-1.53167e-05
2.62914e-05
-1.5319e-05
2.62232e-05
-1.53213e-05
2.6157e-05
-1.53233e-05
2.60927e-05
-1.53252e-05
2.60305e-05
-1.53272e-05
2.597e-05
-1.5329e-05
2.59115e-05
-1.53309e-05
2.58544e-05
-1.53323e-05
2.5799e-05
-1.5334e-05
2.57449e-05
-1.53354e-05
2.56922e-05
-1.53368e-05
2.56411e-05
-1.53383e-05
2.55912e-05
-1.53396e-05
2.55427e-05
-1.53409e-05
2.54953e-05
-1.53421e-05
2.5449e-05
-1.53432e-05
2.54039e-05
-1.53444e-05
2.53595e-05
-1.5345e-05
2.5316e-05
-1.5346e-05
2.52736e-05
-1.5347e-05
2.52323e-05
-1.53482e-05
2.5192e-05
-1.53492e-05
2.51527e-05
-1.53502e-05
2.51144e-05
-1.53512e-05
2.50772e-05
-1.53522e-05
2.50409e-05
-1.53532e-05
2.50056e-05
-1.53541e-05
2.49713e-05
-1.53551e-05
2.49379e-05
-1.53561e-05
2.49057e-05
-1.53573e-05
2.48745e-05
-1.53582e-05
2.48445e-05
-1.53595e-05
2.48157e-05
-1.53606e-05
2.47883e-05
-1.5362e-05
2.47621e-05
-1.53633e-05
2.47377e-05
-1.5365e-05
2.47146e-05
-1.53664e-05
2.46939e-05
-1.53687e-05
2.46748e-05
-1.53704e-05
2.46588e-05
-1.53734e-05
2.46448e-05
-1.53755e-05
2.46349e-05
-1.53796e-05
2.46275e-05
-1.53821e-05
2.46266e-05
-1.53885e-05
2.46283e-05
-1.53912e-05
2.46371e-05
-1.53982e-05
2.4652e-05
-1.54044e-05
2.46786e-05
-1.54161e-05
2.47123e-05
-1.54231e-05
2.4764e-05
-1.54412e-05
2.48266e-05
-1.54521e-05
2.49191e-05
-1.5482e-05
2.50303e-05
-1.55006e-05
2.51958e-05
-1.5555e-05
2.54066e-05
-1.56003e-05
2.57558e-05
-1.57386e-05
2.60898e-05
-1.57235e-05
2.7392e-05
-1.66917e-05
2.82523e-05
-1.62498e-05
1.96581e-05
-6.72099e-06
1.48494e-05
-1.0325e-05
1.72769e-05
-1.74016e-05
1.80097e-05
-1.56206e-05
1.87249e-05
-1.5545e-05
1.90338e-05
-1.50951e-05
1.94407e-05
-1.51587e-05
1.97383e-05
-1.50235e-05
2.00457e-05
-1.50111e-05
2.01263e-05
-1.47632e-05
2.0261e-05
-1.59552e-05
2.07622e-05
-1.89527e-05
2.04003e-05
-1.89488e-05
2.09556e-05
-1.81691e-05
2.05574e-05
-1.56918e-05
1.97412e-05
-1.36156e-05
1.9987e-05
-1.23538e-05
2.08274e-05
-1.2632e-05
2.09082e-05
-1.36836e-05
2.07915e-05
-1.56511e-05
2.12921e-05
-1.90373e-05
2.0255e-05
-1.8459e-05
2.09042e-05
-1.83019e-05
2.04656e-05
-1.46575e-05
2.24872e-05
-1.41202e-05
2.1974e-05
-1.08074e-05
2.07902e-05
-1.21855e-05
2.07317e-05
-1.4497e-05
2.00635e-05
-1.38875e-05
2.12903e-05
-1.7001e-05
2.04527e-05
-1.77964e-05
2.10434e-05
-2.02205e-05
2.07314e-05
-1.62363e-05
2.17067e-05
-1.32834e-05
2.16569e-05
-1.12211e-05
2.28773e-05
-1.45444e-05
2.24417e-05
-1.52177e-05
1.97979e-05
-1.56906e-05
2.04456e-05
-2.00012e-05
2.00786e-05
-1.73821e-05
2.10628e-05
-1.65545e-05
2.18757e-05
-1.32107e-05
2.19401e-05
-1.12042e-05
2.31823e-05
-1.4492e-05
2.29805e-05
-1.5817e-05
2.17736e-05
-1.77804e-05
2.01126e-05
-1.80117e-05
2.06332e-05
-1.69649e-05
2.206e-05
-1.36254e-05
2.22721e-05
-1.12986e-05
2.29526e-05
-1.40548e-05
2.29941e-05
-1.66184e-05
2.30034e-05
-1.99913e-05
2.12655e-05
-1.82544e-05
2.0578e-05
-1.49237e-05
2.19435e-05
-1.29062e-05
2.28684e-05
-1.19924e-05
2.21659e-05
-1.24877e-05
2.08521e-05
-1.45777e-05
2.11356e-05
-1.98112e-05
2.20206e-05
-2.1652e-05
2.23523e-05
-1.69895e-05
2.25471e-05
-1.16303e-05
2.32709e-05
-1.12084e-05
2.2245e-05
-1.32226e-05
2.11585e-05
-1.73019e-05
1.9959e-05
-1.77918e-05
2.02111e-05
-1.75947e-05
2.12787e-05
-1.6334e-05
2.16307e-05
-1.24145e-05
2.28728e-05
-1.23561e-05
2.2662e-05
-1.4799e-05
2.23432e-05
-1.97097e-05
2.25253e-05
-2.09881e-05
2.18955e-05
-1.65195e-05
2.05082e-05
-1.19938e-05
2.07087e-05
-1.10921e-05
2.13756e-05
-1.16233e-05
2.18095e-05
-1.52168e-05
2.18923e-05
-1.958e-05
2.16237e-05
-2.03497e-05
2.21771e-05
-1.8521e-05
2.11718e-05
-1.46132e-05
2.03367e-05
-1.29986e-05
2.06694e-05
-1.17848e-05
2.15912e-05
-1.21741e-05
2.24208e-05
-1.43539e-05
2.2707e-05
-1.635e-05
2.17391e-05
-1.77602e-05
1.98715e-05
-1.75084e-05
2.09886e-05
-1.74161e-05
2.13062e-05
-1.24715e-05
2.22186e-05
-1.20843e-05
2.23055e-05
-1.36133e-05
2.32202e-05
-1.73858e-05
2.26614e-05
-1.88047e-05
2.05891e-05
-1.74551e-05
2.08465e-05
-1.58184e-05
1.99838e-05
-1.06665e-05
2.07761e-05
-1.2028e-05
2.00541e-05
-1.27446e-05
2.21444e-05
-1.8027e-05
2.16719e-05
-1.86524e-05
2.08464e-05
-1.92912e-05
2.13248e-05
-1.6869e-05
2.1468e-05
-1.21269e-05
2.33581e-05
-1.33273e-05
2.25257e-05
-1.4013e-05
2.18913e-05
-1.7952e-05
1.99413e-05
-1.73162e-05
2.12792e-05
-1.90597e-05
2.12458e-05
-1.53361e-05
2.21667e-05
-1.29148e-05
2.27413e-05
-1.18186e-05
2.31783e-05
-1.40317e-05
2.25418e-05
-1.52935e-05
2.09476e-05
-1.70076e-05
2.08762e-05
-1.86558e-05
1.88672e-05
-1.41522e-05
2.02051e-05
-1.58075e-05
2.01273e-05
-1.24645e-05
2.2248e-05
-1.40021e-05
2.03776e-05
-1.31527e-05
2.13506e-05
-1.98716e-05
2.06847e-05
-1.86341e-05
2.01858e-05
-1.68826e-05
2.19174e-05
-1.68771e-05
2.13038e-05
-1.1402e-05
2.33515e-05
-1.32517e-05
2.10106e-05
-1.09705e-05
2.19021e-05
-1.6663e-05
2.04883e-05
-1.74397e-05
2.15224e-05
-2.05277e-05
2.00603e-05
-1.4247e-05
2.13087e-05
-1.30694e-05
2.18975e-05
-1.21369e-05
2.14928e-05
-1.4464e-05
2.19589e-05
-1.96382e-05
2.08715e-05
-1.93047e-05
2.25403e-05
-1.96098e-05
2.09022e-05
-1.30679e-05
2.11986e-05
-1.18311e-05
1.97515e-05
-9.38822e-06
2.23028e-05
-1.57629e-05
2.0507e-05
-1.43061e-05
2.20668e-05
-2.08714e-05
2.10057e-05
-1.88354e-05
2.09496e-05
-1.61078e-05
2.11579e-05
-1.2118e-05
2.09722e-05
-1.09058e-05
2.02397e-05
-1.38173e-05
1.91682e-05
-1.75261e-05
2.16528e-05
-2.16616e-05
2.00293e-05
-1.57019e-05
2.21342e-05
-1.70143e-05
1.99049e-05
-9.67406e-06
2.21858e-05
-1.36322e-05
2.09051e-05
-1.22885e-05
2.23171e-05
-1.7287e-05
2.05101e-05
-1.69896e-05
2.1173e-05
-2.06904e-05
2.16035e-05
-1.68826e-05
2.034e-05
-1.03468e-05
2.06509e-05
-1.12262e-05
2.03492e-05
-1.30321e-05
2.08873e-05
-1.51529e-05
2.01791e-05
-1.39567e-05
2.25567e-05
-1.71271e-05
2.13429e-05
-1.35012e-05
2.14563e-05
-1.46682e-05
1.98763e-05
-1.29286e-05
2.07702e-05
-1.54727e-05
1.93327e-05
-1.31712e-05
2.1504e-05
-1.6788e-05
1.98104e-05
-1.2969e-05
2.20295e-05
-1.69786e-05
2.18469e-05
-1.46246e-05
2.21723e-05
-1.5011e-05
2.029e-05
-1.27394e-05
2.1602e-05
-1.60943e-05
2.21549e-05
-1.53666e-05
2.12563e-05
-1.37126e-05
2.09689e-05
-1.41344e-05
1.97067e-05
-1.31449e-05
2.09177e-05
-1.57648e-05
1.88195e-05
-1.25492e-05
1.98872e-05
-1.5718e-05
2.11218e-05
-1.58958e-05
2.11551e-05
-1.47136e-05
2.11242e-05
-1.46626e-05
2.16305e-05
-1.52156e-05
2.15744e-05
-1.46745e-05
2.22442e-05
-1.54283e-05
2.225e-05
-1.48023e-05
2.3264e-05
-1.58642e-05
2.41332e-05
-1.58056e-05
3.13896e-05
-2.23648e-05
3.00596e-05
-1.39781e-05
2.31475e-05
-8.47737e-06
2.13904e-05
-1.36324e-05
-1.46399e-05
8.94817e-05
3.56127e-05
7.65994e-05
1.60774e-05
6.8042e-05
-2.83462e-07
6.32813e-05
-8.60669e-06
6.03139e-05
-1.15273e-05
5.82033e-05
-1.26425e-05
5.65594e-05
-1.31912e-05
5.5187e-05
-1.34944e-05
5.40282e-05
-1.37389e-05
5.30422e-05
-1.39577e-05
5.21841e-05
-1.4132e-05
5.14251e-05
-1.42659e-05
5.07532e-05
-1.43873e-05
5.01583e-05
-1.44963e-05
4.96219e-05
-1.45812e-05
4.91339e-05
-1.46519e-05
4.86864e-05
-1.47101e-05
4.82768e-05
-1.47651e-05
4.78994e-05
-1.48158e-05
4.75473e-05
-1.48569e-05
4.72174e-05
-1.48894e-05
4.69083e-05
-1.49192e-05
4.66186e-05
-1.49473e-05
4.6347e-05
-1.49743e-05
4.60909e-05
-1.49973e-05
4.58485e-05
-1.50177e-05
4.56189e-05
-1.50366e-05
4.54008e-05
-1.50536e-05
4.51944e-05
-1.50713e-05
4.49976e-05
-1.50857e-05
4.48099e-05
-1.50996e-05
4.46302e-05
-1.51115e-05
4.44584e-05
-1.51232e-05
4.42939e-05
-1.51343e-05
4.41363e-05
-1.5145e-05
4.39849e-05
-1.51542e-05
4.38391e-05
-1.51627e-05
4.36988e-05
-1.51712e-05
4.35634e-05
-1.51784e-05
4.34331e-05
-1.51864e-05
4.33073e-05
-1.51931e-05
4.31857e-05
-1.51996e-05
4.3068e-05
-1.52057e-05
4.29539e-05
-1.52111e-05
4.28436e-05
-1.52169e-05
4.27366e-05
-1.5222e-05
4.26331e-05
-1.52274e-05
4.25324e-05
-1.52316e-05
4.24347e-05
-1.52363e-05
4.23396e-05
-1.52403e-05
4.22471e-05
-1.52444e-05
4.21573e-05
-1.52485e-05
4.207e-05
-1.52522e-05
4.19849e-05
-1.52558e-05
4.1902e-05
-1.52592e-05
4.18212e-05
-1.52624e-05
4.17424e-05
-1.52656e-05
4.16657e-05
-1.52683e-05
4.15913e-05
-1.52716e-05
4.15186e-05
-1.52744e-05
4.14479e-05
-1.52774e-05
4.13789e-05
-1.52802e-05
4.13118e-05
-1.5283e-05
4.12462e-05
-1.52856e-05
4.11825e-05
-1.52885e-05
4.11204e-05
-1.5291e-05
4.106e-05
-1.52938e-05
4.10012e-05
-1.52963e-05
4.09441e-05
-1.5299e-05
4.08888e-05
-1.53019e-05
4.08353e-05
-1.53047e-05
4.07836e-05
-1.53079e-05
4.07339e-05
-1.5311e-05
4.06863e-05
-1.53144e-05
4.06408e-05
-1.53178e-05
4.0598e-05
-1.53222e-05
4.05574e-05
-1.53259e-05
4.05202e-05
-1.53314e-05
4.04859e-05
-1.53361e-05
4.04557e-05
-1.53432e-05
4.04292e-05
-1.53489e-05
4.04083e-05
-1.53588e-05
4.03918e-05
-1.53656e-05
4.03839e-05
-1.53806e-05
4.03818e-05
-1.53891e-05
4.03898e-05
-1.54062e-05
4.04063e-05
-1.54209e-05
4.04394e-05
-1.54491e-05
4.04837e-05
-1.54675e-05
4.05561e-05
-1.55136e-05
4.06442e-05
-1.55402e-05
4.07774e-05
-1.56152e-05
4.09396e-05
-1.56627e-05
4.11784e-05
-1.57938e-05
4.14799e-05
-1.59018e-05
4.19581e-05
-1.62167e-05
4.25246e-05
-1.629e-05
4.40757e-05
-1.82428e-05
4.55243e-05
-1.76984e-05
3.6982e-05
1.82129e-06
2.94766e-05
-2.81962e-06
2.98558e-05
-1.77808e-05
3.02394e-05
-1.60042e-05
3.08047e-05
-1.61103e-05
3.11412e-05
-1.54316e-05
3.16133e-05
-1.56308e-05
3.19999e-05
-1.54102e-05
3.24213e-05
-1.54325e-05
3.25675e-05
-1.49093e-05
3.29058e-05
-1.62935e-05
3.35798e-05
-1.96268e-05
3.3473e-05
-1.88419e-05
3.40339e-05
-1.87299e-05
3.37626e-05
-1.54206e-05
3.28894e-05
-1.27423e-05
3.28073e-05
-1.22717e-05
3.35415e-05
-1.33662e-05
3.37627e-05
-1.39047e-05
3.39647e-05
-1.58531e-05
3.44489e-05
-1.95215e-05
3.36894e-05
-1.76996e-05
3.4124e-05
-1.87365e-05
3.39242e-05
-1.44578e-05
3.56861e-05
-1.58822e-05
3.5604e-05
-1.07253e-05
3.47078e-05
-1.12893e-05
3.41173e-05
-1.39065e-05
3.33819e-05
-1.31521e-05
3.43201e-05
-1.79393e-05
3.38917e-05
-1.7368e-05
3.4372e-05
-2.07008e-05
3.42304e-05
-1.60947e-05
3.50522e-05
-1.41052e-05
3.52573e-05
-1.14263e-05
3.65983e-05
-1.58854e-05
3.6284e-05
-1.49034e-05
3.39148e-05
-1.33214e-05
3.40517e-05
-2.01381e-05
3.37426e-05
-1.7073e-05
3.44689e-05
-1.72809e-05
3.5152e-05
-1.38937e-05
3.56319e-05
-1.16842e-05
3.69599e-05
-1.582e-05
3.72691e-05
-1.61262e-05
3.62172e-05
-1.67284e-05
3.43126e-05
-1.61071e-05
3.44649e-05
-1.71172e-05
3.55754e-05
-1.47359e-05
3.60389e-05
-1.17621e-05
3.68259e-05
-1.48418e-05
3.72514e-05
-1.70438e-05
3.7486e-05
-2.02259e-05
3.59008e-05
-1.66692e-05
3.48847e-05
-1.39076e-05
3.58046e-05
-1.38261e-05
3.68052e-05
-1.2993e-05
3.61939e-05
-1.18763e-05
3.48578e-05
-1.32416e-05
3.49367e-05
-1.98901e-05
3.59337e-05
-2.26491e-05
3.65651e-05
-1.76208e-05
3.68133e-05
-1.18785e-05
3.74597e-05
-1.18548e-05
3.6772e-05
-1.25349e-05
3.54711e-05
-1.60011e-05
3.38533e-05
-1.6174e-05
3.37927e-05
-1.7534e-05
3.45862e-05
-1.71275e-05
3.51205e-05
-1.29488e-05
3.64799e-05
-1.37155e-05
3.66635e-05
-1.49825e-05
3.66383e-05
-1.96845e-05
3.69332e-05
-2.1283e-05
3.63665e-05
-1.59528e-05
3.46707e-05
-1.0298e-05
3.42473e-05
-1.06686e-05
3.4711e-05
-1.2087e-05
3.53331e-05
-1.5839e-05
3.56266e-05
-1.98735e-05
3.55987e-05
-2.03218e-05
3.61812e-05
-1.91035e-05
3.52827e-05
-1.37147e-05
3.41746e-05
-1.18905e-05
3.40498e-05
-1.166e-05
3.48779e-05
-1.30022e-05
3.59801e-05
-1.54561e-05
3.6691e-05
-1.70609e-05
3.58334e-05
-1.69026e-05
3.39353e-05
-1.56103e-05
3.45359e-05
-1.80166e-05
3.49019e-05
-1.28375e-05
3.57832e-05
-1.29656e-05
3.61938e-05
-1.40239e-05
3.73902e-05
-1.85822e-05
3.70374e-05
-1.8452e-05
3.52449e-05
-1.56626e-05
3.47639e-05
-1.53374e-05
3.36544e-05
-9.55708e-06
3.39162e-05
-1.22898e-05
3.33498e-05
-1.21782e-05
3.52033e-05
-1.98805e-05
3.54009e-05
-1.88501e-05
3.49114e-05
-1.88017e-05
3.49421e-05
-1.68997e-05
3.52894e-05
-1.24742e-05
3.70395e-05
-1.50774e-05
3.68696e-05
-1.38431e-05
3.61539e-05
-1.72363e-05
3.41196e-05
-1.52819e-05
3.4959e-05
-1.98991e-05
3.50725e-05
-1.54495e-05
3.59265e-05
-1.37688e-05
3.66282e-05
-1.25204e-05
3.73585e-05
-1.4762e-05
3.69271e-05
-1.48621e-05
3.5549e-05
-1.56296e-05
3.46629e-05
-1.77697e-05
3.24598e-05
-1.19491e-05
3.30877e-05
-1.64354e-05
3.3225e-05
-1.26019e-05
3.51463e-05
-1.59233e-05
3.39665e-05
-1.1973e-05
3.464e-05
-2.05451e-05
3.42634e-05
-1.82575e-05
3.41746e-05
-1.67937e-05
3.52713e-05
-1.79738e-05
3.51044e-05
-1.12351e-05
3.69064e-05
-1.50537e-05
3.51966e-05
-9.26076e-06
3.56536e-05
-1.71201e-05
3.45063e-05
-1.62924e-05
3.5138e-05
-2.11594e-05
3.3933e-05
-1.30421e-05
3.47061e-05
-1.38425e-05
3.53187e-05
-1.27496e-05
3.54775e-05
-1.46228e-05
3.56809e-05
-1.98416e-05
3.49836e-05
-1.86074e-05
3.63449e-05
-2.09711e-05
3.52478e-05
-1.19708e-05
3.48534e-05
-1.14367e-05
3.32589e-05
-7.79378e-06
3.52751e-05
-1.77791e-05
3.42931e-05
-1.33241e-05
3.5615e-05
-2.21934e-05
3.49204e-05
-1.81407e-05
3.47273e-05
-1.59147e-05
3.4798e-05
-1.21888e-05
3.44606e-05
-1.05683e-05
3.32935e-05
-1.26502e-05
3.26752e-05
-1.69078e-05
3.46282e-05
-2.36146e-05
3.36336e-05
-1.47074e-05
3.5331e-05
-1.87117e-05
3.37007e-05
-8.04375e-06
3.53502e-05
-1.52818e-05
3.46917e-05
-1.163e-05
3.58068e-05
-1.84021e-05
3.45098e-05
-1.56927e-05
3.50249e-05
-2.12056e-05
3.52834e-05
-1.71411e-05
3.42629e-05
-9.32625e-06
3.40743e-05
-1.10377e-05
3.36267e-05
-1.25846e-05
3.3807e-05
-1.53332e-05
3.34828e-05
-1.36324e-05
3.56459e-05
-1.92902e-05
3.52122e-05
-1.30675e-05
3.49851e-05
-1.44411e-05
3.35064e-05
-1.145e-05
3.37388e-05
-1.57051e-05
3.24423e-05
-1.18747e-05
3.42412e-05
-1.85869e-05
3.32113e-05
-1.19391e-05
3.50334e-05
-1.88007e-05
3.53927e-05
-1.49839e-05
3.57346e-05
-1.53528e-05
3.41533e-05
-1.11581e-05
3.51648e-05
-1.71057e-05
3.57999e-05
-1.60017e-05
3.52694e-05
-1.31821e-05
3.44945e-05
-1.33596e-05
3.31499e-05
-1.18002e-05
3.38585e-05
-1.64734e-05
3.2114e-05
-1.08047e-05
3.26763e-05
-1.62804e-05
3.37971e-05
-1.70166e-05
3.41679e-05
-1.50845e-05
3.43849e-05
-1.48797e-05
3.48847e-05
-1.57153e-05
3.51167e-05
-1.49065e-05
3.57549e-05
-1.60664e-05
3.62098e-05
-1.52572e-05
3.69896e-05
-1.6644e-05
3.90908e-05
-1.79068e-05
4.71224e-05
-3.03964e-05
4.76369e-05
-1.44926e-05
4.15774e-05
-2.41782e-06
3.77998e-05
-9.85484e-06
-1.27285e-05
9.94288e-05
3.74339e-05
9.34365e-05
2.20696e-05
8.60997e-05
7.0534e-06
8.00867e-05
-2.59371e-06
7.57095e-05
-7.15003e-06
7.24369e-05
-9.36997e-06
6.99182e-05
-1.06725e-05
6.79141e-05
-1.14903e-05
6.62808e-05
-1.21056e-05
6.49103e-05
-1.25871e-05
6.37256e-05
-1.29473e-05
6.2691e-05
-1.32313e-05
6.17843e-05
-1.34806e-05
6.0986e-05
-1.36979e-05
6.02685e-05
-1.38637e-05
5.96186e-05
-1.4002e-05
5.9027e-05
-1.41185e-05
5.84879e-05
-1.4226e-05
5.79938e-05
-1.43216e-05
5.7535e-05
-1.43982e-05
5.71075e-05
-1.44619e-05
5.67087e-05
-1.45204e-05
5.63363e-05
-1.45749e-05
5.59877e-05
-1.46257e-05
5.56595e-05
-1.46691e-05
5.53495e-05
-1.47078e-05
5.50567e-05
-1.47438e-05
5.47792e-05
-1.47761e-05
5.45168e-05
-1.48089e-05
5.42669e-05
-1.48359e-05
5.4029e-05
-1.48616e-05
5.38017e-05
-1.48842e-05
5.35846e-05
-1.49061e-05
5.3377e-05
-1.49267e-05
5.31784e-05
-1.49464e-05
5.29877e-05
-1.49636e-05
5.28043e-05
-1.49793e-05
5.26281e-05
-1.4995e-05
5.24583e-05
-1.50085e-05
5.2295e-05
-1.50231e-05
5.21374e-05
-1.50355e-05
5.19851e-05
-1.50474e-05
5.1838e-05
-1.50586e-05
5.16956e-05
-1.50686e-05
5.15579e-05
-1.50792e-05
5.14245e-05
-1.50886e-05
5.12954e-05
-1.50984e-05
5.117e-05
-1.51061e-05
5.10484e-05
-1.51147e-05
5.09301e-05
-1.51221e-05
5.08152e-05
-1.51295e-05
5.07037e-05
-1.51369e-05
5.05952e-05
-1.51437e-05
5.04896e-05
-1.51502e-05
5.03868e-05
-1.51564e-05
5.02866e-05
-1.51621e-05
5.01891e-05
-1.51681e-05
5.00941e-05
-1.51733e-05
5.00019e-05
-1.51793e-05
4.99119e-05
-1.51844e-05
4.98244e-05
-1.51899e-05
4.97389e-05
-1.51948e-05
4.96558e-05
-1.51999e-05
4.95747e-05
-1.52046e-05
4.94959e-05
-1.52097e-05
4.9419e-05
-1.52141e-05
4.93443e-05
-1.5219e-05
4.92715e-05
-1.52235e-05
4.92008e-05
-1.52283e-05
4.91322e-05
-1.52333e-05
4.90658e-05
-1.52383e-05
4.90017e-05
-1.52437e-05
4.89399e-05
-1.52492e-05
4.88806e-05
-1.52551e-05
4.88238e-05
-1.5261e-05
4.877e-05
-1.52684e-05
4.87191e-05
-1.5275e-05
4.86719e-05
-1.52842e-05
4.86282e-05
-1.52924e-05
4.85891e-05
-1.53042e-05
4.85543e-05
-1.53141e-05
4.85259e-05
-1.53303e-05
4.85027e-05
-1.53423e-05
4.84885e-05
-1.53664e-05
4.84819e-05
-1.53825e-05
4.84871e-05
-1.54114e-05
4.85012e-05
-1.5435e-05
4.85332e-05
-1.54812e-05
4.85788e-05
-1.5513e-05
4.86554e-05
-1.55901e-05
4.87501e-05
-1.5635e-05
4.88937e-05
-1.57588e-05
4.90702e-05
-1.58393e-05
4.93295e-05
-1.60531e-05
4.96562e-05
-1.62285e-05
5.01697e-05
-1.67303e-05
5.07899e-05
-1.69102e-05
5.23883e-05
-1.98411e-05
5.35103e-05
-1.88204e-05
4.6707e-05
8.62463e-06
3.92894e-05
4.59797e-06
3.75546e-05
-1.6046e-05
3.73303e-05
-1.57799e-05
3.75352e-05
-1.63152e-05
3.77166e-05
-1.56129e-05
3.81045e-05
-1.60188e-05
3.84445e-05
-1.57501e-05
3.88682e-05
-1.58562e-05
3.90262e-05
-1.50673e-05
3.94115e-05
-1.66788e-05
4.00457e-05
-2.0261e-05
4.01319e-05
-1.89282e-05
4.06059e-05
-1.9204e-05
4.04842e-05
-1.52988e-05
3.97695e-05
-1.20277e-05
3.95735e-05
-1.20757e-05
4.01509e-05
-1.39436e-05
4.03874e-05
-1.41412e-05
4.06377e-05
-1.61035e-05
4.09859e-05
-1.98696e-05
4.06151e-05
-1.73288e-05
4.08441e-05
-1.89654e-05
4.08791e-05
-1.44928e-05
4.22447e-05
-1.72477e-05
4.24321e-05
-1.09127e-05
4.18117e-05
-1.06689e-05
4.10996e-05
-1.31944e-05
4.04637e-05
-1.25162e-05
4.09573e-05
-1.84328e-05
4.08116e-05
-1.72223e-05
4.11324e-05
-2.10216e-05
4.11863e-05
-1.61486e-05
4.18487e-05
-1.47675e-05
4.22179e-05
-1.17955e-05
4.33123e-05
-1.69798e-05
4.31898e-05
-1.47809e-05
4.14456e-05
-1.15772e-05
4.11275e-05
-1.98201e-05
4.0869e-05
-1.68144e-05
4.14093e-05
-1.78212e-05
4.20001e-05
-1.44845e-05
4.26184e-05
-1.23025e-05
4.38382e-05
-1.70398e-05
4.43545e-05
-1.66424e-05
4.35085e-05
-1.58825e-05
4.18357e-05
-1.44343e-05
4.17368e-05
-1.70183e-05
4.2513e-05
-1.5512e-05
4.30947e-05
-1.23438e-05
4.38464e-05
-1.55936e-05
4.44319e-05
-1.76293e-05
4.46656e-05
-2.04596e-05
4.33903e-05
-1.5394e-05
4.24635e-05
-1.29808e-05
4.30349e-05
-1.43975e-05
4.38661e-05
-1.38242e-05
4.34262e-05
-1.14363e-05
4.22655e-05
-1.2081e-05
4.21559e-05
-1.97805e-05
4.3023e-05
-2.35161e-05
4.37153e-05
-1.83131e-05
4.40933e-05
-1.22565e-05
4.46248e-05
-1.23863e-05
4.41871e-05
-1.20973e-05
4.29219e-05
-1.47359e-05
4.13124e-05
-1.45645e-05
4.09958e-05
-1.72174e-05
4.14906e-05
-1.76224e-05
4.21135e-05
-1.35717e-05
4.33669e-05
-1.49689e-05
4.37447e-05
-1.53604e-05
4.3843e-05
-1.97828e-05
4.41625e-05
-2.16025e-05
4.37068e-05
-1.54971e-05
4.2149e-05
-8.7401e-06
4.14883e-05
-1.00079e-05
4.17585e-05
-1.23572e-05
4.23239e-05
-1.64044e-05
4.26148e-05
-2.01644e-05
4.27214e-05
-2.04284e-05
4.31797e-05
-1.95618e-05
4.25258e-05
-1.30609e-05
4.14844e-05
-1.08491e-05
4.11573e-05
-1.13329e-05
4.18194e-05
-1.36643e-05
4.28456e-05
-1.64823e-05
4.35867e-05
-1.78019e-05
4.29313e-05
-1.62472e-05
4.1444e-05
-1.4123e-05
4.16206e-05
-1.81932e-05
4.19995e-05
-1.32164e-05
4.27377e-05
-1.37038e-05
4.3285e-05
-1.45712e-05
4.43458e-05
-1.9643e-05
4.41722e-05
-1.82783e-05
4.28842e-05
-1.43746e-05
4.20223e-05
-1.44755e-05
4.09762e-05
-8.51096e-06
4.08721e-05
-1.21857e-05
4.04431e-05
-1.17492e-05
4.18776e-05
-2.13151e-05
4.23124e-05
-1.92848e-05
4.20157e-05
-1.8505e-05
4.19494e-05
-1.68335e-05
4.24634e-05
-1.29881e-05
4.38496e-05
-1.64636e-05
4.4025e-05
-1.40185e-05
4.3305e-05
-1.65163e-05
4.16272e-05
-1.36041e-05
4.20446e-05
-2.03165e-05
4.22542e-05
-1.56591e-05
4.29827e-05
-1.44973e-05
4.3706e-05
-1.32438e-05
4.44133e-05
-1.54692e-05
4.41327e-05
-1.45815e-05
4.30963e-05
-1.45932e-05
4.18791e-05
-1.65524e-05
3.99332e-05
-1.00033e-05
3.99493e-05
-1.64515e-05
4.02356e-05
-1.28883e-05
4.16846e-05
-1.73723e-05
4.10209e-05
-1.13093e-05
4.14548e-05
-2.0979e-05
4.13663e-05
-1.8169e-05
4.1321e-05
-1.67484e-05
4.19487e-05
-1.86015e-05
4.22795e-05
-1.1566e-05
4.35601e-05
-1.63343e-05
4.25788e-05
-8.27944e-06
4.25845e-05
-1.71258e-05
4.18181e-05
-1.55259e-05
4.20523e-05
-2.13936e-05
4.11976e-05
-1.21874e-05
4.1699e-05
-1.43439e-05
4.23135e-05
-1.33641e-05
4.24975e-05
-1.48068e-05
4.25354e-05
-1.98794e-05
4.23007e-05
-1.83728e-05
4.31826e-05
-2.18529e-05
4.26389e-05
-1.14271e-05
4.19296e-05
-1.07274e-05
4.0642e-05
-6.50615e-06
4.18484e-05
-1.89855e-05
4.14581e-05
-1.29338e-05
4.23927e-05
-2.3128e-05
4.20234e-05
-1.77715e-05
4.17673e-05
-1.56587e-05
4.17817e-05
-1.22031e-05
4.15105e-05
-1.02971e-05
4.04642e-05
-1.16039e-05
3.9916e-05
-1.63596e-05
4.10673e-05
-2.47658e-05
4.08039e-05
-1.44441e-05
4.18383e-05
-1.9746e-05
4.10073e-05
-7.21274e-06
4.19986e-05
-1.62731e-05
4.18204e-05
-1.14518e-05
4.25504e-05
-1.91321e-05
4.17068e-05
-1.48491e-05
4.19419e-05
-2.14407e-05
4.22067e-05
-1.74059e-05
4.16034e-05
-8.72293e-06
4.11582e-05
-1.05926e-05
4.06208e-05
-1.20471e-05
4.04917e-05
-1.52041e-05
4.05448e-05
-1.36855e-05
4.21788e-05
-2.09242e-05
4.21708e-05
-1.30595e-05
4.18517e-05
-1.4122e-05
4.06844e-05
-1.02827e-05
4.03974e-05
-1.54181e-05
3.94952e-05
-1.09725e-05
4.06547e-05
-1.97464e-05
4.02559e-05
-1.15403e-05
4.15634e-05
-2.01082e-05
4.22206e-05
-1.56412e-05
4.24919e-05
-1.56241e-05
4.1363e-05
-1.00292e-05
4.20006e-05
-1.77433e-05
4.26213e-05
-1.66224e-05
4.23725e-05
-1.29333e-05
4.15237e-05
-1.25108e-05
4.03633e-05
-1.06398e-05
4.04729e-05
-1.65829e-05
3.91877e-05
-9.5195e-06
3.93667e-05
-1.64593e-05
4.03495e-05
-1.79994e-05
4.0823e-05
-1.5558e-05
4.11688e-05
-1.52255e-05
4.16008e-05
-1.61473e-05
4.20223e-05
-1.53281e-05
4.25611e-05
-1.66052e-05
4.3293e-05
-1.59891e-05
4.39007e-05
-1.72517e-05
4.6336e-05
-2.03422e-05
5.35568e-05
-3.76171e-05
5.54223e-05
-1.63581e-05
5.13814e-05
1.62314e-06
4.7054e-05
-5.52749e-06
-1.02006e-05
0.000102569
3.61152e-05
0.00010099
2.36487e-05
9.72211e-05
1.08218e-05
9.20747e-05
2.55274e-06
8.73721e-05
-2.44744e-06
8.34179e-05
-5.41577e-06
8.01889e-05
-7.4435e-06
7.75791e-05
-8.88049e-06
7.54536e-05
-9.98003e-06
7.36819e-05
-1.08154e-05
7.2183e-05
-1.14485e-05
7.08943e-05
-1.19426e-05
6.97719e-05
-1.23582e-05
6.87849e-05
-1.2711e-05
6.78983e-05
-1.29771e-05
6.70986e-05
-1.32023e-05
6.63751e-05
-1.3395e-05
6.57184e-05
-1.35693e-05
6.51175e-05
-1.37207e-05
6.45613e-05
-1.3842e-05
6.40455e-05
-1.3946e-05
6.35665e-05
-1.40414e-05
6.31205e-05
-1.41289e-05
6.27036e-05
-1.42088e-05
6.23117e-05
-1.42772e-05
6.19425e-05
-1.43387e-05
6.15946e-05
-1.43958e-05
6.12657e-05
-1.44472e-05
6.09549e-05
-1.44981e-05
6.06594e-05
-1.45404e-05
6.03784e-05
-1.45806e-05
6.01104e-05
-1.46163e-05
5.9855e-05
-1.46506e-05
5.96112e-05
-1.46829e-05
5.93779e-05
-1.47131e-05
5.91543e-05
-1.47399e-05
5.89395e-05
-1.47646e-05
5.87333e-05
-1.47888e-05
5.8535e-05
-1.48102e-05
5.83443e-05
-1.48325e-05
5.81605e-05
-1.48517e-05
5.79831e-05
-1.487e-05
5.78119e-05
-1.48874e-05
5.76463e-05
-1.4903e-05
5.74864e-05
-1.49193e-05
5.73315e-05
-1.49338e-05
5.71818e-05
-1.49486e-05
5.70364e-05
-1.49607e-05
5.68955e-05
-1.49738e-05
5.67587e-05
-1.49852e-05
5.66258e-05
-1.49967e-05
5.64969e-05
-1.5008e-05
5.63715e-05
-1.50184e-05
5.62496e-05
-1.50283e-05
5.6131e-05
-1.50378e-05
5.60155e-05
-1.50466e-05
5.59031e-05
-1.50557e-05
5.57936e-05
-1.50638e-05
5.56872e-05
-1.50729e-05
5.55835e-05
-1.50807e-05
5.54825e-05
-1.50889e-05
5.5384e-05
-1.50963e-05
5.52883e-05
-1.51041e-05
5.51948e-05
-1.51111e-05
5.5104e-05
-1.51189e-05
5.50154e-05
-1.51255e-05
5.49293e-05
-1.51329e-05
5.48454e-05
-1.51397e-05
5.4764e-05
-1.51469e-05
5.46849e-05
-1.51542e-05
5.46083e-05
-1.51617e-05
5.45342e-05
-1.51696e-05
5.44628e-05
-1.51778e-05
5.43941e-05
-1.51864e-05
5.43283e-05
-1.51952e-05
5.42657e-05
-1.52058e-05
5.42063e-05
-1.52156e-05
5.41508e-05
-1.52287e-05
5.40992e-05
-1.52408e-05
5.40525e-05
-1.52575e-05
5.40105e-05
-1.52721e-05
5.39751e-05
-1.5295e-05
5.39455e-05
-1.53127e-05
5.39251e-05
-1.5346e-05
5.39128e-05
-1.53702e-05
5.39136e-05
-1.54123e-05
5.3924e-05
-1.54454e-05
5.39517e-05
-1.55089e-05
5.39943e-05
-1.55556e-05
5.4069e-05
-1.56648e-05
5.41631e-05
-1.5729e-05
5.43065e-05
-1.59022e-05
5.44842e-05
-1.60169e-05
5.47459e-05
-1.63149e-05
5.50752e-05
-1.65577e-05
5.55893e-05
-1.72444e-05
5.62142e-05
-1.75352e-05
5.77502e-05
-2.13771e-05
5.8472e-05
-1.95422e-05
5.33068e-05
1.37898e-05
4.67221e-05
1.11827e-05
4.36036e-05
-1.29275e-05
4.27518e-05
-1.49281e-05
4.2527e-05
-1.60905e-05
4.24817e-05
-1.55676e-05
4.27153e-05
-1.62524e-05
4.2948e-05
-1.59828e-05
4.33132e-05
-1.62215e-05
4.34561e-05
-1.52101e-05
4.38328e-05
-1.70555e-05
4.43537e-05
-2.07819e-05
4.458e-05
-1.91545e-05
4.4973e-05
-1.9597e-05
4.49322e-05
-1.5258e-05
4.43876e-05
-1.14831e-05
4.41809e-05
-1.1869e-05
4.46248e-05
-1.43876e-05
4.48408e-05
-1.43572e-05
4.51143e-05
-1.63769e-05
4.53181e-05
-2.00734e-05
4.52142e-05
-1.72249e-05
4.52959e-05
-1.90471e-05
4.55216e-05
-1.47185e-05
4.65767e-05
-1.83028e-05
4.68808e-05
-1.12168e-05
4.64495e-05
-1.02375e-05
4.57535e-05
-1.24984e-05
4.52803e-05
-1.2043e-05
4.54519e-05
-1.86044e-05
4.54798e-05
-1.72502e-05
4.5638e-05
-2.11798e-05
4.5835e-05
-1.63457e-05
4.6359e-05
-1.52915e-05
4.6836e-05
-1.22725e-05
4.77072e-05
-1.7851e-05
4.76728e-05
-1.47465e-05
4.64669e-05
-1.03713e-05
4.58979e-05
-1.92511e-05
4.56897e-05
-1.66063e-05
4.60839e-05
-1.82154e-05
4.66128e-05
-1.50134e-05
4.7286e-05
-1.29757e-05
4.83368e-05
-1.80905e-05
4.89336e-05
-1.72393e-05
4.829e-05
-1.52389e-05
4.69184e-05
-1.30627e-05
4.66694e-05
-1.67692e-05
4.72004e-05
-1.6043e-05
4.78218e-05
-1.29651e-05
4.84943e-05
-1.62662e-05
4.91475e-05
-1.82824e-05
4.93297e-05
-2.06418e-05
4.83307e-05
-1.4395e-05
4.75556e-05
-1.22056e-05
4.79232e-05
-1.47651e-05
4.85803e-05
-1.44813e-05
4.82718e-05
-1.11278e-05
4.7323e-05
-1.11322e-05
4.7088e-05
-1.95455e-05
4.77692e-05
-2.41973e-05
4.8425e-05
-1.89689e-05
4.8896e-05
-1.27275e-05
4.93484e-05
-1.28387e-05
4.90911e-05
-1.18399e-05
4.79429e-05
-1.35876e-05
4.64656e-05
-1.30873e-05
4.59585e-05
-1.67103e-05
4.62045e-05
-1.78684e-05
4.68477e-05
-1.42149e-05
4.79385e-05
-1.60597e-05
4.84333e-05
-1.58552e-05
4.85974e-05
-1.99468e-05
4.88792e-05
-2.18843e-05
4.85088e-05
-1.51268e-05
4.71918e-05
-7.42311e-06
4.64874e-05
-9.30348e-06
4.66371e-05
-1.25069e-05
4.70781e-05
-1.68454e-05
4.72998e-05
-2.03861e-05
4.74597e-05
-2.05884e-05
4.77756e-05
-1.98777e-05
4.73133e-05
-1.25986e-05
4.64319e-05
-9.96769e-06
4.60655e-05
-1.09666e-05
4.65598e-05
-1.41585e-05
4.74064e-05
-1.7329e-05
4.80719e-05
-1.84674e-05
4.75867e-05
-1.5762e-05
4.65053e-05
-1.30417e-05
4.64187e-05
-1.81066e-05
4.68143e-05
-1.3612e-05
4.74092e-05
-1.42988e-05
4.8009e-05
-1.5171e-05
4.88777e-05
-2.05117e-05
4.87793e-05
-1.81799e-05
4.78997e-05
-1.3495e-05
4.68977e-05
-1.34735e-05
4.60321e-05
-7.64542e-06
4.56662e-05
-1.18197e-05
4.53701e-05
-1.14531e-05
4.63998e-05
-2.23448e-05
4.68824e-05
-1.97674e-05
4.67298e-05
-1.83524e-05
4.66789e-05
-1.67825e-05
4.72676e-05
-1.35769e-05
4.83094e-05
-1.75054e-05
4.86367e-05
-1.43458e-05
4.79689e-05
-1.58485e-05
4.67512e-05
-1.23864e-05
4.6834e-05
-2.03993e-05
4.7094e-05
-1.59191e-05
4.77006e-05
-1.51039e-05
4.84013e-05
-1.39445e-05
4.9023e-05
-1.60909e-05
4.88188e-05
-1.43773e-05
4.8039e-05
-1.38134e-05
4.67168e-05
-1.52302e-05
4.51528e-05
-8.43923e-06
4.47919e-05
-1.60906e-05
4.51221e-05
-1.32184e-05
4.60505e-05
-1.83007e-05
4.57731e-05
-1.10319e-05
4.60151e-05
-2.1221e-05
4.60627e-05
-1.82167e-05
4.6106e-05
-1.67917e-05
4.64597e-05
-1.89552e-05
4.70384e-05
-1.21447e-05
4.78488e-05
-1.71446e-05
4.74268e-05
-7.85747e-06
4.71502e-05
-1.68493e-05
4.67179e-05
-1.50935e-05
4.66508e-05
-2.13265e-05
4.60928e-05
-1.16294e-05
4.64107e-05
-1.46618e-05
4.69615e-05
-1.39149e-05
4.71881e-05
-1.50334e-05
4.71353e-05
-1.98266e-05
4.71536e-05
-1.83911e-05
4.76259e-05
-2.23252e-05
4.74398e-05
-1.1241e-05
4.66368e-05
-9.92446e-06
4.58103e-05
-5.67961e-06
4.63242e-05
-1.94994e-05
4.63046e-05
-1.29142e-05
4.68726e-05
-2.36961e-05
4.67258e-05
-1.76246e-05
4.64724e-05
-1.54053e-05
4.64369e-05
-1.21676e-05
4.62278e-05
-1.00879e-05
4.5394e-05
-1.07702e-05
4.49689e-05
-1.59345e-05
4.54362e-05
-2.52331e-05
4.55818e-05
-1.45897e-05
4.60735e-05
-2.02377e-05
4.58582e-05
-6.99747e-06
4.63956e-05
-1.68105e-05
4.65762e-05
-1.16323e-05
4.69807e-05
-1.95367e-05
4.64852e-05
-1.43535e-05
4.65645e-05
-2.152e-05
4.67604e-05
-1.76017e-05
4.64242e-05
-8.38678e-06
4.58969e-05
-1.00652e-05
4.54137e-05
-1.15639e-05
4.51748e-05
-1.49653e-05
4.53976e-05
-1.39083e-05
4.64598e-05
-2.19864e-05
4.66816e-05
-1.32813e-05
4.62877e-05
-1.37281e-05
4.54934e-05
-9.48841e-06
4.4994e-05
-1.49186e-05
4.44696e-05
-1.04481e-05
4.49589e-05
-2.02356e-05
4.49979e-05
-1.15793e-05
4.58945e-05
-2.10048e-05
4.66862e-05
-1.64328e-05
4.68665e-05
-1.58044e-05
4.61707e-05
-9.33339e-06