/*--------------------------------*- C++ -*----------------------------------*\
| =========                 |                                                 |
| \\      /  F ield         | foam-extend: Open Source CFD                    |
|  \\    /   O peration     | Version:     3.2                                |
|   \\  /    A nd           | Web:         http://www.foam-extend.org         |
|    \\/     M anipulation  | For copyright notice see file Copyright         |
\*---------------------------------------------------------------------------*/
FoamFile
{
    version     2.0;
    format      ascii;
    class       surfaceScalarField;
    location    "160";
    object      AdSS2;
}
// * * * * * * * * * * * * * * * * * * * * * * * * * * * * * * * * * * * * * //

dimensions      [0 3 -1 0 0 0 0];

internalField   nonuniform List<scalar> 
191380
(
6.20162e-05
-1.62924e-06
4.34316e-05
-2.22785e-05
3.68831e-05
-3.43145e-05
3.4861e-05
-3.88409e-05
3.39662e-05
-3.99682e-05
3.33299e-05
-4.02268e-05
3.27754e-05
-4.03086e-05
3.22528e-05
-4.03404e-05
3.17611e-05
-4.03714e-05
3.13152e-05
-4.04172e-05
3.09159e-05
-4.04637e-05
3.05513e-05
-4.04985e-05
3.0221e-05
-4.05328e-05
2.99228e-05
-4.05648e-05
2.96509e-05
-4.05912e-05
2.94014e-05
-4.06135e-05
2.91694e-05
-4.06311e-05
2.89547e-05
-4.06483e-05
2.87583e-05
-4.06667e-05
2.85779e-05
-4.06826e-05
2.84077e-05
-4.06929e-05
2.82466e-05
-4.07019e-05
2.80941e-05
-4.07106e-05
2.79505e-05
-4.07195e-05
2.78145e-05
-4.0727e-05
2.76852e-05
-4.07337e-05
2.75619e-05
-4.07398e-05
2.74442e-05
-4.07453e-05
2.73324e-05
-4.07513e-05
2.72255e-05
-4.07561e-05
2.71233e-05
-4.07608e-05
2.7025e-05
-4.07647e-05
2.69306e-05
-4.07687e-05
2.68399e-05
-4.07724e-05
2.6753e-05
-4.07761e-05
2.66692e-05
-4.07792e-05
2.65883e-05
-4.07821e-05
2.65103e-05
-4.0785e-05
2.64346e-05
-4.07874e-05
2.63619e-05
-4.07903e-05
2.62914e-05
-4.07926e-05
2.62232e-05
-4.07948e-05
2.6157e-05
-4.07969e-05
2.60927e-05
-4.07988e-05
2.60305e-05
-4.08008e-05
2.597e-05
-4.08026e-05
2.59115e-05
-4.08045e-05
2.58544e-05
-4.08059e-05
2.5799e-05
-4.08076e-05
2.57449e-05
-4.0809e-05
2.56922e-05
-4.08104e-05
2.56411e-05
-4.08119e-05
2.55912e-05
-4.08132e-05
2.55427e-05
-4.08145e-05
2.54953e-05
-4.08156e-05
2.5449e-05
-4.08168e-05
2.54039e-05
-4.08179e-05
2.53595e-05
-4.08186e-05
2.5316e-05
-4.08196e-05
2.52736e-05
-4.08206e-05
2.52323e-05
-4.08217e-05
2.5192e-05
-4.08227e-05
2.51527e-05
-4.08238e-05
2.51144e-05
-4.08248e-05
2.50772e-05
-4.08258e-05
2.50409e-05
-4.08268e-05
2.50056e-05
-4.08277e-05
2.49713e-05
-4.08287e-05
2.49379e-05
-4.08297e-05
2.49057e-05
-4.08308e-05
2.48745e-05
-4.08318e-05
2.48445e-05
-4.08331e-05
2.48157e-05
-4.08342e-05
2.47883e-05
-4.08356e-05
2.47621e-05
-4.08369e-05
2.47377e-05
-4.08386e-05
2.47146e-05
-4.084e-05
2.46939e-05
-4.08423e-05
2.46748e-05
-4.0844e-05
2.46588e-05
-4.0847e-05
2.46448e-05
-4.08491e-05
2.46349e-05
-4.08532e-05
2.46275e-05
-4.08557e-05
2.46266e-05
-4.08621e-05
2.46283e-05
-4.08648e-05
2.46371e-05
-4.08718e-05
2.4652e-05
-4.0878e-05
2.46786e-05
-4.08897e-05
2.47123e-05
-4.08967e-05
2.4764e-05
-4.09147e-05
2.48266e-05
-4.09257e-05
2.49191e-05
-4.09556e-05
2.50303e-05
-4.09742e-05
2.51958e-05
-4.10286e-05
2.54066e-05
-4.10739e-05
2.57558e-05
-4.12122e-05
2.60898e-05
-4.11971e-05
2.7392e-05
-4.21652e-05
2.82523e-05
-4.17234e-05
1.96581e-05
-3.21946e-05
1.48494e-05
-3.57986e-05
1.72769e-05
-4.28752e-05
1.80097e-05
-4.10942e-05
1.87249e-05
-4.10186e-05
1.90338e-05
-4.05687e-05
1.94407e-05
-4.06323e-05
1.97383e-05
-4.04971e-05
2.00457e-05
-4.04847e-05
2.01263e-05
-4.02368e-05
2.0261e-05
-4.14288e-05
2.07622e-05
-4.44263e-05
2.04003e-05
-4.44224e-05
2.09556e-05
-4.36427e-05
2.05574e-05
-4.11654e-05
1.97412e-05
-3.90892e-05
1.9987e-05
-3.78274e-05
2.08274e-05
-3.81056e-05
2.09082e-05
-3.91572e-05
2.07915e-05
-4.11247e-05
2.12921e-05
-4.45109e-05
2.0255e-05
-4.39326e-05
2.09042e-05
-4.37755e-05
2.04656e-05
-4.01311e-05
2.24872e-05
-3.95938e-05
2.1974e-05
-3.6281e-05
2.07902e-05
-3.76591e-05
2.07317e-05
-3.99706e-05
2.00635e-05
-3.9361e-05
2.12903e-05
-4.24746e-05
2.04527e-05
-4.327e-05
2.10434e-05
-4.56941e-05
2.07314e-05
-4.17099e-05
2.17067e-05
-3.8757e-05
2.16569e-05
-3.66947e-05
2.28773e-05
-4.0018e-05
2.24417e-05
-4.06913e-05
1.97979e-05
-4.11642e-05
2.04456e-05
-4.54748e-05
2.00786e-05
-4.28557e-05
2.10628e-05
-4.20281e-05
2.18757e-05
-3.86843e-05
2.19401e-05
-3.66778e-05
2.31823e-05
-3.99656e-05
2.29805e-05
-4.12906e-05
2.17736e-05
-4.3254e-05
2.01126e-05
-4.34853e-05
2.06332e-05
-4.24385e-05
2.206e-05
-3.90989e-05
2.22721e-05
-3.67722e-05
2.29526e-05
-3.95284e-05
2.29941e-05
-4.20919e-05
2.30034e-05
-4.54649e-05
2.12655e-05
-4.3728e-05
2.0578e-05
-4.03973e-05
2.19435e-05
-3.83798e-05
2.28684e-05
-3.7466e-05
2.21659e-05
-3.79613e-05
2.08521e-05
-4.00512e-05
2.11356e-05
-4.52848e-05
2.20206e-05
-4.71256e-05
2.23523e-05
-4.24631e-05
2.25471e-05
-3.71039e-05
2.32709e-05
-3.6682e-05
2.2245e-05
-3.86962e-05
2.11585e-05
-4.27755e-05
1.9959e-05
-4.32654e-05
2.02111e-05
-4.30682e-05
2.12787e-05
-4.18076e-05
2.16307e-05
-3.78881e-05
2.28728e-05
-3.78297e-05
2.2662e-05
-4.02726e-05
2.23432e-05
-4.51833e-05
2.25253e-05
-4.64617e-05
2.18955e-05
-4.1993e-05
2.05082e-05
-3.74674e-05
2.07087e-05
-3.65656e-05
2.13756e-05
-3.70969e-05
2.18095e-05
-4.06904e-05
2.18923e-05
-4.50536e-05
2.16237e-05
-4.58233e-05
2.21771e-05
-4.39946e-05
2.11718e-05
-4.00868e-05
2.03367e-05
-3.84722e-05
2.06694e-05
-3.72584e-05
2.15912e-05
-3.76476e-05
2.24208e-05
-3.98275e-05
2.2707e-05
-4.18236e-05
2.17391e-05
-4.32338e-05
1.98715e-05
-4.2982e-05
2.09886e-05
-4.28897e-05
2.13062e-05
-3.79451e-05
2.22186e-05
-3.75579e-05
2.23055e-05
-3.90869e-05
2.32202e-05
-4.28594e-05
2.26614e-05
-4.42783e-05
2.05891e-05
-4.29287e-05
2.08465e-05
-4.1292e-05
1.99838e-05
-3.61401e-05
2.07761e-05
-3.75016e-05
2.00541e-05
-3.82182e-05
2.21444e-05
-4.35006e-05
2.16719e-05
-4.4126e-05
2.08464e-05
-4.47648e-05
2.13248e-05
-4.23426e-05
2.1468e-05
-3.76005e-05
2.33581e-05
-3.88009e-05
2.25257e-05
-3.94866e-05
2.18913e-05
-4.34256e-05
1.99413e-05
-4.27898e-05
2.12792e-05
-4.45333e-05
2.12458e-05
-4.08097e-05
2.21667e-05
-3.83884e-05
2.27413e-05
-3.72922e-05
2.31783e-05
-3.95053e-05
2.25418e-05
-4.0767e-05
2.09476e-05
-4.24812e-05
2.08762e-05
-4.41294e-05
1.88672e-05
-3.96258e-05
2.02051e-05
-4.12811e-05
2.01273e-05
-3.79381e-05
2.2248e-05
-3.94757e-05
2.03776e-05
-3.86263e-05
2.13506e-05
-4.53452e-05
2.06847e-05
-4.41077e-05
2.01858e-05
-4.23562e-05
2.19174e-05
-4.23507e-05
2.13038e-05
-3.68756e-05
2.33515e-05
-3.87253e-05
2.10106e-05
-3.64441e-05
2.19021e-05
-4.21366e-05
2.04883e-05
-4.29133e-05
2.15224e-05
-4.60013e-05
2.00603e-05
-3.97206e-05
2.13087e-05
-3.8543e-05
2.18975e-05
-3.76105e-05
2.14928e-05
-3.99376e-05
2.19589e-05
-4.51117e-05
2.08715e-05
-4.47783e-05
2.25403e-05
-4.50834e-05
2.09022e-05
-3.85415e-05
2.11986e-05
-3.73047e-05
1.97515e-05
-3.48618e-05
2.23028e-05
-4.12365e-05
2.0507e-05
-3.97797e-05
2.20668e-05
-4.6345e-05
2.10057e-05
-4.4309e-05
2.09496e-05
-4.15814e-05
2.11579e-05
-3.75916e-05
2.09722e-05
-3.63793e-05
2.02397e-05
-3.92909e-05
1.91682e-05
-4.29997e-05
2.16528e-05
-4.71352e-05
2.00293e-05
-4.11755e-05
2.21342e-05
-4.24879e-05
1.99049e-05
-3.51477e-05
2.21858e-05
-3.91058e-05
2.09051e-05
-3.77621e-05
2.23171e-05
-4.27606e-05
2.05101e-05
-4.24632e-05
2.1173e-05
-4.6164e-05
2.16035e-05
-4.23562e-05
2.034e-05
-3.58204e-05
2.06509e-05
-3.66998e-05
2.03492e-05
-3.85057e-05
2.08873e-05
-4.06265e-05
2.01791e-05
-3.94303e-05
2.25567e-05
-4.26007e-05
2.13429e-05
-3.89748e-05
2.14563e-05
-4.01418e-05
1.98763e-05
-3.84022e-05
2.07702e-05
-4.09463e-05
1.93327e-05
-3.86448e-05
2.1504e-05
-4.22616e-05
1.98104e-05
-3.84426e-05
2.20295e-05
-4.24522e-05
2.18469e-05
-4.00982e-05
2.21723e-05
-4.04845e-05
2.029e-05
-3.8213e-05
2.1602e-05
-4.15679e-05
2.21549e-05
-4.08402e-05
2.12563e-05
-3.91862e-05
2.09689e-05
-3.9608e-05
1.97067e-05
-3.86185e-05
2.09177e-05
-4.12384e-05
1.88195e-05
-3.80228e-05
1.98872e-05
-4.11916e-05
2.11218e-05
-4.13694e-05
2.11551e-05
-4.01872e-05
2.11242e-05
-4.01362e-05
2.16305e-05
-4.06891e-05
2.15744e-05
-4.01481e-05
2.22442e-05
-4.09018e-05
2.225e-05
-4.02759e-05
2.3264e-05
-4.13378e-05
2.41332e-05
-4.12792e-05
3.13896e-05
-4.78384e-05
3.00596e-05
-3.94517e-05
2.31475e-05
-3.3951e-05
2.13904e-05
-3.9106e-05
-4.01135e-05
8.94817e-05
1.01391e-05
7.65994e-05
-9.39623e-06
6.8042e-05
-2.57571e-05
6.32813e-05
-3.40803e-05
6.03139e-05
-3.70008e-05
5.82033e-05
-3.81161e-05
5.65594e-05
-3.86648e-05
5.5187e-05
-3.89679e-05
5.40282e-05
-3.92125e-05
5.30422e-05
-3.94312e-05
5.21841e-05
-3.96056e-05
5.14251e-05
-3.97395e-05
5.07532e-05
-3.98609e-05
5.01583e-05
-3.99699e-05
4.96219e-05
-4.00548e-05
4.91339e-05
-4.01255e-05
4.86864e-05
-4.01837e-05
4.82768e-05
-4.02386e-05
4.78994e-05
-4.02893e-05
4.75473e-05
-4.03305e-05
4.72174e-05
-4.0363e-05
4.69083e-05
-4.03928e-05
4.66186e-05
-4.04209e-05
4.6347e-05
-4.04479e-05
4.60909e-05
-4.04709e-05
4.58485e-05
-4.04913e-05
4.56189e-05
-4.05102e-05
4.54008e-05
-4.05272e-05
4.51944e-05
-4.05449e-05
4.49976e-05
-4.05593e-05
4.48099e-05
-4.05731e-05
4.46302e-05
-4.05851e-05
4.44584e-05
-4.05968e-05
4.42939e-05
-4.06079e-05
4.41363e-05
-4.06186e-05
4.39849e-05
-4.06278e-05
4.38391e-05
-4.06363e-05
4.36988e-05
-4.06448e-05
4.35634e-05
-4.0652e-05
4.34331e-05
-4.066e-05
4.33073e-05
-4.06667e-05
4.31857e-05
-4.06732e-05
4.3068e-05
-4.06793e-05
4.29539e-05
-4.06847e-05
4.28436e-05
-4.06905e-05
4.27366e-05
-4.06956e-05
4.26331e-05
-4.0701e-05
4.25324e-05
-4.07052e-05
4.24347e-05
-4.07099e-05
4.23396e-05
-4.07139e-05
4.22471e-05
-4.0718e-05
4.21573e-05
-4.07221e-05
4.207e-05
-4.07258e-05
4.19849e-05
-4.07294e-05
4.1902e-05
-4.07328e-05
4.18212e-05
-4.07359e-05
4.17424e-05
-4.07392e-05
4.16657e-05
-4.07419e-05
4.15913e-05
-4.07451e-05
4.15186e-05
-4.0748e-05
4.14479e-05
-4.0751e-05
4.13789e-05
-4.07538e-05
4.13118e-05
-4.07566e-05
4.12462e-05
-4.07592e-05
4.11825e-05
-4.07621e-05
4.11204e-05
-4.07646e-05
4.106e-05
-4.07674e-05
4.10012e-05
-4.07699e-05
4.09441e-05
-4.07726e-05
4.08888e-05
-4.07755e-05
4.08353e-05
-4.07783e-05
4.07836e-05
-4.07815e-05
4.07339e-05
-4.07845e-05
4.06863e-05
-4.0788e-05
4.06408e-05
-4.07914e-05
4.0598e-05
-4.07957e-05
4.05574e-05
-4.07995e-05
4.05202e-05
-4.0805e-05
4.04859e-05
-4.08097e-05
4.04557e-05
-4.08168e-05
4.04292e-05
-4.08225e-05
4.04083e-05
-4.08324e-05
4.03918e-05
-4.08392e-05
4.03839e-05
-4.08542e-05
4.03818e-05
-4.08627e-05
4.03898e-05
-4.08798e-05
4.04063e-05
-4.08945e-05
4.04394e-05
-4.09227e-05
4.04837e-05
-4.0941e-05
4.05561e-05
-4.09871e-05
4.06442e-05
-4.10138e-05
4.07774e-05
-4.10888e-05
4.09396e-05
-4.11363e-05
4.11784e-05
-4.12674e-05
4.14799e-05
-4.13754e-05
4.19581e-05
-4.16903e-05
4.25246e-05
-4.17636e-05
4.40757e-05
-4.37164e-05
4.55243e-05
-4.3172e-05
3.6982e-05
-2.36523e-05
2.94766e-05
-2.82932e-05
2.98558e-05
-4.32544e-05
3.02394e-05
-4.14778e-05
3.08047e-05
-4.15839e-05
3.11412e-05
-4.09052e-05
3.16133e-05
-4.11044e-05
3.19999e-05
-4.08838e-05
3.24213e-05
-4.09061e-05
3.25675e-05
-4.03829e-05
3.29058e-05
-4.17671e-05
3.35798e-05
-4.51004e-05
3.3473e-05
-4.43155e-05
3.40339e-05
-4.42035e-05
3.37626e-05
-4.08942e-05
3.28894e-05
-3.82159e-05
3.28073e-05
-3.77453e-05
3.35415e-05
-3.88398e-05
3.37627e-05
-3.93783e-05
3.39647e-05
-4.13267e-05
3.44489e-05
-4.49951e-05
3.36894e-05
-4.31731e-05
3.4124e-05
-4.42101e-05
3.39242e-05
-3.99314e-05
3.56861e-05
-4.13557e-05
3.5604e-05
-3.61989e-05
3.47078e-05
-3.67628e-05
3.41173e-05
-3.93801e-05
3.33819e-05
-3.86257e-05
3.43201e-05
-4.34128e-05
3.38917e-05
-4.28416e-05
3.4372e-05
-4.61744e-05
3.42304e-05
-4.15683e-05
3.50522e-05
-3.95788e-05
3.52573e-05
-3.68998e-05
3.65983e-05
-4.1359e-05
3.6284e-05
-4.0377e-05
3.39148e-05
-3.8795e-05
3.40517e-05
-4.56117e-05
3.37426e-05
-4.25466e-05
3.44689e-05
-4.27545e-05
3.5152e-05
-3.93673e-05
3.56319e-05
-3.71578e-05
3.69599e-05
-4.12936e-05
3.72691e-05
-4.15998e-05
3.62172e-05
-4.2202e-05
3.43126e-05
-4.15807e-05
3.44649e-05
-4.25908e-05
3.55754e-05
-4.02095e-05
3.60389e-05
-3.72357e-05
3.68259e-05
-4.03154e-05
3.72514e-05
-4.25174e-05
3.7486e-05
-4.56995e-05
3.59008e-05
-4.21428e-05
3.48847e-05
-3.93812e-05
3.58046e-05
-3.92997e-05
3.68052e-05
-3.84666e-05
3.61939e-05
-3.73499e-05
3.48578e-05
-3.87152e-05
3.49367e-05
-4.53637e-05
3.59337e-05
-4.81227e-05
3.65651e-05
-4.30944e-05
3.68133e-05
-3.73521e-05
3.74597e-05
-3.73284e-05
3.6772e-05
-3.80085e-05
3.54711e-05
-4.14746e-05
3.38533e-05
-4.16476e-05
3.37927e-05
-4.30076e-05
3.45862e-05
-4.26011e-05
3.51205e-05
-3.84224e-05
3.64799e-05
-3.91891e-05
3.66635e-05
-4.04561e-05
3.66383e-05
-4.51581e-05
3.69332e-05
-4.67566e-05
3.63665e-05
-4.14264e-05
3.46707e-05
-3.57715e-05
3.42473e-05
-3.61422e-05
3.4711e-05
-3.75606e-05
3.53331e-05
-4.13126e-05
3.56266e-05
-4.53471e-05
3.55987e-05
-4.57954e-05
3.61812e-05
-4.45771e-05
3.52827e-05
-3.91883e-05
3.41746e-05
-3.73641e-05
3.40498e-05
-3.71336e-05
3.48779e-05
-3.84758e-05
3.59801e-05
-4.09297e-05
3.6691e-05
-4.25345e-05
3.58334e-05
-4.23762e-05
3.39353e-05
-4.10839e-05
3.45359e-05
-4.34902e-05
3.49019e-05
-3.83111e-05
3.57832e-05
-3.84392e-05
3.61938e-05
-3.94975e-05
3.73902e-05
-4.40558e-05
3.70374e-05
-4.39255e-05
3.52449e-05
-4.11362e-05
3.47639e-05
-4.0811e-05
3.36544e-05
-3.50307e-05
3.39162e-05
-3.77634e-05
3.33498e-05
-3.76518e-05
3.52033e-05
-4.53541e-05
3.54009e-05
-4.43236e-05
3.49114e-05
-4.42753e-05
3.49421e-05
-4.23733e-05
3.52894e-05
-3.79478e-05
3.70395e-05
-4.0551e-05
3.68696e-05
-3.93167e-05
3.61539e-05
-4.27099e-05
3.41196e-05
-4.07555e-05
3.4959e-05
-4.53727e-05
3.50725e-05
-4.09231e-05
3.59265e-05
-3.92424e-05
3.66282e-05
-3.7994e-05
3.73585e-05
-4.02356e-05
3.69271e-05
-4.03356e-05
3.5549e-05
-4.11032e-05
3.46629e-05
-4.32433e-05
3.24598e-05
-3.74227e-05
3.30877e-05
-4.1909e-05
3.3225e-05
-3.80755e-05
3.51463e-05
-4.13969e-05
3.39665e-05
-3.74466e-05
3.464e-05
-4.60187e-05
3.42634e-05
-4.37311e-05
3.41746e-05
-4.22673e-05
3.52713e-05
-4.34474e-05
3.51044e-05
-3.67087e-05
3.69064e-05
-4.05273e-05
3.51966e-05
-3.47344e-05
3.56536e-05
-4.25936e-05
3.45063e-05
-4.17659e-05
3.5138e-05
-4.6633e-05
3.3933e-05
-3.85157e-05
3.47061e-05
-3.93161e-05
3.53187e-05
-3.82232e-05
3.54775e-05
-4.00963e-05
3.56809e-05
-4.53152e-05
3.49836e-05
-4.4081e-05
3.63449e-05
-4.64447e-05
3.52478e-05
-3.74444e-05
3.48534e-05
-3.69103e-05
3.32589e-05
-3.32674e-05
3.52751e-05
-4.32527e-05
3.42931e-05
-3.87976e-05
3.5615e-05
-4.7667e-05
3.49204e-05
-4.36143e-05
3.47273e-05
-4.13883e-05
3.4798e-05
-3.76624e-05
3.44606e-05
-3.60419e-05
3.32935e-05
-3.81238e-05
3.26752e-05
-4.23814e-05
3.46282e-05
-4.90881e-05
3.36336e-05
-4.0181e-05
3.5331e-05
-4.41853e-05
3.37007e-05
-3.35173e-05
3.53502e-05
-4.07554e-05
3.46917e-05
-3.71036e-05
3.58068e-05
-4.38757e-05
3.45098e-05
-4.11663e-05
3.50249e-05
-4.66791e-05
3.52834e-05
-4.26147e-05
3.42629e-05
-3.47998e-05
3.40743e-05
-3.65113e-05
3.36267e-05
-3.80582e-05
3.3807e-05
-4.08068e-05
3.34828e-05
-3.9106e-05
3.56459e-05
-4.47638e-05
3.52122e-05
-3.85411e-05
3.49851e-05
-3.99147e-05
3.35064e-05
-3.69236e-05
3.37388e-05
-4.11786e-05
3.24423e-05
-3.73483e-05
3.42412e-05
-4.40605e-05
3.32113e-05
-3.74127e-05
3.50334e-05
-4.42743e-05
3.53927e-05
-4.04575e-05
3.57346e-05
-4.08264e-05
3.41533e-05
-3.66317e-05
3.51648e-05
-4.25793e-05
3.57999e-05
-4.14753e-05
3.52694e-05
-3.86557e-05
3.44945e-05
-3.88332e-05
3.31499e-05
-3.72738e-05
3.38585e-05
-4.19469e-05
3.2114e-05
-3.62783e-05
3.26763e-05
-4.1754e-05
3.37971e-05
-4.24902e-05
3.41679e-05
-4.0558e-05
3.43849e-05
-4.03533e-05
3.48847e-05
-4.11889e-05
3.51167e-05
-4.03801e-05
3.57549e-05
-4.154e-05
3.62098e-05
-4.07308e-05
3.69896e-05
-4.21176e-05
3.90908e-05
-4.33804e-05
4.71224e-05
-5.587e-05
4.76369e-05
-3.99662e-05
4.15774e-05
-2.78914e-05
3.77998e-05
-3.53284e-05
-3.82021e-05
9.94288e-05
1.19603e-05
9.34365e-05
-3.404e-06
8.60997e-05
-1.84202e-05
8.00867e-05
-2.80673e-05
7.57095e-05
-3.26236e-05
7.24369e-05
-3.48436e-05
6.99182e-05
-3.61461e-05
6.79141e-05
-3.69639e-05
6.62808e-05
-3.75792e-05
6.49103e-05
-3.80607e-05
6.37256e-05
-3.84209e-05
6.2691e-05
-3.87049e-05
6.17843e-05
-3.89542e-05
6.0986e-05
-3.91715e-05
6.02685e-05
-3.93372e-05
5.96186e-05
-3.94756e-05
5.9027e-05
-3.95921e-05
5.84879e-05
-3.96996e-05
5.79938e-05
-3.97952e-05
5.7535e-05
-3.98717e-05
5.71075e-05
-3.99355e-05
5.67087e-05
-3.9994e-05
5.63363e-05
-4.00484e-05
5.59877e-05
-4.00993e-05
5.56595e-05
-4.01427e-05
5.53495e-05
-4.01814e-05
5.50567e-05
-4.02174e-05
5.47792e-05
-4.02497e-05
5.45168e-05
-4.02825e-05
5.42669e-05
-4.03095e-05
5.4029e-05
-4.03352e-05
5.38017e-05
-4.03578e-05
5.35846e-05
-4.03797e-05
5.3377e-05
-4.04003e-05
5.31784e-05
-4.042e-05
5.29877e-05
-4.04372e-05
5.28043e-05
-4.04529e-05
5.26281e-05
-4.04686e-05
5.24583e-05
-4.04821e-05
5.2295e-05
-4.04967e-05
5.21374e-05
-4.05091e-05
5.19851e-05
-4.0521e-05
5.1838e-05
-4.05322e-05
5.16956e-05
-4.05422e-05
5.15579e-05
-4.05528e-05
5.14245e-05
-4.05622e-05
5.12954e-05
-4.0572e-05
5.117e-05
-4.05797e-05
5.10484e-05
-4.05883e-05
5.09301e-05
-4.05956e-05
5.08152e-05
-4.06031e-05
5.07037e-05
-4.06105e-05
5.05952e-05
-4.06173e-05
5.04896e-05
-4.06238e-05
5.03868e-05
-4.063e-05
5.02866e-05
-4.06357e-05
5.01891e-05
-4.06417e-05
5.00941e-05
-4.06469e-05
5.00019e-05
-4.06529e-05
4.99119e-05
-4.0658e-05
4.98244e-05
-4.06635e-05
4.97389e-05
-4.06684e-05
4.96558e-05
-4.06735e-05
4.95747e-05
-4.06781e-05
4.94959e-05
-4.06833e-05
4.9419e-05
-4.06877e-05
4.93443e-05
-4.06926e-05
4.92715e-05
-4.06971e-05
4.92008e-05
-4.07019e-05
4.91322e-05
-4.07069e-05
4.90658e-05
-4.07119e-05
4.90017e-05
-4.07173e-05
4.89399e-05
-4.07228e-05
4.88806e-05
-4.07287e-05
4.88238e-05
-4.07346e-05
4.877e-05
-4.0742e-05
4.87191e-05
-4.07486e-05
4.86719e-05
-4.07578e-05
4.86282e-05
-4.0766e-05
4.85891e-05
-4.07778e-05
4.85543e-05
-4.07877e-05
4.85259e-05
-4.08039e-05
4.85027e-05
-4.08159e-05
4.84885e-05
-4.084e-05
4.84819e-05
-4.08561e-05
4.84871e-05
-4.0885e-05
4.85012e-05
-4.09086e-05
4.85332e-05
-4.09547e-05
4.85788e-05
-4.09866e-05
4.86554e-05
-4.10637e-05
4.87501e-05
-4.11085e-05
4.88937e-05
-4.12324e-05
4.90702e-05
-4.13129e-05
4.93295e-05
-4.15267e-05
4.96562e-05
-4.17021e-05
5.01697e-05
-4.22039e-05
5.07899e-05
-4.23838e-05
5.23883e-05
-4.53147e-05
5.35103e-05
-4.4294e-05
4.6707e-05
-1.6849e-05
3.92894e-05
-2.08756e-05
3.75546e-05
-4.15196e-05
3.73303e-05
-4.12535e-05
3.75352e-05
-4.17888e-05
3.77166e-05
-4.10865e-05
3.81045e-05
-4.14924e-05
3.84445e-05
-4.12237e-05
3.88682e-05
-4.13298e-05
3.90262e-05
-4.05409e-05
3.94115e-05
-4.21524e-05
4.00457e-05
-4.57346e-05
4.01319e-05
-4.44018e-05
4.06059e-05
-4.46775e-05
4.04842e-05
-4.07724e-05
3.97695e-05
-3.75013e-05
3.95735e-05
-3.75493e-05
4.01509e-05
-3.94172e-05
4.03874e-05
-3.96148e-05
4.06377e-05
-4.15771e-05
4.09859e-05
-4.53432e-05
4.06151e-05
-4.28024e-05
4.08441e-05
-4.4439e-05
4.08791e-05
-3.99664e-05
4.22447e-05
-4.27213e-05
4.24321e-05
-3.63863e-05
4.18117e-05
-3.61425e-05
4.10996e-05
-3.8668e-05
4.04637e-05
-3.79898e-05
4.09573e-05
-4.39064e-05
4.08116e-05
-4.26959e-05
4.11324e-05
-4.64952e-05
4.11863e-05
-4.16222e-05
4.18487e-05
-4.02411e-05
4.22179e-05
-3.72691e-05
4.33123e-05
-4.24534e-05
4.31898e-05
-4.02545e-05
4.14456e-05
-3.70508e-05
4.11275e-05
-4.52937e-05
4.0869e-05
-4.2288e-05
4.14093e-05
-4.32948e-05
4.20001e-05
-3.99581e-05
4.26184e-05
-3.77761e-05
4.38382e-05
-4.25134e-05
4.43545e-05
-4.2116e-05
4.35085e-05
-4.13561e-05
4.18357e-05
-3.99079e-05
4.17368e-05
-4.24919e-05
4.2513e-05
-4.09856e-05
4.30947e-05
-3.78174e-05
4.38464e-05
-4.10672e-05
4.44319e-05
-4.31029e-05
4.46656e-05
-4.59332e-05
4.33903e-05
-4.08676e-05
4.24635e-05
-3.84543e-05
4.30349e-05
-3.98711e-05
4.38661e-05
-3.92978e-05
4.34262e-05
-3.69099e-05
4.22655e-05
-3.75546e-05
4.21559e-05
-4.52541e-05
4.3023e-05
-4.89897e-05
4.37153e-05
-4.37867e-05
4.40933e-05
-3.77301e-05
4.46248e-05
-3.78598e-05
4.41871e-05
-3.75708e-05
4.29219e-05
-4.02094e-05
4.13124e-05
-4.00381e-05
4.09958e-05
-4.2691e-05
4.14906e-05
-4.3096e-05
4.21135e-05
-3.90453e-05
4.33669e-05
-4.04425e-05
4.37447e-05
-4.0834e-05
4.3843e-05
-4.52564e-05
4.41625e-05
-4.70761e-05
4.37068e-05
-4.09707e-05
4.2149e-05
-3.42137e-05
4.14883e-05
-3.54815e-05
4.17585e-05
-3.78308e-05
4.23239e-05
-4.1878e-05
4.26148e-05
-4.5638e-05
4.27214e-05
-4.5902e-05
4.31797e-05
-4.50354e-05
4.25258e-05
-3.85345e-05
4.14844e-05
-3.63227e-05
4.11573e-05
-3.68065e-05
4.18194e-05
-3.91379e-05
4.28456e-05
-4.19559e-05
4.35867e-05
-4.32755e-05
4.29313e-05
-4.17208e-05
4.1444e-05
-3.95966e-05
4.16206e-05
-4.36668e-05
4.19995e-05
-3.869e-05
4.27377e-05
-3.91774e-05
4.3285e-05
-4.00448e-05
4.43458e-05
-4.51166e-05
4.41722e-05
-4.37519e-05
4.28842e-05
-3.98482e-05
4.20223e-05
-3.99491e-05
4.09762e-05
-3.39846e-05
4.08721e-05
-3.76593e-05
4.04431e-05
-3.72228e-05
4.18776e-05
-4.67887e-05
4.23124e-05
-4.47584e-05
4.20157e-05
-4.39786e-05
4.19494e-05
-4.2307e-05
4.24634e-05
-3.84617e-05
4.38496e-05
-4.19372e-05
4.4025e-05
-3.94921e-05
4.3305e-05
-4.19899e-05
4.16272e-05
-3.90776e-05
4.20446e-05
-4.57901e-05
4.22542e-05
-4.11327e-05
4.29827e-05
-3.99709e-05
4.3706e-05
-3.87174e-05
4.44133e-05
-4.09428e-05
4.41327e-05
-4.00551e-05
4.30963e-05
-4.00668e-05
4.18791e-05
-4.2026e-05
3.99332e-05
-3.54768e-05
3.99493e-05
-4.19251e-05
4.02356e-05
-3.83618e-05
4.16846e-05
-4.28459e-05
4.10209e-05
-3.67829e-05
4.14548e-05
-4.64526e-05
4.13663e-05
-4.36426e-05
4.1321e-05
-4.2222e-05
4.19487e-05
-4.40751e-05
4.22795e-05
-3.70395e-05
4.35601e-05
-4.18079e-05
4.25788e-05
-3.3753e-05
4.25845e-05
-4.25994e-05
4.18181e-05
-4.09994e-05
4.20523e-05
-4.68672e-05
4.11976e-05
-3.7661e-05
4.1699e-05
-3.98175e-05
4.23135e-05
-3.88377e-05
4.24975e-05
-4.02804e-05
4.25354e-05
-4.5353e-05
4.23007e-05
-4.38464e-05
4.31826e-05
-4.73265e-05
4.26389e-05
-3.69007e-05
4.19296e-05
-3.6201e-05
4.0642e-05
-3.19797e-05
4.18484e-05
-4.44591e-05
4.14581e-05
-3.84073e-05
4.23927e-05
-4.86016e-05
4.20234e-05
-4.32451e-05
4.17673e-05
-4.11323e-05
4.17817e-05
-3.76767e-05
4.15105e-05
-3.57707e-05
4.04642e-05
-3.70775e-05
3.9916e-05
-4.18332e-05
4.10673e-05
-5.02394e-05
4.08039e-05
-3.99177e-05
4.18383e-05
-4.52196e-05
4.10073e-05
-3.26863e-05
4.19986e-05
-4.17467e-05
4.18204e-05
-3.69254e-05
4.25504e-05
-4.46057e-05
4.17068e-05
-4.03227e-05
4.19419e-05
-4.69143e-05
4.22067e-05
-4.28794e-05
4.16034e-05
-3.41965e-05
4.11582e-05
-3.60662e-05
4.06208e-05
-3.75207e-05
4.04917e-05
-4.06777e-05
4.05448e-05
-3.91591e-05
4.21788e-05
-4.63978e-05
4.21708e-05
-3.85331e-05
4.18517e-05
-3.95956e-05
4.06844e-05
-3.57563e-05
4.03974e-05
-4.08917e-05
3.94952e-05
-3.64461e-05
4.06547e-05
-4.52199e-05
4.02559e-05
-3.70139e-05
4.15634e-05
-4.55818e-05
4.22206e-05
-4.11147e-05
4.24919e-05
-4.10977e-05
4.1363e-05
-3.55028e-05
4.20006e-05
-4.32169e-05
4.26213e-05
-4.2096e-05
4.23725e-05
-3.84069e-05
4.15237e-05
-3.79844e-05
4.03633e-05
-3.61134e-05
4.04729e-05
-4.20565e-05
3.91877e-05
-3.49931e-05
3.93667e-05
-4.19329e-05
4.03495e-05
-4.3473e-05
4.0823e-05
-4.10316e-05
4.11688e-05
-4.06991e-05
4.16008e-05
-4.16209e-05
4.20223e-05
-4.08017e-05
4.25611e-05
-4.20788e-05
4.3293e-05
-4.14626e-05
4.39007e-05
-4.27253e-05
4.6336e-05
-4.58158e-05
5.35568e-05
-6.30907e-05
5.54223e-05
-4.18317e-05
5.13814e-05
-2.38505e-05
4.7054e-05
-3.10011e-05
-3.56742e-05
0.000102569
1.06416e-05
0.00010099
-1.8249e-06
9.72211e-05
-1.46518e-05
9.20747e-05
-2.29209e-05
8.73721e-05
-2.7921e-05
8.34179e-05
-3.08894e-05
8.01889e-05
-3.29171e-05
7.75791e-05
-3.43541e-05
7.54536e-05
-3.54536e-05
7.36819e-05
-3.6289e-05
7.2183e-05
-3.69221e-05
7.08943e-05
-3.74162e-05
6.97719e-05
-3.78317e-05
6.87849e-05
-3.81845e-05
6.78983e-05
-3.84507e-05
6.70986e-05
-3.86759e-05
6.63751e-05
-3.88686e-05
6.57184e-05
-3.90429e-05
6.51175e-05
-3.91943e-05
6.45613e-05
-3.93155e-05
6.40455e-05
-3.94196e-05
6.35665e-05
-3.9515e-05
6.31205e-05
-3.96025e-05
6.27036e-05
-3.96824e-05
6.23117e-05
-3.97508e-05
6.19425e-05
-3.98123e-05
6.15946e-05
-3.98694e-05
6.12657e-05
-3.99208e-05
6.09549e-05
-3.99717e-05
6.06594e-05
-4.00139e-05
6.03784e-05
-4.00541e-05
6.01104e-05
-4.00899e-05
5.9855e-05
-4.01242e-05
5.96112e-05
-4.01565e-05
5.93779e-05
-4.01867e-05
5.91543e-05
-4.02135e-05
5.89395e-05
-4.02381e-05
5.87333e-05
-4.02624e-05
5.8535e-05
-4.02838e-05
5.83443e-05
-4.0306e-05
5.81605e-05
-4.03253e-05
5.79831e-05
-4.03436e-05
5.78119e-05
-4.0361e-05
5.76463e-05
-4.03765e-05
5.74864e-05
-4.03929e-05
5.73315e-05
-4.04074e-05
5.71818e-05
-4.04222e-05
5.70364e-05
-4.04343e-05
5.68955e-05
-4.04474e-05
5.67587e-05
-4.04588e-05
5.66258e-05
-4.04703e-05
5.64969e-05
-4.04816e-05
5.63715e-05
-4.0492e-05
5.62496e-05
-4.05019e-05
5.6131e-05
-4.05114e-05
5.60155e-05
-4.05202e-05
5.59031e-05
-4.05293e-05
5.57936e-05
-4.05374e-05
5.56872e-05
-4.05465e-05
5.55835e-05
-4.05543e-05
5.54825e-05
-4.05625e-05
5.5384e-05
-4.05699e-05
5.52883e-05
-4.05777e-05
5.51948e-05
-4.05847e-05
5.5104e-05
-4.05925e-05
5.50154e-05
-4.05991e-05
5.49293e-05
-4.06065e-05
5.48454e-05
-4.06133e-05
5.4764e-05
-4.06205e-05
5.46849e-05
-4.06278e-05
5.46083e-05
-4.06353e-05
5.45342e-05
-4.06432e-05
5.44628e-05
-4.06514e-05
5.43941e-05
-4.066e-05
5.43283e-05
-4.06688e-05
5.42657e-05
-4.06794e-05
5.42063e-05
-4.06892e-05
5.41508e-05
-4.07023e-05
5.40992e-05
-4.07144e-05
5.40525e-05
-4.07311e-05
5.40105e-05
-4.07457e-05
5.39751e-05
-4.07686e-05
5.39455e-05
-4.07863e-05
5.39251e-05
-4.08196e-05
5.39128e-05
-4.08438e-05
5.39136e-05
-4.08859e-05
5.3924e-05
-4.0919e-05
5.39517e-05
-4.09825e-05
5.39943e-05
-4.10292e-05
5.4069e-05
-4.11384e-05
5.41631e-05
-4.12026e-05
5.43065e-05
-4.13758e-05
5.44842e-05
-4.14905e-05
5.47459e-05
-4.17885e-05
5.50752e-05
-4.20313e-05
5.55893e-05
-4.2718e-05
5.62142e-05
-4.30088e-05
5.77502e-05
-4.68507e-05
5.8472e-05
-4.50158e-05
5.33068e-05
-1.16838e-05
4.67221e-05
-1.42909e-05
4.36036e-05
-3.84011e-05
4.27518e-05
-4.04017e-05
4.2527e-05
-4.15641e-05
4.24817e-05
-4.10412e-05
4.27153e-05
-4.17259e-05
4.2948e-05
-4.14564e-05
4.33132e-05
-4.16951e-05
4.34561e-05
-4.06837e-05
4.38328e-05
-4.25291e-05
4.43537e-05
-4.62554e-05
4.458e-05
-4.46281e-05
4.4973e-05
-4.50706e-05
4.49322e-05
-4.07316e-05
4.43876e-05
-3.69567e-05
4.41809e-05
-3.73425e-05
4.46248e-05
-3.98612e-05
4.48408e-05
-3.98308e-05
4.51143e-05
-4.18505e-05
4.53181e-05
-4.5547e-05
4.52142e-05
-4.26985e-05
4.52959e-05
-4.45207e-05
4.55216e-05
-4.01921e-05
4.65767e-05
-4.37764e-05
4.68808e-05
-3.66904e-05
4.64495e-05
-3.57111e-05
4.57535e-05
-3.7972e-05
4.52803e-05
-3.75166e-05
4.54519e-05
-4.4078e-05
4.54798e-05
-4.27238e-05
4.5638e-05
-4.66534e-05
4.5835e-05
-4.18193e-05
4.6359e-05
-4.07651e-05
4.6836e-05
-3.77461e-05
4.77072e-05
-4.33246e-05
4.76728e-05
-4.02201e-05
4.64669e-05
-3.58448e-05
4.58979e-05
-4.47247e-05
4.56897e-05
-4.20799e-05
4.60839e-05
-4.3689e-05
4.66128e-05
-4.0487e-05
4.7286e-05
-3.84492e-05
4.83368e-05
-4.35641e-05
4.89336e-05
-4.27129e-05
4.829e-05
-4.07125e-05
4.69184e-05
-3.85363e-05
4.66694e-05
-4.22428e-05
4.72004e-05
-4.15166e-05
4.78218e-05
-3.84387e-05
4.84943e-05
-4.17397e-05
4.91475e-05
-4.3756e-05
4.93297e-05
-4.61154e-05
4.83307e-05
-3.98686e-05
4.75556e-05
-3.76792e-05
4.79232e-05
-4.02387e-05
4.85803e-05
-3.99548e-05
4.82718e-05
-3.66014e-05
4.7323e-05
-3.66058e-05
4.7088e-05
-4.50191e-05
4.77692e-05
-4.96709e-05
4.8425e-05
-4.44425e-05
4.8896e-05
-3.82011e-05
4.93484e-05
-3.83123e-05
4.90911e-05
-3.73135e-05
4.79429e-05
-3.90612e-05
4.64656e-05
-3.85609e-05
4.59585e-05
-4.21839e-05
4.62045e-05
-4.3342e-05
4.68477e-05
-3.96885e-05
4.79385e-05
-4.15333e-05
4.84333e-05
-4.13288e-05
4.85974e-05
-4.54204e-05
4.88792e-05
-4.73578e-05
4.85088e-05
-4.06004e-05
4.71918e-05
-3.28967e-05
4.64874e-05
-3.47771e-05
4.66371e-05
-3.79805e-05
4.70781e-05
-4.2319e-05
4.72998e-05
-4.58597e-05
4.74597e-05
-4.6062e-05
4.77756e-05
-4.53513e-05
4.73133e-05
-3.80722e-05
4.64319e-05
-3.54413e-05
4.60655e-05
-3.64401e-05
4.65598e-05
-3.96321e-05
4.74064e-05
-4.28026e-05
4.80719e-05
-4.3941e-05
4.75867e-05
-4.12356e-05
4.65053e-05
-3.85153e-05
4.64187e-05
-4.35802e-05
4.68143e-05
-3.90856e-05
4.74092e-05
-3.97723e-05
4.8009e-05
-4.06446e-05
4.88777e-05
-4.59853e-05
4.87793e-05
-4.36535e-05
4.78997e-05
-3.89686e-05
4.68977e-05
-3.8947e-05
4.60321e-05
-3.3119e-05
4.56662e-05
-3.72933e-05
4.53701e-05
-3.69267e-05
4.63998e-05
-4.78184e-05
4.68824e-05
-4.5241e-05
4.67298e-05
-4.3826e-05
4.66789e-05
-4.22561e-05
4.72676e-05
-3.90505e-05
4.83094e-05
-4.2979e-05
4.86367e-05
-3.98194e-05
4.79689e-05
-4.13221e-05
4.67512e-05
-3.786e-05
4.6834e-05
-4.58729e-05
4.7094e-05
-4.13927e-05
4.77006e-05
-4.05775e-05
4.84013e-05
-3.94181e-05
4.9023e-05
-4.15645e-05
4.88188e-05
-3.98509e-05
4.8039e-05
-3.9287e-05
4.67168e-05
-4.07038e-05
4.51528e-05
-3.39128e-05
4.47919e-05
-4.15642e-05
4.51221e-05
-3.8692e-05
4.60505e-05
-4.37743e-05
4.57731e-05
-3.65055e-05
4.60151e-05
-4.66946e-05
4.60627e-05
-4.36903e-05
4.6106e-05
-4.22653e-05
4.64597e-05
-4.44288e-05
4.70384e-05
-3.76183e-05
4.78488e-05
-4.26182e-05
4.74268e-05
-3.33311e-05
4.71502e-05
-4.23228e-05
4.67179e-05
-4.05671e-05
4.66508e-05
-4.68001e-05
4.60928e-05
-3.7103e-05
4.64107e-05
-4.01354e-05
4.69615e-05
-3.93884e-05
4.71881e-05
-4.0507e-05
4.71353e-05
-4.53002e-05
4.71536e-05
-4.38647e-05
4.76259e-05
-4.77988e-05
4.74398e-05
-3.67146e-05
4.66368e-05
-3.53981e-05
4.58103e-05
-3.11532e-05
4.63242e-05
-4.4973e-05
4.63046e-05
-3.83878e-05
4.68726e-05
-4.91697e-05
4.67258e-05
-4.30982e-05
4.64724e-05
-4.08789e-05
4.64369e-05
-3.76412e-05
4.62278e-05
-3.55615e-05
4.5394e-05
-3.62438e-05
4.49689e-05
-4.14081e-05
4.54362e-05
-5.07067e-05
4.55818e-05
-4.00633e-05
4.60735e-05
-4.57113e-05
4.58582e-05
-3.24711e-05
4.63956e-05
-4.22841e-05
4.65762e-05
-3.71059e-05
4.69807e-05
-4.50103e-05
4.64852e-05
-3.98271e-05
4.65645e-05
-4.69936e-05
4.67604e-05
-4.30753e-05
4.64242e-05
-3.38604e-05
4.58969e-05
-3.55388e-05
4.54137e-05
-3.70375e-05
4.51748e-05
-4.04388e-05
4.53976e-05
-3.93819e-05
4.64598e-05
-4.746e-05
4.66816e-05
-3.87549e-05
4.62877e-05
-3.92017e-05
4.54934e-05
-3.4962e-05
4.4994e-05
-4.03922e-05
4.44696e-05
-3.59217e-05
4.49589e-05
-4.57092e-05
4.49979e-05
-3.70529e-05
4.58945e-05
-4.64784e-05
4.66862e-05
-4.19064e-05
4.68665e-05
-4.1278e-05
4.61707e-05
-3.4807e-05