/*--------------------------------*- C++ -*----------------------------------*\
| =========                 |                                                 |
| \\      /  F ield         | foam-extend: Open Source CFD                    |
|  \\    /   O peration     | Version:     3.2                                |
|   \\  /    A nd           | Web:         http://www.foam-extend.org         |
|    \\/     M anipulation  | For copyright notice see file Copyright         |
\*---------------------------------------------------------------------------*/
FoamFile
{
    version     2.0;
    format      ascii;
    class       areaVectorField;
    location    "160";
    object      aMeshCentreN;
}
// * * * * * * * * * * * * * * * * * * * * * * * * * * * * * * * * * * * * * //

dimensions      [0 0 0 0 0 0 0];

internalField   nonuniform List<vector> 
300
(
(0.025 0.01 0)
(0.075 0.01 0)
(0.125 0.01 0)
(0.175 0.01 0)
(0.225 0.01 0)
(0.275 0.01 0)
(0.325 0.01 0)
(0.375 0.01 0)
(0.425 0.01 0)
(0.475 0.01 0)
(0.525 0.01 0)
(0.575 0.01 0)
(0.625 0.01 0)
(0.675 0.01 0)
(0.725 0.01 0)
(0.775 0.01 0)
(0.825 0.01 0)
(0.875 0.01 0)
(0.925 0.01 0)
(0.975 0.01 0)
(1.025 0.01 0)
(1.075 0.01 0)
(1.125 0.01 0)
(1.175 0.01 0)
(1.225 0.01 0)
(1.275 0.01 0)
(1.325 0.01 0)
(1.375 0.01 0)
(1.425 0.01 0)
(1.475 0.01 0)
(1.525 0.01 0)
(1.575 0.01 0)
(1.625 0.01 0)
(1.675 0.01 0)
(1.725 0.01 0)
(1.775 0.01 0)
(1.825 0.01 0)
(1.875 0.01 0)
(1.925 0.01 0)
(1.975 0.01 0)
(2.025 0.01 0)
(2.075 0.01 0)
(2.125 0.01 0)
(2.175 0.01 0)
(2.225 0.01 0)
(2.275 0.01 0)
(2.325 0.01 0)
(2.375 0.01 0)
(2.425 0.01 0)
(2.475 0.01 0)
(2.525 0.01 0)
(2.575 0.01 0)
(2.625 0.01 0)
(2.675 0.01 0)
(2.725 0.01 0)
(2.775 0.01 0)
(2.825 0.01 0)
(2.875 0.01 0)
(2.925 0.01 0)
(2.975 0.01 0)
(3.025 0.01 0)
(3.075 0.01 0)
(3.125 0.01 0)
(3.175 0.01 0)
(3.225 0.01 0)
(3.275 0.01 0)
(3.325 0.01 0)
(3.375 0.01 0)
(3.425 0.01 0)
(3.475 0.01 0)
(3.525 0.01 0)
(3.575 0.01 0)
(3.625 0.01 0)
(3.675 0.01 0)
(3.725 0.01 0)
(3.775 0.01 0)
(3.825 0.01 0)
(3.875 0.01 0)
(3.925 0.01 0)
(3.975 0.01 0)
(4.025 0.01 0)
(4.075 0.01 0)
(4.125 0.01 0)
(4.175 0.01 0)
(4.225 0.01 0)
(4.275 0.01 0)
(4.325 0.01 0)
(4.375 0.01 0)
(4.425 0.01 0)
(4.475 0.01 0)
(4.525 0.01 0)
(4.575 0.01 0)
(4.625 0.01 0)
(4.675 0.01 0)
(4.725 0.01 0)
(4.775 0.01 0)
(4.825 0.01 0)
(4.875 0.01 0)
(4.925 0.01 0)
(4.975 0.01 -0.00223716)
(5.025 0.01 -0.00762898)
(5.075 0.01 -0.0126215)
(5.125 0.01 -0.0162451)
(5.175 0.01 -0.0194564)
(5.225 0.01 -0.022195)
(5.275 0.01 -0.0246535)
(5.325 0.01 -0.0267779)
(5.375 0.01 -0.0286712)
(5.425 0.01 -0.0303835)
(5.475 0.01 -0.0319471)
(5.525 0.01 -0.0331107)
(5.575 0.01 -0.0341118)
(5.625 0.01 -0.0350561)
(5.675 0.01 -0.0359058)
(5.725 0.01 -0.0371864)
(5.775 0.01 -0.0386114)
(5.825 0.01 -0.0396676)
(5.875 0.01 -0.0403928)
(5.925 0.01 -0.0411118)
(5.975 0.01 -0.0414968)
(6.025 0.01 -0.0419275)
(6.075 0.01 -0.0423048)
(6.125 0.01 -0.0425688)
(6.175 0.01 -0.0425185)
(6.225 0.01 -0.0422684)
(6.275 0.01 -0.0429174)
(6.325 0.01 -0.0437015)
(6.375 0.01 -0.0445068)
(6.425 0.01 -0.0449002)
(6.475 0.01 -0.0450137)
(6.525 0.01 -0.0449701)
(6.575 0.01 -0.0447412)
(6.625 0.01 -0.0445232)
(6.675 0.01 -0.0442515)
(6.725 0.01 -0.0439061)
(6.775 0.01 -0.0433558)
(6.825 0.01 -0.0437819)
(6.875 0.01 -0.0442585)
(6.925 0.01 -0.0442521)
(6.975 0.01 -0.0440953)
(7.025 0.01 -0.0434325)
(7.075 0.01 -0.0428943)
(7.125 0.01 -0.0421673)
(7.175 0.01 -0.04127)
(7.225 0.01 -0.0408726)
(7.275 0.01 -0.0410874)
(7.325 0.01 -0.0413117)
(7.375 0.01 -0.0408628)
(7.425 0.01 -0.0402789)
(7.475 0.01 -0.0396379)
(7.525 0.01 -0.0388449)
(7.575 0.01 -0.0380605)
(7.625 0.01 -0.0377748)
(7.675 0.01 -0.0381616)
(7.725 0.01 -0.0382431)
(7.775 0.01 -0.0379009)
(7.825 0.01 -0.0377657)
(7.875 0.01 -0.038133)
(7.925 0.01 -0.038401)
(7.975 0.01 -0.0378933)
(8.025 0.01 -0.0370349)
(8.075 0.01 -0.0365606)
(8.125 0.01 -0.0362983)
(8.175 0.01 -0.036347)
(8.225 0.01 -0.0368216)
(8.275 0.01 -0.0375964)
(8.325 0.01 -0.038389)
(8.375 0.01 -0.0384515)
(8.425 0.01 -0.0382188)
(8.475 0.01 -0.0377918)
(8.525 0.01 -0.0372298)
(8.575 0.01 -0.036855)
(8.625 0.01 -0.0363599)
(8.675 0.01 -0.0360405)
(8.725 0.01 -0.0365644)
(8.775 0.01 -0.0375712)
(8.825 0.01 -0.0381752)
(8.875 0.01 -0.0382997)
(8.925 0.01 -0.0380826)
(8.975 0.01 -0.0378076)
(9.025 0.01 -0.0374871)
(9.075 0.01 -0.037447)
(9.125 0.01 -0.0380217)
(9.175 0.01 -0.0386544)
(9.225 0.01 -0.0388741)
(9.275 0.01 -0.0385963)
(9.325 0.01 -0.0381653)
(9.375 0.01 -0.0379428)
(9.425 0.01 -0.0383644)
(9.475 0.01 -0.038626)
(9.525 0.01 -0.03847)
(9.575 0.01 -0.0382518)
(9.625 0.01 -0.0378741)
(9.675 0.01 -0.0373499)
(9.725 0.01 -0.0367234)
(9.775 0.01 -0.0369919)
(9.825 0.01 -0.0376536)
(9.875 0.01 -0.0385103)
(9.925 0.01 -0.0392635)
(9.975 0.01 -0.0398131)
(10.025 0.01 -0.0397209)
(10.075 0.01 -0.0388504)
(10.125 0.01 -0.0385083)
(10.175 0.01 -0.0381733)
(10.225 0.01 -0.0378471)
(10.275 0.01 -0.0372141)
(10.325 0.01 -0.0366687)
(10.375 0.01 -0.0366124)
(10.425 0.01 -0.0370225)
(10.475 0.01 -0.0371626)
(10.525 0.01 -0.0367417)
(10.575 0.01 -0.0364239)
(10.625 0.01 -0.0359174)
(10.675 0.01 -0.0355005)
(10.725 0.01 -0.0352959)
(10.775 0.01 -0.0357863)
(10.825 0.01 -0.0364952)
(10.875 0.01 -0.0376416)
(10.925 0.01 -0.038521)
(10.975 0.01 -0.0388518)
(11.025 0.01 -0.0387528)
(11.075 0.01 -0.0387759)
(11.125 0.01 -0.0389505)
(11.175 0.01 -0.0383883)
(11.225 0.01 -0.0382772)
(11.275 0.01 -0.0377772)
(11.325 0.01 -0.037319)
(11.375 0.01 -0.0367642)
(11.425 0.01 -0.0365943)
(11.475 0.01 -0.0367986)
(11.525 0.01 -0.0368577)
(11.575 0.01 -0.0367591)
(11.625 0.01 -0.0367063)
(11.675 0.01 -0.0369875)
(11.725 0.01 -0.03657)
(11.775 0.01 -0.0363587)
(11.825 0.01 -0.0360109)
(11.875 0.01 -0.035736)
(11.925 0.01 -0.0352628)
(11.975 0.01 -0.0351172)
(12.025 0.01 -0.0355708)
(12.075 0.01 -0.0363174)
(12.125 0.01 -0.0364535)
(12.175 0.01 -0.036341)
(12.225 0.01 -0.0361784)
(12.275 0.01 -0.0355924)
(12.325 0.01 -0.0357827)
(12.375 0.01 -0.0359654)
(12.425 0.01 -0.0363999)
(12.475 0.01 -0.036954)
(12.525 0.01 -0.037615)
(12.575 0.01 -0.0373367)
(12.625 0.01 -0.0369853)
(12.675 0.01 -0.036602)
(12.725 0.01 -0.0364522)
(12.775 0.01 -0.0363557)
(12.825 0.01 -0.0359387)
(12.875 0.01 -0.0356306)
(12.925 0.01 -0.0353297)
(12.975 0.01 -0.0353888)
(13.025 0.01 -0.0348308)
(13.075 0.01 -0.034998)
(13.125 0.01 -0.0355955)
(13.175 0.01 -0.0360996)
(13.225 0.01 -0.0363136)
(13.275 0.01 -0.0364211)
(13.325 0.01 -0.0359665)
(13.375 0.01 -0.0355089)
(13.425 0.01 -0.0356315)
(13.475 0.01 -0.0361038)
(13.525 0.01 -0.0365014)
(13.575 0.01 -0.0368426)
(13.625 0.01 -0.0367099)
(13.675 0.01 -0.0363915)
(13.725 0.01 -0.0358728)
(13.775 0.01 -0.034737)
(13.825 0.01 -0.0339839)
(13.875 0.01 -0.0338285)
(13.925 0.01 -0.0337657)
(13.975 0.01 -0.0328872)
(14.025 0.01 -0.0325287)
(14.075 0.01 -0.0326087)
(14.125 0.01 -0.0330443)
(14.175 0.01 -0.0331489)
(14.225 0.01 -0.0332791)
(14.275 0.01 -0.0334217)
(14.325 0.01 -0.032513)
(14.375 0.01 -0.0312855)
(14.425 0.01 -0.0300353)
(14.475 0.01 -0.0284777)
(14.525 0.01 -0.0266867)
(14.575 0.01 -0.0244717)
(14.625 0.01 -0.0218896)
(14.675 0.01 -0.0186029)
(14.725 0.01 -0.0146854)
(14.775 0.01 -0.00887649)
(14.825 0.01 -0.00244339)
(14.875 0.01 0)
(14.925 0.01 0)
(14.975 0.01 0)
)
;

boundaryField
{
    inlet
    {
        type            calculated;
        value           uniform (0 0 0);
    }
    outlet
    {
        type            calculated;
        value           uniform (0 0 0);
    }
    sideWall
    {
        type            empty;
    }
}


// ************************************************************************* //
