/*--------------------------------*- C++ -*----------------------------------*\
| =========                 |                                                 |
| \\      /  F ield         | foam-extend: Open Source CFD                    |
|  \\    /   O peration     | Version:     3.2                                |
|   \\  /    A nd           | Web:         http://www.foam-extend.org         |
|    \\/     M anipulation  | For copyright notice see file Copyright         |
\*---------------------------------------------------------------------------*/
FoamFile
{
    version     2.0;
    format      ascii;
    class       areaScalarField;
    location    "160";
    object      angBeta;
}
// * * * * * * * * * * * * * * * * * * * * * * * * * * * * * * * * * * * * * //

dimensions      [0 0 0 0 0 0 0];

internalField   nonuniform List<scalar> 
300
(
0
0
0
0
0
0
0
0
0
0
0
0
0
0
0
0
0
0
0
0
0
0
0
0
0
0
0
0
0
0
0
0
0
0
0
0
0
0
0
0
0
0
0
0
0
0
0
0
0
0
0
0
0
0
0
0
0
0
0
0
0
0
0
0
0
0
0
0
0
0
0
0
0
0
0
0
0
0
0
0
0
0
0
0
0
0
0
0
0
0
0
0
0
0
0
0
0
0
0
0.0892486
0.125523
0.0733815
0.0713082
0.0569615
0.0524757
0.0457805
0.0391465
0.0365498
0.0319115
0.0306143
0.0159198
0.0241166
0.0136496
0.0203366
0.0308718
0.0261125
0.0161295
0.0128783
0.0158776
0.000478535
0.0177039
0.00261165
0.0131686
0.0151785
0.0051747
0.0207806
0.0105821
0.0216265
0.00589558
0.0104373
0.012181
0.00302489
0.0117449
0.000876845
0.0146891
0.00732385
0.0243653
0.00530782
0.00505306
0.0113252
0.0151876
0.00633789
0.0227355
0.0131557
0.00273625
0.0113275
0.00235537
0.0156014
0.00775188
0.017887
0.0138316
0.0175405
0.00611544
0.00935552
0.00609579
0.00759238
0.00218319
0.0125089
0.00178743
0.0185192
0.0158156
0.00315182
0.00734079
0.009288
0.00969582
0.0212908
0.0104121
0.00791388
0.00139553
0.015681
0.00679672
0.00819682
0.0116042
0.00117224
0.022122
0.0181451
0.00601383
0.00103521
0.00764822
0.00335207
0.00946514
0.00786144
0.0151241
0.0101825
0.0013966
0.00971184
0.0075282
0.00137336
0.018234
0.0077693
0.00153009
0.0102597
0.00484792
0.0161199
0.008937
0.0196748
0.00679228
0.0274684
0.00265113
0.0193299
0.0230162
0.0117992
0.00188193
0.0115202
0.00152585
0.0237898
0.00197884
0.00423164
0.020633
0.0150309
0.00180362
0.0109086
0.00935056
0.00732357
0.000862806
0.0204783
0.0078747
0.0379631
0.00280722
0.0160367
0.0199942
0.0209187
0.0139388
0.00854589
0.00410269
0.0241012
0.00577977
0.027966
0.0211765
0.0130084
0.0153725
0.0193153
0.0172058
0.00595959
0.0107413
0.00229096
0.016202
0.0052043
0.024125
0.0183018
0.000160128
0.0300176
0.0245792
0.02008
0.026578
0.00314274
0.00447019
0.00283796
0.0145413
0.00762199
0.0188162
0.0299444
0.0158982
0.0312237
0.0252365
0.0290911
0.0124157
0.0247345
0.0127047
0.0103414
0.0119796
0.0186666
0.00523242
0.0149299
0.00636936
0.0106666
0.0288404
0.0105439
0.00564229
0.0245306
0.00863231
0.0222757
0.0275785
0.0148475
0.03558
0.00983871
0.0202803
0.0140659
0.0165783
0.0185577
0.00421789
0.00101521
0.0184373
0.0142549
0.0194607
0.0137563
0.02259
0.0264972
0.0235012
0.0387788
0.032831
0.0556988
0.047494
0.0837401
0.0726377
0.158254
0.097426
0
0
0
)
;

boundaryField
{
    inlet
    {
        type            calculated;
        value           uniform 0;
    }
    outlet
    {
        type            calculated;
        value           uniform 0;
    }
    sideWall
    {
        type            empty;
    }
}


// ************************************************************************* //
