/*--------------------------------*- C++ -*----------------------------------*\
| =========                 |                                                 |
| \\      /  F ield         | foam-extend: Open Source CFD                    |
|  \\    /   O peration     | Version:     3.2                                |
|   \\  /    A nd           | Web:         http://www.foam-extend.org         |
|    \\/     M anipulation  | For copyright notice see file Copyright         |
\*---------------------------------------------------------------------------*/
FoamFile
{
    version     2.0;
    format      ascii;
    class       areaVectorField;
    location    "160";
    object      aUf;
}
// * * * * * * * * * * * * * * * * * * * * * * * * * * * * * * * * * * * * * //

dimensions      [0 1 -1 0 0 0 0];

internalField   nonuniform List<vector> 
300
(
(2.31224 0 0.0560183)
(2.06385 0 0.0276194)
(1.71914 0 0.00543627)
(1.55785 0 -0.00117477)
(1.49252 0 -0.00120528)
(1.4571 0 -0.000527308)
(1.43089 0 -0.000296745)
(1.40756 0 -0.00013671)
(1.38574 0 -3.08112e-05)
(1.36563 0 1.02147e-05)
(1.34743 0 2.29821e-05)
(1.33095 0 4.61647e-05)
(1.31587 0 5.7895e-05)
(1.30226 0 6.51834e-05)
(1.28989 0 6.69414e-05)
(1.27854 0 6.6635e-05)
(1.26807 0 6.89386e-05)
(1.25833 0 6.84814e-05)
(1.24935 0 7.10544e-05)
(1.2411 0 7.17168e-05)
(1.23339 0 7.08652e-05)
(1.2261 0 6.94503e-05)
(1.21921 0 6.76186e-05)
(1.21272 0 6.44473e-05)
(1.20659 0 6.20488e-05)
(1.20076 0 5.99666e-05)
(1.19523 0 5.81358e-05)
(1.18994 0 5.6511e-05)
(1.18491 0 5.37743e-05)
(1.18013 0 5.22346e-05)
(1.17554 0 5.02232e-05)
(1.17115 0 4.91278e-05)
(1.16693 0 4.74152e-05)
(1.16288 0 4.6049e-05)
(1.15899 -3.6297e-39 4.41835e-05)
(1.15526 0 4.30785e-05)
(1.15166 0 4.18477e-05)
(1.14818 0 4.0613e-05)
(1.14482 -3.07769e-39 3.98082e-05)
(1.14158 -2.94818e-39 3.8184e-05)
(1.13845 0 3.73815e-05)
(1.13542 1.09499e-38 3.62073e-05)
(1.13249 1.0546e-38 3.53988e-05)
(1.12964 0 3.45762e-05)
(1.12687 0 3.35635e-05)
(1.12419 0 3.27291e-05)
(1.12159 0 3.16933e-05)
(1.11907 -3.56999e-38 3.12554e-05)
(1.11661 -3.44991e-38 3.02563e-05)
(1.11423 -6.70006e-38 2.9766e-05)
(1.11189 0 2.90108e-05)
(1.10964 0 2.81925e-05)
(1.10743 0 2.76106e-05)
(1.10528 -1.18855e-37 2.69104e-05)
(1.10318 0 2.64254e-05)
(1.10115 0 2.58128e-05)
(1.09915 0 2.52287e-05)
(1.09721 4.18224e-37 2.5692e-05)
(1.09528 0 2.54906e-05)
(1.09343 0 2.49985e-05)
(1.09158 0 2.4317e-05)
(1.08982 0 2.37262e-05)
(1.08807 0 2.31522e-05)
(1.08639 0 2.25224e-05)
(1.08472 -1.35938e-36 2.19267e-05)
(1.08314 -1.32354e-36 2.13254e-05)
(1.08154 0 2.07875e-05)
(1.08004 2.49364e-36 2.00879e-05)
(1.07853 0 1.95939e-05)
(1.07712 0 1.86768e-05)
(1.07568 0 1.82232e-05)
(1.07437 8.67787e-36 1.71406e-05)
(1.07302 0 1.6619e-05)
(1.07181 7.93731e-36 1.54496e-05)
(1.07055 0 1.48345e-05)
(1.06945 0 1.32545e-05)
(1.06832 1.34485e-35 1.2666e-05)
(1.06735 0 1.05009e-05)
(1.06636 0 9.72164e-06)
(1.06555 0 6.97902e-06)
(1.06474 0 6.01831e-06)
(1.06414 0 2.03307e-06)
(1.06356 -4.78649e-35 2.10313e-06)
(1.06323 0 -3.81458e-06)
(1.063 -8.38535e-36 -4.02469e-06)
(1.06299 0 -1.184e-05)
(1.06318 2.09568e-34 -1.61365e-05)
(1.06369 0 -2.68852e-05)
(1.06453 -5.29521e-34 -3.07551e-05)
(1.06575 -1.89727e-33 -4.5173e-05)
(1.06762 4.15086e-33 -5.25333e-05)
(1.06988 0 -7.70818e-05)
(1.07344 -1.548e-32 -8.86064e-05)
(1.07739 0 -0.000136175)
(1.08419 0 -0.000178016)
(1.09141 -3.57685e-31 -0.000298323)
(1.10686 0 -0.000258106)
(1.1136 0 -0.00133554)
(1.19289 -2.41126e-26 0.0040324)
(1.14423 -3.56991e-23 -0.0926978)
(0.819132 -4.91543e-23 -0.0991937)
(0.812156 1.27114e-23 -0.0642108)
(0.83564 9.09288e-24 -0.0608852)
(0.8372 1.08965e-23 -0.0477707)
(0.853716 -8.96187e-24 -0.0445095)
(0.852461 0 -0.0389109)
(0.867181 4.87494e-24 -0.0335719)
(0.867565 0 -0.0313121)
(0.88028 4.66152e-24 -0.0274192)
(0.868433 0 -0.0274603)
(0.896938 0 -0.019207)
(0.899587 -7.90855e-24 -0.026105)
(0.901853 0 -0.0154148)
(0.921088 -6.50277e-24 -0.01774)
(0.892037 2.13629e-24 -0.024234)
(0.876369 9.26913e-29 -0.018803)
(0.877562 7.65586e-24 -0.0100271)
(0.910541 -7.04208e-24 -0.0101872)
(0.882152 -4.90021e-24 -0.0156858)
(0.918775 -4.81309e-26 -0.00521253)
(0.897923 0 -0.0189143)
(0.91311 -9.37614e-25 -0.00121564)
(0.907176 0 -0.00978958)
(0.916629 -5.7791e-24 0.0148555)
(0.968314 0 0.00124949)
(0.904118 7.16115e-24 -0.0150944)
(0.917554 6.26879e-28 -0.00962113)
(0.869855 0 -0.0162828)
(0.898691 1.06429e-25 0.00314443)
(0.902444 0 -0.0124044)
(0.908595 0 0.00427843)
(0.918068 8.85948e-25 -0.00232678)
(0.921114 0 0.0135147)
(0.932751 -2.5702e-25 0.00469139)
(0.926935 -1.02972e-23 0.0127847)
(0.985181 1.50341e-24 0.00628308)
(0.905532 0 -0.0217471)
(0.888463 -1.84004e-24 -0.00198175)
(0.906688 6.80227e-29 -0.00625942)
(0.895648 -1.93661e-24 0.00919793)
(0.944237 0 0.0175547)
(0.92377 9.60878e-24 0.0109596)
(0.95281 0 0.0209398)
(0.975859 0 0.0112249)
(0.966338 1.01724e-28 -0.000432142)
(0.928817 0 -0.012334)
(0.898006 -8.03031e-25 0.00075443)
(0.940969 -4.5594e-24 0.0168207)
(0.941268 -4.68959e-24 0.0122148)
(0.957129 0 0.0172022)
(0.966207 0 0.010242)
(0.984206 -7.02677e-24 0.0108234)
(0.979188 -7.42968e-24 -0.00839887)
(0.92445 -3.71531e-24 -0.00620069)
(0.933092 0 0.00911137)
(0.960143 1.63358e-28 0.0110951)
(0.968361 -8.89731e-25 0.00057083)
(0.92238 0 -0.0107149)
(0.905323 0 -0.00446609)
(0.943687 -1.2311e-23 0.00940793)
(0.977179 6.36781e-24 0.0137726)
(0.964207 -1.35002e-24 0.00819065)
(0.976046 4.96933e-24 0.0116478)
(0.97317 6.90817e-28 -0.00683354)
(0.941394 0 -0.0127846)
(0.916428 0 -0.0223214)
(0.885124 -1.15188e-28 -0.0114571)
(0.92489 1.50845e-24 0.00617227)
(0.925126 4.48757e-25 0.00468421)
(0.943159 0 0.0167079)
(0.962104 0 0.00605235)
(0.955305 -5.2802e-24 0.00116715)
(0.971047 4.81131e-24 0.00339526)
(0.981748 -5.30188e-25 0.000469574)
(0.937373 -4.37326e-24 -0.0138204)
(0.90414 -6.70253e-24 -0.00996301)
(0.913107 -3.13564e-24 -0.00160854)
(0.914542 0 -9.76572e-05)
(0.940777 9.24672e-28 0.000737878)
(0.939504 0 -0.00377607)
(0.954601 0 0.00546236)
(0.96067 0 -0.00528113)
(0.915998 -6.38328e-25 -0.00969857)
(0.902636 -3.23253e-24 -0.00456432)
(0.902958 0 0.0059893)
(0.938979 -4.40805e-24 0.00918799)
(0.948939 -2.45809e-24 0.0046187)
(0.971211 0 -0.00194161)
(0.905429 0 -0.0179766)
(0.91043 2.8372e-24 0.00453833)
(0.926561 0 0.00318597)
(0.927507 -4.49623e-24 0.0132636)
(0.947958 0 0.00639945)
(0.949134 0 0.0105065)
(1.00001 0 0.00430818)
(0.935368 0 -0.0193021)
(0.936773 -3.30148e-24 -0.00544446)
(0.897947 -7.1007e-24 -0.01708)
(0.897629 -1.07747e-24 0.00193556)
(0.879765 0 -0.0139164)
(0.890977 0 0.0152403)
(0.956971 0 0.00755454)
(0.911638 -1.66447e-24 -0.00320224)
(0.944927 1.03068e-27 0.0092523)
(0.913071 0 0.00606988)
(0.96089 0 0.0243042)
(0.963678 -3.19879e-28 -0.00067286)
(0.967587 -3.70121e-25 -0.000815248)
(0.910332 1.86066e-23 -0.0212478)
(0.908692 0 0.00965382)
(0.941094 0 0.00300065)
(0.932069 2.84555e-24 0.0131446)
(0.961479 -9.47324e-24 0.0128198)
(0.960153 4.59384e-24 0.0071327)
(0.991687 -2.35427e-25 -0.000554826)
(0.918545 0 -0.0210796)
(0.948077 -1.33535e-27 -0.0114054)
(0.874421 3.13444e-23 -0.0290139)
(0.881617 0 0.00199081)
(0.874852 1.09032e-23 -0.00973242)
(0.914322 0 0.0191285)
(0.916412 0 -0.0164241)
(0.878395 -2.54723e-24 0.00480742)
(0.949732 0 0.00460652)
(0.868258 -2.172e-24 -0.00424233)
(0.952027 3.48425e-24 0.0210794)
(0.909637 0 0.00100265)
(0.966471 0 0.0286311)
(0.936007 0 -0.0134308)
(0.918888 -4.88967e-24 0.00805937)
(0.915674 -6.56965e-24 -0.0157889)
(0.918539 0 0.0106521)
(0.930467 0 -0.0126642)
(0.8832 -3.78658e-24 0.00791961)
(0.947194 0 0.0134498)
(0.898269 8.03401e-25 -0.00192101)
(0.955747 4.03298e-24 0.00879129)
(0.907893 0 -0.00935801)
(0.968874 3.45896e-28 0.0179332)
(0.938985 0 -0.0112247)
(0.943224 0 0.00489777)
(0.871054 -1.74675e-23 -0.0173471)
(0.911948 -1.81365e-23 0.0207914)
(0.912216 0 -0.0173802)
(0.903549 0 0.0150992)
(0.955814 -3.05202e-24 -0.00671289)
(0.90794 0 -0.00430115)
(0.93693 1.37478e-24 0.00171232)
(0.889717 7.38863e-28 -0.00736912)
(0.923081 4.07749e-24 -0.00519987)
(0.823854 4.41199e-24 -0.0184218)
(0.930968 -1.2455e-23 0.0189341)
(0.887709 -8.00238e-24 -0.0123377)
(0.939639 -6.22593e-24 0.0275085)
(0.904817 3.01344e-26 -0.0136924)
(0.902304 0 0.0274269)
(0.920694 0 -0.00714089)
(0.913392 -1.18851e-23 0.0178943)
(0.935646 -8.3889e-27 -0.0131009)
(0.890629 8.03085e-28 0.00185382)
(0.964715 -5.35625e-24 0.00959058)
(0.90958 5.13694e-24 -0.00926261)
(0.906543 0 0.000331368)
(0.874297 -8.59789e-24 -0.0102457)
(0.914398 0 0.00524435)
(0.864847 -1.44794e-24 -0.00691456)
(0.930582 -1.80182e-23 0.0241741)
(0.928851 0 -0.00764601)
(0.937315 0 0.00558273)
(0.879401 0 -0.017284)
(0.905658 -9.43444e-25 0.00711031)
(0.852986 0 -0.0154111)
(0.896881 0 0.021938)
(0.885279 -1.97638e-24 -0.00968234)
(0.890892 -2.15243e-23 0.0288739)
(0.934609 1.05921e-24 0.0108019)
(0.940672 0 0.0189052)
(0.918362 1.6638e-25 -0.00851197)
(0.883526 3.98912e-24 0.0129269)
(0.955644 0 0.0172499)
(0.914589 4.36649e-25 -0.0012049)
(0.932261 -8.63849e-26 0.0025737)
(0.867582 0 -0.0122235)
(0.895628 0 0.0118823)
(0.872973 7.78226e-26 -0.0120994)
(0.83238 0 0.010262)
(0.884467 0 0.0191309)
(0.908391 -5.09354e-24 0.0250031)
(0.892123 -2.57485e-24 0.0219188)
(0.92252 -5.39203e-24 0.035807)
(0.904267 5.14733e-24 0.0306363)
(0.945543 0 0.0524318)
(0.915877 0 0.0442277)
(0.985351 -1.11219e-23 0.0817817)
(0.932571 -1.79633e-23 0.0670596)
(1.08572 4.60635e-23 0.163963)
(1.2956 -3.09421e-23 0.130865)
(1.1507 0 0.0117871)
(0.987268 0 -0.000259076)
(0.942628 0 -3.85868e-05)
)
;

boundaryField
{
    inlet
    {
        type            calculated;
        value           uniform (0 0 0);
    }
    outlet
    {
        type            calculated;
        value           uniform (0 0 0);
    }
    sideWall
    {
        type            empty;
    }
}


// ************************************************************************* //
