/*--------------------------------*- C++ -*----------------------------------*\
| =========                 |                                                 |
| \\      /  F ield         | foam-extend: Open Source CFD                    |
|  \\    /   O peration     | Version:     3.2                                |
|   \\  /    A nd           | Web:         http://www.foam-extend.org         |
|    \\/     M anipulation  | For copyright notice see file Copyright         |
\*---------------------------------------------------------------------------*/
FoamFile
{
    version     2.0;
    format      ascii;
    class       volScalarField;
    location    "160";
    object      C1;
}
// * * * * * * * * * * * * * * * * * * * * * * * * * * * * * * * * * * * * * //

dimensions      [1 -3 0 0 0 0 0];

internalField   nonuniform List<scalar> 
96000
(
0.04
0.04
0.04
0.04
0.04
0.04
0.04
0.04
0.04
0.04
0.04
0.04
0.04
0.04
0.04
0.04
0.04
0.04
0.04
0.04
0.04
0.04
0.04
0.04
0.04
0.04
0.04
0.04
0.04
0.04
0.04
0.04
0.04
0.04
0.04
0.04
0.04
0.04
0.04
0.04
0.04
0.04
0.04
0.04
0.04
0.04
0.04
0.04
0.04
0.04
0.04
0.04
0.04
0.04
0.04
0.04
0.04
0.04
0.04
0.04
0.04
0.04
0.04
0.04
0.04
0.04
0.04
0.04
0.04
0.04
0.04
0.04
0.04
0.04
0.04
0.04
0.04
0.04
0.04
0.04
0.04
0.04
0.04
0.04
0.04
0.04
0.04
0.04
0.04
0.04
0.04
0.04
0.04
0.04
0.04
0.04
0.04
0.04
0.04
0.04
0.0398794
0.0397911
0.0397473
0.0396389
0.0397131
0.0394768
0.0396792
0.0394296
0.0395555
0.0390947
0.0398457
0.0420207
0.0423665
0.041449
0.0392371
0.0398238
0.0374053
0.0377767
0.0399166
0.042811
0.0417472
0.0428499
0.0412417
0.0404625
0.0409499
0.0387595
0.0404046
0.0393573
0.0383674
0.0387232
0.0427648
0.0415236
0.0403768
0.0394619
0.0381583
0.0410879
0.0392751
0.0424521
0.043456
0.0407056
0.0398248
0.039134
0.0376513
0.0402599
0.0408868
0.0421041
0.0415819
0.0396051
0.0385578
0.0375229
0.0394059
0.0388061
0.0431592
0.0405497
0.039892
0.0387656
0.039191
0.0407171
0.0392839
0.0399787
0.0394272
0.0408649
0.0390833
0.0388569
0.0414156
0.0410916
0.0418907
0.0410652
0.0432622
0.0393674
0.0414118
0.042267
0.0438415
0.0481349
0.0418738
0.0412641
0.0399548
0.0420281
0.0421983
0.0452221
0.0452022
0.0430734
0.0422159
0.0416952
0.0403235
0.0386762
0.0405291
0.0411526
0.0417652
0.0401234
0.0430747
0.038802
0.0383112
0.0392954
0.0403594
0.0415237
0.040783
0.0386471
0.0386662
0.0369652
0.0379186
0.0379849
0.0430134
0.0400999
0.0409591
0.0378832
0.0389388
0.0422287
0.0411487
0.0403858
0.0424295
0.0403605
0.0389122
0.038724
0.0427909
0.0414131
0.0431427
0.0401187
0.0406752
0.0403275
0.0377765
0.0388366
0.0385372
0.0416659
0.0411224
0.0388459
0.0400375
0.038197
0.0376287
0.040315
0.0386166
0.0416292
0.0394268
0.0415454
0.0383094
0.0413606
0.0396127
0.0432816
0.0404458
0.0410448
0.0421737
0.0385014
0.0377165
0.0400799
0.0381577
0.0457627
0.0431421
0.0437195
0.0397069
0.0410377
0.0383354
0.0394092
0.0399737
0.039018
0.038309
0.0375185
0.0373932
0.0393106
0.0388933
0.042464
0.0407736
0.0414296
0.0387168
0.0400647
0.0399543
0.0389053
0.0382487
0.0402567
0.0417888
0.0396042
0.0413815
0.0386276
0.038776
0.0382854
0.0378924
0.0390119
0.0397037
0.039269
0.0386183
0.0388717
0.0409573
0.0415832
0.039819
0.0394052
0.0387513
0.039248
0.0381571
0.0397077
0.0389752
0.0397002
0.0393717
0.0397163
0.0396102
0.0397834
0.0397844
0.0399128
0.0400002
0.0399926
0.0399898
0.0399878
0.04
0.04
0.04
0.04
0.04
0.04
0.04
0.04
0.04
0.04
0.04
0.04
0.04
0.04
0.04
0.04
0.04
0.04
0.04
0.04
0.04
0.04
0.04
0.04
0.04
0.04
0.04
0.04
0.04
0.04
0.04
0.04
0.04
0.04
0.04
0.04
0.04
0.04
0.04
0.04
0.04
0.04
0.04
0.04
0.04
0.04
0.04
0.04
0.04
0.04
0.04
0.04
0.04
0.04
0.04
0.04
0.04
0.04
0.04
0.04
0.04
0.04
0.04
0.04
0.04
0.04
0.04
0.04
0.04
0.04
0.04
0.04
0.04
0.04
0.04
0.04
0.04
0.04
0.04
0.04
0.04
0.04
0.04
0.04
0.04
0.04
0.04
0.04
0.04
0.04
0.04
0.04
0.04
0.04
0.04
0.04
0.04
0.04
0.04
0.04
0.0399999
0.0400086
0.0400111
0.0400024
0.0400296
0.0399894
0.0400418
0.0400021
0.0400318
0.0398232
0.0399386
0.0401846
0.0402518
0.0403203
0.039886
0.0398111
0.0396952
0.0397649
0.0399911
0.0408323
0.0402202
0.0400572
0.0402205
0.0401863
0.0408445
0.040315
0.0404579
0.0402131
0.0399331
0.0399027
0.0402412
0.0401731
0.0399481
0.0403765
0.0400533
0.0403575
0.0402086
0.0403323
0.0404078
0.0400816
0.0399532
0.0402844
0.0398269
0.040032
0.0404445
0.0401888
0.0401871
0.0398408
0.0400107
0.039704
0.039766
0.0397279
0.0399414
0.0399028
0.0397139
0.0400036
0.0402852
0.0404663
0.0401578
0.0396328
0.0395137
0.0397172
0.0400783
0.0401342
0.0405647
0.0402049
0.040227
0.040313
0.0407504
0.0406164
0.0408635
0.0411438
0.0410802
0.0419123
0.0413374
0.0408761
0.0410213
0.0412677
0.0413483
0.0414679
0.0416147
0.0413009
0.0410786
0.0408387
0.0411733
0.0406203
0.0404915
0.0407457
0.0404678
0.0400077
0.0405117
0.0402467
0.0400828
0.0398915
0.0402343
0.0400421
0.0400227
0.0396318
0.0400194
0.0395778
0.0394138
0.0394476
0.0398182
0.039792
0.0399177
0.0398067
0.0402014
0.040739
0.0403763
0.0399142
0.0405598
0.0402387
0.0402388
0.0402023
0.0408273
0.0407765
0.0406142
0.040078
0.0400829
0.0399791
0.0396746
0.0396634
0.0394785
0.0397646
0.0396281
0.0395387
0.0395948
0.0397795
0.0396182
0.0400705
0.0397705
0.0399489
0.0396375
0.040014
0.0398952
0.0404981
0.040129
0.0404698
0.0400385
0.0403038
0.0404218
0.0402845
0.0400069
0.0402697
0.0398001
0.0407584
0.0408001
0.0410817
0.040748
0.0407966
0.0399654
0.0396497
0.0394316
0.0394967
0.0392181
0.0393478
0.0393524
0.039599
0.039598
0.0399065
0.0398877
0.0400561
0.0401042
0.0401759
0.0400933
0.0399751
0.0396296
0.0400926
0.0405699
0.0402812
0.0407011
0.0401016
0.0398901
0.0396917
0.0394593
0.0397051
0.0399538
0.0399623
0.039781
0.0397759
0.04034
0.040779
0.0404501
0.040234
0.0399641
0.0399931
0.0396831
0.0399499
0.0398611
0.0399828
0.039953
0.039997
0.0399926
0.0400006
0.0400021
0.0399952
0.0399893
0.0399882
0.0399873
0.0399862
0.04
0.04
0.04
0.04
0.04
0.04
0.04
0.04
0.04
0.04
0.04
0.04
0.04
0.04
0.04
0.04
0.04
0.04
0.04
0.04
0.04
0.04
0.04
0.04
0.04
0.04
0.04
0.04
0.04
0.04
0.04
0.04
0.04
0.04
0.04
0.04
0.04
0.04
0.04
0.04
0.04
0.04
0.04
0.04
0.04
0.04
0.04
0.04
0.04
0.04
0.04
0.04
0.04
0.04
0.04
0.04
0.04
0.04
0.04
0.04
0.04
0.04
0.04
0.04
0.04
0.04
0.04
0.04
0.04
0.04
0.04
0.04
0.04
0.04
0.04
0.04
0.04
0.04
0.04
0.04
0.04
0.04
0.04
0.04
0.04
0.04
0.04
0.04
0.04
0.04
0.04
0.04
0.04
0.04
0.04
0.04
0.04
0.04
0.04
0.04
0.0399988
0.0400002
0.0400008
0.0399965
0.0400056
0.0399914
0.0400076
0.0399957
0.0400047
0.0399176
0.0399376
0.0400765
0.040155
0.0402066
0.0400481
0.0399485
0.0398809
0.0398769
0.0399023
0.0402087
0.0401183
0.0400501
0.0401108
0.0401233
0.0403483
0.0402301
0.0402628
0.0401892
0.0400609
0.0400008
0.0400987
0.0401219
0.0400602
0.0401564
0.040071
0.0401287
0.0401405
0.0402013
0.0402084
0.0401176
0.0400878
0.0401488
0.039982
0.0399723
0.04015
0.0401349
0.040149
0.0400271
0.0400136
0.0398946
0.039844
0.0398297
0.0399176
0.0399537
0.0399068
0.0399575
0.0400898
0.0401755
0.0400944
0.0398839
0.0397931
0.0398619
0.0399667
0.0400245
0.0401736
0.0401307
0.0401299
0.0401983
0.0403753
0.0403661
0.0404482
0.04057
0.0406326
0.0409716
0.0409121
0.0407075
0.0406871
0.0407498
0.040787
0.0408979
0.0409828
0.0409181
0.0408075
0.0406863
0.040758
0.040547
0.0403843
0.0404449
0.0403578
0.0401618
0.0402782
0.0401811
0.0400927
0.0399577
0.0400702
0.0400574
0.0400732
0.0399365
0.0400107
0.039874
0.0397517
0.0397318
0.0398772
0.0399306
0.0400191
0.0399639
0.0400994
0.0403045
0.0402957
0.0401156
0.0403396
0.0402645
0.0401859
0.040148
0.040322
0.0403795
0.0403611
0.0401494
0.0401074
0.0400204
0.0398557
0.039793
0.0396876
0.0398038
0.0397886
0.0397708
0.0397952
0.0398492
0.0397977
0.039926
0.0398603
0.0399214
0.039842
0.0399649
0.0399328
0.0401552
0.040083
0.0402475
0.0401357
0.0402352
0.0403325
0.0402814
0.0401579
0.040179
0.0400009
0.0402994
0.0404368
0.0405912
0.0404949
0.0404794
0.040145
0.0399403
0.0397755
0.0397542
0.0396139
0.0395884
0.0395583
0.0396141
0.0396363
0.0397602
0.0398307
0.0399036
0.0399615
0.0399951
0.0399701
0.0399432
0.0397792
0.0399195
0.0400952
0.0400902
0.0402671
0.0401068
0.039975
0.0398531
0.0397223
0.0397612
0.0398688
0.0399106
0.0398531
0.0398339
0.0400379
0.0402781
0.040247
0.04016
0.0400377
0.0400052
0.0398717
0.0399284
0.0399075
0.0399476
0.0399484
0.0399673
0.0399725
0.0399794
0.0399834
0.0399834
0.0399834
0.0399843
0.0399845
0.0399844
0.04
0.04
0.04
0.04
0.04
0.04
0.04
0.04
0.04
0.04
0.04
0.04
0.04
0.04
0.04
0.04
0.04
0.04
0.04
0.04
0.04
0.04
0.04
0.04
0.04
0.04
0.04
0.04
0.04
0.04
0.04
0.04
0.04
0.04
0.04
0.04
0.04
0.04
0.04
0.04
0.04
0.04
0.04
0.04
0.04
0.04
0.04
0.04
0.04
0.04
0.04
0.04
0.04
0.04
0.04
0.04
0.04
0.04
0.04
0.04
0.04
0.04
0.04
0.04
0.04
0.04
0.04
0.04
0.04
0.04
0.04
0.04
0.04
0.04
0.04
0.04
0.04
0.04
0.04
0.04
0.04
0.04
0.04
0.04
0.04
0.04
0.04
0.04
0.04
0.04
0.04
0.04
0.04
0.04
0.04
0.04
0.04
0.04
0.04
0.04
0.0399995
0.0399998
0.0400001
0.039998
0.0400017
0.0399958
0.0400018
0.0399976
0.0400018
0.0399638
0.0399645
0.0400336
0.0400937
0.0401273
0.0400609
0.0399938
0.039946
0.0399217
0.0399109
0.0400432
0.0400507
0.04003
0.0400487
0.0400656
0.0401753
0.0401611
0.0401816
0.0401606
0.0400943
0.0400404
0.0400658
0.040086
0.0400683
0.040095
0.0400603
0.0400762
0.0400944
0.0401247
0.0401334
0.0401016
0.0400908
0.0401015
0.0400205
0.0399887
0.0400636
0.0400878
0.0401024
0.0400556
0.0400287
0.0399638
0.0399151
0.0398938
0.0399325
0.0399644
0.0399544
0.0399628
0.0400227
0.0400785
0.0400605
0.0399643
0.0399018
0.0399193
0.0399565
0.039986
0.0400541
0.0400704
0.0400799
0.0401156
0.0402075
0.0402266
0.0402709
0.0403351
0.0403924
0.0405713
0.0406161
0.0405394
0.0405037
0.040519
0.040535
0.0406018
0.0406634
0.0406614
0.0406161
0.040556
0.0405629
0.040457
0.040344
0.0403382
0.0402961
0.0401906
0.0402066
0.0401583
0.0400959
0.0400086
0.0400393
0.0400533
0.0400722
0.0400233
0.0400382
0.0399823
0.0399107
0.039879
0.0399386
0.0399817
0.0400391
0.0400223
0.0400725
0.0401751
0.0402195
0.0401527
0.0402311
0.0402157
0.0401615
0.0401207
0.0401794
0.0402253
0.0402333
0.0401465
0.0400987
0.040037
0.0399413
0.0398832
0.0398145
0.0398528
0.0398598
0.0398551
0.0398659
0.0398905
0.0398724
0.039922
0.0399055
0.0399326
0.0399122
0.0399648
0.0399587
0.0400602
0.0400581
0.0401442
0.0401246
0.0401727
0.0402401
0.0402326
0.0401698
0.0401554
0.0400655
0.0401694
0.0402644
0.0403636
0.0403458
0.0403346
0.0401753
0.0400377
0.0399198
0.03987
0.0397788
0.0397292
0.039683
0.0396867
0.039694
0.0397473
0.0398006
0.0398484
0.0398954
0.039922
0.0399239
0.0399143
0.0398324
0.039879
0.0399558
0.0399926
0.0400929
0.0400576
0.0399893
0.0399164
0.039834
0.0398209
0.0398657
0.0398998
0.0398814
0.0398669
0.0399546
0.040091
0.0401239
0.0400982
0.0400436
0.0400128
0.039942
0.0399461
0.0399354
0.0399496
0.0399533
0.0399632
0.0399687
0.0399739
0.0399777
0.0399788
0.0399798
0.0399812
0.0399821
0.0399826
0.04
0.04
0.04
0.04
0.04
0.04
0.04
0.04
0.04
0.04
0.04
0.04
0.04
0.04
0.04
0.04
0.04
0.04
0.04
0.04
0.04
0.04
0.04
0.04
0.04
0.04
0.04
0.04
0.04
0.04
0.04
0.04
0.04
0.04
0.04
0.04
0.04
0.04
0.04
0.04
0.04
0.04
0.04
0.04
0.04
0.04
0.04
0.04
0.04
0.04
0.04
0.04
0.04
0.04
0.04
0.04
0.04
0.04
0.04
0.04
0.04
0.04
0.04
0.04
0.04
0.04
0.04
0.04
0.04
0.04
0.04
0.04
0.04
0.04
0.04
0.04
0.04
0.04
0.04
0.04
0.04
0.04
0.04
0.04
0.04
0.04
0.04
0.04
0.04
0.04
0.04
0.04
0.04
0.04
0.04
0.04
0.04
0.04
0.04
0.0400001
0.0399999
0.04
0.0400001
0.0399991
0.0400007
0.0399981
0.0400005
0.0399988
0.0400016
0.0399833
0.039978
0.040013
0.0400562
0.0400812
0.0400512
0.0400107
0.0399763
0.0399465
0.039926
0.0399881
0.0400126
0.0400125
0.0400208
0.0400359
0.0401002
0.0401122
0.0401301
0.0401307
0.0400954
0.0400517
0.0400538
0.0400698
0.0400662
0.0400728
0.0400499
0.0400525
0.0400647
0.0400797
0.0400925
0.0400846
0.0400794
0.040078
0.0400289
0.0399982
0.0400303
0.0400573
0.0400741
0.0400569
0.0400364
0.0399933
0.0399528
0.0399301
0.039949
0.0399758
0.0399763
0.0399739
0.039999
0.0400355
0.0400374
0.0399917
0.039955
0.0399563
0.0399673
0.0399752
0.040007
0.0400334
0.04005
0.0400711
0.0401247
0.0401457
0.0401716
0.040209
0.0402514
0.0403633
0.0404287
0.0404098
0.0403838
0.0403813
0.0403869
0.0404268
0.0404752
0.040495
0.0404816
0.0404547
0.0404481
0.0403835
0.0403047
0.0402807
0.0402554
0.0401932
0.0401809
0.0401494
0.0400992
0.040035
0.0400354
0.0400505
0.0400706
0.0400554
0.0400578
0.0400294
0.0399854
0.0399562
0.0399812
0.0400134
0.0400518
0.0400486
0.0400649
0.0401195
0.0401671
0.0401484
0.0401789
0.0401784
0.0401445
0.0401052
0.0401204
0.0401485
0.0401623
0.0401301
0.0400939
0.0400485
0.0399867
0.0399368
0.0398864
0.0398937
0.0399026
0.0399028
0.0399075
0.0399199
0.0399119
0.0399341
0.0399298
0.0399453
0.0399466
0.0399746
0.0399743
0.0400231
0.0400363
0.0400878
0.040098
0.0401321
0.0401807
0.0401881
0.0401528
0.0401357
0.0400833
0.0401206
0.0401814
0.0402468
0.0402517
0.0402454
0.0401601
0.0400687
0.0399861
0.0399359
0.0398693
0.0398192
0.0397677
0.0397504
0.0397449
0.039766
0.0398002
0.0398341
0.0398664
0.0398847
0.039896
0.0398949
0.0398524
0.0398677
0.0399069
0.0399429
0.0400076
0.0400116
0.0399805
0.0399385
0.039885
0.0398596
0.0398763
0.0398999
0.0398941
0.039884
0.0399261
0.0400075
0.0400489
0.0400495
0.0400288
0.040009
0.0399681
0.0399594
0.0399506
0.0399549
0.0399574
0.0399631
0.0399674
0.0399715
0.0399746
0.039976
0.0399773
0.0399789
0.0399801
0.0399809
0.04
0.04
0.04
0.04
0.04
0.04
0.04
0.04
0.04
0.04
0.04
0.04
0.04
0.04
0.04
0.04
0.04
0.04
0.04
0.04
0.04
0.04
0.04
0.04
0.04
0.04
0.04
0.04
0.04
0.04
0.04
0.04
0.04
0.04
0.04
0.04
0.04
0.04
0.04
0.04
0.04
0.04
0.04
0.04
0.04
0.04
0.04
0.04
0.04
0.04
0.04
0.04
0.04
0.04
0.04
0.04
0.04
0.04
0.04
0.04
0.04
0.04
0.04
0.04
0.04
0.04
0.04
0.04
0.04
0.04
0.04
0.04
0.04
0.04
0.04
0.04
0.04
0.04
0.04
0.04
0.04
0.04
0.04
0.04
0.04
0.04
0.04
0.04
0.04
0.04
0.04
0.04
0.04
0.04
0.04
0.04
0.04
0.04
0.04
0.0400001
0.0400002
0.0400004
0.0400005
0.04
0.0400007
0.0399995
0.0400005
0.0399998
0.040002
0.039992
0.0399835
0.0400009
0.0400324
0.0400524
0.0400393
0.0400171
0.0399935
0.0399632
0.0399393
0.0399684
0.0399917
0.04
0.0400069
0.0400209
0.0400632
0.0400795
0.0400953
0.0401053
0.0400865
0.0400509
0.0400451
0.0400595
0.0400628
0.0400631
0.0400433
0.0400395
0.0400454
0.0400513
0.0400654
0.0400691
0.0400678
0.040064
0.0400294
0.0400024
0.0400152
0.0400372
0.0400549
0.0400521
0.0400395
0.0400077
0.0399733
0.0399509
0.0399609
0.0399848
0.03999
0.0399847
0.0399923
0.0400152
0.0400218
0.0399992
0.0399812
0.0399811
0.0399819
0.0399762
0.0399874
0.0400115
0.0400306
0.0400455
0.04008
0.0400979
0.0401122
0.040133
0.0401623
0.0402405
0.0403062
0.040314
0.0402995
0.0402906
0.0402893
0.0403131
0.0403526
0.0403804
0.0403835
0.0403764
0.0403705
0.040326
0.0402683
0.0402415
0.0402239
0.0401853
0.0401683
0.0401455
0.0401028
0.0400501
0.0400379
0.0400489
0.0400686
0.0400687
0.0400696
0.0400523
0.0400227
0.0399981
0.0400079
0.0400331
0.0400615
0.0400628
0.0400634
0.0400912
0.0401318
0.0401337
0.0401486
0.0401534
0.0401321
0.0400961
0.040092
0.040106
0.0401193
0.0401123
0.0400892
0.0400561
0.0400134
0.0399712
0.0399301
0.0399246
0.0399317
0.0399338
0.0399364
0.0399427
0.0399371
0.0399468
0.0399443
0.039954
0.0399645
0.0399841
0.0399851
0.040008
0.0400204
0.0400535
0.0400731
0.0401033
0.0401422
0.0401546
0.0401326
0.0401178
0.0400835
0.0400952
0.0401356
0.0401808
0.0401914
0.0401872
0.0401358
0.0400738
0.0400165
0.0399745
0.0399246
0.0398797
0.0398286
0.0398017
0.0397874
0.0397907
0.0398112
0.0398369
0.0398582
0.0398687
0.0398814
0.0398847
0.0398617
0.0398662
0.0398891
0.0399178
0.0399623
0.039978
0.0399669
0.0399444
0.0399093
0.0398838
0.039888
0.0399038
0.0399017
0.039894
0.0399161
0.039967
0.0400035
0.0400141
0.0400105
0.0400005
0.0399764
0.0399664
0.0399591
0.0399594
0.0399606
0.0399639
0.0399672
0.0399704
0.039973
0.0399743
0.0399756
0.0399772
0.0399785
0.0399795
0.04
0.04
0.04
0.04
0.04
0.04
0.04
0.04
0.04
0.04
0.04
0.04
0.04
0.04
0.04
0.04
0.04
0.04
0.04
0.04
0.04
0.04
0.04
0.04
0.04
0.04
0.04
0.04
0.04
0.04
0.04
0.04
0.04
0.04
0.04
0.04
0.04
0.04
0.04
0.04
0.04
0.04
0.04
0.04
0.04
0.04
0.04
0.04
0.04
0.04
0.04
0.04
0.04
0.04
0.04
0.04
0.04
0.04
0.04
0.04
0.04
0.04
0.04
0.04
0.04
0.04
0.04
0.04
0.04
0.04
0.04
0.04
0.04
0.04
0.04
0.04
0.04
0.04
0.04
0.04
0.04
0.04
0.04
0.04
0.04
0.04
0.04
0.04
0.04
0.04
0.04
0.04
0.04
0.04
0.04
0.04
0.04
0.04
0.04
0.0400001
0.0400004
0.0400006
0.0400008
0.0400006
0.0400009
0.0400004
0.0400008
0.0400004
0.0400023
0.0399958
0.0399855
0.0399935
0.0400178
0.0400347
0.0400299
0.0400195
0.0400038
0.0399742
0.0399487
0.0399612
0.0399808
0.0399932
0.0400009
0.0400135
0.0400429
0.0400566
0.0400698
0.0400842
0.0400747
0.0400453
0.0400379
0.0400524
0.0400599
0.0400576
0.0400378
0.0400302
0.040032
0.0400327
0.0400473
0.0400571
0.0400586
0.0400543
0.0400262
0.0400021
0.0400067
0.0400248
0.0400428
0.0400473
0.0400397
0.0400135
0.0399832
0.0399627
0.0399699
0.039993
0.0400004
0.0399935
0.039991
0.0400041
0.0400111
0.0400005
0.0399954
0.0399982
0.0399945
0.03998
0.0399787
0.039999
0.040019
0.0400313
0.0400548
0.0400678
0.0400736
0.0400834
0.0401037
0.0401638
0.0402248
0.0402438
0.0402367
0.0402254
0.0402198
0.0402348
0.040269
0.0402995
0.0403108
0.0403153
0.0403127
0.040279
0.0402344
0.0402105
0.0401987
0.0401748
0.0401599
0.0401426
0.0401042
0.0400578
0.040041
0.0400491
0.0400682
0.0400753
0.0400761
0.0400629
0.0400407
0.0400207
0.0400249
0.0400464
0.0400692
0.0400705
0.0400622
0.0400741
0.0401077
0.0401194
0.0401296
0.0401365
0.0401221
0.0400885
0.0400752
0.0400803
0.0400922
0.0400982
0.0400853
0.0400606
0.0400291
0.0399929
0.0399574
0.0399477
0.0399541
0.0399569
0.0399581
0.0399601
0.0399536
0.0399564
0.0399536
0.0399607
0.0399757
0.039992
0.0399921
0.0400008
0.0400089
0.0400318
0.0400545
0.0400835
0.0401166
0.0401294
0.0401132
0.0401005
0.0400764
0.0400791
0.0401085
0.040141
0.0401508
0.0401465
0.0401119
0.0400692
0.0400305
0.0399982
0.0399605
0.0399213
0.039872
0.0398408
0.039822
0.0398158
0.0398276
0.0398476
0.0398603
0.039864
0.0398752
0.0398805
0.0398674
0.0398683
0.0398833
0.0399053
0.0399371
0.0399551
0.0399542
0.0399437
0.0399207
0.0398985
0.0398977
0.0399085
0.039907
0.0399006
0.0399129
0.0399463
0.0399755
0.039989
0.0399938
0.0399906
0.0399769
0.0399689
0.0399632
0.0399622
0.0399626
0.0399647
0.0399671
0.0399697
0.0399718
0.0399731
0.0399743
0.0399758
0.0399773
0.0399784
0.04
0.04
0.04
0.04
0.04
0.04
0.04
0.04
0.04
0.04
0.04
0.04
0.04
0.04
0.04
0.04
0.04
0.04
0.04
0.04
0.04
0.04
0.04
0.04
0.04
0.04
0.04
0.04
0.04
0.04
0.04
0.04
0.04
0.04
0.04
0.04
0.04
0.04
0.04
0.04
0.04
0.04
0.04
0.04
0.04
0.04
0.04
0.04
0.04
0.04
0.04
0.04
0.04
0.04
0.04
0.04
0.04
0.04
0.04
0.04
0.04
0.04
0.04
0.04
0.04
0.04
0.04
0.04
0.04
0.04
0.04
0.04
0.04
0.04
0.04
0.04
0.04
0.04
0.04
0.04
0.04
0.04
0.04
0.04
0.04
0.04
0.04
0.04
0.04
0.04
0.04
0.04
0.04
0.04
0.04
0.04
0.04
0.04
0.04
0.0400002
0.0400006
0.0400009
0.0400011
0.040001
0.0400012
0.040001
0.0400011
0.040001
0.0400026
0.0399971
0.0399852
0.0399883
0.0400085
0.0400239
0.0400237
0.0400208
0.0400106
0.039982
0.0399549
0.039958
0.0399748
0.03999
0.0399995
0.0400111
0.0400316
0.0400406
0.0400508
0.0400669
0.0400625
0.0400371
0.0400308
0.0400475
0.0400581
0.0400544
0.0400332
0.0400224
0.0400213
0.0400196
0.0400343
0.0400485
0.0400527
0.0400478
0.0400219
0.039999
0.0399996
0.0400164
0.0400358
0.0400445
0.0400393
0.0400153
0.0399866
0.0399677
0.0399761
0.0400009
0.0400097
0.0400011
0.0399917
0.039997
0.0400023
0.0399992
0.0400043
0.0400111
0.0400048
0.0399838
0.0399741
0.0399913
0.0400124
0.0400244
0.0400415
0.0400487
0.0400466
0.0400485
0.0400633
0.0401133
0.04017
0.0401934
0.0401894
0.0401756
0.0401671
0.0401777
0.0402091
0.0402406
0.0402565
0.0402677
0.040268
0.0402401
0.0402032
0.040183
0.0401771
0.0401642
0.0401537
0.0401399
0.040104
0.0400604
0.0400418
0.0400496
0.0400696
0.0400799
0.0400799
0.0400674
0.0400481
0.0400313
0.0400349
0.0400562
0.040076
0.0400752
0.0400601
0.0400615
0.0400898
0.0401071
0.0401174
0.0401256
0.0401144
0.040082
0.0400632
0.0400627
0.0400741
0.0400875
0.0400826
0.0400642
0.0400387
0.0400059
0.0399744
0.0399644
0.0399715
0.0399757
0.0399761
0.0399743
0.0399652
0.0399626
0.0399587
0.0399656
0.0399843
0.0399994
0.0399974
0.0399964
0.0399997
0.0400169
0.0400409
0.0400702
0.0400999
0.0401111
0.0400964
0.0400839
0.0400656
0.0400664
0.0400914
0.0401165
0.0401227
0.0401162
0.0400903
0.0400606
0.040036
0.0400134
0.0399853
0.0399507
0.0399035
0.03987
0.0398488
0.0398386
0.0398463
0.0398626
0.0398682
0.0398656
0.0398745
0.0398808
0.0398726
0.0398722
0.0398829
0.0398999
0.0399232
0.03994
0.0399441
0.0399409
0.039926
0.0399075
0.0399051
0.0399132
0.0399115
0.0399054
0.0399125
0.0399356
0.0399583
0.0399716
0.0399801
0.0399814
0.0399741
0.0399688
0.0399648
0.0399636
0.0399637
0.0399652
0.0399671
0.0399692
0.0399709
0.0399721
0.0399733
0.0399747
0.0399762
0.0399774
0.04
0.04
0.04
0.04
0.04
0.04
0.04
0.04
0.04
0.04
0.04
0.04
0.04
0.04
0.04
0.04
0.04
0.04
0.04
0.04
0.04
0.04
0.04
0.04
0.04
0.04
0.04
0.04
0.04
0.04
0.04
0.04
0.04
0.04
0.04
0.04
0.04
0.04
0.04
0.04
0.04
0.04
0.04
0.04
0.04
0.04
0.04
0.04
0.04
0.04
0.04
0.04
0.04
0.04
0.04
0.04
0.04
0.04
0.04
0.04
0.04
0.04
0.04
0.04
0.04
0.04
0.04
0.04
0.04
0.04
0.04
0.04
0.04
0.04
0.04
0.04
0.04
0.04
0.04
0.04
0.04
0.04
0.04
0.04
0.04
0.04
0.04
0.04
0.04
0.04
0.04
0.04
0.04
0.04
0.04
0.04
0.04
0.04
0.04
0.0400003
0.0400008
0.0400013
0.0400016
0.0400017
0.0400019
0.0400018
0.0400019
0.0400019
0.0400032
0.0399976
0.0399838
0.0399832
0.0400006
0.0400155
0.040019
0.040022
0.0400166
0.0399892
0.0399604
0.0399569
0.0399706
0.0399871
0.039999
0.0400111
0.0400264
0.040031
0.040038
0.0400539
0.0400517
0.0400279
0.0400222
0.0400413
0.040056
0.0400533
0.0400315
0.0400174
0.0400128
0.0400085
0.0400228
0.0400406
0.0400483
0.0400443
0.0400198
0.0399965
0.0399936
0.0400084
0.0400292
0.0400421
0.0400398
0.0400173
0.0399884
0.0399692
0.0399779
0.0400051
0.0400172
0.040009
0.0399953
0.0399937
0.0399952
0.0399951
0.0400076
0.0400202
0.0400145
0.0399891
0.0399724
0.0399857
0.0400067
0.0400198
0.0400348
0.0400387
0.04003
0.040024
0.0400332
0.0400767
0.0401305
0.0401569
0.0401553
0.0401394
0.0401269
0.0401333
0.0401624
0.0401947
0.0402142
0.0402305
0.0402338
0.0402096
0.0401768
0.0401585
0.0401562
0.0401516
0.0401473
0.0401379
0.0401044
0.0400618
0.0400411
0.0400477
0.0400691
0.0400828
0.0400834
0.0400709
0.0400518
0.0400354
0.0400384
0.0400607
0.0400807
0.0400794
0.0400593
0.0400524
0.0400752
0.0400948
0.0401071
0.0401177
0.0401096
0.0400785
0.0400558
0.0400503
0.0400601
0.0400775
0.0400791
0.0400668
0.0400462
0.0400156
0.0399855
0.0399753
0.0399831
0.0399894
0.0399909
0.0399873
0.0399758
0.0399685
0.0399617
0.0399675
0.0399889
0.0400056
0.0400033
0.0399958
0.0399932
0.0400052
0.040029
0.0400593
0.0400883
0.0400986
0.0400843
0.0400704
0.0400538
0.0400538
0.0400774
0.0400999
0.0401044
0.0400952
0.0400723
0.0400499
0.0400352
0.0400216
0.0400025
0.039973
0.0399285
0.0398934
0.0398697
0.0398565
0.0398625
0.0398781
0.0398803
0.0398732
0.0398788
0.0398845
0.0398786
0.0398775
0.0398857
0.0398989
0.0399162
0.0399308
0.0399372
0.0399383
0.0399289
0.0399138
0.0399113
0.0399178
0.0399157
0.0399097
0.039914
0.0399305
0.0399481
0.0399599
0.0399697
0.0399736
0.0399706
0.0399678
0.0399653
0.0399645
0.0399647
0.0399658
0.0399674
0.0399691
0.0399706
0.0399716
0.0399726
0.0399739
0.0399754
0.0399766
0.04
0.04
0.04
0.04
0.04
0.04
0.04
0.04
0.04
0.04
0.04
0.04
0.04
0.04
0.04
0.04
0.04
0.04
0.04
0.04
0.04
0.04
0.04
0.04
0.04
0.04
0.04
0.04
0.04
0.04
0.04
0.04
0.04
0.04
0.04
0.04
0.04
0.04
0.04
0.04
0.04
0.04
0.04
0.04
0.04
0.04
0.04
0.04
0.04
0.04
0.04
0.04
0.04
0.04
0.04
0.04
0.04
0.04
0.04
0.04
0.04
0.04
0.04
0.04
0.04
0.04
0.04
0.04
0.04
0.04
0.04
0.04
0.04
0.04
0.04
0.04
0.04
0.04
0.04
0.04
0.04
0.04
0.04
0.04
0.04
0.04
0.04
0.04
0.04
0.04
0.04
0.04
0.04
0.04
0.04
0.04
0.04
0.04
0.04
0.0400003
0.040001
0.0400017
0.0400021
0.0400024
0.0400026
0.0400026
0.0400027
0.0400028
0.0400039
0.0399978
0.0399822
0.0399787
0.0399944
0.0400091
0.0400154
0.0400232
0.0400215
0.0399952
0.0399651
0.0399567
0.0399676
0.0399851
0.0399992
0.0400122
0.0400245
0.0400252
0.040029
0.0400438
0.0400425
0.0400195
0.0400137
0.0400346
0.0400536
0.040053
0.0400309
0.0400141
0.0400058
0.0399992
0.0400133
0.0400339
0.0400449
0.0400425
0.0400185
0.0399944
0.0399886
0.0400011
0.0400232
0.0400403
0.0400408
0.0400189
0.0399892
0.039969
0.0399774
0.0400069
0.0400231
0.0400165
0.0399997
0.0399925
0.0399898
0.0399903
0.0400078
0.0400265
0.0400231
0.0399947
0.039972
0.0399814
0.0400024
0.0400167
0.0400313
0.0400336
0.0400199
0.0400065
0.0400104
0.0400498
0.0401017
0.0401298
0.0401302
0.0401126
0.0400957
0.040098
0.0401257
0.0401586
0.0401807
0.0402009
0.0402066
0.0401845
0.0401542
0.0401372
0.0401365
0.0401381
0.0401406
0.0401357
0.0401041
0.040062
0.0400396
0.0400447
0.0400672
0.0400846
0.0400866
0.0400732
0.0400532
0.0400364
0.0400384
0.0400617
0.0400837
0.0400828
0.040059
0.0400454
0.0400632
0.0400838
0.0400983
0.0401117
0.0401063
0.0400761
0.0400507
0.040041
0.0400489
0.0400689
0.0400756
0.0400683
0.0400519
0.040023
0.0399929
0.0399824
0.0399914
0.0399998
0.040003
0.0399987
0.039985
0.0399736
0.0399639
0.039968
0.0399912
0.0400105
0.040009
0.039997
0.0399886
0.0399958
0.0400193
0.0400507
0.04008
0.0400901
0.0400752
0.0400591
0.0400425
0.0400417
0.0400652
0.0400877
0.0400921
0.0400805
0.0400574
0.040039
0.0400317
0.0400257
0.0400143
0.0399899
0.0399479
0.0399121
0.0398865
0.039871
0.0398763
0.0398929
0.0398941
0.0398836
0.0398857
0.0398898
0.0398849
0.0398837
0.03989
0.0399002
0.0399133
0.0399255
0.0399327
0.0399362
0.0399305
0.0399183
0.0399163
0.0399218
0.0399194
0.0399136
0.0399162
0.0399285
0.0399421
0.0399522
0.039962
0.0399673
0.0399671
0.0399662
0.0399651
0.0399648
0.0399652
0.0399662
0.0399676
0.0399692
0.0399705
0.0399713
0.0399721
0.0399733
0.0399747
0.039976
0.04
0.04
0.04
0.04
0.04
0.04
0.04
0.04
0.04
0.04
0.04
0.04
0.04
0.04
0.04
0.04
0.04
0.04
0.04
0.04
0.04
0.04
0.04
0.04
0.04
0.04
0.04
0.04
0.04
0.04
0.04
0.04
0.04
0.04
0.04
0.04
0.04
0.04
0.04
0.04
0.04
0.04
0.04
0.04
0.04
0.04
0.04
0.04
0.04
0.04
0.04
0.04
0.04
0.04
0.04
0.04
0.04
0.04
0.04
0.04
0.04
0.04
0.04
0.04
0.04
0.04
0.04
0.04
0.04
0.04
0.04
0.04
0.04
0.04
0.04
0.04
0.04
0.04
0.04
0.04
0.04
0.04
0.04
0.04
0.04
0.04
0.04
0.04
0.04
0.04
0.04
0.04
0.04
0.04
0.04
0.04
0.04
0.04
0.04
0.0400004
0.0400011
0.0400019
0.0400024
0.0400027
0.0400029
0.040003
0.0400031
0.0400032
0.040004
0.0399975
0.0399808
0.039976
0.0399911
0.0400062
0.0400139
0.0400244
0.0400247
0.0399985
0.0399673
0.0399561
0.039966
0.0399856
0.0400018
0.0400147
0.0400233
0.0400199
0.0400209
0.0400348
0.0400341
0.0400121
0.0400072
0.0400302
0.0400523
0.0400522
0.0400286
0.0400097
0.0399996
0.0399923
0.0400073
0.04003
0.0400431
0.0400407
0.0400156
0.0399904
0.0399837
0.0399965
0.0400206
0.0400402
0.0400412
0.040018
0.0399872
0.0399675
0.0399777
0.0400102
0.0400291
0.0400222
0.0400019
0.0399902
0.0399853
0.0399874
0.0400094
0.0400322
0.0400291
0.0399975
0.0399708
0.0399786
0.0400009
0.0400168
0.0400302
0.0400297
0.0400111
0.0399925
0.039994
0.040032
0.0400824
0.04011
0.0401097
0.0400895
0.0400697
0.0400706
0.0400986
0.0401319
0.040155
0.0401769
0.0401832
0.0401616
0.0401327
0.0401177
0.04012
0.0401272
0.0401348
0.0401323
0.040101
0.0400593
0.040037
0.0400429
0.0400674
0.040087
0.0400885
0.0400728
0.0400516
0.0400351
0.0400381
0.0400633
0.0400867
0.0400844
0.0400565
0.0400382
0.0400536
0.0400762
0.0400929
0.0401075
0.0401026
0.0400718
0.0400446
0.0400331
0.040041
0.0400637
0.040074
0.0400694
0.0400547
0.0400264
0.0399968
0.0399879
0.0399994
0.0400097
0.0400136
0.0400077
0.0399909
0.0399762
0.0399651
0.0399694
0.0399946
0.0400152
0.0400127
0.0399966
0.0399842
0.0399893
0.0400137
0.040046
0.0400747
0.040083
0.0400662
0.0400478
0.0400317
0.0400321
0.0400566
0.0400791
0.0400819
0.0400674
0.0400441
0.0400297
0.0400289
0.040029
0.0400231
0.0400018
0.0399611
0.0399251
0.0398995
0.0398843
0.0398904
0.0399075
0.0399067
0.0398929
0.0398922
0.0398956
0.0398912
0.0398896
0.0398946
0.0399027
0.0399127
0.0399227
0.0399299
0.0399346
0.0399311
0.0399212
0.0399198
0.039925
0.0399225
0.0399168
0.0399182
0.0399277
0.0399385
0.039947
0.0399563
0.0399622
0.0399636
0.0399641
0.0399641
0.0399644
0.0399651
0.0399662
0.0399675
0.039969
0.0399701
0.0399709
0.0399716
0.0399727
0.0399741
0.0399755
0.04
0.04
0.04
0.04
0.04
0.04
0.04
0.04
0.04
0.04
0.04
0.04
0.04
0.04
0.04
0.04
0.04
0.04
0.04
0.04
0.04
0.04
0.04
0.04
0.04
0.04
0.04
0.04
0.04
0.04
0.04
0.04
0.04
0.04
0.04
0.04
0.04
0.04
0.04
0.04
0.04
0.04
0.04
0.04
0.04
0.04
0.04
0.04
0.04
0.04
0.04
0.04
0.04
0.04
0.04
0.04
0.04
0.04
0.04
0.04
0.04
0.04
0.04
0.04
0.04
0.04
0.04
0.04
0.04
0.04
0.04
0.04
0.04
0.04
0.04
0.04
0.04
0.04
0.04
0.04
0.04
0.04
0.04
0.04
0.04
0.04
0.04
0.04
0.04
0.04
0.04
0.04
0.04
0.04
0.04
0.04
0.04
0.04
0.0400001
0.0400005
0.0400013
0.0400021
0.0400026
0.0400029
0.0400031
0.0400033
0.0400034
0.0400036
0.040004
0.0399964
0.0399789
0.0399736
0.0399891
0.040005
0.040014
0.0400258
0.0400271
0.0400008
0.0399679
0.0399545
0.0399646
0.0399871
0.0400059
0.0400185
0.0400232
0.0400155
0.0400141
0.0400272
0.0400264
0.040005
0.0400017
0.0400276
0.0400522
0.0400516
0.0400257
0.0400046
0.0399935
0.0399869
0.0400031
0.0400281
0.040043
0.0400396
0.0400122
0.0399851
0.0399781
0.0399931
0.0400204
0.0400418
0.0400417
0.040016
0.0399833
0.0399642
0.0399779
0.0400146
0.0400354
0.0400271
0.0400031
0.0399871
0.0399804
0.0399854
0.0400123
0.0400379
0.0400336
0.0399983
0.0399687
0.0399762
0.0400009
0.040019
0.0400316
0.040027
0.0400029
0.0399806
0.0399817
0.04002
0.0400697
0.0400963
0.0400933
0.0400695
0.0400474
0.0400485
0.0400776
0.0401115
0.0401352
0.0401577
0.0401638
0.0401414
0.0401125
0.0400991
0.0401055
0.0401185
0.04013
0.0401284
0.0400965
0.0400543
0.0400325
0.0400412
0.0400691
0.04009
0.0400897
0.0400712
0.040048
0.0400316
0.0400371
0.0400656
0.0400899
0.0400851
0.0400526
0.0400306
0.040045
0.0400704
0.0400899
0.0401053
0.0400996
0.0400672
0.0400379
0.0400256
0.0400348
0.0400603
0.0400738
0.040071
0.0400561
0.0400269
0.039998
0.0399917
0.0400063
0.0400191
0.0400235
0.0400153
0.039995
0.039977
0.0399651
0.0399711
0.039999
0.0400204
0.0400155
0.0399947