/*--------------------------------*- C++ -*----------------------------------*\
| =========                 |                                                 |
| \\      /  F ield         | foam-extend: Open Source CFD                    |
|  \\    /   O peration     | Version:     3.2                                |
|   \\  /    A nd           | Web:         http://www.foam-extend.org         |
|    \\/     M anipulation  | For copyright notice see file Copyright         |
\*---------------------------------------------------------------------------*/
FoamFile
{
    version     2.0;
    format      ascii;
    class       areaScalarField;
    location    "160";
    object      Ce1;
}
// * * * * * * * * * * * * * * * * * * * * * * * * * * * * * * * * * * * * * //

dimensions      [1 -3 0 0 0 0 0];

internalField   nonuniform List<scalar> 
300
(
5.38826
3.82633
2.20716
1.64038
1.44168
1.34094
1.26953
1.20811
1.15248
1.10276
1.05901
1.02039
0.985871
0.955408
0.928268
0.903824
0.88166
0.861362
0.842916
0.826209
0.810797
0.796405
0.78297
0.770424
0.75872
0.747695
0.737328
0.727513
0.718258
0.709521
0.701217
0.693332
0.685799
0.678633
0.671791
0.665274
0.659009
0.653017
0.647254
0.641719
0.636416
0.631299
0.626379
0.621622
0.617032
0.612606
0.608328
0.604201
0.600185
0.596318
0.592542
0.588908
0.585366
0.581946
0.578607
0.575378
0.57222
0.56917
0.566145
0.563248
0.560381
0.557647
0.554931
0.552352
0.54978
0.547354
0.544916
0.542636
0.540329
0.538194
0.536025
0.534041
0.532016
0.530197
0.528323
0.526682
0.524988
0.52355
0.522073
0.520886
0.519675
0.518796
0.517942
0.51745
0.517121
0.5171
0.517379
0.518135
0.519381
0.52118
0.523949
0.527329
0.532665
0.53862
0.548977
0.56014
0.584502
0.595185
0.732899
0.31757
0.103694
0.119933
0.132358
0.143783
0.156969
0.163463
0.180893
0.184919
0.200783
0.0375781
0.0465393
0.04191
0.0459215
0.0444319
0.212351
0.209631
0.232868
0.270796
0.034932
0.0481309
0.0356088
0.0445528
0.269156
0.251679
0.361131
0.242704
0.285198
0.213736
0.036908
0.0363028
0.0343522
0.0427803
0.27072
0.343525
0.261266
0.0499528
0.0323703
0.0367638
0.0404641
0.0340846
0.275419
0.298473
0.2506
0.046253
0.0548429
0.0436974
0.0435699
0.271026
0.308199
0.273434
0.0473617
0.0485771
0.0604631
0.0479122
0.311115
0.328868
0.376237
0.0453522
0.0487285
0.04233
0.0505005
0.362314
0.346776
0.346433
0.0521024
0.0411955
0.0409145
0.293651
0.330288
0.270874
0.334548
0.0534569
0.0540512
0.0684586
0.268282
0.250052
0.297948
0.319925
0.049674
0.0541947
0.0514949
0.0561528
0.270219
0.273453
0.30598
0.295405
0.0509589
0.0621321
0.0401124
0.0443306
0.3344
0.282108
0.331592
0.0450714
0.0612125
0.0455367
0.0522801
0.223258
0.296593
0.226708
0.0310515
0.0477409
0.0497647
0.047214
0.31664
0.25346
0.372474
0.0603343
0.041318
0.0405809
0.346624
0.28409
0.319786
0.329842
0.0720827
0.0439876
0.0552001
0.0305736
0.278855
0.23218
0.230843
0.252521
0.0350593
0.0501286
0.0420747
0.247032
0.297643
0.243201
0.268304
0.0435707
0.0447426
0.0396569
0.0464325
0.263172
0.298096
0.298954
0.0479477
0.0513322
0.0456198
0.281704
0.359409
0.198168
0.213778
0.0424649
0.0342424
0.0623853
0.0517079
0.338373
0.247342
0.300988
0.030155
0.0348018
0.0404021
0.214837
0.233594
0.194396
0.282138
0.0368672
0.0516554
0.043397
0.05521
0.253827
0.294903
0.233915
0.290149
0.2386
0.214478
0.297083
0.317101
0.215047
0.270589
0.200648
0.195191
0.243744
0.171444
0.290861
0.250613
0.274577
0.219273
0.270122
0.307704
0.340155
0.219569
0.237621
0.22148
0.191183
0.200318
0.205326
0.202685
0.182559
0.185226
0.161435
0.160279
0.138903
0.129424
0.108251
0.284267
0.655747
0.412246
0.35838
)
;

boundaryField
{
    inlet
    {
        type            calculated;
        value           uniform 0;
    }
    outlet
    {
        type            calculated;
        value           uniform 0;
    }
    sideWall
    {
        type            empty;
    }
}


// ************************************************************************* //
