/*--------------------------------*- C++ -*----------------------------------*\
| =========                 |                                                 |
| \\      /  F ield         | foam-extend: Open Source CFD                    |
|  \\    /   O peration     | Version:     3.2                                |
|   \\  /    A nd           | Web:         http://www.foam-extend.org         |
|    \\/     M anipulation  | For copyright notice see file Copyright         |
\*---------------------------------------------------------------------------*/
FoamFile
{
    version     2.0;
    format      ascii;
    class       areaScalarField;
    location    "160";
    object      Ce2;
}
// * * * * * * * * * * * * * * * * * * * * * * * * * * * * * * * * * * * * * //

dimensions      [1 -3 0 0 0 0 0];

internalField   nonuniform List<scalar> 
300
(
4.59558
3.263
1.88168
1.39819
1.2287
1.14278
1.08187
1.02948
0.982032
0.939625
0.902304
0.86937
0.839929
0.813948
0.790802
0.769954
0.751052
0.733742
0.71801
0.703762
0.690619
0.678345
0.666887
0.656188
0.646207
0.636805
0.627965
0.619594
0.611702
0.604252
0.59717
0.590446
0.584022
0.577912
0.572077
0.56652
0.561178
0.556068
0.551154
0.546434
0.541912
0.537548
0.533353
0.529297
0.525383
0.521609
0.517961
0.514442
0.511017
0.507721
0.504501
0.501402
0.498381
0.495465
0.492618
0.489865
0.487172
0.484572
0.481993
0.479522
0.477077
0.474746
0.472431
0.470232
0.468038
0.46597
0.463891
0.461947
0.45998
0.458159
0.45631
0.454619
0.452892
0.451341
0.449743
0.448344
0.4469
0.445674
0.444414
0.443402
0.44237
0.44162
0.440892
0.440472
0.440192
0.440174
0.440412
0.441057
0.442119
0.443653
0.446013
0.448896
0.453445
0.458523
0.467353
0.476872
0.497645
0.506754
0.624188
0.270503
0.0881962
0.101963
0.112547
0.122252
0.133478
0.138992
0.153825
0.157247
0.170749
0.0317292
0.0393036
0.0353943
0.0387692
0.0375267
0.180604
0.178263
0.198012
0.230317
0.0294356
0.040584
0.0300167
0.0375547
0.228921
0.214038
0.307256
0.206423
0.242576
0.181738
0.0310749
0.0305799
0.0289294
0.0360505
0.230244
0.292204
0.222207
0.0421683
0.0272846
0.0309498
0.0340924
0.0286991
0.234274
0.253856
0.213166
0.0390485
0.0463027
0.0368682
0.0367185
0.230532
0.262159
0.2326
0.0399943
0.0410418
0.0511007
0.0404432
0.264629
0.279776
0.320103
0.03828
0.0410999
0.0357331
0.0426712
0.308245
0.29504
0.294765
0.044008
0.0347777
0.0344993
0.249759
0.280927
0.230403
0.284611
0.0451529
0.0456738
0.0578734
0.228235
0.212672
0.253406
0.27209
0.0419334
0.0457555
0.04349
0.0474437
0.229841
0.232561
0.260207
0.251269
0.0430253
0.0524936
0.0338465
0.0373911
0.284433
0.23994
0.282074
0.0380555
0.0517526
0.0384636
0.0441456
0.189885
0.25222
0.19278
0.0261604
0.0403082
0.0419813
0.0398589
0.269296
0.215609
0.316892
0.050981
0.0348795
0.0342335
0.294857
0.241634
0.27205
0.280605
0.0609547
0.0371491
0.0466342
0.0257907
0.237101
0.197424
0.196309
0.214792
0.0295369
0.042324
0.0354565
0.210131
0.253143
0.206886
0.228247
0.0367672
0.0377727
0.0334628
0.0392165
0.223764
0.253571
0.254228
0.0405015
0.043331
0.0385489
0.239652
0.305736
0.168511
0.181789
0.0358527
0.028882
0.0527194
0.0436472
0.287834
0.210338
0.256012
0.0253864
0.0293663
0.0340844
0.182724
0.198682
0.165291
0.239981
0.0311081
0.0436407
0.0366093
0.046661
0.215892
0.250804
0.198896
0.246761
0.202858
0.182407
0.252706
0.269728
0.182871
0.230107
0.170586
0.165962
0.207272
0.145757
0.247398
0.213162
0.233548
0.186427
0.229782
0.261704
0.289333
0.186691
0.202049
0.188325
0.162471
0.170308
0.174596
0.17233
0.155244
0.157494
0.137294
0.136285
0.118151
0.110051
0.0921115
0.242119
0.558396
0.350778
0.304858
)
;

boundaryField
{
    inlet
    {
        type            calculated;
        value           uniform 0;
    }
    outlet
    {
        type            calculated;
        value           uniform 0;
    }
    sideWall
    {
        type            empty;
    }
}


// ************************************************************************* //
