/*--------------------------------*- C++ -*----------------------------------*\
| =========                 |                                                 |
| \\      /  F ield         | foam-extend: Open Source CFD                    |
|  \\    /   O peration     | Version:     3.2                                |
|   \\  /    A nd           | Web:         http://www.foam-extend.org         |
|    \\/     M anipulation  | For copyright notice see file Copyright         |
\*---------------------------------------------------------------------------*/
FoamFile
{
    version     2.0;
    format      ascii;
    class       areaScalarField;
    location    "160";
    object      Cpre;
}
// * * * * * * * * * * * * * * * * * * * * * * * * * * * * * * * * * * * * * //

dimensions      [1 -3 0 0 0 0 0];

internalField   nonuniform List<scalar> 
300
(
0.04
0.04
0.04
0.04
0.04
0.04
0.04
0.04
0.04
0.04
0.04
0.04
0.04
0.04
0.04
0.04
0.04
0.04
0.04
0.04
0.04
0.04
0.04
0.04
0.04
0.04
0.04
0.04
0.04
0.04
0.04
0.04
0.04
0.04
0.04
0.04
0.04
0.04
0.04
0.04
0.04
0.04
0.04
0.04
0.04
0.04
0.04
0.04
0.04
0.04
0.04
0.04
0.04
0.04
0.04
0.04
0.04
0.04
0.04
0.04
0.04
0.04
0.04
0.04
0.04
0.04
0.04
0.04
0.04
0.04
0.04
0.04
0.04
0.04
0.04
0.04
0.04
0.04
0.04
0.04
0.04
0.04
0.04
0.04
0.04
0.04
0.04
0.04
0.04
0.04
0.04
0.04
0.04
0.04
0.04
0.04
0.04
0.04
0.04
0.04
0.0400715
0.0401796
0.0402142
0.0402279
0.0403641
0.0402226
0.0404932
0.0403083
0.0404934
0.0400909
0.0410259
0.0408176
0.0407944
0.0398468
0.0384045
0.0390232
0.038611
0.0390152
0.0412711
0.0446196
0.0405364
0.040682
0.0396526
0.0392724
0.0423973
0.0399899
0.0418936
0.0406456
0.0398822
0.0401232
0.0413813
0.0393761
0.0385269
0.041056
0.0394303
0.0426147
0.0404703
0.0408958
0.0417352
0.0390482
0.0384038
0.0405659
0.038795
0.0416037
0.0424222
0.0405482
0.0392879
0.0382259
0.0399203
0.038694
0.0407067
0.0399953
0.0408851
0.0389348
0.0380804
0.0400995
0.0405718
0.0421359
0.0408266
0.0390062
0.0380761
0.0384652
0.0404001
0.0400908
0.0428624
0.0402705
0.0407983
0.0395533
0.0413358
0.0406727
0.0429349
0.0437906
0.0423751
0.0455923
0.0410251
0.0404258
0.0414495
0.0437588
0.0437731
0.0432868
0.0436678
0.0410787
0.0410753
0.0405445
0.0419385
0.0400063
0.0419845
0.0426845
0.0409157
0.038588
0.0410634
0.0401391
0.0396505
0.0405599
0.0416663
0.0402171
0.039008
0.0378217
0.0401239
0.0381439
0.0390886
0.0392728
0.0406951
0.0386034
0.0385758
0.0389931
0.0402921
0.0437463
0.0403779
0.0393089
0.0402183
0.0388932
0.0401924
0.0399843
0.0443617
0.0426568
0.0415719
0.0397184
0.0389921
0.039415
0.0389389
0.0400524
0.0398451
0.0402099
0.0395298
0.0380904
0.0381006
0.0392769
0.0387073
0.0416759
0.0398442
0.0405664
0.0383038
0.039958
0.0395904
0.0429613
0.0408814
0.0415321
0.0396038
0.0396622
0.0394928
0.0395929
0.0388161
0.0413153
0.0392449
0.0434385
0.0408999
0.0419405
0.0409554
0.0425278
0.0395949
0.0388186
0.0387855
0.0382197
0.0373736
0.0385595
0.0385674
0.0404517
0.0401146
0.0411009
0.0392148
0.0402042
0.0401187
0.0413727
0.0414205
0.040245
0.0393263
0.0415351
0.0432122
0.0407717
0.0427631
0.0398332
0.0398552
0.0395532
0.0388772
0.040317
0.0408318
0.0405188
0.0398262
0.0400218
0.0423376
0.0430983
0.0410236
0.0406531
0.0399164
0.0404816
0.0392737
0.040689
0.04003
0.0405297
0.0402587
0.0403751
0.0402933
0.0402386
0.0402135
0.0400911
0.0400002
0.0399926
0.0399898
0.0399878
)
;

boundaryField
{
    inlet
    {
        type            calculated;
        value           uniform 0;
    }
    outlet
    {
        type            calculated;
        value           uniform 0;
    }
    sideWall
    {
        type            empty;
    }
}


// ************************************************************************* //
