/*--------------------------------*- C++ -*----------------------------------*\
| =========                 |                                                 |
| \\      /  F ield         | foam-extend: Open Source CFD                    |
|  \\    /   O peration     | Version:     3.2                                |
|   \\  /    A nd           | Web:         http://www.foam-extend.org         |
|    \\/     M anipulation  | For copyright notice see file Copyright         |
\*---------------------------------------------------------------------------*/
FoamFile
{
    version     2.0;
    format      ascii;
    class       areaScalarField;
    location    "160";
    object      Cs;
}
// * * * * * * * * * * * * * * * * * * * * * * * * * * * * * * * * * * * * * //

dimensions      [0 0 0 0 0 0 0];

internalField   nonuniform List<scalar> 
300
(
0.321737
0.321737
0.321737
0.321737
0.321737
0.321737
0.321737
0.321737
0.321737
0.321737
0.321737
0.321737
0.321737
0.321737
0.321737
0.321737
0.321737
0.321737
0.321737
0.321737
0.321737
0.321737
0.321737
0.321737
0.321737
0.321737
0.321737
0.321737
0.321737
0.321737
0.321737
0.321737
0.321737
0.321737
0.321737
0.321737
0.321737
0.321737
0.321737
0.321737
0.321737
0.321737
0.321737
0.321737
0.321737
0.321737
0.321737
0.321737
0.321737
0.321737
0.321737
0.321737
0.321737
0.321737
0.321737
0.321737
0.321737
0.321737
0.321737
0.321737
0.321737
0.321737
0.321737
0.321737
0.321737
0.321737
0.321737
0.321737
0.321737
0.321737
0.321737
0.321737
0.321737
0.321737
0.321737
0.321737
0.321737
0.321737
0.321737
0.321737
0.321737
0.321737
0.321737
0.321737
0.321737
0.321737
0.321737
0.321737
0.321737
0.321737
0.321737
0.321737
0.321737
0.321737
0.321737
0.321737
0.321737
0.321737
0.321737
0.321737
0.321737
0.321737
0.321737
0.321737
0.321737
0.321737
0.321737
0.321737
0.321737
0.110304
0.107725
0.105601
0.103673
0.101998
0.321737
0.321737
0.321737
0.321737
0.0928075
0.0921932
0.0915156
0.09093
0.321737
0.321737
0.321737
0.321737
0.321737
0.321737
0.0870968
0.0869365
0.086998
0.0873223
0.321737
0.321737
0.321737
0.0893378
0.088708
0.0880142
0.0880234
0.0882505
0.321737
0.321737
0.321737
0.0925542
0.0931933
0.0928467
0.0924875
0.321737
0.321737
0.321737
0.0965975
0.097982
0.0984961
0.0978013
0.321737
0.321737
0.321737
0.0978524
0.0973761
0.0982822
0.0998533
0.321737
0.321737
0.321737
0.100251
0.0988201
0.0973973
0.321737
0.321737
0.321737
0.321737
0.100189
0.101124
0.101737
0.321737
0.321737
0.321737
0.321737
0.0979425
0.0984369
0.0990194
0.0990928
0.321737
0.321737
0.321737
0.321737
0.0977947
0.0981932
0.097441
0.0969799
0.321737
0.321737
0.321737
0.0992711
0.100436
0.0999333
0.0987159
0.321737
0.321737
0.321737
0.0950968
0.0965879
0.0971867
0.0977805
0.321737
0.321737
0.321737
0.100645
0.0998763
0.0996164
0.321737
0.321737
0.321737
0.321737
0.103195
0.10223
0.100867
0.0987377
0.321737
0.321737
0.321737
0.321737
0.0964141
0.0973986
0.0975955
0.321737
0.321737
0.321737
0.321737
0.100295
0.100184
0.100369
0.100468
0.321737
0.321737
0.321737
0.101794
0.102328
0.103261
0.321737
0.321737
0.321737
0.321737
0.10116
0.101472
0.10261
0.102237
0.321737
0.321737
0.321737
0.0987861
0.0992953
0.0999455
0.321737
0.321737
0.321737
0.321737
0.102535
0.103128
0.103011
0.104127
0.321737
0.321737
0.321737
0.321737
0.321737
0.321737
0.321737
0.321737
0.321737
0.321737
0.321737
0.321737
0.321737
0.321737
0.321737
0.321737
0.321737
0.321737
0.321737
0.321737
0.321737
0.321737
0.321737
0.321737
0.321737
0.321737
0.321737
0.321737
0.321737
0.321737
0.321737
0.321737
0.321737
0.321737
0.321737
0.321737
0.321737
0.321737
0.321737
)
;

boundaryField
{
    inlet
    {
        type            calculated;
        value           uniform 0;
    }
    outlet
    {
        type            calculated;
        value           uniform 0;
    }
    sideWall
    {
        type            empty;
    }
}


// ************************************************************************* //
