/*--------------------------------*- C++ -*----------------------------------*\
| =========                 |                                                 |
| \\      /  F ield         | foam-extend: Open Source CFD                    |
|  \\    /   O peration     | Version:     3.2                                |
|   \\  /    A nd           | Web:         http://www.foam-extend.org         |
|    \\/     M anipulation  | For copyright notice see file Copyright         |
\*---------------------------------------------------------------------------*/
FoamFile
{
    version     2.0;
    format      ascii;
    class       areaScalarField;
    location    "160";
    object      Dbed;
}
// * * * * * * * * * * * * * * * * * * * * * * * * * * * * * * * * * * * * * //

dimensions      [0 0 0 0 0 0 0];

internalField   nonuniform List<scalar> 
300
(
0.002175
0.002175
0.002175
0.002175
0.002175
0.002175
0.002175
0.002175
0.002175
0.002175
0.002175
0.002175
0.002175
0.002175
0.002175
0.002175
0.002175
0.002175
0.002175
0.002175
0.002175
0.002175
0.002175
0.002175
0.002175
0.002175
0.002175
0.002175
0.002175
0.002175
0.002175
0.002175
0.002175
0.002175
0.002175
0.002175
0.002175
0.002175
0.002175
0.002175
0.002175
0.002175
0.002175
0.002175
0.002175
0.002175
0.002175
0.002175
0.002175
0.002175
0.002175
0.002175
0.002175
0.002175
0.002175
0.002175
0.002175
0.002175
0.002175
0.002175
0.002175
0.002175
0.002175
0.002175
0.002175
0.002175
0.002175
0.002175
0.002175
0.002175
0.002175
0.002175
0.002175
0.002175
0.002175
0.002175
0.002175
0.002175
0.002175
0.002175
0.002175
0.002175
0.002175
0.002175
0.002175
0.002175
0.002175
0.002175
0.002175
0.002175
0.002175
0.002175
0.002175
0.002175
0.002175
0.002175
0.002175
0.002175
0.002175
0.002175
0.00235305
0.00243812
0.002528
0.00262072
0.00268382
0.00277528
0.00282486
0.00290417
0.00294892
0.00301909
0.00312145
0.00304036
0.00310636
0.00305467
0.00311305
0.00312204
0.00314839
0.00318678
0.00314601
0.00323342
0.0031543
0.00322995
0.00315103
0.00322059
0.00318813
0.00321871
0.0032546
0.00315134
0.00325193
0.00319276
0.00316204
0.00324623
0.00312443
0.00325332
0.00315712
0.00330976
0.00315908
0.00321924
0.00324395
0.00309622
0.00324804
0.00315223
0.00324177
0.00323775
0.00327265
0.00325547
0.00318282
0.00324673
0.00325036
0.00328187
0.00329098
0.00330715
0.00331535
0.00327417
0.00331517
0.00330248
0.00331954
0.00330893
0.00328486
0.00331828
0.00336308
0.00333904
0.00333451
0.00333137
0.00330907
0.00330218
0.00326291
0.00330575
0.00333234
0.00332612
0.00334862
0.00331614
0.00333476
0.00333899
0.00332463
0.00328924
0.00331268
0.00328942
0.00331774
0.00330472
0.00330074
0.00329678
0.00326045
0.00330161
0.00325771
0.00329082
0.00329481
0.00332178
0.00328694
0.00328318
0.00330595
0.00326169
0.00328709
0.00328004
0.00331399
0.00321139
0.00331172
0.00319336
0.00319612
0.00324514
0.0031153
0.00334461
0.00320276
0.003313
0.00323152
0.00329089
0.00332284
0.00327494
0.00331204
0.00323978
0.00332571
0.00328222
0.00330175
0.00328387
0.00335008
0.00320086
0.0033457
0.00317307
0.00325243
0.0032169
0.00316025
0.00328983
0.0031194
0.00336488
0.00320314
0.00333632
0.00322713
0.00328957
0.00325399
0.00319796
0.00327527
0.00316317
0.00331658
0.00318578
0.00332139
0.00323347
0.00333024
0.00324419
0.00333223
0.00322558
0.00327039
0.00319867
0.00317806
0.00322968
0.0031298
0.00327256
0.0031322
0.00334654
0.00310718
0.00331359
0.00314273
0.00324078
0.00318414
0.00315545
0.00320622
0.00308231
0.00325189
0.00310623
0.00327933
0.00315134
0.00333394
0.00315885
0.00331367
0.00313006
0.00329459
0.00316436
0.00323514
0.00316659
0.00316343
0.00317032
0.00303212
0.00320271
0.00299318
0.00326201
0.00300516
0.00329636
0.00313306
0.00329743
0.00315271
0.00330685
0.00319203
0.00330717
0.00312737
0.00317169
0.00317627
0.0028642
0.00316772
0.00286217
0.00306853
0.00278222
0.0029301
0.00268054
0.00275064
0.00254819
0.00251885
0.00237111
0.002175
0.002175
0.002175
0.002175
)
;

boundaryField
{
    inlet
    {
        type            calculated;
        value           uniform 0;
    }
    outlet
    {
        type            calculated;
        value           uniform 0;
    }
    sideWall
    {
        type            empty;
    }
}


// ************************************************************************* //
