/*--------------------------------*- C++ -*----------------------------------*\
| =========                 |                                                 |
| \\      /  F ield         | foam-extend: Open Source CFD                    |
|  \\    /   O peration     | Version:     3.2                                |
|   \\  /    A nd           | Web:         http://www.foam-extend.org         |
|    \\/     M anipulation  | For copyright notice see file Copyright         |
\*---------------------------------------------------------------------------*/
FoamFile
{
    version     2.0;
    format      ascii;
    class       areaScalarField;
    location    "160";
    object      dd;
}
// * * * * * * * * * * * * * * * * * * * * * * * * * * * * * * * * * * * * * //

dimensions      [0 1 0 0 0 0 0];

internalField   nonuniform List<scalar> 
300
(
0.1
0.1
0.1
0.1
0.1
0.1
0.1
0.1
0.1
0.1
0.1
0.1
0.1
0.1
0.1
0.1
0.1
0.1
0.1
0.1
0.1
0.1
0.1
0.1
0.1
0.1
0.1
0.1
0.1
0.1
0.1
0.1
0.1
0.1
0.1
0.1
0.1
0.1
0.1
0.1
0.1
0.1
0.1
0.1
0.1
0.1
0.1
0.1
0.1
0.1
0.1
0.1
0.1
0.1
0.1
0.1
0.1
0.1
0.1
0.1
0.1
0.1
0.1
0.1
0.1
0.1
0.1
0.1
0.1
0.1
0.1
0.1
0.1
0.1
0.1
0.1
0.1
0.1
0.1
0.1
0.1
0.1
0.1
0.1
0.1
0.1
0.1
0.1
0.1
0.1
0.1
0.1
0.1
0.1
0.1
0.1
0.1
0.1
0.1
0.0977628
0.092371
0.0873785
0.0837549
0.0805436
0.077805
0.0753465
0.0732221
0.0713288
0.0696165
0.0680529
0.0668893
0.0658882
0.0649439
0.0640942
0.0628136
0.0613886
0.0603324
0.0596072
0.0588882
0.0585032
0.0580725
0.0576952
0.0574312
0.0574815
0.0577316
0.0570826
0.0562985
0.0554932
0.0550998
0.0549863
0.0550299
0.0552588
0.0554768
0.0557485
0.0560939
0.0566442
0.0562181
0.0557415
0.0557479
0.0559047
0.0565675
0.0571057
0.0578327
0.05873
0.0591274
0.0589126
0.0586883
0.0591372
0.0597211
0.0603621
0.0611551
0.0619395
0.0622252
0.0618384
0.0617569
0.0620991
0.0622343
0.061867
0.061599
0.0621067
0.0629651
0.0634394
0.0637017
0.063653
0.0631784
0.0624036
0.061611
0.0615485
0.0617812
0.0622082
0.0627702
0.063145
0.0636401
0.0639595
0.0634356
0.0624288
0.0618248
0.0617003
0.0619174
0.0621924
0.0625129
0.062553
0.0619783
0.0613456
0.0611259
0.0614037
0.0618347
0.0620572
0.0616356
0.061374
0.06153
0.0617482
0.0621259
0.0626501
0.0632766
0.0630081
0.0623464
0.0614897
0.0607365
0.0601869
0.0602791
0.0611496
0.0614917
0.0618267
0.0621529
0.0627859
0.0633313
0.0633876
0.0629775
0.0628374
0.0632583
0.0635761
0.0640826
0.0644995
0.0647041
0.0642137
0.0635048
0.0623584
0.061479
0.0611482
0.0612472
0.0612241
0.0610495
0.0616117
0.0617228
0.0622228
0.062681
0.0632358
0.0634057
0.0632014
0.0631423
0.0632409
0.0632937
0.0630125
0.06343
0.0636413
0.0639891
0.064264
0.0647372
0.0648828
0.0644292
0.0636826
0.0635465
0.063659
0.0638216
0.0644076
0.0642173
0.0640346
0.0636001
0.063046
0.062385
0.0626633
0.0630147
0.063398
0.0635478
0.0636443
0.0640613
0.0643694
0.0646703
0.0646112
0.0651692
0.065002
0.0644045
0.0639004
0.0636864
0.0635789
0.0640335
0.0644911
0.0643685
0.0638962
0.0634986
0.0631574
0.0632901
0.0636085
0.0641272
0.065263
0.0660161
0.0661715
0.0662343
0.0671128
0.0674713
0.0673913
0.0669557
0.0668511
0.0667209
0.0665783
0.067487
0.0687145
0.0699647
0.0715223
0.0733133
0.0755283
0.0781104
0.0813971
0.0853146
0.0911235
0.0975566
0.1
0.1
0.1
)
;

boundaryField
{
    inlet
    {
        type            calculated;
        value           uniform 0;
    }
    outlet
    {
        type            calculated;
        value           uniform 0;
    }
    sideWall
    {
        type            empty;
    }
}


// ************************************************************************* //
