/*--------------------------------*- C++ -*----------------------------------*\
| =========                 |                                                 |
| \\      /  F ield         | foam-extend: Open Source CFD                    |
|  \\    /   O peration     | Version:     3.2                                |
|   \\  /    A nd           | Web:         http://www.foam-extend.org         |
|    \\/     M anipulation  | For copyright notice see file Copyright         |
\*---------------------------------------------------------------------------*/
FoamFile
{
    version     2.0;
    format      ascii;
    class       areaScalarField;
    location    "160";
    object      deltaHb;
}
// * * * * * * * * * * * * * * * * * * * * * * * * * * * * * * * * * * * * * //

dimensions      [0 1 -1 0 0 0 0];

internalField   nonuniform List<scalar> 
300
(
0
0
0
0
0
0
0
0
0
0
0
0
0
0
0
0
0
0
0
0
0
0
0
0
0
0
0
0
0
0
0
0
0
0
0
0
0
0
0
0
0
0
0
0
0
0
0
0
0
0
0
0
0
0
0
0
0
0
0
0
0
0
0
0
0
0
0
0
0
0
0
0
0
0
0
0
0
0
0
0
0
0
0
0
0
0
0
0
0
0
0
0
0
0
0
0
0
0
0
0
0
0
0
0
0
0
0
0
0
0
-7.04505e-07
9.48441e-07
-3.14677e-07
-4.37733e-05
-3.95213e-05
4.42408e-06
-6.9088e-06
4.15088e-05
4.82785e-05
-0
-0
-4.94191e-05
-4.83704e-05
-1.53458e-05
1.06534e-06
1.32963e-05
8.05396e-06
4.99744e-05
4.10781e-05
-0
-0
-5.15138e-05
-5.26446e-05
-1.01281e-06
5.32986e-05
5.375e-05
-0
-0
-0
-5.42143e-05
-5.22701e-05
-1.53398e-06
5.21454e-05
5.8649e-05
1.19311e-12
1.05944e-07
-5.52111e-05
-5.67857e-05
-3.89562e-06
5.66244e-05
5.80595e-05
-4.06264e-06
3.37336e-06
-5.06913e-05
-6.36242e-05
-1.00529e-05
6.37236e-05
6.63744e-05
-0
-3.8251e-06
-6.64298e-05
-6.49695e-05
-3.22725e-06
6.68432e-05
6.83578e-05
1.77396e-06
-5.31834e-05
-5.42407e-05
-3.97022e-06
-9.66972e-06
5.68798e-05
6.00798e-05
-4.52726e-06
-5.59244e-05
-4.39377e-05
7.84432e-06
-1.17552e-06
5.10569e-05
5.13522e-05
-1.38799e-06
-3.15727e-06
-5.1543e-05
-4.51772e-05
4.7243e-06
-7.87374e-06
4.78523e-05
5.38153e-05
2.58784e-07
3.1577e-06
-5.44659e-05
-5.4133e-05
-5.01064e-06
5.33987e-05
5.2197e-05
-1.52868e-06
6.43423e-06
-4.7404e-05
-4.47811e-05
4.97159e-06
4.6287e-05
4.07785e-05
3.35826e-11
2.42417e-07
-5.13038e-05
-6.08668e-05
-1.37301e-05
5.91672e-05
6.42554e-05
3.74381e-06
-5.74424e-05
-5.59463e-05
-4.79996e-06
-7.79355e-06
5.49999e-05
6.31692e-05
5.32365e-06
1.19623e-06
-3.88005e-05
-4.20711e-05
-6.44246e-06
-9.74549e-06
4.98297e-05
4.94136e-05
1.07813e-11
-5.79947e-05
-5.1311e-05
-3.35652e-06
-7.58515e-06
6.27156e-05
5.61189e-05
-0
-1.4075e-06
-4.37121e-05
-5.54467e-05
-3.82892e-06
5.57792e-05
4.7769e-05
-1.73219e-06
-6.01351e-05
-5.3679e-05
1.66242e-05
9.593e-06
4.06431e-05
4.78787e-05
-3.70288e-06
6.92432e-10
-5.03181e-05
-4.67696e-05
3.45225e-06
4.62153e-05
5.08599e-05
-0
-5.40867e-05
-4.79937e-05
9.50853e-06
-2.79304e-06
4.57947e-05
4.74175e-05
3.38114e-10
-1.93049e-06
-5.20758e-05
-4.26371e-05
8.98473e-06
-1.22806e-06
2.33887e-06
-2.77859e-06
-1.53016e-05
-3.00041e-06
1.09719e-05
8.06123e-06
5.47273e-06
3.02924e-06
-6.09476e-06
1.81536e-06
-9.83264e-06
-1.33822e-05
2.67702e-06
1.41293e-05
-7.70767e-06
-8.75175e-06
5.24645e-06
1.04518e-05
9.45732e-06
-1.24327e-06
1.31585e-05
-2.30152e-07
0
0
0
0
0
0
0
0
0
0
0
0
0
0
)
;

boundaryField
{
    inlet
    {
        type            zeroGradient;
    }
    outlet
    {
        type            zeroGradient;
    }
    sideWall
    {
        type            empty;
    }
}


// ************************************************************************* //
