/*--------------------------------*- C++ -*----------------------------------*\
| =========                 |                                                 |
| \\      /  F ield         | foam-extend: Open Source CFD                    |
|  \\    /   O peration     | Version:     3.2                                |
|   \\  /    A nd           | Web:         http://www.foam-extend.org         |
|    \\/     M anipulation  | For copyright notice see file Copyright         |
\*---------------------------------------------------------------------------*/
FoamFile
{
    version     2.0;
    format      ascii;
    class       areaScalarField;
    location    "160";
    object      deltaHs;
}
// * * * * * * * * * * * * * * * * * * * * * * * * * * * * * * * * * * * * * //

dimensions      [0 1 -1 0 0 0 0];

internalField   nonuniform List<scalar> 
300
(
-0.000743901
-0.000525237
-0.00029856
-0.000219213
-0.000191395
-0.000177293
-0.000167296
-0.000158698
-0.000150909
-0.000143949
-0.000137823
-0.000132417
-0.000127584
-0.00012332
-0.00011952
-0.000116098
-0.000112995
-0.000110154
-0.000107571
-0.000105232
-0.000103075
-0.00010106
-9.9179e-05
-9.74226e-05
-9.57842e-05
-9.42407e-05
-9.27894e-05
-9.14152e-05
-9.01197e-05
-8.88965e-05
-8.77339e-05
-8.66301e-05
-8.55755e-05
-8.45723e-05
-8.36145e-05
-8.2702e-05
-8.18251e-05
-8.09862e-05
-8.01793e-05
-7.94046e-05
-7.86622e-05
-7.79457e-05
-7.7257e-05
-7.6591e-05
-7.59484e-05
-7.53287e-05
-7.47299e-05
-7.41521e-05
-7.35899e-05
-7.30486e-05
-7.252e-05
-7.20112e-05
-7.15152e-05
-7.10365e-05
-7.0569e-05
-7.0117e-05
-6.96749e-05
-6.92479e-05
-6.88245e-05
-6.84189e-05
-6.80174e-05
-6.76348e-05
-6.72546e-05
-6.68935e-05
-6.65334e-05
-6.61938e-05
-6.58524e-05
-6.55333e-05
-6.52103e-05
-6.49114e-05
-6.46077e-05
-6.433e-05
-6.40465e-05
-6.37918e-05
-6.35296e-05
-6.32998e-05
-6.30627e-05
-6.28614e-05
-6.26545e-05
-6.24884e-05
-6.23189e-05
-6.21958e-05
-6.20763e-05
-6.20073e-05
-6.19613e-05
-6.19583e-05
-6.19974e-05
-6.21033e-05
-6.22777e-05
-6.25295e-05
-6.29171e-05
-6.33904e-05
-6.41374e-05
-6.4971e-05
-6.64209e-05
-6.79838e-05
-7.13944e-05
-7.28899e-05
-9.21694e-05
-3.40249e-05
-2.89396e-06
-4.31802e-06
-5.0524e-06
-5.50956e-06
-6.26937e-06
-5.99531e-06
-7.06237e-06
-6.50041e-06
-7.28291e-06
7.08741e-06
6.87647e-06
7.55455e-06
7.5318e-06
7.24509e-06
-5.93791e-06
-5.44489e-06
-7.39726e-06
-9.35823e-06
7.83267e-06
7.91154e-06
8.28108e-06
8.15269e-06
-9.01956e-06
-6.69722e-06
-1.49048e-05
-6.55858e-06
-8.31933e-06
-5.43415e-06
7.56018e-06
7.54036e-06
8.65736e-06
7.97664e-06
-9.86878e-06
-1.24534e-05
-9.13152e-06
7.6111e-06
7.88441e-06
8.54962e-06
8.62862e-06
7.98132e-06
-7.95266e-06
-1.1698e-05
-6.97884e-06
7.38738e-06
7.10906e-06
8.09562e-06
7.74283e-06
-7.74276e-06
-1.0415e-05
-7.76088e-06
7.26985e-06
7.09236e-06
7.52196e-06
7.47566e-06
-8.82023e-06
-1.05098e-05
-1.29095e-05
7.79773e-06
7.12985e-06
7.8216e-06
7.33703e-06
-1.11102e-05
-1.07542e-05
-1.08705e-05
7.5603e-06
8.13424e-06
8.24552e-06
-7.63305e-06
-8.71951e-06
-6.25775e-06
-9.06938e-06
7.72515e-06
8.1713e-06
8.44188e-06
-5.47446e-06
-5.15279e-06
-8.04328e-06
-9.39696e-06
7.94643e-06
8.40613e-06
8.55512e-06
7.69128e-06
-6.74365e-06
-6.28789e-06
-9.64688e-06
-8.68135e-06
7.34823e-06
6.92408e-06
8.33419e-06
7.62484e-06
-9.64979e-06
-8.39032e-06
-1.11642e-05
7.35126e-06
6.73944e-06
7.6799e-06
7.39417e-06
-5.65431e-06
-1.07598e-05
-5.50162e-06
7.5307e-06
7.05853e-06
7.74538e-06
7.53464e-06
-1.07741e-05
-6.22163e-06
-1.26558e-05
7.11288e-06
8.17062e-06
7.80794e-06
-1.0091e-05
-7.69755e-06
-9.91871e-06
-1.10206e-05
6.8876e-06
7.72533e-06
7.96297e-06
8.26573e-06
-7.87227e-06
-5.45669e-06
-6.95763e-06
-5.93259e-06
7.39758e-06
7.94916e-06
7.79013e-06
-4.75847e-06
-9.82019e-06
-5.51095e-06
-7.93798e-06
7.45912e-06
7.18014e-06
7.97867e-06
7.41936e-06
-7.85288e-06
-8.29559e-06
-9.42958e-06
7.42134e-06
7.85712e-06
7.78646e-06
-8.50342e-06
-1.23601e-05
-3.84941e-06
-5.46093e-06
7.57107e-06
7.38557e-06
7.89146e-06
7.38493e-06
-8.74506e-06
-8.58275e-06
-7.92959e-06
7.76593e-06
7.94394e-06
7.55277e-06
-5.54115e-06
-6.25772e-06
-5.43969e-06
-8.95687e-06
7.42818e-06
6.82034e-06
7.88847e-06
7.29785e-06
-7.70367e-06
-8.15652e-06
-7.08362e-06
-7.93574e-06
-7.15873e-06
-4.5027e-06
-1.10013e-05
-1.21214e-05
-5.17723e-06
-1.13533e-05
-3.93276e-06
-6.39359e-06
-6.00225e-06
-4.47209e-06
-8.18977e-06
-8.37644e-06
-7.07346e-06
-6.01236e-06
-6.71401e-06
-1.10325e-05
-1.03684e-05
-6.11408e-06
-6.8339e-06
-5.7702e-06
-7.64578e-06
-4.52936e-06
-8.87774e-06
-5.90536e-06
-7.7532e-06
-6.20968e-06
-6.77784e-06
-5.91424e-06
-5.61635e-06
-4.7808e-06
-3.33935e-06
-2.93626e-05
-8.13703e-05
-4.72819e-05
-3.97413e-05
)
;

boundaryField
{
    inlet
    {
        type            calculated;
        value           uniform -0.000743899;
    }
    outlet
    {
        type            calculated;
        value           uniform -4.3718e-05;
    }
    sideWall
    {
        type            empty;
    }
}


// ************************************************************************* //
