/*--------------------------------*- C++ -*----------------------------------*\
| =========                 |                                                 |
| \\      /  F ield         | foam-extend: Open Source CFD                    |
|  \\    /   O peration     | Version:     3.2                                |
|   \\  /    A nd           | Web:         http://www.foam-extend.org         |
|    \\/     M anipulation  | For copyright notice see file Copyright         |
\*---------------------------------------------------------------------------*/
FoamFile
{
    version     2.0;
    format      ascii;
    class       volScalarField;
    location    "160";
    object      DiSS;
}
// * * * * * * * * * * * * * * * * * * * * * * * * * * * * * * * * * * * * * //

dimensions      [0 2 -1 0 0 0 0];

internalField   nonuniform List<scalar> 
96000
(
0.000134293
0.000107227
8.92923e-05
7.99945e-05
7.69941e-05
7.58668e-05
7.5095e-05
7.43396e-05
7.35384e-05
7.27134e-05
7.19296e-05
7.11954e-05
7.05099e-05
6.98752e-05
6.929e-05
6.87496e-05
6.82455e-05
6.77746e-05
6.73458e-05
6.70833e-05
6.6837e-05
6.65953e-05
6.63569e-05
6.61256e-05
6.5904e-05
6.56899e-05
6.54826e-05
6.52797e-05
6.50846e-05
6.48958e-05
6.47145e-05
6.45372e-05
6.43657e-05
6.41983e-05
6.40368e-05
6.38806e-05
6.37281e-05
6.35806e-05
6.34356e-05
6.32954e-05
6.31592e-05
6.30264e-05
6.28975e-05
6.27707e-05
6.26481e-05
6.25273e-05
6.24114e-05
6.22964e-05
6.21857e-05
6.20761e-05
6.197e-05
6.18652e-05
6.17645e-05
6.16642e-05
6.15682e-05
6.14716e-05
6.13799e-05
6.1287e-05
6.11932e-05
6.11006e-05
6.10102e-05
6.09218e-05
6.08355e-05
6.07511e-05
6.0669e-05
6.05887e-05
6.05105e-05
6.04342e-05
6.036e-05
6.02879e-05
6.02182e-05
6.01507e-05
6.00859e-05
6.00237e-05
5.9964e-05
5.9908e-05
5.98546e-05
5.98059e-05
5.97608e-05
5.97217e-05
5.96865e-05
5.96599e-05
5.96381e-05
5.96279e-05
5.96278e-05
5.9631e-05
5.96517e-05
5.96974e-05
5.9752e-05
5.98468e-05
5.9936e-05
6.01152e-05
6.02738e-05
6.05653e-05
6.09111e-05
6.14362e-05
6.24617e-05
6.20943e-05
6.95311e-05
6.06228e-05
4.8336e-05
4.79395e-05
4.84673e-05
4.85781e-05
5.01459e-05
5.00677e-05
5.09047e-05
5.09212e-05
5.16584e-05
5.05774e-05
5.24942e-05
5.19723e-05
5.17044e-05
5.3692e-05
4.97889e-05
4.95337e-05
5.05152e-05
5.33081e-05
4.96729e-05
5.31889e-05
5.03315e-05
5.19902e-05
5.13985e-05
5.2469e-05
5.65778e-05
4.95204e-05
5.13843e-05
4.80871e-05
5.13085e-05
5.1192e-05
5.10411e-05
5.2256e-05
5.25341e-05
5.38183e-05
5.23391e-05
5.75335e-05
4.99056e-05
4.90455e-05
5.05584e-05
4.99346e-05
5.51509e-05
5.23971e-05
5.49503e-05
5.66111e-05
5.27157e-05
5.12839e-05
5.03109e-05
5.41647e-05
5.42361e-05
5.48281e-05
5.5491e-05
5.52662e-05
5.42813e-05
5.15198e-05
5.2076e-05
5.52836e-05
5.51555e-05
5.04028e-05
4.9777e-05
5.42326e-05
5.57338e-05
5.40071e-05
5.57398e-05
5.4739e-05
5.09905e-05
5.0568e-05
4.9844e-05
5.30998e-05
5.34456e-05
5.45925e-05
5.5604e-05
5.33593e-05
5.44532e-05
5.51512e-05
5.14279e-05
5.01188e-05
5.197e-05
5.21368e-05
5.36351e-05
5.30269e-05
5.38661e-05
5.42783e-05
5.08043e-05
5.01738e-05
5.13335e-05
5.49285e-05
5.41363e-05
5.5113e-05
5.04144e-05
5.05305e-05
5.28709e-05
5.26217e-05
5.48096e-05
5.32638e-05
5.77072e-05
5.17569e-05
5.12566e-05
4.9903e-05
4.98847e-05
4.9201e-05
5.03941e-05
5.58826e-05
5.04483e-05
5.4241e-05
5.07257e-05
5.58884e-05
5.53637e-05
5.3054e-05
5.04817e-05
5.04655e-05
5.37432e-05
5.22736e-05
5.58905e-05
5.45051e-05
5.6997e-05
5.04422e-05
5.22191e-05
4.95678e-05
4.89421e-05
4.99316e-05
5.34313e-05
5.26127e-05
4.85815e-05
5.5435e-05
4.90937e-05
5.55882e-05
5.09755e-05
5.65404e-05
5.22599e-05
5.00996e-05
5.04407e-05
5.05891e-05
5.24726e-05
4.9077e-05
5.54325e-05
4.89767e-05
5.48886e-05
5.0775e-05
5.5618e-05
5.22905e-05
5.15036e-05
4.88427e-05
5.26559e-05
5.17751e-05
4.96247e-05
5.51461e-05
5.05375e-05
5.39858e-05
4.86502e-05
5.40736e-05
4.72926e-05
5.44007e-05
5.00472e-05
5.4511e-05
5.04956e-05
5.03861e-05
5.26152e-05
5.07285e-05
5.2984e-05
4.98171e-05
5.62644e-05
5.03514e-05
4.97103e-05
4.84714e-05
5.31302e-05
4.84959e-05
5.44665e-05
5.33296e-05
5.22105e-05
4.88419e-05
5.06265e-05
4.78582e-05
5.19023e-05
4.99922e-05
5.02287e-05
5.46892e-05
5.35917e-05
5.11908e-05
4.86803e-05
5.58941e-05
4.97865e-05
5.21854e-05
4.83828e-05
5.07578e-05
4.87397e-05
4.63969e-05
5.18838e-05
5.32628e-05
5.03967e-05
5.38001e-05
5.08365e-05
5.54883e-05
5.09034e-05
5.78851e-05
5.2248e-05
6.40382e-05
7.57087e-05
6.1419e-05
5.42069e-05
5.18931e-05
9.29619e-05
0.00013719
0.000149935
0.000162679
0.000172817
0.000179851
0.000184419
0.000186981
0.000188203
0.000188553
0.000188556
0.000188287
0.000187855
0.000187314
0.00018672
0.000186108
0.000185462
0.00018482
0.000184173
0.000183567
0.000182961
0.00018236
0.000181768
0.000181194
0.000180636
0.000180092
0.00017956
0.000179042
0.000178543
0.000178056
0.000177585
0.000177123
0.000176675
0.000176239
0.000175817
0.000175405
0.000175004
0.000174613
0.00017423
0.00017386
0.000173498
0.000173146
0.000172802
0.000172465
0.000172138
0.000171816
0.000171505
0.000171198
0.000170901
0.000170606
0.000170322
0.000170041
0.000169769
0.0001695
0.00016924
0.00016898
0.000168731
0.000168478
0.000168219
0.000167969
0.000167721
0.000167481
0.000167243
0.000167014
0.000166786
0.000166567
0.000166348
0.000166139
0.000165928
0.000165729
0.000165528
0.00016534
0.000165148
0.00016497
0.000164789
0.000164622
0.000164453
0.0001643
0.000164144
0.000164006
0.000163867
0.000163748
0.000163629
0.000163537
0.000163437
0.000163365
0.000163305
0.000163263
0.000163243
0.000163252
0.000163245
0.000163351
0.000163347
0.000163576
0.000163681
0.000164159
0.000164573
0.000164901
0.000166548
0.000146225
0.000138909
0.000155634
0.000154874
0.000154386
0.000151554
0.000150538
0.000148897
0.00014801
0.000146428
0.000147039
0.000146648
0.000144577
0.000145646
0.000142596
0.000141745
0.000143133
0.000145154
0.0001427
0.00014422
0.000142941
0.000141566
0.000142967
0.000141957
0.000145466
0.000140155
0.00013835
0.000140976
0.000140606
0.000143088
0.000140822
0.000142149
0.000141504
0.000143346
0.000142429
0.000145044
0.000140326
0.000136359
0.000139507
0.000141776
0.000141631
0.000143041
0.000144348
0.000145713
0.000143889
0.000141053
0.000139711
0.000141334
0.000145016
0.000144708
0.000145627
0.000145545
0.000145008
0.000142266
0.000140647
0.000146379
0.000146891
0.000143495
0.000142087
0.000143787
0.000146303
0.000145623
0.000145854
0.000147016
0.000144217
0.000141931
0.000142254
0.000143522
0.000145265
0.0001448
0.000146157
0.000144983
0.000145153
0.000145378
0.000143973
0.000140697
0.000144118
0.000144976
0.000145861
0.00014524
0.000144546
0.000144715
0.00014158
0.000140287
0.000143606
0.000145564
0.000145063
0.000145153
0.000141124
0.000138265
0.000143073
0.000143803
0.000145333
0.000144535
0.000145753
0.000143036
0.000138247
0.000140893
0.000140848
0.000143063
0.000141467
0.000145315
0.000141454
0.000138212
0.000142288
0.000143232
0.000145875
0.000142881
0.000141248
0.00013915
0.000142291
0.000143398
0.000144754
0.000145183
0.000146212
0.000142398
0.000138346
0.000141574
0.000138608
0.000142514
0.000142227
0.000143988
0.000137489
0.000139902
0.000138561
0.000135256
0.000141708
0.00014158
0.000143226
0.000137617
0.000140397
0.000139788
0.00014113
0.000138356
0.000140194
0.000141525
0.000140285
0.000142172
0.000140343
0.000143871
0.000140038
0.000140393
0.000139247
0.000143075
0.000137993
0.000141269
0.000139772
0.000139551
0.000140907
0.00013946
0.000137624
0.00013588
0.000141319
0.00013874
0.000141051
0.000135241
0.000140729
0.000137662
0.000140904
0.000137616
0.000138123
0.000140639
0.000137927
0.000140567
0.000141642
0.000140281
0.00014147
0.00014372
0.000139369
0.000140036
0.000138137
0.000139455
0.000137469
0.000140665
0.00013642
0.000141505
0.000140225
0.000141267
0.000137252
0.000139695
0.000141165
0.000138666
0.000140028
0.00013835
0.000140636
0.000134909
0.000137058
0.000140478
0.000140055
0.000141574
0.000141348
0.000142304
0.000142222
0.000143017
0.000143846
0.000146147
0.000154983
0.000149821
0.000137495
0.00013819
0.000148095
7.27215e-05
0.00010317
0.000145052
0.000172422
0.000199423
0.000222697
0.00024177
0.000253407
0.000261135
0.000266909
0.000271189
0.000274374
0.000276787
0.000278667
0.000280086
0.000281127
0.000281893
0.000282457
0.000282871
0.000283118
0.000283227
0.000283241
0.000283192
0.000283093
0.000282937
0.000282736
0.000282503
0.000282249
0.00028198
0.000281691
0.000281384
0.000281064
0.000280736
0.000280406
0.000280072
0.000279732
0.000279386
0.000279039
0.000278693
0.00027835
0.000278007
0.000277663
0.00027732
0.000276979
0.000276642
0.00027631
0.000275979
0.000275651
0.000275324
0.000275002
0.000274683
0.00027437
0.000274058
0.000273752
0.000273447
0.000273147
0.000272849
0.000272557
0.000272268
0.000271984
0.000271701
0.000271425
0.00027115
0.000270882
0.000270615
0.000270355
0.000270095
0.000269843
0.000269591
0.000269349
0.000269105
0.000268873
0.00026864
0.000268418
0.000268195
0.000267985
0.000267775
0.000267581
0.000267387
0.00026721
0.000267035
0.000266882
0.00026673
0.000266613
0.000266487
0.000266382
0.000266293
0.000266233
0.000266179
0.00026619
0.000266219
0.000266329
0.000266484
0.000266772
0.000267168
0.000267892
0.000268391
0.000272459
0.000270158
0.000225364
0.000203939
0.000243796
0.000252855
0.000258426
0.00025814
0.000258963
0.000257143
0.000256466
0.000253344
0.000254563
0.000253459
0.0002495
0.000250038
0.000244245
0.000239795
0.000241649
0.000246077
0.000243336
0.000244919
0.000243025
0.000240111
0.00024153
0.000239651
0.000245292
0.000236945
0.000234253
0.00023285
0.000234882
0.000238872
0.000236681
0.000239664
0.000237781
0.000239964
0.000238222
0.000242761
0.000233694
0.000226836
0.000234021
0.000234444
0.000239975
0.000239268
0.000240975
0.000242771
0.000239603
0.000233681
0.000229907
0.00023706
0.000239293
0.000239809
0.000241012
0.00024138
0.000241102
0.000232915
0.000234532
0.000240339
0.000241445
0.000235015
0.000232397
0.000239556
0.000243105
0.00024171
0.000240608
0.000241159
0.000235776
0.00023379
0.000232045
0.000238777
0.000240411
0.000241229
0.000243209
0.000241168
0.000241716
0.000242328
0.000236414
0.000231503
0.000234912
0.000238191
0.000241609
0.000241168
0.000240675
0.000241168
0.00023366
0.000232402
0.000235454
0.000240852
0.000241789
0.000241366
0.000233065
0.000230967
0.000237191
0.000237556
0.000240338
0.000239867
0.000243268
0.000236008
0.000231078
0.000232585
0.000229644
0.000233764
0.000233432
0.000241722
0.000237818
0.000237543
0.000236508
0.000239805
0.000241808
0.000237047
0.000232245
0.000228502
0.000236729
0.000236582
0.000239788
0.000239863
0.000241163
0.000233401
0.000232066
0.000230234
0.000226173
0.000233291
0.000236458
0.000239913
0.000229698
0.000237477
0.000232606
0.000231334
0.00023651
0.000236647
0.000237342
0.000226697
0.000232603
0.000229729
0.000235632
0.000228274
0.000236064
0.000235463
0.000238667
0.000236144
0.000235566
0.00023822
0.000231041
0.000229111
0.000227768
0.0002359
0.000229355
0.000238469
0.00023254
0.000234883
0.000232845
0.000233422
0.000227755
0.000221869
0.000236059
0.000232927
0.000234895
0.000224335
0.000233668
0.000228457
0.000235211
0.000227994
0.000236194
0.000233514
0.000229016
0.000230839
0.000233943
0.000233072
0.000236271
0.000240268
0.000233488
0.000230626
0.000227865
0.00022884
0.000228325
0.000234579
0.00022848
0.000237834
0.000235966
0.000235085
0.000227181
0.000236412
0.000235058
0.000232925
0.000229016
0.000229085
0.000231864
0.000223853
0.000233597
0.000236869
0.000236048
0.00023787
0.00023694
0.000239038
0.000237725
0.000241749
0.000239306
0.000246206
0.000262538
0.000244155
0.00021736
0.000209427
0.000226845
6.07193e-05
7.73586e-05
0.000105338
0.00014281
0.000173465
0.00020321
0.000231766
0.000258218
0.000280133
0.000299143
0.00031215
0.000321772
0.000329785
0.000336578
0.000342283
0.000347066
0.000351122
0.000354604
0.000357613
0.000360173
0.000362356
0.000364236
0.000365872
0.000367293
0.000368513
0.000369561
0.000370467
0.000371254
0.000371941
0.000372524
0.000373018
0.000373435
0.000373788
0.000374089
0.000374337
0.000374533
0.000374684
0.000374799
0.000374882
0.00037494
0.000374968
0.00037497
0.000374949
0.000374908
0.000374853
0.000374783
0.000374699
0.000374599
0.000374487
0.000374365
0.000374235
0.000374099
0.000373954
0.000373802
0.000373642
0.000373478
0.000373309
0.000373138
0.000372961
0.000372783
0.0003726
0.000372416
0.000372228
0.000372042
0.000371852
0.000371664
0.000371472
0.000371283
0.00037109
0.000370903
0.000370713
0.00037053
0.000370344
0.000370166
0.000369986
0.000369816
0.000369645
0.000369488
0.000369331
0.000369191
0.000369051
0.000368936
0.000368821
0.000368745
0.000368664
0.000368598
0.000368545
0.000368537
0.000368525
0.00036861
0.000368681
0.000368893
0.000369116
0.000369569
0.000370102
0.000371165
0.000371886
0.000377373
0.000374478
0.000312514
0.00027174
0.000311474
0.000337972
0.000350285
0.000355781
0.000360834
0.00036161
0.000363032
0.000360368
0.000362762
0.000362312
0.000358184
0.000358359
0.000351242
0.000343359
0.000344179
0.000349656
0.000347553
0.000349067
0.000347803
0.000343782
0.000344983
0.000342761
0.000349639
0.000340291
0.000333705
0.000329879
0.000330835
0.000336917
0.000335858
0.000339682
0.000338202
0.000340539
0.000338641
0.000343934
0.000333689
0.000321323
0.000328145
0.00032942
0.000336718
0.000337675
0.000340397
0.000343271
0.000339759
0.000330138
0.000323159
0.000329343
0.000335041
0.000337046
0.000339178
0.000340442
0.000339618
0.000328206
0.000327617
0.000334612
0.000337212
0.000329503
0.000324823
0.00033325
0.00033999
0.000339326
0.000337671
0.000337898
0.000330891
0.000325904
0.000322792
0.000330763
0.000335157
0.000338273
0.000341807
0.000340117
0.000340616
0.000341113
0.000332685
0.000323727
0.000326663
0.000331517
0.00033713
0.000338039
0.000338459
0.00033921
0.000329846
0.000325652
0.000328691
0.000336366
0.000339667
0.000339904
0.000329823
0.000324601
0.000331525
0.00033291
0.000336786
0.000337549
0.000341768
0.000333539
0.000324857
0.00032359
0.000320035
0.000324546
0.00032559
0.000337595
0.000335755
0.000334547
0.000333741
0.000336669
0.000340421
0.000335329
0.000326949
0.000320563
0.000330033
0.00033124
0.000335621
0.00033674
0.000338309
0.000328819
0.000324534
0.000320194
0.000313391
0.000323499
0.00032648
0.000335552
0.000324994
0.000333649
0.000329596
0.000331153
0.000334965
0.000332572
0.000335634
0.000321538
0.000326596
0.000323342
0.000330197
0.000321817
0.000330381
0.000331361
0.000334545
0.000333523
0.000332002
0.000336152
0.000326441
0.000320914
0.000312607
0.000329481
0.000323765
0.000334702
0.000328854
0.000330267
0.000328094
0.000327062
0.000320483
0.000308661
0.000332898
0.000329236
0.000332384
0.000319068
0.000329065
0.000323898
0.000331369
0.000323123
0.000332004
0.000330466
0.000322923
0.000322972
0.00032634
0.000327716
0.000322703
0.000338538
0.000331743
0.000326087
0.000321049
0.000321722
0.000312629
0.000330272
0.000324361
0.000335924
0.000335522
0.000333755
0.000322706
0.000332718
0.000332859
0.000328832
0.000322369
0.000320788
0.000324887
0.000315835
0.000326534
0.000334008
0.000334332
0.00033696
0.000335984
0.000338968
0.000337293
0.000340115
0.000339353
0.000330872
0.00037626
0.000353882
0.000304505
0.000284143
0.000299978
5.44163e-05
6.12926e-05
7.52523e-05
9.95011e-05
0.000133542
0.000165556
0.000192909
0.000222567
0.000251138
0.000279282
0.00030381
0.000325655
0.000344585
0.00036108
0.000373937
0.000383773
0.000392405
0.000400055
0.00040686
0.000412853
0.000418158
0.000422892
0.000427145
0.000430965
0.000434386
0.000437462
0.00044024
0.000442761
0.000445052
0.000447122
0.000448998
0.000450703
0.000452257
0.000453682
0.000454977
0.000456153
0.000457224
0.000458203
0.000459099
0.00045992
0.000460666
0.000461345
0.000461963
0.000462525
0.000463042
0.000463512
0.000463938
0.000464322
0.000464669
0.000464983
0.000465267
0.000465524
0.000465752
0.000465955
0.000466134
0.000466292
0.00046643
0.000466552
0.000466656
0.000466744
0.000466815
0.000466875
0.000466921
0.000466957
0.000466981
0.000466997
0.000467
0.000466998
0.000466986
0.000466971
0.000466948
0.000466924
0.000466892
0.000466862
0.000466825
0.000466793
0.000466757
0.00046673
0.000466701
0.000466684
0.000466667
0.000466672
0.000466677
0.000466722
0.000466764
0.000466824
0.000466883
0.000467005
0.000467119
0.000467353
0.00046755
0.000467941
0.000468328
0.000469024
0.000469798
0.00047127
0.000472383
0.000479122
0.000475744
0.000403872
0.0003538
0.000373106
0.000402411
0.000431483
0.000442478
0.000452013
0.000456736
0.000461334
0.000460735
0.000465066
0.000466289
0.000463513
0.000464051
0.000456822
0.000447064
0.000446517
0.000452221
0.000450733
0.000452468
0.00045198
0.000447803
0.000448815
0.000446902
0.000454318
0.000444721
0.000435604
0.00042922
0.00042843
0.00043519
0.000435261
0.000439711
0.000439079
0.000441564
0.000440024
0.000445847
0.000435302
0.000419007
0.000424156
0.000425308
0.000433559
0.000435731
0.000439543
0.000443793
0.000440586
0.000428737
0.000418623
0.000422414
0.000430751
0.000434083
0.000437394
0.0004397
0.000438683
0.000425163
0.000422196
0.00042916
0.000432616
0.000424379
0.00041783
0.00042626
0.000435242
0.000435849
0.000434574
0.000434701
0.000426876
0.000419132
0.00041392
0.0004199
0.00042807
0.000433325
0.00043878
0.000438193
0.000439166
0.000439716
0.000429719
0.00041738
0.000418705
0.000423988
0.000430961
0.000433342
0.000435007
0.000436364
0.000426445
0.000419817
0.000421991
0.000430785
0.000436176
0.000437612
0.000427173
0.000419478
0.000426
0.000428052
0.000432667
0.000434783
0.000439865
0.000431606
0.000420318
0.000415828
0.00041112
0.000414918
0.000416851
0.000431314
0.000431718
0.000430921
0.000430506
0.00043222
0.000438714
0.000434026
0.0004235
0.000414385
0.000423653
0.000425769
0.00043108
0.000433316
0.000435268
0.000425138
0.000418386
0.000411388
0.000400725
0.000412988
0.000411252
0.000429053
0.00041976
0.000428979
0.000425998
0.000430025
0.000432716
0.000429646
0.000434421
0.000418889
0.000422357
0.000418667
0.000425367
0.000416601
0.000425164
0.000427142
0.000430422
0.000430745
0.000430131
0.000434339
0.000423575
0.000415057
0.000403644
0.000422914
0.000418591
0.000430542
0.000425469
0.000426205
0.000423859
0.000421583
0.000414012
0.000407346
0.000428857
0.000425801
0.000429906
0.00041606
0.000425622
0.000421094
0.000428571
0.000420083
0.000428921
0.000428065
0.000418858
0.000416747
0.000419441
0.000422134
0.000413746
0.000436269
0.000430296
0.000423375
0.000416086
0.000416206
0.000407174
0.000425891
0.000421113
0.000433955
0.000435312
0.000433448
0.000420675
0.000430548
0.00043156
0.000426531
0.000417914
0.000414237
0.000418469
0.00040873
0.000419416
0.000429883
0.000431712
0.000435456
0.000435129
0.000439154
0.000437779
0.000433887
0.00044127
0.000412183
0.00049111
0.000467448
0.000403852
0.000385156
0.000371783
5.48766e-05
5.26073e-05
5.78097e-05
6.93614e-05
9.02021e-05
0.000120236
0.000156716
0.000180574
0.000207509
0.000235907
0.000263758
0.00029229
0.000318163
0.000342434
0.00036455
0.000383959
0.000401397
0.000416987
0.000430835
0.000441015
0.0004502
0.000458546
0.000466161
0.000473104
0.000479416
0.000485176
0.000490457
0.000495319
0.000499796
0.000503909
0.000507698
0.000511198
0.00051444
0.000517452
0.000520239
0.000522821
0.000525219
0.000527452
0.000529534
0.000531477
0.000533284
0.000534969
0.000536543
0.000538013
0.000539393
0.000540684
0.00054189
0.000543017
0.000544073
0.000545063
0.000545994
0.000546868
0.000547686
0.000548452
0.00054917
0.000549845
0.00055048
0.000551076
0.000551635
0.00055216
0.000552651
0.000553113
0.000553546
0.000553956
0.000554338
0.000554698
0.000555034
0.000555352
0.000555648
0.000555931
0.000556196
0.000556449
0.000556686
0.000556915
0.00055713
0.000557341
0.000557543
0.000557745
0.000557941
0.000558142
0.00055834
0.000558555
0.000558767
0.000559016
0.000559263
0.000559535
0.000559787
0.000560116
0.000560438
0.000560893
0.000561294
0.000561935
0.000562562
0.000563564
0.000564648
0.000566557
0.000568148
0.000575863
0.000571976
0.000495674
0.000447516
0.000441783
0.000458031
0.000498797
0.000520333
0.0005335
0.000542207
0.000550091
0.000552365
0.00055909
0.000562525
0.000561989
0.000563661
0.000557239
0.000547182
0.000545737
0.000551389
0.000550437
0.000552615
0.00055286
0.000549265
0.000550209
0.000549141
0.000556619
0.000547195
0.000536753
0.000528339
0.000526046
0.000532495
0.000533451
0.000538175
0.000538454
0.000541059
0.000540147
0.000546353
0.000535846
0.000517472
0.00052045
0.0005211
0.000529605
0.000532464
0.000537125
0.000542608
0.000540004
0.000527087
0.000514676
0.00051629
0.000525839
0.00053009
0.000534402
0.000537677
0.00053661
0.000521904
0.000516978
0.000523329
0.000527045
0.00051849
0.00051053
0.000518122
0.000528718
0.000530489
0.000529938
0.000530131
0.000522134
0.000512263
0.00050493
0.000506057
0.000519181
0.000525965
0.000533126
0.000533872
0.000535633
0.000536478
0.000525652
0.000510923
0.000510246
0.000515391
0.000523001
0.000526566
0.000529387
0.000531401
0.000521623
0.000513405
0.000514572
0.000523717
0.000530628
0.000533211
0.000523027
0.000513979
0.000519686
0.00052214
0.000527163
0.00053045
0.000536295
0.000528295
0.000515645
0.000508315
0.000502292
0.000504804
0.000507064
0.000522805
0.000525138
0.000525297
0.000525435
0.000527918
0.000535213
0.000531332
0.000519631
0.000508628
0.000516987
0.000519617
0.000525486
0.000528632
0.00053092
0.00052063
0.000512253
0.000502857
0.000490102
0.000502067
0.000502438
0.000520463
0.000512839
0.000522376
0.000520489
0.000524548
0.000528463
0.000529676
0.000531726
0.000516306
0.000518096
0.000514265
0.000520219
0.000511414
0.000518739
0.000522025
0.000525499
0.000526697
0.00052866
0.000531314
0.000520556
0.000509824
0.000499946
0.000515889
0.000512973
0.000525266
0.000521102
0.000521429
0.00051892
0.000515785
0.000507331
0.000508484
0.00052307
0.000521448
0.000525927
0.000513043
0.000521761
0.000518301
0.000525391
0.00051719
0.000525665
0.000525076
0.00051513
0.000511051
0.000512802
0.000515986
0.000513909
0.00053258
0.000527696
0.000520265
0.000511494
0.000510966
0.000507748
0.000520582
0.000517377
0.000530838
0.000533873
0.000532165
0.00051902
0.000528466
0.000529891
0.000524374
0.000514058
0.000508564
0.000512132
0.000501887
0.000511838
0.000524272
0.000527405
0.000532229
0.000532951
0.000538053
0.000537565
0.000533447
0.000543493
0.000495638
0.000604136
0.000580062
0.000510659
0.000477719
0.000455386
6.84577e-05
5.0982e-05
4.93926e-05
5.29879e-05
6.25063e-05
7.97797e-05
0.000106067
0.000138379
0.000171187
0.000193404
0.000218598
0.000245748
0.000272225
0.00030017
0.000326637
0.000351802
0.000375809
0.000397788
0.000418154
0.000436661
0.000453355
0.000468463
0.00048239
0.000494375
0.000504054
0.000512985
0.00052126
0.000528948
0.000536087
0.0005427
0.000548845
0.000554569
0.000559917
0.000564922
0.000569593
0.00057396
0.00057805
0.00058189
0.0005855
0.000588894
0.000592081
0.00059508
0.000597905
0.000600571
0.000603092
0.00060547
0.000607715
0.000609836
0.000611843
0.000613744
0.000615547
0.000617257
0.000618876
0.000620411
0.000621868
0.000623252
0.000624569
0.000625821
0.000627011
0.000628142
0.000629217
0.000630243
0.00063122
0.000632153
0.000633041
0.000633888
0.000634695
0.000635467
0.000636204
0.000636912
0.000637588
0.000638239
0.000638862
0.000639463
0.000640042
0.000640605
0.000641149
0.000641683
0.000642203
0.000642719
0.000643226
0.000643742
0.00064425
0.00064479
0.000645324
0.000645891
0.000646421
0.000647027
0.000647635
0.000648378
0.000649057
0.00065001
0.000650941
0.000652295
0.000653732
0.000656081
0.000658183
0.000666564
0.000662135
0.000585186
0.000539809
0.000518408
0.000521448
0.000549366
0.000577762
0.000607462
0.000619392
0.000630112
0.0006354
0.000644539
0.000650373
0.000652459
0.000655713
0.000650742
0.000641549
0.000639901
0.000645574
0.000645224
0.000648016
0.000648962
0.000646422
0.000647422
0.00064736
0.000654779
0.000645793
0.000635005
0.000625277
0.000622028
0.000627715
0.000629309
0.000634029
0.000635103
0.000637805
0.000637641
0.000644128
0.000633845
0.000614776
0.000615719
0.000615735
0.000624027
0.000627204
0.000632457
0.000638883
0.000636957
0.000623668
0.000609886
0.000610254
0.000619667
0.00062452
0.000629537
0.000633617
0.000632472
0.000617203
0.000610856
0.000616392
0.000620012
0.000611215
0.000602283
0.000608253
0.000619675
0.000623003
0.000623203
0.000623519
0.000615746
0.000604397
0.000595235
0.000590661
0.000608599
0.000615863
0.000624731
0.000626776
0.00062938
0.000630577
0.000619409
0.000603209
0.000600995
0.000605496
0.000613318
0.000617683
0.000621393
0.000623895
0.000614553
0.000605446
0.000605767
0.000614895
0.000622835
0.000626316
0.000616543
0.000606979
0.000611789
0.000614563
0.000619821
0.00062408
0.000630514
0.000622784
0.000609617
0.00060007
0.000592919
0.000593818
0.000596155
0.000612292
0.000616128
0.000617303
0.000618029
0.000622524
0.000629289
0.000626294
0.000614149
0.000602158
0.00060935
0.000612298
0.000618456
0.000622276
0.000624823
0.00061454
0.000605188
0.000593805
0.000580726
0.000590614
0.000593457
0.000609923
0.000603994
0.000613536
0.00061266
0.000617148
0.000621787
0.000624235
0.000626685
0.000612358
0.000612768
0.000609069
0.000614033
0.000605445
0.000608991
0.00061561
0.000619327
0.000620978
0.000623465
0.000626407
0.00061625
0.000604015
0.000597348
0.000608024
0.000606477
0.000618599
0.000615252
0.000615314
0.000612614
0.00060897
0.000599803
0.000605111
0.000615379
0.000615378
0.000619944
0.000608804
0.000616586
0.00061448
0.000621001
0.000613406
0.000619786
0.000620784
0.000610668
0.000604998
0.000605862
0.000608944
0.000614444
0.00062702
0.00062337
0.000615698
0.00060623
0.00060487
0.000603667
0.00061399
0.000612538
0.000626145
0.00063062
0.000629112
0.000616466
0.000625442
0.000627052
0.000621349
0.000609753
0.000602896
0.000605455
0.000594876
0.00060271
0.000617198
0.000621321
0.000627063
0.000628915
0.000635064
0.000635805
0.00063998
0.000644821
0.000582206
0.000714276
0.000690335
0.000620363
0.000576218
0.000554007
0.000108647
6.01572e-05
4.93498e-05
4.66602e-05
4.87461e-05
5.60383e-05
7.00202e-05
9.15701e-05
0.000119681
0.000152092
0.00018294
0.000204175
0.000227679
0.000253075
0.000278146
0.000304675
0.00033138
0.000356617
0.000381328
0.000404982
0.000427057
0.000447735
0.000467099
0.000484981
0.000501342
0.000516433
0.000530319
0.000543216
0.00055465
0.000564085
0.000572915
0.000581199
0.000588989
0.000596321
0.000603198
0.000609662
0.000615751
0.000621499
0.000626932
0.000632065
0.000636912
0.000641497
0.000645839
0.000649957
0.00065387
0.000657579
0.000661101
0.000664446
0.000667628
0.000670658
0.000673546
0.000676297
0.000678916
0.000681415
0.000683799
0.000686077
0.000688255
0.000690337
0.000692326
0.000694228
0.000696048
0.000697792
0.000699465
0.000701069
0.000702605
0.000704079
0.000705493
0.000706852
0.000708159
0.000709418
0.000710629
0.000711796
0.000712922
0.00071401
0.000715062
0.000716085
0.000717076
0.000718044
0.000718987
0.000719915
0.000720824
0.000721732
0.000722625
0.000723541
0.000724444
0.000725384
0.000726275
0.000727229
0.000728194
0.000729291
0.000730317
0.000731637
0.000732924
0.000734665
0.000736486
0.000739264
0.000741876
0.000750626
0.000745668
0.000670585
0.000619623
0.000598385
0.000593156
0.000602701
0.000625628
0.000665378
0.00068981
0.000702775
0.000710781
0.000722045
0.000730229
0.000734929
0.000739912
0.000736751
0.000729156
0.000727919
0.000733807
0.000734214
0.000737785
0.000739438
0.00073822
0.000739401
0.000740384
0.000747695
0.000739402
0.000728959
0.000718613
0.000714979
0.000719817
0.000721934
0.000726474
0.000728211
0.000730961
0.000731585
0.000738264
0.000728352
0.000709535
0.000708693
0.0007082
0.000715291
0.000719301
0.000724986
0.000732072
0.000730805
0.000717548
0.000703134
0.000702991
0.000711509
0.000716791
0.000722275
0.000727007
0.000725714
0.000710251
0.000702929
0.000707622
0.000710984
0.000702051
0.000692543
0.000697676
0.000707209
0.000713207
0.000714046
0.000714484
0.000707157
0.000694864
0.000684274
0.000674629
0.000696214
0.000701754
0.000713659
0.000716882
0.000720217
0.000721682
0.000710423
0.000693452
0.00068994
0.000693931
0.000701797
0.000706666
0.000710981
0.000713729
0.000704864
0.000695333
0.000695034
0.000704024
0.000712641
0.000716797
0.000707411
0.000697805
0.000701713
0.000704806
0.000710254
0.000715362
0.000722236
0.000714718
0.000701503
0.000690306
0.000682343
0.000681685
0.000683208
0.000700046
0.00070491
0.000706926
0.000708134
0.000714287
0.000720662
0.000718566
0.000706445
0.000694164
0.000700164
0.000703335
0.000709628
0.000713947
0.000716694
0.000706489
0.000696595
0.000683626
0.000671222
0.000678195
0.000681868
0.000697558
0.000693233
0.000702499
0.000702473
0.000707475
0.000712537
0.000716263
0.000718972
0.00070628
0.000705542
0.000702326
0.000706257
0.000698076
0.000697271
0.000707572
0.000711577
0.000713385
0.000716365
0.000719295
0.000710021
0.000696833
0.000689589
0.000698939
0.000698742
0.00071033
0.000707666
0.000707503
0.000704596
0.000700697
0.000691012
0.000695637
0.000705817
0.000707507
0.000711799
0.00070272
0.000709587
0.000709025
0.000714878
0.00070808
0.000710795
0.000714703
0.000704764
0.000697898
0.000698065
0.000700708
0.000708525
0.000719428
0.000717087
0.000709217
0.000699637
0.000697387
0.000696188
0.000705906
0.000706225
0.000719646
0.00072528
0.000723954
0.000712261
0.000720745
0.000722458
0.000716785
0.000704278
0.000696491
0.000697884
0.000687195
0.000689736
0.000708585
0.000713475
0.000719962
0.000722822
0.000729945
0.000732005
0.000743255
0.000744387
0.000678904
0.000814207
0.000797713
0.000729854
0.000678047
0.000656482
0.000114485
8.83524e-05
6.1248e-05
5.02565e-05
4.58092e-05
4.59544e-05
5.08533e-05
6.13753e-05
7.82058e-05
0.00010164
0.000130381
0.000162165
0.000193619
0.000213635
0.000235436
0.000258985
0.000283022
0.000307549
0.000333549
0.000358589
0.000383287
0.000407592
0.0004307
0.000452704
0.00047384
0.000493733
0.000512313
0.000529811
0.000546244
0.000561365
0.000575388
0.000588562
0.000600821
0.000612336
0.000621646
0.000630443
0.00063877
0.000646668
0.000654166
0.000661276
0.000668014
0.000674412
0.000680495
0.000686287
0.000691809
0.000697064
0.00070207
0.000706843
0.000711399
0.000715753
0.000719916