/*--------------------------------*- C++ -*----------------------------------*\
| =========                 |                                                 |
| \\      /  F ield         | foam-extend: Open Source CFD                    |
|  \\    /   O peration     | Version:     3.2                                |
|   \\  /    A nd           | Web:         http://www.foam-extend.org         |
|    \\/     M anipulation  | For copyright notice see file Copyright         |
\*---------------------------------------------------------------------------*/
FoamFile
{
    version     2.0;
    format      ascii;
    class       areaScalarField;
    location    "160";
    object      Fi;
}
// * * * * * * * * * * * * * * * * * * * * * * * * * * * * * * * * * * * * * //

dimensions      [0 1 -1 0 0 0 0];

internalField   nonuniform List<scalar> 
300
(
-0.000743901
-0.000525237
-0.00029856
-0.000219213
-0.000191395
-0.000177293
-0.000167296
-0.000158698
-0.000150909
-0.000143949
-0.000137823
-0.000132417
-0.000127584
-0.00012332
-0.00011952
-0.000116098
-0.000112995
-0.000110154
-0.000107571
-0.000105232
-0.000103075
-0.00010106
-9.9179e-05
-9.74226e-05
-9.57842e-05
-9.42407e-05
-9.27894e-05
-9.14152e-05
-9.01197e-05
-8.88965e-05
-8.77339e-05
-8.66301e-05
-8.55755e-05
-8.45723e-05
-8.36145e-05
-8.2702e-05
-8.18251e-05
-8.09862e-05
-8.01793e-05
-7.94046e-05
-7.86622e-05
-7.79457e-05
-7.7257e-05
-7.6591e-05
-7.59484e-05
-7.53287e-05
-7.47299e-05
-7.41521e-05
-7.35899e-05
-7.30486e-05
-7.252e-05
-7.20112e-05
-7.15152e-05
-7.10365e-05
-7.0569e-05
-7.0117e-05
-6.96749e-05
-6.92479e-05
-6.88245e-05
-6.84189e-05
-6.80174e-05
-6.76348e-05
-6.72546e-05
-6.68935e-05
-6.65334e-05
-6.61938e-05
-6.58524e-05
-6.55333e-05
-6.52103e-05
-6.49114e-05
-6.46077e-05
-6.433e-05
-6.40465e-05
-6.37918e-05
-6.35296e-05
-6.32998e-05
-6.30627e-05
-6.28614e-05
-6.26545e-05
-6.24884e-05
-6.23189e-05
-6.21958e-05
-6.20763e-05
-6.20073e-05
-6.19613e-05
-6.19583e-05
-6.19974e-05
-6.21033e-05
-6.22777e-05
-6.25295e-05
-6.29171e-05
-6.33904e-05
-6.41374e-05
-6.4971e-05
-6.64209e-05
-6.79838e-05
-7.13944e-05
-7.28899e-05
-9.21694e-05
-3.40249e-05
-2.89396e-06
-4.31802e-06
-5.0524e-06
-5.50956e-06
-6.26937e-06
-5.99531e-06
-7.06237e-06
-6.50041e-06
-7.28291e-06
7.08741e-06
6.17196e-06
8.50299e-06
7.21713e-06
-3.65283e-05
-4.54592e-05
-1.02081e-06
-1.43061e-05
3.21506e-05
5.61112e-05
7.91154e-06
8.28108e-06
-4.12664e-05
-5.739e-05
-2.2043e-05
-1.38394e-05
6.73768e-06
-2.65367e-07
4.45403e-05
4.86383e-05
7.54036e-06
8.65736e-06
-4.35372e-05
-6.25133e-05
-1.34662e-05
4.41671e-05
6.13611e-05
7.88441e-06
8.54962e-06
8.62862e-06
-4.6233e-05
-6.02227e-05
-1.3232e-05
4.51666e-05
6.60364e-05
7.10906e-06
8.20156e-06
-4.74682e-05
-6.45285e-05
-1.43107e-05
4.88635e-05
6.53293e-05
3.02972e-06
1.08953e-05
-4.32157e-05
-7.24444e-05
-2.05626e-05
5.08141e-05
7.41721e-05
7.12985e-06
3.9965e-06
-5.90928e-05
-7.60797e-05
-1.39814e-05
5.59727e-05
7.59181e-05
9.90821e-06
-4.49378e-05
-6.18737e-05
-1.26897e-05
-1.59275e-05
4.78104e-05
6.78049e-05
3.64404e-06
-4.74826e-05
-4.94121e-05
2.69153e-06
-9.2188e-06
4.16599e-05
5.92986e-05
7.01814e-06
5.39785e-06
-4.38517e-05
-5.19208e-05
-1.56359e-06
-1.75206e-05
3.91709e-05
6.11635e-05
7.18286e-06
1.14919e-05
-4.6841e-05
-6.37828e-05
-1.3401e-05
4.22345e-05
5.95483e-05
5.21076e-06
1.41141e-05
-4.00098e-05
-5.04354e-05
-5.78823e-06
4.07853e-05
4.83092e-05
7.05856e-06
7.9878e-06
-4.37691e-05
-7.16409e-05
-1.99517e-05
4.65114e-05
7.13683e-05
1.19144e-05
-4.96344e-05
-6.60373e-05
-1.24975e-05
-1.77123e-05
4.39793e-05
7.00568e-05
1.3049e-05
9.1592e-06
-3.05348e-05
-4.99434e-05
-1.18992e-05
-1.67031e-05
4.38971e-05
5.68112e-05
7.94917e-06
-5.02046e-05
-5.60695e-05
-1.31767e-05
-1.30961e-05
5.47776e-05
6.3578e-05
7.18014e-06
6.57117e-06
-3.62927e-05
-6.32996e-05
-1.21245e-05
4.63496e-05
5.51903e-05
6.12493e-06
-5.23486e-05
-6.21825e-05
4.26411e-06
5.74359e-06
3.51822e-05
5.54498e-05
3.68269e-06
7.89215e-06
-4.29331e-05
-5.55146e-05
-5.13051e-06
3.82857e-05
5.86258e-05
7.94394e-06
-4.6534e-05
-5.35348e-05
3.25081e-06
-8.23273e-06
3.68378e-05
5.48457e-05
6.82068e-06
5.95798e-06
-4.47779e-05
-5.03408e-05
8.28212e-07
-8.31169e-06
-5.59687e-06
-9.93731e-06
-1.98043e-05
-1.40017e-05
-1.14959e-06
2.884e-06
-5.88053e-06
-9.03523e-07
-1.24883e-05
-4.1869e-06
-1.43047e-05
-2.15719e-05
-5.69941e-06
7.05585e-06
-1.372e-05
-1.54658e-05
-5.78604e-06
8.3388e-08
3.34324e-06
-8.07717e-06
7.38829e-06
-7.87593e-06
-4.52936e-06
-8.87774e-06
-5.90536e-06
-7.7532e-06
-6.20968e-06
-6.77784e-06
-5.91424e-06
-5.61635e-06
-4.7808e-06
-3.33935e-06
-2.93626e-05
-8.13703e-05
-4.72819e-05
-3.97413e-05
)
;

boundaryField
{
    inlet
    {
        type            calculated;
        value           uniform -0.000743899;
    }
    outlet
    {
        type            calculated;
        value           uniform -4.3718e-05;
    }
    sideWall
    {
        type            empty;
    }
}


// ************************************************************************* //
