/*--------------------------------*- C++ -*----------------------------------*\
| =========                 |                                                 |
| \\      /  F ield         | foam-extend: Open Source CFD                    |
|  \\    /   O peration     | Version:     3.2                                |
|   \\  /    A nd           | Web:         http://www.foam-extend.org         |
|    \\/     M anipulation  | For copyright notice see file Copyright         |
\*---------------------------------------------------------------------------*/
FoamFile
{
    version     2.0;
    format      ascii;
    class       areaScalarField;
    location    "160";
    object      Fi1;
}
// * * * * * * * * * * * * * * * * * * * * * * * * * * * * * * * * * * * * * //

dimensions      [0 1 -1 0 0 0 0];

internalField   nonuniform List<scalar> 
300
(
-0.000743901
-0.000525237
-0.00029856
-0.000219213
-0.000191395
-0.000177293
-0.000167296
-0.000158698
-0.000150909
-0.000143949
-0.000137823
-0.000132417
-0.000127584
-0.00012332
-0.00011952
-0.000116098
-0.000112995
-0.000110154
-0.000107571
-0.000105232
-0.000103075
-0.00010106
-9.9179e-05
-9.74226e-05
-9.57842e-05
-9.42407e-05
-9.27894e-05
-9.14152e-05
-9.01197e-05
-8.88965e-05
-8.77339e-05
-8.66301e-05
-8.55755e-05
-8.45723e-05
-8.36145e-05
-8.2702e-05
-8.18251e-05
-8.09862e-05
-8.01793e-05
-7.94046e-05
-7.86622e-05
-7.79457e-05
-7.7257e-05
-7.6591e-05
-7.59484e-05
-7.53287e-05
-7.47299e-05
-7.41521e-05
-7.35899e-05
-7.30486e-05
-7.252e-05
-7.20112e-05
-7.15152e-05
-7.10365e-05
-7.0569e-05
-7.0117e-05
-6.96749e-05
-6.92479e-05
-6.88245e-05
-6.84189e-05
-6.80174e-05
-6.76348e-05
-6.72545e-05
-6.68935e-05
-6.65334e-05
-6.61938e-05
-6.58524e-05
-6.55333e-05
-6.52102e-05
-6.49114e-05
-6.46077e-05
-6.433e-05
-6.40465e-05
-6.37917e-05
-6.35295e-05
-6.32997e-05
-6.30626e-05
-6.28612e-05
-6.26544e-05
-6.24882e-05
-6.23187e-05
-6.21956e-05
-6.2076e-05
-6.2007e-05
-6.19609e-05
-6.19579e-05
-6.19969e-05
-6.21027e-05
-6.22769e-05
-6.25286e-05
-6.2916e-05
-6.33889e-05
-6.41355e-05
-6.49687e-05
-6.64178e-05
-6.79795e-05
-7.13882e-05
-7.28802e-05
-9.21513e-05
-2.63032e-05
2.97318e-06
4.28913e-06
5.05758e-06
5.66174e-06
6.00568e-06
6.45604e-06
6.5867e-06
6.91521e-06
7.01182e-06
7.33511e-06
-3.89157e-05
-5.1982e-05
-1.39726e-05
-9.049e-06
4.05165e-06
3.92496e-05
4.87072e-05
7.24832e-06
8.2678e-06
-3.89162e-05
-5.6324e-05
-1.27037e-05
-8.80459e-06
4.20482e-05
5.63421e-05
8.01678e-06
8.42703e-06
8.48584e-06
7.95273e-06
-3.97826e-05
-5.81706e-05
-1.34886e-05
3.87926e-05
5.91571e-05
7.6321e-06
8.19537e-06
-3.45816e-05
-5.6834e-05
-1.03106e-05
-1.69316e-05
3.69402e-05
6.27202e-05
7.59734e-06
7.66585e-06
-4.81015e-05
-5.53709e-05
-1.24879e-05
3.81513e-05
6.38254e-05
6.30953e-06
4.15824e-06
-6.21212e-05
-6.36215e-05
5.25343e-06
4.42471e-05
6.02028e-05
8.22754e-06
1.13138e-05
-5.09342e-05
-7.49734e-05
-1.42258e-05
5.26881e-05
6.70043e-05
9.49498e-06
-4.03542e-05
-4.87472e-05
-6.22848e-06
-1.69243e-05
4.50001e-05
6.00034e-05
6.00943e-06
-5.68285e-05
-7.7916e-05
-4.003e-06
1.55305e-05
5.32782e-05
5.7827e-05
8.38944e-06
-5.03454e-05
-7.20088e-05
-1.47939e-05
-1.52757e-06
8.68888e-06
4.63776e-05
5.60458e-05
7.02018e-06
4.51867e-06
-4.30317e-05
-5.20016e-05
-1.24277e-05
4.04715e-05
6.09057e-05
6.42402e-06
7.6709e-07
-5.12237e-05
-5.72773e-05
2.55091e-07
4.99063e-05
5.43525e-05
7.53132e-06
7.49477e-06
-4.44057e-05
-6.80968e-05
-8.48655e-06
4.5023e-05
5.46726e-05
3.72595e-06
-4.03533e-05
-5.08999e-05
-1.29194e-05
-1.65574e-05
4.68348e-05
5.87111e-05
1.56237e-06
9.95373e-06
-4.30957e-05
-5.226e-05
1.41256e-05
-6.83678e-06
3.63512e-05
4.80231e-05
7.92517e-06
-4.92171e-05
-4.98564e-05
-7.49338e-06
-1.48392e-05
4.69271e-05
5.59342e-05
8.62545e-06
9.93958e-06
-4.37895e-05
-6.09205e-05
1.46457e-06
4.51997e-05
5.08702e-05
6.71467e-06
-4.3471e-05
-7.10774e-05
-1.44734e-05
-2.03178e-06
4.58708e-05
6.44816e-05
7.33592e-06
7.96431e-06
-5.17685e-05
-6.13188e-05
-5.87404e-06
4.20873e-05
6.08881e-05
8.06179e-06
-4.34291e-05
-4.95312e-05
-9.01749e-06
-9.87861e-06
4.79716e-05
5.33765e-05
6.80987e-06
5.81869e-06
-3.78635e-05
-6.6375e-05
-1.49094e-05
5.36901e-05
5.8698e-05
7.87879e-06
7.76351e-06
7.58197e-06
6.05413e-06
5.91172e-06
9.09817e-06
9.27949e-06
7.5742e-06
8.00344e-06
7.64637e-06
7.61474e-06
6.19736e-06
5.19057e-06
6.70878e-06
9.55063e-06
4.89916e-06
4.9379e-06
8.25764e-06
9.6801e-06
1.10872e-05
7.4404e-06
7.46044e-06
7.32154e-06
7.46347e-06
6.88175e-06
7.1374e-06
6.68106e-06
6.70827e-06
6.25445e-06
6.02433e-06
5.41167e-06
4.72048e-06
3.26468e-06
-2.19886e-05
-8.15862e-05
-4.74188e-05
-3.9852e-05
)
;

boundaryField
{
    inlet
    {
        type            calculated;
        value           uniform -0.000743899;
    }
    outlet
    {
        type            calculated;
        value           uniform -4.3718e-05;
    }
    sideWall
    {
        type            empty;
    }
}


// ************************************************************************* //
