/*--------------------------------*- C++ -*----------------------------------*\
| =========                 |                                                 |
| \\      /  F ield         | foam-extend: Open Source CFD                    |
|  \\    /   O peration     | Version:     3.2                                |
|   \\  /    A nd           | Web:         http://www.foam-extend.org         |
|    \\/     M anipulation  | For copyright notice see file Copyright         |
\*---------------------------------------------------------------------------*/
FoamFile
{
    version     2.0;
    format      ascii;
    class       areaScalarField;
    location    "160";
    object      Fi2;
}
// * * * * * * * * * * * * * * * * * * * * * * * * * * * * * * * * * * * * * //

dimensions      [0 1 -1 0 0 0 0];

internalField   nonuniform List<scalar> 
300
(
-0.000743901
-0.000525237
-0.00029856
-0.000219213
-0.000191395
-0.000177293
-0.000167296
-0.000158698
-0.000150909
-0.000143949
-0.000137823
-0.000132417
-0.000127584
-0.00012332
-0.00011952
-0.000116098
-0.000112995
-0.000110154
-0.000107571
-0.000105232
-0.000103075
-0.00010106
-9.9179e-05
-9.74226e-05
-9.57842e-05
-9.42407e-05
-9.27894e-05
-9.14152e-05
-9.01197e-05
-8.88965e-05
-8.77339e-05
-8.66301e-05
-8.55755e-05
-8.45723e-05
-8.36145e-05
-8.2702e-05
-8.18251e-05
-8.09862e-05
-8.01793e-05
-7.94046e-05
-7.86622e-05
-7.79457e-05
-7.7257e-05
-7.6591e-05
-7.59484e-05
-7.53287e-05
-7.47299e-05
-7.41521e-05
-7.35899e-05
-7.30486e-05
-7.252e-05
-7.20112e-05
-7.15153e-05
-7.10365e-05
-7.0569e-05
-7.0117e-05
-6.96749e-05
-6.92479e-05
-6.88245e-05
-6.84189e-05
-6.80174e-05
-6.76348e-05
-6.72546e-05
-6.68935e-05
-6.65334e-05
-6.61938e-05
-6.58525e-05
-6.55333e-05
-6.52103e-05
-6.49114e-05
-6.46077e-05
-6.43301e-05
-6.40466e-05
-6.37918e-05
-6.35296e-05
-6.32999e-05
-6.30627e-05
-6.28614e-05
-6.26546e-05
-6.24885e-05
-6.2319e-05
-6.21959e-05
-6.20764e-05
-6.20075e-05
-6.19615e-05
-6.19585e-05
-6.19977e-05
-6.21036e-05
-6.22781e-05
-6.253e-05
-6.29177e-05
-6.3391e-05
-6.41382e-05
-6.4972e-05
-6.64222e-05
-6.79854e-05
-7.13964e-05
-7.28925e-05
-9.21735e-05
-3.4027e-05
-2.89495e-06
-4.3195e-06
-5.0537e-06
-5.51233e-06
-6.27191e-06
-5.9993e-06
-7.06765e-06
-6.5069e-06
-7.29497e-06
-6.02854e-06
-1.54632e-05
-9.14507e-06
3.53154e-05
5.1932e-05
8.6053e-06
8.00047e-06
7.6901e-06
-3.52858e-05
-5.69211e-05
-1.45925e-05
-6.45252e-06
3.56151e-05
5.64225e-05
8.10721e-06
8.14283e-06
-4.33036e-05
-4.93498e-05
5.2772e-07
-1.55943e-05
-1.16633e-05
3.8282e-05
5.62386e-05
7.52353e-06
8.31897e-06
-5.95634e-05
-6.24407e-05
1.80409e-05
-8.0188e-06
3.47057e-05
5.41581e-05
7.67899e-06
8.16943e-06
-5.87116e-05
-7.4818e-05
-1.81171e-06
5.53777e-05
6.11534e-05
7.44451e-06
7.90112e-06
-5.70515e-05
-7.89663e-05
-1.37843e-05
5.8532e-05
7.6527e-05
5.55486e-06
4.53959e-06
-4.56968e-05
-5.29065e-05
-1.41344e-05
3.90437e-05
6.37832e-05
5.68045e-06
5.25849e-06
-4.81501e-05
-5.64363e-05
8.92662e-06
4.64419e-05
5.27761e-05
8.28678e-06
-5.63514e-05
-7.21918e-05
-1.11485e-05
-1.69832e-05
5.28273e-05
7.89845e-05
1.04789e-05
-4.33523e-05
-6.70364e-05
-1.45377e-05
-1.40312e-05
4.60919e-05
6.91965e-05
1.12585e-05
8.28415e-06
8.52518e-06
-5.26288e-05
-7.6757e-05
-2.82291e-06
6.15433e-05
5.72056e-05
8.0864e-06
7.36658e-06
-5.24679e-05
-8.20645e-05
-1.06617e-05
6.4293e-05
6.5718e-05
7.90384e-06
7.80775e-06
-3.58555e-05
-6.39363e-05
-1.48022e-05
4.79476e-05
5.83172e-05
5.87833e-06
4.13881e-06
-5.85116e-05
-5.99931e-05
1.17681e-05
4.27908e-05
5.72618e-05
5.08911e-06
3.80749e-06
-6.29774e-05
-6.45903e-05
5.20051e-06
1.41268e-06
5.50016e-05
5.08544e-05
8.13781e-06
-4.28369e-05
-4.79922e-05
-1.39491e-05
-7.14785e-06
5.01691e-05
4.89473e-05
5.25104e-06
5.92573e-06
-4.19234e-05
-5.65732e-05
-7.0796e-06
4.18577e-05
5.90325e-05
8.09003e-06
-4.02977e-05
-6.89465e-05
-9.7626e-06
-1.26608e-05
4.14699e-05
6.88606e-05
1.00199e-05
1.02367e-05
-4.20465e-05
-5.2629e-05
-1.5767e-05
3.50394e-05
6.51408e-05
8.10996e-06
-4.10652e-05
-4.04791e-05
-4.33463e-06
-1.80901e-05
4.46541e-05
5.11808e-05
7.14408e-06
7.16474e-06
-4.1782e-05
-5.93003e-05
-4.36887e-06
4.23452e-05
5.20327e-05
1.20349e-05
-3.44686e-05
-5.51767e-05
-5.57318e-06
-9.8723e-06
-1.97254e-05
-1.38798e-05
-1.16099e-06
3.05465e-06
-5.85101e-06
-1.11775e-06
-1.24712e-05
-4.19043e-06
-1.44157e-05
-2.14553e-05
-5.52512e-06
6.92056e-06
-1.39139e-05
-1.53632e-05
-5.46857e-06
3.94414e-08
3.201e-06
-8.09674e-06
7.42693e-06
-7.89656e-06
-4.52686e-06
-8.87059e-06
-5.90257e-06
-7.74529e-06
-6.20569e-06
-6.7712e-06
-5.90942e-06
-5.61073e-06
-4.77597e-06
-3.33463e-06
-2.93501e-05
-8.13351e-05
-4.72608e-05
-3.97225e-05
)
;

boundaryField
{
    inlet
    {
        type            calculated;
        value           uniform -0.000743899;
    }
    outlet
    {
        type            calculated;
        value           uniform -4.3718e-05;
    }
    sideWall
    {
        type            empty;
    }
}


// ************************************************************************* //
