/*--------------------------------*- C++ -*----------------------------------*\
| =========                 |                                                 |
| \\      /  F ield         | foam-extend: Open Source CFD                    |
|  \\    /   O peration     | Version:     3.2                                |
|   \\  /    A nd           | Web:         http://www.foam-extend.org         |
|    \\/     M anipulation  | For copyright notice see file Copyright         |
\*---------------------------------------------------------------------------*/
FoamFile
{
    version     2.0;
    format      ascii;
    class       areaScalarField;
    location    "160";
    object      He;
}
// * * * * * * * * * * * * * * * * * * * * * * * * * * * * * * * * * * * * * //

dimensions      [0 0 0 0 0 0 0];

internalField   nonuniform List<scalar> 
300
(
0
0
0
0
0
0
0
0
0
0
0
0
0
0
0
0
0
0
0
0
0
0
0
0
0
0
0
0
0
0
0
0
0
0
0
0
0
0
0
0
0
0
0
0
0
0
0
0
0
0
0
0
0
0
0
0
0
0
0
0
0
0
0
0
0
0
0
0
0
0
0
0
0
0
0
0
0
0
0
0
0
0
0
0
0
0
0
0
0
0
0
0
0
0
0
0
0
0
0
0
0
0
0
0
0
0
0
0
0
1.30142e-05
4.21465e-05
3.9212e-05
2.22433e-05
7.0052e-06
0
0
0
0
4.47131e-05
5.46117e-05
4.10659e-05
2.26333e-05
0
0
0
0
0
0
1.44291e-05
3.26054e-05
4.24028e-05
1.15888e-05
0
0
0
4.42419e-05
3.80475e-05
3.96407e-05
2.35966e-05
1.8086e-06
0
0
0
5.88332e-05
4.17433e-05
4.28324e-05
1.05491e-05
0
0
0
6.9066e-05
5.79262e-05
4.6028e-05
2.21696e-06
0
0
0
4.64309e-05
5.19154e-05
5.37759e-05
1.26831e-05
0
0
0
6.80154e-05
3.60183e-05
1.95313e-05
0
0
0
0
7.42588e-05
5.41654e-05
1.75979e-05
0
0
0
0
6.86134e-05
5.22896e-05
2.57813e-05
2.29014e-06
0
0
0
0
5.8985e-05
3.86025e-05
3.98648e-05
9.09561e-06
0
0
0
6.76304e-05
4.95143e-05
4.13796e-05
1.71607e-06
0
0
0
5.01035e-05
4.87514e-05
4.7272e-05
1.00118e-05
0
0
0
7.36541e-05
3.87674e-05
2.33236e-05
0
0
0
0
5.21463e-05
4.53193e-05
3.33777e-05
7.71808e-06
0
0
0
0
5.5851e-05
3.91057e-05
1.99203e-05
0
0
0
0
4.43588e-05
4.18588e-05
4.10413e-05
3.19711e-06
0
0
0
6.31098e-05
5.00267e-05
2.55154e-05
0
0
0
0
4.78935e-05
5.15017e-05
4.50705e-05
7.74491e-06
0
0
0
4.88907e-05
3.78757e-05
1.93598e-05
0
0
0
0
4.60413e-05
4.04937e-05
4.63808e-05
1.06269e-05
0
0
0
0
0
0
0
0
0
0
0
0
0
0
0
0
0
0
0
0
0
0
0
0
0
0
0
0
0
0
0
0
0
0
0
0
0
0
0
)
;

boundaryField
{
    inlet
    {
        type            calculated;
        value           uniform 0;
    }
    outlet
    {
        type            calculated;
        value           uniform 0;
    }
    sideWall
    {
        type            empty;
    }
}


// ************************************************************************* //
