/*--------------------------------*- C++ -*----------------------------------*\
| =========                 |                                                 |
| \\      /  F ield         | foam-extend: Open Source CFD                    |
|  \\    /   O peration     | Version:     3.2                                |
|   \\  /    A nd           | Web:         http://www.foam-extend.org         |
|    \\/     M anipulation  | For copyright notice see file Copyright         |
\*---------------------------------------------------------------------------*/
FoamFile
{
    version     2.0;
    format      ascii;
    class       volScalarField;
    location    "160";
    object      k;
}
// * * * * * * * * * * * * * * * * * * * * * * * * * * * * * * * * * * * * * //

dimensions      [0 2 -2 0 0 0 0];

internalField   nonuniform List<scalar> 
96000
(
0.178319
0.142008
0.0985161
0.0808966
0.0742543
0.070771
0.0682485
0.0660411
0.064009
0.0621651
0.0605192
0.0590479
0.0577168
0.0565291
0.0554604
0.0544888
0.0536003
0.0527801
0.052029
0.051344
0.0507081
0.0501105
0.0495495
0.0490226
0.0485286
0.0480608
0.0476189
0.0471986
0.0468006
0.0464232
0.0460631
0.0457199
0.0453907
0.0450765
0.0447755
0.0444878
0.0442104
0.0439442
0.0436874
0.0434401
0.0432024
0.0429724
0.0427508
0.0425359
0.0423281
0.0421271
0.0419325
0.0417443
0.0415607
0.0413836
0.0412102
0.041043
0.0408797
0.0407218
0.0405672
0.0404175
0.0402708
0.0401289
0.0399879
0.0398526
0.0397185
0.0395904
0.0394629
0.0393417
0.0392206
0.0391062
0.038991
0.0388832
0.038774
0.0386727
0.0385697
0.0384754
0.038379
0.0382923
0.0382029
0.0381245
0.0380435
0.0379746
0.0379039
0.0378469
0.0377888
0.0377466
0.0377056
0.0376819
0.0376661
0.0376651
0.0376786
0.0377149
0.0377748
0.0378612
0.0379939
0.0381556
0.0384102
0.0386933
0.0391831
0.0397077
0.0408405
0.0413401
0.0474395
0.0439355
0.0226981
0.0221249
0.023399
0.0234363
0.0243551
0.0242659
0.0250934
0.0251041
0.0258371
0.0251549
0.026823
0.0270248
0.0271602
0.0282891
0.0264882
0.0255485
0.0256208
0.0276019
0.0259784
0.0282165
0.026961
0.0277917
0.0273758
0.027951
0.0311939
0.0271851
0.0280073
0.0252349
0.0269677
0.0271961
0.0275644
0.0280941
0.0281984
0.0288956
0.0286069
0.032403
0.02742
0.0263625
0.0274474
0.026713
0.0296443
0.0283592
0.0302441
0.0318021
0.0312297
0.028825
0.0268627
0.0294169
0.0294399
0.03052
0.031175
0.0323785
0.0320764
0.0284882
0.0289015
0.0306062
0.0312328
0.0284389
0.0274048
0.0297234
0.0318165
0.0308887
0.0316388
0.0315494
0.0296418
0.0281062
0.026126
0.028437
0.028439
0.0295792
0.0308473
0.0304998
0.0315247
0.0321602
0.0292636
0.0271679
0.0277083
0.0278582
0.0295577
0.0295022
0.0304569
0.0307836
0.0279154
0.0270855
0.0271106
0.0293582
0.0300492
0.0315301
0.0274244
0.0276097
0.0285249
0.0285915
0.0299154
0.0300656
0.0334315
0.0292628
0.0292502
0.0268149
0.0267843
0.0257803
0.0264955
0.0305967
0.0277697
0.029764
0.0276974
0.0306782
0.0309293
0.0312987
0.0277496
0.0275256
0.0294468
0.0288729
0.0307164
0.0306884
0.0328522
0.0282404
0.0300502
0.0255413
0.0258632
0.0254333
0.0278053
0.0279951
0.0257769
0.0301479
0.0251417
0.0301517
0.0274805
0.0310757
0.0292036
0.0282035
0.028025
0.0281843
0.0288705
0.0259254
0.0298204
0.0268818
0.0305299
0.0275502
0.0312935
0.0293286
0.0295917
0.0252342
0.0277121
0.0277954
0.0272749
0.0305118
0.0274918
0.0291898
0.0263144
0.0283998
0.0226779
0.0289606
0.0262776
0.029399
0.0272328
0.027103
0.0282382
0.0278722
0.0292744
0.0265016
0.0310394
0.0275666
0.027364
0.0254562
0.0278468
0.0249048
0.0288355
0.0287186
0.0292583
0.0257697
0.0273323
0.0242398
0.0267966
0.0261041
0.0264421
0.0290655
0.029477
0.0280955
0.0259829
0.0303932
0.0278486
0.0289428
0.0250649
0.0267025
0.0253804
0.0230689
0.0260519
0.0274888
0.0265071
0.0283697
0.0272452
0.0298467
0.0279789
0.0325326
0.029086
0.0401198
0.0564307
0.0440627
0.0324317
0.0295687
0.0457228
0.0704376
0.0777443
0.0777712
0.075762
0.0733601
0.071026
0.0688371
0.0668366
0.0650512
0.063426
0.0619602
0.0606352
0.0594487
0.0583732
0.0573818
0.0564724
0.0556344
0.0548665
0.0541467
0.0534709
0.052837
0.0522444
0.0516892
0.0511661
0.0506709
0.0502022
0.0497584
0.049338
0.0489387
0.0485571
0.0481933
0.047845
0.0475129
0.0471947
0.0468896
0.0465961
0.0463137
0.0460423
0.0457809
0.0455292
0.045286
0.045051
0.0448238
0.0446039
0.0443916
0.0441855
0.0439862
0.0437921
0.0436044
0.0434214
0.0432445
0.0430717
0.0429045
0.0427409
0.0425825
0.0424272
0.0422768
0.0421284
0.0419856
0.0418444
0.0417089
0.0415745
0.0414459
0.041318
0.0411961
0.0410742
0.0409587
0.0408427
0.0407335
0.0406234
0.0405206
0.0404166
0.0403205
0.0402229
0.0401338
0.0400433
0.0399621
0.03988
0.0398079
0.0397357
0.0396747
0.0396152
0.0395682
0.0395237
0.0394945
0.0394741
0.0394641
0.0394722
0.0394935
0.0395514
0.0396175
0.0397472
0.0398875
0.0401414
0.0404184
0.0409017
0.0416057
0.0425983
0.0410461
0.0377305
0.0339899
0.0316382
0.0305734
0.0296946
0.0292555
0.0290133
0.0288251
0.0287525
0.0287907
0.0289873
0.029006
0.0292821
0.0290675
0.0291765
0.0289051
0.0289344
0.0286597
0.0290725
0.028869
0.0290307
0.029181
0.0292527
0.029696
0.0294072
0.0298997
0.0295462
0.0292772
0.0289816
0.0288656
0.0292121
0.0292506
0.0296368
0.0297824
0.0302506
0.029953
0.0298975
0.0298111
0.0295755
0.0298976
0.0296933
0.0302275
0.0306513
0.0309438
0.0313379
0.0308547
0.0308383
0.0306091
0.0306758
0.0310539
0.0313184
0.0319855
0.0317939
0.0317448
0.031691
0.0316309
0.0313736
0.0309489
0.0309173
0.0308299
0.0315504
0.0319862
0.032231
0.0320002
0.0318618
0.031033
0.0307012
0.030267
0.0302346
0.0306669
0.0310133
0.0313925
0.0317899
0.0318581
0.0316771
0.0308568
0.0304549
0.0303932
0.0305083
0.0306191
0.0310037
0.0307384
0.0307445
0.0302732
0.0301372
0.030139
0.0306146
0.0304861
0.0304106
0.0303721
0.0302888
0.0305169
0.0305914
0.0312114
0.031222
0.0312909
0.031268
0.0301537
0.0299037
0.0292105
0.029323
0.0293384
0.0301545
0.0299722
0.030424
0.0308393
0.0308662
0.0311461
0.0304476
0.0304422
0.0304398
0.0307793
0.0310086
0.0314617
0.031268
0.0313089
0.0309304
0.0296621
0.0293041
0.0288973
0.029175
0.0287403
0.0290629
0.028734
0.0298093
0.029335
0.0298461
0.0301057
0.029903
0.0300685
0.0297445
0.0299772
0.0295609
0.0297806
0.0294979
0.030265
0.0298245
0.0303644
0.0304916
0.0304789
0.0305086
0.0295198
0.0292726
0.028931
0.0295455
0.0296823
0.0299747
0.0296484
0.0298173
0.0286417
0.0290139
0.0284462
0.0287609
0.0289458
0.0286302
0.029046
0.028866
0.0293865
0.0292632
0.0296678
0.0295546
0.029797
0.0297718
0.029428
0.0286175
0.0288103
0.0291874
0.029193
0.0295223
0.0290175
0.0286456
0.0279993
0.0280384
0.0278863
0.0285191
0.0287895
0.0294511
0.0291973
0.0294408
0.0293884
0.0298726
0.0296173
0.0291432
0.028596
0.027721
0.0280074
0.0275301
0.0280585
0.0285877
0.0288038
0.0292365
0.0294812
0.0301229
0.0305717
0.0313907
0.0336972
0.0376669
0.0396499
0.038733
0.0357196
0.0150988
0.0289288
0.0427709
0.051652
0.0566799
0.0589914
0.0597322
0.0594858
0.0588411
0.0580294
0.0571557
0.0562923
0.0554563
0.0546683
0.0539162
0.0531954
0.0525181
0.0518831
0.05129
0.0507256
0.0501892
0.0496818
0.049204
0.0487523
0.0483214
0.0479101
0.047518
0.0471453
0.0467904
0.0464507
0.0461242
0.0458113
0.0455108
0.0452236
0.0449472
0.0446808
0.0444237
0.0441756
0.0439367
0.0437063
0.0434835
0.0432677
0.0430586
0.0428561
0.0426599
0.0424701
0.0422854
0.0421064
0.0419319
0.0417627
0.0415978
0.041438
0.0412818
0.0411302
0.0409819
0.0408379
0.0406968
0.04056
0.0404253
0.0402948
0.0401662
0.0400418
0.039919
0.0398006
0.0396835
0.0395707
0.0394588
0.0393514
0.0392446
0.0391425
0.0390409
0.0389441
0.0388476
0.0387562
0.0386649
0.0385792
0.0384937
0.0384142
0.0383352
0.0382626
0.0381912
0.0381267
0.0380644
0.0380106
0.0379584
0.0379162
0.0378822
0.0378542
0.0378354
0.037829
0.0378416
0.0378651
0.0379197
0.03799
0.0381149
0.038267
0.0384753
0.0389893
0.0389513
0.0364707
0.0390144
0.0370561
0.0346283
0.0332998
0.031923
0.0312832
0.0305628
0.0302258
0.0297469
0.0298864
0.0294956
0.0293342
0.0293924
0.0288782
0.029025
0.0290698
0.0292481
0.0286833
0.0291766
0.0284696
0.0288112
0.0286659
0.0288303
0.0290624
0.0283831
0.0290263
0.0285881
0.0291856
0.0287106
0.0285927
0.0286638
0.0286405
0.0288412
0.0289047
0.029309
0.0282943
0.0290771
0.0292405
0.0290242
0.0293569
0.0289757
0.029503
0.0294424
0.0294508
0.0294729
0.0297169
0.0302653
0.0296944
0.029787
0.0298033
0.0300283
0.0302457
0.0300219
0.0305999
0.030781
0.0304599
0.0299164
0.0301618
0.0304848
0.0302086
0.0300896
0.0304568
0.030604
0.030407
0.0305092
0.0303811
0.0305873
0.0297923
0.0297978
0.0297794
0.0298582
0.0301646
0.0303112
0.0300833
0.0303345
0.0303183
0.0300715
0.0300926
0.0297205
0.0297845
0.0297793
0.0293285
0.0297911
0.0297364
0.0298709
0.0294512
0.0294644
0.0288283
0.0296487
0.0297113
0.0295603
0.0296731
0.0296097
0.0299829
0.0292395
0.0299835
0.0298363
0.0296038
0.0293925
0.0291831
0.0291392
0.0286217
0.0292388
0.0289101
0.0297941
0.0294939
0.0295303
0.029113
0.0295519
0.0297041
0.0295094
0.0297699
0.0297442
0.0300579
0.0293116
0.0301444
0.0293723
0.0295249
0.0291217
0.0292543
0.0287277
0.0282515
0.0286916
0.0280766
0.0294483
0.0282046
0.0293207
0.0285591
0.0286755
0.0288975
0.0288466
0.0289913
0.0286359
0.029201
0.028739
0.0296567
0.0286078
0.0298284
0.0289458
0.0292825
0.0286452
0.0294007
0.0287814
0.0284704
0.0288741
0.0285661
0.0290445
0.0285932
0.0290727
0.0281138
0.0296354
0.027818
0.0286675
0.0277766
0.0278744
0.0281716
0.0280333
0.0284005
0.0282127
0.0288908
0.0281728
0.0288197
0.0287271
0.0291682
0.0280949
0.0290852
0.0284118
0.028388
0.0278608
0.0285638
0.0276375
0.0283389
0.0276611
0.0276354
0.0279911
0.0279427
0.0280678
0.0282167
0.0287919
0.0282081
0.0287678
0.0281692
0.0288713
0.0280383
0.0276215
0.0281265
0.0276154
0.0276082
0.0281398
0.0279677
0.0285614
0.0283194
0.0293131
0.0288943
0.030523
0.0302339
0.0306381
0.0331085
0.0353147
0.0344415
0.00552737
0.0118407
0.0195543
0.0283668
0.0361684
0.0420775
0.0462296
0.0486715
0.0500084
0.0506173
0.0507638
0.0506554
0.0504099
0.0500931
0.0497268
0.0493359
0.0489385
0.048543
0.0481533
0.0477654
0.0473855
0.0470182
0.0466658
0.0463256
0.0459941
0.0456731
0.0453633
0.0450661
0.0447802
0.0445031
0.0442343
0.0439747
0.0437241
0.0434831
0.0432496
0.0430229
0.042803
0.0425899
0.042384
0.0421846
0.0419908
0.0418024
0.0416192
0.0414412
0.0412684
0.0411008
0.0409372
0.040778
0.0406226
0.0404714
0.040324
0.0401807
0.0400406
0.039904
0.0397702
0.03964
0.0395125
0.0393885
0.0392664
0.0391476
0.0390305
0.0389166
0.0388045
0.0386958
0.0385885
0.0384845
0.0383817
0.0382822
0.0381837
0.0380888
0.0379947
0.0379043
0.0378145
0.0377285
0.0376432
0.0375617
0.0374812
0.0374047
0.0373294
0.0372583
0.0371889
0.0371241
0.0370615
0.0370049
0.0369498
0.0369004
0.0368583
0.0368217
0.036788
0.0367661
0.0367513
0.0367494
0.0367598
0.0367871
0.0368379
0.0369126
0.0369789
0.0373092
0.0368991
0.0344225
0.037697
0.03767
0.0362426
0.0349486
0.0335645
0.0328281
0.0319111
0.0314707
0.030787
0.030871
0.0302596
0.0299499
0.0298358
0.0292549
0.0292063
0.0293439
0.0295455
0.0290135
0.0293548
0.0286935
0.0288767
0.0286709
0.0287839
0.0289229
0.0282455
0.0285799
0.0282217
0.0288951
0.028653
0.0285679
0.0285237
0.0284767
0.0285493
0.0285585
0.0288377
0.0278911
0.0284333
0.0287361
0.028679
0.028987
0.0286811
0.0291303
0.0289202
0.0287526
0.0285224
0.0289354
0.0295875
0.0292177
0.0293154
0.0291996
0.0293435
0.0293394
0.0291004
0.0296985
0.0300046
0.0297615
0.0291997
0.0295383
0.0300248
0.0298343
0.029433
0.0296053
0.0296724
0.029503
0.0295739
0.0297874
0.0301891
0.0295847
0.0296126
0.0294128
0.0293231
0.0295099
0.0295126
0.0291553
0.0294231
0.029784
0.029738
0.0298222
0.0293633
0.0293502
0.0291893
0.0287227
0.0291019
0.0293084
0.0295942
0.0291594
0.0289402
0.0282274
0.0289865
0.0291822
0.029111
0.0291796
0.0291017
0.0292693
0.0284694
0.0290181
0.0288342
0.0290827
0.0289647
0.0290257
0.02903
0.0284255
0.0287282
0.028496
0.0292964
0.0288718
0.0288583
0.0281698
0.0288566
0.0291151
0.0289639
0.0291553
0.0290696
0.0292292
0.0284591
0.0291531
0.0284345
0.0290817
0.0289045
0.0293157
0.0286161
0.0281427
0.028477
0.0279053
0.0288935
0.0280182
0.0288958
0.0280316
0.028034
0.0282212
0.0283126
0.0284254
0.0281734
0.0287355
0.0283686
0.0290325
0.0282877
0.0292489
0.0283925
0.0285254
0.0277663
0.0288984
0.0285668
0.0283138
0.0285378
0.0281264
0.0284948
0.0281661
0.0285103
0.0278817
0.0293071
0.0279292
0.0285166
0.0275384
0.02754
0.0277552
0.0276779
0.0279154
0.0277461
0.0283502
0.0277606
0.0281312
0.0280586
0.0286764
0.0280142
0.028998
0.0281865
0.028086
0.0272524
0.0280669
0.0272891
0.02827
0.0277011
0.027615
0.0278222
0.0276855
0.0275494
0.027706
0.028299
0.0278043
0.0280778
0.027499
0.0283252
0.0277926
0.0275978
0.0280494
0.027778
0.0275358
0.0279743
0.0276379
0.0282291
0.0277889
0.0288154
0.0281203
0.0298885
0.0291718
0.028222
0.0291662
0.0317076
0.0324203
0.00217495
0.00492548
0.00829336
0.0131587
0.0193435
0.0257944
0.0314845
0.0360825
0.0395228
0.0418796
0.0434073
0.0443526
0.0449217
0.0452394
0.0453645
0.045368
0.0452962
0.0451751
0.0450175
0.0448354
0.0446369
0.0444299
0.0442189
0.0440034
0.0437841
0.0435646
0.0433472
0.043134
0.0429243
0.0427162
0.0425112
0.0423105
0.0421145
0.0419241
0.0417372
0.0415536
0.0413741
0.0411989
0.0410286
0.0408625
0.0406998
0.0405407
0.0403851
0.0402333
0.0400855
0.0399413
0.0397999
0.0396616
0.0395263
0.0393941
0.0392651
0.0391391
0.0390155
0.0388947
0.0387761
0.0386602
0.0385467
0.038436
0.0383268
0.0382201
0.038115
0.0380123
0.0379112
0.0378127
0.0377156
0.0376209
0.0375274
0.0374365
0.0373467
0.0372595
0.0371733
0.0370899
0.0370073
0.0369273
0.0368484
0.0367722
0.0366973
0.0366251
0.0365542
0.0364864
0.03642
0.0363571
0.036296
0.0362393
0.036184
0.0361322
0.0360846
0.0360439
0.0360032
0.0359722
0.035941
0.0359229
0.0359075
0.0359074
0.0359144
0.0359393
0.0359281
0.0361259
0.0355813
0.0333734
0.036021
0.037025
0.0367269
0.0357945
0.0346747
0.0339201
0.0329904
0.0324842
0.0317224
0.0316995
0.0310412
0.0306228
0.0303826
0.0297875
0.0295797
0.0296804
0.0298503
0.0293982
0.0295834
0.0290512
0.0290892
0.028878
0.0289202
0.0289975
0.0283582
0.0284763
0.0281554
0.0287048
0.0286413
0.0286022
0.028534
0.0284782
0.0284792
0.0284474
0.0286294
0.0278523
0.0280947
0.0283983
0.0284419
0.0287462
0.0285252
0.0288907
0.0286836
0.0284142
0.0280562
0.0283973
0.0290355
0.0288753
0.0289938
0.0288706
0.0289445
0.0288276
0.028571
0.0290653
0.0293952
0.0292542
0.0287738
0.0290457
0.0295783
0.0295099
0.0290628
0.0291023
0.029103
0.0289396
0.0289409
0.0292463
0.029732
0.0294005
0.0294596
0.0292408
0.0290498
0.0291322
0.0290448
0.0286345
0.0288192
0.029307
0.0293904
0.0295218
0.0291295
0.0290751
0.0288623
0.0284269
0.0286549
0.0289502
0.0292956
0.0289787
0.0286903
0.0280204
0.0285272
0.0287714
0.028774
0.0288367
0.0287795
0.0288275
0.0281254
0.0283997
0.0281826
0.0286101
0.0285794
0.0288026
0.0288829
0.0283365
0.0284574
0.0282843
0.0289031
0.0285487
0.02848
0.0277768
0.0283328
0.028637
0.0285653
0.0287284
0.0286442
0.0286946
0.0280257
0.0284611
0.0278796
0.0285902
0.0286206
0.0291014
0.0285672
0.0281388
0.0283687
0.0278673
0.0284984
0.02797
0.028568
0.0278706
0.0277481
0.0278644
0.0279837
0.0280792
0.0279029
0.0284122
0.0281406
0.028586
0.0281316
0.0287916
0.0281472
0.0281043
0.0273982
0.0284077
0.0283454
0.0282019
0.0283438
0.0279277
0.0281787
0.0279461
0.0281686
0.0277506
0.028818
0.028018
0.0283573
0.0275865
0.0274725
0.0275941
0.0275373
0.0276859
0.0275321
0.0280285
0.0275815
0.0277553
0.0276706
0.0282597
0.0279399
0.0287458
0.0281304
0.0279488
0.0271468
0.027732
0.0271801
0.0280365
0.027755
0.0276696
0.0277903
0.0276301
0.0273996
0.0274573
0.0279878
0.027611
0.0277094
0.0272037
0.027897
0.0276285
0.0275383
0.02796
0.0278732
0.0275623
0.0278838
0.0275251
0.028027
0.0275571
0.0284447
0.0277589
0.0293953
0.0288814
0.0272459
0.0271962
0.0290667
0.0303943
0.000945261
0.00212323
0.00355461
0.005596
0.00881314
0.0133281
0.0185137
0.0234862
0.0279092
0.0316383
0.0345925
0.0368081
0.0384135
0.0395639
0.0403622
0.0409099
0.0412766
0.0415172
0.04166
0.0417234
0.0417358
0.0417128
0.0416621
0.0415889
0.0414993
0.0413969
0.0412852
0.0411674
0.0410437
0.0409143
0.0407819
0.040648
0.0405137
0.04038
0.0402452
0.0401102
0.0399761
0.0398434
0.0397127
0.0395836
0.0394555
0.0393289
0.039204
0.0390812
0.0389608
0.0388424
0.0387254
0.0386102
0.0384969
0.0383856
0.0382766
0.0381695
0.0380639
0.0379602
0.037858
0.0377579
0.0376595
0.0375631
0.0374679
0.0373744
0.0372821
0.0371916
0.0371023
0.037015
0.0369288
0.0368444
0.0367609
0.0366794
0.0365988
0.0365203
0.0364427
0.036367
0.0362922
0.0362193
0.0361475
0.0360776
0.0360088
0.0359421
0.0358766
0.0358131
0.035751
0.0356914
0.0356332
0.0355783
0.0355245
0.0354736
0.035423
0.0353807
0.0353375
0.0353014
0.0352605
0.0352323
0.0352013
0.035183
0.0351626
0.0351537
0.0350987
0.0351981
0.0346137
0.0327113
0.034607
0.0359221
0.0363854
0.0360188
0.0352948
0.0345972
0.0337738
0.0332374
0.0324804
0.0323571
0.0317166
0.031242
0.0309165
0.0303191
0.0300137
0.030037
0.0301497
0.0297596
0.0298293
0.0294025
0.0293445
0.0291382
0.0291246
0.0291498
0.0285467
0.028531
0.0282281
0.0286312
0.028652
0.0286469
0.0285879
0.0285301
0.0284946
0.0284358
0.0285474
0.027904
0.0279571
0.0281946
0.0282769
0.0285738
0.0284165
0.0287042
0.0285442
0.0282361
0.027829
0.0280443
0.0286146
0.0285849
0.0287299
0.0286467
0.0286769
0.0285035
0.0282353
0.0286101
0.028915
0.0288441
0.0284585
0.0286561
0.0291597
0.0291886
0.0287894
0.0287589
0.0287104
0.0285497
0.028492
0.0287847
0.0292944
0.0291694
0.0292714
0.0290992
0.0288681
0.0288799
0.0287399
0.0283128
0.0283987
0.0288841
0.0290428
0.0292023
0.0289117
0.0288514
0.0286345
0.0282432
0.028352
0.028649
0.0289997
0.0288063
0.0285274
0.0279317
0.0282254
0.0284509
0.0284937
0.0285581
0.0285288
0.0285164
0.027914
0.0280035
0.0277605
0.0281989
0.0282261
0.0285402
0.0286853
0.0282373
0.0282718
0.0281318
0.0285834
0.0283238
0.0282243
0.0275974
0.0279619
0.0282506
0.0282369
0.0283888
0.0283246
0.0283043
0.0277423
0.0279809
0.0275176
0.0281548
0.0283157
0.028768
0.0284624
0.0281191
0.0282809
0.027847
0.0282448
0.0279145
0.0283007
0.0277986
0.0276179
0.0276658
0.0277699
0.0278448
0.0277178
0.0281648
0.0279651
0.0282653
0.027993
0.0284321
0.0279811
0.0278563
0.0272443
0.0280262
0.0281026
0.0280696
0.0281867
0.0278043
0.0279705
0.0277985
0.0279398
0.0276521
0.0284157
0.0279884
0.0281913
0.0276524
0.0274978
0.0275446
0.0274881
0.0275737
0.0274297
0.0278258
0.0274771
0.0275401
0.02744
0.0279426
0.0278343
0.0284482
0.0280674
0.0278574
0.0271987
0.0275355
0.0271666
0.0278144
0.0277266
0.0277
0.0277851
0.0276291
0.0273678
0.0273493
0.027791
0.027496
0.0275004
0.0270695
0.0275977
0.0274933
0.0274586
0.0278552
0.0278923
0.0275886
0.0278048
0.0274898
0.0278742
0.0274579
0.0281534
0.0275728
0.0289846
0.0287225
0.0267246
0.0262312
0.0273444
0.0287274
0.000496869
0.000983905
0.00159441
0.00241849
0.00373159
0.00589048
0.00914961
0.0131641
0.0173652
0.0213351
0.0249341
0.028064
0.0306657
0.0327748
0.0343983
0.03564
0.0365818
0.0372994
0.0378399
0.0382363
0.0385286
0.038743
0.0388958
0.0389974
0.0390584
0.0390895
0.0390974
0.0390869
0.0390602
0.0390207
0.038971
0.0389129
0.0388482
0.0387781
0.0387021
0.038622
0.038539
0.0384541
0.0383678
0.03828
0.0381905
0.0381003
0.0380097
0.0379193
0.0378294
0.0377396
0.0376496
0.03756
0.0374711
0.037383
0.037296
0.0372097
0.0371239
0.0370391
0.036955
0.0368722
0.0367903
0.0367097
0.0366296
0.0365506
0.0364722
0.036395
0.0363187
0.0362437
0.0361694
0.0360962
0.0360237
0.0359525
0.0358821
0.035813
0.0357448
0.0356778
0.0356116
0.0355466
0.0354825
0.0354198
0.0353581
0.0352978
0.0352384
0.0351805
0.0351236
0.0350685
0.0350145
0.0349629
0.0349119
0.0348635
0.0348132
0.0347701
0.0347272
0.0346887
0.0346428
0.0346086
0.0345682
0.0345378
0.0344998
0.0344674
0.0343872
0.0344127
0.0338271
0.0322026
0.0335214
0.0347802
0.0355999
0.0357538
0.0354515
0.0349238
0.034265
0.0337365
0.0330403
0.0328406
0.0322445
0.0317573
0.0313832
0.030791
0.0304337
0.0303814
0.0304296
0.0300769
0.0300668
0.0297102
0.0295956
0.0293937
0.0293404
0.0293212
0.0287484
0.0286517
0.0283601
0.0286375
0.0286827
0.0286939
0.0286488
0.0285916
0.0285392
0.0284641
0.0285249
0.0279764
0.0279221
0.0280829
0.0281648
0.0284444
0.0283292
0.028549
0.028435
0.0281272
0.027714
0.0278193
0.0283018
0.0283378
0.0284988
0.0284612
0.0284701
0.0282726
0.0280003
0.0282728
0.0285331
0.0284993
0.0281935
0.0283369
0.0287821
0.0288696
0.0285464
0.0284887
0.0284094
0.0282525
0.0281563
0.0284008
0.0288961
0.0289052
0.0290434
0.028933
0.0287065
0.0286769
0.0285099
0.0280864
0.0280918
0.0285202
0.028713
0.0288857
0.0286875
0.0286381
0.0284402
0.0280953
0.0281279
0.0283929
0.028721
0.0286194
0.0283793
0.0278629
0.028015
0.028195
0.0282506
0.0283164
0.0283075
0.0282691
0.0277469
0.0277281
0.027476
0.0278557
0.0279115
0.028264
0.028453
0.0281032
0.0281069
0.0279912
0.0283123
0.0281281
0.0280152
0.0274872
0.0276983
0.02794
0.0279552
0.0280993
0.0280543
0.027993
0.0275186
0.0276305
0.0272576
0.0277905
0.0280194
0.0284218
0.0282885
0.0280479
0.0281772
0.0278061
0.0280625
0.027839
0.028083
0.0277269
0.0275397
0.0275396
0.0276173
0.0276705
0.0275737
0.0279619
0.0278117
0.0280217
0.0278521
0.0281436
0.02783
0.0276833
0.0271761
0.0277437
0.0278703
0.0279165
0.028033
0.0276967
0.02781
0.0276756
0.0277678
0.0275624
0.028115
0.0278933
0.0280389
0.0276685
0.0275289
0.0275325
0.027471
0.027513
0.0273745
0.0276873
0.027401
0.0274044
0.0272966
0.0277055
0.0277104
0.0281784
0.0279663
0.0277737
0.0272622
0.0274244
0.0271805
0.0276418
0.0276567
0.027692
0.0277695
0.0276293
0.0273683
0.027307
0.027663
0.0274162
0.0273703
0.0270065
0.0273915
0.0273706
0.0273765
0.0277443
0.0278562
0.0275885
0.0277267
0.0274738
0.0277517
0.0274173
0.0279269
0.0274715
0.0286353
0.0285432
0.0264228
0.0257526
0.0263095
0.0274959
0.00034182
0.000534352
0.000789554
0.00112399
0.0016322
0.00248551
0.00393219
0.0061872
0.00918272
0.012617
0.0161043
0.0193696
0.0223779
0.0250852
0.0274198
0.0293893
0.0310051
0.0323057
0.0333507
0.0341797
0.0348379
0.0353613
0.0357784
0.0361079
0.0363652
0.0365667
0.0367243
0.0368458
0.0369354
0.0369988
0.0370423
0.0370687
0.0370816
0.037082
0.0370724
0.0370541
0.0370285
0.0369969
0.03696
0.0369182
0.0368719
0.0368224
0.03677
0.0367156
0.0366595
0.0366013
0.0365412
0.0364801
0.0364182
0.0363557
0.036293
0.0362297
0.0361657
0.0361017
0.0360376
0.0359737
0.0359101
0.0358467
0.0357832
0.03572
0.0356569
0.0355943
0.0355321
0.0354705
0.0354091
0.0353482
0.0352876
0.0352278
0.0351685
0.0351099
0.0350519
0.0349945
0.0349376
0.0348815
0.034826
0.0347714
0.0347175
0.0346644
0.0346121
0.0345606
0.0345099
0.0344603
0.0344115
0.0343643
0.0343174
0.0342725
0.0342251
0.0341822
0.034141
0.0341022
0.0340549
0.0340176
0.0339718
0.0339335
0.033884
0.0338353
0.0337407
0.0337104
0.03314
0.0317527
0.032685
0.0337629
0.0346626
0.0351644
0.0352232
0.0349442
0.0344846
0.0340076
0.0334044
0.0331562
0.0326179
0.0321466
0.0317558
0.0311782
0.0308009
0.0306896
0.0306768
0.0303443
0.0302791
0.0299664
0.0298208
0.0296212
0.0295392
0.0294837
0.0289364
0.0287913
0.0285098
0.0286886
0.0287275
0.0287402
0.0287042
0.0286475
0.028588
0.0285035
0.0285275
0.028046
0.0279337
0.0280278
0.0280901
0.0283438
0.0282529
0.0284167
0.0283356
0.028045
0.0276476
0.0276739
0.0280697
0.0281305
0.0282933
0.0282913
0.0282922
0.028089
0.0278193
0.0280122
0.0282238
0.0282042
0.027958
0.0280653
0.0284488
0.0285627
0.0283129
0.0282516
0.0281577
0.028007
0.0278905
0.0280796
0.0285389
0.0286278
0.0287853
0.028734
0.0285371
0.0284868
0.0283102
0.0279024
0.0278529
0.0282089
0.0284097
0.0285836
0.0284563
0.0284233
0.0282537
0.0279528
0.0279425
0.0281677
0.0284618
0.0284194
0.0282233
0.0277818
0.0278483
0.0279799
0.028032
0.0280961
0.0280995
0.0280523
0.0275937
0.0275154
0.0272694
0.0275718
0.0276366
0.0279902
0.0282035
0.0279373
0.0279385
0.0278449
0.0280718
0.0279397
0.0278212
0.0273917
0.0274974
0.0276852
0.0277082
0.0278428
0.0278113
0.0277294
0.0273214
0.027357
0.0270541
0.0274868
0.0277407
0.0280976
0.0280744
0.0279273
0.0280466
0.027734
0.0279072
0.0277441
0.0279001
0.0276379
0.0274689
0.0274419
0.0274942
0.0275279
0.0274489
0.0277855
0.0276685
0.0278215
0.0277086
0.0279054
0.0276785
0.0275383
0.0271329
0.0275317
0.0276625
0.0277534
0.0278749
0.0275846
0.0276676
0.027559
0.0276227
0.0274716
0.0278832
0.0277699
0.0278923
0.0276387
0.0275353
0.027521
0.0274564
0.0274696
0.0273354
0.0275815
0.0273349
0.0273066
0.0271989
0.0275242
0.0275814
0.0279494
0.0278404
0.027682
0.0272933
0.0273569
0.0271892
0.0275189
0.0275749
0.027653
0.0277337
0.0276121
0.0273688
0.0272881
0.0275718
0.0273521
0.0272788
0.0269739
0.027245
0.0272601
0.0272942
0.0276319
0.0277852
0.0275608
0.0276497
0.0274538
0.0276494
0.0273956
0.0277554
0.027422
0.0283309
0.0283261
0.0262443
0.0255111
0.0257051
0.0266368
0.000285607
0.000365888
0.000469264
0.000604524
0.000799959
0.00111715
0.00166665
0.00261186
0.0041113
0.00626657
0.00895158
0.0118791
0.014834
0.0175884
0.0201645
0.0225384
0.0246524
0.0264935
0.0280843
0.029407
0.0305044
0.0314144
0.0321684
0.0327903
0.0333014
0.0337232
0.0340719
0.0343607
0.0345982
0.034792
0.0349511
0.0350809
0.0351871
0.0352718
0.0353373
0.035388
0.035426
0.0354532
0.0354706
0.0354798
0.0354816
0.0354772
0.0354672
0.0354525
0.0354335
0.0354102
0.0353834
0.0353538
0.0353215
0.0352873
0.0352512
0.0352131
0.0351732
0.0351321
0.0350898
0.0350468
0.0350031
0.0349585
0.0349131
0.0348672
0.0348208
0.0347742
0.0347274
0.0346804
0.034633
0.0345856
0.0345381
0.0344907
0.0344434
0.0343963
0.0343493
0.0343025
0.0342558
0.0342094
0.0341633
0.0341177
0.0340724
0.0340274
0.0339829
0.0339387
0.0338949
0.0338519
0.0338091
0.0337674
0.0337255
0.0336851
0.0336424
0.0336011
0.0335623
0.033525
0.0334788
0.0334405
0.0333921
0.033349
0.0332923
0.0332321
0.0331305
0.033057
0.0325095
0.0313209
0.0320087
0.0328956
0.0337408
0.0344039
0.0347177
0.0346988
0.0344504
0.0340804
0.0335851
0.0333171
0.032842
0.0324054
0.0320219
0.0314703
0.031095
0.0309443
0.0308797
0.0305588
0.0304561
0.030171
0.0300091
0.0298104
0.0297059
0.0296218
0.0290973
0.0289246
0.0286542
0.0287586
0.0287785
0.0287825
0.0287494
0.0286917
0.0286285
0.0285381
0.0285359
0.0281038
0.027962
0.0280041
0.0280398
0.0282621
0.028181
0.0283008
0.0282398
0.0279715
0.0275996
0.0275747
0.0278942
0.0279559
0.0281087
0.0281296
0.028129
0.0279303
0.0276676
0.0278008
0.0279662
0.0279468
0.0277431
0.0278271
0.0281557
0.0282759
0.0280847
0.0280291
0.0279321
0.0277905
0.0276677
0.0278066
0.0282195
0.0283496
0.0285119
0.0285073
0.0283493
0.0282953
0.0281196
0.0277345
0.0276512
0.0279382
0.0281319
0.0282997
0.0282226
0.0282058
0.0280659
0.0278039
0.0277725
0.0279606
0.0282182
0.028211
0.0280549
0.0276802
0.0276981
0.0277878
0.027828
0.0278874
0.0278977
0.0278499
0.0274431
0.0273344
0.027104
0.027333
0.027396
0.0277277
0.027949
0.0277495
0.0277602
0.0276874
0.0278498
0.0277504
0.0276329
0.0272885
0.0273297
0.0274687
0.0274864
0.0276087
0.0275847
0.0274947
0.0271379
0.0271297
0.0268824
0.0272291
0.0274815
0.0277986
0.0278417
0.027769
0.027891
0.027632
0.0277568
0.027631
0.0277327
0.0275314
0.0273885
0.0273506
0.027383
0.027401
0.0273315
0.0276236
0.0275284
0.0276446
0.0275638
0.0276997
0.027525
0.0274003
0.0270859
0.0273642
0.027479
0.0275882
0.0277131
0.0274632
0.0275297
0.02744
0.0274878
0.0273751
0.0276924
0.0276356
0.0277462
0.0275732
0.0275089
0.027493
0.0274294
0.0274259
0.0272964
0.0274902
0.0272696
0.0272244
0.0271221
0.0273786
0.0274541
0.0277528
0.0277024
0.0275786
0.0272866
0.0273026
0.0271822
0.0274252
0.0274908
0.0275915
0.0276767
0.0275718
0.0273571
0.0272707
0.0274968
0.0272932
0.0272048
0.0269496
0.0271349
0.0271609
0.027212
0.0275204
0.0276929
0.027511
0.0275716
0.0274199
0.0275573
0.0273674
0.0276228
0.0273939
0.0280667
0.0280972
0.0261235
0.0253856
0.0253565
0.0260516
0.000263423
0.000299149
0.000345476
0.00040044
0.000476536
0.000593312
0.00078933
0.00113481
0.00173123
0.0027079
0.00418144
0.00616559
0.00855404
0.0110673
0.0136065
0.0160033
0.0182437
0.0203375
0.0222626
0.0239827
0.0255048
0.0268329
0.0279651
0.02893
0.0297515
0.0304476
0.0310371
0.0315382
0.0319638
0.0323237
0.0326291
0.032889
0.033111
0.0333001
0.0334589
0.0335938
0.0337081
0.0338052
0.0338866
0.0339539
0.0340091
0.0340545
0.0340907
0.0341195
0.0341408
0.0341562
0.034166
0.0341709
0.0341713
0.0341679
0.0341608
0.0341503
0.0341368
0.0341207
0.0341024
0.0340821
0.03406
0.0340361
0.0340104
0.0339834
0.0339551
0.0339259
0.0338957
0.0338647
0.0338326
0.0337998
0.0337664
0.0337325
0.0336982
0.0336637
0.0336287
0.0335933
0.0335577
0.033522
0.0334862
0.0334503
0.0334145
0.0333784
0.0333424
0.0333064
0.0332704
0.0332347
0.0331988
0.0331635
0.0331276
0.0330925
0.0330554
0.0330177
0.0329815
0.0329469
0.0329039
0.0328664
0.0328174
0.0327717
0.0327108
0.0326428
0.0325391
0.0324314
0.0319105
0.0308889
0.0314267
0.0321538
0.0328986
0.0335953
0.0340514
0.0342443
0.0341967
0.0339711
0.0336001
0.0333378
0.0329281
0.0325373
0.0321779
0.0316646
0.0313069
0.0311346
0.0310303
0.0307187
0.0305907
0.030324
0.0301541
0.0299565
0.0298341
0.0297278
0.029225
0.029038
0.0287801
0.0288294
0.0288265
0.0288164
0.0287813
0.0287209
0.028655
0.0285601
0.0285389
0.0281449
0.02799
0.0279937
0.0280028
0.028192
0.0281112
0.0281955
0.0281449
0.0278979
0.0275546
0.0274991
0.0277559
0.0278065
0.0279413
0.0279741
0.0279734
0.0277838
0.0275308
0.0276204
0.0277452
0.0277186
0.0275444
0.0276123
0.0278951
0.0280109
0.0278623
0.0278148
0.0277209
0.02759
0.0274699
0.0275683
0.0279322
0.0280777
0.0282352
0.0282631
0.0281434
0.028095
0.0279277
0.0275693
0.0274682
0.0276971
0.027876
0.0280336
0.0279901
0.0279866
0.0278736
0.0276452
0.0276057
0.0277632
0.0279864
0.0279982
0.0278746
0.0275573
0.0275494
0.0276066
0.0276324
0.0276854
0.0276986
0.0276536
0.02729
0.0271678
0.0269582
0.0271263
0.0271826
0.0274808
0.0276979
0.0275483
0.0275719
0.0275186
0.0276379
0.0275587
0.0274465
0.0271701
0.0271768
0.0272764
0.027283
0.027391
0.0273694
0.0272775
0.0269614
0.0269293
0.0267276
0.0270044
0.0272409
0.027522
0.0276033
0.0275851
0.0277145
0.0275038
0.0276008
0.0275013
0.0275695
0.0274095
0.0272923
0.0272542
0.0272723
0.0272791
0.027215
0.0274688
0.0273881
0.0274793
0.0274171
0.0275125
0.0273695
0.0272611
0.0270237
0.0272202