/*--------------------------------*- C++ -*----------------------------------*\
| =========                 |                                                 |
| \\      /  F ield         | foam-extend: Open Source CFD                    |
|  \\    /   O peration     | Version:     3.2                                |
|   \\  /    A nd           | Web:         http://www.foam-extend.org         |
|    \\/     M anipulation  | For copyright notice see file Copyright         |
\*---------------------------------------------------------------------------*/
FoamFile
{
    version     2.0;
    format      ascii;
    class       volScalarField;
    location    "160";
    object      Ktemp;
}
// * * * * * * * * * * * * * * * * * * * * * * * * * * * * * * * * * * * * * //

dimensions      [0 2 -2 0 0 0 0];

internalField   nonuniform List<scalar> 
96000
(
0.178319
0.142008
0.0985161
0.0808966
0.0742543
0.070771
0.0682485
0.0660411
0.064009
0.0621651
0.0605192
0.0590479
0.0577168
0.0565291
0.0554604
0.0544888
0.0536003
0.0527801
0.052029
0.051344
0.0507081
0.0501105
0.0495495
0.0490226
0.0485286
0.0480608
0.0476189
0.0471986
0.0468006
0.0464232
0.0460631
0.0457199
0.0453907
0.0450765
0.0447755
0.0444878
0.0442104
0.0439442
0.0436874
0.0434401
0.0432024
0.0429724
0.0427508
0.0425359
0.0423281
0.0421271
0.0419325
0.0417443
0.0415607
0.0413836
0.0412102
0.041043
0.0408797
0.0407218
0.0405672
0.0404175
0.0402708
0.0401289
0.0399879
0.0398526
0.0397184
0.0395904
0.0394629
0.0393417
0.0392206
0.0391062
0.038991
0.0388832
0.0387739
0.0386727
0.0385697
0.0384754
0.038379
0.0382922
0.0382028
0.0381244
0.0380434
0.0379746
0.0379038
0.0378469
0.0377887
0.0377465
0.0377055
0.0376818
0.037666
0.0376649
0.0376783
0.0377147
0.0377745
0.0378608
0.0379934
0.038155
0.0384094
0.0386923
0.0391819
0.0397061
0.0408383
0.0413367
0.0474337
0.0439284
0.0226939
0.022124
0.0234
0.0234395
0.0243604
0.0242735
0.0251043
0.0251217
0.0258548
0.0251644
0.0268289
0.0269979
0.0271192
0.0282906
0.0265439
0.0256125
0.0256739
0.0276397
0.025948
0.0281392
0.0268874
0.0277924
0.0274355
0.0280143
0.0312545
0.0272552
0.0280666
0.0252304
0.0269219
0.027152
0.0275188
0.0280951
0.0282878
0.0290016
0.0286457
0.032354
0.0273487
0.0263124
0.0274041
0.0267423
0.0297297
0.0284491
0.0302762
0.0317476
0.031127
0.0287617
0.0268805
0.0295235
0.0295378
0.0305464
0.0311221
0.0322926
0.0319627
0.0284882
0.0290248
0.0307333
0.0312574
0.0283633
0.027321
0.0296878
0.0318356
0.0309921
0.0317601
0.0315702
0.0295462
0.0280113
0.0261192
0.0285153
0.0285293
0.0296609
0.030856
0.0304203
0.0314314
0.0321276
0.0292953
0.0272523
0.0277922
0.0278796
0.0295021
0.0294227
0.0303764
0.0307639
0.0279716
0.0271591
0.027179
0.0293922
0.0300169
0.0314418
0.0273375
0.0276301
0.0286175
0.0286815
0.0299555
0.0300322
0.0333345
0.0291762
0.0292524
0.0268867
0.0268581
0.025806
0.026469
0.0305283
0.0277031
0.0297657
0.0277912
0.0307967
0.0309559
0.0312075
0.0276385
0.0275272
0.0295222
0.0289642
0.0308202
0.0307315
0.0327815
0.028139
0.029966
0.0255151
0.0259084
0.0255153
0.0278783
0.0280027
0.02572
0.0300671
0.0251297
0.0302266
0.0275814
0.0311629
0.0292097
0.0281473
0.0279569
0.0281276
0.0288643
0.0260035
0.0299119
0.0268963
0.030451
0.0274786
0.0313013
0.029394
0.0296565
0.0253012
0.0277361
0.027748
0.027221
0.0304542
0.0274791
0.0292614
0.0263884
0.0284035
0.0226358
0.028902
0.0262726
0.0294559
0.027296
0.0271635
0.0282576
0.0278202
0.0291868
0.0264408
0.0310255
0.0275807
0.027394
0.0254834
0.0278717
0.0249336
0.0288856
0.0287608
0.0292864
0.0257881
0.0273422
0.0242608
0.0268292
0.0261271
0.0264841
0.0291204
0.0295073
0.0281154
0.0260262
0.0304517
0.0278825
0.0289706
0.0250949
0.026743
0.0254076
0.0230987
0.0260883
0.0275266
0.0265455
0.0284109
0.0272879
0.0298933
0.0280262
0.0325869
0.0291395
0.0401889
0.0565232
0.0441414
0.03249
0.0296182
0.0457228
0.0704376
0.0777443
0.0777712
0.075762
0.0733601
0.071026
0.0688371
0.0668366
0.0650512
0.063426
0.0619602
0.0606352
0.0594487
0.0583732
0.0573818
0.0564724
0.0556344
0.0548665
0.0541467
0.0534709
0.052837
0.0522444
0.0516892
0.0511661
0.0506709
0.0502022
0.0497584
0.049338
0.0489387
0.0485571
0.0481933
0.047845
0.0475129
0.0471947
0.0468896
0.0465961
0.0463137
0.0460423
0.0457809
0.0455292
0.045286
0.045051
0.0448238
0.0446039
0.0443916
0.0441855
0.0439862
0.0437921
0.0436044
0.0434214
0.0432445
0.0430717
0.0429045
0.0427408
0.0425825
0.0424272
0.0422768
0.0421284
0.0419856
0.0418444
0.0417089
0.0415745
0.0414459
0.041318
0.0411961
0.0410742
0.0409587
0.0408427
0.0407335
0.0406234
0.0405206
0.0404166
0.0403205
0.0402229
0.0401338
0.0400433
0.0399621
0.03988
0.0398079
0.0397357
0.0396747
0.0396152
0.0395682
0.0395237
0.0394945
0.0394742
0.0394641
0.0394722
0.0394935
0.0395515
0.0396175
0.0397473
0.0398876
0.0401415
0.0404186
0.0409018
0.0416059
0.0425989
0.0410457
0.03773
0.0339879
0.0316352
0.0305698
0.0296903
0.0292509
0.0290081
0.0288189
0.0287458
0.028792
0.0289998
0.0290191
0.0292858
0.0290555
0.0291501
0.0288789
0.0289216
0.0286611
0.0290978
0.0288979
0.0290475
0.0291737
0.0292232
0.0296616
0.0293859
0.0298787
0.0295407
0.0292807
0.0290061
0.0288911
0.0292338
0.0292344
0.0295896
0.0297552
0.0302528
0.0299819
0.0299247
0.029838
0.0295822
0.0298847
0.0296516
0.0301962
0.030666
0.0309861
0.0313791
0.0308696
0.0308329
0.0305592
0.0306494
0.0310691
0.0313615
0.0320278
0.0318236
0.0317457
0.0316293
0.0315942
0.0313814
0.0309719
0.0309591
0.0308402
0.0315354
0.0319257
0.0321875
0.0320144
0.031907
0.0310565
0.0307082
0.0302315
0.0302109
0.0306566
0.0310357
0.0314467
0.0318436
0.0318454
0.0316374
0.0308161
0.0304371
0.0304098
0.0305523
0.0306567
0.0310214
0.0307226
0.0307126
0.0302372
0.030117
0.0301526
0.0306462
0.0305214
0.0304452
0.0303595
0.0302479
0.0304799
0.0305992
0.0312478
0.0312621
0.0313207
0.0312542
0.0301103
0.0298688
0.0292157
0.0293463
0.0293702
0.0301901
0.0299547
0.0303806
0.0308026
0.0308899
0.0311943
0.030488
0.0304382
0.0304001
0.0307342
0.0309885
0.0314691
0.0313116
0.0313486
0.0309428
0.0296519
0.0292679
0.028874
0.0291614
0.0287545
0.0291048
0.0287638
0.0298141
0.0293005
0.0298105
0.0300881
0.029915
0.0300955
0.029775
0.0300085
0.0295461
0.0297332
0.0294749
0.0302683
0.0298703
0.0304098
0.0304783
0.0304357
0.0304685
0.0295044
0.0292817
0.0289617
0.0295845
0.0297045
0.0299735
0.0296135
0.0297697
0.0286503
0.0290422
0.0284732
0.0287553
0.0289139
0.0286016
0.0290197
0.0288749
0.0294109
0.0292927
0.0297041
0.0295383
0.0297583
0.029731
0.0294067
0.0286093
0.0288008
0.0291778
0.0291874
0.029514
0.029007
0.0286407
0.0279917
0.0280309
0.0278835
0.0285097
0.0287843
0.0294419
0.0291901
0.029431
0.0293786
0.0298601
0.0296088
0.0291348
0.0285887
0.0277155
0.0279992
0.027524
0.0280522
0.0285781
0.0287969
0.0292264
0.0294738
0.0301123
0.0305642
0.0313807
0.0336856
0.037659
0.0396457
0.0387308
0.0357162
0.0150988
0.0289288
0.0427709
0.051652
0.0566799
0.0589914
0.0597322
0.0594858
0.0588411
0.0580294
0.0571557
0.0562923
0.0554563
0.0546683
0.0539162
0.0531954
0.0525181
0.0518831
0.05129
0.0507256
0.0501892
0.0496818
0.049204
0.0487523
0.0483214
0.0479101
0.047518
0.0471453
0.0467904
0.0464507
0.0461242
0.0458113
0.0455108
0.0452236
0.0449472
0.0446808
0.0444237
0.0441756
0.0439367
0.0437063
0.0434835
0.0432677
0.0430586
0.0428561
0.0426599
0.0424701
0.0422854
0.0421064
0.0419319
0.0417627
0.0415978
0.041438
0.0412818
0.0411302
0.0409819
0.0408379
0.0406968
0.04056
0.0404253
0.0402948
0.0401662
0.0400418
0.039919
0.0398006
0.0396835
0.0395707
0.0394588
0.0393514
0.0392446
0.0391425
0.0390409
0.0389441
0.0388476
0.0387562
0.0386649
0.0385792
0.0384938
0.0384142
0.0383352
0.0382626
0.0381912
0.0381267
0.0380645
0.0380106
0.0379584
0.0379162
0.0378822
0.0378543
0.0378354
0.037829
0.0378416
0.0378652
0.0379199
0.0379901
0.0381151
0.0382672
0.0384756
0.0389899
0.0389523
0.0364719
0.0390154
0.0370562
0.034628
0.033299
0.0319218
0.0312816
0.0305608
0.0302215
0.0297421
0.0298851
0.0294962
0.0293347
0.0293999
0.028882
0.0290134
0.0290559
0.0292357
0.0286744
0.0291784
0.0284845
0.0288315
0.0286715
0.0288209
0.0290515
0.0283732
0.0290143
0.0285742
0.0291819
0.028718
0.028604
0.0286744
0.0286421
0.0288226
0.028885
0.0293035
0.028295
0.0290903
0.0292494
0.0290328
0.0293514
0.0289632
0.0294907
0.0294399
0.0294599
0.0294927
0.0297258
0.0302664
0.0296746
0.0297671
0.0298012
0.0300413
0.0302594
0.0300538
0.0306064
0.0307542
0.0304354
0.0299043
0.0301706
0.0305078
0.0302177
0.0300908
0.0304359
0.0305799
0.0303976
0.0305255
0.030395
0.0306004
0.0297801
0.029783
0.029768
0.0298551
0.0301826
0.0303358
0.0300911
0.0303262
0.0302955
0.0300497
0.0300841
0.029729
0.0297979
0.0297958
0.0293359
0.0297788
0.0297196
0.0298556
0.029445
0.0294718
0.0288453
0.0296745
0.02971
0.0295408
0.0296523
0.0296005
0.0299943
0.0292556
0.0299973
0.0298331
0.0295862
0.0293737
0.0291776
0.0291456
0.0286352
0.029256
0.028914
0.0297755
0.0294707
0.0295252
0.0291274
0.029578
0.0297073
0.0294938
0.0297478
0.0297257
0.0300517
0.0293203
0.0301646
0.0293805
0.0295312
0.0291122
0.0292393
0.0287133
0.028249
0.0287053
0.0280958
0.0294612
0.0281946
0.0293002
0.0285412
0.0286742
0.0289094
0.0288622
0.0290053
0.0286376
0.0291841
0.0287215
0.0296504
0.0286257
0.0298519
0.0289483
0.0292631
0.028633
0.0293847
0.0287777
0.0284787
0.0288893
0.0285829
0.0290478
0.028579
0.0290517
0.0281113
0.0296425
0.0278333
0.0286714
0.0277656
0.0278604
0.0281598
0.0280295
0.0284105
0.0282293
0.0289084
0.0281749
0.0288133
0.0287193
0.0291584
0.0280937
0.0290791
0.0284034
0.0283819
0.0278556
0.0285557
0.0276364
0.0283359
0.0276539
0.0276362
0.0279859
0.0279365
0.0280608
0.0282133
0.0287851
0.0281987
0.0287602
0.0281644
0.0288658
0.0280293
0.0276154
0.0281194
0.0276096
0.0276024
0.0281331
0.0279614
0.028554
0.0283124
0.0293047
0.0288865
0.0305114
0.0302256
0.030628
0.0330989
0.0353047
0.0344346
0.00552737
0.0118407
0.0195543
0.0283668
0.0361684
0.0420775
0.0462296
0.0486715
0.0500084
0.0506173
0.0507638
0.0506554
0.0504099
0.0500931
0.0497268
0.0493359
0.0489385
0.048543
0.0481533
0.0477654
0.0473855
0.0470182
0.0466658
0.0463256
0.0459941
0.0456731
0.0453633
0.0450661
0.0447802
0.0445031
0.0442343
0.0439747
0.0437241
0.0434831
0.0432496
0.0430229
0.042803
0.0425899
0.042384
0.0421846
0.0419908
0.0418024
0.0416192
0.0414412
0.0412684
0.0411008
0.0409372
0.040778
0.0406226
0.0404714
0.0403241
0.0401807
0.0400406
0.039904
0.0397702
0.03964
0.0395125
0.0393885
0.0392664
0.0391476
0.0390305
0.0389166
0.0388045
0.0386958
0.0385885
0.0384845
0.0383817
0.0382822
0.0381837
0.0380888
0.0379947
0.0379043
0.0378145
0.0377285
0.0376432
0.0375617
0.0374812
0.0374047
0.0373294
0.0372583
0.0371889
0.0371241
0.0370615
0.0370049
0.0369498
0.0369004
0.0368584
0.0368217
0.0367881
0.0367661
0.0367514
0.0367495
0.0367599
0.0367872
0.0368381
0.0369129
0.0369792
0.0373097
0.0368998
0.0344236
0.0376982
0.0376706
0.036243
0.0349487
0.0335642
0.0328274
0.0319099
0.0314676
0.0307836
0.0308694
0.0302571
0.0299488
0.0298434
0.0292611
0.0292027
0.0293348
0.0295347
0.0290032
0.0293502
0.0287021
0.0288944
0.0286764
0.0287813
0.0289193
0.0282394
0.0285708
0.0282099
0.0288887
0.0286542
0.0285748
0.0285307
0.0284817
0.0285417
0.0285446
0.0288278
0.0278846
0.0284388
0.0287423
0.0286871
0.0289882
0.0286756
0.0291217
0.0289125
0.0287515
0.0285341
0.0289467
0.0295932
0.0292089
0.0293015
0.029191
0.0293465
0.0293444
0.0291235
0.0297091
0.0299905
0.029744
0.0291834
0.0295408
0.0300414
0.0298428
0.0294347
0.0295978
0.0296565
0.0294896
0.0295789
0.0298014
0.0302039
0.0295804
0.0296032
0.0294005
0.0293151
0.029516
0.0295271
0.0291666
0.0294249
0.0297709
0.0297195
0.0298075
0.0293614
0.0293565
0.029201
0.0287331
0.029101
0.0292992
0.0295816
0.02915
0.0289382
0.0282382
0.0290052
0.0291867
0.0291007
0.0291644
0.0290906
0.0292685
0.028476
0.029028
0.0288372
0.0290764
0.0289537
0.0290182
0.0290301
0.0284333
0.0287394
0.0285037
0.0292883
0.0288571
0.0288467
0.0281742
0.0288755
0.0291222
0.0289575
0.0291417
0.0290552
0.0292171
0.0284568
0.0291629
0.0284442
0.0290916
0.0289044
0.029306
0.0286036
0.0281363
0.0284818
0.0279189
0.0289059
0.0280148
0.0288841
0.0280166
0.0280287
0.0282264
0.0283217
0.0284353
0.0281793
0.0287284
0.0283559
0.0290238
0.0282952
0.0292642
0.0283949
0.0285155
0.027762
0.0288846
0.0285617
0.0283155
0.0285459
0.0281392
0.0285008
0.0281595
0.0284976
0.0278766
0.0293117
0.027937
0.0285222
0.0275319
0.0275328
0.0277469
0.0276714
0.027918
0.0277563
0.0283632
0.0277658
0.0281315
0.0280559
0.0286713
0.0280148
0.0289935
0.028181
0.0280791
0.0272479
0.0280605
0.0272879
0.0282686
0.0276963
0.0276149
0.0278193
0.0276792
0.027543
0.0277051
0.0282943
0.0277973
0.0280715
0.0274961
0.0283207
0.0277848
0.027593
0.028044
0.027773
0.0275312
0.0279689
0.0276329
0.0282232
0.0277833
0.0288062
0.0281141
0.0298789
0.029165
0.0282145
0.0291588
0.0316973
0.0324116
0.00217495
0.00492548
0.00829336
0.0131587
0.0193435
0.0257944
0.0314845
0.0360825
0.0395228
0.0418796
0.0434073
0.0443526
0.0449217
0.0452394
0.0453645
0.045368
0.0452962
0.0451751
0.0450175
0.0448354
0.0446369
0.0444299
0.0442189
0.0440034
0.0437841
0.0435646
0.0433472
0.043134
0.0429243
0.0427162
0.0425112
0.0423105
0.0421145
0.0419241
0.0417372
0.0415536
0.0413741
0.0411989
0.0410286
0.0408625
0.0406998
0.0405407
0.0403851
0.0402333
0.0400855
0.0399413
0.0397999
0.0396616
0.0395263
0.0393941
0.0392651
0.0391391
0.0390155
0.0388947
0.0387761
0.0386602
0.0385467
0.038436
0.0383268
0.0382201
0.038115
0.0380123
0.0379112
0.0378127
0.0377156
0.0376209
0.0375274
0.0374365
0.0373467
0.0372595
0.0371733
0.0370899
0.0370073
0.0369274
0.0368484
0.0367722
0.0366973
0.0366251
0.0365543
0.0364864
0.0364201
0.0363571
0.036296
0.0362393
0.036184
0.0361323
0.0360846
0.036044
0.0360032
0.0359722
0.035941
0.035923
0.0359076
0.0359075
0.0359146
0.0359394
0.0359283
0.0361263
0.0355818
0.0333742
0.0360223
0.0370258
0.0367274
0.0357948
0.0346748
0.0339197
0.0329897
0.0324817
0.0317199
0.0316976
0.0310366
0.0306234
0.0303901
0.029794
0.0295791
0.0296735
0.0298409
0.029388
0.0295781
0.0290568
0.0291028
0.0288847
0.0289218
0.0289961
0.028353
0.0284689
0.0281459
0.0286983
0.0286407
0.0286067
0.02854
0.028484
0.0284759
0.0284366
0.0286191
0.0278434
0.0280971
0.0284028
0.0284492
0.0287504
0.0285217
0.0288822
0.0286746
0.0284097
0.0280645
0.0284081
0.0290434
0.0288707
0.0289829
0.0288615
0.0289428
0.0288297
0.0285887
0.0290762
0.0293877
0.0292401
0.0287576
0.029046
0.0295887
0.0295171
0.0290647
0.0290978
0.0290909
0.0289264
0.0289414
0.0292598
0.0297477
0.0293992
0.0294517
0.0292299
0.0290415
0.0291341
0.0290541
0.0286455
0.0288231
0.0292991
0.0293758
0.0295081
0.0291249
0.0290786
0.0288714
0.0284375
0.0286579
0.0289443
0.0292847
0.02897
0.0286849
0.0280267
0.028542
0.0287782
0.0287685
0.0288247
0.0287689
0.0288219
0.0281267
0.0284074
0.0281879
0.0286079
0.0285717
0.0287952
0.0288812
0.0283419
0.0284657
0.028292
0.0289003
0.0285381
0.0284673
0.0277763
0.0283459
0.0286448
0.028563
0.0287191
0.028633
0.0286806
0.0280187
0.0284662
0.0278897
0.0286002
0.0286255
0.0290928
0.0285566
0.0281314
0.0283701
0.0278776
0.0285068
0.0279697
0.0285583
0.0278599
0.027741
0.0278664
0.0279901
0.0280873
0.02791
0.028409
0.0281308
0.0285778
0.028134
0.0288034
0.0281488
0.0280993
0.027395
0.0283992
0.0283394
0.0282019
0.0283489
0.0279384
0.0281852
0.0279434
0.0281588
0.0277448
0.0288207
0.0280233
0.0283624
0.0275835
0.0274669
0.0275873
0.0275304
0.0276856
0.0275391
0.0280388
0.0275868
0.0277574
0.0276686
0.028257
0.0279408
0.0287444
0.0281255
0.027942
0.027142
0.0277275
0.0271786
0.0280361
0.0277528
0.0276696
0.0277886
0.0276242
0.027395
0.0274572
0.0279843
0.0276057
0.0277042
0.0272013
0.0278938
0.0276225
0.0275347
0.027956
0.0278691
0.0275585
0.0278794
0.0275213
0.0280223
0.0275528
0.0284375
0.0277541
0.029388
0.0288755
0.0272404
0.027191
0.0290591
0.0303866
0.000945261
0.00212323
0.00355461
0.005596
0.00881314
0.0133281
0.0185137
0.0234862
0.0279092
0.0316383
0.0345925
0.0368081
0.0384135
0.0395639
0.0403622
0.0409099
0.0412766
0.0415172
0.04166
0.0417234
0.0417358
0.0417128
0.0416621
0.0415889
0.0414993
0.0413969
0.0412852
0.0411674
0.0410437
0.0409143
0.0407819
0.040648
0.0405137
0.04038
0.0402452
0.0401102
0.0399761
0.0398434
0.0397127
0.0395836
0.0394555
0.0393289
0.039204
0.0390812
0.0389608
0.0388424
0.0387254
0.0386102
0.0384969
0.0383856
0.0382766
0.0381695
0.0380639
0.0379602
0.037858
0.0377579
0.0376595
0.0375631
0.0374679
0.0373744
0.0372821
0.0371916
0.0371023
0.037015
0.0369288
0.0368444
0.0367609
0.0366794
0.0365988
0.0365203
0.0364427
0.036367
0.0362922
0.0362194
0.0361475
0.0360776
0.0360088
0.0359421
0.0358766
0.0358131
0.0357511
0.0356914
0.0356332
0.0355784
0.0355245
0.0354737
0.035423
0.0353807
0.0353375
0.0353014
0.0352605
0.0352323
0.0352014
0.0351831
0.0351627
0.0351539
0.0350989
0.0351984
0.0346142
0.032712
0.0346084
0.0359231
0.0363863
0.0360193
0.0352953
0.0345974
0.0337738
0.0332356
0.0324788
0.0323554
0.0317113
0.0312426
0.0309228
0.0303256
0.0300145
0.0300319
0.0301421
0.0297507
0.0298247
0.0294057
0.0293541
0.0291451
0.0291288
0.0291497
0.0285429
0.0285252
0.0282207
0.0286252
0.0286506
0.0286492
0.0285925
0.0285357
0.028494
0.0284283
0.0285381
0.0278948
0.0279574
0.0281972
0.0282825
0.028579
0.0284148
0.0286969
0.0285356
0.0282303
0.0278342
0.0280533
0.0286228
0.0285833
0.028722
0.0286395
0.0286735
0.0285038
0.028248
0.0286195
0.0289115
0.0288335
0.028444
0.028655
0.0291657
0.0291937
0.0287912
0.0287567
0.0287015
0.028538
0.02849
0.0287962
0.0293095
0.02917
0.0292646
0.0290913
0.0288613
0.0288789
0.0287452
0.0283211
0.0284032
0.0288799
0.0290315
0.0291904
0.0289061
0.0288528
0.0286412
0.028253
0.0283567
0.0286455
0.0289918
0.0287988
0.0285207
0.0279343
0.028237
0.028458
0.0284915
0.0285503
0.0285197
0.0285092
0.0279129
0.0280082
0.0277664
0.028198
0.0282209
0.0285342
0.0286828
0.0282407
0.0282777
0.0281385
0.028583
0.0283163
0.0282124
0.0275931
0.0279704
0.0282579
0.028237
0.028383
0.028316
0.0282908
0.0277329
0.0279831
0.0275259
0.028164
0.028322
0.0287637
0.0284545
0.0281123
0.0282803
0.0278543
0.0282514
0.0279155
0.028293
0.0277904
0.0276107
0.0276656
0.0277744
0.027851
0.0277246
0.0281643
0.0279581
0.0282582
0.0279931
0.0284389
0.0279834
0.0278544
0.0272418
0.0280205
0.0280973
0.0280691
0.0281898
0.0278127
0.0279765
0.0277983
0.0279326
0.0276468
0.0284153
0.0279927
0.0281949
0.0276514
0.0274934
0.0275394
0.0274817
0.0275721
0.0274341
0.0278335
0.0274819
0.0275433
0.0274391
0.0279416
0.0278356
0.0284483
0.0280638
0.0278523
0.0271936
0.0275324
0.0271652
0.0278145
0.027726
0.0277004
0.0277843
0.027624
0.0273647
0.0273497
0.0277886
0.0274921
0.0274963
0.0270673
0.0275956
0.0274893
0.0274561
0.0278523
0.0278891
0.0275858
0.0278016
0.0274872
0.027871
0.0274551
0.0281484
0.0275697
0.0289794
0.0287179
0.0267182
0.0262272
0.0273393
0.0287206
0.000496869
0.000983905
0.00159441
0.00241849
0.00373159
0.00589048
0.00914961
0.0131641
0.0173652
0.0213351
0.0249341
0.028064
0.0306657
0.0327748
0.0343983
0.03564
0.0365818
0.0372994
0.0378399
0.0382363
0.0385286
0.038743
0.0388958
0.0389974
0.0390584
0.0390895
0.0390974
0.0390869
0.0390602
0.0390207
0.038971
0.0389129
0.0388482
0.0387781
0.0387021
0.038622
0.038539
0.0384541
0.0383678
0.03828
0.0381905
0.0381003
0.0380097
0.0379193
0.0378294
0.0377396
0.0376496
0.03756
0.0374711
0.037383
0.037296
0.0372097
0.0371239
0.0370391
0.036955
0.0368722
0.0367903
0.0367097
0.0366296
0.0365506
0.0364722
0.036395
0.0363187
0.0362437
0.0361694
0.0360962
0.0360237
0.0359525
0.0358821
0.035813
0.0357448
0.0356778
0.0356116
0.0355466
0.0354825
0.0354198
0.0353581
0.0352978
0.0352384
0.0351805
0.0351236
0.0350685
0.0350145
0.0349629
0.0349119
0.0348636
0.0348132
0.0347701
0.0347272
0.0346887
0.0346428
0.0346086
0.0345682
0.0345379
0.0344998
0.0344676
0.0343874
0.0344129
0.0338275
0.0322032
0.0335224
0.0347814
0.0356009
0.0357544
0.035452
0.0349242
0.0342652
0.0337355
0.0330395
0.0328393
0.0322397
0.0317575
0.0313882
0.0307972
0.0304353
0.0303776
0.0304233
0.0300692
0.0300623
0.0297123
0.0296027
0.0294004
0.029346
0.029322
0.0287456
0.028647
0.0283541
0.0286323
0.028681
0.0286952
0.0286527
0.0285971
0.0285403
0.0284589
0.0285166
0.0279673
0.0279211
0.0280843
0.0281693
0.0284497
0.0283287
0.0285432
0.0284267
0.0281209
0.0277171
0.0278266
0.0283097
0.0283381
0.0284932
0.028455
0.028466
0.028272
0.0280098
0.0282808
0.0285316
0.0284912
0.0281804
0.0283348
0.0287858
0.0288739
0.0285483
0.028488
0.0284026
0.0282421
0.0281532
0.02841
0.0289106
0.0289074
0.0290385
0.0289267
0.0287001
0.0286743
0.028513
0.0280922
0.0280964
0.0285181
0.0287034
0.0288745
0.0286818
0.0286384
0.0284456
0.0281043
0.0281332
0.0283908
0.0287151
0.0286128
0.0283724
0.0278637
0.028024
0.0282017
0.0282503
0.0283111
0.0282996
0.0282616
0.0277449
0.0277309
0.0274814
0.027856
0.0279081
0.0282585
0.0284496
0.0281055
0.0281114
0.027997
0.0283135
0.0281221
0.0280032
0.0274811
0.0277042
0.0279467
0.0279567
0.0280956
0.0280473
0.0279808
0.0275083
0.0276307
0.0272643
0.0277989
0.0280255
0.0284214
0.0282825
0.0280419
0.0281756
0.0278113
0.0280681
0.0278408
0.0280784
0.0277198
0.0275327
0.0275379
0.0276202
0.0276754
0.0275799
0.0279634
0.0278066
0.0280154
0.0278511
0.0281479
0.027833
0.0276833
0.0271738
0.0277393
0.0278654
0.0279154
0.028035
0.0277037
0.0278155
0.0276766
0.0277624
0.0275573
0.0281132
0.0278964
0.0280422
0.0276685
0.0275254
0.0275283
0.0274651
0.0275105
0.0273774
0.0276937
0.0274053
0.0274081
0.0272965
0.0277053
0.0277119
0.0281786
0.0279639
0.0277699
0.0272579
0.027422
0.0271793
0.0276425
0.0276569
0.0276927
0.0277693
0.0276249
0.0273662
0.0273078
0.0276612
0.0274132
0.0273669
0.0270043
0.0273901
0.0273679
0.0273748
0.0277417
0.0278537
0.0275865
0.0277245
0.0274719
0.0277496
0.0274153
0.0279234
0.0274694
0.028631
0.0285392
0.0264189
0.0257495
0.0263058
0.0274899
0.00034182
0.000534352
0.000789554
0.00112399
0.0016322
0.00248551
0.00393219
0.0061872
0.00918272
0.012617
0.0161043
0.0193696
0.0223779
0.0250852
0.0274198
0.0293893
0.0310051
0.0323057
0.0333507
0.0341797
0.0348379
0.0353613
0.0357784
0.0361079
0.0363652
0.0365667
0.0367243
0.0368458
0.0369354
0.0369988
0.0370423
0.0370687
0.0370816
0.037082
0.0370724
0.0370541
0.0370285
0.0369969
0.03696
0.0369182
0.0368719
0.0368224
0.03677
0.0367156
0.0366595
0.0366013
0.0365412
0.0364801
0.0364182
0.0363557
0.036293
0.0362297
0.0361657
0.0361017
0.0360376
0.0359737
0.0359101
0.0358467
0.0357832
0.03572
0.0356569
0.0355943
0.0355321
0.0354705
0.0354091
0.0353482
0.0352877
0.0352278
0.0351685
0.0351099
0.0350519
0.0349945
0.0349376
0.0348815
0.034826
0.0347714
0.0347175
0.0346644
0.0346121
0.0345606
0.0345099
0.0344603
0.0344115
0.0343643
0.0343174
0.0342725
0.0342251
0.0341822
0.034141
0.0341022
0.0340549
0.0340176
0.0339718
0.0339335
0.0338841
0.0338354
0.0337409
0.0337106
0.0331404
0.0317532
0.0326858
0.033764
0.0346636
0.0351651
0.0352238
0.0349446
0.034485
0.0340072
0.033404
0.0331549
0.0326136
0.0321466
0.0317602
0.0311844
0.0308032
0.0306867
0.0306712
0.0303371
0.0302742
0.0299677
0.0298267
0.0296281
0.0295455
0.0294851
0.0289341
0.0287871
0.0285045
0.0286841
0.0287256
0.0287409
0.028708
0.0286537
0.0285905
0.0284995
0.0285196
0.028037
0.0279319
0.0280285
0.0280941
0.0283495
0.0282537
0.0284119
0.0283272
0.0280382
0.0276493
0.0276805
0.0280779
0.0281325
0.0282892
0.0282851
0.0282873
0.0280877
0.027827
0.0280199
0.0282237
0.0281974
0.0279454
0.0280621
0.028451
0.0285673
0.028316
0.0282521
0.0281521
0.0279971
0.0278865
0.0280874
0.0285531
0.0286315
0.028783
0.0287281
0.0285293
0.0284835
0.0283122
0.0279073
0.0278575
0.0282083
0.0284012
0.0285729
0.0284503
0.0284233
0.0282587
0.0279614
0.0279481
0.0281665
0.0284567
0.028413
0.0282163
0.0277814
0.0278557
0.0279866
0.0280331
0.0280921
0.028092
0.0280446
0.0275911
0.0275175
0.0272748
0.0275732
0.0276342
0.0279844
0.0281988
0.0279387
0.0279425
0.0278507
0.0280741
0.0279344
0.0278096
0.0273845
0.0275017
0.0276917
0.0277109
0.0278407
0.0278051
0.027718
0.0273109
0.0273559
0.0270597
0.0274946
0.0277474
0.0280985
0.0280697
0.0279215
0.028044
0.0277382
0.0279127
0.0277467
0.0278969
0.0276317
0.027462
0.027439
0.027496
0.0275324
0.0274552
0.0277883
0.0276641
0.0278151
0.0277067
0.0279086
0.0276822
0.0275397
0.0271308
0.0275284
0.0276575
0.0277515
0.0278762
0.0275909
0.0276734
0.027561
0.0276182
0.0274663
0.0278807
0.0277723
0.027896
0.0276397
0.0275327
0.0275172
0.0274505
0.0274663
0.0273371
0.0275874
0.0273393
0.0273106
0.0271993
0.0275242
0.0275827
0.0279498
0.0278387
0.027679
0.02729
0.0273548
0.0271883
0.0275198
0.0275754
0.0276539
0.0277338
0.0276082
0.0273674
0.027289
0.0275705
0.0273498
0.027276
0.0269716
0.027244
0.0272584
0.0272931
0.0276301
0.0277833
0.0275592
0.0276481
0.0274522
0.0276477
0.0273941
0.0277528
0.0274203
0.0283266
0.0283225
0.0262418
0.0255087
0.0257023
0.0266326
0.000285607
0.000365888
0.000469264
0.000604524
0.000799959
0.00111715
0.00166665
0.00261186
0.0041113
0.00626657
0.00895158
0.0118791
0.014834
0.0175884
0.0201645
0.0225384
0.0246524
0.0264935
0.0280843
0.029407
0.0305044
0.0314144
0.0321684
0.0327903
0.0333014
0.0337232
0.0340719
0.0343607
0.0345982
0.034792
0.0349511
0.0350809
0.0351871
0.0352718
0.0353373
0.035388
0.035426
0.0354532
0.0354706
0.0354798
0.0354816
0.0354772
0.0354672
0.0354525
0.0354335
0.0354102
0.0353834
0.0353538
0.0353215
0.0352873
0.0352512
0.0352131
0.0351732
0.0351321
0.0350898
0.0350468
0.0350031
0.0349585
0.0349131
0.0348672
0.0348208
0.0347742
0.0347274
0.0346804
0.034633
0.0345856
0.0345381
0.0344907
0.0344434
0.0343963
0.0343493
0.0343025
0.0342558
0.0342094
0.0341633
0.0341177
0.0340724
0.0340274
0.0339829
0.0339387
0.0338949
0.0338519
0.0338091
0.0337674
0.0337255
0.0336851
0.0336424
0.0336011
0.0335623
0.033525
0.0334788
0.0334406
0.0333922
0.033349
0.0332923
0.0332321
0.0331306
0.0330572
0.0325098
0.0313214
0.0320094
0.0328969
0.0337421
0.0344048
0.0347186
0.0346995
0.034451
0.0340807
0.033585
0.0333157
0.0328376
0.0324043
0.0320251
0.0314763
0.0310982
0.0309427
0.0308753
0.0305526
0.0304507
0.030171
0.0300135
0.0298169
0.0297126
0.0296242
0.0290963
0.0289215
0.0286498
0.0287545
0.0287759
0.028782
0.0287525
0.0286981
0.0286326
0.0285358
0.0285288
0.0280947
0.027959
0.0280035
0.0280427
0.0282682
0.0281835
0.0282974
0.0282318
0.0279641
0.0275995
0.0275798
0.0279022
0.0279598
0.0281066
0.0281239
0.0281232
0.0279276
0.0276732
0.0278079
0.0279677
0.027942
0.0277316
0.0278228
0.028156
0.0282799
0.0280886
0.0280315
0.0279285
0.0277814
0.0276626
0.0278122
0.0282327
0.0283544
0.0285119
0.0285026
0.0283413
0.0282903
0.0281198
0.0277385
0.0276559
0.027939
0.0281256
0.02829
0.0282159
0.0282045
0.0280699
0.027812
0.0277786
0.0279609
0.0282146
0.0282053
0.0280476
0.0276782
0.0277035
0.027794
0.0278305
0.0278852
0.0278911
0.027842
0.0274394
0.0273352
0.0271091
0.0273358
0.027395
0.0277229
0.0279438
0.0277496
0.0277632
0.0276931
0.0278534
0.0277466
0.0276229
0.02728
0.0273318
0.0274744
0.0274901
0.0276086
0.02758
0.0274844
0.0271272
0.0271271
0.0268864
0.0272361
0.0274886
0.027801
0.0278387
0.0277636
0.027887
0.0276347
0.0277618
0.0276344
0.0277313
0.0275267
0.0273819
0.0273467
0.0273831
0.0274044
0.0273377
0.0276278
0.0275255
0.0276386
0.0275607
0.0277014
0.0275285
0.0274027
0.0270852
0.0273619
0.0274742
0.0275855
0.0277129
0.0274681
0.0275355
0.0274432
0.027485
0.02737
0.0276886
0.0276367
0.0277498
0.0275754
0.0275076
0.0274902
0.0274239
0.0274219
0.0272966
0.0274949
0.0272739
0.0272291
0.0271236
0.0273796
0.0274557
0.0277536
0.0277016
0.0275766
0.0272842
0.0273009
0.027182
0.0274262
0.0274916
0.0275927
0.0276773
0.0275686
0.0273566
0.027272
0.027496
0.0272916
0.0272027
0.0269477
0.0271344
0.0271598
0.0272115
0.0275192
0.0276913
0.0275097
0.0275704
0.0274186
0.0275561
0.0273663
0.0276212
0.0273926
0.0280629
0.0280943
0.0261219
0.0253838
0.0253542
0.0260488
0.000263423
0.000299149
0.000345476
0.00040044
0.000476536
0.000593312
0.00078933
0.00113481
0.00173123
0.0027079
0.00418144
0.00616559
0.00855404
0.0110673
0.0136065
0.0160033
0.0182437
0.0203375
0.0222626
0.0239827
0.0255048
0.0268329
0.0279651
0.02893
0.0297515
0.0304476
0.0310371
0.0315382
0.0319638
0.0323237
0.0326291
0.032889
0.033111
0.0333001
0.0334589
0.0335938
0.0337081
0.0338052
0.0338866
0.0339539
0.0340091
0.0340545
0.0340907
0.0341195
0.0341408
0.0341562
0.034166
0.0341709
0.0341713
0.0341679
0.0341608
0.0341503
0.0341368
0.0341207
0.0341024
0.0340821
0.03406
0.0340361
0.0340104
0.0339834
0.0339551
0.0339259
0.0338957
0.0338647
0.0338326
0.0337998
0.0337664
0.0337325
0.0336982
0.0336637
0.0336287
0.0335933
0.0335577
0.033522
0.0334862
0.0334503
0.0334145
0.0333784
0.0333424
0.0333064
0.0332704
0.0332347
0.0331988
0.0331635
0.0331276
0.0330925
0.0330554
0.0330177
0.0329815
0.0329469
0.0329039
0.0328664
0.0328175
0.0327717
0.0327108
0.0326429
0.0325392
0.0324315
0.0319108
0.0308894
0.0314274
0.0321551
0.0328999
0.0335965
0.0340526
0.0342454
0.0341976
0.0339717
0.0336005
0.0333364
0.0329239
0.0325351
0.0321797
0.0316703
0.031311
0.0311346
0.0310273
0.0307135
0.0305849
0.0303227
0.0301569
0.0299624
0.0298409
0.0297314
0.0292253
0.0290361
0.0287763
0.0288255
0.0288233
0.0288147
0.0287832
0.028727
0.0286604
0.0285599
0.0285328
0.0281358
0.0279859
0.0279919
0.0280046
0.0281982
0.0281152
0.0281939
0.0281378
0.0278901
0.0275529
0.0275026
0.0277635
0.027812
0.0279414
0.027969
0.0279668
0.0277796
0.0275344
0.0276268
0.0277482
0.027716
0.0275341
0.0276071
0.0278938
0.0280137
0.0278664
0.0278191
0.0277198
0.0275821
0.0274635
0.0275714
0.0279441
0.0280834
0.0282371
0.0282599
0.0281359
0.0280886
0.0279259
0.0275724
0.0274732
0.0276993
0.0278719
0.028025
0.0279828
0.0279837
0.0278762
0.0276527
0.0276124
0.0277649
0.0279844
0.0279933
0.0278671
0.0275539
0.0275527
0.0276119
0.0276361
0.0276851
0.0276931
0.0276455
0.0272851
0.0271673
0.0269628
0.0271304
0.0271832
0.027477
0.0276924
0.0275472
0.0275737
0.0275239
0.0276427
0.0275569
0.0274378
0.0271608
0.0271767
0.0272811
0.0272875
0.0273927
0.0273666
0.0272683
0.0269506
0.0269253
0.0267299
0.0270108
0.0272483
0.0275257
0.0276019
0.0275803
0.0277094
0.0275047
0.0276055
0.0275054
0.0275698
0.0274064
0.0272864
0.0272494
0.0272709
0.027281
0.0272206
0.0274741
0.027387
0.0274739
0.0274127
0.0275124
0.0273724
0.0272645