/*--------------------------------*- C++ -*----------------------------------*\
| =========                 |                                                 |
| \\      /  F ield         | foam-extend: Open Source CFD                    |
|  \\    /   O peration     | Version:     3.2                                |
|   \\  /    A nd           | Web:         http://www.foam-extend.org         |
|    \\/     M anipulation  | For copyright notice see file Copyright         |
\*---------------------------------------------------------------------------*/
FoamFile
{
    version     2.0;
    format      ascii;
    class       areaScalarField;
    location    "160";
    object      kTempA;
}
// * * * * * * * * * * * * * * * * * * * * * * * * * * * * * * * * * * * * * //

dimensions      [0 2 -2 0 0 0 0];

internalField   nonuniform List<scalar> 
300
(
0.178319
0.142008
0.0985161
0.0808966
0.0742543
0.070771
0.0682485
0.0660411
0.064009
0.0621651
0.0605192
0.0590479
0.0577168
0.0565291
0.0554604
0.0544888
0.0536003
0.0527801
0.052029
0.051344
0.0507081
0.0501105
0.0495495
0.0490226
0.0485286
0.0480608
0.0476189
0.0471986
0.0468006
0.0464232
0.0460631
0.0457199
0.0453907
0.0450765
0.0447755
0.0444878
0.0442104
0.0439442
0.0436874
0.0434401
0.0432024
0.0429724
0.0427508
0.0425359
0.0423281
0.0421271
0.0419325
0.0417443
0.0415607
0.0413836
0.0412102
0.041043
0.0408797
0.0407218
0.0405672
0.0404175
0.0402708
0.0401289
0.0399879
0.0398526
0.0397184
0.0395904
0.0394629
0.0393417
0.0392206
0.0391062
0.038991
0.0388832
0.0387739
0.0386727
0.0385697
0.0384754
0.038379
0.0382922
0.0382028
0.0381244
0.0380434
0.0379746
0.0379038
0.0378469
0.0377887
0.0377465
0.0377055
0.0376818
0.037666
0.0376649
0.0376783
0.0377147
0.0377745
0.0378608
0.0379934
0.038155
0.0384094
0.0386923
0.0391819
0.0397061
0.0408383
0.0413367
0.0474337
0.0439284
0.0226939
0.022124
0.0234
0.0234395
0.0243604
0.0242735
0.0251043
0.0251217
0.0258548
0.0251644
0.0268289
0.0269979
0.0271192
0.0282906
0.0265439
0.0256125
0.0256739
0.0276397
0.025948
0.0281392
0.0268874
0.0277924
0.0274355
0.0280143
0.0312545
0.0272552
0.0280666
0.0252304
0.0269219
0.027152
0.0275188
0.0280951
0.0282878
0.0290016
0.0286457
0.032354
0.0273487
0.0263124
0.0274041
0.0267423
0.0297297
0.0284491
0.0302762
0.0317476
0.031127
0.0287617
0.0268805
0.0295235
0.0295378
0.0305464
0.0311221
0.0322926
0.0319627
0.0284882
0.0290248
0.0307333
0.0312574
0.0283633
0.027321
0.0296878
0.0318356
0.0309921
0.0317601
0.0315702
0.0295462
0.0280113
0.0261192
0.0285153
0.0285293
0.0296609
0.030856
0.0304203
0.0314314
0.0321276
0.0292953
0.0272523
0.0277922
0.0278796
0.0295021
0.0294227
0.0303764
0.0307639
0.0279716
0.0271591
0.027179
0.0293922
0.0300169
0.0314418
0.0273375
0.0276301
0.0286175
0.0286815
0.0299555
0.0300322
0.0333345
0.0291762
0.0292524
0.0268867
0.0268581
0.025806
0.026469
0.0305283
0.0277031
0.0297657
0.0277912
0.0307967
0.0309559
0.0312075
0.0276385
0.0275272
0.0295222
0.0289642
0.0308202
0.0307315
0.0327815
0.028139
0.029966
0.0255151
0.0259084
0.0255153
0.0278783
0.0280027
0.02572
0.0300671
0.0251297
0.0302266
0.0275814
0.0311629
0.0292097
0.0281473
0.0279569
0.0281276
0.0288643
0.0260035
0.0299119
0.0268963
0.030451
0.0274786
0.0313013
0.029394
0.0296565
0.0253012
0.0277361
0.027748
0.027221
0.0304542
0.0274791
0.0292614
0.0263884
0.0284035
0.0226358
0.028902
0.0262726
0.0294559
0.027296
0.0271635
0.0282576
0.0278202
0.0291868
0.0264408
0.0310255
0.0275807
0.027394
0.0254834
0.0278717
0.0249336
0.0288856
0.0287608
0.0292864
0.0257881
0.0273422
0.0242608
0.0268292
0.0261271
0.0264841
0.0291204
0.0295073
0.0281154
0.0260262
0.0304517
0.0278825
0.0289706
0.0250949
0.026743
0.0254076
0.0230987
0.0260883
0.0275266
0.0265455
0.0284109
0.0272879
0.0298933
0.0280262
0.0325869
0.0291395
0.0401889
0.0565232
0.0441414
0.03249
0.0296182
)
;

boundaryField
{
    inlet
    {
        type            calculated;
        value           uniform 0;
    }
    outlet
    {
        type            calculated;
        value           uniform 0;
    }
    sideWall
    {
        type            empty;
    }
}


// ************************************************************************* //
