/*--------------------------------*- C++ -*----------------------------------*\
| =========                 |                                                 |
| \\      /  F ield         | foam-extend: Open Source CFD                    |
|  \\    /   O peration     | Version:     3.2                                |
|   \\  /    A nd           | Web:         http://www.foam-extend.org         |
|    \\/     M anipulation  | For copyright notice see file Copyright         |
\*---------------------------------------------------------------------------*/
FoamFile
{
    version     2.0;
    format      ascii;
    class       volVectorField;
    location    "160";
    object      meshCentreN;
}
// * * * * * * * * * * * * * * * * * * * * * * * * * * * * * * * * * * * * * //

dimensions      [0 1 0 0 0 0 0];

internalField   nonuniform List<vector> 
96000
(
(0.025 0.01 0.00140625)
(0.075 0.01 0.00140625)
(0.125 0.01 0.00140625)
(0.175 0.01 0.00140625)
(0.225 0.01 0.00140625)
(0.275 0.01 0.00140625)
(0.325 0.01 0.00140625)
(0.375 0.01 0.00140625)
(0.425 0.01 0.00140625)
(0.475 0.01 0.00140625)
(0.525 0.01 0.00140625)
(0.575 0.01 0.00140625)
(0.625 0.01 0.00140625)
(0.675 0.01 0.00140625)
(0.725 0.01 0.00140625)
(0.775 0.01 0.00140625)
(0.825 0.01 0.00140625)
(0.875 0.01 0.00140625)
(0.925 0.01 0.00140625)
(0.975 0.01 0.00140625)
(1.025 0.01 0.00140625)
(1.075 0.01 0.00140625)
(1.125 0.01 0.00140625)
(1.175 0.01 0.00140625)
(1.225 0.01 0.00140625)
(1.275 0.01 0.00140625)
(1.325 0.01 0.00140625)
(1.375 0.01 0.00140625)
(1.425 0.01 0.00140625)
(1.475 0.01 0.00140625)
(1.525 0.01 0.00140625)
(1.575 0.01 0.00140625)
(1.625 0.01 0.00140625)
(1.675 0.01 0.00140625)
(1.725 0.01 0.00140625)
(1.775 0.01 0.00140625)
(1.825 0.01 0.00140625)
(1.875 0.01 0.00140625)
(1.925 0.01 0.00140625)
(1.975 0.01 0.00140625)
(2.025 0.01 0.00140625)
(2.075 0.01 0.00140625)
(2.125 0.01 0.00140625)
(2.175 0.01 0.00140625)
(2.225 0.01 0.00140625)
(2.275 0.01 0.00140625)
(2.325 0.01 0.00140625)
(2.375 0.01 0.00140625)
(2.425 0.01 0.00140625)
(2.475 0.01 0.00140625)
(2.525 0.01 0.00140625)
(2.575 0.01 0.00140625)
(2.625 0.01 0.00140625)
(2.675 0.01 0.00140625)
(2.725 0.01 0.00140625)
(2.775 0.01 0.00140625)
(2.825 0.01 0.00140625)
(2.875 0.01 0.00140625)
(2.925 0.01 0.00140625)
(2.975 0.01 0.00140625)
(3.025 0.01 0.00140625)
(3.075 0.01 0.00140625)
(3.125 0.01 0.00140625)
(3.175 0.01 0.00140625)
(3.225 0.01 0.00140625)
(3.275 0.01 0.00140625)
(3.325 0.01 0.00140625)
(3.375 0.01 0.00140625)
(3.425 0.01 0.00140625)
(3.475 0.01 0.00140625)
(3.525 0.01 0.00140625)
(3.575 0.01 0.00140625)
(3.625 0.01 0.00140625)
(3.675 0.01 0.00140625)
(3.725 0.01 0.00140625)
(3.775 0.01 0.00140625)
(3.825 0.01 0.00140625)
(3.875 0.01 0.00140625)
(3.925 0.01 0.00140625)
(3.975 0.01 0.00140625)
(4.025 0.01 0.00140625)
(4.075 0.01 0.00140625)
(4.125 0.01 0.00140625)
(4.175 0.01 0.00140625)
(4.225 0.01 0.00140625)
(4.275 0.01 0.00140625)
(4.325 0.01 0.00140625)
(4.375 0.01 0.00140625)
(4.425 0.01 0.00140625)
(4.475 0.01 0.00140625)
(4.525 0.01 0.00140625)
(4.575 0.01 0.00140625)
(4.625 0.01 0.00140625)
(4.675 0.01 0.00140625)
(4.725 0.01 0.00140625)
(4.775 0.01 0.00140625)
(4.825 0.01 0.00140623)
(4.875 0.01 0.00140643)
(4.92498 0.01 0.00140369)
(4.97503 0.01 -0.000833791)
(5.02502 0.01 -0.00621611)
(5.07497 0.01 -0.0112052)
(5.125 0.01 -0.0148353)
(5.17499 0.01 -0.0180465)
(5.225 0.01 -0.0207865)
(5.275 0.01 -0.0232451)
(5.325 0.01 -0.0253701)
(5.375 0.01 -0.0272638)
(5.425 0.01 -0.0289764)
(5.475 0.01 -0.0305403)
(5.52499 0.01 -0.0317049)
(5.575 0.01 -0.0327069)
(5.62499 0.01 -0.0336511)
(5.675 0.01 -0.034502)
(5.725 0.01 -0.0357819)
(5.775 0.01 -0.037206)
(5.825 0.01 -0.0382626)
(5.875 0.01 -0.0389888)
(5.92501 0.01 -0.0397072)
(5.97499 0.01 -0.040093)
(6.02501 0.01 -0.0405237)
(6.07499 0.01 -0.0409009)
(6.12501 0.01 -0.0411646)
(6.17499 0.01 -0.0411145)
(6.225 0.01 -0.0408663)
(6.27501 0.01 -0.0415138)
(6.32499 0.01 -0.0422977)
(6.37501 0.01 -0.0431027)
(6.42499 0.01 -0.0434964)
(6.47501 0.01 -0.0436103)
(6.52499 0.01 -0.0435667)
(6.57501 0.01 -0.0433381)
(6.62499 0.01 -0.04312)
(6.67501 0.01 -0.0428482)
(6.72499 0.01 -0.0425025)
(6.77499 0.01 -0.0419543)
(6.82502 0.01 -0.042379)
(6.87499 0.01 -0.0428544)
(6.92501 0.01 -0.0428489)
(6.975 0.01 -0.0426913)
(7.025 0.01 -0.0420298)
(7.07501 0.01 -0.0414909)
(7.12499 0.01 -0.0407641)
(7.175 0.01 -0.0398677)
(7.225 0.01 -0.0394707)
(7.27501 0.01 -0.0396845)
(7.325 0.01 -0.0399075)
(7.37499 0.01 -0.0394597)
(7.42501 0.01 -0.0388758)
(7.475 0.01 -0.0382346)
(7.525 0.01 -0.0374417)
(7.57499 0.01 -0.0366584)
(7.62501 0.01 -0.0363731)
(7.675 0.01 -0.0367581)
(7.725 0.01 -0.0368394)
(7.775 0.01 -0.0364983)
(7.825 0.01 -0.0363635)
(7.87501 0.01 -0.0367298)
(7.925 0.01 -0.0369965)
(7.975 0.01 -0.0364896)
(8.025 0.01 -0.0356324)
(8.07501 0.01 -0.0351578)
(8.12499 0.01 -0.0348956)
(8.17501 0.01 -0.0349444)
(8.225 0.01 -0.0354186)
(8.27501 0.01 -0.0361931)
(8.325 0.01 -0.0369844)
(8.37499 0.01 -0.0370479)
(8.42501 0.01 -0.0368153)
(8.47499 0.01 -0.0363884)
(8.525 0.01 -0.0358269)
(8.575 0.01 -0.0354513)
(8.625 0.01 -0.0349568)
(8.675 0.01 -0.0346385)
(8.72501 0.01 -0.0351617)
(8.775 0.01 -0.0361668)
(8.825 0.01 -0.0367709)
(8.875 0.01 -0.0368956)
(8.925 0.01 -0.036679)
(8.975 0.01 -0.0364039)
(9.02499 0.01 -0.0360841)
(9.075 0.01 -0.0360446)
(9.125 0.01 -0.0366183)
(9.175 0.01 -0.0372502)
(9.225 0.01 -0.0374698)
(9.275 0.01 -0.0371927)
(9.325 0.01 -0.0367622)
(9.375 0.01 -0.0365405)
(9.42501 0.01 -0.0369607)
(9.47499 0.01 -0.0372218)
(9.52501 0.01 -0.0370665)
(9.57499 0.01 -0.036848)
(9.62501 0.01 -0.0364702)
(9.675 0.01 -0.0359459)
(9.72499 0.01 -0.0353213)
(9.77501 0.01 -0.035589)
(9.82499 0.01 -0.0362502)
(9.87501 0.01 -0.0371067)
(9.92499 0.01 -0.0378595)
(9.97502 0.01 -0.0384086)
(10.025 0.01 -0.038316)
(10.075 0.01 -0.0374477)
(10.125 0.01 -0.0371046)
(10.175 0.01 -0.0367697)
(10.225 0.01 -0.0364427)
(10.275 0.01 -0.0358107)
(10.325 0.01 -0.0352657)
(10.375 0.01 -0.0352094)
(10.425 0.01 -0.0356184)
(10.475 0.01 -0.0357578)
(10.525 0.01 -0.0353381)
(10.575 0.01 -0.0350196)
(10.625 0.01 -0.0345135)
(10.675 0.01 -0.0340968)
(10.725 0.01 -0.033893)
(10.775 0.01 -0.0343826)
(10.825 0.01 -0.0350916)
(10.875 0.01 -0.0362374)
(10.925 0.01 -0.0371158)
(10.975 0.01 -0.0374472)
(11.025 0.01 -0.0373492)
(11.075 0.01 -0.0373725)
(11.125 0.01 -0.037545)
(11.175 0.01 -0.0369853)
(11.225 0.01 -0.0368723)
(11.275 0.01 -0.0363735)
(11.325 0.01 -0.0359146)
(11.375 0.01 -0.0353611)
(11.425 0.01 -0.0351911)
(11.475 0.01 -0.0353943)
(11.525 0.01 -0.0354535)
(11.575 0.01 -0.0353553)
(11.625 0.01 -0.0353031)
(11.675 0.01 -0.035582)
(11.725 0.01 -0.0351664)
(11.775 0.01 -0.0349543)
(11.825 0.01 -0.0346071)
(11.875 0.01 -0.0343314)
(11.925 0.01 -0.0338595)
(11.975 0.01 -0.0337142)
(12.025 0.01 -0.0341669)
(12.075 0.01 -0.0349124)
(12.125 0.01 -0.0350491)
(12.175 0.01 -0.0349368)
(12.225 0.01 -0.0347735)
(12.275 0.01 -0.0341894)
(12.325 0.01 -0.0343781)
(12.375 0.01 -0.0345613)
(12.425 0.01 -0.0349956)
(12.475 0.01 -0.0355496)
(12.525 0.01 -0.0362088)
(12.575 0.01 -0.0359326)
(12.625 0.01 -0.0355807)
(12.675 0.01 -0.0351984)
(12.725 0.01 -0.035048)
(12.775 0.01 -0.034951)
(12.825 0.01 -0.0345343)
(12.875 0.01 -0.0342262)
(12.925 0.01 -0.0339259)
(12.975 0.01 -0.0339829)
(13.025 0.01 -0.0334274)
(13.075 0.01 -0.0335941)
(13.125 0.01 -0.0341904)
(13.175 0.01 -0.0346944)
(13.225 0.01 -0.0349088)
(13.275 0.01 -0.0350153)
(13.325 0.01 -0.0345621)
(13.375 0.01 -0.0341052)
(13.425 0.01 -0.0342273)
(13.475 0.01 -0.0346991)
(13.525 0.01 -0.0350966)
(13.575 0.01 -0.0354372)
(13.625 0.01 -0.0353052)
(13.675 0.01 -0.0349863)
(13.725 0.01 -0.0344671)
(13.775 0.01 -0.0333323)
(13.825 0.01 -0.0325801)
(13.875 0.01 -0.0324238)
(13.925 0.01 -0.032359)
(13.975 0.01 -0.031483)
(14.025 0.01 -0.031124)
(14.075 0.01 -0.031204)
(14.125 0.01 -0.0316383)
(14.175 0.01 -0.0317434)
(14.225 0.01 -0.0318735)
(14.275 0.01 -0.0320136)
(14.325 0.01 -0.031106)
(14.375 0.01 -0.029879)
(14.425 0.01 -0.0286278)
(14.475 0.01 -0.0270706)
(14.525 0.01 -0.0252782)
(14.575 0.01 -0.0230638)
(14.625 0.01 -0.0204786)
(14.675 0.01 -0.0171935)
(14.7251 0.01 -0.0132644)
(14.775 0.01 -0.0074625)
(14.825 0.01 -0.00104016)
(14.875 0.01 0.00140356)
(14.925 0.01 0.00140644)
(14.975 0.01 0.00140623)
(0.025 0.01 0.00421875)
(0.075 0.01 0.00421875)
(0.125 0.01 0.00421875)
(0.175 0.01 0.00421875)
(0.225 0.01 0.00421875)
(0.275 0.01 0.00421875)
(0.325 0.01 0.00421875)
(0.375 0.01 0.00421875)
(0.425 0.01 0.00421875)
(0.475 0.01 0.00421875)
(0.525 0.01 0.00421875)
(0.575 0.01 0.00421875)
(0.625 0.01 0.00421875)
(0.675 0.01 0.00421875)
(0.725 0.01 0.00421875)
(0.775 0.01 0.00421875)
(0.825 0.01 0.00421875)
(0.875 0.01 0.00421875)
(0.925 0.01 0.00421875)
(0.975 0.01 0.00421875)
(1.025 0.01 0.00421875)
(1.075 0.01 0.00421875)
(1.125 0.01 0.00421875)
(1.175 0.01 0.00421875)
(1.225 0.01 0.00421875)
(1.275 0.01 0.00421875)
(1.325 0.01 0.00421875)
(1.375 0.01 0.00421875)
(1.425 0.01 0.00421875)
(1.475 0.01 0.00421875)
(1.525 0.01 0.00421875)
(1.575 0.01 0.00421875)
(1.625 0.01 0.00421875)
(1.675 0.01 0.00421875)
(1.725 0.01 0.00421875)
(1.775 0.01 0.00421875)
(1.825 0.01 0.00421875)
(1.875 0.01 0.00421875)
(1.925 0.01 0.00421875)
(1.975 0.01 0.00421875)
(2.025 0.01 0.00421875)
(2.075 0.01 0.00421875)
(2.125 0.01 0.00421875)
(2.175 0.01 0.00421875)
(2.225 0.01 0.00421875)
(2.275 0.01 0.00421875)
(2.325 0.01 0.00421875)
(2.375 0.01 0.00421875)
(2.425 0.01 0.00421875)
(2.475 0.01 0.00421875)
(2.525 0.01 0.00421875)
(2.575 0.01 0.00421875)
(2.625 0.01 0.00421875)
(2.675 0.01 0.00421875)
(2.725 0.01 0.00421875)
(2.775 0.01 0.00421875)
(2.825 0.01 0.00421875)
(2.875 0.01 0.00421875)
(2.925 0.01 0.00421875)
(2.975 0.01 0.00421875)
(3.025 0.01 0.00421875)
(3.075 0.01 0.00421875)
(3.125 0.01 0.00421875)
(3.175 0.01 0.00421875)
(3.225 0.01 0.00421875)
(3.275 0.01 0.00421875)
(3.325 0.01 0.00421875)
(3.375 0.01 0.00421875)
(3.425 0.01 0.00421875)
(3.475 0.01 0.00421875)
(3.525 0.01 0.00421875)
(3.575 0.01 0.00421875)
(3.625 0.01 0.00421875)
(3.675 0.01 0.00421875)
(3.725 0.01 0.00421875)
(3.775 0.01 0.00421875)
(3.825 0.01 0.00421875)
(3.875 0.01 0.00421875)
(3.925 0.01 0.00421875)
(3.975 0.01 0.00421875)
(4.025 0.01 0.00421875)
(4.075 0.01 0.00421875)
(4.125 0.01 0.00421875)
(4.175 0.01 0.00421875)
(4.225 0.01 0.00421875)
(4.275 0.01 0.00421875)
(4.325 0.01 0.00421875)
(4.375 0.01 0.00421875)
(4.425 0.01 0.00421875)
(4.475 0.01 0.00421875)
(4.525 0.01 0.00421875)
(4.575 0.01 0.00421875)
(4.625 0.01 0.00421874)
(4.675 0.01 0.00421874)
(4.725 0.01 0.00421874)
(4.775 0.01 0.00421873)
(4.825 0.01 0.00421864)
(4.875 0.01 0.00421942)
(4.92496 0.01 0.00420773)
(4.97505 0.01 0.00197286)
(5.02504 0.01 -0.00338692)
(5.07496 0.01 -0.00837365)
(5.12501 0.01 -0.0120152)
(5.17499 0.01 -0.0152264)
(5.225 0.01 -0.017969)
(5.275 0.01 -0.020428)
(5.325 0.01 -0.0225542)
(5.375 0.01 -0.0244487)
(5.425 0.01 -0.0261621)
(5.47501 0.01 -0.027726)
(5.52499 0.01 -0.028893)
(5.57501 0.01 -0.0298966)
(5.62499 0.01 -0.0308409)
(5.675 0.01 -0.0316946)
(5.72501 0.01 -0.0329727)
(5.775 0.01 -0.0343945)
(5.825 0.01 -0.035452)
(5.875 0.01 -0.0361803)
(5.92501 0.01 -0.0368972)
(5.97498 0.01 -0.0372852)
(6.02502 0.01 -0.0377154)
(6.07498 0.01 -0.0380923)
(6.12503 0.01 -0.0383552)
(6.17497 0.01 -0.0383054)
(6.225 0.01 -0.0380632)
(6.27501 0.01 -0.0387063)
(6.32499 0.01 -0.03949)
(6.37502 0.01 -0.0402931)
(6.42497 0.01 -0.0406878)
(6.47502 0.01 -0.0408028)
(6.52498 0.01 -0.0407591)
(6.57502 0.01 -0.0405316)
(6.62498 0.01 -0.0403131)
(6.67502 0.01 -0.0400412)
(6.72499 0.01 -0.0396942)
(6.77499 0.01 -0.0391524)
(6.82503 0.01 -0.039572)
(6.87498 0.01 -0.0400448)
(6.92502 0.01 -0.0400417)
(6.97499 0.01 -0.0398821)
(7.02499 0.01 -0.0392244)
(7.07501 0.01 -0.0386834)
(7.12499 0.01 -0.0379564)
(7.175 0.01 -0.0370634)
(7.225 0.01 -0.0366671)
(7.27501 0.01 -0.0368781)
(7.325 0.01 -0.0370975)
(7.37499 0.01 -0.036653)
(7.42501 0.01 -0.0360691)
(7.47499 0.01 -0.0354272)
(7.52501 0.01 -0.0346347)
(7.57498 0.01 -0.0338541)
(7.62501 0.01 -0.0335702)
(7.67501 0.01 -0.0339502)
(7.72499 0.01 -0.034031)
(7.775 0.01 -0.0336929)
(7.825 0.01 -0.0335593)
(7.87501 0.01 -0.0339225)
(7.925 0.01 -0.0341857)
(7.97499 0.01 -0.0336812)
(8.02499 0.01 -0.0328278)
(8.07501 0.01 -0.032352)
(8.12499 0.01 -0.0320902)
(8.17501 0.01 -0.0321393)
(8.22499 0.01 -0.0326125)
(8.27501 0.01 -0.0333859)
(8.325 0.01 -0.0341735)
(8.37499 0.01 -0.0342401)
(8.42501 0.01 -0.0340077)
(8.47499 0.01 -0.0335809)
(8.52501 0.01 -0.0330208)
(8.575 0.01 -0.0326433)
(8.62499 0.01 -0.0321501)
(8.67499 0.01 -0.0318354)
(8.72501 0.01 -0.0323567)
(8.775 0.01 -0.0333572)
(8.825 0.01 -0.0339613)
(8.875 0.01 -0.0340865)
(8.92499 0.01 -0.0338712)
(8.97501 0.01 -0.033596)
(9.02499 0.01 -0.0332781)
(9.07501 0.01 -0.0332405)
(9.12501 0.01 -0.0338113)
(9.175 0.01 -0.034441)
(9.225 0.01 -0.0346601)
(9.275 0.01 -0.0343846)
(9.325 0.01 -0.0339556)
(9.37499 0.01 -0.0337364)
(9.42502 0.01 -0.0341524)
(9.47498 0.01 -0.0344123)
(9.52501 0.01 -0.034259)
(9.57499 0.01 -0.0340396)
(9.62501 0.01 -0.0336616)
(9.67499 0.01 -0.0331372)
(9.72499 0.01 -0.0325182)
(9.77502 0.01 -0.0327833)
(9.82498 0.01 -0.0334434)
(9.87503 0.01 -0.0342987)
(9.92497 0.01 -0.0350508)
(9.97503 0.01 -0.0355978)
(10.025 0.01 -0.0355039)
(10.075 0.01 -0.0346429)
(10.125 0.01 -0.0342968)
(10.175 0.01 -0.0339623)
(10.225 0.01 -0.0336331)
(10.275 0.01 -0.0330032)
(10.325 0.01 -0.03246)
(10.375 0.01 -0.0324038)
(10.425 0.01 -0.032809)
(10.475 0.01 -0.0329468)
(10.525 0.01 -0.0325308)
(10.575 0.01 -0.0322103)
(10.625 0.01 -0.0317057)
(10.675 0.01 -0.0312892)
(10.725 0.01 -0.031088)
(10.775 0.01 -0.0315749)
(10.825 0.01 -0.0322849)
(10.875 0.01 -0.0334273)
(10.925 0.01 -0.0343043)
(10.975 0.01 -0.0346366)
(11.025 0.01 -0.0345414)
(11.075 0.01 -0.034565)
(11.125 0.01 -0.0347323)
(11.175 0.01 -0.0341796)
(11.225 0.01 -0.0340615)
(11.275 0.01 -0.0335655)
(11.325 0.01 -0.033105)
(11.375 0.01 -0.0325544)
(11.425 0.01 -0.0323844)
(11.475 0.01 -0.032585)
(11.525 0.01 -0.0326442)
(11.575 0.01 -0.0325469)
(11.625 0.01 -0.0324966)
(11.675 0.01 -0.0327695)
(11.725 0.01 -0.0323592)
(11.775 0.01 -0.0321446)
(11.825 0.01 -0.031799)
(11.875 0.01 -0.0315214)
(11.925 0.01 -0.0310526)
(11.975 0.01 -0.0309085)
(12.025 0.01 -0.0313594)
(12.0751 0.01 -0.0321001)
(12.1249 0.01 -0.0322388)
(12.1751 0.01 -0.0321275)
(12.225 0.01 -0.0319618)
(12.275 0.01 -0.0313844)
(12.325 0.01 -0.0315686)
(12.375 0.01 -0.0317534)
(12.425 0.01 -0.0321866)
(12.475 0.01 -0.0327408)
(12.525 0.01 -0.033394)
(12.5749 0.01 -0.033123)
(12.6251 0.01 -0.0327707)
(12.6749 0.01 -0.0323902)
(12.7251 0.01 -0.0322387)
(12.7749 0.01 -0.0321397)
(12.825 0.01 -0.0317252)
(12.875 0.01 -0.0314164)
(12.925 0.01 -0.0311183)
(12.975 0.01 -0.0311695)
(13.025 0.01 -0.0306217)
(13.075 0.01 -0.0307864)
(13.125 0.01 -0.03138)
(13.175 0.01 -0.0318831)
(13.225 0.01 -0.0320987)
(13.275 0.01 -0.0322022)
(13.325 0.01 -0.0317521)
(13.375 0.01 -0.0312981)
(13.425 0.01 -0.031419)
(13.475 0.01 -0.0318889)
(13.525 0.01 -0.0322865)
(13.575 0.01 -0.0326248)
(13.6249 0.01 -0.0324943)
(13.6751 0.01 -0.0321749)
(13.725 0.01 -0.0316533)
(13.775 0.01 -0.0305236)
(13.825 0.01 -0.0297729)
(13.875 0.01 -0.0296141)
(13.925 0.01 -0.0295439)
(13.975 0.01 -0.0286752)
(14.025 0.01 -0.0283152)
(14.075 0.01 -0.0283949)
(14.125 0.01 -0.0288253)
(14.175 0.01 -0.0289321)
(14.225 0.01 -0.0290619)
(14.275 0.01 -0.0291954)
(14.325 0.01 -0.0282915)
(14.375 0.01 -0.0270657)
(14.425 0.01 -0.0258124)
(14.475 0.01 -0.0242557)
(14.525 0.01 -0.0224609)
(14.575 0.01 -0.0202469)
(14.625 0.01 -0.0176569)
(14.675 0.01 -0.0143725)
(14.7251 0.01 -0.0104254)
(14.7749 0.01 -0.00462733)
(14.825 0.01 0.00176687)
(14.875 0.01 0.00420709)
(14.925 0.01 0.00421946)
(14.975 0.01 0.00421865)
(0.025 0.01 0.00703125)
(0.075 0.01 0.00703125)
(0.125 0.01 0.00703125)
(0.175 0.01 0.00703125)
(0.225 0.01 0.00703125)
(0.275 0.01 0.00703125)
(0.325 0.01 0.00703125)
(0.375 0.01 0.00703125)
(0.425 0.01 0.00703125)
(0.475 0.01 0.00703125)
(0.525 0.01 0.00703125)
(0.575 0.01 0.00703125)
(0.625 0.01 0.00703125)
(0.675 0.01 0.00703125)
(0.725 0.01 0.00703125)
(0.775 0.01 0.00703125)
(0.825 0.01 0.00703125)
(0.875 0.01 0.00703125)
(0.925 0.01 0.00703125)
(0.975 0.01 0.00703125)
(1.025 0.01 0.00703125)
(1.075 0.01 0.00703125)
(1.125 0.01 0.00703125)
(1.175 0.01 0.00703125)
(1.225 0.01 0.00703125)
(1.275 0.01 0.00703125)
(1.325 0.01 0.00703125)
(1.375 0.01 0.00703125)
(1.425 0.01 0.00703125)
(1.475 0.01 0.00703125)
(1.525 0.01 0.00703125)
(1.575 0.01 0.00703125)
(1.625 0.01 0.00703125)
(1.675 0.01 0.00703125)
(1.725 0.01 0.00703125)
(1.775 0.01 0.00703125)
(1.825 0.01 0.00703125)
(1.875 0.01 0.00703125)
(1.925 0.01 0.00703125)
(1.975 0.01 0.00703125)
(2.025 0.01 0.00703125)
(2.075 0.01 0.00703125)
(2.125 0.01 0.00703125)
(2.175 0.01 0.00703125)
(2.225 0.01 0.00703125)
(2.275 0.01 0.00703125)
(2.325 0.01 0.00703125)
(2.375 0.01 0.00703125)
(2.425 0.01 0.00703125)
(2.475 0.01 0.00703125)
(2.525 0.01 0.00703125)
(2.575 0.01 0.00703125)
(2.625 0.01 0.00703125)
(2.675 0.01 0.00703125)
(2.725 0.01 0.00703125)
(2.775 0.01 0.00703125)
(2.825 0.01 0.00703125)
(2.875 0.01 0.00703125)
(2.925 0.01 0.00703125)
(2.975 0.01 0.00703125)
(3.025 0.01 0.00703125)
(3.075 0.01 0.00703125)
(3.125 0.01 0.00703125)
(3.175 0.01 0.00703125)
(3.225 0.01 0.00703125)
(3.275 0.01 0.00703125)
(3.325 0.01 0.00703125)
(3.375 0.01 0.00703125)
(3.425 0.01 0.00703125)
(3.475 0.01 0.00703125)
(3.525 0.01 0.00703125)
(3.575 0.01 0.00703125)
(3.625 0.01 0.00703125)
(3.675 0.01 0.00703125)
(3.725 0.01 0.00703125)
(3.775 0.01 0.00703125)
(3.825 0.01 0.00703125)
(3.875 0.01 0.00703125)
(3.925 0.01 0.00703125)
(3.975 0.01 0.00703125)
(4.025 0.01 0.00703125)
(4.075 0.01 0.00703125)
(4.125 0.01 0.00703125)
(4.175 0.01 0.00703125)
(4.225 0.01 0.00703125)
(4.275 0.01 0.00703125)
(4.325 0.01 0.00703125)
(4.375 0.01 0.00703125)
(4.425 0.01 0.00703124)
(4.475 0.01 0.00703124)
(4.525 0.01 0.00703124)
(4.575 0.01 0.00703124)
(4.625 0.01 0.00703123)
(4.675 0.01 0.00703122)
(4.725 0.01 0.0070312)
(4.775 0.01 0.00703117)
(4.825 0.01 0.0070309)
(4.875 0.01 0.00703248)
(4.92494 0.01 0.00700542)
(4.97506 0.01 0.00477053)
(5.02506 0.01 -0.000555973)
(5.07495 0.01 -0.00553841)
(5.12501 0.01 -0.00919379)
(5.17499 0.01 -0.0124049)
(5.225 0.01 -0.0151505)
(5.275 0.01 -0.0176097)
(5.325 0.01 -0.0197375)
(5.375 0.01 -0.0216328)
(5.425 0.01 -0.0233473)
(5.47501 0.01 -0.0249102)
(5.52498 0.01 -0.0260802)
(5.57501 0.01 -0.0270856)
(5.62499 0.01 -0.0280296)
(5.675 0.01 -0.0288876)
(5.72501 0.01 -0.0301631)
(5.775 0.01 -0.0315811)
(5.82499 0.01 -0.0326397)
(5.87499 0.01 -0.0333712)
(5.92502 0.01 -0.0340853)
(5.97497 0.01 -0.0344767)
(6.02503 0.01 -0.034906)
(6.07497 0.01 -0.0352824)
(6.12503 0.01 -0.0355437)
(6.17496 0.01 -0.0354947)
(6.225 0.01 -0.035262)
(6.27502 0.01 -0.0358982)
(6.32498 0.01 -0.0366815)
(6.37503 0.01 -0.0374813)
(6.42496 0.01 -0.0378774)
(6.47503 0.01 -0.0379936)
(6.52497 0.01 -0.0379498)
(6.57502 0.01 -0.037724)
(6.62498 0.01 -0.0375051)
(6.67502 0.01 -0.0372331)
(6.72498 0.01 -0.0368842)
(6.77498 0.01 -0.036352)
(6.82505 0.01 -0.0367636)
(6.87497 0.01 -0.0372325)
(6.92502 0.01 -0.0372333)
(6.97499 0.01 -0.0370706)
(7.02499 0.01 -0.0364186)
(7.07502 0.01 -0.0358743)
(7.12498 0.01 -0.0351468)
(7.175 0.01 -0.034259)
(7.225 0.01 -0.0338638)
(7.27502 0.01 -0.0340706)
(7.325 0.01 -0.0342847)
(7.37498 0.01 -0.0338452)
(7.42502 0.01 -0.0332613)
(7.47499 0.01 -0.032618)
(7.52501 0.01 -0.0318261)
(7.57498 0.01 -0.0310498)
(7.62501 0.01 -0.0307682)
(7.67501 0.01 -0.0311407)
(7.72499 0.01 -0.0312206)
(7.77499 0.01 -0.030887)
(7.825 0.01 -0.0307552)
(7.87502 0.01 -0.0311134)
(7.925 0.01 -0.0313713)
(7.97499 0.01 -0.0308707)
(8.02499 0.01 -0.0300238)
(8.07501 0.01 -0.0295462)
(8.12499 0.01 -0.0292848)
(8.17501 0.01 -0.029334)
(8.22499 0.01 -0.0298056)
(8.27502 0.01 -0.0305773)
(8.325 0.01 -0.0313593)
(8.37498 0.01 -0.0314307)
(8.42502 0.01 -0.0311991)
(8.47498 0.01 -0.0307721)
(8.52501 0.01 -0.030214)
(8.575 0.01 -0.0298331)
(8.62499 0.01 -0.0293425)
(8.67499 0.01 -0.0290337)
(8.72502 0.01 -0.0295526)
(8.775 0.01 -0.030546)
(8.825 0.01 -0.0311496)
(8.875 0.01 -0.0312751)
(8.92499 0.01 -0.0310616)
(8.97501 0.01 -0.0307866)
(9.02498 0.01 -0.0304718)
(9.07501 0.01 -0.0304376)
(9.12501 0.01 -0.0310039)
(9.175 0.01 -0.0316299)
(9.225 0.01 -0.031848)
(9.27499 0.01 -0.0315747)
(9.325 0.01 -0.031148)
(9.37499 0.01 -0.0309329)
(9.42503 0.01 -0.0313427)
(9.47497 0.01 -0.0316011)
(9.52502 0.01 -0.0314508)
(9.57499 0.01 -0.0312298)
(9.62501 0.01 -0.0308513)
(9.67499 0.01 -0.0303266)
(9.72498 0.01 -0.0297165)
(9.77503 0.01 -0.0299778)
(9.82497 0.01 -0.0306367)
(9.87504 0.01 -0.0314896)
(9.92497 0.01 -0.0322406)
(9.97505 0.01 -0.0327839)
(10.025 0.01 -0.0326882)
(10.075 0.01 -0.0318387)
(10.125 0.01 -0.0314882)
(10.175 0.01 -0.0311543)
(10.225 0.01 -0.0308217)
(10.275 0.01 -0.0301947)
(10.325 0.01 -0.0296545)
(10.375 0.01 -0.0295984)
(10.425 0.01 -0.0299977)
(10.475 0.01 -0.0301333)
(10.525 0.01 -0.0297232)
(10.575 0.01 -0.0293997)
(10.625 0.01 -0.0288972)
(10.675 0.01 -0.0284811)
(10.725 0.01 -0.0282838)
(10.775 0.01 -0.0287666)
(10.825 0.01 -0.0294787)
(10.8751 0.01 -0.0306157)
(10.925 0.01 -0.0314907)
(10.975 0.01 -0.0318241)
(11.0249 0.01 -0.0317329)
(11.0751 0.01 -0.0317568)
(11.125 0.01 -0.0319161)
(11.175 0.01 -0.0313745)
(11.225 0.01 -0.0312486)
(11.275 0.01 -0.0307568)
(11.3251 0.01 -0.0302943)
(11.3749 0.01 -0.0297478)
(11.4251 0.01 -0.0295777)
(11.4749 0.01 -0.0297742)
(11.5251 0.01 -0.0298336)
(11.5749 0.01 -0.0297377)
(11.625 0.01 -0.0296902)
(11.675 0.01 -0.0299539)
(11.725 0.01 -0.0295518)
(11.775 0.01 -0.0293335)
(11.825 0.01 -0.0289903)
(11.875 0.01 -0.0287102)
(11.9249 0.01 -0.0282459)
(11.975 0.01 -0.0281038)
(12.025 0.01 -0.0285521)
(12.0751 0.01 -0.0292849)
(12.1249 0.01 -0.0294267)
(12.1751 0.01 -0.0293171)
(12.2249 0.01 -0.0291479)
(12.275 0.01 -0.0285812)
(12.325 0.01 -0.0287584)
(12.375 0.01 -0.0289456)
(12.425 0.01 -0.0293771)
(12.475 0.01 -0.0299315)
(12.525 0.01 -0.0305754)
(12.5749 0.01 -0.0303123)
(12.6251 0.01 -0.0299598)
(12.6749 0.01 -0.0295821)
(12.7251 0.01 -0.0294288)
(12.7749 0.01 -0.0293266)
(12.8251 0.01 -0.0289156)
(12.8749 0.01 -0.0286054)
(12.925 0.01 -0.0283109)
(12.975 0.01 -0.0283534)
(13.025 0.01 -0.0278175)
(13.075 0.01 -0.0279795)
(13.125 0.01 -0.0285689)
(13.175 0.01 -0.0290705)
(13.225 0.01 -0.0292877)
(13.275 0.01 -0.0293867)
(13.3249 0.01 -0.0289411)
(13.375 0.01 -0.028492)
(13.425 0.01 -0.0286114)
(13.475 0.01 -0.0290781)
(13.5249 0.01 -0.0294761)
(13.5751 0.01 -0.0298104)
(13.6249 0.01 -0.0296821)
(13.6751 0.01 -0.0293622)
(13.7249 0.01 -0.0288369)
(13.775 0.01 -0.0277155)
(13.825 0.01 -0.026967)
(13.875 0.01 -0.0268045)
(13.925 0.01 -0.0267261)
(13.975 0.01 -0.0258686)
(14.025 0.01 -0.0255072)
(14.075 0.01 -0.0255865)
(14.125 0.01 -0.0260109)
(14.1749 0.01 -0.0261205)
(14.2251 0.01 -0.0262501)
(14.275 0.01 -0.0263738)
(14.325 0.01 -0.0254759)
(14.375 0.01 -0.0242522)
(14.425 0.01 -0.022996)
(14.475 0.01 -0.0214399)
(14.525 0.01 -0.0196423)
(14.575 0.01 -0.0174287)
(14.625 0.01 -0.0148331)
(14.675 0.01 -0.0115494)
(14.7251 0.01 -0.00758143)
(14.7749 0.01 -0.00178914)
(14.8249 0.01 0.00456237)
(14.8751 0.01 0.00700377)
(14.925 0.01 0.00703259)
(14.975 0.01 0.00703097)
(0.025 0.01 0.00984375)
(0.075 0.01 0.00984375)
(0.125 0.01 0.00984375)
(0.175 0.01 0.00984375)
(0.225 0.01 0.00984375)
(0.275 0.01 0.00984375)
(0.325 0.01 0.00984375)
(0.375 0.01 0.00984375)
(0.425 0.01 0.00984375)
(0.475 0.01 0.00984375)
(0.525 0.01 0.00984375)
(0.575 0.01 0.00984375)
(0.625 0.01 0.00984375)
(0.675 0.01 0.00984375)
(0.725 0.01 0.00984375)
(0.775 0.01 0.00984375)
(0.825 0.01 0.00984375)
(0.875 0.01 0.00984375)
(0.925 0.01 0.00984375)
(0.975 0.01 0.00984375)
(1.025 0.01 0.00984375)
(1.075 0.01 0.00984375)
(1.125 0.01 0.00984375)
(1.175 0.01 0.00984375)
(1.225 0.01 0.00984375)
(1.275 0.01 0.00984375)
(1.325 0.01 0.00984375)
(1.375 0.01 0.00984375)
(1.425 0.01 0.00984375)
(1.475 0.01 0.00984375)
(1.525 0.01 0.00984375)
(1.575 0.01 0.00984375)
(1.625 0.01 0.00984375)
(1.675 0.01 0.00984375)
(1.725 0.01 0.00984375)
(1.775 0.01 0.00984375)
(1.825 0.01 0.00984375)
(1.875 0.01 0.00984375)
(1.925 0.01 0.00984375)
(1.975 0.01 0.00984375)
(2.025 0.01 0.00984375)
(2.075 0.01 0.00984375)
(2.125 0.01 0.00984375)
(2.175 0.01 0.00984375)
(2.225 0.01 0.00984375)
(2.275 0.01 0.00984375)
(2.325 0.01 0.00984375)
(2.375 0.01 0.00984375)
(2.425 0.01 0.00984375)
(2.475 0.01 0.00984375)
(2.525 0.01 0.00984375)
(2.575 0.01 0.00984375)
(2.625 0.01 0.00984375)
(2.675 0.01 0.00984375)
(2.725 0.01 0.00984375)
(2.775 0.01 0.00984375)
(2.825 0.01 0.00984375)
(2.875 0.01 0.00984375)
(2.925 0.01 0.00984375)
(2.975 0.01 0.00984375)
(3.025 0.01 0.00984375)
(3.075 0.01 0.00984375)
(3.125 0.01 0.00984375)
(3.175 0.01 0.00984375)
(3.225 0.01 0.00984375)
(3.275 0.01 0.00984375)
(3.325 0.01 0.00984375)
(3.375 0.01 0.00984375)
(3.425 0.01 0.00984375)
(3.475 0.01 0.00984375)
(3.525 0.01 0.00984375)
(3.575 0.01 0.00984375)
(3.625 0.01 0.00984375)
(3.675 0.01 0.00984375)
(3.725 0.01 0.00984375)
(3.775 0.01 0.00984375)
(3.825 0.01 0.00984375)
(3.875 0.01 0.00984375)
(3.925 0.01 0.00984375)
(3.975 0.01 0.00984375)
(4.025 0.01 0.00984375)
(4.075 0.01 0.00984375)
(4.125 0.01 0.00984375)
(4.175 0.01 0.00984375)
(4.225 0.01 0.00984375)
(4.275 0.01 0.00984374)
(4.325 0.01 0.00984374)
(4.375 0.01 0.00984374)
(4.425 0.01 0.00984374)
(4.475 0.01 0.00984373)
(4.525 0.01 0.00984372)
(4.575 0.01 0.00984371)
(4.625 0.01 0.00984369)
(4.675 0.01 0.00984366)
(4.725 0.01 0.00984361)
(4.775 0.01 0.00984352)
(4.825 0.01 0.00984298)
(4.875 0.01 0.00984524)
(4.92493 0.01 0.00979748)
(4.97506 0.01 0.00756058)
(5.02507 0.01 0.00227612)
(5.07494 0.01 -0.00270007)
(5.12501 0.01 -0.00637096)
(5.17499 0.01 -0.00958189)
(5.225 0.01 -0.0123311)
(5.275 0.01 -0.0147904)
(5.325 0.01 -0.01692)
(5.375 0.01 -0.0188162)
(5.425 0.01 -0.0205318)
(5.47501 0.01 -0.0220932)
(5.52498 0.01 -0.0232664)
(5.57502 0.01 -0.0242733)
(5.62498 0.01 -0.0252169)
(5.675 0.01 -0.0260803)
(5.72501 0.01 -0.0273523)
(5.775 0.01 -0.0287655)
(5.82499 0.01 -0.0298252)
(5.87499 0.01 -0.0305607)
(5.92502 0.01 -0.0312712)
(5.97497 0.01 -0.0316668)
(6.02504 0.01 -0.0320946)
(6.07497 0.01 -0.0324703)
(6.12504 0.01 -0.0327297)
(6.17495 0.01 -0.0326821)
(6.22501 0.01 -0.0324617)
(6.27502 0.01 -0.0330892)
(6.32498 0.01 -0.0338715)
(6.37504 0.01 -0.0346667)
(6.42496 0.01 -0.0350644)
(6.47504 0.01 -0.0351822)
(6.52496 0.01 -0.0351383)
(6.57503 0.01 -0.0349148)
(6.62497 0.01 -0.0346953)
(6.67503 0.01 -0.0344232)
(6.72498 0.01 -0.0340718)
(6.77498 0.01 -0.0335519)
(6.82506 0.01 -0.033953)
(6.87496 0.01 -0.0344169)
(6.92502 0.01 -0.0344228)
(6.97499 0.01 -0.0342565)
(7.02499 0.01 -0.0336117)
(7.07503 0.01 -0.033063)
(7.12498 0.01 -0.0323345)
(7.175 0.01 -0.0314531)
(7.22499 0.01 -0.0310596)
(7.27502 0.01 -0.0312612)
(7.325 0.01 -0.0314688)
(7.37498 0.01 -0.0310356)
(7.42502 0.01 -0.0304518)
(7.47499 0.01 -0.0298062)
(7.52501 0.01 -0.0290151)
(7.57497 0.01 -0.0282444)
(7.62502 0.01 -0.0279661)
(7.67501 0.01 -0.0283293)
(7.72499 0.01 -0.0284079)
(7.77499 0.01 -0.0280797)
(7.825 0.01 -0.0279498)
(7.87502 0.01 -0.0283014)
(7.925 0.01 -0.0285529)
(7.97498 0.01 -0.0280578)
(8.02499 0.01 -0.0272195)
(8.07502 0.01 -0.0267399)
(8.12498 0.01 -0.0264786)
(8.17502 0.01 -0.0265275)
(8.22499 0.01 -0.0269969)
(8.27502 0.01 -0.0277665)
(8.325 0.01 -0.0285418)
(8.37498 0.01 -0.0286193)
(8.42502 0.01 -0.0283888)
(8.47498 0.01 -0.0279613)
(8.52501 0.01 -0.0274053)
(8.575 0.01 -0.0270202)
(8.62499 0.01 -0.0265331)
(8.67499 0.01 -0.0262326)
(8.72502 0.01 -0.0267485)
(8.77501 0.01 -0.0277328)
(8.825 0.01 -0.0283352)
(8.875 0.01 -0.0284607)
(8.92499 0.01 -0.0282494)
(8.97501 0.01 -0.0279747)
(9.02498 0.01 -0.0276647)
(9.07501 0.01 -0.0276351)
(9.12501 0.01 -0.0281958)
(9.17501 0.01 -0.0288166)
(9.225 0.01 -0.029033)
(9.27499 0.01 -0.0287621)
(9.325 0.01 -0.0283386)
(9.37498 0.01 -0.0281289)
(9.42504 0.01 -0.0285312)
(9.47497 0.01 -0.0287879)
(9.52502 0.01 -0.0286413)
(9.57499 0.01 -0.028418)
(9.62502 0.01 -0.0280385)
(9.67498 0.01 -0.0275135)
(9.72498 0.01 -0.0269152)
(9.77504 0.01 -0.0271721)
(9.82497 0.01 -0.0278296)
(9.87504 0.01 -0.0286789)
(9.92496 0.01 -0.0294282)
(9.97506 0.01 -0.0299662)
(10.025 0.01 -0.0298684)
(10.075 0.01 -0.0290339)
(10.125 0.01 -0.0286782)
(10.175 0.01 -0.028345)
(10.225 0.01 -0.0280081)
(10.275 0.01 -0.0273848)
(10.325 0.01 -0.0268483)
(10.375 0.01 -0.0267923)
(10.4251 0.01 -0.0271842)
(10.475 0.01 -0.0273171)
(10.525 0.01 -0.0269145)
(10.575 0.01 -0.0265873)
(10.625 0.01 -0.0260875)
(10.675 0.01 -0.0256717)
(10.725 0.01 -0.0254795)
(10.775 0.01 -0.0259571)
(10.825 0.01 -0.0266723)
(10.8751 0.01 -0.0278022)
(10.9249 0.01 -0.0286746)
(10.9751 0.01 -0.029009)
(11.0249 0.01 -0.0289229)
(11.0751 0.01 -0.0289471)
(11.125 0.01 -0.0290965)
(11.175 0.01 -0.0285689)
(11.225 0.01 -0.0284334)
(11.2749 0.01 -0.0279468)
(11.3251 0.01 -0.027482)
(11.3749 0.01 -0.0269406)
(11.4251 0.01 -0.0267703)
(11.4749 0.01 -0.0269617)
(11.5251 0.01 -0.0270212)
(11.5749 0.01 -0.0269271)
(11.6251 0.01 -0.0268832)
(11.675 0.01 -0.0271352)
(11.725 0.01 -0.0267433)
(11.775 0.01 -0.0265206)
(11.825 0.01 -0.0261803)
(11.875 0.01 -0.0258972)
(11.9249 0.01 -0.0254389)
(11.9751 0.01 -0.0252994)
(12.025 0.01 -0.0257441)
(12.0751 0.01 -0.0264666)
(12.1249 0.01 -0.0266122)
(12.1751 0.01 -0.026505)
(12.2249 0.01 -0.0263317)
(12.275 0.01 -0.0257789)
(12.325 0.01 -0.0259473)
(12.375 0.01 -0.0261374)
(12.425 0.01 -0.0265667)
(12.475 0.01 -0.0271211)
(12.5251 0.01 -0.027753)
(12.5749 0.01 -0.0275)
(12.6251 0.01 -0.0271477)
(12.6749 0.01 -0.0267735)
(12.7251 0.01 -0.0266182)
(12.7749 0.01 -0.0265117)
(12.8251 0.01 -0.0261049)
(12.8749 0.01 -0.0257929)
(12.9251 0.01 -0.0255029)
(12.975 0.01 -0.0255348)
(13.025 0.01 -0.0250142)
(13.075 0.01 -0.0251729)
(13.125 0.01 -0.0257569)
(13.175 0.01 -0.0262562)
(13.225 0.01 -0.0264752)
(13.2751 0.01 -0.0265684)
(13.3249 0.01 -0.0261287)
(13.3751 0.01 -0.0256862)
(13.425 0.01 -0.0258038)
(13.4751 0.01 -0.0262666)
(13.5249 0.01 -0.0266649)
(13.5751 0.01 -0.0269939)