/*--------------------------------*- C++ -*----------------------------------*\
| =========                 |                                                 |
| \\      /  F ield         | foam-extend: Open Source CFD                    |
|  \\    /   O peration     | Version:     3.2                                |
|   \\  /    A nd           | Web:         http://www.foam-extend.org         |
|    \\/     M anipulation  | For copyright notice see file Copyright         |
\*---------------------------------------------------------------------------*/
FoamFile
{
    version     2.0;
    format      ascii;
    class       surfaceScalarField;
    location    "160";
    object      meshPhi;
}
// * * * * * * * * * * * * * * * * * * * * * * * * * * * * * * * * * * * * * //

dimensions      [0 3 -1 0 0 0 0];

internalField   nonuniform List<scalar> 
191380
(
0
0
0
0
0
0
0
0
0
0
0
0
0
0
0
0
0
0
0
0
0
0
0
0
0
0
0
0
0
0
0
0
0
0
0
0
0
0
0
0
0
0
0
0
0
0
0
0
0
0
0
0
0
0
0
0
0
0
0
0
0
0
0
0
0
0
0
0
0
0
0
0
0
0
0
0
0
0
0
0
0
0
0
0
0
0
0
0
0
0
0
0
0
0
0
0
0
0
0
0
0
0
0
0
0
0
0
0
0
0
0
0
0
0
0
0
0
0
0
0
0
0
0
0
0
0
0
0
0
0
0
0
0
0
0
0
8.32667e-19
1.4456e-20
0
4.33681e-20
-2.56791e-34
4.33681e-20
1.66533e-18
8.67362e-20
8.32667e-19
1.87928e-19
8.32667e-19
2.1684e-19
-8.32667e-19
3.32489e-19
0
4.62593e-19
-8.32667e-19
7.08345e-19
0
9.8301e-19
8.32667e-19
1.34441e-18
0
1.86483e-18
0
2.57317e-18
0
3.49836e-18
0
4.72712e-18
-1.66533e-18
6.36065e-18
0
8.50015e-18
0
1.13769e-17
0
1.52222e-17
-1.66533e-18
2.04986e-17
1.66533e-18
2.9765e-17
0
2.19587e-17
-1.66533e-18
1.89432e-16
0
-8.20539e-16
0
5.48436e-15
1.66533e-18
-2.76914e-14
1.66533e-18
1.20507e-13
0
-3.53947e-13
0
1.47761e-14
0
8.44738e-12
-1.65879e-18
-8.55898e-11
-1.67209e-18
-7.18668e-08
1.68049e-18
-2.51487e-07
0
-4.13818e-07
-1.67042e-18
-4.98134e-07
-1.66811e-18
-5.58445e-07
0
-6.01108e-07
0
-6.33147e-07
-1.66671e-18
-6.65654e-07
-1.66677e-18
-6.82907e-07
-1.6657e-18
-3.49319e-07
0
3.24591e-07
1.66295e-18
6.97816e-07
1.66484e-18
7.57202e-07
-1.66254e-18
-3.42677e-07
0
-2.77383e-06
-3.32841e-18
-3.20628e-06
3.32851e-18
-1.54923e-06
-3.2356e-23
6.43517e-08
-1.08697e-22
2.64622e-06
0
3.79688e-06
1.66026e-18
2.00552e-06
1.49635e-23
-4.19984e-07
-1.66033e-18
-3.28503e-06
-1.66592e-18
-4.44312e-06
1.66005e-18
-2.88254e-06
0
-1.07821e-06
0
-1.62629e-08
-3.32159e-18
1.27061e-06
1.66533e-18
3.42778e-06
0
3.72602e-06
-6.53484e-24
1.80978e-06
-3.31933e-18
-4.70146e-07
-1.08425e-22
-3.51663e-06
-1.66001e-18
-4.53552e-06
0
-1.12821e-06
1.66113e-18
3.39424e-06
-3.31669e-18
4.36013e-06
1.66562e-18
2.14873e-06
-5.7059e-23
8.42275e-07
3.32699e-18
-5.173e-07
1.66208e-18
-3.59489e-06
-1.66039e-18
-4.48295e-06
0
-1.03233e-06
-1.11519e-22
3.56837e-06
0
4.59794e-06
0
2.21146e-06
2.13051e-23
-5.99281e-07
-1.09477e-22
-3.77415e-06
-1.6605e-18
-4.75441e-06
1.66275e-18
-1.10139e-06
1.66095e-18
3.7067e-06
-1.66229e-18
4.55244e-06
-1.65897e-18
2.05737e-06
1.66111e-18
-4.61761e-07
-1.66325e-18
-3.69295e-06
-1.03752e-22
-5.19834e-06
0
-1.56227e-06
3.32097e-18
3.86681e-06
-8.7357e-24
5.14441e-06
2.46681e-24
2.31013e-06
0
-1.10277e-06
0
-4.75065e-06
0
-5.61348e-06
0
-1.19797e-06
0
4.33147e-06
0
5.42787e-06
0
1.27356e-06
3.32751e-18
-3.52952e-06
3.32137e-18
-4.52442e-06
3.32687e-18
-2.57791e-06
-3.32156e-18
8.67215e-08
3.3241e-18
3.68035e-06
-3.32467e-18
4.6591e-06
3.32214e-18
6.88486e-07
0
-3.50534e-06
0
-3.58553e-06
0
-1.33594e-06
3.32537e-18
6.49525e-07
0
3.32863e-06
0
4.17173e-06
0
1.96801e-06
0
-6.51806e-07
3.32283e-18
-3.34788e-06
0
-3.72493e-06
0
-1.81705e-06
0
6.8397e-08
0
3.04426e-06
1.99099e-23
4.20626e-06
2.5567e-23
2.17574e-06
0
-4.17959e-07
0
-3.64269e-06
0
-4.68014e-06
-3.32282e-18
-1.20445e-06
-2.34872e-22
3.25353e-06
0
4.15305e-06
3.31831e-18
2.10262e-06
-3.32818e-18
-1.64366e-07
0
-2.90152e-06
0
-3.65504e-06
0
-5.31584e-07
0
3.08887e-06
0
3.60189e-06
3.32236e-18
1.75915e-06
-3.32694e-18
-5.22557e-07
0
-3.77549e-06
-3.33058e-18
-5.15766e-06
6.63796e-18
-1.61667e-06
-3.32675e-18
3.59967e-06
0
5.0133e-06
0
1.13925e-06
0
-3.82072e-06
0
-4.84567e-06
-1.71065e-23
-2.7175e-06
-3.3251e-18
-9.36533e-08
3.32433e-18
3.50126e-06
0
4.91729e-06
-3.32926e-18
2.63551e-06
0
2.45111e-08
-3.33656e-18
-2.53736e-06
0
-3.54955e-06
0
-2.25938e-06
-3.31581e-18
-3.15395e-08
0
3.18831e-06
3.32384e-18
4.1193e-06
0
5.59603e-07
-3.33313e-18
-3.69997e-06
0
-4.37829e-06
3.335e-18
-2.38502e-06
3.31454e-18
3.89846e-07
3.12795e-22
3.98932e-06
0
4.71523e-06
4.58833e-23
2.11526e-06
0
-4.00018e-07
-3.3315e-18
-3.22666e-06
3.32635e-18
-4.35879e-06
0
-1.02542e-06
3.33033e-18
3.38145e-06
3.32026e-18
4.05678e-06
3.33369e-18
3.7516e-07
3.31619e-18
-4.00692e-06
-3.33125e-18
-4.3026e-06
-1.11764e-22
-1.20283e-06
3.34073e-18
1.27113e-06
0
3.28549e-06
-3.33876e-18
3.73706e-06
0
1.76655e-06
3.32657e-18
-5.88275e-07
3.32694e-18
-3.32981e-06
-3.32404e-18
-3.96551e-06
6.65754e-18
-6.88586e-07
-3.32356e-18
3.24018e-06
-3.33957e-18
4.07194e-06
6.63169e-18
6.93761e-07
3.34011e-18
-3.45238e-06
3.31368e-18
-3.74781e-06
0
-1.38448e-06
-3.31666e-18
5.92368e-07
3.33733e-18
3.00088e-06
0
3.8229e-06
-3.33279e-18
1.86074e-06
0
-6.52223e-07
1.91733e-22
-3.34209e-06
3.331e-18
-3.60973e-06
-3.32461e-18
-1.43181e-06
-3.33262e-18
-5.38789e-07
2.99662e-23
-7.36469e-07
3.33777e-18
-1.13236e-06
-3.31836e-18
-1.58623e-06
3.33205e-18
-1.22261e-06
-3.32006e-18
-3.37647e-07
0
-3.32131e-08
-3.31931e-18
-2.44596e-07
0
-5.0443e-07
0
-7.51277e-07
-3.34112e-18
-8.81172e-07
0
-1.3596e-06
3.33143e-18
-1.57466e-06
6.63971e-18
-6.48502e-07
3.33547e-18
-1.3719e-07
0
-8.95262e-07
0
-1.25787e-06
3.33027e-18
-6.74003e-07
0
-5.91324e-08
0
-3.29167e-08
3.3215e-18
-1.34614e-07
3.33846e-18
-3.11668e-08
3.33237e-18
-3.22813e-07
6.37975e-24
-6.44702e-07
3.59123e-24
-7.04866e-07
-3.33597e-18
-7.11116e-07
0
-6.90701e-07
3.33958e-18
-6.73821e-07
-1.2601e-24
-6.42057e-07
-3.3471e-18
-6.05504e-07
-4.04815e-24
-5.48009e-07
0
-4.62047e-07
3.34807e-18
-2.84838e-07
3.31694e-18
-8.26312e-08
3.33165e-18
-8.03733e-11
6.66115e-18
8.80429e-12
-1.13805e-12
0
0
0
0
0
0
0
0
0
0
0
0
0
0
0
0
0
0
0
0
0
0
0
0
0
0
0
0
0
0
0
0
0
0
0
0
0
0
0
0
0
0
0
0
0
0
0
0
0
0
0
0
0
0
0
0
0
0
0
0
0
0
0
0
0
0
0
0
0
0
0
0
0
0
0
0
0
0
0
0
0
0
0
0
0
0
0
0
0
0
0
0
0
0
0
0
0
0
0
0
0
0
0
0
0
0
0
0
0
0
0
0
0
0
0
0
0
0
0
0
2.56791e-34
-2.89121e-20
8.32667e-19
-5.78241e-20
0
-2.89121e-20
0
0
0
0
0
0
0
2.89121e-20
0
1.73472e-19
-1.66533e-18
2.31296e-19
-8.32667e-19
4.62593e-19
1.66533e-18
6.07153e-19
0
9.8301e-19
0
1.50343e-18
8.32667e-19
2.28405e-18
8.32667e-19
3.46945e-18
-1.5279e-32
4.85723e-18
0
6.93889e-18
-8.32667e-19
9.74336e-18
8.32667e-19
1.36465e-17
0
1.87928e-17
0
2.57317e-17
0
3.49547e-17
1.66533e-18
4.72134e-17
0
6.3462e-17
0
8.49147e-17
-6.93335e-31
1.13653e-16
1.66533e-18
1.52627e-16
1.66533e-18
2.04755e-16
0
2.80938e-16
0
4.25441e-16
-1.66533e-18
1.80325e-16
-1.66533e-18
3.41021e-15
0
-1.2759e-14
1.66533e-18
6.40443e-14
0
-2.32382e-13
-1.99195e-26
8.6074e-13
1.66518e-18
-3.70032e-12
0
2.67123e-11
-1.65044e-18
-3.01292e-10
6.14921e-24
-7.1587e-08
0
-2.49841e-07
-1.66885e-18
-4.12055e-07
-1.67186e-18
-4.9702e-07
0
-5.57344e-07
0
-6.00052e-07
-1.66813e-18
-6.32136e-07
-1.66696e-18
-6.64656e-07
1.66728e-18
-6.80166e-07
0
-3.48121e-07
0
3.20134e-07
-1.66228e-18
6.94201e-07
1.66624e-18
7.49531e-07
0
-3.49159e-07
0
-2.75516e-06
0
-3.1895e-06
1.66551e-18
-1.55061e-06
-1.66393e-18
6.941e-08
1.66201e-18
2.63237e-06
3.33323e-18
3.77209e-06
1.65873e-18
2.00012e-06
0
-4.22039e-07
-2.00353e-22
-3.27026e-06
-1.6692e-18
-4.41945e-06
-1.65839e-18
-2.87618e-06
0
-1.08104e-06
-1.66537e-18
-1.59567e-08
3.71779e-24
1.27305e-06
0
3.40944e-06
-1.6583e-18
3.70661e-06
-1.66742e-18
1.80645e-06
-1.65845e-18
-4.74991e-07
-1.66586e-18
-3.49975e-06
-1.65907e-18
-4.5017e-06
1.66558e-18
-1.1189e-06
1.6611e-18
3.36886e-06
1.65587e-18
4.33473e-06
-1.14146e-22
2.15362e-06
3.31868e-18
8.4237e-07
1.66551e-18
-5.28013e-07
-1.66288e-18
-3.5766e-06
1.65977e-18
-4.44977e-06
-1.66569e-18
-1.02128e-06
1.66006e-18
3.54401e-06
1.66045e-18
4.57031e-06
-1.65923e-18
2.20672e-06
0
-5.99877e-07
1.66454e-18
-3.75547e-06
0
-4.71847e-06
-1.66434e-18
-1.09002e-06
1.66099e-18
3.67892e-06
0
4.52388e-06
1.65727e-18
2.05368e-06
-5.19854e-23
-4.6497e-07
-1.6649e-18
-3.67613e-06
3.32447e-18
-5.15809e-06
1.66025e-18
-1.54751e-06
1.66022e-18
3.83655e-06
1.66511e-18
5.11256e-06
-3.33093e-18
2.30423e-06
0
-1.10606e-06
3.31923e-18
-4.73079e-06
-3.32698e-18
-5.5735e-06
3.31761e-18
-1.18879e-06
0
4.29824e-06
0
5.3905e-06
0
1.27257e-06
3.33176e-18
-3.49811e-06
0
-4.49962e-06
6.66097e-18
-2.57089e-06
0
9.36158e-08
0
3.66013e-06
3.32697e-18
4.62014e-06
-3.32156e-18
6.8348e-07
-3.31607e-18
-3.47627e-06
0
-3.56716e-06
-3.32948e-18
-1.33788e-06
0
6.52687e-07
0
3.31172e-06
0
4.14561e-06
0
1.96262e-06
-3.31775e-18
-6.52567e-07
-4.8126e-22
-3.32807e-06
3.32666e-18
-3.70521e-06
0
-1.81652e-06
-3.32824e-18
7.68223e-08
3.32399e-18
3.02997e-06
0
4.17959e-06
0
2.17078e-06
0
-4.2025e-07
3.31974e-18
-3.62477e-06
-3.33045e-18
-4.64578e-06
0
-1.19488e-06
3.33046e-18
3.22756e-06
3.32338e-18
4.12725e-06
-3.31356e-18
2.09873e-06
0
-1.65272e-07
0
-2.88403e-06
0
-3.62654e-06
0
-5.29013e-07
-3.34412e-18
3.06337e-06
-3.32043e-18
3.57975e-06
-3.32133e-18
1.75345e-06
0
-5.29066e-07
0
-3.76102e-06
3.33614e-18
-5.11938e-06
0
-1.60077e-06
0
3.57253e-06
-3.35285e-22
4.97529e-06
-3.34205e-18
1.13358e-06
0
-3.79087e-06
0
-4.81992e-06
3.32517e-18
-2.71086e-06
1.45429e-22
-8.52507e-08
-3.32387e-18
3.48402e-06
0
4.88733e-06
3.33326e-18
2.63286e-06
0
2.76321e-08
0
-2.52045e-06
-8.59253e-23
-3.52822e-06
0
-2.2515e-06
0
-2.53668e-08
3.34255e-18
3.1683e-06
0
4.08352e-06
0
5.52743e-07
0
-3.67224e-06
7.29402e-23
-4.35446e-06
3.34322e-18
-2.37612e-06
0
3.97353e-07
3.34312e-18
3.96499e-06
3.31258e-18
4.68603e-06
5.75525e-23
2.1145e-06
-3.31011e-18
-4.01177e-07
0
-3.21143e-06
6.65652e-18
-4.32368e-06
0
-1.01661e-06
-4.88901e-22
3.35333e-06
-6.6323e-18
4.02379e-06
3.34068e-18
3.68746e-07
3.30747e-18
-3.97911e-06
-3.33642e-18
-4.27724e-06
-1.61947e-22
-1.20618e-06
3.3529e-18
1.26782e-06
3.30604e-18
3.27371e-06
-3.34918e-18
3.71665e-06
0
1.76065e-06
3.32717e-18
-5.91005e-07
3.32782e-18
-3.31208e-06
-3.3223e-18
-3.93674e-06
-6.66203e-18
-6.8666e-07
0
3.21611e-06
-3.69115e-22
4.03947e-06
-3.30681e-18
6.83866e-07
5.53407e-22
-3.42332e-06
-3.30205e-18
-3.72323e-06
6.70741e-18
-1.38539e-06
3.30834e-18
5.95644e-07
3.34592e-18
2.98643e-06
-1.20342e-22
3.79797e-06
-3.33828e-18
1.85534e-06
0
-6.53659e-07
4.49075e-22
-3.32425e-06
-3.33438e-18
-3.59062e-06
0
-1.43882e-06
-3.33759e-18
-5.44023e-07
3.31909e-18
-7.36305e-07
-3.34669e-18
-1.13174e-06
-3.31088e-18
-1.57958e-06
3.33652e-18
-1.21817e-06
-9.94179e-18
-3.40587e-07
0
-3.5506e-08
-3.31267e-18
-2.43764e-07
3.35169e-18
-5.03356e-07
3.30847e-18
-7.49169e-07
-3.3522e-18
-8.82864e-07
0
-1.35774e-06
1.10713e-22
-1.56541e-06
-6.62593e-18
-6.49047e-07
-5.232e-23
-1.44618e-07
3.32928e-18
-8.91835e-07
0
-1.25054e-06
-3.33217e-18
-6.72826e-07
3.32005e-18
-6.22016e-08
6.51365e-23
-3.27154e-08
0
-1.32099e-07
-4.55574e-23
-3.33251e-08
3.33386e-18
-3.22447e-07
3.33345e-18
-6.42155e-07
0
-7.03628e-07
-3.33915e-18
-7.09919e-07
0
-6.89732e-07
-3.3443e-18
-6.7272e-07
-1.53416e-23
-6.4106e-07
3.35458e-18
-6.04391e-07
-1.51829e-23
-5.46903e-07
0
-4.60094e-07
1.67384e-23
-2.82819e-07
0
-8.22386e-08
3.33255e-18
-3.90318e-10
-3.33037e-18
1.17086e-11
-2.4247e-12
0
0
0
0
0
0
0
0
0
0
0
0
0
0
0
0
0
0
0
0
0
0
0
0
0
0
0
0
0
0
0
0
0
0
0
0
0
0
0
0
0
0
0
0
0
0
0
0
0
0
0
0
0
0
0
0
0
0
0
0
0
0
0
0
0
0
0
0
0
0
0
0
0
0
0
0
0
0
0
0
0
0
0
0
0
0
0
0
0
0
0
0
0
0
0
0
0
0
0
0
0
0
0
0
0
0
0
0
0
0
-8.32667e-19
-1.15648e-19
-8.32667e-19
-1.73472e-19
-8.32667e-19
-1.15648e-19
-8.32667e-19
-2.31296e-19
0
-1.15648e-19
-8.32667e-19
-1.15648e-19
8.32667e-19
-1.73472e-19
0
-1.15648e-19
-5.13581e-34
-2.31296e-19
0
-1.15648e-19
0
0
-1.66533e-18
5.78241e-20
0
2.89121e-19
8.32667e-19
6.93889e-19
1.66533e-18
1.38778e-18
-5.90619e-33
2.25514e-18
0
3.5851e-18
-1.36099e-32
5.37764e-18
8.32667e-19
7.9219e-18
-8.32667e-19
1.17961e-17
0
1.70581e-17
8.32667e-19
2.4344e-17
8.32667e-19
3.41741e-17
-1.66533e-18
4.76471e-17
0
6.5746e-17
0
9.00321e-17
0
1.22356e-16
1.66533e-18
1.65319e-16
0
2.22045e-16
0
2.97563e-16
-1.66533e-18
3.97252e-16
-1.66533e-18
5.33254e-16
0
7.28584e-16
0
9.05699e-16
-1.66533e-18
1.81429e-15
0
-1.92786e-16
0
1.13493e-14
-1.66532e-18
-2.4071e-14
-1.66531e-18
8.69946e-14
1.66529e-18
-1.90339e-13
0
6.94519e-13
0
-4.88931e-12
3.72876e-25
5.71745e-11
0
-6.35706e-10
0
-7.12734e-08
-1.68989e-18
-2.47492e-07
0
-4.09191e-07
0
-4.94697e-07
1.66095e-23
-5.54814e-07
0
-5.97451e-07
0
-6.29496e-07
-1.66732e-18
-6.62005e-07
1.66783e-18
-6.75087e-07
0
-3.45587e-07
1.66943e-18
3.13118e-07
-1.66195e-18
6.86848e-07
1.20834e-22
7.37654e-07
3.15645e-23
-3.56697e-07
3.17247e-22
-2.7257e-06
1.66609e-18
-3.16114e-06
0
-1.54742e-06
-7.40007e-23
7.72668e-08
1.66219e-18
2.60932e-06
1.66863e-18
3.73237e-06
1.65782e-18
1.98774e-06
-1.67015e-18
-4.25238e-07
-1.65876e-18
-3.24501e-06
-1.67236e-18
-4.38047e-06
2.15487e-23
-2.86188e-06
-1.65905e-18
-1.08215e-06
1.66679e-18
-1.51184e-08
-1.65964e-18
1.27494e-06
-3.21001e-22
3.38046e-06
-5.25713e-23
3.67506e-06
1.67004e-18
1.79773e-06
0
-4.80807e-07
1.66755e-18
-3.46998e-06
1.65868e-18
-4.44933e-06
-1.03833e-22
-1.10661e-06
3.72359e-22
3.32865e-06
1.65428e-18
4.29417e-06
-1.23364e-22
2.15493e-06
-1.65939e-18
8.39385e-07
3.33492e-18
-5.40733e-07
-1.66381e-18
-3.54507e-06
0
-4.39801e-06
7.76975e-23
-1.00693e-06
3.32058e-18
3.50414e-06
-1.25727e-22
4.52638e-06
0
2.19626e-06
-1.66659e-18
-5.9973e-07
1.66576e-18
-3.72298e-06
2.70372e-22
-4.66314e-06
1.66584e-18
-1.07573e-06
3.32361e-18
3.63441e-06
-1.66498e-18
4.47867e-06
0
2.04465e-06
-1.66156e-18
-4.68152e-07
-1.66651e-18
-3.64585e-06
-1.66314e-18
-5.09629e-06
9.39302e-23
-1.52731e-06
1.6606e-18
3.78996e-06
-1.30273e-22
5.0629e-06
-3.33533e-18
2.29169e-06
0
-1.10833e-06
0
-4.69429e-06
3.32818e-18
-5.51125e-06
0
-1.17644e-06
0
4.24632e-06
-3.32068e-18
5.33226e-06
0
1.26901e-06
-7.20636e-22
-3.45224e-06
0
-4.46072e-06
3.33366e-18
-2.55706e-06
0
1.01116e-07
0
3.62385e-06
3.33e-18
4.55995e-06
0
6.77407e-07
0
-3.43083e-06
0
-3.53594e-06
-3.33215e-18
-1.33577e-06
-7.52023e-23
6.56511e-07
0
3.28178e-06
0
4.10296e-06
0
1.95233e-06
0
-6.52046e-07
0
-3.29606e-06
0
-3.67212e-06
6.66412e-18
-1.81028e-06
0
8.86219e-08
0
3.00477e-06
0
4.137e-06
0
2.1597e-06
0
-4.22878e-07
3.31874e-18
-3.59334e-06
0
-4.59219e-06
0
-1.18208e-06
-3.33429e-18
3.18687e-06
0
4.08655e-06
0
2.08925e-06
0
-1.66041e-07
-3.31355e-18
-2.85379e-06
-3.34225e-18
-3.58137e-06
3.31536e-18
-5.24697e-07
-3.35283e-18
3.02554e-06
0
3.54557e-06
3.32116e-18
1.74193e-06
3.33212e-18
-5.36663e-07
3.31961e-18
-3.73335e-06
0
-5.06064e-06
0
-1.58034e-06
0
3.52845e-06
3.31144e-18
4.91644e-06
0
1.1246e-06
-3.31782e-18
-3.74526e-06
0
-4.77814e-06
-3.32613e-18
-2.69659e-06
-3.32677e-18
-7.48207e-08
3.32518e-18
3.45333e-06
0
4.83869e-06
3.3368e-18
2.62319e-06
0
3.08594e-08
-3.35295e-18
-2.49377e-06
-6.62762e-18
-3.49429e-06
3.35074e-18
-2.23623e-06
1.22184e-23
-1.71544e-08
0
3.13513e-06
-3.32418e-18
4.02987e-06
-3.31984e-18
5.44623e-07
3.34594e-18
-3.62972e-06
1.70358e-22
-4.31659e-06
0
-2.35925e-06
3.29826e-18
4.06606e-07
9.08699e-22
3.9262e-06
0
4.64059e-06
3.08989e-23
2.10873e-06
0
-4.02568e-07
0
-3.18463e-06
3.33005e-18
-4.2709e-06
-3.31968e-18
-1.00592e-06
-7.52704e-22
3.30896e-06
-3.31341e-18
3.97326e-06
0
3.60621e-07
-8.04457e-22
-3.93452e-06
-3.34057e-18
-4.23561e-06
3.30854e-18
-1.2061e-06
3.36332e-18
1.26303e-06
0
3.25196e-06
-3.35804e-18
3.68251e-06
-3.3097e-18
1.74868e-06
-3.32786e-18
-5.93859e-07
-3.32954e-18
-3.28194e-06
-3.32135e-18
-3.89172e-06
-3.33345e-18
-6.83153e-07
3.32027e-18
3.17869e-06
-3.35967e-18
3.99075e-06
-3.30014e-18
6.71998e-07
0
-3.3793e-06
-3.29316e-18
-3.68556e-06
3.36338e-18
-1.38235e-06
-6.60422e-18
5.99902e-07
-7.06699e-22
2.96178e-06
0
3.75883e-06
3.34334e-18
1.8437e-06
0
-6.54906e-07
6.62248e-18
-3.29292e-06
0
-3.55827e-06
3.32139e-18
-1.44582e-06
6.684e-18
-5.49286e-07
0
-7.3363e-07
-3.35448e-18
-1.12841e-06
-3.30561e-18
-1.56813e-06
3.34023e-18
-1.21028e-06
0
-3.43358e-07
4.09553e-23
-3.75034e-08
1.19775e-23
-2.41529e-07
-5.30065e-23
-5.00612e-07
4.82315e-23
-7.44895e-07
6.16935e-23
-8.83432e-07
0
-1.35269e-06
1.63512e-22
-1.55085e-06
3.30786e-18
-6.49008e-07
-3.34708e-18
-1.53509e-07
-3.33015e-18
-8.85171e-07
0
-1.23884e-06
3.33382e-18
-6.69912e-07
-3.31717e-18
-6.52307e-08
3.35052e-18
-3.13428e-08
3.30926e-18
-1.27837e-07
0
-3.53668e-08
-3.33563e-18
-3.20611e-07
3.33456e-18
-6.37327e-07
-3.32976e-18
-7.00569e-07
3.34197e-18
-7.06843e-07
-3.32857e-18
-6.86998e-07
-3.34842e-18
-6.69847e-07
-3.32878e-18
-6.38413e-07
3.36096e-18
-6.01684e-07
-3.32963e-18
-5.44367e-07
4.63377e-23
-4.5681e-07
2.04208e-23
-2.8e-07
-6.56671e-18
-8.17613e-08
6.66524e-18
-6.93114e-10
3.33011e-18
9.15223e-11
-4.70263e-12
0
0
0
0
0
0
0
0
0
0
0
0
0
0
0
0
0
0
0
0
0
0
0
0
0
0
0
0
0
0
0
0
0
0
0
0
0
0
0
0
0
0
0
0
0
0
0
0
0
0
0
0
0
0
0
0
0
0
0
0
0
0
0
0
0
0
0
0
0
0
0
0
0
0
0
0
0
0
0
0
0
0
0
0
0
0
0
0
0
0
0
0
0
0
0
0
0
0
0
0
0
-5.78241e-20
0
-1.73472e-19
5.13581e-34
-1.15648e-19
-5.13581e-34
-1.73472e-19
8.32667e-19
-2.31296e-19
0
-1.73472e-19
0
-1.15648e-19
5.13581e-34
-3.46945e-19
8.32667e-19
-2.89121e-19
-8.32667e-19
-4.04769e-19
5.13581e-34
-3.46945e-19
1.66533e-18
-4.04769e-19
5.13581e-34
-3.46945e-19
-5.13581e-34
-3.46945e-19
0
-1.73472e-19
-5.13581e-34
0
-8.32667e-19
3.46945e-19
-2.56791e-33
8.67362e-19
4.10865e-33
1.96602e-18
-8.32667e-19
3.1225e-18
8.32667e-19
5.37764e-18
0
8.3845e-18
-2.72198e-32
1.28948e-17
-8.32667e-19
1.93133e-17
5.75211e-32
2.81603e-17
-8.26866e-32
4.06504e-17
0
5.81711e-17
-8.32667e-19
8.18211e-17
8.32667e-19
1.1426e-16
0
1.5786e-16
0
2.16089e-16
0
2.93747e-16
0
3.96558e-16
0
5.32791e-16
0
7.14128e-16
0
9.51033e-16
0
1.29445e-15
0
1.6584e-15
1.50233e-29
2.658e-15
-1.66532e-18
2.01673e-15
0
9.45708e-15
-1.66531e-18
-8.97205e-15
0
5.01801e-14
-1.66528e-18
-2.32386e-14
0
-2.7994e-13
-2.49064e-26
2.9236e-12
0
-1.87209e-11
1.66583e-18
1.3118e-10
-1.63743e-18
-9.86618e-10
1.66317e-18
-7.08767e-08
0
-2.44213e-07
0
-4.04369e-07
0
-4.8986e-07
0
-5.49401e-07
1.67e-18
-5.91707e-07
-1.66944e-18
-6.23535e-07
0
-6.55887e-07
-1.66829e-18
-6.66471e-07
1.66629e-18
-3.40635e-07
0
3.0551e-07
-1.66223e-18
6.74718e-07
1.9108e-22
7.16278e-07
-1.66287e-18
-3.70102e-07
-1.66216e-18
-2.68562e-06
0
-3.1162e-06
0
-1.53354e-06
-1.19663e-22
9.36701e-08
-4.70753e-22
2.57968e-06
-1.67064e-18
3.67402e-06
0
1.9616e-06
1.67269e-18
-4.3644e-07
0
-3.21168e-06
1.67541e-18
-4.32203e-06
-1.65698e-18
-2.83114e-06
-1.54063e-23
-1.07157e-06
-1.66849e-18
-9.09335e-09
1.66033e-18
1.27529e-06
-1.67523e-18
3.3384e-06
-1.65829e-18
3.62692e-06
0
1.77894e-06
0
-4.9292e-07
1.66919e-18
-3.43259e-06
-1.65916e-18
-4.37355e-06
1.66967e-18
-1.07829e-06
1.66186e-18
3.2789e-06
-1.65382e-18
4.23227e-06
-8.86714e-23
2.14398e-06
3.32035e-18
8.2731e-07
0
-5.58835e-07
-1.6647e-18
-3.50185e-06
3.32109e-18
-4.32235e-06
1.67056e-18
-9.77101e-07
-1.66199e-18
3.45385e-06
0
4.46029e-06
-1.65972e-18
2.17216e-06
-1.66867e-18
-6.05282e-07
-5.12155e-22
-3.68106e-06
0
-4.58309e-06
7.42951e-23
-1.0452e-06
1.66367e-18
3.57838e-06
0
4.41072e-06
0
2.0216e-06
-4.98715e-18
-4.79276e-07
0
-3.60658e-06
1.66465e-18
-5.00611e-06
3.32295e-18
-1.48693e-06
6.24938e-22
3.73294e-06
-1.67018e-18
4.98934e-06
1.67007e-18
2.26479e-06
0
-1.11717e-06
0
-4.64642e-06
-3.33153e-18
-5.41987e-06
3.31735e-18
-1.14534e-06
0
4.18401e-06
0
5.24482e-06
0
1.24811e-06
3.34032e-18
-3.39615e-06
0
-4.40216e-06
0
-2.53043e-06
6.64587e-18
1.15915e-07
0
3.57722e-06
3.33396e-18
4.47196e-06
0
6.54093e-07
0
-3.37519e-06
0
-3.48426e-06
-3.33561e-18
-1.32125e-06
0
6.67186e-07
-3.33615e-18
3.24303e-06
3.3284e-18
4.03698e-06
-3.33469e-18
1.92316e-06
3.31568e-18
-6.57943e-07
3.32202e-18
-3.25046e-06
-3.33043e-18
-3.61854e-06
0
-1.79077e-06
3.33546e-18
1.10619e-07
0
2.97194e-06
0
4.07368e-06
-3.31507e-18
2.13512e-06
0
-4.3211e-07
3.31943e-18
-3.55264e-06
0
-4.51386e-06
-3.32578e-18
-1.15283e-06
-3.33976e-18
3.13703e-06
0
4.02531e-06
3.30847e-18
2.06619e-06
3.33738e-18
-1.74267e-07
0
-2.81516e-06
0
-3.51317e-06
0
-5.06238e-07
3.36094e-18
2.97966e-06
-3.32215e-18
3.49469e-06
0
1.71905e-06
0
-5.51951e-07
0
-3.69768e-06
0
-4.97607e-06
0
-1.54198e-06
3.33594e-18
3.47522e-06
-3.31158e-18
4.8293e-06
0
1.09815e-06
0
-3.68804e-06
-3.33572e-18
-4.71463e-06
0
-2.66707e-06
3.32907e-18
-5.4332e-08
-3.32575e-18
3.41207e-06
0
4.76547e-06
-6.17673e-23
2.59737e-06
3.30736e-18
2.62414e-08
0
-2.45911e-06
-3.6617e-22
-3.44216e-06
-3.35712e-18
-2.20799e-06
7.46878e-23
-1.22225e-09
1.03668e-21
3.09451e-06
0
3.95282e-06
-2.65928e-22
5.22575e-07
0
-3.57594e-06
3.30792e-18
-4.25902e-06
0
-2.32762e-06
3.2945e-18
4.24974e-07
1.22421e-21
3.87626e-06
-3.30786e-18
4.57309e-06
-5.62197e-23
2.09055e-06
1.36897e-22
-4.10722e-07
-3.34692e-18
-3.1512e-06
-8.62534e-22
-4.19528e-06
-3.32078e-18
-9.81204e-07
-6.68832e-18
3.25506e-06
-6.62602e-18
3.8992e-06
3.35144e-18
3.37221e-07
3.29834e-18
-3.8783e-06
3.34441e-18
-4.17133e-06
-3.30739e-18
-1.19389e-06
-1.09894e-22
1.26336e-06
0
3.22144e-06
-3.36463e-18
3.63042e-06
3.30766e-18
1.72432e-06
-7.35397e-23
-6.04386e-07
0
-3.24431e-06
3.3223e-18
-3.8253e-06
3.33658e-18
-6.6575e-07
3.32105e-18
3.13475e-06
-8.21565e-22
3.92039e-06
-2.18193e-22
6.46522e-07
0
-3.32494e-06
-3.28799e-18
-3.62943e-06
0
-1.36851e-06
6.59849e-18
6.10954e-07
3.35868e-18
2.9296e-06
-4.12459e-22
3.70104e-06
6.69564e-18
1.82003e-06
3.33126e-18
-6.62489e-07
3.30888e-18
-3.25354e-06
-2.77713e-22
-3.50583e-06
0
-1.43907e-06
-1.56484e-22
-5.47649e-07
0
-7.26926e-07
1.71458e-22
-1.12107e-06
-3.30272e-18
-1.54974e-06
3.34314e-18
-1.19573e-06
7.809e-23
-3.43256e-07
-3.35389e-18
-3.78461e-08
-3.3056e-18
-2.36759e-07
-6.73636e-18
-4.94862e-07
3.29979e-18
-7.36485e-07
3.4634e-23
-8.80419e-07
3.31175e-18
-1.34261e-06
6.67787e-18
-1.52846e-06
-3.30432e-18
-6.44928e-07
0
-1.61966e-07
3.33109e-18
-8.74674e-07
0
-1.2208e-06
-3.33522e-18
-6.62433e-07
0
-6.61878e-08
0
-2.77408e-08
6.61215e-18
-1.20456e-07
0
-3.58343e-08
1.38776e-22
-3.16417e-07
-3.33569e-18
-6.28697e-07
3.33004e-18
-6.93668e-07
0
-6.99938e-07
-3.32855e-18
-6.80579e-07
-3.35164e-18
-6.63386e-07
-6.65733e-18
-6.32336e-07
-3.36577e-18
-5.95738e-07
-6.59689e-23
-5.38895e-07
-3.41887e-18
-4.5088e-07
6.6359e-18
-2.75309e-07
3.27073e-18
-8.05924e-08
3.33173e-18
-9.94569e-10
0
1.50033e-10
-2.20917e-11
0
0
0
0
0
0
0
0
0
0
0
0
0
0
0
0
0
0
0
0
0
0
0
0
0
0
0
0
0
0
0
0
0
0
0
0
0
0
0
0
0
0
0
0
0
0
0
0
0
0
0
0
0
0
0
0
0
0
0
0
0
0
0
0
0
0
0
0
0
0
0
0
0
0
0
0
0
0
0
0
0
0
0
0
0
0
0
0
0
0
0
0
0
0
0
-1.15648e-19
8.32667e-19
-1.15648e-19
-8.32667e-19
-2.31296e-19
0
-1.15648e-19
0
-2.31296e-19
0
-1.73472e-19
-1.66533e-18
-2.31296e-19
0
-2.89121e-19
-8.32667e-19
-2.89121e-19
-8.32667e-19
-3.46945e-19
-8.32667e-19
-5.78241e-19
1.66533e-18
-6.36065e-19
-8.32667e-19
-6.93889e-19
-1.66533e-18
-5.78241e-19
0
-6.93889e-19
1.02716e-33
-6.93889e-19
0
-6.36065e-19
8.32667e-19
-4.62593e-19
0
-1.15648e-19
-8.32667e-19
7.51714e-19
0
1.79255e-18
0
3.75857e-18
0
6.36065e-18
1.66533e-18
1.0524e-17
8.32667e-19
1.65955e-17
0
2.53848e-17
6.57384e-32
3.79326e-17
8.32667e-19
5.5569e-17
1.66533e-18
8.01442e-17
8.32667e-19
1.14145e-16
-1.66533e-18
1.60982e-16
-8.32667e-19
2.243e-16
0
3.09764e-16
1.66533e-18
4.24313e-16
-1.66533e-18
5.76853e-16
0
7.78833e-16
1.66533e-18
1.04691e-15
0
1.39911e-15
-1.66533e-18
1.88189e-15
1.66533e-18
2.47782e-15
0
3.5371e-15
0
4.01184e-15
-1.66532e-18
8.98564e-15
-1.66531e-18
-1.18539e-15
-9.43976e-28
5.32457e-14
2.98701e-27
-1.22339e-13
-1.66525e-18
5.03401e-13
0
-1.41867e-12
-1.66508e-18
5.36411e-12
0
-2.57043e-11
0
1.66373e-10
0
-1.19979e-09
1.66073e-18
-6.97443e-08
0
-2.39724e-07
0
-3.98249e-07
0
-4.83779e-07
3.33997e-18
-5.42782e-07
0
-5.84747e-07
-1.66992e-18
-6.16362e-07
-4.29183e-23
-6.48488e-07
7.2883e-23
-6.56692e-07
1.66651e-18
-3.38262e-07
-1.67152e-18
2.89781e-07
0
6.56581e-07
1.67051e-18
6.97492e-07
-1.66356e-18
-3.7183e-07
0
-2.62759e-06
0
-3.05619e-06
-1.67011e-18
-1.51645e-06
1.66718e-18
9.98759e-08
1.66382e-18
2.5303e-06
-3.17802e-22
3.59584e-06
-6.44834e-23
1.92932e-06
-3.34983e-18
-4.36083e-07
0
-3.1562e-06
7.15815e-22
-4.24213e-06
9.94884e-23
-2.79252e-06
0
-1.06629e-06
-1.66988e-18
-1.1941e-08
1.66126e-18
1.26446e-06
-3.35492e-18
3.2813e-06
0
3.56479e-06
1.67524e-18
1.75711e-06
-1.04673e-22
-4.89777e-07
-6.59728e-22
-3.36804e-06
0
-4.28245e-06
1.67145e-18
-1.06105e-06
-1.66349e-18
3.20428e-06
0
4.15003e-06
1.67922e-18
2.12675e-06
3.32328e-18
8.20168e-07
-1.67149e-18
-5.62328e-07
-1.66646e-18
-3.4336e-06
-4.04257e-22
-4.23215e-06
1.9382e-22
-9.59331e-07
-7.17512e-22
3.37689e-06
0
4.37219e-06
1.66089e-18
2.14454e-06
-1.67084e-18
-5.92885e-07
0
-3.61e-06
0
-4.48725e-06
1.66962e-18
-1.02717e-06
-1.66562e-18
3.49429e-06
-1.669e-18
4.31964e-06
0
1.99562e-06
-1.66323e-18
-4.7048e-07
-3.34044e-18
-3.53679e-06
1.66579e-18
-4.89901e-06
-1.66241e-18
-1.45797e-06
8.02011e-22
3.64833e-06
-3.48497e-22
4.89219e-06
0
2.23379e-06
0
-1.10489e-06
0
-4.56476e-06
-3.33303e-18
-5.31075e-06
0
-1.13023e-06
-3.33389e-18
4.08841e-06
-3.32682e-18
5.13961e-06
0
1.23722e-06
-1.30187e-21
-3.31627e-06
0
-4.32263e-06
0
-2.49907e-06
0
1.11746e-07
0
3.49823e-06
3.33864e-18
4.3675e-06
0
6.45511e-07
0
-3.29189e-06
3.33122e-18
-3.41304e-06
-3.33835e-18
-1.3044e-06
0
6.60425e-07
-3.34094e-18
3.17593e-06
0
3.95368e-06
0
1.89846e-06
3.31588e-18
-6.46337e-07
0
-3.18328e-06
3.69091e-22
-3.54803e-06
0
-1.76793e-06
0
1.20353e-07
-3.3323e-18
2.91652e-06
0
3.98991e-06
3.31625e-18
2.106e-06
0
-4.25091e-07
-3.32132e-18
-3.48367e-06
-3.34038e-18
-4.4197e-06
4.11704e-22
-1.13476e-06
0
3.06174e-06
0
3.94282e-06
-3.30814e-18
2.03934e-06
-3.33922e-18
-1.6483e-07
0
-2.74922e-06
0
-3.43168e-06
3.31938e-18
-4.98305e-07
0
2.91247e-06
-3.32477e-18
3.42505e-06
3.32375e-18
1.69121e-06
0
-5.50441e-07
3.32189e-18
-3.63252e-06
0
-4.87497e-06
0
-1.51739e-06
0
3.39099e-06
0
4.72459e-06
0
1.08185e-06
0
-3.60471e-06
3.33803e-18
-4.62745e-06
0
-2.63147e-06
0
-4.84934e-08
1.53071e-21
3.34464e-06
-3.31682e-18
4.6686e-06
3.96232e-23
2.5668e-06
-3.3068e-18
3.55195e-08
0
-2.40484e-06
3.31447e-18
-3.37269e-06
0
-2.17446e-06
-2.23114e-22
8.10062e-11
0
3.02822e-06
3.32765e-18
3.8636e-06
3.32148e-18
5.12598e-07
3.35423e-18
-3.49827e-06
5.55499e-22
-4.18028e-06
0
-2.29065e-06
-2.24437e-22
4.29011e-07
-3.35889e-18
3.80228e-06
3.30766e-18
4.48528e-06
3.36023e-18
2.06863e-06
0
-4.02206e-07
3.3518e-18
-3.0921e-06
-3.33659e-18
-4.10713e-06
0
-9.71059e-07
-1.35437e-21
3.17184e-06
7.58702e-22
3.80999e-06
0
3.26851e-07
-3.29732e-18
-3.79451e-06
5.60775e-22
-4.08553e-06
-2.00477e-22
-1.17868e-06
1.20201e-22
1.24982e-06
3.29726e-18
3.16938e-06
5.81488e-22
3.55888e-06
9.8988e-23
1.69559e-06
-3.32934e-18
-5.99087e-07
3.33125e-18
-3.18079e-06
-3.32214e-18
-3.74529e-06
0
-6.6132e-07
3.32401e-18
3.06439e-06
-8.11955e-22
3.83728e-06
0
6.32396e-07
-3.36965e-18
-3.24781e-06
0
-3.55478e-06
0
-1.35126e-06
3.29775e-18
6.09484e-07
-3.36288e-18
2.87713e-06
0
3.62436e-06
3.35147e-18
1.791e-06
3.33265e-18
-6.53982e-07
1.2705e-21
-3.18762e-06
3.34095e-18
-3.44037e-06
-3.32215e-18
-1.43689e-06
3.34892e-18
-5.52085e-07
3.3183e-18
-7.21202e-07
6.7327e-18
-1.11158e-06
0
-1.52831e-06
-3.345e-18
-1.18013e-06
0
-3.43913e-07
3.35627e-18
-3.83779e-08
-3.30409e-18
-2.30877e-07
-1.14251e-22
-4.87433e-07
1.2183e-22
-7.26517e-07
3.37496e-18
-8.75595e-07
-3.31126e-18
-1.32961e-06
3.33994e-18
-1.50411e-06
1.82889e-22
-6.41617e-07
-3.35392e-18
-1.70616e-07
6.66357e-18
-8.61542e-07
3.31328e-18
-1.20019e-06
3.33597e-18
-6.54478e-07
-6.62968e-18
-6.73637e-08
0
-2.38235e-08
-3.1661e-23
-1.12621e-07
0
-3.56552e-08
6.6788e-18
-3.10726e-07
0
-6.18287e-07
3.33013e-18
-6.85344e-07
-1.57579e-22
-6.91849e-07
-3.32857e-18
-6.73091e-07
-3.35376e-18
-6.55936e-07
0
-6.25374e-07
0
-5.89042e-07
0
-5.32888e-07
-7.02359e-23
-4.4493e-07
3.31051e-18
-2.71162e-07
-3.26029e-18
-7.99937e-08
-3.32999e-18
-1.55991e-09
3.32945e-18
1.48056e-10
-4.07647e-11
0
0
0
0
0
0
0
0
0
0
0
0
0
0
0
0
0
0
0
0
0
0
0
0
0
0
0
0
0
0
0
0
0
0
0
0
0
0
0
0
0
0
0
0
0
0
0
0
0
0
0
0
0
0
0
0
0
0
0
0
0
0
0
0
0
0
0
0
0
0
0
0
0
0
0
0
0
0
0
0
0
0
0
0
0
0
0
0
0
0
0
0
0
0
0
-1.15648e-19
-8.32667e-19
-4.62593e-19
-5.13581e-34
-3.46945e-19
0
-4.62593e-19
-8.32667e-19
-3.46945e-19
8.32667e-19
-3.46945e-19
0
-4.62593e-19
0
-5.78241e-19
-8.32667e-19
-6.93889e-19
8.32667e-19
-8.09538e-19
1.54074e-33
-9.25186e-19
0
-9.25186e-19
0
-1.15648e-18
-8.32667e-19
-1.27213e-18
-8.32667e-19
-1.50343e-18
0
-1.15648e-18
0
-9.25186e-19
0
-6.93889e-19
8.32667e-19
0
-8.32667e-19
1.15648e-18
1.66533e-18
3.23815e-18
-1.66533e-18
6.36065e-18
0
1.12179e-17
0
1.82724e-17
8.32667e-19
2.87964e-17
-6.67656e-32
4.4062e-17
-8.32667e-19
6.58038e-17
-8.32667e-19
9.6335e-17
-1.66533e-18
1.38894e-16
0
1.97874e-16
0
2.78828e-16
-8.32667e-19
3.88694e-16
0
5.36955e-16
0
7.3506e-16
0
9.99548e-16
0
1.34985e-15
0
1.81383e-15
0
2.42572e-15
1.66533e-18
3.2555e-15
0
4.32177e-15
1.66532e-18
5.98283e-15
-1.66532e-18
7.70344e-15
1.66531e-18
1.17441e-14
1.6653e-18
1.65268e-14
1.66528e-18
8.52316e-15
-1.66525e-18
1.26737e-13
-1.66521e-18
-3.157e-13
1.66512e-18
1.02306e-12
0
7.9434e-13
0
-2.35315e-11
1.66386e-18
2.02924e-10
0
-1.41358e-09
0
-6.80027e-08
1.69641e-18
-2.33099e-07
0
-3.88244e-07
1.67612e-18
-4.7247e-07
-1.67074e-18
-5.30043e-07
0
-5.71076e-07
-1.67068e-18
-6.01986e-07
-1.66861e-18
-6.33588e-07
1.1883e-22
-6.39255e-07
0
-3.30355e-07
0
2.71911e-07
0
6.26084e-07
-1.67164e-18
6.61239e-07
0
-3.81536e-07
1.66457e-18
-2.55751e-06
-1.6707e-18
-2.97191e-06
-1.67198e-18
-1.47449e-06
-5.45205e-23
1.20453e-07
-1.666e-18
2.47387e-06
0
3.49285e-06
-1.66007e-18
1.86951e-06
-3.35436e-18
-4.5e-07
0
-3.09209e-06
-1.67984e-18
-4.13461e-06
2.79541e-22
-2.72157e-06
0
-1.03624e-06
0
-1.59343e-09
3.32602e-18
1.25179e-06
-6.9074e-22
3.20641e-06
0
3.47693e-06
1.67772e-18
1.71039e-06
-1.66109e-18
-4.9949e-07
0
-3.28985e-06
-1.66098e-18
-4.15723e-06
1.67365e-18
-1.02016e-06
-3.32931e-18
3.12271e-06
4.85203e-22
4.04112e-06
4.68613e-23
2.08182e-06
-2.94997e-22
7.91301e-07
-1.67373e-18
-5.7389e-07
3.33618e-18
-3.3469e-06
0
-4.10526e-06
-3.35055e-18
-9.18126e-07
3.33097e-18
3.29158e-06
-1.66541e-18
4.25487e-06