/*--------------------------------*- C++ -*----------------------------------*\
| =========                 |                                                 |
| \\      /  F ield         | foam-extend: Open Source CFD                    |
|  \\    /   O peration     | Version:     3.2                                |
|   \\  /    A nd           | Web:         http://www.foam-extend.org         |
|    \\/     M anipulation  | For copyright notice see file Copyright         |
\*---------------------------------------------------------------------------*/
FoamFile
{
    version     2.0;
    format      ascii;
    class       pointVectorField;
    location    "160";
    object      newPoints;
}
// * * * * * * * * * * * * * * * * * * * * * * * * * * * * * * * * * * * * * //

dimensions      [0 1 0 0 0 0 0];

internalField   nonuniform List<vector> 
602
(
(0 0 0)
(0.05 0 0)
(0.1 0 0)
(0.15 0 0)
(0.2 0 0)
(0.25 0 0)
(0.3 0 0)
(0.35 0 0)
(0.4 0 0)
(0.45 0 0)
(0.5 0 0)
(0.55 0 0)
(0.6 0 0)
(0.65 0 0)
(0.7 0 0)
(0.75 0 0)
(0.8 0 0)
(0.85 0 0)
(0.9 0 0)
(0.95 0 0)
(1 0 0)
(1.05 0 0)
(1.1 0 0)
(1.15 0 0)
(1.2 0 0)
(1.25 0 0)
(1.3 0 0)
(1.35 0 0)
(1.4 0 0)
(1.45 0 0)
(1.5 0 0)
(1.55 0 0)
(1.6 0 0)
(1.65 0 0)
(1.7 0 0)
(1.75 0 0)
(1.8 0 0)
(1.85 0 0)
(1.9 0 0)
(1.95 0 0)
(2 0 0)
(2.05 0 0)
(2.1 0 0)
(2.15 0 0)
(2.2 0 0)
(2.25 0 0)
(2.3 0 0)
(2.35 0 0)
(2.4 0 0)
(2.45 0 0)
(2.5 0 0)
(2.55 0 0)
(2.6 0 0)
(2.65 0 0)
(2.7 0 0)
(2.75 0 0)
(2.8 0 0)
(2.85 0 0)
(2.9 0 0)
(2.95 0 0)
(3 0 0)
(3.05 0 0)
(3.1 0 0)
(3.15 0 0)
(3.2 0 0)
(3.25 0 0)
(3.3 0 0)
(3.35 0 0)
(3.4 0 0)
(3.45 0 0)
(3.5 0 0)
(3.55 0 0)
(3.6 0 0)
(3.65 0 0)
(3.7 0 0)
(3.75 0 0)
(3.8 0 0)
(3.85 0 0)
(3.9 0 0)
(3.95 0 0)
(4 0 0)
(4.05 0 0)
(4.1 0 0)
(4.15 0 0)
(4.2 0 0)
(4.25 0 0)
(4.3 0 0)
(4.35 0 0)
(4.4 0 0)
(4.45 0 0)
(4.5 0 0)
(4.55 0 0)
(4.6 0 0)
(4.65 0 0)
(4.7 0 0)
(4.75 0 0)
(4.8 0 0)
(4.85 0 0)
(4.9 0 0)
(4.95 0 0)
(5 0 -0.00447432)
(5.05 0 -0.0107836)
(5.1 0 -0.0144593)
(5.15 0 -0.0180308)
(5.2 0 -0.0208819)
(5.25 0 -0.0235081)
(5.3 0 -0.0257988)
(5.35 0 -0.0277571)
(5.4 0 -0.0295854)
(5.45 0 -0.0311815)
(5.5 0 -0.0327127)
(5.55 0 -0.0335088)
(5.6 0 -0.0347148)
(5.65 0 -0.0353973)
(5.7 0 -0.0364143)
(5.75 0 -0.0379584)
(5.8 0 -0.0392643)
(5.85 0 -0.0400709)
(5.9 0 -0.0407148)
(5.95 0 -0.0415088)
(6 0 -0.0414848)
(6.05 0 -0.0423701)
(6.1 0 -0.0422395)
(6.15 0 -0.042898)
(6.2 0 -0.042139)
(6.25 0 -0.0423978)
(6.3 0 -0.0434369)
(6.35 0 -0.0439661)
(6.4 0 -0.0450476)
(6.45 0 -0.0447528)
(6.5 0 -0.0452747)
(6.55 0 -0.0446656)
(6.6 0 -0.0448168)
(6.65 0 -0.0442296)
(6.7 0 -0.0442734)
(6.75 0 -0.0435389)
(6.8 0 -0.0431727)
(6.85 0 -0.0443912)
(6.9 0 -0.0441258)
(6.95 0 -0.0443785)
(7 0 -0.0438122)
(7.05 0 -0.0430527)
(7.1 0 -0.0427358)
(7.15 0 -0.0415989)
(7.2 0 -0.040941)
(7.25 0 -0.0408042)
(7.3 0 -0.0413706)
(7.35 0 -0.0412529)
(7.4 0 -0.0404727)
(7.45 0 -0.0400851)
(7.5 0 -0.0391907)
(7.55 0 -0.0384991)
(7.6 0 -0.0376219)
(7.65 0 -0.0379277)
(7.7 0 -0.0383955)
(7.75 0 -0.0380907)
(7.8 0 -0.0377111)
(7.85 0 -0.0378202)
(7.9 0 -0.0384457)
(7.95 0 -0.0383564)
(8 0 -0.0374303)
(8.05 0 -0.0366394)
(8.1 0 -0.0364818)
(8.15 0 -0.0361148)
(8.2 0 -0.0365792)
(8.25 0 -0.037064)
(8.3 0 -0.0381287)
(8.35 0 -0.0386493)
(8.4 0 -0.0382536)
(8.45 0 -0.0381839)
(8.5 0 -0.0373998)
(8.55 0 -0.0370599)
(8.6 0 -0.0366501)
(8.65 0 -0.0360698)
(8.7 0 -0.0360112)
(8.75 0 -0.0371175)
(8.8 0 -0.0380249)
(8.85 0 -0.0383255)
(8.9 0 -0.0382738)
(8.95 0 -0.0378914)
(9 0 -0.0377238)
(9.05 0 -0.0372505)
(9.1 0 -0.0376436)
(9.15 0 -0.0383998)
(9.2 0 -0.038909)
(9.25 0 -0.0388391)
(9.3 0 -0.0383535)
(9.35 0 -0.0379771)
(9.4 0 -0.0379085)
(9.45 0 -0.0388203)
(9.5 0 -0.0384318)
(9.55 0 -0.0385083)
(9.6 0 -0.0379953)
(9.65 0 -0.0377529)
(9.7 0 -0.0369468)
(9.75 0 -0.0365)
(9.8 0 -0.0374838)
(9.85 0 -0.0378234)
(9.9 0 -0.0391972)
(9.95 0 -0.0393298)
(10 0 -0.0402964)
(10.05 0 -0.0391454)
(10.1 0 -0.0385554)
(10.15 0 -0.0384613)
(10.2 0 -0.0378853)
(10.25 0 -0.037809)
(10.3 0 -0.0366192)
(10.35 0 -0.0367182)
(10.4 0 -0.0365066)
(10.45 0 -0.0375384)
(10.5 0 -0.0367868)
(10.55 0 -0.0366966)
(10.6 0 -0.0361512)
(10.65 0 -0.0356836)
(10.7 0 -0.0353174)
(10.75 0 -0.0352743)
(10.8 0 -0.0362984)
(10.85 0 -0.0366921)
(10.9 0 -0.0385912)
(10.95 0 -0.0384508)
(11 0 -0.0392527)
(11.05 0 -0.0382529)
(11.1 0 -0.039299)
(11.15 0 -0.038602)
(11.2 0 -0.0381747)
(11.25 0 -0.0383798)
(11.3 0 -0.0371745)
(11.35 0 -0.0374635)
(11.4 0 -0.0360648)
(11.45 0 -0.0371238)
(11.5 0 -0.0364734)
(11.55 0 -0.037242)
(11.6 0 -0.0362762)
(11.65 0 -0.0371365)
(11.7 0 -0.0368386)
(11.75 0 -0.0363015)
(11.8 0 -0.036416)
(11.85 0 -0.0356058)
(11.9 0 -0.0358661)
(11.95 0 -0.0346596)
(12 0 -0.0355748)
(12.05 0 -0.0355668)
(12.1 0 -0.0370681)
(12.15 0 -0.0358389)
(12.2 0 -0.036843)
(12.25 0 -0.0355138)
(12.3 0 -0.0356709)
(12.35 0 -0.0358945)
(12.4 0 -0.0360364)
(12.45 0 -0.0367635)
(12.5 0 -0.0371446)
(12.55 0 -0.0380855)
(12.6 0 -0.0365878)
(12.65 0 -0.0373828)
(12.7 0 -0.0358211)
(12.75 0 -0.0370832)
(12.8 0 -0.0356283)
(12.85 0 -0.0362491)
(12.9 0 -0.0350121)
(12.95 0 -0.0356474)
(13 0 -0.0351303)
(13.05 0 -0.0345313)
(13.1 0 -0.0354647)
(13.15 0 -0.0357263)
(13.2 0 -0.0364729)
(13.25 0 -0.0361544)
(13.3 0 -0.0366878)
(13.35 0 -0.0352453)
(13.4 0 -0.0357725)
(13.45 0 -0.0354904)
(13.5 0 -0.0367172)
(13.55 0 -0.0362856)
(13.6 0 -0.0373995)
(13.65 0 -0.0360203)
(13.7 0 -0.0367627)
(13.75 0 -0.034983)
(13.8 0 -0.034491)
(13.85 0 -0.0334768)
(13.9 0 -0.0341802)
(13.95 0 -0.0333512)
(14 0 -0.0324232)
(14.05 0 -0.0326341)
(14.1 0 -0.0325833)
(14.15 0 -0.0335053)
(14.2 0 -0.0327925)
(14.25 0 -0.0337657)
(14.3 0 -0.0330778)
(14.35 0 -0.0319481)
(14.4 0 -0.030623)
(14.45 0 -0.0294477)
(14.5 0 -0.0275078)
(14.55 0 -0.0258656)
(14.6 0 -0.0230778)
(14.65 0 -0.0207013)
(14.7 0 -0.0165045)
(14.75 0 -0.0128662)
(14.8 0 -0.00488677)
(14.85 0 0)
(14.9 0 0)
(14.95 0 0)
(15 0 0)
(0 0.02 0)
(0.05 0.02 0)
(0.1 0.02 0)
(0.15 0.02 0)
(0.2 0.02 0)
(0.25 0.02 0)
(0.3 0.02 0)
(0.35 0.02 0)
(0.4 0.02 0)
(0.45 0.02 0)
(0.5 0.02 0)
(0.55 0.02 0)
(0.6 0.02 0)
(0.65 0.02 0)
(0.7 0.02 0)
(0.75 0.02 0)
(0.8 0.02 0)
(0.85 0.02 0)
(0.9 0.02 0)
(0.95 0.02 0)
(1 0.02 0)
(1.05 0.02 0)
(1.1 0.02 0)
(1.15 0.02 0)
(1.2 0.02 0)
(1.25 0.02 0)
(1.3 0.02 0)
(1.35 0.02 0)
(1.4 0.02 0)
(1.45 0.02 0)
(1.5 0.02 0)
(1.55 0.02 0)
(1.6 0.02 0)
(1.65 0.02 0)
(1.7 0.02 0)
(1.75 0.02 0)
(1.8 0.02 0)
(1.85 0.02 0)
(1.9 0.02 0)
(1.95 0.02 0)
(2 0.02 0)
(2.05 0.02 0)
(2.1 0.02 0)
(2.15 0.02 0)
(2.2 0.02 0)
(2.25 0.02 0)
(2.3 0.02 0)
(2.35 0.02 0)
(2.4 0.02 0)
(2.45 0.02 0)
(2.5 0.02 0)
(2.55 0.02 0)
(2.6 0.02 0)
(2.65 0.02 0)
(2.7 0.02 0)
(2.75 0.02 0)
(2.8 0.02 0)
(2.85 0.02 0)
(2.9 0.02 0)
(2.95 0.02 0)
(3 0.02 0)
(3.05 0.02 0)
(3.1 0.02 0)
(3.15 0.02 0)
(3.2 0.02 0)
(3.25 0.02 0)
(3.3 0.02 0)
(3.35 0.02 0)
(3.4 0.02 0)
(3.45 0.02 0)
(3.5 0.02 0)
(3.55 0.02 0)
(3.6 0.02 0)
(3.65 0.02 0)
(3.7 0.02 0)
(3.75 0.02 0)
(3.8 0.02 0)
(3.85 0.02 0)
(3.9 0.02 0)
(3.95 0.02 0)
(4 0.02 0)
(4.05 0.02 0)
(4.1 0.02 0)
(4.15 0.02 0)
(4.2 0.02 0)
(4.25 0.02 0)
(4.3 0.02 0)
(4.35 0.02 0)
(4.4 0.02 0)
(4.45 0.02 0)
(4.5 0.02 0)
(4.55 0.02 0)
(4.6 0.02 0)
(4.65 0.02 0)
(4.7 0.02 0)
(4.75 0.02 0)
(4.8 0.02 0)
(4.85 0.02 0)
(4.9 0.02 0)
(4.95 0.02 0)
(5 0.02 -0.00447432)
(5.05 0.02 -0.0107836)
(5.1 0.02 -0.0144593)
(5.15 0.02 -0.0180308)
(5.2 0.02 -0.0208819)
(5.25 0.02 -0.0235081)
(5.3 0.02 -0.0257988)
(5.35 0.02 -0.0277571)
(5.4 0.02 -0.0295854)
(5.45 0.02 -0.0311815)
(5.5 0.02 -0.0327127)
(5.55 0.02 -0.0335088)
(5.6 0.02 -0.0347148)
(5.65 0.02 -0.0353973)
(5.7 0.02 -0.0364143)
(5.75 0.02 -0.0379584)
(5.8 0.02 -0.0392643)
(5.85 0.02 -0.0400709)
(5.9 0.02 -0.0407148)
(5.95 0.02 -0.0415088)
(6 0.02 -0.0414848)
(6.05 0.02 -0.0423701)
(6.1 0.02 -0.0422395)
(6.15 0.02 -0.042898)
(6.2 0.02 -0.042139)
(6.25 0.02 -0.0423978)
(6.3 0.02 -0.0434369)
(6.35 0.02 -0.0439661)
(6.4 0.02 -0.0450476)
(6.45 0.02 -0.0447528)
(6.5 0.02 -0.0452747)
(6.55 0.02 -0.0446656)
(6.6 0.02 -0.0448168)
(6.65 0.02 -0.0442296)
(6.7 0.02 -0.0442734)
(6.75 0.02 -0.0435389)
(6.8 0.02 -0.0431727)
(6.85 0.02 -0.0443912)
(6.9 0.02 -0.0441258)
(6.95 0.02 -0.0443785)
(7 0.02 -0.0438122)
(7.05 0.02 -0.0430527)
(7.1 0.02 -0.0427358)
(7.15 0.02 -0.0415989)
(7.2 0.02 -0.040941)
(7.25 0.02 -0.0408042)
(7.3 0.02 -0.0413706)
(7.35 0.02 -0.0412529)
(7.4 0.02 -0.0404727)
(7.45 0.02 -0.0400851)
(7.5 0.02 -0.0391907)
(7.55 0.02 -0.0384991)
(7.6 0.02 -0.0376219)
(7.65 0.02 -0.0379277)
(7.7 0.02 -0.0383955)
(7.75 0.02 -0.0380907)
(7.8 0.02 -0.0377111)
(7.85 0.02 -0.0378202)
(7.9 0.02 -0.0384457)
(7.95 0.02 -0.0383564)
(8 0.02 -0.0374303)
(8.05 0.02 -0.0366394)
(8.1 0.02 -0.0364818)
(8.15 0.02 -0.0361148)
(8.2 0.02 -0.0365792)
(8.25 0.02 -0.037064)
(8.3 0.02 -0.0381287)
(8.35 0.02 -0.0386493)
(8.4 0.02 -0.0382536)
(8.45 0.02 -0.0381839)
(8.5 0.02 -0.0373998)
(8.55 0.02 -0.0370599)
(8.6 0.02 -0.0366501)
(8.65 0.02 -0.0360698)
(8.7 0.02 -0.0360112)
(8.75 0.02 -0.0371175)
(8.8 0.02 -0.0380249)
(8.85 0.02 -0.0383255)
(8.9 0.02 -0.0382738)
(8.95 0.02 -0.0378914)
(9 0.02 -0.0377238)
(9.05 0.02 -0.0372505)
(9.1 0.02 -0.0376436)
(9.15 0.02 -0.0383998)
(9.2 0.02 -0.038909)
(9.25 0.02 -0.0388391)
(9.3 0.02 -0.0383535)
(9.35 0.02 -0.0379771)
(9.4 0.02 -0.0379085)
(9.45 0.02 -0.0388203)
(9.5 0.02 -0.0384318)
(9.55 0.02 -0.0385083)
(9.6 0.02 -0.0379953)
(9.65 0.02 -0.0377529)
(9.7 0.02 -0.0369468)
(9.75 0.02 -0.0365)
(9.8 0.02 -0.0374838)
(9.85 0.02 -0.0378234)
(9.9 0.02 -0.0391972)
(9.95 0.02 -0.0393298)
(10 0.02 -0.0402964)
(10.05 0.02 -0.0391454)
(10.1 0.02 -0.0385554)
(10.15 0.02 -0.0384613)
(10.2 0.02 -0.0378853)
(10.25 0.02 -0.037809)
(10.3 0.02 -0.0366192)
(10.35 0.02 -0.0367182)
(10.4 0.02 -0.0365066)
(10.45 0.02 -0.0375384)
(10.5 0.02 -0.0367868)
(10.55 0.02 -0.0366966)
(10.6 0.02 -0.0361512)
(10.65 0.02 -0.0356836)
(10.7 0.02 -0.0353174)
(10.75 0.02 -0.0352743)
(10.8 0.02 -0.0362984)
(10.85 0.02 -0.0366921)
(10.9 0.02 -0.0385912)
(10.95 0.02 -0.0384508)
(11 0.02 -0.0392527)
(11.05 0.02 -0.0382529)
(11.1 0.02 -0.039299)
(11.15 0.02 -0.038602)
(11.2 0.02 -0.0381747)
(11.25 0.02 -0.0383798)
(11.3 0.02 -0.0371745)
(11.35 0.02 -0.0374635)
(11.4 0.02 -0.0360648)
(11.45 0.02 -0.0371238)
(11.5 0.02 -0.0364734)
(11.55 0.02 -0.037242)
(11.6 0.02 -0.0362762)
(11.65 0.02 -0.0371365)
(11.7 0.02 -0.0368386)
(11.75 0.02 -0.0363015)
(11.8 0.02 -0.036416)
(11.85 0.02 -0.0356058)
(11.9 0.02 -0.0358661)
(11.95 0.02 -0.0346596)
(12 0.02 -0.0355748)
(12.05 0.02 -0.0355668)
(12.1 0.02 -0.0370681)
(12.15 0.02 -0.0358389)
(12.2 0.02 -0.036843)
(12.25 0.02 -0.0355138)
(12.3 0.02 -0.0356709)
(12.35 0.02 -0.0358945)
(12.4 0.02 -0.0360364)
(12.45 0.02 -0.0367635)
(12.5 0.02 -0.0371446)
(12.55 0.02 -0.0380855)
(12.6 0.02 -0.0365878)
(12.65 0.02 -0.0373828)
(12.7 0.02 -0.0358211)
(12.75 0.02 -0.0370832)
(12.8 0.02 -0.0356283)
(12.85 0.02 -0.0362491)
(12.9 0.02 -0.0350121)
(12.95 0.02 -0.0356474)
(13 0.02 -0.0351303)
(13.05 0.02 -0.0345313)
(13.1 0.02 -0.0354647)
(13.15 0.02 -0.0357263)
(13.2 0.02 -0.0364729)
(13.25 0.02 -0.0361544)
(13.3 0.02 -0.0366878)
(13.35 0.02 -0.0352453)
(13.4 0.02 -0.0357725)
(13.45 0.02 -0.0354904)
(13.5 0.02 -0.0367172)
(13.55 0.02 -0.0362856)
(13.6 0.02 -0.0373995)
(13.65 0.02 -0.0360203)
(13.7 0.02 -0.0367627)
(13.75 0.02 -0.034983)
(13.8 0.02 -0.034491)
(13.85 0.02 -0.0334768)
(13.9 0.02 -0.0341802)
(13.95 0.02 -0.0333512)
(14 0.02 -0.0324232)
(14.05 0.02 -0.0326341)
(14.1 0.02 -0.0325833)
(14.15 0.02 -0.0335053)
(14.2 0.02 -0.0327925)
(14.25 0.02 -0.0337657)
(14.3 0.02 -0.0330778)
(14.35 0.02 -0.0319481)
(14.4 0.02 -0.030623)
(14.45 0.02 -0.0294477)
(14.5 0.02 -0.0275078)
(14.55 0.02 -0.0258656)
(14.6 0.02 -0.0230778)
(14.65 0.02 -0.0207013)
(14.7 0.02 -0.0165045)
(14.75 0.02 -0.0128662)
(14.8 0.02 -0.00488677)
(14.85 0.02 0)
(14.9 0.02 0)
(14.95 0.02 0)
(15 0.02 0)
)
;

boundaryField
{
    inlet
    {
        type            zeroGradient;
    }
    outlet
    {
        type            zeroGradient;
    }
    sideWall
    {
        type            empty;
    }
    bed
    {
        type            zeroGradient;
    }
    topWall
    {
        type            zeroGradient;
    }
}


// ************************************************************************* //
