/*--------------------------------*- C++ -*----------------------------------*\
| =========                 |                                                 |
| \\      /  F ield         | foam-extend: Open Source CFD                    |
|  \\    /   O peration     | Version:     3.2                                |
|   \\  /    A nd           | Web:         http://www.foam-extend.org         |
|    \\/     M anipulation  | For copyright notice see file Copyright         |
\*---------------------------------------------------------------------------*/
FoamFile
{
    version     2.0;
    format      ascii;
    class       volScalarField;
    location    "160";
    object      nut;
}
// * * * * * * * * * * * * * * * * * * * * * * * * * * * * * * * * * * * * * //

dimensions      [0 2 -1 0 0 0 0];

internalField   nonuniform List<scalar> 
96000
(
0.000133293
0.000106227
8.82923e-05
7.89945e-05
7.59941e-05
7.48668e-05
7.4095e-05
7.33396e-05
7.25384e-05
7.17134e-05
7.09296e-05
7.01954e-05
6.95099e-05
6.88752e-05
6.829e-05
6.77496e-05
6.72455e-05
6.67746e-05
6.63458e-05
6.60833e-05
6.5837e-05
6.55953e-05
6.53569e-05
6.51256e-05
6.4904e-05
6.46899e-05
6.44826e-05
6.42797e-05
6.40846e-05
6.38958e-05
6.37145e-05
6.35372e-05
6.33657e-05
6.31983e-05
6.30368e-05
6.28806e-05
6.27281e-05
6.25806e-05
6.24356e-05
6.22954e-05
6.21592e-05
6.20264e-05
6.18975e-05
6.17707e-05
6.16481e-05
6.15273e-05
6.14114e-05
6.12964e-05
6.11857e-05
6.10761e-05
6.097e-05
6.08652e-05
6.07645e-05
6.06642e-05
6.05682e-05
6.04716e-05
6.03799e-05
6.0287e-05
6.01932e-05
6.01006e-05
6.00102e-05
5.99218e-05
5.98356e-05
5.97511e-05
5.9669e-05
5.95887e-05
5.95105e-05
5.94342e-05
5.936e-05
5.9288e-05
5.92182e-05
5.91508e-05
5.9086e-05
5.90237e-05
5.8964e-05
5.8908e-05
5.88547e-05
5.8806e-05
5.87609e-05
5.87218e-05
5.86866e-05
5.86601e-05
5.86384e-05
5.86282e-05
5.86282e-05
5.86314e-05
5.86522e-05
5.86979e-05
5.87527e-05
5.88475e-05
5.89369e-05
5.91163e-05
5.92752e-05
5.95669e-05
5.99132e-05
6.04388e-05
6.14647e-05
6.10988e-05
6.8543e-05
5.95595e-05
4.73476e-05
4.69411e-05
4.74777e-05
4.75505e-05
4.91269e-05
4.90409e-05
4.9867e-05
4.98654e-05
5.0586e-05
4.95933e-05
5.15319e-05
5.17166e-05
5.11247e-05
5.25001e-05
4.871e-05
4.814e-05
4.89107e-05
5.2189e-05
4.91925e-05
5.28731e-05
5.00219e-05
5.09676e-05
4.97895e-05
5.05758e-05
5.54115e-05
4.93773e-05
5.02476e-05
4.76514e-05
5.08901e-05
5.09617e-05
5.07162e-05
5.11014e-05
5.04515e-05
5.18071e-05
5.1256e-05
5.65513e-05
4.88459e-05
4.75111e-05
4.99958e-05
4.83465e-05
5.4005e-05
5.04135e-05
5.39126e-05
5.60516e-05
5.27134e-05
4.97438e-05
4.86618e-05
5.19229e-05
5.22883e-05
5.38432e-05
5.53232e-05
5.54363e-05
5.41229e-05
4.98099e-05
5.06535e-05
5.31287e-05
5.41344e-05
5.00908e-05
4.89333e-05
5.39685e-05
5.44296e-05
5.19224e-05
5.34947e-05
5.39117e-05
5.03604e-05
4.9545e-05
4.81861e-05
5.13742e-05
5.15239e-05
5.27429e-05
5.48246e-05
5.36604e-05
5.47191e-05
5.41296e-05
5.0336e-05
4.96714e-05
5.02179e-05
5.13147e-05
5.38532e-05
5.32724e-05
5.3419e-05
5.2971e-05
4.96926e-05
4.91773e-05
4.96305e-05
5.38259e-05
5.37609e-05
5.51386e-05
4.85985e-05
4.90368e-05
5.07338e-05
5.06815e-05
5.37662e-05
5.29094e-05
5.75113e-05
4.98905e-05
4.96345e-05
4.91453e-05
4.87796e-05
4.81555e-05
4.98637e-05
5.50072e-05
4.85522e-05
5.30293e-05
4.99312e-05
5.37023e-05
5.46128e-05
5.32502e-05
4.86874e-05
4.87235e-05
5.2051e-05
5.049e-05
5.40024e-05
5.34987e-05
5.68833e-05
4.9093e-05
5.19215e-05
4.7944e-05
4.78189e-05
4.82268e-05
5.16687e-05
5.17885e-05
4.73719e-05
5.46308e-05
4.73837e-05
5.38946e-05
5.00405e-05
5.48241e-05
5.13279e-05
4.97308e-05
5.02864e-05
5.02583e-05
5.1269e-05
4.84396e-05
5.41987e-05
4.88159e-05
5.50051e-05
4.93191e-05
5.45418e-05
5.06922e-05
5.00765e-05
4.8642e-05
5.15789e-05
5.13562e-05
4.94088e-05
5.49392e-05
4.88888e-05
5.19099e-05
4.85987e-05
5.29875e-05
4.61383e-05
5.35733e-05
4.85695e-05
5.28404e-05
4.90599e-05
4.87517e-05
5.1569e-05
5.02833e-05
5.2858e-05
4.77512e-05
5.53306e-05
4.91395e-05
4.84977e-05
4.78786e-05
5.18592e-05
4.78313e-05
5.32438e-05
5.20297e-05
5.10377e-05
4.82062e-05
4.94973e-05
4.71635e-05
5.06655e-05
4.87724e-05
4.89363e-05
5.35708e-05
5.23737e-05
5.00609e-05
4.814e-05
5.47709e-05
4.93654e-05
5.10145e-05
4.79287e-05
4.95795e-05
4.76174e-05
4.58479e-05
5.07915e-05
5.20591e-05
4.91682e-05
5.25543e-05
4.96082e-05
5.43647e-05
4.9801e-05
5.67495e-05
5.13285e-05
6.28823e-05
7.45339e-05
6.11218e-05
5.39025e-05
5.1569e-05
9.19619e-05
0.00013619
0.000148935
0.000161679
0.000171817
0.000178851
0.000183419
0.000185981
0.000187203
0.000187553
0.000187556
0.000187287
0.000186855
0.000186314
0.00018572
0.000185108
0.000184462
0.00018382
0.000183173
0.000182567
0.000181961
0.00018136
0.000180768
0.000180194
0.000179636
0.000179092
0.00017856
0.000178042
0.000177543
0.000177056
0.000176585
0.000176123
0.000175675
0.000175239
0.000174817
0.000174405
0.000174004
0.000173613
0.00017323
0.00017286
0.000172498
0.000172146
0.000171802
0.000171465
0.000171138
0.000170816
0.000170505
0.000170198
0.000169901
0.000169606
0.000169322
0.000169041
0.000168769
0.0001685
0.00016824
0.00016798
0.000167731
0.000167478
0.000167219
0.000166969
0.000166721
0.000166481
0.000166243
0.000166014
0.000165786
0.000165567
0.000165348
0.000165139
0.000164928
0.000164729
0.000164528
0.00016434
0.000164148
0.00016397
0.000163789
0.000163622
0.000163453
0.0001633
0.000163144
0.000163006
0.000162867
0.000162748
0.000162629
0.000162537
0.000162437
0.000162365
0.000162305
0.000162264
0.000162243
0.000162252
0.000162247
0.000162353
0.00016235
0.000162579
0.000162685
0.000163165
0.000163579
0.000163911
0.000165555
0.000145228
0.000137891
0.000154625
0.000153863
0.000153371
0.000150536
0.000149517
0.00014787
0.000146978
0.000145396
0.000146024
0.000145727
0.000143836
0.000144729
0.000141378
0.000140256
0.000142059
0.000144015
0.000141767
0.000143463
0.000142125
0.000140638
0.000141907
0.000140757
0.000143181
0.000138997
0.000136321
0.000140023
0.000139915
0.000142182
0.000139981
0.000142023
0.000140272
0.000140842
0.000141287
0.000143705
0.000139581
0.000136509
0.000139921
0.000140817
0.000140458
0.000141785
0.000142002
0.000144783
0.000143197
0.000141594
0.000139776
0.000140462
0.000143529
0.000143595
0.000144711
0.000144758
0.00014538
0.000141351
0.000139593
0.000143032
0.000145405
0.000142747
0.000141414
0.000144558
0.000145442
0.000144781
0.00014239
0.000144599
0.000143546
0.000142807
0.000141652
0.000142964
0.000144098
0.00014365
0.000145018
0.000144176
0.000145157
0.00014575
0.000142779
0.000138497
0.000141963
0.000143855
0.000144955
0.000144498
0.000143973
0.000144526
0.000140299
0.000138132
0.000141553
0.000144113
0.00014411
0.000144323
0.000140356
0.000138711
0.000141876
0.000142087
0.000142904
0.000143632
0.000145759
0.000142288
0.000138794
0.000139821
0.000139111
0.000140759
0.000140639
0.000144462
0.000140703
0.00013889
0.000141189
0.000140299
0.000144054
0.000142227
0.000141754
0.000138946
0.000141435
0.000142156
0.000142001
0.000144026
0.000145178
0.000141713
0.000138854
0.000141436
0.000137399
0.000140507
0.000141064
0.000142871
0.000136703
0.000140703
0.000137642
0.000134376
0.00014051
0.000139084
0.000142102
0.000136822
0.000140361
0.000138948
0.000141742
0.00013712
0.0001373
0.000140421
0.00013928
0.000141453
0.000141117
0.000142795
0.000138118
0.000137973
0.000138061
0.000142122
0.000137175
0.000141826
0.000138897
0.000138627
0.000139571
0.000136528
0.000136849
0.000136111
0.000140437
0.000137688
0.000139909
0.000134095
0.000138377
0.000136834
0.000140694
0.000136778
0.00013877
0.000139576
0.0001354
0.000137915
0.000139704
0.000139268
0.000139967
0.000142656
0.000138337
0.000138658
0.00013686
0.000138426
0.000136449
0.000139635
0.000135373
0.000139885
0.000139169
0.000140114
0.000136229
0.000138238
0.000140125
0.000137174
0.000139009
0.000136991
0.000139615
0.000133903
0.000135728
0.00013945
0.000139015
0.000140072
0.000140303
0.000140798
0.000141179
0.00014152
0.000142799
0.000144697
0.000153466
0.000148772
0.000136363
0.000137114
0.000146974
7.17215e-05
0.00010217
0.000144052
0.000171422
0.000198423
0.000221697
0.00024077
0.000252407
0.000260135
0.000265909
0.000270189
0.000273374
0.000275787
0.000277667
0.000279086
0.000280127
0.000280893
0.000281457
0.000281871
0.000282118
0.000282227
0.000282241
0.000282192
0.000282093
0.000281937
0.000281736
0.000281503
0.000281249
0.00028098
0.000280691
0.000280384
0.000280064
0.000279736
0.000279406
0.000279072
0.000278732
0.000278386
0.000278039
0.000277693
0.00027735
0.000277007
0.000276663
0.00027632
0.000275979
0.000275642
0.00027531
0.000274979
0.000274651
0.000274324
0.000274002
0.000273683
0.00027337
0.000273058
0.000272752
0.000272447
0.000272147
0.000271849
0.000271557
0.000271268
0.000270984
0.000270701
0.000270425
0.00027015
0.000269882
0.000269615
0.000269355
0.000269095
0.000268843
0.000268591
0.000268349
0.000268105
0.000267873
0.00026764
0.000267418
0.000267195
0.000266986
0.000266775
0.000266581
0.000266387
0.00026621
0.000266035
0.000265882
0.000265731
0.000265613
0.000265487
0.000265382
0.000265293
0.000265233
0.000265179
0.00026519
0.00026522
0.000265329
0.000265485
0.000265773
0.00026617
0.000266894
0.000267394
0.000271466
0.00026917
0.000224375
0.000202982
0.000242789
0.000251846
0.000257415
0.000257125
0.000257943
0.000256115
0.00025543
0.000252302
0.000253535
0.000252536
0.000248787
0.00024911
0.000242937
0.000238555
0.000240535
0.000244955
0.00024244
0.000244185
0.000242238
0.000239139
0.000240364
0.000238366
0.000244123
0.000235777
0.00023317
0.000231953
0.000234109
0.000238003
0.000235835
0.000238773
0.000236424
0.000238601
0.000237083
0.000241904
0.000233079
0.000225956
0.000233157
0.000233422
0.000238828
0.000237966
0.000239854
0.000241939
0.000238974
0.000232909
0.000228922
0.000236227
0.000237966
0.000238724
0.000240181
0.000240658
0.000240395
0.000231983
0.000233061
0.000238917
0.000240293
0.00023443
0.000231778
0.000238707
0.000242202
0.000240513
0.000239011
0.00023996
0.000235256
0.000233338
0.000231116
0.000237593
0.000239164
0.000240088
0.000242127
0.000240428
0.000241116
0.000241548
0.000235121
0.000230079
0.000233634
0.000237088
0.00024076
0.000240464
0.000239975
0.000240246
0.000232258
0.000231088
0.00023428
0.000239715
0.000240907
0.000240591
0.000232349
0.000229993
0.000235994
0.000236157
0.000239164
0.000239046
0.000242521
0.000235352
0.000230176
0.000231299
0.000228242
0.00023261
0.00023264
0.000240898
0.000237055
0.000236685
0.00023528
0.000238243
0.000240605
0.000236597
0.000231862
0.000227578
0.000235551
0.000235249
0.000238551
0.000238732
0.000240309
0.000232877
0.000231333
0.000229328
0.000224895
0.000232028
0.000235234
0.00023884
0.000229011
0.000236789
0.000231693
0.000231729
0.000235239
0.000234719
0.000236288
0.00022604
0.000231816
0.000228894
0.000234753
0.000226939
0.00023472
0.000234358
0.000237957
0.000235462
0.000236841
0.000237046
0.000229703
0.000227927
0.000225384
0.000235037
0.000228617
0.000237653
0.00023166
0.000233622
0.000231432
0.000232288
0.000227042
0.000221333
0.000235159
0.000231621
0.000233713
0.000223187
0.000232566
0.000227736
0.000234429
0.000227171
0.000235332
0.000232425
0.000227706
0.000229712
0.00023291
0.000232051
0.00023441
0.000239197
0.000232482
0.00022966
0.00022689
0.000227816
0.000227291
0.000233549
0.000227422
0.000236742
0.000234934
0.000234098
0.000226151
0.000235336
0.000234013
0.000231909
0.000228004
0.000228007
0.000230839
0.000222847
0.000232566
0.000235837
0.000235008
0.000236821
0.000235893
0.000237982
0.000236674
0.000240713
0.000238251
0.00024373
0.000261461
0.000243093
0.000216328
0.000207745
0.000225838
5.97193e-05
7.63586e-05
0.000104338
0.00014181
0.000172465
0.00020221
0.000230766
0.000257218
0.000279133
0.000298143
0.00031115
0.000320772
0.000328785
0.000335578
0.000341283
0.000346066
0.000350122
0.000353604
0.000356613
0.000359173
0.000361356
0.000363236
0.000364872
0.000366293
0.000367513
0.000368561
0.000369467
0.000370254
0.000370941
0.000371524
0.000372018
0.000372435
0.000372788
0.000373089
0.000373337
0.000373533
0.000373684
0.000373799
0.000373882
0.00037394
0.000373968
0.00037397
0.000373949
0.000373908
0.000373853
0.000373783
0.000373699
0.000373599
0.000373487
0.000373365
0.000373235
0.000373099
0.000372954
0.000372802
0.000372642
0.000372478
0.000372309
0.000372138
0.000371961
0.000371783
0.0003716
0.000371416
0.000371228
0.000371042
0.000370852
0.000370664
0.000370472
0.000370283
0.00037009
0.000369903
0.000369713
0.00036953
0.000369344
0.000369166
0.000368986
0.000368816
0.000368645
0.000368488
0.000368331
0.000368191
0.000368052
0.000367936
0.000367821
0.000367745
0.000367664
0.000367599
0.000367546
0.000367538
0.000367525
0.00036761
0.000367682
0.000367894
0.000368118
0.000368571
0.000369105
0.000370169
0.000370891
0.000376382
0.000373493
0.000311531
0.000270857
0.000310528
0.000336972
0.000349281
0.000354773
0.000359821
0.000360585
0.000361996
0.000359316
0.000361721
0.000361379
0.000357441
0.000357454
0.00034995
0.000342113
0.000343029
0.000348526
0.000346642
0.000348317
0.000347031
0.000342833
0.00034379
0.000341442
0.000348498
0.000339129
0.000332612
0.00032897
0.000330087
0.000336044
0.000335002
0.00033876
0.000336837
0.00033916
0.000337487
0.00034312
0.000333098
0.000320464
0.000327272
0.000328405
0.000335523
0.000336367
0.000339275
0.000342469
0.000339123
0.000329398
0.000322173
0.000329674
0.000333688
0.000335946
0.000338353
0.000339716
0.000338906
0.000327331
0.000326096
0.000333135
0.000336071
0.000328925
0.000324252
0.000332435
0.000339102
0.000338125
0.000336099
0.000336727
0.000330388
0.000325493
0.000321876
0.000329491
0.00033389
0.000337107
0.000340723
0.000339365
0.000340006
0.000340304
0.000331456
0.00032229
0.00032535
0.00033038
0.00033626
0.000337321
0.000337734
0.00033827
0.000328438
0.000324312
0.000327476
0.000335213
0.000338776
0.000339153
0.000329136
0.000323622
0.000330275
0.000331498
0.000335633
0.000336714
0.000341051
0.00033294
0.000323963
0.00032224
0.000318609
0.00032344
0.00032478
0.000336772
0.000334945
0.000333676
0.000332471
0.000334489
0.000339224
0.000334852
0.000326633
0.000319683
0.000328809
0.000329909
0.000334381
0.0003356
0.000337497
0.000328333
0.000323843
0.000319269
0.000313374
0.000322213
0.000324123
0.000334467
0.000324304
0.000332964
0.000328707
0.000332765
0.000333679
0.000330158
0.000334588
0.000320916
0.000325831
0.000322507
0.000329271
0.000320468
0.000329011
0.000330232
0.000333807
0.000332857
0.000333953
0.000334957
0.000325105
0.000319739
0.000308144
0.000328624
0.000323019
0.000333859
0.00032799
0.000328982
0.000326662
0.000325955
0.000319778
0.000308098
0.000331978
0.000328252
0.000331203
0.000317927
0.000327996
0.00032319
0.000330628
0.00032232
0.000331131
0.000329385
0.000321644
0.000321856
0.000325328
0.000326692
0.000320212
0.000337452
0.000330744
0.000325157
0.0003201
0.000320718
0.000310675
0.000329236
0.000323303
0.00033482
0.000334493
0.000332788
0.000321675
0.000331632
0.000331804
0.000327834
0.000321367
0.000319724
0.000323855
0.00031482
0.000325496
0.00033297
0.000333288
0.000335912
0.000334932
0.000337912
0.000336234
0.000336398
0.000338286
0.000327453
0.000375178
0.000352796
0.000303452
0.000281538
0.000297458
5.34163e-05
6.02926e-05
7.42523e-05
9.85011e-05
0.000132542
0.000164556
0.000191909
0.000221567
0.000250138
0.000278282
0.00030281
0.000324655
0.000343585
0.00036008
0.000372937
0.000382773
0.000391405
0.000399055
0.00040586
0.000411853
0.000417158
0.000421892
0.000426145
0.000429965
0.000433386
0.000436462
0.00043924
0.000441761
0.000444052
0.000446122
0.000447998
0.000449703
0.000451257
0.000452682
0.000453977
0.000455153
0.000456224
0.000457203
0.000458099
0.00045892
0.000459666
0.000460345
0.000460963
0.000461525
0.000462042
0.000462512
0.000462938
0.000463322
0.000463669
0.000463983
0.000464267
0.000464524
0.000464752
0.000464955
0.000465134
0.000465292
0.00046543
0.000465552
0.000465656
0.000465744
0.000465815
0.000465875
0.000465921
0.000465957
0.000465981
0.000465997
0.000466
0.000465998
0.000465986
0.000465971
0.000465948
0.000465924
0.000465893
0.000465862
0.000465825
0.000465793
0.000465757
0.00046573
0.000465701
0.000465684
0.000465668
0.000465672
0.000465677
0.000465722
0.000465764
0.000465824
0.000465883
0.000466005
0.000466119
0.000466354
0.000466551
0.000466942
0.000467329
0.000468026
0.000468801
0.000470274
0.000471389
0.000478132
0.000474763
0.000402894
0.000353051
0.000372228
0.000401447
0.000430484
0.000441477
0.000451007
0.000455716
0.000460297
0.000459679
0.000464009
0.000465335
0.000462723
0.000463176
0.000455589
0.000445852
0.000445363
0.000451073
0.000449783
0.000451654
0.000451201
0.000446888
0.00044764
0.000445582
0.000453198
0.000443553
0.000434492
0.000428288
0.000427675
0.000434296
0.000434398
0.000438791
0.000437733
0.000440189
0.000438886
0.000445005
0.000434688
0.000418162
0.000423257
0.00042432
0.000432377
0.000434426
0.000438385
0.000442962
0.000439905
0.000428024
0.000417671
0.000424229
0.000429387
0.000432939
0.000436521
0.000438939
0.000437968
0.00042436
0.000420712
0.000427663
0.000431452
0.000423762
0.000417264
0.000425508
0.000434392
0.000434668
0.000433028
0.000433517
0.000426335
0.000418723
0.000413039
0.000420332
0.000426798
0.000432115
0.000437658
0.000437382
0.000438521
0.000438923
0.000428586
0.000415975
0.000417046
0.000422802
0.000430049
0.000432595
0.000434269
0.000435435
0.000425071
0.000418488
0.000420756
0.000429043
0.000435257
0.00043684
0.000426498
0.000418524
0.000424759
0.000426638
0.000431503
0.000433902
0.00043912
0.00043101
0.000419477
0.000414509
0.000409688
0.000413837
0.000416018
0.000430462
0.000430901
0.000430067
0.000429248
0.00043038
0.000437504
0.000433466
0.0004232
0.000413552
0.000422444
0.000424465
0.000429831
0.000432148
0.000434433
0.000424641
0.000417719
0.000410497
0.00040259
0.000411716
0.000407566
0.000427933
0.000419031
0.000428282
0.000425141
0.000428746
0.000431449
0.000426721
0.00043337
0.000418253
0.000421566
0.000417836
0.000424453
0.000415273
0.000423777
0.000425979
0.000429653
0.000430063
0.000431371
0.000433144
0.000422266
0.000413909
0.000398684
0.000422026
0.000417818
0.00042968
0.00042462
0.000424942
0.000422436
0.000420467
0.000413292
0.000406895
0.000427937
0.000424789
0.000428741
0.000414925
0.000424546
0.000420365
0.000427824
0.000419294
0.000428081
0.000427014
0.000417616
0.000415629
0.000418429
0.000421108
0.00041126
0.000435175
0.000429293
0.000422459
0.000415154
0.000415216
0.000404743
0.000424848
0.000420051
0.000432836
0.000434277
0.000432486
0.000419649
0.000429456
0.000430498
0.000425542
0.000416924
0.000413179
0.000417435
0.00040771
0.000418377
0.000428838
0.000430663
0.000434403
0.000434073
0.000438094
0.000436715
0.000429106
0.000440192
0.000408017
0.000490015
0.000466349
0.000402787
0.000382744
0.000368419
5.38766e-05
5.16073e-05
5.68097e-05
6.83614e-05
8.92021e-05
0.000119236
0.000155716
0.000179574
0.000206509
0.000234907
0.000262758
0.00029129
0.000317163
0.000341434
0.00036355
0.000382959
0.000400397
0.000415987
0.000429835
0.000440015
0.0004492
0.000457546
0.000465161
0.000472104
0.000478416
0.000484176
0.000489457
0.000494319
0.000498796
0.000502909
0.000506698
0.000510198
0.00051344
0.000516452
0.000519239
0.000521821
0.000524219
0.000526452
0.000528534
0.000530477
0.000532284
0.000533969
0.000535543
0.000537013
0.000538393
0.000539684
0.00054089
0.000542017
0.000543073
0.000544063
0.000544994
0.000545868
0.000546686
0.000547452
0.00054817
0.000548845
0.00054948
0.000550076
0.000550635
0.00055116
0.000551651
0.000552113
0.000552546
0.000552956
0.000553338
0.000553698
0.000554034
0.000554352
0.000554648
0.000554931
0.000555196
0.000555449
0.000555686
0.000555915
0.00055613
0.000556341
0.000556543
0.000556745
0.000556941
0.000557142
0.00055734
0.000557555
0.000557767
0.000558017
0.000558263
0.000558535
0.000558787
0.000559116
0.000559439
0.000559894
0.000560295
0.000560936
0.000561564
0.000562567
0.000563651
0.000565561
0.000567155
0.000574875
0.000570996
0.0004947
0.000446946
0.000440973
0.000457182
0.000497818
0.000519349
0.000532508
0.000541203
0.000549065
0.000551316
0.000558019
0.000561543
0.00056115
0.00056278
0.000556084
0.00054603
0.000544611
0.000550253
0.000549453
0.000551731
0.000552036
0.000548347
0.000549057
0.000547824
0.000555545
0.00054604
0.000535648
0.00052739
0.000525257
0.00053156
0.000532579
0.000537236
0.000537132
0.000539723
0.00053901
0.00054548
0.000535179
0.000516617
0.000519559
0.000520124
0.000528455
0.000531196
0.000535966
0.000541748
0.000539272
0.000526368
0.000513738
0.000519086
0.000524498
0.000528935
0.000533492
0.000536868
0.000535862
0.000521134
0.000515546
0.000521864
0.000525895
0.000517839
0.000509944
0.000517678
0.000527851
0.00052932
0.000528452
0.000528965
0.000521544
0.000511814
0.000504057
0.00051035
0.00051792
0.000524743
0.000531996
0.00053302
0.000534931
0.000535668
0.000524589
0.000509572
0.000507164
0.000514201
0.000522061
0.000525762
0.000528605
0.000530451
0.000520292
0.000512115
0.000513345
0.000519604
0.000529689
0.000532397
0.000522325
0.000513037
0.000518466
0.000520762
0.000526023
0.000529545
0.000535501
0.000527658
0.000514832
0.000507048
0.000500877
0.000503667
0.000505519
0.000521942
0.000524295
0.00052444
0.000524198
0.000526146
0.000534028
0.000530668
0.0005193
0.000507803
0.000515797
0.000518364
0.000524256
0.000527463
0.000530055
0.000520083
0.000511578
0.000501984
0.000492349
0.00050091
0.000498443
0.000519339
0.000512071
0.000521645
0.000519665
0.000523272
0.000527227
0.000526674
0.000530688
0.000515639
0.000517272
0.00051342
0.0005193
0.000510112
0.000517462
0.000520868
0.000524708
0.000525974
0.00052775
0.00053013
0.000519296
0.00050871
0.000493926
0.000514974
0.00051216
0.000524367
0.00052025
0.000520191
0.000517523
0.000514678
0.000506599
0.000507366
0.000522133
0.000520203
0.000524798
0.000511926
0.000520693
0.000517552
0.000524619
0.000516391
0.000524809
0.000524047
0.000513943
0.000509955
0.000511805
0.000514962
0.000511289
0.000531498
0.000526703
0.000519361
0.000510578
0.000510003
0.000504825
0.000519543
0.000516319
0.00052972
0.000532847
0.000531217
0.000518007
0.000527382
0.000528835
0.000523397
0.000513086
0.000507519
0.000511105
0.000500873
0.000510157
0.000523231
0.000526363
0.000531185
0.000531906
0.000537003
0.000536511
0.000527941
0.00054242
0.00049095
0.000603084
0.000578932
0.000509583
0.000476616
0.00045074
6.74577e-05
4.9982e-05
4.83926e-05
5.19879e-05
6.15063e-05
7.87797e-05
0.000105067
0.000137379
0.000170187
0.000192404
0.000217598
0.000244748
0.000271225
0.00029917
0.000325637
0.000350802
0.000374809
0.000396788
0.000417154
0.000435661
0.000452355
0.000467463
0.00048139
0.000493375
0.000503054
0.000511985
0.00052026
0.000527948
0.000535087
0.0005417
0.000547845
0.000553569
0.000558917
0.000563922
0.000568593
0.00057296
0.00057705
0.00058089
0.0005845
0.000587894
0.000591081
0.00059408
0.000596905
0.000599571
0.000602092
0.00060447
0.000606715
0.000608836
0.000610843
0.000612744
0.000614547
0.000616257
0.000617876
0.000619411
0.000620868
0.000622252
0.000623569
0.000624821
0.000626011
0.000627142
0.000628217
0.000629243
0.00063022
0.000631153
0.000632041
0.000632888
0.000633695
0.000634467
0.000635204
0.000635912
0.000636588
0.000637239
0.000637862
0.000638463
0.000639042
0.000639605
0.000640149
0.000640683
0.000641203
0.00064172
0.000642226
0.000642742
0.00064325
0.00064379
0.000644324
0.000644891
0.000645421
0.000646027
0.000646635
0.000647379
0.000648058
0.000649012
0.000649943
0.000651297
0.000652735
0.000655086
0.00065719
0.000665577
0.000661157
0.000584215
0.000538836
0.000517799
0.000520674
0.000548392
0.000576664
0.000606486
0.000618404
0.000629103
0.000634362
0.000643457
0.000649373
0.000651576
0.000654821
0.000649674
0.000640476
0.000638822
0.000644454
0.000644192
0.000647047
0.000648077
0.000645486
0.000646314
0.000646147
0.000653773
0.000644691
0.000633911
0.000624304
0.000621185
0.000626722
0.000628379
0.000633074
0.000633853
0.000636538
0.000636515
0.000643205
0.000633086
0.000613886
0.000614879
0.000614777
0.000622924
0.000625997
0.000631319
0.000637976
0.000636148
0.000622919
0.000608957
0.000613148
0.000618377
0.000623375
0.00062858
0.000632735
0.000631683
0.000616453
0.000609494
0.000614991
0.000618894
0.000610518
0.000601641
0.000608664
0.000619427
0.00062186
0.0006218
0.000622379
0.000615091
0.000603869
0.00059435
0.000599499
0.000607381
0.000611975
0.000623595
0.00062587
0.0006286
0.000629739
0.000618403
0.000601942
0.000597787
0.000603904
0.000611012
0.000616803
0.000620551
0.00062293
0.000613282
0.00060422
0.000604568
0.000608529
0.000621857
0.000625438
0.0006158
0.000606045
0.000610633
0.000613254
0.000618717
0.000623138
0.000629647
0.000622096
0.000608822
0.000598864
0.000591546
0.000592688
0.00059079
0.000611432
0.000615254
0.000616472
0.00061683
0.000621196
0.000628133
0.000625539
0.00061374
0.000601327
0.000608203
0.000611141
0.000617259
0.000621104
0.000623906
0.00061391
0.000604476
0.00059294
0.000582017
0.000589431
0.00059043
0.000608801
0.000603183
0.000612784
0.000611818
0.000615895
0.000620606
0.00062308
0.000625656
0.000611638
0.000611849
0.000608195
0.000613112
0.000604181
0.000607693
0.000614465
0.000618495
0.000620199
0.00062257
0.000625267
0.000615069
0.000602944
0.000591119
0.000607068
0.000605602
0.000617657
0.000614398
0.000614112
0.000611272
0.000607879
0.000599049
0.000603745
0.000614418
0.000614133
0.000618863
0.000607714
0.000615525
0.000613763
0.000620181
0.000612579
0.00062045
0.000619785
0.000609549
0.000603939
0.000604886
0.000607973
0.000611241
0.000625958
0.000622401
0.000614808
0.00060533
0.000603919
0.000602613
0.000612961
0.000611489
0.000625036
0.000629607
0.000628177
0.000615465
0.000624369
0.000626007
0.000620386
0.0006088
0.000601868
0.000604427
0.000593871
0.00059891
0.000616166
0.000620293
0.000626035
0.000627884
0.000634028
0.000634764
0.00063369
0.000643756
0.000576453
0.000708636
0.000689218
0.000619281
0.000575124
0.000547666
0.000107647
5.91572e-05
4.83498e-05
4.56602e-05
4.77461e-05
5.50383e-05
6.90202e-05
9.05701e-05
0.000118681
0.000151092
0.00018194
0.000203175
0.000226679
0.000252075
0.000277146
0.000303675
0.00033038
0.000355617
0.000380328
0.000403982
0.000426057
0.000446735
0.000466099
0.000483981
0.000500342
0.000515433
0.000529319
0.000542216
0.00055365
0.000563085
0.000571915
0.000580199
0.000587989
0.000595321
0.000602198
0.000608662
0.000614751
0.000620499
0.000625932
0.000631065
0.000635912
0.000640497
0.000644839
0.000648957
0.00065287
0.000656579
0.000660101
0.000663446
0.000666628
0.000669658
0.000672546
0.000675297
0.000677916
0.000680415
0.000682799
0.000685077
0.000687255
0.000689337
0.000691326
0.000693228
0.000695048
0.000696792
0.000698465
0.000700069
0.000701605
0.000703079
0.000704493
0.000705853
0.000707159
0.000708418
0.000709629
0.000710796
0.000711922
0.00071301
0.000714062
0.000715085
0.000716076
0.000717044
0.000717987
0.000718915
0.000719824
0.000720733
0.000721626
0.000722541
0.000723444
0.000724385
0.000725276
0.00072623
0.000727195
0.000728292
0.000729318
0.000730638
0.000731926
0.000733668
0.00073549
0.000738269
0.000740884
0.000749639
0.000744691
0.000669619
0.000618652
0.000597926
0.000592467
0.00060174
0.000624528
0.00066404
0.000688842
0.000701785
0.000709751
0.000720941
0.000729192
0.000734005
0.000739032
0.000735788
0.000728185
0.000726902
0.000732695
0.000733105
0.000736693
0.000738471
0.000737281
0.000738378
0.000739388
0.000746792
0.000738355
0.000727864
0.000717596
0.000714057
0.000718742
0.000720931
0.000725523
0.000727138
0.000729812
0.000730462
0.000737251
0.000727467
0.000708583
0.000707842
0.000707276
0.000715005
0.000718191
0.000723866
0.000731073
0.00072987
0.00071674
0.000702228
0.000705431
0.000710312
0.000715651
0.000721234
0.000726002
0.000724859
0.000709532
0.000701693
0.000706331
0.000709891
0.000701268
0.000691798
0.000698093
0.000709027
0.000712155
0.000712776
0.000713353
0.000706386
0.000694214
0.000683371
0.000685971
0.000695091
0.000697389
0.000712501
0.000715845
0.000719322
0.000720829
0.000709504
0.00069231
0.000687766
0.000690424
0.000697878
0.000705669
0.000710079
0.00071278
0.000703688
0.000694205
0.000693885
0.000695437
0.000711586
0.000715812
0.000706608
0.000696895
0.000700669
0.000703625
0.000709177
0.000714343
0.000721253
0.000713961
0.000700737
0.000689206
0.000681056
0.000680565
0.000674851
0.000695077
0.000703979
0.000706112
0.000707024
0.000713054
0.000719516
0.000717699
0.000705909
0.000693328
0.000699099
0.000702283
0.000708489
0.00071276
0.000715683
0.000705728
0.000695818
0.000682771
0.00067097
0.000677017
0.000678373
0.000696423
0.000692343
0.00070171
0.000701614
0.000706297
0.000711455
0.000715194
0.000717932
0.00070547
0.000704546
0.0007014
0.000705353
0.000696895
0.000695867
0.000706424
0.000710646
0.000712515
0.000715479
0.000718243
0.000708957
0.000695821
0.000687
0.000697912
0.000697772
0.000709335
0.000706833
0.00070638
0.000703342
0.000699609
0.000690189
0.000694911
0.000704846
0.000706304
0.000710802
0.000701675
0.00070852
0.000708214
0.000713965
0.000707201
0.000714481
0.000713784
0.000703743
0.000696878
0.000697099
0.000699773
0.000705783
0.000718388
0.000716156
0.000708343
0.000698753
0.000696444
0.000695171
0.000704898
0.000705192
0.000718553
0.000724283
0.000723026
0.000711275
0.000719697
0.000721428
0.000715838
0.000703344
0.000695482
0.000696882
0.000686202
0.000685612
0.000707594
0.000712463
0.00071895
0.000721803
0.000728921
0.000730973
0.000738123
0.000743325
0.000670807
0.000803737
0.000796611
0.00072877
0.000676951
0.000653245
0.000113485
8.73524e-05
6.0248e-05
4.92565e-05
4.48092e-05
4.49544e-05
4.98533e-05
6.03753e-05
7.72058e-05
0.00010064
0.000129381
0.000161165
0.000192619
0.000212635
0.000234436
0.000257985
0.000282022
0.000306549
0.000332549
0.000357589
0.000382287
0.000406592
0.0004297
0.000451704
0.00047284
0.000492733
0.000511313
0.000528811
0.000545244
0.000560365
0.000574388
0.000587562
0.000599821
0.000611336
0.000620646
0.000629443
0.00063777
0.000645668
0.000653166
0.000660276
0.000667014
0.000673412
0.000679495
0.000685287
0.000690809
0.000696064
0.00070107
0.000705843
0.000710399
0.000714753
0.000718916
0.000722895