/*--------------------------------*- C++ -*----------------------------------*\
| =========                 |                                                 |
| \\      /  F ield         | foam-extend: Open Source CFD                    |
|  \\    /   O peration     | Version:     3.2                                |
|   \\  /    A nd           | Web:         http://www.foam-extend.org         |
|    \\/     M anipulation  | For copyright notice see file Copyright         |
\*---------------------------------------------------------------------------*/
FoamFile
{
    version     2.0;
    format      ascii;
    class       volScalarField;
    location    "160";
    object      omega;
}
// * * * * * * * * * * * * * * * * * * * * * * * * * * * * * * * * * * * * * //

dimensions      [0 0 -1 0 0 0 0];

internalField   nonuniform List<scalar> 
96000
(
1337.8
1193.99
994.732
901.562
863.835
843.375
828.244
814.772
802.17
790.561
780.054
770.539
761.828
753.972
746.831
740.28
734.238
728.615
723.429
718.666
714.216
710.009
706.035
702.284
698.748
695.384
692.191
689.139
686.238
683.475
680.828
678.296
675.859
673.524
671.279
669.127
667.045
665.041
663.103
661.23
659.426
657.675
655.983
654.338
652.744
651.199
649.698
648.244
646.823
645.448
644.101
642.798
641.523
640.287
639.076
637.901
636.747
635.628
634.515
633.445
632.382
631.366
630.353
629.388
628.422
627.509
626.588
625.725
624.849
624.036
623.208
622.449
621.672
620.972
620.25
619.616
618.96
618.402
617.828
617.366
616.893
616.55
616.216
616.024
615.895
615.886
615.995
616.291
616.777
617.479
618.555
619.863
621.918
624.194
628.115
632.285
641.208
645.002
692.114
667.545
479.391
471.333
486.039
486.13
495.759
494.809
503.207
503.437
510.756
503.963
520.514
522.488
523.618
535.161
518.347
508.904
509.548
528.884
512.361
533.663
521.745
530.301
526.802
532.366
562.95
525.406
533.044
505.417
522.051
524.411
527.923
533.5
535.28
541.928
538.523
572.985
526.451
516.01
526.893
520.244
548.917
536.749
553.752
567.372
561.859
539.84
521.473
546.846
546.978
556.187
561.407
572.185
569.402
537.052
541.944
558.049
562.972
536.038
525.62
548.159
568.03
560.254
567.211
565.606
547.151
532.728
513.941
537.265
537.447
547.999
559.071
554.87
564.127
570.725
544.959
525.109
530.202
531.122
546.475
545.698
554.674
558.416
532.257
524.222
524.343
545.428
551.372
564.533
526.091
528.645
538.204
538.745
550.509
551.219
581.302
543.73
544.215
521.821
521.373
510.929
517.274
556.231
529.578
548.881
530.119
558.324
559.926
562.203
528.788
527.436
546.604
541.206
558.365
557.623
576.186
533.736
550.736
508.229
511.66
507.981
531.215
532.46
509.756
551.847
504.057
553.018
528.095
561.683
543.822
533.534
531.739
533.482
540.631
512.467
550.206
521.573
555.037
527.081
562.808
545.62
547.777
505.69
529.517
529.737
524.441
555.374
527.091
544.015
516.703
535.972
478.119
540.58
515.346
545.875
525.364
523.911
534.493
530.381
543.397
516.602
560.387
528.312
526.141
507.497
530.719
501.768
540.355
539.464
544.183
510.671
525.659
495.099
520.723
513.739
517.107
542.564
546.399
533.042
512.291
554.916
530.92
541.07
503.319
519.641
506.568
482.318
512.919
526.969
517.239
535.245
524.224
548.987
530.833
573.267
539.316
638.014
757.114
667.808
572.133
546.477
497.193
517.2
492.029
452.319
418.385
393.181
374.395
360.151
348.938
339.83
332.099
325.489
319.734
314.713
310.279
306.293
302.712
299.455
296.5
293.794
291.306
288.999
286.856
284.856
282.987
281.229
279.575
278.014
276.537
275.142
273.813
272.553
271.349
270.202
269.105
268.058
267.052
266.087
265.161
264.269
263.412
262.585
261.788
261.018
260.273
259.555
258.857
258.185
257.529
256.897
256.28
255.684
255.102
254.54
253.989
253.457
252.935
252.432
251.935
251.458
250.985
250.532
250.082
249.653
249.225
248.818
248.411
248.026
247.639
247.275
246.908
246.567
246.22
245.902
245.578
245.283
244.984
244.717
244.447
244.211
243.977
243.78
243.592
243.441
243.317
243.245
243.209
243.21
243.291
243.408
243.687
243.968
244.538
245.083
246.134
247.098
249.27
250.195
257.306
282.631
259.884
219.822
205.627
199.343
197.259
195.667
196.208
196.118
197.753
197.164
198.915
201.66
202.323
205.601
207.536
203.472
200.912
202.161
202.648
203.124
206.422
205.634
207.824
205.784
211.567
214.445
211.01
208.044
203.834
206.211
205.685
208.528
208.593
210.793
209.442
214.592
218.78
210.757
210.028
208.347
209.425
211.079
211.704
216.093
221.322
220.745
214.71
212.933
213.627
214.593
216.35
220.012
224.929
222.712
217.633
217.073
219.784
218.854
213.265
211.974
217.878
220.982
221.053
222.926
222.281
219.078
212.431
210.045
210.474
211.469
215.106
216.266
218.112
223.129
224.583
215.823
211.705
209.673
211.133
212.673
214.52
219.092
218.594
212.444
208.678
209.139
212.125
217.206
218.063
212.199
212.604
211.676
212.985
213.811
219.429
223.386
219.865
216.105
210.661
207.698
202.981
208.513
212.713
212.285
212.94
213.177
217.021
219.719
219.133
212.419
214.13
213.475
215.299
216.512
220.643
221.836
218.688
215.883
207.321
204.852
204.205
210.239
204.823
208.759
211.548
208.774
212.238
211.86
218.554
213.06
214.069
210.643
215.584
209.964
210.067
211.688
210.845
213.823
213.534
219.585
217.568
213.571
205.968
210.906
206.801
213.7
212.625
212.425
212.01
209.294
207.19
202.555
208.885
206.891
213.507
206.959
210.957
207.996
213.946
209.235
211.745
216.357
212.402
208.433
205.485
205.106
204.6
211.028
212.065
211.563
206.938
205.2
200.798
205.996
201.978
206.867
209.985
214.325
207.735
209.731
213.725
213.06
210.744
204.82
207.023
200.422
197.419
201.837
203.336
205.297
206.371
208.821
209.674
214.088
212.503
217.563
253.185
281.957
267.29
242.819
210.519
283.144
296.912
287.41
274.512
260.432
247.127
235.674
226.195
218.23
211.54
205.917
201.083
196.885
193.188
189.897
186.969
184.338
181.963
179.803
177.833
176.026
174.363
172.824
171.391
170.053
168.801
167.629
166.526
165.487
164.504
163.575
162.692
161.856
161.059
160.3
159.576
158.883
158.221
157.585
156.976
156.391
155.828
155.287
154.765
154.263
153.777
153.309
152.855
152.417
151.993
151.582
151.183
150.797
150.422
150.058
149.704
149.361
149.024
148.698
148.378
148.07
147.766
147.474
147.186
146.909
146.635
146.373
146.113
145.864
145.618
145.383
145.149
144.927
144.707
144.499
144.293
144.099
143.908
143.731
143.557
143.397
143.245
143.105
142.976
142.874
142.794
142.721
142.678
142.648
142.68
142.71
142.832
142.941
143.198
143.379
143.89
143.625
144.709
162.544
175.475
152.627
137.498
129.362
124.154
121.28
119.332
118.333
117.902
117.879
116.798
117.909
117.99
118.871
121.67
120.855
119.402
118.311
119.485
117.527
120.479
119.261
120.949
119.048
120.381
124.486
123.25
124.666
120.631
121.24
120.047
121.14
120.877
121.918
121.16
121.394
128.685
125.411
124.342
122.921
121.764
123.004
121.693
123.239
126.542
129.812
128.12
124.784
124.776
124.087
124.776
125.817
129.414
131.295
128.836
126.762
127.613
130.132
127.708
124.725
125.106
127.428
127.538
129.251
130.751
131.454
128.738
124.568
124.112
122.991
124.188
125.104
125.487
127.948
131.844
129.768
126.837
124.99
123.596
124.115
123.953
126.276
128.916
126.927
124.61
122.251
122.467
124.073
128.911
125.899
125.172
124.07
123.866
123.63
124.237
130.263
128.994
129.703
126.359
125.443
120.96
120.738
123.534
122.875
125.058
122.582
124.813
125.562
129.854
126.105
125.439
124.795
124.592
125.08
125.867
130.308
128.08
131.283
125.509
124.363
120.28
123.363
121.169
121.18
124.712
119.898
124.555
120.866
126.861
124.657
126.026
123.497
126.183
124.408
122.629
124.63
121.497
125.943
122.11
127.48
125.677
129.678
122.454
124.533
121.497
123.31
124.322
123.549
125.158
123.826
127.389
118.295
123.769
118.849
124.893
121.134
123.095
121.148
124.192
122.766
121.212
126.565
125.057
125.234
121.072
123.679
118.78
122.108
121.313
125.893
121.315
124.681
118.438
121.516
118.234
118.938
119.898
124.769
122.344
120.541
124.048
123.547
126.615
121.463
123.948
120.94
117.095
117.478
118.823
118.561
120.015
119.656
121.776
121.276
123.352
115.634
126.035
153.048
160.672
152.505
92.5557
155.067
187.413
200.034
199.201
194.735
189.413
182.689
175.77
169.119
163.149
157.917
153.322
149.274
145.705
142.562
139.776
137.281
135.03
132.987
131.132
129.443
127.896
126.471
125.15
123.923
122.781
121.717
120.721
119.785
118.904
118.073
117.289
116.549
115.846
115.178
114.543
113.938
113.362
112.811
112.285
111.78
111.296
110.833
110.387
109.959
109.546
109.149
108.766
108.396
108.039
107.695
107.361
107.038
106.725
106.422
106.128
105.844
105.566
105.297
105.034
104.779
104.53
104.289
104.054
103.826
103.602
103.386
103.174
102.97
102.768
102.574
102.383
102.199
102.018
101.844
101.673
101.509
101.347
101.193
101.043
100.898
100.76
100.626
100.499
100.382
100.282
100.185
100.097
100.014
99.9541
99.8913
99.8587
99.8102
99.8034
99.7184
99.703
99.1259
98.7945
110.494
126.521
117.497
107.554
100.059
94.6081
91.2345
88.4979
86.9367
85.682
85.3448
83.7339
83.7898
83.4677
83.5974
85.3703
85.5435
84.7729
83.6988
84.2762
82.6829
84.2296
83.3966
84.3009
82.9931
83.2886
85.9255
85.7881
87.5377
85.2658
85.277
84.2003
84.5415
84.1766
84.6209
84.0456
83.7324
88.7254
87.8051
87.328
86.3934
85.2671
85.8604
84.4461
84.7852
86.5895
89.8132
89.7476
87.56
87.2623
86.2993
86.3765
86.5708
88.902
91.0728
90.0672
88.5573
88.7731
91.0965
90.3177
87.9802
87.0477
88.0851
88.1198
89.2981
90.8587
92.5431
91.6235
88.6061
87.8432
86.3247
86.4056
86.7922
86.7241
87.9612
91.2937
91.5445
90.0116
88.6879
87.0486
86.9034
86.29
87.4523
89.7343
89.498
88.2846
86.0727
85.3307
85.7622
89.5689
88.3573
87.8164
86.9389
86.4284
85.8207
85.5091
89.5724
89.4807
91.2803
89.5521
89.3704
86.2007
84.866
86.096
85.7099
87.2454
85.1113
86.1823
86.2428
90.2662
88.5473
87.7939
87.192
86.6197
86.6058
86.6777
90.0224
89.0611
92.802
89.7063
89.3403
85.5574
86.779
85.5258
84.8943
86.8284
83.9676
86.6771
83.7794
87.356
86.6127
87.7892
86.3285
87.9131
87.3391
85.9049
86.9741
84.9845
87.5839
84.7646
87.7422
86.8404
91.1806
86.9287
87.6536
85.4786
85.7538
86.6151
86.2239
87.4671
87.1907
89.9291
84.1298
86.8741
83.1464
86.6236
84.6207
85.6396
84.4313
86.0826
85.6161
84.2801
87.4606
87.1773
88.1463
85.7512
87.7269
83.5275
84.9178
83.813
87.6817
85.0875
88.3677
84.1373
85.4152
83.096
82.7684
82.7838
86.1305
85.3326
83.7976
85.6463
85.5686
88.5925
85.8181
87.6622
86.1744
83.4251
82.6185
83.2787
82.5179
83.5399
82.6474
84.4744
83.1258
85.3981
77.7546
79.9953
96.1148
106.427
107.281
40.717
81.6929
111.692
133.589
145.942
150.942
150.632
148.6
145.712
141.813
137.459
133.086
128.946
125.123
121.641
118.525
115.727
113.205
110.919
108.863
107.003
105.311
103.765
102.342
101.028
99.8131
98.6869
97.6411
96.6649
95.7501
94.8915
94.0856
93.3271
92.6129
91.9368
91.2959
90.6882
90.1108
89.5627
89.0405
88.5421
88.0659
87.6104
87.1747
86.7573
86.3572
85.9724
85.6028
85.2468
84.9044
84.5745
84.2565
83.9492
83.6525
83.3654
83.0882
82.8194
82.5599
82.3073
82.0626
81.8242
81.5933
81.3683
81.1506
80.938
80.7322
80.5309
80.3361
80.1454
79.9609
79.78
79.6049
79.4331
79.2667
79.1036
78.9454
78.7905
78.6402
78.493
78.35
78.2104
78.0744
77.9423
77.8131
77.6874
77.5662
77.4541
77.3466
77.2402
77.135
77.0355
76.9322
76.8356
76.7208
76.6091
76.4219
76.2174
75.5562
74.9454
82.8342
95.6193
93.6057
88.7209
83.1493
78.5425
75.2096
72.3924
70.5721
69.0098
68.3166
66.7072
66.1796
65.5961
65.3823
66.3443
66.6433
66.1763
65.3608
65.5001
64.3864
65.093
64.5116
64.9044
63.9843
63.9341
65.5392
65.7394
67.1184
65.9489
65.8432
65.0286
65.0584
64.6978
64.8172
64.3351
64.0741
67.1862
67.0946
67.0293
66.4841
65.6619
65.9025
64.7541
64.5916
65.5481
67.9895
68.4429
67.2477
66.9698
66.1379
65.942
65.8212
67.3274
69.0861
68.7345
67.8041
67.9008
69.6099
69.513
67.9338
66.8621
67.2065
67.1323
67.88
69.1171
70.8074
70.7346
68.8863
68.1754
66.812
66.4175
66.4329
66.1729
66.8117
69.281
70.2162
69.5133
68.6476
67.3366
66.9518
66.2839
66.8757
68.4725
68.8053
68.1937
66.5784
65.6769
65.6989
68.1613
67.7358
67.4437
66.8285
66.3272
65.6483
65.2546
67.7028
67.9904
69.834
69.0596
69.2342
67.0975
65.7611
66.1697
65.8926
66.75
65.2537
65.7029
65.6351
68.5108
67.7887
67.2972
66.8364
66.2833
66.0506
65.9985
68.1344
67.9168
71.0157
69.5154
69.41
66.7564
67.1522
66.2384
65.5483
66.4692
64.8281
66.1865
64.3112
66.3429
66.0975
66.9728
66.1539
67.1916
67.045
66.061
66.5327
65.4128
66.7443
64.9834
66.556
66.1937
69.3782
67.165
67.4981
65.9648
65.7709
66.312
66.1545
66.9937
67.1452
68.6446
65.4722
66.7563
64.343
66.2107
64.9967
65.5081
64.7133
65.663
65.4748
64.5916
66.4611
66.5752
67.5377
66.3485
67.4144
64.6417
65.1043
64.259
66.7993
65.46
67.6567
65.3291
65.8721
64.2052
63.6232
63.3537
65.4291
65.1703
64.1374
65.1156
65.2486
67.518
66.1863
67.5439
66.8297
64.9971
63.9997
64.1888
63.4113
63.9747
63.1008
64.2455
63.0608
64.6085
58.9398
58.4239
67.5201
75.6808
79.5236
17.5449
41.1421
62.5704
81.8591
98.7997
111.78
118.894
121.865
121.903
120.719
118.878
116.384
113.454
110.385
107.334
104.437
101.727
99.2259
96.9209
94.8227
92.9113
91.1664
89.5649
88.0927
86.7432
85.4997
84.3488
83.281
82.2854
81.3553
80.4855
79.671
78.9064
78.1874
77.5081
76.8658
76.2584
75.6828
75.1375
74.6189
74.1248
73.6538
73.2042
72.7751
72.365
71.9725
71.5957
71.2343
70.8871
70.5536
70.233
69.9244
69.6267
69.3397
69.0625
68.7952
68.5367
68.2871
68.0449
67.8105
67.5827
67.3622
67.1478
66.9403
66.7382
66.5423
66.3514
66.1663
65.9856
65.8104
65.6393
65.4732
65.3106
65.1527
64.9982
64.8479
64.7009
64.5575
64.4172
64.28
64.1458
64.0141
63.8855
63.7586
63.634
63.5119
63.3926
63.2797
63.166
63.0501
62.932
62.8097
62.6844
62.5401
62.3837
62.1572
61.8855
61.2275
60.6199
66.1236
75.6035
76.3696
74.6577
71.3285
67.9598
64.9704
62.4051
60.5346
58.9143
57.9856
56.4812
55.675
54.9353
54.5226
54.9671
55.1531
54.7925
54.1622
54.065
53.2618
53.5146
53.0696
53.1641
52.4706
52.2794
53.2644
53.5242
54.5089
53.9017
53.7889
53.2129
53.1156
52.7949
52.7557
52.3344
52.1396
54.1157
54.2665
54.3657
54.0704
53.4953
53.5561
52.6891
52.3597
52.8698
54.5888
55.125
54.4995
54.3165
53.6967
53.4151
53.1919
54.1805
55.4947
55.4072
54.8476
54.9563
56.1946
56.3278
55.2972
54.3895
54.421
54.2766
54.7408
55.6686
57.1062
57.4005
56.3202
55.7822
54.6981
54.1595
53.9882
53.6524
53.9715
55.7305
56.7391
56.4813
55.9365
54.9901
54.5801
53.9814
54.2834
55.3626
55.8085
55.4982
54.3834
53.5829
53.4757
55.0163
54.875
54.7153
54.2906
53.8742
53.2517
52.9017
54.3935
54.7493
56.2991
56.0412
56.3772
54.9588
53.8577
53.9086
53.6665
54.0671
53.0381
53.1863
53.1435
55.0645
54.7707
54.4731
54.1506
53.6998
53.3987
53.3421
54.6953
54.8176
57.1846
56.5284
56.4582
54.8051
54.9126
54.2149
53.5865
53.9773
52.9459
53.555
52.3822
53.5606
53.484
54.0881
53.62
54.3366
54.3596
53.6894
53.8687
53.2213
53.8741
52.7816
53.6424
53.5557
55.7164
54.5709
54.8064
53.7538
53.4442
53.7696
53.7145
54.286
54.5839
55.4095
53.604
54.1928
52.6915
53.7143
52.8998
53.1119
52.5595
53.118
53.0208
52.4324
53.5859
53.8087
54.5962
54.0512
54.5288
52.8081
52.8901
52.3695
53.9301
53.2676
54.6485
53.3673
53.649
52.4524
51.8519
51.519
52.7972
52.6962
51.9935
52.5422
52.7581
54.3777
53.7919
54.8215
54.5304
53.3078
52.4137
52.3448
51.6817
51.907
51.1786
51.7023
50.833
51.6547
47.6261
46.1619
51.4758
57.372
61.3309
7.36564
19.6852
32.9474
46.5202
60.67
74.7715
87.0839
95.8235
100.422
102.355
102.539
101.754
100.51
98.8749
96.8218
94.5898
92.3021
90.063
87.9106
85.8714
83.9681
82.2017
80.5614
79.0422
77.6426
76.3489
75.1499
74.0357
72.9978
72.0339
71.1352
70.2946
69.5062
68.765
68.0664
67.4078
66.7863
66.1985
65.6422
65.1138
64.6113
64.1333
63.678
63.2441
62.8301
62.4342
62.0548
61.6916
61.3432
61.0091
60.6885
60.3802
60.0832
59.7973
59.5216
59.256
58.9996
58.7523
58.5128
58.2812
58.0567
57.8394
57.6287
57.4246
57.2263
57.0341
56.8471
56.6657
56.4891
56.3176
56.1506
55.9881
55.8296
55.6753
55.5246
55.3777
55.2342
55.0939
54.9567
54.8222
54.6905
54.5608
54.4337
54.3079
54.1838
54.0611
53.9387
53.8214
53.7044
53.5832
53.4563
53.325
53.1865
53.0292
52.8541
52.6151
52.3245
51.7035
51.1635
55.1211
62.2108
63.7987
63.5987
62.0809
59.968
57.5839
55.4087
53.6264
52.0843
51.0378
49.6548
48.7392
47.9263
47.3946
47.5174
47.5585
47.2177
46.6894
46.4677
45.8436
45.8501
45.479
45.4082
44.8492
44.5925
45.1983
45.4267
46.1014
45.7662
45.6634
45.2534
45.1076
44.835
44.7187
44.3481
44.1906
45.4842
45.6723
45.8131
45.6627
45.2545
45.2211
44.5706
44.2148
44.4905
45.6835
46.1582
45.826
45.717
45.2785
44.9954
44.7575
45.4217
46.3874
46.3959
46.0487
46.1797
47.0994
47.2874
46.607
45.905
45.8165
45.6464
45.9322
46.6265
47.7846
48.2003
47.5899
47.2185
46.3971
45.8665
45.6203
45.2727
45.4176
46.6685
47.5549
47.5131
47.1735
46.5101
46.1494
45.6556
45.8114
46.5523
46.964
46.7973
46.0225
45.3751
45.2468
46.2259
46.1734
46.0667
45.7664
45.4273
44.8966
44.6023
45.5439
45.8802
47.0896
47.093
47.4753
46.535
45.6773
45.5932
45.3792
45.5093
44.7805
44.7856
44.7865
46.062
45.9385
45.7426
45.5226
45.1685
44.8674
44.8251
45.7098
45.9703
47.7486
47.5363
47.4821
46.4659
46.4998
45.9822
45.4483
45.5638
44.8577
45.0713
44.3165
45.0261
45.0105
45.4086
45.1312
45.6382
45.7288
45.2617
45.3062
44.9083
45.2055
44.5089
45.0085
45.0723
46.5295
45.9097
46.0971
45.386
45.0795
45.2848
45.2755
45.6798
46.0102
46.5087
45.398
45.6561
44.7087
45.2991
44.7301
44.7584
44.3628
44.6873
44.6246
44.2105
44.9585
45.1976
45.8028
45.5784
45.7802
44.6777
44.6236
44.3427
45.3049
45.0068
45.87
45.1197
45.2861
44.4287
43.8833
43.5679
44.3681
44.3056
43.7953
44.1181
44.3602
45.5109
45.2835
46.0984
46.0419
45.2089
44.4766
44.2894
43.7561
43.7705
43.1929
43.3194
42.6738
42.9218
40.0171
38.3373
41.5846
45.7457
49.0865
3.17538
9.03276
16.33
24.6164
34.1849
45.1597
56.9716
68.3139
77.3733
83.5054
86.8035
88.1669
88.3918
87.8905
87.0461
85.8887
84.457
82.8318
81.117
79.3706
77.652
75.992
74.4082
72.9097
71.4998
70.1794
68.9456
67.7921
66.7126
65.7072
64.7688
63.8896
63.0651
62.2891
61.5618
60.878
60.2334
59.6244
59.048
58.5015
57.9828
57.4903
57.022
56.5763
56.1513
55.7454
55.3571
54.9859
54.6304
54.29
53.9636
53.65
53.3484
53.0584
52.7792
52.5105
52.2515
52.0017
51.7603
51.527
51.3013
51.0831
50.8717
50.6672
50.4687
50.2763
50.0894
49.9082
49.732
49.5611
49.3946
49.2328
49.075
48.9215
48.7717
48.6256
48.483
48.3435
48.2071
48.0732
47.9421
47.8129
47.686
47.5603
47.4361
47.3126
47.1891
47.068
46.9489
46.825
46.6941
46.5587
46.4143
46.2519
46.07
45.8305
45.5412
44.9688
44.5018
47.419
52.8326
54.5447
54.9326
54.5064
53.4002
51.7634
50.0617
48.4587
47.065
45.9902
44.7316
43.7962
42.9694
42.3739
42.2983
42.2198
41.8685
41.3914
41.1014
40.579
40.447
40.1166
39.9509
39.4805
39.1904
39.5559
39.7295
40.1769
39.9692
39.8653
39.5634
39.3976
39.1717
39.0212
38.6945
38.553
39.4219
39.5961
39.7159
39.6413
39.339
39.2569
38.7589
38.4247
38.5741
39.4088
39.7909
39.6029
39.535
39.2262
38.9699
38.751
39.2079
39.9209
39.9583
39.7304
39.8677
40.5687
40.7522
40.2843
39.7567
39.636
39.4724
39.6483
40.1756
41.0899
41.5169
41.1858
40.9325
40.3283
39.8649
39.6023
39.2745
39.3266
40.2318
40.9578
41.0108
40.7928
40.3252
40.0284
39.6387
39.7233
40.2511
40.5943
40.4941
39.9381
39.4284
39.3171
39.9605
39.9331
39.8394
39.6179
39.3361
38.8938
38.6487
39.2663
39.5664
40.4839
40.6084
40.9689
40.3428
39.6848
39.5666
39.3832
39.3684
38.8313
38.7644
38.8035
39.66
39.6013
39.4544
39.2988
39.0191
38.7454
38.7139
39.3163
39.6239
40.9657
40.9749
40.9447
40.3123
40.3373
39.9689
39.5289
39.512
38.9964
39.0104
38.4965
38.9371
38.9498
39.199
39.0272
39.3874
39.5008
39.1669
39.1495
38.8885
39.0024
38.5365
38.8434
38.994
39.9885
39.6361
39.7743
39.2973
39.0257
39.1682
39.1829
39.483
39.8031
40.1248
39.3986
39.4905
38.8838
39.2422
38.843
38.7685
38.4747
38.6529
38.6035
38.2957
38.802
39.0297
39.4839
39.4148
39.5037
38.7539
38.6536
38.5312
39.1511
39.04
39.5858
39.1189
39.2134
38.5966
38.1233
37.8531
38.365
38.3103
37.9138
38.1076
38.3509
39.1743
39.1173
39.7758
39.8421
39.2672
38.6839
38.4585
38.035
37.9319
37.4783
37.3984
36.8911
36.7041
34.5296
32.9449
35.0057
37.9719
40.6478
1.45756
4.18864
7.78887
12.273
17.8525
24.8508
33.431
43.2604
53.2512
62.2672
69.1875
73.708
76.2153
77.2705
77.541
77.2711
76.6768
75.8548
74.8654
73.6726
72.3683
71.0119
69.646
68.2961
66.9787
65.7113
64.5026
63.3544
62.2664
61.2397
60.2731
59.3623
58.5053
57.6963
56.9362
56.2212
55.5466
54.9093
54.3056
53.7347
53.1947
52.6828
52.1964
51.7338
51.2927
50.8721
50.4706
50.0873
49.7207
49.37
49.0338
48.7112
48.4014
48.1039
47.8178
47.5427
47.2778
47.0226
46.7761
46.5383
46.3085
46.0865
45.8718
45.6641
45.4627
45.2677
45.0785
44.8951
44.7171
44.5443
44.3763
44.213
44.054
43.8992
43.7484
43.6013
43.4579
43.3176
43.1804
43.0458
42.914
42.7842
42.6566
42.5303
42.4052
42.2808
42.1566
42.0324
41.9113
41.7857
41.6534
41.5162
41.3693
41.2057
41.0227
40.7881
40.5089
39.9862
39.5827
41.7753
45.9733
47.6057
48.1814
48.2789
47.8267
46.8694
45.6759
44.3498
43.1354
42.0974
40.9629
40.0589
39.2565
38.637
38.4409
38.2772
37.9103
37.4606
37.1336
36.672
36.4574
36.1502
35.9308
35.517
35.2095
35.4182
35.5379
35.8224
35.6728
35.5583
35.3231
35.1504
34.9564
34.7918
34.5049
34.3715
34.9657
35.1114
35.192
35.1496
34.9094
34.8033
34.4128
34.1147
34.1941
34.7865
35.0804
34.9579
34.9063
34.6852
34.464
34.2748
34.5948
35.1253
35.1626
35.0011
35.1335
35.6811
35.8457
35.5051
35.1051
34.9819
34.8407
34.9534
35.3669
36.0865
36.4785
36.3055
36.1263
35.6876
35.3062
35.0632
34.7691
34.7723
35.4404
36.0195
36.107
35.9615
35.6261
35.3874
35.0861
35.1344
35.5253
35.8022
35.7337
35.3203
34.9211
34.8371
35.2762
35.2546
35.1559
34.9831
34.7447
34.3792
34.1757
34.5949
34.8581
35.547
35.7193
36.0242
35.6043
35.1025
34.9896
34.8366
34.7511
34.3383
34.2389
34.3057
34.8931
34.8566
34.728
34.6098
34.3845
34.1475
34.1245
34.5528
34.8668
35.8874
36.0012
35.9855
35.5905
35.6219
35.375
35.0176
34.9416
34.5469
34.4621
34.0957
34.3748
34.4024
34.5521
34.4405
34.6925
34.809
34.5606
34.5169
34.3381
34.354
34.0273
34.2222
34.4205
35.1114
34.9071
34.9953
34.6775
34.4425
34.5509
34.5782
34.8108
35.1082
35.3268
34.8324
34.8349
34.441
34.6656
34.3901
34.2661
34.0439
34.1294
34.0845
33.8438
34.1964
34.4046
34.744
34.7475
34.7812
34.2514
34.1395
34.1175
34.5399
34.5269
34.8758
34.5717
34.6111
34.164
33.7583
33.5408
33.8751
33.8244
33.4994
33.6139
33.8462
34.4434
34.4762
35.0042
35.1245
34.7289
34.265
34.0405
33.7012
33.5407
33.1768
32.9998
32.5871
32.1157
30.4101
29.0076
30.359
32.5206
34.6291
0.724552
2.0041
3.78191
5.97785
8.8697
12.7119
17.8198
24.4365
32.3844
41.0587
49.5112
56.7615
62.222
65.7149
67.7272
68.6822
68.9585
68.829
68.424
67.8508
67.1199
66.2651
65.2867
64.2377
63.1543
62.0601
60.9734
59.9094
58.8775
57.8822
56.9284
56.0182
55.1532
54.3307
53.5498
52.8107
52.1104
51.4472
50.8177
50.2214
49.6567
49.1214
48.6125
48.1286
47.6669
47.2284
46.8106
46.4122
46.0313
45.6671
45.3181
44.9837
44.6631
44.3556
44.0601
43.7762
43.503
43.2399
42.9863
42.7418
42.5058
42.2781
42.058
41.8452
41.6391
41.4396
41.2464
41.0592
40.8776
40.7015
40.5304
40.3641
40.2024
40.045
39.8918
39.7425
39.597
39.4547
39.3157
39.1793
39.0459
38.9145
38.7855
38.6578
38.5314
38.4057
38.2804
38.1543
38.0305
37.9038
37.7711
37.6332
37.4856
37.3225
37.1411
36.9135
36.6482
36.1713
35.8196
37.4921
40.7977
42.2889
42.8985
43.2058
43.1147
42.6346
41.8876
40.9104
39.9113
38.9522
37.9406
37.0965
36.3425
35.7291
35.4647
35.2473
34.8699
34.4377
34.0917
33.6685
33.4067
33.1113
32.8597
32.4856
32.1694
32.2723
32.3449
32.513
32.3877
32.2591
32.0627
31.8868
31.7134
31.5436
31.2912
31.1629
31.5723
31.6877
31.7291
31.695
31.4901
31.3714
31.0572
30.7956
30.8337
31.2602
31.4808
31.3854
31.3348
31.171
30.9831
30.8231
31.0495
31.4476
31.4743
31.3503
31.4711
31.907
32.0498
31.7887
31.4767
31.3607
31.2443
31.3215
31.6575
32.228
32.5694
32.4822
32.3488
32.028
31.7226
31.5136
31.2593
31.2383
31.7414
32.2013
32.2944
32.1922
31.9456
31.7541
31.5225
31.5515
31.8515
32.0748
32.023
31.7044
31.3898
31.3316
31.6422
31.6209
31.5156
31.372
31.1671
30.8652
30.6951
30.9878
31.2181
31.7358
31.9198
32.1617
31.8735
31.4894
31.3932
31.2685
31.1517
30.8258
30.7161
30.7978
31.2119
31.1819
31.0585
30.9619
30.7748
30.5733
30.5573
30.874
31.1767
31.9596
32.1185
32.1075
31.863
31.8993
31.7464
31.4583
31.3594
31.0495
30.9191
30.6498
30.8274
30.8691
30.9486
30.8723
31.0448
31.1548
30.9627
30.9097
30.783
30.7466
30.5067
30.631
30.8523
31.3445
31.2271
31.2715
31.0587
30.8573
30.9437
30.9772
31.1645
31.4364
31.5935
31.2464
31.1977
30.9406
31.0827
30.8985
30.7551
30.5871
30.6137
30.571
30.3755
30.6253
30.8127
31.0676
31.1028
31.1038
30.7193
30.6112
30.6484
30.9525
30.993
31.2179
31.0138
31.0079
30.6838
30.3333
30.1675
30.3887
30.3451
30.068
30.1316
30.3463
30.7885
30.8656
31.288
31.4278
31.1504
30.7821
30.5747
30.2995
30.1163
29.817
29.5965
29.2526
28.63
27.2446
26.0122
26.9211
28.533
30.1867
0.395621
0.978319
1.89151
3.02523
4.41864
6.32123
8.95206
12.6109
17.538
23.7837
31.0539
38.6642
45.8649
51.8054
56.239
59.1128
60.8136
61.6824
61.9659
61.9336
61.6861
61.2782
60.7501
60.1217
59.4029
58.5971
57.7411
56.8609
55.9712
55.0826
54.2058
53.3497
52.5197
51.7193
50.9481
50.2092
49.5025
48.8285
48.1855
47.5724
46.9883
46.4327
45.9032
45.3991
44.9175
44.4595
44.023
43.6067
43.2087
42.8281
42.4635
42.1153
41.7818
41.4623
41.1554
40.8607
40.5772
40.3045
40.0419
39.7891
39.5454
39.3103
39.0832
38.8638
38.6515
38.4463
38.2476
38.0553
37.869
37.6882
37.5128
37.3424
37.1769
37.0159
36.8593
36.7068
36.5582
36.413
36.2712
36.1324
35.9965
35.863
35.7318
35.6021
35.4739
35.3465
35.2196
35.0923
34.9656
34.8375
34.7049
34.5667
34.419
34.2574
34.0786
33.8587
33.608
33.1718
32.861
34.1506
36.791
38.1298
38.7158
39.091
39.1759
38.9823
38.5575
37.9106
37.1612
36.3199
35.4292
34.6584
33.9668
33.3825
33.0868
32.8409
32.462
32.0442
31.6887
31.2907
31.0021
30.7156
30.4465
30.1031
29.7847
29.8124
29.8447
29.9285
29.8102
29.6666
29.4915
29.3144
29.1562
28.986
28.7605
28.6335
28.9133
29.001
29.0094
28.9742
28.7913
28.6649
28.4036
28.1709
28.1815
28.4923
28.6572
28.5739
28.5179
28.3885
28.225
28.0881
28.2489
28.5517
28.5686
28.4667
28.5707
28.9189
29.0389
28.831
28.5808
28.4769
28.3829
28.4376
28.7158
29.1721
29.464
29.4242
29.3201
29.0804
28.8354
28.6598
28.4442
28.4148
28.8041
29.1735
29.2592
29.1812
28.9923
28.8362
28.6585
28.6784
28.9176
29.1011
29.0589
28.804
28.5508
28.5121
28.739
28.7195
28.6116
28.4877
28.3073
28.0541
27.9088
28.119
28.3232
28.7173
28.8966
29.0815
28.8747
28.5736
28.4938
28.395
28.2705
28.0092
27.8985
27.9838
28.2825
28.2558
28.1365
28.0537
27.8937
27.7206
27.708
27.9488
28.2332
28.8419
29.0166
29.0054
28.857
28.8919
28.8035
28.5732
28.4719
28.227
28.0805
27.8786
27.9889
28.0398
28.0714
28.0178
28.1335
28.234
28.0816
28.0253
27.9304
27.8659
27.6842
27.7634
27.9921
28.3531
28.288
28.2967
28.1514
27.9767
28.0499
28.088
28.244
28.4898
28.6042
28.3558
28.2813
28.1143
28.2034
28.0863
27.939
27.8116
27.8003
27.7603
27.5986
27.779
27.9475
28.1399
28.1857
28.1651
27.8798
27.7796
27.8506
28.0803
28.1508
28.2969
28.1576
28.1228
27.8843
27.5766
27.4542
27.6014
27.5656
27.3253
27.3559
27.5501
27.8855
27.9825
28.3204
28.4642
28.2591
27.9678
27.7836
27.5574
27.3704
27.1185
26.8828
26.5866
25.9075
24.7544
23.6608
24.2821
25.5095
26.8127
0.27036
0.517591
0.964904
1.58994
2.35524
3.28199
4.53322
6.31031
8.84054
12.3724
17.0868
22.9149
29.5112
36.1921
42.3563
47.3746
51.0942
53.5573
55.0432
55.8404
56.1887
56.2134
56.0668
55.7846
55.408
54.9413
54.4079
53.8005
53.1319
52.4284
51.7028
50.9662
50.2287
49.4998
48.7823
48.0813
47.3998
46.7411
46.1061
45.4947
44.9069
44.3436
43.8037
43.2875
42.793
42.3198
41.8671
41.4345
41.0204
40.6241
40.244
39.8807
39.5328
39.1993
38.8791
38.5717
38.2759
37.9921
37.7194
37.4569
37.204
36.9601
36.7247
36.4974
36.2778
36.0657
35.8606
35.6621
35.4698
35.2835
35.1027
34.9273
34.7571
34.5916
34.4308
34.2743
34.1218
33.973
33.8278
33.6858
33.5468
33.4104
33.2766
33.1444
33.014
32.8844
32.7556
32.6268
32.4976
32.3678
32.2349
32.0965
31.9491
31.789
31.6133
31.4009
31.1636
30.7632
30.4842
31.4858
33.6219
34.8145
35.3567
35.7412
35.9027
35.8626
35.6452
35.2466
34.7335
34.0498
33.2862
32.5949
31.9724
31.4312
31.1289
30.8737
30.5032
30.1017
29.7433
29.3636
29.0605
28.7812
28.504
28.1855
27.8693
27.8433
27.8419
27.8645
27.7451
27.5875
27.4225
27.2444
27.0976
26.93
26.725
26.5966
26.7829
26.8463
26.8279
26.788
26.6203
26.4897
26.2646
26.0527
26.0428
26.2704
26.3941
26.317
26.2549
26.1446
25.9968
25.8763
25.9889
26.222
26.2319
26.1448
26.2293
26.506
26.6037
26.4331
26.2268
26.1352
26.0607
26.0998
26.3316
26.6994
26.9486
26.9352
26.8508
26.6665
26.4668
26.3184
26.1359
26.1069
26.4174
26.7195
26.7938
26.7295
26.5775
26.4467
26.3097
26.3257
26.5228
26.6774
26.6416
26.4314
26.2222
26.1965
26.3666
26.3506
26.2445
26.1356
25.9731
25.7565
25.6307
25.7844
25.9677
26.2736
26.4421
26.5801
26.4236
26.179
26.1116
26.0337
25.9137
25.7028
25.5955
25.6773
25.8961
25.8738
25.7594
25.6861
25.5465
25.3953
25.383
25.5697
25.8331
26.3139
26.4896
26.4761
26.3894
26.4183
26.3703
26.1867
26.0925
25.8999
25.7532
25.6005
25.6652
25.721
25.7209
25.6821
25.7578
25.8487
25.7259
25.6688
25.5933
25.5132
25.3728
25.4229
25.6485
25.9215
25.8892
25.8704
25.7701
25.6147
25.6788
25.7206
25.8546
26.0751
26.1581
25.9774
25.891
25.7857
25.84
25.7724
25.6291
25.5324
25.4966
25.4605
25.3248
25.4579
25.6099
25.7557
25.802
25.7668
25.5506
25.4581
25.5473
25.7278
25.8154
25.9116
25.8156
25.7636
25.587
25.3128
25.2218
25.3202
25.2909
25.0821
25.0915
25.2652
25.5255
25.6302
25.9007
26.0402
25.881
25.6488
25.4884
25.2998
25.1184
24.9028
24.6669
24.4039
23.7248
22.7457
21.7659
22.194
23.1472
24.1827
0.227937
0.324159
0.527218
0.855225
1.30236
1.83275
2.48417
3.31425
4.4982
6.19854
8.63918
12.0288
16.4853
21.8694
27.8148
33.7232
39.0742
43.4186
46.6312
48.8103
50.1637
50.9253
51.2983
51.3933
51.3058
51.1213
50.849
50.5092
50.1037
49.654
49.1417
48.5821
47.996
47.3931
46.7782
46.1601
45.5448
44.9369
44.3402
43.7573
43.1894
42.6385
42.1052
41.5909
41.0952
40.6175
40.1576
39.716
39.2916
38.8844
38.493
38.1171
37.7562
37.4098
37.0769
36.7571
36.4491
36.1535
35.8693
35.5959
35.3324
35.0785
34.8333
34.5971
34.3693
34.1493
33.9367
33.731
33.5319
33.339
33.1522
32.971
32.7953
32.6246
32.4589
32.2975
32.1405
31.9875
31.8382
31.6924
31.5499
31.4101
31.2731
31.1379
31.0048
30.8726