/*--------------------------------*- C++ -*----------------------------------*\
| =========                 |                                                 |
| \\      /  F ield         | foam-extend: Open Source CFD                    |
|  \\    /   O peration     | Version:     3.2                                |
|   \\  /    A nd           | Web:         http://www.foam-extend.org         |
|    \\/     M anipulation  | For copyright notice see file Copyright         |
\*---------------------------------------------------------------------------*/
FoamFile
{
    version     2.0;
    format      ascii;
    class       volScalarField;
    location    "160";
    object      p;
}
// * * * * * * * * * * * * * * * * * * * * * * * * * * * * * * * * * * * * * //

dimensions      [1 -1 -2 0 0 0 0];

internalField   nonuniform List<scalar> 
96000
(
-2019.11
-2156.97
-2170.58
-2171.87
-2173.17
-2175.02
-2177.13
-2179.24
-2181.55
-2183.55
-2185.32
-2187.07
-2188.61
-2190.1
-2191.49
-2192.8
-2194.11
-2195.34
-2196.56
-2197.71
-2198.87
-2200
-2201.13
-2202.22
-2203.3
-2204.38
-2205.44
-2206.5
-2207.53
-2208.57
-2209.58
-2210.61
-2211.61
-2212.61
-2213.6
-2214.59
-2215.57
-2216.55
-2217.52
-2218.48
-2219.44
-2220.39
-2221.35
-2222.29
-2223.23
-2224.17
-2225.09
-2226.02
-2226.94
-2227.87
-2228.78
-2229.69
-2230.6
-2231.5
-2232.41
-2233.31
-2234.21
-2235.1
-2236
-2236.89
-2237.79
-2238.68
-2239.57
-2240.47
-2241.36
-2242.26
-2243.17
-2244.08
-2245
-2245.92
-2246.86
-2247.81
-2248.79
-2249.76
-2250.79
-2251.82
-2252.92
-2254.02
-2255.22
-2256.43
-2257.77
-2259.12
-2260.66
-2262.23
-2264.06
-2265.94
-2268.18
-2270.5
-2273.39
-2276.41
-2280.23
-2284.34
-2289.65
-2295.63
-2303.33
-2313.08
-2324.57
-2344.45
-2343.93
-2443.89
-2268.45
-2150.91
-2117.75
-2049.46
-2021.12
-1971.93
-1938.44
-1895.72
-1844.42
-1784.4
-1706.88
-1706.45
-1723.8
-1806.66
-1828.47
-1797.98
-1751.59
-1657.51
-1601.62
-1548.28
-1631.53
-1650.44
-1772.47
-1737.18
-1764.13
-1691.85
-1557.55
-1506.87
-1399.26
-1445.86
-1420.53
-1573.05
-1578.62
-1574.89
-1441.34
-1385
-1403.35
-1328.39
-1439.22
-1501.04
-1561.15
-1534.99
-1412.73
-1384.84
-1373.81
-1423.33
-1491.35
-1534.3
-1516.39
-1394
-1355.54
-1339.89
-1430.56
-1521.94
-1565.81
-1520.74
-1406.9
-1331.01
-1293.59
-1354.14
-1481.65
-1566.74
-1486.23
-1380.68
-1278.66
-1313.17
-1375.12
-1405.09
-1431.16
-1347.46
-1259.96
-1179.8
-1231.22
-1349.9
-1421.39
-1384.04
-1303.36
-1189.4
-1105.92
-1133.91
-1212.73
-1351.19
-1381.7
-1367
-1319.38
-1220.66
-1166.39
-1149.33
-1228.98
-1256.44
-1353.61
-1273.34
-1194.68
-1109.07
-1107.66
-1204.09
-1224.54
-1323.69
-1198.51
-1161.17
-1018.18
-1064.97
-1120.1
-1195.48
-1301.9
-1192.05
-1148.81
-1017.59
-1122.96
-1133.21
-1261.46
-1235.95
-1206.49
-1107.65
-1022.81
-1055.96
-1018.85
-1166.09
-1100.17
-1186.88
-1033.54
-1036.7
-886.165
-972.942
-1096.86
-1084.53
-1196.85
-1036.86
-1071.43
-869.702
-975.495
-911.433
-1116.32
-1089.33
-1045.95
-966.109
-844.171
-966.057
-968.623
-1156.02
-1033
-1090.73
-863.541
-942.347
-793.391
-953.172
-1010.01
-1057.29
-1032.55
-869.818
-868.997
-787.096
-1035.89
-937.999
-1125.87
-918.915
-1002.44
-816.436
-940.615
-923.626
-1065.36
-1201.67
-1148.1
-1166.31
-1063.04
-1121.25
-998.924
-1091.41
-947.697
-1015.14
-863.088
-955.345
-798.134
-921.134
-762.574
-861.495
-749.191
-791.56
-684.182
-675.167
-667.615
-567.099
-571.562
-438.993
-478.473
-353.603
-360.789
-322.213
-312.025
-253.898
-262.687
-187.812
-222.909
-128.114
-211.412
-103.426
-281.702
-318.377
-117.702
-84.2775
-2049.59
-2183.26
-2197.32
-2199.02
-2200.46
-2202.34
-2204.49
-2206.63
-2208.95
-2210.98
-2212.75
-2214.51
-2216.05
-2217.55
-2218.94
-2220.26
-2221.57
-2222.8
-2224.01
-2225.16
-2226.33
-2227.46
-2228.59
-2229.68
-2230.77
-2231.84
-2232.91
-2233.97
-2235
-2236.04
-2237.05
-2238.08
-2239.08
-2240.09
-2241.07
-2242.06
-2243.05
-2244.02
-2245
-2245.95
-2246.92
-2247.87
-2248.82
-2249.76
-2250.7
-2251.64
-2252.57
-2253.5
-2254.42
-2255.34
-2256.25
-2257.17
-2258.08
-2258.98
-2259.89
-2260.79
-2261.68
-2262.58
-2263.48
-2264.37
-2265.26
-2266.16
-2267.05
-2267.94
-2268.84
-2269.74
-2270.65
-2271.55
-2272.48
-2273.39
-2274.34
-2275.28
-2276.26
-2277.24
-2278.27
-2279.3
-2280.4
-2281.5
-2282.7
-2283.91
-2285.25
-2286.6
-2288.14
-2289.71
-2291.54
-2293.42
-2295.66
-2297.99
-2300.87
-2303.89
-2307.72
-2311.82
-2317.14
-2323.13
-2330.83
-2340.59
-2352.08
-2372.01
-2370.79
-2468.68
-2295.7
-2178.74
-2145.06
-2076.79
-2048.21
-1999.11
-1965.5
-1922.79
-1871.65
-1812.51
-1736.02
-1735.66
-1751.85
-1832.42
-1853.79
-1823.58
-1777.98
-1685.94
-1631.4
-1577.83
-1659.98
-1676.94
-1797.51
-1762.36
-1789.2
-1718.48
-1585.58
-1535.9
-1428.82
-1475.13
-1449.5
-1598.7
-1602.89
-1600.29
-1470.39
-1414.45
-1432.39
-1358.14
-1466.89
-1526.73
-1585.35
-1560.71
-1441.67
-1414.7
-1403.18
-1451.31
-1517.26
-1558.47
-1542.01
-1422.99
-1385.81
-1369.84
-1458.68
-1547.15
-1589.54
-1546.14
-1435.57
-1361.03
-1323.79
-1383.09
-1506.97
-1590.11
-1511.63
-1409.87
-1309.61
-1341.99
-1401.44
-1430.37
-1456.37
-1373.97
-1289.41
-1211.3
-1261
-1375.69
-1445.72
-1409.22
-1329.96
-1218.72
-1137.04
-1164.15
-1240.83
-1376.3
-1406.55
-1392.22
-1345.58
-1249.38
-1196.43
-1178.62
-1257.02
-1282.43
-1377.57
-1298.97
-1223.34
-1139.46
-1137.14
-1232.18
-1250.18
-1347.82
-1224.48
-1189.71
-1048.22
-1094.48
-1148.61
-1221.23
-1325.8
-1217.71
-1177.89
-1048.59
-1151.76
-1159.79
-1286.13
-1261.04
-1232.58
-1136.63
-1052.79
-1085.48
-1047.11
-1192.05
-1125.56
-1212.34
-1060.27
-1065.34
-917.549
-1001.82
-1123
-1109.78
-1221.97
-1063.16
-1099.81
-900.011
-1004.82
-940.554
-1141.27
-1113.71
-1071.98
-995.321
-874.892
-995.23
-994.95
-1180.72
-1058.46
-1117.22
-892.346
-971.489
-823.984
-981.292
-1035.74
-1081.59
-1058.29
-898.689
-899.662
-816.321
-1062.03
-963.519
-1150.97
-945.908
-1030.31
-846.773
-969.441
-952.602
-1091.24
-1225.73
-1173.39
-1192.78
-1089.88
-1147.88
-1025.7
-1117.69
-974.621
-1042.06
-890.109
-982.172
-825.097
-947.716
-789.702
-887.667
-776.011
-818.15
-711.352
-701.753
-694.259
-594.006
-598.563
-466.09
-505.213
-381.036
-387.845
-349.1
-338.925
-280.854
-289.629
-214.863
-250.001
-155.347
-239.27
-132.295
-306.744
-344.041
-144.925
-111.602
-2082.76
-2209.24
-2223.64
-2225.72
-2227.47
-2229.51
-2231.74
-2233.94
-2236.29
-2238.33
-2240.12
-2241.89
-2243.45
-2244.96
-2246.35
-2247.68
-2249
-2250.23
-2251.45
-2252.61
-2253.77
-2254.91
-2256.04
-2257.13
-2258.22
-2259.3
-2260.36
-2261.42
-2262.45
-2263.5
-2264.51
-2265.54
-2266.54
-2267.55
-2268.54
-2269.53
-2270.51
-2271.49
-2272.46
-2273.42
-2274.39
-2275.34
-2276.29
-2277.23
-2278.17
-2279.11
-2280.04
-2280.97
-2281.89
-2282.81
-2283.73
-2284.64
-2285.55
-2286.45
-2287.36
-2288.26
-2289.16
-2290.05
-2290.95
-2291.84
-2292.74
-2293.63
-2294.52
-2295.42
-2296.32
-2297.21
-2298.12
-2299.03
-2299.95
-2300.87
-2301.82
-2302.76
-2303.74
-2304.72
-2305.75
-2306.78
-2307.88
-2308.98
-2310.18
-2311.38
-2312.72
-2314.08
-2315.62
-2317.19
-2319.02
-2320.9
-2323.14
-2325.47
-2328.35
-2331.38
-2335.2
-2339.31
-2344.63
-2350.62
-2358.32
-2368.1
-2379.55
-2399.57
-2398.4
-2492.02
-2322.49
-2206.42
-2172.14
-2104.19
-2075.2
-2026.24
-1992.49
-1949.8
-1898.85
-1840.78
-1765.64
-1765.45
-1780.31
-1858.34
-1879.04
-1848.9
-1804.08
-1714.15
-1661.11
-1607.82
-1688.91
-1703.84
-1822.59
-1787.11
-1813.61
-1744.51
-1613.56
-1564.92
-1458.73
-1504.74
-1479.03
-1624.49
-1626.96
-1625.15
-1499.1
-1443.78
-1461.64
-1388.59
-1494.87
-1552.58
-1609.28
-1585.87
-1470.24
-1444.4
-1432.8
-1479.94
-1543.45
-1582.47
-1567.19
-1451.61
-1416.02
-1400.3
-1487.2
-1572.45
-1612.98
-1571
-1463.8
-1391.07
-1354.63
-1412.63
-1532.42
-1612.96
-1536.43
-1438.71
-1340.7
-1371.24
-1428.21
-1455.75
-1481.23
-1399.88
-1318.68
-1243.27
-1291.32
-1401.59
-1470.08
-1433.99
-1356.16
-1247.95
-1168.59
-1195.03
-1269.3
-1401.4
-1431.31
-1417.01
-1371.49
-1277.76
-1226.36
-1208.17
-1285.49
-1308.73
-1401.32
-1324.14
-1251.74
-1169.73
-1166.92
-1260.71
-1276.02
-1371.61
-1250.18
-1217.89
-1078.58
-1124.45
-1177.55
-1247.21
-1349.39
-1243
-1206.6
-1079.56
-1180.9
-1187.05
-1310.84
-1285.8
-1258.14
-1165.15
-1082.55
-1115.19
-1075.86
-1218.17
-1151.15
-1237.63
-1086.74
-1093.59
-949.474
-1031.24
-1149.25
-1135.27
-1246.72
-1089.08
-1127.58
-930.267
-1034.49
-970.407
-1166.12
-1137.84
-1097.64
-1024.27
-906.043
-1024.91
-1021.71
-1205.27
-1083.58
-1143.36
-921.143
-1000.25
-855.233
-1009.74
-1061.59
-1105.57
-1083.46
-927.693
-930.618
-846.143
-1088.42
-989.205
-1175.29
-972.817
-1057.66
-877.251
-998.412
-982.231
-1117.29
-1249.08
-1198.13
-1218.81
-1116.62
-1174.42
-1052.49
-1143.46
-1001.28
-1068.74
-917.125
-1009.06
-852.055
-973.693
-817.099
-913.69
-802.551
-844.533
-738.542
-728.279
-720.528
-620.796
-625.317
-493.169
-531.861
-408.498
-414.89
-375.88
-365.737
-307.737
-316.515
-241.893
-277.117
-182.675
-267.282
-161.309
-331.58
-368.392
-171.844
-138.816
-2115.7
-2234.89
-2249.8
-2252.66
-2254.62
-2256.73
-2259.01
-2261.24
-2263.62
-2265.68
-2267.49
-2269.28
-2270.84
-2272.36
-2273.76
-2275.09
-2276.42
-2277.66
-2278.88
-2280.04
-2281.21
-2282.35
-2283.48
-2284.58
-2285.67
-2286.75
-2287.81
-2288.88
-2289.91
-2290.95
-2291.97
-2293
-2294
-2295.01
-2296
-2296.99
-2297.97
-2298.95
-2299.93
-2300.89
-2301.85
-2302.8
-2303.75
-2304.7
-2305.64
-2306.58
-2307.51
-2308.44
-2309.36
-2310.28
-2311.2
-2312.11
-2313.02
-2313.92
-2314.83
-2315.73
-2316.63
-2317.53
-2318.42
-2319.32
-2320.21
-2321.1
-2322
-2322.89
-2323.79
-2324.69
-2325.59
-2326.5
-2327.42
-2328.34
-2329.29
-2330.23
-2331.21
-2332.19
-2333.22
-2334.25
-2335.35
-2336.45
-2337.65
-2338.86
-2340.2
-2341.56
-2343.1
-2344.67
-2346.5
-2348.38
-2350.62
-2352.95
-2355.83
-2358.86
-2362.68
-2366.8
-2372.11
-2378.11
-2385.81
-2395.59
-2406.98
-2427.07
-2425.73
-2515.28
-2349.24
-2233.95
-2199.1
-2131.58
-2102.13
-2053.37
-2019.46
-1976.79
-1926.07
-1869.1
-1795.28
-1795.31
-1808.9
-1884.4
-1904.19
-1874.23
-1830.13
-1742.32
-1690.71
-1638.08
-1717.58
-1731.1
-1847.49
-1812.03
-1837.94
-1770.26
-1641.54
-1593.75
-1488.96
-1534.3
-1508.79
-1650.22
-1651.24
-1649.97
-1527.78
-1473.32
-1490.62
-1419.24
-1522.88
-1578.54
-1633.33
-1611.06
-1498.7
-1473.98
-1462.4
-1508.63
-1569.65
-1606.7
-1592.43
-1480.12
-1446.13
-1430.97
-1515.61
-1597.81
-1636.57
-1595.88
-1491.98
-1420.99
-1385.48
-1442.24
-1558.06
-1635.72
-1561.36
-1467.35
-1371.64
-1400.45
-1454.98
-1481.39
-1506.16
-1425.8
-1347.86
-1275.18
-1321.65
-1427.57
-1494.57
-1458.65
-1382.42
-1277.18
-1200.11
-1225.97
-1297.93
-1426.61
-1456.05
-1441.88
-1397.4
-1306.05
-1256.16
-1237.85
-1313.85
-1335.25
-1425.16
-1349.4
-1280.02
-1199.94
-1196.92
-1289.01
-1301.99
-1395.29
-1276.07
-1245.74
-1109.23
-1154.38
-1206.49
-1273.43
-1372.92
-1268.51
-1235.05
-1110.43
-1209.99
-1214.54
-1335.63
-1310.65
-1283.71
-1193.57
-1112.32
-1144.68
-1104.71
-1244.04
-1177.24
-1262.97
-1113.18
-1121.66
-981.449
-1060.64
-1175.38
-1161.32
-1271.17
-1115.44
-1154.78
-960.801
-1063.83
-1000.51
-1190.91
-1162.15
-1123.31
-1052.99
-937.536
-1054.23
-1049.07
-1229.3
-1109.02
-1169.12
-950.28
-1028.8
-886.68
-1038.11
-1087.51
-1129.67
-1108.51
-956.703
-961.178
-876.703
-1114.35
-1015.54
-1199.09
-999.977
-1084.76
-907.832
-1027.23
-1011.95
-1143.6
-1272.09
-1222.79
-1244.4
-1143.52
-1200.7
-1079.29
-1169.12
-1027.94
-1095
-944.445
-1035.55
-879.568
-999.14
-844.66
-939.538
-829.259
-870.524
-765.754
-754.894
-746.451
-647.603
-651.705
-520.545
-558.318
-436.021
-441.952
-402.638
-392.521
-334.638
-343.399
-268.991
-304.262
-210.207
-295.356
-190.286
-357.643
-390.817
-198.748
-166.003
-2148.01
-2261.66
-2275.74
-2279.58
-2281.85
-2284.05
-2286.34
-2288.57
-2290.95
-2293.03
-2294.86
-2296.66
-2298.23
-2299.75
-2301.17
-2302.51
-2303.84
-2305.08
-2306.31
-2307.47
-2308.64
-2309.78
-2310.92
-2312.02
-2313.11
-2314.19
-2315.26
-2316.33
-2317.36
-2318.4
-2319.42
-2320.45
-2321.46
-2322.47
-2323.46
-2324.45
-2325.43
-2326.41
-2327.39
-2328.35
-2329.31
-2330.27
-2331.22
-2332.17
-2333.1
-2334.04
-2334.97
-2335.91
-2336.82
-2337.75
-2338.66
-2339.58
-2340.49
-2341.39
-2342.3
-2343.2
-2344.1
-2345
-2345.89
-2346.79
-2347.68
-2348.57
-2349.47
-2350.36
-2351.26
-2352.16
-2353.07
-2353.97
-2354.9
-2355.82
-2356.76
-2357.71
-2358.69
-2359.67
-2360.7
-2361.73
-2362.82
-2363.93
-2365.13
-2366.33
-2367.67
-2369.03
-2370.57
-2372.15
-2373.97
-2375.86
-2378.09
-2380.42
-2383.31
-2386.33
-2390.16
-2394.28
-2399.59
-2405.59
-2413.27
-2423.07
-2434.36
-2454.51
-2452.98
-2538.27
-2375.76
-2261.63
-2226.09
-2158.9
-2129
-2080.46
-2046.41
-2003.75
-1953.33
-1897.47
-1824.94
-1825.18
-1837.55
-1910.45
-1929.27
-1899.59
-1856.19
-1770.55
-1720.32
-1668.44
-1746.2
-1758.47
-1872.05
-1837.15
-1862.17
-1795.94
-1669.56
-1622.58
-1519.38
-1563.85
-1538.65
-1675.9
-1675.61
-1674.83
-1556.49
-1503
-1519.52
-1450.02
-1550.89
-1604.51
-1657.44
-1636.29
-1527.2
-1503.54
-1492.07
-1537.27
-1595.81
-1631.06
-1617.74
-1508.66
-1476.26
-1461.62
-1543.96
-1623.2
-1660.19
-1620.81
-1520.2
-1450.92
-1416.32
-1471.87
-1583.65
-1658.5
-1586.36
-1495.94
-1402.53
-1429.65
-1481.68
-1507.19
-1531.14
-1451.81
-1377.09
-1307.08
-1351.96
-1453.57
-1519.04
-1483.38
-1408.67
-1306.57
-1231.68
-1256.95
-1326.63
-1451.8
-1480.77
-1466.81
-1423.35
-1334.38
-1285.96
-1267.68
-1342.07
-1361.82
-1448.93
-1374.81
-1308.3
-1230.19
-1227.08
-1317.03
-1328.01
-1419.03
-1302.09
-1273.6
-1140
-1184.28
-1235.37
-1299.67
-1396.35
-1294.17
-1263.48
-1141.41
-1238.92
-1242.12
-1360.37
-1335.57
-1309.31
-1222
-1142.24
-1173.99
-1133.65
-1269.88
-1203.41
-1288.06
-1139.98
-1149.7
-1013.47
-1090.01
-1201.43
-1187.48
-1295.41
-1142.03
-1181.95
-991.731
-1092.95
-1030.62
-1215.64
-1186.62
-1149.07
-1081.63
-969.172
-1083.34
-1076.67
-1253.11
-1134.7
-1194.54
-979.827
-1057.27
-918.231
-1066.37
-1113.44
-1153.84
-1133.6
-985.764
-991.466
-907.546
-1139.88
-1042.3
-1222.79
-1027.33
-1111.78
-938.519
-1055.95
-1041.66
-1169.83
-1295.06
-1247.46
-1269.8
-1170.41
-1226.56
-1106.3
-1194.52
-1054.81
-1121.02
-971.855
-1061.5
-907.378
-1024.54
-872.272
-965.28
-856.109
-896.145
-792.967
-781.415
-772.288
-674.435
-678.013
-548.119
-584.447
-463.593
-468.993
-429.37
-419.213
-361.614
-370.168
-296.25
-331.208
-238.131
-323.148
-219.268
-383.896
-412.742
-225.612
-193.203
-2179.78
-2288.25
-2302.31
-2306.47
-2309.11
-2311.4
-2313.71
-2315.95
-2318.32
-2320.4
-2322.23
-2324.03
-2325.61
-2327.14
-2328.57
-2329.92
-2331.25
-2332.5
-2333.73
-2334.9
-2336.07
-2337.22
-2338.36
-2339.46
-2340.55
-2341.64
-2342.71
-2343.77
-2344.81
-2345.85
-2346.87
-2347.9
-2348.91
-2349.92
-2350.91
-2351.91
-2352.89
-2353.87
-2354.85
-2355.81
-2356.78
-2357.73
-2358.68
-2359.63
-2360.57
-2361.51
-2362.44
-2363.37
-2364.29
-2365.22
-2366.13
-2367.04
-2367.95
-2368.86
-2369.77
-2370.67
-2371.57
-2372.47
-2373.36
-2374.26
-2375.15
-2376.04
-2376.94
-2377.83
-2378.73
-2379.63
-2380.54
-2381.44
-2382.37
-2383.29
-2384.24
-2385.18
-2386.16
-2387.14
-2388.17
-2389.2
-2390.3
-2391.4
-2392.6
-2393.81
-2395.15
-2396.51
-2398.05
-2399.62
-2401.45
-2403.33
-2405.57
-2407.9
-2410.78
-2413.81
-2417.63
-2421.75
-2427.06
-2433.06
-2440.73
-2450.53
-2461.69
-2481.89
-2480.15
-2561.04
-2402.22
-2289.41
-2253.2
-2186.08
-2155.87
-2107.51
-2073.34
-2030.69
-1980.63
-1925.87
-1854.72
-1855.09
-1866.26
-1936.5
-1954.3
-1924.94
-1882.26
-1798.82
-1749.94
-1698.95
-1774.84
-1785.87
-1896.49
-1862.28
-1886.32
-1821.56
-1697.66
-1651.49
-1549.94
-1593.46
-1568.54
-1701.56
-1700.06
-1699.71
-1585.25
-1532.71
-1548.49
-1480.92
-1578.91
-1630.5
-1681.59
-1661.49
-1555.79
-1533.15
-1521.8
-1565.87
-1622.02
-1655.49
-1643.11
-1537.24
-1506.45
-1492.29
-1572.28
-1648.57
-1683.88
-1645.8
-1548.43
-1480.9
-1447.2
-1501.54
-1609.23
-1681.31
-1611.42
-1524.53
-1433.43
-1458.88
-1508.45
-1533.02
-1556.1
-1477.92
-1406.38
-1339.01
-1382.26
-1479.69
-1543.4
-1508.12
-1435.07
-1336.01
-1263.31
-1288
-1355.38
-1476.98
-1505.47
-1491.77
-1449.31
-1362.75
-1315.78
-1297.59
-1370.21
-1388.43
-1472.58
-1400.38
-1336.6
-1260.5
-1257.27
-1344.97
-1354.1
-1442.83
-1328.23
-1301.44
-1170.88
-1214.19
-1264.21
-1325.93
-1419.72
-1320.01
-1291.9
-1172.51
-1267.74
-1269.77
-1385.1
-1360.53
-1334.92
-1250.45
-1172.25
-1203.22
-1162.69
-1295.7
-1229.73
-1312.72
-1167.18
-1177.74
-1045.52
-1119.38
-1227.5
-1213.67
-1319.39
-1168.85
-1209.1
-1022.75
-1122.04
-1060.78
-1240.34
-1211.19
-1174.93
-1110.27
-1000.85
-1112.38
-1104.36
-1276.89
-1160.48
-1219.9
-1009.49
-1085.7
-949.864
-1094.54
-1139.36
-1178.07
-1158.74
-1014.86
-1021.76
-938.474
-1165.2
-1069.25
-1246.44
-1054.8
-1138.75
-969.288
-1084.62
-1071.33
-1196.02
-1317.97
-1272.12
-1295.08
-1197.24
-1252.13
-1133.47
-1219.61
-1081.93
-1146.8
-999.38
-1087.32
-935.183
-1049.82
-899.918
-990.935
-882.838
-921.709
-820.172
-807.884
-798.033
-701.27
-704.219
-575.807
-610.382
-491.201
-496.013
-456.068
-445.779
-388.67
-396.738
-323.691
-357.846
-266.464
-350.609
-248.542
-409.848
-434.657
-252.498
-220.413
-2211.66
-2314.35
-2329.07
-2333.57
-2336.33
-2338.75
-2341.11
-2343.35
-2345.72
-2347.8
-2349.62
-2351.42
-2353.01
-2354.54
-2355.97
-2357.32
-2358.66
-2359.91
-2361.15
-2362.33
-2363.5
-2364.65
-2365.79
-2366.9
-2368
-2369.08
-2370.15
-2371.22
-2372.26
-2373.3
-2374.32
-2375.36
-2376.36
-2377.38
-2378.37
-2379.36
-2380.35
-2381.33
-2382.31
-2383.27
-2384.24
-2385.19
-2386.14
-2387.09
-2388.03
-2388.97
-2389.9
-2390.84
-2391.76
-2392.68
-2393.6
-2394.51
-2395.42
-2396.33
-2397.23
-2398.14
-2399.03
-2399.93
-2400.83
-2401.73
-2402.62
-2403.51
-2404.41
-2405.3
-2406.2
-2407.1
-2408.01
-2408.92
-2409.84
-2410.76
-2411.71
-2412.65
-2413.63
-2414.61
-2415.64
-2416.67
-2417.77
-2418.87
-2420.07
-2421.28
-2422.62
-2423.98
-2425.52
-2427.09
-2428.92
-2430.8
-2433.05
-2435.37
-2438.25
-2441.28
-2445.1
-2449.22
-2454.52
-2460.52
-2468.17
-2477.97
-2488.98
-2509.21
-2507.24
-2583.68
-2428.66
-2317.27
-2280.34
-2213.29
-2182.76
-2134.52
-2100.21
-2057.61
-2007.99
-1954.25
-1884.65
-1885.01
-1895.05
-1962.55
-1979.32
-1950.29
-1908.35
-1827.13
-1779.6
-1729.56
-1803.5
-1813.31
-1920.91
-1887.38
-1910.4
-1847.13
-1725.81
-1680.44
-1580.62
-1623.13
-1598.47
-1727.19
-1724.6
-1724.62
-1614.04
-1562.47
-1577.52
-1511.92
-1606.96
-1656.52
-1705.8
-1686.67
-1584.47
-1562.8
-1551.58
-1594.46
-1648.28
-1680.01
-1668.52
-1565.88
-1536.69
-1522.98
-1600.59
-1673.95
-1707.63
-1670.83
-1576.68
-1510.93
-1478.13
-1531.21
-1634.8
-1704.17
-1636.53
-1553.1
-1464.32
-1488.14
-1535.29
-1558.9
-1580.99
-1504.2
-1435.69
-1370.89
-1412.57
-1505.94
-1567.66
-1532.89
-1461.66
-1365.44
-1295.01
-1319.07
-1384.17
-1502.17
-1530.18
-1516.75
-1475.3
-1391.17
-1345.63
-1327.55
-1398.32
-1415.08
-1496.26
-1426.04
-1364.92
-1290.85
-1287.46
-1372.85
-1380.25
-1466.67
-1354.47
-1329.28
-1201.86
-1244.12
-1293.01
-1352.23
-1443.06
-1346.01
-1320.3
-1203.71
-1296.49
-1297.49
-1409.82
-1385.53
-1360.56
-1278.93
-1202.29
-1232.42
-1191.83
-1321.5
-1256.2
-1337.25
-1194.49
-1205.76
-1077.59
-1148.77
-1253.61
-1239.9
-1343.26
-1195.82
-1236.22
-1053.82
-1151.15
-1090.96
-1265.04
-1235.88
-1200.86
-1138.92
-1032.53
-1141.39
-1132.11
-1300.65
-1186.38
-1245.18
-1039.25
-1114.12
-981.55
-1122.67
-1165.3
-1202.37
-1183.93
-1043.99
-1052.03
-969.468
-1190.56
-1096.23
-1270.03
-1082.35
-1165.68
-1000.11
-1113.27
-1100.97
-1222.19
-1340.84
-1296.74
-1320.24
-1224.01
-1277.61
-1160.64
-1244.63
-1109.05
-1172.43
-1027
-1112.96
-963.017
-1075.01
-927.577
-1016.51
-909.5
-947.192
-847.344
-834.311
-823.701
-728.104
-730.325
-603.474
-636.275
-518.83
-523.008
-482.729
-472.238
-415.757
-423.192
-351.194
-384.362
-294.901
-378.027
-277.992
-435.623
-456.535
-279.394
-247.593
-2243.28
-2340.77
-2355.72
-2360.68
-2363.64
-2366.08
-2368.5
-2370.75
-2373.13
-2375.21
-2377.04
-2378.84
-2380.42
-2381.95
-2383.39
-2384.74
-2386.08
-2387.33
-2388.57
-2389.75
-2390.93
-2392.08
-2393.22
-2394.33
-2395.44
-2396.52
-2397.59
-2398.66
-2399.7
-2400.75
-2401.77
-2402.81
-2403.82
-2404.83
-2405.82
-2406.82
-2407.81
-2408.78
-2409.76
-2410.73
-2411.7
-2412.65
-2413.6
-2414.55
-2415.49
-2416.43
-2417.36
-2418.3
-2419.22
-2420.15
-2421.06
-2421.97
-2422.89
-2423.79
-2424.7
-2425.6
-2426.5
-2427.4
-2428.3
-2429.19
-2430.09
-2430.98
-2431.88
-2432.77
-2433.67
-2434.57
-2435.48
-2436.39
-2437.31
-2438.23
-2439.18
-2440.12
-2441.1
-2442.08
-2443.11
-2444.14
-2445.24
-2446.34
-2447.54
-2448.75
-2450.09
-2451.45
-2452.99
-2454.57
-2456.39
-2458.27
-2460.52
-2462.84
-2465.72
-2468.75
-2472.57
-2476.68
-2481.98
-2487.97
-2495.6
-2505.39
-2516.22
-2536.46
-2534.25
-2606.24
-2455.08
-2345.16
-2307.49
-2240.55
-2209.69
-2161.49
-2127.07
-2084.48
-2035.41
-1982.6
-1914.73
-1914.93
-1923.9
-1988.63
-2004.34
-1975.65
-1934.45
-1855.46
-1809.29
-1760.23
-1832.18
-1840.79
-1945.33
-1912.45
-1934.44
-1872.65
-1754.02
-1709.44
-1611.42
-1652.86
-1628.44
-1752.83
-1749.23
-1749.58
-1642.84
-1592.3
-1606.63
-1543
-1635.04
-1682.57
-1730.08
-1711.87
-1613.23
-1592.48
-1581.42
-1623.06
-1674.58
-1704.6
-1694
-1594.57
-1566.97
-1553.7
-1628.92
-1699.35
-1731.46
-1695.91
-1604.95
-1541.01
-1509.11
-1560.87
-1660.37
-1727.13
-1661.72
-1581.66
-1495.22
-1517.44
-1562.19
-1584.82
-1605.82
-1530.65
-1465.01
-1402.72
-1442.9
-1532.29
-1591.88
-1557.69
-1488.34
-1394.92
-1326.77
-1350.17
-1413
-1527.38
-1554.88
-1541.75
-1501.33
-1419.62
-1375.52
-1357.52
-1426.42
-1441.78
-1520.02
-1451.77
-1393.25
-1321.23
-1317.67
-1400.7
-1406.49
-1490.55
-1380.81
-1357.11
-1232.91
-1274.07
-1321.79
-1378.56
-1466.44
-1372.13
-1348.63
-1235.04
-1325.2
-1325.28
-1434.56
-1410.57
-1386.24
-1307.4
-1232.34
-1261.62
-1221.06
-1347.29
-1282.75
-1361.82
-1221.92
-1233.8
-1109.65
-1178.17
-1279.75
-1266.18
-1367.15
-1222.85
-1263.31
-1084.94
-1180.25
-1121.15
-1289.76
-1260.66
-1226.87
-1167.57
-1064.2
-1170.39
-1159.91
-1324.41
-1212.38
-1270.39
-1069.09
-1142.54
-1013.27
-1150.76
-1191.26
-1226.74
-1209.17
-1073.14
-1082.27
-1000.51
-1215.93
-1123.25
-1293.59
-1109.97
-1192.58
-1030.97
-1141.91
-1130.56
-1248.31
-1363.69
-1321.33
-1345.28
-1250.72
-1303.01
-1187.78
-1269.57
-1136.11
-1197.99
-1054.62
-1138.51
-990.864
-1100.13
-955.231
-1042.03
-936.097
-972.599
-874.471
-860.691
-849.306
-754.936
-756.338
-631.13
-662.119
-546.461
-549.968
-509.357
-498.654
-442.819
-449.628
-378.665
-410.917
-323.233
-405.482
-307.54
-461.268
-478.396
-306.285
-274.754
-2274.74
-2367.28
-2382.48
-2387.73
-2390.96
-2393.47
-2395.88
-2398.16
-2400.56
-2402.63
-2404.46
-2406.27
-2407.84
-2409.39
-2410.81
-2412.16
-2413.5
-2414.76
-2416
-2417.18
-2418.36
-2419.51
-2420.66
-2421.77
-2422.87
-2423.96
-2425.03
-2426.11
-2427.15
-2428.2
-2429.22
-2430.26
-2431.27
-2432.28
-2433.28
-2434.27
-2435.26
-2436.24
-2437.22
-2438.18
-2439.15
-2440.11
-2441.06
-2442.01
-2442.95
-2443.9
-2444.83
-2445.76
-2446.68
-2447.61
-2448.53
-2449.44
-2450.35
-2451.26
-2452.17
-2453.07
-2453.97
-2454.87
-2455.76
-2456.66
-2457.56
-2458.45
-2459.35
-2460.24
-2461.14
-2462.04
-2462.95
-2463.86
-2464.78
-2465.7
-2466.65
-2467.59
-2468.57
-2469.55
-2470.58
-2471.61
-2472.71
-2473.82
-2475.01
-2476.22
-2477.56
-2478.92
-2480.46
-2482.04
-2483.86
-2485.74
-2487.99
-2490.31
-2493.18
-2496.21
-2500.03
-2504.14
-2509.42
-2515.41
-2523.01
-2532.8
-2543.43
-2563.65
-2561.2
-2628.77
-2481.47
-2373.07
-2334.66
-2267.85
-2236.65
-2188.47
-2153.95
-2111.31
-2062.88
-2010.95
-1944.91
-1944.85
-1952.79
-2014.74
-2029.37
-2001.03
-1960.58
-1883.82
-1839.02
-1790.94
-1860.86
-1868.32
-1969.75
-1937.51
-1958.47
-1898.16
-1782.28
-1738.48
-1642.31
-1682.65
-1658.45
-1778.52
-1773.94
-1774.59
-1671.68
-1622.18
-1635.8
-1574.15
-1663.16
-1708.66
-1754.43
-1737.15
-1642.07
-1622.2
-1611.29
-1651.69
-1700.94
-1729.3
-1719.53
-1623.32
-1597.28
-1584.43
-1657.26
-1724.78
-1755.37
-1721.06
-1633.25
-1571.13
-1540.13
-1590.51
-1685.97
-1750.18
-1686.98
-1610.21
-1526.11
-1546.77
-1589.17
-1610.8
-1630.65
-1557.26
-1494.37
-1434.54
-1473.23
-1558.73
-1616.12
-1582.54
-1515.11
-1424.46
-1358.58
-1381.3
-1441.89
-1552.64
-1579.61
-1566.79
-1527.4
-1448.1
-1405.43
-1387.51
-1454.51
-1468.52
-1543.86
-1477.59
-1421.59
-1351.65
-1347.9
-1428.52
-1432.82
-1514.47
-1407.25
-1384.94
-1264.02
-1304.03
-1350.56
-1404.93
-1489.91
-1398.34
-1376.92
-1266.46
-1353.91
-1353.12
-1459.33
-1435.67
-1411.97
-1335.89
-1262.4
-1290.82
-1250.38
-1373.09
-1309.35
-1386.44
-1249.46
-1261.84
-1141.7
-1207.58
-1305.93
-1292.5
-1391.07
-1249.95
-1290.4
-1116.1
-1209.35
-1151.34
-1314.53
-1285.56
-1252.96
-1196.23
-1095.87
-1199.36
-1187.77
-1348.19
-1238.45
-1295.61
-1098.99
-1170.96
-1045
-1178.82
-1217.24
-1251.19
-1234.47
-1102.31
-1112.46
-1031.59
-1241.32
-1150.33
-1317.14
-1137.65
-1219.47
-1061.85
-1170.54
-1160.1
-1274.42
-1386.54
-1345.89
-1370.22
-1277.35
-1328.35
-1214.9
-1294.45
-1163.12
-1223.49
-1082.22
-1164.02
-1018.71
-1125.2
-982.871
-1067.5
-962.631
-997.945
-901.548
-887.029
-874.86
-781.75
-782.273
-658.769
-687.92
-574.084
-576.893
-535.962
-525.06
-469.867
-476.035
-406.139
-437.44
-351.605
-432.776
-337.175
-486.816
-500.27
-333.176
-301.912
-2306.01
-2393.89
-2409.27
-2414.84
-2418.23
-2420.87
-2423.28
-2425.61
-2427.96
-2430.05
-2431.9
-2433.69
-2435.27
-2436.82
-2438.25
-2439.6
-2440.94
-2442.19
-2443.43
-2444.62
-2445.8
-2446.95
-2448.1
-2449.21
-2450.31
-2451.4
-2452.48
-2453.55
-2454.59
-2455.65
-2456.67
-2457.71
-2458.72
-2459.73
-2460.73
-2461.73
-2462.72
-2463.7
-2464.68
-2465.64
-2466.61
-2467.57
-2468.52
-2469.47
-2470.42
-2471.36
-2472.29
-2473.22
-2474.15
-2475.07
-2475.99
-2476.9
-2477.82
-2478.72
-2479.63
-2480.53
-2481.44
-2482.33
-2483.23
-2484.13
-2485.02
-2485.92
-2486.81
-2487.71
-2488.61
-2489.51
-2490.42
-2491.33
-2492.25
-2493.17
-2494.12
-2495.06
-2496.04
-2497.02
-2498.05
-2499.08
-2500.18
-2501.29
-2502.48
-2503.69
-2505.03
-2506.39
-2507.93
-2509.5
-2511.33
-2513.21
-2515.45
-2517.78
-2520.64
-2523.67
-2527.48
-2531.59
-2536.86
-2542.84
-2550.41
-2560.18
-2570.59
-2590.78
-2588.08
-2651.29
-2507.83
-2400.97
-2361.83
-2295.17
-2263.63
-2215.47
-2180.85
-2138.21
-2090.31
-2039.33
-1975.11
-1974.77
-1981.7
-2040.89
-2054.43
-2026.43
-1986.73
-1912.22
-1868.77
-1821.68
-1889.56
-1895.89
-1994.17
-1962.58
-1982.49
-1923.66
-1810.57
-1767.56
-1673.28
-1712.47
-1688.48
-1804.27
-1798.76
-1799.67
-1700.52
-1652.11
-1665.04
-1605.34
-1691.32
-1734.81
-1778.87
-1762.53
-1670.96
-1651.93
-1641.18
-1680.34
-1727.35
-1754.11
-1745.12
-1652.13
-1627.61
-1615.17
-1685.62
-1750.26
-1779.39
-1746.28
-1661.58
-1601.27
-1571.16
-1620.14
-1711.62
-1773.34
-1712.34
-1638.75
-1556.97
-1576.13
-1616.22
-1636.84
-1655.54
-1583.99
-1523.77
-1466.33
-1503.55
-1585.25
-1640.4
-1607.49
-1541.95
-1454.06
-1390.4
-1412.44
-1470.82
-1577.95
-1604.38
-1591.87
-1553.53
-1476.6
-1435.34
-1417.51
-1482.61
-1495.31
-1567.81
-1503.49
-1449.94
-1382.06
-1378.12
-1456.33
-1459.24
-1538.46
-1433.78
-1412.77
-1295.15
-1333.99
-1379.31
-1431.36
-1513.49
-1424.64
-1405.2
-1297.84
-1382.63
-1381.01
-1484.15
-1460.83
-1437.74
-1364.39
-1292.46
-1320
-1279.77
-1398.9
-1336.01
-1411.11
-1277.09
-1289.9
-1173.7
-1237
-1332.16
-1318.88
-1415.04
-1277.12
-1317.48
-1147.27
-1238.46
-1181.51
-1339.35
-1310.56
-1279.14
-1224.9
-1127.49
-1228.31
-1215.67
-1372.02
-1264.57
-1320.87
-1128.94
-1199.39
-1076.72
-1206.88
-1243.27
-1275.73
-1259.83
-1131.5
-1142.59
-1062.67
-1266.74
-1177.46
-1340.71
-1165.38
-1246.35
-1092.73
-1199.15
-1189.57
-1300.51
-1409.39
-1370.42
-1395.06
-1303.92
-1353.61
-1241.98
-1319.27
-1190.09
-1248.93
-1109.79
-1189.48
-1046.54
-1150.22
-1010.48
-1092.85
-989.177
-1023.24
-928.577
-913.331
-900.373
-808.529
-808.16
-686.386
-713.693
-601.698
-603.787
-562.548
-551.437
-496.903
-502.406
-433.616
-463.938
-380.007
-459.861
-366.912
-512.252
-522.227
-360.056
-329.062
-2337.14
-2420.59
-2436.11
-2441.94
-2445.53
-2448.23
-2450.69
-2453.05
-2455.41
-2457.47
-2459.32
-2461.13
-2462.71
-2464.25
-2465.68
-2467.04
-2468.38
-2469.63
-2470.88
-2472.06
-2473.24
-2474.39
-2475.54
-2476.65
-2477.76
-2478.85
-2479.92
-2481
-2482.04
-2483.09
-2484.12
-2485.16
-2486.17
-2487.18
-2488.18
-2489.18
-2490.17
-2491.15
-2492.13
-2493.1
-2494.07
-2495.03
-2495.98
-2496.93
-2497.88
-2498.82
-2499.75
-2500.69
-2501.61
-2502.54
-2503.45
-2504.37
-2505.28
-2506.19
-2507.1
-2508
-2508.9
-2509.8
-2510.7
-2511.6
-2512.49
-2513.38
-2514.28
-2515.18
-2516.08
-2516.98
-2517.89
-2518.79
-2519.72
-2520.64
-2521.59
-2522.53
-2523.51
-2524.49
-2525.52
-2526.55
-2527.65
-2528.76
-2529.95
-2531.16
-2532.5
-2533.86
-2535.4
-2536.97
-2538.79
-2540.68
-2542.92
-2545.24
-2548.11
-2551.12
-2554.93
-2559.04
-2564.3
-2570.26
-2577.79
-2587.55
-2597.71
-2617.85
-2614.89
-2673.82
-2534.16
-2428.88
-2389.01
-2322.51
-2290.63
-2242.51
-2207.77
-2165.2
-2117.71
-2067.73
-2005.33
-2004.69
-2010.63
-2067.08
-2079.53
-2051.87
-2012.9
-1940.65
-1898.53
-1852.43
-1918.25
-1923.49
-2018.62
-1987.65
-2006.52
-1949.16
-1838.89
-1796.67
-1704.31
-1742.32
-1718.53
-1830.06
-1823.67
-1824.83
-1729.38
-1682.06
-1694.33
-1636.55
-1719.51
-1761
-1803.41
-1787.97
-1699.88
-1681.68
-1671.08
-1708.99
-1753.81
-1779.02
-1770.77
-1680.99
-1657.95
-1645.9
-1713.98
-1775.78
-1803.51
-1771.57
-1689.92
-1631.42
-1602.2
-1649.74
-1737.32
-1796.61
-1737.77
-1667.27
-1587.8
-1605.49
-1643.34
-1662.92
-1680.51
-1610.81
-1553.19
-1498.08
-1533.84
-1611.84
-1664.75
-1632.55
-1568.84
-1483.71
-1422.22
-1443.56
-1499.77
-1603.32
-1629.19
-1617
-1579.7
-1505.12
-1465.25
-1447.5
-1510.69
-1522.14
-1591.87
-1529.48
-1478.3
-1412.47
-1408.33
-1484.12
-1485.75
-1562.52
-1460.39
-1440.61
-1326.29
-1363.95
-1408.04
-1457.83
-1537.19
-1451.03
-1433.46
-1329.16
-1411.33
-1408.94
-1509.02
-1486.05
-1463.57
-1392.88
-1322.52
-1349.17
-1309.21
-1424.72
-1362.74
-1435.84
-1304.81
-1317.97
-1205.64
-1266.42
-1358.44
-1345.31
-1439.06
-1304.34
-1344.56
-1178.45
-1267.56
-1211.68
-1364.24
-1335.66
-1305.39
-1253.57
-1159.08
-1257.24
-1243.62
-1395.91
-1290.75
-1346.15
-1158.9
-1227.82
-1108.41
-1234.91
-1269.33
-1300.36
-1285.26
-1160.69
-1172.67
-1093.73
-1292.19
-1204.63
-1364.31
-1193.16
-1273.23
-1123.59
-1227.75
-1218.98
-1326.58
-1432.27
-1394.94
-1419.82
-1330.42
-1378.82
-1269.02
-1344.05
-1217.01
-1274.32
-1137.33
-1214.91
-1074.35
-1175.19
-1038.06
-1118.01
-1015.78
-1048.5
-955.546
-939.591
-925.842
-835.258
-833.997