/*--------------------------------*- C++ -*----------------------------------*\
| =========                 |                                                 |
| \\      /  F ield         | foam-extend: Open Source CFD                    |
|  \\    /   O peration     | Version:     3.2                                |
|   \\  /    A nd           | Web:         http://www.foam-extend.org         |
|    \\/     M anipulation  | For copyright notice see file Copyright         |
\*---------------------------------------------------------------------------*/
FoamFile
{
    version     2.0;
    format      ascii;
    class       areaScalarField;
    location    "160";
    object      Pa;
}
// * * * * * * * * * * * * * * * * * * * * * * * * * * * * * * * * * * * * * //

dimensions      [0 0 0 0 0 0 0];

internalField   nonuniform List<scalar> 
300
(
0.5
0.5
0.5
0.5
0.5
0.5
0.5
0.5
0.5
0.5
0.5
0.5
0.5
0.5
0.5
0.5
0.5
0.5
0.5
0.5
0.5
0.5
0.5
0.5
0.5
0.5
0.5
0.5
0.5
0.5
0.5
0.5
0.5
0.5
0.5
0.5
0.5
0.5
0.5
0.5
0.5
0.5
0.5
0.5
0.5
0.5
0.5
0.5
0.5
0.5
0.5
0.5
0.5
0.5
0.5
0.5
0.5
0.5
0.5
0.5
0.5
0.5
0.5
0.5
0.5
0.5
0.5
0.5
0.5
0.5
0.5
0.5
0.5
0.5
0.5
0.5
0.5
0.5
0.5
0.5
0.5
0.5
0.5
0.5
0.5
0.5
0.5
0.5
0.5
0.5
0.5
0.5
0.5
0.5
0.5
0.5
0.5
0.5
0.5
0.5
0.545075
0.566612
0.589368
0.612841
0.628816
0.651969
0.66452
0.6846
0.69593
0.713694
0.739608
0.719078
0.735788
0.722701
0.737482
0.739757
0.746428
0.756147
0.745826
0.767955
0.747925
0.767077
0.747095
0.764705
0.756489
0.764231
0.773316
0.747176
0.772641
0.757662
0.749884
0.771198
0.740361
0.772992
0.748637
0.787282
0.749135
0.764365
0.770619
0.733222
0.771656
0.7474
0.770068
0.76905
0.777886
0.773536
0.755145
0.771324
0.772243
0.780221
0.782527
0.78662
0.788695
0.77827
0.78865
0.785439
0.789757
0.78707
0.780976
0.789438
0.80078
0.794695
0.793547
0.792752
0.787106
0.785362
0.77542
0.786266
0.792997
0.791423
0.797118
0.788896
0.793609
0.794681
0.791046
0.782087
0.788021
0.782131
0.7893
0.786006
0.784998
0.783995
0.774797
0.785219
0.774103
0.782485
0.783496
0.790323
0.781504
0.780553
0.786316
0.775112
0.781541
0.779756
0.788352
0.762378
0.787777
0.757814
0.758512
0.770922
0.738051
0.796105
0.760193
0.788101
0.767474
0.782504
0.790593
0.778466
0.787859
0.769563
0.791318
0.780309
0.785254
0.780728
0.797489
0.759711
0.79638
0.752677
0.772768
0.763773
0.749431
0.782234
0.739088
0.801235
0.760289
0.794005
0.766362
0.782171
0.773161
0.758978
0.77855
0.75017
0.789007
0.755895
0.790226
0.767966
0.792466
0.77068
0.792968
0.765969
0.777315
0.759156
0.753939
0.767008
0.74172
0.777864
0.742328
0.796593
0.735994
0.788251
0.744995
0.769817
0.75548
0.748215
0.761069
0.729698
0.772632
0.735754
0.779576
0.747174
0.793402
0.749077
0.788272
0.741788
0.78344
0.75047
0.768389
0.751036
0.750236
0.75198
0.716993
0.760179
0.707134
0.775192
0.710168
0.783888
0.742546
0.78416
0.747522
0.786545
0.757475
0.786626
0.741106
0.752327
0.753486
0.67448
0.751323
0.673966
0.726209
0.653727
0.691166
0.627986
0.645732
0.594478
0.587051
0.549647
0.5
0.5
0.5
0.5
)
;

boundaryField
{
    inlet
    {
        type            calculated;
        value           uniform 0;
    }
    outlet
    {
        type            calculated;
        value           uniform 0;
    }
    sideWall
    {
        type            empty;
    }
}


// ************************************************************************* //
