/*--------------------------------*- C++ -*----------------------------------*\
| =========                 |                                                 |
| \\      /  F ield         | foam-extend: Open Source CFD                    |
|  \\    /   O peration     | Version:     3.2                                |
|   \\  /    A nd           | Web:         http://www.foam-extend.org         |
|    \\/     M anipulation  | For copyright notice see file Copyright         |
\*---------------------------------------------------------------------------*/
FoamFile
{
    version     2.0;
    format      ascii;
    class       areaScalarField;
    location    "160";
    object      Pc;
}
// * * * * * * * * * * * * * * * * * * * * * * * * * * * * * * * * * * * * * //

dimensions      [0 0 0 0 0 0 0];

internalField   nonuniform List<scalar> 
300
(
0.5
0.5
0.5
0.5
0.5
0.5
0.5
0.5
0.5
0.5
0.5
0.5
0.5
0.5
0.5
0.5
0.5
0.5
0.5
0.5
0.5
0.5
0.5
0.5
0.5
0.5
0.5
0.5
0.5
0.5
0.5
0.5
0.5
0.5
0.5
0.5
0.5
0.5
0.5
0.5
0.5
0.5
0.5
0.5
0.5
0.5
0.5
0.5
0.5
0.5
0.5
0.5
0.5
0.5
0.5
0.5
0.5
0.5
0.5
0.5
0.5
0.5
0.5
0.5
0.5
0.5
0.5
0.5
0.5
0.5
0.5
0.5
0.5
0.5
0.5
0.5
0.5
0.5
0.5
0.5
0.5
0.5
0.5
0.5
0.5
0.5
0.5
0.5
0.5
0.5
0.5
0.5
0.5
0.5
0.5
0.5
0.5
0.5
0.5
0.5
0.454925
0.433388
0.410632
0.387159
0.371184
0.348031
0.33548
0.3154
0.30407
0.286306
0.260392
0.280922
0.264212
0.277299
0.262518
0.260243
0.253572
0.243853
0.254174
0.232045
0.252075
0.232923
0.252905
0.235295
0.243511
0.235769
0.226684
0.252824
0.227359
0.242338
0.250116
0.228802
0.259639
0.227008
0.251363
0.212718
0.250865
0.235635
0.229381
0.266778
0.228344
0.2526
0.229932
0.23095
0.222114
0.226464
0.244855
0.228676
0.227757
0.219779
0.217473
0.21338
0.211305
0.22173
0.21135
0.214561
0.210243
0.21293
0.219024
0.210562
0.19922
0.205305
0.206453
0.207248
0.212894
0.214638
0.22458
0.213734
0.207003
0.208577
0.202882
0.211104
0.206391
0.205319
0.208954
0.217913
0.211979
0.217869
0.2107
0.213994
0.215002
0.216005
0.225203
0.214781
0.225897
0.217515
0.216504
0.209677
0.218496
0.219447
0.213684
0.224888
0.218459
0.220244
0.211648
0.237622
0.212223
0.242186
0.241488
0.229078
0.261949
0.203895
0.239807
0.211899
0.232526
0.217496
0.209407
0.221534
0.212141
0.230437
0.208682
0.219691
0.214746
0.219272
0.202511
0.240289
0.20362
0.247323
0.227232
0.236227
0.250569
0.217766
0.260912
0.198765
0.239711
0.205995
0.233638
0.217829
0.226839
0.241022
0.22145
0.24983
0.210993
0.244105
0.209774
0.232034
0.207534
0.22932
0.207032
0.234031
0.222685
0.240844
0.246061
0.232992
0.25828
0.222136
0.257672
0.203407
0.264006
0.211749
0.255005
0.230183
0.24452
0.251785
0.238931
0.270302
0.227368
0.264246
0.220424
0.252826
0.206598
0.250923
0.211728
0.258212
0.21656
0.24953
0.231611
0.248964
0.249764
0.24802
0.283007
0.239821
0.292866
0.224808
0.289832
0.216112
0.257454
0.21584
0.252478
0.213455
0.242525
0.213374
0.258894
0.247673
0.246514
0.32552
0.248677
0.326034
0.273791
0.346273
0.308834
0.372014
0.354268
0.405522
0.412949
0.450353
0.5
0.5
0.5
0.5
)
;

boundaryField
{
    inlet
    {
        type            calculated;
        value           uniform 0;
    }
    outlet
    {
        type            calculated;
        value           uniform 0;
    }
    sideWall
    {
        type            empty;
    }
}


// ************************************************************************* //
