/*--------------------------------*- C++ -*----------------------------------*\
| =========                 |                                                 |
| \\      /  F ield         | foam-extend: Open Source CFD                    |
|  \\    /   O peration     | Version:     3.2                                |
|   \\  /    A nd           | Web:         http://www.foam-extend.org         |
|    \\/     M anipulation  | For copyright notice see file Copyright         |
\*---------------------------------------------------------------------------*/
FoamFile
{
    version     2.0;
    format      ascii;
    class       volScalarField;
    location    "160";
    object      pd;
}
// * * * * * * * * * * * * * * * * * * * * * * * * * * * * * * * * * * * * * //

dimensions      [1 -1 -2 0 0 0 0];

internalField   nonuniform List<scalar> 
96000
(
-2005.37
-2143.23
-2156.84
-2158.13
-2159.43
-2161.28
-2163.39
-2165.5
-2167.81
-2169.81
-2171.58
-2173.33
-2174.87
-2176.36
-2177.75
-2179.06
-2180.37
-2181.6
-2182.82
-2183.97
-2185.13
-2186.26
-2187.39
-2188.48
-2189.56
-2190.64
-2191.7
-2192.76
-2193.79
-2194.83
-2195.84
-2196.87
-2197.87
-2198.87
-2199.86
-2200.85
-2201.83
-2202.81
-2203.78
-2204.74
-2205.7
-2206.65
-2207.61
-2208.55
-2209.49
-2210.43
-2211.35
-2212.28
-2213.2
-2214.13
-2215.04
-2215.95
-2216.86
-2217.76
-2218.67
-2219.57
-2220.47
-2221.36
-2222.26
-2223.15
-2224.05
-2224.94
-2225.83
-2226.73
-2227.62
-2228.52
-2229.43
-2230.33
-2231.26
-2232.18
-2233.12
-2234.07
-2235.05
-2236.02
-2237.05
-2238.08
-2239.18
-2240.28
-2241.48
-2242.69
-2244.03
-2245.38
-2246.92
-2248.49
-2250.32
-2252.2
-2254.44
-2256.76
-2259.65
-2262.67
-2266.49
-2270.6
-2275.91
-2281.89
-2289.59
-2299.34
-2310.83
-2330.71
-2330.22
-2452.05
-2329.21
-2260.43
-2262.75
-2225.85
-2224.28
-2199.12
-2186.39
-2162.17
-2127.57
-2082.77
-2016.59
-2025.94
-2052.63
-2144.04
-2178.4
-2161.66
-2125.44
-2038.2
-1989.22
-1939.82
-2027.52
-2050.39
-2175.12
-2139.19
-2163.53
-2097.48
-1970.71
-1927.68
-1823.89
-1871.79
-1846.25
-1996.84
-2000.38
-1993.66
-1856.29
-1794.5
-1817.21
-1747.03
-1857.94
-1918.51
-1972.25
-1940.49
-1810.68
-1773.93
-1759.26
-1811.14
-1881.64
-1920.32
-1896.34
-1767.22
-1720.92
-1697.87
-1786
-1881.46
-1926.27
-1877.51
-1761.82
-1689.38
-1654.85
-1710.78
-1830.27
-1910.81
-1827.3
-1721.69
-1624.2
-1666.68
-1736.83
-1767.52
-1791.13
-1703
-1609.66
-1525.73
-1572.71
-1688.68
-1765.29
-1737.54
-1662.57
-1549.58
-1463.89
-1489.41
-1565.36
-1703.7
-1739.85
-1731.15
-1685.48
-1583.76
-1525.17
-1506.15
-1590.15
-1620.48
-1716.23
-1633.49
-1550.7
-1459.88
-1452.57
-1551.84
-1579.02
-1686.61
-1568.48
-1536.15
-1392.2
-1430.69
-1482.69
-1555.12
-1658.48
-1542.11
-1493.03
-1361.12
-1470.87
-1482.97
-1607.21
-1578.38
-1543.72
-1440.46
-1353.49
-1391.64
-1361.72
-1520.41
-1463.17
-1552.99
-1398.47
-1401.54
-1252.6
-1334.26
-1457.5
-1440.36
-1548
-1382.33
-1414.88
-1215.07
-1321.7
-1256.92
-1461.57
-1437.42
-1389.65
-1307.31
-1181.91
-1301.46
-1299.85
-1485.85
-1366.95
-1431.72
-1205.68
-1283.34
-1132.98
-1287.29
-1346.23
-1395.37
-1374.55
-1216.85
-1222.39
-1138.12
-1383.88
-1282.28
-1468.45
-1260.36
-1339.57
-1150.48
-1271.91
-1255.73
-1392.29
-1530.27
-1482.3
-1505.35
-1404.2
-1463.49
-1336.78
-1424.76
-1282.16
-1354.18
-1206.03
-1301.64
-1143.17
-1263.06
-1099.48
-1187.33
-1067.59
-1108.38
-1000.44
-982.903
-971.786
-871.991
-880.695
-749.164
-789.905
-666.432
-664.781
-614.222
-591.81
-518.466
-509.74
-413.226
-423.06
-296.16
-341.061
-176.368
-291.873
-304.663
-103.96
-70.5375
-2008.37
-2142.04
-2156.1
-2157.8
-2159.24
-2161.12
-2163.27
-2165.41
-2167.73
-2169.76
-2171.53
-2173.29
-2174.83
-2176.33
-2177.72
-2179.04
-2180.35
-2181.58
-2182.79
-2183.94
-2185.11
-2186.24
-2187.37
-2188.46
-2189.55
-2190.62
-2191.69
-2192.75
-2193.78
-2194.82
-2195.83
-2196.86
-2197.86
-2198.86
-2199.85
-2200.84
-2201.83
-2202.8
-2203.78
-2204.73
-2205.7
-2206.65
-2207.6
-2208.54
-2209.48
-2210.42
-2211.35
-2212.28
-2213.2
-2214.12
-2215.03
-2215.95
-2216.86
-2217.76
-2218.66
-2219.57
-2220.46
-2221.36
-2222.26
-2223.15
-2224.04
-2224.93
-2225.83
-2226.72
-2227.62
-2228.52
-2229.43
-2230.33
-2231.26
-2232.17
-2233.12
-2234.06
-2235.04
-2236.02
-2237.05
-2238.08
-2239.18
-2240.28
-2241.48
-2242.69
-2244.03
-2245.38
-2246.92
-2248.49
-2250.32
-2252.2
-2254.44
-2256.77
-2259.65
-2262.67
-2266.5
-2270.6
-2275.92
-2281.91
-2289.61
-2299.37
-2310.86
-2330.78
-2329.67
-2449.41
-2328.82
-2260.6
-2262.51
-2225.62
-2223.84
-2198.77
-2185.94
-2161.74
-2127.31
-2083.38
-2018.26
-2027.69
-2053.22
-2142.37
-2176.27
-2159.8
-2124.36
-2039.19
-1991.54
-1941.94
-2028.53
-2049.45
-2172.7
-2136.91
-2161.21
-2096.67
-1971.3
-1929.26
-1826.01
-1873.63
-1847.79
-1995.07
-1997.22
-1991.64
-1857.9
-1796.57
-1818.83
-1749.32
-1858.18
-1916.76
-1969.04
-1938.77
-1812.19
-1776.39
-1761.23
-1811.7
-1880.1
-1917.06
-1894.54
-1768.78
-1723.77
-1700.42
-1786.74
-1879.23
-1922.55
-1875.5
-1763.09
-1691.98
-1657.58
-1712.29
-1828.18
-1906.76
-1825.29
-1723.47
-1627.73
-1668.08
-1735.68
-1765.36
-1788.9
-1702.07
-1611.69
-1529.79
-1575.06
-1687.08
-1762.22
-1735.28
-1661.72
-1551.45
-1467.58
-1492.22
-1566.04
-1701.42
-1737.27
-1728.91
-1684.23
-1585.04
-1527.8
-1508.03
-1590.76
-1619.02
-1712.76
-1631.68
-1551.92
-1462.83
-1454.66
-1552.52
-1577.23
-1683.3
-1567
-1537.23
-1394.77
-1432.79
-1483.77
-1553.43
-1654.93
-1540.33
-1494.7
-1364.71
-1472.21
-1482.08
-1604.45
-1576.03
-1542.38
-1442.01
-1356.07
-1393.73
-1362.56
-1518.91
-1461.09
-1550.98
-1397.77
-1402.75
-1256.51
-1335.73
-1456.17
-1438.17
-1545.66
-1381.21
-1415.84
-1217.93
-1323.57
-1258.6
-1459.1
-1434.32
-1388.25
-1309.07
-1185.2
-1303.18
-1298.75
-1483.13
-1364.99
-1430.73
-1207.02
-1285.04
-1136.1
-1288
-1344.52
-1392.23
-1372.84
-1218.28
-1225.55
-1139.89
-1382.56
-1280.36
-1466.1
-1259.88
-1339.99
-1153.36
-1273.31
-1257.22
-1390.76
-1526.88
-1480.13
-1504.36
-1403.58
-1462.63
-1336.1
-1423.61
-1281.64
-1353.64
-1205.6
-1300.99
-1142.66
-1262.18
-1099.11
-1186.06
-1066.98
-1107.52
-1000.11
-982.054
-970.986
-871.452
-880.211
-748.791
-789.173
-666.329
-664.338
-613.621
-591.201
-517.918
-509.155
-412.753
-422.582
-295.83
-341.179
-177.535
-289.489
-302.934
-103.697
-70.3823
-2014.06
-2140.54
-2154.94
-2157.02
-2158.77
-2160.8
-2163.04
-2165.23
-2167.59
-2169.63
-2171.42
-2173.19
-2174.75
-2176.26
-2177.65
-2178.98
-2180.3
-2181.53
-2182.75
-2183.9
-2185.07
-2186.21
-2187.34
-2188.43
-2189.52
-2190.6
-2191.66
-2192.72
-2193.75
-2194.8
-2195.81
-2196.84
-2197.84
-2198.85
-2199.84
-2200.83
-2201.81
-2202.79
-2203.76
-2204.72
-2205.68
-2206.64
-2207.59
-2208.53
-2209.47
-2210.41
-2211.34
-2212.27
-2213.19
-2214.11
-2215.03
-2215.94
-2216.85
-2217.75
-2218.66
-2219.56
-2220.46
-2221.35
-2222.25
-2223.14
-2224.04
-2224.93
-2225.82
-2226.72
-2227.61
-2228.51
-2229.42
-2230.33
-2231.25
-2232.17
-2233.12
-2234.06
-2235.04
-2236.02
-2237.05
-2238.08
-2239.17
-2240.28
-2241.47
-2242.68
-2244.02
-2245.38
-2246.92
-2248.49
-2250.32
-2252.2
-2254.44
-2256.77
-2259.65
-2262.67
-2266.5
-2270.61
-2275.93
-2281.92
-2289.62
-2299.4
-2310.85
-2330.86
-2329.95
-2445.41
-2327.95
-2260.58
-2262.02
-2225.45
-2223.29
-2198.36
-2185.41
-2161.23
-2127
-2084.14
-2020.4
-2030.02
-2054.21
-2140.86
-2174.07
-2157.62
-2122.99
-2039.95
-1993.78
-1944.49
-2030.01
-2048.89
-2170.31
-2134.2
-2158.25
-2095.26
-1971.85
-1930.81
-1828.46
-1875.79
-1849.87
-1993.42
-1993.85
-1989.05
-1859.16
-1798.55
-1820.64
-1752.3
-1858.72
-1915.14
-1965.55
-1936.49
-1813.3
-1778.69
-1763.46
-1812.89
-1878.8
-1913.62
-1892.29
-1769.95
-1726.55
-1703.48
-1787.87
-1877.07
-1918.53
-1872.94
-1763.93
-1694.57
-1660.93
-1714.37
-1826.24
-1902.19
-1822.68
-1724.9
-1631.4
-1669.88
-1734.95
-1763.29
-1786.32
-1700.54
-1613.53
-1534.31
-1577.95
-1685.61
-1759.17
-1732.58
-1660.45
-1553.21
-1471.69
-1495.64
-1567.1
-1699.12
-1734.6
-1726.24
-1682.66
-1585.97
-1530.29
-1510.2
-1591.78
-1617.85
-1709.07
-1629.39
-1552.87
-1465.65
-1457.07
-1553.63
-1575.64
-1679.64
-1565.24
-1537.92
-1397.62
-1435.36
-1485.26
-1551.98
-1651.03
-1538.18
-1496
-1368.27
-1473.89
-1481.85
-1601.73
-1573.32
-1540.5
-1443.09
-1358.43
-1396.01
-1363.89
-1517.56
-1459.18
-1548.79
-1396.79
-1403.57
-1260.92
-1337.73
-1454.93
-1436.21
-1542.95
-1379.7
-1416.19
-1220.73
-1325.78
-1261.01
-1456.53
-1430.93
-1386.48
-1310.56
-1188.91
-1305.39
-1298.08
-1480.29
-1362.67
-1429.37
-1208.35
-1286.34
-1139.86
-1289.06
-1342.9
-1388.78
-1370.56
-1219.83
-1228.97
-1142.25
-1381.48
-1278.61
-1462.96
-1259.3
-1339.9
-1156.38
-1274.85
-1259.33
-1389.41
-1522.81
-1477.41
-1502.91
-1402.85
-1461.66
-1335.42
-1421.97
-1280.87
-1352.86
-1205.15
-1300.38
-1142.15
-1260.67
-1098.99
-1184.64
-1066.1
-1106.45
-999.763
-981.157
-969.818
-870.802
-879.467
-748.399
-788.348
-666.221
-663.871
-612.91
-590.495
-517.288
-508.502
-412.247
-422.106
-295.574
-341.403
-178.818
-287.011
-299.96
-103.13
-70.1178
-2019.52
-2138.71
-2153.62
-2156.48
-2158.44
-2160.55
-2162.83
-2165.06
-2167.44
-2169.5
-2171.31
-2173.1
-2174.66
-2176.18
-2177.58
-2178.91
-2180.24
-2181.48
-2182.7
-2183.86
-2185.03
-2186.17
-2187.3
-2188.4
-2189.49
-2190.57
-2191.63
-2192.7
-2193.73
-2194.77
-2195.79
-2196.82
-2197.82
-2198.83
-2199.82
-2200.81
-2201.79
-2202.77
-2203.75
-2204.7
-2205.67
-2206.62
-2207.57
-2208.52
-2209.46
-2210.4
-2211.32
-2212.26
-2213.18
-2214.1
-2215.01
-2215.93
-2216.84
-2217.74
-2218.65
-2219.55
-2220.45
-2221.34
-2222.24
-2223.13
-2224.03
-2224.92
-2225.82
-2226.71
-2227.61
-2228.51
-2229.41
-2230.32
-2231.24
-2232.16
-2233.11
-2234.05
-2235.03
-2236.01
-2237.04
-2238.07
-2239.17
-2240.27
-2241.47
-2242.68
-2244.02
-2245.38
-2246.92
-2248.49
-2250.32
-2252.2
-2254.44
-2256.77
-2259.65
-2262.68
-2266.5
-2270.62
-2275.93
-2281.93
-2289.63
-2299.41
-2310.8
-2330.88
-2330
-2441.42
-2327.02
-2260.37
-2261.4
-2225.26
-2222.67
-2197.94
-2184.85
-2160.7
-2126.71
-2084.94
-2022.54
-2032.41
-2055.32
-2139.49
-2171.75
-2155.44
-2121.54
-2040.67
-1995.89
-1947.29
-2031.21
-2048.68
-2167.71
-2131.64
-2155.22
-2093.57
-1972.36
-1932.14
-1831.2
-1877.89
-1852.17
-1991.7
-1990.67
-1986.42
-1860.36
-1800.73
-1822.16
-1755.44
-1859.27
-1913.6
-1962.16
-1934.21
-1814.29
-1780.86
-1765.66
-1814.13
-1877.48
-1910.39
-1890.07
-1770.99
-1729.19
-1706.74
-1788.91
-1874.96
-1914.63
-1870.39
-1764.71
-1697.03
-1664.24
-1716.49
-1824.47
-1897.52
-1820.19
-1726.13
-1634.9
-1671.62
-1734.19
-1761.46
-1783.79
-1698.99
-1615.28
-1538.74
-1580.83
-1684.21
-1756.27
-1729.75
-1659.22
-1554.94
-1475.74
-1499.11
-1568.3
-1696.94
-1731.9
-1723.62
-1681.07
-1586.79
-1532.65
-1512.48
-1592.66
-1616.88
-1705.45
-1627.18
-1553.67
-1468.37
-1459.7
-1554.52
-1574.18
-1675.85
-1563.66
-1538.23
-1400.73
-1437.89
-1486.75
-1550.74
-1647.07
-1536.23
-1497.03
-1371.73
-1475.49
-1481.81
-1599.06
-1570.69
-1538.61
-1444.06
-1360.81
-1398.05
-1365.31
-1515.93
-1457.75
-1546.63
-1395.78
-1404.19
-1265.35
-1339.72
-1453.55
-1434.8
-1539.92
-1378.63
-1415.97
-1223.79
-1327.64
-1263.64
-1453.89
-1427.7
-1384.71
-1311.8
-1192.95
-1307.24
-1298.01
-1476.91
-1360.68
-1427.6
-1209.99
-1287.41
-1143.79
-1290.05
-1341.36
-1385.43
-1368.15
-1221.39
-1231.96
-1145.33
-1379.93
-1277.5
-1459.31
-1258.96
-1339.54
-1159.48
-1276.23
-1261.51
-1388.32
-1518.39
-1474.6
-1501
-1402.27
-1460.4
-1334.74
-1420.21
-1280.09
-1351.65
-1205.01
-1299.35
-1142.16
-1258.62
-1099
-1183.05
-1065.4
-1104.99
-999.418
-980.354
-968.308
-870.171
-878.344
-748.3
-787.326
-666.144
-663.41
-612.173
-589.749
-516.667
-507.832
-411.795
-421.64
-295.5
-341.647
-180.04
-285.855
-295.118
-102.551
-69.8274
-2024.35
-2138
-2152.08
-2155.92
-2158.19
-2160.39
-2162.68
-2164.91
-2167.29
-2169.37
-2171.2
-2172.99
-2174.57
-2176.09
-2177.51
-2178.85
-2180.17
-2181.42
-2182.65
-2183.81
-2184.98
-2186.12
-2187.26
-2188.36
-2189.45
-2190.53
-2191.6
-2192.66
-2193.7
-2194.74
-2195.76
-2196.79
-2197.8
-2198.81
-2199.8
-2200.79
-2201.77
-2202.75
-2203.73
-2204.69
-2205.65
-2206.6
-2207.56
-2208.5
-2209.44
-2210.38
-2211.31
-2212.24
-2213.16
-2214.09
-2215
-2215.91
-2216.83
-2217.73
-2218.64
-2219.54
-2220.44
-2221.33
-2222.23
-2223.13
-2224.02
-2224.91
-2225.81
-2226.7
-2227.6
-2228.5
-2229.41
-2230.31
-2231.24
-2232.16
-2233.1
-2234.05
-2235.03
-2236.01
-2237.03
-2238.06
-2239.16
-2240.27
-2241.46
-2242.67
-2244.01
-2245.37
-2246.91
-2248.49
-2250.31
-2252.19
-2254.43
-2256.76
-2259.65
-2262.67
-2266.5
-2270.61
-2275.93
-2281.93
-2289.62
-2299.41
-2310.71
-2330.84
-2330.02
-2437.21
-2325.87
-2260.29
-2260.79
-2224.98
-2221.99
-2197.48
-2184.26
-2160.13
-2126.46
-2085.77
-2024.7
-2034.79
-2056.47
-2138.1
-2169.34
-2153.26
-2120.07
-2041.42
-1997.99
-1950.19
-2032.34
-2048.54
-2164.73
-2129.25
-2152.09
-2091.79
-1972.91
-1933.45
-1834.12
-1879.93
-1854.52
-1989.91
-1987.55
-1983.8
-1861.58
-1803.05
-1823.57
-1758.67
-1859.79
-1912.04
-1958.82
-1931.94
-1815.29
-1782.99
-1767.92
-1815.3
-1876.09
-1907.27
-1887.91
-1772.04
-1731.84
-1709.96
-1789.87
-1872.85
-1910.74
-1867.87
-1765.49
-1699.45
-1667.5
-1718.61
-1822.65
-1892.87
-1817.76
-1727.29
-1638.34
-1673.33
-1733.32
-1759.75
-1781.29
-1697.51
-1617.05
-1543.14
-1583.67
-1682.84
-1753.33
-1726.97
-1657.94
-1556.8
-1479.79
-1502.6
-1569.56
-1694.74
-1729.17
-1721.04
-1679.47
-1587.61
-1534.98
-1514.9
-1593.39
-1615.93
-1701.75
-1625.09
-1554.44
-1471.11
-1462.49
-1555.12
-1572.77
-1672.11
-1562.17
-1538.53
-1403.9
-1440.38
-1488.16
-1549.51
-1642.98
-1534.42
-1498.04
-1375.29
-1476.91
-1481.84
-1596.35
-1568.11
-1536.74
-1445.03
-1363.33
-1399.89
-1366.83
-1514.26
-1456.38
-1544.18
-1395.1
-1404.77
-1269.79
-1341.67
-1452.06
-1433.48
-1536.66
-1377.78
-1415.69
-1227.22
-1329.26
-1266.28
-1451.18
-1424.59
-1383.01
-1312.94
-1197.12
-1308.84
-1298.17
-1473.31
-1358.91
-1425.45
-1212.01
-1288.39
-1147.81
-1290.93
-1339.8
-1382.15
-1365.77
-1222.98
-1234.64
-1148.68
-1377.96
-1276.8
-1455.54
-1258.79
-1339.09
-1162.68
-1277.5
-1263.65
-1387.16
-1513.93
-1471.78
-1498.89
-1401.66
-1458.7
-1334.25
-1418.19
-1279.53
-1350.19
-1204.94
-1297.76
-1142.46
-1256.49
-1099.05
-1181.36
-1064.85
-1103.15
-999.057
-979.459
-966.712
-869.566
-877.131
-748.395
-785.971
-666.093
-662.917
-611.405
-588.904
-516.113
-507.037
-411.491
-420.959
-295.797
-341.578
-181.256
-284.967
-289.831
-101.938
-69.552
-2028.63
-2137.11
-2151.17
-2155.33
-2157.97
-2160.25
-2162.57
-2164.81
-2167.18
-2169.25
-2171.09
-2172.89
-2174.47
-2176
-2177.43
-2178.77
-2180.11
-2181.36
-2182.59
-2183.76
-2184.93
-2186.08
-2187.21
-2188.32
-2189.41
-2190.5
-2191.57
-2192.63
-2193.67
-2194.71
-2195.73
-2196.76
-2197.77
-2198.78
-2199.77
-2200.77
-2201.75
-2202.73
-2203.71
-2204.67
-2205.63
-2206.59
-2207.54
-2208.49
-2209.43
-2210.37
-2211.3
-2212.23
-2213.15
-2214.07
-2214.99
-2215.9
-2216.81
-2217.72
-2218.62
-2219.53
-2220.43
-2221.32
-2222.22
-2223.11
-2224.01
-2224.9
-2225.8
-2226.69
-2227.59
-2228.49
-2229.4
-2230.3
-2231.23
-2232.15
-2233.09
-2234.04
-2235.02
-2236
-2237.03
-2238.06
-2239.16
-2240.26
-2241.46
-2242.67
-2244.01
-2245.36
-2246.91
-2248.48
-2250.31
-2252.19
-2254.43
-2256.76
-2259.64
-2262.67
-2266.49
-2270.61
-2275.92
-2281.92
-2289.59
-2299.4
-2310.57
-2330.75
-2330
-2432.83
-2324.66
-2260.29
-2260.29
-2224.56
-2221.28
-2196.96
-2183.64
-2159.54
-2126.24
-2086.62
-2026.96
-2037.19
-2057.67
-2136.68
-2166.87
-2151.05
-2118.6
-2042.2
-2000.08
-1953.2
-2033.46
-2048.4
-2161.61
-2126.85
-2148.87
-2089.93
-1973.51
-1934.79
-1837.13
-1882.01
-1856.89
-1988.06
-1984.49
-1981.17
-1862.81
-1805.38
-1825.02
-1761.99
-1860.3
-1910.47
-1955.51
-1929.61
-1816.33
-1785.14
-1770.2
-1816.39
-1874.72
-1904.19
-1885.77
-1773.09
-1734.5
-1713.17
-1790.78
-1870.71
-1906.88
-1865.38
-1766.27
-1701.89
-1670.75
-1720.74
-1820.8
-1888.22
-1815.36
-1728.43
-1641.74
-1675.04
-1732.48
-1758.06
-1778.74
-1696.11
-1618.84
-1547.51
-1586.47
-1681.57
-1750.27
-1724.18
-1656.78
-1558.68
-1483.89
-1506.11
-1570.84
-1692.53
-1726.4
-1718.45
-1677.86
-1588.44
-1537.3
-1517.39
-1594.02
-1615.01
-1697.9
-1623.13
-1555.2
-1473.88
-1465.29
-1555.63
-1571.4
-1668.4
-1560.77
-1538.77
-1407.15
-1442.85
-1489.51
-1548.28
-1638.8
-1532.75
-1499.02
-1378.95
-1478.19
-1481.91
-1593.58
-1565.54
-1534.86
-1446.01
-1365.92
-1401.64
-1368.43
-1512.54
-1455.12
-1541.28
-1394.8
-1405.31
-1274.24
-1343.6
-1450.57
-1432.17
-1533.11
-1377.14
-1415.4
-1230.73
-1330.84
-1268.94
-1448.41
-1421.55
-1381.38
-1314.05
-1201.31
-1310.36
-1298.41
-1469.67
-1357.23
-1423.21
-1214.12
-1289.31
-1151.88
-1291.72
-1338.23
-1378.91
-1363.42
-1224.58
-1237.3
-1152.09
-1375.77
-1276.29
-1451.7
-1258.72
-1338.57
-1165.94
-1278.72
-1265.74
-1385.96
-1509.42
-1468.94
-1496.63
-1400.98
-1456.68
-1333.9
-1415.86
-1279.22
-1348.49
-1204.98
-1296.02
-1142.73
-1254.23
-1099.1
-1179.57
-1064.18
-1101.25
-998.671
-978.512
-965.025
-868.961
-875.806
-748.598
-784.412
-666.056
-662.39
-610.597
-587.923
-515.629
-506.032
-411.355
-419.954
-296.477
-341.15
-182.763
-283.844
-284.58
-101.357
-69.287
-2033.03
-2135.73
-2150.45
-2154.95
-2157.7
-2160.13
-2162.48
-2164.73
-2167.1
-2169.18
-2171
-2172.8
-2174.38
-2175.92
-2177.35
-2178.7
-2180.04
-2181.29
-2182.53
-2183.7
-2184.88
-2186.03
-2187.17
-2188.27
-2189.37
-2190.46
-2191.53
-2192.6
-2193.63
-2194.68
-2195.7
-2196.73
-2197.74
-2198.75
-2199.75
-2200.74
-2201.73
-2202.71
-2203.69
-2204.65
-2205.61
-2206.57
-2207.52
-2208.47
-2209.41
-2210.35
-2211.28
-2212.21
-2213.13
-2214.06
-2214.97
-2215.89
-2216.8
-2217.71
-2218.61
-2219.51
-2220.41
-2221.31
-2222.21
-2223.1
-2224
-2224.89
-2225.79
-2226.68
-2227.58
-2228.48
-2229.39
-2230.29
-2231.22
-2232.14
-2233.09
-2234.03
-2235.01
-2235.99
-2237.02
-2238.05
-2239.15
-2240.25
-2241.45
-2242.66
-2244
-2245.36
-2246.9
-2248.47
-2250.3
-2252.18
-2254.43
-2256.75
-2259.63
-2262.66
-2266.48
-2270.6
-2275.9
-2281.9
-2289.56
-2299.36
-2310.39
-2330.61
-2329.94
-2428.37
-2323.43
-2260.36
-2259.8
-2224.14
-2220.6
-2196.39
-2182.96
-2158.92
-2126.07
-2087.44
-2029.35
-2039.58
-2058.92
-2135.26
-2164.36
-2148.8
-2117.1
-2042.98
-2002.17
-1956.29
-2034.57
-2048.26
-2158.43
-2124.39
-2145.57
-2088
-1974.14
-1936.15
-1840.23
-1884.12
-1859.25
-1986.15
-1981.49
-1978.54
-1864.04
-1807.74
-1826.5
-1765.36
-1860.78
-1908.89
-1952.21
-1927.22
-1817.43
-1787.29
-1772.52
-1817.44
-1873.35
-1901.16
-1883.64
-1774.15
-1737.18
-1716.38
-1791.67
-1868.53
-1903.05
-1862.9
-1767.04
-1704.34
-1674.01
-1722.83
-1818.92
-1883.6
-1813
-1729.51
-1645.11
-1676.73
-1731.66
-1756.37
-1776.1
-1694.84
-1620.62
-1551.81
-1589.25
-1680.41
-1747.1
-1721.39
-1655.77
-1560.5
-1488.01
-1509.61
-1572.14
-1690.3
-1723.61
-1715.86
-1676.24
-1589.27
-1539.62
-1519.89
-1594.59
-1614.09
-1694.05
-1621.22
-1555.93
-1476.66
-1468.08
-1556.07
-1570.08
-1664.7
-1559.44
-1538.95
-1410.46
-1445.32
-1490.79
-1547.06
-1634.55
-1531.22
-1499.95
-1382.69
-1479.36
-1482.01
-1590.79
-1562.99
-1532.98
-1446.98
-1368.52
-1403.35
-1370.11
-1510.78
-1453.99
-1538.22
-1394.59
-1405.81
-1278.67
-1345.51
-1449.09
-1430.87
-1529.44
-1376.63
-1415.05
-1234.26
-1332.39
-1271.6
-1445.62
-1418.59
-1379.8
-1315.15
-1205.49
-1311.84
-1298.69
-1465.99
-1355.64
-1420.86
-1216.3
-1290.19
-1155.99
-1292.45
-1336.66
-1375.73
-1361.09
-1226.19
-1239.9
-1155.53
-1373.6
-1275.78
-1447.78
-1258.71
-1337.99
-1169.23
-1279.89
-1267.76
-1384.72
-1504.85
-1466.05
-1494.23
-1400.21
-1454.53
-1333.53
-1413.44
-1278.89
-1346.62
-1205.1
-1294.08
-1143
-1251.84
-1099.13
-1177.69
-1063.44
-1099.26
-998.236
-977.513
-963.256
-868.35
-874.372
-748.774
-782.801
-666.021
-661.822
-609.743
-586.825
-515.163
-504.897
-411.266
-418.809
-297.238
-340.655
-184.448
-282.6
-279.334
-100.799
-68.9948
-2037.18
-2134.67
-2149.62
-2154.57
-2157.54
-2159.97
-2162.4
-2164.65
-2167.02
-2169.11
-2170.94
-2172.74
-2174.31
-2175.85
-2177.28
-2178.63
-2179.97
-2181.23
-2182.47
-2183.65
-2184.83
-2185.98
-2187.12
-2188.23
-2189.33
-2190.42
-2191.49
-2192.56
-2193.6
-2194.65
-2195.67
-2196.71
-2197.71
-2198.73
-2199.72
-2200.72
-2201.7
-2202.68
-2203.66
-2204.62
-2205.59
-2206.55
-2207.5
-2208.45
-2209.39
-2210.33
-2211.26
-2212.2
-2213.12
-2214.04
-2214.96
-2215.87
-2216.78
-2217.69
-2218.6
-2219.5
-2220.4
-2221.3
-2222.2
-2223.09
-2223.99
-2224.88
-2225.78
-2226.67
-2227.57
-2228.47
-2229.38
-2230.28
-2231.21
-2232.13
-2233.08
-2234.02
-2235
-2235.98
-2237.01
-2238.04
-2239.14
-2240.24
-2241.44
-2242.65
-2243.99
-2245.35
-2246.89
-2248.46
-2250.29
-2252.17
-2254.42
-2256.74
-2259.62
-2262.65
-2266.47
-2270.58
-2275.88
-2281.87
-2289.51
-2299.31
-2310.18
-2330.43
-2329.84
-2423.87
-2322.19
-2260.44
-2259.31
-2223.77
-2219.94
-2195.78
-2182.25
-2158.23
-2125.95
-2088.22
-2031.88
-2041.95
-2060.2
-2133.83
-2161.81
-2146.54
-2115.6
-2043.76
-2004.27
-1959.41
-2035.67
-2048.13
-2155.21
-2121.87
-2142.2
-2086.01
-1974.79
-1937.52
-1843.4
-1886.25
-1861.61
-1984.22
-1978.53
-1975.92
-1865.26
-1810.13
-1828.01
-1768.77
-1861.26
-1907.31
-1948.94
-1924.82
-1818.57
-1789.44
-1774.85
-1818.47
-1871.99
-1898.18
-1881.54
-1775.23
-1739.85
-1719.58
-1792.54
-1866.35
-1899.26
-1860.44
-1767.79
-1706.79
-1677.27
-1724.87
-1817
-1879.06
-1810.68
-1730.54
-1648.45
-1678.42
-1730.87
-1754.7
-1773.36
-1693.71
-1622.37
-1556.01
-1592.01
-1679.33
-1743.87
-1718.61
-1654.82
-1562.33
-1492.14
-1513.1
-1573.46
-1688.08
-1720.81
-1713.25
-1674.61
-1590.09
-1541.94
-1522.38
-1595.11
-1613.19
-1690.25
-1619.35
-1556.64
-1479.44
-1470.87
-1556.45
-1568.83
-1661.01
-1558.16
-1539.08
-1413.79
-1447.76
-1492.03
-1545.84
-1630.31
-1529.78
-1500.8
-1386.54
-1480.47
-1482.15
-1587.98
-1560.45
-1531.11
-1447.93
-1371.12
-1405.03
-1371.86
-1508.99
-1452.89
-1535.15
-1394.46
-1406.29
-1283.05
-1347.41
-1447.6
-1429.59
-1525.75
-1376.16
-1414.66
-1237.82
-1333.93
-1274.24
-1442.83
-1415.7
-1378.27
-1316.22
-1209.63
-1313.27
-1299
-1462.3
-1354.14
-1418.42
-1218.53
-1291.05
-1160.11
-1293.13
-1335.1
-1372.59
-1358.8
-1227.8
-1242.44
-1159
-1371.42
-1275.31
-1443.82
-1258.74
-1337.36
-1172.54
-1281.02
-1269.72
-1383.42
-1500.25
-1463.11
-1491.7
-1399.34
-1452.29
-1333.11
-1410.93
-1278.49
-1344.67
-1205.21
-1292.03
-1143.26
-1249.37
-1099.14
-1175.74
-1062.63
-1097.19
-997.743
-976.46
-961.42
-867.729
-872.836
-748.931
-781.131
-665.972
-661.209
-608.848
-585.677
-514.664
-503.735
-411.131
-417.689
-297.871
-340.181
-186.245
-281.278
-274.114
-100.251
-68.6859
-2041.15
-2133.69
-2148.9
-2154.15
-2157.38
-2159.89
-2162.3
-2164.58
-2166.97
-2169.04
-2170.88
-2172.69
-2174.26
-2175.8
-2177.23
-2178.58
-2179.92
-2181.18
-2182.42
-2183.6
-2184.78
-2185.93
-2187.08
-2188.19
-2189.29
-2190.38
-2191.45
-2192.52
-2193.57
-2194.62
-2195.64
-2196.67
-2197.68
-2198.7
-2199.69
-2200.69
-2201.68
-2202.66
-2203.64
-2204.6
-2205.57
-2206.53
-2207.48
-2208.43
-2209.37
-2210.31
-2211.24
-2212.18
-2213.1
-2214.03
-2214.94
-2215.86
-2216.77
-2217.68
-2218.58
-2219.49
-2220.39
-2221.29
-2222.18
-2223.08
-2223.97
-2224.87
-2225.76
-2226.66
-2227.56
-2228.46
-2229.37
-2230.27
-2231.2
-2232.12
-2233.07
-2234.01
-2234.99
-2235.97
-2237
-2238.03
-2239.13
-2240.23
-2241.43
-2242.64
-2243.98
-2245.34
-2246.88
-2248.45
-2250.28
-2252.16
-2254.41
-2256.73
-2259.6
-2262.63
-2266.45
-2270.56
-2275.85
-2281.84
-2289.45
-2299.25
-2309.92
-2330.2
-2329.7
-2419.37
-2320.93
-2260.53
-2258.82
-2223.42
-2219.29
-2195.15
-2181.56
-2157.51
-2125.86
-2088.98
-2034.48
-2044.28
-2061.5
-2132.4
-2159.26
-2144.25
-2114.08
-2044.54
-2006.37
-1962.53
-2036.73
-2048
-2151.94
-2119.31
-2138.79
-2083.96
-1975.45
-1938.88
-1846.63
-1888.38
-1863.97
-1982.29
-1975.62
-1973.31
-1866.47
-1812.54
-1829.55
-1772.2
-1861.74
-1905.73
-1945.71
-1922.45
-1819.73
-1791.58
-1777.17
-1819.48
-1870.63
-1895.25
-1879.45
-1776.32
-1742.51
-1722.76
-1793.39
-1864.15
-1895.51
-1858
-1768.52
-1709.22
-1680.52
-1726.85
-1815.08
-1874.58
-1808.4
-1731.54
-1651.73
-1680.1
-1730.1
-1753.03
-1770.58
-1692.7
-1624.11
-1560.15
-1594.73
-1678.31
-1740.62
-1715.84
-1653.91
-1564.18
-1496.26
-1516.58
-1574.8
-1685.88
-1717.99
-1710.64
-1672.99
-1590.9
-1544.24
-1524.85
-1595.6
-1612.3
-1686.5
-1617.53
-1557.32
-1482.21
-1473.63
-1556.79
-1567.63
-1657.33
-1556.93
-1539.15
-1417.13
-1450.18
-1493.22
-1544.62
-1626.13
-1528.39
-1501.56
-1390.43
-1481.54
-1482.3
-1585.17
-1557.93
-1529.27
-1448.87
-1373.7
-1406.68
-1373.67
-1507.17
-1451.81
-1532.1
-1394.4
-1406.74
-1287.39
-1349.29
-1446.13
-1428.32
-1522.08
-1375.74
-1414.23
-1241.39
-1335.43
-1276.85
-1440.04
-1412.88
-1376.78
-1317.27
-1213.71
-1314.64
-1299.34
-1458.62
-1352.67
-1415.95
-1220.8
-1291.87
-1164.21
-1293.77
-1333.54
-1369.52
-1356.55
-1229.4
-1244.9
-1162.46
-1369.23
-1274.86
-1439.83
-1258.81
-1336.69
-1175.84
-1282.11
-1271.6
-1382.08
-1495.62
-1460.12
-1489.04
-1398.37
-1449.94
-1332.62
-1408.33
-1278.03
-1342.64
-1205.27
-1289.92
-1143.49
-1246.81
-1099.12
-1173.73
-1061.74
-1095.04
-997.188
-975.355
-959.528
-867.084
-871.215
-749.062
-779.408
-665.903
-660.548
-607.92
-584.51
-514.139
-502.531
-410.985
-416.521
-298.521
-339.53
-188.154
-279.915
-268.961
-99.7321
-68.3807
-2044.95
-2132.83
-2148.21
-2153.77
-2157.17
-2159.81
-2162.22
-2164.54
-2166.9
-2168.99
-2170.83
-2172.63
-2174.21
-2175.76
-2177.18
-2178.54
-2179.88
-2181.13
-2182.37
-2183.55
-2184.74
-2185.89
-2187.03
-2188.15
-2189.25
-2190.34
-2191.42
-2192.49
-2193.53
-2194.58
-2195.61
-2196.64
-2197.65
-2198.67
-2199.67
-2200.67
-2201.65
-2202.63
-2203.62
-2204.58
-2205.55
-2206.5
-2207.46
-2208.41
-2209.35
-2210.29
-2211.23
-2212.16
-2213.08
-2214.01
-2214.93
-2215.84
-2216.75
-2217.66
-2218.57
-2219.47
-2220.37
-2221.27
-2222.17
-2223.07
-2223.96
-2224.85
-2225.75
-2226.65
-2227.55
-2228.45
-2229.36
-2230.26
-2231.19
-2232.11
-2233.06
-2234
-2234.98
-2235.96
-2236.99
-2238.02
-2239.12
-2240.22
-2241.42
-2242.63
-2243.97
-2245.33
-2246.87
-2248.44
-2250.27
-2252.15
-2254.39
-2256.72
-2259.58
-2262.61
-2266.42
-2270.53
-2275.81
-2281.79
-2289.37
-2299.17
-2309.63
-2329.92
-2329.53
-2414.89
-2319.66
-2260.61
-2258.31
-2223.09
-2218.66
-2194.55
-2180.87
-2156.84
-2125.74
-2089.76
-2037.09
-2046.6
-2062.79
-2130.98
-2156.7
-2141.97
-2112.55
-2045.32
-2008.46
-1965.65
-2037.76
-2047.87
-2148.65
-2116.73
-2135.35
-2081.88
-1976.11
-1940.25
-1849.9
-1890.51
-1866.32
-1980.37
-1972.76
-1970.73
-1867.66
-1814.96
-1831.12
-1775.63
-1862.21
-1904.15
-1942.51
-1920.13
-1820.91
-1793.71
-1779.49
-1820.47
-1869.28
-1892.37
-1877.37
-1777.43
-1745.15
-1725.91
-1794.22
-1861.96
-1891.82
-1855.59
-1769.24
-1711.64
-1683.74
-1728.77
-1813.17
-1870.16
-1806.18
-1732.49
-1654.97
-1681.76
-1729.36
-1751.37
-1767.81
-1691.76
-1625.86
-1564.24
-1597.42
-1677.35
-1737.4
-1713.12
-1653.03
-1566.04
-1500.37
-1520.03
-1576.15
-1683.7
-1715.17
-1708.03
-1671.36
-1591.7
-1546.52
-1527.3
-1596.05
-1611.41
-1682.81
-1615.75
-1557.97
-1484.95
-1476.38
-1557.09
-1566.5
-1653.67
-1555.76
-1539.18
-1420.46
-1452.57
-1494.35
-1543.41
-1622.01
-1527.05
-1502.29
-1394.26
-1482.58
-1482.46
-1582.36
-1555.44
-1527.43
-1449.78
-1376.26
-1408.3
-1375.52
-1505.31
-1450.75
-1529.05
-1394.4
-1407.17
-1291.65
-1351.14
-1444.68
-1427.07
-1518.4
-1375.34
-1413.76
-1244.94
-1336.89
-1279.41
-1437.27
-1410.13
-1375.34
-1318.3
-1217.75
-1315.97
-1299.71
-1454.94
-1351.23
-1413.48
-1223.07
-1292.68
-1168.29
-1294.36
-1332
-1366.5
-1354.33
-1230.98
-1247.26
-1165.9
-1367.03
-1274.44
-1435.82
-1258.91
-1335.99
-1179.12
-1283.17
-1273.41
-1380.71
-1490.99
-1457.08
-1486.25
-1397.31
-1447.5
-1332.1
-1405.68
-1277.51
-1340.53
-1205.26
-1287.72
-1143.68
-1244.17
-1099.04
-1171.58
-1060.85
-1092.82
-996.56
-974.192
-957.583
-866.389
-869.533
-749.158
-777.636
-665.806
-659.835
-606.957
-583.299
-513.587
-501.278
-410.825
-415.314
-299.182
-338.667
-190.185
-278.466
-263.928
-99.2429
-68.1083
-2048.6
-2132.05
-2147.56
-2153.4
-2156.98
-2159.69
-2162.15
-2164.51
-2166.87
-2168.93
-2170.77
-2172.59
-2174.16
-2175.71
-2177.14
-2178.5
-2179.84
-2181.09
-2182.34
-2183.52
-2184.7
-2185.85
-2187
-2188.11
-2189.21
-2190.3
-2191.38
-2192.45
-2193.5
-2194.55
-2195.58
-2196.61
-2197.62
-2198.64
-2199.64
-2200.64
-2201.63
-2202.61
-2203.59
-2204.56
-2205.53
-2206.48
-2207.44
-2208.39
-2209.33
-2210.28
-2211.21
-2212.14
-2213.07
-2213.99
-2214.91
-2215.82
-2216.74
-2217.65
-2218.55
-2219.46
-2220.36
-2221.26
-2222.15
-2223.05
-2223.95
-2224.84
-2225.74
-2226.63
-2227.53
-2228.43
-2229.34
-2230.25
-2231.18
-2232.1
-2233.04
-2233.99
-2234.97
-2235.95
-2236.98
-2238.01
-2239.11
-2240.21
-2241.41
-2242.62
-2243.96
-2245.32
-2246.86
-2248.43
-2250.25
-2252.14
-2254.38
-2256.7
-2259.57
-2262.58
-2266.39
-2270.5
-2275.77
-2281.74
-2289.28
-2299.07
-2309.3
-2329.61
-2329.32
-2410.45
-2318.37
-2260.67
-2257.79
-2222.76
-2218.02
-2193.96
-2180.2
-2156.24
-2125.56
-2090.55
-2039.7
-2048.88
-2064.08
-2129.59
-2154.15
-2139.69
-2111.02
-2046.1
-2010.53
-1968.75
-2038.76
-2047.74
-2145.34
-2114.12
-2131.9
-2079.77
-1976.77
-1941.62
-1853.19
-1892.63
-1868.64
-1978.46
-1969.97
-1968.19
-1868.82
-1817.39
-1832.71
-1779.05
-1862.67
-1902.58
-1939.37
-1917.83
-1822.09
-1795.82
-1781.79
-1821.42
-1867.94
-1889.57
-1875.32
-1778.55
-1747.78
-1729.03
-1795.03
-1859.78
-1888.19
-1853.21
-1769.95
-1714.05
-1686.94
-1730.62
-1811.27
-1865.81
-1804
-1733.4
-1658.14
-1683.41
-1728.66
-1749.71
-1765.07
-1690.88
-1627.59
-1568.25
-1600.06
-1676.43
-1734.2
-1710.48
-1652.14
-1567.91
-1504.45
-1523.46
-1577.51
-1681.55
-1712.37
-1705.43
-1669.74
-1592.48
-1548.77
-1529.72
-1596.47
-1610.52
-1679.17
-1614.01
-1558.59
-1487.67
-1479.09
-1557.36
-1565.42
-1650.05
-1554.63
-1539.2
-1423.77
-1454.92
-1495.44
-1542.21
-1617.97
-1525.77
-1502.98
-1398.02
-1483.59
-1482.63
-1579.56
-1552.97
-1525.62
-1450.68
-1378.8
-1409.9
-1377.41
-1503.46
-1449.73
-1526.04
-1394.46
-1407.59
-1295.82
-1352.95
-1443.24
-1425.83
-1514.75
-1374.99
-1413.29
-1248.49
-1338.34
-1281.95
-1434.54
-1407.47
-1373.96
-1319.33
-1221.73
-1317.27
-1300.11
-1451.32
-1349.82
-1411.02
-1225.34
-1293.46
-1172.32
-1294.91
-1330.47
-1363.56
-1352.15
-1232.55
-1249.56
-1169.31
-1364.87
-1274.05
-1431.84
-1259.05
-1335.28
-1182.39
-1284.2
-1275.14
-1379.31
-1486.37
-1454.01
-1483.37
-1396.17
-1444.98
-1331.51
-1402.96
-1276.94
-1338.37
-1205.24
-1285.48
-1143.82
-1241.48
-1098.91
-1169.22
-1060.01
-1090.55
-995.866
-972.978
-955.59
-865.639
-867.793