/*--------------------------------*- C++ -*----------------------------------*\
| =========                 |                                                 |
| \\      /  F ield         | foam-extend: Open Source CFD                    |
|  \\    /   O peration     | Version:     3.2                                |
|   \\  /    A nd           | Web:         http://www.foam-extend.org         |
|    \\/     M anipulation  | For copyright notice see file Copyright         |
\*---------------------------------------------------------------------------*/
FoamFile
{
    version     2.0;
    format      ascii;
    class       areaScalarField;
    location    "160";
    object      Pef;
}
// * * * * * * * * * * * * * * * * * * * * * * * * * * * * * * * * * * * * * //

dimensions      [0 0 0 0 0 0 0];

internalField   nonuniform List<scalar> 
300
(
0.996918
0.992009
0.963813
0.922379
0.894485
0.875779
0.860155
0.844908
0.829479
0.814262
0.799665
0.785783
0.772536
0.76016
0.748573
0.73767
0.727393
0.717648
0.70851
0.699999
0.691948
0.684254
0.676917
0.66993
0.663293
0.656936
0.650864
0.64503
0.639455
0.634123
0.628995
0.624071
0.619316
0.614747
0.610343
0.60611
0.602006
0.598049
0.594212
0.590501
0.586919
0.583439
0.580072
0.576796
0.573616
0.570532
0.567534
0.564627
0.561784
0.559033
0.556333
0.553723
0.551167
0.548689
0.54626
0.543901
0.541585
0.53934
0.537105
0.534956
0.532822
0.530781
0.528747
0.526809
0.524869
0.523035
0.521186
0.519452
0.517693
0.516061
0.514398
0.512874
0.511314
0.50991
0.508461
0.507189
0.505873
0.504754
0.503602
0.502675
0.501729
0.501041
0.500372
0.499985
0.499727
0.499711
0.49993
0.500523
0.501498
0.502905
0.505064
0.50769
0.511814
0.516387
0.524262
0.532643
0.550542
0.558344
0.648364
0.6165
0.274444
0.250998
0.27286
0.269909
0.284897
0.281651
0.294492
0.294062
0.305445
0.00454923
0.0134535
0.0139446
0.324792
0.0177286
0.318776
0.300617
0.298266
0.331771
0.304789
0.338926
0.322128
0.333742
0.33057
0.33254
0.392193
0.326979
0.338799
0.291595
0.314648
0.324128
0.326083
0.338811
0.338424
0.352676
0.342341
0.40992
0.329229
0.306487
0.328404
0.312537
0.362362
0.341006
0.368534
0.000539483
0.00132515
0.353225
0.316783
0.35912
0.359599
0.374184
0.0108174
0.0376975
0.0540963
0.347372
0.352886
0.380459
0.39086
0.344048
0.323462
0.363877
0.0425637
0.38688
0.397518
0.398005
0.0214199
0.342719
0.306898
0.344132
0.344608
0.359398
0.381874
0.0229902
0.0445987
0.0680304
0.364028
0.327049
0.332433
0.332011
0.361111
0.00132194
0.0167016
0.0374296
0.339833
0.323618
0.320137
0.356386
0.00320693
0.0361697
0.329206
0.328434
0.347363
0.344115
0.36721
0.00453801
0.0754232
0.0228464
0.00817205
0.323341
0.315676
0.301033
0.304353
0.0031097
0.331773
0.364423
0.332148
0.377472
0.386
0.0421209
0.336052
0.326083
0.363239
0.350119
0.38154
0.380163
0.084124
0.0147693
0.0318023
0.302419
0.299375
0.296468
0.327845
0.339589
0.293733
0.00296223
0.288145
0.370032
0.330301
0.38282
0.360199
0.335007
0.339101
0.334944
0.0182114
0.299627
0.365133
0.315651
0.0254588
0.330627
0.0441044
0.36556
0.364286
0.295275
0.32419
0.00169814
0.316512
0.0461415
0.327894
0.358501
0.310091
0.343216
0.247139
0.346993
0.311352
0.354859
0.329776
0.313608
0.342211
0.326982
0.0320404
0.307804
0.052572
0.33331
0.325963
0.294954
0.331682
0.284539
0.344177
0.35112
0.356272
0.302674
0.321707
0.275534
0.308659
0.306329
0.300688
0.352592
0.356419
0.340502
0.297106
0.373556
0.333988
0.351621
0.288899
0.310062
0.294736
0.246285
0.296649
0.320761
0.304296
0.333179
0.314988
0.35493
0.324357
0.394922
0.337863
0.506305
0.745089
0.599984
0.412393
0.36317
)
;

boundaryField
{
    inlet
    {
        type            calculated;
        value           uniform 0;
    }
    outlet
    {
        type            calculated;
        value           uniform 0;
    }
    sideWall
    {
        type            empty;
    }
}


// ************************************************************************* //
