/*--------------------------------*- C++ -*----------------------------------*\
| =========                 |                                                 |
| \\      /  F ield         | foam-extend: Open Source CFD                    |
|  \\    /   O peration     | Version:     3.2                                |
|   \\  /    A nd           | Web:         http://www.foam-extend.org         |
|    \\/     M anipulation  | For copyright notice see file Copyright         |
\*---------------------------------------------------------------------------*/
FoamFile
{
    version     2.0;
    format      ascii;
    class       surfaceScalarField;
    location    "160";
    object      phi;
}
// * * * * * * * * * * * * * * * * * * * * * * * * * * * * * * * * * * * * * //

dimensions      [0 3 -1 0 0 0 0];

internalField   nonuniform List<scalar> 
191380
(
6.20162e-05
3.92338e-05
4.34316e-05
1.85846e-05
3.68831e-05
6.54855e-06
3.4861e-05
2.0221e-06
3.39662e-05
8.94829e-07
3.33299e-05
6.36253e-07
3.27754e-05
5.54468e-07
3.22528e-05
5.22663e-07
3.17611e-05
4.91695e-07
3.13152e-05
4.45895e-07
3.09159e-05
3.99332e-07
3.05513e-05
3.64539e-07
3.0221e-05
3.3029e-07
2.99228e-05
2.98266e-07
2.96509e-05
2.71854e-07
2.94014e-05
2.49546e-07
2.91694e-05
2.31977e-07
2.89547e-05
2.14705e-07
2.87583e-05
1.96369e-07
2.85779e-05
1.80407e-07
2.84077e-05
1.70199e-07
2.82466e-05
1.61143e-07
2.80941e-05
1.52462e-07
2.79505e-05
1.43564e-07
2.78145e-05
1.36e-07
2.76852e-05
1.29339e-07
2.75619e-05
1.23248e-07
2.74442e-05
1.17774e-07
2.73324e-05
1.1172e-07
2.72255e-05
1.06924e-07
2.71233e-05
1.02217e-07
2.7025e-05
9.83456e-08
2.69306e-05
9.43739e-08
2.68399e-05
9.0681e-08
2.6753e-05
8.69039e-08
2.66692e-05
8.38051e-08
2.65883e-05
8.09009e-08
2.65103e-05
7.80313e-08
2.64346e-05
7.56408e-08
2.63619e-05
7.27557e-08
2.62914e-05
7.04957e-08
2.62232e-05
6.82014e-08
2.6157e-05
6.61447e-08
2.60927e-05
6.4284e-08
2.60305e-05
6.22516e-08
2.597e-05
6.04525e-08
2.59115e-05
5.85208e-08
2.58544e-05
5.71392e-08
2.5799e-05
5.54222e-08
2.57449e-05
5.40805e-08
2.56922e-05
5.26362e-08
2.56411e-05
5.11449e-08
2.55912e-05
4.98471e-08
2.55427e-05
4.85548e-08
2.54953e-05
4.74002e-08
2.5449e-05
4.62622e-08
2.54039e-05
4.51042e-08
2.53595e-05
4.44506e-08
2.5316e-05
4.34277e-08
2.52736e-05
4.243e-08
2.52323e-05
4.13037e-08
2.5192e-05
4.02996e-08
2.51527e-05
3.92666e-08
2.51145e-05
3.8284e-08
2.50772e-05
3.72322e-08
2.50409e-05
3.6292e-08
2.50056e-05
3.53003e-08
2.49713e-05
3.431e-08
2.4938e-05
3.33468e-08
2.49058e-05
3.21927e-08
2.48746e-05
3.12028e-08
2.48447e-05
2.99149e-08
2.48159e-05
2.88013e-08
2.47885e-05
2.74054e-08
2.47623e-05
2.61686e-08
2.47379e-05
2.43795e-08
2.47149e-05
2.30223e-08
2.46942e-05
2.07017e-08
2.46752e-05
1.89717e-08
2.46592e-05
1.60185e-08
2.46453e-05
1.39072e-08
2.46355e-05
9.77375e-09
2.46283e-05
7.24977e-09
2.46274e-05
8.38399e-10
2.46293e-05
-1.90569e-09
2.46383e-05
-8.93591e-09
2.46534e-05
-1.51672e-08
2.46803e-05
-2.69008e-08
2.47144e-05
-3.40362e-08
2.47665e-05
-5.21435e-08
2.48298e-05
-6.32266e-08
2.4923e-05
-9.3277e-08
2.50352e-05
-1.12133e-07
2.52021e-05
-1.66907e-07
2.54149e-05
-2.12831e-07
2.57669e-05
-3.52008e-07
2.61056e-05
-3.38686e-07
2.74164e-05
-1.31079e-06
2.82937e-05
-8.77242e-07
1.97062e-05
8.58716e-06
1.4875e-05
4.83006e-06
1.72719e-05
-2.39767e-06
1.79781e-05
-7.06394e-07
1.86668e-05
-6.88864e-07
1.89489e-05
-2.82066e-07
1.93208e-05
-3.7175e-07
1.95769e-05
-2.55987e-07
1.98171e-05
-2.4094e-07
1.98187e-05
-1.76079e-09
2.00249e-05
-2.0418e-07
2.08824e-05
-8.56993e-07
2.0853e-05
3.21143e-08
2.13883e-05
-5.32399e-07
2.06852e-05
6.94598e-07
1.96172e-05
1.06268e-06
1.95807e-05
4.05861e-08
2.02567e-05
-6.77469e-07
2.06203e-05
-3.57094e-07
2.08389e-05
-2.08492e-07
2.16817e-05
-8.42917e-07
2.08173e-05
8.64467e-07
2.12017e-05
-3.90513e-07
2.04278e-05
7.64824e-07
2.20802e-05
-1.65282e-06
2.133e-05
7.53854e-07
2.02075e-05
1.12289e-06
2.03064e-05
-1.00842e-07
1.99006e-05
4.14248e-07
2.13421e-05
-1.43357e-06
2.08238e-05
5.17974e-07
2.16612e-05
-8.34395e-07
2.0907e-05
7.47588e-07
2.11532e-05
-2.61432e-07
2.0917e-05
2.3244e-07
2.25298e-05
-1.60136e-06
2.24134e-05
1.25739e-07
2.00385e-05
2.36837e-06
2.10079e-05
-9.71424e-07
2.06032e-05
4.11388e-07
2.11511e-05
-5.54434e-07
2.13103e-05
-1.73993e-07
2.12065e-05
9.79902e-08
2.28562e-05
-1.63973e-06
2.30486e-05
-1.81623e-07
2.21985e-05
8.49997e-07
2.07501e-05
1.44875e-06
2.08096e-05
-6.69302e-08
2.14684e-05
-6.75268e-07
2.15391e-05
-7.65122e-08
2.26195e-05
-1.06851e-06
2.30772e-05
-4.46258e-07
2.35589e-05
-4.81981e-07
2.2061e-05
1.49985e-06
2.07704e-05
1.28402e-06
2.12677e-05
-5.15635e-07
2.20211e-05
-7.59977e-07
2.1828e-05
2.07172e-07
2.094e-05
9.00715e-07
2.16201e-05
-6.79524e-07
2.27741e-05
-1.1505e-06
2.253e-05
2.37959e-07
2.18029e-05
7.09661e-07
2.23119e-05
-5.12738e-07
2.20082e-05
3.19214e-07
2.16724e-05
3.51042e-07
2.05371e-05
1.13167e-06
2.03898e-05
1.30665e-07
2.11357e-05
-7.55835e-07
2.10946e-05
3.95332e-08
2.20233e-05
-9.33691e-07
2.23458e-05
-3.15392e-07
2.29221e-05
-5.58727e-07
2.33094e-05
-3.85538e-07
2.21461e-05
1.15025e-06
2.03341e-05
1.80723e-06
2.01556e-05
1.83271e-07
2.05773e-05
-4.23404e-07
2.14389e-05
-8.55288e-07
2.22836e-05
-8.34527e-07
2.24104e-05
-1.265e-07
2.28225e-05
-4.11224e-07
2.13475e-05
1.46715e-06
2.01748e-05
1.16631e-06
2.01748e-05
2.81513e-09
2.09206e-05
-7.50026e-07
2.2092e-05
-1.16605e-06
2.27513e-05
-6.48603e-07
2.21703e-05
5.80791e-07
2.05145e-05
1.6568e-06
2.11718e-05
-6.64066e-07
2.07333e-05
4.23429e-07
2.14481e-05
-7.19091e-07
2.19684e-05
-5.08422e-07
2.32618e-05
-1.28299e-06
2.31398e-05
1.21385e-07
2.12911e-05
1.84869e-06
2.10378e-05
2.46238e-07
1.94865e-05
1.53989e-06
2.01084e-05
-6.20918e-07
1.97464e-05
3.75284e-07
2.21312e-05
-2.37523e-06
2.20803e-05
5.20642e-08
2.15705e-05
5.14047e-07
2.15379e-05
2.82672e-08
2.08108e-05
7.09551e-07
2.24697e-05
-1.66799e-06
2.23141e-05
1.67052e-07
2.24327e-05
-1.02682e-07
2.05799e-05
1.85275e-06
2.15248e-05
-9.59099e-07
2.11415e-05
3.73746e-07
2.16269e-05
-4.86523e-07
2.20106e-05
-3.88671e-07
2.28629e-05
-8.45929e-07
2.26465e-05
2.27831e-07
2.14122e-05
1.2317e-06
2.14633e-05
-5.45034e-08
1.90669e-05
2.38756e-06
2.007e-05
-1.01175e-06
1.96676e-05
4.00639e-07
2.15117e-05
-1.84783e-06
2.01474e-05
1.37355e-06
2.18655e-05
-1.70067e-06
2.13159e-05
5.52587e-07
2.03912e-05
9.11457e-07
2.17993e-05
-1.41774e-06
2.07714e-05
1.02509e-06
2.26273e-05
-1.8604e-06
2.07241e-05
1.91496e-06
2.19917e-05
-1.25497e-06
2.09137e-05
1.07556e-06
2.2207e-05
-1.29258e-06
2.02334e-05
1.96732e-06
2.07079e-05
-4.91199e-07
2.10715e-05
-3.68069e-07
2.12188e-05
-1.34592e-07
2.24561e-05
-1.22282e-06
2.15528e-05
9.05531e-07
2.27936e-05
-1.25263e-06
2.07618e-05
2.02336e-06
2.07638e-05
3.16679e-09
1.91741e-05
1.59194e-06
2.19579e-05
-2.78029e-06
2.05169e-05
1.44817e-06
2.25108e-05
-1.99272e-06
2.16943e-05
8.18184e-07
2.11768e-05
5.10104e-07
2.06489e-05
5.16015e-07
2.01945e-05
4.55687e-07
1.99678e-05
2.38221e-07
1.96383e-05
3.44703e-07
2.22982e-05
-2.65422e-06
2.02478e-05
2.03617e-06
2.20898e-05
-1.85287e-06
1.95219e-05
2.57079e-06
2.16325e-05
-2.11218e-06
2.06825e-05
9.56428e-07
2.2431e-05
-1.73774e-06
2.1009e-05
1.42223e-06
2.20068e-05
-9.9655e-07
2.20881e-05
-8.77192e-08
2.01674e-05
1.91476e-06
2.02448e-05
-7.04255e-08
2.00102e-05
2.38665e-07
2.06497e-05
-6.39115e-07
1.99321e-05
7.18062e-07
2.22191e-05
-2.28935e-06
2.10162e-05
1.20159e-06
2.11923e-05
-1.73906e-07
1.96648e-05
1.52915e-06
2.0567e-05
-9.02208e-07
1.91292e-05
1.4379e-06
2.12636e-05
-2.13484e-06
1.95749e-05
1.69082e-06
2.16948e-05
-2.11952e-06
2.14586e-05
2.3206e-07
2.18379e-05
-3.78594e-07
2.00223e-05
1.82007e-06
2.12645e-05
-1.24318e-06
2.17547e-05
-4.93231e-07
2.08736e-05
8.81274e-07
2.06239e-05
2.51879e-07
1.93677e-05
1.25645e-06
2.05843e-05
-1.21765e-06
1.85428e-05
2.0433e-06
1.959e-05
-1.04678e-06
2.0794e-05
-1.2046e-06
2.08042e-05
-1.01156e-08
2.07567e-05
4.75966e-08
2.12398e-05
-4.82938e-07
2.11724e-05
6.75447e-08
2.18161e-05
-6.43627e-07
2.181e-05
6.02343e-09
2.27946e-05
-9.8484e-07
2.36558e-05
-8.62218e-07
3.08544e-05
-7.20011e-06
2.95505e-05
1.30334e-06
2.27104e-05
6.8402e-06
2.09715e-05
1.73884e-06
7.48925e-07
8.94817e-05
5.10021e-05
7.65994e-05
3.14668e-05
6.8042e-05
1.5106e-05
6.32813e-05
6.78277e-06
6.03139e-05
3.86221e-06
5.82033e-05
2.74693e-06
5.65594e-05
2.19828e-06
5.5187e-05
1.89511e-06
5.40282e-05
1.65054e-06
5.30422e-05
1.43181e-06
5.21841e-05
1.25747e-06
5.14251e-05
1.12355e-06
5.07532e-05
1.00214e-06
5.01583e-05
8.93199e-07
4.96219e-05
8.08284e-07
4.91339e-05
7.37572e-07
4.86864e-05
6.79386e-07
4.82768e-05
6.24403e-07
4.78994e-05
5.73706e-07
4.75473e-05
5.32525e-07
4.72174e-05
5.00079e-07
4.69083e-05
4.70277e-07
4.66186e-05
4.4218e-07
4.6347e-05
4.15133e-07
4.60909e-05
3.92125e-07
4.58485e-05
3.71717e-07
4.56189e-05
3.52832e-07
4.54008e-05
3.35873e-07
4.51944e-05
3.18149e-07
4.49976e-05
3.03735e-07
4.48099e-05
2.89901e-07
4.46302e-05
2.7799e-07
4.44584e-05
2.66248e-07
4.42939e-05
2.55191e-07
4.41363e-05
2.44435e-07
4.39849e-05
2.35213e-07
4.38391e-05
2.26718e-07
4.36988e-05
2.18294e-07
4.35634e-05
2.11079e-07
4.34331e-05
2.0302e-07
4.33073e-05
1.96331e-07
4.31857e-05
1.89842e-07
4.3068e-05
1.83778e-07
4.29539e-05
1.78381e-07
4.28436e-05
1.7256e-07
4.27366e-05
1.67431e-07
4.26331e-05
1.6202e-07
4.25324e-05
1.57893e-07
4.24347e-05
1.53135e-07
4.23396e-05
1.49169e-07
4.22471e-05
1.45084e-07
4.21573e-05
1.40945e-07
4.207e-05
1.37226e-07
4.19849e-05
1.33634e-07
4.1902e-05
1.30276e-07
4.18212e-05
1.27105e-07
4.17424e-05
1.23819e-07
4.16657e-05
1.21161e-07
4.15913e-05
1.17901e-07
4.15186e-05
1.15076e-07
4.14479e-05
1.12006e-07
4.13789e-05
1.09281e-07
4.13118e-05
1.06421e-07
4.12463e-05
1.03801e-07
4.11826e-05
1.00916e-07
4.11205e-05
9.84127e-08
4.10601e-05
9.56791e-08
4.10013e-05
9.30947e-08
4.09442e-05
9.04294e-08
4.08889e-05
8.75085e-08
4.08354e-05
8.47421e-08
4.07837e-05
8.1542e-08
4.07341e-05
7.84625e-08
4.06865e-05
7.49823e-08
4.0641e-05
7.16176e-08
4.05982e-05
6.7232e-08
4.05577e-05
6.34924e-08
4.05205e-05
5.79181e-08
4.04863e-05
5.32102e-08
4.04562e-05
4.61014e-08
4.04297e-05
4.04143e-08
4.04089e-05
3.05113e-08
4.03925e-05
2.36718e-08
4.03847e-05
8.63909e-09
4.03828e-05
4.84007e-11
4.0391e-05
-1.7128e-08
4.04077e-05
-3.19503e-08
4.04411e-05
-6.02487e-08
4.04858e-05
-7.87008e-08
4.05586e-05
-1.24985e-07
4.06473e-05
-1.519e-07
4.07813e-05
-2.27262e-07
4.09444e-05
-2.75318e-07
4.11847e-05
-4.0717e-07
4.14882e-05
-5.16315e-07
4.19693e-05
-8.33154e-07
4.25408e-05
-9.10124e-07
4.41009e-05
-2.87092e-06
4.55683e-05
-2.34447e-06
3.7032e-05
1.71232e-05
2.95131e-05
1.23473e-05
2.98732e-05
-2.75956e-06
3.0236e-05
-1.07028e-06
3.07798e-05
-1.23382e-06
3.10918e-05
-5.95076e-07
3.15334e-05
-8.14353e-07
3.1877e-05
-6.00618e-07
3.22285e-05
-5.95154e-07
3.22798e-05
-5.42347e-08
3.26245e-05
-5.44449e-07
3.35584e-05
-1.78729e-06
3.37868e-05
-1.88615e-07
3.44371e-05
-1.1762e-06
3.39763e-05
1.13671e-06
3.28882e-05
2.13398e-06
3.25377e-05
3.92471e-07
3.30597e-05
-1.20451e-06
3.34258e-05
-7.09387e-07
3.38648e-05
-6.22624e-07
3.4671e-05
-1.64376e-06
3.41679e-05
1.36957e-06
3.44979e-05
-7.35206e-07
3.40357e-05
1.20328e-06
3.5481e-05
-3.10446e-06
3.51215e-05
1.11622e-06
3.4185e-05
2.05907e-06
3.36696e-05
4.12118e-07
3.31214e-05
9.80831e-07
3.42328e-05
-2.52558e-06
3.41072e-05
6.46928e-07
3.49037e-05
-1.62612e-06
3.45257e-05
1.10874e-06
3.47313e-05
-5.00809e-07
3.46384e-05
3.15995e-07
3.61719e-05
-3.10952e-06
3.61016e-05
2.21494e-07
3.40065e-05
4.45852e-06
3.4468e-05
-1.43295e-06
3.42427e-05
6.47378e-07
3.4706e-05
-1.03598e-06
3.48378e-05
-3.39042e-07
3.50206e-05
-9.58278e-08
3.65455e-05
-3.14029e-06
3.71494e-05
-7.57838e-07
3.64634e-05
1.54064e-06
3.48719e-05
3.04088e-06
3.47774e-05
8.93791e-09
3.52321e-05
-1.1659e-06
3.53989e-05
-2.54739e-07
3.63979e-05
-2.0397e-06
3.71295e-05
-1.14926e-06
3.78374e-05
-1.18627e-06
3.65945e-05
2.74603e-06
3.52257e-05
2.63602e-06
3.54132e-05
-7.43367e-07
3.60961e-05
-1.45769e-06
3.57752e-05
5.58304e-07
3.47745e-05
1.93328e-06
3.52355e-05
-1.13461e-06
3.66103e-05
-2.52201e-06
3.69032e-05
-7.47301e-08
3.63621e-05
1.21076e-06
3.66403e-05
-8.001e-07
3.63794e-05
6.13359e-07
3.57369e-05
1.03083e-06
3.43329e-05
2.53673e-06
3.40582e-05
3.73959e-07
3.46017e-05
-1.32421e-06
3.47404e-05
-1.06168e-07
3.57248e-05
-1.92493e-06
3.62042e-05
-7.74613e-07
3.69065e-05
-1.22205e-06
3.75556e-05
-1.02968e-06
3.67228e-05
1.95405e-06
3.4665e-05
3.84661e-06
3.38467e-05
1.00351e-06
3.39876e-05
-5.67461e-07
3.48265e-05
-1.67724e-06
3.57337e-05
-1.71565e-06
3.61695e-05
-5.56941e-07
3.68032e-05
-1.04416e-06
3.5589e-05
2.66159e-06
3.41833e-05
2.55222e-06
3.37247e-05
4.60921e-07
3.42939e-05
-1.32764e-06
3.55722e-05
-2.43006e-06
3.65693e-05
-1.61906e-06
3.60787e-05
1.0764e-06
3.45161e-05
3.22171e-06
3.48447e-05
-1.01065e-06
3.45696e-05
6.64234e-07
3.51273e-05
-1.28635e-06
3.57681e-05
-1.12325e-06
3.72489e-05
-2.738e-06
3.73094e-05
6.47835e-08
3.58603e-05
3.29866e-06
3.50898e-05
9.9928e-07
3.33446e-05
3.25654e-06
3.33697e-05
-6.48603e-07
3.29682e-05
8.02296e-07
3.50587e-05
-4.44353e-06
3.56298e-05
-5.13332e-07
3.55349e-05
6.15423e-07
3.52847e-05
2.64033e-07
3.48882e-05
1.06769e-06
3.62644e-05
-3.06002e-06
3.64954e-05
-3.68336e-08
3.64452e-05
-1.44752e-08
3.46496e-05
3.65405e-06
3.52804e-05
-1.61976e-06
3.5126e-05
5.02348e-07
3.55761e-05
-9.43208e-07
3.59911e-05
-8.1207e-07
3.69407e-05
-1.77836e-06
3.68479e-05
3.50649e-07
3.58429e-05
2.23929e-06
3.51593e-05
6.25953e-07
3.27403e-05
4.78965e-06
3.30903e-05
-1.38304e-06
3.28937e-05
5.89333e-07
3.45071e-05
-3.46737e-06
3.36219e-05
2.27872e-06
3.4916e-05
-2.95894e-06
3.47724e-05
7.03038e-07
3.44717e-05
1.18447e-06
3.53208e-05
-2.29071e-06
3.47333e-05
1.60373e-06
3.62844e-05
-3.41902e-06
3.48315e-05
3.39222e-06
3.55547e-05
-1.949e-06
3.47948e-05
1.83624e-06
3.57332e-05
-2.22988e-06
3.42318e-05
3.45351e-06
3.43377e-05
-6.32243e-07
3.46134e-05
-6.5253e-07
3.50589e-05
-5.51977e-07
3.59104e-05
-2.04131e-06
3.5552e-05
1.27031e-06
3.668e-05
-2.40848e-06
3.52652e-05
3.41285e-06
3.4571e-05
7.00661e-07
3.27473e-05
3.41894e-06
3.4883e-05
-4.90413e-06
3.41643e-05
2.18721e-06
3.58749e-05
-3.69741e-06
3.55147e-05
1.18118e-06
3.50677e-05
9.3933e-07
3.45099e-05
1.04499e-06
3.38079e-05
1.15582e-06
3.29297e-05
1.14043e-06
3.294e-05
3.66934e-07
3.5153e-05
-4.85736e-06
3.39402e-05
3.21997e-06
3.54211e-05
-3.35839e-06
3.34771e-05
4.51569e-06
3.48882e-05
-3.5266e-06
3.44058e-05
1.45332e-06
3.5779e-05
-3.08602e-06
3.48571e-05
2.34949e-06
3.5774e-05
-1.91197e-06
3.58823e-05
-2.13875e-07
3.4328e-05
3.44998e-06
3.38445e-05
4.20053e-07
3.33719e-05
7.16508e-07
3.36222e-05
-8.89611e-07
3.32901e-05
1.04956e-06
3.53829e-05
-4.38879e-06
3.49332e-05
1.64687e-06
3.47527e-05
9.57409e-09
3.33188e-05
2.96534e-06
3.35705e-05
-1.15476e-06
3.22739e-05
2.73339e-06
3.40547e-05
-3.91777e-06
3.30152e-05
2.73202e-06
3.47716e-05
-3.87772e-06
3.50627e-05
-6.83445e-08
3.54386e-05
-7.53904e-07
3.39131e-05
3.35298e-06
3.48816e-05
-2.21517e-06
3.54576e-05
-1.07655e-06
3.49276e-05
1.41013e-06
3.4179e-05
1.00351e-06
3.28366e-05
2.59867e-06
3.35534e-05
-1.93697e-06
3.1856e-05
3.74284e-06
3.24142e-05
-1.60534e-06
3.35121e-05
-2.30501e-06
3.38611e-05
-3.6039e-07
3.40591e-05
-1.51597e-07
3.45379e-05
-9.62719e-07
3.47539e-05
-1.49491e-07
3.53687e-05
-1.25946e-06
3.58041e-05
-4.30482e-07
3.65581e-05
-1.73996e-06
3.86405e-05
-2.94653e-06
4.66182e-05
-1.51799e-05
4.71326e-05
7.88608e-07
4.11279e-05
1.28452e-05
3.73747e-05
5.49205e-06
2.6549e-06
9.94288e-05
5.28234e-05
9.34365e-05
3.7459e-05
8.60997e-05
2.24429e-05
8.00867e-05
1.27957e-05
7.57095e-05
8.23943e-06
7.24369e-05
6.01949e-06
6.99182e-05
4.71697e-06
6.79141e-05
3.89917e-06
6.62808e-05
3.28387e-06
6.49103e-05
2.80233e-06
6.37256e-05
2.44215e-06
6.2691e-05
2.15813e-06
6.17843e-05
1.90885e-06
6.0986e-05
1.69152e-06
6.02685e-05
1.5258e-06
5.96186e-05
1.38744e-06
5.9027e-05
1.27098e-06
5.84879e-05
1.16347e-06
5.79938e-05
1.06786e-06
5.7535e-05
9.91302e-07
5.71075e-05
9.27599e-07
5.67087e-05
8.69056e-07
5.63363e-05
8.14601e-07
5.59877e-05
7.63737e-07
5.56595e-05
7.20351e-07
5.53495e-05
6.81626e-07
5.50567e-05
6.45666e-07
5.47792e-05
6.13352e-07
5.45168e-05
5.80593e-07
5.42669e-05
5.53586e-07
5.4029e-05
5.27864e-07
5.38017e-05
5.05285e-07
5.35846e-05
4.83377e-07
5.3377e-05
4.62712e-07
5.31784e-05
4.43072e-07
5.29877e-05
4.25878e-07
5.28043e-05
4.10108e-07
5.26281e-05
3.94495e-07
5.24583e-05
3.80928e-07
5.2295e-05
3.66349e-07
5.21374e-05
3.53932e-07
5.19851e-05
3.42086e-07
5.1838e-05
3.30849e-07
5.16956e-05
3.20864e-07
5.15579e-05
3.1022e-07
5.14245e-05
3.00839e-07
5.12954e-05
2.91066e-07
5.117e-05
2.83346e-07
5.10484e-05
2.74772e-07
5.09301e-05
2.67402e-07
5.08152e-05
2.59962e-07
5.07037e-05
2.52508e-07
5.05952e-05
2.45716e-07
5.04896e-05
2.39227e-07
5.03868e-05
2.33057e-07
5.02866e-05
2.27313e-07
5.01891e-05
2.2133e-07
5.00941e-05
2.1614e-07
5.00019e-05
2.10142e-07
4.99119e-05
2.05034e-07
4.98244e-05
1.99556e-07
4.9739e-05
1.94688e-07
4.96558e-05
1.89538e-07
4.95748e-05
1.8489e-07
4.94959e-05
1.79734e-07
4.9419e-05
1.75303e-07
4.93443e-05
1.70409e-07
4.92715e-05
1.65883e-07
4.92009e-05
1.61104e-07
4.91323e-05
1.56084e-07
4.90659e-05
1.51116e-07
4.90018e-05
1.45683e-07
4.894e-05
1.40199e-07
4.88807e-05
1.34285e-07
4.8824e-05
1.28345e-07
4.87702e-05
1.20984e-07
4.87194e-05
1.14354e-07
4.86722e-05
1.05123e-07
4.86285e-05
9.68517e-08
4.85896e-05
8.50904e-08
4.85548e-05
7.51457e-08
4.85265e-05
5.88593e-08
4.85033e-05
4.68071e-08
4.84893e-05
2.26962e-08
4.84828e-05
6.53549e-09
4.84881e-05
-2.2459e-08
4.85025e-05
-4.62983e-08
4.85348e-05
-9.25445e-08
4.85806e-05
-1.24557e-07
4.86576e-05
-2.01968e-07
4.87529e-05
-2.47166e-07
4.88972e-05
-3.71546e-07
4.90746e-05
-4.52779e-07
4.93352e-05
-6.67753e-07
4.96637e-05
-8.4485e-07
5.01801e-05
-1.34953e-06
5.08049e-05
-1.53493e-06
5.24112e-05
-4.47727e-06
5.35494e-05
-3.48224e-06
4.67549e-05
2.39174e-05
3.93262e-05
1.97736e-05
3.75746e-05
-1.01077e-06
3.73325e-05
-8.30534e-07
3.75192e-05
-1.42305e-06
3.76788e-05
-7.57288e-07
3.80391e-05
-1.17724e-06
3.83389e-05
-9.03072e-07
3.87001e-05
-9.61439e-07
3.87727e-05
-1.29364e-07
3.91566e-05
-9.21345e-07
3.99999e-05
-2.62327e-06
4.03867e-05
-5.6353e-07
4.09565e-05
-1.73842e-06
4.06945e-05
1.3692e-06
3.97963e-05
3.00385e-06
3.93547e-05
8.30842e-07
3.97372e-05
-1.59484e-06
4.00683e-05
-1.01747e-06
4.05228e-05
-1.0374e-06
4.11584e-05
-2.26696e-06
4.10228e-05
1.50837e-06
4.11756e-05
-9.13217e-07
4.10178e-05
1.32212e-06
4.21012e-05
-4.20216e-06
4.20319e-05
1.18661e-06
4.13477e-05
2.74239e-06
4.06869e-05
1.07109e-06
4.01998e-05
1.49687e-06
4.08577e-05
-3.15189e-06
4.09844e-05
5.28865e-07
4.15699e-05
-2.2058e-06
4.14757e-05
1.17318e-06
4.16134e-05
-6.90818e-07
4.16849e-05
2.32196e-07
4.29063e-05
-4.29073e-06
4.29922e-05
1.76181e-07
4.14987e-05
5.95064e-06
4.14728e-05
-1.40404e-06
4.13151e-05
8.17816e-07
4.16469e-05
-1.39927e-06
4.17627e-05
-5.06626e-07
4.20852e-05
-4.32681e-07
4.34399e-05
-4.45507e-06
4.42172e-05
-1.49124e-06
4.37076e-05
2.0607e-06
4.23216e-05
4.42668e-06
4.20309e-05
2.6717e-07
4.226e-05
-1.45028e-06
4.25298e-05
-5.38906e-07
4.34322e-05
-2.89752e-06
4.42959e-05
-1.96775e-06
4.49332e-05
-1.81459e-06
4.39807e-05
3.70174e-06
4.27901e-05
3.79634e-06
4.27509e-05
-7.66018e-07
4.32643e-05
-1.99124e-06
4.30208e-05
8.48317e-07
4.21551e-05
2.8487e-06
4.2397e-05
-1.36396e-06
4.35949e-05
-3.71764e-06
4.40395e-05
-5.55857e-07
4.377e-05
1.41803e-06
4.39334e-05
-9.75866e-07
4.37976e-05
8.01053e-07
4.31047e-05
1.78202e-06
4.17291e-05
3.91581e-06
4.12546e-05
8.02623e-07
4.1529e-05
-1.63753e-06
4.1792e-05
-3.82999e-07
4.27096e-05
-2.85003e-06
4.33097e-05
-1.33841e-06
4.402e-05
-1.87214e-06
4.46857e-05
-1.68929e-06
4.40561e-05
2.53817e-06
4.21765e-05
5.69501e-06
4.11574e-05
2.02046e-06
4.11309e-05
-5.44741e-07
4.18435e-05
-2.35987e-06
4.26678e-05
-2.49736e-06
4.31869e-05
-1.06573e-06
4.37171e-05
-1.57485e-06
4.28355e-05
3.51115e-06
4.15357e-05
3.81898e-06
4.08961e-05
1.09428e-06
4.13093e-05
-1.75266e-06
4.24551e-05
-3.55063e-06
4.34489e-05
-2.57028e-06
4.31277e-05
1.40864e-06
4.19269e-05
4.42513e-06
4.19193e-05
-1.03452e-06
4.17497e-05
7.80244e-07
4.21742e-05
-1.72364e-06
4.28721e-05
-1.78039e-06
4.41894e-05
-4.01459e-06
4.43824e-05
-1.18739e-07
4.3406e-05
4.27579e-06
4.2331e-05
2.04407e-06
4.07626e-05
4.77971e-06
4.04009e-05
-2.91161e-07
4.00919e-05
1.14913e-06
4.17179e-05
-6.03543e-06
4.24889e-05
-1.27277e-06
4.25358e-05
5.76098e-07
4.22741e-05
4.98101e-07
4.2169e-05
1.114e-06
4.31987e-05
-4.11012e-06
4.36485e-05
-4.42535e-07
4.3509e-05
1.83882e-07
4.20838e-05
5.08819e-06
4.23544e-05
-1.93602e-06
4.23305e-05
4.84521e-07
4.27005e-05
-1.32749e-06
4.31503e-05
-1.2723e-06
4.40089e-05
-2.6063e-06
4.4019e-05
3.89244e-07
4.33283e-05
2.93968e-06
4.23077e-05
1.64334e-06
4.0202e-05
6.86858e-06
3.9983e-05
-1.19791e-06
3.99539e-05
6.031e-07
4.11336e-05
-4.65528e-06
4.06876e-05
2.75796e-06
4.16521e-05
-3.8698e-06
4.18059e-05
5.57331e-07
4.16083e-05
1.33953e-06
4.20063e-05
-2.72655e-06
4.19894e-05
1.60376e-06
4.30301e-05
-4.46902e-06
4.22257e-05
4.23547e-06
4.24742e-05
-2.15208e-06
4.20336e-05
2.2826e-06
4.2564e-05
-2.75884e-06
4.14875e-05
4.50315e-06
4.14168e-05
-6.14281e-07
4.17008e-05
-9.4726e-07
4.20992e-05
-9.05994e-07
4.26991e-05
-2.59071e-06
4.27726e-05
1.205e-06
4.34921e-05
-3.17259e-06
4.27046e-05
4.15873e-06
4.16924e-05
1.71275e-06
4.01793e-05
4.93682e-06
4.14981e-05
-6.20113e-06
4.13168e-05
2.40264e-06
4.25953e-05
-4.96399e-06
4.2534e-05
1.24532e-06
4.20872e-05
1.35602e-06
4.15702e-05
1.51696e-06
4.09613e-05
1.76128e-06
4.01276e-05
2.01152e-06
4.01117e-05
4.31557e-07
4.15039e-05
-6.2377e-06
4.10976e-05
3.58229e-06
4.19457e-05
-4.24419e-06
4.0838e-05
5.62037e-06
4.16031e-05
-4.29599e-06
4.1544e-05
1.53703e-06
4.25047e-05
-4.00751e-06
4.20003e-05
2.86545e-06
4.25953e-05
-2.50569e-06
4.27587e-05
-4.086e-07
4.17139e-05
4.46241e-06
4.09893e-05
1.15168e-06
4.04187e-05
1.29238e-06
4.03379e-05
-8.11548e-07
4.03819e-05
1.00226e-06
4.19585e-05
-5.97678e-06
4.1928e-05
1.66944e-06
4.16456e-05
2.94733e-07
4.05192e-05
4.09371e-06
4.02472e-05
-8.84901e-07
3.9349e-05
3.62882e-06
4.04927e-05
-5.06573e-06
4.00884e-05
3.1369e-06
4.13376e-05
-5.13203e-06
4.19323e-05
-6.77581e-07
4.22291e-05
-1.05071e-06
4.11486e-05
4.4423e-06
4.17538e-05
-2.82705e-06
4.23246e-05
-1.65905e-06
4.207e-05
1.66188e-06
4.12409e-05
1.83561e-06
4.0083e-05
3.75526e-06
4.0202e-05
-2.06028e-06
3.89548e-05
4.99207e-06
3.9134e-05
-1.78636e-06
4.0098e-05
-3.27385e-06
4.05533e-05
-8.18729e-07
4.08813e-05
-4.827e-07
4.12951e-05
-1.37924e-06
4.17003e-05
-5.57602e-07
4.22195e-05
-1.78131e-06
4.29315e-05
-1.14511e-06
4.35146e-05
-2.32565e-06
4.59248e-05
-5.36003e-06
5.31075e-05
-2.23654e-05
5.49703e-05
-1.07467e-06
5.09611e-05
1.68547e-05
4.66558e-05
9.79725e-06
5.17451e-06
0.000102569
5.15047e-05
0.00010099
3.90382e-05
9.72211e-05
2.62113e-05
9.20747e-05
1.79422e-05
8.73721e-05
1.2942e-05
8.34179e-05
9.97369e-06
8.01889e-05
7.94596e-06
7.75791e-05
6.50897e-06
7.54536e-05
5.40943e-06
7.36819e-05
4.57401e-06
7.2183e-05
3.94099e-06
7.08943e-05
3.44683e-06
6.97719e-05
3.0313e-06
6.87849e-05
2.6785e-06
6.78983e-05
2.4124e-06
6.70986e-05
2.18716e-06
6.63751e-05
1.99448e-06
6.57184e-05
1.8202e-06
6.51175e-05
1.66873e-06
6.45613e-05
1.5475e-06
6.40455e-05
1.44342e-06
6.35665e-05
1.34807e-06
6.31205e-05
1.26053e-06
6.27036e-05
1.18065e-06
6.23117e-05
1.11228e-06
6.19425e-05
1.05079e-06
6.15946e-05
9.93618e-07
6.12657e-05
9.42225e-07
6.09549e-05
8.91388e-07
6.06594e-05
8.49106e-07
6.03784e-05
8.08906e-07
6.01104e-05
7.73196e-07
5.9855e-05
7.38845e-07
5.96112e-05
7.06536e-07
5.93779e-05
6.76337e-07
5.91543e-05
6.49511e-07
5.89395e-05
6.24906e-07
5.87333e-05
6.00613e-07
5.8535e-05
5.79288e-07
5.83443e-05
5.57003e-07
5.81605e-05
5.37733e-07
5.79831e-05
5.19481e-07
5.78119e-05
5.02046e-07
5.76463e-05
4.86504e-07
5.74864e-05
4.70122e-07
5.73315e-05
4.5569e-07
5.71818e-05
4.4081e-07
5.70364e-05
4.2875e-07
5.68955e-05
4.15681e-07
5.67587e-05
4.04224e-07
5.66258e-05
3.92795e-07
5.64969e-05
3.81461e-07
5.63715e-05
3.7105e-07
5.62496e-05
3.61151e-07
5.6131e-05
3.51651e-07
5.60155e-05
3.42865e-07
5.59031e-05
3.33703e-07
5.57936e-05
3.25627e-07
5.56872e-05
3.16541e-07
5.55835e-05
3.0878e-07
5.54825e-05
3.00512e-07
5.53841e-05
2.93144e-07
5.52883e-05
2.85321e-07
5.51948e-05
2.78318e-07
5.5104e-05
2.70547e-07
5.50154e-05
2.63888e-07
5.49294e-05
2.56505e-07
5.48455e-05
2.49754e-07
5.4764e-05
2.42541e-07
5.4685e-05
2.35159e-07
5.46084e-05
2.27677e-07
5.45343e-05
2.19768e-07
5.44629e-05
2.11577e-07
5.43943e-05
2.02973e-07
5.43284e-05
1.94157e-07
5.42659e-05
1.83563e-07
5.42065e-05
1.73714e-07
5.4151e-05
1.60581e-07
5.40995e-05
1.48399e-07
5.40529e-05
1.31708e-07
5.40109e-05
1.1711e-07
5.39756e-05
9.41491e-08
5.39461e-05
7.6355e-08
5.39257e-05
4.30355e-08
5.39135e-05
1.87309e-08
5.39146e-05
-2.34777e-08
5.39251e-05
-5.68346e-08
5.39531e-05
-1.20536e-07
5.3996e-05
-1.67444e-07
5.40711e-05
-2.77045e-07
5.41656e-05
-3.41702e-07
5.43096e-05
-5.15566e-07
5.44881e-05
-6.31292e-07
5.4751e-05
-9.30667e-07
5.50819e-05
-1.17576e-06
5.55987e-05
-1.86624e-06
5.62278e-05
-2.16407e-06
5.77709e-05
-6.02041e-06
5.85065e-05
-4.21751e-06
5.33507e-05
2.90728e-05
4.67579e-05
2.63631e-05
4.36237e-05
2.11861e-06
4.2756e-05
3.23444e-08
4.25148e-05
-1.18723e-06
4.245e-05
-6.9823e-07
4.26591e-05
-1.39232e-06
4.28549e-05
-1.10497e-06
4.31656e-05
-1.28073e-06
4.32334e-05
-2.02123e-07
4.3604e-05
-1.28432e-06
4.43121e-05
-3.31925e-06
4.47989e-05
-1.029e-06
4.5276e-05
-2.20213e-06
4.51239e-05
1.48127e-06
4.44188e-05
3.66401e-06
4.39929e-05
1.2428e-06
4.42644e-05
-1.8827e-06
4.45524e-05
-1.27585e-06
4.50074e-05
-1.43402e-06
4.54651e-05
-2.69854e-06
4.55615e-05
1.42321e-06
4.55935e-05
-9.78553e-07
4.56627e-05
1.1945e-06
4.6455e-05
-5.02518e-06
4.65341e-05
1.0969e-06
4.60377e-05
3.23271e-06
4.53835e-05
1.72494e-06
4.50379e-05
1.88455e-06
4.53602e-05
-3.426e-06
4.56216e-05
2.86224e-07
4.60138e-05
-2.58592e-06
4.60934e-05
1.0562e-06
4.61657e-05
-8.38879e-07
4.637e-05
-4.22888e-10
4.7338e-05
-5.20903e-06
4.74918e-05
8.4321e-08
4.65034e-05
6.94994e-06
4.61948e-05
-1.08331e-06
4.60845e-05
9.46188e-07
4.62995e-05
-1.65744e-06
4.64141e-05
-6.9688e-07
4.68147e-05
-8.63154e-07
4.79715e-05
-5.56158e-06
4.88031e-05
-2.25677e-06
4.846e-05
2.42794e-06
4.73379e-05
5.5543e-06
4.69281e-05
6.35079e-07
4.69938e-05
-1.59608e-06
4.73239e-05
-8.99557e-07
4.81099e-05
-3.62747e-06
4.90178e-05
-2.80767e-06
4.95579e-05
-2.33163e-06
4.88401e-05
4.43068e-06
4.78538e-05
4.74337e-06
4.76948e-05
-6.9716e-07
4.80571e-05
-2.394e-06
4.78961e-05
1.06636e-06
4.72146e-05
3.60373e-06
4.72982e-05
-1.42066e-06
4.82605e-05
-4.67108e-06
4.87158e-05
-1.05901e-06
4.86342e-05
1.4082e-06
4.87505e-05
-1.12328e-06
4.87295e-05
8.84397e-07
4.80812e-05
2.51778e-06
4.6829e-05
5.18893e-06
4.61952e-05
1.38025e-06
4.62401e-05
-1.74093e-06
4.65608e-05
-7.30362e-07
4.73659e-05
-3.66994e-06
4.80413e-05
-1.96719e-06
4.87292e-05
-2.47202e-06
4.93306e-05
-2.26737e-06
4.88296e-05
2.98353e-06
4.72275e-05
7.2454e-06
4.62024e-05
3.03109e-06
4.60855e-05
-4.38487e-07
4.66483e-05
-2.884e-06
4.73317e-05
-3.11473e-06
4.78575e-05
-1.56242e-06
4.82475e-05
-1.95891e-06
4.76024e-05
4.11058e-06
4.64878e-05
4.88001e-06
4.5835e-05
1.72758e-06
4.61086e-05
-2.04826e-06
4.70492e-05
-4.45835e-06
4.79446e-05
-3.40236e-06
4.77571e-05
1.62072e-06
4.69183e-05
5.2732e-06
4.6689e-05
-8.45951e-07
4.66044e-05
7.86486e-07
4.69191e-05
-2.06756e-06
4.76266e-05
-2.43808e-06
4.87305e-05
-5.05725e-06
4.89575e-05
-3.22686e-07
4.83511e-05
4.89045e-06
4.71799e-05
3.17658e-06
4.58556e-05
6.03583e-06
4.52529e-05
2.93054e-07
4.50499e-05
1.39805e-06
4.6256e-05
-7.19065e-06
4.70331e-05
-2.02704e-06
4.71744e-05
4.50138e-07
4.69667e-05
6.70137e-07
4.70319e-05
9.64171e-07
4.77484e-05
-4.8649e-06
4.82881e-05
-9.29039e-07
4.81217e-05
4.37441e-07
4.7151e-05
6.08536e-06
4.71207e-05
-1.96296e-06
4.71683e-05
3.73379e-07
4.7456e-05
-1.64466e-06
4.79119e-05
-1.74873e-06
4.86516e-05
-3.30471e-06
4.87061e-05
4.07944e-07
4.8235e-05
3.43657e-06
4.7092e-05
2.79103e-06
4.53975e-05
8.52842e-06
4.48297e-05
-6.82234e-07
4.48711e-05
5.33449e-07
4.55732e-05
-5.37331e-06
4.54696e-05
2.90212e-06
4.61708e-05
-4.49392e-06
4.64427e-05
3.07439e-07
4.63683e-05
1.3602e-06
4.65174e-05
-2.93322e-06
4.67956e-05
1.29396e-06
4.73875e-05
-5.07935e-06
4.70984e-05
4.57456e-06
4.7045e-05
-2.03116e-06
4.69032e-05
2.44253e-06
4.70924e-05
-2.93987e-06
4.63546e-05
5.20751e-06
4.61762e-05
-5.11509e-07
4.64349e-05
-1.23071e-06
4.68353e-05
-1.2524e-06
4.72543e-05
-2.93571e-06
4.75598e-05
9.22911e-07
4.79029e-05
-3.57189e-06
4.74926e-05
4.50473e-06
4.64448e-05
2.74834e-06
4.54165e-05
5.96475e-06
4.59946e-05
-6.74871e-06
4.61725e-05
2.27688e-06
4.70465e-05
-5.81359e-06
4.71673e-05
1.135e-06
4.67611e-05
1.7246e-06
4.62652e-05
1.94638e-06
4.57514e-05
2.25768e-06
4.50919e-05
2.71497e-06
4.51232e-05
4.7067e-07
4.58092e-05
-6.8983e-06
4.58637e-05
3.47349e-06
4.61617e-05
-4.5983e-06
4.57161e-05
6.05211e-06
4.60516e-05
-4.64253e-06
4.63206e-05
1.30016e-06
4.69378e-05
-4.56688e-06
4.67458e-05
3.08112e-06
4.71333e-05
-2.88558e-06
4.72532e-05
-5.6792e-07
4.65401e-05
5.12313e-06
4.5765e-05
1.91995e-06
4.52488e-05
1.80694e-06
4.50394e-05
-6.08826e-07
4.52574e-05
7.76897e-07
4.62699e-05
-7.00766e-06
4.64653e-05
1.45953e-06
4.61088e-05
6.51084e-07
4.53463e-05
4.85654e-06
4.4862e-05
-4.05353e-07
4.43392e-05
4.14586e-06
4.48193e-05
-5.55418e-06
4.48482e-05
3.10495e-06
4.56958e-05
-5.98967e-06
4.64343e-05
-1.43851e-06
4.66354e-05
-1.25588e-06
4.5976e-05
5.11014e-06
4.63413e-05
-3.20287e-06
4.68269e-05
-2.16262e-06
4.67003e-05
1.78093e-06
4.58982e-05
2.63871e-06
4.49951e-05
4.65477e-06
4.47262e-05
-1.79877e-06
4.38242e-05
5.89447e-06
4.37353e-05
-1.70158e-06
4.45546e-05
-4.10181e-06
4.50362e-05
-1.30724e-06
4.5425e-05
-8.78384e-07
4.57704e-05
-1.73109e-06
4.62956e-05
-1.08928e-06
4.67546e-05
-2.24633e-06
4.76409e-05
-2.03741e-06
4.8155e-05
-2.84519e-06
5.07117e-05
-7.92263e-06
5.68618e-05
-2.85202e-05
5.92575e-05
-3.47158e-06
5.69351e-05
1.91774e-05
5.29961e-05
1.37362e-05
7.89772e-06
0.000103461
4.92933e-05
0.000103822
3.86774e-05
0.000102648
2.73852e-05
9.99309e-05
2.06595e-05
9.61977e-05
1.66751e-05
9.24624e-05
1.3709e-05
8.90194e-05
1.1389e-05
8.59781e-05