/*--------------------------------*- C++ -*----------------------------------*\
| =========                 |                                                 |
| \\      /  F ield         | foam-extend: Open Source CFD                    |
|  \\    /   O peration     | Version:     3.2                                |
|   \\  /    A nd           | Web:         http://www.foam-extend.org         |
|    \\/     M anipulation  | For copyright notice see file Copyright         |
\*---------------------------------------------------------------------------*/
FoamFile
{
    version     2.0;
    format      ascii;
    class       areaVectorField;
    location    "160";
    object      PointNormalVector;
}
// * * * * * * * * * * * * * * * * * * * * * * * * * * * * * * * * * * * * * //

dimensions      [0 0 0 0 0 0 0];

internalField   nonuniform List<vector> 
300
(
(-0 -0 0.001)
(-0 -0 0.001)
(-0 -0 0.001)
(-0 -0 0.001)
(-0 -0 0.001)
(-0 -0 0.001)
(-0 -0 0.001)
(-0 -0 0.001)
(-0 -0 0.001)
(-0 -0 0.001)
(-0 -0 0.001)
(-0 -0 0.001)
(-0 -0 0.001)
(-0 -0 0.001)
(-0 -0 0.001)
(-0 -0 0.001)
(-0 -0 0.001)
(-0 -0 0.001)
(-0 -0 0.001)
(-0 -0 0.001)
(-0 -0 0.001)
(-0 -0 0.001)
(-0 -0 0.001)
(-0 -0 0.001)
(-0 -0 0.001)
(-0 -0 0.001)
(-0 -0 0.001)
(-0 -0 0.001)
(-0 -0 0.001)
(-0 -0 0.001)
(-0 -0 0.001)
(-0 -0 0.001)
(-0 -0 0.001)
(-0 -0 0.001)
(-0 -0 0.001)
(-0 -0 0.001)
(-0 -0 0.001)
(-0 -0 0.001)
(-0 -0 0.001)
(-0 -0 0.001)
(-0 -0 0.001)
(-0 -0 0.001)
(-0 -0 0.001)
(-0 -0 0.001)
(-0 -0 0.001)
(-0 -0 0.001)
(-0 -0 0.001)
(-0 -0 0.001)
(-0 -0 0.001)
(-0 -0 0.001)
(-0 -0 0.001)
(-0 -0 0.001)
(-0 -0 0.001)
(-0 -0 0.001)
(-0 -0 0.001)
(-0 -0 0.001)
(-0 -0 0.001)
(-0 -0 0.001)
(-0 -0 0.001)
(-0 -0 0.001)
(-0 -0 0.001)
(-0 -0 0.001)
(-0 -0 0.001)
(-0 -0 0.001)
(-0 -0 0.001)
(-0 -0 0.001)
(-0 -0 0.001)
(-0 -0 0.001)
(-0 -0 0.001)
(-0 -0 0.001)
(-0 -0 0.001)
(-0 -0 0.001)
(-0 -0 0.001)
(-0 -0 0.001)
(-0 -0 0.001)
(-0 -0 0.001)
(-0 -0 0.001)
(-0 -0 0.001)
(-0 -0 0.001)
(-0 -0 0.001)
(-0 -0 0.001)
(-0 -0 0.001)
(-0 -0 0.001)
(-0 -0 0.001)
(-0 -0 0.001)
(-0 -0 0.001)
(-0 -0 0.001)
(-0 -0 0.001)
(-0 -0 0.001)
(-0 -0 0.001)
(-0 -0 0.001)
(-0 -0 0.001)
(-0 -0 0.001)
(-0 -0 0.001)
(-0 -0 0.001)
(-0 -0 0.001)
(-0 -0 0.001)
(-0 -0 0.001)
(-0 -0 0.001)
(8.94863e-05 -6.77626e-21 0.001)
(0.000126187 -1.35525e-20 0.001)
(7.35135e-05 -6.77626e-21 0.001)
(7.14294e-05 -0 0.001)
(5.70231e-05 -6.77626e-21 0.001)
(5.25239e-05 6.77626e-21 0.001)
(4.58125e-05 -0 0.001)
(3.91665e-05 -0 0.001)
(3.65661e-05 -0 0.001)
(3.19223e-05 -0 0.001)
(3.06238e-05 -0 0.001)
(1.59211e-05 -0 0.001)
(2.41212e-05 -0 0.001)
(1.36505e-05 -0 0.001)
(2.03394e-05 -0 0.001)
(3.08816e-05 3.38813e-21 0.001)
(2.61185e-05 3.38813e-21 0.001)
(1.61309e-05 -1.69407e-21 0.001)
(1.2879e-05 1.69407e-21 0.001)
(1.5879e-05 -0 0.001)
(-4.78535e-07 -0 0.001)
(1.77057e-05 -0 0.001)
(-2.61166e-06 -0 0.001)
(1.31693e-05 -0 0.001)
(-1.51797e-05 1.69407e-21 0.001)
(5.17475e-06 -0 0.001)
(2.07836e-05 -0 0.001)
(1.05825e-05 8.47033e-22 0.001)
(2.16298e-05 -0 0.001)
(-5.89564e-06 -0 0.001)
(1.04377e-05 -0 0.001)
(-1.21816e-05 -0 0.001)
(3.0249e-06 2.11758e-22 0.001)
(-1.17455e-05 -0 0.001)
(8.76846e-07 -0 0.001)
(-1.46901e-05 -0 0.001)
(-7.32398e-06 -0 0.001)
(2.43701e-05 -0 0.001)
(-5.30787e-06 -4.23516e-22 0.001)
(5.0531e-06 4.23516e-22 0.001)
(-1.13257e-05 -8.47033e-22 0.001)
(-1.51888e-05 -0 0.001)
(-6.33797e-06 -8.47033e-22 0.001)
(-2.27394e-05 -0 0.001)
(-1.31565e-05 -0 0.001)
(-2.73626e-06 2.11758e-22 0.001)
(1.1328e-05 -0 0.001)
(-2.35537e-06 -2.11758e-22 0.001)
(-1.56026e-05 -0 0.001)
(-7.75204e-06 -0 0.001)
(-1.78889e-05 -0 0.001)
(-1.38325e-05 -0 0.001)
(-1.75423e-05 -0 0.001)
(6.11551e-06 -8.47033e-22 0.001)
(9.35579e-06 -8.47033e-22 0.001)
(-6.09587e-06 -0 0.001)
(-7.59253e-06 -8.47033e-22 0.001)
(2.18319e-06 2.11758e-22 0.001)
(1.25096e-05 -0 0.001)
(-1.78743e-06 -0 0.001)
(-1.85213e-05 -1.69407e-21 0.001)
(-1.58169e-05 1.69407e-21 0.001)
(-3.15183e-06 -0 0.001)
(-7.34092e-06 -8.47033e-22 0.001)
(9.28826e-06 -8.47033e-22 0.001)
(9.69612e-06 -0 0.001)
(2.1294e-05 -0 0.001)
(1.04125e-05 -8.47033e-22 0.001)
(-7.91405e-06 8.47033e-22 0.001)
(-1.39553e-06 -1.05879e-22 0.001)
(-1.56823e-05 -0 0.001)
(-6.79683e-06 -0 0.001)
(-8.197e-06 -8.47033e-22 0.001)
(-1.16047e-05 8.47033e-22 0.001)
(-1.17224e-06 -1.05879e-22 0.001)
(2.21257e-05 -0 0.001)
(1.81471e-05 1.69407e-21 0.001)
(6.0139e-06 -0 0.001)
(-1.03521e-06 -0 0.001)
(-7.64837e-06 8.47033e-22 0.001)
(-3.35208e-06 -0 0.001)
(-9.46542e-06 -0 0.001)
(7.8616e-06 -0 0.001)
(1.51253e-05 -0 0.001)
(1.01829e-05 -0 0.001)
(-1.3966e-06 -0 0.001)
(-9.71214e-06 8.47033e-22 0.001)
(-7.52834e-06 8.47033e-22 0.001)
(-1.37336e-06 -0 0.001)
(1.8236e-05 -0 0.001)
(-7.76946e-06 -0 0.001)
(1.53009e-06 -0 0.001)
(-1.026e-05 8.47033e-22 0.001)
(-4.84796e-06 -0 0.001)
(-1.61213e-05 -0 0.001)
(-8.93724e-06 -0 0.001)
(1.96773e-05 -0 0.001)
(6.79239e-06 -0 0.001)
(2.74753e-05 3.38813e-21 0.001)
(2.65114e-06 2.11758e-22 0.001)
(1.93323e-05 -0 0.001)
(-2.30203e-05 -0 0.001)
(-1.17998e-05 -0 0.001)
(-1.88193e-06 -2.11758e-22 0.001)
(-1.15207e-05 -8.47033e-22 0.001)
(-1.52585e-06 -0 0.001)
(-2.37943e-05 -0 0.001)
(1.97884e-06 2.11758e-22 0.001)
(-4.23167e-06 -4.23516e-22 0.001)
(2.06359e-05 1.69407e-21 0.001)
(-1.5032e-05 -0 0.001)
(-1.80362e-06 -0 0.001)
(-1.0909e-05 -8.47033e-22 0.001)
(-9.35083e-06 8.47033e-22 0.001)
(-7.3237e-06 -0 0.001)
(-8.62806e-07 -0 0.001)
(2.04812e-05 -0 0.001)
(7.87487e-06 -8.47033e-22 0.001)
(3.79814e-05 3.38813e-21 0.001)
(-2.80722e-06 -0 0.001)
(1.6038e-05 -1.69407e-21 0.001)
(-1.99969e-05 -0 0.001)
(2.09217e-05 -0 0.001)
(-1.39397e-05 -0 0.001)
(-8.5461e-06 -0 0.001)
(4.10271e-06 -0 0.001)
(-2.41059e-05 -0 0.001)
(5.77984e-06 -0 0.001)
(-2.79733e-05 -0 0.001)
(2.11797e-05 -0 0.001)
(-1.30092e-05 -0 0.001)
(1.53738e-05 -0 0.001)
(-1.93177e-05 -0 0.001)
(1.72075e-05 -0 0.001)
(-5.95966e-06 4.23516e-22 0.001)
(-1.07417e-05 -0 0.001)
(2.29097e-06 -2.11758e-22 0.001)
(-1.62034e-05 1.69407e-21 0.001)
(5.20434e-06 -0 0.001)
(-2.41297e-05 -1.69407e-21 0.001)
(1.83038e-05 -0 0.001)
(-1.60128e-07 -0 0.001)
(3.00266e-05 3.38813e-21 0.001)
(-2.45841e-05 3.38813e-21 0.001)
(2.00827e-05 -0 0.001)
(-2.65842e-05 -0 0.001)
(3.14275e-06 -4.23516e-22 0.001)
(4.47022e-06 -0 0.001)
(2.83796e-06 -2.11758e-22 0.001)
(1.45423e-05 1.69407e-21 0.001)
(7.62213e-06 -8.47033e-22 0.001)
(1.88184e-05 1.69407e-21 0.001)
(-2.99534e-05 -3.38813e-21 0.001)
(1.58996e-05 -1.69407e-21 0.001)
(-3.12338e-05 -3.38813e-21 0.001)
(2.52419e-05 3.38813e-21 0.001)
(-2.90993e-05 -0 0.001)
(1.24164e-05 -0 0.001)
(-2.47395e-05 3.38813e-21 0.001)
(1.27054e-05 1.69407e-21 0.001)
(-1.03418e-05 -8.47033e-22 0.001)
(-1.19802e-05 -8.47033e-22 0.001)
(1.86687e-05 -0 0.001)
(5.23247e-06 -0 0.001)
(1.4931e-05 1.69407e-21 0.001)
(-6.36945e-06 -0 0.001)
(1.0667e-05 8.47033e-22 0.001)
(-2.88484e-05 3.38813e-21 0.001)
(1.05443e-05 -0 0.001)
(-5.64235e-06 -0 0.001)
(2.45356e-05 -0 0.001)
(-8.63252e-06 -0 0.001)
(2.22793e-05 -0 0.001)
(-2.75855e-05 -0 0.001)
(1.48486e-05 1.69407e-21 0.001)
(-3.5595e-05 3.38813e-21 0.001)
(-9.83903e-06 -0 0.001)
(-2.02831e-05 -0 0.001)
(1.40668e-05 -1.69407e-21 0.001)
(-1.65798e-05 -1.69407e-21 0.001)
(-1.85599e-05 -0 0.001)
(4.21792e-06 -0 0.001)
(-1.01521e-06 -0 0.001)
(1.84394e-05 -0 0.001)
(-1.42559e-05 -0 0.001)
(1.94631e-05 -0 0.001)
(-1.37572e-05 -0 0.001)
(-2.25939e-05 -0 0.001)
(-2.65034e-05 -0 0.001)
(-2.35055e-05 1.69407e-21 0.001)
(-3.87982e-05 3.38813e-21 0.001)
(-3.28428e-05 -3.38813e-21 0.001)
(-5.57564e-05 -0 0.001)
(-4.75298e-05 -0 0.001)
(-8.39364e-05 6.77626e-21 0.001)
(-7.27657e-05 6.77626e-21 0.001)
(-0.000159589 -1.35525e-20 0.001)
(-9.77354e-05 -0 0.001)
(-0 -0 0.001)
(-0 -0 0.001)
(-0 -0 0.001)
)
;

boundaryField
{
    inlet
    {
        type            calculated;
        value           uniform (0 0 0);
    }
    outlet
    {
        type            calculated;
        value           uniform (0 0 0);
    }
    sideWall
    {
        type            empty;
    }
}


// ************************************************************************* //
