/*--------------------------------*- C++ -*----------------------------------*\
| =========                 |                                                 |
| \\      /  F ield         | foam-extend: Open Source CFD                    |
|  \\    /   O peration     | Version:     3.2                                |
|   \\  /    A nd           | Web:         http://www.foam-extend.org         |
|    \\/     M anipulation  | For copyright notice see file Copyright         |
\*---------------------------------------------------------------------------*/
FoamFile
{
    version     2.0;
    format      ascii;
    class       areaScalarField;
    location    "160";
    object      Pva;
}
// * * * * * * * * * * * * * * * * * * * * * * * * * * * * * * * * * * * * * //

dimensions      [0 0 0 0 0 0 0];

internalField   nonuniform List<scalar> 
300
(
0.463285
0.463285
0.463285
0.463285
0.463285
0.463285
0.463285
0.463285
0.463285
0.463285
0.463285
0.463285
0.463285
0.463285
0.463285
0.463285
0.463285
0.463285
0.463285
0.463285
0.463285
0.463285
0.463285
0.463285
0.463285
0.463285
0.463285
0.463285
0.463285
0.463285
0.463285
0.463285
0.463285
0.463285
0.463285
0.463285
0.463285
0.463285
0.463285
0.463285
0.463285
0.463285
0.463285
0.463285
0.463285
0.463285
0.463285
0.463285
0.463285
0.463285
0.463285
0.463285
0.463285
0.463285
0.463285
0.463285
0.463285
0.463285
0.463285
0.463285
0.463285
0.463285
0.463285
0.463285
0.463285
0.463285
0.463285
0.463285
0.463285
0.463285
0.463285
0.463285
0.463285
0.463285
0.463285
0.463285
0.463285
0.463285
0.463285
0.463285
0.463285
0.463285
0.463285
0.463285
0.463285
0.463285
0.463285
0.463285
0.463285
0.463285
0.463285
0.463285
0.463285
0.463285
0.463285
0.463285
0.463285
0.463285
0.463285
0.463285
0.508416
0.530192
0.553353
0.577408
0.593877
0.617884
0.63097
0.652005
0.663932
0.682713
0.710293
0.688425
0.706213
0.692274
0.708022
0.710452
0.717588
0.728009
0.716943
0.740712
0.71919
0.739766
0.718302
0.737212
0.728376
0.736701
0.746494
0.718388
0.745766
0.729636
0.72129
0.744209
0.711098
0.746145
0.719954
0.761604
0.720487
0.736845
0.743585
0.703475
0.744703
0.718629
0.74299
0.741893
0.751432
0.746732
0.726933
0.744345
0.745337
0.753957
0.756452
0.760887
0.763136
0.751847
0.763088
0.759606
0.764288
0.761374
0.754774
0.763942
0.776268
0.76965
0.768403
0.767539
0.761413
0.759523
0.748767
0.760503
0.767806
0.766096
0.772284
0.763354
0.76847
0.769635
0.765687
0.755976
0.762405
0.756024
0.763793
0.760221
0.759128
0.758042
0.748094
0.759368
0.747344
0.756407
0.757501
0.764902
0.755345
0.754316
0.760556
0.748434
0.755385
0.753454
0.762764
0.734707
0.76214
0.729799
0.73055
0.743911
0.708629
0.771182
0.732357
0.762492
0.740194
0.756428
0.765195
0.752059
0.762229
0.742446
0.765982
0.754052
0.759406
0.754505
0.772688
0.731839
0.771481
0.724285
0.745904
0.736208
0.720804
0.756136
0.709738
0.776764
0.73246
0.768901
0.738996
0.756067
0.746328
0.731051
0.75215
0.721596
0.763474
0.727738
0.764797
0.740724
0.767229
0.743651
0.767774
0.738573
0.750814
0.731242
0.725639
0.739692
0.712551
0.751408
0.7132
0.771713
0.706434
0.762655
0.716053
0.74272
0.727292
0.719501
0.733299
0.69972
0.745756
0.706177
0.75326
0.718386
0.768245
0.720425
0.762677
0.712622
0.757441
0.721917
0.74118
0.722524
0.721667
0.723537
0.686212
0.732342
0.675765
0.74852
0.678976
0.757927
0.713434
0.758221
0.718759
0.760805
0.729436
0.760892
0.711894
0.723909
0.725153
0.641388
0.722832
0.640849
0.696005
0.619715
0.658912
0.593019
0.611401
0.558575
0.550987
0.513027
0.463285
0.463285
0.463285
0.463285
)
;

boundaryField
{
    inlet
    {
        type            calculated;
        value           uniform 0;
    }
    outlet
    {
        type            calculated;
        value           uniform 0;
    }
    sideWall
    {
        type            empty;
    }
}


// ************************************************************************* //
