/*--------------------------------*- C++ -*----------------------------------*\
| =========                 |                                                 |
| \\      /  F ield         | foam-extend: Open Source CFD                    |
|  \\    /   O peration     | Version:     3.2                                |
|   \\  /    A nd           | Web:         http://www.foam-extend.org         |
|    \\/     M anipulation  | For copyright notice see file Copyright         |
\*---------------------------------------------------------------------------*/
FoamFile
{
    version     2.0;
    format      ascii;
    class       areaScalarField;
    location    "160";
    object      Pvc;
}
// * * * * * * * * * * * * * * * * * * * * * * * * * * * * * * * * * * * * * //

dimensions      [0 0 0 0 0 0 0];

internalField   nonuniform List<scalar> 
300
(
0.536715
0.536715
0.536715
0.536715
0.536715
0.536715
0.536715
0.536715
0.536715
0.536715
0.536715
0.536715
0.536715
0.536715
0.536715
0.536715
0.536715
0.536715
0.536715
0.536715
0.536715
0.536715
0.536715
0.536715
0.536715
0.536715
0.536715
0.536715
0.536715
0.536715
0.536715
0.536715
0.536715
0.536715
0.536715
0.536715
0.536715
0.536715
0.536715
0.536715
0.536715
0.536715
0.536715
0.536715
0.536715
0.536715
0.536715
0.536715
0.536715
0.536715
0.536715
0.536715
0.536715
0.536715
0.536715
0.536715
0.536715
0.536715
0.536715
0.536715
0.536715
0.536715
0.536715
0.536715
0.536715
0.536715
0.536715
0.536715
0.536715
0.536715
0.536715
0.536715
0.536715
0.536715
0.536715
0.536715
0.536715
0.536715
0.536715
0.536715
0.536715
0.536715
0.536715
0.536715
0.536715
0.536715
0.536715
0.536715
0.536715
0.536715
0.536715
0.536715
0.536715
0.536715
0.536715
0.536715
0.536715
0.536715
0.536715
0.536715
0.491584
0.469808
0.446647
0.422592
0.406123
0.382116
0.36903
0.347995
0.336068
0.317287
0.289707
0.311575
0.293787
0.307726
0.291978
0.289548
0.282412
0.271991
0.283057
0.259288
0.28081
0.260234
0.281698
0.262788
0.271624
0.263299
0.253506
0.281612
0.254234
0.270364
0.27871
0.255791
0.288902
0.253855
0.280046
0.238396
0.279513
0.263155
0.256415
0.296525
0.255297
0.281371
0.25701
0.258107
0.248568
0.253268
0.273067
0.255655
0.254663
0.246043
0.243548
0.239113
0.236864
0.248153
0.236912
0.240394
0.235712
0.238626
0.245226
0.236058
0.223732
0.23035
0.231597
0.232461
0.238587
0.240477
0.251233
0.239497
0.232194
0.233904
0.227716
0.236646
0.23153
0.230365
0.234313
0.244024
0.237595
0.243976
0.236207
0.239779
0.240872
0.241958
0.251906
0.240632
0.252656
0.243593
0.242499
0.235098
0.244655
0.245684
0.239444
0.251566
0.244615
0.246546
0.237236
0.265293
0.23786
0.270201
0.26945
0.256089
0.291371
0.228818
0.267643
0.237508
0.259806
0.243572
0.234805
0.247941
0.237771
0.257554
0.234018
0.245948
0.240594
0.245495
0.227312
0.268161
0.228519
0.275715
0.254096
0.263792
0.279196
0.243864
0.290262
0.223236
0.26754
0.231099
0.261004
0.243933
0.253672
0.268949
0.24785
0.278404
0.236526
0.272262
0.235203
0.259276
0.232771
0.256349
0.232226
0.261427
0.249186
0.268758
0.274361
0.260308
0.287449
0.248592
0.2868
0.228287
0.293566
0.237345
0.283947
0.25728
0.272708
0.280499
0.266701
0.30028
0.254244
0.293823
0.24674
0.281614
0.231755
0.279575
0.237323
0.287378
0.242559
0.278083
0.25882
0.277476
0.278333
0.276463
0.313788
0.267658
0.324235
0.25148
0.321024
0.242073
0.286566
0.241779
0.281241
0.239195
0.270564
0.239108
0.288106
0.276091
0.274847
0.358612
0.277168
0.359151
0.303995
0.380285
0.341088
0.406981
0.388599
0.441425
0.449013
0.486973
0.536715
0.536715
0.536715
0.536715
)
;

boundaryField
{
    inlet
    {
        type            calculated;
        value           uniform 0;
    }
    outlet
    {
        type            calculated;
        value           uniform 0;
    }
    sideWall
    {
        type            empty;
    }
}


// ************************************************************************* //
