/*--------------------------------*- C++ -*----------------------------------*\
| =========                 |                                                 |
| \\      /  F ield         | foam-extend: Open Source CFD                    |
|  \\    /   O peration     | Version:     3.2                                |
|   \\  /    A nd           | Web:         http://www.foam-extend.org         |
|    \\/     M anipulation  | For copyright notice see file Copyright         |
\*---------------------------------------------------------------------------*/
FoamFile
{
    version     2.0;
    format      ascii;
    class       areaVectorField;
    location    "160";
    object      q_bed;
}
// * * * * * * * * * * * * * * * * * * * * * * * * * * * * * * * * * * * * * //

dimensions      [0 2 -1 0 0 0 0];

internalField   nonuniform List<vector> 
300
(
(0.00422332 0 0)
(0.00366695 0 0)
(0.00284074 0 0)
(0.00239534 0 0)
(0.00219593 0 0)
(0.00208258 0 0)
(0.00199645 0 0)
(0.00191823 0 0)
(0.00184387 0 0)
(0.00177447 0 0)
(0.00171103 0 0)
(0.00165319 0 0)
(0.00159999 0 0)
(0.00155188 0 0)
(0.00150811 0 0)
(0.00146795 0 0)
(0.00143096 0 0)
(0.0013966 0 0)
(0.00136498 0 0)
(0.00133604 0 0)
(0.00130908 0 0)
(0.00128368 0 0)
(0.00125979 0 0)
(0.00123733 0 0)
(0.00121624 0 0)
(0.00119626 0 0)
(0.00117738 0 0)
(0.00115942 0 0)
(0.00114241 0 0)
(0.00112629 0 0)
(0.00111091 0 0)
(0.00109627 0 0)
(0.00108223 0 0)
(0.00106884 0 0)
(0.00105603 -3.30724e-42 0)
(0.00104379 0 0)
(0.001032 0 0)
(0.00102071 0 0)
(0.00100982 -2.71476e-42 0)
(0.000999351 -2.58087e-42 0)
(0.000989302 0 0)
(0.000979589 9.44712e-42 0)
(0.000970241 9.03512e-42 0)
(0.000961189 0 0)
(0.000952446 0 0)
(0.000944005 0 0)
(0.000935838 0 0)
(0.000927953 -2.96029e-41 0)
(0.000920272 -2.8433e-41 0)
(0.000912873 -5.48927e-41 0)
(0.00090564 0 0)
(0.000898675 0 0)
(0.00089188 0 0)
(0.000885318 -9.52014e-41 0)
(0.000878905 0 0)
(0.000872703 0 0)
(0.000866633 0 0)
(0.000860768 3.281e-40 0)
(0.000854949 0 0)
(0.000849374 0 0)
(0.000843853 0 0)
(0.000838589 0 0)
(0.000833357 0 0)
(0.000828388 0 0)
(0.00082343 -1.03193e-39 0)
(0.000818753 -1.00048e-39 0)
(0.000814051 0 0)
(0.000809655 1.86936e-39 0)
(0.000805204 0 0)
(0.000801086 0 0)
(0.0007969 0 0)
(0.000793072 6.40581e-39 0)
(0.000789164 0 0)
(0.000785652 5.81819e-39 0)
(0.000782036 0 0)
(0.000778868 0 0)
(0.000775598 9.76359e-39 0)
(0.000772822 0 0)
(0.000769969 0 0)
(0.000767678 0 0)
(0.00076534 0 0)
(0.000763643 0 0)
(0.000761993 -3.4293e-38 0)
(0.000761043 0 0)
(0.000760407 -5.99836e-39 0)
(0.000760366 0 0)
(0.000760905 1.49986e-37 0)
(0.000762365 0 0)
(0.00076477 -3.80412e-37 0)
(0.000768243 -1.36765e-36 0)
(0.000773588 3.00769e-36 0)
(0.000780113 0 0)
(0.000790412 -1.13984e-35 0)
(0.000801901 0 0)
(0.000821873 0 0)
(0.000843379 -2.76397e-34 0)
(0.000890206 0 0)
(0.000910995 0 0)
(0.0011696 -2.36418e-29 0)
(0.00108317 6.17091e-23 -9.6929e-05)
(0.000296294 2.0115e-23 -3.73884e-05)
(0.000257572 -9.6245e-24 -1.8935e-05)
(0.000293361 3.19184e-27 -2.09546e-05)
(0.000288291 -6.82095e-26 -1.64393e-05)
(0.00031361 -8.25105e-25 -1.6472e-05)
(0.000307967 0 -1.41087e-05)
(0.000330081 1.85561e-27 -1.29281e-05)
(0.00032931 0 -1.20416e-05)
(0.000349475 1.85069e-27 -1.11561e-05)
(2.60631e-06 0 -7.98152e-08)
(8.12894e-06 0 -1.29422e-07)
(8.45871e-06 -7.43544e-29 -2.04034e-07)
(0 0 0)
(1.10879e-05 -7.82807e-29 -2.25521e-07)
(0.000373012 -4.68961e-24 -1.15192e-05)
(0.000340418 -5.37509e-24 -8.8912e-06)
(0.000336391 2.68359e-24 -5.42631e-06)
(0.000397311 -1.14103e-24 -5.11697e-06)
(0 0 0)
(0 0 0)
(0 0 0)
(0 0 0)
(0.000394125 0 -5.19036e-06)
(0.000397278 -6.93548e-25 6.03055e-06)
(0.000516975 0 -2.67521e-06)
(0.000388604 3.07823e-27 -8.0766e-06)
(0.000410462 -3.36718e-26 -4.34371e-06)
(0.000324947 0 -7.02854e-06)
(0 0 0)
(0 0 0)
(0 0 0)
(0 0 0)
(0.000408382 0 4.79663e-06)
(0.000436809 -1.20364e-28 -3.83014e-07)
(0.000416374 -4.62549e-27 6.11658e-06)
(0 0 0)
(0 0 0)
(0 0 0)
(0 0 0)
(0 0 0)
(0.00045468 0 6.90605e-06)
(0.000414146 1.94265e-24 2.62484e-06)
(0.000467211 0 1.06241e-05)
(0 0 0)
(8.371e-07 5.64309e-28 2.29052e-09)
(0 0 0)
(0 0 0)
(0.000448082 -2.17107e-27 6.99127e-06)
(0.000450123 -2.24251e-27 3.48937e-06)
(0.000478901 0 8.567e-06)
(6.97036e-06 0 9.64172e-08)
(2.60764e-05 -1.86195e-28 4.5744e-07)
(3.84759e-05 -8.05211e-26 -2.353e-07)
(0 0 0)
(0.000436273 0 2.65946e-06)
(0.000491927 1.65123e-24 3.73497e-06)
(0.000514364 -3.02475e-25 -1.12295e-06)
(0 0 0)
(0 0 0)
(0 0 0)
(2.95423e-05 8.63896e-26 4.67268e-07)
(0.000504931 -7.06956e-28 1.59145e-06)
(0.000527608 2.05501e-24 3.87313e-06)
(0.00052969 1.01676e-24 -4.9199e-06)
(1.37815e-05 0 -1.33627e-07)
(0 0 0)
(0 0 0)
(0.000419069 4.41006e-25 3.31653e-06)
(0.000420818 1.63625e-25 5.87265e-07)
(0.000449537 0 7.04978e-06)
(0.000495283 0 3.36635e-06)
(1.50381e-05 -8.89315e-26 1.23268e-07)
(3.09196e-05 2.12498e-25 3.58813e-07)
(4.97985e-05 -3.68573e-27 5.83756e-08)
(0.000459575 -2.14447e-27 -1.01684e-05)
(0.000388332 -4.69102e-24 -7.0471e-06)
(0.000398446 -1.36831e-27 -2.39621e-06)
(0.000397493 0 4.11488e-07)
(0 0 0)
(8.11991e-07 0 2.72186e-09)
(1.07718e-05 0 1.0196e-07)
(2.53505e-05 0 -1.99296e-07)
(0.000411924 -2.87075e-28 -6.23045e-06)
(0.000381656 -1.36686e-27 -3.88635e-06)
(0.000375262 0 5.24092e-07)
(0.000443817 -2.9504e-26 4.31041e-06)
(1.99778e-06 4.49775e-27 1.50399e-08)
(2.46668e-05 0 3.38765e-08)
(0 0 0)
(0 0 0)
(0.00042602 0 -6.51848e-07)
(0.00041992 -1.43887e-24 4.3084e-06)
(0.000465515 0 2.2568e-06)
(2.83563e-06 0 4.57141e-08)
(5.67558e-05 0 5.0724e-07)
(1.46572e-05 0 -2.88414e-07)
(5.08244e-06 -1.79122e-29 -3.45219e-08)
(0.000381561 -1.09267e-23 -1.04835e-05)
(0.000367183 -3.74241e-25 -9.73453e-07)
(0.000341485 0 -6.6017e-06)
(0 0 0)
(1.95289e-06 0 2.30436e-08)
(0 0 0)
(0 0 0)
(0.00039699 0 6.05747e-07)
(0.00048505 0 1.15414e-05)
(0.000504097 -1.36702e-25 -9.97528e-07)
(2.89818e-05 -6.22936e-26 1.22641e-07)
(0 0 0)
(0 0 0)
(0.000456503 0 8.23359e-07)
(0.000430928 1.16681e-24 4.70101e-06)
(0.000494041 -1.67123e-24 4.6197e-06)
(0.000491494 2.35154e-27 3.59955e-06)
(6.39749e-05 -1.51877e-29 5.51979e-08)
(9.15285e-06 0 -1.87461e-07)
(2.10512e-05 -7.40844e-26 -1.65775e-07)
(0 0 0)
(0.000337233 0 9.46687e-07)
(0.000332856 2.77422e-24 -5.33836e-06)
(0.000388795 0 7.77469e-06)
(0.000412592 0 -8.63215e-06)
(0 0 0)
(1.84581e-06 0 1.57744e-08)
(0 0 0)
(0.00046893 1.71628e-27 1.1304e-05)
(0.000393777 0 -2.27596e-06)
(0.00049568 0 1.38658e-05)
(0.00045288 0 -9.59186e-06)
(0 0 0)
(0 0 0)
(0 0 0)
(1.15084e-05 0 -1.9803e-07)
(0.000337823 -4.31689e-25 2.01331e-06)
(0.000461039 0 4.95235e-06)
(0.000367368 1.21844e-26 -8.41627e-07)
(1.67458e-05 1.98764e-25 2.71339e-07)
(0 0 0)
(3.04855e-05 -2.90131e-25 7.35605e-07)
(0.000462137 0 -8.45888e-06)
(0.000459402 0 7.35632e-08)
(0.000331402 -1.13534e-23 -9.95086e-06)
(0.000381876 2.30089e-24 9.38807e-06)
(1.01388e-06 0 -2.03615e-08)
(0 0 0)
(3.16796e-05 -5.21637e-26 -9.95609e-08)
(0 0 0)
(0.00044794 4.43211e-25 -1.27124e-06)
(0.000357529 -3.79097e-24 -5.19932e-06)
(0.000419097 7.0788e-25 -3.19441e-06)
(0 0 0)
(0 0 0)
(0 0 0)
(0.000438688 -2.9108e-24 1.37019e-05)
(0.000393546 -1.34741e-23 -9.93384e-06)
(0.000362214 0 1.05402e-05)
(0.000417192 0 -5.18001e-06)
(0 0 0)
(2.09805e-05 4.6075e-26 -2.66565e-07)
(0 0 0)
(3.68353e-05 -6.38091e-26 4.41293e-07)
(0.000399911 2.25889e-27 -7.46584e-06)
(0.000386057 0 -2.02003e-06)
(0.000330434 -1.80107e-24 -4.93371e-06)
(0.000396223 0 2.52372e-06)
(0.000312236 -7.07106e-25 -3.33062e-06)
(0.000418787 4.06256e-24 1.20813e-05)
(0.000434064 0 -4.57688e-06)
(0.000443459 0 2.50215e-06)
(0.000344268 0 -8.44681e-06)
(0.000377708 -3.93469e-28 3.26057e-06)
(0.000297238 0 -6.62227e-06)
(0.000353189 0 9.7429e-06)
(0.000350502 -2.32298e-24 -5.20447e-06)
(0.000338795 3.64339e-24 1.20594e-05)
(0.00043599 4.94108e-28 4.28972e-06)
(0.000443124 0 8.98791e-06)
(0.000413828 3.36342e-24 -5.82125e-06)
(0.00033321 -1.09828e-24 5.52455e-06)
(0.000477069 0 8.85433e-06)
(0.000401137 1.91516e-28 -1.69196e-06)
(0.000434708 -4.02807e-29 4.41321e-07)
(0.000320032 0 -5.90121e-06)
(0.000356287 0 5.07918e-06)
(0.000330158 2.94357e-29 -6.42592e-06)
(0.000249225 0 3.42862e-06)
(0.000332256 0 7.50695e-06)
(0.000375235 -2.10396e-27 9.94501e-06)
(0.000345718 -6.23632e-25 8.1263e-06)
(0.000397687 -2.39644e-26 1.54295e-05)
(0.000364519 1.28118e-24 1.19718e-05)
(0.000438203 0 2.44326e-05)
(0.000380958 0 1.81068e-05)
(0.000516238 3.25604e-24 4.33312e-05)
(0.000404685 2.33129e-24 2.94472e-05)
(0.000755515 -8.56612e-23 0.000120572)
(0.00147243 -3.51542e-26 0.000143909)
(0.00102695 0 0)
(0.000559403 0 0)
(0.000457417 0 0)
)
;

boundaryField
{
    inlet
    {
        type            zeroGradient;
    }
    outlet
    {
        type            zeroGradient;
    }
    sideWall
    {
        type            empty;
    }
}


// ************************************************************************* //
