/*--------------------------------*- C++ -*----------------------------------*\
| =========                 |                                                 |
| \\      /  F ield         | foam-extend: Open Source CFD                    |
|  \\    /   O peration     | Version:     3.2                                |
|   \\  /    A nd           | Web:         http://www.foam-extend.org         |
|    \\/     M anipulation  | For copyright notice see file Copyright         |
\*---------------------------------------------------------------------------*/
FoamFile
{
    version     2.0;
    format      ascii;
    class       edgeScalarField;
    location    "160";
    object      q_f;
}
// * * * * * * * * * * * * * * * * * * * * * * * * * * * * * * * * * * * * * //

dimensions      [0 3 -1 0 0 0 0];

internalField   nonuniform List<scalar> 
299
(
7.89027e-05
6.50769e-05
5.23607e-05
4.59126e-05
4.27851e-05
4.07904e-05
3.91469e-05
3.7621e-05
3.61834e-05
3.4855e-05
3.36422e-05
3.25318e-05
3.15188e-05
3.05999e-05
2.97606e-05
2.89891e-05
2.82756e-05
2.76158e-05
2.70102e-05
2.64511e-05
2.59276e-05
2.54348e-05
2.49712e-05
2.45357e-05
2.41251e-05
2.37365e-05
2.3368e-05
2.30183e-05
2.2687e-05
2.23721e-05
2.20718e-05
2.1785e-05
2.15107e-05
2.12487e-05
2.09982e-05
2.0758e-05
2.05271e-05
2.03053e-05
2.00917e-05
1.98865e-05
1.96889e-05
1.94983e-05
1.93143e-05
1.91363e-05
1.89645e-05
1.87984e-05
1.86379e-05
1.84823e-05
1.83315e-05
1.81851e-05
1.80431e-05
1.79055e-05
1.7772e-05
1.76422e-05
1.75161e-05
1.73934e-05
1.7274e-05
1.71572e-05
1.70432e-05
1.69323e-05
1.68244e-05
1.67195e-05
1.66174e-05
1.65182e-05
1.64218e-05
1.6328e-05
1.62371e-05
1.61486e-05
1.60629e-05
1.59799e-05
1.58997e-05
1.58224e-05
1.57482e-05
1.56769e-05
1.5609e-05
1.55447e-05
1.54842e-05
1.54279e-05
1.53765e-05
1.53302e-05
1.52898e-05
1.52564e-05
1.52304e-05
1.52145e-05
1.52077e-05
1.52127e-05
1.52327e-05
1.52714e-05
1.53301e-05
1.54183e-05
1.5537e-05
1.57053e-05
1.59231e-05
1.62377e-05
1.66525e-05
1.73358e-05
1.8012e-05
2.0806e-05
2.25726e-05
1.38769e-05
5.56806e-06
5.52379e-06
5.82866e-06
6.02805e-06
6.22331e-06
6.38627e-06
6.59864e-06
6.79185e-06
3.52254e-06
1.07384e-07
1.65911e-07
8.46033e-08
1.10895e-07
3.84231e-06
7.13722e-06
6.76969e-06
7.3378e-06
3.97352e-06
0
0
0
3.94143e-06
7.91483e-06
9.14312e-06
9.05683e-06
7.99174e-06
7.35515e-06
3.24988e-06
0
0
0
4.08397e-06
8.45221e-06
8.5323e-06
4.16402e-06
0
0
0
0
4.54721e-06
8.68885e-06
8.81479e-06
4.67291e-06
8.37138e-09
8.37128e-09
0
4.4811e-06
8.98273e-06
9.29111e-06
4.85933e-06
3.30509e-07
6.45579e-07
3.84771e-07
4.36287e-06
9.28222e-06
1.00631e-05
5.14385e-06
0
0
2.95467e-07
5.34508e-06
1.03256e-05
1.05734e-05
5.43496e-06
1.37833e-07
0
4.19087e-06
8.39901e-06
8.70409e-06
9.44889e-06
5.10335e-06
4.59601e-07
8.07209e-07
5.09436e-06
8.48081e-06
7.8685e-06
7.95947e-06
3.97499e-06
8.12005e-09
1.15841e-07
3.61237e-07
4.37306e-06
7.93646e-06
7.56938e-06
8.19098e-06
4.45832e-06
2.6665e-07
2.46689e-07
0
4.26026e-06
8.45963e-06
8.85464e-06
4.68384e-06
5.95965e-07
7.14213e-07
1.97418e-07
3.86721e-06
7.48887e-06
7.08735e-06
3.41562e-06
1.95321e-08
1.95296e-08
0
3.97004e-06
8.82166e-06
9.89288e-06
5.33082e-06
2.8985e-07
0
4.56529e-06
8.87458e-06
9.25017e-06
9.8557e-06
5.55476e-06
7.31354e-07
3.02077e-07
2.10591e-07
3.37355e-06
6.70133e-06
7.2177e-06
8.01555e-06
4.12658e-06
1.84593e-08
1.84585e-08
4.69e-06
8.62839e-06
8.89638e-06
9.48852e-06
4.5295e-06
0
0
1.15103e-07
3.4936e-06
7.98892e-06
8.28432e-06
3.84139e-06
1.6747e-07
3.04901e-07
4.92736e-06
9.21616e-06
7.90981e-06
7.13546e-06
3.82986e-06
1.01416e-08
3.16853e-07
3.16798e-07
4.47944e-06
8.05514e-06
7.76678e-06
4.1914e-06
0
0
4.38822e-06
8.32569e-06
7.5604e-06
7.79601e-06
4.17272e-06
2.09846e-07
2.09819e-07
3.68376e-07
4.368e-06
7.86042e-06
7.16536e-06
7.26705e-06
7.08486e-06
7.31196e-06
8.53052e-06
8.77554e-06
7.87852e-06
7.22098e-06
6.75042e-06
6.50631e-06
7.03864e-06
6.89553e-06
7.75049e-06
8.79226e-06
8.57083e-06
7.47126e-06
8.10404e-06
8.78285e-06
8.35849e-06
7.54805e-06
6.76412e-06
6.86546e-06
5.79465e-06
5.81582e-06
7.07705e-06
7.21179e-06
7.43788e-06
7.62698e-06
8.03562e-06
8.20259e-06
8.99279e-06
9.23759e-06
1.16904e-05
2.24731e-05
2.50532e-05
1.58635e-05
1.01682e-05
)
;

boundaryField
{
    inlet
    {
        type            calculated;
        value           uniform -8.44662e-05;
    }
    outlet
    {
        type            calculated;
        value           uniform 1.02097e-05;
    }
    sideWall
    {
        type            empty;
    }
}


// ************************************************************************* //
