/*--------------------------------*- C++ -*----------------------------------*\
| =========                 |                                                 |
| \\      /  F ield         | foam-extend: Open Source CFD                    |
|  \\    /   O peration     | Version:     3.2                                |
|   \\  /    A nd           | Web:         http://www.foam-extend.org         |
|    \\/     M anipulation  | For copyright notice see file Copyright         |
\*---------------------------------------------------------------------------*/
FoamFile
{
    version     2.0;
    format      ascii;
    class       areaScalarField;
    location    "160";
    object      SSd1;
}
// * * * * * * * * * * * * * * * * * * * * * * * * * * * * * * * * * * * * * //

dimensions      [0 1 -2 -1 0 0 0];

internalField   nonuniform List<scalar> 
300
(
0.000615578
0.000615578
0.000615578
0.000615578
0.000615578
0.000615578
0.000615578
0.000615578
0.000615578
0.000615578
0.000615578
0.000615578
0.000615578
0.000615578
0.000615578
0.000615578
0.000615578
0.000615578
0.000615578
0.000615578
0.000615578
0.000615578
0.000615578
0.000615578
0.000615578
0.000615578
0.000615578
0.000615578
0.000615578
0.000615578
0.000615578
0.000615578
0.000615578
0.000615578
0.000615578
0.000615578
0.000615578
0.000615578
0.000615578
0.000615578
0.000615578
0.000615578
0.000615578
0.000615578
0.000615578
0.000615578
0.000615578
0.000615578
0.000615578
0.000615578
0.000615578
0.000615578
0.000615578
0.000615578
0.000615578
0.000615578
0.000615578
0.000615578
0.000615578
0.000615578
0.000615578
0.000615578
0.000615578
0.000615578
0.000615578
0.000615578
0.000615578
0.000615578
0.000615578
0.000615578
0.000615578
0.000615578
0.000615578
0.000615578
0.000615578
0.000615578
0.000615578
0.000615578
0.000615578
0.000615578
0.000615578
0.000615578
0.000615578
0.000615578
0.000615578
0.000615578
0.000615578
0.000615578
0.000615578
0.000615578
0.000615578
0.000615578
0.000615578
0.000615578
0.000615578
0.000615578
0.000615578
0.000615578
0.000615578
0.000615579
0.000613722
0.000612363
0.000611689
0.000610022
0.000611163
0.000607527
0.000610642
0.0006068
0.000608738
0.000601646
0.000613204
0.000646675
0.000651997
0.000637878
0.000603837
0.000612866
0.000575648
0.000581362
0.000614295
0.000658838
0.000642467
0.000659436
0.000634688
0.000622696
0.000630197
0.000596487
0.000621805
0.000605687
0.000590454
0.000595928
0.000658128
0.000639026
0.000621377
0.000607297
0.000587235
0.000632321
0.000604423
0.000653314
0.000668764
0.000626438
0.000612883
0.000602252
0.000579432
0.000619578
0.000629226
0.000647959
0.000639923
0.000609501
0.000593383
0.000577456
0.000606436
0.000597205
0.000664196
0.000624038
0.000613916
0.000596581
0.000603128
0.000626614
0.000604558
0.000615251
0.000606764
0.000628888
0.00060147
0.000597987
0.000637364
0.000632377
0.000644675
0.000631971
0.000665781
0.000605843
0.000637305
0.000650466
0.000674697
0.000740769
0.000644416
0.000635032
0.000614883
0.00064679
0.00064941
0.000695944
0.000695638
0.000662876
0.00064968
0.000641666
0.000620557
0.000595206
0.00062372
0.000633316
0.000642744
0.000617477
0.000662896
0.000597142
0.000589589
0.000604735
0.000621109
0.000639027
0.000627629
0.000594759
0.000595052
0.000568875
0.000583547
0.000584567
0.000661952
0.000617116
0.000630339
0.000583002
0.000599247
0.000649876
0.000633256
0.000621516
0.000652966
0.000621126
0.000598838
0.000595941
0.000658529
0.000637325
0.000663942
0.000617405
0.00062597
0.000620618
0.00058136
0.000597674
0.000593067
0.000641216
0.000632851
0.000597818
0.000616156
0.000587831
0.000579085
0.000620426
0.000594289
0.000640651
0.000606757
0.000639361
0.000589561
0.000636517
0.000609618
0.00066608
0.000622439
0.000631657
0.000649031
0.000592515
0.000580436
0.000616808
0.000587226
0.000704263
0.000663933
0.000672819
0.000611067
0.000631548
0.000589961
0.000606487
0.000615174
0.000600466
0.000589555
0.000577389
0.000575461
0.000604968
0.000598546
0.000653498
0.000627484
0.000637578
0.000595831
0.000616574
0.000614875
0.000598731
0.000588626
0.000619529
0.000643107
0.000609487
0.000636839
0.000594458
0.000596741
0.000589191
0.000583143
0.000600371
0.000611018
0.000604328
0.000594314
0.000598215
0.000630311
0.000639942
0.000612794
0.000606424
0.000596362
0.000604006
0.000587217
0.00061108
0.000599807
0.000610965
0.000605909
0.000611212
0.000609579
0.000612245
0.00061226
0.000614237
0.000615582
0.000615465
0.000615421
0.000615391
)
;

boundaryField
{
    inlet
    {
        type            calculated;
        value           uniform 0;
    }
    outlet
    {
        type            calculated;
        value           uniform 0;
    }
    sideWall
    {
        type            empty;
    }
}


// ************************************************************************* //
