/*--------------------------------*- C++ -*----------------------------------*\
| =========                 |                                                 |
| \\      /  F ield         | foam-extend: Open Source CFD                    |
|  \\    /   O peration     | Version:     3.2                                |
|   \\  /    A nd           | Web:         http://www.foam-extend.org         |
|    \\/     M anipulation  | For copyright notice see file Copyright         |
\*---------------------------------------------------------------------------*/
FoamFile
{
    version     2.0;
    format      ascii;
    class       areaScalarField;
    location    "160";
    object      SSe1;
}
// * * * * * * * * * * * * * * * * * * * * * * * * * * * * * * * * * * * * * //

dimensions      [0 1 -2 -1 0 0 0];

internalField   nonuniform List<scalar> 
300
(
0.0445057
0.0316045
0.0182306
0.0135491
0.0119079
0.0110759
0.010486
0.00997874
0.00951923
0.00910856
0.00874713
0.00842818
0.00814306
0.00789144
0.00766727
0.00746536
0.0072823
0.00711464
0.00696228
0.00682429
0.00669699
0.00657811
0.00646714
0.00636351
0.00626685
0.00617578
0.00609015
0.00600908
0.00593264
0.00586047
0.00579188
0.00572675
0.00566453
0.00560534
0.00554883
0.005495
0.00544326
0.00539377
0.00534616
0.00530045
0.00525665
0.00521437
0.00517374
0.00513445
0.00509654
0.00505997
0.00502464
0.00499055
0.00495738
0.00492545
0.00489426
0.00486424
0.00483498
0.00480673
0.00477915
0.00475248
0.0047264
0.00470121
0.00467622
0.0046523
0.00462861
0.00460603
0.0045836
0.0045623
0.00454105
0.00452101
0.00450087
0.00448204
0.00446298
0.00444535
0.00442743
0.00441105
0.00439432
0.00437929
0.00436382
0.00435027
0.00433628
0.0043244
0.0043122
0.00430239
0.00429239
0.00428513
0.00427808
0.00427401
0.00427129
0.00427112
0.00427342
0.00427967
0.00428996
0.00430482
0.00432769
0.00435561
0.00439968
0.00444887
0.00453441
0.00462662
0.00482785
0.00491608
0.00605357
0.00262305
0.000784466
0.000867126
0.00090978
0.000935086
0.000981056
0.00096125
0.00102732
0.000990324
0.00103843
0.000183489
0.000207493
0.000200957
0.000207621
0.000210417
0.000954174
0.000934115
0.00101209
0.0011335
0.000152167
0.000192057
0.000153884
0.000178428
0.00116684
0.00101783
0.00150958
0.000983443
0.00111265
0.000926302
0.000144403
0.000151047
0.000147343
0.000168404
0.00120364
0.00134205
0.00112599
0.000183266
0.000139242
0.000148887
0.000159675
0.00015554
0.00108209
0.00129243
0.000991184
0.000183723
0.000209792
0.000170317
0.000183096
0.00106632
0.00120787
0.00103535
0.000177515
0.000178755
0.0002204
0.000182974
0.00113431
0.00121666
0.00136479
0.000166548
0.000183897
0.000153777
0.000173879
0.00128439
0.00123597
0.00123935
0.000191306
0.000152457
0.000158189
0.00108232
0.00118023
0.000975051
0.0011724
0.000194682
0.000192591
0.000242699
0.000967409
0.000939047
0.00108944
0.00120121
0.00018057
0.000199982
0.000190886
0.00020909
0.00104756
0.00101265
0.00118972
0.00110741
0.000190175
0.000224796
0.000151027
0.000167612
0.00123223
0.00109217
0.00124828
0.000171011
0.000223482
0.000185914
0.000191373
0.000928363
0.00122988
0.000893471
0.000139236
0.000168114
0.000204975
0.000172573
0.00126601
0.000950078
0.00134594
0.000230216
0.000151189
0.000160847
0.00124833
0.00107528
0.00118404
0.00124616
0.000252161
0.00018153
0.000194127
0.000129727
0.00109043
0.000942563
0.00099186
0.000947697
0.000156609
0.000172216
0.000173234
0.000878568
0.00119555
0.000912977
0.00104743
0.000180338
0.000170661
0.00016991
0.000169015
0.00110268
0.001079
0.00119286
0.000171759
0.00020251
0.000163037
0.00113336
0.00137827
0.000819631
0.000902631
0.000170114
0.000151478
0.000238668
0.000228223
0.00118878
0.00111745
0.00109939
0.000131771
0.000137794
0.000169561
0.000927393
0.00095876
0.000898331
0.00110392
0.000166706
0.000196146
0.000188078
0.000196911
0.00109209
0.00107707
0.00103451
0.00108308
0.0010211
0.000854285
0.00126861
0.00135827
0.000914944
0.00130668
0.000826491
0.000973964
0.000943324
0.000846996
0.00108357
0.00110523
0.00102166
0.000949044
0.000994342
0.00128123
0.00125168
0.000973524
0.00100962
0.000936804
0.00105511
0.000854449
0.00113487
0.000948223
0.0010684
0.00097228
0.0010111
0.00095852
0.00094361
0.000894327
0.000811258
0.00234797
0.00541631
0.00340505
0.00296013
)
;

boundaryField
{
    inlet
    {
        type            calculated;
        value           uniform 0;
    }
    outlet
    {
        type            calculated;
        value           uniform 0;
    }
    sideWall
    {
        type            empty;
    }
}


// ************************************************************************* //
