/*--------------------------------*- C++ -*----------------------------------*\
| =========                 |                                                 |
| \\      /  F ield         | foam-extend: Open Source CFD                    |
|  \\    /   O peration     | Version:     3.2                                |
|   \\  /    A nd           | Web:         http://www.foam-extend.org         |
|    \\/     M anipulation  | For copyright notice see file Copyright         |
\*---------------------------------------------------------------------------*/
FoamFile
{
    version     2.0;
    format      ascii;
    class       areaScalarField;
    location    "160";
    object      tau;
}
// * * * * * * * * * * * * * * * * * * * * * * * * * * * * * * * * * * * * * //

dimensions      [1 1 2 0 0 0 0];

internalField   nonuniform List<scalar> 
300
(
53.2817
42.4321
29.4366
24.1719
22.1872
21.1464
20.3926
19.7331
19.1259
18.5749
18.0831
17.6435
17.2458
16.8909
16.5716
16.2813
16.0158
15.7707
15.5463
15.3416
15.1516
14.973
14.8054
14.648
14.5003
14.3606
14.2285
14.1029
13.984
13.8713
13.7637
13.6611
13.5628
13.4689
13.3789
13.293
13.2101
13.1305
13.0538
12.9799
12.9089
12.8402
12.7739
12.7097
12.6476
12.5876
12.5294
12.4732
12.4183
12.3654
12.3136
12.2637
12.2149
12.1677
12.1215
12.0768
12.0329
11.9905
11.9484
11.908
11.8679
11.8296
11.7915
11.7553
11.7191
11.6849
11.6505
11.6183
11.5857
11.5554
11.5246
11.4964
11.4676
11.4417
11.415
11.3916
11.3674
11.3468
11.3257
11.3087
11.2913
11.2787
11.2664
11.2593
11.2546
11.2543
11.2583
11.2692
11.2871
11.3129
11.3525
11.4008
11.4769
11.5614
11.7078
11.8645
12.2029
12.3522
14.1746
13.1274
6.78178
6.61057
6.99104
7.00221
7.27641
7.24952
7.49638
7.49999
7.71376
7.50684
8.01838
8.0793
8.11876
8.47011
7.94605
7.65563
7.65713
8.2438
7.73887
8.40274
8.04363
8.33142
8.222
8.37235
9.31921
8.12876
8.37397
7.52046
8.02854
8.11688
8.24321
8.41736
8.45936
8.65276
8.53867
9.64474
8.15925
7.87202
8.21052
8.01724
8.88561
8.48159
9.02292
9.46528
9.29449
8.61311
8.05815
8.83134
8.80755
9.10102
9.27933
9.65454
9.56779
8.53885
8.68501
9.16779
9.30835
8.44777
8.16194
8.90719
9.54514
9.26108
9.46346
9.40348
8.81667
8.37871
7.82455
8.54179
8.52324
8.83646
9.18908
9.085
9.41397
9.62252
8.76053
8.14094
8.28357
8.30539
8.80851
8.80878
9.09833
9.21066
8.37289
8.11521
8.10338
8.76015
8.95467
9.39273
8.17937
8.28188
8.5586
8.55109
8.9271
8.95847
9.95921
8.73425
8.7635
8.03848
8.01037
7.69103
7.89461
9.12239
8.29827
8.91944
8.30975
9.18195
9.22469
9.31686
8.26637
8.25192
8.84598
8.65706
9.19375
9.16155
9.77076
8.39968
8.96453
7.63793
7.7543
7.62683
8.31141
8.34457
7.68299
9.00049
7.52959
9.05437
8.24797
9.29161
8.69836
8.3905
8.35528
8.42567
8.64443
7.77153
8.91532
8.01144
9.09284
8.22931
9.38506
8.80292
8.85731
7.54812
8.26736
8.27029
8.13686
9.12494
8.23031
8.74511
7.86568
8.46212
6.76068
8.65663
7.87421
8.82114
8.15812
8.10447
8.42499
8.29655
8.72138
7.92645
9.30367
8.24615
8.17587
7.60561
8.32163
7.44577
8.62763
8.58604
8.74153
7.69735
8.15994
7.24418
8.01376
7.80012
7.90986
8.69527
8.80378
8.38877
7.77189
9.09288
8.31766
8.64238
7.48778
7.98367
7.58304
6.89575
7.7885
8.21639
7.92273
8.47868
8.14314
8.92012
8.36223
9.72286
8.69314
11.9903
16.8653
13.1694
9.69337
8.83738
)
;

boundaryField
{
    inlet
    {
        type            calculated;
        value           uniform 0;
    }
    outlet
    {
        type            calculated;
        value           uniform 0;
    }
    sideWall
    {
        type            empty;
    }
}


// ************************************************************************* //
