/*--------------------------------*- C++ -*----------------------------------*\
| =========                 |                                                 |
| \\      /  F ield         | foam-extend: Open Source CFD                    |
|  \\    /   O peration     | Version:     3.2                                |
|   \\  /    A nd           | Web:         http://www.foam-extend.org         |
|    \\/     M anipulation  | For copyright notice see file Copyright         |
\*---------------------------------------------------------------------------*/
FoamFile
{
    version     2.0;
    format      ascii;
    class       areaScalarField;
    location    "160";
    object      tauCSS1;
}
// * * * * * * * * * * * * * * * * * * * * * * * * * * * * * * * * * * * * * //

dimensions      [1 1 2 0 0 0 0];

internalField   nonuniform List<scalar> 
300
(
0.108551
0.108551
0.108551
0.108551
0.108551
0.108551
0.108551
0.108551
0.108551
0.108551
0.108551
0.108551
0.108551
0.108551
0.108551
0.108551
0.108551
0.108551
0.108551
0.108551
0.108551
0.108551
0.108551
0.108551
0.108551
0.108551
0.108551
0.108551
0.108551
0.108551
0.108551
0.108551
0.108551
0.108551
0.108551
0.108551
0.108551
0.108551
0.108551
0.108551
0.108551
0.108551
0.108551
0.108551
0.108551
0.108551
0.108551
0.108551
0.108551
0.108551
0.108551
0.108551
0.108551
0.108551
0.108551
0.108551
0.108551
0.108551
0.108551
0.108551
0.108551
0.108551
0.108551
0.108551
0.108551
0.108551
0.108551
0.108551
0.108551
0.108551
0.108551
0.108551
0.108551
0.108551
0.108551
0.108551
0.108551
0.108551
0.108551
0.108551
0.108551
0.108551
0.108551
0.108551
0.108551
0.108551
0.108551
0.108551
0.108551
0.108551
0.108551
0.108551
0.108551
0.108551
0.108551
0.108551
0.108551
0.108551
0.108551
0.0932337
0.086789
0.0960146
0.0963762
0.098867
0.0996417
0.100794
0.101932
0.102376
0.103167
0.301564
0.316221
0.318356
0.329767
0.331623
0.103344
0.104153
0.105843
0.106391
0.367074
0.379099
0.371172
0.385625
0.106342
0.111073
0.107685
0.105057
0.106777
0.104914
0.404617
0.395254
0.408935
0.398088
0.110504
0.108404
0.110992
0.395323
0.37883
0.400042
0.393677
0.402615
0.111074
0.109607
0.112319
0.384947
0.376332
0.369575
0.378983
0.111143
0.109842
0.11152
0.369207
0.366003
0.351237
0.351943
0.109567
0.109815
0.108186
0.350016
0.359643
0.365414
0.358226
0.109076
0.109774
0.106995
0.343158
0.341762
0.352816
0.109869
0.108783
0.111156
0.109683
0.352972
0.351506
0.343902
0.10483
0.105503
0.107544
0.108723
0.360769
0.35662
0.357826
0.348171
0.106012
0.106844
0.108784
0.110167
0.361249
0.356424
0.348305
0.364417
0.108295
0.110258
0.109359
0.36049
0.352498
0.338835
0.350085
0.103923
0.108107
0.105302
0.38016
0.368123
0.360396
0.363481
0.108805
0.112492
0.10822
0.349264
0.338506
0.358659
0.108852
0.110366
0.110107
0.109771
0.338883
0.330794
0.34204
0.332803
0.109019
0.105859
0.111868
0.105034
0.369969
0.363276
0.35559
0.112544
0.107584
0.113178
0.10499
0.35516
0.340321
0.358238
0.338368
0.109544
0.110338
0.108168
0.351597
0.338563
0.350672
0.105476
0.108577
0.103489
0.112622
0.334506
0.358132
0.338718
0.339252
0.108076
0.106111
0.107275
0.343242
0.367769
0.340847
0.113711
0.104302
0.113362
0.106469
0.35347
0.332008
0.344415
0.341562
0.105414
0.107675
0.106045
0.109612
0.106763
0.113321
0.106784
0.109491
0.104422
0.109988
0.104804
0.113114
0.106059
0.114422
0.110188
0.111915
0.106191
0.111304
0.111631
0.107845
0.10872
0.105453
0.11092
0.10528
0.110838
0.112295
0.112937
0.112445
0.114943
0.113974
0.117679
0.116357
0.122139
0.120384
0.133513
0.12428
0.108551
0.108551
0.108551
)
;

boundaryField
{
    inlet
    {
        type            calculated;
        value           uniform 0;
    }
    outlet
    {
        type            calculated;
        value           uniform 0;
    }
    sideWall
    {
        type            empty;
    }
}


// ************************************************************************* //
