/*--------------------------------*- C++ -*----------------------------------*\
| =========                 |                                                 |
| \\      /  F ield         | foam-extend: Open Source CFD                    |
|  \\    /   O peration     | Version:     3.2                                |
|   \\  /    A nd           | Web:         http://www.foam-extend.org         |
|    \\/     M anipulation  | For copyright notice see file Copyright         |
\*---------------------------------------------------------------------------*/
FoamFile
{
    version     2.0;
    format      ascii;
    class       areaScalarField;
    location    "160";
    object      tauCB;
}
// * * * * * * * * * * * * * * * * * * * * * * * * * * * * * * * * * * * * * //

dimensions      [1 1 2 0 0 0 0];

internalField   nonuniform List<scalar> 
300
(
2.35358
2.35358
2.35358
2.35358
2.35358
2.35358
2.35358
2.35358
2.35358
2.35358
2.35358
2.35358
2.35358
2.35358
2.35358
2.35358
2.35358
2.35358
2.35358
2.35358
2.35358
2.35358
2.35358
2.35358
2.35358
2.35358
2.35358
2.35358
2.35358
2.35358
2.35358
2.35358
2.35358
2.35358
2.35358
2.35358
2.35358
2.35358
2.35358
2.35358
2.35358
2.35358
2.35358
2.35358
2.35358
2.35358
2.35358
2.35358
2.35358
2.35358
2.35358
2.35358
2.35358
2.35358
2.35358
2.35358
2.35358
2.35358
2.35358
2.35358
2.35358
2.35358
2.35358
2.35358
2.35358
2.35358
2.35358
2.35358
2.35358
2.35358
2.35358
2.35358
2.35358
2.35358
2.35358
2.35358
2.35358
2.35358
2.35358
2.35358
2.35358
2.35358
2.35358
2.35358
2.35358
2.35358
2.35358
2.35358
2.35358
2.35358
2.35358
2.35358
2.35358
2.35358
2.35358
2.35358
2.35358
2.35358
2.35358
2.02148
1.88175
2.08178
2.08962
2.14363
2.16042
2.18541
2.21007
2.2197
2.23686
6.53849
6.85627
6.90257
7.14997
7.19023
2.2407
2.25824
2.29488
2.30676
7.95886
8.2196
8.04772
8.36109
2.3057
2.40827
2.33481
2.27784
2.31514
2.27473
8.77287
8.56986
8.8665
8.63132
2.39595
2.35041
2.40651
8.57135
8.21377
8.67368
8.53566
8.72945
2.4083
2.37648
2.43529
8.3464
8.15959
8.01309
8.21707
2.40979
2.38158
2.41797
8.00512
7.93565
7.61548
7.6308
2.37561
2.38101
2.34567
7.58901
7.79776
7.92287
7.76702
2.36498
2.3801
2.31985
7.44032
7.41004
7.64973
2.38216
2.35863
2.41007
2.37814
7.65312
7.62133
7.45646
2.27291
2.2875
2.33177
2.35733
7.82216
7.73221
7.75834
7.54901
2.29855
2.31659
2.35864
2.38864
7.83256
7.72796
7.55193
7.90125
2.34804
2.39061
2.37111
7.81612
7.64284
7.34658
7.59051
2.25325
2.34398
2.28316
8.24259
7.9816
7.81408
7.88096
2.35911
2.43905
2.34641
7.57272
7.33945
7.77641
2.36011
2.39294
2.38734
2.38004
7.34763
7.17225
7.41607
7.21581
2.36374
2.29522
2.4255
2.27733
8.02163
7.87652
7.70986
2.44016
2.33262
2.45391
2.27638
7.70055
7.3788
7.76729
7.33645
2.37512
2.39234
2.34528
7.6233
7.34069
7.60324
2.28692
2.35416
2.24385
2.44186
7.25273
7.76498
7.34404
7.35563
2.3433
2.30068
2.32592
7.44215
7.97393
7.3902
2.46548
2.26146
2.45791
2.30845
7.6639
7.19856
7.46757
7.40571
2.28559
2.33461
2.29926
2.3766
2.31483
2.45702
2.31527
2.37398
2.26406
2.38475
2.27235
2.45253
2.29956
2.4809
2.38909
2.42653
2.30242
2.41329
2.42037
2.33829
2.35726
2.28643
2.40496
2.28268
2.40317
2.43477
2.44869
2.43802
2.49219
2.47117
2.55151
2.52284
2.6482
2.61016
2.89481
2.69463
2.35358
2.35358
2.35358
)
;

boundaryField
{
    inlet
    {
        type            calculated;
        value           uniform 0;
    }
    outlet
    {
        type            calculated;
        value           uniform 0;
    }
    sideWall
    {
        type            empty;
    }
}


// ************************************************************************* //
