/*--------------------------------*- C++ -*----------------------------------*\
| =========                 |                                                 |
| \\      /  F ield         | foam-extend: Open Source CFD                    |
|  \\    /   O peration     | Version:     3.2                                |
|   \\  /    A nd           | Web:         http://www.foam-extend.org         |
|    \\/     M anipulation  | For copyright notice see file Copyright         |
\*---------------------------------------------------------------------------*/
FoamFile
{
    version     2.0;
    format      ascii;
    class       areaScalarField;
    location    "160";
    object      tauCSS2;
}
// * * * * * * * * * * * * * * * * * * * * * * * * * * * * * * * * * * * * * //

dimensions      [1 1 2 0 0 0 0];

internalField   nonuniform List<scalar> 
300
(
0.126764
0.126764
0.126764
0.126764
0.126764
0.126764
0.126764
0.126764
0.126764
0.126764
0.126764
0.126764
0.126764
0.126764
0.126764
0.126764
0.126764
0.126764
0.126764
0.126764
0.126764
0.126764
0.126764
0.126764
0.126764
0.126764
0.126764
0.126764
0.126764
0.126764
0.126764
0.126764
0.126764
0.126764
0.126764
0.126764
0.126764
0.126764
0.126764
0.126764
0.126764
0.126764
0.126764
0.126764
0.126764
0.126764
0.126764
0.126764
0.126764
0.126764
0.126764
0.126764
0.126764
0.126764
0.126764
0.126764
0.126764
0.126764
0.126764
0.126764
0.126764
0.126764
0.126764
0.126764
0.126764
0.126764
0.126764
0.126764
0.126764
0.126764
0.126764
0.126764
0.126764
0.126764
0.126764
0.126764
0.126764
0.126764
0.126764
0.126764
0.126764
0.126764
0.126764
0.126764
0.126764
0.126764
0.126764
0.126764
0.126764
0.126764
0.126764
0.126764
0.126764
0.126764
0.126764
0.126764
0.126764
0.126764
0.126764
0.108877
0.101351
0.112124
0.112547
0.115455
0.11636
0.117706
0.119034
0.119553
0.120477
0.352162
0.369277
0.371771
0.385096
0.387264
0.120683
0.121628
0.123602
0.124242
0.428663
0.442706
0.433449
0.450327
0.124185
0.129709
0.125753
0.122684
0.124693
0.122517
0.472505
0.461571
0.477548
0.464881
0.129045
0.126593
0.129614
0.461651
0.442392
0.467163
0.459729
0.470167
0.129711
0.127997
0.131164
0.449535
0.439474
0.431584
0.44257
0.129791
0.128272
0.130231
0.431154
0.427413
0.410168
0.410993
0.12795
0.128241
0.126338
0.408743
0.419986
0.426724
0.41833
0.127378
0.128192
0.124947
0.400735
0.399104
0.412013
0.128303
0.127036
0.129806
0.128086
0.412195
0.410483
0.401604
0.122419
0.123204
0.125588
0.126965
0.4213
0.416455
0.417863
0.406588
0.1238
0.124771
0.127036
0.128652
0.42186
0.416227
0.406745
0.42556
0.126465
0.128758
0.127708
0.420975
0.411642
0.395686
0.408823
0.12136
0.126246
0.12297
0.443944
0.429888
0.420865
0.424467
0.127061
0.131367
0.126377
0.407865
0.395302
0.418836
0.127115
0.128883
0.128582
0.128188
0.395742
0.386296
0.399428
0.388642
0.127311
0.12362
0.130637
0.122657
0.432043
0.424228
0.415252
0.131427
0.125634
0.132167
0.122606
0.41475
0.397421
0.418345
0.39514
0.127924
0.128851
0.126316
0.41059
0.395368
0.409509
0.123173
0.126795
0.120853
0.131518
0.390631
0.418221
0.395549
0.396173
0.12621
0.123914
0.125273
0.400833
0.429474
0.398035
0.13279
0.121802
0.132382
0.124333
0.412776
0.387713
0.402202
0.39887
0.123101
0.125741
0.123838
0.128003
0.124676
0.132335
0.1247
0.127862
0.121942
0.128442
0.122388
0.132093
0.123854
0.133621
0.128676
0.130692
0.124008
0.129979
0.130361
0.12594
0.126961
0.123147
0.129531
0.122945
0.129434
0.131136
0.131886
0.131311
0.134229
0.133097
0.137424
0.135879
0.142631
0.140583
0.155914
0.145133
0.126764
0.126764
0.126764
)
;

boundaryField
{
    inlet
    {
        type            calculated;
        value           uniform 0;
    }
    outlet
    {
        type            calculated;
        value           uniform 0;
    }
    sideWall
    {
        type            empty;
    }
}


// ************************************************************************* //
