/*--------------------------------*- C++ -*----------------------------------*\
| =========                 |                                                 |
| \\      /  F ield         | foam-extend: Open Source CFD                    |
|  \\    /   O peration     | Version:     3.2                                |
|   \\  /    A nd           | Web:         http://www.foam-extend.org         |
|    \\/     M anipulation  | For copyright notice see file Copyright         |
\*---------------------------------------------------------------------------*/
FoamFile
{
    version     2.0;
    format      ascii;
    class       areaScalarField;
    location    "160";
    object      Tb;
}
// * * * * * * * * * * * * * * * * * * * * * * * * * * * * * * * * * * * * * //

dimensions      [0 0 1 0 0 0 0];

internalField   nonuniform List<scalar> 
300
(
0.01
0.01
0.01
0.01
0.01
0.01
0.01
0.01
0.01
0.01
0.01
0.01
0.01
0.01
0.01
0.01
0.01
0.01
0.01
0.01
0.01
0.01
0.01
0.01
0.01
0.01
0.01
0.01
0.01
0.01
0.01
0.01
0.01
0.01
0.01
0.01
0.01
0.01
0.01
0.01
0.01
0.01
0.01
0.01
0.01
0.01
0.01
0.01
0.01
0.01
0.01
0.01
0.01
0.01
0.01
0.01
0.01
0.01
0.01
0.01
0.01
0.01
0.01
0.01
0.01
0.01
0.01
0.01
0.01
0.01
0.01
0.01
0.01
0.01
0.01
0.01
0.01
0.01
0.01
0.01
0.01
0.01
0.01
0.01
0.01
0.01
0.01
0.01
0.01
0.01
0.01
0.01
0.01
0.01
0.01
0.01
0.01
0.01
0.01
0.01
0.01
0.01
0.01
0.01
0.01
0.01
0.01
0.01
0.01
6.43
4.64
3.75
14.4
24.81
32.75
38.52
44.88
44.97
43.73
44.65
46.74
45.81
47.86
47.46
48.32
47.94
47.75
46.1
43.41
46.14
44.58
41.21
44.03
38.96
40.53
37.38
34.46
35.51
31.02
30.05
29.23
24.9
24.47
21.27
21.47
20.35
17.92
17.43
14.21
13.83
13.89
12.37
12.39
11.5
12.18
11.96
10.03
13.09
13.88
12.63
14.4
18.66
17.28
19.28
18.6
21.14
19.68
15.63
15.99
13.7
18.32
17.9
17.98
19.48
21.33
19.54
23.03
21.76
23.68
23.04
21.37
24.99
23.05
21.17
22.7
22.15
21.48
19.98
19.09
17.86
19.98
18.67
18.19
21.9
19.26
21.56
16.54
20.71
18.21
21.51
15.29
13.76
19.41
17.22
18.98
13.91
18.13
17.48
19.68
20.14
20.5
19.6
20.22
21.79
20.71
23.57
19.8
22
20.15
22.71
18.8
20.15
20
16.29
21.94
19.1
23.26
16.59
22.03
18.44
21.52
17.8
19.8
20.1
18.31
22.86
14.48
22.83
18.52
27.62
20.81
27.5
20.47
25.13
19.53
24.4
21.41
20.26
25.92
16.32
25.64
18.14
27.89
14.42
26.4
15.32
23.65
18.78
20.11
23.84
18.89
25.09
18.12
27.1
13.86
27.49
12.02
28.14
17.48
26.9
18.39
24.91
21.3
20.75
17.52
13.11
22.13
14.93
25.84
12.51
24.8
13.7
28.05
12.29
24.07
15.52
12.5
6.64
0.01
0.01
0.01
0.01
0.01
0.01
0.01
0.01
0.01
0.01
0.01
0.01
)
;

boundaryField
{
    inlet
    {
        type            calculated;
        value           uniform 0;
    }
    outlet
    {
        type            calculated;
        value           uniform 0;
    }
    sideWall
    {
        type            empty;
    }
}


// ************************************************************************* //
