/*--------------------------------*- C++ -*----------------------------------*\
| =========                 |                                                 |
| \\      /  F ield         | foam-extend: Open Source CFD                    |
|  \\    /   O peration     | Version:     3.2                                |
|   \\  /    A nd           | Web:         http://www.foam-extend.org         |
|    \\/     M anipulation  | For copyright notice see file Copyright         |
\*---------------------------------------------------------------------------*/
FoamFile
{
    version     2.0;
    format      ascii;
    class       areaScalarField;
    location    "160";
    object      thetaB;
}
// * * * * * * * * * * * * * * * * * * * * * * * * * * * * * * * * * * * * * //

dimensions      [0 0 0 0 0 0 0];

internalField   nonuniform List<scalar> 
300
(
0.990737
0.788995
0.547353
0.44946
0.412555
0.393202
0.379187
0.366923
0.355633
0.345388
0.336244
0.328069
0.320673
0.314075
0.308137
0.302739
0.297802
0.293245
0.289072
0.285266
0.281733
0.278413
0.275296
0.272369
0.269624
0.267025
0.26457
0.262234
0.260023
0.257926
0.255926
0.254019
0.25219
0.250444
0.248772
0.247173
0.245632
0.244153
0.242726
0.241352
0.240032
0.238754
0.237523
0.236329
0.235174
0.234057
0.232976
0.23193
0.23091
0.229926
0.228963
0.228034
0.227127
0.226249
0.225391
0.224559
0.223744
0.222955
0.222172
0.22142
0.220675
0.219963
0.219255
0.218582
0.217909
0.217273
0.216633
0.216034
0.215427
0.214865
0.214292
0.213768
0.213233
0.212751
0.212254
0.211819
0.211369
0.210986
0.210593
0.210277
0.209954
0.209719
0.209491
0.20936
0.209272
0.209266
0.209341
0.209543
0.209875
0.210355
0.211092
0.21199
0.213405
0.214977
0.217698
0.220612
0.226905
0.22968
0.263567
0.244096
0.126102
0.122919
0.129994
0.130201
0.1353
0.1348
0.13939
0.139457
0.143432
0.139585
0.149096
0.150229
0.150963
0.157496
0.147751
0.142351
0.142379
0.153288
0.143899
0.156243
0.149566
0.154917
0.152882
0.155678
0.173284
0.151149
0.155708
0.139838
0.149285
0.150928
0.153277
0.156515
0.157296
0.160892
0.158771
0.179337
0.151716
0.146375
0.152669
0.149075
0.165222
0.157709
0.167775
0.176
0.172825
0.160155
0.149836
0.164213
0.16377
0.169227
0.172543
0.17952
0.177906
0.158774
0.161492
0.170469
0.173082
0.15708
0.151766
0.165623
0.177485
0.172203
0.175966
0.174851
0.16394
0.155796
0.145492
0.158829
0.158484
0.164308
0.170865
0.168929
0.175046
0.178924
0.162896
0.151375
0.154027
0.154433
0.163788
0.163793
0.169177
0.171266
0.155688
0.150897
0.150677
0.162889
0.166506
0.174651
0.15209
0.153996
0.159141
0.159002
0.165993
0.166577
0.185185
0.162407
0.162951
0.14947
0.148947
0.143009
0.146795
0.169625
0.154301
0.165851
0.154514
0.170732
0.171527
0.173241
0.153707
0.153439
0.164485
0.160972
0.170951
0.170353
0.181681
0.156186
0.166689
0.142022
0.144186
0.141816
0.154545
0.155161
0.14286
0.167358
0.140008
0.16836
0.153365
0.172771
0.16174
0.156016
0.155361
0.156669
0.160737
0.144506
0.165774
0.148967
0.169075
0.153018
0.174509
0.163684
0.164696
0.140352
0.153726
0.15378
0.151299
0.169672
0.153037
0.162609
0.146257
0.157347
0.12571
0.160964
0.146416
0.164023
0.151695
0.150697
0.156657
0.154269
0.162168
0.147387
0.172995
0.153331
0.152025
0.141421
0.154735
0.138449
0.160425
0.159652
0.162543
0.143127
0.151729
0.1347
0.14901
0.145038
0.147078
0.161683
0.1637
0.155983
0.144513
0.169076
0.154661
0.160699
0.13923
0.148451
0.141001
0.128222
0.144822
0.152778
0.147318
0.157655
0.151416
0.165863
0.15549
0.18079
0.161643
0.222952
0.313599
0.244875
0.180241
0.164325
)
;

boundaryField
{
    inlet
    {
        type            calculated;
        value           uniform 0;
    }
    outlet
    {
        type            calculated;
        value           uniform 0;
    }
    sideWall
    {
        type            empty;
    }
}


// ************************************************************************* //
