/*--------------------------------*- C++ -*----------------------------------*\
| =========                 |                                                 |
| \\      /  F ield         | foam-extend: Open Source CFD                    |
|  \\    /   O peration     | Version:     3.2                                |
|   \\  /    A nd           | Web:         http://www.foam-extend.org         |
|    \\/     M anipulation  | For copyright notice see file Copyright         |
\*---------------------------------------------------------------------------*/
FoamFile
{
    version     2.0;
    format      ascii;
    class       areaScalarField;
    location    "160";
    object      thetaBinit;
}
// * * * * * * * * * * * * * * * * * * * * * * * * * * * * * * * * * * * * * //

dimensions      [0 0 0 0 0 0 0];

internalField   nonuniform List<scalar> 
300
(
0.990735
0.788995
0.547354
0.44946
0.412556
0.393203
0.379188
0.366923
0.355633
0.345388
0.336243
0.328069
0.320673
0.314075
0.308136
0.302739
0.297802
0.293245
0.289072
0.285266
0.281733
0.278413
0.275295
0.272368
0.269623
0.267024
0.264569
0.262234
0.260022
0.257926
0.255925
0.254018
0.252189
0.250443
0.248771
0.247172
0.245631
0.244152
0.242725
0.241351
0.240031
0.238752
0.237521
0.236326
0.235172
0.234054
0.232973
0.231925
0.230906
0.22992
0.228958
0.228025
0.227119
0.226237
0.225379
0.224541
0.223726
0.222928
0.222147
0.221384
0.220638
0.219912
0.219203
0.21851
0.217834
0.217174
0.216528
0.215896
0.215278
0.214674
0.214083
0.213505
0.212939
0.212385
0.211843
0.211313
0.210794
0.210287
0.209791
0.209306
0.208835
0.208372
0.207924
0.207487
0.207065
0.206655
0.206264
0.205886
0.205532
0.205198
0.204894
0.204627
0.204398
0.204249
0.204159
0.204198
0.204642
0.20473
0.209384
0.204542
0.187623
0.18857
0.19524
0.195827
0.196133
0.195978
0.195834
0.195543
0.195202
0.194975
0.194747
0.194358
0.193994
0.19367
0.193338
0.193018
0.192697
0.192383
0.19207
0.19176
0.191453
0.191148
0.190846
0.190548
0.190252
0.189957
0.189666
0.189376
0.18909
0.188806
0.188524
0.188246
0.187969
0.187693
0.187419
0.187148
0.186877
0.18661
0.186346
0.186084
0.185825
0.185568
0.185314
0.185064
0.184817
0.184574
0.184335
0.184099
0.183865
0.183633
0.183403
0.183173
0.182944
0.182717
0.182491
0.182267
0.182044
0.181822
0.181603
0.181385
0.181168
0.180953
0.18074
0.180528
0.180318
0.180109
0.179903
0.179697
0.179494
0.179292
0.179091
0.178893
0.178695
0.178499
0.178304
0.17811
0.177918
0.177727
0.177537
0.177348
0.177161
0.176975
0.176791
0.176608
0.176425
0.176244
0.176065
0.175887
0.17571
0.175534
0.175359
0.175185
0.175012
0.174841
0.17467
0.174502
0.174334
0.174167
0.174001
0.173836
0.173671
0.173508
0.173345
0.173183
0.173023
0.172863
0.172705
0.172547
0.17239
0.172234
0.172079
0.171925
0.171772
0.17162
0.171469
0.171319
0.17117
0.171021
0.170873
0.170725
0.170578
0.170432
0.170285
0.170141
0.169997
0.169853
0.169711
0.16957
0.169429
0.16929
0.169151
0.169012
0.168873
0.168735
0.168597
0.168461
0.168325
0.168191
0.168056
0.167922
0.167788
0.167656
0.167523
0.167392
0.167261
0.16713
0.167
0.166871
0.166742
0.166615
0.166487
0.166361
0.166234
0.166109
0.165984
0.16586
0.165736
0.165613
0.165489
0.165366
0.165244
0.165121
0.165001
0.16488
0.164761
0.164641
0.164524
0.164406
0.16429
0.164173
0.16406
0.163943
0.16383
0.163711
0.163598
0.163476
0.16336
0.163235
0.163115
0.162984
0.162858
0.162718
0.16258
0.16243
0.16228
0.162101
0.161818
0.161649
0.161398
0.161158
0.160789
0.160415
0.159824
0.159346
0.157267
0.159699
0.166591
0.166547
0.164014
0.163841
)
;

boundaryField
{
    inlet
    {
        type            calculated;
        value           uniform 0;
    }
    outlet
    {
        type            calculated;
        value           uniform 0;
    }
    sideWall
    {
        type            empty;
    }
}


// ************************************************************************* //
