/*--------------------------------*- C++ -*----------------------------------*\
| =========                 |                                                 |
| \\      /  F ield         | foam-extend: Open Source CFD                    |
|  \\    /   O peration     | Version:     3.2                                |
|   \\  /    A nd           | Web:         http://www.foam-extend.org         |
|    \\/     M anipulation  | For copyright notice see file Copyright         |
\*---------------------------------------------------------------------------*/
FoamFile
{
    version     2.0;
    format      ascii;
    class       areaScalarField;
    location    "160";
    object      thetaC2B;
}
// * * * * * * * * * * * * * * * * * * * * * * * * * * * * * * * * * * * * * //

dimensions      [0 0 0 0 0 0 0];

internalField   nonuniform List<scalar> 
300
(
0.0497301
0.0497301
0.0497301
0.0497301
0.0497301
0.0497301
0.0497301
0.0497301
0.0497301
0.0497301
0.0497301
0.0497301
0.0497301
0.0497301
0.0497301
0.0497301
0.0497301
0.0497301
0.0497301
0.0497301
0.0497301
0.0497301
0.0497301
0.0497301
0.0497301
0.0497301
0.0497301
0.0497301
0.0497301
0.0497301
0.0497301
0.0497301
0.0497301
0.0497301
0.0497301
0.0497301
0.0497301
0.0497301
0.0497301
0.0497301
0.0497301
0.0497301
0.0497301
0.0497301
0.0497301
0.0497301
0.0497301
0.0497301
0.0497301
0.0497301
0.0497301
0.0497301
0.0497301
0.0497301
0.0497301
0.0497301
0.0497301
0.0497301
0.0497301
0.0497301
0.0497301
0.0497301
0.0497301
0.0497301
0.0497301
0.0497301
0.0497301
0.0497301
0.0497301
0.0497301
0.0497301
0.0497301
0.0497301
0.0497301
0.0497301
0.0497301
0.0497301
0.0497301
0.0497301
0.0497301
0.0497301
0.0497301
0.0497301
0.0497301
0.0497301
0.0497301
0.0497301
0.0497301
0.0497301
0.0497301
0.0497301
0.0497301
0.0497301
0.0497301
0.0497301
0.0497301
0.0497301
0.0497301
0.0497301
0.0497301
0.0497301
0.0497301
0.0497301
0.0497301
0.0497301
0.0497301
0.0497301
0.0497301
0.0497301
0.145054
0.148526
0.151513
0.154331
0.156866
0.0497301
0.0497301
0.0497301
0.0497301
0.1724
0.173549
0.174834
0.17596
0.0497301
0.0497301
0.0497301
0.0497301
0.0497301
0.0497301
0.183704
0.184042
0.183912
0.183229
0.0497301
0.0497301
0.0497301
0.179095
0.180367
0.181789
0.18177
0.181302
0.0497301
0.0497301
0.0497301
0.172872
0.171686
0.172327
0.172996
0.0497301
0.0497301
0.0497301
0.165636
0.163295
0.162443
0.163597
0.0497301
0.0497301
0.0497301
0.163512
0.164311
0.162796
0.160235
0.0497301
0.0497301
0.0497301
0.159599
0.16191
0.164276
0.0497301
0.0497301
0.0497301
0.0497301
0.159698
0.158221
0.157268
0.0497301
0.0497301
0.0497301
0.0497301
0.163361
0.162541
0.161584
0.161465
0.0497301
0.0497301
0.0497301
0.0497301
0.163608
0.162944
0.164202
0.164983
0.0497301
0.0497301
0.0497301
0.161175
0.159306
0.160107
0.162081
0.0497301
0.0497301
0.0497301
0.16825
0.165652
0.164632
0.163632
0.0497301
0.0497301
0.0497301
0.158974
0.160198
0.160616
0.0497301
0.0497301
0.0497301
0.0497301
0.155046
0.15651
0.158625
0.162045
0.0497301
0.0497301
0.0497301
0.0497301
0.165951
0.164273
0.163942
0.0497301
0.0497301
0.0497301
0.0497301
0.15953
0.159706
0.159412
0.159255
0.0497301
0.0497301
0.0497301
0.15718
0.156359
0.154948
0.0497301
0.0497301
0.0497301
0.0497301
0.158165
0.15768
0.155931
0.156499
0.0497301
0.0497301
0.0497301
0.161966
0.161136
0.160087
0.0497301
0.0497301
0.0497301
0.0497301
0.156045
0.155147
0.155324
0.153658
0.0497301
0.0497301
0.0497301
0.0497301
0.0497301
0.0497301
0.0497301
0.0497301
0.0497301
0.0497301
0.0497301
0.0497301
0.0497301
0.0497301
0.0497301
0.0497301
0.0497301
0.0497301
0.0497301
0.0497301
0.0497301
0.0497301
0.0497301
0.0497301
0.0497301
0.0497301
0.0497301
0.0497301
0.0497301
0.0497301
0.0497301
0.0497301
0.0497301
0.0497301
0.0497301
0.0497301
0.0497301
0.0497301
0.0497301
)
;

boundaryField
{
    inlet
    {
        type            calculated;
        value           uniform 0;
    }
    outlet
    {
        type            calculated;
        value           uniform 0;
    }
    sideWall
    {
        type            empty;
    }
}


// ************************************************************************* //
