/*--------------------------------*- C++ -*----------------------------------*\
| =========                 |                                                 |
| \\      /  F ield         | foam-extend: Open Source CFD                    |
|  \\    /   O peration     | Version:     3.2                                |
|   \\  /    A nd           | Web:         http://www.foam-extend.org         |
|    \\/     M anipulation  | For copyright notice see file Copyright         |
\*---------------------------------------------------------------------------*/
FoamFile
{
    version     2.0;
    format      ascii;
    class       areaScalarField;
    location    "160";
    object      thetaSS2;
}
// * * * * * * * * * * * * * * * * * * * * * * * * * * * * * * * * * * * * * //

dimensions      [0 0 0 0 0 0 0];

internalField   nonuniform List<scalar> 
300
(
13.5109
10.7597
7.46436
6.12937
5.6261
5.36217
5.17105
5.0038
4.84983
4.71012
4.58542
4.47394
4.37308
4.2831
4.20212
4.12851
4.06119
3.99904
3.94213
3.89023
3.84205
3.79677
3.75426
3.71434
3.67691
3.64147
3.60799
3.57614
3.54598
3.51739
3.49011
3.4641
3.43916
3.41536
3.39255
3.37075
3.34973
3.32956
3.3101
3.29136
3.27336
3.25593
3.23914
3.22286
3.20711
3.19189
3.17714
3.16288
3.14897
3.13555
3.12241
3.10975
3.09737
3.08541
3.0737
3.06235
3.05124
3.04048
3.0298
3.01955
3.00939
2.99968
2.99002
2.98084
2.97166
2.96299
2.95427
2.9461
2.93782
2.93015
2.92235
2.9152
2.9079
2.90133
2.89455
2.88861
2.88247
2.87726
2.8719
2.86758
2.86318
2.85998
2.85687
2.85508
2.85388
2.8538
2.85482
2.85758
2.86211
2.86865
2.8787
2.89095
2.91024
2.93168
2.96879
3.00853
3.09435
3.13219
3.59431
3.32878
1.71968
1.67627
1.77275
1.77558
1.84511
1.83829
1.90089
1.9018
1.95601
1.90354
2.03325
2.0487
2.05871
2.1478
2.01491
1.94127
1.94165
2.09041
1.96238
2.13072
2.03966
2.11263
2.08489
2.12301
2.36311
2.06124
2.12342
1.90699
2.03583
2.05823
2.09027
2.13442
2.14507
2.19411
2.16519
2.44566
2.06897
1.99614
2.08198
2.03296
2.25316
2.15071
2.28798
2.40015
2.35684
2.18406
2.04334
2.2394
2.23337
2.30778
2.353
2.44814
2.42614
2.16523
2.20229
2.32471
2.36036
2.14214
2.06966
2.25863
2.4204
2.34837
2.39969
2.38448
2.23568
2.12463
1.9841
2.16598
2.16127
2.2407
2.33011
2.30372
2.38714
2.44002
2.22144
2.06433
2.1005
2.10603
2.23361
2.23368
2.3071
2.33559
2.12315
2.05781
2.05481
2.22135
2.27067
2.38175
2.07408
2.10007
2.17024
2.16833
2.26368
2.27164
2.5254
2.21478
2.2222
2.03835
2.03122
1.95025
2.00187
2.3132
2.10423
2.26174
2.10714
2.32831
2.33914
2.36252
2.09614
2.09247
2.24311
2.19521
2.3313
2.32313
2.47761
2.12994
2.27317
1.93678
1.96629
1.93397
2.10756
2.11597
1.94821
2.28229
1.90931
2.29595
2.09147
2.35611
2.20568
2.12761
2.11868
2.13653
2.192
1.97066
2.2607
2.03149
2.30571
2.08674
2.37981
2.23219
2.24599
1.91401
2.09639
2.09713
2.0633
2.31385
2.08699
2.21753
1.99453
2.14577
1.71433
2.1951
1.9967
2.23681
2.06869
2.05508
2.13636
2.10379
2.21152
2.00994
2.35917
2.09101
2.07319
1.92858
2.11015
1.88805
2.18774
2.1772
2.21663
1.95185
2.06915
1.83694
2.03208
1.97791
2.00574
2.2049
2.23241
2.12718
1.97075
2.30572
2.10914
2.19148
1.89871
2.02445
1.92286
1.74858
1.97496
2.08346
2.009
2.14997
2.06489
2.26191
2.12045
2.46547
2.20435
3.04044
4.27661
3.33941
2.45799
2.24093
)
;

boundaryField
{
    inlet
    {
        type            calculated;
        value           uniform 0;
    }
    outlet
    {
        type            calculated;
        value           uniform 0;
    }
    sideWall
    {
        type            empty;
    }
}


// ************************************************************************* //
