/*--------------------------------*- C++ -*----------------------------------*\
| =========                 |                                                 |
| \\      /  F ield         | foam-extend: Open Source CFD                    |
|  \\    /   O peration     | Version:     3.2                                |
|   \\  /    A nd           | Web:         http://www.foam-extend.org         |
|    \\/     M anipulation  | For copyright notice see file Copyright         |
\*---------------------------------------------------------------------------*/
FoamFile
{
    version     2.0;
    format      ascii;
    class       areaScalarField;
    location    "160";
    object      thetaC2SS2;
}
// * * * * * * * * * * * * * * * * * * * * * * * * * * * * * * * * * * * * * //

dimensions      [0 0 0 0 0 0 0];

internalField   nonuniform List<scalar> 
300
(
0.032144
0.032144
0.032144
0.032144
0.032144
0.032144
0.032144
0.032144
0.032144
0.032144
0.032144
0.032144
0.032144
0.032144
0.032144
0.032144
0.032144
0.032144
0.032144
0.032144
0.032144
0.032144
0.032144
0.032144
0.032144
0.032144
0.032144
0.032144
0.032144
0.032144
0.032144
0.032144
0.032144
0.032144
0.032144
0.032144
0.032144
0.032144
0.032144
0.032144
0.032144
0.032144
0.032144
0.032144
0.032144
0.032144
0.032144
0.032144
0.032144
0.032144
0.032144
0.032144
0.032144
0.032144
0.032144
0.032144
0.032144
0.032144
0.032144
0.032144
0.032144
0.032144
0.032144
0.032144
0.032144
0.032144
0.032144
0.032144
0.032144
0.032144
0.032144
0.032144
0.032144
0.032144
0.032144
0.032144
0.032144
0.032144
0.032144
0.032144
0.032144
0.032144
0.032144
0.032144
0.032144
0.032144
0.032144
0.032144
0.032144
0.032144
0.032144
0.032144
0.032144
0.032144
0.032144
0.032144
0.032144
0.032144
0.032144
0.032144
0.032144
0.032144
0.032144
0.032144
0.032144
0.032144
0.032144
0.032144
0.032144
0.0937584
0.0960026
0.0979332
0.0997544
0.101393
0.032144
0.032144
0.032144
0.032144
0.111434
0.112176
0.113007
0.113735
0.032144
0.032144
0.032144
0.032144
0.032144
0.032144
0.11874
0.118959
0.118875
0.118434
0.032144
0.032144
0.032144
0.115762
0.116583
0.117503
0.11749
0.117188
0.032144
0.032144
0.032144
0.111739
0.110972
0.111387
0.111819
0.032144
0.032144
0.032144
0.107062
0.105549
0.104998
0.105744
0.032144
0.032144
0.032144
0.105689
0.106206
0.105226
0.103571
0.032144
0.032144
0.032144
0.10316
0.104654
0.106182
0.032144
0.032144
0.032144
0.032144
0.103224
0.102269
0.101653
0.032144
0.032144
0.032144
0.032144
0.105591
0.105061
0.104443
0.104366
0.032144
0.032144
0.032144
0.032144
0.105751
0.105322
0.106135
0.10664
0.032144
0.032144
0.032144
0.104178
0.10297
0.103488
0.104764
0.032144
0.032144
0.032144
0.108751
0.107072
0.106413
0.105766
0.032144
0.032144
0.032144
0.102756
0.103547
0.103817
0.032144
0.032144
0.032144
0.032144
0.100217
0.101163
0.10253
0.104741
0.032144
0.032144
0.032144
0.032144
0.107265
0.106181
0.105967
0.032144
0.032144
0.032144
0.032144
0.103115
0.103229
0.103039
0.102937
0.032144
0.032144
0.032144
0.101596
0.101066
0.100153
0.032144
0.032144
0.032144
0.032144
0.102232
0.101919
0.100789
0.101156
0.032144
0.032144
0.032144
0.10469
0.104153
0.103475
0.032144
0.032144
0.032144
0.032144
0.100862
0.100282
0.100396
0.0993199
0.032144
0.032144
0.032144
0.032144
0.032144
0.032144
0.032144
0.032144
0.032144
0.032144
0.032144
0.032144
0.032144
0.032144
0.032144
0.032144
0.032144
0.032144
0.032144
0.032144
0.032144
0.032144
0.032144
0.032144
0.032144
0.032144
0.032144
0.032144
0.032144
0.032144
0.032144
0.032144
0.032144
0.032144
0.032144
0.032144
0.032144
0.032144
0.032144
)
;

boundaryField
{
    inlet
    {
        type            calculated;
        value           uniform 0;
    }
    outlet
    {
        type            calculated;
        value           uniform 0;
    }
    sideWall
    {
        type            empty;
    }
}


// ************************************************************************* //
