/*--------------------------------*- C++ -*----------------------------------*\
| =========                 |                                                 |
| \\      /  F ield         | foam-extend: Open Source CFD                    |
|  \\    /   O peration     | Version:     3.2                                |
|   \\  /    A nd           | Web:         http://www.foam-extend.org         |
|    \\/     M anipulation  | For copyright notice see file Copyright         |
\*---------------------------------------------------------------------------*/
FoamFile
{
    version     2.0;
    format      ascii;
    class       areaScalarField;
    location    "160";
    object      thetaSS1init;
}
// * * * * * * * * * * * * * * * * * * * * * * * * * * * * * * * * * * * * * //

dimensions      [0 0 0 0 0 0 0];

internalField   nonuniform List<scalar> 
300
(
27.0486
21.5408
14.9436
12.271
11.2634
10.7351
10.3524
10.0176
9.70933
9.42962
9.17996
8.95678
8.75486
8.57472
8.41259
8.26524
8.13045
8.00603
7.89212
7.7882
7.69175
7.6011
7.51599
7.43607
7.36112
7.29017
7.22314
7.15939
7.09901
7.04177
6.98716
6.93508
6.88516
6.83749
6.79183
6.74818
6.70611
6.66571
6.62677
6.58924
6.55321
6.5183
6.48469
6.45205
6.42056
6.39003
6.36053
6.33192
6.3041
6.27716
6.2509
6.22544
6.2007
6.17662
6.15319
6.13032
6.10808
6.08629
6.06495
6.04412
6.02377
6.00395
5.98458
5.96566
5.94719
5.92917
5.91155
5.8943
5.87743
5.86093
5.8448
5.82901
5.81357
5.79844
5.78363
5.76918
5.75501
5.74116
5.72763
5.71439
5.70151
5.68889
5.67665
5.66472
5.65319
5.642
5.63134
5.62099
5.61135
5.60222
5.59392
5.58664
5.58038
5.57631
5.57386
5.57491
5.58705
5.58943
5.71651
5.58431
5.12239
5.14826
5.33035
5.34638
5.35472
5.35049
5.34657
5.33863
5.3293
5.32312
5.31691
5.30627
5.29633
5.28748
5.27842
5.26969
5.26094
5.25235
5.2438
5.23533
5.22697
5.21863
5.21039
5.20225
5.19417
5.18612
5.17816
5.17026
5.16245
5.15469
5.14699
5.1394
5.13183
5.12432
5.11684
5.10943
5.10203
5.09474
5.08753
5.08037
5.0733
5.06629
5.05936
5.05254
5.0458
5.03916
5.03263
5.02617
5.0198
5.01347
5.00718
5.0009
4.99466
4.98846
4.9823
4.97617
4.97008
4.96403
4.95804
4.95209
4.94616
4.9403
4.93447
4.92869
4.92295
4.91727
4.91162
4.90601
4.90046
4.89495
4.88947
4.88405
4.87865
4.87329
4.86797
4.86267
4.85744
4.85222
4.84704
4.84188
4.83678
4.83169
4.82666
4.82166
4.81668
4.81174
4.80684
4.80199
4.79715
4.79234
4.78757
4.78282
4.77811
4.77342
4.76877
4.76416
4.75958
4.75502
4.75049
4.74598
4.74149
4.73703
4.73258
4.72817
4.72379
4.71943
4.71511
4.7108
4.70651
4.70226
4.69801
4.69381
4.68963
4.68548
4.68137
4.67727
4.67319
4.66913
4.6651
4.66107
4.65705
4.65305
4.64905
4.64511
4.64117
4.63726
4.63336
4.62951
4.62567
4.62187
4.61807
4.61428
4.61049
4.60672
4.60296
4.59925
4.59554
4.59186
4.58818
4.58454
4.58088
4.57727
4.57365
4.57006
4.56648
4.56291
4.55936
4.55584
4.55233
4.54884
4.54535
4.5419
4.53845
4.53504
4.53163
4.52824
4.52486
4.52148
4.51811
4.51475
4.51141
4.50807
4.50478
4.50147
4.49822
4.49495
4.49175
4.48853
4.48538
4.48218
4.47909
4.4759
4.47282
4.46957
4.46647
4.46315
4.45998
4.45657
4.4533
4.44972
4.44627
4.44246
4.43867
4.43458
4.4305
4.42561
4.41789
4.41326
4.40641
4.39985
4.38978
4.37958
4.36345
4.35039
4.29363
4.36004
4.54819
4.547
4.47783
4.47311
)
;

boundaryField
{
    inlet
    {
        type            calculated;
        value           uniform 0;
    }
    outlet
    {
        type            calculated;
        value           uniform 0;
    }
    sideWall
    {
        type            empty;
    }
}


// ************************************************************************* //
