/*--------------------------------*- C++ -*----------------------------------*\
| =========                 |                                                 |
| \\      /  F ield         | foam-extend: Open Source CFD                    |
|  \\    /   O peration     | Version:     3.2                                |
|   \\  /    A nd           | Web:         http://www.foam-extend.org         |
|    \\/     M anipulation  | For copyright notice see file Copyright         |
\*---------------------------------------------------------------------------*/
FoamFile
{
    version     2.0;
    format      ascii;
    class       areaScalarField;
    location    "160";
    object      thetaCB;
}
// * * * * * * * * * * * * * * * * * * * * * * * * * * * * * * * * * * * * * //

dimensions      [0 0 0 0 0 0 0];

internalField   nonuniform List<scalar> 
300
(
0.0497301
0.0497301
0.0497301
0.0497301
0.0497301
0.0497301
0.0497301
0.0497301
0.0497301
0.0497301
0.0497301
0.0497301
0.0497301
0.0497301
0.0497301
0.0497301
0.0497301
0.0497301
0.0497301
0.0497301
0.0497301
0.0497301
0.0497301
0.0497301
0.0497301
0.0497301
0.0497301
0.0497301
0.0497301
0.0497301
0.0497301
0.0497301
0.0497301
0.0497301
0.0497301
0.0497301
0.0497301
0.0497301
0.0497301
0.0497301
0.0497301
0.0497301
0.0497301
0.0497301
0.0497301
0.0497301
0.0497301
0.0497301
0.0497301
0.0497301
0.0497301
0.0497301
0.0497301
0.0497301
0.0497301
0.0497301
0.0497301
0.0497301
0.0497301
0.0497301
0.0497301
0.0497301
0.0497301
0.0497301
0.0497301
0.0497301
0.0497301
0.0497301
0.0497301
0.0497301
0.0497301
0.0497301
0.0497301
0.0497301
0.0497301
0.0497301
0.0497301
0.0497301
0.0497301
0.0497301
0.0497301
0.0497301
0.0497301
0.0497301
0.0497301
0.0497301
0.0497301
0.0497301
0.0497301
0.0497301
0.0497301
0.0497301
0.0497301
0.0497301
0.0497301
0.0497301
0.0497301
0.0497301
0.0497301
0.042713
0.0397606
0.0439871
0.0441527
0.0452938
0.0456487
0.0461767
0.0466978
0.0469012
0.0472637
0.138155
0.14487
0.145848
0.151076
0.151926
0.0473449
0.0477156
0.0484897
0.0487407
0.168167
0.173676
0.170045
0.176666
0.0487183
0.0508856
0.0493335
0.0481296
0.0489177
0.048064
0.185367
0.181077
0.187345
0.182376
0.0506252
0.049663
0.0508485
0.181109
0.173553
0.183271
0.180355
0.184449
0.0508863
0.050214
0.0514566
0.176355
0.172408
0.169313
0.173623
0.0509176
0.0503217
0.0510906
0.169144
0.167677
0.160912
0.161235
0.0501956
0.0503096
0.049563
0.160352
0.164763
0.167407
0.164114
0.049971
0.0502904
0.0490174
0.157211
0.156571
0.161635
0.050334
0.0498368
0.0509237
0.050249
0.161707
0.161035
0.157552
0.0480256
0.0483338
0.0492691
0.0498093
0.165279
0.163378
0.16393
0.159507
0.0485674
0.0489485
0.0498369
0.0504708
0.165498
0.163288
0.159569
0.16695
0.049613
0.0505124
0.0501004
0.165151
0.16149
0.15523
0.160384
0.0476101
0.0495271
0.048242
0.174162
0.168648
0.165108
0.166521
0.0498468
0.051536
0.0495786
0.160008
0.155079
0.164312
0.049868
0.0505617
0.0504433
0.0502891
0.155252
0.151546
0.156698
0.152467
0.0499447
0.0484968
0.0512498
0.0481189
0.169493
0.166427
0.162906
0.0515594
0.0492871
0.05185
0.0480989
0.162709
0.155911
0.164119
0.155016
0.0501852
0.050549
0.0495547
0.161077
0.155105
0.160653
0.0483216
0.0497424
0.0474115
0.0515954
0.153247
0.16407
0.155176
0.155421
0.0495128
0.0486124
0.0491455
0.157249
0.168485
0.156152
0.0520943
0.0477837
0.0519345
0.0487764
0.161935
0.152102
0.157786
0.156479
0.0482934
0.0493291
0.0485824
0.0502164
0.0489112
0.0519156
0.0489207
0.050161
0.0478386
0.0503887
0.0480137
0.0518209
0.0485887
0.0524202
0.0504804
0.0512714
0.0486491
0.0509916
0.0511413
0.049407
0.0498078
0.0483111
0.0508156
0.0482319
0.0507778
0.0514456
0.0517397
0.0515142
0.0526589
0.0522147
0.0539122
0.0533063
0.0559551
0.0551515
0.0611659
0.0569364
0.0497301
0.0497301
0.0497301
)
;

boundaryField
{
    inlet
    {
        type            calculated;
        value           uniform 0;
    }
    outlet
    {
        type            calculated;
        value           uniform 0;
    }
    sideWall
    {
        type            empty;
    }
}


// ************************************************************************* //
