/*--------------------------------*- C++ -*----------------------------------*\
| =========                 |                                                 |
| \\      /  F ield         | foam-extend: Open Source CFD                    |
|  \\    /   O peration     | Version:     3.2                                |
|   \\  /    A nd           | Web:         http://www.foam-extend.org         |
|    \\/     M anipulation  | For copyright notice see file Copyright         |
\*---------------------------------------------------------------------------*/
FoamFile
{
    version     2.0;
    format      ascii;
    class       areaScalarField;
    location    "160";
    object      thetaCSS2;
}
// * * * * * * * * * * * * * * * * * * * * * * * * * * * * * * * * * * * * * //

dimensions      [0 0 0 0 0 0 0];

internalField   nonuniform List<scalar> 
300
(
0.032144
0.032144
0.032144
0.032144
0.032144
0.032144
0.032144
0.032144
0.032144
0.032144
0.032144
0.032144
0.032144
0.032144
0.032144
0.032144
0.032144
0.032144
0.032144
0.032144
0.032144
0.032144
0.032144
0.032144
0.032144
0.032144
0.032144
0.032144
0.032144
0.032144
0.032144
0.032144
0.032144
0.032144
0.032144
0.032144
0.032144
0.032144
0.032144
0.032144
0.032144
0.032144
0.032144
0.032144
0.032144
0.032144
0.032144
0.032144
0.032144
0.032144
0.032144
0.032144
0.032144
0.032144
0.032144
0.032144
0.032144
0.032144
0.032144
0.032144
0.032144
0.032144
0.032144
0.032144
0.032144
0.032144
0.032144
0.032144
0.032144
0.032144
0.032144
0.032144
0.032144
0.032144
0.032144
0.032144
0.032144
0.032144
0.032144
0.032144
0.032144
0.032144
0.032144
0.032144
0.032144
0.032144
0.032144
0.032144
0.032144
0.032144
0.032144
0.032144
0.032144
0.032144
0.032144
0.032144
0.032144
0.032144
0.032144
0.0276083
0.0257
0.0284318
0.0285389
0.0292765
0.0295059
0.0298471
0.0301839
0.0303154
0.0305498
0.0892992
0.0936392
0.0942716
0.0976504
0.0982003
0.0306022
0.0308418
0.0313422
0.0315045
0.108698
0.112259
0.109911
0.114191
0.03149
0.0328908
0.0318876
0.0311094
0.0316189
0.0310671
0.119815
0.117043
0.121094
0.117882
0.0327225
0.0321006
0.0328669
0.117063
0.112179
0.11846
0.116575
0.119222
0.0328913
0.0324567
0.0332599
0.113991
0.111439
0.109438
0.112224
0.0329115
0.0325263
0.0330233
0.10933
0.108381
0.104008
0.104217
0.0324448
0.0325185
0.0320359
0.103647
0.106498
0.108206
0.106078
0.0322997
0.0325061
0.0316833
0.101616
0.101202
0.104476
0.0325343
0.0322129
0.0329154
0.0324793
0.104522
0.104088
0.101836
0.0310422
0.0312414
0.031846
0.0321951
0.106831
0.105602
0.105959
0.1031
0.0313924
0.0316388
0.032213
0.0326227
0.106973
0.105544
0.10314
0.107911
0.0320683
0.0326496
0.0323833
0.106748
0.104382
0.100336
0.103667
0.0307736
0.0320127
0.0311821
0.112573
0.109008
0.10672
0.107634
0.0322194
0.0333112
0.032046
0.103424
0.100238
0.106206
0.0322331
0.0326815
0.032605
0.0325053
0.10035
0.0979547
0.101285
0.0985497
0.0322827
0.0313468
0.0331262
0.0311025
0.109555
0.107573
0.105297
0.0333264
0.0318576
0.0335142
0.0310896
0.10517
0.100776
0.106081
0.100197
0.0324381
0.0326733
0.0320306
0.104115
0.100255
0.103841
0.0312336
0.0321519
0.0306453
0.0333496
0.0990539
0.10605
0.100301
0.100459
0.0320035
0.0314215
0.0317661
0.101641
0.108904
0.100931
0.0336721
0.0308859
0.0335688
0.0315275
0.104669
0.0983141
0.101988
0.101143
0.0312153
0.0318848
0.0314021
0.0324583
0.0316147
0.0335566
0.0316208
0.0324225
0.0309213
0.0325696
0.0310345
0.0334954
0.0314062
0.0338828
0.0326289
0.0331402
0.0314452
0.0329593
0.0330561
0.0319351
0.0321941
0.0312268
0.0328456
0.0311756
0.0328212
0.0332528
0.0334429
0.0332972
0.034037
0.0337499
0.0348471
0.0344555
0.0361676
0.0356481
0.0395357
0.0368018
0.032144
0.032144
0.032144
)
;

boundaryField
{
    inlet
    {
        type            calculated;
        value           uniform 0;
    }
    outlet
    {
        type            calculated;
        value           uniform 0;
    }
    sideWall
    {
        type            empty;
    }
}


// ************************************************************************* //
