/*--------------------------------*- C++ -*----------------------------------*\
| =========                 |                                                 |
| \\      /  F ield         | foam-extend: Open Source CFD                    |
|  \\    /   O peration     | Version:     3.2                                |
|   \\  /    A nd           | Web:         http://www.foam-extend.org         |
|    \\/     M anipulation  | For copyright notice see file Copyright         |
\*---------------------------------------------------------------------------*/
FoamFile
{
    version     2.0;
    format      ascii;
    class       areaScalarField;
    location    "160";
    object      thetaC2SS1;
}
// * * * * * * * * * * * * * * * * * * * * * * * * * * * * * * * * * * * * * //

dimensions      [0 0 0 0 0 0 0];

internalField   nonuniform List<scalar> 
300
(
0.0551061
0.0551061
0.0551061
0.0551061
0.0551061
0.0551061
0.0551061
0.0551061
0.0551061
0.0551061
0.0551061
0.0551061
0.0551061
0.0551061
0.0551061
0.0551061
0.0551061
0.0551061
0.0551061
0.0551061
0.0551061
0.0551061
0.0551061
0.0551061
0.0551061
0.0551061
0.0551061
0.0551061
0.0551061
0.0551061
0.0551061
0.0551061
0.0551061
0.0551061
0.0551061
0.0551061
0.0551061
0.0551061
0.0551061
0.0551061
0.0551061
0.0551061
0.0551061
0.0551061
0.0551061
0.0551061
0.0551061
0.0551061
0.0551061
0.0551061
0.0551061
0.0551061
0.0551061
0.0551061
0.0551061
0.0551061
0.0551061
0.0551061
0.0551061
0.0551061
0.0551061
0.0551061
0.0551061
0.0551061
0.0551061
0.0551061
0.0551061
0.0551061
0.0551061
0.0551061
0.0551061
0.0551061
0.0551061
0.0551061
0.0551061
0.0551061
0.0551061
0.0551061
0.0551061
0.0551061
0.0551061
0.0551061
0.0551061
0.0551061
0.0551061
0.0551061
0.0551061
0.0551061
0.0551061
0.0551061
0.0551061
0.0551061
0.0551061
0.0551061
0.0551061
0.0551061
0.0551061
0.0551061
0.0551061
0.0551061
0.0551061
0.0551061
0.0551061
0.0551061
0.0551061
0.0551061
0.0551061
0.0551061
0.0551061
0.160735
0.164582
0.167892
0.171014
0.173824
0.0551061
0.0551061
0.0551061
0.0551061
0.191037
0.19231
0.193734
0.194981
0.0551061
0.0551061
0.0551061
0.0551061
0.0551061
0.0551061
0.203562
0.203938
0.203794
0.203037
0.0551061
0.0551061
0.0551061
0.198456
0.199865
0.201441
0.20142
0.200901
0.0551061
0.0551061
0.0551061
0.191559
0.190246
0.190956
0.191698
0.0551061
0.0551061
0.0551061
0.183541
0.180948
0.180003
0.181282
0.0551061
0.0551061
0.0551061
0.181188
0.182074
0.180395
0.177557
0.0551061
0.0551061
0.0551061
0.176852
0.179413
0.182034
0.0551061
0.0551061
0.0551061
0.0551061
0.176962
0.175325
0.174269
0.0551061
0.0551061
0.0551061
0.0551061
0.181021
0.180112
0.179052
0.17892
0.0551061
0.0551061
0.0551061
0.0551061
0.181295
0.180559
0.181953
0.182818
0.0551061
0.0551061
0.0551061
0.178598
0.176527
0.177415
0.179603
0.0551061
0.0551061
0.0551061
0.186438
0.18356
0.182429
0.181321
0.0551061
0.0551061
0.0551061
0.17616
0.177516
0.177979
0.0551061
0.0551061
0.0551061
0.0551061
0.171807
0.173429
0.175773
0.179563
0.0551061
0.0551061
0.0551061
0.0551061
0.18389
0.182032
0.181664
0.0551061
0.0551061
0.0551061
0.0551061
0.176776
0.176971
0.176645
0.176471
0.0551061
0.0551061
0.0551061
0.174171
0.173262
0.171698
0.0551061
0.0551061
0.0551061
0.0551061
0.175262
0.174725
0.172787
0.173417
0.0551061
0.0551061
0.0551061
0.179475
0.178555
0.177393
0.0551061
0.0551061
0.0551061
0.0551061
0.172914
0.171919
0.172114
0.170269
0.0551061
0.0551061
0.0551061
0.0551061
0.0551061
0.0551061
0.0551061
0.0551061
0.0551061
0.0551061
0.0551061
0.0551061
0.0551061
0.0551061
0.0551061
0.0551061
0.0551061
0.0551061
0.0551061
0.0551061
0.0551061
0.0551061
0.0551061
0.0551061
0.0551061
0.0551061
0.0551061
0.0551061
0.0551061
0.0551061
0.0551061
0.0551061
0.0551061
0.0551061
0.0551061
0.0551061
0.0551061
0.0551061
0.0551061
)
;

boundaryField
{
    inlet
    {
        type            calculated;
        value           uniform 0;
    }
    outlet
    {
        type            calculated;
        value           uniform 0;
    }
    sideWall
    {
        type            empty;
    }
}


// ************************************************************************* //
