/*--------------------------------*- C++ -*----------------------------------*\
| =========                 |                                                 |
| \\      /  F ield         | foam-extend: Open Source CFD                    |
|  \\    /   O peration     | Version:     3.2                                |
|   \\  /    A nd           | Web:         http://www.foam-extend.org         |
|    \\/     M anipulation  | For copyright notice see file Copyright         |
\*---------------------------------------------------------------------------*/
FoamFile
{
    version     2.0;
    format      ascii;
    class       areaScalarField;
    location    "160";
    object      thetaSS1;
}
// * * * * * * * * * * * * * * * * * * * * * * * * * * * * * * * * * * * * * //

dimensions      [0 0 0 0 0 0 0];

internalField   nonuniform List<scalar> 
300
(
27.0487
21.5408
14.9436
12.271
11.2634
10.735
10.3524
10.0176
9.70933
9.42963
9.17997
8.95678
8.75487
8.57472
8.41261
8.26524
8.13046
8.00604
7.89212
7.78822
7.69175
7.60111
7.516
7.43608
7.36115
7.2902
7.22317
7.1594
7.09903
7.04179
6.98717
6.9351
6.88518
6.83752
6.79186
6.74821
6.70613
6.66576
6.6268
6.58929
6.55324
6.51835
6.48473
6.45214
6.42061
6.39013
6.3606
6.33205
6.30421
6.27734
6.25105
6.22569
6.20091
6.17696
6.15351
6.13081
6.10856
6.08703
6.06564
6.04512
6.02477
6.00534
5.986
5.96761
5.94924
5.93189
5.91443
5.89807
5.8815
5.86614
5.85051
5.83621
5.82159
5.80843
5.79487
5.78298
5.77069
5.76025
5.74951
5.74088
5.73206
5.72566
5.71944
5.71585
5.71345
5.71329
5.71533
5.72084
5.72992
5.74302
5.76314
5.78767
5.82627
5.8692
5.9435
6.02306
6.19487
6.27062
7.19577
6.66419
3.44279
3.35588
3.54902
3.55469
3.6939
3.68024
3.80556
3.80739
3.91592
3.81087
4.07056
4.10148
4.12152
4.29988
4.03384
3.88641
3.88717
4.18499
3.92866
4.26568
4.08338
4.22947
4.17393
4.25025
4.73093
4.12659
4.25107
3.81779
4.07572
4.12056
4.1847
4.2731
4.29442
4.3926
4.33469
4.89618
4.14207
3.99626
4.1681
4.06998
4.51081
4.30571
4.58052
4.80508
4.71838
4.37247
4.09075
4.48326
4.47118
4.62016
4.71068
4.90116
4.85712
4.33478
4.40898
4.65406
4.72541
4.28854
4.14344
4.52177
4.84562
4.70142
4.80416
4.77371
4.47581
4.25348
3.97216
4.33627
4.32685
4.48586
4.66487
4.61203
4.77903
4.8849
4.44731
4.13278
4.20518
4.21626
4.47167
4.47181
4.6188
4.67582
4.25053
4.11971
4.11371
4.44712
4.54587
4.76825
4.15228
4.20433
4.3448
4.34099
4.53187
4.5478
5.05583
4.43397
4.44882
4.08076
4.06649
3.90438
4.00773
4.63101
4.21264
4.52798
4.21847
4.66125
4.68295
4.72974
4.19645
4.18912
4.49069
4.39478
4.66724
4.65089
4.96016
4.26412
4.55087
3.87742
3.9365
3.87179
4.21931
4.23615
3.9003
4.56913
3.82242
4.59648
4.18711
4.71692
4.41575
4.25946
4.24159
4.27732
4.38837
3.94524
4.52589
4.06703
4.61601
4.17763
4.76436
4.46883
4.49645
3.83183
4.19695
4.19844
4.1307
4.63231
4.17814
4.43948
3.99304
4.29582
3.43208
4.39457
3.99737
4.47808
4.1415
4.11426
4.27698
4.21177
4.42744
4.02389
4.72304
4.18618
4.15051
3.86101
4.2245
3.77987
4.37985
4.35873
4.43767
3.90759
4.14242
3.67753
4.06821
3.95976
4.01547
4.41418
4.46927
4.25859
3.94542
4.61603
4.22249
4.38733
3.8012
4.05294
3.84955
3.50065
3.95386
4.17108
4.022
4.30423
4.13389
4.52833
4.24512
4.93584
4.4131
6.08694
8.56175
6.68547
4.92087
4.48632
)
;

boundaryField
{
    inlet
    {
        type            calculated;
        value           uniform 0;
    }
    outlet
    {
        type            calculated;
        value           uniform 0;
    }
    sideWall
    {
        type            empty;
    }
}


// ************************************************************************* //
