/*--------------------------------*- C++ -*----------------------------------*\
| =========                 |                                                 |
| \\      /  F ield         | foam-extend: Open Source CFD                    |
|  \\    /   O peration     | Version:     3.2                                |
|   \\  /    A nd           | Web:         http://www.foam-extend.org         |
|    \\/     M anipulation  | For copyright notice see file Copyright         |
\*---------------------------------------------------------------------------*/
FoamFile
{
    version     2.0;
    format      ascii;
    class       areaScalarField;
    location    "160";
    object      thetaSS2init;
}
// * * * * * * * * * * * * * * * * * * * * * * * * * * * * * * * * * * * * * //

dimensions      [0 0 0 0 0 0 0];

internalField   nonuniform List<scalar> 
300
(
13.5108
10.7597
7.46437
6.12937
5.62611
5.36218
5.17106
5.0038
4.84983
4.71012
4.58541
4.47393
4.37307
4.28309
4.20211
4.12851
4.06118
3.99903
3.94213
3.89023
3.84205
3.79677
3.75425
3.71434
3.6769
3.64146
3.60798
3.57613
3.54598
3.51738
3.4901
3.46409
3.43915
3.41534
3.39254
3.37073
3.34972
3.32954
3.31009
3.29134
3.27334
3.25591
3.23912
3.22282
3.20708
3.19183
3.1771
3.16281
3.14892
3.13546
3.12234
3.10962
3.09726
3.08524
3.07353
3.06211
3.051
3.04011
3.02946
3.01905
3.00889
2.99899
2.98931
2.97986
2.97064
2.96164
2.95283
2.94422
2.93579
2.92755
2.91949
2.91161
2.90389
2.89634
2.88894
2.88172
2.87464
2.86772
2.86097
2.85435
2.84792
2.84161
2.8355
2.82954
2.82378
2.81819
2.81287
2.8077
2.80289
2.79832
2.79418
2.79054
2.78741
2.78538
2.78416
2.78468
2.79075
2.79194
2.85541
2.78938
2.55865
2.57157
2.66252
2.67053
2.6747
2.67258
2.67063
2.66666
2.662
2.65891
2.65581
2.6505
2.64553
2.64111
2.63659
2.63222
2.62785
2.62356
2.61929
2.61506
2.61088
2.60672
2.6026
2.59854
2.5945
2.59048
2.5865
2.58256
2.57866
2.57478
2.57093
2.56714
2.56336
2.55961
2.55587
2.55217
2.54848
2.54484
2.54123
2.53766
2.53413
2.53062
2.52717
2.52375
2.52039
2.51707
2.51381
2.51059
2.5074
2.50424
2.5011
2.49796
2.49485
2.49175
2.48867
2.48561
2.48257
2.47955
2.47655
2.47358
2.47062
2.46769
2.46478
2.46189
2.45903
2.45619
2.45337
2.45056
2.44779
2.44504
2.4423
2.4396
2.4369
2.43422
2.43157
2.42892
2.4263
2.4237
2.42111
2.41853
2.41598
2.41344
2.41093
2.40843
2.40594
2.40348
2.40103
2.39861
2.39619
2.39379
2.3914
2.38903
2.38668
2.38434
2.38201
2.37971
2.37742
2.37515
2.37288
2.37063
2.36839
2.36616
2.36394
2.36173
2.35954
2.35737
2.35521
2.35306
2.35091
2.34879
2.34667
2.34457
2.34248
2.34041
2.33836
2.33631
2.33427
2.33224
2.33023
2.32821
2.32621
2.32421
2.32221
2.32024
2.31828
2.31632
2.31438
2.31245
2.31054
2.30864
2.30674
2.30485
2.30295
2.30107
2.29919
2.29734
2.29548
2.29365
2.29181
2.28999
2.28816
2.28636
2.28455
2.28276
2.28097
2.27919
2.27741
2.27565
2.2739
2.27216
2.27041
2.26869
2.26697
2.26526
2.26356
2.26187
2.26018
2.25849
2.25681
2.25513
2.25346
2.25179
2.25015
2.24849
2.24687
2.24524
2.24364
2.24203
2.24046
2.23886
2.23732
2.23572
2.23419
2.23256
2.23101
2.22936
2.22777
2.22607
2.22443
2.22265
2.22092
2.21902
2.21713
2.21508
2.21304
2.2106
2.20675
2.20444
2.20101
2.19774
2.1927
2.18761
2.17955
2.17303
2.14468
2.17785
2.27183
2.27124
2.23669
2.23433
)
;

boundaryField
{
    inlet
    {
        type            calculated;
        value           uniform 0;
    }
    outlet
    {
        type            calculated;
        value           uniform 0;
    }
    sideWall
    {
        type            empty;
    }
}


// ************************************************************************* //
