/*--------------------------------*- C++ -*----------------------------------*\
| =========                 |                                                 |
| \\      /  F ield         | foam-extend: Open Source CFD                    |
|  \\    /   O peration     | Version:     3.2                                |
|   \\  /    A nd           | Web:         http://www.foam-extend.org         |
|    \\/     M anipulation  | For copyright notice see file Copyright         |
\*---------------------------------------------------------------------------*/
FoamFile
{
    version     2.0;
    format      ascii;
    class       areaScalarField;
    location    "160";
    object      thetaCSS1;
}
// * * * * * * * * * * * * * * * * * * * * * * * * * * * * * * * * * * * * * //

dimensions      [0 0 0 0 0 0 0];

internalField   nonuniform List<scalar> 
300
(
0.0551061
0.0551061
0.0551061
0.0551061
0.0551061
0.0551061
0.0551061
0.0551061
0.0551061
0.0551061
0.0551061
0.0551061
0.0551061
0.0551061
0.0551061
0.0551061
0.0551061
0.0551061
0.0551061
0.0551061
0.0551061
0.0551061
0.0551061
0.0551061
0.0551061
0.0551061
0.0551061
0.0551061
0.0551061
0.0551061
0.0551061
0.0551061
0.0551061
0.0551061
0.0551061
0.0551061
0.0551061
0.0551061
0.0551061
0.0551061
0.0551061
0.0551061
0.0551061
0.0551061
0.0551061
0.0551061
0.0551061
0.0551061
0.0551061
0.0551061
0.0551061
0.0551061
0.0551061
0.0551061
0.0551061
0.0551061
0.0551061
0.0551061
0.0551061
0.0551061
0.0551061
0.0551061
0.0551061
0.0551061
0.0551061
0.0551061
0.0551061
0.0551061
0.0551061
0.0551061
0.0551061
0.0551061
0.0551061
0.0551061
0.0551061
0.0551061
0.0551061
0.0551061
0.0551061
0.0551061
0.0551061
0.0551061
0.0551061
0.0551061
0.0551061
0.0551061
0.0551061
0.0551061
0.0551061
0.0551061
0.0551061
0.0551061
0.0551061
0.0551061
0.0551061
0.0551061
0.0551061
0.0551061
0.0551061
0.0473304
0.0440588
0.0487422
0.0489257
0.0501902
0.0505834
0.0511685
0.0517459
0.0519713
0.052373
0.15309
0.160531
0.161615
0.167407
0.16835
0.0524629
0.0528737
0.0537315
0.0540097
0.186346
0.192451
0.188427
0.195764
0.0539849
0.0563865
0.0546666
0.0533325
0.0542058
0.0532599
0.205405
0.200652
0.207597
0.202091
0.0560979
0.0550317
0.0563454
0.200687
0.192315
0.203083
0.199851
0.204389
0.0563872
0.0556423
0.0570191
0.19542
0.191046
0.187616
0.192392
0.056422
0.0557616
0.0566136
0.187429
0.185803
0.178306
0.178665
0.0556218
0.0557481
0.0549208
0.177687
0.182574
0.185504
0.181855
0.055373
0.0557269
0.0543163
0.174205
0.173496
0.179108
0.0557752
0.0552243
0.0564286
0.055681
0.179188
0.178443
0.174583
0.0532172
0.0535587
0.0545952
0.0551938
0.183146
0.181039
0.181651
0.17675
0.0538176
0.05424
0.0552244
0.0559268
0.183389
0.18094
0.176818
0.184997
0.0549763
0.0559729
0.0555164
0.183004
0.178947
0.172011
0.177722
0.0527568
0.0548811
0.0534571
0.192989
0.186879
0.182956
0.184522
0.0552353
0.0571071
0.0549382
0.177305
0.171844
0.182075
0.0552589
0.0560276
0.0558964
0.0557255
0.172035
0.167929
0.173638
0.168949
0.0553438
0.0537395
0.05679
0.0533207
0.187816
0.184418
0.180516
0.0571331
0.0546151
0.0574551
0.0532985
0.180298
0.172765
0.181861
0.171773
0.0556103
0.0560135
0.0549117
0.17849
0.171873
0.17802
0.0535453
0.0551196
0.0525368
0.057173
0.169813
0.181807
0.171951
0.172222
0.0548652
0.0538675
0.0544583
0.174248
0.186699
0.173032
0.0577259
0.0529492
0.0575487
0.0540492
0.17944
0.168545
0.174843
0.173395
0.053514
0.0546617
0.0538342
0.0556449
0.0541986
0.0575278
0.0542091
0.0555835
0.05301
0.0558358
0.053204
0.0574229
0.0538413
0.058087
0.0559375
0.0568139
0.0539082
0.0565039
0.0566698
0.054748
0.0551921
0.0535337
0.0563089
0.0534459
0.056267
0.057007
0.0573328
0.0570831
0.0583514
0.0578592
0.0597402
0.0590689
0.062004
0.0611134
0.0677781
0.0630913
0.0551061
0.0551061
0.0551061
)
;

boundaryField
{
    inlet
    {
        type            calculated;
        value           uniform 0;
    }
    outlet
    {
        type            calculated;
        value           uniform 0;
    }
    sideWall
    {
        type            empty;
    }
}


// ************************************************************************* //
