/*--------------------------------*- C++ -*----------------------------------*\
| =========                 |                                                 |
| \\      /  F ield         | foam-extend: Open Source CFD                    |
|  \\    /   O peration     | Version:     3.2                                |
|   \\  /    A nd           | Web:         http://www.foam-extend.org         |
|    \\/     M anipulation  | For copyright notice see file Copyright         |
\*---------------------------------------------------------------------------*/
FoamFile
{
    version     2.0;
    format      ascii;
    class       areaScalarField;
    location    "160";
    object      totH1;
}
// * * * * * * * * * * * * * * * * * * * * * * * * * * * * * * * * * * * * * //

dimensions      [0 0 0 0 0 0 0];

internalField   nonuniform List<scalar> 
300
(
0
0
0
0
0
0
0
0
0
0
0
0
0
0
0
0
0
0
0
0
0
0
0
0
0
0
0
0
0
0
0
0
0
0
0
0
0
0
0
0
0
0
0
0
0
0
0
0
0
0
0
0
0
0
0
0
0
0
0
0
0
0
0
0
0
0
0
0
0
0
0
0
0
0
0
0
0
0
0
0
0
0
0
0
0
0
0
0
0
0
0
0
0
0
0
0
0
0
0
-0.0022379
-0.00763154
-0.0126256
-0.0162501
-0.019462
-0.0222011
-0.0246598
-0.0267846
-0.0286781
-0.0303905
-0.0319428
-0.0330801
-0.0340726
-0.0350338
-0.0358988
-0.0371959
-0.0386442
-0.0397036
-0.0404107
-0.041108
-0.0414653
-0.0418864
-0.0422822
-0.0425717
-0.0425514
-0.0423091
-0.0429376
-0.0437098
-0.0445152
-0.0448963
-0.0449813
-0.0449277
-0.0447296
-0.044554
-0.0442927
-0.0439268
-0.0433532
-0.0437525
-0.0442189
-0.0442285
-0.0440935
-0.0434624
-0.0429368
-0.0421887
-0.0412637
-0.0408367
-0.0410446
-0.0413012
-0.0408947
-0.040322
-0.039658
-0.038833
-0.0380146
-0.0377288
-0.0381594
-0.0382816
-0.0379441
-0.0377877
-0.038128
-0.0383597
-0.0378395
-0.0370222
-0.0366002
-0.0363474
-0.0363584
-0.0367916
-0.0375604
-0.0383695
-0.0384527
-0.038252
-0.0378346
-0.0372336
-0.0368086
-0.0363058
-0.0360229
-0.0365844
-0.0376162
-0.0382195
-0.0383057
-0.0380415
-0.0377553
-0.0374613
-0.0374447
-0.0380373
-0.0386938
-0.0389154
-0.038615
-0.0381586
-0.0379094
-0.0383245
-0.0386169
-0.0385024
-0.038294
-0.0378927
-0.037339
-0.0366837
-0.0369505
-0.0376519
-0.0385489
-0.039305
-0.0398323
-0.0397154
-0.038813
-0.0384611
-0.0381633
-0.0378812
-0.0372536
-0.0366742
-0.0365804
-0.0369837
-0.0371393
-0.0367419
-0.0364578
-0.0359588
-0.0355185
-0.0352905
-0.0357542
-0.0364618
-0.0376339
-0.0385302
-0.0388802
-0.0387879
-0.0387796
-0.0389154
-0.0383492
-0.0382573
-0.0377796
-0.0373527
-0.036806
-0.0366151
-0.0367948
-0.0368231
-0.0367181
-0.0367032
-0.0370232
-0.0366084
-0.0363639
-0.0359731
-0.0356859
-0.0352373
-0.035124
-0.0356093
-0.036363
-0.0364753
-0.0363338
-0.0361392
-0.0355473
-0.035775
-0.0360002
-0.0364429
-0.0369624
-0.037583
-0.0372988
-0.036966
-0.0366068
-0.036487
-0.0363961
-0.0359569
-0.0356257
-0.0352957
-0.0353424
-0.0348201
-0.0350358
-0.0356403
-0.0361202
-0.0363214
-0.0364283
-0.0359729
-0.0355157
-0.0356398
-0.0361126
-0.0365095
-0.0368504
-0.0367176
-0.0363988
-0.0358791
-0.0347428
-0.033991
-0.0338362
-0.0337718
-0.032893
-0.0325364
-0.0326184
-0.0330542
-0.0331573
-0.0332865
-0.0334291
-0.0325203
-0.0312926
-0.0300423
-0.0284845
-0.0266933
-0.024478
-0.0218955
-0.0186083
-0.0146899
-0.0088793
-0.0024442
0
0
0
)
;

boundaryField
{
    inlet
    {
        type            calculated;
        value           uniform 0;
    }
    outlet
    {
        type            calculated;
        value           uniform 0;
    }
    sideWall
    {
        type            empty;
    }
}


// ************************************************************************* //
