/*--------------------------------*- C++ -*----------------------------------*\
| =========                 |                                                 |
| \\      /  F ield         | foam-extend: Open Source CFD                    |
|  \\    /   O peration     | Version:     3.2                                |
|   \\  /    A nd           | Web:         http://www.foam-extend.org         |
|    \\/     M anipulation  | For copyright notice see file Copyright         |
\*---------------------------------------------------------------------------*/
FoamFile
{
    version     2.0;
    format      ascii;
    class       areaScalarField;
    location    "160";
    object      tVolC;
}
// * * * * * * * * * * * * * * * * * * * * * * * * * * * * * * * * * * * * * //

dimensions      [0 3 0 0 0 0 0];

internalField   nonuniform List<scalar> 
300
(
0
0
0
0
0
0
0
0
0
0
0
0
0
0
0
0
0
0
0
0
0
0
0
0
0
0
0
0
0
0
0
0
0
0
0
0
0
0
0
0
0
0
0
0
0
0
0
0
0
0
0
0
0
0
0
0
0
0
0
0
0
0
0
0
0
0
0
0
0
0
0
0
0
0
0
0
0
0
0
0
0
0
0
0
0
0
0
0
0
0
0
0
0
0
0
0
0
0
0
0
4.57697e-05
4.11639e-05
3.75065e-05
3.40948e-05
3.16444e-05
2.88238e-05
2.70443e-05
2.4841e-05
2.34102e-05
2.16048e-05
1.93695e-05
2.05189e-05
1.90773e-05
1.97247e-05
1.83502e-05
1.77924e-05
1.70546e-05
1.62159e-05
1.66732e-05
1.51591e-05
1.62941e-05
1.5011e-05
1.61772e-05
1.51183e-05
1.56968e-05
1.50352e-05
1.42749e-05
1.56336e-05
1.40105e-05
1.48564e-05
1.53223e-05
1.41313e-05
1.60397e-05
1.4167e-05
1.57127e-05
1.35061e-05
1.57087e-05
1.46539e-05
1.42921e-05
1.65732e-05
1.44526e-05
1.60859e-05
1.48693e-05
1.51619e-05
1.46853e-05
1.49076e-05
1.60225e-05
1.51303e-05
1.52255e-05
1.48556e-05
1.48966e-05
1.4798e-05
1.47241e-05
1.53474e-05
1.46417e-05
1.49431e-05
1.46713e-05
1.47669e-05
1.50932e-05
1.46456e-05
1.40859e-05
1.46255e-05
1.47691e-05
1.47997e-05
1.50646e-05
1.49983e-05
1.5478e-05
1.47371e-05
1.43557e-05
1.45665e-05
1.42955e-05
1.49301e-05
1.47175e-05
1.47331e-05
1.4871e-05
1.52497e-05
1.47033e-05
1.50555e-05
1.46139e-05
1.48953e-05
1.50547e-05
1.51353e-05
1.56167e-05
1.47737e-05
1.5458e-05
1.49599e-05
1.49963e-05
1.45794e-05
1.50692e-05
1.5076e-05
1.47427e-05
1.55499e-05
1.51987e-05
1.54484e-05
1.49999e-05
1.67037e-05
1.48301e-05
1.66343e-05
1.63802e-05
1.5418e-05
1.75704e-05
1.3983e-05
1.64396e-05
1.46833e-05
1.61594e-05
1.53105e-05
1.48714e-05
1.57065e-05
1.49653e-05
1.61825e-05
1.47997e-05
1.56488e-05
1.54327e-05
1.58351e-05
1.47103e-05
1.72117e-05
1.45005e-05
1.72095e-05
1.56199e-05
1.61421e-05
1.71168e-05
1.49356e-05
1.77078e-05
1.37433e-05
1.65115e-05
1.43804e-05
1.63725e-05
1.5445e-05
1.60901e-05
1.70021e-05
1.56408e-05
1.75929e-05
1.49732e-05
1.71685e-05
1.49317e-05
1.65024e-05
1.48866e-05
1.64561e-05
1.50346e-05
1.69644e-05
1.60663e-05
1.71403e-05
1.7442e-05
1.65764e-05
1.83371e-05
1.59961e-05
1.8416e-05
1.46279e-05
1.86907e-05
1.4966e-05
1.77048e-05
1.61165e-05
1.71843e-05
1.7789e-05
1.69665e-05
1.91352e-05
1.62902e-05
1.89207e-05
1.59487e-05
1.81777e-05
1.51009e-05
1.81911e-05
1.52988e-05
1.83679e-05
1.54499e-05
1.76833e-05
1.65816e-05
1.78973e-05
1.79187e-05
1.76728e-05
1.99282e-05
1.69109e-05
2.05311e-05
1.59999e-05
2.06014e-05
1.58005e-05
1.89238e-05
1.60028e-05
1.86317e-05
1.6057e-05
1.82577e-05
1.61161e-05
1.92968e-05
1.84609e-05
1.83436e-05
2.38806e-05
1.87121e-05
2.469e-05
2.12769e-05
2.72219e-05
2.50221e-05
3.07889e-05
3.03903e-05
3.60594e-05
3.84108e-05
4.49379e-05
0
0
0
0
)
;

boundaryField
{
    inlet
    {
        type            calculated;
        value           uniform 0;
    }
    outlet
    {
        type            calculated;
        value           uniform 0;
    }
    sideWall
    {
        type            empty;
    }
}


// ************************************************************************* //
