/*--------------------------------*- C++ -*----------------------------------*\
| =========                 |                                                 |
| \\      /  F ield         | foam-extend: Open Source CFD                    |
|  \\    /   O peration     | Version:     3.2                                |
|   \\  /    A nd           | Web:         http://www.foam-extend.org         |
|    \\/     M anipulation  | For copyright notice see file Copyright         |
\*---------------------------------------------------------------------------*/
FoamFile
{
    version     2.0;
    format      ascii;
    class       areaScalarField;
    location    "160";
    object      tVol;
}
// * * * * * * * * * * * * * * * * * * * * * * * * * * * * * * * * * * * * * //

dimensions      [0 3 0 0 0 0 0];

internalField   nonuniform List<scalar> 
300
(
0.0001
0.0001
0.0001
0.0001
0.0001
0.0001
0.0001
0.0001
0.0001
0.0001
0.0001
0.0001
0.0001
0.0001
0.0001
0.0001
0.0001
0.0001
0.0001
0.0001
0.0001
0.0001
0.0001
0.0001
0.0001
0.0001
0.0001
0.0001
0.0001
0.0001
0.0001
0.0001
0.0001
0.0001
0.0001
0.0001
0.0001
0.0001
0.0001
0.0001
0.0001
0.0001
0.0001
0.0001
0.0001
0.0001
0.0001
0.0001
0.0001
0.0001
0.0001
0.0001
0.0001
0.0001
0.0001
0.0001
0.0001
0.0001
0.0001
0.0001
0.0001
0.0001
0.0001
0.0001
0.0001
0.0001
0.0001
0.0001
0.0001
0.0001
0.0001
0.0001
0.0001
0.0001
0.0001
0.0001
0.0001
0.0001
0.0001
0.0001
0.0001
0.0001
0.0001
0.0001
0.0001
0.0001
0.0001
0.0001
0.0001
0.0001
0.0001
0.0001
0.0001
0.0001
0.0001
0.0001
0.0001
0.0001
0.0001
9.81535e-05
9.31035e-05
8.76143e-05
8.39683e-05
8.06745e-05
7.79122e-05
7.54256e-05
7.32782e-05
7.13764e-05
6.9652e-05
6.80848e-05
6.68977e-05
6.59074e-05
6.495e-05
6.41074e-05
6.28436e-05
6.14096e-05
6.03403e-05
5.96121e-05
5.88956e-05
5.85032e-05
5.80816e-05
5.76954e-05
5.74362e-05
5.74881e-05
5.77324e-05
5.7095e-05
5.63016e-05
5.55062e-05
5.51008e-05
5.49893e-05
5.5034e-05
5.5259e-05
5.54806e-05
5.57485e-05
5.60999e-05
5.66457e-05
5.62347e-05
5.57423e-05
5.57486e-05
5.59083e-05
5.65741e-05
5.71069e-05
5.78476e-05
5.87351e-05
5.91276e-05
5.89164e-05
5.86884e-05
5.91444e-05
5.97229e-05
6.03718e-05
6.1161e-05
6.1949e-05
6.22263e-05
6.18411e-05
6.1758e-05
6.21009e-05
6.22345e-05
6.18719e-05
6.15991e-05
6.21173e-05
6.2973e-05
6.34397e-05
6.37034e-05
6.36557e-05
6.31814e-05
6.24178e-05
6.16143e-05
6.15504e-05
6.17813e-05
6.22158e-05
6.27716e-05
6.31471e-05
6.36443e-05
6.39595e-05
6.34512e-05
6.24391e-05
6.18259e-05
6.17004e-05
6.19192e-05
6.21928e-05
6.25157e-05
6.25549e-05
6.19854e-05
6.13488e-05
6.1126e-05
6.14066e-05
6.18364e-05
6.20573e-05
6.16459e-05
6.13758e-05
6.153e-05
6.17515e-05
6.21266e-05
6.26583e-05
6.32791e-05
6.30203e-05
6.23478e-05
6.15129e-05
6.07367e-05
6.01982e-05
6.02951e-05
6.11539e-05
6.14918e-05
6.18308e-05
6.2153e-05
6.28037e-05
6.33314e-05
6.33882e-05
6.29909e-05
6.28445e-05
6.32584e-05
6.35799e-05
6.40854e-05
6.45012e-05
6.47042e-05
6.42271e-05
6.35067e-05
6.24033e-05
6.14793e-05
6.11561e-05
6.12595e-05
6.12375e-05
6.10555e-05
6.16139e-05
6.17233e-05
6.22409e-05
6.2682e-05
6.32606e-05
6.34199e-05
6.32068e-05
6.31498e-05
6.32527e-05
6.3303e-05
6.30136e-05
6.34336e-05
6.36414e-05
6.39975e-05
6.42649e-05
6.4756e-05
6.48937e-05
6.44292e-05
6.37113e-05
6.35657e-05
6.36719e-05
6.38441e-05
6.44079e-05
6.42179e-05
6.40349e-05
6.36068e-05
6.30478e-05
6.2396e-05
6.26914e-05
6.30226e-05
6.3429e-05
6.35681e-05
6.36712e-05
6.40663e-05
6.43891e-05
6.46755e-05
6.46146e-05
6.51739e-05
6.50133e-05
6.44054e-05
6.39075e-05
6.36877e-05
6.35825e-05
6.40601e-05
6.44946e-05
6.43695e-05
6.39154e-05
6.3501e-05
6.31731e-05
6.33142e-05
6.36155e-05
6.41678e-05
6.52662e-05
6.60297e-05
6.6178e-05
6.62434e-05
6.71244e-05
6.74719e-05
6.73913e-05
6.69671e-05
6.68579e-05
6.67335e-05
6.65846e-05
6.75042e-05
6.87386e-05
6.9984e-05
7.15761e-05
7.33528e-05
7.56456e-05
7.81986e-05
8.16833e-05
8.55402e-05
9.22766e-05
9.80214e-05
0.0001
0.0001
0.0001
)
;

boundaryField
{
    inlet
    {
        type            calculated;
        value           uniform 0;
    }
    outlet
    {
        type            calculated;
        value           uniform 0;
    }
    sideWall
    {
        type            empty;
    }
}


// ************************************************************************* //
