/*--------------------------------*- C++ -*----------------------------------*\
| =========                 |                                                 |
| \\      /  F ield         | foam-extend: Open Source CFD                    |
|  \\    /   O peration     | Version:     3.2                                |
|   \\  /    A nd           | Web:         http://www.foam-extend.org         |
|    \\/     M anipulation  | For copyright notice see file Copyright         |
\*---------------------------------------------------------------------------*/
FoamFile
{
    version     2.0;
    format      ascii;
    class       areaScalarField;
    location    "160";
    object      tVolA;
}
// * * * * * * * * * * * * * * * * * * * * * * * * * * * * * * * * * * * * * //

dimensions      [0 3 0 0 0 0 0];

internalField   nonuniform List<scalar> 
300
(
0
0
0
0
0
0
0
0
0
0
0
0
0
0
0
0
0
0
0
0
0
0
0
0
0
0
0
0
0
0
0
0
0
0
0
0
0
0
0
0
0
0
0
0
0
0
0
0
0
0
0
0
0
0
0
0
0
0
0
0
0
0
0
0
0
0
0
0
0
0
0
0
0
0
0
0
0
0
0
0
0
0
0
0
0
0
0
0
0
0
0
0
0
0
0
0
0
0
0
0
4.73368e-05
4.64547e-05
4.64669e-05
4.65854e-05
4.62738e-05
4.66083e-05
4.62405e-05
4.65423e-05
4.62488e-05
4.64874e-05
4.74893e-05
4.53365e-05
4.58587e-05
4.43737e-05
4.44975e-05
4.36564e-05
4.33344e-05
4.34034e-05
4.22307e-05
4.33052e-05
4.17312e-05
4.26717e-05
4.12502e-05
4.24119e-05
4.20919e-05
4.20678e-05
4.20352e-05
3.98811e-05
4.10982e-05
4.00931e-05
3.96535e-05
4.11142e-05
3.94797e-05
4.16407e-05
4.03948e-05
4.31479e-05
4.04915e-05
4.10315e-05
4.14461e-05
3.93182e-05
4.21584e-05
4.10837e-05
4.29859e-05
4.35809e-05
4.43942e-05
4.39534e-05
4.26535e-05
4.40522e-05
4.45612e-05
4.55225e-05
4.62685e-05
4.70889e-05
4.74386e-05
4.6499e-05
4.71606e-05
4.7218e-05
4.75714e-05
4.71163e-05
4.64549e-05
4.73968e-05
4.88729e-05
4.88669e-05
4.90013e-05
4.88656e-05
4.80764e-05
4.73707e-05
4.61301e-05
4.67964e-05
4.74706e-05
4.77093e-05
4.84821e-05
4.81602e-05
4.88489e-05
4.92224e-05
4.85957e-05
4.72427e-05
4.71805e-05
4.66533e-05
4.7255e-05
4.72255e-05
4.74462e-05
4.74181e-05
4.63774e-05
4.66215e-05
4.57241e-05
4.64536e-05
4.68446e-05
4.74348e-05
4.65247e-05
4.62874e-05
4.68278e-05
4.62625e-05
4.69344e-05
4.72107e-05
4.8228e-05
4.62593e-05
4.7518e-05
4.49285e-05
4.44109e-05
4.47877e-05
4.27322e-05
4.71265e-05
4.49841e-05
4.71391e-05
4.60386e-05
4.75478e-05
4.84637e-05
4.76413e-05
4.79747e-05
4.66491e-05
4.84421e-05
4.79779e-05
4.87114e-05
4.86677e-05
5.00038e-05
4.69724e-05
4.89539e-05
4.5208e-05
4.58525e-05
4.50504e-05
4.41907e-05
4.63099e-05
4.32984e-05
4.78208e-05
4.52043e-05
4.78457e-05
4.63565e-05
4.78715e-05
4.73385e-05
4.62146e-05
4.74652e-05
4.55989e-05
4.83313e-05
4.58903e-05
4.85528e-05
4.71457e-05
4.90674e-05
4.77378e-05
4.97069e-05
4.79272e-05
4.84088e-05
4.66355e-05
4.61311e-05
4.71035e-05
4.54553e-05
4.83506e-05
4.57961e-05
4.9449e-05
4.4977e-05
4.80899e-05
4.46478e-05
4.65254e-05
4.58293e-05
4.56301e-05
4.66496e-05
4.45894e-05
4.77829e-05
4.54742e-05
4.86889e-05
4.63705e-05
5.00581e-05
4.68759e-05
4.91653e-05
4.55476e-05
4.82455e-05
4.59068e-05
4.74846e-05
4.66032e-05
4.64599e-05
4.62519e-05
4.35803e-05
4.62702e-05
4.27907e-05
4.76232e-05
4.35726e-05
4.94709e-05
4.71126e-05
5.01848e-05
4.76166e-05
5.10723e-05
4.92225e-05
5.12849e-05
4.76813e-05
4.84044e-05
4.83974e-05
4.27112e-05
4.87996e-05
4.40555e-05
4.87142e-05
4.43609e-05
4.83375e-05
4.4863e-05
4.78144e-05
4.56293e-05
4.71342e-05
4.73421e-05
0
0
0
0
)
;

boundaryField
{
    inlet
    {
        type            calculated;
        value           uniform 0;
    }
    outlet
    {
        type            calculated;
        value           uniform 0;
    }
    sideWall
    {
        type            empty;
    }
}


// ************************************************************************* //
