/*--------------------------------*- C++ -*----------------------------------*\
| =========                 |                                                 |
| \\      /  F ield         | foam-extend: Open Source CFD                    |
|  \\    /   O peration     | Version:     3.2                                |
|   \\  /    A nd           | Web:         http://www.foam-extend.org         |
|    \\/     M anipulation  | For copyright notice see file Copyright         |
\*---------------------------------------------------------------------------*/
FoamFile
{
    version     2.0;
    format      ascii;
    class       volVectorField;
    location    "160";
    object      U;
}
// * * * * * * * * * * * * * * * * * * * * * * * * * * * * * * * * * * * * * //

dimensions      [0 1 -1 0 0 0 0];

internalField   nonuniform List<vector> 
96000
(
(1.32717 0 0.0321533)
(0.866773 0 0.0115996)
(0.682511 0 0.00215823)
(0.629461 0 -0.000474676)
(0.610066 0 -0.000492654)
(0.597607 0 -0.000216268)
(0.587444 0 -0.000121827)
(0.577914 0 -5.61299e-05)
(0.568828 0 -1.26476e-05)
(0.560457 0 4.19212e-06)
(0.552983 0 9.43178e-06)
(0.546238 0 1.89465e-05)
(0.540038 0 2.37604e-05)
(0.534484 0 2.67532e-05)
(0.529438 0 2.74763e-05)
(0.52482 0 2.73526e-05)
(0.520558 0 2.83001e-05)
(0.516578 0 2.81134e-05)
(0.512919 0 2.91714e-05)
(0.509602 0 2.94474e-05)
(0.506499 0 2.91013e-05)
(0.503553 0 2.8523e-05)
(0.500767 0 2.77729e-05)
(0.498135 0 2.64724e-05)
(0.495661 0 2.54893e-05)
(0.4933 0 2.46357e-05)
(0.491063 0 2.38852e-05)
(0.488916 0 2.3219e-05)
(0.486878 0 2.20957e-05)
(0.48494 0 2.14644e-05)
(0.48308 0 2.06388e-05)
(0.481302 0 2.01898e-05)
(0.479586 0 1.94867e-05)
(0.477944 0 1.89261e-05)
(0.476364 -1.49187e-39 1.81601e-05)
(0.474853 0 1.77067e-05)
(0.473385 0 1.72014e-05)
(0.471977 0 1.66945e-05)
(0.470609 -1.26518e-39 1.63642e-05)
(0.46929 -1.21198e-39 1.56969e-05)
(0.46802 0 1.53676e-05)
(0.466785 4.50172e-39 1.48851e-05)
(0.465594 4.33582e-39 1.45533e-05)
(0.464433 0 1.42154e-05)
(0.463309 0 1.37994e-05)
(0.462219 0 1.34565e-05)
(0.461161 0 1.30311e-05)
(0.460136 -1.46797e-38 1.28512e-05)
(0.459131 -1.41864e-38 1.24407e-05)
(0.458164 -2.75523e-38 1.22393e-05)
(0.457209 0 1.19289e-05)
(0.456292 0 1.15926e-05)
(0.455391 0 1.13535e-05)
(0.45452 -4.88846e-38 1.10657e-05)
(0.453664 0 1.08663e-05)
(0.452835 0 1.06146e-05)
(0.452019 0 1.03743e-05)
(0.451231 1.72063e-37 1.0565e-05)
(0.450439 0 1.04819e-05)
(0.449687 0 1.02796e-05)
(0.448931 0 9.99914e-06)
(0.448219 0 9.75609e-06)
(0.447497 0 9.51985e-06)
(0.446823 0 9.26045e-06)
(0.446135 -5.59954e-37 9.01534e-06)
(0.4455 -5.45379e-37 8.76746e-06)
(0.444844 0 8.54587e-06)
(0.444247 1.02848e-36 8.25743e-06)
(0.443622 -1.99823e-36 8.05353e-06)
(0.443064 0 7.67557e-06)
(0.442474 0 7.4877e-06)
(0.441958 0 7.04158e-06)
(0.441407 0 6.82499e-06)
(0.440938 -3.29567e-36 6.34293e-06)
(0.440428 -6.3274e-36 6.08689e-06)
(0.440013 0 5.43547e-06)
(0.439554 -5.63203e-36 5.18941e-06)
(0.439202 0 4.296e-06)
(0.438809 0 3.97072e-06)
(0.438538 0 2.83715e-06)
(0.438228 0 2.4362e-06)
(0.438057 0 7.87967e-07)
(0.437865 0 8.07407e-07)
(0.437818 0 -1.63938e-06)
(0.437814 -2.45766e-36 -1.73595e-06)
(0.43791 0 -4.98006e-06)
(0.438105 -6.74369e-35 -6.77643e-06)
(0.438484 0 -1.12317e-05)
(0.439019 0 -1.28676e-05)
(0.439747 0 -1.88712e-05)
(0.440815 0 -2.19881e-05)
(0.442067 0 -3.22416e-05)
(0.444059 0 -3.71769e-05)
(0.446131 0 -5.70994e-05)
(0.449959 0 -7.48868e-05)
(0.453667 1.35175e-31 -0.000125467)
(0.462809 0 -0.000110306)
(0.464059 9.19033e-29 -0.000560603)
(0.517021 1.13042e-26 0.00173015)
(0.475257 1.5609e-23 -0.038578)
(0.237102 -2.48404e-23 -0.0289524)
(0.287784 0 -0.0231329)
(0.319384 1.8432e-24 -0.0237277)
(0.321628 -1.01619e-27 -0.018876)
(0.338054 0 -0.0181657)
(0.336358 -1.15995e-24 -0.015925)
(0.348547 -1.44797e-24 -0.0140726)
(0.347001 0 -0.0131242)
(0.357009 -9.68593e-25 -0.0114835)
(0.346956 0 -0.0105954)
(0.369399 0 -0.0063415)
(0.371185 0 -0.00888032)
(0.372695 0 -0.00588435)
(0.383228 -1.73055e-29 -0.00890637)
(0.353748 6.21783e-24 -0.0117154)
(0.345781 -1.11503e-23 -0.0093848)
(0.349272 1.7047e-24 -0.00522703)
(0.3763 -6.9647e-25 -0.00317107)
(0.356339 0 -0.00394225)
(0.391853 2.51949e-26 8.19393e-05)
(0.371207 0 -0.00662127)
(0.377443 1.77645e-25 -0.00161089)
(0.365564 3.59315e-24 -0.00659067)
(0.371357 0 0.00334423)
(0.408966 -8.4213e-25 -0.00149831)
(0.352774 0 -0.00651704)
(0.373614 -4.06092e-25 -0.00333751)
(0.343058 2.30134e-24 -0.00484743)
(0.375236 -8.07715e-25 0.0033962)
(0.374921 -1.36859e-24 -0.00301012)
(0.37778 0 0.00287688)
(0.379541 -6.47825e-25 -0.00270196)
(0.371177 0 0.00199268)
(0.377696 -2.21727e-26 4.61919e-05)
(0.376444 2.39981e-24 0.00660347)
(0.42724 0 0.00530212)
(0.364326 -4.72039e-24 -0.0066185)
(0.361205 0 0.00109015)
(0.377033 0 -0.00217859)
(0.358396 0 0.00155352)
(0.391209 -4.80173e-24 0.00382134)
(0.368087 -1.25069e-24 0.00246135)
(0.396104 0 0.0102094)
(0.415555 0 0.00768419)
(0.408596 7.4989e-25 0.00226398)
(0.380768 -4.37533e-25 -0.00416661)
(0.355592 2.83273e-25 -0.00158846)
(0.383869 4.70206e-24 0.00329388)
(0.379607 4.731e-28 0.00300391)
(0.396455 0 0.00872847)
(0.407057 0 0.0074163)
(0.419432 -3.8347e-24 0.00733098)
(0.416204 -5.75115e-25 -0.0023658)
(0.367274 -1.65602e-24 -0.00481765)
(0.370082 2.76397e-24 -0.000540429)
(0.389152 1.41953e-24 0.00238404)
(0.401379 0 0.00175463)
(0.376823 -3.79466e-24 -0.0014653)
(0.371254 0 0.00087093)
(0.397012 0 0.00510192)
(0.40968 3.13472e-24 0.00352357)
(0.38757 0 -0.00101862)
(0.395932 -1.46966e-24 0.00267371)
(0.401467 0 -0.000760297)
(0.389304 -2.68761e-24 -0.00127571)
(0.377647 -2.15292e-24 -0.00739008)
(0.350191 0 -0.00590562)
(0.377 0 -1.22344e-06)
(0.371559 -6.11834e-29 -0.000515857)
(0.384428 -1.23005e-24 0.00578743)
(0.401456 -1.47003e-24 0.00473954)
(0.400659 0 0.00474739)
(0.412784 3.38445e-24 0.00367424)
(0.412858 0 -0.00113612)
(0.374066 4.4426e-24 -0.00840446)
(0.352788 -3.37133e-24 -0.00621353)
(0.365091 0 -0.00167942)
(0.370961 3.55954e-25 0.00180435)
(0.396755 0 0.00405054)
(0.394297 -5.09715e-29 0.00148606)
(0.404143 -8.207e-28 0.00275183)
(0.401902 0 -0.00418161)
(0.361551 0 -0.00645376)
(0.35736 4.42288e-29 -0.00419767)
(0.35994 0 0.000905422)
(0.389863 9.66009e-25 0.00508624)
(0.397145 1.87376e-24 0.00465774)
(0.416789 0 0.00154624)
(0.366339 0 -0.0063927)
(0.368946 1.07424e-24 3.02542e-06)
(0.374125 3.13948e-25 -0.00231212)
(0.372326 -2.55943e-24 0.00336766)
(0.391689 0 0.00394062)
(0.394552 -8.49384e-24 0.00723796)
(0.435568 1.51892e-24 0.00447111)
(0.381418 0 -0.00677396)
(0.383791 2.62981e-24 -0.00407871)
(0.351431 0 -0.00997786)
(0.35683 5.62758e-25 -0.000934016)
(0.350565 0 -0.00440569)
(0.365189 0 0.00853176)
(0.415528 1.52033e-24 0.00565913)
(0.371879 0 -7.00892e-06)
(0.396452 -1.29468e-24 0.00199648)
(0.358894 6.62078e-25 -0.00150208)
(0.395171 -5.00881e-24 0.00811817)
(0.399224 1.5376e-25 0.00170331)
(0.41092 0 0.00353408)
(0.372734 0 -0.00691418)
(0.368601 0 0.00242216)
(0.386214 9.76215e-25 -0.00148847)
(0.373074 -1.6419e-24 0.00265283)
(0.394299 0 0.00394235)
(0.393539 -1.42971e-28 0.00452796)
(0.426287 1.17752e-25 0.00282555)
(0.371763 -3.19395e-24 -0.00601044)
(0.402735 -1.33968e-24 -0.00372373)
(0.342693 -4.26866e-24 -0.0127907)
(0.352181 -3.9107e-25 -0.00162133)
(0.34412 0 -0.00594886)
(0.374225 9.66356e-25 0.00697275)
(0.37877 1.70505e-24 -0.00502223)
(0.355265 5.66759e-24 0.00534851)
(0.414734 -1.05188e-24 0.00355921)
(0.335922 -5.05406e-25 -0.00312315)
(0.40178 0 0.00636)
(0.356368 8.75971e-25 -0.00198083)
(0.404542 0 0.0109336)
(0.38268 -1.32068e-24 -0.00386173)
(0.379616 0 0.00612004)
(0.381734 2.79459e-24 -0.00427202)
(0.382082 -4.68116e-24 0.00546381)
(0.387174 0 -0.0071626)
(0.341635 -4.43823e-24 -0.000509758)
(0.394921 0 0.00410414)
(0.355638 0 0.00114099)
(0.413405 0 0.00726842)
(0.369048 0 -0.0018479)
(0.411976 -4.50097e-27 0.00621343)
(0.377422 4.04938e-24 -0.00724066)
(0.384886 0 -7.50733e-05)
(0.332278 -3.29031e-24 -0.00741289)
(0.377144 -4.25957e-24 0.00988627)
(0.380701 0 -0.00491398)
(0.37265 -8.95669e-24 0.00857511)
(0.411393 0 -0.00162129)
(0.364918 0 -0.00342271)
(0.385932 0 -0.00259289)
(0.346223 0 -0.00443477)
(0.387296 0 -0.000650124)
(0.311316 0 -0.00374678)
(0.406261 5.11414e-24 0.0098174)
(0.355945 1.94888e-24 -0.00624812)
(0.393545 0 0.00923011)
(0.361752 -3.55345e-24 -0.00753167)
(0.363581 2.35555e-24 0.0101319)
(0.382084 -1.50599e-27 -0.00174214)
(0.379287 0 0.00983188)
(0.399952 2.02732e-24 -0.00343163)
(0.360341 1.05001e-24 0.00201682)
(0.415619 0 0.00259501)
(0.36278 1.33006e-27 -0.00691562)
(0.367012 -8.15841e-25 -0.00220338)
(0.344353 1.53817e-24 -0.00501739)
(0.380941 -3.0879e-28 0.00148659)
(0.337671 -6.5819e-25 -0.00365)
(0.389512 -1.95617e-24 0.00913746)
(0.381157 8.70018e-25 -0.00397115)
(0.387992 0 0.00180535)
(0.346042 0 -0.00723223)
(0.375275 0 0.00243664)
(0.333356 1.02973e-24 -0.00660652)
(0.371431 1.45284e-24 0.00840089)
(0.359385 0 -0.00469577)
(0.360837 0 0.0107946)
(0.390565 8.89678e-25 0.00356011)
(0.389691 0 0.00727543)
(0.374266 0 -0.00391208)
(0.348126 4.10475e-25 0.00436754)
(0.404352 0 0.00651431)
(0.366103 0 -0.00110802)
(0.385937 0 0.000610177)
(0.336344 0 -0.00519729)
(0.366523 0 0.00442857)
(0.350625 0 -0.00521214)
(0.321183 9.53328e-26 0.00343414)
(0.366522 0 0.00731479)
(0.376273 0 0.00972885)
(0.359461 -8.16787e-25 0.00818551)
(0.383165 0 0.0142614)
(0.364364 -2.65481e-27 0.0117317)
(0.396115 0 0.0213989)
(0.367056 9.24094e-25 0.017178)
(0.419941 -5.50436e-27 0.0343706)
(0.37028 0 0.0262057)
(0.482737 -4.72113e-23 0.0726217)
(0.590544 1.49637e-23 0.0595699)
(0.458712 -3.89682e-26 0.00473192)
(0.367378 -3.91541e-28 -0.000108746)
(0.364726 0 -1.07232e-05)
(1.70578 0 0.0462011)
(1.46484 0 0.0262866)
(1.26354 0 0.0112044)
(1.15627 0 0.00443932)
(1.09376 0 0.00223491)
(1.05073 0 0.00149982)
(1.01871 0 0.00123663)
(0.992301 0 0.00111526)
(0.969883 0 0.00100515)
(0.95112 0 0.000888223)
(0.934836 0 0.000786345)
(0.920591 0 0.000708099)
(0.907864 0 0.000635316)
(0.896693 0 0.000568573)
(0.886715 0 0.000515449)
(0.877621 0 0.000471219)
(0.869357 0 0.000435562)
(0.861719 0 0.000401411)
(0.854786 0 0.000366651)
(0.848308 0 0.000337355)
(0.842261 0 0.000317214)
(0.836581 0 0.00029921)
(0.831268 0 0.000282121)
(0.826282 0 0.0002652)
(0.82161 0 0.000250791)
(0.817176 0 0.000238067)
(0.812993 0 0.000226363)
(0.809012 0 0.000215862)
(0.805241 -9.71882e-39 0.000204596)
(0.801669 4.60941e-39 0.000195514)
(0.798246 0 0.000186745)
(0.794993 0 0.000179328)
(0.791862 0 0.000171922)
(0.78888 7.58817e-39 0.000164961)
(0.786014 -3.6214e-39 0.000158042)
(0.783277 0 0.000152213)
(0.780631 0 0.00014682)
(0.778093 5.0973e-38 0.000141477)
(0.775643 -3.06946e-39 0.000136959)
(0.773279 9.13435e-38 0.000131738)
(0.771009 9.07105e-38 0.000127496)
(0.768806 9.84112e-38 0.000123319)
(0.766683 1.79032e-37 0.000119472)
(0.764624 0 0.000116039)
(0.762627 0 0.000112307)
(0.760701 0 0.00010901)
(0.758824 0 0.000105501)
(0.75702 -3.56541e-38 0.0001029)
(0.755244 5.17707e-37 9.98088e-05)
(0.753544 -6.02719e-37 9.7297e-05)
(0.751864 0 9.46686e-05)
(0.750257 0 9.19755e-05)
(0.748671 9.79516e-37 8.95854e-05)
(0.74715 -1.07085e-36 8.72527e-05)
(0.745645 0 8.51096e-05)
(0.744204 0 8.30552e-05)
(0.742771 0 8.093e-05)
(0.741405 -2.95414e-36 7.93367e-05)
(0.740044 0 7.72895e-05)
(0.738757 6.36391e-36 7.54696e-05)
(0.737461 0 7.34622e-05)
(0.736243 6.02747e-36 7.1674e-05)
(0.735008 0 6.98163e-05)
(0.733856 0 6.80857e-05)
(0.732678 -1.38678e-36 6.61981e-05)
(0.731592 -1.35151e-36 6.45424e-05)
(0.730468 2.10029e-35 6.27556e-05)
(0.729447 4.34296e-35 6.10325e-05)
(0.728376 3.47529e-35 5.92898e-05)
(0.72742 0 5.73139e-05)
(0.726407 -7.45962e-35 5.55056e-05)
(0.725519 0 5.33203e-05)
(0.724568 6.93922e-35 5.12903e-05)
(0.723757 -8.32399e-36 4.89189e-05)
(0.722872 -1.59927e-35 4.668e-05)
(0.722146 1.2098e-34 4.36646e-05)
(0.721343 -1.44142e-35 4.11815e-05)
(0.720714 0 3.73093e-05)
(0.720012 0 3.4154e-05)
(0.719505 0 2.92189e-05)
(0.718932 0 2.53794e-05)
(0.718575 0 1.85038e-05)
(0.718181 0 1.36907e-05)
(0.718007 0 2.92681e-06)
(0.717886 -1.7208e-35 -2.28443e-06)
(0.717958 -5.49003e-35 -1.38961e-05)
(0.718154 -5.82307e-34 -2.4737e-05)
(0.718586 0 -4.4506e-05)
(0.719303 0 -5.713e-05)
(0.72022 1.01731e-32 -8.87901e-05)
(0.721843 2.28677e-32 -0.000107801)
(0.723435 0 -0.000160051)
(0.726546 0 -0.000193366)
(0.729306 0 -0.00028626)
(0.735062 5.65594e-31 -0.000363387)
(0.740074 -2.67203e-31 -0.000594598)
(0.752469 0 -0.000612358)
(0.759027 1.72591e-28 -0.00208725)
(0.813526 -1.14984e-26 -0.00280664)
(0.806589 6.7007e-23 -0.0573058)
(0.519296 -2.62326e-23 -0.0565951)
(0.517959 7.38738e-25 -0.0422103)
(0.537337 4.35623e-24 -0.0397636)
(0.536612 -2.63976e-24 -0.0323385)
(0.553275 -5.3601e-24 -0.0300954)
(0.551492 2.13714e-24 -0.0264833)
(0.566806 2.79115e-24 -0.0232816)
(0.56555 0 -0.0217178)
(0.579069 -1.79861e-24 -0.0187592)
(0.567886 3.00452e-24 -0.0173808)
(0.594248 -4.72972e-24 -0.0105337)
(0.598656 5.11753e-24 -0.0139885)
(0.603999 0 -0.00996333)
(0.617735 -3.60707e-29 -0.0146453)
(0.592774 -2.57118e-28 -0.0196279)
(0.578174 -1.15252e-28 -0.0160665)
(0.577251 0 -0.00989678)
(0.602952 0 -0.00519852)
(0.586211 0 -0.0060889)
(0.622995 4.8375e-26 0.000527586)
(0.605749 0 -0.0106879)
(0.614772 0 -0.00281579)
(0.604843 0 -0.011032)
(0.611898 0 0.00435113)
(0.648704 -3.28501e-24 -0.00276739)
(0.605381 3.01014e-24 -0.0106029)
(0.616109 0 -0.00503999)
(0.578627 -3.17641e-27 -0.00819257)
(0.605829 -1.45464e-24 0.00475984)
(0.607091 -2.23866e-28 -0.00419775)
(0.614224 2.20985e-24 0.00504824)
(0.618689 -1.08721e-24 -0.00480084)
(0.614289 0 0.00269993)
(0.620264 -1.74648e-25 -0.000255285)
(0.619208 3.66363e-24 0.0105933)
(0.670989 0 0.00934883)
(0.612497 0 -0.0096685)
(0.604795 0 0.00215231)
(0.61584 2.47387e-25 -0.00348431)
(0.603345 0 0.0019677)
(0.629311 8.3337e-24 0.00527714)
(0.61271 0 0.0040717)
(0.640005 -3.55537e-24 0.0162397)
(0.66061 0 0.0126452)
(0.66624 7.00352e-25 0.00458611)
(0.632837 -8.00882e-28 -0.0061045)
(0.605381 4.54277e-25 -0.00300503)
(0.630265 0 0.00455284)
(0.624409 -5.26117e-24 0.00477761)
(0.642918 3.66041e-24 0.0141943)
(0.652151 7.16684e-24 0.0124607)
(0.673404 9.82836e-28 0.0124055)
(0.673884 0 -0.00301238)
(0.6281 -5.48529e-24 -0.008052)
(0.622798 4.90188e-24 -0.00161948)
(0.639629 2.83227e-24 0.00327682)
(0.652206 1.65771e-25 0.00367583)
(0.623764 0 -0.00154987)
(0.615004 4.82911e-25 0.00153711)
(0.636618 0 0.00797704)
(0.663817 5.41873e-24 0.0054929)
(0.647358 -2.85274e-24 -0.00186398)
(0.653111 -2.86355e-24 0.00419645)
(0.655908 0 -0.00056315)
(0.645345 4.71938e-24 -0.000787618)
(0.624428 -4.24529e-24 -0.0112249)
(0.593878 0 -0.0101071)
(0.61785 2.81264e-24 -0.000540823)
(0.611622 7.94201e-25 -0.00102174)
(0.628327 -2.91675e-24 0.00919288)
(0.646154 4.46436e-28 0.00815254)
(0.647968 -5.20769e-24 0.00838663)
(0.663451 -4.5796e-28 0.00652279)
(0.671258 -1.21626e-25 -0.00146429)
(0.637227 8.06846e-24 -0.0142651)
(0.599123 -6.7e-24 -0.0113113)
(0.605166 0 -0.00289065)
(0.607171 0 0.00305911)
(0.635562 0 0.00710039)
(0.635267 1.96781e-24 0.00309239)
(0.65217 -1.0491e-24 0.00421102)
(0.654684 0 -0.00651241)
(0.61602 0 -0.0108015)
(0.601225 -6.56902e-24 -0.00718771)
(0.597611 0 0.00029948)
(0.626769 1.51948e-24 0.00788535)
(0.640307 6.51166e-24 0.00762473)
(0.66553 0 0.00342613)
(0.615993 -2.19883e-24 -0.0096661)
(0.614055 1.62233e-24 -0.000391283)
(0.618729 0 -0.0044922)
(0.617773 -2.53905e-24 0.0050727)
(0.633788 0 0.00609009)
(0.641835 -7.36803e-24 0.0121476)
(0.68654 2.83215e-24 0.00784176)
(0.639254 2.43949e-24 -0.0105556)
(0.641887 2.10948e-24 -0.00730714)
(0.597885 0 -0.0171658)
(0.599069 -4.79178e-28 -0.00211266)
(0.583548 -2.19511e-24 -0.0072095)
(0.596474 0 0.0134527)
(0.646825 5.6208e-24 0.0086279)
(0.623791 0 0.00076846)
(0.640659 -2.03402e-24 0.00324242)
(0.606863 0 -0.00268382)
(0.643654 -4.71864e-24 0.012253)
(0.645531 -1.18595e-25 0.00312066)
(0.666655 0 0.00717861)
(0.620839 4.00891e-24 -0.00955796)
(0.615576 1.45806e-24 0.00310954)
(0.632372 8.38312e-25 -0.0028042)
(0.622588 0 0.00392446)
(0.641801 0 0.00604938)
(0.643162 1.71222e-24 0.00760631)
(0.677582 3.91564e-25 0.00562892)
(0.629591 -5.59705e-24 -0.0089692)
(0.65463 -1.43792e-24 -0.00573245)
(0.58447 0 -0.0216183)
(0.590372 0 -0.00295953)
(0.573969 0 -0.0102931)
(0.608398 1.98334e-24 0.00950994)
(0.613972 2.36012e-24 -0.00687898)
(0.592668 1.0235e-23 0.00921459)
(0.644051 3.10109e-28 0.00570275)
(0.588424 -8.22459e-25 -0.00539868)
(0.645203 -5.64633e-24 0.00957394)
(0.599853 -1.68237e-24 -0.00381361)
(0.651085 0 0.0166351)
(0.63023 1.53001e-24 -0.00590863)
(0.626504 0 0.0105728)
(0.624341 5.26461e-24 -0.0065)
(0.62617 -4.8806e-24 0.00902362)
(0.632238 6.05956e-24 -0.011409)
(0.590698 -3.9634e-24 -0.00106654)
(0.630481 0 0.0060872)
(0.603415 -2.60208e-25 0.00212796)
(0.65406 9.29396e-24 0.0124621)
(0.612295 0 -0.00269088)
(0.661619 2.57769e-24 0.00951033)
(0.629481 1.47853e-23 -0.012636)
(0.643732 0 -0.000208175)
(0.571006 0 -0.0126924)
(0.611063 -7.13016e-24 0.0142067)
(0.61631 3.62505e-24 -0.00639977)
(0.613031 0 0.0141968)
(0.652916 5.4475e-25 -0.00198369)
(0.61461 0 -0.00571)
(0.630694 0 -0.00441655)
(0.596493 0 -0.00764767)
(0.617805 0 -0.000650392)
(0.545499 0 -0.00623853)
(0.637399 0 0.0149563)
(0.591577 0 -0.0105046)
(0.635646 0 0.0136374)
(0.604885 -1.42817e-23 -0.0121066)
(0.60562 2.22069e-24 0.015227)
(0.620486 2.35055e-27 -0.00253846)
(0.620618 0 0.0160922)
(0.64103 3.24681e-27 -0.00456894)
(0.607077 4.35031e-24 0.00331647)
(0.659723 0 0.00420036)
(0.61408 9.49069e-24 -0.0116566)
(0.615921 0 -0.00413233)
(0.58181 0 -0.00879637)
(0.614783 -1.32452e-24 0.00238649)
(0.569677 -1.21948e-24 -0.00606295)
(0.625316 3.32666e-24 0.0125857)
(0.621455 1.79189e-24 -0.00557172)
(0.63758 0 0.00317781)
(0.58493 0 -0.012081)
(0.615758 0 0.00388518)
(0.562058 1.77265e-24 -0.0105712)
(0.601743 2.60676e-24 0.0126667)
(0.592531 0 -0.0071248)
(0.596174 0 0.0162771)
(0.626256 1.69699e-24 0.00495256)
(0.634661 0 0.0118226)
(0.618723 2.52117e-24 -0.00590537)
(0.592994 7.09566e-25 0.00688046)
(0.644318 0 0.0101157)
(0.616617 0 -0.00192381)
(0.63303 -9.5748e-26 0.00119218)
(0.575235 0 -0.00875963)
(0.601205 0 0.00673908)
(0.582911 2.09367e-24 -0.00807175)
(0.556782 0 0.00576418)
(0.58747 0 0.0108832)
(0.606363 0 0.0152483)
(0.594471 -1.05923e-27 0.0134145)
(0.618322 0 0.022509)
(0.60375 2.61836e-24 0.0193801)
(0.635069 0 0.0336803)
(0.612485 0 0.0287128)
(0.664402 -1.09992e-24 0.0535623)
(0.618893 0 0.0435671)
(0.749016 -2.35478e-26 0.107347)
(0.889914 2.10982e-26 0.0889803)
(0.796464 -4.84755e-25 0.00972517)
(0.681921 3.30723e-27 0.00356342)
(0.635088 0 0.00156145)
(1.79256 0 0.0536381)
(1.73299 0 0.0366392)
(1.59333 0 0.0192324)
(1.46852 0 0.00965789)
(1.37904 0 0.00580162)
(1.31285 0 0.00415539)
(1.26267 0 0.00326436)
(1.22332 0 0.00273858)
(1.19139 0 0.00234262)
(1.16526 0 0.00201869)
(1.14267 0 0.00177253)
(1.12312 0 0.00157727)
(1.1059 0 0.00140066)
(1.09088 0 0.00124402)
(1.07751 0 0.00112342)
(1.06537 0 0.0010235)
(1.0544 0 0.000940647)
(1.04434 0 0.000863069)
(1.03523 0 0.000793031)
(1.02677 0 0.000736821)
(1.01892 0 0.00069107)
(1.01157 0 0.000648901)
(1.00473 0 0.000609324)
(0.998334 0 0.000571706)
(0.992339 0 0.000539661)
(0.986664 0 0.000511184)
(0.98132 2.55415e-38 0.000484786)
(0.976251 0 0.000461082)
(0.971456 -1.14353e-38 0.000436623)
(0.966917 -5.41614e-39 0.000416596)
(0.962575 0 0.000397466)
(0.958454 -1.95804e-38 0.000380841)
(0.954496 0 0.000364588)
(0.950732 8.03092e-38 0.000349253)
(0.947119 0 0.000334488)
(0.943668 0 0.000321706)
(0.94034 0 0.000309968)
(0.937148 5.99158e-38 0.000298332)
(0.934074 -2.3073e-37 0.000288302)
(0.93111 1.10909e-37 0.000277292)
(0.928265 1.06574e-37 0.000268034)
(0.925508 1.02773e-37 0.000259136)
(0.922851 1.97908e-37 0.000250753)
(0.920279 0 0.000243309)
(0.917786 0 0.000235317)
(0.915384 7.15884e-37 0.000228273)
(0.913043 -1.38107e-36 0.000220878)
(0.910794 0 0.00021515)
(0.908584 6.48482e-37 0.000208661)
(0.906468 -6.28491e-37 0.000203172)
(0.904381 -2.44339e-36 0.000197576)
(0.902383 0 0.000191931)
(0.900414 5.7486e-36 0.000186821)
(0.898526 -5.58588e-36 0.000181916)
(0.896659 0 0.00017729)
(0.894872 0 0.000172956)
(0.893097 0 0.000168454)
(0.891405 -3.99654e-36 0.000164666)
(0.88972 1.55413e-35 0.000160149)
(0.888125 7.57045e-36 0.000156281)
(0.886521 2.94629e-35 0.000152108)
(0.885012 3.58902e-35 0.000148405)
(0.883484 5.5852e-35 0.000144502)
(0.882057 0 0.000140956)
(0.880601 0 0.000137029)
(0.879256 0 0.000133643)
(0.877866 -7.53243e-35 0.000129919)
(0.8766 4.89368e-35 0.00012644)
(0.875276 4.76171e-35 0.000122807)
(0.874089 0 0.000118908)
(0.872836 -8.98887e-35 0.000115131)
(0.871731 -3.49136e-34 0.000110881)
(0.870552 8.4323e-35 0.00010669)
(0.869539 6.51606e-34 0.000102064)
(0.868441 0 9.75041e-05)
(0.867526 1.50512e-34 9.17041e-05)
(0.866525 -1.15597e-33 8.66231e-05)
(0.865724 0 7.92948e-05)
(0.86484 0 7.29215e-05)
(0.86418 1.91714e-33 6.35728e-05)
(0.863445 0 5.58944e-05)
(0.862955 0 4.28882e-05)
(0.862426 0 3.36679e-05)
(0.862146 2.32323e-33 1.41981e-05)
(0.861911 -2.54817e-33 1.55932e-06)
(0.861933 -2.47952e-33 -2.0237e-05)
(0.862082 4.33237e-33 -3.98449e-05)
(0.862469 -6.22068e-34 -7.71639e-05)
(0.8632 0 -0.000101921)
(0.864139 5.74713e-33 -0.000163251)
(0.865896 -3.90468e-32 -0.000198843)
(0.86758 -9.70935e-32 -0.00029818)
(0.870978 0 -0.000362204)
(0.873952 0 -0.000534698)
(0.880229 2.73833e-31 -0.00067752)
(0.885626 -3.36641e-30 -0.00108674)
(0.898876 5.48292e-29 -0.00122494)
(0.906833 0 -0.00361103)
(0.959994 2.26762e-26 -0.00394247)
(0.957487 3.43535e-23 -0.0635954)
(0.714179 0 -0.073527)
(0.664282 4.68245e-24 -0.0521832)
(0.664768 0 -0.0489633)
(0.65893 0 -0.0397087)
(0.670161 -8.23098e-29 -0.0365172)
(0.667524 1.9545e-24 -0.032277)
(0.681321 -2.31675e-28 -0.0281844)
(0.680264 0 -0.0263355)
(0.693756 -1.56163e-24 -0.022563)
(0.683906 2.92434e-24 -0.0211844)
(0.708263 -8.0582e-28 -0.0131265)
(0.714761 4.96096e-24 -0.0166886)
(0.721007 0 -0.0122619)
(0.733869 2.8599e-24 -0.0168386)
(0.715995 -9.69717e-24 -0.0222592)
(0.699458 1.96248e-23 -0.0189586)
(0.697416 -3.24247e-24 -0.012432)
(0.719013 1.47016e-24 -0.00704422)
(0.706903 0 -0.00816751)
(0.736024 0 -0.000552084)
(0.726945 2.85896e-24 -0.0115895)
(0.733245 0 -0.00325584)
(0.727311 0 -0.01213)
(0.732644 0 0.00433732)
(0.766373 -1.55125e-24 -0.00355713)
(0.734662 3.43187e-24 -0.0123151)
(0.739172 0 -0.00578504)
(0.707214 -2.98545e-24 -0.00976346)
(0.724293 -2.73632e-24 0.00417429)
(0.727343 4.42729e-24 -0.00499958)
(0.734079 4.46679e-24 0.00558334)
(0.739855 0 -0.00467669)
(0.73728 3.38875e-24 0.00338675)
(0.743883 -1.67921e-25 -0.000269469)
(0.742946 2.67057e-24 0.0108396)
(0.787099 0 0.00973874)
(0.745689 0 -0.0102979)
(0.732347 0 0.00266278)
(0.739879 2.92579e-25 -0.00363565)
(0.728753 0 0.00274783)
(0.750831 7.16265e-24 0.00661424)
(0.738321 -2.40711e-24 0.00452004)
(0.762295 -2.49084e-24 0.0173719)
(0.784451 0 0.0134987)
(0.793795 0 0.00576233)
(0.764289 1.3914e-24 -0.00564501)
(0.737638 0 -0.00250093)
(0.754781 7.33767e-24 0.00568937)
(0.750773 -8.83644e-28 0.0054397)
(0.76764 5.32369e-24 0.0154062)
(0.777925 6.12648e-24 0.0135747)
(0.800449 1.34431e-23 0.0136358)
(0.802192 1.1831e-24 -0.00221318)
(0.763269 7.15521e-28 -0.00795856)
(0.755373 6.2795e-24 -0.00137634)
(0.767472 -2.65777e-24 0.00338373)
(0.779034 1.06891e-25 0.00360836)
(0.755254 0 -0.00192095)
(0.743591 4.52834e-25 0.00181795)
(0.760756 -4.44232e-24 0.00904041)
(0.789117 0 0.00657077)
(0.778379 -2.45505e-24 -0.00107976)
(0.783593 0 0.00442796)
(0.786028 0 -0.00128598)
(0.777494 3.97518e-24 -0.00121362)
(0.755786 0 -0.0122223)
(0.724357 0 -0.011057)
(0.740988 4.35422e-24 -0.000249553)
(0.736382 0 -0.00116428)
(0.752165 0 0.0097249)
(0.771206 1.91264e-24 0.00868215)
(0.774044 -4.59505e-24 0.00910502)
(0.789682 -2.91595e-24 0.00739468)
(0.799933 -4.83366e-26 -0.000880501)
(0.772026 6.70344e-24 -0.0151776)
(0.730796 0 -0.0126196)
(0.732296 0 -0.00418501)
(0.732583 0 0.00259126)
(0.757888 0 0.00742991)
(0.759675 8.98528e-25 0.00338614)
(0.776028 -1.14083e-24 0.00460977)
(0.779684 0 -0.00666729)
(0.748971 0 -0.0113678)
(0.729297 -5.987e-24 -0.00815835)
(0.723496 -4.40282e-25 -0.000203873)
(0.748391 0 0.00779098)
(0.763153 2.61984e-24 0.00759403)
(0.786844 0 0.00396601)
(0.748205 -2.9246e-27 -0.0100317)
(0.741839 0 -3.1942e-05)
(0.745247 -2.47115e-25 -0.00451111)
(0.743981 2.3768e-24 0.00548572)
(0.758401 0 0.00628202)
(0.767468 0 0.0126232)
(0.807646 2.65972e-24 0.00868362)
(0.773759 2.27079e-24 -0.0114367)
(0.773322 0 -0.00762177)
(0.728641 0 -0.0186474)
(0.726582 -9.21311e-25 -0.00292674)
(0.70921 -9.44952e-25 -0.00834541)
(0.716995 0 0.0137475)
(0.765199 5.22056e-24 0.00960594)
(0.750034 0 0.00128772)
(0.762227 -9.64161e-28 0.00445729)
(0.736765 0 -0.00227252)
(0.767602 4.73388e-27 0.0132701)
(0.771426 -7.91645e-26 0.0030852)
(0.791798 -2.00151e-24 0.00780162)
(0.751714 3.71664e-24 -0.010142)
(0.743592 3.55115e-25 0.00427522)
(0.758843 0 -0.00240741)
(0.750176 0 0.00453732)
(0.767963 0 0.00654932)
(0.770773 1.14595e-24 0.00759046)
(0.800837 1.57433e-25 0.00560129)
(0.764565 0 -0.0104136)
(0.782295 -1.54833e-24 -0.0059431)
(0.71718 0 -0.0232413)
(0.715536 4.53807e-25 -0.00382046)
(0.698745 0 -0.011946)
(0.727953 -2.0243e-24 0.00992974)
(0.73591 0 -0.00812421)
(0.715449 0 0.00979899)
(0.762416 2.04545e-24 0.00682598)
(0.72265 0 -0.0053025)
(0.759075 -3.62919e-24 0.0106623)
(0.730229 -1.55494e-24 -0.00367939)
(0.77067 0 0.0172242)
(0.75901 -6.92069e-28 -0.00628457)
(0.752766 0 0.0113269)
(0.750333 4.45807e-24 -0.00690129)
(0.750578 0 0.0101459)
(0.75773 5.33832e-24 -0.0119672)
(0.719047 0 -0.000738226)
(0.753094 0 0.00693816)
(0.733964 -1.81714e-25 0.00186423)
(0.769168 1.66986e-23 0.0131686)
(0.743954 1.09595e-24 -0.00229539)
(0.780741 0 0.010371)
(0.761317 -2.46486e-27 -0.0129906)
(0.769733 7.4384e-26 -1.01455e-05)
(0.704757 0 -0.01447)
(0.731389 -3.33583e-24 0.0147756)
(0.739226 2.43667e-24 -0.00776908)
(0.735671 0 0.0155432)
(0.774899 5.3864e-25 -0.0017843)
(0.741666 0 -0.00594406)
(0.753334 0 -0.00467067)
(0.726353 0 -0.00876875)
(0.739027 0 -0.000560675)
(0.68296 0 -0.00798592)
(0.746064 0 0.0151148)
(0.719192 0 -0.0105116)
(0.75187 0 0.0147451)
(0.732154 -7.25753e-24 -0.0126997)
(0.729068 0 0.016831)
(0.743684 -2.55213e-25 -0.00312901)
(0.743194 -6.427e-24 0.0173947)
(0.764151 -1.55932e-24 -0.00477415)
(0.73317 2.20304e-24 0.0039638)
(0.776834 0 0.00466989)
(0.746015 0 -0.0124057)
(0.743008 0 -0.00449891)
(0.71132 -3.72714e-24 -0.00967874)
(0.731045 -3.46182e-25 0.0024312)
(0.69655 -1.23969e-24 -0.00696458)
(0.743285 2.81733e-24 0.0136396)
(0.743967 1.85677e-24 -0.0065063)
(0.758743 0 0.00365698)
(0.715388 -2.27652e-24 -0.0131157)
(0.734009 0 0.00403175)
(0.688251 1.94062e-24 -0.0119418)
(0.717708 9.88723e-25 0.0132193)
(0.714387 -3.76038e-24 -0.00697496)
(0.716014 0 0.0184253)
(0.745481 0 0.00602417)
(0.755748 0 0.0135178)
(0.744989 2.78152e-24 -0.00604025)
(0.719215 0 0.00794862)
(0.762754 0 0.0111854)
(0.745311 0 -0.00161733)
(0.755986 -4.34887e-26 0.00189016)
(0.707348 0 -0.00906803)
(0.720576 0 0.00718666)
(0.705835 3.66266e-27 -0.00860499)
(0.68078 -1.09794e-25 0.00691166)
(0.702586 -9.3684e-25 0.0123718)
(0.724223 0 0.017817)
(0.71518 1.42645e-24 0.0160299)
(0.737585 0 0.0265103)
(0.726139 0 0.0232419)
(0.755594 0 0.0396064)
(0.737666 0 0.034314)
(0.786009 0 0.0628268)
(0.747827 4.38999e-24 0.0514667)
(0.864393 2.50748e-23 0.116774)
(1.01317 1.72702e-23 0.0971724)
(0.964781 -5.41924e-25 0.017145)
(0.860236 5.29877e-27 0.00756948)
(0.788558 0 0.00382288)
(1.81929 0 0.0517659)
(1.81904 0 0.0393096)
(1.77529 0 0.0256073)
(1.68193 0 0.0157438)
(1.59188 0 0.0106345)
(1.51468 0 0.00790674)
(1.45128 0 0.00619254)
(1.39989 0 0.00506981)
(1.35846 0 0.00423185)
(1.32433 0 0.00358883)
(1.29547 0 0.00310828)
(1.27103 0 0.0027334)
(1.24967 0 0.0024123)
(1.23111 0 0.00213676)
(1.21458 0 0.00192899)
(1.19959 0 0.00175306)
(1.18614 0 0.00160231)
(1.17387 0 0.00146433)
(1.16278 0 0.00134293)
(1.15251 0 0.00124618)
(1.143 0 0.00116453)
(1.13417 0 0.0010896)
(1.12597 0 0.00102024)
(1.11832 0 0.000956038)
(1.11115 0 0.000901236)
(1.10438 0 0.000852247)
(1.09802 2.60449e-38 0.000806716)
(1.09201 0 0.000765786)
(1.08633 4.66368e-38 0.00072472)
(1.08096 7.72604e-38 0.000690715)
(1.07582 0 0.000658385)
(1.07096 -1.9939e-38 0.000629837)
(1.0663 0 0.000602265)
(1.06188 -2.17966e-37 0.000576266)
(1.05763 0 0.00055174)
(1.05358 0 0.000530124)
(1.04968 2.54309e-37 0.000510312)
(1.04594 0 0.000490717)
(1.04235 -7.02912e-37 0.00047361)
(1.03889 -9.01434e-37 0.000455457)
(1.03557 0 0.000439876)
(1.03236 0 0.000425076)
(1.02926 0 0.000410982)
(1.02627 0 0.000398451)
(1.02337 0 0.000385155)
(1.02059 3.62677e-36 0.000373436)
(1.01787 -4.19813e-36 0.000361281)
(1.01526 0 0.000351566)
(1.0127 -5.25173e-36 0.000340905)
(1.01025 5.08517e-36 0.000331652)
(1.00784 2.47067e-36 0.000322368)
(1.00553 -9.5882e-36 0.000313104)
(1.00325 4.64896e-36 0.000304628)
(1.00107 -4.51654e-36 0.000296553)
(0.998916 -1.7537e-35 0.000288837)
(0.996853 0 0.000281683)
(0.994808 -3.31918e-35 0.000274223)
(0.992858 0 0.000267672)
(0.990915 1.5773e-35 0.000260208)
(0.989075 0 0.000253857)
(0.987227 2.99013e-35 0.00024707)
(0.985485 -2.91457e-35 0.000241033)
(0.983726 1.70143e-34 0.000234633)
(0.98208 0 0.000228882)
(0.980403 -1.07708e-34 0.000222494)
(0.978852 2.10146e-34 0.000217017)
(0.977253 -1.02305e-34 0.00021095)
(0.975791 0 0.000205376)
(0.97427 3.89164e-34 0.00019945)
(0.972897 -3.79433e-34 0.000193307)
(0.971456 0 0.000187149)
(0.970178 -3.59778e-34 0.00018053)
(0.96882 0 0.000173755)
(0.967642 6.77649e-34 0.000166549)
(0.966374 1.31865e-33 0.000159232)
(0.965306 0 0.000150306)
(0.964145 -3.70027e-33 0.000142131)
(0.9632 -2.36932e-33 0.000130995)
(0.962168 0 0.000120833)
(0.961374 6.47763e-33 0.000106654)
(0.960503 -4.15928e-33 9.44539e-05)
(0.959891 0 7.48729e-05)
(0.959239 0 6.00427e-05)
(0.958853 -9.93001e-33 3.13298e-05)
(0.958503 -5.74633e-33 1.14177e-05)
(0.958435 -3.16452e-33 -2.4526e-05)
(0.958523 -8.71757e-33 -5.24064e-05)
(0.958833 8.56074e-33 -0.000107997)
(0.959493 2.7077e-32 -0.000147163)
(0.960393 0 -0.000240561)
(0.96213 6.82487e-33 -0.000295347)