/*--------------------------------*- C++ -*----------------------------------*\
| =========                 |                                                 |
| \\      /  F ield         | foam-extend: Open Source CFD                    |
|  \\    /   O peration     | Version:     3.2                                |
|   \\  /    A nd           | Web:         http://www.foam-extend.org         |
|    \\/     M anipulation  | For copyright notice see file Copyright         |
\*---------------------------------------------------------------------------*/
FoamFile
{
    version     2.0;
    format      ascii;
    class       areaVectorField;
    location    "160";
    object      Ub2;
}
// * * * * * * * * * * * * * * * * * * * * * * * * * * * * * * * * * * * * * //

dimensions      [0 1 -1 0 0 0 0];

internalField   nonuniform List<vector> 
300
(
(1.94961 0 0)
(1.70115 0 0)
(1.35641 0 0)
(1.19512 0 0)
(1.12979 0 0)
(1.09436 0 0)
(1.06816 0 0)
(1.04483 0 0)
(1.023 0 0)
(1.0029 0 0)
(0.9847 0 0)
(0.968219 0 0)
(0.953132 0 0)
(0.939523 0 0)
(0.927154 0 0)
(0.915806 0 0)
(0.905339 0 0)
(0.895599 0 0)
(0.886614 0 0)
(0.878363 0 0)
(0.870653 0 0)
(0.863364 0 0)
(0.856481 0 0)
(0.849981 0 0)
(0.843855 0 0)
(0.838026 0 0)
(0.832493 0 0)
(0.827206 0 0)
(0.822178 0 0)
(0.817392 0 0)
(0.812806 0 0)
(0.808418 0 0)
(0.804195 0 0)
(0.800149 0 0)
(0.796259 -2.4937e-39 0)
(0.79253 0 0)
(0.788922 0 0)
(0.78545 0 0)
(0.78209 -2.10254e-39 0)
(0.778845 -2.0114e-39 0)
(0.775718 0 0)
(0.772684 7.45173e-39 0)
(0.769752 7.16812e-39 0)
(0.766902 0 0)
(0.764139 0 0)
(0.761461 0 0)
(0.758861 0 0)
(0.756341 -2.41282e-38 0)
(0.753877 -2.3292e-38 0)
(0.751495 -4.51888e-38 0)
(0.749159 0 0)
(0.746902 0 0)
(0.744692 0 0)
(0.74255 -7.98491e-38 0)
(0.740451 0 0)
(0.738414 0 0)
(0.736414 0 0)
(0.734475 2.79961e-37 0)
(0.732546 0 0)
(0.730691 0 0)
(0.728849 0 0)
(0.727088 0 0)
(0.725332 0 0)
(0.723659 0 0)
(0.721986 -9.04798e-37 0)
(0.720403 -8.80299e-37 0)
(0.718807 0 0)
(0.717311 1.65615e-36 0)
(0.715792 0 0)
(0.714383 0 0)
(0.712948 0 0)
(0.711632 5.74799e-36 0)
(0.710285 0 0)
(0.709072 5.25107e-36 0)
(0.70782 0 0)
(0.706721 0 0)
(0.705584 8.88222e-36 0)
(0.704617 0 0)
(0.703622 0 0)
(0.702821 0 0)
(0.702002 0 0)
(0.701407 0 0)
(0.700829 -3.15403e-35 0)
(0.700495 0 0)
(0.700271 -5.52398e-36 0)
(0.700257 0 0)
(0.700446 1.38068e-34 0)
(0.700959 0 0)
(0.701802 -3.4909e-34 0)
(0.703017 -1.25153e-33 0)
(0.704883 2.74056e-33 0)
(0.707151 0 0)
(0.710713 -1.02491e-32 0)
(0.714659 0 0)
(0.721455 0 0)
(0.728685 -2.38809e-31 0)
(0.744138 0 0)
(0.750875 0 0)
(0.830179 -1.67809e-26 0)
(0.808569 4.60649e-20 -0.0723559)
(0.496847 3.37302e-20 -0.0626954)
(0.47226 -1.76466e-20 -0.0347175)
(0.494784 5.38336e-24 -0.0353421)
(0.491549 -1.163e-22 -0.0280297)
(0.506588 -1.33283e-21 -0.026608)
(0.503205 0 -0.0230531)
(0.515822 2.89979e-24 -0.0202029)
(0.51537 0 -0.0188451)
(0.526547 2.7884e-24 -0.0168086)
(0.263658 0 -0.00807423)
(0.278069 0 -0.00442717)
(0.279158 -2.45388e-24 -0.00673364)
(0.544036 0 -0.0076599)
(0.287823 -2.03204e-24 -0.00585416)
(0.538506 -6.77026e-21 -0.0166299)
(0.521137 -8.22858e-21 -0.0136113)
(0.519032 4.14062e-21 -0.00837248)
(0.551119 -1.58275e-21 -0.00709787)
(0.524357 -2.67455e-23 -0.00819268)
(0.556713 -9.32919e-26 0.000345028)
(0.54122 0 -0.00972457)
(0.551443 3.07254e-25 0.00117815)
(0.548685 0 -0.00722582)
(0.549799 -9.5981e-22 0.00834576)
(0.606629 0 -0.00313915)
(0.546941 4.33246e-24 -0.0113674)
(0.55755 -4.57379e-23 -0.00590026)
(0.512844 0 -0.0110927)
(0.533876 1.15383e-21 0.00347031)
(0.54378 1.29513e-21 -0.00560919)
(0.543786 1.97381e-24 0.00648118)
(0.557326 -1.04251e-24 -0.00222625)
(0.55534 0 0.00652271)
(0.569994 -1.57063e-25 -0.000499796)
(0.559729 -6.21801e-24 0.00822248)
(0.620835 0 0.00432729)
(0.549429 -5.19532e-24 -0.0133313)
(0.525175 0 0.00266008)
(0.546854 -6.90013e-25 -0.00298152)
(0.531296 -2.63245e-24 0.00576628)
(0.577453 0 0.00877082)
(0.558914 2.62171e-21 0.00354238)
(0.58343 0 0.0132669)
(0.29275 0 0.00401462)
(0.290714 1.95977e-22 0.000795469)
(0.570517 4.16345e-21 -0.00666598)
(0.536062 3.10846e-22 0.000761307)
(0.574211 -2.7822e-24 0.0089592)
(0.576057 -2.86992e-24 0.00446562)
(0.588998 0 0.0105365)
(0.296543 0 0.00410191)
(0.318338 -2.27305e-24 0.00558438)
(0.327322 -6.85007e-22 -0.00200174)
(0.565704 4.1875e-21 -0.00590283)
(0.568955 0 0.00346827)
(0.59504 1.99734e-21 0.00451786)
(0.605624 -3.5614e-22 -0.00132219)
(0.562358 -1.41523e-24 -0.00687964)
(0.542806 6.07849e-22 0.000939495)
(0.578185 -3.27443e-24 0.0104965)
(0.319417 9.34062e-22 0.00505219)
(0.600632 -8.40948e-25 0.00189309)
(0.610812 2.37909e-21 0.00448392)
(0.612473 1.17566e-21 -0.00568881)
(0.296096 0 -0.00287098)
(0.560805 0 -0.0121332)
(0.52664 0 -0.0056512)
(0.560421 5.89757e-22 0.0044352)
(0.561982 2.18513e-22 0.000784263)
(0.57563 0 0.0090272)
(0.596879 0 0.00405688)
(0.301026 -1.78019e-21 0.00246751)
(0.319055 2.19274e-21 0.00370254)
(0.336873 -2.4933e-23 0.000394895)
(0.580998 -2.71106e-24 -0.012855)
(0.546441 -6.60097e-21 -0.00991633)
(0.551593 -1.89424e-24 -0.00331722)
(0.550973 0 0.00057037)
(0.576964 0 0.00457089)
(0.282678 0 0.000947562)
(0.296814 0 0.00280947)
(0.311691 0 -0.00245039)
(0.557833 -3.88761e-25 -0.00843737)
(0.542742 -1.94377e-24 -0.00552667)
(0.539451 0 0.000753398)
(0.573108 -3.8099e-23 0.00556611)
(0.286689 6.45445e-22 0.00215829)
(0.31385 0 0.000431029)
(0.548539 7.93867e-21 -0.010171)
(0.546916 1.4827e-21 0.0037435)
(0.564415 0 -0.000863606)
(0.561587 -1.92429e-21 0.0057619)
(0.583409 0 0.00282834)
(0.287566 0 0.00463594)
(0.346305 0 0.00309501)
(0.295247 0 -0.00580967)
(0.286216 -1.00872e-24 -0.00194409)
(0.543072 -1.55518e-20 -0.0149211)
(0.535296 -5.45586e-22 -0.00141914)
(0.522049 0 -0.0100924)
(0.522488 3.16981e-24 0.0121892)
(0.28901 0 0.00341025)
(0.549719 0 0.000837081)
(0.580309 0 0.00602908)
(0.550049 0 0.000839292)
(0.591364 0 0.0140711)
(0.601007 -1.62982e-22 -0.0011893)
(0.316651 -6.80612e-22 0.00133996)
(0.554457 0 -0.0115938)
(0.543543 -2.81944e-21 0.00798391)
(0.578369 0 0.00104316)
(0.566425 1.53369e-21 0.00617916)
(0.595904 -2.0158e-21 0.0055722)
(0.594979 2.84667e-24 0.00435745)
(0.349979 -8.30856e-26 0.000301964)
(0.285201 0 -0.00584125)
(0.304629 -1.07207e-21 -0.00239891)
(0.523499 1.90233e-20 -0.0201211)
(0.518403 0 0.00145527)
(0.516692 4.30642e-21 -0.00828673)
(0.545765 0 0.0109136)
(0.559141 0 -0.0116982)
(0.512841 1.66009e-21 0.00723569)
(0.286762 0 0.00245069)
(0.508049 7.89605e-25 -0.00226228)
(0.583207 2.13453e-24 0.0140587)
(0.548647 0 -0.00317109)
(0.595881 0 0.0166687)
(0.578621 0 -0.012255)
(0.552417 -4.54759e-24 0.00728356)
(0.558429 -6.62283e-21 -0.00873911)
(0.551793 0 0.0104097)
(0.290819 0 -0.00500427)
(0.518874 -6.63047e-22 0.00309231)
(0.581086 0 0.00624186)
(0.535607 1.77643e-23 -0.00122706)
(0.302706 3.59296e-21 0.00490486)
(0.548326 7.70217e-25 -0.00301265)
(0.318101 -3.02737e-21 0.00767567)
(0.581789 0 -0.010649)
(0.580368 0 9.29333e-05)
(0.516512 -1.7695e-20 -0.0155091)
(0.542096 3.26626e-21 0.013327)
(0.274768 0 -0.00551808)
(0.534685 0 0.0141159)
(0.315967 -5.20272e-22 -0.000993003)
(0.547328 -1.22278e-21 -0.00301265)
(0.57502 5.68949e-22 -0.00163189)
(0.53061 -5.62619e-21 -0.00771632)
(0.561953 9.49174e-22 -0.00428328)
(0.467314 0 -0.00862961)
(0.561685 3.42902e-24 0.0166311)
(0.531056 7.38318e-21 -0.0086541)
(0.568922 -3.77494e-21 0.0177696)
(0.549198 -1.88033e-20 -0.0138628)
(0.531535 0 0.0154673)
(0.561042 0 -0.0069661)
(0.544054 -9.88723e-22 0.0134992)
(0.301351 6.61791e-22 -0.00382877)
(0.526568 9.46695e-22 0.00532478)
(0.322451 -5.58575e-22 0.00386301)
(0.552164 3.1189e-24 -0.0103082)
(0.54505 0 -0.00285195)
(0.515566 -2.81016e-21 -0.00769792)
(0.549758 0 0.00350165)
(0.505003 -1.14366e-21 -0.00538687)
(0.559969 5.43214e-21 0.0161542)
(0.568919 0 -0.00599884)
(0.572828 0 0.0032321)
(0.52345 0 -0.0128431)
(0.540316 -5.62863e-25 0.00466429)
(0.496458 0 -0.0110607)
(0.5266 0 0.0145266)
(0.52657 -3.48988e-21 -0.00781882)
(0.518529 5.57625e-21 0.018457)
(0.56906 6.44916e-25 0.00559899)
(0.57216 0 0.0116051)
(0.559311 4.54585e-21 -0.00786774)
(0.516131 -1.7012e-21 0.00855734)
(0.58773 0 0.0109082)
(0.552733 2.63893e-25 -0.00233138)
(0.568952 -5.272e-26 0.000577607)
(0.509802 0 -0.00940046)
(0.528817 0 0.00753874)
(0.515517 4.59616e-26 -0.0100336)
(0.465701 0 0.00640671)
(0.515447 0 0.0116459)
(0.538363 -3.01863e-24 0.0142685)
(0.522853 -9.4316e-22 0.0122899)
(0.549309 -3.3101e-23 0.0213122)
(0.532574 1.87185e-21 0.0174912)
(0.568181 0 0.0316797)
(0.540514 0 0.0256905)
(0.601577 3.7943e-21 0.0504942)
(0.551225 3.17547e-21 0.0401103)
(0.686727 -7.78619e-20 0.109594)
(0.909451 -2.17131e-23 0.0888856)
(0.787705 0 0)
(0.624261 0 0)
(0.579636 0 0)
)
;

boundaryField
{
    inlet
    {
        type            calculated;
        value           uniform (0 0 0);
    }
    outlet
    {
        type            calculated;
        value           uniform (0 0 0);
    }
    sideWall
    {
        type            empty;
    }
}


// ************************************************************************* //
