/*--------------------------------*- C++ -*----------------------------------*\
| =========                 |                                                 |
| \\      /  F ield         | foam-extend: Open Source CFD                    |
|  \\    /   O peration     | Version:     3.2                                |
|   \\  /    A nd           | Web:         http://www.foam-extend.org         |
|    \\/     M anipulation  | For copyright notice see file Copyright         |
\*---------------------------------------------------------------------------*/
FoamFile
{
    version     2.0;
    format      ascii;
    class       areaScalarField;
    location    "160";
    object      Uf;
}
// * * * * * * * * * * * * * * * * * * * * * * * * * * * * * * * * * * * * * //

dimensions      [0 1 -1 0 0 0 0];

internalField   nonuniform List<scalar> 
300
(
0.231291
0.206404
0.171915
0.155785
0.149252
0.14571
0.143089
0.140756
0.138574
0.136563
0.134743
0.133095
0.131587
0.130226
0.128989
0.127854
0.126807
0.125833
0.124935
0.12411
0.123339
0.12261
0.121921
0.121272
0.120659
0.120076
0.119523
0.118994
0.118491
0.118013
0.117554
0.117115
0.116693
0.116288
0.115899
0.115526
0.115166
0.114818
0.114482
0.114158
0.113845
0.113542
0.113249
0.112964
0.112687
0.112419
0.112159
0.111907
0.111661
0.111423
0.111189
0.110964
0.110743
0.110528
0.110318
0.110115
0.109915
0.109721
0.109528
0.109343
0.109158
0.108982
0.108807
0.108639
0.108472
0.108314
0.108154
0.108004
0.107853
0.107712
0.107568
0.107437
0.107302
0.107181
0.107055
0.106945
0.106832
0.106735
0.106636
0.106555
0.106474
0.106414
0.106356
0.106323
0.1063
0.106299
0.106318
0.106369
0.106453
0.106575
0.106762
0.106988
0.107344
0.107739
0.108419
0.109141
0.110686
0.11136
0.11929
0.114798
0.0825116
0.081469
0.0837855
0.0838562
0.0854876
0.0853349
0.0867831
0.086813
0.0880707
0.0868867
0.0897144
0.0899965
0.0901985
0.0921259
0.0892366
0.0876571
0.0877619
0.0910598
0.0882292
0.091879
0.0898122
0.0913111
0.0907229
0.091675
0.0968315
0.0904244
0.0917604
0.0870007
0.0898697
0.090253
0.0908605
0.091807
0.0921213
0.0932763
0.0927023
0.0985201
0.0905793
0.0888466
0.0906709
0.0895695
0.09444
0.0923835
0.095304
0.0975924
0.0966338
0.0928898
0.0898006
0.0941119
0.0941347
0.0957284
0.0966262
0.0984265
0.0979224
0.0924471
0.0933136
0.0960207
0.0968361
0.0922443
0.0905334
0.0943734
0.0977276
0.0964242
0.0976116
0.0973194
0.0941481
0.09167
0.0885198
0.0924911
0.0925138
0.0943307
0.0962123
0.0955306
0.0971053
0.0981748
0.0937475
0.0904195
0.0913108
0.0914542
0.0940777
0.0939511
0.0954616
0.0960685
0.091605
0.0902648
0.0902978
0.0939024
0.094895
0.0971213
0.0905607
0.0910442
0.0926567
0.0927602
0.094798
0.0949192
0.100002
0.0935567
0.0936789
0.0898109
0.0897632
0.0879875
0.0891107
0.0957001
0.0911643
0.0944972
0.0913091
0.0961197
0.0963678
0.0967588
0.091058
0.0908744
0.0941099
0.0932162
0.0961565
0.0960179
0.0991687
0.0918787
0.0948145
0.0874902
0.088162
0.0874906
0.0914522
0.0916559
0.0878408
0.0949743
0.0868269
0.095226
0.0909638
0.0966895
0.0936104
0.0918923
0.091581
0.09186
0.0930554
0.0883235
0.094729
0.0898271
0.0955788
0.0907942
0.096904
0.0939052
0.0943237
0.0871227
0.0912185
0.0912382
0.0903675
0.0955837
0.090795
0.0936931
0.0889748
0.0923096
0.082406
0.0931161
0.0887795
0.0940041
0.090492
0.090272
0.0920721
0.0913567
0.0935738
0.0890631
0.0964762
0.0909627
0.0906543
0.0874357
0.0914413
0.0864875
0.0930896
0.0928883
0.0937332
0.087957
0.0905686
0.0853126
0.0897149
0.0885331
0.089136
0.0934672
0.0940862
0.0918401
0.088362
0.0955799
0.091459
0.0932265
0.0867668
0.0895707
0.0873057
0.0832444
0.0884674
0.0908735
0.0892392
0.0923215
0.0904786
0.0946995
0.0916944
0.0988739
0.0934979
0.109803
0.130219
0.115076
0.0987268
0.0942628
)
;

boundaryField
{
    inlet
    {
        type            calculated;
        value           uniform 0;
    }
    outlet
    {
        type            calculated;
        value           uniform 0;
    }
    sideWall
    {
        type            empty;
    }
}


// ************************************************************************* //
