/*--------------------------------*- C++ -*----------------------------------*\
| =========                 |                                                 |
| \\      /  F ield         | foam-extend: Open Source CFD                    |
|  \\    /   O peration     | Version:     3.2                                |
|   \\  /    A nd           | Web:         http://www.foam-extend.org         |
|    \\/     M anipulation  | For copyright notice see file Copyright         |
\*---------------------------------------------------------------------------*/
FoamFile
{
    version     2.0;
    format      ascii;
    class       areaScalarField;
    location    "160";
    object      Uf2;
}
// * * * * * * * * * * * * * * * * * * * * * * * * * * * * * * * * * * * * * //

dimensions      [0 1 -1 0 0 0 0];

internalField   nonuniform List<scalar> 
300
(
0.132756
0.0866851
0.0682514
0.0629461
0.0610066
0.0597607
0.0587444
0.0577914
0.0568828
0.0560457
0.0552983
0.0546238
0.0540038
0.0534484
0.0529438
0.052482
0.0520558
0.0516578
0.0512919
0.0509602
0.0506499
0.0503553
0.0500767
0.0498135
0.0495661
0.04933
0.0491063
0.0488916
0.0486878
0.048494
0.048308
0.0481302
0.0479586
0.0477944
0.0476364
0.0474853
0.0473385
0.0471977
0.0470609
0.046929
0.046802
0.0466785
0.0465594
0.0464433
0.0463309
0.0462219
0.0461161
0.0460136
0.0459131
0.0458164
0.0457209
0.0456292
0.0455391
0.045452
0.0453664
0.0452835
0.0452019
0.0451231
0.0450439
0.0449687
0.044893
0.0448218
0.0447497
0.0446822
0.0446135
0.0445499
0.0444843
0.0444246
0.044362
0.0443062
0.0442472
0.0441956
0.0441404
0.0440935
0.0440424
0.0440009
0.043955
0.0439197
0.0438803
0.043853
0.0438219
0.0438047
0.0437853
0.0437804
0.0437798
0.043789
0.0438081
0.0438456
0.0438984
0.0439706
0.0440764
0.0442004
0.044398
0.044603
0.0449827
0.045349
0.0462562
0.0463673
0.0516401
0.0476061
0.0238207
0.0288542
0.0320579
0.0322954
0.0339812
0.0338527
0.0351368
0.0350918
0.0362371
0.0351798
0.0369635
0.0365245
0.0364403
0.037885
0.0355155
0.0351377
0.0358715
0.0384159
0.0357547
0.0386041
0.0361573
0.0370062
0.0364557
0.0376886
0.0419144
0.0363512
0.038256
0.0347947
0.0375279
0.0369649
0.036769
0.0373537
0.0377673
0.0390751
0.0385615
0.0428677
0.0361135
0.0353535
0.0366709
0.0353668
0.0398347
0.0381465
0.0405127
0.0415981
0.0401308
0.0370158
0.0349906
0.0390958
0.0393145
0.0405494
0.0407396
0.0410826
0.0402509
0.0360553
0.0377939
0.0404134
0.0411226
0.037708
0.0363777
0.0384321
0.0403279
0.0396443
0.0412779
0.0410455
0.0383751
0.0366612
0.0343732
0.0378478
0.0380153
0.0398634
0.0409933
0.039478
0.0399173
0.040466
0.0375263
0.0361425
0.0378648
0.0379902
0.03935
0.0382559
0.0391423
0.039565
0.0362897
0.0364291
0.0371428
0.0398914
0.0397937
0.0409729
0.0355274
0.0363657
0.0380547
0.0385721
0.0401423
0.0395451
0.042787
0.0369616
0.037802
0.0357165
0.0368175
0.0358883
0.0366836
0.0409355
0.0360021
0.0390006
0.0366245
0.0410906
0.0407614
0.0404974
0.0360349
0.0361313
0.0386561
0.0380706
0.0407246
0.0402538
0.0426212
0.0364735
0.039259
0.0336548
0.0352941
0.0351568
0.038639
0.0385675
0.0350224
0.040311
0.0328862
0.0402731
0.0364025
0.041735
0.0390826
0.0379821
0.0374965
0.0370973
0.038141
0.0348844
0.040911
0.0363884
0.0407925
0.0357174
0.0404557
0.037819
0.0391721
0.0342401
0.0385228
0.0382002
0.0366562
0.0399825
0.0358537
0.0391938
0.0358909
0.0394481
0.0307414
0.039503
0.0348819
0.0393737
0.0367172
0.0372978
0.0388893
0.037886
0.0391969
0.0347139
0.0405893
0.0362966
0.0372636
0.0349785
0.0385183
0.0341915
0.0395272
0.0387034
0.0392965
0.0350232
0.0379057
0.0337075
0.0375599
0.0363568
0.0366254
0.0397198
0.03959
0.0379396
0.0353807
0.0411239
0.0372876
0.0392257
0.0342461
0.0372607
0.0355937
0.0326387
0.0372284
0.0382464
0.0365935
0.0390207
0.0371603
0.0404137
0.0375181
0.042952
0.0379676
0.049723
0.0602571
0.0467093
0.0375108
0.0372204
)
;

boundaryField
{
    inlet
    {
        type            calculated;
        value           uniform 0;
    }
    outlet
    {
        type            calculated;
        value           uniform 0;
    }
    sideWall
    {
        type            empty;
    }
}


// ************************************************************************* //
