/*--------------------------------*- C++ -*----------------------------------*\
| =========                 |                                                 |
| \\      /  F ield         | foam-extend: Open Source CFD                    |
|  \\    /   O peration     | Version:     3.2                                |
|   \\  /    A nd           | Web:         http://www.foam-extend.org         |
|    \\/     M anipulation  | For copyright notice see file Copyright         |
\*---------------------------------------------------------------------------*/
FoamFile
{
    version     2.0;
    format      ascii;
    class       areaVectorField;
    location    "160";
    object      uNormal;
}
// * * * * * * * * * * * * * * * * * * * * * * * * * * * * * * * * * * * * * //

dimensions      [0 0 0 0 0 0 0];

internalField   nonuniform List<vector> 
300
(
(-0 -0 1)
(-0 -0 1)
(-0 -0 1)
(-0 -0 1)
(-0 -0 1)
(-0 -0 1)
(-0 -0 1)
(-0 -0 1)
(-0 -0 1)
(-0 -0 1)
(-0 -0 1)
(-0 -0 1)
(-0 -0 1)
(-0 -0 1)
(-0 -0 1)
(-0 -0 1)
(-0 -0 1)
(-0 -0 1)
(-0 -0 1)
(-0 -0 1)
(-0 -0 1)
(-0 -0 1)
(-0 -0 1)
(-0 -0 1)
(-0 -0 1)
(-0 -0 1)
(-0 -0 1)
(-0 -0 1)
(-0 -0 1)
(-0 -0 1)
(-0 -0 1)
(-0 -0 1)
(-0 -0 1)
(-0 -0 1)
(-0 -0 1)
(-0 -0 1)
(-0 -0 1)
(-0 -0 1)
(-0 -0 1)
(-0 -0 1)
(-0 -0 1)
(-0 -0 1)
(-0 -0 1)
(-0 -0 1)
(-0 -0 1)
(-0 -0 1)
(-0 -0 1)
(-0 -0 1)
(-0 -0 1)
(-0 -0 1)
(-0 -0 1)
(-0 -0 1)
(-0 -0 1)
(-0 -0 1)
(-0 -0 1)
(-0 -0 1)
(-0 -0 1)
(-0 -0 1)
(-0 -0 1)
(-0 -0 1)
(-0 -0 1)
(-0 -0 1)
(-0 -0 1)
(-0 -0 1)
(-0 -0 1)
(-0 -0 1)
(-0 -0 1)
(-0 -0 1)
(-0 -0 1)
(-0 -0 1)
(-0 -0 1)
(-0 -0 1)
(-0 -0 1)
(-0 -0 1)
(-0 -0 1)
(-0 -0 1)
(-0 -0 1)
(-0 -0 1)
(-0 -0 1)
(-0 -0 1)
(-0 -0 1)
(-0 -0 1)
(-0 -0 1)
(-0 -0 1)
(-0 -0 1)
(-0 -0 1)
(-0 -0 1)
(-0 -0 1)
(-0 -0 1)
(-0 -0 1)
(-0 -0 1)
(-0 -0 1)
(-0 -0 1)
(-0 -0 1)
(-0 -0 1)
(-0 -0 1)
(-0 -0 1)
(-0 -0 1)
(-0 -0 1)
(0.0891302 -6.74929e-18 0.99602)
(0.125194 -1.34459e-17 0.992132)
(0.0733156 -6.75803e-18 0.997309)
(0.0712478 -0 0.997459)
(0.0569307 -6.76527e-18 0.998378)
(0.0524516 6.76694e-18 0.998623)
(0.0457645 -0 0.998952)
(0.0391365 -0 0.999234)
(0.0365417 -0 0.999332)
(0.031906 -0 0.999491)
(0.0306095 -0 0.999531)
(0.0159191 -0 0.999873)
(0.0241142 -0 0.999709)
(0.0136492 -0 0.999907)
(0.0203352 -0 0.999793)
(0.0308669 3.38652e-18 0.999524)
(0.0261096 3.38698e-18 0.999659)
(0.0161288 -1.69385e-18 0.99987)
(0.0128779 1.69393e-18 0.999917)
(0.015877 -0 0.999874)
(-0.000478535 -0 1)
(0.017703 -0 0.999843)
(-0.00261165 -0 0.999997)
(0.0131682 -0 0.999913)
(-0.0151779 1.69387e-18 0.999885)
(0.00517468 -0 0.999987)
(0.0207791 -0 0.999784)
(0.0105819 8.46986e-19 0.999944)
(0.0216248 -0 0.999766)
(-0.00589554 -0 0.999983)
(0.0104371 -0 0.999946)
(-0.0121807 -0 0.999926)
(0.00302489 2.11757e-19 0.999995)
(-0.0117446 -0 0.999931)
(0.000876845 -0 1)
(-0.0146885 -0 0.999892)
(-0.00732379 -0 0.999973)
(0.0243628 -0 0.999703)
(-0.0053078 -4.23511e-19 0.999986)
(0.00505304 4.23511e-19 0.999987)
(-0.011325 -8.46979e-19 0.999936)
(-0.0151871 -0 0.999885)
(-0.00633784 -8.47016e-19 0.99998)
(-0.0227336 -0 0.999742)
(-0.0131554 -0 0.999913)
(-0.00273625 2.11757e-19 0.999996)
(0.0113272 -0 0.999936)
(-0.00235536 -2.11758e-19 0.999997)
(-0.0156007 -0 0.999878)
(-0.0077518 -0 0.99997)
(-0.017886 -0 0.99984)
(-0.0138311 -0 0.999904)
(-0.0175396 -0 0.999846)
(0.0061154 -8.47017e-19 0.999981)
(0.00935539 -8.46996e-19 0.999956)
(-0.00609575 -0 0.999981)
(-0.00759231 -8.47009e-19 0.999971)
(0.00218318 2.11758e-19 0.999998)
(0.0125086 -0 0.999922)
(-0.00178743 -0 0.999998)
(-0.0185181 -1.69378e-18 0.999829)
(-0.0158149 1.69385e-18 0.999875)
(-0.00315181 -0 0.999995)
(-0.00734072 -8.4701e-19 0.999973)
(0.00928786 -8.46996e-19 0.999957)
(0.00969566 -0 0.999953)
(0.0212892 -0 0.999773)
(0.0104119 -8.46987e-19 0.999946)
(-0.0079138 8.47006e-19 0.999969)
(-0.00139553 -1.05879e-19 0.999999)
(-0.0156804 -0 0.999877)
(-0.00679667 -0 0.999977)
(-0.00819672 -8.47004e-19 0.999966)
(-0.0116039 8.46976e-19 0.999933)
(-0.00117224 -1.05879e-19 0.999999)
(0.0221202 -0 0.999755)
(0.0181441 1.69379e-18 0.999835)
(0.00601379 -0 0.999982)
(-0.00103521 -0 0.999999)
(-0.00764815 8.47008e-19 0.999971)
(-0.00335207 -0 0.999994)
(-0.009465 -0 0.999955)
(0.00786136 -0 0.999969)
(0.0151235 -0 0.999886)
(0.0101823 -0 0.999948)
(-0.0013966 -0 0.999999)
(-0.00971168 8.46993e-19 0.999953)
(-0.00752813 8.47009e-19 0.999972)
(-0.00137336 -0 0.999999)
(0.018233 -0 0.999834)
(-0.00776922 -0 0.99997)
(0.00153009 -0 0.999999)
(-0.0102595 8.46988e-19 0.999947)
(-0.0048479 -0 0.999988)
(-0.0161192 -0 0.99987)
(-0.00893688 -0 0.99996)
(0.0196735 -0 0.999806)
(0.00679223 -0 0.999977)
(0.027465 3.38685e-18 0.999623)
(0.00265113 2.11757e-19 0.999996)
(0.0193287 -0 0.999813)
(-0.0230142 -0 0.999735)
(-0.011799 -0 0.99993)
(-0.00188193 -2.11758e-19 0.999998)
(-0.0115199 -8.46977e-19 0.999934)
(-0.00152585 -0 0.999999)
(-0.0237876 -0 0.999717)
(0.00197884 2.11758e-19 0.999998)
(-0.00423163 -4.23513e-19 0.999991)
(0.0206315 1.69371e-18 0.999787)
(-0.0150303 -0 0.999887)
(-0.00180362 -0 0.999998)
(-0.0109084 -8.46983e-19 0.999941)
(-0.00935042 8.46996e-19 0.999956)
(-0.0073235 -0 0.999973)
(-0.000862806 -0 1)
(0.0204769 -0 0.99979)
(0.00787462 -8.47007e-19 0.999969)
(0.037954 3.38569e-18 0.999279)
(-0.00280721 -0 0.999996)
(0.016036 -1.69385e-18 0.999871)
(-0.0199929 -0 0.9998)
(0.0209172 -0 0.999781)
(-0.0139383 -0 0.999903)
(-0.00854579 -0 0.999963)
(0.00410268 -0 0.999992)
(-0.0240989 -0 0.99971)
(0.00577974 -0 0.999983)
(-0.0279623 -0 0.999609)
(0.0211749 -0 0.999776)
(-0.0130081 -0 0.999915)
(0.0153719 -0 0.999882)
(-0.0193141 -0 0.999813)
(0.017205 -0 0.999852)
(-0.00595955 4.23509e-19 0.999982)
(-0.0107411 -0 0.999942)
(0.00229096 -2.11758e-19 0.999997)
(-0.0162013 1.69384e-18 0.999869)
(0.00520427 -0 0.999986)
(-0.0241227 -1.69357e-18 0.999709)
(0.0183008 -0 0.999833)
(-0.000160128 -0 1)
(0.0300131 3.38661e-18 0.99955)
(-0.0245767 3.38711e-18 0.999698)
(0.0200787 -0 0.999798)
(-0.0265749 -0 0.999647)
(0.00314273 -4.23514e-19 0.999995)
(0.00447018 -0 0.99999)
(0.00283795 -2.11757e-19 0.999996)
(0.0145408 1.69389e-18 0.999894)
(0.00762191 -8.47008e-19 0.999971)
(0.0188151 1.69377e-18 0.999823)
(-0.02994 -3.38661e-18 0.999552)
(0.0158976 -1.69385e-18 0.999874)
(-0.0312186 -3.38648e-18 0.999513)
(0.0252339 3.38705e-18 0.999682)
(-0.0290869 -0 0.999577)
(0.0124154 -0 0.999923)
(-0.024732 3.3871e-18 0.999694)
(0.0127043 1.69393e-18 0.999919)
(-0.0103412 -8.46988e-19 0.999947)
(-0.0119793 -8.46972e-19 0.999928)
(0.0186655 -0 0.999826)
(0.00523239 -0 0.999986)
(0.0149293 1.69388e-18 0.999889)
(-0.00636932 -0 0.99998)
(0.0106664 8.46985e-19 0.999943)
(-0.0288364 3.38672e-18 0.999584)
(0.0105437 -0 0.999944)
(-0.00564226 -0 0.999984)
(0.0245282 -0 0.999699)
(-0.0086322 -0 0.999963)
(0.0222738 -0 0.999752)
(-0.027575 -0 0.99962)
(0.014847 1.69388e-18 0.99989)
(-0.0355725 3.38599e-18 0.999367)
(-0.00983855 -0 0.999952)
(-0.0202789 -0 0.999794)
(0.0140655 -1.6939e-18 0.999901)
(-0.0165775 -1.69383e-18 0.999863)
(-0.0185567 -0 0.999828)
(0.00421788 -0 0.999991)
(-0.00101521 -0 0.999999)
(0.0184363 -0 0.99983)
(-0.0142544 -0 0.999898)
(0.0194595 -0 0.999811)
(-0.0137559 -0 0.999905)
(-0.0225881 -0 0.999745)
(-0.0264941 -0 0.999649)
(-0.023499 1.6936e-18 0.999724)
(-0.038769 3.38558e-18 0.999248)
(-0.0328251 -3.38631e-18 0.999461)
(-0.05567 -0 0.998449)
(-0.0474762 -0 0.998872)
(-0.0836423 6.75252e-18 0.996496)
(-0.0725739 6.75839e-18 0.997363)
(-0.157595 -1.33832e-17 0.987504)
(-0.097272 -0 0.995258)
(-0 -0 1)
(-0 -0 1)
(-0 -0 1)
)
;

boundaryField
{
    inlet
    {
        type            calculated;
        value           uniform (0 0 0);
    }
    outlet
    {
        type            calculated;
        value           uniform (0 0 0);
    }
    sideWall
    {
        type            empty;
    }
}


// ************************************************************************* //
