/*--------------------------------*- C++ -*----------------------------------*\
| =========                 |                                                 |
| \\      /  F ield         | foam-extend: Open Source CFD                    |
|  \\    /   O peration     | Version:     3.2                                |
|   \\  /    A nd           | Web:         http://www.foam-extend.org         |
|    \\/     M anipulation  | For copyright notice see file Copyright         |
\*---------------------------------------------------------------------------*/
FoamFile
{
    version     2.0;
    format      ascii;
    class       areaVectorField;
    location    "160";
    object      Utau;
}
// * * * * * * * * * * * * * * * * * * * * * * * * * * * * * * * * * * * * * //

dimensions      [0 1 -1 0 0 0 0];

internalField   nonuniform List<vector> 
300
(
(2.31224 0 0)
(2.06385 0 0)
(1.71914 0 0)
(1.55785 0 0)
(1.49252 0 0)
(1.4571 0 0)
(1.43089 0 0)
(1.40756 0 0)
(1.38574 0 0)
(1.36563 0 0)
(1.34743 0 0)
(1.33095 0 0)
(1.31587 0 0)
(1.30226 0 0)
(1.28989 0 0)
(1.27854 0 0)
(1.26807 0 0)
(1.25833 0 0)
(1.24935 0 0)
(1.2411 0 0)
(1.23339 0 0)
(1.2261 0 0)
(1.21921 0 0)
(1.21272 0 0)
(1.20659 0 0)
(1.20076 0 0)
(1.19523 0 0)
(1.18994 0 0)
(1.18491 0 0)
(1.18013 0 0)
(1.17554 0 0)
(1.17115 0 0)
(1.16693 0 0)
(1.16288 0 0)
(1.15899 -3.6297e-39 0)
(1.15526 0 0)
(1.15166 0 0)
(1.14818 0 0)
(1.14482 -3.07769e-39 0)
(1.14158 -2.94818e-39 0)
(1.13845 0 0)
(1.13542 1.09499e-38 0)
(1.13249 1.0546e-38 0)
(1.12964 0 0)
(1.12687 0 0)
(1.12419 0 0)
(1.12159 0 0)
(1.11907 -3.56999e-38 0)
(1.11661 -3.44991e-38 0)
(1.11423 -6.70006e-38 0)
(1.11189 0 0)
(1.10964 0 0)
(1.10743 0 0)
(1.10528 -1.18855e-37 0)
(1.10318 0 0)
(1.10115 0 0)
(1.09915 0 0)
(1.09721 4.18224e-37 0)
(1.09528 0 0)
(1.09343 0 0)
(1.09158 0 0)
(1.08982 0 0)
(1.08807 0 0)
(1.08639 0 0)
(1.08472 -1.35938e-36 0)
(1.08314 -1.32354e-36 0)
(1.08154 0 0)
(1.08004 2.49364e-36 0)
(1.07853 0 0)
(1.07712 0 0)
(1.07568 0 0)
(1.07437 8.67787e-36 0)
(1.07302 0 0)
(1.07181 7.93731e-36 0)
(1.07055 0 0)
(1.06945 0 0)
(1.06832 1.34485e-35 0)
(1.06735 0 0)
(1.06636 0 0)
(1.06555 0 0)
(1.06474 0 0)
(1.06414 0 0)
(1.06356 -4.78649e-35 0)
(1.06323 0 0)
(1.063 -8.38535e-36 0)
(1.06299 0 0)
(1.06318 2.09568e-34 0)
(1.06369 0 0)
(1.06453 -5.29521e-34 0)
(1.06575 -1.89727e-33 0)
(1.06762 4.15086e-33 0)
(1.06988 0 0)
(1.07344 -1.548e-32 0)
(1.07739 0 0)
(1.08419 0 0)
(1.09141 -3.57685e-31 0)
(1.10686 0 0)
(1.1136 0 0)
(1.19289 -2.41126e-26 0)
(1.14337 6.51387e-20 -0.102316)
(0.818614 5.55746e-20 -0.103298)
(0.812485 -3.03595e-20 -0.0597286)
(0.835725 9.09288e-24 -0.0596953)
(0.837202 -1.98081e-22 -0.0477399)
(0.853699 -2.24607e-21 -0.0448396)
(0.852455 0 -0.0390531)
(0.867166 4.87494e-24 -0.0339639)
(0.86755 0 -0.0317229)
(0.880258 4.66152e-24 -0.0280999)
(0.86846 0 -0.0265956)
(0.897017 0 -0.0142815)
(0.899693 -7.90855e-24 -0.0217017)
(0.901896 0 -0.0123113)
(0.921067 -6.50277e-24 -0.018734)
(0.891935 -1.12137e-20 -0.0275444)
(0.876262 -1.38359e-20 -0.0228866)
(0.877496 7.00029e-21 -0.0141548)
(0.910522 -2.61491e-21 -0.0117266)
(0.882179 -4.90021e-24 -0.0140081)
(0.918772 -4.81309e-26 0.000439665)
(0.897976 0 -0.0158993)
(0.913101 -9.37614e-25 0.00238471)
(0.907148 0 -0.0119465)
(0.916643 -1.60023e-21 0.0139143)
(0.968282 0 -0.00501061)
(0.904041 7.16115e-24 -0.0187893)
(0.917553 -7.52704e-23 -0.00971)
(0.8698 0 -0.0188136)
(0.898679 1.06429e-25 0.00529829)
(0.902476 0 -0.00941974)
(0.908512 0 0.0110671)
(0.918066 -9.44653e-23 -0.00277706)
(0.921146 0 0.0108193)
(0.932746 -2.5702e-25 -0.000817875)
(0.926923 -1.02972e-23 0.0136166)
(0.985174 1.50341e-24 0.0072154)
(0.905524 0 -0.0220677)
(0.888428 -2.8383e-21 0.00471566)
(0.906696 7.10573e-22 -0.00458163)
(0.895637 -8.03073e-22 0.0101437)
(0.944286 0 0.0143426)
(0.923803 4.33331e-21 0.00585503)
(0.952793 0 0.021666)
(0.975838 0 0.0128386)
(0.966329 6.51426e-22 0.00264413)
(0.928837 0 -0.0105218)
(0.898003 -2.88942e-22 0.00211513)
(0.941002 -4.5594e-24 0.0146821)
(0.941306 -4.68959e-24 0.00729704)
(0.95713 0 0.017122)
(0.966164 0 0.0133644)
(0.984093 -7.02677e-24 0.0172632)
(0.979203 -2.04924e-21 -0.00598833)
(0.924427 2.06987e-21 -0.00864875)
(0.933113 0 0.00568813)
(0.960172 3.22296e-21 0.00729013)
(0.968355 -5.69446e-22 -0.0021141)
(0.92237 0 -0.0115384)
(0.905312 0 0.00161818)
(0.943538 -1.36794e-20 0.0174756)
(0.977153 2.85746e-21 0.0154555)
(0.964224 -1.35002e-24 0.00303907)
(0.976079 3.80179e-21 0.00716532)
(0.973149 1.86799e-21 -0.00903887)
(0.94143 0 -0.00912821)
(0.916488 0 -0.0195157)
(0.885147 -1.89783e-21 -0.00921657)
(0.924881 9.73295e-22 0.00731955)
(0.925131 3.59714e-22 0.00129105)
(0.943189 0 0.0147914)
(0.962101 0 0.00653923)
(0.955251 -5.64909e-21 0.00783019)
(0.970955 6.67298e-21 0.0112676)
(0.981747 -7.26619e-23 0.00115084)
(0.93722 -4.37326e-24 -0.0207366)
(0.904023 -1.09205e-20 -0.0164054)
(0.913083 -3.13564e-24 -0.00549119)
(0.914541 0 0.000946739)
(0.940727 5.46942e-21 0.00719503)
(0.93948 0 0.00314922)
(0.954567 0 0.00903538)
(0.960653 0 -0.00755227)
(0.915935 -6.38328e-25 -0.0138538)
(0.902589 -3.23253e-24 -0.00919094)
(0.902965 0 0.00126108)
(0.938979 -6.24214e-23 0.0091195)
(0.94892 2.13638e-21 0.00714379)
(0.971206 0 0.00133382)
(0.905455 0 -0.0165119)
(0.910411 2.8372e-24 0.00707339)
(0.926554 0 -0.00141771)
(0.927545 -3.17826e-21 0.00951664)
(0.947967 0 0.0045957)
(0.949057 0 0.0153)
(0.999967 0 0.00893694)
(0.935385 0 -0.0184059)
(0.936767 -3.30148e-24 -0.00636288)
(0.897738 -2.57083e-20 -0.0246656)
(0.897618 -9.14872e-22 -0.00237971)
(0.879706 0 -0.0170067)
(0.890855 0 0.0205077)
(0.956927 0 0.0112915)
(0.911628 -1.04306e-21 0.00171562)
(0.944908 -1.38376e-21 0.010886)
(0.913078 0 0.00139322)
(0.960924 0 0.0228645)
(0.963676 -2.61332e-22 -0.00190696)
(0.967567 -2.07969e-21 0.00409442)
(0.910383 4.18817e-21 -0.0187866)
(0.908632 0 0.0136586)
(0.941096 0 0.00169738)
(0.932102 2.52382e-21 0.0101683)
(0.961515 -3.25258e-21 0.00899097)
(0.960154 4.59384e-24 0.00703188)
(0.991686 -2.35427e-25 0.000855633)
(0.918591 0 -0.0188139)
(0.948108 -3.33662e-21 -0.00746622)
(0.874261 -1.41708e-20 -0.0332056)
(0.881616 0 0.00247489)
(0.874783 7.29095e-21 -0.0140298)
(0.914339 0 0.0182839)
(0.916354 0 -0.0191717)
(0.878291 -2.54723e-24 0.0122431)
(0.949702 0 0.00811625)
(0.868261 -2.172e-24 -0.00356222)
(0.951982 3.48425e-24 0.0229484)
(0.909601 0 -0.00525735)
(0.966516 0 0.0270366)
(0.935872 0 -0.0198215)
(0.918837 -4.88967e-24 0.0119533)
(0.9157 -6.56965e-24 -0.0140777)
(0.918402 0 0.0177414)
(0.93041 0 -0.01601)
(0.883216 -1.12862e-21 0.00526366)
(0.947229 0 0.0101749)
(0.898268 2.97926e-23 -0.0020579)
(0.955639 1.13429e-20 0.0154846)
(0.907918 0 -0.00472512)
(0.968743 -9.21954e-21 0.0233755)
(0.938876 0 -0.017185)
(0.943225 0 0.000151037)
(0.87079 -2.98321e-20 -0.0261469)
(0.911908 5.49447e-21 0.0224185)
(0.912198 0 -0.0183194)
(0.903312 0 0.0240139)
(0.955825 -1.57386e-21 -0.00300392)
(0.907941 0 -0.0040587)
(0.936917 9.27026e-22 -0.00265894)
(0.889636 -9.43304e-21 -0.0129374)
(0.923067 1.55912e-21 -0.00703574)
(0.823909 4.94621e-21 -0.0155047)
(0.930701 -3.03144e-20 0.0278776)
(0.887681 3.00066e-21 -0.0141137)
(0.939581 -6.23436e-21 0.0293467)
(0.904586 -3.0971e-20 -0.0228335)
(0.902338 0 0.0262574)
(0.92064 0 -0.011431)
(0.913276 1.59115e-20 0.022594)
(0.935661 2.05479e-21 -0.0118879)
(0.890553 -6.23084e-21 0.0092099)
(0.964691 -1.67112e-21 0.0115572)
(0.909436 5.13694e-24 -0.016978)
(0.906517 0 -0.00474332)
(0.874255 -4.76524e-21 -0.0130535)
(0.914395 0 0.00582419)
(0.864822 -1.95852e-21 -0.00922506)
(0.930505 9.02663e-21 0.0268436)
(0.928829 0 -0.00979382)
(0.937317 0 0.00528867)
(0.879295 0 -0.021574)
(0.905652 -9.43444e-25 0.00781806)
(0.852906 0 -0.0190022)
(0.896803 0 0.0247388)
(0.885227 -5.86691e-21 -0.0131444)
(0.890791 9.57956e-21 0.0317077)
(0.934625 1.05921e-24 0.0091958)
(0.940668 0 0.0190796)
(0.9183 7.46356e-21 -0.0129176)
(0.883497 -2.91206e-21 0.0146482)
(0.955635 0 0.0177365)
(0.914578 4.36649e-25 -0.00385762)
(0.932263 -8.63849e-26 0.000946445)
(0.867512 0 -0.0159964)
(0.895615 0 0.0127678)
(0.872878 7.78226e-26 -0.0169889)
(0.832364 0 0.011451)
(0.884448 0 0.0199831)
(0.908416 -5.09354e-24 0.0240761)
(0.892145 -1.60932e-21 0.0209704)
(0.922521 -5.55906e-23 0.0357922)
(0.904297 3.17835e-21 0.0296997)
(0.945527 0 0.0527192)
(0.91591 0 0.043533)
(0.985274 6.21437e-21 0.0827004)
(0.932513 5.37198e-21 0.067855)
(1.08427 -1.22936e-19 0.173037)
(1.29601 -3.09421e-23 0.126666)
(1.1507 0 0)
(0.987268 0 0)
(0.942628 0 0)
)
;

boundaryField
{
    inlet
    {
        type            calculated;
        value           uniform (0 0 0);
    }
    outlet
    {
        type            calculated;
        value           uniform (0 0 0);
    }
    sideWall
    {
        type            empty;
    }
}


// ************************************************************************* //
