/*--------------------------------*- C++ -*----------------------------------*\
| =========                 |                                                 |
| \\      /  F ield         | foam-extend: Open Source CFD                    |
|  \\    /   O peration     | Version:     3.2                                |
|   \\  /    A nd           | Web:         http://www.foam-extend.org         |
|    \\/     M anipulation  | For copyright notice see file Copyright         |
\*---------------------------------------------------------------------------*/
FoamFile
{
    version     2.0;
    format      ascii;
    class       areaScalarField;
    location    "160";
    object      volA;
}
// * * * * * * * * * * * * * * * * * * * * * * * * * * * * * * * * * * * * * //

dimensions      [0 3 0 0 0 0 0];

internalField   nonuniform List<scalar> 
300
(
4.63285e-05
4.63285e-05
4.63285e-05
4.63285e-05
4.63285e-05
4.63285e-05
4.63285e-05
4.63285e-05
4.63285e-05
4.63285e-05
4.63285e-05
4.63285e-05
4.63285e-05
4.63285e-05
4.63285e-05
4.63285e-05
4.63285e-05
4.63285e-05
4.63285e-05
4.63285e-05
4.63285e-05
4.63285e-05
4.63285e-05
4.63285e-05
4.63285e-05
4.63285e-05
4.63285e-05
4.63285e-05
4.63285e-05
4.63285e-05
4.63285e-05
4.63285e-05
4.63285e-05
4.63285e-05
4.63285e-05
4.63285e-05
4.63285e-05
4.63285e-05
4.63285e-05
4.63285e-05
4.63285e-05
4.63285e-05
4.63285e-05
4.63285e-05
4.63285e-05
4.63285e-05
4.63285e-05
4.63285e-05
4.63285e-05
4.63285e-05
4.63285e-05
4.63285e-05
4.63285e-05
4.63285e-05
4.63285e-05
4.63285e-05
4.63285e-05
4.63285e-05
4.63285e-05
4.63285e-05
4.63285e-05
4.63285e-05
4.63285e-05
4.63285e-05
4.63285e-05
4.63285e-05
4.63285e-05
4.63285e-05
4.63285e-05
4.63285e-05
4.63285e-05
4.63285e-05
4.63285e-05
4.63285e-05
4.63285e-05
4.63285e-05
4.63285e-05
4.63285e-05
4.63285e-05
4.63285e-05
4.63285e-05
4.63285e-05
4.63285e-05
4.63285e-05
4.63285e-05
4.63285e-05
4.63285e-05
4.63285e-05
4.63285e-05
4.63285e-05
4.63285e-05
4.63285e-05
4.63285e-05
4.63285e-05
4.63285e-05
4.63285e-05
4.63285e-05
4.63285e-05
4.63285e-05
4.5473e-05
4.73368e-05
4.64547e-05
4.64669e-05
4.65854e-05
4.62738e-05
4.66083e-05
4.62405e-05
4.65423e-05
4.62488e-05
4.64874e-05
4.75355e-05
4.53803e-05
4.58633e-05
4.43723e-05
4.44873e-05
4.36116e-05
4.32931e-05
4.34034e-05
4.22307e-05
4.33528e-05
4.178e-05
4.26736e-05
4.12497e-05
4.23627e-05
4.20431e-05
4.20678e-05
4.20352e-05
3.98811e-05
4.10982e-05
4.01408e-05
3.97036e-05
4.1117e-05
3.94303e-05
4.15892e-05
4.03948e-05
4.31479e-05
4.05342e-05
4.10803e-05
4.14475e-05
3.93256e-05
4.21129e-05
4.10286e-05
4.29859e-05
4.35811e-05
4.445e-05
4.39999e-05
4.26546e-05
4.40057e-05
4.45048e-05
4.55235e-05
4.62721e-05
4.71585e-05
4.74903e-05
4.64848e-05
4.71068e-05
4.7165e-05
4.757e-05
4.71132e-05
4.65134e-05
4.74656e-05
4.88789e-05
4.88021e-05
4.89414e-05
4.88629e-05
4.81248e-05
4.74141e-05
4.61302e-05
4.68051e-05
4.74162e-05
4.76572e-05
4.84843e-05
4.82254e-05
4.89184e-05
4.92141e-05
4.85745e-05
4.71842e-05
4.71305e-05
4.66533e-05
4.73139e-05
4.72877e-05
4.74525e-05
4.74088e-05
4.63618e-05
4.65686e-05
4.56759e-05
4.6454e-05
4.68479e-05
4.74853e-05
4.65713e-05
4.62915e-05
4.67775e-05
4.62091e-05
4.69349e-05
4.72177e-05
4.82864e-05
4.63083e-05
4.75082e-05
4.48727e-05
4.43638e-05
4.47877e-05
4.27325e-05
4.71783e-05
4.50407e-05
4.7139e-05
4.59819e-05
4.75007e-05
4.84667e-05
4.76894e-05
4.80206e-05
4.66555e-05
4.84478e-05
4.79227e-05
4.86598e-05
4.86729e-05
5.00014e-05
4.70235e-05
4.89977e-05
4.51907e-05
4.58509e-05
4.50084e-05
4.41501e-05
4.63099e-05
4.33554e-05
4.78626e-05
4.52037e-05
4.78554e-05
4.62994e-05
4.78233e-05
4.73369e-05
4.62126e-05
4.75164e-05
4.56531e-05
4.83229e-05
4.58367e-05
4.85092e-05
4.71469e-05
4.91186e-05
4.77998e-05
4.97157e-05
4.79205e-05
4.83502e-05
4.6579e-05
4.61312e-05
4.71035e-05
4.55147e-05
4.84002e-05
4.57904e-05
4.9398e-05
4.49236e-05
4.80899e-05
4.46992e-05
4.65706e-05
4.58311e-05
4.56341e-05
4.65951e-05
4.45435e-05
4.77829e-05
4.54762e-05
4.87339e-05
4.64292e-05
5.0064e-05
4.68145e-05
4.91139e-05
4.55476e-05
4.82455e-05
4.59068e-05
4.74863e-05
4.66045e-05
4.64583e-05
4.62506e-05
4.35803e-05
4.62702e-05
4.27907e-05
4.76232e-05
4.35741e-05
4.9473e-05
4.71132e-05
5.01827e-05
4.76191e-05
5.10746e-05
4.92213e-05
5.12826e-05
4.76779e-05
4.84044e-05
4.83974e-05
4.27112e-05
4.87996e-05
4.40555e-05
4.87142e-05
4.43609e-05
4.83375e-05
4.4863e-05
4.78144e-05
4.56293e-05
4.71342e-05
4.73421e-05
4.54118e-05
4.63285e-05
4.63285e-05
4.63285e-05
)
;

boundaryField
{
    inlet
    {
        type            calculated;
        value           uniform 0;
    }
    outlet
    {
        type            calculated;
        value           uniform 0;
    }
    sideWall
    {
        type            empty;
    }
}


// ************************************************************************* //
