/*--------------------------------*- C++ -*----------------------------------*\
| =========                 |                                                 |
| \\      /  F ield         | foam-extend: Open Source CFD                    |
|  \\    /   O peration     | Version:     3.2                                |
|   \\  /    A nd           | Web:         http://www.foam-extend.org         |
|    \\/     M anipulation  | For copyright notice see file Copyright         |
\*---------------------------------------------------------------------------*/
FoamFile
{
    version     2.0;
    format      ascii;
    class       areaScalarField;
    location    "160";
    object      volC;
}
// * * * * * * * * * * * * * * * * * * * * * * * * * * * * * * * * * * * * * //

dimensions      [0 3 0 0 0 0 0];

internalField   nonuniform List<scalar> 
300
(
5.36715e-05
5.36715e-05
5.36715e-05
5.36715e-05
5.36715e-05
5.36715e-05
5.36715e-05
5.36715e-05
5.36715e-05
5.36715e-05
5.36715e-05
5.36715e-05
5.36715e-05
5.36715e-05
5.36715e-05
5.36715e-05
5.36715e-05
5.36715e-05
5.36715e-05
5.36715e-05
5.36715e-05
5.36715e-05
5.36715e-05
5.36715e-05
5.36715e-05
5.36715e-05
5.36715e-05
5.36715e-05
5.36715e-05
5.36715e-05
5.36715e-05
5.36715e-05
5.36715e-05
5.36715e-05
5.36715e-05
5.36715e-05
5.36715e-05
5.36715e-05
5.36715e-05
5.36715e-05
5.36715e-05
5.36715e-05
5.36715e-05
5.36715e-05
5.36715e-05
5.36715e-05
5.36715e-05
5.36715e-05
5.36715e-05
5.36715e-05
5.36715e-05
5.36715e-05
5.36715e-05
5.36715e-05
5.36715e-05
5.36715e-05
5.36715e-05
5.36715e-05
5.36715e-05
5.36715e-05
5.36715e-05
5.36715e-05
5.36715e-05
5.36715e-05
5.36715e-05
5.36715e-05
5.36715e-05
5.36715e-05
5.36715e-05
5.36715e-05
5.36715e-05
5.36715e-05
5.36715e-05
5.36715e-05
5.36715e-05
5.36715e-05
5.36715e-05
5.36715e-05
5.36715e-05
5.36715e-05
5.36715e-05
5.36715e-05
5.36715e-05
5.36715e-05
5.36715e-05
5.36715e-05
5.36715e-05
5.36715e-05
5.36715e-05
5.36715e-05
5.36715e-05
5.36715e-05
5.36715e-05
5.36715e-05
5.36715e-05
5.36715e-05
5.36715e-05
5.36715e-05
5.36715e-05
5.26805e-05
4.57667e-05
4.11596e-05
3.75014e-05
3.40891e-05
3.16384e-05
2.88173e-05
2.70377e-05
2.48341e-05
2.34032e-05
2.15974e-05
1.93623e-05
2.05271e-05
1.90866e-05
1.97351e-05
1.83563e-05
1.7798e-05
1.70472e-05
1.62087e-05
1.66649e-05
1.51504e-05
1.63016e-05
1.50218e-05
1.61865e-05
1.51254e-05
1.56893e-05
1.50271e-05
1.42665e-05
1.56251e-05
1.40025e-05
1.48485e-05
1.53303e-05
1.41421e-05
1.60503e-05
1.41594e-05
1.57051e-05
1.34979e-05
1.57005e-05
1.4662e-05
1.4301e-05
1.65826e-05
1.44612e-05
1.60783e-05
1.48617e-05
1.5154e-05
1.46776e-05
1.49165e-05
1.60338e-05
1.51387e-05
1.52181e-05
1.48483e-05
1.48889e-05
1.47906e-05
1.47361e-05
1.53563e-05
1.46513e-05
1.49359e-05
1.46645e-05
1.47587e-05
1.50856e-05
1.46517e-05
1.40941e-05
1.46375e-05
1.4762e-05
1.47928e-05
1.50566e-05
1.50037e-05
1.54841e-05
1.47453e-05
1.43651e-05
1.45586e-05
1.42874e-05
1.49218e-05
1.47259e-05
1.47454e-05
1.48767e-05
1.52549e-05
1.46954e-05
1.50471e-05
1.46054e-05
1.4905e-05
1.50632e-05
1.51461e-05
1.56235e-05
1.47801e-05
1.54501e-05
1.49525e-05
1.49885e-05
1.45719e-05
1.50746e-05
1.50843e-05
1.47525e-05
1.55424e-05
1.51917e-05
1.54406e-05
1.49927e-05
1.67121e-05
1.48396e-05
1.66402e-05
1.63729e-05
1.54105e-05
1.75626e-05
1.39755e-05
1.6451e-05
1.46919e-05
1.61711e-05
1.5303e-05
1.48647e-05
1.56988e-05
1.49703e-05
1.6189e-05
1.48106e-05
1.56572e-05
1.54256e-05
1.58283e-05
1.47027e-05
1.72036e-05
1.45091e-05
1.72127e-05
1.56283e-05
1.61477e-05
1.71093e-05
1.49276e-05
1.77001e-05
1.37513e-05
1.65196e-05
1.43855e-05
1.63827e-05
1.54373e-05
1.6083e-05
1.69941e-05
1.56334e-05
1.75996e-05
1.49801e-05
1.71769e-05
1.49245e-05
1.64945e-05
1.48789e-05
1.64651e-05
1.50404e-05
1.69731e-05
1.6079e-05
1.71323e-05
1.74345e-05
1.65684e-05
1.83295e-05
1.60077e-05
1.84275e-05
1.46368e-05
1.86832e-05
1.4958e-05
1.76968e-05
1.61208e-05
1.71915e-05
1.77949e-05
1.69729e-05
1.91277e-05
1.62834e-05
1.89129e-05
1.59416e-05
1.81854e-05
1.51099e-05
1.81989e-05
1.52915e-05
1.836e-05
1.54421e-05
1.76757e-05
1.65738e-05
1.78901e-05
1.79113e-05
1.76648e-05
1.99207e-05
1.69029e-05
2.05235e-05
1.59923e-05
2.05937e-05
1.57931e-05
1.89165e-05
1.59954e-05
1.86243e-05
1.60497e-05
1.82507e-05
1.61088e-05
1.92892e-05
1.84535e-05
1.83361e-05
2.38733e-05
1.87046e-05
2.46831e-05
2.12698e-05
2.72152e-05
2.50154e-05
3.07826e-05
3.03842e-05
3.6054e-05
3.8406e-05
4.49345e-05
5.26096e-05
5.36715e-05
5.36715e-05
5.36715e-05
)
;

boundaryField
{
    inlet
    {
        type            calculated;
        value           uniform 0;
    }
    outlet
    {
        type            calculated;
        value           uniform 0;
    }
    sideWall
    {
        type            empty;
    }
}


// ************************************************************************* //
