/*--------------------------------*- C++ -*----------------------------------*\
| =========                 |                                                 |
| \\      /  F ield         | foam-extend: Open Source CFD                    |
|  \\    /   O peration     | Version:     3.2                                |
|   \\  /    A nd           | Web:         http://www.foam-extend.org         |
|    \\/     M anipulation  | For copyright notice see file Copyright         |
\*---------------------------------------------------------------------------*/
FoamFile
{
    version     2.0;
    format      ascii;
    class       areaVectorField;
    location    "160";
    object      Wt;
}
// * * * * * * * * * * * * * * * * * * * * * * * * * * * * * * * * * * * * * //

dimensions      [1 1 -2 0 0 0 0];

internalField   nonuniform List<vector> 
300
(
(-0 0 0)
(-0 0 0)
(-0 0 0)
(-0 0 0)
(-0 0 0)
(-0 0 0)
(-0 0 0)
(-0 0 0)
(-0 0 0)
(-0 0 0)
(-0 0 0)
(-0 0 0)
(-0 0 0)
(-0 0 0)
(-0 0 0)
(-0 0 0)
(-0 0 0)
(-0 0 0)
(-0 0 0)
(-0 0 0)
(-0 0 0)
(-0 0 0)
(-0 0 0)
(-0 0 0)
(-0 0 0)
(-0 0 0)
(-0 0 0)
(-0 0 0)
(-0 0 0)
(-0 0 0)
(-0 0 0)
(-0 0 0)
(-0 0 0)
(-0 0 0)
(-0 0 0)
(-0 0 0)
(-0 0 0)
(-0 0 0)
(-0 0 0)
(-0 0 0)
(-0 0 0)
(-0 0 0)
(-0 0 0)
(-0 0 0)
(-0 0 0)
(-0 0 0)
(-0 0 0)
(-0 0 0)
(-0 0 0)
(-0 0 0)
(-0 0 0)
(-0 0 0)
(-0 0 0)
(-0 0 0)
(-0 0 0)
(-0 0 0)
(-0 0 0)
(-0 0 0)
(-0 0 0)
(-0 0 0)
(-0 0 0)
(-0 0 0)
(-0 0 0)
(-0 0 0)
(-0 0 0)
(-0 0 0)
(-0 0 0)
(-0 0 0)
(-0 0 0)
(-0 0 0)
(-0 0 0)
(-0 0 0)
(-0 0 0)
(-0 0 0)
(-0 0 0)
(-0 0 0)
(-0 0 0)
(-0 0 0)
(-0 0 0)
(-0 0 0)
(-0 0 0)
(-0 0 0)
(-0 0 0)
(-0 0 0)
(-0 0 0)
(-0 0 0)
(-0 0 0)
(-0 0 0)
(-0 0 0)
(-0 0 0)
(-0 0 0)
(-0 0 0)
(-0 0 0)
(-0 0 0)
(-0 0 0)
(-0 0 0)
(-0 0 0)
(-0 0 0)
(-0 0 0)
(4.30534e-05 -3.26018e-21 -3.85269e-06)
(6.02375e-05 -6.46955e-21 -7.60116e-06)
(3.54602e-05 -3.26862e-21 -2.6068e-06)
(3.44652e-05 0 -2.46183e-06)
(2.75649e-05 -3.27563e-21 -1.57184e-06)
(2.54024e-05 3.27724e-21 -1.33424e-06)
(2.21712e-05 0 -1.01572e-06)
(1.89655e-05 0 -7.42811e-07)
(1.77098e-05 0 -6.47578e-07)
(1.54656e-05 0 -4.93697e-07)
(1.48377e-05 0 -4.54388e-07)
(7.71932e-06 0 -1.229e-07)
(1.16913e-05 0 -2.82008e-07)
(6.61884e-06 0 -9.03504e-08)
(9.85993e-06 0 -2.00545e-07)
(1.49624e-05 1.64158e-21 -4.62062e-07)
(1.2658e-05 1.64202e-21 -3.30609e-07)
(7.82098e-06 -8.21357e-22 -1.2616e-07)
(6.24489e-06 8.21435e-22 -8.0428e-08)
(7.69887e-06 0 -1.2225e-07)
(-2.32075e-07 0 -1.11056e-10)
(8.58405e-06 0 -1.51987e-07)
(-1.26657e-06 0 -3.30784e-09)
(6.38562e-06 0 -8.40943e-08)
(-7.35998e-06 8.21382e-22 -1.11722e-07)
(2.50953e-06 0 -1.29862e-08)
(1.00751e-05 0 -2.09397e-07)
(5.13162e-06 4.10739e-22 -5.43053e-08)
(1.04849e-05 0 -2.26787e-07)
(-2.85911e-06 0 -1.68563e-08)
(5.0614e-06 0 -5.28292e-08)
(-5.90682e-06 0 -7.19544e-08)
(1.46697e-06 1.02695e-22 -4.43745e-09)
(-5.6954e-06 0 -6.68951e-08)
(4.25243e-07 0 -3.72873e-10)
(-7.12272e-06 0 -1.04634e-07)
(-3.55172e-06 0 -2.60127e-08)
(1.18117e-05 0 -2.87853e-07)
(-2.57409e-06 -2.05387e-22 -1.36629e-08)
(2.45054e-06 2.05387e-22 -1.23828e-08)
(-5.49193e-06 -4.10733e-22 -6.22001e-08)
(-7.36442e-06 0 -1.11857e-07)
(-3.0736e-06 -4.10769e-22 -1.94804e-08)
(-1.10222e-05 0 -2.5064e-07)
(-6.3794e-06 0 -8.39305e-08)
(-1.32699e-06 1.02696e-22 -3.631e-09)
(5.49302e-06 0 -6.22247e-08)
(-1.14228e-06 -1.02696e-22 -2.69049e-09)
(-7.56497e-06 0 -1.18034e-07)
(-3.75928e-06 0 -2.91421e-08)
(-8.6728e-06 0 -1.55147e-07)
(-6.70704e-06 0 -9.27748e-08)
(-8.50487e-06 0 -1.49195e-07)
(2.96573e-06 -4.1077e-22 -1.81369e-08)
(4.53688e-06 -4.10749e-22 -4.24461e-08)
(-2.9562e-06 0 -1.80206e-08)
(-3.68194e-06 -4.10762e-22 -2.79552e-08)
(1.05878e-06 1.02696e-22 -2.31151e-09)
(6.06581e-06 0 -7.58806e-08)
(-8.66848e-07 0 -1.54943e-09)
(-8.9792e-06 -8.21289e-22 -1.66307e-07)
(-7.66881e-06 8.21365e-22 -1.21297e-07)
(-1.52853e-06 0 -4.81765e-09)
(-3.55993e-06 -4.10763e-22 -2.61332e-08)
(4.50414e-06 -4.1075e-22 -4.18356e-08)
(4.70188e-06 0 -4.559e-08)
(1.03223e-05 0 -2.19803e-07)
(5.04919e-06 -4.10741e-22 -5.25745e-08)
(-3.83783e-06 4.1076e-22 -3.03728e-08)
(-6.76789e-07 -5.13481e-23 -9.44479e-10)
(-7.60358e-06 0 -1.19242e-07)
(-3.2961e-06 0 -2.2403e-08)
(-3.97503e-06 -4.10758e-22 -3.25833e-08)
(-5.62717e-06 4.1073e-22 -6.53017e-08)
(-5.68499e-07 -5.13481e-23 -6.66415e-10)
(1.0725e-05 0 -2.37298e-07)
(8.7979e-06 8.213e-22 -1.59657e-07)
(2.91645e-06 0 -1.75393e-08)
(-5.02043e-07 0 -5.19718e-10)
(-3.70901e-06 4.10761e-22 -2.83679e-08)
(-1.62564e-06 0 -5.44929e-09)
(-4.59003e-06 0 -4.34466e-08)
(3.8124e-06 0 -2.99716e-08)
(7.33362e-06 0 -1.10923e-07)
(4.93787e-06 0 -5.02817e-08)
(-6.77309e-07 0 -9.45931e-10)
(-4.70965e-06 4.10747e-22 -4.57408e-08)
(-3.65081e-06 4.10762e-22 -2.74846e-08)
(-6.66038e-07 0 -9.14711e-10)
(8.84097e-06 0 -1.61224e-07)
(-3.76772e-06 0 -2.92732e-08)
(7.42046e-07 0 -1.1354e-09)
(-4.97528e-06 4.10742e-22 -5.10465e-08)
(-2.35106e-06 0 -1.13978e-08)
(-7.81631e-06 0 -1.26009e-07)
(-4.33394e-06 0 -3.87335e-08)
(9.5392e-06 0 -1.87706e-07)
(3.29395e-06 0 -2.23738e-08)
(1.33146e-05 1.6419e-21 -3.65824e-07)
(1.28571e-06 1.02696e-22 -3.40861e-09)
(9.37209e-06 0 -1.81184e-07)
(-1.11582e-05 0 -2.56865e-07)
(-5.72174e-06 0 -6.75153e-08)
(-9.12676e-07 -1.02696e-22 -1.71759e-09)
(-5.58643e-06 -4.10731e-22 -6.43594e-08)
(-7.39988e-07 0 -1.12911e-09)
(-1.1533e-05 0 -2.7442e-07)
(9.59675e-07 1.02696e-22 -1.89904e-09)
(-2.05219e-06 -2.05389e-22 -8.6842e-09)
(1.00035e-05 8.21221e-22 -2.06432e-07)
(-7.28844e-06 0 -1.0956e-07)
(-8.747e-07 0 -1.57763e-09)
(-5.28993e-06 -4.10737e-22 -5.77081e-08)
(-4.53448e-06 4.1075e-22 -4.24011e-08)
(-3.55158e-06 0 -2.60107e-08)
(-4.18435e-07 0 -3.61028e-10)
(9.9286e-06 0 -2.0335e-07)
(3.81884e-06 -4.1076e-22 -3.00728e-08)
(1.83933e-05 1.64077e-21 -6.98602e-07)
(-1.36141e-06 0 -3.82178e-09)
(7.77597e-06 -8.2136e-22 -1.24711e-07)
(-9.694e-06 0 -1.9385e-07)
(1.0142e-05 0 -2.12188e-07)
(-6.75901e-06 0 -9.42184e-08)
(-4.1443e-06 0 -3.54176e-08)
(1.98966e-06 0 -8.16299e-09)
(-1.16838e-05 0 -2.81649e-07)
(2.80295e-06 0 -1.62006e-08)
(-1.35556e-05 0 -3.79194e-07)
(1.02669e-05 0 -2.1745e-07)
(-6.30799e-06 0 -8.20617e-08)
(7.45405e-06 0 -1.14597e-07)
(-9.36502e-06 0 -1.80911e-07)
(8.34265e-06 0 -1.43556e-07)
(-2.89015e-06 2.05385e-22 -1.72243e-08)
(-5.2088e-06 0 -5.59515e-08)
(1.11104e-06 -1.02696e-22 -2.54537e-09)
(-7.8561e-06 8.21355e-22 -1.27295e-07)
(2.52388e-06 0 -1.31351e-08)
(-1.16954e-05 -8.21093e-22 -2.82206e-07)
(8.87383e-06 0 -1.62425e-07)
(-7.76574e-08 0 -1.24351e-11)
(1.45489e-05 1.64166e-21 -4.36853e-07)
(-1.19154e-05 1.64215e-21 -2.92929e-07)
(9.73558e-06 0 -1.95517e-07)
(-1.28835e-05 0 -3.42497e-07)
(1.52412e-06 -2.05391e-22 -4.78993e-09)
(2.16788e-06 0 -9.69091e-09)
(1.37632e-06 -1.02696e-22 -3.90594e-09)
(7.05111e-06 8.21397e-22 -1.0254e-07)
(3.69629e-06 -4.10762e-22 -2.81736e-08)
(9.12314e-06 8.2128e-22 -1.71683e-07)
(-1.45135e-05 -1.64167e-21 -4.34728e-07)
(7.70886e-06 -8.21363e-22 -1.22568e-07)
(-1.51327e-05 -1.64154e-21 -4.72651e-07)
(1.22338e-05 1.6421e-21 -3.08803e-07)
(-1.41003e-05 0 -4.10309e-07)
(6.02064e-06 0 -7.47544e-08)
(-1.19906e-05 1.64214e-21 -2.96641e-07)
(6.16073e-06 8.21438e-22 -7.82743e-08)
(-5.01491e-06 -4.10742e-22 -5.18631e-08)
(-5.80919e-06 -4.10726e-22 -6.9595e-08)
(9.05062e-06 0 -1.68964e-07)
(2.53752e-06 0 -1.32775e-08)
(7.23947e-06 8.21388e-22 -1.08093e-07)
(-3.08886e-06 0 -1.96743e-08)
(5.17259e-06 4.10739e-22 -5.5176e-08)
(-1.3979e-05 1.64178e-21 -4.03271e-07)
(5.11308e-06 0 -5.39137e-08)
(-2.73628e-06 0 -1.5439e-08)
(1.18918e-05 0 -2.91773e-07)
(-4.1862e-06 0 -3.61375e-08)
(1.07994e-05 0 -2.40605e-07)
(-1.3368e-05 0 -3.68763e-07)
(7.19954e-06 8.2139e-22 -1.06903e-07)
(-1.72406e-05 1.64106e-21 -6.13681e-07)
(-4.77117e-06 0 -4.69437e-08)
(-9.83263e-06 0 -1.99436e-07)
(6.82064e-06 -8.21408e-22 -9.59449e-08)
(-8.03848e-06 -8.21345e-22 -1.33276e-07)
(-8.99788e-06 0 -1.66999e-07)
(2.04553e-06 0 -8.62786e-09)
(-4.92347e-07 0 -4.99836e-10)
(8.93952e-06 0 -1.64839e-07)
(-6.91226e-06 0 -9.85402e-08)
(9.43546e-06 0 -1.83644e-07)
(-6.67054e-06 0 -9.17676e-08)
(-1.09517e-05 0 -2.47442e-07)
(-1.28443e-05 0 -3.40419e-07)
(-1.13932e-05 8.21117e-22 -2.67803e-07)
(-1.87877e-05 1.64067e-21 -7.28928e-07)
(-1.59106e-05 -1.64137e-21 -5.2255e-07)
(-2.69564e-05 0 -1.50299e-06)
(-2.29985e-05 0 -1.09312e-06)
(-4.04218e-05 3.26329e-21 -3.39286e-06)
(-3.51033e-05 3.26897e-21 -2.55432e-06)
(-7.54735e-05 -6.40933e-21 -1.20447e-05)
(-4.69503e-05 0 -4.58871e-06)
(-0 0 0)
(-0 0 0)
(-0 0 0)
)
;

boundaryField
{
    inlet
    {
        type            calculated;
        value           uniform (0 0 0);
    }
    outlet
    {
        type            calculated;
        value           uniform (0 0 0);
    }
    sideWall
    {
        type            empty;
    }
}


// ************************************************************************* //
