/*--------------------------------*- C++ -*----------------------------------*\
| =========                 |                                                 |
| \\      /  F ield         | foam-extend: Open Source CFD                    |
|  \\    /   O peration     | Version:     3.2                                |
|   \\  /    A nd           | Web:         http://www.foam-extend.org         |
|    \\/     M anipulation  | For copyright notice see file Copyright         |
\*---------------------------------------------------------------------------*/
FoamFile
{
    version     2.0;
    format      ascii;
    class       areaScalarField;
    location    "160";
    object      zCo;
}
// * * * * * * * * * * * * * * * * * * * * * * * * * * * * * * * * * * * * * //

dimensions      [0 1 0 0 0 0 0];

internalField   nonuniform List<scalar> 
300
(
0
0
0
0
0
0
0
0
0
0
0
0
0
0
0
0
0
0
0
0
0
0
0
0
0
0
0
0
0
0
0
0
0
0
0
0
0
0
0
0
0
0
0
0
0
0
0
0
0
0
0
0
0
0
0
0
0
0
0
0
0
0
0
0
0
0
0
0
0
0
0
0
0
0
0
0
0
0
0
0
0
0
0
0
0
0
0
0
0
0
0
0
0
0
0
0
0
0
0
-0.00223716
-0.00762898
-0.0126215
-0.0162451
-0.0194564
-0.022195
-0.0246535
-0.0267779
-0.0286712
-0.0303835
-0.0319471
-0.0331107
-0.0341118
-0.0350561
-0.0359058
-0.0371864
-0.0386114
-0.0396676
-0.0403928
-0.0411118
-0.0414968
-0.0419275
-0.0423048
-0.0425688
-0.0425185
-0.0422684
-0.0429174
-0.0437015
-0.0445068
-0.0449002
-0.0450137
-0.0449701
-0.0447412
-0.0445232
-0.0442515
-0.0439061
-0.0433558
-0.0437819
-0.0442585
-0.0442521
-0.0440953
-0.0434325
-0.0428943
-0.0421673
-0.04127
-0.0408726
-0.0410874
-0.0413117
-0.0408628
-0.0402789
-0.0396379
-0.0388449
-0.0380605
-0.0377748
-0.0381616
-0.0382431
-0.0379009
-0.0377657
-0.038133
-0.038401
-0.0378933
-0.0370349
-0.0365606
-0.0362983
-0.036347
-0.0368216
-0.0375964
-0.038389
-0.0384515
-0.0382188
-0.0377918
-0.0372298
-0.036855
-0.0363599
-0.0360405
-0.0365644
-0.0375712
-0.0381752
-0.0382997
-0.0380826
-0.0378076
-0.0374871
-0.037447
-0.0380217
-0.0386544
-0.0388741
-0.0385963
-0.0381653
-0.0379428
-0.0383644
-0.038626
-0.03847
-0.0382518
-0.0378741
-0.0373499
-0.0367234
-0.0369919
-0.0376536
-0.0385103
-0.0392635
-0.0398131
-0.0397209
-0.0388504
-0.0385083
-0.0381733
-0.0378471
-0.0372141
-0.0366687
-0.0366124
-0.0370225
-0.0371626
-0.0367417
-0.0364239
-0.0359174
-0.0355005
-0.0352959
-0.0357863
-0.0364952
-0.0376416
-0.038521
-0.0388518
-0.0387528
-0.0387759
-0.0389505
-0.0383883
-0.0382772
-0.0377772
-0.037319
-0.0367642
-0.0365943
-0.0367986
-0.0368577
-0.0367591
-0.0367063
-0.0369875
-0.03657
-0.0363587
-0.0360109
-0.035736
-0.0352628
-0.0351172
-0.0355708
-0.0363174
-0.0364535
-0.036341
-0.0361784
-0.0355924
-0.0357827
-0.0359654
-0.0363999
-0.036954
-0.037615
-0.0373367
-0.0369853
-0.036602
-0.0364522
-0.0363557
-0.0359387
-0.0356306
-0.0353297
-0.0353888
-0.0348308
-0.034998
-0.0355955
-0.0360996
-0.0363136
-0.0364211
-0.0359665
-0.0355089
-0.0356315
-0.0361038
-0.0365014
-0.0368426
-0.0367099
-0.0363915
-0.0358728
-0.034737
-0.0339839
-0.0338285
-0.0337657
-0.0328872
-0.0325287
-0.0326087
-0.0330443
-0.0331489
-0.0332791
-0.0334217
-0.032513
-0.0312855
-0.0300353
-0.0284777
-0.0266867
-0.0244717
-0.0218896
-0.0186029
-0.0146854
-0.00887649
-0.00244339
0
0
0
)
;

boundaryField
{
    inlet
    {
        type            calculated;
        value           uniform 0;
    }
    outlet
    {
        type            calculated;
        value           uniform 0;
    }
    sideWall
    {
        type            empty;
    }
}


// ************************************************************************* //
