/*--------------------------------*- C++ -*----------------------------------*\
| =========                 |                                                 |
| \\      /  F ield         | foam-extend: Open Source CFD                    |
|  \\    /   O peration     | Version:     3.2                                |
|   \\  /    A nd           | Web:         http://www.foam-extend.org         |
|    \\/     M anipulation  | For copyright notice see file Copyright         |
\*---------------------------------------------------------------------------*/
FoamFile
{
    version     2.0;
    format      ascii;
    class       areaScalarField;
    location    "160";
    object      zDimA;
}
// * * * * * * * * * * * * * * * * * * * * * * * * * * * * * * * * * * * * * //

dimensions      [0 1 0 0 0 0 0];

internalField   nonuniform List<scalar> 
300
(
0.0028125
0.0028125
0.0028125
0.0028125
0.0028125
0.0028125
0.0028125
0.0028125
0.0028125
0.0028125
0.0028125
0.0028125
0.0028125
0.0028125
0.0028125
0.0028125
0.0028125
0.0028125
0.0028125
0.0028125
0.0028125
0.0028125
0.0028125
0.0028125
0.0028125
0.0028125
0.0028125
0.0028125
0.0028125
0.0028125
0.0028125
0.0028125
0.0028125
0.0028125
0.0028125
0.0028125
0.0028125
0.0028125
0.0028125
0.0028125
0.0028125
0.0028125
0.0028125
0.0028125
0.0028125
0.0028125
0.0028125
0.0028125
0.0028125
0.0028125
0.0028125
0.0028125
0.0028125
0.0028125
0.0028125
0.0028125
0.0028125
0.0028125
0.0028125
0.0028125
0.0028125
0.0028125
0.0028125
0.0028125
0.0028125
0.0028125
0.0028125
0.0028125
0.0028125
0.0028125
0.0028125
0.0028125
0.0028125
0.0028125
0.0028125
0.0028125
0.0028125
0.0028125
0.0028125
0.0028125
0.0028125
0.0028125
0.0028125
0.0028125
0.0028125
0.0028125
0.0028125
0.0028125
0.0028125
0.0028125
0.0028125
0.0028125
0.0028125
0.0028125
0.0028125
0.0028125
0.0028125
0.00281329
0.00281329
0.00727576
0.00913323
0.00651377
0.00639022
0.00567224
0.00544339
0.00510766
0.00477446
0.00464314
0.00441104
0.00434431
0.00361047
0.00401453
0.00349419
0.00382475
0.00435179
0.00411654
0.00361725
0.00345287
0.00360128
0.00282783
0.00368919
0.00293449
0.00346238
0.00356257
0.00306232
0.00384414
0.00333905
0.00388631
0.00309764
0.00332474
0.00341203
0.00295419
0.00339078
0.00284735
0.00353991
0.0031669
0.00401921
0.00306919
0.00305645
0.00337312
0.00356346
0.00312631
0.00394139
0.00346227
0.00294027
0.00336985
0.00292621
0.00358432
0.00319577
0.00369974
0.00349899
0.00367885
0.00310751
0.00327322
0.00311098
0.00318405
0.00291358
0.00342979
0.00289863
0.00373204
0.00359479
0.00296513
0.0031705
0.00326787
0.00329189
0.00386948
0.00332953
0.00320035
0.00287907
0.00358885
0.00314679
0.00321742
0.00338543
0.0028615
0.00390917
0.00371569
0.00310987
0.00286005
0.00318851
0.00297602
0.00327705
0.00319686
0.00356214
0.00331708
0.0028781
0.00329212
0.00318251
0.0028719
0.00371503
0.00319322
0.00288125
0.00331891
0.00305212
0.00361246
0.0032489
0.00378591
0.00315001
0.00417695
0.00294532
0.00376983
0.00395608
0.00339547
0.00290345
0.00338112
0.00288872
0.00399235
0.00290158
0.00301418
0.00383439
0.00355624
0.00289996
0.00335304
0.00327534
0.00317333
0.00284736
0.00382828
0.00320512
0.00470179
0.00294381
0.00360535
0.00379979
0.00384604
0.00350385
0.00323273
0.00301056
0.00400733
0.00309103
0.00419754
0.00385786
0.00345243
0.00357066
0.00376683
0.00366132
0.00310699
0.00334271
0.00292018
0.00361388
0.00306393
0.00400676
0.00371546
0.002813
0.00430366
0.00402871
0.00380363
0.00413223
0.00296016
0.00303258
0.00295125
0.00353402
0.003192
0.00374742
0.00429763
0.00359494
0.00435985
0.00406025
0.0042557
0.00342156
0.00403892
0.00343721
0.00332694
0.00340286
0.00373729
0.0030744
0.00355394
0.00312403
0.00333891
0.00424449
0.00332929
0.0030857
0.00403036
0.00323454
0.00391688
0.0041803
0.00354346
0.00458482
0.00330505
0.00381755
0.00350674
0.00363992
0.00373438
0.00301729
0.00285767
0.00372888
0.00351755
0.00377792
0.00350178
0.00394375
0.00413768
0.00399226
0.0047525
0.00446217
0.00560153
0.00520287
0.00701317
0.00649026
0.0108066
0.00768768
0.00281333
0.00281333
0.0028125
)
;

boundaryField
{
    inlet
    {
        type            calculated;
        value           uniform 0;
    }
    outlet
    {
        type            calculated;
        value           uniform 0;
    }
    sideWall
    {
        type            empty;
    }
}


// ************************************************************************* //
