/*--------------------------------*- C++ -*----------------------------------*\
| =========                 |                                                 |
| \\      /  F ield         | foam-extend: Open Source CFD                    |
|  \\    /   O peration     | Version:     3.2                                |
|   \\  /    A nd           | Web:         http://www.foam-extend.org         |
|    \\/     M anipulation  | For copyright notice see file Copyright         |
\*---------------------------------------------------------------------------*/
FoamFile
{
    version     2.0;
    format      ascii;
    class       areaScalarField;
    location    "120";
    object      angBeta;
}
// * * * * * * * * * * * * * * * * * * * * * * * * * * * * * * * * * * * * * //

dimensions      [0 0 0 0 0 0 0];

internalField   nonuniform List<scalar> 
550
(
0.002
0.002
0.002
0.002
0.002
0.002
0.002
0.002
0.002
0.002
0.002
0.002
0.002
0.002
0.002
0.002
0.002
0.002
0.002
0.002
0.002
0.002
0.002
0.002
0.002
0.002
0.002
0.002
0.002
0.002
0.002
0.002
0.002
0.002
0.002
0.002
0.002
0.002
0.002
0.002
0.002
0.002
0.002
0.002
0.002
0.002
0.002
0.002
0.002
0.002
0.002
0.002
0.002
0.002
0.002
0.002
0.002
0.002
0.002
0.002
0.002
0.002
0.002
0.002
0.002
0.002
0.002
0.002
0.002
0.002
0.002
0.002
0.002
0.002
0.002
0.002
0.002
0.002
0.002
0.002
0.002
0.002
0.002
0.002
0.002
0.002
0.002
0.002
0.002
0.002
0.002
0.002
0.002
0.002
0.002
0.002
0.002
0.002
0.002
0.002
0.002
0.002
0.002
0.002
0.002
0.002
0.002
0.002
0.002
0.002
0.002
0.002
0.002
0.002
0.002
0.002
0.002
0.002
0.002
0.002
0.002
0.002
0.002
0.002
0.002
0.002
0.002
0.0020008
0.00200421
0.00199018
0.00187725
0.00177921
0.00177086
0.00176342
0.001763
0.00176439
0.00176656
0.00176917
0.00177199
0.00177497
0.00177804
0.00178117
0.00178435
0.00178757
0.00179082
0.00179408
0.00179731
0.00180036
0.00180338
0.0018067
0.00181013
0.00181364
0.00181738
0.00182109
0.00182477
0.0018286
0.00183234
0.00183588
0.00183936
0.00184309
0.00184692
0.00185066
0.00185435
0.001858
0.00186167
0.00186528
0.00186885
0.00187236
0.00187587
0.00187934
0.00188274
0.00188608
0.00188942
0.00189275
0.00189604
0.00189931
0.00190254
0.00190571
0.00190892
0.00191215
0.00191531
0.00191839
0.00192142
0.00192443
0.0019274
0.00193028
0.00193309
0.00193585
0.00193853
0.00194113
0.00194367
0.00194611
0.00194846
0.00195076
0.00195297
0.0019551
0.00195716
0.00195915
0.00196101
0.00196266
0.00196423
0.00196573
0.00196698
0.00196811
0.00196919
0.00197018
0.00197148
0.00197281
0.00197395
0.00197503
0.00197581
0.00197628
0.00197665
0.00197716
0.00197774
0.00197818
0.00197845
0.00197875
0.00197891
0.00197907
0.0019791
0.00197904
0.00197857
0.00197735
0.00197518
0.00197271
0.00197058
0.00196896
0.00196779
0.00196695
0.00196643
0.00196619
0.00196606
0.00196601
0.00196601
0.00196603
0.00196609
0.00196614
0.00196618
0.00196632
0.00196645
0.00196668
0.00196684
0.00196714
0.00196737
0.00196766
0.00196794
0.00196825
0.00196854
0.00196893
0.00196941
0.00196993
0.00197046
0.001971
0.00197152
0.00197212
0.00197269
0.00197324
0.00197381
0.00197439
0.00197494
0.00197555
0.00197618
0.00197686
0.00197749
0.00197813
0.00197872
0.0019793
0.00197986
0.00198041
0.00198104
0.00198171
0.00198251
0.00198325
0.00198413
0.00198495
0.00198601
0.00198705
0.00198816
0.0019892
0.0019903
0.00199133
0.00199237
0.00199329
0.00199429
0.00199526
0.00199633
0.0019974
0.00199852
0.0019996
0.00200072
0.00200172
0.00200245
0.00200319
0.00200419
0.00200508
0.00200572
0.00200592
0.00200553
0.00200541
0.00200541
0.00200395
0.00200178
0.00200062
0.00200073
0.00200171
0.00200279
0.00200355
0.00200383
0.00200352
0.00200233
0.00200029
0.00199861
0.00199796
0.00199789
0.00199856
0.0019996
0.00200039
0.00200129
0.00200222
0.00200292
0.00200344
0.00200392
0.00200442
0.00200489
0.0020053
0.00200567
0.00200597
0.00200619
0.00200633
0.00200644
0.00200649
0.00200643
0.00200624
0.00200585
0.00200512
0.00200401
0.00200266
0.0020009
0.00199849
0.00199549
0.00199225
0.00199007
0.00198942
0.00198863
0.00198656
0.00198323
0.0019797
0.00197729
0.0019753
0.00197329
0.00197211
0.00197166
0.00197159
0.00197127
0.0019707
0.00197038
0.00196997
0.00196943
0.00196888
0.00196837
0.00196796
0.00196761
0.00196733
0.00196705
0.00196677
0.00196659
0.00196649
0.00196647
0.00196647
0.00196655
0.00196661
0.00196678
0.001967
0.00196724
0.00196748
0.00196782
0.00196817
0.0019686
0.00196906
0.00196954
0.00197017
0.00197076
0.00197142
0.00197202
0.00197274
0.0019734
0.00197416
0.0019749
0.00197572
0.00197639
0.0019771
0.00197772
0.00197831
0.00197877
0.0019792
0.00197958
0.00197999
0.00198036
0.00198081
0.00198118
0.00198154
0.00198186
0.0019822
0.00198265
0.00198304
0.00198338
0.00198363
0.00198391
0.0019842
0.00198451
0.00198482
0.00198517
0.00198559
0.00198603
0.0019865
0.00198703
0.00198748
0.00198799
0.00198846
0.00198902
0.00198947
0.00198994
0.00199037
0.00199069
0.00199077
0.00199084
0.00199071
0.00199075
0.00199105
0.00199116
0.00199106
0.00199062
0.00199025
0.00199075
0.00199138
0.00199149
0.00199125
0.00199095
0.00199051
0.00199006
0.00199045
0.00199145
0.00199209
0.00199227
0.00199217
0.00199194
0.00199179
0.00199159
0.00199156
0.0019918
0.00199201
0.00199205
0.00199185
0.00199168
0.00199205
0.00199286
0.00199354
0.00199405
0.00199453
0.00199495
0.00199532
0.00199575
0.00199619
0.00199652
0.00199674
0.00199682
0.00199674
0.00199652
0.00199621
0.00199595
0.00199564
0.0019951
0.00199449
0.00199405
0.00199367
0.0019934
0.00199318
0.00199286
0.00199242
0.00199134
0.00198941
0.0019877
0.00198562
0.00198326
0.00198293
0.00198387
0.00198457
0.00198514
0.00198529
0.00198523
0.00198505
0.00198472
0.00198418
0.00198353
0.00198287
0.00198223
0.00198166
0.00198112
0.0019806
0.00198014
0.00197963
0.00197918
0.00197888
0.00197874
0.00197886
0.00197916
0.00197957
0.00198005
0.00198042
0.00198069
0.00198091
0.00198115
0.00198133
0.00198155
0.00198172
0.00198187
0.0019818
0.0019816
0.00198107
0.00198026
0.00197903
0.00197737
0.00197517
0.00197169
0.00196731
0.00195994
0.0019494
0.00193278
0.00190889
0.0018739
0.0018242
0.00175043
0.00164745
0.00150379
0.00128866
0.00134015
0.000811418
0.0110082
0.0119567
0.002
0.002
0.002
0.002
0.002
0.002
0.002
0.002
0.002
0.002
)
;

boundaryField
{
    inlet
    {
        type            calculated;
        value           uniform 0;
    }
    endWall
    {
        type            calculated;
        value           uniform 0;
    }
    sideWall
    {
        type            empty;
    }
}


// ************************************************************************* //
