/*--------------------------------*- C++ -*----------------------------------*\
| =========                 |                                                 |
| \\      /  F ield         | foam-extend: Open Source CFD                    |
|  \\    /   O peration     | Version:     3.2                                |
|   \\  /    A nd           | Web:         http://www.foam-extend.org         |
|    \\/     M anipulation  | For copyright notice see file Copyright         |
\*---------------------------------------------------------------------------*/
FoamFile
{
    version     2.0;
    format      ascii;
    class       areaVectorField;
    location    "120";
    object      aUf;
}
// * * * * * * * * * * * * * * * * * * * * * * * * * * * * * * * * * * * * * //

dimensions      [0 1 -1 0 0 0 0];

internalField   nonuniform List<vector> 
550
(
(0.0700391 0 0.000106968)
(0.0822739 0 0.000112579)
(0.0950284 -7.18908e-30 0.000160109)
(0.108014 0 0.000192111)
(0.120886 9.5729e-30 0.000238682)
(0.133293 0 0.000252306)
(0.144941 -3.94248e-29 0.00027721)
(0.155571 7.24662e-29 0.000271924)
(0.165025 8.33536e-29 0.000291844)
(0.173189 -4.20038e-29 0.000308934)
(0.180049 5.18219e-29 0.000314208)
(0.185625 0 0.000301129)
(0.190004 -2.11329e-38 0.000288943)
(0.193283 6.48672e-29 0.00026788)
(0.195585 0 0.000238885)
(0.19703 6.97698e-29 0.000204492)
(0.197749 -7.49559e-29 0.000159358)
(0.197861 6.61206e-29 0.000116673)
(0.197483 3.99832e-29 8.06019e-05)
(0.196747 0 4.6603e-05)
(0.195725 1.36536e-29 1.91958e-05)
(0.194481 -1.12293e-29 -4.28988e-06)
(0.193068 0 -2.50916e-05)
(0.191534 1.23594e-29 -4.61692e-05)
(0.18992 0 -6.71798e-05)
(0.188264 0 -8.83508e-05)
(0.186596 1.8128e-29 -0.000108424)
(0.184947 0 -0.000121148)
(0.18334 0 -0.000127311)
(0.181778 0 -0.000134653)
(0.180263 -1.12768e-29 -0.000141765)
(0.178802 1.14174e-29 -0.000148148)
(0.177401 -1.14571e-29 -0.000154531)
(0.176062 -1.20654e-29 -0.000161196)
(0.174787 1.28498e-29 -0.000168035)
(0.173576 -1.34434e-29 -0.000174843)
(0.172428 0 -0.000181389)
(0.171344 0 -0.000187793)
(0.170321 0 -0.000194453)
(0.169357 1.52584e-29 -0.000201139)
(0.168451 -1.6343e-29 -0.00020866)
(0.167599 0 -0.000216488)
(0.1668 0 -0.000223314)
(0.166051 0 -0.00022989)
(0.165348 -1.71894e-29 -0.00023622)
(0.164688 0 -0.000242855)
(0.16407 0 -0.000250085)
(0.163491 -1.89127e-29 -0.000256925)
(0.162949 1.90634e-29 -0.000263344)
(0.162441 -1.91746e-29 -0.000269345)
(0.161965 0 -0.000274926)
(0.16152 0 -0.000280019)
(0.161102 -1.91016e-29 -0.000284513)
(0.160709 1.888e-29 -0.000288374)
(0.160341 -1.85209e-29 -0.000291538)
(0.159993 -1.83593e-29 -0.0002943)
(0.159665 -1.79439e-29 -0.000296407)
(0.159356 0 -0.000297735)
(0.159062 0 -0.000298771)
(0.158783 0 -0.000299709)
(0.158518 -1.65169e-29 -0.000300355)
(0.158266 -1.6006e-29 -0.000300548)
(0.158025 0 -0.00030058)
(0.157795 0 -0.000300537)
(0.157574 0 -0.000300443)
(0.157363 -1.49007e-29 -0.000300314)
(0.157159 1.46673e-29 -0.000300158)
(0.156963 0 -0.000299988)
(0.156774 0 -0.000299817)
(0.156591 0 -0.00029957)
(0.156414 0 -0.000299303)
(0.156242 0 -0.000299154)
(0.156074 1.30773e-29 -0.000299067)
(0.15591 0 -0.000298988)
(0.15575 -1.24836e-29 -0.000298965)
(0.155593 -1.24224e-29 -0.000299122)
(0.155439 1.23226e-29 -0.000299366)
(0.155288 0 -0.000299611)
(0.155139 -1.18233e-29 -0.000299723)
(0.154992 1.12435e-29 -0.000299546)
(0.154848 1.07461e-29 -0.00029921)
(0.154706 0 -0.000299029)
(0.154566 0 -0.000298889)
(0.154428 0 -0.000298801)
(0.154291 -1.99259e-29 -0.000298734)
(0.154157 0 -0.000298671)
(0.154025 0 -0.000298598)
(0.153894 0 -0.000298508)
(0.153765 -9.07057e-30 -0.000298411)
(0.153638 -8.79003e-30 -0.000298245)
(0.153512 8.56697e-30 -0.000298059)
(0.153387 -8.00947e-30 -0.000297448)
(0.153263 1.40363e-46 -0.000296813)
(0.15314 -7.68002e-30 -0.000296429)
(0.153018 1.62089e-46 -0.000296002)
(0.152896 7.26191e-30 -0.000295775)
(0.152775 0 -0.000295926)
(0.152655 0 -0.000296351)
(0.152535 -1.57351e-29 -0.000296997)
(0.152417 -8.02883e-30 -0.000297751)
(0.152299 0 -0.000298099)
(0.152182 7.47757e-30 -0.000298022)
(0.152065 -7.30645e-30 -0.00029778)
(0.151948 0 -0.000297475)
(0.151831 -7.1353e-30 -0.000297136)
(0.151713 0 -0.00029679)
(0.151594 -1.41401e-29 -0.000296426)
(0.151475 1.41132e-29 -0.000296047)
(0.151354 -7.03678e-30 -0.000295638)
(0.151231 0 -0.000295218)
(0.151108 -7.04389e-30 -0.000294788)
(0.150982 -1.40504e-29 -0.000294323)
(0.150856 1.40632e-29 -0.00029385)
(0.150728 7.08315e-30 -0.000293418)
(0.150598 -1.37903e-29 -0.000292793)
(0.150467 -6.93198e-30 -0.000292165)
(0.150334 -1.43907e-29 -0.000291734)
(0.1502 7.10815e-30 -0.000291183)
(0.150064 -6.98167e-30 -0.000290517)
(0.149927 -6.99541e-30 -0.00028989)
(0.149788 -6.99994e-30 -0.00028928)
(0.149648 1.40132e-29 -0.000288679)
(0.149507 -1.40297e-29 -0.000288085)
(0.149365 7.01795e-30 -0.000287489)
(0.149221 -7.21741e-40 -0.000286902)
(0.149076 -7.01969e-30 -0.000286316)
(0.148931 -7.0126e-30 -0.00028574)
(0.148784 -1.39946e-29 -0.000285174)
(0.148637 -6.97367e-30 -0.00028462)
(0.14849 7.37375e-40 -0.000284074)
(0.148342 -6.90534e-30 -0.000283533)
(0.148193 7.35657e-40 -0.000282995)
(0.148045 -1.36462e-29 -0.000282458)
(0.147895 -6.78193e-30 -0.000281923)
(0.147746 6.74139e-30 -0.000281391)
(0.147597 -1.34061e-29 -0.000280863)
(0.147447 -1.99909e-29 -0.00028034)
(0.147298 0 -0.000279825)
(0.147148 -1.97826e-29 -0.000279313)
(0.146999 -1.31237e-29 -0.000278805)
(0.146849 6.53187e-30 -0.000278302)
(0.1467 -6.50619e-30 -0.000277803)
(0.146552 5.29366e-40 -0.000277312)
(0.146403 -1.2931e-29 -0.000276831)
(0.146255 -6.44959e-30 -0.000276361)
(0.146107 4.21569e-40 -0.000275905)
(0.14596 -6.42985e-30 -0.000275466)
(0.145813 -1.28513e-29 -0.000275047)
(0.145667 -6.42486e-30 -0.000274648)
(0.145522 -6.42786e-30 -0.000274273)
(0.145377 1.2868e-29 -0.000273923)
(0.145233 6.44226e-30 -0.000273603)
(0.14509 -1.29028e-29 -0.000273314)
(0.144947 -2.18377e-40 -0.000273059)
(0.144806 -6.45905e-30 -0.000272835)
(0.144665 -6.45626e-30 -0.000272642)
(0.144526 -6.44359e-30 -0.000272474)
(0.144388 6.4227e-30 -0.000272327)
(0.144251 -1.27862e-29 -0.000272198)
(0.144116 6.35521e-30 -0.000272084)
(0.143981 -6.30668e-30 -0.00027198)
(0.143849 6.25464e-30 -0.000271888)
(0.143717 1.24061e-29 -0.000271813)
(0.143588 -1.2294e-29 -0.000271754)
(0.143459 -6.0848e-30 -0.000271708)
(0.143333 -6.01724e-30 -0.000271673)
(0.143208 -2.95451e-46 -0.000271647)
(0.143085 1.17422e-29 -0.000271628)
(0.142963 -5.79483e-30 -0.000271614)
(0.142843 -3.56718e-46 -0.000271604)
(0.142725 -5.63653e-30 -0.000271598)
(0.142609 -3.92502e-46 -0.000271593)
(0.142495 0 -0.000271591)
(0.142383 0 -0.000271591)
(0.142273 5.30707e-30 -0.000271594)
(0.142164 -5.22761e-30 -0.000271599)
(0.142058 5.15334e-30 -0.000271607)
(0.141953 5.08093e-30 -0.000271619)
(0.141851 1.00253e-29 -0.000271635)
(0.14175 -4.94481e-30 -0.000271655)
(0.141651 -4.77113e-46 -0.000271681)
(0.141555 -4.81268e-30 -0.000271711)
(0.14146 -4.90479e-46 -0.000271746)
(0.141367 -4.67967e-30 -0.000271785)
(0.141276 9.22277e-30 -0.000271828)
(0.141186 0 -0.000271876)
(0.141099 4.47827e-30 -0.000271925)
(0.141014 -4.41824e-30 -0.000271981)
(0.14093 -5.32039e-46 -0.000272039)
(0.140848 8.58691e-30 -0.000272099)
(0.140769 -4.2307e-30 -0.000272159)
(0.140691 0 -0.000272218)
(0.140614 0 -0.000272279)
(0.14054 0 -0.00027234)
(0.140468 -3.99191e-30 -0.000272403)
(0.140397 1.9417e-45 -0.000272467)
(0.140329 1.89459e-45 -0.000272533)
(0.140262 7.70871e-30 -0.000272606)
(0.140197 -3.81883e-30 -0.00027268)
(0.140134 -3.78109e-30 -0.000272755)
(0.140073 3.7491e-30 -0.000272838)
(0.140014 -7.4456e-30 -0.000272928)
(0.139956 -7.38197e-30 -0.000273021)
(0.139901 -1.86886e-42 -0.00027312)
(0.139847 -3.6293e-30 -0.000273226)
(0.139795 7.19569e-30 -0.000273338)
(0.139745 7.13253e-30 -0.000273454)
(0.139697 4.12491e-42 -0.000273577)
(0.13965 5.47482e-42 -0.000273704)
(0.139605 6.37196e-42 -0.000273834)
(0.139561 0 -0.000273964)
(0.139518 3.38436e-30 -0.00027409)
(0.139477 -1.51344e-41 -0.000274211)
(0.139437 1.94588e-41 -0.000274323)
(0.139398 3.246e-30 -0.000274426)
(0.139361 0 -0.000274519)
(0.139324 -3.14285e-30 -0.000274602)
(0.139288 3.09136e-30 -0.00027467)
(0.139253 3.04451e-30 -0.000274725)
(0.139218 -3.00002e-30 -0.000274764)
(0.139184 0 -0.000274788)
(0.139151 0 -0.000274797)
(0.139118 2.90508e-30 -0.000274789)
(0.139085 2.88532e-30 -0.000274764)
(0.139053 -2.86781e-30 -0.000274722)
(0.139021 -2.76808e-30 -0.000274545)
(0.138988 0 -0.000274236)
(0.138956 0 -0.000273942)
(0.138922 0 -0.000273664)
(0.138888 0 -0.000273409)
(0.138854 2.70351e-30 -0.000273177)
(0.138818 0 -0.00027297)
(0.138783 -2.74674e-30 -0.000272788)
(0.138746 0 -0.000272625)
(0.13871 2.78589e-30 -0.000272486)
(0.138673 -2.783e-30 -0.000272367)
(0.138636 0 -0.000272166)
(0.138598 2.80225e-30 -0.000272026)
(0.13856 2.58091e-30 -0.000271446)
(0.138522 -2.31364e-30 -0.000270522)
(0.138484 2.23475e-30 -0.000269624)
(0.138447 2.14231e-30 -0.000268618)
(0.138409 -2.14172e-30 -0.000267696)
(0.138372 0 -0.000266615)
(0.138335 -2.34124e-30 -0.000266165)
(0.138299 0 -0.000266352)
(0.138262 -4.93449e-30 -0.000266242)
(0.138226 0 -0.000266051)
(0.138189 2.39897e-30 -0.000265934)
(0.138152 2.38326e-30 -0.000265844)
(0.138115 0 -0.000265767)
(0.138078 2.30845e-30 -0.000265662)
(0.138041 2.26841e-30 -0.00026554)
(0.138004 0 -0.000265411)
(0.137966 0 -0.000265277)
(0.137927 0 -0.000265144)
(0.137888 0 -0.00026501)
(0.137849 0 -0.000264873)
(0.137809 2.2076e-30 -0.000264735)
(0.137768 0 -0.000264594)
(0.137727 0 -0.000264452)
(0.137686 0 -0.000264311)
(0.137644 0 -0.000264172)
(0.137601 0 -0.00026404)
(0.137558 0 -0.000263913)
(0.137515 0 -0.000263791)
(0.137471 0 -0.000263674)
(0.137427 0 -0.00026356)
(0.137382 -2.07953e-30 -0.000263448)
(0.137337 0 -0.000263338)
(0.137292 -2.03844e-30 -0.000263231)
(0.137246 0 -0.000263127)
(0.1372 0 -0.000263025)
(0.137155 1.99096e-30 -0.000262924)
(0.137109 0 -0.000262823)
(0.137062 0 -0.000262722)
(0.137016 -1.92617e-30 -0.000262622)
(0.13697 0 -0.000262525)
(0.136924 -3.80122e-30 -0.000262431)
(0.136878 0 -0.000262342)
(0.136832 -3.81749e-30 -0.000262257)
(0.136786 0 -0.00026218)
(0.13674 0 -0.000262114)
(0.136694 0 -0.000262062)
(0.136648 0 -0.000262026)
(0.136603 0 -0.000262006)
(0.136558 0 -0.000262001)
(0.136514 0 -0.000262009)
(0.13647 -1.97644e-30 -0.00026203)
(0.136427 0 -0.000262066)
(0.136384 -3.95893e-30 -0.000262119)
(0.136342 1.98129e-30 -0.00026219)
(0.1363 0 -0.00026228)
(0.136259 0 -0.000262391)
(0.136219 0 -0.000262522)
(0.136179 1.96116e-30 -0.000262672)
(0.136141 0 -0.000262839)
(0.136103 -1.91034e-30 -0.000263017)
(0.136065 0 -0.0002632)
(0.136029 1.8301e-30 -0.00026338)
(0.135993 1.78431e-30 -0.000263554)
(0.135958 0 -0.000263719)
(0.135923 -1.69954e-30 -0.000263873)
(0.13589 1.66419e-30 -0.000264015)
(0.135856 1.63326e-30 -0.000264146)
(0.135823 0 -0.000264268)
(0.135791 -1.5935e-30 -0.000264381)
(0.135758 0 -0.00026449)
(0.135727 0 -0.000264593)
(0.135695 -1.57608e-30 -0.000264696)
(0.135664 0 -0.000264798)
(0.135634 0 -0.000264901)
(0.135604 0 -0.000265007)
(0.135575 0 -0.000265116)
(0.135546 3.10722e-30 -0.000265227)
(0.135517 -1.54548e-30 -0.00026534)
(0.135489 -1.53584e-30 -0.000265455)
(0.135462 0 -0.000265571)
(0.135434 0 -0.000265687)
(0.135408 0 -0.000265802)
(0.135382 0 -0.000265914)
(0.135356 0 -0.000266024)
(0.13533 -1.43783e-30 -0.000266128)
(0.135306 0 -0.000266226)
(0.135281 0 -0.000266318)
(0.135257 0 -0.000266402)
(0.135234 -1.30553e-30 -0.000266477)
(0.135211 0 -0.000266539)
(0.135189 -1.32503e-37 -0.000266589)
(0.135166 0 -0.000266623)
(0.135145 0 -0.000266641)
(0.135123 2.26252e-30 -0.000266642)
(0.135102 1.10036e-30 -0.000266626)
(0.135082 1.38095e-37 -0.000266595)
(0.135061 0 -0.000266548)
(0.135041 0 -0.000266486)
(0.135021 0 -0.000266408)
(0.135002 9.6998e-31 -0.000266313)
(0.134982 9.57403e-31 -0.000266199)
(0.134963 -9.50418e-31 -0.000266067)
(0.134944 0 -0.000265918)
(0.134925 0 -0.000265754)
(0.134906 -4.12152e-38 -0.000265574)
(0.134886 0 -0.000265381)
(0.134867 0 -0.000265175)
(0.134847 -9.97959e-31 -0.000264958)
(0.134827 1.02278e-30 -0.000264729)
(0.134807 1.0513e-30 -0.000264489)
(0.134786 1.60668e-39 -0.000264237)
(0.134765 1.11854e-30 -0.000263974)
(0.134743 0 -0.000263703)
(0.13472 0 -0.000263425)
(0.134696 0 -0.000263144)
(0.134671 0 -0.000262863)
(0.134646 1.33518e-30 -0.000262583)
(0.13462 0 -0.000262307)
(0.134592 1.4276e-30 -0.000262033)
(0.134564 0 -0.000261763)
(0.134535 0 -0.000261495)
(0.134506 -1.52522e-30 -0.000261229)
(0.134475 3.08334e-30 -0.000260965)
(0.134444 0 -0.000260704)
(0.134412 -1.55476e-30 -0.000260447)
(0.134379 -1.55773e-30 -0.00026019)
(0.134345 0 -0.000259932)
(0.134311 0 -0.000259669)
(0.134276 -1.57006e-30 -0.000259401)
(0.13424 1.5749e-30 -0.000259127)
(0.134203 9.49851e-39 -0.000258848)
(0.134165 0 -0.000258564)
(0.134127 0 -0.000258273)
(0.134088 0 -0.000257978)
(0.134048 1.60119e-30 -0.000257677)
(0.134007 0 -0.000257373)
(0.133966 -1.62584e-30 -0.000257066)
(0.133923 2.11856e-38 -0.000256759)
(0.13388 0 -0.000256453)
(0.133835 0 -0.000256149)
(0.13379 1.77123e-30 -0.00025585)
(0.133744 1.81705e-30 -0.000255554)
(0.133697 0 -0.000255263)
(0.133648 0 -0.000254977)
(0.133599 0 -0.000254701)
(0.133549 0 -0.000254433)
(0.133499 0 -0.000254177)
(0.133447 -2.08106e-30 -0.000253934)
(0.133395 2.11259e-30 -0.000253706)
(0.133342 0 -0.000253494)
(0.133288 2.16572e-30 -0.000253297)
(0.133234 0 -0.000253116)
(0.133179 2.21697e-30 -0.000252947)
(0.133123 0 -0.000252789)
(0.133067 9.3315e-39 -0.000252638)
(0.13301 0 -0.000252493)
(0.132953 1.87503e-38 -0.000252351)
(0.132896 0 -0.000252212)
(0.132838 0 -0.000252076)
(0.13278 0 -0.000251942)
(0.132722 -2.20234e-30 -0.000251813)
(0.132663 2.1843e-30 -0.000251689)
(0.132604 -2.16606e-30 -0.000251568)
(0.132545 0 -0.000251449)
(0.132485 -2.1273e-30 -0.000251331)
(0.132426 2.10703e-30 -0.000251211)
(0.132366 2.0857e-30 -0.000251086)
(0.132306 -2.06305e-30 -0.000250954)
(0.132246 0 -0.000250817)
(0.132186 2.01441e-30 -0.000250673)
(0.132126 0 -0.000250526)
(0.132066 3.94756e-30 -0.000250375)
(0.132006 0 -0.000250223)
(0.131945 -3.88176e-30 -0.000250068)
(0.131885 0 -0.000249911)
(0.131825 -1.92962e-30 -0.00024975)
(0.131764 -1.93337e-30 -0.000249583)
(0.131703 1.96083e-38 -0.000249411)
(0.131642 0 -0.000249235)
(0.131581 0 -0.000249056)
(0.13152 -2.00409e-30 -0.000248878)
(0.131458 0 -0.000248703)
(0.131397 0 -0.000248533)
(0.131335 0 -0.000248368)
(0.131272 2.15113e-30 -0.000248208)
(0.13121 -2.19218e-30 -0.000248055)
(0.131147 0 -0.000247909)
(0.131085 0 -0.000247773)
(0.131022 -4.43081e-39 -0.000247648)
(0.130959 0 -0.000247538)
(0.130896 -2.41049e-30 -0.000247441)
(0.130834 0 -0.00024736)
(0.130771 0 -0.000247295)
(0.130708 0 -0.000247248)
(0.130646 -2.54915e-30 -0.000247222)
(0.130584 2.57234e-30 -0.000247221)
(0.130523 0 -0.000247245)
(0.130462 2.58975e-30 -0.000247292)
(0.130401 0 -0.000247359)
(0.130341 0 -0.000247446)
(0.130282 -5.11158e-30 -0.00024755)
(0.130223 2.53804e-30 -0.00024767)
(0.130165 -2.51438e-30 -0.000247802)
(0.130108 0 -0.000247945)
(0.130052 0 -0.000248095)
(0.129996 1.38305e-38 -0.000248249)
(0.129941 0 -0.000248408)
(0.129888 0 -0.000248565)
(0.129835 -2.24308e-30 -0.000248716)
(0.129783 -1.92002e-38 -0.000248853)
(0.129732 0 -0.000248974)
(0.129681 0 -0.000249079)
(0.129632 -3.97506e-30 -0.000249175)
(0.129583 0 -0.000249262)
(0.129535 -3.78835e-30 -0.00024934)
(0.129487 0 -0.000249412)
(0.12944 0 -0.000249475)
(0.129394 0 -0.000249531)
(0.129349 -3.55231e-30 -0.000249574)
(0.129304 1.75355e-30 -0.000249609)
(0.12926 1.73183e-30 -0.000249631)
(0.129216 0 -0.000249646)
(0.129173 0 -0.000249653)
(0.12913 -3.41191e-30 -0.000249658)
(0.129088 1.71215e-30 -0.000249659)
(0.129046 -1.73075e-30 -0.00024966)
(0.129005 1.75255e-30 -0.000249664)
(0.128964 0 -0.000249677)
(0.128923 -1.81546e-30 -0.000249695)
(0.128882 -3.68787e-30 -0.000249727)
(0.128841 -5.11054e-39 -0.000249765)
(0.128801 1.85922e-30 -0.000249814)
(0.12876 9.23312e-39 -0.00024986)
(0.128721 0 -0.000249908)
(0.128681 0 -0.000249945)
(0.128642 -3.53953e-30 -0.00024998)
(0.128603 1.73711e-30 -0.000249996)
(0.128564 0 -0.000250005)
(0.128525 0 -0.000249989)
(0.128487 0 -0.000249966)
(0.128449 0 -0.000249922)
(0.128412 1.56475e-30 -0.00024988)
(0.128375 0 -0.000249823)
(0.128338 0 -0.000249771)
(0.128302 0 -0.000249697)
(0.128266 0 -0.000249628)
(0.128231 1.52197e-30 -0.00024954)
(0.128195 0 -0.000249469)
(0.12816 0 -0.000249384)
(0.128125 0 -0.000249319)
(0.12809 0 -0.000249239)
(0.128055 1.57667e-30 -0.000249179)
(0.12802 3.13536e-30 -0.000249094)
(0.127985 1.59072e-30 -0.000249031)
(0.12795 -1.56847e-30 -0.000248935)
(0.127914 0 -0.000248868)
(0.127878 0 -0.000248763)
(0.127842 0 -0.000248692)
(0.127806 0 -0.000248578)
(0.127769 0 -0.000248504)
(0.127732 1.24869e-38 -0.000248374)
(0.127695 1.44526e-30 -0.00024828)
(0.127658 -1.35914e-30 -0.000248118)
(0.127621 0 -0.000247993)
(0.127584 0 -0.000247786)
(0.127546 0 -0.000247622)
(0.127508 -1.20835e-30 -0.00024736)
(0.12747 -2.0264e-38 -0.000247159)
(0.12743 -1.23003e-30 -0.000246852)
(0.12739 0 -0.000246631)
(0.127349 0 -0.000246301)
(0.127308 0 -0.000246075)
(0.127265 0 -0.000245731)
(0.127222 -1.48239e-30 -0.000245512)
(0.127177 0 -0.000245167)
(0.127133 1.51219e-30 -0.000244962)
(0.127087 0 -0.000244618)
(0.12704 0 -0.000244413)
(0.126993 0 -0.000244041)
(0.126946 -1.57103e-30 -0.000243789)
(0.126897 0 -0.000243335)
(0.126848 0 -0.000242973)
(0.126799 1.4737e-30 -0.000242365)
(0.126749 -1.54809e-30 -0.000241831)
(0.126697 0 -0.000240921)
(0.126645 -1.07826e-36 -0.000240104)
(0.12659 -2.76408e-30 -0.000238643)
(0.126534 0 -0.000237067)
(0.126474 -1.29623e-30 -0.000234558)
(0.126412 -1.976e-30 -0.000230791)
(0.126343 0 -0.000225469)
(0.126269 -1.11838e-35 -0.000218126)
(0.12618 0 -0.000206764)
(0.126082 0 -0.000192886)
(0.125954 -8.24811e-30 -0.000170534)
(0.125806 3.15056e-34 -0.000144193)
(0.125599 -2.00704e-29 -9.97719e-05)
(0.125352 0 -4.9359e-05)
(0.12498 1.61422e-29 3.29389e-05)
(0.124544 0 0.000201373)
(0.12372 2.31466e-30 -0.000278104)
(0.122387 0 -0.000286733)
(0.120545 0 0.000587242)
(0.1181 -1.12259e-28 0.00105969)
(0.114393 1.32053e-28 0.00172213)
(0.109195 0 0.00220052)
(0.101668 0 0.00321625)
(0.0906665 4.26248e-28 0.00697571)
(0.0705537 0 0.0123353)
(0.0181242 0 0.0460833)
(-0.0563032 0 0.00599884)
(-0.072916 0 -0.0112271)
)
;

boundaryField
{
    inlet
    {
        type            calculated;
        value           uniform (0 0 0);
    }
    endWall
    {
        type            calculated;
        value           uniform (0 0 0);
    }
    sideWall
    {
        type            empty;
    }
}


// ************************************************************************* //
