/*--------------------------------*- C++ -*----------------------------------*\
| =========                 |                                                 |
| \\      /  F ield         | foam-extend: Open Source CFD                    |
|  \\    /   O peration     | Version:     3.2                                |
|   \\  /    A nd           | Web:         http://www.foam-extend.org         |
|    \\/     M anipulation  | For copyright notice see file Copyright         |
\*---------------------------------------------------------------------------*/
FoamFile
{
    version     2.0;
    format      ascii;
    class       volScalarField;
    location    "120";
    object      C;
}
// * * * * * * * * * * * * * * * * * * * * * * * * * * * * * * * * * * * * * //

dimensions      [1 -3 0 0 0 0 0];

internalField   nonuniform List<scalar> 
33000
(
0.0197
0.0197
0.0197
0.0197
0.0197
0.0197
0.0197
0.0197
0.0197
0.0197
0.0197
0.0197
0.0197
0.0197
0.0197
0.0197
0.0197
0.0197
0.0197
0.0197
0.0197
0.0197
0.0197
0.0197
0.0197
0.0197
0.0197
0.0197
0.0197
0.0197
0.0197
0.0197
0.0197
0.0197
0.0197
0.0197
0.0197
0.0197
0.0197
0.0197
0.0197
0.0197
0.0197
0.0197
0.0197
0.0197
0.0197
0.0197
0.0197
0.0197
0.0197
0.0197
0.0197
0.0197
0.0197
0.0197
0.0197
0.0197
0.0197
0.0197
0.0197
0.0197
0.0197
0.0197
0.0197
0.0197
0.0197
0.0197
0.0196999
0.0196999
0.0196999
0.0196999
0.0196999
0.0196999
0.0196999
0.0196999
0.0196998
0.0196998
0.0196998
0.0196997
0.0196997
0.0196997
0.0196996
0.0196996
0.0196995
0.0196994
0.0196993
0.0196992
0.0196991
0.019699
0.0196989
0.0196987
0.0196985
0.0196983
0.0196981
0.0196979
0.0196976
0.0196973
0.0196969
0.0196965
0.0196961
0.0196957
0.0196952
0.0196946
0.019694
0.0196933
0.0196926
0.0196919
0.019691
0.0196901
0.0196892
0.0196881
0.019687
0.0196859
0.0196846
0.0196833
0.0196819
0.0196805
0.0196789
0.0196773
0.0196756
0.0196738
0.019672
0.01967
0.019668
0.0196659
0.0196637
0.0196615
0.0196592
0.0196568
0.0196543
0.0196517
0.0196491
0.0196464
0.0196437
0.0196408
0.0196379
0.019635
0.0196319
0.0196288
0.0196257
0.0196225
0.0196192
0.0196159
0.0196125
0.0196091
0.0196056
0.0196021
0.0195985
0.0195949
0.0195912
0.0195874
0.0195837
0.0195799
0.019576
0.0195721
0.0195681
0.0195642
0.0195601
0.0195561
0.019552
0.0195479
0.0195437
0.0195395
0.0195353
0.019531
0.0195268
0.0195224
0.0195181
0.0195138
0.0195094
0.019505
0.0195006
0.0194961
0.0194917
0.0194872
0.0194828
0.0194783
0.0194737
0.0194692
0.0194647
0.0194601
0.0194556
0.019451
0.0194465
0.0194419
0.0194373
0.0194327
0.0194281
0.0194235
0.0194189
0.0194143
0.0194097
0.019405
0.0194004
0.0193958
0.0193912
0.0193866
0.0193819
0.0193773
0.0193727
0.0193681
0.0193634
0.0193588
0.0193542
0.0193496
0.019345
0.0193404
0.0193358
0.0193312
0.0193266
0.019322
0.0193174
0.0193129
0.0193083
0.0193038
0.0192992
0.0192947
0.0192902
0.0192857
0.0192812
0.0192767
0.0192723
0.0192678
0.0192634
0.019259
0.0192546
0.0192502
0.0192458
0.0192415
0.0192372
0.0192329
0.0192286
0.0192244
0.0192201
0.0192159
0.0192123
0.0192089
0.0192052
0.0192015
0.0191978
0.0191941
0.0191903
0.0191864
0.0191824
0.0191784
0.0191744
0.0191703
0.0191661
0.0191619
0.0191577
0.0191535
0.0191492
0.0191449
0.0191406
0.0191362
0.0191318
0.0191274
0.019123
0.0191185
0.019114
0.0191095
0.0191049
0.0191003
0.0190956
0.0190909
0.0190862
0.0190813
0.0190765
0.0190716
0.0190666
0.0190616
0.0190565
0.0190514
0.0190462
0.0190409
0.0190356
0.0190303
0.0190249
0.0190194
0.0190139
0.0190083
0.0190026
0.0189969
0.0189912
0.0189854
0.0189796
0.0189737
0.0189677
0.0189618
0.0189558
0.0189497
0.0189436
0.0189375
0.0189314
0.0189252
0.018919
0.0189128
0.0189066
0.0189003
0.018894
0.0188878
0.0188814
0.0188751
0.0188688
0.0188625
0.0188561
0.0188497
0.0188434
0.018837
0.0188306
0.0188242
0.0188178
0.0188114
0.018805
0.0187987
0.0187923
0.0187859
0.0187795
0.0187732
0.0187668
0.0187605
0.0187541
0.0187478
0.0187415
0.0187352
0.0187289
0.0187227
0.0187165
0.0187103
0.0187041
0.0186979
0.0186918
0.0186857
0.0186796
0.0186736
0.0186675
0.0186615
0.0186556
0.0186496
0.0186437
0.0186378
0.018632
0.0186262
0.0186204
0.0186147
0.0186089
0.0186033
0.0185976
0.018592
0.0185863
0.0185807
0.0185752
0.0185696
0.0185641
0.0185586
0.0185531
0.0185476
0.0185421
0.0185367
0.0185312
0.0185258
0.0185204
0.018515
0.0185096
0.0185042
0.0184989
0.0184935
0.0184882
0.0184828
0.0184775
0.0184721
0.0184668
0.0184615
0.0184562
0.0184509
0.0184456
0.0184403
0.018435
0.0184296
0.0184243
0.018419
0.0184137
0.0184084
0.018403
0.0183977
0.0183923
0.018387
0.0183816
0.0183762
0.0183708
0.0183654
0.01836
0.0183546
0.0183492
0.0183438
0.0183383
0.0183329
0.0183274
0.018322
0.0183165
0.018311
0.0183055
0.0183
0.0182945
0.018289
0.0182834
0.0182779
0.0182723
0.0182667
0.0182611
0.0182555
0.0182498
0.0182441
0.0182384
0.0182327
0.0182269
0.0182211
0.0182153
0.0182094
0.0182035
0.0181976
0.0181916
0.0181856
0.0181795
0.0181734
0.0181673
0.0181611
0.0181549
0.0181487
0.0181424
0.0181361
0.0181298
0.0181234
0.018117
0.0181106
0.0181041
0.0180977
0.0180912
0.0180846
0.018078
0.0180715
0.0180648
0.0180582
0.0180515
0.0180449
0.0180382
0.0180315
0.0180248
0.0180181
0.0180114
0.0180047
0.0179979
0.0179912
0.0179845
0.0179778
0.0179711
0.0179644
0.0179577
0.017951
0.0179443
0.0179377
0.017931
0.0179244
0.0179177
0.0179111
0.0179045
0.0178978
0.0178912
0.0178846
0.017878
0.0178714
0.0178648
0.0178582
0.0178516
0.017845
0.0178385
0.0178319
0.0178254
0.0178189
0.0178124
0.0178059
0.0177994
0.017793
0.0177866
0.0177802
0.0177738
0.0177675
0.0177611
0.0177549
0.0177486
0.0177423
0.0177361
0.0177299
0.0177237
0.0177175
0.0177113
0.0177052
0.0176991
0.017693
0.0176869
0.0176808
0.0176747
0.0176687
0.0176627
0.0176567
0.0176507
0.0176447
0.0176387
0.0176327
0.0176267
0.0176207
0.0176147
0.0176088
0.0176028
0.0175968
0.0175908
0.0175849
0.0175789
0.0175729
0.0175669
0.017561
0.017555
0.017549
0.017543
0.017537
0.0175309
0.0175248
0.0175187
0.0175125
0.0175061
0.0174995
0.0174927
0.0174854
0.0174776
0.0174689
0.017459
0.0174479
0.0174344
0.0174538
0.01747
0.0174839
0.017496
0.0175061
0.017515
0.0175222
0.0175307
0.0175833
0.0176279
0.0176299
0.0197
0.0197
0.0197
0.0197
0.0197
0.0197
0.0197
0.0197
0.0197
0.0197
0.0197
0.0197
0.0197
0.0197
0.0197
0.0197
0.0197
0.0197
0.0197
0.0197
0.0197
0.0197
0.0197
0.0197
0.0197
0.0197
0.0197
0.0197
0.0197
0.0197
0.0197
0.0197
0.0197
0.0197
0.0197
0.0197
0.0197
0.0197
0.0197
0.0197
0.0197
0.0197
0.0197
0.0197
0.0197
0.0197
0.0197
0.0197
0.0197
0.0197
0.0197
0.0197
0.0197
0.0197
0.0197
0.0197
0.0197
0.0197
0.0197
0.0197
0.0197
0.0197
0.0196999
0.0196999
0.0196999
0.0196999
0.0196999
0.0196999
0.0196999
0.0196998
0.0196998
0.0196998
0.0196998
0.0196997
0.0196997
0.0196996
0.0196996
0.0196995
0.0196994
0.0196994
0.0196993
0.0196992
0.0196991
0.0196989
0.0196988
0.0196986
0.0196984
0.0196982
0.019698
0.0196977
0.0196974
0.019697
0.0196967
0.0196962
0.0196958
0.0196952
0.0196947
0.019694
0.0196933
0.0196926
0.0196918
0.0196909
0.0196899
0.0196889
0.0196878
0.0196866
0.0196853
0.019684
0.0196825
0.019681
0.0196794
0.0196777
0.0196759
0.019674
0.019672
0.01967
0.0196678
0.0196656
0.0196633
0.0196609
0.0196584
0.0196558
0.0196532
0.0196505
0.0196476
0.0196448
0.0196418
0.0196388
0.0196357
0.0196325
0.0196293
0.019626
0.0196226
0.0196192
0.0196157
0.0196121
0.0196086
0.0196049
0.0196012
0.0195975
0.0195937
0.0195899
0.019586
0.0195821
0.0195782
0.0195742
0.0195702
0.0195661
0.0195621
0.019558
0.0195538
0.0195497
0.0195455
0.0195413
0.0195371
0.0195328
0.0195285
0.0195242
0.0195199
0.0195155
0.0195111
0.0195068
0.0195023
0.0194979
0.0194935
0.019489
0.0194845
0.0194801
0.0194756
0.019471
0.0194665
0.019462
0.0194574
0.0194529
0.0194483
0.0194438
0.0194392
0.0194346
0.01943
0.0194254
0.0194208
0.0194162
0.0194116
0.019407
0.0194024
0.0193978
0.0193932
0.0193886
0.019384
0.0193794
0.0193748
0.0193701
0.0193655
0.0193609
0.0193563
0.0193517
0.0193471
0.0193425
0.0193379
0.0193334
0.0193288
0.0193242
0.0193196
0.0193151
0.0193105
0.019306
0.0193014
0.0192969
0.0192924
0.0192879
0.0192834
0.0192789
0.0192744
0.01927
0.0192655
0.0192611
0.0192567
0.0192523
0.0192479
0.0192435
0.0192392
0.0192349
0.0192306
0.0192263
0.019222
0.0192178
0.0192136
0.0192094
0.0192052
0.0192011
0.0191969
0.0191928
0.0191888
0.0191847
0.0191807
0.0191767
0.0191728
0.0191689
0.019165
0.0191612
0.0191575
0.0191538
0.01915
0.0191464
0.0191427
0.019139
0.0191353
0.0191317
0.019128
0.0191243
0.0191206
0.019117
0.0191133
0.0191096
0.0191059
0.0191022
0.0190984
0.0190947
0.0190909
0.0190871
0.0190832
0.0190794
0.0190755
0.0190715
0.0190675
0.0190635
0.0190594
0.0190553
0.0190511
0.0190468
0.0190425
0.0190382
0.0190337
0.0190292
0.0190247
0.0190201
0.0190154
0.0190107
0.0190059
0.019001
0.0189961
0.0189911
0.018986
0.0189809
0.0189758
0.0189706
0.0189653
0.01896
0.0189546
0.0189492
0.0189438
0.0189383
0.0189328
0.0189272
0.0189216
0.0189159
0.0189103
0.0189046
0.0188988
0.0188931
0.0188873
0.0188815
0.0188757
0.0188699
0.018864
0.0188582
0.0188523
0.0188464
0.0188405
0.0188346
0.0188287
0.0188228
0.0188169
0.018811
0.0188051
0.0187992
0.0187933
0.0187874
0.0187815
0.0187756
0.0187697
0.0187639
0.018758
0.0187522
0.0187464
0.0187405
0.0187347
0.018729
0.0187232
0.0187175
0.0187117
0.018706
0.0187004
0.0186947
0.0186891
0.0186835
0.0186779
0.0186723
0.0186668
0.0186613
0.0186558
0.0186504
0.018645
0.0186396
0.0186342
0.0186289
0.0186236
0.0186184
0.0186131
0.018608
0.0186028
0.0185977
0.0185926
0.0185875
0.0185825
0.0185775
0.0185725
0.0185676
0.0185627
0.0185578
0.018553
0.0185481
0.0185434
0.0185386
0.0185339
0.0185292
0.0185245
0.0185198
0.0185152
0.0185106
0.018506
0.0185015
0.0184969
0.0184924
0.018488
0.0184835
0.018479
0.0184746
0.0184702
0.0184658
0.0184615
0.0184571
0.0184528
0.0184485
0.0184441
0.0184399
0.0184356
0.0184313
0.018427
0.0184228
0.0184186
0.0184143
0.0184101
0.0184059
0.0184017
0.0183975
0.0183933
0.0183891
0.0183849
0.0183807
0.0183765
0.0183723
0.0183681
0.0183639
0.0183597
0.0183555
0.0183512
0.0183469
0.0183426
0.0183383
0.0183339
0.0183295
0.0183251
0.0183206
0.0183161
0.0183116
0.018307
0.0183023
0.0182977
0.0182929
0.0182881
0.0182833
0.0182784
0.0182735
0.0182685
0.0182635
0.0182585
0.0182534
0.0182483
0.0182431
0.0182379
0.0182327
0.0182275
0.0182222
0.0182168
0.0182115
0.0182061
0.0182006
0.0181952
0.0181897
0.0181841
0.0181786
0.0181729
0.0181673
0.0181616
0.0181559
0.0181502
0.0181444
0.0181387
0.0181329
0.018127
0.0181212
0.0181154
0.0181095
0.0181036
0.0180978
0.0180919
0.018086
0.0180801
0.0180743
0.0180684
0.0180626
0.0180567
0.0180509
0.018045
0.0180392
0.0180333
0.0180275
0.0180217
0.0180159
0.0180101
0.0180043
0.0179985
0.0179927
0.0179869
0.0179811
0.0179753
0.0179695
0.0179638
0.017958
0.0179523
0.0179466
0.0179409
0.0179352
0.0179295
0.0179239
0.0179182
0.0179126
0.017907
0.0179015
0.0178959
0.0178904
0.0178849
0.0178794
0.017874
0.0178686
0.0178632
0.0178578
0.0178525
0.0178471
0.0178418
0.0178365
0.0178313
0.0178261
0.0178208
0.0178156
0.0178105
0.0178053
0.0178002
0.0177951
0.01779
0.0177849
0.0177799
0.0177748
0.0177698
0.0177648
0.0177598
0.0177548
0.0177499
0.0177449
0.01774
0.0177351
0.0177302
0.0177253
0.0177205
0.0177156
0.0177107
0.0177059
0.017701
0.0176962
0.0176913
0.0176863
0.0176813
0.0176762
0.017671
0.0176656
0.01766
0.0176532
0.0176445
0.0176376
0.0176311
0.0176245
0.0176167
0.0176079
0.0175971
0.0175821
0.0175699
0.0175795
0.0176225
0.01763
0.0197
0.0197
0.0197
0.0197
0.0197
0.0197
0.0197
0.0197
0.0197
0.0197
0.0197
0.0197
0.0197
0.0197
0.0197
0.0197
0.0197
0.0197
0.0197
0.0197
0.0197
0.0197
0.0197
0.0197
0.0197
0.0197
0.0197
0.0197
0.0197
0.0197
0.0197
0.0197
0.0197
0.0197
0.0197
0.0197
0.0197
0.0197
0.0197
0.0197
0.0197
0.0197
0.0197
0.0197
0.0197
0.0197
0.0197
0.0197
0.0197
0.0197
0.0197
0.0197
0.0197
0.0197
0.0196999
0.0196999
0.0196999
0.0196999
0.0196999
0.0196999
0.0196999
0.0196999
0.0196998
0.0196998
0.0196998
0.0196997
0.0196997
0.0196997
0.0196996
0.0196996
0.0196995
0.0196994
0.0196994
0.0196993
0.0196992
0.0196991
0.0196989
0.0196988
0.0196986
0.0196984
0.0196982
0.019698
0.0196977
0.0196974
0.0196971
0.0196967
0.0196963
0.0196958
0.0196953
0.0196947
0.0196941
0.0196933
0.0196925
0.0196917
0.0196907
0.0196897
0.0196885
0.0196873
0.019686
0.0196846
0.0196831
0.0196815
0.0196797
0.0196779
0.019676
0.0196739
0.0196718
0.0196695
0.0196671
0.0196647
0.0196621
0.0196594
0.0196566
0.0196538
0.0196508
0.0196477
0.0196446
0.0196413
0.019638
0.0196346
0.0196311
0.0196276
0.0196239
0.0196202
0.0196165
0.0196126
0.0196088
0.0196048
0.0196008
0.0195968
0.0195927
0.0195886
0.0195844
0.0195802
0.0195759
0.0195717
0.0195673
0.019563
0.0195586
0.0195542
0.0195498
0.0195454
0.019541
0.0195365
0.019532
0.0195275
0.019523
0.0195185
0.019514
0.0195095
0.019505
0.0195004
0.0194959
0.0194914
0.0194868
0.0194823
0.0194777
0.0194732
0.0194686
0.019464
0.0194595
0.0194549
0.0194503
0.0194458
0.0194412
0.0194366
0.019432
0.0194274
0.0194228
0.0194183
0.0194137
0.0194091
0.0194045
0.0193999
0.0193953
0.0193908
0.0193862
0.0193816
0.019377
0.0193725
0.0193679
0.0193633
0.0193588
0.0193542
0.0193496
0.0193451
0.0193405
0.019336
0.0193314
0.0193269
0.0193223
0.0193178
0.0193133
0.0193088
0.0193043
0.0192998
0.0192953
0.0192908
0.0192863
0.0192819
0.0192774
0.019273
0.0192686
0.0192642
0.0192598
0.0192554
0.019251
0.0192466
0.0192423
0.019238
0.0192336
0.0192293
0.0192251
0.0192208
0.0192165
0.0192123
0.0192081
0.0192039
0.0191998
0.0191956
0.0191915
0.0191874
0.0191834
0.0191793
0.0191753
0.0191713
0.0191674
0.0191634
0.0191595
0.0191556
0.0191518
0.019148
0.0191442
0.0191404
0.0191367
0.0191329
0.0191293
0.0191256
0.019122
0.0191184
0.0191148
0.0191113
0.0191078
0.0191044
0.0191009
0.0190975
0.0190941
0.0190907
0.0190873
0.0190839
0.0190805
0.0190771
0.0190737
0.0190703
0.0190668
0.0190634
0.0190599
0.0190564
0.0190528
0.0190492
0.0190455
0.0190418
0.0190381
0.0190343
0.0190304
0.0190264
0.0190224
0.0190183
0.0190142
0.0190099
0.0190057
0.0190013
0.0189969
0.0189923
0.0189878
0.0189831
0.0189784
0.0189736
0.0189688
0.0189639
0.018959
0.0189539
0.0189489
0.0189438
0.0189386
0.0189334
0.0189281
0.0189228
0.0189175
0.0189121
0.0189067
0.0189013
0.0188958
0.0188903
0.0188847
0.0188792
0.0188736
0.018868
0.0188624
0.0188567
0.0188511
0.0188454
0.0188398
0.0188341
0.0188284
0.0188227
0.018817
0.0188113
0.0188057
0.0188
0.0187943
0.0187886
0.018783
0.0187773
0.0187717
0.0187661
0.0187604
0.0187548
0.0187493
0.0187437
0.0187381
0.0187326
0.018727
0.0187215
0.018716
0.0187106
0.0187051
0.0186997
0.0186943
0.0186889
0.0186835
0.0186782
0.0186729
0.0186676
0.0186623
0.0186571
0.0186519
0.0186467
0.0186416
0.0186365
0.0186314
0.0186263
0.0186213
0.0186163
0.0186114
0.0186065
0.0186016
0.0185967
0.0185919
0.0185871
0.0185824
0.0185777
0.018573
0.0185683
0.0185637
0.0185592
0.0185546
0.0185501
0.0185457
0.0185412
0.0185368
0.0185325
0.0185281
0.0185238
0.0185196
0.0185153
0.0185111
0.018507
0.0185028
0.0184987
0.0184946
0.0184906
0.0184865
0.0184825
0.0184786
0.0184746
0.0184707
0.0184668
0.0184629
0.0184591
0.0184552
0.0184514
0.0184477
0.0184439
0.0184402
0.0184364
0.0184327
0.018429
0.0184254
0.0184217
0.0184181
0.0184145
0.0184109
0.0184073
0.0184037
0.0184001
0.0183965
0.018393
0.0183894
0.0183858
0.0183822
0.0183787
0.018375
0.0183714
0.0183677
0.0183641
0.0183603
0.0183566
0.0183527
0.0183489
0.018345
0.018341
0.018337
0.0183329
0.0183287
0.0183245
0.0183203
0.018316
0.0183116
0.0183071
0.0183026
0.0182981
0.0182934
0.0182888
0.0182841
0.0182793
0.0182745
0.0182697
0.0182648
0.0182599
0.018255
0.0182501
0.0182451
0.0182401
0.018235
0.01823
0.0182249
0.0182198
0.0182146
0.0182094
0.0182042
0.018199
0.0181937
0.0181884
0.0181831
0.0181777
0.0181723
0.0181669
0.0181615
0.018156
0.0181506
0.0181451
0.0181396
0.0181341
0.0181286
0.018123
0.0181175
0.018112
0.0181065
0.0181011
0.0180956
0.0180901
0.0180847
0.0180792
0.0180738
0.0180684
0.0180629
0.0180575
0.0180522
0.0180468
0.0180414
0.018036
0.0180307
0.0180254
0.01802
0.0180147
0.0180094
0.0180041
0.0179988
0.0179935
0.0179883
0.017983
0.0179778
0.0179725
0.0179673
0.0179622
0.017957
0.0179518
0.0179467
0.0179416
0.0179366
0.0179315
0.0179265
0.0179215
0.0179165
0.0179116
0.0179067
0.0179018
0.017897
0.0178921
0.0178873
0.0178826
0.0178778
0.0178731
0.0178684
0.0178637
0.0178591
0.0178545
0.0178499
0.0178453
0.0178408
0.0178363
0.0178318
0.0178273
0.0178228
0.0178184
0.017814
0.0178096
0.0178052
0.0178009
0.0177966
0.0177923
0.017788
0.0177837
0.0177795
0.0177752
0.017771
0.0177668
0.0177626
0.0177584
0.0177543
0.0177501
0.0177459
0.0177417
0.0177374
0.017733
0.0177285
0.0177233
0.0177171
0.0177105
0.0177031
0.0176946
0.0176841
0.0176711
0.0176545
0.0176315
0.0176078
0.0175971
0.0176147
0.0176302
0.0197
0.0197
0.0197
0.0197
0.0197
0.0197
0.0197
0.0197
0.0197
0.0197
0.0197
0.0197
0.0197
0.0197
0.0197
0.0197
0.0197
0.0197
0.0197
0.0197
0.0197
0.0197
0.0197
0.0197
0.0197
0.0197
0.0197
0.0197
0.0197
0.0197
0.0197
0.0197
0.0197
0.0197
0.0197
0.0197
0.0197
0.0197
0.0197
0.0197
0.0197
0.0197
0.0197
0.0196999
0.0196999
0.0196999
0.0196999
0.0196999
0.0196999
0.0196999
0.0196999
0.0196999
0.0196998
0.0196998
0.0196998
0.0196998
0.0196997
0.0196997
0.0196997
0.0196996
0.0196996
0.0196995
0.0196995
0.0196994
0.0196993
0.0196992
0.0196991
0.019699
0.0196989
0.0196987
0.0196986
0.0196984
0.0196982
0.019698
0.0196977
0.0196975
0.0196971
0.0196968
0.0196964
0.019696
0.0196955
0.0196949
0.0196943
0.0196936
0.0196929
0.019692
0.0196911
0.0196901
0.019689
0.0196878
0.0196864
0.019685
0.0196834
0.0196817
0.0196799
0.0196779
0.0196758
0.0196736
0.0196713
0.0196688
0.0196661
0.0196634
0.0196605
0.0196575
0.0196543
0.0196511
0.0196477
0.0196442
0.0196406
0.0196369
0.0196331
0.0196292
0.0196252
0.0196211
0.019617
0.0196127
0.0196084
0.0196041
0.0195997
0.0195952
0.0195906
0.0195861
0.0195814
0.0195768
0.0195721
0.0195674
0.0195626
0.0195578
0.019553
0.0195482
0.0195434
0.0195385
0.0195336
0.0195288
0.0195239
0.019519
0.0195141
0.0195093
0.0195044
0.0194995
0.0194946
0.0194898
0.0194849
0.0194801
0.0194752
0.0194704
0.0194656
0.0194608
0.0194561
0.0194513
0.0194466
0.0194419
0.0194372
0.0194325
0.0194278
0.0194231
0.0194185
0.0194139
0.0194092
0.0194046
0.0194
0.0193955
0.0193909
0.0193863
0.0193817
0.0193772
0.0193727
0.0193681
0.0193636
0.0193591
0.0193546
0.0193501
0.0193456
0.0193411
0.0193367
0.0193322
0.0193277
0.0193233
0.0193188
0.0193144
0.01931
0.0193055
0.0193011
0.0192967
0.0192923
0.0192879
0.0192835
0.0192791
0.0192747
0.0192704
0.019266
0.0192617
0.0192574
0.019253
0.0192487
0.0192444
0.0192402
0.0192359
0.0192316
0.0192274
0.0192232
0.019219
0.0192148
0.0192106
0.0192065
0.0192023
0.0191982
0.0191941
0.01919
0.019186
0.0191819
0.0191779
0.0191739
0.0191699
0.019166
0.019162
0.0191581
0.0191542
0.0191504
0.0191465
0.0191427
0.0191389
0.0191352
0.0191314
0.0191277
0.0191241
0.0191204
0.0191168
0.0191132
0.0191097
0.0191062
0.0191027
0.0190992
0.0190958
0.0190924
0.019089
0.0190856
0.0190823
0.019079
0.0190757
0.0190725
0.0190693
0.0190661
0.0190629
0.0190597
0.0190566
0.0190534
0.0190503
0.0190472
0.019044
0.0190408
0.0190377
0.0190344
0.0190312
0.0190279
0.0190245
0.0190211
0.0190176
0.019014
0.0190104
0.0190067
0.0190029
0.018999
0.0189951
0.018991
0.0189869
0.0189827
0.0189784
0.018974
0.0189695
0.0189649
0.0189603
0.0189556
0.0189508
0.018946
0.0189411
0.0189361
0.018931
0.0189259
0.0189208
0.0189156
0.0189104
0.0189051
0.0188998
0.0188944
0.018889
0.0188836
0.0188782
0.0188727
0.0188672
0.0188617
0.0188561
0.0188506
0.018845
0.0188395
0.0188339
0.0188283
0.0188227
0.0188171
0.0188115
0.0188059
0.0188003
0.0187947
0.0187891
0.0187835
0.018778
0.0187724
0.0187669
0.0187614
0.0187559
0.0187504
0.0187449
0.0187395
0.018734
0.0187286
0.0187232
0.0187178
0.0187125
0.0187072
0.0187019
0.0186966
0.0186913
0.0186861
0.0186809
0.0186757
0.0186705
0.0186654
0.0186603
0.0186552
0.0186502
0.0186452
0.0186402
0.0186352
0.0186303
0.0186254
0.0186205
0.0186157
0.0186109
0.0186061
0.0186014
0.0185967
0.018592
0.0185874
0.0185828
0.0185782
0.0185737
0.0185692
0.0185647
0.0185603
0.0185559
0.0185516
0.0185473
0.018543
0.0185387
0.0185345
0.0185304
0.0185262
0.0185221
0.0185181
0.018514
0.01851
0.0185061
0.0185022
0.0184983
0.0184944
0.0184906
0.0184868
0.018483
0.0184793
0.0184756
0.0184719
0.0184682
0.0184646
0.018461
0.0184575
0.0184539
0.0184504
0.0184469
0.0184435
0.01844
0.0184366
0.0184333
0.0184299
0.0184265
0.0184232
0.0184199
0.0184166
0.0184134
0.0184101
0.0184069
0.0184037
0.0184005
0.0183973
0.0183942
0.018391
0.0183878
0.0183847
0.0183815
0.0183783
0.0183751
0.0183718
0.0183686
0.0183653
0.0183619
0.0183585
0.018355
0.0183515
0.0183479
0.0183442
0.0183405
0.0183366
0.0183327
0.0183287
0.0183247
0.0183205
0.0183163
0.018312
0.0183076
0.0183032
0.0182987
0.0182941
0.0182895
0.0182848
0.0182801
0.0182753
0.0182705
0.0182656
0.0182608
0.0182559
0.0182509
0.018246
0.018241
0.0182361
0.0182311
0.0182261
0.0182211
0.018216
0.018211
0.0182059
0.0182008
0.0181957
0.0181906
0.0181854
0.0181803
0.0181751
0.0181698
0.0181646
0.0181593
0.0181541
0.0181488
0.0181435
0.0181382
0.0181329
0.0181276
0.0181223
0.018117
0.0181117
0.0181064
0.0181012
0.0180959
0.0180907
0.0180855
0.0180803
0.0180751
0.01807
0.0180649
0.0180598
0.0180547
0.0180496
0.0180446
0.0180395
0.0180345
0.0180295
0.0180245
0.0180195
0.0180145
0.0180096
0.0180046
0.0179997
0.0179948
0.0179899
0.017985
0.0179802
0.0179753
0.0179705
0.0179657
0.0179609
0.0179561
0.0179514
0.0179467
0.017942
0.0179373
0.0179327
0.0179281
0.0179235
0.017919
0.0179145
0.01791
0.0179056
0.0179011
0.0178968
0.0178924
0.0178881
0.0178838
0.0178795
0.0178753
0.017871
0.0178668
0.0178627
0.0178586
0.0178544
0.0178504
0.0178463
0.0178423
0.0178382
0.0178343
0.0178303
0.0178263
0.0178224
0.0178185
0.0178146
0.0178108
0.0178069
0.0178031
0.0177993
0.0177956
0.0177918
0.0177881
0.0177843
0.0177806
0.017777
0.0177733
0.0177696
0.017766
0.0177623
0.0177585
0.0177547
0.0177506
0.017746
0.0177409
0.0177351
0.0177283
0.0177197
0.0177084
0.0176928
0.0176696
0.0176414
0.0176201
0.0176187
0.0176305
0.0197
0.0197
0.0197
0.0197
0.0197
0.0197
0.0197
0.0197
0.0197
0.0197
0.0197
0.0197
0.0197
0.0197
0.0197
0.0197
0.0197
0.0197
0.0197
0.0197
0.0197
0.0197
0.0197
0.0197
0.0197
0.0197
0.0197
0.0197
0.0197
0.0197
0.0197
0.0197
0.0197
0.0196999
0.0196999
0.0196999
0.0196999
0.0196999
0.0196999
0.0196999
0.0196998
0.0196998
0.0196998
0.0196998
0.0196997
0.0196997
0.0196997
0.0196996
0.0196996
0.0196995
0.0196995
0.0196994
0.0196993
0.0196992
0.0196992
0.0196991
0.019699
0.0196989
0.0196987
0.0196986
0.0196984
0.0196983
0.0196981
0.0196979
0.0196976
0.0196974
0.0196971
0.0196967
0.0196964
0.019696
0.0196956
0.0196951
0.0196946
0.019694
0.0196934
0.0196927
0.0196919
0.019691
0.0196901
0.0196891
0.0196879
0.0196867
0.0196853
0.0196838
0.0196822
0.0196804
0.0196785
0.0196765
0.0196743
0.0196719
0.0196694
0.0196667
0.0196638
0.0196608
0.0196576
0.0196542
0.0196507
0.0196471
0.0196433
0.0196393
0.0196352
0.019631
0.0196267
0.0196222
0.0196177
0.019613
0.0196082
0.0196034
0.0195985
0.0195935
0.0195885
0.0195834
0.0195782
0.019573
0.0195678
0.0195625
0.0195572
0.0195519
0.0195465
0.0195412
0.0195358
0.0195304
0.0195251
0.0195197
0.0195143
0.0195089
0.0195036
0.0194982
0.0194929
0.0194876
0.0194823
0.019477
0.0194718
0.0194665
0.0194613
0.0194561
0.019451
0.0194459
0.0194408
0.0194357
0.0194306
0.0194256
0.0194206
0.0194157
0.0194108
0.0194059
0.019401
0.0193962
0.0193914
0.0193867
0.019382
0.0193773
0.0193726
0.019368
0.0193634
0.0193589
0.0193543
0.0193498
0.0193453
0.0193409
0.0193364
0.019332
0.0193276
0.0193232
0.0193188
0.0193144
0.0193101
0.0193058
0.0193014
0.0192971
0.0192929
0.0192886
0.0192843
0.0192801
0.0192758
0.0192716
0.0192673
0.0192631
0.0192589
0.0192547
0.0192505
0.0192463
0.0192422
0.019238
0.0192339
0.0192297
0.0192256
0.0192215
0.0192173
0.0192133
0.0192092
0.0192051
0.019201
0.019197
0.019193
0.019189
0.019185
0.019181
0.0191771
0.0191731
0.0191692
0.0191653
0.0191614
0.0191576
0.0191537
0.0191499
0.0191461
0.0191424
0.0191386
0.0191349
0.0191312
0.0191275
0.0191238
0.0191202
0.0191166
0.019113
0.0191094
0.0191059
0.0191024
0.0190989
0.0190954
0.019092
0.0190886
0.0190852
0.0190818
0.0190785
0.0190752
0.019072
0.0190687
0.0190655
0.0190624
0.0190592
0.0190561
0.019053
0.0190499
0.0190469
0.0190439
0.0190409
0.0190379
0.019035
0.0190321
0.0190292
0.0190263
0.0190234
0.0190205
0.0190177
0.0190148
0.0190119
0.0190089
0.019006
0.0190029
0.0189998
0.0189967
0.0189934
0.0189901
0.0189867
0.0189831
0.0189795
0.0189758
0.0189719
0.0189679
0.0189638
0.0189597
0.0189554
0.018951
0.0189464
0.0189418
0.0189371
0.0189323
0.0189274
0.0189225
0.0189174
0.0189123
0.0189072
0.0189019
0.0188966
0.0188913
0.0188859
0.0188804
0.018875
0.0188695
0.018864
0.0188584
0.0188528
0.0188472
0.0188417
0.018836
0.0188304
0.0188248
0.0188192
0.0188135
0.0188079
0.0188023
0.0187967
0.0187911
0.0187855
0.0187799
0.0187743
0.0187687
0.0187632
0.0187576
0.0187521
0.0187466
0.0187411
0.0187357
0.0187303
0.0187249
0.0187195
0.0187142
0.0187088
0.0187035
0.0186983
0.0186931
0.0186879
0.0186827
0.0186775
0.0186724
0.0186673
0.0186623
0.0186572
0.0186522
0.0186473
0.0186423
0.0186374
0.0186326
0.0186277
0.0186229
0.0186181
0.0186134
0.0186087
0.018604
0.0185994
0.0185947
0.0185902
0.0185856
0.0185811
0.0185767
0.0185722
0.0185678
0.0185635
0.0185591
0.0185548
0.0185506
0.0185464
0.0185422
0.018538
0.0185339
0.0185298
0.0185258
0.0185218
0.0185178
0.0185139
0.01851
0.0185061
0.0185023
0.0184985
0.0184948
0.0184911
0.0184874
0.0184837
0.0184801
0.0184765
0.018473
0.0184694
0.018466
0.0184625
0.0184591
0.0184557
0.0184523
0.018449
0.0184456
0.0184424
0.0184391
0.0184359
0.0184327
0.0184295
0.0184263
0.0184232
0.0184201
0.018417
0.0184139
0.0184109
0.0184079
0.0184049
0.0184019
0.018399
0.018396
0.0183931
0.0183902
0.0183873
0.0183844
0.0183816
0.0183787
0.0183758
0.018373
0.0183701
0.0183672
0.0183642
0.0183613
0.0183583
0.0183552
0.0183521
0.0183488
0.0183456
0.0183422
0.0183387
0.0183351
0.0183315
0.0183277
0.0183238
0.0183198
0.0183157
0.0183115
0.0183072
0.0183029
0.0182984
0.0182938
0.0182892
0.0182845
0.0182798
0.018275
0.0182701
0.0182652
0.0182602
0.0182552
0.0182502
0.0182452
0.0182401
0.0182351
0.01823
0.0182249
0.0182198
0.0182148
0.0182097
0.0182047
0.0181996
0.0181945
0.0181895
0.0181844
0.0181793
0.0181742
0.0181691
0.018164
0.0181589
0.0181537
0.0181486
0.0181434
0.0181383
0.0181331
0.0181279
0.0181228
0.0181176
0.0181124
0.0181073
0.0181021
0.018097
0.0180919
0.0180868
0.0180818
0.0180767
0.0180717
0.0180667
0.0180618
0.0180569
0.018052
0.0180471
0.0180422
0.0180374
0.0180326
0.0180278
0.0180231
0.0180184
0.0180136
0.0180089
0.0180043
0.0179996
0.017995
0.0179904
0.0179857
0.0179812
0.0179766
0.017972
0.0179675
0.017963
0.0179585
0.017954
0.0179496
0.0179451
0.0179408
0.0179364
0.017932
0.0179277
0.0179234
0.0179192
0.017915
0.0179108
0.0179066
0.0179025
0.0178984
0.0178944
0.0178903
0.0178863
0.0178824
0.0178784
0.0178745
0.0178707
0.0178668
0.017863
0.0178592
0.0178554
0.0178517
0.017848
0.0178443
0.0178406
0.017837
0.0178334
0.0178298
0.0178262
0.0178226
0.0178191
0.0178156
0.0178121
0.0178086
0.0178052
0.0178018
0.0177984
0.017795
0.0177916
0.0177883
0.0177849
0.0177817
0.0177784
0.0177751
0.0177719
0.0177686
0.0177654
0.0177621
0.0177587
0.0177551
0.0177513
0.0177472
0.0177425
0.0177366
0.0177285
0.0177165
0.0176968
0.0176692
0.0176429
0.0176298
0.0176339
0.0197
0.0197
0.0197
0.0197
0.0197
0.0197
0.0197
0.0197
0.0197
0.0197
0.0197
0.0197
0.0197
0.0197
0.0197
0.0197
0.0197
0.0197
0.0197
0.0197
0.0197
0.0197
0.0197
0.0197
0.0197
0.0197
0.0197
0.0196999
0.0196999
0.0196999
0.0196999
0.0196999
0.0196999
0.0196998
0.0196998
0.0196998
0.0196997
0.0196997
0.0196996
0.0196996
0.0196995
0.0196994
0.0196994
0.0196993
0.0196992
0.0196991
0.0196989
0.0196988
0.0196987
0.0196985
0.0196983
0.0196981
0.0196979
0.0196977
0.0196974
0.0196971
0.0196968
0.0196965
0.0196961
0.0196956
0.0196952
0.0196947
0.0196942
0.0196936
0.0196929
0.0196922
0.0196915
0.0196907
0.0196898
0.0196889
0.0196879
0.0196868
0.0196856
0.0196843
0.0196828
0.0196813
0.0196796
0.0196778
0.0196759
0.0196737
0.0196714
0.0196689
0.0196663
0.0196634
0.0196604
0.0196572
0.0196538
0.0196502
0.0196464
0.0196424
0.0196382
0.0196339
0.0196294
0.0196248
0.01962
0.019615
0.0196099
0.0196047
0.0195993
0.0195939
0.0195884
0.0195827
0.019577
0.0195713
0.0195655
0.0195596
0.0195537
0.0195477
0.0195417
0.0195358
0.0195298
0.0195238
0.0195178
0.0195118
0.0195058
0.0194998
0.0194939
0.0194879
0.019482
0.0194762
0.0194703
0.0194645
0.0194587
0.019453
0.0194473
0.0194417
0.0194361
0.0194305
0.019425
0.0194195
0.0194141
0.0194087
0.0194034
0.0193981
0.0193929
0.0193877
0.0193825
0.0193774
0.0193724
0.0193673
0.0193624
0.0193575
0.0193526
0.0193478
0.019343
0.0193382
0.0193336
0.0193289
0.0193243
0.0193198
0.0193153
0.0193108
0.0193064
0.019302
0.0192977
0.0192933
0.0192891
0.0192848
0.0192806
0.0192764
0.0192722
0.0192681
0.019264
0.0192599
0.0192558
0.0192517
0.0192477
0.0192436
0.0192396
0.0192356
0.0192316
0.0192276
0.0192237
0.0192197
0.0192158
0.0192119
0.0192079
0.019204
0.0192001
0.0191962
0.0191923
0.0191885
0.0191846
0.0191807
0.0191769
0.019173
0.0191692
0.0191654
0.0191616
0.0191578
0.0191541
0.0191503
0.0191466
0.0191429
0.0191392
0.0191355
0.0191319
0.0191282
0.0191246
0.019121
0.0191174
0.0191139
0.0191104
0.0191069
0.0191034
0.0190999
0.0190965
0.0190931
0.0190897
0.0190863
0.0190829
0.0190796
0.0190763
0.019073
0.0190698
0.0190666
0.0190634
0.0190602
0.019057
0.0190539
0.0190508
0.0190477
0.0190447
0.0190417
0.0190387
0.0190357
0.0190327
0.0190298
0.019027
0.0190241
0.0190213
0.0190185
0.0190157
0.0190129
0.0190102
0.0190075
0.0190048
0.0190021
0.0189995
0.0189969
0.0189943
0.0189917
0.0189891
0.0189865
0.0189838
0.0189812
0.0189785
0.0189757
0.0189729
0.01897
0.0189669
0.0189638
0.0189605
0.0189571
0.0189535
0.0189498
0.018946
0.018942
0.0189379
0.0189336
0.0189292
0.0189246
0.0189199
0.0189151
0.0189102
0.0189052
0.0189
0.0188948
0.0188895
0.0188841
0.0188787
0.0188731
0.0188676
0.0188619
0.0188563
0.0188506
0.0188448
0.0188391
0.0188333
0.0188275
0.0188217
0.0188159