/*--------------------------------*- C++ -*----------------------------------*\
| =========                 |                                                 |
| \\      /  F ield         | foam-extend: Open Source CFD                    |
|  \\    /   O peration     | Version:     3.2                                |
|   \\  /    A nd           | Web:         http://www.foam-extend.org         |
|    \\/     M anipulation  | For copyright notice see file Copyright         |
\*---------------------------------------------------------------------------*/
FoamFile
{
    version     2.0;
    format      ascii;
    class       areaScalarField;
    location    "120";
    object      dd;
}
// * * * * * * * * * * * * * * * * * * * * * * * * * * * * * * * * * * * * * //

dimensions      [0 1 0 0 0 0 0];

internalField   nonuniform List<scalar> 
550
(
0.00041
0.00041
0.00041
0.00041
0.00041
0.00041
0.00041
0.00041
0.00041
0.00041
0.00041
0.00041
0.00041
0.00041
0.00041
0.00041
0.00041
0.00041
0.00041
0.00041
0.00041
0.00041
0.00041
0.00041
0.00041
0.00041
0.00041
0.00041
0.00041
0.00041
0.00041
0.00041
0.00041
0.00041
0.00041
0.00041
0.00041
0.00041
0.00041
0.00041
0.00041
0.00041
0.00041
0.00041
0.00041
0.00041
0.00041
0.00041
0.00041
0.00041
0.00041
0.00041
0.00041
0.00041
0.00041
0.00041
0.00041
0.00041
0.00041
0.00041
0.00041
0.00041
0.00041
0.00041
0.00041
0.00041
0.00041
0.00041
0.00041
0.00041
0.00041
0.00041
0.00041
0.00041
0.00041
0.00041
0.00041
0.00041
0.00041
0.00041
0.00041
0.00041
0.00041
0.00041
0.00041
0.00041
0.00041
0.00041
0.00041
0.00041
0.00041
0.00041
0.00041
0.00041
0.00041
0.00041
0.00041
0.00041
0.00041
0.00041
0.00041
0.00041
0.00041
0.00041
0.00041
0.00041
0.00041
0.00041
0.00041
0.00041
0.00041
0.00041
0.00041
0.00041
0.00041
0.00041
0.00041
0.00041
0.00041
0.00041
0.00041
0.00041
0.00041
0.00041
0.00041
0.00041
0.00041
0.00041
0.00041
0.00041
0.00041
0.00041
0.00041
0.00041
0.00041
0.00041
0.00041
0.00041
0.00041
0.00041
0.00041
0.00041
0.00041
0.00041
0.00041
0.00041
0.00041
0.00041
0.00041
0.00041
0.00041
0.00041
0.00041
0.00041
0.00041
0.00041
0.00041
0.00041
0.00041
0.00041
0.00041
0.00041
0.00041
0.00041
0.00041
0.00041
0.00041
0.00041
0.00041
0.00041
0.00041
0.00041
0.00041
0.00041
0.00041
0.00041
0.00041
0.00041
0.00041
0.00041
0.00041
0.00041
0.00041
0.00041
0.00041
0.00041
0.00041
0.00041
0.00041
0.00041
0.00041
0.00041
0.00041
0.00041
0.00041
0.00041
0.00041
0.00041
0.00041
0.00041
0.00041
0.00041
0.00041
0.00041
0.00041
0.00041
0.00041
0.00041
0.00041
0.00041
0.00041
0.00041
0.00041
0.00041
0.00041
0.00041
0.00041
0.00041
0.00041
0.00041
0.00041
0.00041
0.00041
0.00041
0.00041
0.00041
0.00041
0.00041
0.00041
0.00041
0.00041
0.00041
0.00041
0.00041
0.00041
0.000409997
0.00041
0.000410011
0.000410066
0.000410232
0.00041053
0.000410962
0.000411533
0.000412248
0.000413063
0.000413868
0.000414648
0.000415445
0.000416256
0.00041707
0.000417885
0.0004187
0.000419518
0.000420341
0.000421168
0.000422
0.000422835
0.000423673
0.000424514
0.000425358
0.000426204
0.000427051
0.000427899
0.000428748
0.000429597
0.000430444
0.000431291
0.000432135
0.000432978
0.000433817
0.000434653
0.000435485
0.000436312
0.000437135
0.000437952
0.000438763
0.000439567
0.000440365
0.000441155
0.000441937
0.00044271
0.000443474
0.000444229
0.000444974
0.000445708
0.000446432
0.000447145
0.000447847
0.000448536
0.000449214
0.000449878
0.000450529
0.000451165
0.000451786
0.00045239
0.000452977
0.000453544
0.000454093
0.00045462
0.000455128
0.000455615
0.000456081
0.000456528
0.000456954
0.00045736
0.000457748
0.000458116
0.000458465
0.000458796
0.000459108
0.000459403
0.000459681
0.000459942
0.000460186
0.000460414
0.000460626
0.000460823
0.000461005
0.000461173
0.000461327
0.000461468
0.000461597
0.000461714
0.00046182
0.000461916
0.000462002
0.000462081
0.000462153
0.000462218
0.000462278
0.000462335
0.000462389
0.000462441
0.000462493
0.000462545
0.0004626
0.000462658
0.00046272
0.000462788
0.000462863
0.000462946
0.000463038
0.00046314
0.000463253
0.000463379
0.000463518
0.000463671
0.000463838
0.000464022
0.000464221
0.000464437
0.000464671
0.000464922
0.000465191
0.000465478
0.000465784
0.000466109
0.000466452
0.000466815
0.000467196
0.000467596
0.000468014
0.000468451
0.000468906
0.000469379
0.000469869
0.000470377
0.000470902
0.000471444
0.000472002
0.000472577
0.000473166
0.000473771
0.000474391
0.000475024
0.000475671
0.000476331
0.000477003
0.000477687
0.000478381
0.000479086
0.000479801
0.000480524
0.000481256
0.000481995
0.000482743
0.000483496
0.000484257
0.000485023
0.000485795
0.000486571
0.000487352
0.000488137
0.000488925
0.000489716
0.000490509
0.000491305
0.000492103
0.000492901
0.000493701
0.000494501
0.000495302
0.000496102
0.000496901
0.000497699
0.000498495
0.000499289
0.00050008
0.000500869
0.000501654
0.000502435
0.000503212
0.000503984
0.000504751
0.000505513
0.000506269
0.000507019
0.000507764
0.000508502
0.000509233
0.000509958
0.000510676
0.000511386
0.000512088
0.000512782
0.000513468
0.000514144
0.000514812
0.000515471
0.00051612
0.000516759
0.000517388
0.000518007
0.000518615
0.000519211
0.000519795
0.000520366
0.000520922
0.000521465
0.000521991
0.000522503
0.000522998
0.000523477
0.00052394
0.000524388
0.00052482
0.000525237
0.00052564
0.000526028
0.000526402
0.000526763
0.000527111
0.000527446
0.000527768
0.000528077
0.000528374
0.000528658
0.000528931
0.000529192
0.000529441
0.000529679
0.000529906
0.000530122
0.000530328
0.000530525
0.000530712
0.000530891
0.000531061
0.000531225
0.000531381
0.00053153
0.000531674
0.000531812
0.000531945
0.000532075
0.0005322
0.000532323
0.000532443
0.000532562
0.000532679
0.000532796
0.000532913
0.00053303
0.00053315
0.000533271
0.000533395
0.000533523
0.000533655
0.000533791
0.000533933
0.000534081
0.000534235
0.000534397
0.000534565
0.000534741
0.000534924
0.000535116
0.000535315
0.000535523
0.00053574
0.000535965
0.000536198
0.00053644
0.000536691
0.000536951
0.000537219
0.000537495
0.00053778
0.000538073
0.000538374
0.000538683
0.000539
0.000539325
0.000539657
0.000539999
0.000540349
0.000540708
0.000541079
0.000541462
0.000541861
0.000542279
0.000542721
0.000543198
0.000543719
0.000544304
0.000544976
0.000545775
0.000546762
0.000548026
0.000549689
0.000551931
0.000554996
0.000559245
0.000565164
0.000573453
0.000585133
0.000599708
0.000621803
0.000584905
0.000471827
0.00041
0.00041
0.00041
0.00041
0.00041
0.00041
0.00041
0.00041
0.00041
0.00041
)
;

boundaryField
{
    inlet
    {
        type            calculated;
        value           uniform 0;
    }
    endWall
    {
        type            calculated;
        value           uniform 0;
    }
    sideWall
    {
        type            empty;
    }
}


// ************************************************************************* //
