/*--------------------------------*- C++ -*----------------------------------*\
| =========                 |                                                 |
| \\      /  F ield         | foam-extend: Open Source CFD                    |
|  \\    /   O peration     | Version:     3.2                                |
|   \\  /    A nd           | Web:         http://www.foam-extend.org         |
|    \\/     M anipulation  | For copyright notice see file Copyright         |
\*---------------------------------------------------------------------------*/
FoamFile
{
    version     2.0;
    format      ascii;
    class       areaScalarField;
    location    "120";
    object      ddmax;
}
// * * * * * * * * * * * * * * * * * * * * * * * * * * * * * * * * * * * * * //

dimensions      [0 1 0 0 0 0 0];

internalField   nonuniform List<scalar> 
550
(
0.000405
0.000405
0.000405
0.000405
0.000405
0.000405
0.000405
0.000405
0.000405
0.000405
0.000405
0.000405
0.000405
0.000405
0.000405
0.000405
0.000405
0.000405
0.000405
0.000405
0.000405
0.000405
0.000405
0.000405
0.000405
0.000405
0.000405
0.000405
0.000405
0.000405
0.000405
0.000405
0.000405
0.000405
0.000405
0.000405
0.000405
0.000405
0.000405
0.000405
0.000405
0.000405
0.000405
0.000405
0.000405
0.000405
0.000405
0.000405
0.000405
0.000405
0.000405
0.000405
0.000405
0.000405
0.000405
0.000405
0.000405
0.000405
0.000405
0.000405
0.000405
0.000405
0.000405
0.000405
0.000405
0.000405
0.000405
0.000405
0.000405
0.000405
0.000405
0.000405
0.000405
0.000405
0.000405
0.000405
0.000405
0.000405
0.000405
0.000405
0.000405
0.000405
0.000405
0.000405
0.000405
0.000405
0.000405
0.000405
0.000405
0.000405
0.000405
0.000405
0.000405
0.000405
0.000405
0.000405
0.000405
0.000405
0.000405
0.000405
0.000405
0.000405
0.000405
0.000405
0.000405
0.000405
0.000405
0.000405
0.000405
0.000405
0.000405
0.000405
0.000405
0.000405
0.000405
0.000405
0.000405
0.000405
0.000405
0.000405
0.000405
0.000405
0.000405
0.000405
0.000405
0.000405
0.000405
0.000405
0.000405
0.000405032
0.000406203
0.000409326
0.000413416
0.00041765
0.000421955
0.000426252
0.000430516
0.000434737
0.000438908
0.000443026
0.00044709
0.000451097
0.000455047
0.000458938
0.000462771
0.000466545
0.00047026
0.000473917
0.00047752
0.000481064
0.000484548
0.000487968
0.000491322
0.000494609
0.000497828
0.000500979
0.000504062
0.000507078
0.00051003
0.000512917
0.000515735
0.000518484
0.000521166
0.000523781
0.000526329
0.000528811
0.000531228
0.000533581
0.00053587
0.000538095
0.000540258
0.000542359
0.0005444
0.000546381
0.000548301
0.000550161
0.000551962
0.000553705
0.000555391
0.000557017
0.000558586
0.000560097
0.000561554
0.000562955
0.000564302
0.000565596
0.000566838
0.000568029
0.000569171
0.000570265
0.000571313
0.000572314
0.000573273
0.000574189
0.000575064
0.0005759
0.000576697
0.000577458
0.000578184
0.000578878
0.000579542
0.000580179
0.000580791
0.000581381
0.000581951
0.000582502
0.000583032
0.000583539
0.000584023
0.000584486
0.000584933
0.000585369
0.000585797
0.000586216
0.000586626
0.000587027
0.000587421
0.00058781
0.000588195
0.000588577
0.000588957
0.000589338
0.000589723
0.000590124
0.000590555
0.000591029
0.000591545
0.000592094
0.000592669
0.000593262
0.000593868
0.00059448
0.000595096
0.000595714
0.000596332
0.00059695
0.000597567
0.000598183
0.000598798
0.000599411
0.000600023
0.000600631
0.000601235
0.000601835
0.00060243
0.000603021
0.000603606
0.000604186
0.000604761
0.000605329
0.00060589
0.000606441
0.000606983
0.000607515
0.000608038
0.00060855
0.000609052
0.000609543
0.000610024
0.000610495
0.000610956
0.000611406
0.000611845
0.000612272
0.000612687
0.00061309
0.000613482
0.000613864
0.000614235
0.000614596
0.000614947
0.000615285
0.00061561
0.000615922
0.000616218
0.000616499
0.000616763
0.000617008
0.000617233
0.000617439
0.000617626
0.000617792
0.000617941
0.000618071
0.000618184
0.000618279
0.000618355
0.000618412
0.000618449
0.000618466
0.000618463
0.000618441
0.000618403
0.000618352
0.000618285
0.000618201
0.000618102
0.000617996
0.000617892
0.000617793
0.000617694
0.000617609
0.000617557
0.000617535
0.000617523
0.000617501
0.00061746
0.000617402
0.000617335
0.000617268
0.000617215
0.000617191
0.000617201
0.000617232
0.00061727
0.000617302
0.000617319
0.000617319
0.000617303
0.000617272
0.000617225
0.000617167
0.0006171
0.000617024
0.000616939
0.000616847
0.000616747
0.000616641
0.00061653
0.000616416
0.0006163
0.000616183
0.000616065
0.00061595
0.00061584
0.00061574
0.000615657
0.000615597
0.000615564
0.00061557
0.000615625
0.000615736
0.000615897
0.000616083
0.000616283
0.000616508
0.000616783
0.00061712
0.000617511
0.000617942
0.000618409
0.000618905
0.000619416
0.000619932
0.000620452
0.000620979
0.000621515
0.000622057
0.000622608
0.000623169
0.000623739
0.000624318
0.000624904
0.000625495
0.000626092
0.000626693
0.000627299
0.000627907
0.000628517
0.000629126
0.000629735
0.000630343
0.000630948
0.00063155
0.000632148
0.000632742
0.00063333
0.000633912
0.000634486
0.000635053
0.000635611
0.000636159
0.000636696
0.000637222
0.000637736
0.000638238
0.000638728
0.000639204
0.000639667
0.000640116
0.000640551
0.000640974
0.000641385
0.000641785
0.000642175
0.000642557
0.000642931
0.000643299
0.000643659
0.000644012
0.000644358
0.000644697
0.000645029
0.000645356
0.000645675
0.000645987
0.000646292
0.000646592
0.000646887
0.000647177
0.000647462
0.00064774
0.000648013
0.000648279
0.000648537
0.000648787
0.000649027
0.000649259
0.000649482
0.000649696
0.000649901
0.000650096
0.000650283
0.000650462
0.000650634
0.000650803
0.00065097
0.000651138
0.000651306
0.000651471
0.000651633
0.000651795
0.000651961
0.000652135
0.000652308
0.00065247
0.000652626
0.000652783
0.000652944
0.000653113
0.00065329
0.000653467
0.000653631
0.000653781
0.000653923
0.000654064
0.000654209
0.000654357
0.000654508
0.000654661
0.000654812
0.000654959
0.000655104
0.00065525
0.0006554
0.000655548
0.000655685
0.000655808
0.000655921
0.000656025
0.000656121
0.000656209
0.00065629
0.000656363
0.00065643
0.000656491
0.000656549
0.000656608
0.000656669
0.000656735
0.000656806
0.000656883
0.000656967
0.000657061
0.000657166
0.000657277
0.000657395
0.000657517
0.000657643
0.000657777
0.000657925
0.0006581
0.000658308
0.00065855
0.000658833
0.00065914
0.000659442
0.000659729
0.000660004
0.000660273
0.000660541
0.000660811
0.000661086
0.000661368
0.000661662
0.000661967
0.000662285
0.000662613
0.000662951
0.000663299
0.000663656
0.000664022
0.000664396
0.000664777
0.000665163
0.000665548
0.00066593
0.000666305
0.000666672
0.000667031
0.000667385
0.000667734
0.000668078
0.000668419
0.000668757
0.000669091
0.000669422
0.000669752
0.000670084
0.000670424
0.000670775
0.000671145
0.000671542
0.000671973
0.000672456
0.000673011
0.000673672
0.000674496
0.000675567
0.000677007
0.000678981
0.000681726
0.000685593
0.000691067
0.000698783
0.00070976
0.000722226
0.00073903
0.000667938
0.000495521
0.000405
0.000405
0.000405
0.000405
0.000405
0.000405
0.000405
0.000405
0.000405
0.000405
)
;

boundaryField
{
    inlet
    {
        type            calculated;
        value           uniform 0;
    }
    endWall
    {
        type            calculated;
        value           uniform 0;
    }
    sideWall
    {
        type            empty;
    }
}


// ************************************************************************* //
