/*--------------------------------*- C++ -*----------------------------------*\
| =========                 |                                                 |
| \\      /  F ield         | foam-extend: Open Source CFD                    |
|  \\    /   O peration     | Version:     3.2                                |
|   \\  /    A nd           | Web:         http://www.foam-extend.org         |
|    \\/     M anipulation  | For copyright notice see file Copyright         |
\*---------------------------------------------------------------------------*/
FoamFile
{
    version     2.0;
    format      ascii;
    class       areaScalarField;
    location    "120";
    object      deltaHb;
}
// * * * * * * * * * * * * * * * * * * * * * * * * * * * * * * * * * * * * * //

dimensions      [0 1 -1 0 0 0 0];

internalField   nonuniform List<scalar> 
550
(
0
0
0
-2.14408e-08
-5.69539e-08
-8.36358e-08
-1.0586e-07
-1.21151e-07
-1.27946e-07
-1.26147e-07
-1.16885e-07
-1.02038e-07
-8.37621e-08
-6.39941e-08
-4.43834e-08
-2.61461e-08
-1.01153e-08
3.31067e-09
1.36568e-08
2.13051e-08
2.70715e-08
3.12134e-08
3.39569e-08
3.54983e-08
3.60301e-08
3.57588e-08
3.48168e-08
3.33502e-08
3.16887e-08
3.00392e-08
2.83647e-08
2.66572e-08
2.49547e-08
2.3289e-08
2.16807e-08
2.0142e-08
1.86814e-08
1.73055e-08
1.60155e-08
1.4811e-08
1.36915e-08
1.26559e-08
1.17024e-08
1.08263e-08
1.00221e-08
9.28193e-09
8.59908e-09
7.9696e-09
7.38984e-09
6.85633e-09
6.36616e-09
5.91659e-09
5.50592e-09
5.13303e-09
4.796e-09
4.4919e-09
4.21642e-09
3.9661e-09
3.73929e-09
3.53403e-09
3.34745e-09
3.17714e-09
3.02138e-09
2.87856e-09
2.74739e-09
2.62711e-09
2.51711e-09
2.41689e-09
2.32605e-09
2.24417e-09
2.17082e-09
2.10526e-09
2.04634e-09
1.99299e-09
1.94485e-09
1.90222e-09
1.86434e-09
1.82961e-09
1.7959e-09
1.76142e-09
1.72706e-09
1.69418e-09
1.66266e-09
1.63243e-09
1.60359e-09
1.57616e-09
1.55017e-09
1.52564e-09
1.50268e-09
1.48131e-09
1.46212e-09
1.44663e-09
1.43441e-09
1.42315e-09
1.41195e-09
1.40078e-09
1.3898e-09
1.37917e-09
1.36822e-09
1.35718e-09
1.34805e-09
1.34193e-09
1.33854e-09
1.33765e-09
1.33897e-09
1.34221e-09
1.34717e-09
1.35369e-09
1.36161e-09
1.37079e-09
1.38104e-09
1.39206e-09
1.40374e-09
1.41545e-09
1.42672e-09
1.43908e-09
1.45253e-09
1.46495e-09
1.47601e-09
1.48631e-09
1.49589e-09
1.50483e-09
1.51326e-09
1.52132e-09
1.52918e-09
1.5372e-09
1.54531e-09
1.55521e-09
1.73074e-09
1.61526e-09
1.46155e-09
1.55135e-09
1.50232e-09
1.48754e-09
1.4765e-09
1.47003e-09
1.46511e-09
1.46083e-09
1.45655e-09
1.45196e-09
1.4468e-09
1.44095e-09
1.43428e-09
1.42676e-09
1.4184e-09
1.40925e-09
1.39937e-09
1.38876e-09
1.37737e-09
1.36545e-09
1.35312e-09
1.3403e-09
1.32706e-09
1.31335e-09
1.29901e-09
1.28407e-09
1.26856e-09
1.25232e-09
1.23528e-09
1.21762e-09
1.21023e-09
1.20437e-09
1.18747e-09
1.16832e-09
1.14891e-09
1.12928e-09
1.10949e-09
1.08958e-09
1.06965e-09
1.04988e-09
1.03038e-09
1.01109e-09
9.92018e-10
9.73309e-10
9.54958e-10
9.36907e-10
9.1913e-10
9.01562e-10
8.84139e-10
8.66855e-10
8.49734e-10
8.32803e-10
8.16097e-10
7.99598e-10
7.83273e-10
7.67164e-10
7.51324e-10
7.35733e-10
7.20337e-10
7.05126e-10
6.9007e-10
6.75163e-10
6.60411e-10
6.45822e-10
6.31391e-10
6.17091e-10
6.02899e-10
5.88796e-10
5.74743e-10
5.60643e-10
5.46505e-10
5.32433e-10
5.18412e-10
5.04447e-10
4.90663e-10
4.77039e-10
4.63692e-10
4.50801e-10
4.3828e-10
4.26133e-10
4.14418e-10
4.03068e-10
3.92067e-10
3.815e-10
3.71459e-10
3.6202e-10
3.53184e-10
3.4496e-10
3.37269e-10
3.30019e-10
3.23213e-10
3.16927e-10
3.11293e-10
3.06712e-10
3.03559e-10
3.01718e-10
3.01521e-10
3.03036e-10
3.05667e-10
3.08977e-10
3.12585e-10
3.16221e-10
3.19736e-10
3.23101e-10
3.2633e-10
3.29409e-10
3.32341e-10
3.3518e-10
3.37933e-10
3.40591e-10
3.43079e-10
3.45403e-10
3.47545e-10
3.49478e-10
3.51193e-10
3.52676e-10
3.53963e-10
3.55039e-10
3.55923e-10
3.56592e-10
3.56999e-10
3.57132e-10
3.57029e-10
3.5674e-10
3.5627e-10
3.55641e-10
3.54884e-10
3.5398e-10
3.52949e-10
3.51835e-10
3.50607e-10
3.49266e-10
3.47805e-10
3.4623e-10
3.44618e-10
3.42955e-10
3.41273e-10
3.39632e-10
3.38007e-10
3.36366e-10
3.3471e-10
3.32954e-10
3.31091e-10
3.29127e-10
3.27122e-10
3.25051e-10
3.22842e-10
3.20488e-10
3.17978e-10
3.15357e-10
3.12653e-10
3.09876e-10
3.07086e-10
3.04332e-10
3.01595e-10
2.98819e-10
2.95949e-10
2.92964e-10
2.89828e-10
2.86558e-10
2.83154e-10
2.79595e-10
2.75792e-10
2.71752e-10
2.67713e-10
2.63786e-10
2.59959e-10
2.56215e-10
2.52292e-10
2.48238e-10
2.44582e-10
2.40994e-10
2.36672e-10
2.31899e-10
2.27347e-10
2.23342e-10
2.19898e-10
2.16902e-10
2.14348e-10
2.12263e-10
2.10533e-10
2.08731e-10
2.06712e-10
2.04966e-10
2.03631e-10
2.02614e-10
2.1455e-10
2.39292e-10
2.49113e-10
2.44073e-10
2.39145e-10
2.3415e-10
2.29091e-10
2.24069e-10
2.19183e-10
2.14494e-10
2.10041e-10
2.05805e-10
2.01676e-10
1.97501e-10
1.93174e-10
1.88663e-10
1.83983e-10
1.79228e-10
1.74543e-10
1.70029e-10
1.657e-10
1.61633e-10
1.57896e-10
1.77608e-10
2.0766e-10
2.17484e-10
2.20152e-10
2.23512e-10
2.2784e-10
2.3261e-10
2.37169e-10
2.41196e-10
2.45145e-10
2.49384e-10
2.53487e-10
2.57338e-10
2.61236e-10
2.65347e-10
2.69603e-10
2.73699e-10
2.77692e-10
2.81729e-10
2.85771e-10
2.89867e-10
2.93986e-10
2.98079e-10
3.02105e-10
3.06079e-10
3.10058e-10
3.14078e-10
3.18186e-10
3.22336e-10
3.26498e-10
3.3064e-10
3.34763e-10
3.38806e-10
3.42696e-10
3.4638e-10
3.498e-10
3.52941e-10
3.55816e-10
3.58373e-10
3.60598e-10
3.62562e-10
3.64245e-10
3.65673e-10
3.66842e-10
3.67791e-10
3.68514e-10
3.68956e-10
3.6906e-10
3.68802e-10
3.68117e-10
3.67024e-10
3.65627e-10
3.64026e-10
3.62298e-10
3.6049e-10
3.58764e-10
3.57151e-10
3.55611e-10
3.54158e-10
3.52715e-10
3.51235e-10
3.49717e-10
3.48202e-10
3.46757e-10
3.45327e-10
3.43907e-10
3.42506e-10
3.41169e-10
3.39975e-10
3.38901e-10
3.37891e-10
3.36923e-10
3.35975e-10
3.34976e-10
3.33882e-10
3.32655e-10
3.31258e-10
3.29726e-10
3.28061e-10
3.26322e-10
3.24502e-10
3.22544e-10
3.20492e-10
3.18393e-10
3.16244e-10
3.14031e-10
3.11743e-10
3.0947e-10
3.07209e-10
3.04938e-10
3.02905e-10
3.01167e-10
2.9964e-10
2.98157e-10
2.96461e-10
2.94789e-10
2.93484e-10
2.92311e-10
2.90986e-10
2.89602e-10
2.88242e-10
2.86731e-10
2.85165e-10
2.83942e-10
2.83047e-10
2.82216e-10
2.81457e-10
2.80833e-10
2.80453e-10
2.80336e-10
2.80347e-10
2.80513e-10
2.80827e-10
2.81161e-10
2.81387e-10
2.81342e-10
2.81068e-10
2.80832e-10
2.80615e-10
2.802e-10
2.79599e-10
2.78884e-10
2.77987e-10
2.76876e-10
2.75637e-10
2.74343e-10
2.73033e-10
2.71764e-10
2.70648e-10
2.69722e-10
2.68981e-10
2.68535e-10
2.68508e-10
2.68862e-10
2.69479e-10
2.70338e-10
2.7144e-10
2.72681e-10
2.74007e-10
2.75311e-10
2.76552e-10
2.77665e-10
2.78361e-10
2.78735e-10
2.79084e-10
2.78936e-10
2.78531e-10
2.78541e-10
2.78715e-10
2.78712e-10
2.78609e-10
2.78431e-10
2.78292e-10
2.78244e-10
2.78525e-10
2.79226e-10
2.80422e-10
2.82024e-10
2.84063e-10
2.86444e-10
2.89164e-10
2.92125e-10
2.95408e-10
2.98824e-10
3.02375e-10
3.05711e-10
3.08743e-10
3.11175e-10
3.13033e-10
3.14216e-10
3.15053e-10
3.15494e-10
3.15901e-10
3.16112e-10
3.16386e-10
3.16473e-10
3.16684e-10
3.16761e-10
3.17101e-10
3.17533e-10
3.18635e-10
3.20382e-10
3.23336e-10
3.27578e-10
3.33808e-10
3.41997e-10
3.54564e-10
3.70062e-10
3.96073e-10
4.28887e-10
4.83414e-10
5.54932e-10
6.70383e-10
8.22032e-10
1.06023e-09
1.37286e-09
1.803e-09
2.44392e-09
1.69513e-09
3.1178e-09
7.05158e-09
9.45174e-09
1.20478e-08
1.4362e-08
8.76884e-09
1.23419e-09
0
0
0
0
0
)
;

boundaryField
{
    inlet
    {
        type            zeroGradient;
    }
    endWall
    {
        type            zeroGradient;
    }
    sideWall
    {
        type            empty;
    }
}


// ************************************************************************* //
