/*--------------------------------*- C++ -*----------------------------------*\
| =========                 |                                                 |
| \\      /  F ield         | foam-extend: Open Source CFD                    |
|  \\    /   O peration     | Version:     3.2                                |
|   \\  /    A nd           | Web:         http://www.foam-extend.org         |
|    \\/     M anipulation  | For copyright notice see file Copyright         |
\*---------------------------------------------------------------------------*/
FoamFile
{
    version     2.0;
    format      ascii;
    class       areaScalarField;
    location    "120";
    object      deltaHs;
}
// * * * * * * * * * * * * * * * * * * * * * * * * * * * * * * * * * * * * * //

dimensions      [0 1 -1 0 0 0 0];

internalField   nonuniform List<scalar> 
550
(
6.05354e-08
5.62946e-08
5.01033e-08
4.16631e-08
3.08844e-08
1.7954e-08
3.31488e-09
-1.23388e-08
-2.82375e-08
-4.35515e-08
-5.76108e-08
-6.98721e-08
-8.00408e-08
-8.79715e-08
-9.37042e-08
-9.73725e-08
-9.92152e-08
-9.94992e-08
-9.85193e-08
-9.66263e-08
-9.40275e-08
-9.09004e-08
-8.73989e-08
-8.3655e-08
-7.97842e-08
-7.58814e-08
-7.20216e-08
-6.82747e-08
-6.46873e-08
-6.12592e-08
-5.79925e-08
-5.48952e-08
-5.19717e-08
-4.92219e-08
-4.66427e-08
-4.42295e-08
-4.1976e-08
-3.98751e-08
-3.7919e-08
-3.60995e-08
-3.44085e-08
-3.28376e-08
-3.13784e-08
-3.00227e-08
-2.87625e-08
-2.75906e-08
-2.65008e-08
-2.54872e-08
-2.45442e-08
-2.36666e-08
-2.28494e-08
-2.2088e-08
-2.1378e-08
-2.07149e-08
-2.00944e-08
-1.95125e-08
-1.89655e-08
-1.84505e-08
-1.79644e-08
-1.75046e-08
-1.70687e-08
-1.66545e-08
-1.62604e-08
-1.58846e-08
-1.55256e-08
-1.51821e-08
-1.48528e-08
-1.45365e-08
-1.42321e-08
-1.39383e-08
-1.36541e-08
-1.33784e-08
-1.31104e-08
-1.28493e-08
-1.25945e-08
-1.23452e-08
-1.21009e-08
-1.18609e-08
-1.1625e-08
-1.13933e-08
-1.11659e-08
-1.09427e-08
-1.07234e-08
-1.0508e-08
-1.02962e-08
-1.00879e-08
-9.88295e-09
-9.68114e-09
-9.48228e-09
-9.28619e-09
-9.09265e-09
-8.90134e-09
-8.71163e-09
-8.5233e-09
-8.33635e-09
-8.15077e-09
-7.9666e-09
-7.78377e-09
-7.60228e-09
-7.42224e-09
-7.24358e-09
-7.06589e-09
-6.88881e-09
-6.71198e-09
-6.53511e-09
-6.35792e-09
-6.18018e-09
-6.00167e-09
-5.8222e-09
-5.64159e-09
-5.45969e-09
-5.27637e-09
-5.09155e-09
-4.90512e-09
-4.71718e-09
-4.52776e-09
-4.33652e-09
-4.14349e-09
-3.94893e-09
-3.75293e-09
-3.55559e-09
-3.357e-09
-3.15723e-09
-2.95635e-09
-2.75437e-09
-2.55132e-09
-2.34711e-09
-2.14166e-09
-1.93415e-09
-1.64356e-09
-1.51373e-09
-1.31076e-09
-1.10756e-09
-9.06357e-10
-7.07553e-10
-5.10672e-10
-3.15644e-10
-1.22341e-10
6.92522e-11
2.59177e-10
4.47443e-10
6.34072e-10
8.19056e-10
1.00238e-09
1.18399e-09
1.36384e-09
1.54187e-09
1.71801e-09
1.8922e-09
2.06441e-09
2.23461e-09
2.40275e-09
2.56881e-09
2.73271e-09
2.89441e-09
3.05384e-09
3.21092e-09
3.36556e-09
3.51768e-09
3.66723e-09
3.81412e-09
3.96384e-09
4.11178e-09
4.25694e-09
4.39932e-09
4.53888e-09
4.67562e-09
4.80951e-09
4.94053e-09
5.06868e-09
5.194e-09
5.3165e-09
5.4362e-09
5.5531e-09
5.66726e-09
5.77869e-09
5.8874e-09
5.99342e-09
6.09675e-09
6.1974e-09
6.29536e-09
6.39065e-09
6.4833e-09
6.57337e-09
6.66088e-09
6.74586e-09
6.82837e-09
6.90849e-09
6.98627e-09
7.06178e-09
7.13507e-09
7.20622e-09
7.27529e-09
7.34236e-09
7.40751e-09
7.4708e-09
7.53231e-09
7.59208e-09
7.65017e-09
7.7066e-09
7.76141e-09
7.81464e-09
7.86632e-09
7.91646e-09
7.96513e-09
8.01236e-09
8.05821e-09
8.10272e-09
8.1459e-09
8.18781e-09
8.22849e-09
8.268e-09
8.30642e-09
8.34385e-09
8.38036e-09
8.41598e-09
8.45081e-09
8.48495e-09
8.51849e-09
8.55148e-09
8.58397e-09
8.61599e-09
8.6476e-09
8.67883e-09
8.70997e-09
8.74142e-09
8.77342e-09
8.80604e-09
8.83931e-09
8.87323e-09
8.90777e-09
8.94288e-09
8.97845e-09
9.0144e-09
9.05069e-09
9.08725e-09
9.12404e-09
9.16102e-09
9.19817e-09
9.23547e-09
9.27288e-09
9.31036e-09
9.34787e-09
9.38538e-09
9.42286e-09
9.46026e-09
9.49758e-09
9.53477e-09
9.57182e-09
9.60872e-09
9.64545e-09
9.68195e-09
9.71817e-09
9.75409e-09
9.78969e-09
9.82495e-09
9.85984e-09
9.89434e-09
9.92845e-09
9.96216e-09
9.99547e-09
1.00284e-08
1.00609e-08
1.00929e-08
1.01245e-08
1.01556e-08
1.01863e-08
1.02165e-08
1.02462e-08
1.02755e-08
1.03044e-08
1.03328e-08
1.03608e-08
1.03883e-08
1.04152e-08
1.04416e-08
1.04675e-08
1.04926e-08
1.05171e-08
1.05409e-08
1.05638e-08
1.05859e-08
1.06072e-08
1.06277e-08
1.06474e-08
1.06662e-08
1.06843e-08
1.07015e-08
1.07178e-08
1.07333e-08
1.07479e-08
1.07615e-08
1.07742e-08
1.0786e-08
1.07968e-08
1.08067e-08
1.08158e-08
1.08241e-08
1.08316e-08
1.08384e-08
1.08447e-08
1.08503e-08
1.08553e-08
1.08599e-08
1.08641e-08
1.08678e-08
1.08713e-08
1.08745e-08
1.08774e-08
1.08803e-08
1.08832e-08
1.08863e-08
1.08896e-08
1.08932e-08
1.08973e-08
1.09019e-08
1.0907e-08
1.0919e-08
1.09379e-08
1.09559e-08
1.09731e-08
1.09895e-08
1.1005e-08
1.10198e-08
1.10338e-08
1.10471e-08
1.10596e-08
1.10715e-08
1.10828e-08
1.10935e-08
1.11036e-08
1.1113e-08
1.11218e-08
1.11299e-08
1.11373e-08
1.1144e-08
1.11501e-08
1.11555e-08
1.11604e-08
1.11647e-08
1.11805e-08
1.12009e-08
1.12226e-08
1.12454e-08
1.12693e-08
1.12944e-08
1.13205e-08
1.13478e-08
1.13762e-08
1.14058e-08
1.14364e-08
1.14681e-08
1.15007e-08
1.15343e-08
1.15687e-08
1.16039e-08
1.16398e-08
1.16764e-08
1.17136e-08
1.17515e-08
1.17901e-08
1.18292e-08
1.1869e-08
1.19092e-08
1.195e-08
1.19913e-08
1.2033e-08
1.20751e-08
1.21175e-08
1.21603e-08
1.22033e-08
1.22465e-08
1.22899e-08
1.23335e-08
1.23771e-08
1.24207e-08
1.24643e-08
1.25079e-08
1.25514e-08
1.25947e-08
1.26379e-08
1.26809e-08
1.27236e-08
1.2766e-08
1.28081e-08
1.28497e-08
1.2891e-08
1.29318e-08
1.29721e-08
1.30119e-08
1.30512e-08
1.30899e-08
1.3128e-08
1.31657e-08
1.32027e-08
1.32394e-08
1.32756e-08
1.33114e-08
1.33468e-08
1.33819e-08
1.34167e-08
1.34511e-08
1.34853e-08
1.35191e-08
1.35528e-08
1.35861e-08
1.36191e-08
1.36519e-08
1.36844e-08
1.37167e-08
1.37488e-08
1.37806e-08
1.38123e-08
1.38437e-08
1.38748e-08
1.39057e-08
1.39363e-08
1.39665e-08
1.39964e-08
1.40259e-08
1.40551e-08
1.40838e-08
1.41121e-08
1.41401e-08
1.41676e-08
1.41947e-08
1.42213e-08
1.42476e-08
1.42735e-08
1.4299e-08
1.43242e-08
1.43491e-08
1.43737e-08
1.4398e-08
1.44222e-08
1.44461e-08
1.44699e-08
1.44934e-08
1.45167e-08
1.45398e-08
1.45628e-08
1.45857e-08
1.46084e-08
1.46311e-08
1.46536e-08
1.46761e-08
1.46987e-08
1.47213e-08
1.47442e-08
1.47675e-08
1.4791e-08
1.48149e-08
1.48392e-08
1.48637e-08
1.48886e-08
1.49138e-08
1.49393e-08
1.4965e-08
1.49909e-08
1.50171e-08
1.50434e-08
1.50698e-08
1.50962e-08
1.51226e-08
1.5149e-08
1.51753e-08
1.52016e-08
1.52279e-08
1.52543e-08
1.52808e-08
1.53076e-08
1.53348e-08
1.53623e-08
1.53904e-08
1.54189e-08
1.5448e-08
1.54777e-08
1.5508e-08
1.55388e-08
1.557e-08
1.56017e-08
1.56338e-08
1.56662e-08
1.5699e-08
1.57321e-08
1.57656e-08
1.57995e-08
1.58337e-08
1.5868e-08
1.59025e-08
1.5937e-08
1.59717e-08
1.60065e-08
1.60416e-08
1.6077e-08
1.61128e-08
1.61492e-08
1.61861e-08
1.62237e-08
1.62619e-08
1.63008e-08
1.63402e-08
1.63803e-08
1.6421e-08
1.64623e-08
1.6504e-08
1.65462e-08
1.65884e-08
1.66309e-08
1.66731e-08
1.67153e-08
1.67572e-08
1.67992e-08
1.68408e-08
1.68825e-08
1.69237e-08
1.69651e-08
1.7006e-08
1.70472e-08
1.70879e-08
1.71292e-08
1.71703e-08
1.72124e-08
1.72548e-08
1.72987e-08
1.73434e-08
1.73911e-08
1.74402e-08
1.74957e-08
1.75547e-08
1.76276e-08
1.77095e-08
1.78203e-08
1.79525e-08
1.81448e-08
1.83845e-08
1.87609e-08
1.92348e-08
2.02727e-08
2.15484e-08
2.21831e-08
2.4433e-08
2.77209e-08
3.19235e-08
3.72626e-08
4.35694e-08
5.13838e-08
5.62132e-08
5.55003e-08
5.13783e-08
)
;

boundaryField
{
    inlet
    {
        type            calculated;
        value           uniform 0;
    }
    endWall
    {
        type            calculated;
        value           uniform 0;
    }
    sideWall
    {
        type            empty;
    }
}


// ************************************************************************* //
