/*--------------------------------*- C++ -*----------------------------------*\
| =========                 |                                                 |
| \\      /  F ield         | foam-extend: Open Source CFD                    |
|  \\    /   O peration     | Version:     3.2                                |
|   \\  /    A nd           | Web:         http://www.foam-extend.org         |
|    \\/     M anipulation  | For copyright notice see file Copyright         |
\*---------------------------------------------------------------------------*/
FoamFile
{
    version     2.0;
    format      ascii;
    class       volScalarField;
    location    "120";
    object      DiSSt;
}
// * * * * * * * * * * * * * * * * * * * * * * * * * * * * * * * * * * * * * //

dimensions      [0 2 -1 0 0 0 0];

internalField   nonuniform List<scalar> 
33000
(
7.25845e-06
8.60733e-06
9.999e-06
1.14023e-05
1.27819e-05
1.4103e-05
1.5337e-05
1.64584e-05
1.74529e-05
1.83096e-05
1.90281e-05
1.96114e-05
2.00689e-05
2.04111e-05
2.06512e-05
2.08019e-05
2.08767e-05
2.08882e-05
2.07651e-05
2.00202e-05
1.93019e-05
1.86311e-05
1.80004e-05
1.74196e-05
1.68848e-05
1.64002e-05
1.59635e-05
1.55742e-05
1.52194e-05
1.48962e-05
1.46017e-05
1.43344e-05
1.40918e-05
1.38722e-05
1.36745e-05
1.34972e-05
1.33388e-05
1.31978e-05
1.30732e-05
1.29637e-05
1.28688e-05
1.27851e-05
1.27132e-05
1.26512e-05
1.25992e-05
1.25552e-05
1.25204e-05
1.24941e-05
1.24756e-05
1.24645e-05
1.24599e-05
1.24614e-05
1.24683e-05
1.248e-05
1.24956e-05
1.25149e-05
1.25372e-05
1.25623e-05
1.25895e-05
1.26187e-05
1.26496e-05
1.26819e-05
1.27156e-05
1.27506e-05
1.27867e-05
1.28237e-05
1.28615e-05
1.28997e-05
1.29383e-05
1.29768e-05
1.30153e-05
1.30533e-05
1.30911e-05
1.31284e-05
1.31653e-05
1.32013e-05
1.32368e-05
1.32715e-05
1.33057e-05
1.33391e-05
1.33718e-05
1.34034e-05
1.34344e-05
1.34639e-05
1.34927e-05
1.352e-05
1.35466e-05
1.35716e-05
1.35959e-05
1.36185e-05
1.36406e-05
1.36607e-05
1.36802e-05
1.36985e-05
1.3716e-05
1.37329e-05
1.37494e-05
1.37664e-05
1.37838e-05
1.38017e-05
1.38195e-05
1.38374e-05
1.38555e-05
1.38736e-05
1.38916e-05
1.39095e-05
1.39272e-05
1.39446e-05
1.39616e-05
1.39783e-05
1.39944e-05
1.40102e-05
1.40253e-05
1.40399e-05
1.40541e-05
1.40675e-05
1.40801e-05
1.40925e-05
1.41041e-05
1.41152e-05
1.41256e-05
1.41353e-05
1.41442e-05
1.41525e-05
1.41599e-05
1.41666e-05
1.41723e-05
1.41773e-05
1.41802e-05
1.41828e-05
1.41883e-05
1.41929e-05
1.41961e-05
1.41991e-05
1.42009e-05
1.42025e-05
1.42032e-05
1.42035e-05
1.42031e-05
1.42022e-05
1.42008e-05
1.41989e-05
1.41965e-05
1.41937e-05
1.41906e-05
1.4187e-05
1.41831e-05
1.41789e-05
1.41744e-05
1.41696e-05
1.41644e-05
1.41591e-05
1.41535e-05
1.41477e-05
1.41418e-05
1.41358e-05
1.41297e-05
1.41236e-05
1.41174e-05
1.41112e-05
1.4105e-05
1.40989e-05
1.40928e-05
1.40869e-05
1.4081e-05
1.40753e-05
1.40698e-05
1.40643e-05
1.4059e-05
1.40539e-05
1.40488e-05
1.40439e-05
1.40391e-05
1.40344e-05
1.40298e-05
1.40253e-05
1.40209e-05
1.40166e-05
1.40125e-05
1.40086e-05
1.40048e-05
1.40011e-05
1.39976e-05
1.39943e-05
1.39911e-05
1.3988e-05
1.39852e-05
1.39824e-05
1.39798e-05
1.39775e-05
1.39753e-05
1.39734e-05
1.39717e-05
1.39702e-05
1.3969e-05
1.3968e-05
1.39672e-05
1.39667e-05
1.39666e-05
1.39667e-05
1.39673e-05
1.39681e-05
1.39694e-05
1.3971e-05
1.39729e-05
1.39752e-05
1.39779e-05
1.39809e-05
1.39843e-05
1.39882e-05
1.39924e-05
1.39971e-05
1.40022e-05
1.40077e-05
1.40135e-05
1.40197e-05
1.40262e-05
1.40331e-05
1.40403e-05
1.4048e-05
1.4056e-05
1.40644e-05
1.40732e-05
1.40823e-05
1.40919e-05
1.41017e-05
1.41117e-05
1.41211e-05
1.41301e-05
1.41385e-05
1.41463e-05
1.41535e-05
1.41603e-05
1.41666e-05
1.41724e-05
1.41778e-05
1.41828e-05
1.41874e-05
1.41917e-05
1.41955e-05
1.41991e-05
1.42023e-05
1.42051e-05
1.42077e-05
1.421e-05
1.42121e-05
1.42139e-05
1.42155e-05
1.42169e-05
1.42181e-05
1.4219e-05
1.42198e-05
1.42204e-05
1.42207e-05
1.42209e-05
1.42209e-05
1.42208e-05
1.42205e-05
1.422e-05
1.42194e-05
1.42187e-05
1.42179e-05
1.42169e-05
1.42158e-05
1.42146e-05
1.42133e-05
1.42118e-05
1.42102e-05
1.42085e-05
1.42067e-05
1.42049e-05
1.42029e-05
1.42009e-05
1.41988e-05
1.41965e-05
1.41941e-05
1.41916e-05
1.4189e-05
1.41863e-05
1.41835e-05
1.41806e-05
1.41776e-05
1.41745e-05
1.41713e-05
1.4168e-05
1.41645e-05
1.4161e-05
1.41574e-05
1.41537e-05
1.415e-05
1.41461e-05
1.41422e-05
1.41384e-05
1.41344e-05
1.41305e-05
1.41266e-05
1.41227e-05
1.41189e-05
1.41151e-05
1.41114e-05
1.41078e-05
1.41043e-05
1.4101e-05
1.40978e-05
1.40946e-05
1.40916e-05
1.40886e-05
1.40858e-05
1.40831e-05
1.40806e-05
1.40783e-05
1.40762e-05
1.40743e-05
1.40724e-05
1.40707e-05
1.40691e-05
1.40675e-05
1.40661e-05
1.40647e-05
1.40634e-05
1.40623e-05
1.40612e-05
1.40604e-05
1.40596e-05
1.40589e-05
1.40583e-05
1.40577e-05
1.40571e-05
1.40567e-05
1.40563e-05
1.40561e-05
1.40561e-05
1.40563e-05
1.40565e-05
1.40569e-05
1.40574e-05
1.40579e-05
1.40586e-05
1.40594e-05
1.40603e-05
1.40613e-05
1.40624e-05
1.40636e-05
1.40647e-05
1.40659e-05
1.40671e-05
1.40684e-05
1.40698e-05
1.40712e-05
1.40726e-05
1.4074e-05
1.40754e-05
1.40766e-05
1.40778e-05
1.40788e-05
1.40798e-05
1.40806e-05
1.40812e-05
1.40818e-05
1.40823e-05
1.40826e-05
1.40829e-05
1.4083e-05
1.40829e-05
1.40827e-05
1.40822e-05
1.40814e-05
1.40804e-05
1.40789e-05
1.40772e-05
1.4075e-05
1.40726e-05
1.40698e-05
1.40668e-05
1.40634e-05
1.40598e-05
1.40559e-05
1.40517e-05
1.40473e-05
1.40426e-05
1.40375e-05
1.40321e-05
1.40264e-05
1.40204e-05
1.4014e-05
1.40075e-05
1.40007e-05
1.39938e-05
1.39868e-05
1.39798e-05
1.39726e-05
1.39654e-05
1.3958e-05
1.39505e-05
1.39429e-05
1.39351e-05
1.39272e-05
1.39193e-05
1.39113e-05
1.39032e-05
1.38952e-05
1.38871e-05
1.38791e-05
1.3871e-05
1.38629e-05
1.38547e-05
1.38464e-05
1.38381e-05
1.38297e-05
1.38213e-05
1.38128e-05
1.38042e-05
1.37956e-05
1.3787e-05
1.37784e-05
1.37697e-05
1.3761e-05
1.37523e-05
1.37436e-05
1.37348e-05
1.37261e-05
1.37173e-05
1.37087e-05
1.37e-05
1.36915e-05
1.3683e-05
1.36745e-05
1.36661e-05
1.36577e-05
1.36494e-05
1.36411e-05
1.36329e-05
1.36248e-05
1.36167e-05
1.36087e-05
1.36008e-05
1.3593e-05
1.35852e-05
1.35776e-05
1.357e-05
1.35624e-05
1.35549e-05
1.35474e-05
1.354e-05
1.35328e-05
1.35256e-05
1.35186e-05
1.35116e-05
1.35048e-05
1.3498e-05
1.34913e-05
1.34846e-05
1.3478e-05
1.34715e-05
1.34651e-05
1.34589e-05
1.34528e-05
1.34468e-05
1.3441e-05
1.34352e-05
1.34295e-05
1.34238e-05
1.34182e-05
1.34126e-05
1.34072e-05
1.34018e-05
1.33967e-05
1.33916e-05
1.33869e-05
1.33822e-05
1.33777e-05
1.33732e-05
1.33689e-05
1.33645e-05
1.33605e-05
1.33561e-05
1.33522e-05
1.3348e-05
1.33443e-05
1.33403e-05
1.3337e-05
1.33333e-05
1.33304e-05
1.33269e-05
1.33243e-05
1.33208e-05
1.33183e-05
1.33147e-05
1.33122e-05
1.33086e-05
1.33065e-05
1.3303e-05
1.33014e-05
1.32981e-05
1.32969e-05
1.32937e-05
1.32927e-05
1.32892e-05
1.32883e-05
1.32843e-05
1.32835e-05
1.32789e-05
1.3278e-05
1.32726e-05
1.32716e-05
1.32654e-05
1.32645e-05
1.32575e-05
1.32568e-05
1.32491e-05
1.32487e-05
1.32401e-05
1.32401e-05
1.32305e-05
1.32308e-05
1.32204e-05
1.3221e-05
1.321e-05
1.32111e-05
1.31996e-05
1.32007e-05
1.31885e-05
1.31892e-05
1.31755e-05
1.31757e-05
1.31599e-05
1.3159e-05
1.314e-05
1.31358e-05
1.31109e-05
1.31007e-05
1.30629e-05
1.30405e-05
1.2977e-05
1.29355e-05
1.28284e-05
1.27705e-05
1.26237e-05
1.20227e-05
1.12758e-05
1.10185e-05
1.00885e-05
9.33856e-06
7.97217e-06
7.50046e-06
5.92212e-06
7.43284e-06
4.97594e-06
5.77558e-06
2.65528e-05
5.24712e-05
3.19452e-05
2.32246e-05
1.87273e-05
1.6083e-05
1.44911e-05
1.34893e-05
1.28544e-05
1.24692e-05
1.22564e-05
1.21782e-05
1.21857e-05
1.22588e-05
1.23777e-05
1.25375e-05
1.27355e-05
1.29732e-05
1.3261e-05
1.36048e-05
1.40047e-05
1.44734e-05
1.50094e-05
1.55845e-05
1.62122e-05
1.69058e-05
1.76755e-05
1.85235e-05
1.92403e-05
1.96789e-05
2.01177e-05
2.05541e-05
2.09861e-05
2.14119e-05
2.18311e-05
2.22427e-05
2.26464e-05
2.30409e-05
2.34268e-05
2.38033e-05
2.41716e-05
2.45308e-05
2.48815e-05
2.52237e-05
2.55584e-05
2.58851e-05
2.62058e-05
2.65213e-05
2.6832e-05
2.71376e-05
2.74381e-05
2.77329e-05
2.80221e-05
2.83049e-05
2.85813e-05
2.88502e-05
2.91123e-05
2.93667e-05
2.96144e-05
2.98542e-05
3.00882e-05
3.03147e-05
3.05361e-05
3.07521e-05
3.0963e-05
3.11687e-05
3.13692e-05
3.15643e-05
3.1754e-05
3.19382e-05
3.21166e-05
3.22895e-05
3.24566e-05
3.2618e-05
3.27736e-05
3.29236e-05
3.30675e-05
3.32061e-05
3.33392e-05
3.34675e-05
3.35909e-05
3.37091e-05
3.38221e-05
3.3931e-05
3.40349e-05
3.41349e-05
3.423e-05
3.43217e-05
3.44087e-05
3.44927e-05
3.4572e-05
3.4649e-05
3.47209e-05
3.4791e-05
3.4857e-05
3.49225e-05
3.4987e-05
3.50505e-05
3.51123e-05
3.51725e-05
3.52306e-05
3.52859e-05
3.53386e-05
3.53889e-05
3.54366e-05
3.54818e-05
3.55244e-05
3.55644e-05
3.56019e-05
3.56367e-05
3.5669e-05
3.56987e-05
3.5726e-05
3.57509e-05
3.57734e-05
3.57939e-05
3.58112e-05
3.58267e-05
3.58411e-05
3.58528e-05
3.58626e-05
3.58707e-05
3.5877e-05
3.58816e-05
3.58845e-05
3.58858e-05
3.58856e-05
3.58835e-05
3.58804e-05
3.58738e-05
3.58661e-05
3.58616e-05
3.58631e-05
3.58604e-05
3.58547e-05
3.58472e-05
3.58391e-05
3.58299e-05
3.58204e-05
3.58101e-05
3.57995e-05
3.57883e-05
3.57769e-05
3.57651e-05
3.57532e-05
3.57412e-05
3.57291e-05
3.57171e-05
3.57051e-05
3.56933e-05
3.56817e-05
3.56703e-05
3.56592e-05
3.56484e-05
3.56381e-05
3.56283e-05
3.56191e-05
3.56105e-05
3.56027e-05
3.55955e-05
3.55891e-05
3.55834e-05
3.55786e-05
3.55747e-05
3.55717e-05
3.55698e-05
3.55688e-05
3.55688e-05
3.55698e-05
3.55719e-05
3.55749e-05
3.55789e-05
3.55838e-05
3.55894e-05
3.55959e-05
3.56031e-05
3.5611e-05
3.56195e-05
3.56286e-05
3.56383e-05
3.56486e-05
3.56595e-05
3.56709e-05
3.56829e-05
3.56954e-05
3.57085e-05
3.57221e-05
3.57362e-05
3.57509e-05
3.57661e-05
3.57819e-05
3.57983e-05
3.58154e-05
3.58332e-05
3.58517e-05
3.58709e-05
3.58909e-05
3.59117e-05
3.59334e-05
3.59561e-05
3.59798e-05
3.60046e-05
3.60305e-05
3.60575e-05
3.60857e-05
3.6115e-05
3.61453e-05
3.61766e-05
3.62089e-05
3.62421e-05
3.62762e-05
3.63113e-05
3.63473e-05
3.63841e-05
3.64217e-05
3.64599e-05
3.64988e-05
3.65381e-05
3.65779e-05
3.66182e-05
3.66589e-05
3.67e-05
3.67416e-05
3.67835e-05
3.68257e-05
3.68683e-05
3.69109e-05
3.69484e-05
3.69713e-05
3.69926e-05
3.70124e-05
3.70308e-05
3.70481e-05
3.70643e-05
3.70795e-05
3.70938e-05
3.71072e-05
3.71196e-05
3.71311e-05
3.71418e-05
3.71515e-05
3.71603e-05
3.71682e-05
3.71753e-05
3.71814e-05
3.71867e-05
3.71912e-05
3.71949e-05
3.71979e-05
3.72003e-05
3.7202e-05
3.72031e-05
3.72037e-05
3.72038e-05
3.72034e-05
3.72025e-05
3.72012e-05
3.71994e-05
3.71973e-05
3.71948e-05
3.7192e-05
3.71888e-05
3.71854e-05
3.71818e-05
3.71779e-05
3.71739e-05
3.71697e-05
3.71653e-05
3.71607e-05
3.71559e-05
3.71511e-05
3.71461e-05
3.71411e-05
3.7136e-05
3.71309e-05
3.71258e-05
3.71206e-05
3.71153e-05
3.71099e-05
3.71044e-05
3.70989e-05
3.70933e-05
3.70877e-05
3.7082e-05
3.70762e-05
3.70704e-05
3.70644e-05
3.70584e-05
3.70524e-05
3.70462e-05
3.70401e-05
3.70339e-05
3.70277e-05
3.70215e-05
3.70154e-05
3.70095e-05
3.70037e-05
3.69982e-05
3.69929e-05
3.6988e-05
3.69834e-05
3.69793e-05
3.69756e-05
3.69723e-05
3.69695e-05
3.69671e-05
3.69649e-05
3.69631e-05
3.69615e-05
3.69603e-05
3.69595e-05
3.69591e-05
3.69591e-05
3.69596e-05
3.69604e-05
3.69616e-05
3.6963e-05
3.69647e-05
3.69666e-05
3.69688e-05
3.6971e-05
3.69735e-05
3.69761e-05
3.69789e-05
3.69819e-05
3.69851e-05
3.69885e-05
3.69919e-05
3.69955e-05
3.6999e-05
3.70025e-05
3.70061e-05
3.70099e-05
3.70138e-05
3.7018e-05
3.70225e-05
3.70273e-05
3.70323e-05
3.70376e-05
3.70429e-05
3.70483e-05
3.70538e-05
3.70593e-05
3.70646e-05
3.70697e-05
3.70746e-05
3.70791e-05
3.70832e-05
3.7087e-05
3.70902e-05
3.70929e-05
3.70952e-05
3.70968e-05
3.70978e-05
3.70982e-05
3.7098e-05
3.7097e-05
3.70952e-05
3.70926e-05
3.70891e-05
3.70847e-05
3.70795e-05
3.70735e-05
3.70666e-05
3.70589e-05
3.70504e-05
3.70411e-05
3.7031e-05
3.70199e-05
3.70079e-05
3.69948e-05
3.69806e-05
3.69653e-05
3.69488e-05
3.69313e-05
3.69128e-05
3.68933e-05
3.6873e-05
3.68521e-05
3.68304e-05
3.68083e-05
3.67856e-05
3.67624e-05
3.67387e-05
3.67144e-05
3.66896e-05
3.66642e-05
3.66382e-05
3.66119e-05
3.65852e-05
3.65583e-05
3.65314e-05
3.65045e-05
3.64777e-05
3.6451e-05
3.64244e-05
3.63979e-05
3.63714e-05
3.6345e-05
3.63186e-05
3.62921e-05
3.62658e-05
3.62396e-05
3.62135e-05
3.61876e-05
3.6162e-05
3.61365e-05
3.61112e-05
3.60861e-05
3.60611e-05
3.60362e-05
3.60114e-05
3.59866e-05
3.59619e-05
3.59373e-05
3.59129e-05
3.58888e-05
3.58649e-05
3.58413e-05
3.5818e-05
3.5795e-05
3.57723e-05
3.575e-05
3.57279e-05
3.57062e-05
3.56849e-05
3.56639e-05
3.56434e-05
3.56233e-05
3.56034e-05
3.55839e-05
3.55647e-05
3.55458e-05
3.55271e-05
3.55086e-05
3.54904e-05
3.54725e-05
3.5455e-05
3.54379e-05
3.54212e-05
3.54049e-05
3.5389e-05
3.53734e-05
3.5358e-05
3.5343e-05
3.53282e-05
3.53138e-05
3.52997e-05
3.5286e-05
3.52726e-05
3.52595e-05
3.52466e-05
3.52338e-05
3.52212e-05
3.52086e-05
3.51961e-05
3.51837e-05
3.51713e-05
3.51592e-05
3.51473e-05
3.51357e-05
3.51243e-05
3.51131e-05
3.51022e-05
3.50913e-05
3.50807e-05
3.50703e-05
3.50601e-05
3.50504e-05
3.50412e-05
3.50325e-05
3.50243e-05
3.50166e-05
3.50092e-05
3.50022e-05
3.49952e-05
3.49884e-05
3.49815e-05
3.49746e-05
3.49674e-05
3.49601e-05
3.49527e-05
3.49455e-05
3.49383e-05
3.49314e-05
3.49246e-05
3.4918e-05
3.49114e-05
3.49049e-05
3.48983e-05
3.48918e-05
3.48851e-05
3.48785e-05
3.48719e-05
3.48656e-05
3.48593e-05
3.48535e-05
3.48474e-05
3.48415e-05
3.48349e-05
3.48282e-05
3.48206e-05
3.48126e-05
3.48034e-05
3.47939e-05
3.47829e-05
3.47716e-05
3.47587e-05
3.47457e-05
3.47312e-05
3.47169e-05
3.47011e-05
3.46859e-05
3.46691e-05
3.46531e-05
3.46353e-05
3.46183e-05
3.45993e-05
3.45813e-05
3.45612e-05
3.45424e-05
3.45215e-05
3.45021e-05
3.44802e-05
3.44595e-05
3.44356e-05
3.4412e-05
3.43845e-05
3.43558e-05
3.43215e-05
3.42837e-05
3.42362e-05
3.41818e-05
3.41093e-05
3.40225e-05
3.39053e-05
3.37416e-05
3.35693e-05
3.30019e-05
3.21407e-05
3.07188e-05
3.04373e-05
2.8823e-05
2.72571e-05
2.43958e-05
2.27701e-05
1.9002e-05
1.53016e-05
1.66833e-05
1.40032e-05
2.14129e-05
0.000148821
0.000112449
7.16609e-05
6.76628e-05
5.46784e-05
4.50049e-05
3.73338e-05
3.16475e-05
2.7424e-05
2.4297e-05
2.18899e-05
2.00185e-05
1.85242e-05
1.73269e-05
1.63567e-05
1.55703e-05
1.49323e-05
1.4418e-05
1.40114e-05
1.36992e-05
1.34713e-05
1.33211e-05
1.32439e-05
1.32362e-05
1.32963e-05
1.3424e-05
1.36208e-05
1.38834e-05
1.42065e-05
1.45877e-05
1.50252e-05
1.55201e-05
1.60739e-05
1.66486e-05
1.72389e-05
1.78441e-05
1.84635e-05
1.90971e-05
1.97449e-05
2.04069e-05
2.10839e-05
2.17755e-05
2.24836e-05
2.32099e-05
2.39568e-05
2.47184e-05
2.53306e-05
2.59427e-05
2.65555e-05
2.71691e-05
2.77838e-05
2.83992e-05
2.90153e-05
2.96308e-05
3.02451e-05
3.08562e-05
3.1463e-05
3.20635e-05
3.26582e-05
3.32449e-05
3.38241e-05
3.4396e-05
3.496e-05
3.55158e-05
3.60624e-05
3.66004e-05
3.71292e-05
3.76495e-05
3.81606e-05
3.86633e-05
3.91566e-05
3.96413e-05
4.01161e-05
4.05815e-05
4.10362e-05
4.14814e-05
4.19158e-05
4.23412e-05
4.27558e-05
4.31623e-05
4.35587e-05
4.39489e-05
4.43308e-05
4.47077e-05
4.50771e-05
4.54432e-05
4.58027e-05
4.61601e-05
4.65115e-05
4.68618e-05
4.7206e-05
4.75492e-05
4.78894e-05
4.8229e-05
4.85646e-05
4.88971e-05
4.91845e-05
4.9428e-05
4.96627e-05
4.98894e-05
5.01083e-05
5.03194e-05
5.05228e-05
5.07188e-05
5.09075e-05
5.10892e-05
5.12642e-05
5.14328e-05
5.15952e-05
5.17516e-05
5.19022e-05
5.20472e-05
5.21867e-05
5.23208e-05
5.24498e-05
5.25737e-05
5.26922e-05
5.28058e-05
5.29147e-05
5.3019e-05
5.3119e-05
5.32148e-05
5.33066e-05
5.33945e-05
5.34788e-05
5.35596e-05
5.36371e-05
5.37113e-05
5.3782e-05
5.38528e-05
5.39246e-05
5.3995e-05
5.40631e-05
5.41283e-05
5.41912e-05
5.42518e-05
5.43104e-05
5.43671e-05
5.44222e-05
5.44756e-05
5.45274e-05
5.45777e-05
5.46267e-05
5.46743e-05
5.47208e-05
5.47663e-05
5.4811e-05
5.48551e-05
5.48987e-05
5.4942e-05
5.49851e-05
5.50281e-05
5.50713e-05
5.51146e-05
5.51583e-05
5.52024e-05
5.52471e-05
5.52926e-05
5.53391e-05
5.53867e-05
5.54354e-05
5.54854e-05
5.55368e-05
5.55897e-05
5.56443e-05
5.57006e-05
5.57586e-05
5.58184e-05
5.588e-05
5.59433e-05
5.60081e-05
5.60745e-05
5.61422e-05
5.62111e-05
5.62811e-05
5.63521e-05
5.64239e-05
5.64964e-05
5.65695e-05
5.66432e-05
5.67174e-05
5.67921e-05
5.68673e-05
5.69431e-05
5.70193e-05
5.7096e-05
5.71733e-05
5.72511e-05
5.73294e-05
5.74084e-05
5.74879e-05
5.75682e-05
5.76493e-05
5.77314e-05
5.78145e-05
5.78988e-05
5.79843e-05
5.80711e-05
5.81593e-05
5.82491e-05
5.83404e-05
5.84334e-05
5.85282e-05
5.86247e-05
5.87228e-05
5.88226e-05
5.89237e-05
5.90261e-05
5.91294e-05
5.92336e-05
5.93385e-05
5.94438e-05
5.95496e-05
5.96557e-05
5.9762e-05
5.98683e-05
5.99744e-05
6.00801e-05
6.01852e-05
6.02895e-05
6.0393e-05
6.04956e-05
6.05972e-05
6.06978e-05
6.07974e-05
6.08957e-05
6.09928e-05
6.10883e-05
6.11821e-05
6.12737e-05
6.1363e-05
6.14499e-05
6.15342e-05
6.16158e-05
6.16947e-05
6.17707e-05
6.18438e-05
6.19139e-05
6.19811e-05
6.20452e-05
6.21063e-05
6.21644e-05
6.22195e-05
6.22717e-05
6.2321e-05
6.23675e-05
6.24114e-05
6.24529e-05
6.24921e-05
6.2529e-05
6.25639e-05
6.25968e-05
6.2628e-05
6.26574e-05
6.26852e-05
6.27114e-05
6.27361e-05
6.27594e-05
6.27814e-05
6.28021e-05
6.28218e-05
6.28403e-05
6.28579e-05
6.28746e-05
6.28904e-05
6.29055e-05
6.29198e-05
6.29334e-05
6.29464e-05
6.29588e-05
6.29707e-05
6.29822e-05
6.29933e-05
6.30042e-05
6.30148e-05
6.30251e-05
6.3035e-05
6.30446e-05
6.30537e-05
6.30625e-05
6.3071e-05
6.30791e-05
6.30868e-05
6.30942e-05
6.31012e-05
6.31078e-05
6.31139e-05
6.31197e-05
6.31251e-05
6.31302e-05
6.3135e-05
6.31396e-05
6.31441e-05
6.31485e-05
6.31531e-05
6.31579e-05
6.31631e-05
6.31688e-05
6.31753e-05
6.31826e-05
6.31908e-05
6.32001e-05
6.32105e-05
6.32221e-05
6.32346e-05
6.3248e-05
6.32623e-05
6.32775e-05
6.32936e-05
6.33107e-05
6.33288e-05
6.33479e-05
6.33681e-05
6.33894e-05
6.34116e-05
6.34346e-05
6.34584e-05
6.34828e-05
6.35079e-05
6.35333e-05
6.35592e-05
6.35854e-05
6.3612e-05
6.3639e-05
6.36663e-05
6.3694e-05
6.37219e-05
6.37499e-05
6.37779e-05
6.38059e-05
6.3834e-05
6.38624e-05
6.38911e-05
6.39204e-05
6.39503e-05
6.39808e-05
6.40117e-05
6.4043e-05
6.40745e-05
6.41061e-05
6.41376e-05
6.41691e-05
6.42002e-05
6.42307e-05
6.42604e-05
6.42892e-05
6.43168e-05
6.43432e-05
6.4368e-05
6.43914e-05
6.44132e-05
6.44333e-05
6.44515e-05
6.44679e-05
6.44824e-05
6.44948e-05
6.4505e-05
6.45129e-05
6.45184e-05
6.45216e-05
6.45222e-05
6.45205e-05
6.45163e-05
6.45098e-05
6.45008e-05
6.44894e-05
6.44754e-05
6.44589e-05
6.44395e-05
6.44173e-05
6.43919e-05
6.43635e-05
6.43318e-05
6.42972e-05
6.42595e-05
6.42192e-05
6.41763e-05
6.41311e-05
6.40838e-05
6.40347e-05
6.39839e-05
6.39314e-05
6.38773e-05
6.38216e-05
6.37642e-05
6.37053e-05
6.36447e-05
6.35829e-05
6.352e-05
6.34562e-05
6.3392e-05
6.33276e-05
6.32631e-05
6.31987e-05
6.31345e-05
6.30704e-05
6.30065e-05
6.29426e-05
6.28787e-05
6.28149e-05
6.27512e-05
6.26878e-05
6.26247e-05
6.2562e-05
6.24997e-05
6.24379e-05
6.23765e-05
6.23155e-05
6.22549e-05
6.21945e-05
6.21344e-05
6.20744e-05
6.20147e-05
6.19553e-05
6.18963e-05
6.1838e-05
6.17803e-05
6.17234e-05
6.16674e-05
6.16121e-05
6.15577e-05
6.15041e-05
6.14513e-05
6.13995e-05
6.13487e-05
6.12988e-05
6.125e-05
6.12022e-05
6.11553e-05
6.11092e-05
6.1064e-05
6.10196e-05
6.09759e-05
6.0933e-05
6.08908e-05
6.08495e-05
6.08092e-05
6.077e-05
6.07319e-05
6.06949e-05
6.0659e-05
6.06241e-05
6.059e-05
6.05568e-05
6.05245e-05
6.04931e-05
6.04625e-05
6.04329e-05
6.04042e-05
6.03763e-05
6.03491e-05
6.03224e-05
6.02962e-05
6.02702e-05
6.02445e-05
6.02191e-05
6.01941e-05
6.01695e-05
6.01455e-05
6.01222e-05
6.00995e-05
6.00775e-05
6.00561e-05
6.00352e-05
6.00149e-05
5.99952e-05
5.99765e-05
5.99587e-05
5.99423e-05
5.99271e-05
5.99134e-05
5.9901e-05
5.98896e-05
5.98791e-05
5.98691e-05
5.98594e-05
5.98499e-05
5.98401e-05
5.98299e-05
5.98193e-05
5.98083e-05
5.97972e-05
5.97861e-05
5.97752e-05
5.97646e-05
5.97541e-05
5.97439e-05
5.97336e-05
5.97236e-05
5.97135e-05
5.97035e-05
5.96935e-05
5.96839e-05
5.96747e-05
5.96661e-05
5.96578e-05
5.96497e-05
5.96413e-05
5.96322e-05
5.96219e-05
5.96102e-05
5.95965e-05
5.9581e-05
5.95631e-05
5.95429e-05
5.95201e-05
5.94949e-05
5.94673e-05
5.94377e-05
5.94059e-05
5.93727e-05
5.93379e-05
5.93019e-05
5.92644e-05
5.92258e-05
5.91857e-05
5.91442e-05
5.91014e-05
5.90571e-05
5.9012e-05
5.89655e-05
5.89185e-05
5.88698e-05
5.88199e-05
5.87673e-05
5.87118e-05
5.86524e-05
5.8587e-05
5.85149e-05
5.84325e-05
5.8337e-05
5.82231e-05
5.80829e-05
5.79064e-05
5.7684e-05
5.73587e-05
5.70118e-05
5.60926e-05
5.46525e-05
5.31991e-05
5.13599e-05
4.89379e-05
4.53512e-05
3.99387e-05
3.3429e-05
2.81101e-05
2.10085e-05
2.00328e-05
2.21716e-05
3.35798e-05
0.000183563
0.000108656
6.9593e-05
6.95198e-05
7.37774e-05
8.2385e-05
9.19217e-05
8.01395e-05
7.08531e-05
6.33337e-05
5.70979e-05
5.19204e-05
4.75299e-05
4.38226e-05
4.06547e-05
3.79414e-05
3.55692e-05
3.34769e-05
3.15985e-05
2.98854e-05
2.83075e-05
2.68544e-05
2.55271e-05
2.43273e-05
2.32521e-05
2.22957e-05
2.1449e-05
2.07019e-05
2.00459e-05
1.94727e-05
1.89756e-05
1.85481e-05
1.81856e-05
1.78859e-05
1.76475e-05
1.74685e-05
1.73468e-05
1.72839e-05
1.72897e-05
1.7364e-05
1.74986e-05
1.76897e-05
1.79348e-05
1.82347e-05
1.85913e-05
1.90083e-05
1.94691e-05
1.99614e-05
2.04853e-05
2.10406e-05
2.16264e-05
2.22418e-05
2.28854e-05
2.35556e-05
2.42504e-05
2.49675e-05
2.57044e-05
2.64587e-05
2.72285e-05
2.80129e-05
2.88061e-05
2.94477e-05
3.00944e-05
3.07461e-05
3.14031e-05
3.20668e-05
3.27376e-05
3.34164e-05
3.41028e-05
3.47982e-05
3.55019e-05
3.62158e-05
3.69392e-05
3.7673e-05
3.84155e-05
3.91686e-05
3.99317e-05
4.07065e-05
4.14904e-05
4.22837e-05
4.30817e-05
4.38905e-05
4.47062e-05
4.55331e-05
4.63657e-05
4.72103e-05
4.8059e-05
4.89198e-05
4.9781e-05
5.06548e-05
5.15236e-05
5.24067e-05
5.3279e-05
5.41478e-05
5.47862e-05
5.54142e-05
5.60323e-05
5.66401e-05
5.72374e-05
5.78238e-05
5.83983e-05
5.89604e-05
5.95099e-05
6.00468e-05
6.05712e-05
6.10833e-05
6.15831e-05
6.20706e-05
6.25458e-05
6.30088e-05
6.34597e-05
6.38985e-05
6.43254e-05
6.47403e-05
6.51436e-05
6.55352e-05
6.59146e-05
6.62824e-05
6.66393e-05
6.69854e-05
6.73208e-05
6.7646e-05
6.79614e-05
6.82671e-05
6.85637e-05
6.88514e-05
6.91306e-05
6.94015e-05
6.96642e-05
6.99221e-05
7.01764e-05
7.04254e-05
7.06681e-05
7.0904e-05
7.11336e-05
7.13571e-05
7.15748e-05
7.17868e-05
7.19935e-05
7.21949e-05
7.2391e-05
7.25822e-05
7.27685e-05
7.29501e-05
7.31273e-05
7.33004e-05
7.34698e-05
7.36359e-05
7.3799e-05
7.39596e-05
7.4118e-05
7.42744e-05
7.44293e-05
7.45828e-05
7.47352e-05
7.48869e-05
7.50381e-05
7.51894e-05
7.5341e-05
7.54934e-05
7.56467e-05
7.58013e-05
7.59576e-05
7.61158e-05
7.62763e-05
7.64392e-05
7.66048e-05
7.6773e-05
7.69437e-05
7.71169e-05
7.72923e-05
7.74697e-05
7.76489e-05
7.78295e-05
7.80114e-05
7.81943e-05
7.83779e-05
7.85621e-05
7.87468e-05
7.89318e-05
7.91171e-05
7.93026e-05
7.94885e-05
7.96746e-05
7.9861e-05
8.00477e-05
8.02347e-05
8.04221e-05
8.06097e-05
8.07978e-05
8.09863e-05
8.11755e-05
8.13656e-05
8.15567e-05
8.17491e-05
8.1943e-05
8.21385e-05
8.23359e-05
8.25352e-05
8.27366e-05
8.29404e-05
8.31466e-05
8.33553e-05
8.35665e-05
8.37802e-05
8.39961e-05
8.42139e-05
8.44333e-05
8.4654e-05
8.48754e-05
8.50975e-05
8.53197e-05
8.55419e-05
8.57639e-05
8.59854e-05
8.62061e-05
8.64255e-05
8.66435e-05
8.68595e-05
8.70734e-05
8.7285e-05
8.74942e-05
8.77008e-05
8.79049e-05
8.81065e-05
8.83053e-05
8.85012e-05
8.86939e-05
8.8883e-05
8.90683e-05
8.92495e-05
8.94261e-05
8.9598e-05
8.97649e-05
8.99266e-05
9.0083e-05
9.02337e-05
9.03789e-05
9.05182e-05
9.06518e-05
9.07795e-05
9.09015e-05
9.10177e-05
9.11283e-05
9.12335e-05
9.13335e-05
9.14285e-05
9.15188e-05
9.16047e-05
9.16865e-05
9.17644e-05
9.18387e-05
9.19096e-05
9.19773e-05
9.20419e-05
9.21037e-05
9.21628e-05
9.22192e-05
9.22733e-05
9.2325e-05
9.23747e-05
9.24223e-05
9.24681e-05
9.25122e-05
9.25546e-05
9.25957e-05
9.26354e-05
9.26739e-05
9.27112e-05
9.27476e-05
9.27831e-05
9.2818e-05
9.28524e-05
9.28864e-05
9.292e-05
9.29533e-05
9.29861e-05
9.30185e-05
9.30502e-05
9.30815e-05
9.31123e-05
9.31425e-05
9.31721e-05
9.32011e-05
9.32295e-05
9.3257e-05
9.32839e-05
9.331e-05
9.33355e-05
9.33602e-05
9.33844e-05
9.34081e-05
9.34314e-05
9.34546e-05
9.34779e-05
9.35016e-05
9.35258e-05
9.3551e-05
9.35774e-05
9.36052e-05
9.36346e-05
9.3666e-05
9.36994e-05
9.37349e-05
9.37722e-05
9.38115e-05
9.38525e-05
9.38952e-05
9.39396e-05
9.39857e-05
9.40337e-05
9.40835e-05
9.41352e-05
9.41887e-05
9.4244e-05
9.43009e-05
9.43593e-05
9.44188e-05
9.44794e-05
9.45408e-05
9.46028e-05
9.46653e-05
9.47282e-05
9.47916e-05
9.48553e-05
9.49193e-05
9.49834e-05
9.50475e-05
9.51114e-05
9.51752e-05
9.52389e-05
9.53028e-05
9.53672e-05
9.54322e-05
9.54981e-05
9.55647e-05
9.56319e-05
9.56993e-05
9.57667e-05
9.58339e-05
9.59007e-05
9.59671e-05
9.60325e-05
9.60967e-05
9.61592e-05
9.62196e-05
9.62778e-05
9.63331e-05
9.63855e-05
9.64346e-05
9.64804e-05
9.65227e-05
9.65614e-05
9.65963e-05
9.66273e-05
9.66543e-05
9.66772e-05
9.66957e-05
9.67097e-05
9.67191e-05
9.67238e-05
9.67239e-05
9.67192e-05
9.67099e-05
9.6696e-05
9.66773e-05
9.66539e-05
9.66256e-05
9.65921e-05
9.65533e-05
9.6509e-05
9.64592e-05
9.64036e-05
9.63426e-05
9.62762e-05
9.62047e-05
9.61286e-05
9.60481e-05
9.59638e-05
9.58759e-05
9.57849e-05
9.56908e-05
9.55938e-05
9.5494e-05
9.53914e-05
9.52859e-05
9.51777e-05
9.50671e-05
9.49545e-05
9.48404e-05
9.47252e-05
9.46094e-05
9.44934e-05
9.43775e-05
9.42618e-05
9.41464e-05
9.40313e-05
9.39165e-05
9.38018e-05
9.36873e-05
9.3573e-05
9.34592e-05
9.33459e-05
9.32332e-05
9.31213e-05
9.30101e-05
9.28998e-05
9.27901e-05
9.26811e-05
9.25728e-05
9.24649e-05
9.23575e-05
9.22507e-05
9.21446e-05
9.20394e-05
9.19355e-05
9.18329e-05
9.1732e-05
9.16327e-05
9.15351e-05
9.1439e-05
9.13446e-05
9.12518e-05
9.11607e-05
9.10713e-05
9.09837e-05
9.08978e-05
9.08137e-05
9.07313e-05
9.06504e-05
9.0571e-05
9.0493e-05
9.04164e-05
9.03412e-05
9.02675e-05
9.01953e-05
9.0125e-05
9.00566e-05
8.99902e-05
8.9926e-05
8.98638e-05
8.98034e-05
8.97448e-05
8.96879e-05
8.96325e-05
8.95788e-05
8.95267e-05
8.94763e-05
8.94275e-05
8.93801e-05
8.9334e-05
8.9289e-05
8.92448e-05
8.92012e-05
8.91582e-05
8.91156e-05
8.90737e-05
8.90324e-05
8.89922e-05
8.89529e-05
8.89148e-05
8.88779e-05
8.8842e-05
8.88072e-05
8.87735e-05
8.87411e-05
8.87103e-05
8.86814e-05
8.86547e-05
8.86304e-05
8.86087e-05
8.85892e-05
8.85718e-05
8.85558e-05
8.85409e-05
8.85265e-05
8.85122e-05
8.84974e-05
8.84818e-05
8.84649e-05
8.8447e-05
8.84281e-05
8.84086e-05
8.83888e-05
8.8369e-05
8.8349e-05
8.83291e-05
8.83092e-05
8.82897e-05
8.82701e-05
8.82509e-05
8.82318e-05
8.82135e-05
8.81957e-05
8.81792e-05
8.81631e-05
8.81476e-05
8.81312e-05
8.81139e-05
8.80941e-05
8.8072e-05
8.80462e-05
8.80171e-05
8.79835e-05
8.7946e-05
8.79034e-05
8.78569e-05
8.78054e-05
8.77505e-05
8.76912e-05
8.76295e-05
8.75642e-05
8.74972e-05
8.74271e-05
8.73555e-05
8.72807e-05
8.72041e-05
8.71243e-05
8.70426e-05
8.69585e-05
8.68725e-05
8.67849e-05
8.66951e-05
8.66029e-05
8.65072e-05
8.64069e-05
8.63017e-05
8.61877e-05
8.60651e-05
8.5928e-05
8.57738e-05
8.55945e-05
8.53806e-05
8.51157e-05
8.47887e-05
8.43183e-05
8.3778e-05
8.25826e-05
8.07643e-05
7.86983e-05
7.49873e-05
6.98109e-05
6.2648e-05
5.37273e-05
4.30717e-05
3.79842e-05
2.72935e-05
2.38268e-05
2.66751e-05
3.68345e-05
0.000168594
0.000100346
6.67481e-05
6.59819e-05
7.01427e-05
7.68266e-05
9.13343e-05
0.000102569
0.000123764
0.000115944
0.000107863
0.000100709
9.42358e-05
8.84342e-05
8.32182e-05
7.85357e-05
7.42814e-05
7.03962e-05
6.68112e-05
6.34651e-05
6.03226e-05
5.73767e-05
5.46259e-05
5.20691e-05
4.97026e-05
4.75202e-05
4.55113e-05
4.36613e-05
4.19575e-05
4.0389e-05
3.8944e-05
3.76119e-05
3.63812e-05
3.52435e-05
3.41922e-05
3.32225e-05
3.23298e-05
3.14921e-05
3.06359e-05
2.97437e-05
2.88573e-05
2.80142e-05
2.72346e-05
2.65271e-05
2.58939e-05
2.53349e-05
2.48501e-05
2.4439e-05
2.41001e-05
2.38316e-05
2.36312e-05
2.34969e-05
2.34268e-05
2.34194e-05
2.34735e-05
2.35878e-05
2.37614e-05
2.39944e-05
2.42866e-05
2.46373e-05
2.5046e-05
2.55099e-05
2.60281e-05
2.65995e-05
2.72229e-05
2.78974e-05
2.86188e-05
2.93767e-05
3.01719e-05
3.10052e-05
3.18769e-05
3.27873e-05
3.37359e-05
3.4722e-05
3.57446e-05
3.68024e-05
3.78936e-05
3.90168e-05
4.01703e-05
4.13528e-05
4.25628e-05
4.37992e-05
4.50606e-05
4.63456e-05
4.7652e-05
4.89771e-05
5.03168e-05
5.16664e-05
5.302e-05
5.43712e-05
5.5713e-05
5.70398e-05
5.83477e-05
5.96321e-05
6.08883e-05
6.21144e-05
6.33096e-05
6.44739e-05
6.5608e-05
6.67118e-05
6.77861e-05
6.8832e-05
6.98508e-05
7.08432e-05
7.181e-05
7.27515e-05
7.36668e-05
7.45557e-05
7.54186e-05
7.62562e-05
7.70691e-05
7.7858e-05
7.86235e-05
7.93662e-05
8.0087e-05
8.07857e-05
8.14628e-05
8.21201e-05
8.27583e-05
8.33779e-05
8.39795e-05
8.45639e-05
8.51315e-05
8.5683e-05
8.62187e-05
8.67389e-05
8.72443e-05
8.77353e-05
8.82124e-05
8.86792e-05
8.9137e-05
8.95847e-05
9.00216e-05
9.04469e-05
9.08611e-05
9.12647e-05
9.1658e-05
9.20413e-05
9.24149e-05
9.27789e-05
9.31337e-05
9.34794e-05
9.38164e-05
9.4145e-05
9.44658e-05
9.47792e-05
9.50861e-05
9.53869e-05
9.56825e-05
9.59733e-05
9.62601e-05
9.65432e-05
9.68231e-05
9.71003e-05
9.73752e-05
9.76484e-05
9.79202e-05
9.81915e-05
9.84629e-05
9.8735e-05
9.90084e-05
9.92838e-05
9.95618e-05
9.9843e-05
0.000100128
0.000100417
0.000100711
0.000101009
0.000101311
0.000101616
0.000101925
0.000102237
0.000102551
0.000102866
0.000103182
0.000103499
0.000103817
0.000104134
0.000104452
0.000104769
0.000105087
0.000105404
0.000105721
0.000106038
0.000106356
0.000106673
0.00010699
0.000107306
0.000107623
0.000107939
0.000108256
0.000108573
0.00010889
0.000109208
0.000109528
0.000109849
0.000110172
0.000110497
0.000110824
0.000111153
0.000111486
0.000111821
0.000112159
0.000112499
0.000112843
0.000113188
0.000113536
0.000113885
0.000114235
0.000114584
0.000114934
0.000115282
0.000115629
0.000115974
0.000116318
0.000116658
0.000116995
0.000117328
0.000117657
0.000117982
0.000118301
0.000118616
0.000118925
0.00011923
0.000119529
0.000119824
0.000120113
0.000120397
0.000120675
0.000120946
0.000121211
0.000121469
0.000121719
0.000121962
0.000122197
0.000122423
0.000122641
0.00012285
0.000123051
0.000123242
0.000123425
0.000123599
0.000123764
0.000123922
0.000124071
0.000124213
0.000124348
0.000124476
0.000124598