/*--------------------------------*- C++ -*----------------------------------*\
| =========                 |                                                 |
| \\      /  F ield         | foam-extend: Open Source CFD                    |
|  \\    /   O peration     | Version:     3.2                                |
|   \\  /    A nd           | Web:         http://www.foam-extend.org         |
|    \\/     M anipulation  | For copyright notice see file Copyright         |
\*---------------------------------------------------------------------------*/
FoamFile
{
    version     2.0;
    format      ascii;
    class       areaScalarField;
    location    "120";
    object      Hdep;
}
// * * * * * * * * * * * * * * * * * * * * * * * * * * * * * * * * * * * * * //

dimensions      [0 0 0 0 0 0 0];

internalField   nonuniform List<scalar> 
550
(
0
0
0
0
0
0
0
0
0
0
0
0
0
0
0
0
0
0
0
0
0
0
0
0
0
0
0
0
0
0
0
0
0
0
0
0
0
0
0
0
0
0
0
0
0
0
0
0
0
0
0
0
0
0
0
0
0
0
0
0
0
0
0
0
0
0
0
0
0
0
0
0
0
0
0
0
0
0
0
0
0
0
0
0
0
0
0
0
0
0
0
0
0
0
0
0
0
0
0
0
0
0
0
0
0
0
0
0
0
0
0
0
0
0
0
0
0
0
0
0
0
0
0
0
0
0
0
0
0
0
1.31931e-06
4.31333e-06
8.41593e-06
1.265e-05
1.69553e-05
2.12517e-05
2.55159e-05
2.97365e-05
3.39078e-05
3.80263e-05
4.20898e-05
4.60969e-05
5.00467e-05
5.39383e-05
5.77712e-05
6.15448e-05
6.52595e-05
6.89171e-05
7.25194e-05
7.60641e-05
7.95474e-05
8.29676e-05
8.63218e-05
8.96083e-05
9.28276e-05
9.59787e-05
9.90609e-05
0.000102077
0.000105029
0.000107916
0.000110734
0.000113484
0.000116165
0.00011878
0.000121328
0.000123811
0.000126228
0.00012858
0.000130869
0.000133095
0.000135257
0.000137359
0.0001394
0.00014138
0.0001433
0.000145161
0.000146962
0.000148705
0.00015039
0.000152017
0.000153585
0.000155097
0.000156553
0.000157954
0.000159301
0.000160595
0.000161837
0.000163029
0.000164171
0.000165265
0.000166312
0.000167314
0.000168272
0.000169188
0.000170064
0.000170899
0.000171697
0.000172458
0.000173183
0.000173877
0.000174542
0.000175178
0.00017579
0.00017638
0.00017695
0.000177501
0.000178031
0.000178538
0.000179022
0.000179485
0.000179932
0.000180368
0.000180795
0.000181215
0.000181625
0.000182026
0.00018242
0.000182809
0.000183194
0.000183576
0.000183956
0.000184337
0.000184722
0.000185122
0.000185554
0.000186028
0.000186543
0.000187093
0.000187667
0.000188261
0.000188866
0.000189479
0.000190094
0.000190712
0.000191329
0.000191948
0.000192564
0.000193181
0.000193795
0.000194409
0.00019502
0.000195628
0.000196232
0.000196833
0.000197427
0.000198019
0.000198603
0.000199184
0.000199757
0.000200327
0.000200886
0.000201439
0.000201979
0.000202513
0.000203034
0.000203548
0.000204048
0.000204541
0.000205021
0.000205493
0.000205953
0.000206404
0.000206841
0.00020727
0.000207683
0.000208089
0.000208479
0.000208863
0.000209232
0.000209595
0.000209944
0.000210284
0.000210608
0.000210921
0.000211216
0.000211498
0.000211761
0.000212007
0.000212232
0.000212438
0.000212624
0.000212792
0.000212939
0.00021307
0.000213183
0.000213278
0.000213354
0.000213411
0.000213448
0.000213465
0.000213463
0.000213441
0.000213403
0.000213351
0.000213284
0.0002132
0.000213102
0.000212996
0.000212892
0.000212792
0.000212694
0.000212609
0.000212557
0.000212535
0.000212522
0.0002125
0.000212459
0.000212402
0.000212334
0.000212268
0.000212214
0.000212191
0.000212201
0.000212231
0.000212269
0.000212301
0.000212318
0.000212318
0.000212303
0.000212271
0.000212224
0.000212166
0.000212099
0.000212023
0.000211939
0.000211846
0.000211746
0.000211641
0.00021153
0.000211416
0.0002113
0.000211182
0.000211065
0.00021095
0.00021084
0.00021074
0.000210657
0.000210596
0.000210564
0.00021057
0.000210624
0.000210735
0.000210896
0.000211083
0.000211282
0.000211508
0.000211782
0.000212119
0.00021251
0.000212941
0.000213408
0.000213905
0.000214416
0.000214932
0.000215451
0.000215979
0.000216514
0.000217057
0.000217607
0.000218168
0.000218738
0.000219317
0.000219903
0.000220494
0.00022109
0.000221692
0.000222297
0.000222906
0.000223515
0.000224124
0.000224733
0.00022534
0.000225946
0.000226547
0.000227146
0.000227739
0.000228327
0.000228908
0.000229484
0.00023005
0.000230609
0.000231156
0.000231694
0.000232219
0.000232733
0.000233235
0.000233725
0.000234201
0.000234664
0.000235114
0.000235549
0.000235972
0.000236382
0.000236782
0.000237171
0.000237554
0.000237929
0.000238297
0.000238656
0.00023901
0.000239355
0.000239695
0.000240027
0.000240354
0.000240673
0.000240986
0.00024129
0.000241591
0.000241885
0.000242176
0.000242459
0.000242739
0.000243011
0.000243277
0.000243535
0.000243786
0.000244026
0.000244258
0.00024448
0.000244695
0.000244899
0.000245095
0.000245282
0.000245461
0.000245633
0.000245802
0.000245969
0.000246137
0.000246305
0.000246471
0.000246633
0.000246794
0.000246961
0.000247135
0.000247307
0.00024747
0.000247625
0.000247782
0.000247944
0.000248113
0.000248289
0.000248466
0.000248631
0.00024878
0.000248922
0.000249064
0.000249208
0.000249356
0.000249507
0.00024966
0.000249811
0.000249958
0.000250103
0.00025025
0.000250399
0.000250547
0.000250684
0.000250808
0.000250921
0.000251024
0.00025112
0.000251209
0.00025129
0.000251363
0.000251429
0.00025149
0.000251549
0.000251607
0.000251669
0.000251735
0.000251806
0.000251882
0.000251966
0.000252061
0.000252165
0.000252276
0.000252394
0.000252516
0.000252642
0.000252776
0.000252924
0.000253099
0.000253307
0.000253549
0.000253832
0.000254139
0.000254441
0.000254728
0.000255003
0.000255272
0.00025554
0.00025581
0.000256084
0.000256367
0.000256661
0.000256966
0.000257283
0.000257611
0.000257949
0.000258297
0.000258654
0.00025902
0.000259394
0.000259775
0.000260161
0.000260546
0.000260928
0.000261302
0.00026167
0.000262029
0.000262383
0.000262731
0.000263076
0.000263416
0.000263754
0.000264088
0.000264419
0.000264749
0.000265082
0.000265421
0.000265773
0.000266142
0.000266539
0.00026697
0.000267454
0.000268007
0.00026867
0.000269493
0.000270565
0.000272005
0.000273981
0.000276726
0.000280592
0.000286067
0.000293782
0.00030476
0.000317226
0.000334028
0.000262938
0
0
0
0
0
0
0
0
0
0
0
)
;

boundaryField
{
    inlet
    {
        type            calculated;
        value           uniform 0;
    }
    endWall
    {
        type            calculated;
        value           uniform 0;
    }
    sideWall
    {
        type            empty;
    }
}


// ************************************************************************* //
