/*--------------------------------*- C++ -*----------------------------------*\
| =========                 |                                                 |
| \\      /  F ield         | foam-extend: Open Source CFD                    |
|  \\    /   O peration     | Version:     3.2                                |
|   \\  /    A nd           | Web:         http://www.foam-extend.org         |
|    \\/     M anipulation  | For copyright notice see file Copyright         |
\*---------------------------------------------------------------------------*/
FoamFile
{
    version     2.0;
    format      ascii;
    class       volScalarField;
    location    "120";
    object      k;
}
// * * * * * * * * * * * * * * * * * * * * * * * * * * * * * * * * * * * * * //

dimensions      [0 2 -2 0 0 0 0];

internalField   nonuniform List<scalar> 
33000
(
0.000163516
0.000225634
0.000301014
0.000388903
0.000487115
0.000592239
0.000700271
0.000806744
0.000907781
0.00099982
0.00108059
0.00114856
0.00120339
0.00124528
0.00127512
0.00129403
0.0013035
0.00130498
0.00129999
0.00129031
0.00127695
0.00126077
0.00124251
0.00122284
0.00120232
0.00118144
0.0011606
0.00114018
0.00112046
0.00110144
0.00108316
0.00106568
0.00104904
0.00103326
0.00101835
0.00100428
0.000991051
0.000978624
0.000966971
0.00095606
0.000945856
0.00093632
0.000927414
0.000919097
0.000911329
0.000904076
0.000897304
0.000890982
0.000885081
0.000879573
0.000874429
0.000869622
0.000865128
0.00086092
0.000856974
0.000853265
0.000849772
0.000846476
0.00084336
0.000840408
0.000837605
0.000834939
0.000832399
0.000829976
0.000827658
0.000825437
0.000823305
0.000821254
0.000819276
0.000817366
0.000815516
0.00081372
0.000811974
0.000810271
0.000808609
0.000806981
0.000805384
0.000803816
0.000802273
0.000800756
0.000799264
0.000797797
0.000796353
0.000794932
0.000793531
0.000792151
0.000790791
0.00078945
0.000788127
0.000786821
0.000785532
0.000784256
0.000782989
0.000781731
0.000780482
0.000779241
0.000778008
0.000776785
0.000775571
0.000774366
0.000773172
0.000771983
0.000770798
0.000769614
0.000768426
0.000767233
0.000766033
0.000764823
0.000763602
0.000762368
0.000761122
0.000759861
0.000758586
0.000757298
0.000755995
0.00075468
0.000753349
0.000752003
0.000750644
0.000749272
0.000747887
0.000746491
0.000745082
0.000743663
0.000742234
0.000740796
0.00073935
0.000737898
0.00073644
0.000734978
0.000733513
0.000732046
0.000730576
0.000729106
0.000727635
0.000726164
0.000724693
0.000723224
0.000721756
0.000720291
0.000718828
0.00071737
0.000715915
0.000714465
0.00071302
0.000711581
0.000710147
0.000708721
0.000707301
0.000705888
0.000704484
0.000703088
0.000701701
0.000700324
0.000698958
0.000697603
0.00069626
0.00069493
0.000693613
0.000692311
0.000691022
0.000689749
0.00068849
0.000687247
0.000686021
0.00068481
0.000683617
0.00068244
0.000681282
0.000680141
0.000679019
0.000677915
0.00067683
0.000675764
0.000674717
0.00067369
0.000672681
0.000671692
0.000670722
0.000669771
0.000668838
0.000667925
0.00066703
0.000666154
0.000665296
0.000664456
0.000663635
0.000662832
0.000662046
0.000661279
0.000660529
0.000659797
0.000659084
0.000658388
0.00065771
0.00065705
0.000656407
0.000655783
0.000655176
0.000654588
0.000654017
0.000653464
0.000652929
0.000652411
0.00065191
0.000651427
0.000650959
0.000650508
0.000650072
0.000649651
0.000649243
0.000648848
0.000648466
0.000648095
0.000647734
0.000647383
0.000647041
0.000646707
0.000646381
0.00064606
0.000645745
0.000645435
0.000645129
0.000644826
0.000644527
0.000644229
0.000643929
0.000643625
0.000643316
0.000643001
0.00064268
0.000642354
0.000642023
0.000641688
0.000641349
0.000641007
0.000640661
0.000640314
0.000639964
0.000639613
0.000639264
0.000638916
0.00063857
0.000638228
0.000637889
0.000637551
0.000637214
0.000636876
0.000636539
0.000636201
0.000635862
0.000635521
0.000635179
0.000634833
0.000634484
0.00063413
0.000633773
0.00063341
0.000633043
0.000632671
0.000632295
0.000631914
0.000631528
0.000631139
0.000630745
0.000630347
0.000629945
0.000629539
0.000629131
0.000628719
0.000628305
0.000627889
0.00062747
0.000627051
0.00062663
0.000626209
0.000625787
0.000625366
0.000624945
0.000624523
0.000624102
0.000623682
0.000623263
0.000622846
0.000622432
0.00062202
0.000621612
0.000621208
0.000620809
0.000620414
0.000620025
0.000619641
0.000619263
0.000618891
0.000618526
0.000618167
0.000617815
0.00061747
0.000617132
0.000616801
0.000616477
0.000616158
0.000615846
0.000615538
0.000615235
0.000614937
0.000614642
0.000614351
0.000614064
0.00061378
0.000613501
0.000613226
0.000612955
0.000612689
0.000612427
0.00061217
0.000611916
0.000611667
0.000611422
0.000611181
0.000610945
0.000610712
0.000610484
0.00061026
0.00061004
0.000609825
0.000609614
0.000609407
0.000609204
0.000609005
0.000608809
0.000608616
0.000608427
0.00060824
0.000608057
0.000607876
0.000607697
0.000607521
0.000607346
0.000607172
0.000607
0.000606828
0.000606655
0.000606482
0.000606308
0.000606132
0.000605952
0.000605769
0.000605581
0.000605388
0.000605189
0.000604983
0.00060477
0.000604549
0.00060432
0.000604083
0.000603839
0.000603587
0.000603327
0.00060306
0.000602787
0.000602506
0.000602219
0.000601924
0.000601623
0.000601314
0.000600999
0.000600676
0.000600347
0.000600011
0.000599668
0.000599318
0.000598962
0.000598598
0.000598226
0.000597847
0.000597459
0.000597063
0.000596658
0.000596245
0.000595824
0.000595395
0.000594959
0.000594514
0.000594062
0.000593604
0.000593138
0.000592667
0.000592189
0.000591706
0.000591217
0.000590723
0.000590225
0.000589723
0.000589217
0.000588708
0.000588197
0.000587683
0.000587166
0.000586647
0.000586126
0.000585603
0.000585078
0.000584552
0.000584024
0.000583496
0.000582968
0.000582439
0.000581909
0.00058138
0.00058085
0.00058032
0.00057979
0.000579259
0.000578726
0.000578193
0.000577658
0.000577122
0.000576584
0.000576045
0.000575503
0.00057496
0.000574416
0.00057387
0.000573323
0.000572775
0.000572226
0.000571678
0.000571129
0.000570581
0.000570035
0.00056949
0.000568948
0.000568409
0.000567874
0.000567343
0.000566817
0.000566296
0.00056578
0.000565271
0.000564767
0.000564271
0.000563781
0.000563299
0.000562825
0.000562359
0.000561901
0.000561451
0.000561009
0.000560574
0.000560146
0.000559724
0.000559308
0.000558898
0.000558494
0.000558096
0.000557703
0.000557316
0.000556935
0.000556559
0.000556188
0.000555822
0.000555459
0.0005551
0.000554742
0.000554387
0.000554034
0.000553682
0.000553333
0.000552986
0.000552642
0.0005523
0.00055196
0.000551623
0.000551288
0.000550955
0.000550625
0.000550298
0.000549975
0.000549655
0.000549338
0.000549025
0.000548715
0.000548408
0.000548103
0.000547802
0.000547501
0.000547203
0.000546905
0.000546606
0.000546307
0.000546007
0.000545705
0.000545402
0.000545096
0.000544788
0.000544477
0.000544166
0.000543853
0.000543539
0.000543224
0.000542909
0.000542591
0.000542271
0.000541947
0.00054162
0.000541285
0.000540945
0.000540597
0.000540244
0.000539881
0.000539515
0.000539139
0.000538759
0.00053837
0.000537978
0.000537577
0.000537175
0.000536764
0.000536352
0.000535931
0.000535509
0.000535074
0.000534632
0.000534172
0.000533699
0.000533194
0.00053267
0.000532084
0.000531461
0.000530715
0.000529887
0.000528816
0.00052757
0.000525841
0.000523771
0.000520671
0.000517043
0.000510226
0.00049929
0.000484379
0.000464957
0.000436294
0.000397614
0.000344893
0.000275636
0.000171
8.17387e-05
0.000106867
0.000181426
0.000113447
0.000117238
0.000123457
0.00013128
0.000141755
0.000153913
0.000167321
0.000181604
0.000196858
0.000212514
0.000228643
0.000244428
0.000259773
0.000274374
0.000288401
0.000302009
0.000315487
0.000329431
0.000344214
0.000359941
0.000377066
0.000395331
0.000413202
0.000431156
0.00044963
0.000469016
0.000489626
0.000510881
0.000531529
0.000551563
0.000570905
0.000589478
0.000607238
0.000624136
0.000640136
0.000655212
0.000669361
0.000682587
0.000694909
0.00070635
0.000716948
0.000726743
0.000735783
0.000744112
0.000751787
0.000758856
0.000765423
0.000771514
0.000777156
0.000782366
0.000787165
0.000791563
0.000795575
0.000799213
0.000802493
0.000805432
0.000808046
0.000810363
0.000812411
0.000814203
0.000815762
0.000817097
0.000818223
0.000819151
0.000819892
0.000820459
0.000820863
0.000821117
0.000821232
0.000821219
0.000821089
0.000820851
0.000820516
0.000820091
0.000819584
0.000819001
0.000818348
0.000817629
0.000816847
0.000816008
0.000815116
0.000814177
0.000813192
0.000812168
0.000811108
0.000810017
0.000808898
0.000807758
0.000806595
0.000805416
0.000804217
0.000803002
0.000801765
0.000800508
0.000799225
0.00079791
0.00079656
0.000795171
0.000793737
0.000792255
0.000790727
0.000789151
0.000787528
0.000785859
0.000784143
0.000782383
0.00078058
0.000778736
0.000776854
0.000774936
0.000772986
0.000771007
0.000769002
0.000766975
0.000764929
0.00076287
0.000760801
0.000758721
0.000756637
0.000754552
0.000752469
0.000750389
0.000748314
0.000746247
0.000744188
0.000742141
0.000740107
0.00073809
0.00073609
0.000734111
0.000732154
0.000730221
0.000728313
0.000726432
0.000724578
0.000722751
0.000720952
0.000719182
0.000717441
0.000715728
0.000714046
0.000712394
0.000710772
0.00070918
0.00070762
0.000706091
0.000704593
0.000703125
0.000701688
0.000700281
0.000698904
0.000697555
0.000696236
0.000694944
0.000693681
0.000692446
0.000691239
0.00069006
0.000688909
0.000687786
0.000686691
0.000685623
0.000684582
0.000683568
0.000682581
0.00068162
0.000680686
0.000679778
0.000678896
0.000678041
0.000677212
0.000676411
0.000675636
0.000674889
0.000674169
0.000673476
0.00067281
0.00067217
0.000671557
0.00067097
0.000670407
0.00066987
0.000669357
0.000668868
0.000668403
0.00066796
0.000667539
0.000667141
0.000666764
0.000666408
0.000666073
0.000665758
0.000665465
0.000665192
0.000664938
0.000664705
0.000664491
0.000664297
0.000664121
0.000663964
0.000663825
0.000663704
0.000663601
0.000663513
0.000663442
0.000663385
0.000663342
0.000663311
0.000663291
0.000663281
0.000663277
0.00066328
0.000663286
0.000663295
0.000663305
0.000663314
0.00066332
0.000663323
0.00066332
0.000663309
0.000663291
0.000663262
0.000663223
0.000663172
0.000663109
0.000663031
0.00066291
0.000662753
0.000662567
0.000662357
0.000662127
0.000661883
0.000661627
0.000661362
0.00066109
0.000660814
0.000660534
0.000660252
0.000659969
0.000659683
0.000659395
0.000659107
0.000658819
0.000658529
0.00065824
0.000657952
0.000657665
0.000657379
0.000657094
0.000656809
0.000656524
0.000656239
0.000655952
0.000655662
0.000655366
0.000655063
0.000654753
0.000654433
0.000654105
0.000653769
0.000653426
0.000653078
0.000652726
0.000652369
0.000652009
0.000651645
0.000651279
0.00065091
0.000650538
0.000650165
0.000649789
0.00064941
0.000649029
0.000648647
0.000648262
0.000647878
0.000647492
0.000647107
0.000646721
0.000646335
0.000645949
0.000645564
0.000645182
0.000644804
0.000644431
0.000644064
0.000643704
0.000643353
0.00064301
0.000642677
0.000642354
0.000642039
0.000641734
0.000641439
0.000641152
0.000640876
0.000640609
0.000640352
0.000640104
0.000639865
0.000639634
0.000639409
0.00063919
0.000638976
0.000638766
0.000638559
0.000638353
0.00063815
0.000637948
0.000637748
0.00063755
0.000637357
0.000637168
0.000636984
0.000636805
0.000636633
0.000636466
0.000636305
0.00063615
0.000636
0.000635854
0.000635712
0.000635575
0.000635441
0.000635312
0.000635185
0.000635062
0.000634941
0.000634822
0.000634703
0.000634585
0.000634466
0.000634346
0.000634225
0.000634103
0.00063398
0.000633855
0.000633726
0.000633594
0.000633458
0.000633316
0.000633169
0.000633016
0.000632856
0.000632689
0.000632513
0.000632327
0.000632131
0.000631922
0.000631702
0.000631468
0.000631221
0.000630959
0.000630682
0.00063039
0.000630083
0.00062976
0.000629424
0.000629075
0.000628714
0.000628343
0.000627963
0.000627572
0.000627173
0.000626763
0.000626343
0.000625913
0.000625472
0.000625022
0.000624562
0.000624093
0.000623616
0.000623131
0.000622637
0.000622134
0.000621623
0.000621101
0.00062057
0.00062003
0.000619482
0.000618926
0.000618364
0.000617796
0.000617223
0.000616647
0.000616067
0.000615485
0.000614901
0.000614315
0.000613727
0.000613136
0.000612542
0.000611947
0.000611351
0.000610755
0.000610159
0.000609564
0.00060897
0.000608378
0.000607787
0.000607196
0.000606605
0.000606015
0.000605425
0.000604836
0.000604249
0.000603664
0.000603083
0.000602505
0.000601929
0.000601357
0.000600788
0.00060022
0.000599654
0.00059909
0.000598526
0.000597962
0.000597398
0.000596834
0.000596269
0.000595703
0.000595137
0.000594571
0.000594006
0.000593441
0.000592879
0.00059232
0.000591765
0.000591214
0.00059067
0.000590132
0.000589603
0.000589083
0.000588574
0.000588077
0.000587592
0.000587119
0.000586658
0.000586208
0.000585768
0.000585338
0.000584917
0.000584506
0.000584104
0.000583711
0.000583329
0.000582955
0.000582591
0.000582235
0.000581887
0.000581545
0.000581209
0.000580876
0.000580547
0.00058022
0.000579897
0.000579576
0.00057926
0.000578949
0.000578642
0.00057834
0.000578042
0.000577746
0.000577452
0.000577158
0.000576864
0.000576568
0.000576272
0.000575975
0.000575679
0.000575383
0.00057509
0.000574797
0.000574507
0.000574216
0.000573928
0.000573642
0.000573361
0.000573083
0.000572812
0.000572544
0.000572283
0.000572024
0.000571771
0.00057152
0.000571275
0.000571028
0.000570786
0.000570538
0.00057029
0.000570033
0.000569773
0.000569498
0.00056922
0.000568923
0.000568622
0.000568299
0.000567975
0.000567628
0.000567284
0.000566919
0.000566559
0.000566177
0.000565802
0.000565399
0.000565005
0.000564576
0.000564157
0.000563699
0.000563255
0.000562772
0.000562313
0.000561813
0.000561344
0.00056083
0.000560353
0.000559826
0.000559343
0.00055881
0.000558329
0.000557797
0.000557323
0.000556793
0.000556322
0.000555785
0.000555304
0.000554751
0.000554263
0.000553697
0.000553201
0.000552621
0.000552134
0.000551533
0.000551067
0.000550411
0.000549879
0.00054919
0.000547447
0.000545784
0.000547013
0.000545886
0.00054471
0.000539896
0.000534862
0.000516613
0.00047792
0.000429829
0.000315938
0.000169335
0.000215113
0.000111329
0.000112028
0.000113248
0.000114705
0.000116287
0.000117906
0.000119604
0.000121309
0.000123131
0.000124876
0.000126709
0.000128472
0.000130101
0.000131625
0.0001331
0.000134555
0.00013609
0.000137732
0.000139558
0.000141614
0.000143976
0.000146727
0.000149897
0.000153533
0.000157698
0.000162487
0.000168032
0.00017441
0.000181693
0.000190004
0.000199445
0.000210115
0.000222102
0.000234495
0.000247156
0.000260054
0.000273153
0.000286415
0.000299801
0.000313269
0.000326781
0.000340273
0.000353734
0.000367141
0.000380491
0.000393764
0.000406722
0.000419368
0.000431703
0.000443727
0.000455435
0.00046682
0.000477872
0.000488574
0.00049891
0.000508862
0.00051841
0.000527545
0.00053626
0.00054456
0.000552452
0.000559981
0.000567153
0.000573978
0.000580467
0.000586636
0.000592499
0.000598068
0.000603355
0.000608369
0.000613118
0.000617609
0.000621847
0.000625837
0.000629584
0.000633095
0.000636375
0.00063943
0.000642269
0.000644898
0.000647329
0.000649569
0.00065163
0.000653521
0.000655252
0.000656827
0.000658258
0.000659547
0.000660704
0.00066173
0.000662634
0.000663419
0.00066409
0.00066465
0.000665122
0.000665506
0.000665771
0.000665884
0.000665863
0.000665722
0.000665475
0.000665126
0.000664682
0.000664147
0.00066353
0.000662836
0.000662074
0.000661249
0.000660367
0.000659434
0.000658456
0.000657438
0.000656385
0.000655301
0.000654191
0.000653059
0.000651908
0.00065074
0.00064956
0.000648372
0.000647181
0.000645987
0.000644795
0.000643605
0.00064242
0.000641239
0.000640066
0.000638901
0.000637746
0.000636605
0.000635478
0.000634367
0.000633274
0.000632199
0.000631145
0.000630111
0.000629099
0.000628108
0.000627139
0.000626193
0.00062527
0.00062437
0.000623493
0.000622641
0.000621813
0.00062101
0.000620231
0.000619478
0.000618749
0.000618045
0.000617365
0.000616709
0.000616076
0.000615467
0.000614882
0.000614319
0.00061378
0.000613265
0.000612773
0.000612305
0.000611862
0.000611442
0.000611046
0.000610674
0.000610326
0.000610002
0.000609703
0.000609429
0.000609179
0.000608956
0.000608759
0.000608588
0.000608445
0.000608329
0.000608242
0.000608183
0.000608152
0.00060815
0.000608176
0.000608229
0.000608309
0.000608416
0.000608547
0.000608704
0.000608885
0.00060909
0.000609317
0.000609567
0.000609838
0.00061013
0.000610443
0.000610776
0.00061113
0.000611503
0.000611896
0.000612307
0.000612736
0.000613183
0.000613647
0.000614128
0.000614625
0.000615138
0.000615665
0.000616206
0.00061676
0.000617325
0.0006179
0.000618483
0.000619071
0.000619664
0.000620257
0.00062085
0.000621439
0.000622024
0.0006226
0.000623167
0.000623723
0.000624265
0.000624792
0.000625302
0.000625793
0.000626263
0.000626712
0.000627138
0.00062754
0.000627919
0.000628272
0.000628595
0.000628889
0.000629155
0.000629394
0.000629609
0.000629801
0.000629973
0.000630127
0.000630265
0.000630388
0.000630498
0.000630598
0.000630687
0.000630767
0.000630837
0.000630899
0.000630954
0.000631
0.000631041
0.000631078
0.000631109
0.000631135
0.000631156
0.000631171
0.000631179
0.000631178
0.000631167
0.000631145
0.000631108
0.000631055
0.000630986
0.000630899
0.000630797
0.000630679
0.000630547
0.000630403
0.000630248
0.000630085
0.000629913
0.000629736
0.000629552
0.000629363
0.000629171
0.000628973
0.000628772
0.000628566
0.000628355
0.00062814
0.000627921
0.000627698
0.000627471
0.000627241
0.000627009
0.000626775
0.00062654
0.000626307
0.000626077
0.000625853
0.000625636
0.000625429
0.000625233
0.000625048
0.000624877
0.000624719
0.000624574
0.000624443
0.000624326
0.000624221
0.000624129
0.000624049
0.00062398
0.000623922
0.000623873
0.000623833
0.000623799
0.000623771
0.000623748
0.000623728
0.00062371
0.000623694
0.00062368
0.000623667
0.000623655
0.000623646
0.000623641
0.000623639
0.000623643
0.000623652
0.000623668
0.00062369
0.000623719
0.000623755
0.000623797
0.000623844
0.000623896
0.000623952
0.000624011
0.000624073
0.000624136
0.000624199
0.000624263
0.000624325
0.000624384
0.00062444
0.000624491
0.000624537
0.000624579
0.000624615
0.000624645
0.000624668
0.000624685
0.000624694
0.000624694
0.000624683
0.000624663
0.00062463
0.000624585
0.000624525
0.000624449
0.000624357
0.000624246
0.000624115
0.000623964
0.000623792
0.000623598
0.000623381
0.000623143
0.000622881
0.000622598
0.000622292
0.000621965
0.000621619
0.000621253
0.000620871
0.000620472
0.000620058
0.000619629
0.000619184
0.000618725
0.000618251
0.000617763
0.00061726
0.000616743
0.000616212
0.000615667
0.000615108
0.000614536
0.000613951
0.000613352
0.000612739
0.000612113
0.000611475
0.000610825
0.000610165
0.000609496
0.000608818
0.000608134
0.000607445
0.000606751
0.000606054
0.000605355
0.000604653
0.00060395
0.000603243
0.000602535
0.000601824
0.000601112
0.0006004
0.000599687
0.000598975
0.000598263
0.000597554
0.000596846
0.000596139
0.000595434
0.000594731
0.00059403
0.000593331
0.000592636
0.000591944
0.000591257
0.000590574
0.000589895
0.000589221
0.00058855
0.000587882
0.000587217
0.000586554
0.000585892
0.000585231
0.00058457
0.00058391
0.000583249
0.000582589
0.000581928
0.000581269
0.000580611
0.000579956
0.000579305
0.00057866
0.000578022
0.000577394
0.000576776
0.000576172
0.000575581
0.000575008
0.000574452
0.000573915
0.000573398
0.000572901
0.000572424
0.000571965
0.000571524
0.0005711
0.000570691
0.000570296
0.000569914
0.000569546
0.00056919
0.000568846
0.000568513
0.000568191
0.000567878
0.000567573
0.000567277
0.000566986
0.000566701
0.000566421
0.000566146
0.000565874
0.000565607
0.000565345
0.000565087
0.000564833
0.000564584
0.000564337
0.000564091
0.000563846
0.0005636
0.000563352
0.000563103
0.000562852
0.0005626
0.000562348
0.000562095
0.000561843
0.000561592
0.000561342
0.000561095
0.000560851
0.000560613
0.000560381
0.000560157
0.000559939
0.000559728
0.000559523
0.000559322
0.000559125
0.00055893
0.000558735
0.000558539
0.000558338
0.000558129
0.000557911
0.00055768
0.000557435
0.000557174
0.000556897
0.000556601
0.000556288
0.000555954
0.000555606
0.000555238
0.000554858
0.000554459
0.000554049
0.000553621
0.000553179
0.000552718
0.000552242
0.000551745
0.000551233
0.000550701
0.000550156
0.000549597
0.00054903
0.000548452
0.000547871
0.000547282
0.00054669
0.000546094
0.000545496
0.0005449
0.000544305
0.000543715
0.000543126
0.000542541
0.000541952
0.000541365
0.000540771
0.00054018
0.000539586
0.000539002
0.000538423
0.00053787
0.000537334
0.000536861
0.000536446
0.000536086
0.000536088
0.000535185
0.000534614
0.00053678
0.000539624
0.000542656
0.000546162
0.000550287
0.000553264
0.00054062
0.000526902
0.00046795
0.000303156
0.000257651
0.000111159
0.000111489
0.000112157
0.000112896
0.00011364
0.000114339
0.000114895
0.000115243
0.00011542
0.000115508
0.000115499
0.000115425
0.000115278
0.000115065
0.000114798
0.000114477
0.000114126
0.000113753
0.000113361
0.000112962
0.000112569
0.000112192
0.000111842
0.000111537
0.000111296
0.000111151
0.000111133
0.000111273
0.000111607
0.000112167
0.000112999
0.000114135
0.000115613
0.000117437
0.000119615
0.000122156
0.000125066
0.000128353
0.000132021
0.000136089
0.000140594
0.000145604
0.000151152
0.000157283
0.000164041
0.000171487
0.000179346
0.000187415
0.00019569
0.000204168
0.000212847
0.000221725
0.000230798
0.00024006
0.000249499
0.000259099
0.000268836
0.000278664
0.000288543
0.000298445
0.000308326
0.000318057
0.000327628
0.000337032
0.000346263
0.000355316
0.000364184
0.000372858
0.00038133
0.000389595
0.000397648
0.000405486
0.000413106
0.000420504
0.00042768
0.000434632
0.00044136
0.000447861
0.000454135
0.000460182
0.000466008
0.000471615
0.000477007
0.000482184
0.00048715
0.000491904
0.00049645
0.000500785
0.000504916
0.00050884
0.000512566
0.000516097
0.00051945
0.000522632
0.000525575
0.000528297
0.000530824
0.000533168
0.000535344
0.000537362
0.000539222
0.000540933
0.000542505
0.000543949
0.000545276
0.000546496
0.000547616
0.000548642
0.000549579
0.000550432
0.000551206
0.000551906
0.000552537
0.000553101
0.000553605
0.000554054
0.000554447
0.000554789
0.000555089
0.000555351
0.000555579
0.000555777
0.000555949
0.000556095
0.00055622
0.000556323
0.000556407
0.000556474
0.000556526
0.000556564
0.000556593
0.000556613
0.000556626
0.000556635
0.00055664
0.000556644
0.000556648
0.000556653
0.000556659
0.000556669
0.000556682
0.0005567
0.000556723
0.000556752
0.000556789
0.000556833
0.000556887
0.00055695
0.000557024
0.000557107
0.000557202
0.000557307
0.000557424
0.000557553
0.000557694
0.000557849
0.000558018
0.000558201
0.000558399
0.000558614
0.000558845
0.000559093
0.000559359
0.000559643
0.000559946
0.000560269
0.000560612
0.000560977
0.000561364
0.000561776
0.000562214
0.000562677
0.000563169
0.000563689
0.00056424
0.00056482
0.000565432
0.000566074
0.000566747
0.00056745
0.000568182
0.000568942
0.000569729
0.000570543
0.000571381
0.000572243
0.000573128
0.000574035
0.000574963
0.000575911
0.000576878
0.000577863
0.000578867
0.000579888
0.000580925
0.000581977
0.000583044
0.000584125
0.000585219
0.000586325
0.000587443
0.000588573
0.000589712
0.000590861
0.000592016
0.000593178
0.000594344
0.000595511
0.000596676
0.000597838
0.000598994
0.000600139
0.000601273
0.000602391
0.000603492
0.000604573
0.000605632
0.000606667
0.000607675
0.000608655
0.000609603
0.00061052
0.000611403
0.000612252
0.000613065
0.000613843
0.000614586
0.000615293
0.000615964
0.0006166
0.000617202
0.000617774
0.000618316
0.000618831
0.00061932
0.000619787
0.000620233
0.000620659
0.000621069
0.000621462
0.000621841
0.000622206
0.000622559
0.000622902
0.000623234
0.000623556
0.000623871
0.000624177
0.000624475
0.000624764
0.000625042
0.00062531
0.000625563
0.000625801
0.000626021
0.00062622
0.000626397
0.000626549
0.000626676
0.000626779
0.000626859
0.000626918
0.000626958
0.000626982
0.000626991
0.000626989
0.000626978
0.000626959
0.000626934
0.000626903
0.000626868
0.000626827
0.00062678
0.000626727
0.000626668
0.000626603
0.000626532
0.000626454
0.000626371
0.000626283
0.000626191
0.000626098
0.000626005
0.000625916
0.000625834
0.000625761
0.0006257
0.000625654
0.000625623
0.000625609
0.000625613
0.000625635
0.000625675
0.000625732
0.000625806
0.000625896
0.000626
0.000626117
0.000626246
0.000626385
0.000626533
0.000626687
0.000626847
0.000627011
0.000627177
0.000627346
0.000627516
0.000627687
0.000627859
0.000628032
0.000628208
0.000628388
0.000628572
0.000628761
0.000628957
0.00062916
0.00062937
0.000629587
0.000629811
0.000630043
0.000630279
0.00063052
0.000630764
0.000631009
0.000631255
0.000631498
0.000631739
0.000631975
0.000632204
0.000632426
0.000632638
0.00063284
0.000633031
0.000633211
0.000633379
0.000633534
0.000633677
0.000633807
0.000633923
0.000634024
0.000634109
0.000634177
0.000634226
0.000634254
0.000634262
0.000634246
0.000634204
0.000634137
0.000634041
0.000633917
0.000633764
0.000633581
0.000633368
0.000633126
0.000632855
0.000632555
0.000632226
0.000631871
0.000631489
0.000631084
0.000630655
0.000630204
0.000629733
0.000629242
0.000628732
0.000628202
0.000627654
0.000627088
0.000626503
0.000625899
0.000625278
0.000624638
0.000623981
0.000623306
0.000622614
0.000621905
0.000621179
0.000620437
0.00061968
0.00061891
0.000618127
0.000617334
0.000616531
0.000615722
0.000614906
0.000614085
0.000613262
0.000612435
0.000611607
0.000610777
0.000609945
0.00060911
0.000608273
0.000607434
0.000606594
0.000605754
0.000604913
0.000604073
0.000603235
0.000602399
0.000601565
0.000600735
0.000599907
0.000599083
0.000598264
0.000597449
0.00059664
0.000595836
0.000595037
0.000594244
0.000593456
0.000592671
0.000591891
0.000591113
0.000590338
0.000589563
0.00058879
0.000588016
0.000587243
0.00058647
0.000585696
0.000584923
0.000584151
0.000583381
0.000582616
0.000581858
0.000581108
0.000580368
0.000579643
0.000578933
0.000578242
0.000577573
0.000576926
0.000576306
0.000575712
0.000575147
0.00057461
0.000574101
0.000573619
0.000573161
0.000572727
0.000572314
0.00057192
0.000571544
0.000571184
0.000570839
0.000570508
0.000570189
0.000569882
0.000569586
0.000569299
0.000569021
0.000568752
0.000568489
0.000568231
0.00056798
0.000567733
0.000567491
0.000567254
0.000567021
0.000566793
0.000566567
0.000566343
0.00056612
0.000565897
0.000565672
0.000565444
0.000565214
0.00056498
0.000564742
0.000564503
0.000564262
0.000564021
0.00056378
0.000563541
0.000563303
0.000563071
0.000562845
0.000562628
0.000562419
0.000562219
0.000562027
0.000561842
0.000561661
0.000561483
0.000561305
0.000561126
0.000560941
0.000560748
0.00056054
0.00056032
0.000560078
0.000559819
0.000559535
0.00055923
0.000558898
0.000558544
0.000558162
0.00055776
0.00055733
0.000556882
0.000556409
0.000555919
0.000555403
0.000554872
0.000554312
0.000553736
0.00055313
0.00055251
0.000551862
0.000551204
0.000550522
0.000549839
0.000549138
0.00054844
0.000547728
0.000547022
0.000546305
0.000545596
0.000544881
0.000544177
0.000543472
0.000542774
0.000542076
0.000541382
0.000540685
0.00053999
0.000539293
0.000538601
0.000537917
0.000537247
0.000536606
0.000536
0.000535471
0.000535042
0.000534707
0.000534761
0.00053446
0.000534387
0.000537046
0.000541022
0.000545541
0.000551076
0.000558331
0.000568936
0.000567707
0.000570573
0.000552574
0.000430034
0.000311029
0.000111158
0.000111466
0.000112081
0.000112731
0.000113349
0.000113911
0.000114353
0.000114694
0.000114902
0.000114954
0.000114876
0.000114721
0.000114491
0.000114212
0.000113886
0.000113517
0.000113108
0.000112667
0.000112196
0.000111697
0.000111172
0.000110625
0.00011006
0.000109482
0.000108897
0.00010831
0.000107729
0.000107163
0.000106622
0.000106115
0.00010565
0.000105236
0.000104883
0.000104601
0.000104397
0.00010428
0.000104261
0.00010435
0.000104569
0.000104933
0.00010544
0.000106093
0.000106902
0.000107883
0.000109056
0.000110444
0.000112056
0.000113893
0.000115959
0.000118261
0.000120804
0.000123598
0.000126654
0.000129985
0.000133607
0.000137534
0.00014178
0.000146368
0.000151312
0.00015662
0.000162296
0.000168306
0.00017464
0.000181285
0.000188228
0.000195455
0.000202844
0.000210307
0.000217839
0.000225436
0.000233093
0.000240806
0.000248568
0.000256374
0.000264215
0.00027208
0.000279957
0.000287831
0.000295687
0.000303509
0.000311277
0.000318976
0.000326588
0.000334096
0.000341487
0.000348749
0.000355871
0.000362847
0.000369667
0.000376326
0.000382817
0.000389143
0.000395323
0.000401349
0.000407182
0.000412806
0.000418218
0.000423413
0.000428389
0.000433134
0.000437651
0.000441963
0.000446085
0.000450027
0.000453798
0.000457406
0.000460841
0.000464102
0.000467192
0.000470118
0.000472884
0.000475499
0.000477971
0.000480307
0.000482516
0.000484599
0.000486573
0.000488449
0.000490233
0.000491933
0.000493556
0.00049511
0.000496599
0.000498027
0.000499397
0.000500711
0.000501972
0.000503183
0.000504346
0.000505466
0.000506544
0.000507585
0.000508592
0.000509567
0.000510514
0.000511434
0.000512331
0.000513207
0.000514063
0.0005149
0.000515722
0.000516528
0.000517321
0.000518103
0.000518874
0.000519637
0.000520393
0.000521142
0.000521887
0.000522629
0.000523369
0.000524107
0.000524846
0.000525587
0.000526331
0.000527081
0.000527837
0.000528601
0.000529375
0.00053016
0.000530957
0.000531766
0.000532589
0.000533427
0.000534281
0.000535152
0.000536043
0.000536955
0.00053789
0.000538852
0.000539841
0.00054086
0.000541912
0.000542997
0.000544117
0.000545273
0.000546466
0.000547696
0.000548962
0.000550262
0.000551596
0.000552961
0.000554357
0.000555779
0.000557228
0.0005587
0.000560194
0.000561708
0.000563241
0.000564792
0.000566358
0.000567938
0.000569532
0.000571138
0.000572754
0.000574378
0.00057601
0.000577649
0.000579293
0.000580942
0.000582595
0.000584251
0.00058591
0.00058757
0.000589229
0.000590886
0.000592538
0.000594182
0.000595815
0.000597434
0.000599036
0.000600617
0.000602175
0.000603706
0.000605208
0.000606679
0.000608116
0.000609516
0.000610879
0.0006122
0.000613478
0.000614712
0.0006159
0.000617041
0.000618135
0.000619183
0.000620185
0.000621143
0.000622057
0.00062293
0.000623764
0.000624561
0.000625324
0.000626056
0.000626758
0.000627434
0.000628085
0.000628713
0.000629322
0.000629912
0.000630485
0.000631044
0.000631591
0.000632127
0.000632654
0.000633171
0.000633682
0.000634184
0.000634677
0.00063516
0.000635632
0.00063609
0.000636532
0.000636954