/*--------------------------------*- C++ -*----------------------------------*\
| =========                 |                                                 |
| \\      /  F ield         | foam-extend: Open Source CFD                    |
|  \\    /   O peration     | Version:     3.2                                |
|   \\  /    A nd           | Web:         http://www.foam-extend.org         |
|    \\/     M anipulation  | For copyright notice see file Copyright         |
\*---------------------------------------------------------------------------*/
FoamFile
{
    version     2.0;
    format      ascii;
    class       volScalarField;
    location    "120";
    object      Ktemp;
}
// * * * * * * * * * * * * * * * * * * * * * * * * * * * * * * * * * * * * * //

dimensions      [0 2 -2 0 0 0 0];

internalField   nonuniform List<scalar> 
33000
(
0.000163516
0.000225634
0.000301014
0.000388903
0.000487115
0.000592238
0.00070027
0.000806743
0.00090778
0.000999818
0.00108059
0.00114855
0.00120339
0.00124528
0.00127512
0.00129403
0.00130349
0.00130497
0.00129999
0.00129031
0.00127695
0.00126076
0.00124251
0.00122284
0.00120232
0.00118144
0.0011606
0.00114018
0.00112046
0.00110144
0.00108316
0.00106568
0.00104904
0.00103326
0.00101835
0.00100428
0.000991051
0.000978624
0.000966971
0.00095606
0.000945856
0.000936321
0.000927414
0.000919097
0.00091133
0.000904076
0.000897304
0.000890982
0.000885082
0.000879573
0.000874429
0.000869623
0.000865128
0.00086092
0.000856974
0.000853265
0.000849772
0.000846476
0.00084336
0.000840408
0.000837605
0.000834939
0.000832399
0.000829975
0.000827658
0.000825437
0.000823305
0.000821254
0.000819276
0.000817366
0.000815516
0.00081372
0.000811974
0.000810271
0.000808608
0.000806981
0.000805384
0.000803815
0.000802273
0.000800755
0.000799264
0.000797797
0.000796353
0.000794931
0.000793531
0.000792151
0.000790791
0.00078945
0.000788127
0.000786821
0.000785532
0.000784256
0.000782989
0.000781731
0.000780482
0.00077924
0.000778008
0.000776785
0.00077557
0.000774366
0.000773171
0.000771983
0.000770798
0.000769613
0.000768426
0.000767233
0.000766032
0.000764822
0.000763601
0.000762367
0.00076112
0.00075986
0.000758585
0.000757296
0.000755994
0.000754679
0.000753348
0.000752002
0.000750643
0.000749271
0.000747886
0.000746489
0.000745081
0.000743662
0.000742233
0.000740795
0.000739349
0.000737896
0.000736439
0.000734977
0.000733512
0.000732045
0.000730575
0.000729105
0.000727634
0.000726163
0.000724692
0.000723223
0.000721755
0.00072029
0.000718828
0.000717369
0.000715915
0.000714465
0.00071302
0.000711581
0.000710147
0.000708721
0.000707301
0.000705889
0.000704484
0.000703089
0.000701702
0.000700325
0.000698959
0.000697604
0.000696261
0.000694931
0.000693615
0.000692312
0.000691024
0.000689751
0.000688492
0.000687249
0.000686022
0.000684812
0.000683618
0.000682442
0.000681283
0.000680143
0.00067902
0.000677916
0.000676831
0.000675765
0.000674718
0.000673691
0.000672682
0.000671693
0.000670723
0.000669772
0.000668839
0.000667926
0.000667031
0.000666154
0.000665296
0.000664457
0.000663635
0.000662832
0.000662046
0.000661278
0.000660529
0.000659797
0.000659083
0.000658387
0.000657709
0.000657049
0.000656406
0.000655782
0.000655175
0.000654587
0.000654016
0.000653463
0.000652928
0.00065241
0.000651909
0.000651426
0.000650959
0.000650507
0.000650071
0.00064965
0.000649242
0.000648847
0.000648465
0.000648094
0.000647733
0.000647382
0.00064704
0.000646706
0.00064638
0.000646059
0.000645744
0.000645434
0.000645128
0.000644826
0.000644526
0.000644228
0.000643928
0.000643625
0.000643316
0.000643001
0.00064268
0.000642354
0.000642023
0.000641688
0.000641349
0.000641007
0.000640663
0.000640315
0.000639965
0.000639615
0.000639266
0.000638918
0.000638572
0.00063823
0.000637892
0.000637554
0.000637216
0.000636879
0.000636542
0.000636204
0.000635865
0.000635524
0.000635181
0.000634835
0.000634486
0.000634132
0.000633775
0.000633412
0.000633044
0.000632672
0.000632296
0.000631915
0.000631529
0.000631139
0.000630745
0.000630346
0.000629944
0.000629538
0.000629129
0.000628718
0.000628303
0.000627887
0.000627468
0.000627048
0.000626627
0.000626206
0.000625784
0.000625363
0.000624941
0.00062452
0.000624099
0.000623678
0.000623259
0.000622842
0.000622427
0.000622016
0.000621608
0.000621204
0.000620805
0.00062041
0.000620021
0.000619637
0.000619259
0.000618887
0.000618522
0.000618163
0.000617811
0.000617466
0.000617129
0.000616798
0.000616473
0.000616155
0.000615842
0.000615534
0.000615232
0.000614933
0.000614638
0.000614347
0.00061406
0.000613777
0.000613497
0.000613222
0.000612952
0.000612685
0.000612423
0.000612166
0.000611913
0.000611664
0.000611419
0.000611178
0.000610941
0.000610708
0.00061048
0.000610256
0.000610036
0.000609821
0.00060961
0.000609403
0.0006092
0.000609001
0.000608805
0.000608613
0.000608423
0.000608237
0.000608053
0.000607872
0.000607694
0.000607517
0.000607343
0.000607169
0.000606997
0.000606825
0.000606653
0.00060648
0.000606306
0.00060613
0.00060595
0.000605767
0.00060558
0.000605387
0.000605188
0.000604982
0.000604769
0.000604548
0.00060432
0.000604083
0.000603839
0.000603587
0.000603328
0.000603061
0.000602788
0.000602507
0.00060222
0.000601926
0.000601624
0.000601316
0.000601001
0.000600678
0.000600349
0.000600013
0.00059967
0.000599321
0.000598964
0.0005986
0.000598229
0.00059785
0.000597462
0.000597066
0.000596662
0.000596249
0.000595828
0.000595399
0.000594962
0.000594518
0.000594066
0.000593607
0.000593142
0.000592671
0.000592193
0.00059171
0.000591221
0.000590727
0.000590229
0.000589726
0.000589221
0.000588712
0.000588201
0.000587686
0.00058717
0.000586651
0.000586129
0.000585606
0.000585081
0.000584554
0.000584027
0.000583499
0.00058297
0.000582441
0.000581911
0.000581382
0.000580852
0.000580322
0.000579791
0.00057926
0.000578728
0.000578194
0.000577659
0.000577123
0.000576585
0.000576045
0.000575504
0.000574961
0.000574416
0.000573871
0.000573324
0.000572776
0.000572227
0.000571679
0.00057113
0.000570582
0.000570036
0.000569491
0.000568949
0.00056841
0.000567875
0.000567345
0.000566819
0.000566298
0.000565782
0.000565273
0.000564769
0.000564273
0.000563783
0.000563301
0.000562827
0.000562361
0.000561903
0.000561453
0.000561011
0.000560576
0.000560148
0.000559726
0.00055931
0.0005589
0.000558496
0.000558098
0.000557705
0.000557318
0.000556937
0.000556561
0.00055619
0.000555824
0.000555461
0.000555102
0.000554744
0.000554389
0.000554036
0.000553684
0.000553335
0.000552989
0.000552644
0.000552302
0.000551963
0.000551625
0.00055129
0.000550957
0.000550627
0.0005503
0.000549977
0.000549657
0.00054934
0.000549027
0.000548717
0.00054841
0.000548105
0.000547803
0.000547503
0.000547205
0.000546906
0.000546608
0.000546309
0.000546009
0.000545707
0.000545403
0.000545097
0.000544789
0.000544478
0.000544167
0.000543853
0.00054354
0.000543224
0.000542909
0.000542591
0.000542272
0.000541947
0.00054162
0.000541285
0.000540945
0.000540597
0.000540244
0.000539881
0.000539514
0.000539139
0.000538759
0.00053837
0.000537978
0.000537577
0.000537174
0.000536763
0.000536351
0.000535931
0.000535508
0.000535073
0.000534632
0.000534172
0.000533698
0.000533194
0.000532669
0.000532084
0.000531461
0.000530715
0.000529887
0.000528816
0.00052757
0.000525841
0.00052377
0.000520671
0.000517043
0.000510225
0.00049929
0.000484379
0.000464957
0.000436293
0.000397614
0.000344893
0.000275636
0.000170999
8.17386e-05
0.000106868
0.000181426
0.000113447
0.000117238
0.000123457
0.00013128
0.000141755
0.000153913
0.000167321
0.000181604
0.000196858
0.000212514
0.000228643
0.000244428
0.000259773
0.000274374
0.000288401
0.000302009
0.000315487
0.000329431
0.000344214
0.00035994
0.000377065
0.000395331
0.000413202
0.000431156
0.000449629
0.000469016
0.000489625
0.00051088
0.000531529
0.000551563
0.000570904
0.000589478
0.000607238
0.000624136
0.000640136
0.000655213
0.000669361
0.000682587
0.000694909
0.00070635
0.000716948
0.000726743
0.000735783
0.000744112
0.000751787
0.000758856
0.000765423
0.000771514
0.000777155
0.000782366
0.000787165
0.000791563
0.000795575
0.000799213
0.000802493
0.000805432
0.000808047
0.000810363
0.000812411
0.000814203
0.000815761
0.000817097
0.000818223
0.00081915
0.000819891
0.000820458
0.000820863
0.000821117
0.000821232
0.000821219
0.000821089
0.000820851
0.000820516
0.000820091
0.000819584
0.000819001
0.000818348
0.000817629
0.000816847
0.000816008
0.000815116
0.000814176
0.000813192
0.000812168
0.000811107
0.000810017
0.000808898
0.000807757
0.000806595
0.000805416
0.000804216
0.000803002
0.000801765
0.000800508
0.000799225
0.00079791
0.00079656
0.00079517
0.000793737
0.000792255
0.000790727
0.000789151
0.000787528
0.000785858
0.000784143
0.000782383
0.00078058
0.000778736
0.000776853
0.000774936
0.000772986
0.000771006
0.000769002
0.000766975
0.000764929
0.00076287
0.000760801
0.000758721
0.000756637
0.000754552
0.000752469
0.000750389
0.000748314
0.000746247
0.000744188
0.000742141
0.000740107
0.000738089
0.00073609
0.00073411
0.000732154
0.000730221
0.000728313
0.000726432
0.000724577
0.00072275
0.000720952
0.000719182
0.00071744
0.000715728
0.000714046
0.000712393
0.000710771
0.00070918
0.00070762
0.000706091
0.000704593
0.000703125
0.000701688
0.000700281
0.000698903
0.000697555
0.000696235
0.000694944
0.000693681
0.000692446
0.000691239
0.00069006
0.000688909
0.000687786
0.000686691
0.000685623
0.000684582
0.000683568
0.000682581
0.00068162
0.000680686
0.000679778
0.000678896
0.000678041
0.000677213
0.000676411
0.000675636
0.000674889
0.000674169
0.000673476
0.00067281
0.000672171
0.000671558
0.00067097
0.000670408
0.000669871
0.000669358
0.000668869
0.000668403
0.00066796
0.00066754
0.000667141
0.000666764
0.000666408
0.000666073
0.000665758
0.000665465
0.000665191
0.000664938
0.000664705
0.000664491
0.000664296
0.000664121
0.000663964
0.000663825
0.000663704
0.0006636
0.000663513
0.000663441
0.000663385
0.000663342
0.000663311
0.000663291
0.000663281
0.000663278
0.00066328
0.000663287
0.000663295
0.000663305
0.000663314
0.00066332
0.000663323
0.000663319
0.000663309
0.00066329
0.000663262
0.000663222
0.000663171
0.000663108
0.00066303
0.000662909
0.000662752
0.000662566
0.000662355
0.000662126
0.000661882
0.000661626
0.000661361
0.00066109
0.000660814
0.000660534
0.000660252
0.000659968
0.000659683
0.000659396
0.000659107
0.000658819
0.00065853
0.00065824
0.000657953
0.000657666
0.00065738
0.000657095
0.000656811
0.000656526
0.000656241
0.000655954
0.000655664
0.000655368
0.000655065
0.000654754
0.000654434
0.000654106
0.00065377
0.000653427
0.000653079
0.000652727
0.00065237
0.00065201
0.000651646
0.00065128
0.00065091
0.000650539
0.000650165
0.000649789
0.00064941
0.00064903
0.000648647
0.000648262
0.000647877
0.000647492
0.000647106
0.00064672
0.000646334
0.000645948
0.000645563
0.000645181
0.000644803
0.000644429
0.000644062
0.000643703
0.000643352
0.000643009
0.000642676
0.000642353
0.000642039
0.000641734
0.000641438
0.000641152
0.000640875
0.000640608
0.000640351
0.000640104
0.000639864
0.000639633
0.000639409
0.00063919
0.000638976
0.000638765
0.000638558
0.000638352
0.000638149
0.000637946
0.000637746
0.000637549
0.000637355
0.000637166
0.000636982
0.000636804
0.000636632
0.000636465
0.000636304
0.000636149
0.000635998
0.000635852
0.000635711
0.000635573
0.00063544
0.00063531
0.000635184
0.00063506
0.000634939
0.00063482
0.000634702
0.000634583
0.000634464
0.000634344
0.000634223
0.000634101
0.000633978
0.000633853
0.000633724
0.000633592
0.000633456
0.000633314
0.000633167
0.000633015
0.000632855
0.000632688
0.000632512
0.000632326
0.000632129
0.000631921
0.000631701
0.000631467
0.00063122
0.000630958
0.000630681
0.000630389
0.000630081
0.000629759
0.000629423
0.000629074
0.000628713
0.000628342
0.000627962
0.000627572
0.000627172
0.000626762
0.000626342
0.000625912
0.000625472
0.000625021
0.000624562
0.000624093
0.000623616
0.000623131
0.000622637
0.000622134
0.000621623
0.000621101
0.000620571
0.000620031
0.000619482
0.000618926
0.000618364
0.000617796
0.000617223
0.000616647
0.000616068
0.000615486
0.000614902
0.000614316
0.000613727
0.000613136
0.000612543
0.000611948
0.000611351
0.000610755
0.000610159
0.000609564
0.000608971
0.000608379
0.000607787
0.000607197
0.000606606
0.000606015
0.000605425
0.000604836
0.000604249
0.000603665
0.000603083
0.000602505
0.000601929
0.000601357
0.000600788
0.00060022
0.000599654
0.00059909
0.000598526
0.000597962
0.000597398
0.000596833
0.000596268
0.000595703
0.000595137
0.00059457
0.000594005
0.000593441
0.000592879
0.000592319
0.000591764
0.000591214
0.000590669
0.000590132
0.000589602
0.000589083
0.000588574
0.000588077
0.000587592
0.000587119
0.000586658
0.000586208
0.000585768
0.000585338
0.000584918
0.000584506
0.000584104
0.000583712
0.000583329
0.000582956
0.000582592
0.000582236
0.000581888
0.000581546
0.000581209
0.000580877
0.000580547
0.000580221
0.000579897
0.000579577
0.000579261
0.000578949
0.000578642
0.00057834
0.000578042
0.000577747
0.000577453
0.000577159
0.000576865
0.000576569
0.000576272
0.000575975
0.000575679
0.000575384
0.000575091
0.000574798
0.000574507
0.000574216
0.000573928
0.000573642
0.000573361
0.000573084
0.000572813
0.000572545
0.000572284
0.000572025
0.000571773
0.000571521
0.000571276
0.00057103
0.000570787
0.000570539
0.000570292
0.000570034
0.000569774
0.000569499
0.000569221
0.000568924
0.000568622
0.0005683
0.000567975
0.000567629
0.000567285
0.000566919
0.00056656
0.000566177
0.000565803
0.0005654
0.000565005
0.000564576
0.000564157
0.000563699
0.000563255
0.000562772
0.000562313
0.000561813
0.000561344
0.00056083
0.000560353
0.000559827
0.000559343
0.00055881
0.000558329
0.000557797
0.000557324
0.000556794
0.000556323
0.000555785
0.000555305
0.000554751
0.000554263
0.000553697
0.000553201
0.000552621
0.000552134
0.000551533
0.000551067
0.000550411
0.000549879
0.000549189
0.000547447
0.000545784
0.000547013
0.000545885
0.000544709
0.000539896
0.000534862
0.000516613
0.00047792
0.000429829
0.000315937
0.000169334
0.000215114
0.000111329
0.000112028
0.000113248
0.000114705
0.000116287
0.000117906
0.000119604
0.000121309
0.000123131
0.000124876
0.000126709
0.000128472
0.000130101
0.000131625
0.0001331
0.000134555
0.00013609
0.000137732
0.000139558
0.000141614
0.000143976
0.000146727
0.000149897
0.000153533
0.000157697
0.000162487
0.000168032
0.000174409
0.000181693
0.000190003
0.000199444
0.000210114
0.000222101
0.000234495
0.000247156
0.000260054
0.000273153
0.000286416
0.000299801
0.000313269
0.000326781
0.000340273
0.000353734
0.000367141
0.000380491
0.000393764
0.000406722
0.000419368
0.000431703
0.000443727
0.000455435
0.00046682
0.000477872
0.000488574
0.00049891
0.000508862
0.000518411
0.000527545
0.000536261
0.000544561
0.000552452
0.000559981
0.000567153
0.000573977
0.000580467
0.000586636
0.000592499
0.000598068
0.000603355
0.000608368
0.000613117
0.000617608
0.000621847
0.000625836
0.000629584
0.000633095
0.000636375
0.00063943
0.000642269
0.000644898
0.000647329
0.000649569
0.00065163
0.000653521
0.000655252
0.000656827
0.000658258
0.000659547
0.000660704
0.000661729
0.000662634
0.000663419
0.00066409
0.00066465
0.000665122
0.000665506
0.000665771
0.000665884
0.000665863
0.000665722
0.000665475
0.000665126
0.000664681
0.000664147
0.000663529
0.000662836
0.000662073
0.000661248
0.000660366
0.000659434
0.000658456
0.000657438
0.000656385
0.000655301
0.00065419
0.000653059
0.000651908
0.00065074
0.00064956
0.000648372
0.000647181
0.000645988
0.000644795
0.000643606
0.00064242
0.00064124
0.000640066
0.000638901
0.000637746
0.000636605
0.000635478
0.000634367
0.000633274
0.000632199
0.000631145
0.000630111
0.000629098
0.000628108
0.000627139
0.000626193
0.000625269
0.000624369
0.000623493
0.00062264
0.000621813
0.000621009
0.000620231
0.000619478
0.000618749
0.000618045
0.000617364
0.000616708
0.000616076
0.000615467
0.000614881
0.000614319
0.00061378
0.000613264
0.000612773
0.000612305
0.000611861
0.000611441
0.000611045
0.000610674
0.000610326
0.000610002
0.000609703
0.000609428
0.000609179
0.000608956
0.000608759
0.000608588
0.000608445
0.000608329
0.000608242
0.000608183
0.000608153
0.000608151
0.000608176
0.00060823
0.00060831
0.000608416
0.000608548
0.000608705
0.000608885
0.00060909
0.000609317
0.000609567
0.000609838
0.00061013
0.000610443
0.000610776
0.00061113
0.000611503
0.000611895
0.000612306
0.000612736
0.000613183
0.000613647
0.000614128
0.000614625
0.000615138
0.000615665
0.000616206
0.00061676
0.000617325
0.0006179
0.000618483
0.000619072
0.000619664
0.000620258
0.00062085
0.00062144
0.000622024
0.0006226
0.000623168
0.000623723
0.000624266
0.000624792
0.000625302
0.000625793
0.000626263
0.000626711
0.000627137
0.000627539
0.000627918
0.00062827
0.000628593
0.000628888
0.000629153
0.000629393
0.000629607
0.000629799
0.000629972
0.000630126
0.000630263
0.000630387
0.000630498
0.000630598
0.000630687
0.000630766
0.000630837
0.000630899
0.000630954
0.000631001
0.000631043
0.000631079
0.000631111
0.000631137
0.000631158
0.000631173
0.000631181
0.000631181
0.00063117
0.000631147
0.00063111
0.000631057
0.000630988
0.000630901
0.000630798
0.00063068
0.000630548
0.000630404
0.00063025
0.000630086
0.000629915
0.000629737
0.000629553
0.000629365
0.000629172
0.000628974
0.000628773
0.000628566
0.000628356
0.00062814
0.000627921
0.000627698
0.000627471
0.000627241
0.000627008
0.000626774
0.000626539
0.000626306
0.000626076
0.000625852
0.000625635
0.000625428
0.000625232
0.000625048
0.000624876
0.000624718
0.000624574
0.000624443
0.000624326
0.000624221
0.000624129
0.000624049
0.00062398
0.000623922
0.000623874
0.000623833
0.0006238
0.000623771
0.000623748
0.000623728
0.00062371
0.000623694
0.000623679
0.000623666
0.000623655
0.000623646
0.00062364
0.000623638
0.000623642
0.000623651
0.000623667
0.000623689
0.000623719
0.000623754
0.000623796
0.000623843
0.000623895
0.000623951
0.00062401
0.000624072
0.000624135
0.000624198
0.000624262
0.000624324
0.000624383
0.000624438
0.00062449
0.000624536
0.000624577
0.000624613
0.000624643
0.000624667
0.000624684
0.000624693
0.000624692
0.000624682
0.000624662
0.000624629
0.000624584
0.000624524
0.000624449
0.000624356
0.000624245
0.000624114
0.000623963
0.000623791
0.000623597
0.000623381
0.000623142
0.000622881
0.000622597
0.000622291
0.000621964
0.000621618
0.000621253
0.00062087
0.000620472
0.000620057
0.000619628
0.000619184
0.000618725
0.000618251
0.000617763
0.00061726
0.000616743
0.000616212
0.000615667
0.000615108
0.000614536
0.000613951
0.000613352
0.000612739
0.000612114
0.000611475
0.000610826
0.000610165
0.000609496
0.000608818
0.000608134
0.000607445
0.000606752
0.000606055
0.000605355
0.000604654
0.00060395
0.000603244
0.000602535
0.000601825
0.000601113
0.0006004
0.000599687
0.000598975
0.000598264
0.000597554
0.000596846
0.000596139
0.000595434
0.000594731
0.00059403
0.000593331
0.000592636
0.000591944
0.000591257
0.000590574
0.000589895
0.000589221
0.00058855
0.000587882
0.000587217
0.000586553
0.000585891
0.00058523
0.00058457
0.000583909
0.000583248
0.000582588
0.000581927
0.000581267
0.000580609
0.000579954
0.000579303
0.000578658
0.000578021
0.000577392
0.000576775
0.00057617
0.00057558
0.000575007
0.000574451
0.000573914
0.000573397
0.000572901
0.000572424
0.000571965
0.000571525
0.0005711
0.000570691
0.000570296
0.000569915
0.000569546
0.00056919
0.000568846
0.000568513
0.000568191
0.000567878
0.000567574
0.000567277
0.000566986
0.000566701
0.000566421
0.000566146
0.000565874
0.000565607
0.000565345
0.000565087
0.000564833
0.000564584
0.000564336
0.000564091
0.000563845
0.000563599
0.000563352
0.000563103
0.000562852
0.0005626
0.000562348
0.000562095
0.000561843
0.000561592
0.000561342
0.000561095
0.000560851
0.000560613
0.000560382
0.000560157
0.00055994
0.000559729
0.000559524
0.000559323
0.000559126
0.000558931
0.000558737
0.00055854
0.00055834
0.00055813
0.000557912
0.000557681
0.000557437
0.000557175
0.000556898
0.000556601
0.000556288
0.000555955
0.000555606
0.000555239
0.000554858
0.000554459
0.000554049
0.00055362
0.000553179
0.000552718
0.000552242
0.000551745
0.000551232
0.0005507
0.000550156
0.000549596
0.000549029
0.000548452
0.000547871
0.000547282
0.00054669
0.000546094
0.000545496
0.000544901
0.000544305
0.000543716
0.000543126
0.000542542
0.000541953
0.000541365
0.000540772
0.000540181
0.000539586
0.000539002
0.000538423
0.00053787
0.000537334
0.00053686
0.000536445
0.000536085
0.000536087
0.000535184
0.000534613
0.000536779
0.000539623
0.000542655
0.00054616
0.000550286
0.000553263
0.000540619
0.000526901
0.000467949
0.000303155
0.000257651
0.000111159
0.000111489
0.000112157
0.000112896
0.00011364
0.000114339
0.000114895
0.000115243
0.00011542
0.000115508
0.000115499
0.000115425
0.000115278
0.000115065
0.000114798
0.000114477
0.000114126
0.000113753
0.000113361
0.000112962
0.000112569
0.000112192
0.000111842
0.000111537
0.000111296
0.000111151
0.000111133
0.000111272
0.000111606
0.000112167
0.000112999
0.000114135
0.000115613
0.000117437
0.000119615
0.000122156
0.000125066
0.000128353
0.000132021
0.000136089
0.000140594
0.000145604
0.000151152
0.000157283
0.000164041
0.000171487
0.000179346
0.000187414
0.000195689
0.000204168
0.000212847
0.000221725
0.000230798
0.00024006
0.000249499
0.000259099
0.000268837
0.000278664
0.000288544
0.000298445
0.000308326
0.000318057
0.000327628
0.000337032
0.000346262
0.000355315
0.000364183
0.000372857
0.00038133
0.000389595
0.000397648
0.000405486
0.000413106
0.000420504
0.00042768
0.000434632
0.00044136
0.000447861
0.000454135
0.000460182
0.000466008
0.000471615
0.000477007
0.000482184
0.00048715
0.000491904
0.00049645
0.000500785
0.000504916
0.00050884
0.000512566
0.000516097
0.00051945
0.000522632
0.000525575
0.000528297
0.000530824
0.000533168
0.000535345
0.000537362
0.000539222
0.000540933
0.000542505
0.000543949
0.000545276
0.000546496
0.000547615
0.000548641
0.000549578
0.000550431
0.000551206
0.000551905
0.000552536
0.0005531
0.000553605
0.000554054
0.000554447
0.000554789
0.000555089
0.000555351
0.00055558
0.000555778
0.000555949
0.000556096
0.00055622
0.000556323
0.000556407
0.000556474
0.000556526
0.000556565
0.000556593
0.000556613
0.000556626
0.000556635
0.000556641
0.000556645
0.000556648
0.000556653
0.000556659
0.000556669
0.000556682
0.000556699
0.000556722
0.000556752
0.000556788
0.000556833
0.000556887
0.00055695
0.000557023
0.000557107
0.000557201
0.000557307
0.000557424
0.000557552
0.000557694
0.000557848
0.000558017
0.0005582
0.000558399
0.000558613
0.000558844
0.000559093
0.000559359
0.000559643
0.000559945
0.000560268
0.000560611
0.000560976
0.000561364
0.000561776
0.000562213
0.000562677
0.000563169
0.000563689
0.00056424
0.00056482
0.000565432
0.000566075
0.000566748
0.00056745
0.000568182
0.000568943
0.00056973
0.000570543
0.000571382
0.000572244
0.000573129
0.000574035
0.000574963
0.000575911
0.000576877
0.000577863
0.000578867
0.000579887
0.000580924
0.000581977
0.000583043
0.000584124
0.000585218
0.000586325
0.000587443
0.000588572
0.000589712
0.00059086
0.000592017
0.000593178
0.000594344
0.000595511
0.000596677
0.000597839
0.000598994
0.00060014
0.000601273
0.000602391
0.000603492
0.000604573
0.000605632
0.000606667
0.000607675
0.000608655
0.000609603
0.00061052
0.000611402
0.00061225
0.000613063
0.000613842
0.000614584
0.000615291
0.000615962
0.000616598
0.0006172
0.000617772
0.000618314
0.000618829
0.000619318
0.000619785
0.000620231
0.000620658
0.000621068
0.000621462
0.00062184
0.000622206
0.00062256
0.000622903
0.000623235
0.000623558
0.000623873
0.00062418
0.000624478
0.000624767
0.000625046
0.000625313
0.000625567
0.000625805
0.000626025
0.000626224
0.0006264
0.000626552
0.000626679
0.000626782
0.000626862
0.00062692
0.00062696
0.000626984
0.000626993
0.000626991
0.000626979
0.00062696
0.000626935
0.000626905
0.000626869
0.000626828
0.000626781
0.000626728
0.000626669
0.000626604
0.000626532
0.000626454
0.000626371
0.000626282
0.00062619
0.000626097
0.000626004
0.000625915
0.000625833
0.00062576
0.0006257
0.000625653
0.000625622
0.000625609
0.000625613
0.000625635
0.000625675
0.000625733
0.000625807
0.000625896
0.000626
0.000626118
0.000626247
0.000626386
0.000626533
0.000626688
0.000626847
0.000627011
0.000627177
0.000627346
0.000627516
0.000627686
0.000627858
0.000628032
0.000628208
0.000628387
0.000628571
0.000628761
0.000628956
0.000629159
0.000629369
0.000629586
0.000629811
0.000630042
0.000630279
0.00063052
0.000630764
0.000631009
0.000631254
0.000631498
0.000631738
0.000631974
0.000632203
0.000632425
0.000632637
0.000632839
0.00063303
0.000633209
0.000633377
0.000633533
0.000633676
0.000633806
0.000633922
0.000634023
0.000634108
0.000634176
0.000634225
0.000634254
0.000634261
0.000634245
0.000634204
0.000634136
0.000634041
0.000633917
0.000633763
0.00063358
0.000633368
0.000633126
0.000632855
0.000632554
0.000632226
0.00063187
0.000631489
0.000631083
0.000630654
0.000630204
0.000629733
0.000629242
0.000628732
0.000628203
0.000627655
0.000627088
0.000626503
0.0006259
0.000625278
0.000624639
0.000623982
0.000623307
0.000622615
0.000621906
0.00062118
0.000620438
0.000619681
0.00061891
0.000618128
0.000617334
0.000616532
0.000615722
0.000614906
0.000614086
0.000613262
0.000612436
0.000611608
0.000610778
0.000609945
0.000609111
0.000608274
0.000607435
0.000606595
0.000605754
0.000604913
0.000604074
0.000603236
0.000602399
0.000601566
0.000600735
0.000599907
0.000599084
0.000598264
0.000597449
0.00059664
0.000595836
0.000595037
0.000594244
0.000593456
0.000592671
0.000591891
0.000591113
0.000590337
0.000589562
0.000588789
0.000588015
0.000587242
0.000586468
0.000585694
0.000584921
0.000584149
0.000583379
0.000582614
0.000581855
0.000581105
0.000580366
0.000579641
0.000578931
0.00057824
0.000577571
0.000576925
0.000576305
0.000575711
0.000575146
0.00057461
0.000574101
0.000573619
0.000573162
0.000572728
0.000572315
0.000571921
0.000571545
0.000571185
0.00057084
0.000570508
0.000570189
0.000569882
0.000569586
0.000569299
0.000569022
0.000568752
0.000568489
0.000568231
0.00056798
0.000567733
0.000567491
0.000567254
0.000567021
0.000566793
0.000566567
0.000566343
0.00056612
0.000565897
0.000565671
0.000565444
0.000565213
0.000564979
0.000564742
0.000564502
0.000564262
0.00056402
0.000563779
0.00056354
0.000563303
0.000563071
0.000562845
0.000562628
0.000562419
0.00056222
0.000562028
0.000561843
0.000561662
0.000561485
0.000561307
0.000561128
0.000560943
0.000560749
0.000560542
0.000560321
0.00056008
0.000559821
0.000559536
0.000559231
0.000558899
0.000558545
0.000558162
0.00055776
0.00055733
0.000556882
0.000556408
0.000555919
0.000555403
0.000554871
0.000554311
0.000553735
0.00055313
0.000552509
0.000551861
0.000551203
0.000550521
0.000549838
0.000549137
0.000548439
0.000547728
0.000547022
0.000546305
0.000545596
0.000544882
0.000544178
0.000543472
0.000542775
0.000542077
0.000541383
0.000540686
0.000539991
0.000539293
0.000538601
0.000537917
0.000537247
0.000536606
0.000536
0.000535471
0.000535041
0.000534706
0.000534759
0.000534458
0.000534386
0.000537044
0.00054102
0.000545539
0.000551074
0.00055833
0.000568935
0.000567706
0.000570572
0.000552574
0.000430033
0.000311029
0.000111158
0.000111466
0.000112081
0.000112731
0.000113349
0.000113911
0.000114353
0.000114694
0.000114902
0.000114954
0.000114876
0.000114721
0.000114491
0.000114212
0.000113886
0.000113517
0.000113108
0.000112667
0.000112196
0.000111697
0.000111172
0.000110625
0.00011006
0.000109482
0.000108897
0.00010831
0.000107729
0.000107163
0.000106622
0.000106115
0.00010565
0.000105236
0.000104883
0.000104601
0.000104397
0.00010428
0.000104261
0.00010435
0.000104569
0.000104933
0.00010544
0.000106093
0.000106902
0.000107883
0.000109056
0.000110444
0.000112056
0.000113893
0.000115959
0.000118261
0.000120804
0.000123598
0.000126654
0.000129985
0.000133607
0.000137534
0.00014178
0.000146368
0.000151312
0.00015662
0.000162296
0.000168307
0.00017464
0.000181285
0.000188228
0.000195455
0.000202844
0.000210307
0.000217839
0.000225436
0.000233093
0.000240806
0.000248569
0.000256374
0.000264215
0.00027208
0.000279958
0.000287832
0.000295688
0.00030351
0.000311278
0.000318977
0.000326589
0.000334097
0.000341488
0.00034875
0.000355872
0.000362848
0.000369668
0.000376327
0.000382818
0.000389144
0.000395325
0.00040135
0.000407183
0.000412808
0.00041822
0.000423414
0.00042839
0.000433136
0.000437653
0.000441964
0.000446086
0.000450027
0.000453799
0.000457406
0.000460841
0.000464102
0.000467192
0.000470117
0.000472883
0.000475499
0.00047797
0.000480306
0.000482515
0.000484599
0.000486572
0.000488448
0.000490232
0.000491933
0.000493556
0.00049511
0.000496599
0.000498027
0.000499398
0.000500712
0.000501973
0.000503183
0.000504347
0.000505466
0.000506545
0.000507586
0.000508593
0.000509568
0.000510514
0.000511435
0.000512332
0.000513207
0.000514063
0.000514901
0.000515722
0.000516528
0.000517322
0.000518103
0.000518874
0.000519637
0.000520392
0.000521142
0.000521887
0.000522629
0.000523368
0.000524106
0.000524845
0.000525586
0.00052633
0.00052708
0.000527836
0.0005286
0.000529374
0.000530159
0.000530956
0.000531765
0.000532588
0.000533426
0.00053428
0.000535151
0.000536042
0.000536954
0.000537889
0.000538851
0.00053984
0.00054086
0.000541911
0.000542996
0.000544117
0.000545273
0.000546467
0.000547697
0.000548962
0.000550263
0.000551597
0.000552962
0.000554357
0.00055578
0.000557228
0.000558701
0.000560195
0.000561709
0.000563241
0.000564791
0.000566357
0.000567938
0.000569532
0.000571137
0.000572753
0.000574377
0.00057601
0.000577648
0.000579292
0.000580941
0.000582594
0.000584251
0.00058591
0.00058757
0.000589229
0.000590886
0.000592538
0.000594183
0.000595816
0.000597435
0.000599037
0.000600619
0.000602176
0.000603707
0.000605209
0.00060668
0.000608116
0.000609517
0.000610879
0.0006122
0.000613478
0.000614711
0.000615899
0.00061704
0.000618134
0.000619181
0.000620183
0.000621141
0.000622055
0.000622927
0.000623761
0.000624558
0.000625321
0.000626053
0.000626756
0.000627432
0.000628083
0.000628712
0.00062932
0.000629911
0.000630484
0.000631044
0.000631591
0.000632128
0.000632655
0.000633174
0.000633684
0.000634187
0.00063468
0.000635164
0.000635636
0.000636094
0.000636536
0.000636959