/*--------------------------------*- C++ -*----------------------------------*\
| =========                 |                                                 |
| \\      /  F ield         | foam-extend: Open Source CFD                    |
|  \\    /   O peration     | Version:     3.2                                |
|   \\  /    A nd           | Web:         http://www.foam-extend.org         |
|    \\/     M anipulation  | For copyright notice see file Copyright         |
\*---------------------------------------------------------------------------*/
FoamFile
{
    version     2.0;
    format      ascii;
    class       tetPointVectorField;
    location    "120";
    object      motionU;
}
// * * * * * * * * * * * * * * * * * * * * * * * * * * * * * * * * * * * * * //

dimensions      [0 1 -1 0 0 0 0];

internalField   nonuniform List<vector> 
232832
(
(0 0 0)
(0 0 0)
(0 0 0)
(0 0 0)
(0 0 0)
(0 0 0)
(0 0 0)
(0 0 0)
(0 0 0)
(0 0 0)
(0 0 0)
(0 0 0)
(0 0 0)
(0 0 0)
(0 0 0)
(0 0 0)
(0 0 0)
(0 0 0)
(0 0 0)
(0 0 0)
(0 0 0)
(0 0 0)
(0 0 0)
(0 0 0)
(0 0 0)
(0 0 0)
(0 0 0)
(0 0 0)
(0 0 0)
(0 0 0)
(0 0 0)
(0 0 0)
(0 0 0)
(0 0 0)
(0 0 0)
(0 0 0)
(0 0 0)
(0 0 0)
(0 0 0)
(0 0 0)
(0 0 0)
(0 0 0)
(0 0 0)
(0 0 0)
(0 0 0)
(0 0 0)
(0 0 0)
(0 0 0)
(0 0 0)
(0 0 0)
(0 0 0)
(0 0 0)
(0 0 0)
(0 0 0)
(0 0 0)
(0 0 0)
(0 0 0)
(0 0 0)
(0 0 0)
(0 0 0)
(0 0 0)
(0 0 0)
(0 0 0)
(0 0 0)
(0 0 0)
(0 0 0)
(0 0 0)
(0 0 0)
(0 0 0)
(0 0 0)
(0 0 0)
(0 0 0)
(0 0 0)
(0 0 0)
(0 0 0)
(0 0 0)
(0 0 0)
(0 0 0)
(0 0 0)
(0 0 0)
(0 0 0)
(0 0 0)
(0 0 0)
(0 0 0)
(0 0 0)
(0 0 0)
(0 0 0)
(0 0 0)
(0 0 0)
(0 0 0)
(0 0 0)
(0 0 0)
(0 0 0)
(0 0 0)
(0 0 0)
(0 0 0)
(0 0 0)
(0 0 0)
(0 0 0)
(0 0 0)
(0 0 0)
(0 0 0)
(0 0 0)
(0 0 0)
(0 0 0)
(0 0 0)
(0 0 0)
(0 0 0)
(0 0 0)
(0 0 0)
(0 0 0)
(0 0 0)
(0 0 0)
(0 0 0)
(0 0 0)
(0 0 0)
(0 0 0)
(0 0 0)
(0 0 0)
(0 0 0)
(0 0 0)
(0 0 0)
(0 0 0)
(0 0 0)
(0 0 0)
(0 0 0)
(0 0 0)
(0 0 0)
(0 0 0)
(0 0 0)
(0 0 -6.52213e-09)
(0 0 2.35521e-08)
(0 0 7.94204e-08)
(0 0 1.21994e-07)
(0 0 1.68767e-07)
(0 0 2.16039e-07)
(0 0 2.63603e-07)
(0 0 3.10994e-07)
(0 0 3.58036e-07)
(0 0 4.04618e-07)
(0 0 4.50673e-07)
(0 0 4.96158e-07)
(0 0 5.41044e-07)
(0 0 5.85309e-07)
(0 0 6.28942e-07)
(0 0 6.71936e-07)
(0 0 7.14292e-07)
(0 0 7.56002e-07)
(0 0 7.97042e-07)
(0 0 8.37429e-07)
(0 0 8.77199e-07)
(0 0 9.16348e-07)
(0 0 9.54865e-07)
(0 0 9.92741e-07)
(0 0 1.02993e-06)
(0 0 1.06642e-06)
(0 0 1.10217e-06)
(0 0 1.13717e-06)
(0 0 1.17136e-06)
(0 0 1.20473e-06)
(0 0 1.23865e-06)
(0 0 1.27407e-06)
(0 0 1.30843e-06)
(0 0 1.34056e-06)
(0 0 1.37169e-06)
(0 0 1.40205e-06)
(0 0 1.43166e-06)
(0 0 1.46052e-06)
(0 0 1.48866e-06)
(0 0 1.51609e-06)
(0 0 1.54287e-06)
(0 0 1.569e-06)
(0 0 1.59448e-06)
(0 0 1.61933e-06)
(0 0 1.64358e-06)
(0 0 1.66723e-06)
(0 0 1.69027e-06)
(0 0 1.71269e-06)
(0 0 1.73448e-06)
(0 0 1.75564e-06)
(0 0 1.77617e-06)
(0 0 1.79607e-06)
(0 0 1.81536e-06)
(0 0 1.83405e-06)
(0 0 1.85214e-06)
(0 0 1.86965e-06)
(0 0 1.88659e-06)
(0 0 1.90299e-06)
(0 0 1.91885e-06)
(0 0 1.93419e-06)
(0 0 1.94901e-06)
(0 0 1.96332e-06)
(0 0 1.97714e-06)
(0 0 1.99049e-06)
(0 0 2.00339e-06)
(0 0 2.01585e-06)
(0 0 2.02789e-06)
(0 0 2.03951e-06)
(0 0 2.05072e-06)
(0 0 2.06152e-06)
(0 0 2.0719e-06)
(0 0 2.08187e-06)
(0 0 2.09148e-06)
(0 0 2.1007e-06)
(0 0 2.10959e-06)
(0 0 2.11815e-06)
(0 0 2.12641e-06)
(0 0 2.13443e-06)
(0 0 2.14221e-06)
(0 0 2.14977e-06)
(0 0 2.15711e-06)
(0 0 2.16425e-06)
(0 0 2.17119e-06)
(0 0 2.17798e-06)
(0 0 2.18465e-06)
(0 0 2.19123e-06)
(0 0 2.19775e-06)
(0 0 2.20424e-06)
(0 0 2.21071e-06)
(0 0 2.21716e-06)
(0 0 2.22359e-06)
(0 0 2.23001e-06)
(0 0 2.23648e-06)
(0 0 2.24305e-06)
(0 0 2.24988e-06)
(0 0 2.25708e-06)
(0 0 2.26476e-06)
(0 0 2.273e-06)
(0 0 2.28176e-06)
(0 0 2.2909e-06)
(0 0 2.30032e-06)
(0 0 2.30993e-06)
(0 0 2.31966e-06)
(0 0 2.32946e-06)
(0 0 2.33931e-06)
(0 0 2.34921e-06)
(0 0 2.35913e-06)
(0 0 2.36907e-06)
(0 0 2.37904e-06)
(0 0 2.38902e-06)
(0 0 2.399e-06)
(0 0 2.40896e-06)
(0 0 2.4189e-06)
(0 0 2.42878e-06)
(0 0 2.43861e-06)
(0 0 2.44837e-06)
(0 0 2.45806e-06)
(0 0 2.46767e-06)
(0 0 2.47719e-06)
(0 0 2.48663e-06)
(0 0 2.49597e-06)
(0 0 2.50519e-06)
(0 0 2.51428e-06)
(0 0 2.52325e-06)
(0 0 2.5321e-06)
(0 0 2.54082e-06)
(0 0 2.54941e-06)
(0 0 2.55788e-06)
(0 0 2.56622e-06)
(0 0 2.57442e-06)
(0 0 2.58251e-06)
(0 0 2.59046e-06)
(0 0 2.59829e-06)
(0 0 2.60598e-06)
(0 0 2.61353e-06)
(0 0 2.62096e-06)
(0 0 2.62827e-06)
(0 0 2.63546e-06)
(0 0 2.64254e-06)
(0 0 2.64951e-06)
(0 0 2.65637e-06)
(0 0 2.66311e-06)
(0 0 2.66971e-06)
(0 0 2.67616e-06)
(0 0 2.68247e-06)
(0 0 2.68863e-06)
(0 0 2.69463e-06)
(0 0 2.70043e-06)
(0 0 2.70603e-06)
(0 0 2.71141e-06)
(0 0 2.71658e-06)
(0 0 2.72153e-06)
(0 0 2.72627e-06)
(0 0 2.7308e-06)
(0 0 2.73513e-06)
(0 0 2.73926e-06)
(0 0 2.74316e-06)
(0 0 2.74684e-06)
(0 0 2.75026e-06)
(0 0 2.75344e-06)
(0 0 2.75636e-06)
(0 0 2.75902e-06)
(0 0 2.76139e-06)
(0 0 2.76346e-06)
(0 0 2.76527e-06)
(0 0 2.76687e-06)
(0 0 2.76828e-06)
(0 0 2.7695e-06)
(0 0 2.77052e-06)
(0 0 2.77132e-06)
(0 0 2.77199e-06)
(0 0 2.77257e-06)
(0 0 2.77291e-06)
(0 0 2.77298e-06)
(0 0 2.7729e-06)
(0 0 2.77282e-06)
(0 0 2.7728e-06)
(0 0 2.77282e-06)
(0 0 2.77289e-06)
(0 0 2.77304e-06)
(0 0 2.77329e-06)
(0 0 2.77359e-06)
(0 0 2.77391e-06)
(0 0 2.77431e-06)
(0 0 2.7749e-06)
(0 0 2.77569e-06)
(0 0 2.77826e-06)
(0 0 2.78497e-06)
(0 0 2.79315e-06)
(0 0 2.79837e-06)
(0 0 2.80153e-06)
(0 0 2.80448e-06)
(0 0 2.80722e-06)
(0 0 2.80975e-06)
(0 0 2.81211e-06)
(0 0 2.81432e-06)
(0 0 2.8164e-06)
(0 0 2.81838e-06)
(0 0 2.82023e-06)
(0 0 2.82194e-06)
(0 0 2.82347e-06)
(0 0 2.82481e-06)
(0 0 2.82594e-06)
(0 0 2.82686e-06)
(0 0 2.82762e-06)
(0 0 2.82823e-06)
(0 0 2.82872e-06)
(0 0 2.82911e-06)
(0 0 2.82943e-06)
(0 0 2.83257e-06)
(0 0 2.8413e-06)
(0 0 2.85082e-06)
(0 0 2.85764e-06)
(0 0 2.86395e-06)
(0 0 2.87076e-06)
(0 0 2.87802e-06)
(0 0 2.88559e-06)
(0 0 2.89334e-06)
(0 0 2.9013e-06)
(0 0 2.90957e-06)
(0 0 2.91813e-06)
(0 0 2.92692e-06)
(0 0 2.93593e-06)
(0 0 2.9452e-06)
(0 0 2.95474e-06)
(0 0 2.96448e-06)
(0 0 2.97438e-06)
(0 0 2.98445e-06)
(0 0 2.99469e-06)
(0 0 3.0051e-06)
(0 0 3.01568e-06)
(0 0 3.02642e-06)
(0 0 3.03729e-06)
(0 0 3.0483e-06)
(0 0 3.05942e-06)
(0 0 3.07068e-06)
(0 0 3.08206e-06)
(0 0 3.09357e-06)
(0 0 3.10518e-06)
(0 0 3.11687e-06)
(0 0 3.12863e-06)
(0 0 3.14043e-06)
(0 0 3.15225e-06)
(0 0 3.16406e-06)
(0 0 3.17584e-06)
(0 0 3.18756e-06)
(0 0 3.19922e-06)
(0 0 3.2108e-06)
(0 0 3.22228e-06)
(0 0 3.23366e-06)
(0 0 3.24493e-06)
(0 0 3.2561e-06)
(0 0 3.26713e-06)
(0 0 3.27804e-06)
(0 0 3.2888e-06)
(0 0 3.29941e-06)
(0 0 3.30984e-06)
(0 0 3.32008e-06)
(0 0 3.3301e-06)
(0 0 3.33989e-06)
(0 0 3.34947e-06)
(0 0 3.35884e-06)
(0 0 3.36803e-06)
(0 0 3.37706e-06)
(0 0 3.38596e-06)
(0 0 3.39475e-06)
(0 0 3.40346e-06)
(0 0 3.41209e-06)
(0 0 3.42063e-06)
(0 0 3.42908e-06)
(0 0 3.43744e-06)
(0 0 3.44572e-06)
(0 0 3.45392e-06)
(0 0 3.46206e-06)
(0 0 3.47014e-06)
(0 0 3.47816e-06)
(0 0 3.48611e-06)
(0 0 3.49402e-06)
(0 0 3.5019e-06)
(0 0 3.50974e-06)
(0 0 3.51753e-06)
(0 0 3.52529e-06)
(0 0 3.53298e-06)
(0 0 3.5406e-06)
(0 0 3.54813e-06)
(0 0 3.55556e-06)
(0 0 3.56287e-06)
(0 0 3.57008e-06)
(0 0 3.57716e-06)
(0 0 3.58414e-06)
(0 0 3.59101e-06)
(0 0 3.59774e-06)
(0 0 3.60435e-06)
(0 0 3.61085e-06)
(0 0 3.61724e-06)
(0 0 3.6235e-06)
(0 0 3.62965e-06)
(0 0 3.6357e-06)
(0 0 3.64166e-06)
(0 0 3.64754e-06)
(0 0 3.65341e-06)
(0 0 3.65926e-06)
(0 0 3.66506e-06)
(0 0 3.67079e-06)
(0 0 3.67643e-06)
(0 0 3.68207e-06)
(0 0 3.68772e-06)
(0 0 3.69332e-06)
(0 0 3.69883e-06)
(0 0 3.7043e-06)
(0 0 3.7097e-06)
(0 0 3.71505e-06)
(0 0 3.7204e-06)
(0 0 3.72581e-06)
(0 0 3.73125e-06)
(0 0 3.73668e-06)
(0 0 3.74214e-06)
(0 0 3.74766e-06)
(0 0 3.7533e-06)
(0 0 3.75905e-06)
(0 0 3.76492e-06)
(0 0 3.77091e-06)
(0 0 3.77701e-06)
(0 0 3.78318e-06)
(0 0 3.78938e-06)
(0 0 3.7956e-06)
(0 0 3.80187e-06)
(0 0 3.80821e-06)
(0 0 3.81459e-06)
(0 0 3.82098e-06)
(0 0 3.82736e-06)
(0 0 3.83375e-06)
(0 0 3.8401e-06)
(0 0 3.84642e-06)
(0 0 3.8527e-06)
(0 0 3.85896e-06)
(0 0 3.86521e-06)
(0 0 3.87148e-06)
(0 0 3.87781e-06)
(0 0 3.88422e-06)
(0 0 3.89074e-06)
(0 0 3.89743e-06)
(0 0 3.90431e-06)
(0 0 3.91138e-06)
(0 0 3.91864e-06)
(0 0 3.92609e-06)
(0 0 3.93373e-06)
(0 0 3.94155e-06)
(0 0 3.94951e-06)
(0 0 3.95758e-06)
(0 0 3.96575e-06)
(0 0 3.97395e-06)
(0 0 3.98214e-06)
(0 0 3.99038e-06)
(0 0 3.99864e-06)
(0 0 4.0069e-06)
(0 0 4.01528e-06)
(0 0 4.02381e-06)
(0 0 4.03239e-06)
(0 0 4.04098e-06)
(0 0 4.04957e-06)
(0 0 4.05818e-06)
(0 0 4.06685e-06)
(0 0 4.07561e-06)
(0 0 4.08453e-06)
(0 0 4.09367e-06)
(0 0 4.10305e-06)
(0 0 4.11267e-06)
(0 0 4.12254e-06)
(0 0 4.13266e-06)
(0 0 4.143e-06)
(0 0 4.15357e-06)
(0 0 4.16435e-06)
(0 0 4.17531e-06)
(0 0 4.18642e-06)
(0 0 4.19759e-06)
(0 0 4.20876e-06)
(0 0 4.21985e-06)
(0 0 4.23082e-06)
(0 0 4.24165e-06)
(0 0 4.25237e-06)
(0 0 4.263e-06)
(0 0 4.27356e-06)
(0 0 4.28406e-06)
(0 0 4.29451e-06)
(0 0 4.30491e-06)
(0 0 4.31528e-06)
(0 0 4.32561e-06)
(0 0 4.33597e-06)
(0 0 4.3464e-06)
(0 0 4.35701e-06)
(0 0 4.3679e-06)
(0 0 4.37921e-06)
(0 0 4.39107e-06)
(0 0 4.40366e-06)
(0 0 4.41734e-06)
(0 0 4.43239e-06)
(0 0 4.44967e-06)
(0 0 4.47011e-06)
(0 0 4.49534e-06)
(0 0 4.52758e-06)
(0 0 4.5703e-06)
(0 0 4.62778e-06)
(0 0 4.70688e-06)
(0 0 4.8163e-06)
(0 0 4.96314e-06)
(0 0 5.17404e-06)
(0 0 5.26684e-06)
(0 0 5.54005e-06)
(0 0 2.92382e-06)
(0 0 0)
(0 0 0)
(0 0 0)
(0 0 0)
(0 0 0)
(0 0 0)
(0 0 0)
(0 0 0)
(0 0 0)
(0 0 0)
(0 0 0)
(0 0 0)
(0 0 0)
(0 0 0)
(0 0 0)
(0 0 0)
(0 0 0)
(0 0 0)
(0 0 0)
(0 0 0)
(0 0 0)
(0 0 0)
(0 0 0)
(0 0 0)
(0 0 0)
(0 0 0)
(0 0 0)
(0 0 0)
(0 0 0)
(0 0 0)
(0 0 0)
(0 0 0)
(0 0 0)
(0 0 0)
(0 0 0)
(0 0 0)
(0 0 0)
(0 0 0)
(0 0 0)
(0 0 0)
(0 0 0)
(0 0 0)
(0 0 0)
(0 0 0)
(0 0 0)
(0 0 0)
(0 0 0)
(0 0 0)
(0 0 0)
(0 0 0)
(0 0 0)
(0 0 0)
(0 0 0)
(0 0 0)
(0 0 0)
(0 0 0)
(0 0 0)
(0 0 0)
(0 0 0)
(0 0 0)
(0 0 0)
(0 0 0)
(0 0 0)
(0 0 0)
(0 0 0)
(0 0 0)
(0 0 0)
(0 0 0)
(0 0 0)
(0 0 0)
(0 0 0)
(0 0 0)
(0 0 0)
(0 0 0)
(0 0 0)
(0 0 0)
(0 0 0)
(0 0 0)
(0 0 0)
(0 0 0)
(0 0 0)
(0 0 0)
(0 0 0)
(0 0 0)
(0 0 0)
(0 0 0)
(0 0 0)
(0 0 0)
(0 0 0)
(0 0 0)
(0 0 0)
(0 0 0)
(0 0 0)
(0 0 0)
(0 0 0)
(0 0 0)
(0 0 0)
(0 0 0)
(0 0 0)
(0 0 0)
(0 0 0)
(0 0 0)
(0 0 0)
(0 0 0)
(0 0 0)
(0 0 0)
(0 0 0)
(0 0 0)
(0 0 0)
(0 0 0)
(0 0 0)
(0 0 0)
(0 0 0)
(0 0 0)
(0 0 0)
(0 0 0)
(0 0 0)
(0 0 0)
(0 0 0)
(0 0 0)
(0 0 0)
(0 0 0)
(0 0 0)
(0 0 0)
(0 0 0)
(0 0 0)
(0 0 0)
(0 0 0)
(0 0 0)
(0 0 0)
(0 0 0)
(0 0 0)
(0 0 0)
(0 0 0)
(0 0 0)
(0 0 0)
(0 0 0)
(0 0 0)
(0 0 0)
(0 0 0)
(0 0 0)
(0 0 -6.52213e-09)
(0 0 2.35521e-08)
(0 0 7.94204e-08)
(0 0 1.21994e-07)
(0 0 1.68767e-07)
(0 0 2.16039e-07)
(0 0 2.63603e-07)
(0 0 3.10994e-07)
(0 0 3.58036e-07)
(0 0 4.04618e-07)
(0 0 4.50673e-07)
(0 0 4.96158e-07)
(0 0 5.41044e-07)
(0 0 5.85309e-07)
(0 0 6.28942e-07)
(0 0 6.71936e-07)
(0 0 7.14292e-07)
(0 0 7.56002e-07)
(0 0 7.97042e-07)
(0 0 8.37429e-07)
(0 0 8.77199e-07)
(0 0 9.16348e-07)
(0 0 9.54865e-07)
(0 0 9.92741e-07)
(0 0 1.02993e-06)
(0 0 1.06642e-06)
(0 0 1.10217e-06)
(0 0 1.13717e-06)
(0 0 1.17136e-06)
(0 0 1.20473e-06)
(0 0 1.23865e-06)
(0 0 1.27407e-06)
(0 0 1.30843e-06)
(0 0 1.34056e-06)
(0 0 1.37169e-06)
(0 0 1.40205e-06)
(0 0 1.43166e-06)
(0 0 1.46052e-06)
(0 0 1.48866e-06)
(0 0 1.51609e-06)
(0 0 1.54287e-06)
(0 0 1.569e-06)
(0 0 1.59448e-06)
(0 0 1.61933e-06)
(0 0 1.64358e-06)
(0 0 1.66723e-06)
(0 0 1.69027e-06)
(0 0 1.71269e-06)
(0 0 1.73448e-06)
(0 0 1.75564e-06)
(0 0 1.77617e-06)
(0 0 1.79607e-06)
(0 0 1.81536e-06)
(0 0 1.83405e-06)
(0 0 1.85214e-06)
(0 0 1.86965e-06)
(0 0 1.88659e-06)
(0 0 1.90299e-06)
(0 0 1.91885e-06)
(0 0 1.93419e-06)
(0 0 1.94901e-06)
(0 0 1.96332e-06)
(0 0 1.97714e-06)
(0 0 1.99049e-06)
(0 0 2.00339e-06)
(0 0 2.01585e-06)
(0 0 2.02789e-06)
(0 0 2.03951e-06)
(0 0 2.05072e-06)
(0 0 2.06152e-06)
(0 0 2.0719e-06)
(0 0 2.08187e-06)
(0 0 2.09148e-06)
(0 0 2.1007e-06)
(0 0 2.10959e-06)
(0 0 2.11815e-06)
(0 0 2.12641e-06)
(0 0 2.13443e-06)
(0 0 2.14221e-06)
(0 0 2.14977e-06)
(0 0 2.15711e-06)
(0 0 2.16425e-06)
(0 0 2.17119e-06)
(0 0 2.17798e-06)
(0 0 2.18465e-06)
(0 0 2.19123e-06)
(0 0 2.19775e-06)
(0 0 2.20424e-06)
(0 0 2.21071e-06)
(0 0 2.21716e-06)
(0 0 2.22359e-06)
(0 0 2.23001e-06)
(0 0 2.23648e-06)
(0 0 2.24305e-06)
(0 0 2.24988e-06)
(0 0 2.25708e-06)
(0 0 2.26476e-06)
(0 0 2.273e-06)
(0 0 2.28176e-06)
(0 0 2.2909e-06)
(0 0 2.30032e-06)
(0 0 2.30993e-06)
(0 0 2.31966e-06)
(0 0 2.32946e-06)
(0 0 2.33931e-06)
(0 0 2.34921e-06)
(0 0 2.35913e-06)
(0 0 2.36907e-06)
(0 0 2.37904e-06)
(0 0 2.38902e-06)
(0 0 2.399e-06)
(0 0 2.40896e-06)
(0 0 2.4189e-06)
(0 0 2.42878e-06)
(0 0 2.43861e-06)
(0 0 2.44837e-06)
(0 0 2.45806e-06)
(0 0 2.46767e-06)
(0 0 2.47719e-06)
(0 0 2.48663e-06)
(0 0 2.49597e-06)
(0 0 2.50519e-06)
(0 0 2.51428e-06)
(0 0 2.52325e-06)
(0 0 2.5321e-06)
(0 0 2.54082e-06)
(0 0 2.54941e-06)
(0 0 2.55788e-06)
(0 0 2.56622e-06)
(0 0 2.57442e-06)
(0 0 2.58251e-06)
(0 0 2.59046e-06)
(0 0 2.59829e-06)
(0 0 2.60598e-06)
(0 0 2.61353e-06)
(0 0 2.62096e-06)
(0 0 2.62827e-06)
(0 0 2.63546e-06)
(0 0 2.64254e-06)
(0 0 2.64951e-06)
(0 0 2.65637e-06)
(0 0 2.66311e-06)
(0 0 2.66971e-06)
(0 0 2.67616e-06)
(0 0 2.68247e-06)
(0 0 2.68863e-06)
(0 0 2.69463e-06)
(0 0 2.70043e-06)
(0 0 2.70603e-06)
(0 0 2.71141e-06)
(0 0 2.71658e-06)
(0 0 2.72153e-06)
(0 0 2.72627e-06)
(0 0 2.7308e-06)
(0 0 2.73513e-06)
(0 0 2.73926e-06)
(0 0 2.74316e-06)
(0 0 2.74684e-06)
(0 0 2.75026e-06)
(0 0 2.75344e-06)
(0 0 2.75636e-06)
(0 0 2.75902e-06)
(0 0 2.76139e-06)
(0 0 2.76346e-06)
(0 0 2.76527e-06)
(0 0 2.76687e-06)
(0 0 2.76828e-06)
(0 0 2.7695e-06)
(0 0 2.77052e-06)
(0 0 2.77132e-06)
(0 0 2.77199e-06)
(0 0 2.77257e-06)
(0 0 2.77291e-06)
(0 0 2.77298e-06)
(0 0 2.7729e-06)
(0 0 2.77282e-06)
(0 0 2.7728e-06)
(0 0 2.77282e-06)
(0 0 2.77289e-06)
(0 0 2.77304e-06)
(0 0 2.77329e-06)
(0 0 2.77359e-06)
(0 0 2.77391e-06)
(0 0 2.77431e-06)
(0 0 2.7749e-06)
(0 0 2.77569e-06)
(0 0 2.77826e-06)
(0 0 2.78497e-06)
(0 0 2.79315e-06)
(0 0 2.79837e-06)
(0 0 2.80153e-06)
(0 0 2.80448e-06)
(0 0 2.80722e-06)
(0 0 2.80975e-06)
(0 0 2.81211e-06)
(0 0 2.81432e-06)
(0 0 2.8164e-06)
(0 0 2.81838e-06)
(0 0 2.82023e-06)
(0 0 2.82194e-06)
(0 0 2.82347e-06)
(0 0 2.82481e-06)
(0 0 2.82594e-06)
(0 0 2.82686e-06)
(0 0 2.82762e-06)
(0 0 2.82823e-06)
(0 0 2.82872e-06)
(0 0 2.82911e-06)
(0 0 2.82943e-06)
(0 0 2.83257e-06)
(0 0 2.8413e-06)
(0 0 2.85082e-06)
(0 0 2.85764e-06)
(0 0 2.86395e-06)
(0 0 2.87076e-06)
(0 0 2.87802e-06)
(0 0 2.88559e-06)
(0 0 2.89334e-06)
(0 0 2.9013e-06)
(0 0 2.90957e-06)
(0 0 2.91813e-06)
(0 0 2.92692e-06)
(0 0 2.93593e-06)
(0 0 2.9452e-06)
(0 0 2.95474e-06)
(0 0 2.96448e-06)
(0 0 2.97438e-06)
(0 0 2.98445e-06)
(0 0 2.99469e-06)
(0 0 3.0051e-06)
(0 0 3.01568e-06)
(0 0 3.02642e-06)
(0 0 3.03729e-06)
(0 0 3.0483e-06)
(0 0 3.05942e-06)
(0 0 3.07068e-06)
(0 0 3.08206e-06)
(0 0 3.09357e-06)
(0 0 3.10518e-06)
(0 0 3.11687e-06)
(0 0 3.12863e-06)
(0 0 3.14043e-06)
(0 0 3.15225e-06)
(0 0 3.16406e-06)
(0 0 3.17584e-06)
(0 0 3.18756e-06)
(0 0 3.19922e-06)
(0 0 3.2108e-06)
(0 0 3.22228e-06)
(0 0 3.23366e-06)
(0 0 3.24493e-06)
(0 0 3.2561e-06)
(0 0 3.26713e-06)
(0 0 3.27804e-06)
(0 0 3.2888e-06)
(0 0 3.29941e-06)
(0 0 3.30984e-06)
(0 0 3.32008e-06)
(0 0 3.3301e-06)
(0 0 3.33989e-06)
(0 0 3.34947e-06)
(0 0 3.35884e-06)
(0 0 3.36803e-06)
(0 0 3.37706e-06)
(0 0 3.38596e-06)
(0 0 3.39475e-06)
(0 0 3.40346e-06)
(0 0 3.41209e-06)
(0 0 3.42063e-06)
(0 0 3.42908e-06)
(0 0 3.43744e-06)
(0 0 3.44572e-06)
(0 0 3.45392e-06)
(0 0 3.46206e-06)
(0 0 3.47014e-06)
(0 0 3.47816e-06)
(0 0 3.48611e-06)
(0 0 3.49402e-06)
(0 0 3.5019e-06)
(0 0 3.50974e-06)
(0 0 3.51753e-06)
(0 0 3.52529e-06)
(0 0 3.53298e-06)
(0 0 3.5406e-06)
(0 0 3.54813e-06)
(0 0 3.55556e-06)
(0 0 3.56287e-06)
(0 0 3.57008e-06)
(0 0 3.57716e-06)
(0 0 3.58414e-06)
(0 0 3.59101e-06)
(0 0 3.59774e-06)
(0 0 3.60435e-06)
(0 0 3.61085e-06)
(0 0 3.61724e-06)
(0 0 3.6235e-06)
(0 0 3.62965e-06)
(0 0 3.6357e-06)
(0 0 3.64166e-06)
(0 0 3.64754e-06)
(0 0 3.65341e-06)
(0 0 3.65926e-06)
(0 0 3.66506e-06)
(0 0 3.67079e-06)
(0 0 3.67643e-06)
(0 0 3.68207e-06)
(0 0 3.68772e-06)
(0 0 3.69332e-06)
(0 0 3.69883e-06)
(0 0 3.7043e-06)
(0 0 3.7097e-06)
(0 0 3.71505e-06)
(0 0 3.7204e-06)
(0 0 3.72581e-06)
(0 0 3.73125e-06)
(0 0 3.73668e-06)
(0 0 3.74214e-06)
(0 0 3.74766e-06)
(0 0 3.7533e-06)
(0 0 3.75905e-06)
(0 0 3.76492e-06)
(0 0 3.77091e-06)
(0 0 3.77701e-06)
(0 0 3.78318e-06)
(0 0 3.78938e-06)
(0 0 3.7956e-06)
(0 0 3.80187e-06)
(0 0 3.80821e-06)
(0 0 3.81459e-06)
(0 0 3.82098e-06)
(0 0 3.82736e-06)
(0 0 3.83375e-06)
(0 0 3.8401e-06)
(0 0 3.84642e-06)
(0 0 3.8527e-06)
(0 0 3.85896e-06)
(0 0 3.86521e-06)
(0 0 3.87148e-06)
(0 0 3.87781e-06)
(0 0 3.88422e-06)
(0 0 3.89074e-06)
(0 0 3.89743e-06)
(0 0 3.90431e-06)
(0 0 3.91138e-06)
(0 0 3.91864e-06)
(0 0 3.92609e-06)
(0 0 3.93373e-06)
(0 0 3.94155e-06)
(0 0 3.94951e-06)
(0 0 3.95758e-06)
(0 0 3.96575e-06)
(0 0 3.97395e-06)
(0 0 3.98214e-06)
(0 0 3.99038e-06)
(0 0 3.99864e-06)
(0 0 4.0069e-06)
(0 0 4.01528e-06)
(0 0 4.02381e-06)
(0 0 4.03239e-06)
(0 0 4.04098e-06)
(0 0 4.04957e-06)
(0 0 4.05818e-06)
(0 0 4.06685e-06)
(0 0 4.07561e-06)
(0 0 4.08453e-06)
(0 0 4.09367e-06)
(0 0 4.10305e-06)
(0 0 4.11267e-06)
(0 0 4.12254e-06)
(0 0 4.13266e-06)
(0 0 4.143e-06)
(0 0 4.15357e-06)
(0 0 4.16435e-06)
(0 0 4.17531e-06)
(0 0 4.18642e-06)
(0 0 4.19759e-06)
(0 0 4.20876e-06)
(0 0 4.21985e-06)
(0 0 4.23082e-06)
(0 0 4.24165e-06)
(0 0 4.25237e-06)
(0 0 4.263e-06)
(0 0 4.27356e-06)
(0 0 4.28406e-06)
(0 0 4.29451e-06)
(0 0 4.30491e-06)
(0 0 4.31528e-06)
(0 0 4.32561e-06)
(0 0 4.33597e-06)
(0 0 4.3464e-06)
(0 0 4.35701e-06)
(0 0 4.3679e-06)
(0 0 4.37921e-06)
(0 0 4.39107e-06)
(0 0 4.40366e-06)
(0 0 4.41734e-06)
(0 0 4.43239e-06)
(0 0 4.44967e-06)
(0 0 4.47011e-06)
(0 0 4.49534e-06)
(0 0 4.52758e-06)
(0 0 4.5703e-06)
(0 0 4.62778e-06)
(0 0 4.70688e-06)
(0 0 4.8163e-06)
(0 0 4.96314e-06)
(0 0 5.17404e-06)
(0 0 5.26684e-06)
(0 0 5.54005e-06)
(0 0 2.92382e-06)
(0 0 0)
(0 0 0)
(0 0 0)
(0 0 0)
(0 0 0)
(0 0 0)
(0 0 0)
(0 0 0)
(0 0 0)
(0 0 0)
(0 0 0)
(0 0 0)
(0 0 1.17695e-22)
(0 0 -6.64256e-22)
(0 0 3.83985e-22)
(0 0 -2.21296e-22)
(0 0 1.3125e-22)
(0 0 -7.80389e-23)
(0 0 4.67419e-23)
(0 0 -2.8349e-23)
(0 0 1.65654e-23)
(0 0 -9.8409e-24)
(0 0 6.54295e-24)
(0 0 -3.31503e-24)
(0 0 1.83742e-24)
(0 0 -1.89473e-24)
(0 0 6.8964e-25)
(0 0 3.23194e-25)
(0 0 1.29063e-24)
(0 0 3.90549e-26)
(0 0 -6.65447e-25)
(0 0 -6.6176e-25)
(0 0 8.80599e-25)
(0 0 2.12655e-24)
(0 0 1.82325e-24)
(0 0 1.79881e-25)
(0 0 -5.65871e-25)
(0 0 1.11532e-24)
(0 0 4.16924e-24)
(0 0 5.73532e-24)
(0 0 4.56877e-24)
(0 0 2.96263e-24)
(0 0 4.60908e-24)
(0 0 1.02849e-23)
(0 0 1.65283e-23)
(0 0 1.94975e-23)
(0 0 2.00579e-23)
(0 0 2.38661e-23)
(0 0 3.55393e-23)
(0 0 5.33356e-23)
(0 0 7.12024e-23)
(0 0 8.68477e-23)
(0 0 1.06692e-22)
(0 0 1.41102e-22)
(0 0 1.94579e-22)
(0 0 2.62673e-22)
(0 0 3.40718e-22)
(0 0 4.35461e-22)
(0 0 5.65858e-22)
(0 0 7.51154e-22)
(0 0 1.00018e-21)
(0 0 1.31638e-21)
(0 0 1.71557e-21)
(0 0 2.23766e-21)
(0 0 2.93919e-21)
(0 0 3.87669e-21)
(0 0 5.1042e-21)
(0 0 6.69475e-21)
(0 0 8.76838e-21)
(0 0 1.15015e-20)
(0 0 1.51153e-20)
(0 0 1.98709e-20)
(0 0 2.60964e-20)
(0 0 3.42429e-20)
(0 0 4.49355e-20)
(0 0 5.90016e-20)
(0 0 7.74973e-20)
(0 0 1.01777e-19)
(0 0 1.33621e-19)
(0 0 1.7541e-19)
(0 0 2.30296e-19)
(0 0 3.024e-19)
(0 0 3.97088e-19)
(0 0 5.21386e-19)
(0 0 6.84549e-19)
(0 0 8.98781e-19)
(0 0 1.18011e-18)
(0 0 1.54953e-18)
(0 0 2.03458e-18)
(0 0 2.67142e-18)
(0 0 3.50757e-18)
(0 0 4.6055e-18)
(0 0 6.04717e-18)
(0 0 7.94017e-18)
(0 0 1.04258e-17)
(0 0 1.36895e-17)
(0 0 1.7975e-17)
(0 0 2.36024e-17)
(0 0 3.0992e-17)
(0 0 4.06956e-17)
(0 0 5.34383e-17)
(0 0 7.01723e-17)
(0 0 9.21487e-17)
(0 0 1.21011e-16)
(0 0 1.58919e-16)
(0 0 2.08712e-16)
(0 0 2.74119e-16)
(0 0 3.60046e-16)
(0 0 4.72945e-16)
(0 0 6.21302e-16)
(0 0 8.16289e-16)
(0 0 1.07262e-15)
(0 0 1.40967e-15)
(0 0 1.85302e-15)
(0 0 2.4364e-15)
(0 0 3.20441e-15)
(0 0 4.21606e-15)
(0 0 5.54959e-15)
(0 0 7.30892e-15)
(0 0 9.63242e-15)
(0 0 1.27049e-14)
(0 0 1.67743e-14)
(0 0 2.21744e-14)
(0 0 2.9357e-14)
(0 0 3.89383e-14)
(0 0 5.17651e-14)
(0 0 6.90121e-14)
(0 0 9.23294e-14)
(0 0 1.24067e-13)
(0 0 1.67632e-13)
(0 0 2.2807e-13)
(0 0 3.13046e-13)
(0 0 4.34574e-13)
(0 0 6.12216e-13)
(0 0 8.79325e-13)
(0 0 1.29618e-12)
(0 0 1.97717e-12)
(0 0 3.19734e-12)
(0 0 4.64509e-12)
(0 0 2.43572e-11)
(0 0 -4.49778e-10)
(0 0 -4.0604e-09)
(0 0 2.5267e-08)
(0 0 7.84942e-08)
(0 0 1.22282e-07)
(0 0 1.68776e-07)
(0 0 2.16038e-07)
(0 0 2.63569e-07)
(0 0 3.10947e-07)
(0 0 3.57981e-07)
(0 0 4.04558e-07)
(0 0 4.5061e-07)
(0 0 4.96093e-07)
(0 0 5.40978e-07)
(0 0 5.85243e-07)
(0 0 6.28875e-07)
(0 0 6.71869e-07)
(0 0 7.14225e-07)
(0 0 7.55933e-07)
(0 0 7.96975e-07)
(0 0 8.37364e-07)
(0 0 8.77134e-07)
(0 0 9.16282e-07)
(0 0 9.54798e-07)
(0 0 9.92672e-07)
(0 0 1.02986e-06)
(0 0 1.06635e-06)
(0 0 1.1021e-06)
(0 0 1.1371e-06)
(0 0 1.17128e-06)
(0 0 1.20474e-06)
(0 0 1.23873e-06)
(0 0 1.27398e-06)
(0 0 1.30826e-06)
(0 0 1.34048e-06)
(0 0 1.37161e-06)
(0 0 1.40198e-06)
(0 0 1.43159e-06)
(0 0 1.46045e-06)
(0 0 1.48859e-06)
(0 0 1.51603e-06)
(0 0 1.5428e-06)
(0 0 1.56893e-06)
(0 0 1.59441e-06)
(0 0 1.61927e-06)
(0 0 1.64352e-06)
(0 0 1.66717e-06)
(0 0 1.69021e-06)
(0 0 1.71263e-06)
(0 0 1.73442e-06)
(0 0 1.75558e-06)
(0 0 1.77611e-06)
(0 0 1.79601e-06)
(0 0 1.8153e-06)
(0 0 1.83399e-06)
(0 0 1.85208e-06)
(0 0 1.86959e-06)
(0 0 1.88654e-06)
(0 0 1.90294e-06)
(0 0 1.9188e-06)
(0 0 1.93414e-06)
(0 0 1.94896e-06)
(0 0 1.96327e-06)
(0 0 1.97709e-06)
(0 0 1.99044e-06)
(0 0 2.00334e-06)
(0 0 2.01581e-06)
(0 0 2.02785e-06)
(0 0 2.03947e-06)
(0 0 2.05068e-06)
(0 0 2.06148e-06)
(0 0 2.07186e-06)
(0 0 2.08184e-06)
(0 0 2.09144e-06)
(0 0 2.10067e-06)
(0 0 2.10955e-06)
(0 0 2.11812e-06)
(0 0 2.12638e-06)
(0 0 2.1344e-06)
(0 0 2.14218e-06)
(0 0 2.14974e-06)
(0 0 2.15708e-06)
(0 0 2.16422e-06)
(0 0 2.17117e-06)
(0 0 2.17796e-06)
(0 0 2.18463e-06)
(0 0 2.19121e-06)
(0 0 2.19774e-06)
(0 0 2.20423e-06)
(0 0 2.2107e-06)
(0 0 2.21714e-06)
(0 0 2.22357e-06)
(0 0 2.23e-06)
(0 0 2.23647e-06)
(0 0 2.24306e-06)
(0 0 2.2499e-06)
(0 0 2.2571e-06)
(0 0 2.26479e-06)
(0 0 2.27302e-06)
(0 0 2.28177e-06)
(0 0 2.2909e-06)
(0 0 2.30032e-06)
(0 0 2.30993e-06)
(0 0 2.31965e-06)
(0 0 2.32945e-06)
(0 0 2.3393e-06)
(0 0 2.3492e-06)
(0 0 2.35912e-06)
(0 0 2.36906e-06)
(0 0 2.37903e-06)
(0 0 2.38901e-06)
(0 0 2.39899e-06)
(0 0 2.40895e-06)
(0 0 2.41888e-06)
(0 0 2.42877e-06)
(0 0 2.4386e-06)
(0 0 2.44836e-06)
(0 0 2.45804e-06)
(0 0 2.46765e-06)
(0 0 2.47717e-06)
(0 0 2.48661e-06)
(0 0 2.49595e-06)
(0 0 2.50517e-06)
(0 0 2.51426e-06)
(0 0 2.52323e-06)
(0 0 2.53208e-06)
(0 0 2.5408e-06)
(0 0 2.54939e-06)
(0 0 2.55786e-06)
(0 0 2.56619e-06)
(0 0 2.5744e-06)
(0 0 2.58249e-06)
(0 0 2.59044e-06)
(0 0 2.59827e-06)
(0 0 2.60595e-06)
(0 0 2.61351e-06)
(0 0 2.62094e-06)
(0 0 2.62825e-06)
(0 0 2.63544e-06)
(0 0 2.64252e-06)
(0 0 2.64949e-06)
(0 0 2.65635e-06)
(0 0 2.66309e-06)
(0 0 2.66969e-06)
(0 0 2.67614e-06)
(0 0 2.68245e-06)
(0 0 2.68861e-06)
(0 0 2.6946e-06)
(0 0 2.7004e-06)
(0 0 2.706e-06)
(0 0 2.71139e-06)
(0 0 2.71656e-06)
(0 0 2.72151e-06)
(0 0 2.72624e-06)
(0 0 2.73077e-06)
(0 0 2.7351e-06)
(0 0 2.73923e-06)
(0 0 2.74313e-06)
(0 0 2.74681e-06)
(0 0 2.75024e-06)
(0 0 2.75341e-06)
(0 0 2.75633e-06)
(0 0 2.75899e-06)
(0 0 2.76136e-06)
(0 0 2.76344e-06)
(0 0 2.76525e-06)
(0 0 2.76685e-06)
(0 0 2.76826e-06)
(0 0 2.76948e-06)
(0 0 2.77049e-06)
(0 0 2.7713e-06)
(0 0 2.77198e-06)
(0 0 2.77255e-06)
(0 0 2.77289e-06)
(0 0 2.77296e-06)
(0 0 2.77289e-06)
(0 0 2.77282e-06)
(0 0 2.77279e-06)
(0 0 2.77281e-06)
(0 0 2.77289e-06)
(0 0 2.77304e-06)
(0 0 2.77328e-06)
(0 0 2.77358e-06)
(0 0 2.77391e-06)
(0 0 2.77432e-06)
(0 0 2.7749e-06)
(0 0 2.7758e-06)
(0 0 2.77853e-06)
(0 0 2.78506e-06)
(0 0 2.79294e-06)
(0 0 2.79822e-06)
(0 0 2.8015e-06)
(0 0 2.80446e-06)
(0 0 2.8072e-06)
(0 0 2.80973e-06)
(0 0 2.81209e-06)
(0 0 2.8143e-06)
(0 0 2.81638e-06)
(0 0 2.81836e-06)
(0 0 2.82021e-06)
(0 0 2.82192e-06)
(0 0 2.82345e-06)
(0 0 2.82478e-06)
(0 0 2.82591e-06)
(0 0 2.82684e-06)
(0 0 2.8276e-06)
(0 0 2.82822e-06)
(0 0 2.82871e-06)
(0 0 2.8291e-06)
(0 0 2.8296e-06)
(0 0 2.83293e-06)
(0 0 2.84134e-06)
(0 0 2.85062e-06)
(0 0 2.8576e-06)
(0 0 2.86397e-06)
(0 0 2.87078e-06)
(0 0 2.87803e-06)
(0 0 2.88559e-06)
(0 0 2.89334e-06)
(0 0 2.9013e-06)
(0 0 2.90957e-06)
(0 0 2.91813e-06)
(0 0 2.92692e-06)
(0 0 2.93593e-06)
(0 0 2.94521e-06)
(0 0 2.95474e-06)
(0 0 2.96448e-06)
(0 0 2.97438e-06)
(0 0 2.98445e-06)
(0 0 2.99469e-06)
(0 0 3.0051e-06)
(0 0 3.01568e-06)
(0 0 3.02641e-06)
(0 0 3.03729e-06)
(0 0 3.04829e-06)
(0 0 3.05942e-06)
(0 0 3.07067e-06)
(0 0 3.08205e-06)
(0 0 3.09356e-06)
(0 0 3.10517e-06)
(0 0 3.11686e-06)
(0 0 3.12861e-06)
(0 0 3.14041e-06)
(0 0 3.15223e-06)
(0 0 3.16404e-06)
(0 0 3.17582e-06)
(0 0 3.18754e-06)
(0 0 3.1992e-06)
(0 0 3.21077e-06)
(0 0 3.22225e-06)
(0 0 3.23363e-06)
(0 0 3.24491e-06)
(0 0 3.25607e-06)
(0 0 3.26711e-06)
(0 0 3.27801e-06)
(0 0 3.28877e-06)
(0 0 3.29938e-06)
(0 0 3.30981e-06)
(0 0 3.32004e-06)
(0 0 3.33007e-06)
(0 0 3.33986e-06)
(0 0 3.34944e-06)
(0 0 3.35881e-06)
(0 0 3.368e-06)
(0 0 3.37704e-06)
(0 0 3.38593e-06)
(0 0 3.39473e-06)
(0 0 3.40344e-06)
(0 0 3.41206e-06)
(0 0 3.42061e-06)
(0 0 3.42906e-06)
(0 0 3.43742e-06)
(0 0 3.44569e-06)
(0 0 3.4539e-06)
(0 0 3.46204e-06)
(0 0 3.47012e-06)
(0 0 3.47814e-06)
(0 0 3.48609e-06)
(0 0 3.494e-06)
(0 0 3.50188e-06)
(0 0 3.50972e-06)
(0 0 3.51751e-06)
(0 0 3.52527e-06)
(0 0 3.53296e-06)
(0 0 3.54058e-06)
(0 0 3.54811e-06)
(0 0 3.55553e-06)
(0 0 3.56285e-06)
(0 0 3.57005e-06)
(0 0 3.57714e-06)
(0 0 3.58412e-06)
(0 0 3.59098e-06)
(0 0 3.59771e-06)
(0 0 3.60433e-06)
(0 0 3.61083e-06)
(0 0 3.61721e-06)
(0 0 3.62348e-06)
(0 0 3.62963e-06)
(0 0 3.63568e-06)
(0 0 3.64164e-06)
(0 0 3.64753e-06)
(0 0 3.65339e-06)
(0 0 3.65924e-06)
(0 0 3.66504e-06)
(0 0 3.67077e-06)
(0 0 3.67641e-06)
(0 0 3.68206e-06)
(0 0 3.6877e-06)
(0 0 3.69329e-06)
(0 0 3.69881e-06)
(0 0 3.70428e-06)
(0 0 3.70968e-06)
(0 0 3.71503e-06)
(0 0 3.72039e-06)
(0 0 3.7258e-06)
(0 0 3.73123e-06)
(0 0 3.73666e-06)
(0 0 3.74212e-06)
(0 0 3.74765e-06)
(0 0 3.75329e-06)
(0 0 3.75904e-06)
(0 0 3.76491e-06)
(0 0 3.7709e-06)
(0 0 3.777e-06)
(0 0 3.78316e-06)
(0 0 3.78936e-06)
(0 0 3.79559e-06)
(0 0 3.80186e-06)
(0 0 3.8082e-06)
(0 0 3.81458e-06)
(0 0 3.82096e-06)
(0 0 3.82735e-06)
(0 0 3.83373e-06)
(0 0 3.84008e-06)
(0 0 3.8464e-06)
(0 0 3.85268e-06)
(0 0 3.85894e-06)
(0 0 3.86519e-06)
(0 0 3.87147e-06)
(0 0 3.8778e-06)
(0 0 3.88421e-06)
(0 0 3.89074e-06)
(0 0 3.89743e-06)
(0 0 3.9043e-06)
(0 0 3.91137e-06)
(0 0 3.91863e-06)
(0 0 3.92609e-06)
(0 0 3.93373e-06)
(0 0 3.94154e-06)
(0 0 3.9495e-06)
(0 0 3.95757e-06)
(0 0 3.96573e-06)
(0 0 3.97393e-06)
(0 0 3.98213e-06)
(0 0 3.99037e-06)
(0 0 3.99862e-06)
(0 0 4.00689e-06)
(0 0 4.01527e-06)
(0 0 4.02379e-06)
(0 0 4.03237e-06)
(0 0 4.04096e-06)
(0 0 4.04955e-06)
(0 0 4.05817e-06)
(0 0 4.06683e-06)
(0 0 4.0756e-06)
(0 0 4.08453e-06)
(0 0 4.09367e-06)
(0 0 4.10304e-06)
(0 0 4.11267e-06)
(0 0 4.12254e-06)
(0 0 4.13265e-06)
(0 0 4.143e-06)
(0 0 4.15356e-06)
(0 0 4.16434e-06)
(0 0 4.1753e-06)
(0 0 4.1864e-06)
(0 0 4.19757e-06)
(0 0 4.20873e-06)
(0 0 4.21982e-06)
(0 0 4.23079e-06)
(0 0 4.24163e-06)
(0 0 4.25234e-06)
(0 0 4.26297e-06)
(0 0 4.27353e-06)
(0 0 4.28403e-06)
(0 0 4.29449e-06)
(0 0 4.30489e-06)
(0 0 4.31525e-06)
(0 0 4.32559e-06)
(0 0 4.33595e-06)
(0 0 4.34639e-06)
(0 0 4.35701e-06)
(0 0 4.36791e-06)
(0 0 4.37922e-06)
(0 0 4.3911e-06)
(0 0 4.40371e-06)
(0 0 4.41741e-06)
(0 0 4.43251e-06)
(0 0 4.44986e-06)
(0 0 4.4704e-06)
(0 0 4.49578e-06)
(0 0 4.52825e-06)
(0 0 4.57124e-06)
(0 0 4.62915e-06)
(0 0 4.70879e-06)
(0 0 4.81853e-06)
(0 0 4.96721e-06)
(0 0 5.16468e-06)
(0 0 5.28097e-06)
(0 0 5.34925e-06)
(0 0 2.91241e-06)
(0 0 2.02021e-07)
(0 0 -2.28556e-09)
(0 0 1.12199e-09)
(0 0 3.10029e-10)
(0 0 1.51703e-10)
(0 0 8.07899e-11)
(0 0 4.63994e-11)
(0 0 2.72818e-11)
(0 0 1.53767e-11)
(0 0 6.95819e-12)
(0 0 0)
(0 0 0)
(0 0 1.11904e-22)
(0 0 -8.01355e-22)
(0 0 5.0622e-22)
(0 0 -3.04536e-22)
(0 0 1.8327e-22)
(0 0 -1.09515e-22)
(0 0 6.56498e-23)
(0 0 -3.9787e-23)
(0 0 2.33235e-23)
(0 0 -1.38506e-23)
(0 0 9.10165e-24)
(0 0 -4.73957e-24)
(0 0 2.59781e-24)
(0 0 -2.57457e-24)
(0 0 9.96305e-25)
(0 0 3.21274e-25)
(0 0 1.58818e-24)
(0 0 -8.15832e-26)
(0 0 -9.01093e-25)
(0 0 -8.79988e-25)
(0 0 1.04824e-24)
(0 0 2.49533e-24)
(0 0 1.9952e-24)
(0 0 -1.21823e-25)
(0 0 -1.04055e-24)
(0 0 1.03005e-24)
(0 0 4.65989e-24)
(0 0 6.28651e-24)
(0 0 4.49599e-24)
(0 0 2.24364e-24)
(0 0 4.03612e-24)
(0 0 1.06052e-23)
(0 0 1.74928e-23)
(0 0 2.00028e-23)
(0 0 1.93934e-23)
(0 0 2.26742e-23)
(0 0 3.52282e-23)
(0 0 5.44327e-23)
(0 0 7.25539e-23)
(0 0 8.68054e-23)
(0 0 1.05102e-22)
(0 0 1.39719e-22)
(0 0 1.95152e-22)
(0 0 2.64761e-22)
(0 0 3.41937e-22)
(0 0 4.34184e-22)
(0 0 5.6334e-22)
(0 0 7.5035e-22)
(0 0 1.0023e-21)
(0 0 1.31916e-21)
(0 0 1.71567e-21)
(0 0 2.23464e-21)
(0 0 2.93642e-21)
(0 0 3.87759e-21)
(0 0 5.10806e-21)
(0 0 6.69714e-21)
(0 0 8.76622e-21)
(0 0 1.1497e-20)
(0 0 1.51138e-20)
(0 0 1.98744e-20)
(0 0 2.61012e-20)
(0 0 3.42432e-20)
(0 0 4.49306e-20)
(0 0 5.8997e-20)
(0 0 7.74986e-20)
(0 0 1.01783e-19)
(0 0 1.33625e-19)
(0 0 1.75407e-19)
(0 0 2.30289e-19)
(0 0 3.02398e-19)
(0 0 3.97093e-19)
(0 0 5.21392e-19)
(0 0 6.84549e-19)
(0 0 8.98774e-19)
(0 0 1.1801e-18)
(0 0 1.54953e-18)
(0 0 2.03459e-18)
(0 0 2.67142e-18)
(0 0 3.50757e-18)
(0 0 4.60549e-18)
(0 0 6.04717e-18)
(0 0 7.94018e-18)
(0 0 1.04258e-17)
(0 0 1.36895e-17)
(0 0 1.7975e-17)
(0 0 2.36024e-17)
(0 0 3.0992e-17)
(0 0 4.06956e-17)
(0 0 5.34383e-17)
(0 0 7.01723e-17)
(0 0 9.21487e-17)
(0 0 1.21011e-16)
(0 0 1.58919e-16)
(0 0 2.08712e-16)
(0 0 2.74119e-16)
(0 0 3.60046e-16)
(0 0 4.72945e-16)
(0 0 6.21302e-16)
(0 0 8.16289e-16)
(0 0 1.07262e-15)
(0 0 1.40967e-15)
(0 0 1.85302e-15)
(0 0 2.4364e-15)
(0 0 3.20441e-15)
(0 0 4.21606e-15)
(0 0 5.54959e-15)
(0 0 7.30892e-15)
(0 0 9.63242e-15)
(0 0 1.27049e-14)
(0 0 1.67743e-14)
(0 0 2.21744e-14)
(0 0 2.9357e-14)
(0 0 3.89383e-14)
(0 0 5.17651e-14)
(0 0 6.90121e-14)
(0 0 9.23294e-14)
(0 0 1.24067e-13)
(0 0 1.67632e-13)
(0 0 2.2807e-13)
(0 0 3.13046e-13)
(0 0 4.34574e-13)
(0 0 6.12216e-13)
(0 0 8.79323e-13)
(0 0 1.29618e-12)
(0 0 1.97718e-12)
(0 0 3.19726e-12)
(0 0 4.64526e-12)
(0 0 2.43572e-11)
(0 0 -4.49779e-10)
(0 0 -4.0604e-09)
(0 0 2.5267e-08)