/*--------------------------------*- C++ -*----------------------------------*\
| =========                 |                                                 |
| \\      /  F ield         | foam-extend: Open Source CFD                    |
|  \\    /   O peration     | Version:     3.2                                |
|   \\  /    A nd           | Web:         http://www.foam-extend.org         |
|    \\/     M anipulation  | For copyright notice see file Copyright         |
\*---------------------------------------------------------------------------*/
FoamFile
{
    version     2.0;
    format      ascii;
    class       volScalarField;
    location    "120";
    object      nut;
}
// * * * * * * * * * * * * * * * * * * * * * * * * * * * * * * * * * * * * * //

dimensions      [0 2 -1 0 0 0 0];

internalField   nonuniform List<scalar> 
33000
(
6.25845e-06
7.60734e-06
8.99903e-06
1.04023e-05
1.1782e-05
1.31032e-05
1.43373e-05
1.54589e-05
1.64536e-05
1.73105e-05
1.80292e-05
1.86127e-05
1.90705e-05
1.94131e-05
1.96534e-05
1.98043e-05
1.98794e-05
1.98911e-05
1.97697e-05
1.90249e-05
1.83064e-05
1.76355e-05
1.70046e-05
1.64237e-05
1.58888e-05
1.54042e-05
1.49676e-05
1.45785e-05
1.42241e-05
1.39014e-05
1.36073e-05
1.33404e-05
1.3098e-05
1.28784e-05
1.26805e-05
1.25027e-05
1.23439e-05
1.22024e-05
1.20772e-05
1.19672e-05
1.18719e-05
1.17878e-05
1.17156e-05
1.16534e-05
1.16013e-05
1.15571e-05
1.15221e-05
1.14957e-05
1.14771e-05
1.14659e-05
1.14612e-05
1.14625e-05
1.14692e-05
1.14808e-05
1.14963e-05
1.15154e-05
1.15377e-05
1.15627e-05
1.15899e-05
1.16192e-05
1.16502e-05
1.16828e-05
1.17167e-05
1.17518e-05
1.17879e-05
1.18247e-05
1.18623e-05
1.19003e-05
1.19387e-05
1.19772e-05
1.20159e-05
1.20542e-05
1.20924e-05
1.213e-05
1.21672e-05
1.22036e-05
1.22394e-05
1.22743e-05
1.23086e-05
1.23419e-05
1.23746e-05
1.2406e-05
1.24369e-05
1.24665e-05
1.24956e-05
1.25232e-05
1.25501e-05
1.25755e-05
1.26002e-05
1.26232e-05
1.26454e-05
1.26658e-05
1.26853e-05
1.27038e-05
1.27213e-05
1.27382e-05
1.27547e-05
1.27717e-05
1.27892e-05
1.28073e-05
1.28253e-05
1.28434e-05
1.28617e-05
1.28799e-05
1.2898e-05
1.29159e-05
1.29335e-05
1.29509e-05
1.29678e-05
1.29845e-05
1.30006e-05
1.30163e-05
1.30315e-05
1.30461e-05
1.30605e-05
1.30738e-05
1.30866e-05
1.3099e-05
1.31106e-05
1.31214e-05
1.31316e-05
1.3141e-05
1.31497e-05
1.31577e-05
1.31651e-05
1.31719e-05
1.31781e-05
1.31836e-05
1.31885e-05
1.31928e-05
1.31964e-05
1.31994e-05
1.32017e-05
1.32033e-05
1.32044e-05
1.32049e-05
1.32048e-05
1.32042e-05
1.32031e-05
1.32015e-05
1.31995e-05
1.3197e-05
1.31941e-05
1.31908e-05
1.31871e-05
1.3183e-05
1.31786e-05
1.31738e-05
1.31687e-05
1.31634e-05
1.31579e-05
1.31521e-05
1.31462e-05
1.31401e-05
1.31339e-05
1.31277e-05
1.31213e-05
1.3115e-05
1.31085e-05
1.31021e-05
1.30956e-05
1.3089e-05
1.30825e-05
1.3076e-05
1.30696e-05
1.30633e-05
1.3057e-05
1.30508e-05
1.30448e-05
1.30388e-05
1.30331e-05
1.30274e-05
1.30219e-05
1.30166e-05
1.30114e-05
1.30064e-05
1.30015e-05
1.29968e-05
1.29923e-05
1.2988e-05
1.29838e-05
1.29799e-05
1.29762e-05
1.29726e-05
1.29693e-05
1.29662e-05
1.29633e-05
1.29606e-05
1.29583e-05
1.29561e-05
1.29542e-05
1.29526e-05
1.29513e-05
1.29502e-05
1.29494e-05
1.29489e-05
1.29488e-05
1.2949e-05
1.29495e-05
1.29504e-05
1.29516e-05
1.29532e-05
1.29552e-05
1.29576e-05
1.29604e-05
1.29635e-05
1.2967e-05
1.29708e-05
1.2975e-05
1.29795e-05
1.29844e-05
1.29896e-05
1.29951e-05
1.30009e-05
1.30069e-05
1.30133e-05
1.30199e-05
1.30267e-05
1.30337e-05
1.30409e-05
1.30483e-05
1.30559e-05
1.30635e-05
1.30714e-05
1.30793e-05
1.30874e-05
1.30951e-05
1.31022e-05
1.31089e-05
1.31151e-05
1.31209e-05
1.31262e-05
1.31312e-05
1.31358e-05
1.314e-05
1.3144e-05
1.31476e-05
1.31509e-05
1.31542e-05
1.31573e-05
1.31603e-05
1.31633e-05
1.31662e-05
1.31692e-05
1.31718e-05
1.31742e-05
1.31765e-05
1.31787e-05
1.31808e-05
1.31826e-05
1.31843e-05
1.31857e-05
1.31869e-05
1.31878e-05
1.31885e-05
1.3189e-05
1.31893e-05
1.31894e-05
1.31893e-05
1.31891e-05
1.31886e-05
1.3188e-05
1.31871e-05
1.3186e-05
1.31847e-05
1.31832e-05
1.31815e-05
1.31797e-05
1.31776e-05
1.31754e-05
1.31731e-05
1.31707e-05
1.31682e-05
1.31656e-05
1.3163e-05
1.31604e-05
1.31576e-05
1.31548e-05
1.31519e-05
1.31489e-05
1.31459e-05
1.31429e-05
1.31399e-05
1.31369e-05
1.31339e-05
1.3131e-05
1.31281e-05
1.31252e-05
1.31224e-05
1.31196e-05
1.3117e-05
1.31144e-05
1.3112e-05
1.31097e-05
1.31076e-05
1.31056e-05
1.31038e-05
1.31021e-05
1.31005e-05
1.3099e-05
1.30976e-05
1.30963e-05
1.30949e-05
1.30937e-05
1.30924e-05
1.30912e-05
1.309e-05
1.30889e-05
1.30879e-05
1.30869e-05
1.30861e-05
1.30853e-05
1.30846e-05
1.30839e-05
1.30832e-05
1.30826e-05
1.3082e-05
1.30815e-05
1.30809e-05
1.30805e-05
1.30801e-05
1.30798e-05
1.30795e-05
1.30794e-05
1.30794e-05
1.30794e-05
1.30796e-05
1.30797e-05
1.30799e-05
1.30802e-05
1.30806e-05
1.3081e-05
1.30816e-05
1.30822e-05
1.30829e-05
1.30836e-05
1.30844e-05
1.30852e-05
1.30861e-05
1.30871e-05
1.30881e-05
1.30892e-05
1.30903e-05
1.30913e-05
1.30924e-05
1.30934e-05
1.30943e-05
1.30951e-05
1.30957e-05
1.30963e-05
1.30966e-05
1.30968e-05
1.30967e-05
1.30965e-05
1.30961e-05
1.30956e-05
1.30949e-05
1.3094e-05
1.3093e-05
1.30918e-05
1.30905e-05
1.30889e-05
1.30871e-05
1.30851e-05
1.30828e-05
1.30804e-05
1.30778e-05
1.30751e-05
1.30722e-05
1.30691e-05
1.30659e-05
1.30625e-05
1.30589e-05
1.30551e-05
1.30509e-05
1.30466e-05
1.3042e-05
1.30372e-05
1.30321e-05
1.30269e-05
1.30214e-05
1.30157e-05
1.30097e-05
1.30036e-05
1.29973e-05
1.29907e-05
1.29839e-05
1.29769e-05
1.29698e-05
1.29624e-05
1.29549e-05
1.29473e-05
1.29397e-05
1.29319e-05
1.29241e-05
1.29162e-05
1.29082e-05
1.29e-05
1.28918e-05
1.28834e-05
1.28749e-05
1.28664e-05
1.28579e-05
1.28493e-05
1.28407e-05
1.28321e-05
1.28235e-05
1.28149e-05
1.28063e-05
1.27976e-05
1.2789e-05
1.27803e-05
1.27715e-05
1.27627e-05
1.27539e-05
1.27451e-05
1.27362e-05
1.27273e-05
1.27184e-05
1.27095e-05
1.27005e-05
1.26915e-05
1.26826e-05
1.26736e-05
1.26646e-05
1.26556e-05
1.26466e-05
1.26376e-05
1.26286e-05
1.26197e-05
1.26108e-05
1.2602e-05
1.25934e-05
1.25848e-05
1.25764e-05
1.2568e-05
1.25598e-05
1.25517e-05
1.25437e-05
1.25359e-05
1.25283e-05
1.25209e-05
1.25137e-05
1.25068e-05
1.25001e-05
1.24935e-05
1.24872e-05
1.24809e-05
1.24748e-05
1.24688e-05
1.2463e-05
1.24572e-05
1.24516e-05
1.24461e-05
1.24408e-05
1.24358e-05
1.24309e-05
1.24262e-05
1.24216e-05
1.24171e-05
1.24127e-05
1.24083e-05
1.2404e-05
1.23996e-05
1.23954e-05
1.23911e-05
1.23871e-05
1.2383e-05
1.23791e-05
1.23752e-05
1.23714e-05
1.23675e-05
1.23638e-05
1.23598e-05
1.23562e-05
1.23523e-05
1.23489e-05
1.23451e-05
1.23419e-05
1.23381e-05
1.2335e-05
1.23314e-05
1.23285e-05
1.2325e-05
1.23224e-05
1.23189e-05
1.23163e-05
1.23127e-05
1.23102e-05
1.23064e-05
1.23039e-05
1.22998e-05
1.22974e-05
1.22931e-05
1.22909e-05
1.22864e-05
1.22844e-05
1.22798e-05
1.22783e-05
1.22736e-05
1.22724e-05
1.22674e-05
1.22664e-05
1.22606e-05
1.22597e-05
1.22531e-05
1.22522e-05
1.22449e-05
1.22443e-05
1.22362e-05
1.22358e-05
1.22268e-05
1.22266e-05
1.22165e-05
1.22164e-05
1.22053e-05
1.22055e-05
1.21937e-05
1.21942e-05
1.21816e-05
1.21821e-05
1.21683e-05
1.21684e-05
1.21529e-05
1.21527e-05
1.21352e-05
1.21341e-05
1.21137e-05
1.21095e-05
1.20833e-05
1.20723e-05
1.20325e-05
1.20083e-05
1.19413e-05
1.18956e-05
1.17783e-05
1.17103e-05
1.14928e-05
1.10565e-05
1.03539e-05
1.00493e-05
9.08456e-06
8.34147e-06
6.97451e-06
6.50508e-06
4.92427e-06
6.43395e-06
3.97345e-06
4.76544e-06
2.5567e-05
5.14732e-05
3.09479e-05
2.22268e-05
1.77286e-05
1.50838e-05
1.34916e-05
1.24894e-05
1.18541e-05
1.14686e-05
1.12556e-05
1.11772e-05
1.11846e-05
1.12576e-05
1.13764e-05
1.15363e-05
1.17344e-05
1.19721e-05
1.22597e-05
1.26034e-05
1.3003e-05
1.34711e-05
1.40069e-05
1.45818e-05
1.52093e-05
1.59024e-05
1.66716e-05
1.7519e-05
1.82379e-05
1.86764e-05
1.91153e-05
1.95519e-05
1.99842e-05
2.04105e-05
2.08301e-05
2.1242e-05
2.16459e-05
2.20407e-05
2.24267e-05
2.28032e-05
2.31714e-05
2.35305e-05
2.38811e-05
2.42232e-05
2.4558e-05
2.48847e-05
2.52055e-05
2.55211e-05
2.5832e-05
2.61377e-05
2.64384e-05
2.67333e-05
2.70226e-05
2.73054e-05
2.75819e-05
2.78509e-05
2.81129e-05
2.83673e-05
2.86149e-05
2.88545e-05
2.90885e-05
2.93151e-05
2.95368e-05
2.97531e-05
2.99643e-05
3.01701e-05
3.03705e-05
3.05654e-05
3.07546e-05
3.09383e-05
3.11164e-05
3.1289e-05
3.14558e-05
3.16171e-05
3.17727e-05
3.19227e-05
3.2067e-05
3.2206e-05
3.23394e-05
3.24678e-05
3.2591e-05
3.27089e-05
3.28216e-05
3.293e-05
3.30333e-05
3.31329e-05
3.32277e-05
3.33192e-05
3.34061e-05
3.349e-05
3.35693e-05
3.36462e-05
3.37181e-05
3.37881e-05
3.38541e-05
3.3919e-05
3.39831e-05
3.40464e-05
3.41083e-05
3.41686e-05
3.42271e-05
3.42829e-05
3.43363e-05
3.43871e-05
3.44353e-05
3.44808e-05
3.45237e-05
3.4564e-05
3.46016e-05
3.46365e-05
3.46689e-05
3.46988e-05
3.47262e-05
3.47511e-05
3.47737e-05
3.47945e-05
3.48118e-05
3.48276e-05
3.48421e-05
3.4854e-05
3.48639e-05
3.48719e-05
3.48781e-05
3.48825e-05
3.48853e-05
3.48867e-05
3.48867e-05
3.48855e-05
3.48831e-05
3.48798e-05
3.48754e-05
3.48701e-05
3.4864e-05
3.4857e-05
3.48493e-05
3.48409e-05
3.48319e-05
3.48224e-05
3.48124e-05
3.48021e-05
3.47915e-05
3.47807e-05
3.47697e-05
3.47587e-05
3.47476e-05
3.47364e-05
3.47254e-05
3.47144e-05
3.47035e-05
3.46928e-05
3.46823e-05
3.46721e-05
3.46621e-05
3.46525e-05
3.46434e-05
3.46347e-05
3.46264e-05
3.46187e-05
3.46115e-05
3.46049e-05
3.45987e-05
3.45931e-05
3.4588e-05
3.45834e-05
3.45794e-05
3.45761e-05
3.45734e-05
3.45714e-05
3.45701e-05
3.45695e-05
3.45696e-05
3.45705e-05
3.45722e-05
3.45748e-05
3.45782e-05
3.45824e-05
3.45874e-05
3.45933e-05
3.46e-05
3.46076e-05
3.46161e-05
3.46254e-05
3.46357e-05
3.46468e-05
3.46588e-05
3.46716e-05
3.46853e-05
3.46998e-05
3.47152e-05
3.47315e-05
3.47486e-05
3.47667e-05
3.47857e-05
3.48056e-05
3.48264e-05
3.48482e-05
3.48709e-05
3.48947e-05
3.49194e-05
3.49452e-05
3.49721e-05
3.5e-05
3.50289e-05
3.50589e-05
3.50899e-05
3.5122e-05
3.5155e-05
3.51889e-05
3.52236e-05
3.52591e-05
3.52953e-05
3.5332e-05
3.53693e-05
3.5407e-05
3.54451e-05
3.54834e-05
3.5522e-05
3.55605e-05
3.5599e-05
3.56374e-05
3.56755e-05
3.57133e-05
3.57508e-05
3.57877e-05
3.58243e-05
3.58601e-05
3.58936e-05
3.59105e-05
3.59254e-05
3.59387e-05
3.59506e-05
3.59613e-05
3.59711e-05
3.59802e-05
3.59887e-05
3.59966e-05
3.60042e-05
3.60113e-05
3.60182e-05
3.6025e-05
3.60316e-05
3.60382e-05
3.60446e-05
3.60511e-05
3.60574e-05
3.60634e-05
3.6069e-05
3.60745e-05
3.60797e-05
3.60848e-05
3.60896e-05
3.60941e-05
3.60984e-05
3.61022e-05
3.61056e-05
3.61084e-05
3.61105e-05
3.61119e-05
3.61126e-05
3.61126e-05
3.61121e-05
3.6111e-05
3.61094e-05
3.61074e-05
3.61051e-05
3.61023e-05
3.60991e-05
3.60957e-05
3.60919e-05
3.60878e-05
3.60835e-05
3.60788e-05
3.60739e-05
3.60687e-05
3.60634e-05
3.60579e-05
3.60523e-05
3.60465e-05
3.60407e-05
3.60346e-05
3.60285e-05
3.60222e-05
3.60158e-05
3.60095e-05
3.60033e-05
3.59973e-05
3.59916e-05
3.59863e-05
3.59813e-05
3.59767e-05
3.59726e-05
3.5969e-05
3.59657e-05
3.5963e-05
3.59607e-05
3.5959e-05
3.59578e-05
3.59572e-05
3.59571e-05
3.59575e-05
3.59583e-05
3.59596e-05
3.5961e-05
3.59627e-05
3.59644e-05
3.59662e-05
3.5968e-05
3.59696e-05
3.59713e-05
3.59729e-05
3.59745e-05
3.59762e-05
3.59781e-05
3.59801e-05
3.59823e-05
3.59848e-05
3.59875e-05
3.59903e-05
3.59934e-05
3.59967e-05
3.60002e-05
3.60038e-05
3.60075e-05
3.60115e-05
3.60156e-05
3.60198e-05
3.60243e-05
3.60288e-05
3.60334e-05
3.6038e-05
3.60425e-05
3.60469e-05
3.60513e-05
3.60555e-05
3.60596e-05
3.60635e-05
3.60674e-05
3.6071e-05
3.60744e-05
3.60775e-05
3.60803e-05
3.60827e-05
3.60848e-05
3.60865e-05
3.60878e-05
3.60886e-05
3.60889e-05
3.60885e-05
3.60875e-05
3.60857e-05
3.60831e-05
3.60798e-05
3.60756e-05
3.60704e-05
3.60644e-05
3.60575e-05
3.60496e-05
3.6041e-05
3.60316e-05
3.60216e-05
3.6011e-05
3.59998e-05
3.59881e-05
3.59759e-05
3.59632e-05
3.59498e-05
3.59358e-05
3.59212e-05
3.5906e-05
3.58903e-05
3.58741e-05
3.58573e-05
3.58401e-05
3.58224e-05
3.58042e-05
3.57854e-05
3.57661e-05
3.57461e-05
3.57255e-05
3.57043e-05
3.56826e-05
3.56604e-05
3.56378e-05
3.56149e-05
3.55917e-05
3.55683e-05
3.55448e-05
3.55211e-05
3.54972e-05
3.54733e-05
3.54491e-05
3.54249e-05
3.54005e-05
3.53761e-05
3.53517e-05
3.53274e-05
3.53031e-05
3.5279e-05
3.52549e-05
3.52309e-05
3.52069e-05
3.51829e-05
3.51589e-05
3.51349e-05
3.51109e-05
3.5087e-05
3.50631e-05
3.50395e-05
3.50159e-05
3.49926e-05
3.49694e-05
3.49463e-05
3.49233e-05
3.49004e-05
3.48775e-05
3.48546e-05
3.48317e-05
3.48087e-05
3.47857e-05
3.47625e-05
3.47393e-05
3.47161e-05
3.46928e-05
3.46695e-05
3.46462e-05
3.4623e-05
3.46e-05
3.45771e-05
3.45544e-05
3.4532e-05
3.45101e-05
3.44885e-05
3.44676e-05
3.44472e-05
3.44276e-05
3.44088e-05
3.43908e-05
3.43735e-05
3.43571e-05
3.43413e-05
3.43262e-05
3.43117e-05
3.42979e-05
3.42847e-05
3.42722e-05
3.42604e-05
3.42492e-05
3.42386e-05
3.42285e-05
3.42189e-05
3.42096e-05
3.42005e-05
3.41916e-05
3.41829e-05
3.41742e-05
3.41657e-05
3.41573e-05
3.4149e-05
3.4141e-05
3.41333e-05
3.41258e-05
3.41186e-05
3.41114e-05
3.41042e-05
3.4097e-05
3.40897e-05
3.40822e-05
3.40747e-05
3.40671e-05
3.40595e-05
3.4052e-05
3.40446e-05
3.40374e-05
3.40301e-05
3.40229e-05
3.40156e-05
3.40084e-05
3.40014e-05
3.39945e-05
3.39879e-05
3.39816e-05
3.39754e-05
3.39695e-05
3.39638e-05
3.39583e-05
3.39529e-05
3.39478e-05
3.39427e-05
3.39376e-05
3.39323e-05
3.39268e-05
3.39208e-05
3.39145e-05
3.39073e-05
3.38998e-05
3.38913e-05
3.38824e-05
3.38726e-05
3.38625e-05
3.38516e-05
3.38406e-05
3.38289e-05
3.38172e-05
3.38045e-05
3.37918e-05
3.37778e-05
3.37635e-05
3.37476e-05
3.37314e-05
3.37135e-05
3.36958e-05
3.36765e-05
3.36578e-05
3.36376e-05
3.36182e-05
3.35972e-05
3.35771e-05
3.35552e-05
3.35347e-05
3.35124e-05
3.34918e-05
3.34694e-05
3.34487e-05
3.34255e-05
3.34037e-05
3.33786e-05
3.3354e-05
3.33256e-05
3.32962e-05
3.32613e-05
3.32232e-05
3.3175e-05
3.31197e-05
3.30453e-05
3.29559e-05
3.28322e-05
3.26655e-05
3.24651e-05
3.1984e-05
3.1228e-05
2.99863e-05
2.95113e-05
2.77778e-05
2.62228e-05
2.33607e-05
2.17378e-05
1.79801e-05
1.4268e-05
1.56679e-05
1.29852e-05
2.04041e-05
0.000147825
0.000111598
7.07601e-05
6.66721e-05
5.36911e-05
4.40182e-05
3.63447e-05
3.0657e-05
2.64322e-05
2.33039e-05
2.08956e-05
1.90231e-05
1.75279e-05
1.63298e-05
1.53591e-05
1.45721e-05
1.39338e-05
1.34192e-05
1.30123e-05
1.26998e-05
1.24716e-05
1.23211e-05
1.22437e-05
1.22358e-05
1.22955e-05
1.24229e-05
1.26191e-05
1.28811e-05
1.32035e-05
1.35839e-05
1.40206e-05
1.45146e-05
1.50677e-05
1.56422e-05
1.62327e-05
1.68383e-05
1.74586e-05
1.80931e-05
1.87419e-05
1.94049e-05
2.00826e-05
2.07748e-05
2.14832e-05
2.22096e-05
2.29563e-05
2.37185e-05
2.43305e-05
2.49426e-05
2.55555e-05
2.61692e-05
2.67841e-05
2.73999e-05
2.80164e-05
2.86323e-05
2.92469e-05
2.98584e-05
3.04654e-05
3.1066e-05
3.16607e-05
3.22474e-05
3.28266e-05
3.33987e-05
3.39628e-05
3.45187e-05
3.50658e-05
3.56044e-05
3.6134e-05
3.66549e-05
3.71663e-05
3.7669e-05
3.8162e-05
3.8646e-05
3.91198e-05
3.95843e-05
4.00381e-05
4.04827e-05
4.09167e-05
4.13415e-05
4.17559e-05
4.21624e-05
4.25589e-05
4.29486e-05
4.33295e-05
4.37051e-05
4.40729e-05
4.44369e-05
4.47942e-05
4.51492e-05
4.54984e-05
4.58462e-05
4.61888e-05
4.65301e-05
4.68694e-05
4.72074e-05
4.75428e-05
4.78747e-05
4.81713e-05
4.84157e-05
4.86515e-05
4.88794e-05
4.90996e-05
4.93121e-05
4.95171e-05
4.97147e-05
4.99051e-05
5.00886e-05
5.02653e-05
5.04353e-05
5.05989e-05
5.07563e-05
5.09077e-05
5.10532e-05
5.1193e-05
5.13274e-05
5.14565e-05
5.15804e-05
5.1699e-05
5.18127e-05
5.1922e-05
5.2027e-05
5.21278e-05
5.22245e-05
5.23174e-05
5.24064e-05
5.24918e-05
5.25738e-05
5.26526e-05
5.27284e-05
5.28015e-05
5.28722e-05
5.29406e-05
5.30069e-05
5.30711e-05
5.31335e-05
5.31941e-05
5.32531e-05
5.33104e-05
5.33663e-05
5.34208e-05
5.34739e-05
5.35259e-05
5.35769e-05
5.36268e-05
5.36759e-05
5.37243e-05
5.37721e-05
5.38193e-05
5.3866e-05
5.39124e-05
5.39583e-05
5.4004e-05
5.40494e-05
5.40947e-05
5.41399e-05
5.41851e-05
5.42305e-05
5.42762e-05
5.43222e-05
5.43686e-05
5.44156e-05
5.4463e-05
5.4511e-05
5.45597e-05
5.4609e-05
5.4659e-05
5.47098e-05
5.47615e-05
5.48142e-05
5.48678e-05
5.49226e-05
5.49786e-05
5.50359e-05
5.50947e-05
5.5155e-05
5.52168e-05
5.52803e-05
5.53455e-05
5.54123e-05
5.54809e-05
5.5551e-05
5.56229e-05
5.56963e-05
5.57714e-05
5.58481e-05
5.59263e-05
5.60061e-05
5.60873e-05
5.61699e-05
5.62539e-05
5.63392e-05
5.6426e-05
5.65141e-05
5.66035e-05
5.66943e-05
5.67864e-05
5.68797e-05
5.69743e-05
5.70702e-05
5.71672e-05
5.72655e-05
5.7365e-05
5.74657e-05
5.75674e-05
5.76703e-05
5.77741e-05
5.78789e-05
5.79843e-05
5.80903e-05
5.81967e-05
5.83033e-05
5.84097e-05
5.85158e-05
5.86213e-05
5.87261e-05
5.883e-05
5.89327e-05
5.90341e-05
5.91339e-05
5.9232e-05
5.9328e-05
5.94219e-05
5.95135e-05
5.96026e-05
5.96891e-05
5.97729e-05
5.9854e-05
5.99325e-05
6.00082e-05
6.00811e-05
6.01514e-05
6.02193e-05
6.02848e-05
6.03484e-05
6.04101e-05
6.04701e-05
6.05286e-05
6.05855e-05
6.06413e-05
6.0696e-05
6.07497e-05
6.08028e-05
6.0855e-05
6.09068e-05
6.09579e-05
6.1008e-05
6.10572e-05
6.11056e-05
6.11531e-05
6.11999e-05
6.12458e-05
6.12907e-05
6.13345e-05
6.1377e-05
6.14179e-05
6.1457e-05
6.1494e-05
6.15288e-05
6.15612e-05
6.15914e-05
6.16194e-05
6.16456e-05
6.16699e-05
6.16925e-05
6.17136e-05
6.17333e-05
6.17517e-05
6.17688e-05
6.17849e-05
6.17999e-05
6.1814e-05
6.1827e-05
6.18391e-05
6.18503e-05
6.18607e-05
6.18704e-05
6.18794e-05
6.18878e-05
6.18956e-05
6.19027e-05
6.19092e-05
6.19151e-05
6.19206e-05
6.1926e-05
6.19316e-05
6.19375e-05
6.1944e-05
6.19514e-05
6.19596e-05
6.19689e-05
6.19794e-05
6.1991e-05
6.20038e-05
6.20179e-05
6.20333e-05
6.205e-05
6.20681e-05
6.20876e-05
6.21084e-05
6.21305e-05
6.21537e-05
6.21777e-05
6.22025e-05
6.22277e-05
6.22532e-05
6.22788e-05
6.23044e-05
6.23299e-05
6.23553e-05
6.23806e-05
6.2406e-05
6.24314e-05
6.24571e-05
6.24833e-05
6.25099e-05
6.2537e-05
6.25647e-05
6.25929e-05
6.26216e-05
6.26507e-05
6.26803e-05
6.27103e-05
6.27405e-05
6.27711e-05
6.2802e-05
6.2833e-05
6.28642e-05
6.28955e-05
6.29267e-05
6.29576e-05
6.29882e-05
6.30183e-05
6.30478e-05
6.30767e-05
6.31051e-05
6.31329e-05
6.316e-05
6.31864e-05
6.3212e-05
6.32367e-05
6.32603e-05
6.32829e-05
6.33044e-05
6.33247e-05
6.33436e-05
6.33611e-05
6.33769e-05
6.33909e-05
6.34029e-05
6.34128e-05
6.34205e-05
6.34258e-05
6.34288e-05
6.34292e-05
6.34271e-05
6.34224e-05
6.34153e-05
6.34058e-05
6.33941e-05
6.33803e-05
6.33647e-05
6.33473e-05
6.33283e-05
6.33077e-05
6.32854e-05
6.32614e-05
6.32356e-05
6.32082e-05
6.3179e-05
6.31481e-05
6.31156e-05
6.30817e-05
6.30462e-05
6.30092e-05
6.29708e-05
6.29307e-05
6.2889e-05
6.28455e-05
6.28004e-05
6.27536e-05
6.27052e-05
6.26556e-05
6.26047e-05
6.25527e-05
6.24998e-05
6.24462e-05
6.23919e-05
6.23372e-05
6.22819e-05
6.22262e-05
6.217e-05
6.21132e-05
6.2056e-05
6.19984e-05
6.19406e-05
6.18827e-05
6.18248e-05
6.17669e-05
6.17091e-05
6.16513e-05
6.15936e-05
6.15358e-05
6.14779e-05
6.142e-05
6.13621e-05
6.13043e-05
6.12468e-05
6.11895e-05
6.11326e-05
6.1076e-05
6.10197e-05
6.09637e-05
6.0908e-05
6.08524e-05
6.07969e-05
6.07413e-05
6.06856e-05
6.06297e-05
6.05736e-05
6.05173e-05
6.04608e-05
6.04041e-05
6.03472e-05
6.02903e-05
6.02335e-05
6.01769e-05
6.01206e-05
6.00649e-05
6.00098e-05
5.99556e-05
5.99025e-05
5.98507e-05
5.98005e-05
5.97522e-05
5.97058e-05
5.96616e-05
5.96198e-05
5.95802e-05
5.95428e-05
5.95076e-05
5.94743e-05
5.94429e-05
5.94134e-05
5.93857e-05
5.93598e-05
5.93357e-05
5.93132e-05
5.92923e-05
5.92729e-05
5.92547e-05
5.92376e-05
5.92213e-05
5.92058e-05
5.91907e-05
5.91762e-05
5.9162e-05
5.91484e-05
5.91352e-05
5.91227e-05
5.91109e-05
5.90997e-05
5.90891e-05
5.90789e-05
5.90688e-05
5.90587e-05
5.90485e-05
5.9038e-05
5.90273e-05
5.90163e-05
5.90053e-05
5.89944e-05
5.89836e-05
5.8973e-05
5.89624e-05
5.89518e-05
5.89413e-05
5.8931e-05
5.8921e-05
5.89116e-05
5.89029e-05
5.88949e-05
5.88876e-05
5.88809e-05
5.88748e-05
5.88691e-05
5.88639e-05
5.88589e-05
5.88541e-05
5.8849e-05
5.88435e-05
5.8837e-05
5.88295e-05
5.88205e-05
5.88098e-05
5.87973e-05
5.8783e-05
5.87666e-05
5.87484e-05
5.87283e-05
5.87068e-05
5.86837e-05
5.86596e-05
5.86341e-05
5.86074e-05
5.8579e-05
5.85489e-05
5.85164e-05
5.84819e-05
5.84448e-05
5.84055e-05
5.83641e-05
5.83212e-05
5.82768e-05
5.82315e-05
5.81852e-05
5.8138e-05
5.80898e-05
5.80408e-05
5.79913e-05
5.79414e-05
5.78915e-05
5.78413e-05
5.77912e-05
5.77398e-05
5.76874e-05
5.76325e-05
5.75748e-05
5.75135e-05
5.74463e-05
5.73728e-05
5.72891e-05
5.71918e-05
5.70757e-05
5.69315e-05
5.67494e-05
5.65157e-05
5.61838e-05
5.58037e-05
5.49759e-05
5.36927e-05
5.22636e-05
5.0403e-05
4.79406e-05
4.4296e-05
3.88732e-05
3.23529e-05
2.7069e-05
1.99775e-05
1.89949e-05
2.11256e-05
3.25237e-05
0.000182564
0.000107796
6.8682e-05
6.86158e-05
7.28923e-05
8.15392e-05
9.09464e-05
7.91671e-05
6.98825e-05
6.23612e-05
5.61236e-05
5.09443e-05
4.65517e-05
4.28428e-05
3.96734e-05
3.69586e-05
3.45852e-05
3.24921e-05
3.06132e-05
2.88998e-05
2.73215e-05
2.58678e-05
2.45395e-05
2.33384e-05
2.22618e-05
2.1304e-05
2.04559e-05
1.97075e-05
1.90502e-05
1.8476e-05
1.79781e-05
1.75499e-05
1.71869e-05
1.6887e-05
1.66483e-05
1.64694e-05
1.63481e-05
1.62857e-05
1.62923e-05
1.63673e-05
1.65023e-05
1.66935e-05
1.69385e-05
1.7238e-05
1.7594e-05
1.80103e-05
1.84701e-05
1.89614e-05
1.94845e-05
2.00391e-05
2.06245e-05
2.12398e-05
2.18835e-05
2.25538e-05
2.32489e-05
2.39664e-05
2.47037e-05
2.54583e-05
2.62284e-05
2.70129e-05
2.78043e-05
2.84442e-05
2.90888e-05
2.97389e-05
3.03951e-05
3.10585e-05
3.17293e-05
3.24081e-05
3.30943e-05
3.37888e-05
3.44908e-05
3.52021e-05
3.59218e-05
3.66509e-05
3.73884e-05
3.81367e-05
3.88947e-05
3.96639e-05
4.04424e-05
4.12298e-05
4.20225e-05
4.28262e-05
4.36374e-05
4.44596e-05
4.52877e-05
4.61273e-05
4.69709e-05
4.78266e-05
4.86836e-05
4.95534e-05
5.04203e-05
5.13015e-05
5.21748e-05
5.30522e-05
5.37351e-05
5.43661e-05
5.49876e-05
5.55993e-05
5.62009e-05
5.67918e-05
5.73711e-05
5.79384e-05
5.84932e-05
5.90357e-05
5.95659e-05
6.00837e-05
6.0589e-05
6.10816e-05
6.15615e-05
6.20285e-05
6.24827e-05
6.29241e-05
6.33529e-05
6.37691e-05
6.41732e-05
6.45651e-05
6.49446e-05
6.53126e-05
6.56698e-05
6.60164e-05
6.63529e-05
6.66796e-05
6.69968e-05
6.73047e-05
6.76035e-05
6.78936e-05
6.81752e-05
6.84488e-05
6.87148e-05
6.89737e-05
6.92257e-05
6.94712e-05
6.97104e-05
6.99436e-05
7.0171e-05
7.03928e-05
7.06093e-05
7.08206e-05
7.1027e-05
7.12285e-05
7.14255e-05
7.16182e-05
7.18067e-05
7.19914e-05
7.21724e-05
7.235e-05
7.25243e-05
7.26955e-05
7.28639e-05
7.30295e-05
7.31924e-05
7.3353e-05
7.35113e-05
7.36676e-05
7.38221e-05
7.39751e-05
7.41269e-05
7.42777e-05
7.44278e-05
7.45772e-05
7.47262e-05
7.48749e-05
7.50234e-05
7.5172e-05
7.53207e-05
7.54699e-05
7.56196e-05
7.57702e-05
7.59219e-05
7.60749e-05
7.62296e-05
7.63861e-05
7.65448e-05
7.67059e-05
7.68697e-05
7.70362e-05
7.72057e-05
7.73781e-05
7.75534e-05
7.77316e-05
7.79128e-05
7.80968e-05
7.82835e-05
7.8473e-05
7.86649e-05
7.88593e-05
7.9056e-05
7.92548e-05
7.94557e-05
7.96586e-05
7.98634e-05
8.00702e-05
8.02788e-05
8.04891e-05
8.0701e-05
8.09145e-05
8.11294e-05
8.13457e-05
8.15634e-05
8.17824e-05
8.20027e-05
8.22243e-05
8.2447e-05
8.26708e-05
8.28955e-05
8.31208e-05
8.33467e-05
8.35726e-05
8.37983e-05
8.40233e-05
8.42472e-05
8.44695e-05
8.46899e-05
8.4908e-05
8.51235e-05
8.53361e-05
8.55453e-05
8.57508e-05
8.59522e-05
8.61493e-05
8.63415e-05
8.65288e-05
8.67108e-05
8.68874e-05
8.70585e-05
8.7224e-05
8.73839e-05
8.75383e-05
8.76874e-05
8.78315e-05
8.79709e-05
8.81061e-05
8.82374e-05
8.83652e-05
8.84898e-05
8.86114e-05
8.87303e-05
8.88467e-05
8.89611e-05
8.90737e-05
8.91849e-05
8.92946e-05
8.94034e-05
8.95112e-05
8.96176e-05
8.97228e-05
8.98267e-05
8.99295e-05
9.0031e-05
9.01312e-05
9.02298e-05
9.03266e-05
9.04212e-05
9.0513e-05
9.06015e-05
9.06862e-05
9.07667e-05
9.08427e-05
9.09144e-05
9.09818e-05
9.10453e-05
9.11051e-05
9.11617e-05
9.12152e-05
9.1266e-05
9.13144e-05
9.13608e-05
9.14052e-05
9.1448e-05
9.14892e-05
9.15287e-05
9.15666e-05
9.16029e-05
9.16377e-05
9.16711e-05
9.17033e-05
9.17341e-05
9.17637e-05
9.1792e-05
9.18191e-05
9.1845e-05
9.18702e-05
9.18952e-05
9.19203e-05
9.19462e-05
9.19733e-05
9.2002e-05
9.20326e-05
9.20653e-05
9.21004e-05
9.21379e-05
9.21779e-05
9.22203e-05
9.22653e-05
9.23128e-05
9.23628e-05
9.24153e-05
9.24701e-05
9.25271e-05
9.2586e-05
9.26463e-05
9.27079e-05
9.27703e-05
9.28332e-05
9.28964e-05
9.29596e-05
9.30226e-05
9.30855e-05
9.31482e-05
9.3211e-05
9.3274e-05
9.33375e-05
9.34018e-05
9.34669e-05
9.3533e-05
9.36001e-05
9.36683e-05
9.37374e-05
9.38074e-05
9.38781e-05
9.39495e-05
9.40213e-05
9.40934e-05
9.41657e-05
9.4238e-05
9.43102e-05
9.4382e-05
9.44531e-05
9.45232e-05
9.45921e-05
9.46595e-05
9.47253e-05
9.47895e-05
9.48519e-05
9.49127e-05
9.49716e-05
9.50287e-05
9.50838e-05
9.51366e-05
9.51872e-05
9.52353e-05
9.52809e-05
9.53238e-05
9.53638e-05
9.54007e-05
9.54342e-05
9.54639e-05
9.54897e-05
9.55113e-05
9.55286e-05
9.55414e-05
9.55497e-05
9.55532e-05
9.55521e-05
9.55462e-05
9.55357e-05
9.55208e-05
9.55018e-05
9.54789e-05
9.54524e-05
9.54226e-05
9.53897e-05
9.53537e-05
9.53147e-05
9.52726e-05
9.52272e-05
9.51787e-05
9.51271e-05
9.50724e-05
9.50147e-05
9.4954e-05
9.48906e-05
9.48244e-05
9.47553e-05
9.46835e-05
9.46086e-05
9.45307e-05
9.44499e-05
9.43662e-05
9.428e-05
9.41914e-05
9.41007e-05
9.40083e-05
9.39143e-05
9.3819e-05
9.37228e-05
9.36257e-05
9.35279e-05
9.34293e-05
9.33299e-05
9.32296e-05
9.31283e-05
9.30264e-05
9.29238e-05
9.28208e-05
9.27175e-05
9.26142e-05
9.25109e-05
9.24076e-05
9.23043e-05
9.2201e-05
9.20977e-05
9.19943e-05
9.1891e-05
9.1788e-05
9.16854e-05
9.15832e-05
9.14816e-05
9.13805e-05
9.128e-05
9.11799e-05
9.10801e-05
9.09805e-05
9.08809e-05
9.07812e-05
9.06811e-05
9.05806e-05
9.04796e-05
9.03781e-05
9.0276e-05
9.01735e-05
9.00706e-05
8.99676e-05
8.98646e-05
8.97621e-05
8.96603e-05
8.95595e-05
8.94601e-05
8.93625e-05
8.92672e-05
8.91746e-05
8.90851e-05
8.89993e-05
8.89176e-05
8.88403e-05
8.87675e-05
8.86993e-05
8.86356e-05
8.85761e-05
8.85206e-05
8.84687e-05
8.84204e-05
8.83754e-05
8.83335e-05
8.82948e-05
8.82589e-05
8.82257e-05
8.81949e-05
8.81663e-05
8.81396e-05
8.81144e-05
8.80905e-05
8.80676e-05
8.80455e-05
8.80242e-05
8.80036e-05
8.79839e-05
8.79652e-05
8.79475e-05
8.79309e-05
8.79152e-05
8.79001e-05
8.78854e-05
8.78706e-05
8.78556e-05
8.784e-05
8.78238e-05
8.78071e-05
8.779e-05
8.77728e-05
8.77557e-05
8.77386e-05
8.77215e-05
8.77044e-05
8.76875e-05
8.76709e-05
8.76551e-05
8.76403e-05
8.7627e-05
8.7615e-05
8.76044e-05
8.7595e-05
8.75865e-05
8.75788e-05
8.75718e-05
8.7565e-05
8.75582e-05
8.75506e-05
8.75418e-05
8.7531e-05
8.75179e-05
8.75017e-05
8.74822e-05
8.74589e-05
8.74318e-05
8.74005e-05
8.73655e-05
8.73264e-05
8.72843e-05
8.72387e-05
8.71908e-05
8.71397e-05
8.70864e-05
8.70295e-05
8.69698e-05
8.69058e-05
8.68383e-05
8.67659e-05
8.66902e-05
8.66102e-05
8.65281e-05
8.64431e-05
8.63572e-05
8.62693e-05
8.61808e-05
8.60904e-05
8.59996e-05
8.59074e-05
8.58155e-05
8.57234e-05
8.56317e-05
8.55397e-05
8.54469e-05
8.53524e-05
8.5255e-05
8.51531e-05
8.50466e-05
8.49313e-05
8.48076e-05
8.46693e-05
8.45131e-05
8.43304e-05
8.41106e-05
8.38377e-05
8.34957e-05
8.30166e-05
8.24477e-05
8.13477e-05
7.96907e-05
7.76801e-05
7.44141e-05
6.88109e-05
6.15435e-05
5.26075e-05
4.19573e-05
3.68872e-05
2.62464e-05
2.27842e-05
2.56081e-05
3.57802e-05
0.000167677
9.94559e-05
6.58268e-05
6.50706e-05
6.92422e-05
7.59529e-05
9.04958e-05
0.000101728
0.000122982
0.000114977
0.000106899
9.97462e-05
9.3272e-05
8.747e-05
8.22534e-05
7.757e-05
7.33152e-05
6.94297e-05
6.5845e-05
6.24992e-05
5.9357e-05
5.64108e-05
5.3659e-05
5.11002e-05
4.87312e-05
4.65457e-05
4.45336e-05
4.26806e-05
4.09742e-05
3.94038e-05
3.79574e-05
3.66246e-05
3.53937e-05
3.4256e-05
3.32045e-05
3.22342e-05
3.13408e-05
3.05015e-05
2.96421e-05
2.87458e-05
2.78554e-05
2.70085e-05
2.62257e-05
2.55153e-05
2.48796e-05
2.43184e-05
2.38318e-05
2.34192e-05
2.30789e-05
2.28092e-05
2.26076e-05
2.2472e-05
2.24006e-05
2.23917e-05
2.24441e-05
2.25566e-05
2.27282e-05
2.29592e-05
2.32491e-05
2.35975e-05
2.40041e-05
2.44657e-05
2.49813e-05
2.55496e-05
2.61701e-05
2.68422e-05
2.75571e-05
2.83089e-05
2.90984e-05
2.99258e-05
3.07913e-05
3.16948e-05
3.2636e-05
3.36141e-05
3.46281e-05
3.56768e-05
3.67588e-05
3.78727e-05
3.90171e-05
4.01909e-05
4.13928e-05
4.26214e-05
4.38757e-05
4.51542e-05
4.64551e-05
4.77759e-05
4.91132e-05
5.04626e-05
5.18184e-05
5.31745e-05
5.45239e-05
5.58608e-05
5.71807e-05
5.84788e-05
5.97501e-05
6.0992e-05
6.22035e-05
6.33844e-05
6.4535e-05
6.56552e-05
6.67456e-05
6.78074e-05
6.88417e-05
6.98491e-05
7.08301e-05
7.1785e-05
7.27124e-05
7.36118e-05
7.44835e-05
7.5328e-05
7.61459e-05
7.69381e-05
7.77053e-05
7.84483e-05
7.91683e-05
7.98652e-05
8.05403e-05
8.11956e-05
8.18321e-05
8.24507e-05
8.30523e-05
8.36376e-05
8.4207e-05
8.4761e-05
8.52997e-05
8.58235e-05
8.63328e-05
8.68282e-05
8.73103e-05
8.77797e-05
8.82369e-05
8.86825e-05
8.91168e-05
8.95403e-05
8.99535e-05
9.03567e-05
9.07503e-05
9.11346e-05
9.15099e-05
9.18764e-05
9.22345e-05
9.25845e-05
9.29267e-05
9.32615e-05
9.35893e-05
9.39103e-05
9.42249e-05
9.45335e-05
9.48361e-05
9.51333e-05
9.54252e-05
9.57121e-05
9.59946e-05
9.62729e-05
9.65476e-05
9.68192e-05
9.70881e-05
9.73549e-05
9.76199e-05
9.78834e-05
9.81458e-05
9.84072e-05
9.8668e-05
9.89283e-05
9.91886e-05
9.94493e-05
9.97107e-05
9.99733e-05
0.000100238
0.000100504
0.000100774
0.000101046
0.000101323
0.000101604
0.000101889
0.00010218
0.000102475
0.000102776
0.000103082
0.000103393
0.000103709
0.000104029
0.000104353
0.000104682
0.000105014
0.000105349
0.000105687
0.000106028
0.000106372
0.000106717
0.000107065
0.000107414
0.000107766
0.000108118
0.000108472
0.000108826
0.000109182
0.000109538
0.000109894
0.000110251
0.000110608
0.000110966
0.000111324
0.000111682
0.00011204
0.000112397
0.000112754
0.000113109
0.000113462
0.000113813
0.00011416
0.000114504
0.000114843
0.000115177
0.000115505
0.000115828
0.000116144
0.000116454
0.000116756
0.00011705
0.000117336
0.000117614
0.000117882
0.000118141
0.000118391
0.000118632
0.000118864
0.000119087
0.000119302
0.000119509
0.000119709
0.000119902
0.000120089
0.000120271
0.000120449
0.000120621
0.00012079
0.000120956
0.000121119
0.000121279
0.000121437
0.000121594
0.000121749
0.000121904
0.000122058
0.00012221
0.000122362
0.000122513
0.000122663