/*--------------------------------*- C++ -*----------------------------------*\
| =========                 |                                                 |
| \\      /  F ield         | foam-extend: Open Source CFD                    |
|  \\    /   O peration     | Version:     3.2                                |
|   \\  /    A nd           | Web:         http://www.foam-extend.org         |
|    \\/     M anipulation  | For copyright notice see file Copyright         |
\*---------------------------------------------------------------------------*/
FoamFile
{
    version     2.0;
    format      ascii;
    class       volScalarField;
    location    "120";
    object      omega;
}
// * * * * * * * * * * * * * * * * * * * * * * * * * * * * * * * * * * * * * //

dimensions      [0 0 -1 0 0 0 0];

internalField   nonuniform List<scalar> 
33000
(
26.1273
29.66
33.4496
37.3861
41.344
45.1979
48.8427
52.1864
55.1723
57.758
59.9354
61.7081
63.102
64.1464
64.8802
65.341
65.5704
65.6061
65.4855
65.2505
64.9249
64.5283
64.078
63.589
63.0751
62.5478
62.017
61.4925
60.9815
60.4847
60.0034
59.5394
59.0945
58.6695
58.2648
57.8806
57.5167
57.173
56.8487
56.5434
56.2564
55.9869
55.734
55.4967
55.2742
55.0657
54.8702
54.6872
54.5157
54.3552
54.2049
54.064
53.932
53.8081
53.6916
53.5819
53.4784
53.3805
53.2878
53.1999
53.1162
53.0365
52.9605
52.8879
52.8183
52.7516
52.6874
52.6256
52.566
52.5083
52.4524
52.398
52.3451
52.2935
52.243
52.1936
52.145
52.0973
52.0503
52.004
51.9585
51.9137
51.8696
51.8261
51.7832
51.7409
51.6992
51.658
51.6174
51.5772
51.5375
51.4983
51.4592
51.4204
51.3819
51.3435
51.3054
51.2676
51.23
51.1927
51.1557
51.1188
51.082
51.0452
51.0083
50.9712
50.9338
50.8961
50.858
50.8195
50.7806
50.7412
50.7013
50.661
50.6202
50.579
50.5372
50.4949
50.4522
50.4091
50.3655
50.3215
50.277
50.2322
50.1871
50.1416
50.0958
50.0498
50.0036
49.9572
49.9107
49.864
49.8172
49.7704
49.7235
49.6765
49.6296
49.5826
49.5356
49.4886
49.4417
49.3949
49.3482
49.3016
49.255
49.2087
49.1624
49.1164
49.0705
49.0248
48.9794
48.9341
48.8892
48.8445
48.8001
48.756
48.7123
48.669
48.626
48.5835
48.5414
48.4998
48.4586
48.4179
48.3777
48.338
48.2988
48.2602
48.2221
48.1845
48.1476
48.1112
48.0754
48.0402
48.0056
47.9716
47.9383
47.9055
47.8734
47.8419
47.8109
47.7806
47.7509
47.7218
47.6932
47.6653
47.638
47.6112
47.585
47.5594
47.5344
47.51
47.4861
47.4629
47.4402
47.4181
47.3966
47.3757
47.3554
47.3357
47.3165
47.298
47.28
47.2627
47.2459
47.2296
47.2139
47.1988
47.1841
47.1699
47.1562
47.1429
47.1301
47.1176
47.1054
47.0936
47.0821
47.0708
47.0598
47.049
47.0384
47.028
47.0176
47.0074
46.9973
46.9872
46.9771
46.9669
46.9564
46.9458
46.935
46.9239
46.9127
46.9014
46.89
46.8784
46.8667
46.8549
46.843
46.8312
46.8193
46.8075
46.7958
46.7842
46.7728
46.7614
46.7499
46.7385
46.727
46.7155
46.704
46.6925
46.6808
46.669
46.6572
46.6452
46.633
46.6206
46.6081
46.5955
46.5826
46.5697
46.5565
46.5432
46.5298
46.5162
46.5025
46.4887
46.4747
46.4606
46.4465
46.4323
46.418
46.4036
46.3892
46.3748
46.3604
46.3459
46.3315
46.3171
46.3027
46.2883
46.2739
46.2596
46.2454
46.2312
46.2172
46.2034
46.1897
46.1761
46.1628
46.1496
46.1366
46.1238
46.1112
46.0989
46.0868
46.0749
46.0633
46.0519
46.0407
46.0297
46.0189
46.0083
45.9979
45.9876
45.9774
45.9674
45.9575
45.9477
45.938
45.9285
45.9192
45.91
45.9009
45.892
45.8833
45.8747
45.8662
45.8579
45.8497
45.8416
45.8337
45.826
45.8183
45.8109
45.8036
45.7964
45.7894
45.7825
45.7757
45.769
45.7625
45.756
45.7496
45.7433
45.7372
45.731
45.725
45.719
45.713
45.707
45.701
45.695
45.689
45.6829
45.6766
45.6703
45.6638
45.6571
45.6501
45.643
45.6356
45.6279
45.62
45.6118
45.6033
45.5945
45.5855
45.5762
45.5667
45.5569
45.5469
45.5366
45.5261
45.5154
45.5044
45.4932
45.4817
45.47
45.458
45.4458
45.4334
45.4207
45.4077
45.3944
45.3809
45.367
45.3529
45.3385
45.3237
45.3087
45.2934
45.2779
45.262
45.2459
45.2296
45.2131
45.1963
45.1794
45.1622
45.1448
45.1273
45.1097
45.0919
45.074
45.056
45.0379
45.0197
45.0014
44.983
44.9645
44.946
44.9274
44.9088
44.8901
44.8714
44.8527
44.834
44.8153
44.7965
44.7777
44.7589
44.7401
44.7212
44.7023
44.6833
44.6643
44.6451
44.626
44.6067
44.5874
44.568
44.5486
44.5291
44.5096
44.49
44.4705
44.4509
44.4313
44.4118
44.3924
44.373
44.3537
44.3346
44.3156
44.2968
44.2781
44.2596
44.2414
44.2233
44.2055
44.1879
44.1706
44.1536
44.1368
44.1204
44.1042
44.0883
44.0726
44.0572
44.042
44.0271
44.0123
43.9977
43.9833
43.9692
43.9552
43.9415
43.9279
43.9145
43.9013
43.8881
43.8751
43.8622
43.8494
43.8366
43.8239
43.8112
43.7987
43.7862
43.7738
43.7615
43.7493
43.7371
43.725
43.7131
43.7012
43.6894
43.6778
43.6663
43.6549
43.6437
43.6325
43.6214
43.6105
43.5995
43.5887
43.5778
43.567
43.5561
43.5451
43.5341
43.5231
43.5119
43.5007
43.4893
43.478
43.4665
43.4551
43.4436
43.4321
43.4204
43.4088
43.3969
43.3849
43.3727
43.3603
43.3475
43.3346
43.3213
43.3079
43.2941
43.2802
43.2659
43.2516
43.2369
43.2221
43.207
43.1919
43.1764
43.1609
43.1449
43.1286
43.1117
43.0943
43.0756
43.0563
43.0346
43.0115
42.9838
42.9531
42.9132
42.8667
42.802
42.7258
42.6072
42.5129
42.269
41.7774
41.2012
40.4851
39.3454
37.7539
35.4696
32.2236
26.5777
20.5712
22.4255
6.66842
2.204
3.78824
5.55441
7.40498
9.39777
11.408
13.397
15.3199
17.1649
18.8808
20.4563
21.8541
23.0753
24.1177
24.9993
25.7372
26.3518
26.871
27.3112
27.6814
27.9907
28.224
28.3368
28.3483
28.2743
28.1327
27.9482
27.7559
27.5904
27.4741
27.4104
27.3836
27.3816
27.3944
27.4142
27.4348
27.4519
27.4622
27.4637
27.455
27.4355
27.4054
27.365
27.3151
27.2566
27.1906
27.1191
27.0428
26.9622
26.8774
26.7886
26.6955
26.5981
26.4964
26.3904
26.2803
26.1663
26.0497
25.9316
25.8128
25.6939
25.5751
25.4566
25.3389
25.2219
25.106
24.9914
24.8783
24.7667
24.6569
24.549
24.4431
24.3393
24.2375
24.1379
24.0405
23.9452
23.852
23.7607
23.6712
23.5835
23.4977
23.4137
23.3314
23.2508
23.1719
23.0946
23.0188
22.9445
22.8718
22.8004
22.7307
22.6623
22.595
22.5287
22.463
22.3979
22.3335
22.2697
22.2063
22.1436
22.0816
22.0203
21.9596
21.8997
21.8403
21.7817
21.7237
21.6663
21.6096
21.5535
21.498
21.4431
21.3889
21.3353
21.2825
21.2305
21.1791
21.1283
21.0783
21.029
20.9805
20.9328
20.8858
20.8395
20.7939
20.7491
20.7049
20.6614
20.6185
20.5764
20.535
20.4942
20.4542
20.4149
20.3763
20.3385
20.3012
20.2647
20.2288
20.1935
20.1589
20.1249
20.0915
20.0586
20.0264
19.9947
19.9635
19.9329
19.9027
19.8731
19.8439
19.8152
19.7869
19.759
19.7315
19.7043
19.6775
19.6511
19.625
19.5993
19.5739
19.5489
19.5242
19.4999
19.4759
19.4522
19.4289
19.4058
19.3831
19.3606
19.3385
19.3167
19.2951
19.2739
19.2529
19.2323
19.2119
19.1919
19.1721
19.1526
19.1333
19.1143
19.0956
19.0771
19.0589
19.0408
19.0231
19.0055
18.9882
18.9711
18.9542
18.9375
18.921
18.9047
18.8886
18.8727
18.857
18.8415
18.8261
18.8108
18.7958
18.7808
18.766
18.7513
18.7368
18.7224
18.7081
18.694
18.6799
18.6661
18.6523
18.6387
18.6252
18.6118
18.5985
18.5853
18.5723
18.5593
18.5465
18.5338
18.5213
18.5088
18.4965
18.4842
18.4721
18.4601
18.448
18.436
18.4241
18.4122
18.4004
18.3886
18.3769
18.3653
18.3538
18.3424
18.3311
18.3198
18.3084
18.2971
18.2859
18.2746
18.2633
18.2523
18.2414
18.2307
18.2202
18.2097
18.1994
18.1892
18.1792
18.1693
18.1595
18.15
18.1405
18.1312
18.122
18.1129
18.1039
18.095
18.0861
18.0773
18.0686
18.06
18.0515
18.0431
18.0348
18.0265
18.0184
18.0103
18.0022
17.9942
17.9863
17.9784
17.9705
17.9627
17.9549
17.9472
17.9396
17.932
17.9245
17.917
17.9096
17.9022
17.8948
17.8875
17.8802
17.8729
17.8657
17.8586
17.8514
17.8443
17.8372
17.8301
17.823
17.8159
17.8088
17.8017
17.7946
17.7876
17.7806
17.7737
17.7669
17.7602
17.7535
17.747
17.7405
17.7341
17.7278
17.7214
17.7152
17.7089
17.7027
17.6965
17.6904
17.6844
17.6784
17.6724
17.6666
17.6608
17.655
17.6492
17.6435
17.6378
17.6322
17.6265
17.6209
17.6154
17.6099
17.6044
17.599
17.5936
17.5883
17.5829
17.5777
17.5724
17.5672
17.562
17.5569
17.5518
17.5467
17.5416
17.5366
17.5315
17.5265
17.5216
17.5166
17.5117
17.5068
17.502
17.4972
17.4924
17.4877
17.4829
17.4782
17.4734
17.4687
17.4638
17.459
17.4541
17.4492
17.4442
17.4393
17.4344
17.4295
17.4246
17.4197
17.4148
17.4098
17.4049
17.3999
17.395
17.39
17.3851
17.3802
17.3754
17.3705
17.3657
17.3609
17.3561
17.3513
17.3465
17.3417
17.337
17.3321
17.3273
17.3225
17.3177
17.3129
17.308
17.3032
17.2983
17.2934
17.2884
17.2834
17.2784
17.2734
17.2683
17.2633
17.2583
17.2533
17.2482
17.2432
17.2382
17.2332
17.2281
17.2231
17.2181
17.213
17.208
17.203
17.1981
17.1931
17.1882
17.1834
17.1785
17.1737
17.1689
17.1641
17.1593
17.1545
17.1497
17.1449
17.1401
17.1353
17.1304
17.1256
17.1207
17.1159
17.111
17.106
17.101
17.096
17.0909
17.0857
17.0805
17.0753
17.0701
17.0648
17.0594
17.054
17.0486
17.0431
17.0375
17.0319
17.0263
17.0206
17.015
17.0095
17.004
16.9986
16.9932
16.9879
16.9826
16.9773
16.972
16.9667
16.9614
16.9561
16.9509
16.9457
16.9406
16.9356
16.9306
16.9257
16.9207
16.9158
16.9109
16.9059
16.9009
16.8958
16.8908
16.8859
16.8809
16.876
16.8711
16.8663
16.8614
16.8566
16.8517
16.847
16.8422
16.8375
16.8327
16.828
16.8233
16.8187
16.814
16.8094
16.8048
16.8003
16.7957
16.7913
16.7867
16.7822
16.7776
16.773
16.7682
16.7634
16.7584
16.7536
16.7485
16.7438
16.7388
16.7342
16.7294
16.725
16.7202
16.7159
16.7111
16.7068
16.7019
16.6976
16.6928
16.6885
16.6837
16.6795
16.6747
16.6706
16.6659
16.662
16.6577
16.6545
16.6509
16.6488
16.6464
16.6464
16.6469
16.6511
16.6578
16.6709
16.6902
16.7214
16.7644
16.8336
16.9163
17.1163
17.4774
17.9191
18.422
19.1399
20.082
21.2974
22.4739
24.0081
24.814
20.1646
13.0405
7.24919
0.753115
1.00332
1.32597
1.72044
2.16586
2.67857
3.29083
3.95697
4.65836
5.3586
6.06389
6.75348
7.42252
8.06044
8.66589
9.23369
9.76691
10.2638
10.725
11.1508
11.5443
11.9086
12.2428
12.5478
12.8256
13.0797
13.3157
13.54
13.761
13.9875
14.2252
14.476
14.7403
14.9912
15.2258
15.4442
15.6458
15.8301
15.9963
16.1438
16.2719
16.3791
16.4656
16.5307
16.5746
16.597
16.5994
16.5838
16.5528
16.5093
16.4565
16.3976
16.336
16.2744
16.2147
16.1586
16.107
16.0585
16.0118
15.966
15.9204
15.8751
15.8298
15.7842
15.7382
15.6917
15.6448
15.5973
15.5493
15.5007
15.4514
15.4013
15.3503
15.298
15.2445
15.1895
15.133
15.075
15.0154
14.9543
14.892
14.8284
14.7639
14.6986
14.6328
14.5665
14.4998
14.4328
14.3655
14.2978
14.2299
14.1618
14.0935
14.025
13.9567
13.8886
13.8209
13.7535
13.6864
13.6197
13.5536
13.4881
13.4233
13.3592
13.2958
13.2333
13.1716
13.1108
13.051
12.9922
12.9343
12.8775
12.8218
12.7671
12.7135
12.661
12.6097
12.5595
12.5103
12.4622
12.4153
12.3694
12.3247
12.281
12.2385
12.1969
12.1564
12.1168
12.0782
12.0404
12.0036
11.9676
11.9325
11.8983
11.8649
11.8324
11.8007
11.7697
11.7396
11.7102
11.6816
11.6537
11.6265
11.6
11.5741
11.5489
11.5243
11.5003
11.4769
11.4541
11.4318
11.4101
11.3889
11.3681
11.3478
11.3279
11.3085
11.2894
11.2707
11.2524
11.2344
11.2168
11.1996
11.1827
11.1661
11.1498
11.1338
11.1181
11.1027
11.0875
11.0726
11.058
11.0436
11.0295
11.0155
11.0018
10.9883
10.975
10.9619
10.949
10.9363
10.9238
10.9115
10.8993
10.8873
10.8754
10.8637
10.8522
10.8408
10.8296
10.8185
10.8075
10.7967
10.786
10.7754
10.7649
10.7546
10.7444
10.7342
10.7242
10.7143
10.7044
10.6947
10.685
10.6754
10.6658
10.6563
10.6469
10.6376
10.6283
10.6191
10.61
10.6009
10.5919
10.583
10.5742
10.5655
10.5568
10.5482
10.5397
10.5313
10.523
10.5148
10.5067
10.4987
10.4909
10.483
10.4752
10.4673
10.4595
10.4517
10.4439
10.4361
10.4283
10.4205
10.4127
10.4049
10.3972
10.3895
10.3817
10.374
10.3662
10.3584
10.3506
10.3429
10.3352
10.3277
10.3201
10.3127
10.3053
10.298
10.2908
10.2836
10.2766
10.2697
10.2629
10.2563
10.2497
10.2433
10.237
10.2307
10.2246
10.2185
10.2125
10.2066
10.2008
10.195
10.1894
10.1839
10.1785
10.1731
10.1679
10.1627
10.1576
10.1525
10.1475
10.1425
10.1376
10.1327
10.1279
10.1231
10.1184
10.1138
10.1092
10.1046
10.1
10.0955
10.091
10.0865
10.082
10.0776
10.0732
10.0688
10.0644
10.06
10.0555
10.0511
10.0466
10.0421
10.0376
10.0331
10.0285
10.024
10.0195
10.0151
10.0107
10.0063
10.002
9.99776
9.99352
9.98931
9.9851
9.9809
9.97671
9.97253
9.96837
9.96424
9.96013
9.95607
9.95203
9.94804
9.94406
9.94011
9.93618
9.93224
9.92831
9.92439
9.92048
9.91658
9.91271
9.90887
9.90504
9.90123
9.89743
9.89365
9.88987
9.88612
9.88238
9.87866
9.87497
9.87128
9.8676
9.86393
9.86026
9.8566
9.85295
9.84931
9.8457
9.8421
9.83852
9.83498
9.83146
9.82799
9.82455
9.82115
9.81778
9.81443
9.8111
9.80776
9.80441
9.80106
9.79771
9.79435
9.79102
9.78771
9.78444
9.7812
9.77799
9.7748
9.77163
9.76847
9.76533
9.76219
9.75907
9.75598
9.75293
9.74992
9.74697
9.74407
9.74122
9.7384
9.73563
9.73288
9.73017
9.72749
9.72483
9.7222
9.71959
9.71702
9.71449
9.712
9.70954
9.70709
9.70465
9.70222
9.69978
9.69734
9.6949
9.69247
9.69006
9.68768
9.68534
9.68302
9.68073
9.67845
9.6762
9.67395
9.67172
9.6695
9.66729
9.6651
9.66293
9.66078
9.65867
9.65659
9.65455
9.65255
9.65058
9.64864
9.64674
9.64486
9.643
9.64116
9.63933
9.63752
9.63571
9.63392
9.63213
9.63036
9.62858
9.62681
9.62502
9.62321
9.62137
9.61949
9.61758
9.61562
9.61364
9.61164
9.6096
9.60753
9.60542
9.60325
9.60102
9.59871
9.59635
9.59392
9.59145
9.58896
9.58645
9.58394
9.58144
9.57897
9.57651
9.57407
9.57162
9.56916
9.56666
9.56414
9.56158
9.55901
9.55644
9.55388
9.55135
9.54885
9.54638
9.54394
9.54148
9.53901
9.53651
9.53397
9.5314
9.52884
9.52628
9.52375
9.52122
9.51869
9.51617
9.51364
9.51112
9.5086
9.5061
9.5036
9.50111
9.49861
9.49609
9.49357
9.49104
9.48853
9.48601
9.48352
9.48105
9.47861
9.47618
9.47378
9.47138
9.46899
9.46655
9.46408
9.46154
9.45894
9.45626
9.45356
9.45084
9.44816
9.44552
9.44296
9.44046
9.43802
9.43561
9.43321
9.43079
9.42839
9.42598
9.42363
9.42131
9.41906
9.41682
9.41463
9.41244
9.41031
9.40828
9.40644
9.40485
9.40358
9.40281
9.40252
9.40322
9.40492
9.40847
9.41433
9.4238
9.43827
9.46021
9.49198
9.54166
9.60668
9.73491
9.95693
10.2706
10.7062
11.3193
12.2373
13.564
15.4266
17.9537
20.7652
20.1591
14.3502
7.92193
0.608877
0.652879
0.719829
0.814205
0.933816
1.08117
1.26332
1.45569
1.65162
1.85224
2.05794
2.26572
2.47635
2.68576
2.89358
3.09745
3.29985
3.50094
3.703
3.90874
4.12015
4.33714
4.55763
4.77911
4.99941
5.2174
5.43281
5.64621
5.85854
6.07095
6.2854
6.50344
6.72682
6.95432
7.18479
7.41715
7.65022
7.88131
8.10326
8.31469
8.51967
8.72218
8.92358
9.12422
9.32368
9.52161
9.71009
9.88398
10.0433
10.1885
10.3201
10.4391
10.5467
10.6439
10.7316
10.8109
10.8824
10.9459
11.0012
11.0482
11.0867
11.1168
11.1384
11.1516
11.1565
11.1534
11.1424
11.1241
11.0992
11.0682
11.0321
10.9915
10.9474
10.9004
10.8515
10.8013
10.7504
10.6991
10.6477
10.5965
10.5455
10.4949
10.4446
10.3943
10.3438
10.2929
10.2414
10.189
10.1353
10.0802
10.0235
9.96507
9.90505
9.84355
9.78086
9.71739
9.65351
9.58947
9.52555
9.46196
9.39883
9.33635
9.27466
9.2139
9.15417
9.09558
9.03821
8.98211
8.92732
8.87386
8.82175
8.77098
8.72157
8.67349
8.62673
8.58132
8.53723
8.49437
8.45274
8.41232
8.37309
8.33504
8.29814
8.26236
8.22767
8.19404
8.16143
8.12978
8.09906
8.06923
8.04026
8.01214
7.98484
7.95834
7.93263
7.90769
7.88349
7.86004
7.8373
7.81525
7.79388
7.77316
7.75307
7.73359
7.7147
7.69639
7.67863
7.66141
7.64472
7.62853
7.61283
7.59761
7.58284
7.5685
7.55457
7.54103
7.52786
7.51505
7.50257
7.49041
7.47857
7.46704
7.4558
7.44484
7.43416
7.42374
7.41358
7.40366
7.39397
7.38451
7.37527
7.36623
7.35738
7.34871
7.34021
7.33188
7.32371
7.31569
7.30783
7.30011
7.29254
7.28509
7.27777
7.27057
7.26348
7.25651
7.24965
7.24291
7.23627
7.22974
7.2233
7.21696
7.21071
7.20455
7.19848
7.1925
7.18659
7.18077
7.17502
7.16933
7.1637
7.15814
7.15262
7.14715
7.14172
7.13633
7.13098
7.12567
7.12039
7.11515
7.10996
7.10481
7.0997
7.09463
7.0896
7.08461
7.07967
7.07477
7.06992
7.06512
7.06037
7.05569
7.05106
7.04649
7.04199
7.03755
7.03317
7.02884
7.02454
7.02026
7.01598
7.0117
7.00741
7.0031
6.99878
6.99444
6.99009
6.98573
6.98135
6.97694
6.97249
6.96801
6.96348
6.95893
6.95436
6.94981
6.94527
6.94074
6.93622
6.93172
6.92723
6.92276
6.91833
6.91394
6.90961
6.90535
6.90118
6.89707
6.89304
6.88906
6.88514
6.88126
6.87744
6.87366
6.86993
6.86627
6.86266
6.85911
6.85563
6.85221
6.84886
6.84558
6.84236
6.83919
6.83605
6.83294
6.82986
6.82681
6.8238
6.82083
6.81791
6.81502
6.81217
6.80934
6.80653
6.80373
6.80095
6.79818
6.79542
6.79269
6.78996
6.78726
6.78457
6.78188
6.77919
6.77649
6.77377
6.77102
6.76824
6.76544
6.76263
6.7598
6.75698
6.75416
6.75136
6.74859
6.74584
6.74312
6.74043
6.73775
6.73509
6.73242
6.72976
6.7271
6.72444
6.72178
6.71913
6.7165
6.71388
6.71128
6.7087
6.70614
6.70359
6.70105
6.69852
6.69597
6.69343
6.69089
6.68835
6.68582
6.6833
6.68079
6.67828
6.67578
6.67328
6.67077
6.66827
6.66578
6.66329
6.66081
6.65834
6.65586
6.65338
6.65089
6.64839
6.64589
6.64339
6.64089
6.63839
6.63589
6.63339
6.63091
6.62844
6.62598
6.62355
6.62113
6.61872
6.61632
6.61392
6.6115
6.60907
6.60663
6.60418
6.60173
6.5993
6.59688
6.59448
6.5921
6.58974
6.5874
6.58506
6.58272
6.58039
6.57806
6.57574
6.57345
6.57119
6.56896
6.56676
6.56459
6.56246
6.56035
6.55827
6.55621
6.55417
6.55215
6.55014
6.54816
6.5462
6.54428
6.54239
6.54054
6.53872
6.53691
6.53511
6.53332
6.53154
6.52975
6.52798
6.52623
6.5245
6.5228
6.52113
6.5195
6.51789
6.5163
6.51473
6.51318
6.51164
6.51012
6.50862
6.50714
6.50569
6.50426
6.50286
6.5015
6.50018
6.49889
6.49763
6.4964
6.49521
6.49405
6.4929
6.49178
6.49067
6.48958
6.48851
6.48746
6.48642
6.4854
6.48439
6.48338
6.48237
6.48135
6.48031
6.47925
6.47817
6.47709
6.47599
6.47489
6.47378
6.47265
6.47149
6.4703
6.46906
6.46778
6.46646
6.4651
6.46371
6.46231
6.46091
6.45951
6.45813
6.45676
6.4554
6.45405
6.45269
6.45132
6.44992
6.44849
6.44704
6.44558
6.44411
6.44266
6.44122
6.4398
6.4384
6.43699
6.43558
6.43414
6.43267
6.43118
6.42968
6.42818
6.42669
6.4252
6.42372
6.42222
6.42072
6.41921
6.4177
6.4162
6.41471
6.4132
6.41169
6.41016
6.40861
6.40705
6.40548
6.4039
6.40234
6.40077
6.39923
6.39769
6.39619
6.39468
6.39319
6.39167
6.39015
6.38856
6.38694
6.38525
6.38354
6.38178
6.38004
6.3783
6.37663
6.37497
6.37339
6.37178
6.37022
6.36861
6.36702
6.36539
6.36383
6.36224
6.36075
6.35923
6.35778
6.35628
6.35486
6.35344
6.35218
6.35103
6.35015
6.34956
6.34934
6.34975
6.35086
6.35315
6.35697
6.36314
6.37256
6.387
6.40802
6.44097
6.48606
6.57007
6.70577
6.91356
7.22164
7.67245
8.37333
9.46187
11.1811
13.6424
16.9413
18.5081
15.366
8.69277
0.58906
0.597971
0.61594
0.641636
0.676749
0.72218
0.781555
0.848761
0.924079
0.999803
1.07461
1.15013
1.2275
1.30573
1.38457
1.46341
1.54277
1.62275
1.70394
1.78718
1.87294
1.96106
2.0511
2.1425
2.23464
2.32695
2.41905
2.51082
2.60217
2.69302
2.78337
2.87337
2.96334
3.05352
3.14406
3.23507
3.32668
3.42114
3.52773
3.65039
3.78527
3.92813
4.07622
4.22818
4.38337
4.54158
4.70194
4.86321
5.02444
5.18479
5.34352
5.50008
5.65403
5.80505
5.95286
6.09728
6.23806
6.37514
6.50829
6.63713
6.76118
6.87926
6.99084
7.0954
7.19248
7.28165
7.36089
7.429
7.4863
7.53317
7.5701
7.59763
7.61639
7.62699
7.63007
7.62625
7.61606
7.59998
7.57841
7.55168
7.52007
7.48393
7.44348
7.39901
7.3509
7.29968
7.24594
7.19042
7.13389
7.07719
7.02108
6.96629
6.91357
6.86315
6.81474
6.7682
6.72338
6.68008
6.63809
6.5971
6.55701
6.51792
6.47986
6.44284
6.40685
6.37189
6.33786
6.30472
6.27243
6.24094
6.21024
6.18029
6.15108
6.12259
6.09481
6.06771
6.04136
6.0157
5.99071
5.96638
5.94271
5.9197
5.89735
5.87566
5.85461
5.8342
5.81438
5.79515
5.77648
5.75834
5.74073
5.72363
5.70703
5.69092
5.67531
5.66017
5.6455
5.63131
5.61756
5.60427
5.59142
5.57899
5.56698
5.55538
5.54416
5.53333
5.52288
5.51278
5.50304
5.49365
5.4846
5.47587
5.46746
5.45935
5.45152
5.44397
5.43668
5.42963
5.42282
5.41624
5.40988
5.40373
5.39779
5.39206
5.38651
5.38116
5.37598
5.37098
5.36615
5.36149
5.35697
5.3526
5.34837
5.34426
5.34028
5.33641
5.33266
5.32902
5.32548
5.32205
5.31871
5.31546
5.31231
5.30923
5.30624
5.30332
5.30048
5.29772
5.29503
5.29241
5.28985
5.28735
5.28492
5.28253
5.2802
5.27793
5.2757
5.27351
5.27137
5.26926
5.26718
5.26513
5.26311
5.2611
5.2591
5.25712
5.25514
5.25318
5.25122
5.24927
5.24733
5.2454
5.24348
5.24157
5.23966
5.23776
5.23586
5.23397
5.23209
5.23023
5.22837
5.22653
5.22471
5.2229
5.22111
5.21934
5.21759
5.21586
5.21414
5.21242
5.21068
5.20894
5.20716
5.20537
5.20354
5.20168
5.19979
5.19787
5.19592
5.19392
5.19188
5.18978
5.18764
5.18545
5.18323
5.18099
5.17874
5.17646
5.17417
5.17186
5.16953
5.16719
5.16484
5.1625
5.16018
5.15789
5.15563
5.15341
5.15122
5.14906
5.14691
5.14478
5.14267
5.14057
5.13849
5.13643
5.1344
5.13239
5.13042
5.12848
5.12658
5.12471
5.12289
5.12109
5.11931
5.11754
5.11579
5.11406
5.11234
5.11065
5.10899
5.10735
5.10572
5.10411
5.10251
5.10091
5.09932
5.09774
5.09616
5.0946
5.09304
5.0915
5.08997
5.08844
5.08692
5.08539
5.08385
5.08229
5.08071
5.07912
5.07751
5.0759
5.07428
5.07267
5.07106
5.06947
5.0679
5.06634
5.0648
5.06327
5.06174
5.06022
5.05869
5.05715
5.05561
5.05406
5.05252
5.05097
5.04943
5.0479
5.04638
5.04486
5.04334
5.04182
5.0403
5.03876
5.03722
5.03566
5.0341
5.03253
5.03096
5.02938
5.02779
5.02619
5.02458
5.02296
5.02133
5.01968
5.01803
5.01638
5.01471
5.01303
5.01133
5.00962
5.00789
5.00614
5.00438
5.0026
5.0008
4.999
4.99718
4.99535
4.99351
4.99167
4.98983
4.98799
4.98614
4.98429
4.98242
4.98054
4.97863
4.9767
4.97475
4.97279
4.97083
4.96887
4.96691
4.96496
4.96301
4.96107
4.95913
4.95718
4.95523
4.95327
4.95132
4.94937
4.94743
4.94551
4.9436
4.94172
4.93985
4.93799
4.93615
4.93432
4.9325
4.93069
4.92888
4.92709
4.92531
4.92356
4.92183
4.92013
4.91846
4.9168
4.91515
4.91351
4.91188
4.91025
4.90863
4.90702
4.90543
4.90386
4.90233
4.90082
4.89933
4.89787
4.89643
4.89501
4.8936
4.89222
4.89085
4.8895
4.88817
4.88687
4.88559
4.88435
4.88314
4.88195
4.8808
4.87968
4.87859
4.87752
4.87648
4.87546
4.87446
4.87347
4.87251
4.87157
4.87064
4.86974
4.86885
4.86798
4.86711
4.86625
4.86538
4.86451
4.86364
4.86278
4.86192
4.86106
4.86022
4.85937
4.85852
4.85766
4.85679
4.85589
4.85497
4.85404
4.85309
4.85214
4.85119
4.85024
4.84932
4.8484
4.84751
4.84663
4.84575
4.84486
4.84396
4.84304
4.84211
4.84116
4.84021
4.83926
4.83832
4.8374
4.83648
4.83556
4.83463
4.83367
4.8327
4.8317
4.83069
4.82968
4.82866
4.82764
4.82662
4.82558
4.82452
4.82346
4.82239
4.82132
4.82025
4.81918
4.81809
4.81697
4.81584
4.81469
4.81353
4.81235
4.81117
4.80998
4.8088
4.80762
4.80645
4.80527
4.80411
4.80293
4.80174
4.8005
4.79924
4.79791
4.79657
4.79517
4.79378
4.79238
4.79102
4.78965
4.78833
4.787
4.78568
4.78432
4.78298
4.78158
4.78023
4.77886
4.77754
4.7762
4.77491
4.77357
4.77229
4.771
4.76981
4.76869
4.76775
4.76701
4.76653
4.76649
4.76693
4.76819
4.77048
4.77442
4.78054
4.7902
4.8044
4.827
4.85877
4.91662
5.007
5.14919
5.3659
5.69189
6.21607
7.04359
8.48474
10.6237
13.7889
16.4616
15.4393
9.48064
0.586264
0.590086
0.599539
0.611161
0.624652
0.640504
0.659915
0.683832
0.713813
0.74657
0.781668
0.817497
0.85328
0.889012
0.925089
0.961745
0.998967
1.03667
1.07483
1.11357
1.15302
1.19319
1.23411
1.27581
1.31829
1.36149
1.40538
1.4499
1.49501
1.54058
1.58655
1.63288
1.67949
1.72645
1.77388
1.82188
1.87057
1.92072
1.97512
2.03492
2.0991
2.16649
2.23625
2.30788
2.38105
2.45562
2.53145
2.6084
2.68631
2.76506
2.84451
2.92454
3.00499
3.08575
3.16671
3.24776
3.32882
3.4098
3.49055
3.57093
3.65077
3.72981
3.80782
3.88455
3.95976
4.03325
4.10476
4.17392
4.24047
4.30413
4.36469
4.42197
4.4758
4.526
4.57248
4.61513
4.65382
4.68845
4.71887
4.74494
4.76666
4.78406
4.79713
4.80593
4.8106
4.8114
4.80867
4.80284
4.79444
4.78402
4.77215
4.76001
4.74782
4.73585
4.72428
4.71319
4.70259
4.69241
4.68262
4.67332
4.66454
4.65606
4.64774
4.6395
4.6313
4.62302
4.61392
4.60419
4.59397
4.58336
4.57244
4.56128
4.54991
4.53841
4.52678
4.51507
4.50347
4.49197
4.48054
4.46926
4.45816
4.44727
4.4366
4.42616
4.41595
4.40596
4.3962
4.38665
4.37733
4.36822
4.35933
4.35065
4.3422
4.33398
4.32599
4.31825
4.31076
4.3035
4.2965
4.28974
4.28323
4.27696
4.27093
4.26514
4.25958
4.25425
4.24915
4.24427
4.23961
4.23517
4.23094
4.22691
4.22309
4.21947
4.21603
4.21277
4.20969
4.20676
4.20399
4.20138
4.19892
4.1966
4.19442
4.19239
4.19049
4.18872
4.18708
4.18557
4.18418
4.1829
4.18173
4.18068
4.17972
4.17885
4.17808
4.1774
4.17679
4.17627
4.17583
4.17546
4.17516
4.17493
4.17475
4.17463
4.17457
4.17455
4.17458
4.17465
4.17476
4.17491
4.17508
4.17529
4.17551
4.17575
4.17601
4.17628
4.17657
4.17686
4.17715
4.17744
4.17773
4.17802
4.17829
4.17855
4.1788
4.17902
4.17923
4.17941
4.17958
4.17972
4.17985
4.17995
4.18004
4.1801
4.18014
4.18015
4.18014
4.18011
4.18005
4.17997
4.17988
4.17976
4.17963
4.17948
4.17931
4.17913
4.17894
4.17873
4.17851
4.17827
4.178
4.17771
4.17738
4.17701
4.17661
4.17617
4.1757
4.17519
4.17464
4.17405
4.17341
4.17273
4.17199
4.17122
4.17041
4.16957
4.1687
4.16781
4.1669
4.16596
4.16499
4.164
4.16299
4.16197
4.16095
4.15993
4.15893
4.15793
4.15695
4.15597
4.15498
4.154
4.15301
4.15202
4.15103
4.15004
4.14905
4.14806
4.14709
4.14613
4.14519
4.14427
4.14337
4.14249
4.14161
4.14074
4.13987
4.13901
4.13816
4.13733
4.13651
4.1357
4.13491
4.13411
4.13332
4.13253
4.13174
4.13096
4.13017
4.1294
4.12863
4.12788
4.12713
4.12639
4.12566
4.12492
4.12418
4.12344
4.12268
4.12192
4.12115
4.12037
4.11959
4.11882
4.11805
4.11729
4.11654
4.1158
4.11506
4.11433
4.1136
4.11286
4.11211
4.11135
4.11058
4.1098
4.109
4.1082
4.10738
4.10656
4.10573
4.1049
4.10405
4.10319
4.1023
4.1014
4.10047
4.09952
4.09854
4.09754
4.09653
4.09549
4.09442
4.09333
4.09221
4.09106
4.08989
4.08869
4.08747
4.08623
4.08497
4.08368
4.08236
4.08102
4.07965
4.07825
4.07683
4.07538
4.07391
4.07241
4.07089
4.06934
4.06778
4.0662
4.06461
4.063
4.06138
4.05974
4.05809
4.05641
4.0547
4.05297
4.05121
4.04944
4.04765
4.04586
4.04406
4.04226
4.04046
4.03866
4.03685
4.03503
4.03321
4.03137
4.02953
4.02769
4.02585
4.02402
4.0222
4.02038
4.01858
4.01678
4.01499
4.01321
4.01144
4.00967
4.0079
4.00614
4.00439
4.00266
4.00095
3.99926
3.9976
3.99595
3.99431
3.99268
3.99106
3.98944
3.98784
3.98624
3.98466
3.9831
3.98157
3.98006
3.97857
3.97711
3.97566
3.97424
3.97283
3.97144
3.97007
3.96872
3.9674
3.96609
3.96481
3.96356
3.96234
3.96114
3.95997
3.95883
3.95771
3.95662
3.95556
3.95451
3.95348
3.95247
3.95149
3.95052
3.94958
3.94866
3.94775
3.94687
3.94601
3.94515
3.94431
3.94348
3.94265
3.94184
3.94105
3.94028
3.93952
3.93879
3.93806
3.93734
3.93662
3.9359
3.93517
3.93444
3.93371
3.93298
3.93226
3.93155
3.93086
3.93018
3.92952
3.92887
3.92822
3.92758
3.92692
3.92625
3.92557
3.92488
3.92417
3.92347
3.92276
3.92206
3.92136
3.92064
3.91992
3.91917
3.91839
3.91759
3.91677
3.91594
3.91509
3.91424
3.91336
3.91247
3.91156
3.91062
3.90968
3.90873
3.90777
3.9068
3.90581
3.9048
3.90377
3.90271
3.90163
3.90053
3.89943
3.8983
3.89717
3.89603
3.89489
3.89374
3.89258
3.89141
3.89023
3.889
3.88775
3.88645
3.88512
3.88375
3.88238
3.88098
3.87961
3.87823
3.87688
3.87551
3.87415
3.87275
3.87135
3.86992
3.8685
3.86707
3.86568
3.86427
3.86288
3.86147
3.8601
3.85871
3.85739
3.85613
3.85499
3.85399
3.85318
3.85269
3.85254
3.85299
3.85416
3.85652
3.86043
3.86691
3.87666
3.89248
3.91543
3.95632
4.01902
4.12001
4.27575
4.51258
4.90629
5.5288
6.68106
8.50526
11.2945
14.4188
15.07
10.3537
0.586214
0.58995
0.598567
0.608348
0.61764
0.626888
0.635573
0.645168
0.65625
0.66935
0.68485
0.702031
0.72031
0.739524
0.759226
0.779144
0.799332
0.819904
0.840948
0.862859
0.885859
0.910021
0.935442
0.962246
0.990694
1.02091
1.05285
1.08641
1.12146
1.15786
1.19546
1.23419
1.274
1.31533
1.35901
1.40532
1.45413
1.50517
1.55834
1.61362
1.67092
1.7301
1.79097
1.85336
1.9171
1.98199
2.04782
2.11445
2.18168
2.24933
2.31715
2.3849
2.45233
2.51919
2.58522
2.65015
2.71368
2.77549
2.83522
2.89252
2.94702
2.99837
3.04638
3.09122
3.13352
3.17415
3.21369
3.2523
3.29003
3.32689
3.36285
3.39786
3.43183
3.46463
3.49615
3.52641
3.55536
3.5829
3.60893
3.63338
3.65619
3.67713
3.6961
3.7128
3.72726
3.73949
3.74955
3.75752
3.76351
3.76764
3.77007
3.77102
3.77074
3.76941
3.76724
3.76437
3.76095
3.75707
3.75285
3.74839
3.74375
3.73897
3.73408
3.72908
3.72402
3.71889
3.71363
3.70819
3.70256
3.69674
3.69059
3.68411
3.67738
3.67041
3.6633
3.65608
3.649
3.64213
3.6355
3.6291
3.62293
3.61698
3.61113
3.60528
3.5995
3.59381
3.58822
3.58276
3.57742
3.57221
3.56712
3.56216
3.55738
3.55277
3.54835
3.54411
3.54005
3.53617
3.53248
3.52896
3.52563
3.52249
3.51952
3.51673
3.51412
3.51168
3.50941
3.50732
3.50539
3.50363
3.50203
3.50059
3.49931
3.49818
3.4972
3.49636
3.49565
3.49508
3.49463
3.49431
3.49411
3.49403
3.49407
3.49423
3.4945
3.49487
3.49536
3.49595
3.49664
3.49742
3.49831
3.49928
3.50033
3.50147
3.50268
3.50397
3.50532
3.50674
3.50822
3.50975
3.51133
3.51295
3.5146
3.51629
3.518
3.51973
3.52147
3.52321
3.52496
3.52671
3.52845
3.53017
3.53188
3.53357
3.53523
3.53687
3.53848
3.54005
3.5416
3.54311
3.54458
3.54601
3.5474
3.54875
3.55005
3.55132
3.55254
3.55372
3.55485
3.55594
3.557
3.55801
3.55899
3.55992
3.56081
3.56166
3.56246
3.56323
3.56396
3.56465
3.5653
3.56592
3.5665
3.56705
3.56757
3.56806
3.56852
3.56895
3.56935
3.56973
3.57007
3.57038
3.57066
3.5709
3.57111
3.57129
3.57144
3.57156
3.57165
3.5717
3.57171
3.57169
3.57163
3.57154
3.57142
3.57128
3.57112
3.57095
3.57075
3.57054
3.5703
3.57005
3.56978
3.56949
3.5692
3.56891
3.56862
3.56833
3.56805
3.56775
3.56745
3.56714
3.56682
3.56649
3.56615
3.5658
3.56545
3.56509
3.56474
3.56439
3.56405
3.56373
3.56342
3.56312
3.56282
3.56253
3.56224
3.56195
3.56167
3.5614
3.56114
3.56088
3.56063
3.56038
3.56014
3.55989
3.55964
3.55939
3.55914
3.5589
3.55867
3.55845
3.55823
3.55803
3.55783
3.55764
3.55745
3.55726
3.55707
3.55687
3.55668
3.55648
3.55628
3.55609
3.5559
3.5557
3.55551
3.55532
3.55513
3.55493
3.55472
3.55449
3.55424
3.55398
3.55368
3.55336
3.55302
3.55265
3.55226
3.55184
3.55139
3.55092
3.55042
3.54989
3.54932
3.54871
3.54805
3.54736
3.54663
3.54586
3.54504
3.54419
3.5433
3.54237
3.54139
3.54037
3.53931
3.53821
3.53708
3.53591
3.53471
3.53347
3.53221
3.5309
3.52956
3.5282
3.52679
3.52536
3.5239
3.52241
3.52089
3.51934
3.51777
3.51617
3.51456
3.51293
3.51128
3.50961
3.50791
3.5062
3.50447
3.5027
3.50092
3.49912
3.49731
3.49549
3.49366
3.49183
3.48999
3.48815
3.48631
3.48446
3.4826
3.48073
3.47886
3.47699
3.47511
3.47325
3.47139
3.46953
3.46769
3.46585
3.46402
3.4622
3.46039
3.45859
3.45679
3.455
3.45322
3.45146
3.44973
3.44801