/*--------------------------------*- C++ -*----------------------------------*\
| =========                 |                                                 |
| \\      /  F ield         | foam-extend: Open Source CFD                    |
|  \\    /   O peration     | Version:     3.2                                |
|   \\  /    A nd           | Web:         http://www.foam-extend.org         |
|    \\/     M anipulation  | For copyright notice see file Copyright         |
\*---------------------------------------------------------------------------*/
FoamFile
{
    version     2.0;
    format      ascii;
    class       surfaceScalarField;
    location    "120";
    object      phi;
}
// * * * * * * * * * * * * * * * * * * * * * * * * * * * * * * * * * * * * * //

dimensions      [0 3 -1 0 0 0 0];

internalField   nonuniform List<scalar> 
65390
(
3.73887e-05
6.113e-07
3.68029e-05
5.85758e-07
3.60827e-05
7.2028e-07
3.53707e-05
7.11947e-07
3.4632e-05
7.38765e-07
3.39463e-05
6.85696e-07
3.3272e-05
6.74233e-07
3.26474e-05
6.24594e-07
3.20378e-05
6.09587e-07
3.14614e-05
5.76425e-07
3.09039e-05
5.57563e-07
3.03762e-05
5.27694e-07
2.98692e-05
5.06971e-07
2.9385e-05
4.84231e-07
2.89178e-05
4.67118e-07
2.8471e-05
4.46812e-07
2.80444e-05
4.26589e-07
2.76377e-05
4.06784e-07
2.72472e-05
3.90499e-07
2.68722e-05
3.7496e-07
2.65123e-05
3.59919e-07
2.61674e-05
3.44837e-07
2.58378e-05
3.29675e-07
2.55239e-05
3.13823e-07
2.52264e-05
2.9756e-07
2.49454e-05
2.8098e-07
2.46806e-05
2.64765e-07
2.44307e-05
2.49951e-07
2.41939e-05
2.36741e-07
2.39695e-05
2.24476e-07
2.37568e-05
2.12709e-07
2.35555e-05
2.01242e-07
2.33652e-05
1.90313e-07
2.31852e-05
1.79974e-07
2.30151e-05
1.70107e-07
2.28545e-05
1.60589e-07
2.27031e-05
1.51479e-07
2.25602e-05
1.42826e-07
2.24257e-05
1.34521e-07
2.22991e-05
1.26579e-07
2.218e-05
1.19097e-07
2.20679e-05
1.12129e-07
2.19622e-05
1.05662e-07
2.18626e-05
9.96164e-08
2.17687e-05
9.39667e-08
2.168e-05
8.86224e-08
2.15965e-05
8.3575e-08
2.15176e-05
7.88314e-08
2.14433e-05
7.43734e-08
2.13731e-05
7.01726e-08
2.13069e-05
6.62261e-08
2.12443e-05
6.25097e-08
2.11853e-05
5.90647e-08
2.11293e-05
5.59341e-08
2.10763e-05
5.30619e-08
2.10259e-05
5.03876e-08
2.09781e-05
4.78366e-08
2.09326e-05
4.54519e-08
2.08893e-05
4.32993e-08
2.0848e-05
4.13302e-08
2.08085e-05
3.94747e-08
2.07708e-05
3.77029e-08
2.07348e-05
3.60422e-08
2.07003e-05
3.44627e-08
2.06673e-05
3.29561e-08
2.06358e-05
3.15297e-08
2.06056e-05
3.01885e-08
2.05767e-05
2.89296e-08
2.05489e-05
2.77627e-08
2.05222e-05
2.6687e-08
2.04965e-05
2.57109e-08
2.04717e-05
2.48191e-08
2.04477e-05
2.39824e-08
2.04245e-05
2.32012e-08
2.0402e-05
2.25077e-08
2.03801e-05
2.19458e-08
2.03586e-05
2.14434e-08
2.03377e-05
2.09322e-08
2.03173e-05
2.03567e-08
2.02977e-05
1.96904e-08
2.02786e-05
1.90992e-08
2.026e-05
1.86055e-08
2.02418e-05
1.81139e-08
2.02242e-05
1.76375e-08
2.0207e-05
1.71756e-08
2.01903e-05
1.67351e-08
2.0174e-05
1.63137e-08
2.01581e-05
1.59149e-08
2.01425e-05
1.55461e-08
2.01273e-05
1.52058e-08
2.01124e-05
1.49342e-08
2.00976e-05
1.48168e-08
2.00828e-05
1.47309e-08
2.00683e-05
1.45366e-08
2.0054e-05
1.42877e-08
2.004e-05
1.40277e-08
2.00262e-05
1.37737e-08
2.00127e-05
1.35161e-08
1.99995e-05
1.31957e-08
1.99866e-05
1.28774e-08
1.99739e-05
1.27036e-08
1.99613e-05
1.26295e-08
1.99487e-05
1.25832e-08
1.99361e-05
1.2565e-08
1.99236e-05
1.25663e-08
1.9911e-05
1.25845e-08
1.98984e-05
1.26211e-08
1.98857e-05
1.26777e-08
1.98729e-05
1.27565e-08
1.98601e-05
1.28576e-08
1.98471e-05
1.29824e-08
1.9834e-05
1.31206e-08
1.98207e-05
1.32827e-08
1.98072e-05
1.34309e-08
1.97937e-05
1.35657e-08
1.97798e-05
1.38352e-08
1.97657e-05
1.41295e-08
1.97514e-05
1.4297e-08
1.9737e-05
1.44584e-08
1.97223e-05
1.46532e-08
1.97075e-05
1.4847e-08
1.96924e-05
1.50462e-08
1.96772e-05
1.5249e-08
1.96617e-05
1.54637e-08
1.9646e-05
1.56937e-08
1.96301e-05
1.59598e-08
1.96138e-05
1.62613e-08
1.9597e-05
1.67575e-08
1.95796e-05
1.74148e-08
1.9563e-05
1.65782e-08
1.95479e-05
1.51254e-08
1.95333e-05
1.46201e-08
1.95185e-05
1.4754e-08
1.95033e-05
1.52621e-08
1.94877e-05
1.55784e-08
1.94718e-05
1.58506e-08
1.94558e-05
1.60722e-08
1.94395e-05
1.62505e-08
1.94231e-05
1.64038e-08
1.94066e-05
1.6531e-08
1.93899e-05
1.66407e-08
1.93732e-05
1.67299e-08
1.93564e-05
1.68026e-08
1.93396e-05
1.68572e-08
1.93227e-05
1.68957e-08
1.93057e-05
1.69184e-08
1.92888e-05
1.6924e-08
1.92719e-05
1.69139e-08
1.9255e-05
1.68956e-08
1.92381e-05
1.68686e-08
1.92213e-05
1.68323e-08
1.92045e-05
1.67882e-08
1.91878e-05
1.67332e-08
1.91711e-05
1.66679e-08
1.91545e-05
1.65935e-08
1.9138e-05
1.651e-08
1.91216e-05
1.64128e-08
1.91053e-05
1.63016e-08
1.90891e-05
1.61818e-08
1.90731e-05
1.60567e-08
1.90571e-05
1.59238e-08
1.90414e-05
1.57858e-08
1.90257e-05
1.5642e-08
1.90102e-05
1.54957e-08
1.89949e-05
1.53438e-08
1.89797e-05
1.51881e-08
1.89647e-05
1.5027e-08
1.89498e-05
1.48628e-08
1.89351e-05
1.46946e-08
1.89206e-05
1.45239e-08
1.89062e-05
1.43506e-08
1.88921e-05
1.41777e-08
1.8878e-05
1.40066e-08
1.88642e-05
1.38389e-08
1.88505e-05
1.3675e-08
1.8837e-05
1.3515e-08
1.88237e-05
1.33562e-08
1.88105e-05
1.31992e-08
1.87974e-05
1.30443e-08
1.87845e-05
1.28917e-08
1.87718e-05
1.274e-08
1.87592e-05
1.25903e-08
1.87468e-05
1.24394e-08
1.87345e-05
1.229e-08
1.87223e-05
1.2135e-08
1.87104e-05
1.19796e-08
1.86985e-05
1.18211e-08
1.86869e-05
1.16624e-08
1.86754e-05
1.15027e-08
1.8664e-05
1.13387e-08
1.86529e-05
1.11707e-08
1.86419e-05
1.09937e-08
1.86311e-05
1.08071e-08
1.86204e-05
1.06107e-08
1.861e-05
1.04068e-08
1.85998e-05
1.01969e-08
1.85899e-05
9.98249e-09
1.85801e-05
9.76485e-09
1.85706e-05
9.54163e-09
1.85612e-05
9.31474e-09
1.85522e-05
9.08406e-09
1.85433e-05
8.84913e-09
1.85347e-05
8.6097e-09
1.85263e-05
8.36852e-09
1.85182e-05
8.12601e-09
1.85103e-05
7.89187e-09
1.85026e-05
7.66669e-09
1.84952e-05
7.45037e-09
1.84879e-05
7.24306e-09
1.84809e-05
7.0438e-09
1.84741e-05
6.85077e-09
1.84674e-05
6.66493e-09
1.84609e-05
6.48806e-09
1.84546e-05
6.32167e-09
1.84484e-05
6.16125e-09
1.84424e-05
6.00608e-09
1.84366e-05
5.85784e-09
1.84308e-05
5.71737e-09
1.84253e-05
5.58565e-09
1.84198e-05
5.46151e-09
1.84144e-05
5.34506e-09
1.84092e-05
5.232e-09
1.84041e-05
5.11575e-09
1.83991e-05
4.98883e-09
1.83943e-05
4.85632e-09
1.83895e-05
4.74209e-09
1.83848e-05
4.69924e-09
1.83801e-05
4.71519e-09
1.83754e-05
4.7396e-09
1.83706e-05
4.76819e-09
1.83658e-05
4.79542e-09
1.8361e-05
4.81888e-09
1.83561e-05
4.83725e-09
1.83513e-05
4.85199e-09
1.83464e-05
4.865e-09
1.83415e-05
4.87938e-09
1.83366e-05
4.89594e-09
1.83317e-05
4.91559e-09
1.83268e-05
4.93995e-09
1.83218e-05
4.96794e-09
1.83168e-05
5.00052e-09
1.83118e-05
5.0353e-09
1.83067e-05
5.07439e-09
1.83016e-05
5.11574e-09
1.82964e-05
5.16032e-09
1.82912e-05
5.20789e-09
1.8286e-05
5.25697e-09
1.82807e-05
5.3059e-09
1.82753e-05
5.35506e-09
1.82699e-05
5.40416e-09
1.82645e-05
5.45204e-09
1.8259e-05
5.49818e-09
1.82534e-05
5.54287e-09
1.82478e-05
5.5874e-09
1.82422e-05
5.63349e-09
1.82365e-05
5.68167e-09
1.82308e-05
5.7303e-09
1.8225e-05
5.77908e-09
1.82192e-05
5.82585e-09
1.82133e-05
5.86951e-09
1.82074e-05
5.90983e-09
1.82014e-05
5.94771e-09
1.81955e-05
5.98416e-09
1.81894e-05
6.01929e-09
1.81834e-05
6.05388e-09
1.81773e-05
6.08766e-09
1.81712e-05
6.12188e-09
1.8165e-05
6.15589e-09
1.81588e-05
6.18995e-09
1.81526e-05
6.22287e-09
1.81464e-05
6.25394e-09
1.81401e-05
6.28285e-09
1.81338e-05
6.30845e-09
1.81274e-05
6.33324e-09
1.81211e-05
6.35655e-09
1.81147e-05
6.38188e-09
1.81083e-05
6.40786e-09
1.81018e-05
6.4344e-09
1.80954e-05
6.45769e-09
1.80889e-05
6.47764e-09
1.80824e-05
6.49224e-09
1.80759e-05
6.5041e-09
1.80694e-05
6.5125e-09
1.80629e-05
6.52153e-09
1.80564e-05
6.52928e-09
1.80498e-05
6.53672e-09
1.80433e-05
6.54084e-09
1.80367e-05
6.54242e-09
1.80302e-05
6.54039e-09
1.80237e-05
6.536e-09
1.80171e-05
6.5295e-09
1.80106e-05
6.51794e-09
1.80041e-05
6.50269e-09
1.79976e-05
6.48775e-09
1.79912e-05
6.46974e-09
1.79847e-05
6.44615e-09
1.79783e-05
6.41282e-09
1.79719e-05
6.36376e-09
1.79656e-05
6.30969e-09
1.79594e-05
6.25532e-09
1.79532e-05
6.18079e-09
1.79471e-05
6.08255e-09
1.79411e-05
5.9765e-09
1.79352e-05
5.88295e-09
1.79294e-05
5.80502e-09
1.79237e-05
5.73233e-09
1.7918e-05
5.65497e-09
1.79125e-05
5.56945e-09
1.7907e-05
5.47474e-09
1.79016e-05
5.36707e-09
1.78964e-05
5.24048e-09
1.78913e-05
5.10636e-09
1.78863e-05
4.97928e-09
1.78814e-05
4.86052e-09
1.78767e-05
4.75297e-09
1.7872e-05
4.65378e-09
1.78675e-05
4.5545e-09
1.7863e-05
4.45831e-09
1.78587e-05
4.3639e-09
1.78544e-05
4.27256e-09
1.78502e-05
4.17929e-09
1.78461e-05
4.08615e-09
1.78421e-05
3.9926e-09
1.78382e-05
3.90142e-09
1.78344e-05
3.81198e-09
1.78307e-05
3.72817e-09
1.7827e-05
3.6526e-09
1.78235e-05
3.58865e-09
1.78199e-05
3.53591e-09
1.78164e-05
3.49286e-09
1.7813e-05
3.45464e-09
1.78096e-05
3.41764e-09
1.78062e-05
3.37689e-09
1.78028e-05
3.33077e-09
1.77996e-05
3.27696e-09
1.77964e-05
3.2164e-09
1.77932e-05
3.15372e-09
1.77901e-05
3.08954e-09
1.77871e-05
3.02176e-09
1.77841e-05
2.94669e-09
1.77813e-05
2.86182e-09
1.77785e-05
2.78394e-09
1.77758e-05
2.72885e-09
1.77731e-05
2.68749e-09
1.77704e-05
2.64073e-09
1.77679e-05
2.57606e-09
1.77654e-05
2.50134e-09
1.77629e-05
2.4416e-09
1.77605e-05
2.39665e-09
1.77582e-05
2.35834e-09
1.77558e-05
2.32969e-09
1.77535e-05
2.3146e-09
1.77512e-05
2.31535e-09
1.77489e-05
2.32211e-09
1.77465e-05
2.33202e-09
1.77442e-05
2.35202e-09
1.77418e-05
2.3855e-09
1.77394e-05
2.43199e-09
1.77369e-05
2.49268e-09
1.77343e-05
2.5643e-09
1.77317e-05
2.64839e-09
1.77289e-05
2.73964e-09
1.77261e-05
2.83908e-09
1.77232e-05
2.94142e-09
1.77201e-05
3.04799e-09
1.77169e-05
3.15709e-09
1.77137e-05
3.27195e-09
1.77103e-05
3.39199e-09
1.77068e-05
3.51865e-09
1.77031e-05
3.65127e-09
1.76993e-05
3.78963e-09
1.76954e-05
3.93374e-09
1.76913e-05
4.08311e-09
1.76871e-05
4.23552e-09
1.76827e-05
4.38745e-09
1.76781e-05
4.53778e-09
1.76735e-05
4.68115e-09
1.76687e-05
4.81664e-09
1.76637e-05
4.94125e-09
1.76587e-05
5.05656e-09
1.76535e-05
5.16618e-09
1.76482e-05
5.27121e-09
1.76428e-05
5.37571e-09
1.76374e-05
5.47865e-09
1.76318e-05
5.58183e-09
1.76261e-05
5.68156e-09
1.76203e-05
5.77706e-09
1.76145e-05
5.86416e-09
1.76085e-05
5.94226e-09
1.76025e-05
6.00855e-09
1.75964e-05
6.06598e-09
1.75903e-05
6.11585e-09
1.75842e-05
6.16144e-09
1.7578e-05
6.20358e-09
1.75717e-05
6.24432e-09
1.75654e-05
6.28592e-09
1.75591e-05
6.33101e-09
1.75527e-05
6.38088e-09
1.75463e-05
6.43668e-09
1.75398e-05
6.49673e-09
1.75332e-05
6.55966e-09
1.75266e-05
6.62385e-09
1.75199e-05
6.6884e-09
1.75132e-05
6.75539e-09
1.75063e-05
6.82219e-09
1.74994e-05
6.8877e-09
1.74925e-05
6.94731e-09
1.74855e-05
7.00172e-09
1.74784e-05
7.05179e-09
1.74713e-05
7.09999e-09
1.74642e-05
7.14794e-09
1.7457e-05
7.1966e-09
1.74498e-05
7.24549e-09
1.74425e-05
7.29246e-09
1.74351e-05
7.33548e-09
1.74278e-05
7.3737e-09
1.74203e-05
7.40498e-09
1.74129e-05
7.43131e-09
1.74055e-05
7.45326e-09
1.7398e-05
7.475e-09
1.73905e-05
7.4952e-09
1.7383e-05
7.51575e-09
1.73754e-05
7.53539e-09
1.73679e-05
7.55329e-09
1.73603e-05
7.56656e-09
1.73527e-05
7.57821e-09
1.73452e-05
7.58683e-09
1.73376e-05
7.59719e-09
1.733e-05
7.61164e-09
1.73223e-05
7.62607e-09
1.73147e-05
7.63722e-09
1.7307e-05
7.64014e-09
1.72994e-05
7.63594e-09
1.72918e-05
7.637e-09
1.72841e-05
7.63705e-09
1.72765e-05
7.62569e-09
1.72689e-05
7.59383e-09
1.72614e-05
7.54561e-09
1.72539e-05
7.48267e-09
1.72465e-05
7.40924e-09
1.72391e-05
7.33811e-09
1.72319e-05
7.2773e-09
1.72246e-05
7.21983e-09
1.72175e-05
7.15746e-09
1.72104e-05
7.08763e-09
1.72034e-05
7.00643e-09
1.71965e-05
6.91641e-09
1.71897e-05
6.81462e-09
1.7183e-05
6.71015e-09
1.71763e-05
6.61003e-09
1.71698e-05
6.51771e-09
1.71634e-05
6.43364e-09
1.7157e-05
6.35296e-09
1.71508e-05
6.27796e-09
1.71445e-05
6.21138e-09
1.71384e-05
6.15557e-09
1.71323e-05
6.09898e-09
1.71263e-05
6.03848e-09
1.71203e-05
5.97217e-09
1.71144e-05
5.90523e-09
1.71085e-05
5.84023e-09
1.71028e-05
5.78473e-09
1.7097e-05
5.73885e-09
1.70913e-05
5.70481e-09
1.70856e-05
5.67542e-09
1.708e-05
5.65097e-09
1.70744e-05
5.62174e-09
1.70688e-05
5.58842e-09
1.70632e-05
5.54514e-09
1.70577e-05
5.49745e-09
1.70523e-05
5.44415e-09
1.70469e-05
5.39271e-09
1.70415e-05
5.34429e-09
1.70362e-05
5.30793e-09
1.7031e-05
5.28266e-09
1.70257e-05
5.27054e-09
1.70204e-05
5.26847e-09
1.70151e-05
5.27396e-09
1.70099e-05
5.28446e-09
1.70046e-05
5.28729e-09
1.69993e-05
5.26908e-09
1.69941e-05
5.22952e-09
1.69889e-05
5.16433e-09
1.69838e-05
5.06661e-09
1.69789e-05
4.97447e-09
1.6974e-05
4.89092e-09
1.69692e-05
4.82065e-09
1.69644e-05
4.7504e-09
1.69597e-05
4.68518e-09
1.69551e-05
4.62114e-09
1.69505e-05
4.56958e-09
1.6946e-05
4.51636e-09
1.69415e-05
4.47049e-09
1.69371e-05
4.41329e-09
1.69328e-05
4.36311e-09
1.69285e-05
4.3043e-09
1.69242e-05
4.26794e-09
1.692e-05
4.23566e-09
1.69157e-05
4.24169e-09
1.69115e-05
4.25296e-09
1.69072e-05
4.30103e-09
1.69028e-05
4.33952e-09
1.68984e-05
4.40844e-09
1.6894e-05
4.45415e-09
1.68894e-05
4.52597e-09
1.68849e-05
4.56331e-09
1.68802e-05
4.62409e-09
1.68756e-05
4.64325e-09
1.68709e-05
4.68894e-09
1.68662e-05
4.68425e-09
1.68615e-05
4.71685e-09
1.68568e-05
4.69893e-09
1.68521e-05
4.74094e-09
1.68473e-05
4.73099e-09
1.68425e-05
4.81194e-09
1.68377e-05
4.83361e-09
1.68327e-05
4.97825e-09
1.68277e-05
5.04475e-09
1.68224e-05
5.27043e-09
1.6817e-05
5.38274e-09
1.68113e-05
5.70323e-09
1.68054e-05
5.87914e-09
1.67991e-05
6.34742e-09
1.67924e-05
6.6691e-09
1.67851e-05
7.36729e-09
1.67769e-05
8.11318e-09
1.67678e-05
9.13851e-09
1.67569e-05
1.08837e-08
1.67439e-05
1.29905e-08
1.67276e-05
1.62942e-08
1.67068e-05
2.08804e-08
1.66796e-05
2.72022e-08
1.66429e-05
3.67035e-08
1.65938e-05
4.90854e-08
1.65276e-05
6.61439e-08
1.64314e-05
9.62503e-08
1.63208e-05
1.10567e-07
1.6037e-05
2.83865e-07
1.55346e-05
5.02418e-07
1.4984e-05
5.50572e-07
1.4281e-05
7.02916e-07
1.33017e-05
9.79357e-07
1.18891e-05
1.41259e-06
1.00922e-05
1.79691e-06
7.72916e-06
2.36302e-06
4.09588e-06
3.63328e-06
8.43588e-07
3.25229e-06
-1.07889e-06
1.92248e-06
-2.84061e-06
1.76171e-06
-2.84061e-06
3.77926e-05
8.18672e-07
3.74977e-05
8.80652e-07
3.70249e-05
1.19309e-06
3.65648e-05
1.1721e-06
3.61029e-05
1.2006e-06
3.56875e-05
1.1011e-06
3.5298e-05
1.06376e-06
3.49478e-05
9.74851e-07
3.46315e-05
9.25856e-07
3.43755e-05
8.32369e-07
3.41385e-05
7.94644e-07
3.39199e-05
7.46251e-07
3.37054e-05
7.2148e-07
3.34978e-05
6.91841e-07
3.32901e-05
6.74762e-07
3.30832e-05
6.53753e-07
3.28671e-05
6.42686e-07
3.26454e-05
6.28473e-07
3.24232e-05
6.12726e-07
3.22029e-05
5.95208e-07
3.1985e-05
5.77866e-07
3.17685e-05
5.61333e-07
3.15536e-05
5.44556e-07
3.13405e-05
5.26912e-07
3.11297e-05
5.08378e-07
3.09211e-05
4.89545e-07
3.0715e-05
4.70867e-07
3.05129e-05
4.52134e-07
3.03159e-05
4.33744e-07
3.01237e-05
4.16671e-07
2.99363e-05
4.00037e-07
2.97542e-05
3.83378e-07
2.95774e-05
3.67143e-07
2.94056e-05
3.51694e-07
2.92389e-05
3.36814e-07
2.90773e-05
3.22246e-07
2.89207e-05
3.08055e-07
2.87691e-05
2.9441e-07
2.86225e-05
2.81191e-07
2.84805e-05
2.68503e-07
2.83436e-05
2.56006e-07
2.82117e-05
2.44076e-07
2.80843e-05
2.33032e-07
2.79613e-05
2.22637e-07
2.78425e-05
2.12742e-07
2.77277e-05
2.03409e-07
2.76163e-05
1.95014e-07
2.75081e-05
1.87024e-07
2.7403e-05
1.79455e-07
2.7301e-05
1.72186e-07
2.7202e-05
1.65202e-07
2.7106e-05
1.58528e-07
2.70129e-05
1.522e-07
2.69226e-05
1.46241e-07
2.6835e-05
1.40647e-07
2.675e-05
1.35336e-07
2.66677e-05
1.30154e-07
2.6588e-05
1.25181e-07
2.65107e-05
1.20582e-07
2.64357e-05
1.1633e-07
2.63629e-05
1.12232e-07
2.62923e-05
1.08323e-07
2.62237e-05
1.04659e-07
2.6157e-05
1.01151e-07
2.60922e-05
9.77457e-08
2.60293e-05
9.446e-08
2.59682e-05
9.12972e-08
2.59089e-05
8.82469e-08
2.58513e-05
8.53251e-08
2.57954e-05
8.25553e-08
2.57412e-05
7.99502e-08
2.56885e-05
7.75222e-08
2.56373e-05
7.52066e-08
2.55875e-05
7.3009e-08
2.5539e-05
7.09618e-08
2.54918e-05
6.91963e-08
2.54456e-05
6.75931e-08
2.54006e-05
6.59829e-08
2.53566e-05
6.42846e-08
2.5314e-05
6.23637e-08
2.52725e-05
6.05057e-08
2.52323e-05
5.88982e-08
2.51931e-05
5.72583e-08
2.51551e-05
5.56316e-08
2.51183e-05
5.40381e-08
2.50825e-05
5.24972e-08
2.50478e-05
5.10065e-08
2.50141e-05
4.95759e-08
2.49815e-05
4.8213e-08
2.49497e-05
4.6942e-08
2.49189e-05
4.57708e-08
2.48888e-05
4.49259e-08
2.48592e-05
4.43189e-08
2.48303e-05
4.34717e-08
2.48019e-05
4.26071e-08
2.47741e-05
4.18313e-08
2.47467e-05
4.12558e-08
2.47194e-05
4.08251e-08
2.46923e-05
4.02766e-08
2.46655e-05
3.96177e-08
2.4639e-05
3.91977e-08
2.46126e-05
3.90442e-08
2.45863e-05
3.89359e-08
2.456e-05
3.88609e-08
2.45337e-05
3.88183e-08
2.45075e-05
3.87837e-08
2.44814e-05
3.87771e-08
2.44553e-05
3.87861e-08
2.44292e-05
3.8834e-08
2.44031e-05
3.89108e-08
2.43771e-05
3.90286e-08
2.4351e-05
3.91763e-08
2.4325e-05
3.93521e-08
2.42988e-05
3.95438e-08
2.42728e-05
3.96474e-08
2.42466e-05
3.99716e-08
2.42203e-05
4.04672e-08
2.41939e-05
4.069e-08
2.41675e-05
4.08377e-08
2.41411e-05
4.10703e-08
2.41147e-05
4.12853e-08
2.40882e-05
4.14989e-08
2.40617e-05
4.17123e-08
2.40353e-05
4.19329e-08
2.40088e-05
4.21825e-08
2.39823e-05
4.24748e-08
2.39557e-05
4.28625e-08
2.3929e-05
4.34456e-08
2.39021e-05
4.4335e-08
2.38756e-05
4.29948e-08
2.38501e-05
4.06193e-08
2.38255e-05
3.93141e-08
2.38012e-05
3.9046e-08
2.37767e-05
3.97093e-08
2.37522e-05
4.00666e-08
2.37277e-05
4.04092e-08
2.37031e-05
4.06376e-08
2.36785e-05
4.08089e-08
2.3654e-05
4.09238e-08
2.36296e-05
4.10034e-08
2.36051e-05
4.10503e-08
2.35808e-05
4.10701e-08
2.35565e-05
4.10612e-08
2.35324e-05
4.10236e-08
2.35083e-05
4.09546e-08
2.34844e-05
4.08558e-08
2.34606e-05
4.07241e-08
2.34369e-05
4.05644e-08
2.34134e-05
4.03877e-08
2.33901e-05
4.01977e-08
2.33669e-05
3.99941e-08
2.3344e-05
3.97813e-08
2.33211e-05
3.95546e-08
2.32985e-05
3.93181e-08
2.3276e-05
3.907e-08
2.32537e-05
3.88078e-08
2.32316e-05
3.85213e-08
2.32097e-05
3.82081e-08
2.3188e-05
3.78786e-08
2.31665e-05
3.75426e-08
2.31452e-05
3.72001e-08
2.31242e-05
3.68553e-08
2.31033e-05
3.65031e-08
2.30827e-05
3.61465e-08
2.30622e-05
3.57782e-08
2.3042e-05
3.54019e-08
2.3022e-05
3.50151e-08
2.30023e-05
3.46214e-08
2.29827e-05
3.42198e-08
2.29634e-05
3.3812e-08
2.29444e-05
3.33984e-08
2.29256e-05
3.29851e-08
2.2907e-05
3.25752e-08
2.28887e-05
3.21753e-08
2.28706e-05
3.17856e-08
2.28527e-05
3.14109e-08
2.2835e-05
3.10449e-08
2.28175e-05
3.0689e-08
2.28002e-05
3.03404e-08
2.27831e-05
2.99993e-08
2.27662e-05
2.96622e-08
2.27494e-05
2.933e-08
2.27329e-05
2.89948e-08
2.27165e-05
2.86637e-08
2.27003e-05
2.83207e-08
2.26843e-05
2.79779e-08
2.26685e-05
2.76314e-08
2.26529e-05
2.72858e-08
2.26374e-05
2.69455e-08
2.26222e-05
2.66001e-08
2.26071e-05
2.6247e-08
2.25922e-05
2.58781e-08
2.25775e-05
2.54876e-08
2.25631e-05
2.50759e-08
2.25488e-05
2.46501e-08
2.25348e-05
2.42105e-08
2.2521e-05
2.37657e-08
2.25075e-05
2.33193e-08
2.24942e-05
2.28687e-08
2.24811e-05
2.24148e-08
2.24682e-05
2.19537e-08
2.24556e-05
2.1482e-08
2.24432e-05
2.09988e-08
2.2431e-05
2.05086e-08
2.24191e-05
2.00172e-08
2.24075e-05
1.95448e-08
2.23961e-05
1.90936e-08
2.23848e-05
1.86668e-08
2.23738e-05
1.82644e-08
2.2363e-05
1.78844e-08
2.23523e-05
1.75235e-08
2.23418e-05
1.71758e-08
2.23314e-05
1.68414e-08
2.23212e-05
1.652e-08
2.23112e-05
1.62083e-08
2.23013e-05
1.59094e-08
2.22915e-05
1.56299e-08
2.22819e-05
1.53734e-08
2.22723e-05
1.5142e-08
2.22628e-05
1.49324e-08
2.22534e-05
1.47393e-08
2.22441e-05
1.45574e-08
2.22349e-05
1.4366e-08
2.22257e-05
1.41583e-08
2.22166e-05
1.39311e-08
2.22076e-05
1.3717e-08
2.21988e-05
1.35537e-08
2.21901e-05
1.34278e-08
2.21815e-05
1.3323e-08
2.2173e-05
1.32346e-08
2.21647e-05
1.3156e-08
2.21564e-05
1.30829e-08
2.21482e-05
1.30124e-08
2.21401e-05
1.29448e-08
2.21321e-05
1.28824e-08
2.21242e-05
1.2829e-08
2.21163e-05
1.2786e-08
2.21084e-05
1.27546e-08
2.21006e-05
1.27373e-08
2.20929e-05
1.27321e-08
2.20851e-05
1.27411e-08
2.20774e-05
1.27593e-08
2.20697e-05
1.2791e-08
2.2062e-05
1.28326e-08
2.20543e-05
1.28859e-08
2.20465e-05
1.29477e-08
2.20388e-05
1.30144e-08
2.2031e-05
1.30825e-08
2.20232e-05
1.3151e-08
2.20154e-05
1.32199e-08
2.20075e-05
1.32866e-08
2.19997e-05
1.33501e-08
2.19918e-05
1.341e-08
2.19839e-05
1.34701e-08
2.1976e-05
1.35344e-08
2.19681e-05
1.36051e-08
2.19602e-05
1.36799e-08
2.19522e-05
1.37559e-08
2.19442e-05
1.38286e-08
2.19362e-05
1.38946e-08
2.19281e-05
1.39543e-08
2.19201e-05
1.40087e-08
2.1912e-05
1.40599e-08
2.19039e-05
1.4107e-08
2.18958e-05
1.41523e-08
2.18877e-05
1.41947e-08
2.18796e-05
1.42397e-08
2.18714e-05
1.42867e-08
2.18633e-05
1.43381e-08
2.18551e-05
1.43895e-08
2.18469e-05
1.44364e-08
2.18387e-05
1.44754e-08
2.18305e-05
1.45036e-08
2.18224e-05
1.45277e-08
2.18142e-05
1.45485e-08
2.1806e-05
1.45753e-08
2.17978e-05
1.4606e-08
2.17896e-05
1.46414e-08
2.17814e-05
1.46706e-08
2.17731e-05
1.46926e-08
2.17649e-05
1.47015e-08
2.17567e-05
1.47042e-08
2.17485e-05
1.47006e-08
2.17404e-05
1.46999e-08
2.17322e-05
1.46978e-08
2.1724e-05
1.46964e-08
2.17159e-05
1.46884e-08
2.17078e-05
1.46761e-08
2.16996e-05
1.46573e-08
2.16915e-05
1.46354e-08
2.16835e-05
1.46118e-08
2.16754e-05
1.45825e-08
2.16673e-05
1.45478e-08
2.16593e-05
1.4512e-08
2.16513e-05
1.447e-08
2.16433e-05
1.44184e-08
2.16354e-05
1.43504e-08
2.16275e-05
1.4256e-08
2.16197e-05
1.41496e-08
2.16119e-05
1.40366e-08
2.16042e-05
1.38897e-08
2.15966e-05
1.37032e-08
2.1589e-05
1.34948e-08
2.15816e-05
1.32999e-08
2.15743e-05
1.31303e-08
2.15671e-05
1.29724e-08
2.15599e-05
1.28124e-08
2.15528e-05
1.26423e-08
2.15459e-05
1.24571e-08
2.1539e-05
1.22495e-08
2.15322e-05
1.20071e-08
2.15256e-05
1.17443e-08
2.15191e-05
1.14832e-08
2.15127e-05
1.12315e-08
2.15064e-05
1.09969e-08
2.15003e-05
1.07766e-08
2.14943e-05
1.05604e-08
2.14884e-05
1.03546e-08
2.14826e-05
1.01559e-08
2.14769e-05
9.96938e-09
2.14713e-05
9.78496e-09
2.14658e-05
9.60154e-09
2.14604e-05
9.41248e-09
2.14551e-05
9.22066e-09
2.14499e-05
9.02591e-09
2.14448e-05
8.83881e-09
2.14397e-05
8.66991e-09
2.14348e-05
8.53121e-09
2.14299e-05
8.42478e-09
2.1425e-05
8.3466e-09
2.14202e-05
8.2823e-09
2.14154e-05
8.22049e-09
2.14106e-05
8.14558e-09
2.14059e-05
8.05283e-09
2.14013e-05
7.93881e-09
2.13967e-05
7.80951e-09
2.13921e-05
7.67726e-09
2.13877e-05
7.54583e-09
2.13833e-05
7.41302e-09
2.1379e-05
7.27013e-09
2.13747e-05
7.10934e-09
2.13706e-05
6.95269e-09
2.13665e-05
6.82538e-09
2.13624e-05
6.72337e-09
2.13584e-05
6.62367e-09
2.13545e-05
6.50554e-09
2.13506e-05
6.3737e-09
2.13468e-05
6.26368e-09
2.1343e-05
6.17481e-09
2.13393e-05
6.09884e-09
2.13356e-05
6.03608e-09
2.13319e-05
5.99292e-09
2.13283e-05
5.97606e-09
2.13246e-05
5.97207e-09
2.1321e-05
5.97768e-09
2.13173e-05
6.00247e-09
2.13136e-05
6.05695e-09
2.13099e-05
6.1431e-09
2.13062e-05
6.2631e-09
2.13023e-05
6.4078e-09
2.12984e-05
6.5789e-09
2.12944e-05
6.76288e-09
2.12902e-05
6.95974e-09
2.1286e-05
7.15674e-09
2.12817e-05
7.35514e-09
2.12773e-05
7.54943e-09
2.12729e-05
7.74813e-09
2.12683e-05
7.95292e-09
2.12636e-05
8.17149e-09
2.12589e-05
8.40508e-09
2.1254e-05
8.65684e-09
2.1249e-05
8.9267e-09
2.12439e-05
9.21311e-09
2.12386e-05
9.51017e-09
2.12332e-05
9.80951e-09
2.12276e-05
1.01066e-08
2.12219e-05
1.03882e-08
2.12161e-05
1.06502e-08
2.12101e-05
1.08835e-08
2.12041e-05
1.10917e-08
2.1198e-05
1.12815e-08
2.11918e-05
1.14589e-08
2.11855e-05
1.16351e-08
2.11792e-05
1.18143e-08
2.11728e-05
1.20044e-08
2.11663e-05
1.22001e-08
2.11596e-05
1.2399e-08
2.11529e-05
1.25868e-08
2.11461e-05
1.27576e-08
2.11392e-05
1.29008e-08
2.11323e-05
1.30205e-08
2.11253e-05
1.31173e-08
2.11182e-05
1.3199e-08
2.11112e-05
1.32682e-08
2.11041e-05
1.33324e-08
2.1097e-05
1.33993e-08
2.10898e-05
1.34787e-08
2.10826e-05
1.35749e-08
2.10754e-05
1.36896e-08
2.1068e-05
1.38177e-08
2.10607e-05
1.39529e-08
2.10532e-05
1.40892e-08
2.10457e-05
1.42211e-08
2.10381e-05
1.43529e-08
2.10304e-05
1.44802e-08
2.10227e-05
1.46038e-08
2.10149e-05
1.47143e-08
2.10071e-05
1.48139e-08
2.09992e-05
1.4905e-08
2.09914e-05
1.49946e-08
2.09834e-05
1.50876e-08
2.09754e-05
1.51856e-08
2.09674e-05
1.52865e-08
2.09593e-05
1.53848e-08
2.09512e-05
1.54733e-08
2.0943e-05
1.55492e-08
2.09348e-05
1.5608e-08
2.09266e-05
1.56556e-08
2.09183e-05
1.56955e-08
2.091e-05
1.5738e-08
2.09018e-05
1.57824e-08
2.08934e-05
1.58315e-08
2.08851e-05
1.58811e-08
2.08767e-05
1.59267e-08
2.08683e-05
1.59623e-08
2.08599e-05
1.59918e-08
2.08515e-05
1.60138e-08
2.0843e-05
1.60374e-08
2.08346e-05
1.60656e-08
2.08261e-05
1.60954e-08
2.08176e-05
1.61224e-08
2.08091e-05
1.61405e-08
2.08006e-05
1.61487e-08
2.07921e-05
1.61641e-08
2.07836e-05
1.61742e-08
2.0775e-05
1.61638e-08
2.07665e-05
1.61137e-08
2.0758e-05
1.60263e-08
2.07496e-05
1.59066e-08
2.07412e-05
1.57643e-08
2.0733e-05
1.5622e-08
2.07247e-05
1.54963e-08
2.07166e-05
1.53835e-08
2.07085e-05
1.52698e-08
2.07004e-05
1.51443e-08
2.06924e-05
1.49964e-08
2.06845e-05
1.48267e-08
2.06767e-05
1.46288e-08
2.0669e-05
1.4418e-08
2.06614e-05
1.42096e-08
2.06539e-05
1.40145e-08
2.06465e-05
1.38406e-08
2.06392e-05
1.36808e-08
2.06319e-05
1.35396e-08
2.06247e-05
1.34167e-08
2.06175e-05
1.33141e-08
2.06104e-05
1.32079e-08
2.06034e-05
1.30925e-08
2.05964e-05
1.29575e-08
2.05895e-05
1.28159e-08
2.05826e-05
1.267e-08
2.05759e-05
1.25445e-08
2.05692e-05
1.24392e-08
2.05625e-05
1.23701e-08
2.05559e-05
1.23164e-08
2.05492e-05
1.22849e-08
2.05426e-05
1.22429e-08
2.0536e-05
1.21957e-08
2.05294e-05
1.21163e-08
2.05229e-05
1.2024e-08
2.05165e-05
1.19049e-08
2.05101e-05
1.17936e-08
2.05037e-05
1.16834e-08
2.04974e-05
1.16065e-08
2.04912e-05
1.15445e-08
2.04849e-05
1.1517e-08
2.04787e-05
1.15034e-08
2.04724e-05
1.15248e-08
2.04662e-05
1.15576e-08
2.04598e-05
1.16012e-08
2.04535e-05
1.15946e-08
2.04472e-05
1.15495e-08
2.04409e-05
1.14248e-08
2.04348e-05
1.12459e-08
2.04287e-05
1.10408e-08
2.04227e-05
1.0856e-08
2.04169e-05
1.0676e-08
2.04111e-05
1.05295e-08
2.04054e-05
1.03788e-08
2.03997e-05
1.0276e-08
2.03941e-05
1.018e-08
2.03885e-05
1.01271e-08
2.03829e-05
1.00469e-08
2.03774e-05
9.97846e-09
2.03719e-05
9.85585e-09
2.03664e-05
9.757e-09
2.03611e-05
9.63476e-09
2.03557e-05
9.58235e-09
2.03504e-05
9.53513e-09
2.03451e-05
9.57365e-09
2.03398e-05
9.60469e-09
2.03344e-05
9.70316e-09
2.03291e-05
9.76445e-09
2.03236e-05
9.88725e-09
2.03182e-05
9.96166e-09
2.03127e-05
1.00922e-08
2.03072e-05
1.01546e-08
2.03015e-05
1.02641e-08
2.02959e-05
1.02949e-08
2.02902e-05
1.03629e-08
2.02846e-05
1.035e-08
2.02789e-05
1.03871e-08
2.02733e-05
1.03713e-08
2.02676e-05
1.04243e-08
2.02619e-05
1.04906e-08
2.02561e-05
1.06207e-08
2.02503e-05
1.08489e-08
2.02442e-05
1.10723e-08
2.0238e-05
1.1492e-08
2.02317e-05
1.1745e-08
2.0225e-05
1.23323e-08
2.02182e-05
1.26622e-08
2.02111e-05
1.34452e-08
2.02037e-05
1.40912e-08
2.01958e-05
1.52982e-08
2.01871e-05
1.67731e-08
2.01777e-05
1.85452e-08
2.01668e-05
2.18321e-08
2.01542e-05
2.55282e-08
2.01388e-05
3.17655e-08
2.01199e-05
3.978e-08
2.00954e-05
5.16724e-08
2.00637e-05
6.84127e-08
2.00201e-05
9.26688e-08
1.99628e-05
1.23457e-07
1.98728e-05
1.86216e-07
1.97662e-05
2.17214e-07
1.9547e-05
5.03111e-07
1.92208e-05
8.28679e-07
1.87629e-05
1.00843e-06
1.81345e-05
1.33127e-06
1.72995e-05
1.81431e-06
1.61065e-05
2.60559e-06
1.43218e-05
3.58159e-06
1.18727e-05
4.81213e-06
8.37637e-06
7.12962e-06
3.86091e-06
7.76775e-06
2.6828e-07
5.51511e-06
-1.6709e-06
3.70089e-06
-4.5115e-06
3.77845e-05
1.03421e-06
3.75101e-05
1.15506e-06
3.70521e-05
1.65104e-06
3.66206e-05
1.60358e-06
3.61921e-05
1.62909e-06
3.58276e-05
1.4656e-06
3.55123e-05
1.3791e-06
3.52512e-05
1.23594e-06
3.50358e-05
1.14121e-06
3.48506e-05
1.01757e-06
3.47006e-05
9.44688e-07
3.4569e-05
8.77837e-07
3.44463e-05
8.44192e-07
3.43383e-05
7.99792e-07
3.42454e-05
7.67756e-07
3.41661e-05
7.32959e-07
3.40902e-05
7.18628e-07
3.40164e-05
7.02277e-07
3.3943e-05
6.86093e-07
3.38693e-05
6.68915e-07
3.37938e-05
6.53389e-07
3.37165e-05
6.38641e-07
3.36368e-05
6.24297e-07
3.35542e-05
6.09495e-07
3.34681e-05
5.94429e-07
3.33783e-05
5.79393e-07
3.32843e-05
5.6482e-07
3.31842e-05
5.52286e-07
3.30779e-05
5.39974e-07
3.29681e-05
5.26473e-07
3.28552e-05
5.12973e-07
3.27396e-05
4.98979e-07
3.26215e-05
4.85265e-07
3.25009e-05
4.72267e-07
3.23781e-05
4.59628e-07
3.22535e-05
4.46837e-07
3.21276e-05
4.33999e-07
3.20007e-05
4.2131e-07
3.18731e-05
4.08712e-07
3.17454e-05
3.96244e-07
3.1618e-05
3.83404e-07
3.14912e-05
3.70864e-07
3.13651e-05
3.59122e-07
3.124e-05
3.47731e-07
3.11161e-05
3.36668e-07
3.09936e-05
3.25926e-07
3.08729e-05
3.15732e-07
3.0754e-05
3.0584e-07
3.06372e-05
2.96297e-07
3.05224e-05
2.86952e-07
3.04098e-05
2.77799e-07
3.02995e-05
2.68915e-07
3.01913e-05
2.60353e-07
3.00854e-05
2.52102e-07
2.99818e-05
2.44244e-07
2.98805e-05
2.36661e-07
2.97815e-05
2.29154e-07
2.96849e-05
2.21752e-07
2.95907e-05
2.1487e-07
2.94986e-05
2.08418e-07
2.94086e-05
2.02219e-07
2.93203e-05
1.96561e-07
2.92338e-05
1.91169e-07
2.91491e-05
1.85934e-07
2.90661e-05
1.80748e-07
2.89849e-05
1.75637e-07
2.89056e-05
1.70603e-07
2.88282e-05
1.6564e-07
2.87527e-05
1.6078e-07
2.86792e-05
1.56074e-07
2.86076e-05
1.51553e-07
2.85379e-05
1.47262e-07
2.847e-05
1.43109e-07
2.84039e-05
1.39106e-07
2.83395e-05
1.35297e-07
2.82768e-05
1.31922e-07
2.82156e-05
1.2884e-07
2.81558e-05
1.25771e-07
2.80974e-05
1.22601e-07
2.80407e-05
1.19068e-07
2.79857e-05
1.15591e-07
2.7932e-05
1.12556e-07
2.78798e-05
1.0949e-07
2.78289e-05
1.06455e-07
2.77795e-05
1.03485e-07
2.77314e-05
1.00629e-07
2.76845e-05
9.78623e-08
2.76389e-05
9.52334e-08
2.75944e-05
9.27061e-08
2.75509e-05
9.03864e-08
2.75085e-05
8.81967e-08
2.74669e-05
8.65592e-08
2.74259e-05
8.53173e-08
2.73854e-05
8.38975e-08
2.73452e-05
8.28231e-08
2.73052e-05
8.17987e-08
2.72656e-05
8.09221e-08
2.72262e-05
8.01662e-08
2.71873e-05
7.92318e-08
2.71488e-05
7.80919e-08
2.71107e-05
7.72821e-08
2.70729e-05
7.68911e-08
2.70352e-05
7.65748e-08
2.69978e-05
7.63138e-08
2.69605e-05
7.61038e-08
2.69234e-05
7.5893e-08
2.68865e-05
7.57159e-08
2.68497e-05
7.5542e-08
2.68131e-05
7.54142e-08
2.67767e-05
7.53144e-08
2.67405e-05
7.52651e-08
2.67044e-05
7.52546e-08
2.66685e-05
7.52711e-08
2.66327e-05
7.53306e-08
2.65971e-05
7.52064e-08
2.65617e-05
7.53923e-08
2.65263e-05
7.59247e-08
2.64909e-05
7.60243e-08
2.64558e-05
7.59586e-08
2.64208e-05
7.60399e-08
2.6386e-05
7.6092e-08
2.63514e-05
7.61315e-08
2.63169e-05
7.61655e-08
2.62827e-05
7.61981e-08
2.62486e-05
7.62736e-08
2.62147e-05
7.63879e-08
2.61809e-05
7.66523e-08