/*--------------------------------*- C++ -*----------------------------------*\
| =========                 |                                                 |
| \\      /  F ield         | foam-extend: Open Source CFD                    |
|  \\    /   O peration     | Version:     3.2                                |
|   \\  /    A nd           | Web:         http://www.foam-extend.org         |
|    \\/     M anipulation  | For copyright notice see file Copyright         |
\*---------------------------------------------------------------------------*/
FoamFile
{
    version     2.0;
    format      ascii;
    class       areaVectorField;
    location    "120";
    object      PointNormalVector;
}
// * * * * * * * * * * * * * * * * * * * * * * * * * * * * * * * * * * * * * //

dimensions      [0 0 0 0 0 0 0];

internalField   nonuniform List<vector> 
550
(
(7.27273e-07 0 0.000363636)
(7.27273e-07 0 0.000363636)
(7.27273e-07 0 0.000363636)
(7.27273e-07 0 0.000363636)
(7.27273e-07 2.64698e-23 0.000363636)
(7.27273e-07 0 0.000363636)
(7.27273e-07 0 0.000363636)
(7.27273e-07 0 0.000363636)
(7.27273e-07 2.64698e-23 0.000363636)
(7.27273e-07 0 0.000363636)
(7.27273e-07 0 0.000363636)
(7.27273e-07 0 0.000363636)
(7.27273e-07 2.64698e-23 0.000363636)
(7.27273e-07 0 0.000363636)
(7.27273e-07 0 0.000363636)
(7.27273e-07 2.64698e-23 0.000363636)
(7.27273e-07 -2.64698e-23 0.000363636)
(7.27273e-07 2.64698e-23 0.000363636)
(7.27273e-07 2.64698e-23 0.000363636)
(7.27273e-07 0 0.000363636)
(7.27273e-07 2.64698e-23 0.000363636)
(7.27273e-07 -2.64698e-23 0.000363636)
(7.27273e-07 0 0.000363636)
(7.27273e-07 2.64698e-23 0.000363636)
(7.27273e-07 0 0.000363636)
(7.27273e-07 0 0.000363636)
(7.27273e-07 2.64698e-23 0.000363636)
(7.27273e-07 0 0.000363636)
(7.27273e-07 0 0.000363636)
(7.27273e-07 0 0.000363636)
(7.27273e-07 0 0.000363636)
(7.27273e-07 0 0.000363636)
(7.27273e-07 0 0.000363636)
(7.27273e-07 0 0.000363636)
(7.27273e-07 0 0.000363636)
(7.27273e-07 0 0.000363636)
(7.27273e-07 0 0.000363636)
(7.27273e-07 0 0.000363636)
(7.27273e-07 2.64698e-23 0.000363636)
(7.27273e-07 0 0.000363636)
(7.27273e-07 0 0.000363636)
(7.27273e-07 0 0.000363636)
(7.27273e-07 0 0.000363636)
(7.27273e-07 0 0.000363636)
(7.27273e-07 0 0.000363636)
(7.27273e-07 0 0.000363636)
(7.27273e-07 0 0.000363636)
(7.27273e-07 0 0.000363636)
(7.27273e-07 0 0.000363636)
(7.27273e-07 0 0.000363636)
(7.27273e-07 0 0.000363636)
(7.27273e-07 0 0.000363636)
(7.27273e-07 0 0.000363636)
(7.27273e-07 0 0.000363636)
(7.27273e-07 0 0.000363636)
(7.27273e-07 -2.64698e-23 0.000363636)
(7.27273e-07 -2.64698e-23 0.000363636)
(7.27273e-07 2.64698e-23 0.000363636)
(7.27273e-07 0 0.000363636)
(7.27273e-07 0 0.000363636)
(7.27273e-07 -2.64698e-23 0.000363636)
(7.27273e-07 -2.64698e-23 0.000363636)
(7.27273e-07 -2.64698e-23 0.000363636)
(7.27273e-07 0 0.000363636)
(7.27273e-07 0 0.000363636)
(7.27273e-07 -2.64698e-23 0.000363636)
(7.27273e-07 0 0.000363636)
(7.27273e-07 0 0.000363636)
(7.27273e-07 0 0.000363636)
(7.27273e-07 0 0.000363636)
(7.27273e-07 -2.64698e-23 0.000363636)
(7.27273e-07 -2.64698e-23 0.000363636)
(7.27273e-07 0 0.000363636)
(7.27273e-07 0 0.000363636)
(7.27273e-07 0 0.000363636)
(7.27273e-07 -2.64698e-23 0.000363636)
(7.27273e-07 0 0.000363636)
(7.27273e-07 0 0.000363636)
(7.27273e-07 -2.64698e-23 0.000363636)
(7.27273e-07 2.64698e-23 0.000363636)
(7.27273e-07 0 0.000363636)
(7.27273e-07 0 0.000363636)
(7.27273e-07 0 0.000363636)
(7.27273e-07 0 0.000363636)
(7.27273e-07 -2.64698e-23 0.000363636)
(7.27273e-07 0 0.000363636)
(7.27273e-07 0 0.000363636)
(7.27273e-07 0 0.000363636)
(7.27273e-07 -2.64698e-23 0.000363636)
(7.27273e-07 -2.64698e-23 0.000363636)
(7.27273e-07 0 0.000363636)
(7.27273e-07 0 0.000363636)
(7.27273e-07 -2.64698e-23 0.000363636)
(7.27273e-07 0 0.000363636)
(7.27273e-07 -2.64698e-23 0.000363636)
(7.27273e-07 0 0.000363636)
(7.27273e-07 0 0.000363636)
(7.27273e-07 0 0.000363636)
(7.27273e-07 -2.64698e-23 0.000363636)
(7.27273e-07 0 0.000363636)
(7.27273e-07 0 0.000363636)
(7.27273e-07 2.64698e-23 0.000363636)
(7.27273e-07 0 0.000363636)
(7.27273e-07 0 0.000363636)
(7.27273e-07 0 0.000363636)
(7.27273e-07 0 0.000363636)
(7.27273e-07 -2.64698e-23 0.000363636)
(7.27273e-07 2.64698e-23 0.000363636)
(7.27273e-07 -2.64698e-23 0.000363636)
(7.27273e-07 0 0.000363636)
(7.27273e-07 -2.64698e-23 0.000363636)
(7.27273e-07 -2.64698e-23 0.000363636)
(7.27273e-07 2.64698e-23 0.000363636)
(7.27273e-07 2.64698e-23 0.000363636)
(7.27273e-07 -2.64698e-23 0.000363636)
(7.27273e-07 -2.64698e-23 0.000363636)
(7.27273e-07 -2.64698e-23 0.000363636)
(7.27273e-07 0 0.000363636)
(7.27273e-07 0 0.000363636)
(7.27273e-07 0 0.000363636)
(7.27273e-07 -2.64698e-23 0.000363636)
(7.27273e-07 2.64698e-23 0.000363636)
(7.27273e-07 -2.64698e-23 0.000363636)
(7.27273e-07 2.64698e-23 0.000363636)
(7.27273e-07 -2.64698e-23 0.000363636)
(7.27273e-07 -2.64698e-23 0.000363636)
(7.27273e-07 -2.64698e-23 0.000363636)
(7.27566e-07 -2.64698e-23 0.000363636)
(7.28805e-07 0 0.000363636)
(7.23701e-07 0 0.000363636)
(6.82638e-07 0 0.000363636)
(6.46985e-07 0 0.000363636)
(6.43952e-07 0 0.000363636)
(6.41245e-07 2.64698e-23 0.000363636)
(6.41093e-07 0 0.000363636)
(6.41596e-07 2.64698e-23 0.000363636)
(6.42385e-07 2.64698e-23 0.000363636)
(6.43334e-07 0 0.000363636)
(6.44362e-07 2.64698e-23 0.000363636)
(6.45443e-07 2.64698e-23 0.000363636)
(6.4656e-07 2.64698e-23 0.000363636)
(6.477e-07 0 0.000363636)
(6.48855e-07 0 0.000363636)
(6.50025e-07 0 0.000363636)
(6.51206e-07 2.64698e-23 0.000363636)
(6.52392e-07 0 0.000363636)
(6.53567e-07 0 0.000363636)
(6.54676e-07 -2.64698e-23 0.000363636)
(6.55774e-07 0 0.000363636)
(6.56983e-07 -2.64698e-23 0.000363636)
(6.58228e-07 0 0.000363636)
(6.59507e-07 2.64698e-23 0.000363636)
(6.60867e-07 -2.64698e-23 0.000363636)
(6.62215e-07 0 0.000363636)
(6.63555e-07 0 0.000363636)
(6.64946e-07 0 0.000363636)
(6.66307e-07 0 0.000363636)
(6.67594e-07 0 0.000363636)
(6.68858e-07 2.64698e-23 0.000363636)
(6.70216e-07 -2.64698e-23 0.000363636)
(6.71607e-07 0 0.000363636)
(6.72968e-07 0 0.000363636)
(6.74309e-07 -2.64698e-23 0.000363636)
(6.75639e-07 0 0.000363636)
(6.7697e-07 0 0.000363636)
(6.78283e-07 0 0.000363636)
(6.79584e-07 2.64698e-23 0.000363636)
(6.8086e-07 0 0.000363636)
(6.82136e-07 0 0.000363636)
(6.83396e-07 2.64698e-23 0.000363636)
(6.84635e-07 2.64698e-23 0.000363636)
(6.85848e-07 0 0.000363636)
(6.87063e-07 0 0.000363636)
(6.88272e-07 0 0.000363636)
(6.8947e-07 0 0.000363636)
(6.9066e-07 0 0.000363636)
(6.91833e-07 2.64698e-23 0.000363636)
(6.92988e-07 2.64698e-23 0.000363636)
(6.94152e-07 -2.64698e-23 0.000363636)
(6.95328e-07 -2.64698e-23 0.000363636)
(6.96479e-07 0 0.000363636)
(6.97598e-07 -2.64698e-23 0.000363636)
(6.98699e-07 -2.64698e-23 0.000363636)
(6.99794e-07 0 0.000363636)
(7.00875e-07 0 0.000363636)
(7.01921e-07 0 0.000363636)
(7.02941e-07 2.64698e-23 0.000363636)
(7.03945e-07 -2.64698e-23 0.000363636)
(7.04919e-07 0 0.000363636)
(7.05866e-07 0 0.000363636)
(7.06789e-07 0 0.000363636)
(7.07678e-07 -2.64698e-23 0.000363636)
(7.08533e-07 0 0.000363636)
(7.09367e-07 0 0.000363636)
(7.10173e-07 0 0.000363636)
(7.10946e-07 2.64698e-23 0.000363636)
(7.11694e-07 0 0.000363636)
(7.1242e-07 0 0.000363636)
(7.13097e-07 2.64698e-23 0.000363636)
(7.13696e-07 -2.64698e-23 0.000363636)
(7.14265e-07 2.64698e-23 0.000363636)
(7.14811e-07 0 0.000363636)
(7.15265e-07 0 0.000363636)
(7.15678e-07 0 0.000363636)
(7.16069e-07 0 0.000363636)
(7.16431e-07 -2.64698e-23 0.000363636)
(7.16903e-07 0 0.000363636)
(7.17387e-07 -2.64698e-23 0.000363636)
(7.17802e-07 2.64698e-23 0.000363636)
(7.18194e-07 0 0.000363636)
(7.18478e-07 0 0.000363636)
(7.18647e-07 0 0.000363636)
(7.18781e-07 0 0.000363636)
(7.18967e-07 -2.64698e-23 0.000363636)
(7.1918e-07 -2.64698e-23 0.000363636)
(7.19339e-07 0 0.000363636)
(7.19439e-07 0 0.000363636)
(7.19545e-07 0 0.000363636)
(7.19604e-07 0 0.000363636)
(7.19661e-07 0 0.000363636)
(7.19675e-07 2.64698e-23 0.000363636)
(7.19653e-07 0 0.000363636)
(7.1948e-07 0 0.000363636)
(7.19037e-07 0 0.000363636)
(7.18247e-07 0 0.000363636)
(7.17349e-07 0 0.000363636)
(7.16576e-07 0 0.000363636)
(7.15987e-07 2.64698e-23 0.000363636)
(7.15563e-07 0 0.000363636)
(7.15256e-07 0 0.000363636)
(7.15067e-07 0 0.000363636)
(7.14978e-07 0 0.000363636)
(7.14931e-07 0 0.000363636)
(7.14915e-07 0 0.000363636)
(7.14915e-07 0 0.000363636)
(7.14921e-07 0 0.000363636)
(7.14944e-07 0 0.000363636)
(7.1496e-07 0 0.000363636)
(7.14975e-07 0 0.000363636)
(7.15026e-07 0 0.000363636)
(7.15073e-07 -2.64698e-23 0.000363636)
(7.15157e-07 0 0.000363636)
(7.15217e-07 0 0.000363636)
(7.15323e-07 0 0.000363636)
(7.15407e-07 0 0.000363636)
(7.15515e-07 0 0.000363636)
(7.15615e-07 0 0.000363636)
(7.15729e-07 0 0.000363636)
(7.15833e-07 -2.64698e-23 0.000363636)
(7.15976e-07 0 0.000363636)
(7.16149e-07 0 0.000363636)
(7.16341e-07 0 0.000363636)
(7.16532e-07 0 0.000363636)
(7.16727e-07 0 0.000363636)
(7.16918e-07 2.64698e-23 0.000363636)
(7.17136e-07 0 0.000363636)
(7.17343e-07 0 0.000363636)
(7.17544e-07 0 0.000363636)
(7.17749e-07 0 0.000363636)
(7.1796e-07 0 0.000363636)
(7.18162e-07 0 0.000363636)
(7.18384e-07 -2.64698e-23 0.000363636)
(7.18613e-07 0 0.000363636)
(7.18858e-07 2.64698e-23 0.000363636)
(7.19088e-07 0 0.000363636)
(7.1932e-07 0 0.000363636)
(7.19535e-07 0 0.000363636)
(7.19748e-07 0 0.000363636)
(7.19951e-07 0 0.000363636)
(7.20151e-07 0 0.000363636)
(7.20377e-07 0 0.000363636)
(7.20622e-07 0 0.000363636)
(7.20913e-07 0 0.000363636)
(7.21183e-07 0 0.000363636)
(7.21503e-07 -2.64698e-23 0.000363636)
(7.21802e-07 0 0.000363636)
(7.22185e-07 0 0.000363636)
(7.22563e-07 0 0.000363636)
(7.22968e-07 0 0.000363636)
(7.23346e-07 0 0.000363636)
(7.23748e-07 0 0.000363636)
(7.2412e-07 0 0.000363636)
(7.24498e-07 2.64698e-23 0.000363636)
(7.24835e-07 0 0.000363636)
(7.25196e-07 0 0.000363636)
(7.2555e-07 0 0.000363636)
(7.25941e-07 2.64698e-23 0.000363636)
(7.2633e-07 0 0.000363636)
(7.26734e-07 -2.64698e-23 0.000363636)
(7.27127e-07 0 0.000363636)
(7.27534e-07 0 0.000363636)
(7.27898e-07 0 0.000363636)
(7.28163e-07 0 0.000363636)
(7.28432e-07 -2.64698e-23 0.000363636)
(7.28796e-07 0 0.000363636)
(7.29121e-07 0 0.000363636)
(7.29354e-07 0 0.000363636)
(7.29427e-07 0 0.000363636)
(7.29284e-07 2.64698e-23 0.000363636)
(7.29242e-07 2.64698e-23 0.000363636)
(7.2924e-07 0 0.000363636)
(7.28711e-07 2.64698e-23 0.000363636)
(7.27921e-07 0 0.000363636)
(7.27498e-07 0 0.000363636)
(7.27538e-07 2.64698e-23 0.000363636)
(7.27897e-07 -2.64698e-23 0.000363636)
(7.2829e-07 0 0.000363636)
(7.28564e-07 2.64698e-23 0.000363636)
(7.28668e-07 0 0.000363636)
(7.28553e-07 0 0.000363636)
(7.28121e-07 0 0.000363636)
(7.27378e-07 0 0.000363636)
(7.26767e-07 0 0.000363636)
(7.26533e-07 0 0.000363636)
(7.26506e-07 0 0.000363636)
(7.26749e-07 0 0.000363636)
(7.27129e-07 0 0.000363636)
(7.27416e-07 2.64698e-23 0.000363636)
(7.27741e-07 -2.64698e-23 0.000363636)
(7.28081e-07 0 0.000363636)
(7.28336e-07 2.64698e-23 0.000363636)
(7.28524e-07 0 0.000363636)
(7.287e-07 -2.64698e-23 0.000363636)
(7.28881e-07 0 0.000363636)
(7.29053e-07 0 0.000363636)
(7.29201e-07 2.64698e-23 0.000363636)
(7.29335e-07 0 0.000363636)
(7.29446e-07 0 0.000363636)
(7.29526e-07 0 0.000363636)
(7.29576e-07 0 0.000363636)
(7.29614e-07 0 0.000363636)
(7.29633e-07 0 0.000363636)
(7.29612e-07 0 0.000363636)
(7.29542e-07 0 0.000363636)
(7.294e-07 0 0.000363636)
(7.29135e-07 0 0.000363636)
(7.28732e-07 -2.64698e-23 0.000363636)
(7.2824e-07 2.64698e-23 0.000363636)
(7.276e-07 2.64698e-23 0.000363636)
(7.26723e-07 0 0.000363636)
(7.25635e-07 0 0.000363636)
(7.24455e-07 0 0.000363636)
(7.23664e-07 0 0.000363636)
(7.23427e-07 -2.64698e-23 0.000363636)
(7.2314e-07 0 0.000363636)
(7.22386e-07 0 0.000363636)
(7.21175e-07 0 0.000363636)
(7.19892e-07 0 0.000363636)
(7.19014e-07 -2.64698e-23 0.000363636)
(7.18291e-07 -2.64698e-23 0.000363636)
(7.1756e-07 0 0.000363636)
(7.17131e-07 2.64698e-23 0.000363636)
(7.16967e-07 2.64698e-23 0.000363636)
(7.16942e-07 0 0.000363636)
(7.16825e-07 0 0.000363636)
(7.16617e-07 0 0.000363636)
(7.16503e-07 0 0.000363636)
(7.16353e-07 0 0.000363636)
(7.16157e-07 -2.64698e-23 0.000363636)
(7.15956e-07 -2.64698e-23 0.000363636)
(7.15772e-07 0 0.000363636)
(7.15623e-07 0 0.000363636)
(7.15494e-07 0 0.000363636)
(7.15394e-07 0 0.000363636)
(7.1529e-07 0 0.000363636)
(7.15191e-07 0 0.000363636)
(7.15126e-07 0 0.000363636)
(7.15086e-07 0 0.000363636)
(7.15082e-07 0 0.000363636)
(7.1508e-07 0 0.000363636)
(7.1511e-07 0 0.000363636)
(7.15133e-07 0 0.000363636)
(7.15194e-07 -2.64698e-23 0.000363636)
(7.15272e-07 0 0.000363636)
(7.15359e-07 0 0.000363636)
(7.15447e-07 0 0.000363636)
(7.15573e-07 0 0.000363636)
(7.157e-07 0 0.000363636)
(7.15856e-07 0 0.000363636)
(7.16021e-07 0 0.000363636)
(7.16199e-07 -2.64698e-23 0.000363636)
(7.16427e-07 2.64698e-23 0.000363636)
(7.16639e-07 0 0.000363636)
(7.16882e-07 0 0.000363636)
(7.171e-07 0 0.000363636)
(7.17362e-07 2.64698e-23 0.000363636)
(7.17599e-07 -2.64698e-23 0.000363636)
(7.17878e-07 0 0.000363636)
(7.18147e-07 2.64698e-23 0.000363636)
(7.18444e-07 -2.64698e-23 0.000363636)
(7.18689e-07 -2.64698e-23 0.000363636)
(7.18947e-07 -2.64698e-23 0.000363636)
(7.19173e-07 -2.64698e-23 0.000363636)
(7.19386e-07 -2.64698e-23 0.000363636)
(7.19555e-07 0 0.000363636)
(7.1971e-07 0 0.000363636)
(7.19847e-07 0 0.000363636)
(7.19997e-07 0 0.000363636)
(7.20133e-07 0 0.000363636)
(7.20297e-07 0 0.000363636)
(7.2043e-07 -2.64698e-23 0.000363636)
(7.2056e-07 -2.64698e-23 0.000363636)
(7.20678e-07 0 0.000363636)
(7.20801e-07 0 0.000363636)
(7.20964e-07 0 0.000363636)
(7.21107e-07 0 0.000363636)
(7.2123e-07 0 0.000363636)
(7.21322e-07 -2.64698e-23 0.000363636)
(7.21423e-07 0 0.000363636)
(7.21529e-07 2.64698e-23 0.000363636)
(7.21641e-07 0 0.000363636)
(7.21753e-07 -2.64698e-23 0.000363636)
(7.21881e-07 0 0.000363636)
(7.22032e-07 0 0.000363636)
(7.22192e-07 0 0.000363636)
(7.22365e-07 0 0.000363636)
(7.22557e-07 0 0.000363636)
(7.22722e-07 0 0.000363636)
(7.22905e-07 0 0.000363636)
(7.23076e-07 -2.64698e-23 0.000363636)
(7.23281e-07 0 0.000363636)
(7.23445e-07 -2.64698e-23 0.000363636)
(7.23615e-07 0 0.000363636)
(7.2377e-07 0 0.000363636)
(7.23889e-07 0 0.000363636)
(7.23918e-07 0 0.000363636)
(7.23944e-07 -2.64698e-23 0.000363636)
(7.23897e-07 0 0.000363636)
(7.2391e-07 2.64698e-23 0.000363636)
(7.24019e-07 0 0.000363636)
(7.24058e-07 2.64698e-23 0.000363636)
(7.24021e-07 0 0.000363636)
(7.23864e-07 0 0.000363636)
(7.23728e-07 0 0.000363636)
(7.2391e-07 -2.64698e-23 0.000363636)
(7.24141e-07 -2.64698e-23 0.000363636)
(7.24179e-07 2.64698e-23 0.000363636)
(7.24093e-07 0 0.000363636)
(7.23981e-07 2.64698e-23 0.000363636)
(7.23821e-07 0 0.000363636)
(7.2366e-07 0 0.000363636)
(7.23802e-07 0 0.000363636)
(7.24165e-07 -2.64698e-23 0.000363636)
(7.24397e-07 0 0.000363636)
(7.24462e-07 0 0.000363636)
(7.24428e-07 0 0.000363636)
(7.24343e-07 2.64698e-23 0.000363636)
(7.24287e-07 2.64698e-23 0.000363636)
(7.24217e-07 0 0.000363636)
(7.24206e-07 0 0.000363636)
(7.24293e-07 -2.64698e-23 0.000363636)
(7.24368e-07 0 0.000363636)
(7.24383e-07 2.64698e-23 0.000363636)
(7.24311e-07 0 0.000363636)
(7.24247e-07 0 0.000363636)
(7.24382e-07 0 0.000363636)
(7.24677e-07 0 0.000363636)
(7.24925e-07 0 0.000363636)
(7.2511e-07 -2.64698e-23 0.000363636)
(7.25286e-07 0 0.000363636)
(7.25437e-07 -2.64698e-23 0.000363636)
(7.25571e-07 0 0.000363636)
(7.25727e-07 2.64698e-23 0.000363636)
(7.25887e-07 0 0.000363636)
(7.26009e-07 0 0.000363636)
(7.26089e-07 0 0.000363636)
(7.26116e-07 0 0.000363636)
(7.26088e-07 -2.64698e-23 0.000363636)
(7.26007e-07 0 0.000363636)
(7.25896e-07 0 0.000363636)
(7.25801e-07 0 0.000363636)
(7.25688e-07 0 0.000363636)
(7.25493e-07 2.64698e-23 0.000363636)
(7.25271e-07 0 0.000363636)
(7.25112e-07 0 0.000363636)
(7.24973e-07 0 0.000363636)
(7.24874e-07 0 0.000363636)
(7.24793e-07 0 0.000363636)
(7.24679e-07 0 0.000363636)
(7.24519e-07 0 0.000363636)
(7.24125e-07 0 0.000363636)
(7.23422e-07 0 0.000363636)
(7.22801e-07 2.64698e-23 0.000363636)
(7.22045e-07 2.64698e-23 0.000363636)
(7.21187e-07 0 0.000363636)
(7.21066e-07 0 0.000363636)
(7.21407e-07 -2.64698e-23 0.000363636)
(7.21664e-07 0 0.000363636)
(7.21871e-07 -2.64698e-23 0.000363636)
(7.21923e-07 0 0.000363636)
(7.21903e-07 2.64698e-23 0.000363636)
(7.21838e-07 -2.64698e-23 0.000363636)
(7.21718e-07 0 0.000363636)
(7.21521e-07 -2.64698e-23 0.000363636)
(7.21284e-07 0 0.000363636)
(7.21046e-07 0 0.000363636)
(7.20812e-07 0 0.000363636)
(7.20604e-07 0 0.000363636)
(7.20407e-07 0 0.000363636)
(7.20219e-07 0 0.000363636)
(7.2005e-07 0 0.000363636)
(7.19867e-07 2.64698e-23 0.000363636)
(7.19701e-07 0 0.000363636)
(7.19593e-07 0 0.000363636)
(7.19543e-07 2.64698e-23 0.000363636)
(7.19586e-07 0 0.000363636)
(7.19696e-07 0 0.000363636)
(7.19844e-07 0 0.000363636)
(7.2002e-07 0 0.000363636)
(7.20154e-07 0 0.000363636)
(7.20254e-07 2.64698e-23 0.000363636)
(7.20332e-07 0 0.000363636)
(7.20421e-07 -2.64698e-23 0.000363636)
(7.20484e-07 -2.64698e-23 0.000363636)
(7.20566e-07 0 0.000363636)
(7.20625e-07 2.64698e-23 0.000363636)
(7.20681e-07 2.64698e-23 0.000363636)
(7.20657e-07 0 0.000363636)
(7.20584e-07 0 0.000363636)
(7.20389e-07 0 0.000363636)
(7.20095e-07 0 0.000363636)
(7.19647e-07 -2.64698e-23 0.000363636)
(7.19043e-07 0 0.000363636)
(7.18243e-07 2.64698e-23 0.000363636)
(7.16978e-07 0 0.000363636)
(7.15387e-07 -2.64698e-23 0.000363636)
(7.12707e-07 0 0.000363636)
(7.08872e-07 0 0.000363636)
(7.0283e-07 -2.64698e-23 0.000363636)
(6.94143e-07 0 0.000363636)
(6.81418e-07 0 0.000363636)
(6.63346e-07 0 0.000363636)
(6.36522e-07 2.64698e-23 0.000363636)
(5.99071e-07 -2.64698e-23 0.000363636)
(5.46831e-07 0 0.000363636)
(4.68603e-07 0 0.000363636)
(4.87328e-07 0 0.000363636)
(2.95061e-07 0 0.000363636)
(4.00314e-06 1.05879e-22 0.000363636)
(4.34811e-06 -2.11758e-22 0.000363636)
(7.27273e-07 0 0.000363636)
(7.27273e-07 0 0.000363636)
(7.27273e-07 0 0.000363636)
(7.27273e-07 0 0.000363636)
(7.27273e-07 0 0.000363636)
(7.27273e-07 -2.64698e-23 0.000363636)
(7.27273e-07 0 0.000363636)
(7.27273e-07 0 0.000363636)
(7.27273e-07 0 0.000363636)
(7.27273e-07 0 0.000363636)
)
;

boundaryField
{
    inlet
    {
        type            calculated;
        value           uniform (0 0 0);
    }
    endWall
    {
        type            calculated;
        value           uniform (0 0 0);
    }
    sideWall
    {
        type            empty;
    }
}


// ************************************************************************* //
