/*--------------------------------*- C++ -*----------------------------------*\
| =========                 |                                                 |
| \\      /  F ield         | foam-extend: Open Source CFD                    |
|  \\    /   O peration     | Version:     3.2                                |
|   \\  /    A nd           | Web:         http://www.foam-extend.org         |
|    \\/     M anipulation  | For copyright notice see file Copyright         |
\*---------------------------------------------------------------------------*/
FoamFile
{
    version     2.0;
    format      ascii;
    class       volVectorField;
    location    "120";
    object      q_b_slide;
}
// * * * * * * * * * * * * * * * * * * * * * * * * * * * * * * * * * * * * * //

dimensions      [0 2 -1 0 0 0 0];

internalField   uniform (0 0 0);

boundaryField
{
    inlet
    {
        type            calculated;
        value           uniform (0 0 0);
    }
    outlet
    {
        type            calculated;
        value           uniform (0 0 0);
    }
    sideWall
    {
        type            empty;
    }
    bed
    {
        type            calculated;
        value           nonuniform List<vector> 
550
(
(0 0 0)
(0 0 0)
(0 0 0)
(0 0 0)
(2.78254e-07 -8.056e-29 -5.56507e-10)
(7.39136e-07 0 -1.47827e-09)
(1.36366e-06 -3.69514e-34 -2.72732e-09)
(2.11296e-06 9.8798e-34 -4.22593e-09)
(2.93593e-06 -8.0594e-28 -5.87186e-09)
(3.77341e-06 -9.13388e-34 -7.54683e-09)
(4.57304e-06 1.31656e-33 -9.14608e-09)
(5.29032e-06 0 -1.05806e-08)
(5.89727e-06 -1.51275e-27 -1.17945e-08)
(6.37737e-06 2.1444e-33 -1.27547e-08)
(6.72777e-06 0 -1.34555e-08)
(6.95337e-06 -1.53879e-27 -1.39067e-08)
(7.06709e-06 1.4444e-27 -1.41342e-08)
(7.08464e-06 -1.33637e-27 -1.41693e-08)
(7.02412e-06 -1.23202e-27 -1.40482e-08)
(6.9074e-06 0 -1.38148e-08)
(6.74763e-06 -1.03079e-27 -1.34953e-08)
(6.55608e-06 9.43891e-28 -1.31122e-08)
(6.34255e-06 0 -1.26851e-08)
(6.11539e-06 -7.82828e-28 -1.22308e-08)
(5.88186e-06 0 -1.17637e-08)
(5.6478e-06 0 -1.12956e-08)
(5.41779e-06 -5.5932e-28 -1.08356e-08)
(5.19596e-06 0 -1.03919e-08)
(4.98498e-06 0 -9.96995e-09)
(4.78471e-06 0 -9.56942e-09)
(4.59514e-06 -2.88233e-34 -9.19027e-09)
(4.4166e-06 2.82062e-34 -8.83319e-09)
(4.24918e-06 -2.74427e-34 -8.49837e-09)
(4.09274e-06 -2.81657e-34 -8.18548e-09)
(3.94694e-06 2.90228e-34 -7.89389e-09)
(3.81137e-06 -2.94191e-34 -7.62275e-09)
(3.68555e-06 0 -7.37109e-09)
(3.56893e-06 0 -7.13786e-09)
(3.46096e-06 -2.15165e-28 -6.92192e-09)
(3.36108e-06 3.00354e-34 -6.72217e-09)
(3.26874e-06 -3.13795e-34 -6.53749e-09)
(3.1834e-06 0 -6.3668e-09)
(3.1045e-06 0 -6.209e-09)
(3.03153e-06 0 -6.06305e-09)
(2.964e-06 -3.03121e-34 -5.928e-09)
(2.90146e-06 0 -5.80293e-09)
(2.84354e-06 0 -5.68708e-09)
(2.78987e-06 -3.18609e-34 -5.57973e-09)
(2.74011e-06 3.16494e-34 -5.48022e-09)
(2.69396e-06 -3.14437e-34 -5.38792e-09)
(2.65113e-06 0 -5.30226e-09)
(2.61134e-06 0 -5.22269e-09)
(2.57435e-06 -3.02658e-34 -5.14869e-09)
(2.53989e-06 2.95412e-34 -5.07978e-09)
(2.50773e-06 -2.8792e-34 -5.01546e-09)
(2.47765e-06 2.95177e-29 -4.9553e-09)
(2.44944e-06 2.61807e-29 -4.89887e-09)
(2.42293e-06 -2.37765e-29 -4.84586e-09)
(2.39797e-06 0 -4.79593e-09)
(2.3744e-06 0 -4.7488e-09)
(2.3521e-06 1.85814e-29 -4.7042e-09)
(2.33096e-06 1.77633e-29 -4.66192e-09)
(2.31087e-06 1.71585e-29 -4.62174e-09)
(2.29175e-06 0 -4.58349e-09)
(2.27351e-06 0 -4.54702e-09)
(2.25609e-06 1.56753e-29 -4.51218e-09)
(2.23942e-06 2.11066e-34 -4.47884e-09)
(2.22343e-06 0 -4.44685e-09)
(2.20805e-06 0 -4.4161e-09)
(2.19324e-06 0 -4.38648e-09)
(2.17893e-06 1.44073e-29 -4.35786e-09)
(2.16507e-06 1.41199e-29 -4.33013e-09)
(2.15161e-06 1.84333e-34 -4.30321e-09)
(2.13851e-06 0 -4.27702e-09)
(2.12574e-06 -1.73841e-34 -4.25148e-09)
(2.11327e-06 1.23694e-29 -4.22654e-09)
(2.10106e-06 1.70291e-34 -4.20211e-09)
(2.08907e-06 0 -4.17815e-09)
(2.07731e-06 1.02859e-29 -4.15462e-09)
(2.06577e-06 -9.92186e-30 -4.13153e-09)
(2.05445e-06 1.47597e-34 -4.1089e-09)
(2.04335e-06 0 -4.08671e-09)
(2.03246e-06 0 -4.06493e-09)
(2.02178e-06 0 -4.04355e-09)
(2.01128e-06 9.15054e-30 -4.02256e-09)
(2.00097e-06 0 -4.00193e-09)
(1.99082e-06 0 -3.98165e-09)
(1.98085e-06 1.1909e-34 -3.9617e-09)
(1.97102e-06 8.16895e-30 -3.94205e-09)
(1.96135e-06 8.02935e-30 -3.92269e-09)
(1.9518e-06 -1.07717e-34 -3.9036e-09)
(1.94237e-06 0 -3.88474e-09)
(1.93303e-06 8.57133e-30 -3.86605e-09)
(1.92376e-06 -9.38086e-35 -3.84751e-09)
(1.91456e-06 8.95387e-30 -3.82912e-09)
(1.90543e-06 8.82099e-35 -3.81086e-09)
(1.89638e-06 0 -3.79276e-09)
(1.8874e-06 0 -3.77479e-09)
(1.87848e-06 7.21663e-30 -3.75696e-09)
(1.86964e-06 0 -3.73928e-09)
(1.86087e-06 9.34472e-35 -3.72173e-09)
(1.85214e-06 -5.76453e-30 -3.70429e-09)
(1.84345e-06 0 -3.6869e-09)
(1.83477e-06 0 -3.66955e-09)
(1.82609e-06 0 -3.65218e-09)
(1.8174e-06 0 -3.63479e-09)
(1.80867e-06 6.02813e-30 -3.61735e-09)
(1.79991e-06 -6.10609e-30 -3.59982e-09)
(1.79111e-06 6.20658e-30 -3.58221e-09)
(1.78224e-06 -8.27143e-35 -3.56448e-09)
(1.77332e-06 6.44384e-30 -3.54663e-09)
(1.76432e-06 6.60002e-30 -3.52864e-09)
(1.75525e-06 -6.76709e-30 -3.5105e-09)
(1.7461e-06 -6.89629e-30 -3.4922e-09)
(1.73688e-06 7.16819e-30 -3.47376e-09)
(1.72759e-06 7.44926e-30 -3.45517e-09)
(1.7182e-06 7.55148e-30 -3.43641e-09)
(1.70874e-06 -8.09843e-35 -3.41747e-09)
(1.69919e-06 7.90858e-35 -3.39838e-09)
(1.68958e-06 -7.89295e-35 -3.37916e-09)
(1.6799e-06 8.46215e-30 -3.35981e-09)
(1.67017e-06 -8.68468e-30 -3.34033e-09)
(1.66037e-06 8.91152e-30 -3.32075e-09)
(1.65053e-06 -9.15382e-30 -3.30106e-09)
(1.64063e-06 9.41148e-30 -3.28126e-09)
(1.63068e-06 9.70864e-30 -3.26136e-09)
(1.62068e-06 1.00288e-29 -3.24136e-09)
(1.61063e-06 1.06318e-29 -3.22255e-09)
(1.6005e-06 0 -3.20774e-09)
(1.58817e-06 0 -3.16074e-09)
(1.57954e-06 0 -2.96519e-09)
(1.5692e-06 0 -2.79193e-09)
(1.5594e-06 -4.93697e-35 -2.76149e-09)
(1.5497e-06 -8.82842e-30 -2.73278e-09)
(1.5401e-06 0 -2.7152e-09)
(1.53054e-06 -9.93458e-30 -2.70047e-09)
(1.52102e-06 -1.02674e-29 -2.68697e-09)
(1.51153e-06 -6.75314e-35 -2.67414e-09)
(1.50206e-06 -1.07064e-29 -2.66165e-09)
(1.49262e-06 -1.08618e-29 -2.64936e-09)
(1.48322e-06 -1.09929e-29 -2.63722e-09)
(1.47385e-06 6.68709e-35 -2.62518e-09)
(1.46452e-06 0 -2.61322e-09)
(1.45523e-06 0 -2.60133e-09)
(1.446e-06 -1.12924e-29 -2.58953e-09)
(1.43683e-06 0 -2.57778e-09)
(1.42771e-06 6.45499e-35 -2.56604e-09)
(1.41867e-06 1.13496e-29 -2.55411e-09)
(1.40969e-06 -6.31551e-35 -2.5422e-09)
(1.40079e-06 1.13306e-29 -2.53081e-09)
(1.39197e-06 6.21205e-35 -2.51964e-09)
(1.38323e-06 -1.12746e-29 -2.50869e-09)
(1.37458e-06 1.12328e-29 -2.49813e-09)
(1.36601e-06 0 -2.48762e-09)
(1.35753e-06 0 -2.47719e-09)
(1.34915e-06 0 -2.46706e-09)
(1.34087e-06 -5.82468e-35 -2.45693e-09)
(1.33269e-06 0 -2.44666e-09)
(1.32461e-06 -1.07391e-29 -2.43644e-09)
(1.31666e-06 1.0632e-29 -2.42672e-09)
(1.30881e-06 -5.50772e-35 -2.41727e-09)
(1.30095e-06 0 -2.40762e-09)
(1.29318e-06 1.02797e-29 -2.39801e-09)
(1.28554e-06 0 -2.38854e-09)
(1.27802e-06 0 -2.37925e-09)
(1.27063e-06 5.10239e-35 -2.37008e-09)
(1.26336e-06 -9.77364e-30 -2.36105e-09)
(1.25623e-06 4.95225e-35 -2.35212e-09)
(1.24922e-06 0 -2.34339e-09)
(1.24235e-06 -9.36817e-30 -2.33479e-09)
(1.2356e-06 -9.23199e-30 -2.32632e-09)
(1.22898e-06 0 -2.31795e-09)
(1.22248e-06 0 -2.30978e-09)
(1.2161e-06 0 -2.30177e-09)
(1.20985e-06 0 -2.29392e-09)
(1.20371e-06 -4.42756e-35 -2.28622e-09)
(1.19769e-06 -8.45351e-30 -2.27865e-09)
(1.19178e-06 -8.32574e-30 -2.27119e-09)
(1.18599e-06 8.20047e-30 -2.26395e-09)
(1.18031e-06 8.07818e-30 -2.25692e-09)
(1.17474e-06 0 -2.24999e-09)
(1.16928e-06 7.83549e-30 -2.24314e-09)
(1.16393e-06 7.71551e-30 -2.2364e-09)
(1.15869e-06 4.02417e-35 -2.22981e-09)
(1.15355e-06 0 -2.22336e-09)
(1.14852e-06 -3.92834e-35 -2.21697e-09)
(1.1436e-06 -7.23557e-30 -2.21067e-09)
(1.13877e-06 7.11363e-30 -2.20449e-09)
(1.13405e-06 3.7902e-35 -2.19838e-09)
(1.12942e-06 0 -2.19236e-09)
(1.1249e-06 3.70008e-35 -2.18643e-09)
(1.12047e-06 6.60035e-30 -2.18056e-09)
(1.11613e-06 -3.60973e-35 -2.17475e-09)
(1.1119e-06 0 -2.16904e-09)
(1.10775e-06 0 -2.16342e-09)
(1.1037e-06 -6.008e-30 -2.15785e-09)
(1.09974e-06 0 -2.15237e-09)
(1.09588e-06 3.36617e-35 -2.14699e-09)
(1.0921e-06 -5.52197e-30 -2.14163e-09)
(1.08842e-06 5.35125e-30 -2.1362e-09)
(1.08483e-06 -5.18087e-30 -2.13085e-09)
(1.08133e-06 -3.12479e-35 -2.1256e-09)
(1.07792e-06 0 -2.12024e-09)
(1.0746e-06 -2.97461e-35 -2.11493e-09)
(1.07137e-06 0 -2.10973e-09)
(1.06823e-06 4.37302e-30 -2.10461e-09)
(1.06518e-06 2.76095e-35 -2.09998e-09)
(1.06221e-06 4.09653e-30 -2.09555e-09)
(1.05933e-06 -3.96017e-30 -2.09107e-09)
(1.05653e-06 2.56125e-35 -2.08667e-09)
(1.0538e-06 2.49281e-35 -2.08211e-09)
(1.05115e-06 0 -2.07736e-09)
(1.04857e-06 -2.36577e-35 -2.07265e-09)
(1.04606e-06 3.34894e-30 -2.06823e-09)
(1.04362e-06 3.24934e-30 -2.06401e-09)
(1.04124e-06 -2.23181e-35 -2.05976e-09)
(1.03892e-06 2.18987e-35 -2.05546e-09)
(1.03665e-06 0 -2.05128e-09)
(1.03444e-06 0 -2.04707e-09)
(1.03228e-06 0 -2.04295e-09)
(1.03016e-06 -2.67671e-30 -2.03879e-09)
(1.02808e-06 -2.097e-35 -2.03462e-09)
(1.02605e-06 0 -2.0301e-09)
(1.02404e-06 2.03571e-35 -2.02489e-09)
(1.02207e-06 0 -2.01876e-09)
(1.0201e-06 -1.93478e-35 -2.01237e-09)
(1.01815e-06 1.85517e-35 -2.00635e-09)
(1.01619e-06 -2.34615e-30 -2.00084e-09)
(1.01422e-06 1.79254e-35 -1.99577e-09)
(1.01222e-06 -1.78933e-35 -1.991e-09)
(1.01021e-06 0 -1.98651e-09)
(1.00817e-06 0 -1.98225e-09)
(1.0061e-06 0 -1.97806e-09)
(1.00402e-06 0 -1.97391e-09)
(1.00191e-06 0 -1.96977e-09)
(9.99783e-07 -1.75689e-35 -1.9656e-09)
(9.97636e-07 1.74583e-35 -1.96145e-09)
(9.9547e-07 0 -1.95723e-09)
(9.93286e-07 0 -1.95298e-09)
(9.91084e-07 1.71103e-35 -1.94879e-09)
(9.88866e-07 3.06056e-30 -1.94456e-09)
(9.86632e-07 0 -1.94039e-09)
(9.84383e-07 0 -1.93613e-09)
(9.82121e-07 0 -1.93197e-09)
(9.79848e-07 0 -1.92772e-09)
(9.77564e-07 0 -1.92352e-09)
(9.75271e-07 -1.65268e-35 -1.91928e-09)
(9.7297e-07 0 -1.91505e-09)
(9.70663e-07 3.32975e-30 -1.91079e-09)
(9.68351e-07 0 -1.90662e-09)
(9.66035e-07 -1.63789e-35 -1.90252e-09)
(9.63718e-07 1.63454e-35 -1.89846e-09)
(9.614e-07 -1.628e-35 -1.8944e-09)
(9.59084e-07 0 -1.89035e-09)
(9.56771e-07 -3.51082e-30 -1.8863e-09)
(9.54461e-07 0 -1.88232e-09)
(9.52155e-07 -1.61078e-35 -1.87831e-09)
(9.49855e-07 0 -1.8743e-09)
(9.47561e-07 0 -1.87031e-09)
(9.45275e-07 -1.60417e-35 -1.86634e-09)
(9.42995e-07 0 -1.86236e-09)
(9.40725e-07 3.68981e-30 -1.85845e-09)
(9.38463e-07 1.59795e-35 -1.85458e-09)
(9.36211e-07 -3.73264e-30 -1.85076e-09)
(9.33969e-07 0 -1.84692e-09)
(9.31739e-07 0 -1.8431e-09)
(9.29519e-07 0 -1.83926e-09)
(9.2731e-07 0 -1.83543e-09)
(9.25111e-07 0 -1.83159e-09)
(9.22923e-07 0 -1.82777e-09)
(9.20746e-07 0 -1.82403e-09)
(9.18579e-07 0 -1.82036e-09)
(9.16425e-07 0 -1.81682e-09)
(9.14282e-07 1.58485e-35 -1.81325e-09)
(9.12153e-07 3.92364e-30 -1.80983e-09)
(9.10037e-07 0 -1.80638e-09)
(9.07935e-07 -1.59898e-35 -1.80317e-09)
(9.05847e-07 0 -1.79996e-09)
(9.03776e-07 1.61062e-35 -1.79685e-09)
(9.01721e-07 0 -1.7937e-09)
(8.99683e-07 -1.61727e-35 -1.79064e-09)
(8.97663e-07 0 -1.78754e-09)
(8.95662e-07 -4.00749e-30 -1.78449e-09)
(8.93678e-07 0 -1.78136e-09)
(8.91712e-07 0 -1.77833e-09)
(8.89764e-07 0 -1.77531e-09)
(8.87834e-07 -4.0161e-30 -1.77242e-09)
(8.85923e-07 0 -1.76955e-09)
(8.84032e-07 4.01197e-30 -1.76676e-09)
(8.82162e-07 0 -1.76397e-09)
(8.80313e-07 -1.5808e-35 -1.76126e-09)
(8.78487e-07 0 -1.75848e-09)
(8.76685e-07 0 -1.75552e-09)
(8.74908e-07 3.96079e-30 -1.75261e-09)
(8.73158e-07 0 -1.74997e-09)
(8.71433e-07 0 -1.7473e-09)
(8.69734e-07 -1.49174e-35 -1.74445e-09)
(8.6806e-07 0 -1.74126e-09)
(8.66409e-07 -3.83859e-30 -1.73761e-09)
(8.64786e-07 -3.80485e-30 -1.73425e-09)
(8.63188e-07 -1.39369e-35 -1.73105e-09)
(8.61611e-07 -3.70921e-30 -1.72663e-09)
(8.6006e-07 0 -1.72165e-09)
(8.5854e-07 0 -1.71761e-09)
(8.57051e-07 -3.55412e-30 -1.71473e-09)
(8.55589e-07 3.52521e-30 -1.71265e-09)
(8.54152e-07 0 -1.71069e-09)
(8.52736e-07 -3.44369e-30 -1.7085e-09)
(8.51337e-07 0 -1.70594e-09)
(8.49954e-07 1.23153e-35 -1.7029e-09)
(8.48583e-07 0 -1.69914e-09)
(8.47222e-07 0 -1.69469e-09)
(8.45874e-07 0 -1.69057e-09)
(8.44539e-07 1.13632e-35 -1.68736e-09)
(8.43214e-07 -1.14212e-35 -1.68465e-09)
(8.41896e-07 0 -1.68258e-09)
(8.40584e-07 0 -1.68084e-09)
(8.39112e-07 -2.86416e-30 -1.67856e-09)
(8.37479e-07 2.81732e-30 -1.67604e-09)
(8.35879e-07 0 -1.67362e-09)
(8.34311e-07 -2.7196e-30 -1.67106e-09)
(8.32775e-07 0 -1.66842e-09)
(8.31272e-07 2.61913e-30 -1.66581e-09)
(8.29802e-07 0 -1.66328e-09)
(8.28365e-07 0 -1.66078e-09)
(8.26958e-07 -2.4946e-30 -1.6583e-09)
(8.25581e-07 0 -1.65584e-09)
(8.24232e-07 0 -1.65339e-09)
(8.2291e-07 0 -1.65092e-09)
(8.21615e-07 0 -1.64843e-09)
(8.20347e-07 0 -1.64598e-09)
(8.19108e-07 0 -1.64353e-09)
(8.17898e-07 0 -1.64106e-09)
(8.1672e-07 7.87373e-36 -1.63854e-09)
(8.15572e-07 0 -1.63592e-09)
(8.14455e-07 7.47633e-36 -1.63308e-09)
(8.13366e-07 2.17799e-30 -1.63e-09)
(8.12304e-07 -2.14262e-30 -1.62677e-09)
(8.11268e-07 -2.10587e-30 -1.62327e-09)
(8.10255e-07 0 -1.61929e-09)
(8.08963e-07 0 -1.61428e-09)
(8.0756e-07 0 -1.60886e-09)
(8.06141e-07 6.47805e-36 -1.60428e-09)
(8.04703e-07 1.94375e-30 -1.6009e-09)
(8.0324e-07 0 -1.59735e-09)
(8.01746e-07 0 -1.59272e-09)
(8.00221e-07 0 -1.58702e-09)
(7.98668e-07 0 -1.58113e-09)
(7.97091e-07 1.78448e-30 -1.57608e-09)
(7.95487e-07 1.77093e-30 -1.57133e-09)
(7.93855e-07 0 -1.5665e-09)
(7.92197e-07 -1.75309e-30 -1.5623e-09)
(7.90515e-07 -1.76104e-30 -1.55863e-09)
(7.88807e-07 0 -1.5552e-09)
(7.87071e-07 0 -1.55153e-09)
(7.85308e-07 0 -1.54761e-09)
(7.83519e-07 5.66945e-36 -1.54383e-09)
(7.81704e-07 0 -1.53993e-09)
(7.79863e-07 1.85958e-30 -1.53589e-09)
(7.77996e-07 1.89316e-30 -1.53178e-09)
(7.76101e-07 0 -1.52766e-09)
(7.7418e-07 5.4818e-36 -1.52356e-09)
(7.72233e-07 0 -1.51945e-09)
(7.7026e-07 0 -1.51536e-09)
(7.68261e-07 5.74376e-36 -1.51121e-09)
(7.66236e-07 0 -1.50701e-09)
(7.64185e-07 0 -1.50284e-09)
(7.62107e-07 0 -1.49867e-09)
(7.60002e-07 0 -1.49453e-09)
(7.57869e-07 0 -1.49033e-09)
(7.55711e-07 0 -1.48614e-09)
(7.53525e-07 0 -1.48189e-09)
(7.51314e-07 2.63472e-30 -1.47767e-09)
(7.49077e-07 0 -1.47343e-09)
(7.46818e-07 0 -1.46917e-09)
(7.44538e-07 0 -1.46486e-09)
(7.42238e-07 0 -1.4606e-09)
(7.3992e-07 0 -1.45629e-09)
(7.37587e-07 0 -1.45202e-09)
(7.3524e-07 0 -1.44773e-09)
(7.32882e-07 3.09639e-30 -1.44345e-09)
(7.30513e-07 -3.14515e-30 -1.43924e-09)
(7.28136e-07 0 -1.43498e-09)
(7.25753e-07 9.56489e-36 -1.43077e-09)
(7.23363e-07 -9.69401e-36 -1.42649e-09)
(7.2097e-07 -3.30645e-30 -1.42229e-09)
(7.18575e-07 3.33487e-30 -1.41803e-09)
(7.1618e-07 0 -1.41386e-09)
(7.13789e-07 -3.38303e-30 -1.40966e-09)
(7.11403e-07 3.40347e-30 -1.40553e-09)
(7.09026e-07 3.41942e-30 -1.40131e-09)
(7.06658e-07 3.43547e-30 -1.39714e-09)
(7.04301e-07 3.44952e-30 -1.39291e-09)
(7.01956e-07 3.46327e-30 -1.38869e-09)
(6.99623e-07 -1.00407e-35 -1.3844e-09)
(6.973e-07 0 -1.3801e-09)
(6.94988e-07 0 -1.37578e-09)
(6.92685e-07 0 -1.37151e-09)
(6.90392e-07 0 -1.36723e-09)
(6.88108e-07 0 -1.36301e-09)
(6.85833e-07 3.54728e-30 -1.35876e-09)
(6.83569e-07 3.56393e-30 -1.35452e-09)
(6.81315e-07 9.60839e-36 -1.35027e-09)
(6.79069e-07 -9.63774e-36 -1.34605e-09)
(6.76833e-07 0 -1.34192e-09)
(6.74606e-07 -9.7375e-36 -1.33777e-09)
(6.72388e-07 0 -1.3336e-09)
(6.70178e-07 3.67551e-30 -1.32939e-09)
(6.67976e-07 -9.8751e-36 -1.32521e-09)
(6.6578e-07 -3.7e-30 -1.32104e-09)
(6.63591e-07 1.00782e-35 -1.3169e-09)
(6.61408e-07 3.71927e-30 -1.31278e-09)
(6.59231e-07 0 -1.30869e-09)
(6.5706e-07 0 -1.30465e-09)
(6.54898e-07 0 -1.30065e-09)
(6.52743e-07 0 -1.29668e-09)
(6.50599e-07 0 -1.29276e-09)
(6.48464e-07 1.06789e-35 -1.28881e-09)
(6.46341e-07 -1.06881e-35 -1.28492e-09)
(6.44229e-07 3.7558e-30 -1.28102e-09)
(6.4213e-07 0 -1.27721e-09)
(6.40043e-07 3.74877e-30 -1.27335e-09)
(6.3797e-07 0 -1.26952e-09)
(6.35911e-07 0 -1.2657e-09)
(6.33866e-07 -1.05806e-35 -1.26183e-09)
(6.31836e-07 0 -1.25784e-09)
(6.29821e-07 3.72002e-30 -1.25388e-09)
(6.2782e-07 0 -1.24981e-09)
(6.25834e-07 -3.70888e-30 -1.24588e-09)
(6.23862e-07 0 -1.24214e-09)
(6.21903e-07 -3.70137e-30 -1.23831e-09)
(6.19954e-07 -1.06186e-35 -1.23436e-09)
(6.18014e-07 0 -1.23023e-09)
(6.16084e-07 0 -1.22616e-09)
(6.14167e-07 3.65191e-30 -1.22265e-09)
(6.12259e-07 3.6411e-30 -1.21924e-09)
(6.10358e-07 -3.61805e-30 -1.21552e-09)
(6.08465e-07 0 -1.21161e-09)
(6.06581e-07 -3.55642e-30 -1.20767e-09)
(6.04707e-07 0 -1.20367e-09)
(6.02841e-07 0 -1.19969e-09)
(6.00986e-07 0 -1.19623e-09)
(5.9914e-07 3.43458e-30 -1.19316e-09)
(5.97301e-07 1.09664e-35 -1.18988e-09)
(5.95467e-07 0 -1.18633e-09)
(5.93638e-07 1.05285e-35 -1.18263e-09)
(5.91814e-07 -3.28152e-30 -1.17886e-09)
(5.89993e-07 -3.23765e-30 -1.17514e-09)
(5.88174e-07 0 -1.17141e-09)
(5.86355e-07 9.82397e-36 -1.16776e-09)
(5.84536e-07 3.11934e-30 -1.16428e-09)
(5.82715e-07 -9.51291e-36 -1.16078e-09)
(5.80891e-07 -3.04932e-30 -1.15717e-09)
(5.79066e-07 9.13358e-36 -1.15342e-09)
(5.7724e-07 -9.01208e-36 -1.14968e-09)
(5.75415e-07 9.03474e-36 -1.14626e-09)
(5.73592e-07 9.03252e-36 -1.14309e-09)
(5.7177e-07 0 -1.13985e-09)
(5.6995e-07 2.86442e-30 -1.13651e-09)
(5.68134e-07 0 -1.13316e-09)
(5.66322e-07 2.81002e-30 -1.12979e-09)
(5.64515e-07 -8.17492e-36 -1.12639e-09)
(5.62714e-07 -2.76683e-30 -1.12304e-09)
(5.60921e-07 0 -1.1197e-09)
(5.59137e-07 0 -1.11633e-09)
(5.57361e-07 0 -1.11291e-09)
(5.55594e-07 0 -1.10942e-09)
(5.53834e-07 2.66754e-30 -1.10586e-09)
(5.52081e-07 0 -1.10224e-09)
(5.50334e-07 0 -1.09858e-09)
(5.4859e-07 0 -1.09496e-09)
(5.46849e-07 0 -1.09132e-09)
(5.45106e-07 -2.55834e-30 -1.08754e-09)
(5.43359e-07 -6.34198e-36 -1.08373e-09)
(5.41608e-07 6.26289e-36 -1.08e-09)
(5.39851e-07 0 -1.07629e-09)
(5.38086e-07 0 -1.07262e-09)
(5.36312e-07 0 -1.06897e-09)
(5.3453e-07 0 -1.06525e-09)
(5.32739e-07 0 -1.06144e-09)
(5.30941e-07 0 -1.05729e-09)
(5.29136e-07 0 -1.05267e-09)
(5.27328e-07 -2.42415e-30 -1.04817e-09)
(5.25519e-07 -2.38691e-30 -1.04348e-09)
(5.23706e-07 0 -1.03865e-09)
(5.21899e-07 0 -1.03489e-09)
(5.20092e-07 2.31423e-30 -1.03179e-09)
(5.18284e-07 -6.75777e-36 -1.02857e-09)
(5.16475e-07 2.26658e-30 -1.02528e-09)
(5.14667e-07 -6.52685e-36 -1.02176e-09)
(5.12859e-07 -2.20828e-30 -1.01814e-09)
(5.11053e-07 2.17582e-30 -1.01447e-09)
(5.09247e-07 0 -1.01072e-09)
(5.07442e-07 2.12231e-30 -1.00686e-09)
(5.05633e-07 0 -1.00294e-09)
(5.03819e-07 0 -9.9901e-10)
(5.01993e-07 0 -9.95067e-10)
(5.00158e-07 0 -9.91145e-10)
(4.98307e-07 -4.93339e-36 -9.87206e-10)
(4.96441e-07 0 -9.83253e-10)
(4.94554e-07 0 -9.79285e-10)
(4.9265e-07 -2.087e-30 -9.75267e-10)
(4.9072e-07 0 -9.71223e-10)
(4.88772e-07 5.30458e-36 -9.67221e-10)
(4.86796e-07 -2.14437e-30 -9.63244e-10)
(4.84804e-07 0 -9.59361e-10)
(4.82789e-07 -5.62514e-36 -9.55519e-10)
(4.80766e-07 0 -9.51711e-10)
(4.78727e-07 0 -9.47905e-10)
(4.76688e-07 0 -9.44045e-10)
(4.74638e-07 -2.16372e-30 -9.40115e-10)
(4.72594e-07 -6.04688e-36 -9.36168e-10)
(4.70539e-07 2.1604e-30 -9.32211e-10)
(4.68491e-07 2.14198e-30 -9.28236e-10)
(4.66433e-07 0 -9.24262e-10)
(4.64384e-07 -2.15627e-30 -9.20279e-10)
(4.62323e-07 -2.19295e-30 -9.16265e-10)
(4.60273e-07 5.01942e-36 -9.12173e-10)
(4.58207e-07 0 -9.07986e-10)
(4.56153e-07 0 -9.0367e-10)
(4.54072e-07 0 -8.99182e-10)
(4.51995e-07 2.42417e-30 -8.94511e-10)
(4.49876e-07 0 -8.89571e-10)
(4.47743e-07 -2.64662e-30 -8.84369e-10)
(4.45544e-07 -4.05394e-36 -8.78474e-10)
(4.43305e-07 3.04992e-30 -8.7212e-10)
(4.40943e-07 0 -8.64223e-10)
(4.38503e-07 -3.14474e-36 -8.54817e-10)
(4.35802e-07 4.58626e-30 -8.42312e-10)
(4.32937e-07 0 -8.2643e-10)
(4.29529e-07 0 -8.04894e-10)
(4.25735e-07 0 -7.76627e-10)
(4.20829e-07 -1.14003e-29 -7.36634e-10)
(4.15067e-07 1.40975e-29 -6.838e-10)
(4.0707e-07 -6.102e-35 -6.12146e-10)
(3.9725e-07 -2.18633e-35 -5.1192e-10)
(3.83671e-07 0 -5.14177e-10)
(3.65534e-07 0 -2.96601e-10)
(3.6165e-07 -6.70058e-28 -3.98127e-09)
(3.25046e-07 1.33297e-27 -3.88667e-09)
(2.70153e-07 1.08846e-33 -5.40306e-10)
(2.02404e-07 0 -4.04809e-10)
(1.138e-07 0 -2.276e-10)
(1.60171e-08 0 -3.20341e-11)
(0 0 0)
(0 0 0)
(0 0 0)
(0 0 0)
(0 0 0)
(0 0 0)
)
;
    }
    endWall
    {
        type            calculated;
        value           uniform (0 0 0);
    }
    topWall
    {
        type            calculated;
        value           uniform (0 0 0);
    }
}


// ************************************************************************* //
