/*--------------------------------*- C++ -*----------------------------------*\
| =========                 |                                                 |
| \\      /  F ield         | foam-extend: Open Source CFD                    |
|  \\    /   O peration     | Version:     3.2                                |
|   \\  /    A nd           | Web:         http://www.foam-extend.org         |
|    \\/     M anipulation  | For copyright notice see file Copyright         |
\*---------------------------------------------------------------------------*/
FoamFile
{
    version     2.0;
    format      ascii;
    class       edgeScalarField;
    location    "120";
    object      q_f;
}
// * * * * * * * * * * * * * * * * * * * * * * * * * * * * * * * * * * * * * //

dimensions      [0 3 -1 0 0 0 0];

internalField   nonuniform List<scalar> 
549
(
0
0
1.1171e-09
5.74272e-09
1.4568e-08
2.68225e-08
4.1905e-08
5.88685e-08
7.65678e-08
9.38571e-08
1.09756e-07
1.23546e-07
1.34805e-07
1.43371e-07
1.49295e-07
1.52779e-07
1.5413e-07
1.53696e-07
1.51888e-07
1.4906e-07
1.4546e-07
1.41299e-07
1.36763e-07
1.32009e-07
1.27173e-07
1.22363e-07
1.17669e-07
1.13163e-07
1.08874e-07
1.04802e-07
1.00949e-07
9.73229e-08
9.39227e-08
9.0744e-08
8.77797e-08
8.50208e-08
8.24572e-08
8.00782e-08
7.78727e-08
7.58297e-08
7.39383e-08
7.21875e-08
7.05667e-08
6.90657e-08
6.76749e-08
6.6386e-08
6.51913e-08
6.40835e-08
6.30559e-08
6.21022e-08
6.12163e-08
6.03927e-08
5.96259e-08
5.89108e-08
5.82425e-08
5.76164e-08
5.70286e-08
5.64755e-08
5.59541e-08
5.54611e-08
5.49943e-08
5.45514e-08
5.41303e-08
5.37293e-08
5.33465e-08
5.29804e-08
5.26294e-08
5.22922e-08
5.19676e-08
5.16544e-08
5.13514e-08
5.10577e-08
5.07723e-08
5.04945e-08
5.02234e-08
4.99583e-08
4.96985e-08
4.94437e-08
4.91936e-08
4.89482e-08
4.87073e-08
4.84708e-08
4.82383e-08
4.80099e-08
4.77851e-08
4.75641e-08
4.73465e-08
4.71324e-08
4.69215e-08
4.67136e-08
4.65084e-08
4.63054e-08
4.61042e-08
4.59047e-08
4.57068e-08
4.55106e-08
4.53161e-08
4.51234e-08
4.49326e-08
4.47435e-08
4.45561e-08
4.43697e-08
4.41839e-08
4.39981e-08
4.38121e-08
4.36254e-08
4.34376e-08
4.32485e-08
4.30579e-08
4.28656e-08
4.26716e-08
4.24758e-08
4.22782e-08
4.20788e-08
4.18777e-08
4.16748e-08
4.147e-08
4.12634e-08
4.10552e-08
4.08454e-08
4.06342e-08
4.04217e-08
4.02078e-08
3.99929e-08
3.97769e-08
3.95602e-08
3.93429e-08
3.91251e-08
3.89071e-08
3.8689e-08
3.8471e-08
3.82531e-08
3.80355e-08
3.78183e-08
3.76015e-08
3.73851e-08
3.71694e-08
3.69544e-08
3.67402e-08
3.65269e-08
3.63145e-08
3.61031e-08
3.58929e-08
3.56838e-08
3.5476e-08
3.52695e-08
3.50644e-08
3.48606e-08
3.46584e-08
3.44577e-08
3.42587e-08
3.40613e-08
3.38657e-08
3.3672e-08
3.34803e-08
3.32906e-08
3.31032e-08
3.29179e-08
3.2735e-08
3.25544e-08
3.23762e-08
3.22005e-08
3.20272e-08
3.18565e-08
3.16884e-08
3.15229e-08
3.13601e-08
3.12e-08
3.10427e-08
3.08881e-08
3.07363e-08
3.05874e-08
3.04413e-08
3.02981e-08
3.01577e-08
3.00202e-08
2.98855e-08
2.97536e-08
2.96245e-08
2.94981e-08
2.93745e-08
2.92535e-08
2.91353e-08
2.90196e-08
2.89066e-08
2.87962e-08
2.86884e-08
2.85831e-08
2.84803e-08
2.838e-08
2.82822e-08
2.8187e-08
2.80942e-08
2.80038e-08
2.79159e-08
2.78305e-08
2.77475e-08
2.7667e-08
2.75889e-08
2.75132e-08
2.74399e-08
2.7369e-08
2.73005e-08
2.72343e-08
2.71704e-08
2.71087e-08
2.70491e-08
2.69916e-08
2.69361e-08
2.68825e-08
2.68306e-08
2.67804e-08
2.67318e-08
2.66846e-08
2.66387e-08
2.65941e-08
2.65506e-08
2.65081e-08
2.64664e-08
2.64256e-08
2.63855e-08
2.63459e-08
2.63069e-08
2.62682e-08
2.623e-08
2.61917e-08
2.61531e-08
2.6114e-08
2.60741e-08
2.60335e-08
2.59922e-08
2.59503e-08
2.59079e-08
2.5865e-08
2.58217e-08
2.57779e-08
2.57239e-08
2.56643e-08
2.56294e-08
2.55997e-08
2.5555e-08
2.55106e-08
2.54665e-08
2.54231e-08
2.53803e-08
2.53377e-08
2.5295e-08
2.52524e-08
2.52098e-08
2.51671e-08
2.51242e-08
2.50812e-08
2.50378e-08
2.4994e-08
2.49498e-08
2.49051e-08
2.48599e-08
2.4814e-08
2.47677e-08
2.47207e-08
2.46733e-08
2.46253e-08
2.45768e-08
2.45278e-08
2.44783e-08
2.44284e-08
2.4378e-08
2.43273e-08
2.42763e-08
2.42249e-08
2.41733e-08
2.41215e-08
2.40695e-08
2.40174e-08
2.39652e-08
2.39131e-08
2.3861e-08
2.3809e-08
2.3757e-08
2.37051e-08
2.36533e-08
2.36017e-08
2.35503e-08
2.34993e-08
2.34486e-08
2.33983e-08
2.33486e-08
2.32995e-08
2.3251e-08
2.32032e-08
2.3156e-08
2.31096e-08
2.30639e-08
2.3019e-08
2.2975e-08
2.29318e-08
2.28896e-08
2.28482e-08
2.28076e-08
2.27679e-08
2.2729e-08
2.26909e-08
2.26534e-08
2.26165e-08
2.25802e-08
2.25444e-08
2.2509e-08
2.24742e-08
2.24398e-08
2.2406e-08
2.23726e-08
2.23398e-08
2.23075e-08
2.22758e-08
2.22447e-08
2.2214e-08
2.21839e-08
2.21543e-08
2.21252e-08
2.20966e-08
2.20685e-08
2.20409e-08
2.20139e-08
2.19873e-08
2.19614e-08
2.19359e-08
2.1911e-08
2.18865e-08
2.18625e-08
2.18389e-08
2.18157e-08
2.17929e-08
2.17705e-08
2.17485e-08
2.17267e-08
2.17053e-08
2.16842e-08
2.16633e-08
2.16426e-08
2.1622e-08
2.16015e-08
2.1581e-08
2.15605e-08
2.15399e-08
2.15191e-08
2.1498e-08
2.14764e-08
2.14544e-08
2.14318e-08
2.14086e-08
2.13846e-08
2.13597e-08
2.1334e-08
2.13074e-08
2.12799e-08
2.12515e-08
2.12221e-08
2.11919e-08
2.11608e-08
2.11289e-08
2.10962e-08
2.10628e-08
2.10285e-08
2.09934e-08
2.09576e-08
2.09209e-08
2.08834e-08
2.08452e-08
2.08062e-08
2.07664e-08
2.07258e-08
2.06845e-08
2.06423e-08
2.05994e-08
2.05555e-08
2.05108e-08
2.04651e-08
2.04185e-08
2.0371e-08
2.03225e-08
2.02732e-08
2.02229e-08
2.01719e-08
2.012e-08
2.00674e-08
2.0014e-08
1.99599e-08
1.99052e-08
1.98499e-08
1.97939e-08
1.97375e-08
1.96805e-08
1.96232e-08
1.95654e-08
1.95074e-08
1.94491e-08
1.93906e-08
1.93318e-08
1.92728e-08
1.92137e-08
1.91543e-08
1.90948e-08
1.90352e-08
1.89756e-08
1.89159e-08
1.88562e-08
1.87965e-08
1.87369e-08
1.86774e-08
1.86178e-08
1.85584e-08
1.84989e-08
1.84395e-08
1.838e-08
1.83205e-08
1.82609e-08
1.82013e-08
1.81415e-08
1.80817e-08
1.80217e-08
1.79616e-08
1.79015e-08
1.78412e-08
1.77809e-08
1.77206e-08
1.76602e-08
1.75999e-08
1.75397e-08
1.74796e-08
1.74197e-08
1.73601e-08
1.73007e-08
1.72418e-08
1.71833e-08
1.71254e-08
1.7068e-08
1.70112e-08
1.69551e-08
1.68996e-08
1.68449e-08
1.67909e-08
1.67378e-08
1.66855e-08
1.66341e-08
1.65836e-08
1.6534e-08
1.64854e-08
1.64376e-08
1.63907e-08
1.63446e-08
1.62993e-08
1.62546e-08
1.62106e-08
1.61673e-08
1.61247e-08
1.60826e-08
1.60413e-08
1.60006e-08
1.59606e-08
1.59211e-08
1.58821e-08
1.58437e-08
1.58056e-08
1.57678e-08
1.57303e-08
1.5693e-08
1.5656e-08
1.56192e-08
1.55827e-08
1.55464e-08
1.55105e-08
1.54748e-08
1.54394e-08
1.54043e-08
1.53694e-08
1.53348e-08
1.53006e-08
1.52667e-08
1.52332e-08
1.52001e-08
1.51673e-08
1.5135e-08
1.51029e-08
1.50712e-08
1.50398e-08
1.50087e-08
1.49777e-08
1.49468e-08
1.4916e-08
1.48852e-08
1.48542e-08
1.48232e-08
1.4792e-08
1.47606e-08
1.4729e-08
1.46972e-08
1.46652e-08
1.46331e-08
1.4601e-08
1.45688e-08
1.45365e-08
1.45041e-08
1.44715e-08
1.44387e-08
1.44054e-08
1.43717e-08
1.43373e-08
1.43023e-08
1.42667e-08
1.42303e-08
1.41933e-08
1.41557e-08
1.41175e-08
1.40786e-08
1.40391e-08
1.39991e-08
1.39586e-08
1.39176e-08
1.38763e-08
1.38344e-08
1.37921e-08
1.3749e-08
1.37051e-08
1.36598e-08
1.3613e-08
1.3564e-08
1.35122e-08
1.34563e-08
1.33952e-08
1.33258e-08
1.32458e-08
1.31489e-08
1.30305e-08
1.28784e-08
1.26842e-08
1.24264e-08
1.20839e-08
1.17443e-08
1.11167e-08
9.82676e-09
8.21086e-09
6.32318e-09
3.98527e-09
1.43014e-09
6.49235e-11
0
0
0
0
)
;

boundaryField
{
    inlet
    {
        type            calculated;
        value           uniform 0;
    }
    endWall
    {
        type            calculated;
        value           uniform 0;
    }
    sideWall
    {
        type            empty;
    }
}


// ************************************************************************* //
