/*--------------------------------*- C++ -*----------------------------------*\
| =========                 |                                                 |
| \\      /  F ield         | foam-extend: Open Source CFD                    |
|  \\    /   O peration     | Version:     3.2                                |
|   \\  /    A nd           | Web:         http://www.foam-extend.org         |
|    \\/     M anipulation  | For copyright notice see file Copyright         |
\*---------------------------------------------------------------------------*/
FoamFile
{
    version     2.0;
    format      ascii;
    class       areaScalarField;
    location    "120";
    object      tauCB;
}
// * * * * * * * * * * * * * * * * * * * * * * * * * * * * * * * * * * * * * //

dimensions      [1 1 2 0 0 0 0];

internalField   nonuniform List<scalar> 
550
(
0.0676939
0.0676939
0.0676939
0.0676939
0.0676939
0.0676939
0.0676939
0.0676939
0.0676939
0.0676939
0.0676939
0.0676939
0.0676939
0.0676939
0.0676939
0.0676939
0.0676939
0.0676939
0.0676939
0.0676939
0.0676939
0.0676939
0.0676939
0.0676939
0.0676939
0.0676939
0.0676939
0.0676939
0.0676939
0.0676939
0.0676939
0.0676939
0.0676939
0.0676939
0.0676939
0.0676939
0.0676939
0.0676939
0.0676939
0.0676939
0.0676939
0.0676939
0.0676939
0.0676939
0.0676939
0.0676939
0.0676939
0.0676939
0.0676939
0.0676939
0.0676939
0.0676939
0.0676939
0.0676939
0.0676939
0.0676939
0.0676939
0.0676939
0.0676939
0.0676939
0.0676939
0.0676939
0.0676939
0.0676939
0.0676939
0.0676939
0.0676939
0.0676939
0.0676939
0.0676939
0.0676939
0.0676939
0.0676939
0.0676939
0.0676939
0.0676939
0.0676939
0.0676939
0.0676939
0.0676939
0.0676939
0.0676939
0.0676939
0.0676939
0.0676939
0.0676939
0.0676939
0.0676939
0.0676939
0.0676939
0.0676939
0.0676939
0.0676939
0.0676939
0.0676939
0.0676939
0.0676939
0.0676939
0.0676939
0.0676939
0.0676939
0.0676939
0.0676939
0.0676939
0.0676939
0.0676939
0.0676939
0.0676939
0.0676939
0.0676939
0.0676939
0.0676939
0.0676939
0.0676939
0.0676939
0.0676939
0.0676939
0.0676939
0.0676939
0.0676939
0.0676939
0.0676939
0.0676939
0.0676939
0.0676939
0.0676939
0.0676939
0.0676938
0.0676935
0.0677469
0.0677068
0.067717
0.0677179
0.0677187
0.0677187
0.0677186
0.0677183
0.0677181
0.0677178
0.0677175
0.0677171
0.0677168
0.0677165
0.0677162
0.0677158
0.0677155
0.0677151
0.0677148
0.0677145
0.0677142
0.0677138
0.0677134
0.067713
0.0677126
0.0677123
0.0677119
0.0677115
0.0677111
0.0677107
0.0677103
0.0677099
0.0677135
0.0677178
0.0677222
0.0677267
0.0677314
0.0677362
0.0677411
0.0677461
0.0677511
0.0677562
0.0677612
0.0677662
0.067771
0.0677757
0.0677802
0.0677844
0.0677883
0.0677918
0.0677948
0.0677975
0.0677996
0.0678013
0.0678025
0.0678032
0.0678035
0.0678032
0.0678026
0.0678016
0.0678003
0.0677987
0.067797
0.0677951
0.0677932
0.0677914
0.0677897
0.0677883
0.0677872
0.0677865
0.0677863
0.0677866
0.0677875
0.0677891
0.0677914
0.0677944
0.0677982
0.0678027
0.067808
0.067814
0.0678208
0.0678283
0.0678366
0.0678456
0.0678555
0.0678661
0.0678775
0.0678897
0.0679027
0.0679164
0.067931
0.0679463
0.0679623
0.0679791
0.0679967
0.0680152
0.0680349
0.0680556
0.0680768
0.0680983
0.0681199
0.0681413
0.0681624
0.0681833
0.0682036
0.0682235
0.0682429
0.0682616
0.0682798
0.0682973
0.0683142
0.0683303
0.0683457
0.0683604
0.0683743
0.0683875
0.0683998
0.0684114
0.0684223
0.0684324
0.0684417
0.0684504
0.0684582
0.0684654
0.0684718
0.0684775
0.0684824
0.0684866
0.06849
0.0684928
0.0684948
0.0684962
0.0684969
0.068497
0.0684965
0.0684953
0.0684935
0.0684912
0.0684882
0.0684847
0.0684806
0.0684761
0.068471
0.0684654
0.0684594
0.0684528
0.0684456
0.0684377
0.0684292
0.06842
0.06841
0.0683992
0.0683876
0.0683751
0.0683618
0.0683476
0.0683327
0.0683169
0.0683003
0.0682828
0.0682646
0.0682455
0.0682256
0.068205
0.0681837
0.0681616
0.0681389
0.0681158
0.0680923
0.0680685
0.0680446
0.0680206
0.0679969
0.0679733
0.0679499
0.0679267
0.0679037
0.0678811
0.0678589
0.0678374
0.0678166
0.0677968
0.067778
0.0677604
0.0677437
0.0677282
0.0677139
0.0677006
0.0676939
0.0676938
0.0676937
0.0676936
0.0676936
0.0676935
0.0676935
0.0676934
0.0676934
0.0676933
0.0676933
0.0676933
0.0676933
0.0676933
0.0676933
0.0676933
0.0676933
0.0676933
0.0676934
0.0676935
0.0676937
0.0676938
0.0676941
0.0677047
0.0677199
0.0677364
0.0677542
0.0677732
0.0677935
0.0678152
0.0678381
0.0678619
0.0678868
0.0679127
0.0679394
0.0679668
0.0679947
0.0680232
0.0680521
0.0680813
0.0681108
0.0681403
0.06817
0.0681996
0.0682293
0.0682588
0.0682881
0.0683171
0.0683458
0.0683741
0.0684017
0.0684286
0.0684547
0.0684797
0.0685037
0.0685266
0.0685482
0.0685686
0.0685877
0.0686055
0.068622
0.0686373
0.0686514
0.0686641
0.0686756
0.0686857
0.0686944
0.0687017
0.0687076
0.0687121
0.0687153
0.0687172
0.0687179
0.0687176
0.0687161
0.0687137
0.0687104
0.0687062
0.0687011
0.0686953
0.0686888
0.0686817
0.0686739
0.0686656
0.0686567
0.0686474
0.0686377
0.0686275
0.0686169
0.0686058
0.0685943
0.0685823
0.0685698
0.0685569
0.0685436
0.0685299
0.0685157
0.0685011
0.0684862
0.0684708
0.068455
0.0684389
0.0684224
0.0684056
0.0683884
0.0683709
0.0683532
0.0683353
0.0683172
0.068299
0.0682807
0.0682622
0.0682435
0.0682248
0.0682061
0.0681873
0.0681686
0.0681497
0.0681309
0.0681122
0.0680937
0.0680752
0.068057
0.068039
0.068021
0.0680033
0.0679857
0.0679685
0.0679518
0.0679355
0.0679198
0.067905
0.0678909
0.0678777
0.0678655
0.0678541
0.0678436
0.067834
0.0678252
0.0678172
0.0678101
0.0678039
0.0677985
0.0677939
0.0677901
0.0677869
0.0677843
0.0677823
0.0677807
0.0677798
0.0677796
0.0677802
0.0677817
0.0677843
0.067788
0.0677928
0.0677988
0.0678059
0.0678142
0.0678235
0.0678337
0.067845
0.0678571
0.0678701
0.0678841
0.0678989
0.0679147
0.0679315
0.067949
0.0679672
0.0679862
0.0680057
0.0680258
0.0680463
0.0680674
0.0680891
0.0681114
0.0681345
0.0681585
0.0681834
0.068209
0.0682354
0.0682623
0.0682895
0.068317
0.0683446
0.0683721
0.0683994
0.0684265
0.068453
0.068479
0.0685043
0.0685289
0.0685527
0.0685758
0.0685982
0.0686199
0.068641
0.0686614
0.0686813
0.0687005
0.0687192
0.0687374
0.0687553
0.0687728
0.0687901
0.068807
0.0688235
0.0688395
0.0688552
0.0688704
0.0688859
0.0689017
0.0689195
0.0689401
0.0689664
0.0690015
0.0690509
0.069129
0.069195
0.069418
0.0682921
0.0678225
0.0676939
0.0676939
0.0676939
0.0676939
0.0676939
0.0676939
0.0676939
0.0676939
0.0681118
0.0681118
)
;

boundaryField
{
    inlet
    {
        type            calculated;
        value           uniform 0;
    }
    endWall
    {
        type            calculated;
        value           uniform 0;
    }
    sideWall
    {
        type            empty;
    }
}


// ************************************************************************* //
