/*--------------------------------*- C++ -*----------------------------------*\
| =========                 |                                                 |
| \\      /  F ield         | foam-extend: Open Source CFD                    |
|  \\    /   O peration     | Version:     3.2                                |
|   \\  /    A nd           | Web:         http://www.foam-extend.org         |
|    \\/     M anipulation  | For copyright notice see file Copyright         |
\*---------------------------------------------------------------------------*/
FoamFile
{
    version     2.0;
    format      ascii;
    class       areaScalarField;
    location    "120";
    object      thetaCB;
}
// * * * * * * * * * * * * * * * * * * * * * * * * * * * * * * * * * * * * * //

dimensions      [0 0 0 0 0 0 0];

internalField   nonuniform List<scalar> 
550
(
0.0367204
0.0367204
0.0367204
0.0367204
0.0367204
0.0367204
0.0367204
0.0367204
0.0367204
0.0367204
0.0367204
0.0367204
0.0367204
0.0367204
0.0367204
0.0367204
0.0367204
0.0367204
0.0367204
0.0367204
0.0367204
0.0367204
0.0367204
0.0367204
0.0367204
0.0367204
0.0367204
0.0367204
0.0367204
0.0367204
0.0367204
0.0367204
0.0367204
0.0367204
0.0367204
0.0367204
0.0367204
0.0367204
0.0367204
0.0367204
0.0367204
0.0367204
0.0367204
0.0367204
0.0367204
0.0367204
0.0367204
0.0367204
0.0367204
0.0367204
0.0367204
0.0367204
0.0367204
0.0367204
0.0367204
0.0367204
0.0367204
0.0367204
0.0367204
0.0367204
0.0367204
0.0367204
0.0367204
0.0367204
0.0367204
0.0367204
0.0367204
0.0367204
0.0367204
0.0367204
0.0367204
0.0367204
0.0367204
0.0367204
0.0367204
0.0367204
0.0367204
0.0367204
0.0367204
0.0367204
0.0367204
0.0367204
0.0367204
0.0367204
0.0367204
0.0367204
0.0367204
0.0367204
0.0367204
0.0367204
0.0367204
0.0367204
0.0367204
0.0367204
0.0367204
0.0367204
0.0367204
0.0367204
0.0367204
0.0367204
0.0367204
0.0367204
0.0367204
0.0367204
0.0367204
0.0367204
0.0367204
0.0367204
0.0367204
0.0367204
0.0367204
0.0367204
0.0367204
0.0367204
0.0367204
0.0367204
0.0367204
0.0367204
0.0367204
0.0367204
0.0367204
0.0367204
0.0367204
0.0367204
0.0367204
0.0367204
0.0367204
0.0367204
0.0367202
0.0367491
0.0367274
0.036733
0.0367334
0.0367339
0.0367339
0.0367338
0.0367337
0.0367335
0.0367334
0.0367332
0.036733
0.0367328
0.0367327
0.0367325
0.0367323
0.0367321
0.0367319
0.0367318
0.0367316
0.0367314
0.0367312
0.036731
0.0367308
0.0367306
0.0367304
0.0367302
0.0367299
0.0367297
0.0367295
0.0367293
0.0367291
0.036731
0.0367333
0.0367357
0.0367382
0.0367407
0.0367433
0.036746
0.0367487
0.0367514
0.0367542
0.0367569
0.0367596
0.0367623
0.0367648
0.0367672
0.0367695
0.0367716
0.0367735
0.0367752
0.0367766
0.0367778
0.0367787
0.0367793
0.0367797
0.0367798
0.0367797
0.0367794
0.0367788
0.0367781
0.0367773
0.0367763
0.0367753
0.0367743
0.0367733
0.0367724
0.0367716
0.036771
0.0367706
0.0367705
0.0367707
0.0367712
0.036772
0.0367733
0.0367749
0.036777
0.0367795
0.0367823
0.0367856
0.0367892
0.0367933
0.0367978
0.0368027
0.0368081
0.0368138
0.03682
0.0368266
0.0368337
0.0368411
0.036849
0.0368573
0.036866
0.0368751
0.0368846
0.0368947
0.0369054
0.0369166
0.0369281
0.0369398
0.0369515
0.0369631
0.0369746
0.0369859
0.0369969
0.0370077
0.0370182
0.0370284
0.0370382
0.0370477
0.0370569
0.0370656
0.037074
0.037082
0.0370895
0.0370966
0.0371033
0.0371096
0.0371155
0.037121
0.0371261
0.0371307
0.037135
0.0371389
0.0371424
0.0371454
0.0371481
0.0371504
0.0371523
0.0371538
0.0371549
0.0371556
0.037156
0.0371561
0.0371558
0.0371551
0.0371542
0.0371529
0.0371513
0.0371494
0.0371472
0.0371447
0.037142
0.0371389
0.0371356
0.037132
0.0371281
0.0371239
0.0371193
0.0371143
0.0371088
0.037103
0.0370967
0.0370899
0.0370827
0.037075
0.0370669
0.0370584
0.0370493
0.0370399
0.03703
0.0370196
0.0370088
0.0369977
0.0369861
0.0369741
0.0369618
0.0369493
0.0369365
0.0369236
0.0369107
0.0368977
0.0368848
0.036872
0.0368593
0.0368467
0.0368342
0.0368219
0.0368099
0.0367982
0.036787
0.0367762
0.0367661
0.0367565
0.0367474
0.036739
0.0367312
0.036724
0.0367204
0.0367204
0.0367203
0.0367203
0.0367202
0.0367202
0.0367202
0.0367202
0.0367201
0.0367201
0.0367201
0.0367201
0.0367201
0.0367201
0.0367201
0.0367201
0.0367201
0.0367201
0.0367201
0.0367202
0.0367203
0.0367204
0.0367205
0.0367263
0.0367345
0.0367435
0.0367531
0.0367634
0.0367744
0.0367862
0.0367986
0.0368116
0.0368251
0.0368391
0.0368536
0.0368684
0.0368836
0.036899
0.0369147
0.0369306
0.0369465
0.0369626
0.0369787
0.0369947
0.0370108
0.0370268
0.0370427
0.0370585
0.037074
0.0370894
0.0371044
0.037119
0.0371331
0.0371467
0.0371597
0.0371721
0.0371838
0.0371949
0.0372052
0.0372149
0.0372239
0.0372322
0.0372398
0.0372467
0.0372529
0.0372584
0.0372631
0.0372671
0.0372703
0.0372727
0.0372745
0.0372755
0.0372759
0.0372757
0.0372749
0.0372736
0.0372718
0.0372695
0.0372668
0.0372636
0.0372601
0.0372562
0.037252
0.0372475
0.0372427
0.0372376
0.0372324
0.0372269
0.0372211
0.0372151
0.0372088
0.0372023
0.0371955
0.0371886
0.0371813
0.0371739
0.0371662
0.0371583
0.0371502
0.0371418
0.0371333
0.0371245
0.0371156
0.0371065
0.0370971
0.0370877
0.0370781
0.0370683
0.0370585
0.0370486
0.0370387
0.0370287
0.0370186
0.0370084
0.0369982
0.0369881
0.0369779
0.0369677
0.0369575
0.0369473
0.0369373
0.0369273
0.0369174
0.0369076
0.0368979
0.0368882
0.0368787
0.0368694
0.0368603
0.0368515
0.036843
0.0368349
0.0368273
0.0368201
0.0368135
0.0368073
0.0368016
0.0367964
0.0367916
0.0367873
0.0367834
0.0367801
0.0367771
0.0367747
0.0367726
0.0367709
0.0367695
0.0367683
0.0367675
0.036767
0.0367669
0.0367672
0.0367681
0.0367694
0.0367714
0.0367741
0.0367773
0.0367812
0.0367857
0.0367907
0.0367963
0.0368024
0.0368089
0.036816
0.0368236
0.0368316
0.0368402
0.0368493
0.0368588
0.0368687
0.0368789
0.0368895
0.0369004
0.0369116
0.036923
0.0369348
0.0369469
0.0369594
0.0369724
0.0369859
0.0369998
0.0370141
0.0370287
0.0370435
0.0370584
0.0370734
0.0370883
0.0371031
0.0371178
0.0371322
0.0371463
0.03716
0.0371733
0.0371863
0.0371988
0.0372109
0.0372227
0.0372342
0.0372453
0.037256
0.0372664
0.0372766
0.0372864
0.0372962
0.0373057
0.0373151
0.0373242
0.0373332
0.0373418
0.0373503
0.0373586
0.037367
0.0373756
0.0373852
0.0373964
0.0374107
0.0374297
0.0374565
0.0374989
0.0375347
0.0376556
0.0370449
0.0367902
0.0367204
0.0367204
0.0367204
0.0367204
0.0367204
0.0367204
0.0367204
0.0367204
0.0369471
0.0369471
)
;

boundaryField
{
    inlet
    {
        type            calculated;
        value           uniform 0;
    }
    endWall
    {
        type            calculated;
        value           uniform 0;
    }
    sideWall
    {
        type            empty;
    }
}


// ************************************************************************* //
