/*--------------------------------*- C++ -*----------------------------------*\
| =========                 |                                                 |
| \\      /  F ield         | foam-extend: Open Source CFD                    |
|  \\    /   O peration     | Version:     3.2                                |
|   \\  /    A nd           | Web:         http://www.foam-extend.org         |
|    \\/     M anipulation  | For copyright notice see file Copyright         |
\*---------------------------------------------------------------------------*/
FoamFile
{
    version     2.0;
    format      ascii;
    class       areaScalarField;
    location    "120";
    object      thetaC2B;
}
// * * * * * * * * * * * * * * * * * * * * * * * * * * * * * * * * * * * * * //

dimensions      [0 0 0 0 0 0 0];

internalField   nonuniform List<scalar> 
550
(
0.0368338
0.0368338
0.0368338
0.0368338
0.0368338
0.0368338
0.0368338
0.0368338
0.0368338
0.0368338
0.0368338
0.0368338
0.0368338
0.0368338
0.0368338
0.0368338
0.0368338
0.0368338
0.0368338
0.0368338
0.0368338
0.0368338
0.0368338
0.0368338
0.0368338
0.0368338
0.0368338
0.0368338
0.0368338
0.0368338
0.0368338
0.0368338
0.0368338
0.0368338
0.0368338
0.0368338
0.0368338
0.0368338
0.0368338
0.0368338
0.0368338
0.0368338
0.0368338
0.0368338
0.0368338
0.0368338
0.0368338
0.0368338
0.0368338
0.0368338
0.0368338
0.0368338
0.0368338
0.0368338
0.0368338
0.0368338
0.0368338
0.0368338
0.0368338
0.0368338
0.0368338
0.0368338
0.0368338
0.0368338
0.0368338
0.0368338
0.0368338
0.0368338
0.0368338
0.0368338
0.0368338
0.0368338
0.0368338
0.0368338
0.0368338
0.0368338
0.0368338
0.0368338
0.0368338
0.0368338
0.0368338
0.0368338
0.0368338
0.0368338
0.0368338
0.0368338
0.0368338
0.0368338
0.0368338
0.0368338
0.0368338
0.0368338
0.0368338
0.0368338
0.0368338
0.0368338
0.0368338
0.0368338
0.0368338
0.0368338
0.0368338
0.0368338
0.0368338
0.0368338
0.0368338
0.0368338
0.0368338
0.0368338
0.0368338
0.0368338
0.0368338
0.0368338
0.0368338
0.0368338
0.0368338
0.0368338
0.0368338
0.0368338
0.0368338
0.0368338
0.0368338
0.0368338
0.0368338
0.0368338
0.0368338
0.0368338
0.0368338
0.0368338
0.0368338
0.0368621
0.0368338
0.0368338
0.0368338
0.0368338
0.0368338
0.0368338
0.0368338
0.0368338
0.0368338
0.0368338
0.0368338
0.0368338
0.0368338
0.0368338
0.0368338
0.0368338
0.0368338
0.0368338
0.0368338
0.0368338
0.0368338
0.0368338
0.0368338
0.0368338
0.0368338
0.0368338
0.0368338
0.0368338
0.0368338
0.0368338
0.0368338
0.036836
0.0368385
0.0368411
0.0368438
0.0368465
0.0368493
0.0368522
0.0368551
0.0368581
0.036861
0.036864
0.0368669
0.0368697
0.0368724
0.036875
0.0368775
0.0368798
0.0368819
0.0368837
0.0368853
0.0368867
0.0368878
0.0368886
0.0368892
0.0368895
0.0368895
0.0368893
0.0368889
0.0368884
0.0368877
0.0368868
0.0368859
0.036885
0.0368842
0.0368834
0.0368827
0.0368823
0.036882
0.036882
0.0368822
0.0368828
0.0368837
0.036885
0.0368868
0.0368889
0.0368914
0.0368944
0.0368977
0.0369014
0.0369056
0.0369101
0.036915
0.0369204
0.0369262
0.0369325
0.0369391
0.0369462
0.0369537
0.0369616
0.03697
0.0369787
0.0369878
0.0369973
0.0370072
0.0370178
0.0370289
0.0370404
0.037052
0.0370637
0.0370753
0.0370868
0.0370981
0.0371092
0.03712
0.0371306
0.0371408
0.0371507
0.0371602
0.0371694
0.0371782
0.0371866
0.0371946
0.0372022
0.0372093
0.0372161
0.0372224
0.0372283
0.0372338
0.0372389
0.0372437
0.037248
0.0372519
0.0372554
0.0372585
0.0372612
0.0372636
0.0372655
0.037267
0.0372681
0.0372689
0.0372693
0.0372694
0.0372692
0.0372686
0.0372677
0.0372664
0.0372648
0.0372629
0.0372608
0.0372583
0.0372556
0.0372526
0.0372494
0.0372458
0.0372419
0.0372378
0.0372332
0.0372282
0.0372228
0.037217
0.0372108
0.037204
0.0371968
0.0371892
0.0371811
0.0371726
0.0371636
0.0371542
0.0371443
0.037134
0.0371232
0.0371121
0.0371005
0.0370885
0.0370763
0.0370637
0.0370509
0.037038
0.037025
0.0370119
0.0369989
0.036986
0.0369732
0.0369605
0.0369481
0.0369358
0.0369238
0.0369121
0.0369008
0.0368899
0.0368796
0.0368699
0.0368608
0.0368524
0.0368446
0.0368374
0.0368338
0.0368338
0.0368338
0.0368338
0.0368338
0.0368338
0.0368338
0.0368338
0.0368338
0.0368338
0.0368338
0.0368338
0.0368338
0.0368338
0.0368338
0.0368338
0.0368338
0.0368338
0.0368338
0.0368338
0.0368338
0.0368338
0.0368338
0.0368394
0.0368475
0.0368564
0.036866
0.0368763
0.0368872
0.0368989
0.0369111
0.036924
0.0369374
0.0369514
0.0369658
0.0369807
0.0369959
0.0370114
0.0370271
0.0370429
0.0370589
0.037075
0.0370911
0.0371072
0.0371233
0.0371393
0.0371553
0.037171
0.0371866
0.037202
0.037217
0.0372317
0.0372458
0.0372595
0.0372725
0.037285
0.0372968
0.0373079
0.0373183
0.037328
0.037337
0.0373453
0.037353
0.03736
0.0373662
0.0373718
0.0373765
0.0373806
0.0373838
0.0373863
0.0373881
0.0373892
0.0373896
0.0373895
0.0373887
0.0373874
0.0373857
0.0373834
0.0373807
0.0373775
0.037374
0.0373701
0.0373659
0.0373614
0.0373566
0.0373516
0.0373463
0.0373408
0.0373351
0.0373291
0.0373228
0.0373163
0.0373095
0.0373025
0.0372953
0.0372878
0.0372801
0.0372722
0.0372641
0.0372558
0.0372473
0.0372385
0.0372296
0.0372204
0.0372111
0.0372016
0.037192
0.0371823
0.0371725
0.0371625
0.0371526
0.0371425
0.0371324
0.0371222
0.037112
0.0371018
0.0370915
0.0370813
0.0370711
0.0370609
0.0370508
0.0370408
0.0370308
0.037021
0.0370113
0.0370017
0.0369922
0.0369828
0.0369737
0.0369648
0.0369563
0.0369482
0.0369405
0.0369334
0.0369267
0.0369205
0.0369148
0.0369096
0.0369048
0.0369005
0.0368967
0.0368933
0.0368904
0.036888
0.0368859
0.0368842
0.0368828
0.0368817
0.0368809
0.0368804
0.0368802
0.0368806
0.0368814
0.0368828
0.0368848
0.0368874
0.0368906
0.0368944
0.0368989
0.0369039
0.0369095
0.0369156
0.0369222
0.0369292
0.0369367
0.0369447
0.0369532
0.0369622
0.0369717
0.0369816
0.036992
0.0370026
0.0370136
0.0370247
0.0370362
0.037048
0.0370601
0.0370726
0.0370856
0.0370991
0.0371131
0.0371274
0.037142
0.0371568
0.0371717
0.0371867
0.0372016
0.0372165
0.0372312
0.0372457
0.0372599
0.0372736
0.037287
0.0373
0.0373126
0.0373248
0.0373366
0.0373481
0.0373592
0.03737
0.0373805
0.0373906
0.0374005
0.0374102
0.0374197
0.037429
0.037438
0.0374468
0.0374553
0.0374634
0.0374711
0.0374785
0.0374857
0.0374934
0.0375017
0.0375118
0.0375249
0.0375434
0.0375734
0.0376122
0.0377027
0.0376854
0.0374823
0.0368338
0.0368338
0.0368338
0.0368338
0.0368338
0.0368338
0.0368338
0.0368338
0.0368338
0.0368338
)
;

boundaryField
{
    inlet
    {
        type            calculated;
        value           uniform 0;
    }
    endWall
    {
        type            calculated;
        value           uniform 0;
    }
    sideWall
    {
        type            empty;
    }
}


// ************************************************************************* //
