/*--------------------------------*- C++ -*----------------------------------*\
| =========                 |                                                 |
| \\      /  F ield         | foam-extend: Open Source CFD                    |
|  \\    /   O peration     | Version:     3.2                                |
|   \\  /    A nd           | Web:         http://www.foam-extend.org         |
|    \\/     M anipulation  | For copyright notice see file Copyright         |
\*---------------------------------------------------------------------------*/
FoamFile
{
    version     2.0;
    format      ascii;
    class       areaScalarField;
    location    "120";
    object      thetaB;
}
// * * * * * * * * * * * * * * * * * * * * * * * * * * * * * * * * * * * * * //

dimensions      [0 0 0 0 0 0 0];

internalField   nonuniform List<scalar> 
550
(
0.0222622
0.0307193
0.040982
0.0529478
0.066319
0.0806312
0.0953393
0.109835
0.123591
0.136122
0.147118
0.156372
0.163837
0.16954
0.173602
0.176178
0.177466
0.177667
0.176988
0.17567
0.173851
0.171648
0.169163
0.166485
0.163691
0.160849
0.158012
0.155232
0.152546
0.149957
0.147468
0.145088
0.142823
0.140675
0.138645
0.13673
0.134928
0.133236
0.13165
0.130164
0.128775
0.127477
0.126264
0.125132
0.124075
0.123087
0.122165
0.121304
0.120501
0.119751
0.119051
0.118396
0.117784
0.117211
0.116674
0.116169
0.115694
0.115245
0.114821
0.114419
0.114037
0.113674
0.113328
0.112998
0.112683
0.11238
0.11209
0.111811
0.111542
0.111282
0.11103
0.110785
0.110547
0.110316
0.110089
0.109868
0.10965
0.109437
0.109227
0.10902
0.108817
0.108617
0.108421
0.108227
0.108036
0.107849
0.107663
0.107481
0.107301
0.107123
0.106947
0.106774
0.106601
0.10643
0.10626
0.106091
0.105923
0.105757
0.105591
0.105427
0.105265
0.105103
0.104941
0.10478
0.104618
0.104456
0.104293
0.104128
0.103962
0.103794
0.103624
0.103452
0.103279
0.103103
0.102926
0.102747
0.102566
0.102382
0.102197
0.102011
0.101822
0.101632
0.10144
0.101247
0.101052
0.100856
0.10066
0.100462
0.100263
0.100064
0.099865
0.0996652
0.0994652
0.099265
0.0990648
0.0988645
0.0986643
0.0984642
0.0982644
0.0980649
0.0978659
0.0976673
0.0974693
0.0972719
0.0970752
0.0968793
0.0966841
0.0964899
0.0962967
0.0961044
0.0959132
0.0957232
0.0955345
0.095347
0.095161
0.0949766
0.0947938
0.0946127
0.0944335
0.0942562
0.0940808
0.0939074
0.0937361
0.0935669
0.0933999
0.0932351
0.0930726
0.0929124
0.0927547
0.0925993
0.0924465
0.0922962
0.0921485
0.0920033
0.0918608
0.0917209
0.0915836
0.0914489
0.0913168
0.0911872
0.0910603
0.0909359
0.090814
0.0906947
0.0905779
0.0904635
0.0903517
0.0902423
0.0901353
0.0900308
0.0899287
0.089829
0.0897318
0.089637
0.0895447
0.0894548
0.0893674
0.0892823
0.0891997
0.0891196
0.0890419
0.0889666
0.0888937
0.0888232
0.0887551
0.0886893
0.0886257
0.0885642
0.0885049
0.0884475
0.088392
0.0883383
0.0882862
0.0882357
0.0881866
0.0881388
0.0880922
0.0880468
0.0880023
0.0879587
0.0879158
0.0878735
0.0878319
0.0877907
0.0877498
0.0877093
0.0876685
0.0876272
0.0875852
0.0875423
0.0874987
0.0874543
0.0874093
0.0873637
0.0873176
0.0872711
0.0872242
0.0871769
0.0871293
0.0870816
0.0870341
0.0869868
0.0869398
0.0868932
0.0868471
0.0868011
0.0867552
0.0867092
0.0866633
0.0866173
0.0865711
0.0865248
0.0864781
0.086431
0.0863834
0.0863352
0.0862865
0.0862371
0.086187
0.0861363
0.086085
0.0860331
0.0859806
0.0859274
0.0858737
0.0858194
0.0857647
0.0857094
0.0856537
0.0855976
0.0855411
0.0854844
0.0854273
0.0853701
0.0853128
0.0852554
0.085198
0.0851405
0.0850831
0.0850257
0.0849684
0.0849111
0.0848541
0.0847973
0.0847408
0.0846847
0.0846292
0.0845742
0.0845198
0.0844662
0.0844132
0.0843609
0.0843095
0.0842589
0.0842091
0.0841603
0.0841124
0.0840654
0.0840194
0.0839744
0.0839302
0.0838869
0.0838443
0.0838024
0.0837612
0.0837205
0.0836804
0.0836407
0.0836016
0.0835631
0.083525
0.0834876
0.0834507
0.0834145
0.0833788
0.0833438
0.0833093
0.0832754
0.0832421
0.0832093
0.083177
0.0831453
0.0831143
0.0830838
0.0830539
0.0830246
0.0829959
0.0829677
0.0829401
0.0829129
0.0828863
0.08286
0.0828342
0.0828089
0.0827839
0.0827593
0.082735
0.082711
0.0826872
0.0826636
0.0826401
0.0826168
0.0825934
0.0825699
0.0825462
0.0825222
0.0824978
0.0824729
0.0824474
0.0824211
0.0823941
0.0823661
0.0823371
0.0823071
0.082276
0.0822439
0.0822106
0.0821763
0.0821411
0.0821048
0.0820676
0.0820294
0.0819903
0.0819503
0.0819093
0.0818673
0.0818244
0.0817806
0.0817358
0.0816901
0.0816434
0.0815958
0.0815473
0.0814978
0.0814472
0.0813956
0.0813428
0.0812889
0.0812339
0.0811777
0.0811204
0.081062
0.0810025
0.0809421
0.0808806
0.0808181
0.0807548
0.0806906
0.0806256
0.0805598
0.0804932
0.080426
0.0803581
0.0802898
0.0802209
0.0801516
0.080082
0.080012
0.0799416
0.0798709
0.0797999
0.0797287
0.0796572
0.0795855
0.0795136
0.0794417
0.0793697
0.0792976
0.0792255
0.0791534
0.0790812
0.079009
0.0789368
0.0788644
0.0787919
0.0787193
0.0786465
0.0785734
0.0785002
0.0784267
0.078353
0.0782791
0.0782049
0.0781306
0.0780561
0.0779816
0.0779069
0.0778322
0.0777576
0.077683
0.0776086
0.0775345
0.0774607
0.0773873
0.0773145
0.0772423
0.0771707
0.0770998
0.0770296
0.0769602
0.0768917
0.0768241
0.0767575
0.0766918
0.0766273
0.0765639
0.0765015
0.0764403
0.0763801
0.0763208
0.0762625
0.0762051
0.0761485
0.0760927
0.0760376
0.0759833
0.0759299
0.0758772
0.0758253
0.0757742
0.0757237
0.0756738
0.0756244
0.0755755
0.0755268
0.0754785
0.0754304
0.0753825
0.075335
0.0752878
0.0752409
0.0751944
0.0751481
0.0751022
0.0750565
0.0750112
0.0749663
0.0749218
0.0748777
0.0748341
0.074791
0.0747484
0.0747061
0.0746643
0.0746229
0.0745818
0.0745409
0.0745003
0.0744597
0.074419
0.0743783
0.0743374
0.0742963
0.0742549
0.0742132
0.0741713
0.074129
0.0740865
0.0740439
0.0740011
0.0739582
0.0739153
0.073872
0.0738285
0.0737843
0.0737397
0.0736941
0.0736479
0.0736004
0.0735523
0.073503
0.073453
0.0734018
0.0733501
0.0732972
0.0732438
0.0731892
0.0731343
0.0730784
0.0730224
0.0729651
0.0729076
0.0728484
0.0727882
0.0727256
0.0726612
0.0725925
0.0725211
0.0724414
0.0723565
0.072255
0.0721423
0.0719964
0.0718268
0.0715914
0.0713095
0.0708875
0.0703935
0.0694654
0.0679765
0.0659465
0.0633022
0.0593998
0.0541337
0.0469559
0.0375268
0.0232809
0.0111284
0.0145497
0.0247007
)
;

boundaryField
{
    inlet
    {
        type            calculated;
        value           uniform 0;
    }
    endWall
    {
        type            calculated;
        value           uniform 0;
    }
    sideWall
    {
        type            empty;
    }
}


// ************************************************************************* //
