/*--------------------------------*- C++ -*----------------------------------*\
| =========                 |                                                 |
| \\      /  F ield         | foam-extend: Open Source CFD                    |
|  \\    /   O peration     | Version:     3.2                                |
|   \\  /    A nd           | Web:         http://www.foam-extend.org         |
|    \\/     M anipulation  | For copyright notice see file Copyright         |
\*---------------------------------------------------------------------------*/
FoamFile
{
    version     2.0;
    format      ascii;
    class       areaScalarField;
    location    "120";
    object      totH;
}
// * * * * * * * * * * * * * * * * * * * * * * * * * * * * * * * * * * * * * //

dimensions      [0 0 0 0 0 0 0];

internalField   nonuniform List<scalar> 
550
(
0
0
0
0
0
0
0
0
0
0
0
0
0
0
0
0
0
0
0
0
0
0
0
0
0
0
0
0
0
0
0
0
0
0
0
0
0
0
0
0
0
0
0
0
0
0
0
0
0
0
0
0
0
0
0
0
0
0
0
0
0
0
0
0
0
0
0
0
0
0
0
0
0
0
0
0
0
0
0
0
0
0
0
0
0
0
0
0
0
0
0
0
0
0
0
0
0
0
0
0
0
0
0
0
0
0
0
0
0
0
0
0
0
0
0
0
0
0
0
0
0
0
0
0
0
0
0
-7.33127e-09
-5.29816e-08
-2.01683e-09
1.20313e-06
4.32618e-06
8.41639e-06
1.26501e-05
1.69553e-05
2.12517e-05
2.55159e-05
2.97365e-05
3.39078e-05
3.80263e-05
4.20898e-05
4.6097e-05
5.00467e-05
5.39384e-05
5.77712e-05
6.15449e-05
6.52596e-05
6.89172e-05
7.25195e-05
7.60643e-05
7.95476e-05
8.29678e-05
8.63221e-05
8.96087e-05
9.28281e-05
9.59792e-05
9.90615e-05
0.000102078
0.00010503
0.000107917
0.000110735
0.000113484
0.000116166
0.000118781
0.000121329
0.000123811
0.000126228
0.000128581
0.00013087
0.000133095
0.000135258
0.000137359
0.0001394
0.000141381
0.000143301
0.000145161
0.000146962
0.000148705
0.000150391
0.000152017
0.000153586
0.000155097
0.000156554
0.000157955
0.000159302
0.000160596
0.000161838
0.000163029
0.000164171
0.000165265
0.000166313
0.000167314
0.000168273
0.000169189
0.000170064
0.0001709
0.000171697
0.000172458
0.000173184
0.000173878
0.000174542
0.000175179
0.000175791
0.000176381
0.000176951
0.000177502
0.000178032
0.000178539
0.000179023
0.000179486
0.000179933
0.000180369
0.000180797
0.000181216
0.000181626
0.000182027
0.000182421
0.00018281
0.000183195
0.000183577
0.000183957
0.000184338
0.000184723
0.000185124
0.000185555
0.000186029
0.000186545
0.000187094
0.000187669
0.000188262
0.000188868
0.00018948
0.000190096
0.000190714
0.000191332
0.00019195
0.000192567
0.000193183
0.000193798
0.000194411
0.000195023
0.000195631
0.000196235
0.000196835
0.00019743
0.000198021
0.000198606
0.000199186
0.000199761
0.000200329
0.00020089
0.000201441
0.000201983
0.000202515
0.000203038
0.00020355
0.000204052
0.000204543
0.000205024
0.000205495
0.000205956
0.000206406
0.000206845
0.000207272
0.000207687
0.00020809
0.000208482
0.000208864
0.000209235
0.000209596
0.000209947
0.000210285
0.00021061
0.000210922
0.000211218
0.000211499
0.000211763
0.000212008
0.000212233
0.000212439
0.000212626
0.000212792
0.000212941
0.000213071
0.000213184
0.000213279
0.000213355
0.000213412
0.000213449
0.000213466
0.000213463
0.000213441
0.000213403
0.000213352
0.000213285
0.000213201
0.000213102
0.000212996
0.000212892
0.000212793
0.000212694
0.000212609
0.000212557
0.000212535
0.000212523
0.000212501
0.00021246
0.000212402
0.000212335
0.000212268
0.000212215
0.000212191
0.000212201
0.000212232
0.00021227
0.000212302
0.000212319
0.000212319
0.000212303
0.000212272
0.000212225
0.000212167
0.0002121
0.000212024
0.000211939
0.000211847
0.000211747
0.000211641
0.00021153
0.000211416
0.0002113
0.000211183
0.000211065
0.00021095
0.00021084
0.00021074
0.000210657
0.000210597
0.000210564
0.00021057
0.000210625
0.000210736
0.000210897
0.000211083
0.000211283
0.000211508
0.000211783
0.00021212
0.000212511
0.000212942
0.000213409
0.000213905
0.000214416
0.000214932
0.000215452
0.000215979
0.000216515
0.000217057
0.000217608
0.000218169
0.000218739
0.000219318
0.000219904
0.000220495
0.000221092
0.000221693
0.000222299
0.000222907
0.000223517
0.000224126
0.000224735
0.000225343
0.000225948
0.00022655
0.000227148
0.000227742
0.00022833
0.000228912
0.000229486
0.000230053
0.000230611
0.000231159
0.000231696
0.000232222
0.000232736
0.000233238
0.000233728
0.000234204
0.000234667
0.000235116
0.000235551
0.000235974
0.000236385
0.000236785
0.000237175
0.000237557
0.000237931
0.000238299
0.000238659
0.000239012
0.000239358
0.000239697
0.000240029
0.000240356
0.000240675
0.000240987
0.000241292
0.000241592
0.000241887
0.000242177
0.000242462
0.00024274
0.000243013
0.000243279
0.000243537
0.000243787
0.000244027
0.000244259
0.000244482
0.000244696
0.000244901
0.000245096
0.000245283
0.000245462
0.000245634
0.000245803
0.00024597
0.000246138
0.000246306
0.000246471
0.000246633
0.000246795
0.000246961
0.000247135
0.000247308
0.00024747
0.000247626
0.000247783
0.000247944
0.000248113
0.00024829
0.000248467
0.000248631
0.000248781
0.000248923
0.000249064
0.000249209
0.000249357
0.000249508
0.000249661
0.000249812
0.000249959
0.000250104
0.00025025
0.0002504
0.000250548
0.000250685
0.000250808
0.000250921
0.000251025
0.000251121
0.000251209
0.00025129
0.000251363
0.00025143
0.000251491
0.000251549
0.000251608
0.000251669
0.000251735
0.000251806
0.000251883
0.000251967
0.000252061
0.000252166
0.000252277
0.000252395
0.000252517
0.000252643
0.000252777
0.000252925
0.0002531
0.000253308
0.00025355
0.000253833
0.00025414
0.000254442
0.000254729
0.000255004
0.000255273
0.000255541
0.000255811
0.000256086
0.000256368
0.000256662
0.000256967
0.000257285
0.000257613
0.000257951
0.000258299
0.000258656
0.000259022
0.000259396
0.000259777
0.000260163
0.000260548
0.00026093
0.000261305
0.000261672
0.000262031
0.000262385
0.000262734
0.000263078
0.000263419
0.000263757
0.000264091
0.000264422
0.000264752
0.000265084
0.000265424
0.000265775
0.000266145
0.000266542
0.000266973
0.000267456
0.000268011
0.000268672
0.000269496
0.000270567
0.000272007
0.000273981
0.000276726
0.000280593
0.000286067
0.000293783
0.00030476
0.000317226
0.00033403
0.000262938
9.05208e-05
0
0
0
0
0
0
0
0
0
0
)
;

boundaryField
{
    inlet
    {
        type            calculated;
        value           uniform 0;
    }
    endWall
    {
        type            calculated;
        value           uniform 0;
    }
    sideWall
    {
        type            empty;
    }
}


// ************************************************************************* //
