/*--------------------------------*- C++ -*----------------------------------*\
| =========                 |                                                 |
| \\      /  F ield         | foam-extend: Open Source CFD                    |
|  \\    /   O peration     | Version:     3.2                                |
|   \\  /    A nd           | Web:         http://www.foam-extend.org         |
|    \\/     M anipulation  | For copyright notice see file Copyright         |
\*---------------------------------------------------------------------------*/
FoamFile
{
    version     2.0;
    format      ascii;
    class       volVectorField;
    location    "120";
    object      U;
}
// * * * * * * * * * * * * * * * * * * * * * * * * * * * * * * * * * * * * * //

dimensions      [0 1 -1 0 0 0 0];

internalField   nonuniform List<vector> 
33000
(
(0.37645 0 0.000575481)
(0.371409 0 0.000508999)
(0.364555 -2.7711e-29 0.00061507)
(0.357257 0 0.000636419)
(0.350019 2.76746e-29 0.000692111)
(0.342754 0 0.000650039)
(0.33606 -9.10613e-29 0.000644225)
(0.329469 1.54051e-28 0.00057689)
(0.323407 1.63953e-28 0.000572802)
(0.317401 -7.68282e-29 0.000567307)
(0.311788 8.97612e-29 0.000545323)
(0.306317 0 0.000498087)
(0.301185 -3.40427e-38 0.000458999)
(0.296212 9.9602e-29 0.000411437)
(0.291476 0 0.000356844)
(0.286887 1.01957e-28 0.000298422)
(0.282529 -1.07415e-28 0.000228225)
(0.278362 9.32287e-29 0.000164611)
(0.274388 5.57669e-29 0.000112386)
(0.270556 0 6.44018e-05)
(0.266886 1.8965e-29 2.63213e-05)
(0.26336 -1.55374e-29 -5.83275e-06)
(0.259988 0 -3.38677e-05)
(0.256768 1.68255e-29 -6.19927e-05)
(0.253711 0 -8.98833e-05)
(0.250817 0 -0.000117857)
(0.248091 2.42866e-29 -0.000144328)
(0.245522 0 -0.000160959)
(0.243091 0 -0.00016895)
(0.240787 0 -0.000178597)
(0.238602 -1.49654e-29 -0.000187872)
(0.236533 1.5104e-29 -0.000196218)
(0.234577 -1.51467e-29 -0.000204667)
(0.232727 -1.60135e-29 -0.000213569)
(0.230978 1.69813e-29 -0.000222648)
(0.229325 -1.76977e-29 -0.000231669)
(0.227766 0 -0.000240359)
(0.226295 0 -0.00024889)
(0.224909 0 -0.000257732)
(0.223605 1.99774e-29 -0.000266559)
(0.222378 -2.13438e-29 -0.00027641)
(0.221223 0 -0.000286605)
(0.220135 0 -0.000295465)
(0.21911 0 -0.000303957)
(0.218143 -2.23069e-29 -0.000312091)
(0.21723 0 -0.000320662)
(0.21637 0 -0.000330012)
(0.215559 -2.46152e-29 -0.00033885)
(0.214794 2.48073e-29 -0.000347114)
(0.214072 -2.49835e-29 -0.00035485)
(0.21339 0 -0.000362026)
(0.212747 0 -0.000368581)
(0.21214 -2.49395e-29 -0.000374294)
(0.211566 2.46067e-29 -0.000379114)
(0.211021 -2.4229e-29 -0.000383111)
(0.210504 -2.40038e-29 -0.000386549)
(0.210014 -2.35067e-29 -0.000389182)
(0.209548 0 -0.000390839)
(0.209104 0 -0.000392048)
(0.208682 0 -0.000393212)
(0.208278 -2.17093e-29 -0.000393945)
(0.207892 -2.10078e-29 -0.000394015)
(0.207524 0 -0.000393874)
(0.207171 0 -0.000393693)
(0.206835 0 -0.000393511)
(0.206512 -1.97372e-29 -0.00039331)
(0.206204 1.94386e-29 -0.000393044)
(0.205909 0 -0.000392741)
(0.205625 0 -0.000392418)
(0.205353 0 -0.000391996)
(0.205092 0 -0.00039156)
(0.204839 0 -0.000391334)
(0.204595 1.75299e-29 -0.000391272)
(0.204359 0 -0.00039131)
(0.204131 -1.66947e-29 -0.000391313)
(0.203909 -1.64876e-29 -0.000391433)
(0.203692 1.65084e-29 -0.000391817)
(0.20348 0 -0.000392277)
(0.203274 -1.61694e-29 -0.00039273)
(0.203073 1.54133e-29 -0.000392757)
(0.20288 1.45723e-29 -0.000392383)
(0.202691 0 -0.000392016)
(0.202508 0 -0.000391845)
(0.202329 0 -0.000391734)
(0.202155 -2.62987e-29 -0.000391683)
(0.201985 0 -0.000391661)
(0.20182 -1.24692e-29 -0.000391637)
(0.201659 1.21213e-29 -0.000391596)
(0.201502 5.02348e-44 -0.000391536)
(0.201348 8.00378e-43 -0.000391377)
(0.201198 1.11009e-29 -0.000391203)
(0.20105 0 -0.000390423)
(0.200902 -9.94473e-30 -0.000389568)
(0.200755 0 -0.000388989)
(0.200611 9.68714e-42 -0.000388333)
(0.200469 0 -0.000388046)
(0.20033 0 -0.000388262)
(0.200194 0 -0.00038877)
(0.20006 -1.00735e-29 -0.000389557)
(0.19993 0 -0.000390494)
(0.199802 0 -0.000390922)
(0.199676 9.65293e-30 -0.000390808)
(0.19955 0 -0.000390501)
(0.199424 0 -0.000390137)
(0.199298 0 -0.000389748)
(0.199173 0 -0.000389365)
(0.199047 -9.27013e-30 -0.000388974)
(0.19892 -3.754e-40 -0.000388564)
(0.198793 -9.22641e-30 -0.000388118)
(0.198665 0 -0.00038765)
(0.198536 1.43555e-40 -0.000387156)
(0.198406 -9.19994e-30 -0.00038661)
(0.198274 9.20488e-30 -0.000386041)
(0.19814 9.27065e-30 -0.000385524)
(0.198005 -9.05e-30 -0.00038478)
(0.197869 2.87661e-39 -0.000384012)
(0.197728 -9.43147e-30 -0.000383514)
(0.197586 -9.36303e-30 -0.000382898)
(0.197442 0 -0.000382111)
(0.197297 0 -0.000381373)
(0.197149 -9.22879e-30 -0.000380652)
(0.197 1.8457e-29 -0.000379923)
(0.196848 -1.84472e-29 -0.000379179)
(0.196695 -5.62917e-38 -0.0003784)
(0.196539 8.93281e-38 -0.000377587)
(0.196381 -1.82928e-29 -0.000376697)
(0.19622 -9.1424e-30 -0.000375757)
(0.196056 -8.92275e-30 -0.000374489)
(0.195885 -9.56345e-30 -0.000373754)
(0.195706 0 -0.000370494)
(0.195544 2.91834e-35 -0.000353187)
(0.195404 0 -0.000336609)
(0.195261 1.1269e-37 -0.000331979)
(0.19511 1.40678e-29 -0.000328789)
(0.194956 1.59377e-29 -0.000327206)
(0.194798 1.67624e-29 -0.000326328)
(0.194639 -1.21557e-36 -0.00032579)
(0.194477 -8.68857e-30 -0.000325485)
(0.194314 0 -0.000325295)
(0.194149 -1.75486e-29 -0.000325198)
(0.193983 -8.78411e-30 -0.000325158)
(0.193816 0 -0.000325174)
(0.193649 0 -0.000325229)
(0.19348 5.62965e-38 -0.000325323)
(0.193311 8.77706e-30 -0.000325447)
(0.193142 8.75712e-30 -0.000325597)
(0.192973 0 -0.000325765)
(0.192804 8.67194e-30 -0.000325928)
(0.192635 1.72588e-29 -0.000326104)
(0.192466 0 -0.000326344)
(0.192297 0 -0.000326623)
(0.192129 -8.54653e-30 -0.000326943)
(0.191962 8.51961e-30 -0.00032732)
(0.191795 0 -0.000327721)
(0.191628 0 -0.000328142)
(0.191463 0 -0.000328601)
(0.191298 0 -0.00032907)
(0.191134 0 -0.000329527)
(0.190972 0 -0.000329997)
(0.190811 -1.61858e-29 -0.000330515)
(0.190651 -8.02152e-30 -0.000331062)
(0.190492 7.93956e-30 -0.00033161)
(0.190335 1.57171e-29 -0.000332161)
(0.19018 0 -0.000332713)
(0.190025 -7.70421e-30 -0.000333273)
(0.189873 -1.68425e-37 -0.000333831)
(0.189722 1.50964e-29 -0.000334396)
(0.189572 0 -0.000334962)
(0.189424 0 -0.000335535)
(0.189278 0 -0.000336107)
(0.189134 -1.4512e-29 -0.000336675)
(0.188991 7.18159e-30 -0.000337233)
(0.18885 -7.1152e-30 -0.000337791)
(0.188711 0 -0.000338347)
(0.188573 0 -0.000338898)
(0.188438 0 -0.000339448)
(0.188303 0 -0.000339996)
(0.18817 -6.82115e-30 -0.000340541)
(0.188039 -6.77272e-30 -0.00034109)
(0.18791 -2.69852e-37 -0.000341645)
(0.187781 0 -0.00034219)
(0.187655 6.61406e-30 -0.000342722)
(0.18753 1.21695e-37 -0.000343248)
(0.187406 -1.30209e-29 -0.00034377)
(0.187284 -6.46033e-30 -0.000344295)
(0.187163 6.40247e-30 -0.000344808)
(0.187044 -6.34879e-30 -0.000345318)
(0.186927 -6.29468e-30 -0.000345823)
(0.186811 0 -0.000346324)
(0.186697 0 -0.000346822)
(0.186584 6.13714e-30 -0.000347317)
(0.186473 6.0822e-30 -0.000347812)
(0.186364 0 -0.00034831)
(0.186257 0 -0.000348817)
(0.186152 0 -0.000349327)
(0.186049 5.84476e-30 -0.000349836)
(0.185948 -5.77664e-30 -0.000350347)
(0.185849 -1.14138e-29 -0.000350859)
(0.185753 -8.13639e-37 -0.000351365)
(0.185658 1.10867e-29 -0.000351848)
(0.185566 5.45844e-30 -0.000352323)
(0.185477 0 -0.00035278)
(0.185389 -5.23971e-30 -0.0003532)
(0.185305 5.126e-30 -0.000353602)
(0.185222 -5.00505e-30 -0.000353988)
(0.185142 0 -0.00035435)
(0.185064 9.5841e-30 -0.000354745)
(0.184989 0 -0.000355143)
(0.184915 -2.47859e-37 -0.000355512)
(0.184844 4.47964e-30 -0.000355863)
(0.184774 0 -0.000356163)
(0.184707 4.25932e-30 -0.000356401)
(0.184641 4.16736e-30 -0.000356605)
(0.184577 8.19677e-30 -0.00035681)
(0.184515 -4.03179e-30 -0.00035702)
(0.184454 -4.57245e-37 -0.000357207)
(0.184395 3.88856e-30 -0.00035737)
(0.184337 -3.84793e-30 -0.00035753)
(0.18428 3.80945e-30 -0.000357669)
(0.184225 3.79084e-30 -0.000357801)
(0.184171 0 -0.000357907)
(0.184118 0 -0.000357991)
(0.184066 0 -0.000358007)
(0.184016 -1.3283e-36 -0.000357909)
(0.183966 3.57227e-30 -0.000357654)
(0.183918 3.49254e-30 -0.000357279)
(0.183872 0 -0.000356735)
(0.183825 -3.25135e-30 -0.000356108)
(0.183777 0 -0.000355562)
(0.18373 3.2524e-30 -0.000355088)
(0.183682 0 -0.000354692)
(0.183634 3.26835e-30 -0.000354366)
(0.183586 -6.52965e-30 -0.000354088)
(0.183537 -3.25708e-30 -0.000353844)
(0.183489 -3.24378e-30 -0.000353622)
(0.18344 0 -0.000353411)
(0.183391 0 -0.000353213)
(0.183342 0 -0.000353015)
(0.183293 0 -0.000352819)
(0.183243 0 -0.000352637)
(0.183193 0 -0.000352457)
(0.183143 3.13784e-30 -0.000352291)
(0.183093 6.24216e-30 -0.000352121)
(0.183042 -3.11733e-30 -0.000351967)
(0.18299 0 -0.000351809)
(0.182938 0 -0.000351657)
(0.182886 -3.09483e-30 -0.000351502)
(0.182833 0 -0.000351352)
(0.18278 1.74499e-37 -0.0003512)
(0.182726 -3.09226e-30 -0.000351064)
(0.182672 3.09574e-30 -0.000350943)
(0.182617 0 -0.000350833)
(0.182562 -1.63149e-38 -0.000350724)
(0.182506 0 -0.000350617)
(0.18245 -1.30594e-37 -0.000350509)
(0.182394 0 -0.000350411)
(0.182337 0 -0.00035031)
(0.182279 0 -0.000350206)
(0.182221 -3.08857e-30 -0.000350105)
(0.182163 0 -0.000350009)
(0.182104 0 -0.000349914)
(0.182044 -2.09312e-38 -0.000349829)
(0.181985 0 -0.000349749)
(0.181925 -7.77018e-38 -0.000349674)
(0.181864 -3.09578e-30 -0.000349595)
(0.181804 -8.17371e-38 -0.000349514)
(0.181743 0 -0.000349428)
(0.181681 0 -0.000349343)
(0.181619 0 -0.000349257)
(0.181557 0 -0.000349173)
(0.181495 0 -0.000349099)
(0.181432 0 -0.000349034)
(0.181369 0 -0.000348984)
(0.181306 -3.14594e-30 -0.000348932)
(0.181243 0 -0.000348899)
(0.181179 0 -0.000348866)
(0.181115 3.19172e-30 -0.000348865)
(0.181051 0 -0.00034887)
(0.180986 -6.45204e-30 -0.000348888)
(0.180922 0 -0.000348902)
(0.180857 -1.30713e-37 -0.000348927)
(0.180792 0 -0.000348946)
(0.180727 0 -0.000348968)
(0.180662 0 -0.000348979)
(0.180596 3.2575e-30 -0.000348998)
(0.180531 -6.51566e-30 -0.000349019)
(0.180466 2.73991e-38 -0.000349059)
(0.1804 0 -0.000349106)
(0.180335 0 -0.000349163)
(0.180269 0 -0.000349222)
(0.180204 3.23558e-30 -0.00034929)
(0.180139 0 -0.000349348)
(0.180074 0 -0.000349372)
(0.180009 3.15809e-30 -0.000349398)
(0.179944 0 -0.000349463)
(0.179879 -3.12736e-30 -0.000349521)
(0.179815 -3.08416e-30 -0.000349554)
(0.179751 0 -0.000349533)
(0.179688 0 -0.000349432)
(0.179625 0 -0.000349364)
(0.179563 2.89839e-30 -0.000349319)
(0.179501 -5.48909e-30 -0.000349095)
(0.179441 0 -0.000348769)
(0.179382 0 -0.00034857)
(0.179323 -2.73478e-30 -0.000348559)
(0.179266 2.78365e-30 -0.00034869)
(0.179209 0 -0.00034886)
(0.179152 5.45383e-30 -0.000349)
(0.179097 0 -0.000349083)
(0.179043 5.19374e-30 -0.000349087)
(0.17899 -2.49434e-30 -0.000348969)
(0.178938 0 -0.000348727)
(0.178888 2.36753e-30 -0.000348521)
(0.178839 -2.40839e-30 -0.000348454)
(0.178791 -2.42328e-30 -0.000348479)
(0.178744 0 -0.000348618)
(0.178697 0 -0.000348821)
(0.178652 0 -0.000348999)
(0.178608 0 -0.000349194)
(0.178565 0 -0.000349397)
(0.178523 4.57525e-30 -0.000349575)
(0.178482 0 -0.000349723)
(0.178441 -2.18196e-30 -0.00034986)
(0.178402 -2.12941e-30 -0.000349989)
(0.178363 0 -0.000350106)
(0.178325 2.00432e-30 -0.000350206)
(0.178289 0 -0.000350292)
(0.178252 0 -0.000350359)
(0.178217 0 -0.000350406)
(0.178182 0 -0.000350434)
(0.178147 -1.79532e-30 -0.00035045)
(0.178113 0 -0.000350451)
(0.178079 -1.74788e-30 -0.000350434)
(0.178045 0 -0.000350394)
(0.178012 0 -0.00035033)
(0.177979 -1.63686e-30 -0.000350222)
(0.177948 0 -0.00035006)
(0.177916 -1.5614e-30 -0.000349857)
(0.177886 1.51931e-30 -0.000349587)
(0.177856 0 -0.000349218)
(0.177827 0 -0.00034876)
(0.177799 0 -0.000348255)
(0.177771 0 -0.000347879)
(0.177744 3.08771e-30 -0.000347713)
(0.177717 0 -0.000347554)
(0.177691 0 -0.000347235)
(0.177666 0 -0.000346733)
(0.177641 0 -0.000346173)
(0.177617 -1.33926e-30 -0.000345742)
(0.177593 0 -0.000345373)
(0.17757 1.32542e-30 -0.000345007)
(0.177547 1.35871e-30 -0.000344747)
(0.177524 -1.38765e-30 -0.000344586)
(0.1775 -1.39173e-30 -0.000344481)
(0.177477 0 -0.000344342)
(0.177454 -1.29194e-30 -0.000344156)
(0.17743 -2.56329e-30 -0.00034398)
(0.177406 0 -0.000343773)
(0.177382 -2.46905e-30 -0.000343528)
(0.177356 1.22973e-30 -0.000343261)
(0.17733 1.23707e-30 -0.000342982)
(0.177303 0 -0.000342703)
(0.177275 0 -0.000342419)
(0.177247 -1.30442e-30 -0.000342136)
(0.177217 -1.3271e-30 -0.000341839)
(0.177186 0 -0.000341534)
(0.177153 1.39022e-30 -0.000341228)
(0.17712 -1.43207e-30 -0.000340926)
(0.177086 0 -0.00034063)
(0.17705 0 -0.000340333)
(0.177013 0 -0.000340043)
(0.176974 -1.65298e-30 -0.00033975)
(0.176934 0 -0.000339467)
(0.176892 0 -0.000339188)
(0.176849 -1.86989e-30 -0.000338914)
(0.176805 0 -0.000338642)
(0.176758 2.01153e-30 -0.00033839)
(0.176711 0 -0.000338146)
(0.176662 0 -0.00033792)
(0.176612 0 -0.000337706)
(0.176561 -2.216e-30 -0.000337501)
(0.176509 -1.02213e-37 -0.000337317)
(0.176456 0 -0.000337134)
(0.176401 -2.32668e-30 -0.000336969)
(0.176346 0 -0.000336807)
(0.17629 -1.71728e-37 -0.000336672)
(0.176232 0 -0.000336545)
(0.176174 0 -0.000336442)
(0.176115 0 -0.000336348)
(0.176055 -2.5747e-30 -0.000336269)
(0.175995 -2.57726e-30 -0.000336179)
(0.175934 -2.57986e-30 -0.000336093)
(0.175873 2.5657e-30 -0.000335997)
(0.175811 0 -0.000335894)
(0.175749 2.52047e-30 -0.000335776)
(0.175686 0 -0.000335652)
(0.175623 0 -0.000335521)
(0.175559 0 -0.000335392)
(0.175495 0 -0.000335254)
(0.175431 0 -0.000335118)
(0.175365 0 -0.000334965)
(0.175299 2.46788e-30 -0.000334801)
(0.175233 2.47081e-30 -0.000334624)
(0.175166 -4.97273e-30 -0.000334443)
(0.175098 0 -0.000334272)
(0.175029 2.52849e-30 -0.000334097)
(0.17496 0 -0.000333918)
(0.17489 -5.12637e-30 -0.000333735)
(0.17482 -2.58866e-30 -0.000333558)
(0.174749 0 -0.00033339)
(0.174678 -2.6567e-30 -0.000333228)
(0.174606 0 -0.000333069)
(0.174534 0 -0.000332916)
(0.174461 0 -0.000332774)
(0.174388 0 -0.000332638)
(0.174315 0 -0.000332513)
(0.174241 0 -0.0003324)
(0.174166 0 -0.000332286)
(0.174092 0 -0.000332185)
(0.174017 2.88291e-30 -0.000332087)
(0.173943 -2.89541e-30 -0.000332004)
(0.173867 -1.51754e-38 -0.000331911)
(0.173792 0 -0.00033182)
(0.173717 0 -0.000331723)
(0.173641 -2.32928e-37 -0.000331611)
(0.173565 0 -0.000331464)
(0.17349 -2.88646e-30 -0.000331309)
(0.173414 0 -0.000331125)
(0.173338 0 -0.000330956)
(0.173261 0 -0.000330823)
(0.173185 1.1067e-37 -0.000330676)
(0.173109 2.96862e-30 -0.000330512)
(0.173032 -2.97474e-30 -0.00033031)
(0.172956 0 -0.000330116)
(0.17288 -6.21972e-30 -0.000330039)
(0.172803 0 -0.000330002)
(0.172727 0 -0.000329921)
(0.172651 3.10976e-38 -0.000329807)
(0.172576 3.14796e-30 -0.000329694)
(0.172502 3.13452e-30 -0.000329572)
(0.172428 -3.12407e-30 -0.000329455)
(0.172355 0 -0.000329448)
(0.172282 3.1997e-30 -0.000329531)
(0.172211 -3.16027e-30 -0.000329587)
(0.172139 -3.10202e-30 -0.000329588)
(0.172069 -3.04848e-30 -0.000329559)
(0.171999 2.99757e-30 -0.000329516)
(0.17193 -2.96315e-30 -0.000329493)
(0.171863 -5.82388e-30 -0.000329466)
(0.171796 5.74992e-30 -0.000329455)
(0.171731 2.84062e-30 -0.000329469)
(0.171666 5.59981e-30 -0.00032948)
(0.171602 5.50465e-30 -0.00032947)
(0.171539 0 -0.000329426)
(0.171476 -2.67459e-30 -0.00032938)
(0.171415 0 -0.000329403)
(0.171353 0 -0.000329489)
(0.171293 -2.66241e-30 -0.00032957)
(0.171233 0 -0.000329627)
(0.171173 2.5724e-30 -0.000329676)
(0.171114 2.52042e-30 -0.000329703)
(0.171056 2.47621e-30 -0.000329715)
(0.170999 -4.88045e-30 -0.000329721)
(0.170942 2.41479e-30 -0.000329725)
(0.170885 -2.51963e-37 -0.000329712)
(0.170828 -2.35578e-30 -0.000329685)
(0.170772 2.3178e-30 -0.000329638)
(0.170716 0 -0.000329576)
(0.17066 0 -0.000329493)
(0.170605 0 -0.0003294)
(0.17055 0 -0.000329304)
(0.170496 2.09012e-30 -0.0003292)
(0.170442 2.02504e-30 -0.000329053)
(0.170389 -3.16612e-37 -0.000328889)
(0.170336 9.32636e-38 -0.000328725)
(0.170283 -1.96742e-30 -0.000328561)
(0.170231 0 -0.000328397)
(0.170178 0 -0.000328246)
(0.170125 -2.00206e-30 -0.000328077)
(0.170072 -2.0434e-30 -0.00032791)
(0.170019 0 -0.00032766)
(0.169967 -2.00882e-30 -0.000327323)
(0.169915 0 -0.000327005)
(0.169863 -2.0199e-30 -0.000326684)
(0.169813 0 -0.000326322)
(0.169764 0 -0.000326238)
(0.169716 -2.20867e-30 -0.00032632)
(0.169668 2.21266e-30 -0.000326427)
(0.16962 0 -0.000326497)
(0.169574 4.299e-30 -0.000326544)
(0.169528 -2.09377e-30 -0.000326527)
(0.169483 0 -0.000326522)
(0.169438 0 -0.000326447)
(0.169393 1.46908e-37 -0.000326375)
(0.169349 0 -0.000326225)
(0.169306 -1.86375e-30 -0.00032611)
(0.169263 1.0639e-37 -0.000325922)
(0.169221 0 -0.000325776)
(0.169178 0 -0.000325538)
(0.169136 0 -0.00032534)
(0.169093 0 -0.000325046)
(0.16905 1.73949e-30 -0.000324817)
(0.169006 -1.70835e-30 -0.000324491)
(0.168962 0 -0.000324293)
(0.168917 -1.82698e-30 -0.000324023)
(0.168872 0 -0.000323923)
(0.168826 0 -0.000323746)
(0.16878 0 -0.00032373)
(0.168732 -2.06292e-30 -0.000323605)
(0.168686 0 -0.000323619)
(0.168638 0 -0.000323467)
(0.168592 0 -0.00032347)
(0.168544 1.99265e-30 -0.000323287)
(0.168498 2.05804e-30 -0.00032327)
(0.168449 0 -0.00032304)
(0.168402 3.8792e-30 -0.000322982)
(0.168352 -1.77283e-30 -0.000322677)
(0.168303 2.2462e-37 -0.000322507)
(0.16825 0 -0.00032204)
(0.168198 3.47341e-30 -0.000321649)
(0.168142 0 -0.00032092)
(0.168085 3.3879e-30 -0.00032025)
(0.168023 0 -0.000319115)
(0.16796 3.58823e-30 -0.000318099)
(0.167888 0 -0.000316254)
(0.167814 1.84577e-30 -0.000314274)
(0.167724 1.53778e-30 -0.000311121)
(0.167633 -1.20585e-30 -0.000306386)
(0.167503 -1.202e-30 -0.000299529)
(0.167377 4.01049e-31 -0.000290288)
(0.167168 0 -0.000275765)
(0.16697 3.07571e-30 -0.000258132)
(0.166606 9.98121e-30 -0.000229629)
(0.166258 -3.29446e-34 -0.000196325)
(0.165586 -2.48218e-29 -0.00014185)
(0.16498 2.92171e-33 -8.08123e-05)
(0.16361 -1.2339e-29 -1.16264e-05)
(0.162835 7.44576e-29 0.000223098)
(0.158543 -4.5326e-27 -0.00073649)
(0.152378 3.94319e-28 -0.000748976)
(0.14643 0 0.000635443)
(0.139311 1.52695e-28 0.00121672)
(0.126535 0 0.0018966)
(0.111488 0 0.00224429)
(0.0900731 0 0.00284955)
(0.0649492 3.00756e-28 0.00499063)
(0.0165606 0 0.00290445)
(0.000688171 0 0.00176236)
(-0.0226825 0 0.002414)
(-0.0338769 0 -0.00521738)
(0.379156 0 0.00125448)
(0.376804 0 0.00124286)
(0.373035 -4.67799e-28 0.00187683)
(0.367638 0 0.00183336)
(0.363505 0 0.0019414)
(0.3587 0 0.00172592)
(0.35493 -2.95357e-28 0.00168727)
(0.351127 3.22727e-28 0.00150916)
(0.34775 1.66998e-28 0.00144395)
(0.344933 -3.14904e-28 0.00128123)
(0.342538 1.33121e-28 0.00122041)
(0.34026 0 0.00112012)
(0.338116 -1.11829e-28 0.00105976)
(0.336006 8.82201e-29 0.000997279)
(0.333939 0 0.00097285)
(0.331871 0 0.000932707)
(0.329789 0 0.000905596)
(0.327556 -1.08778e-29 0.000871447)
(0.325349 0 0.000842172)
(0.323116 0 0.000813432)
(0.320941 -2.04638e-29 0.000779037)
(0.31876 0 0.000738913)
(0.31661 0 0.000694138)
(0.314463 0 0.000645851)
(0.312347 0 0.000594699)
(0.310247 0 0.000541631)
(0.308175 -6.07638e-29 0.000488556)
(0.306126 0 0.000432228)
(0.304131 0 0.00037586)
(0.302186 0 0.000326902)
(0.300288 -5.59449e-29 0.000279632)
(0.298439 5.72385e-29 0.00023271)
(0.296645 -5.65461e-29 0.00018858)
(0.294903 -5.56341e-29 0.000147937)
(0.29321 5.55241e-29 0.000109751)
(0.291569 -5.5675e-29 7.30879e-05)
(0.289977 0 3.80343e-05)
(0.288437 -5.46049e-29 5.07852e-06)
(0.286945 -5.3861e-29 -2.5875e-05)
(0.285504 -9.95937e-46 -5.51142e-05)
(0.284107 -4.95854e-29 -8.09047e-05)
(0.282765 0 -0.000103863)
(0.281468 -4.66457e-29 -0.00012581)
(0.280218 0 -0.000145928)
(0.279008 -4.33913e-29 -0.00016443)
(0.277843 0 -0.000180925)
(0.276712 0 -0.000195134)
(0.275614 -3.79556e-29 -0.000208488)
(0.274548 3.66927e-29 -0.000221011)
(0.273512 -3.54342e-29 -0.000232795)
(0.272508 -3.42344e-29 -0.000243895)
(0.271533 0 -0.000254498)
(0.270587 -3.20097e-29 -0.000264608)
(0.26967 3.09036e-29 -0.00027402)
(0.268781 -3.00416e-29 -0.000282966)
(0.267918 0 -0.000291486)
(0.267082 -2.95677e-29 -0.000300287)
(0.266272 -2.92131e-29 -0.000309271)
(0.265488 0 -0.000317469)
(0.264726 0 -0.00032476)
(0.263988 0 -0.000331999)
(0.263271 0 -0.000339556)
(0.262575 2.75063e-29 -0.000346734)
(0.261899 0 -0.000353566)
(0.261241 0 -0.000360057)
(0.260603 0 -0.000366194)
(0.259983 2.54985e-29 -0.000371995)
(0.259381 0 -0.000377436)
(0.258796 0 -0.000382452)
(0.25823 -2.37521e-29 -0.000387129)
(0.257679 2.32351e-29 -0.000391321)
(0.257145 2.27177e-29 -0.000394902)
(0.256625 2.22502e-29 -0.000398066)
(0.25612 2.1719e-29 -0.00040087)
(0.255629 -2.08957e-29 -0.000403262)
(0.255151 1.99097e-29 -0.000404822)
(0.254684 1.92438e-29 -0.000405805)
(0.254228 -1.90152e-29 -0.000406826)
(0.253783 0 -0.000408269)
(0.25335 0 -0.000410734)
(0.252929 1.89134e-29 -0.00041321)
(0.252522 0 -0.000415132)
(0.252124 0 -0.000416857)
(0.251739 0 -0.000418481)
(0.251364 -1.67417e-29 -0.000419993)
(0.251001 0 -0.000421394)
(0.250648 -1.57643e-29 -0.000422721)
(0.250308 1.52858e-29 -0.000423974)
(0.249975 2.96752e-29 -0.000425106)
(0.249654 1.43219e-29 -0.000426213)
(0.249341 -2.75659e-41 -0.000426964)
(0.249037 0 -0.000427565)
(0.248738 -1.34134e-29 -0.000428044)
(0.248446 0 -0.000428838)
(0.24816 1.35864e-29 -0.000430056)
(0.247879 -1.30384e-29 -0.000430914)
(0.247604 -1.24747e-29 -0.000431213)
(0.24733 0 -0.000431261)
(0.247057 0 -0.000431379)
(0.246788 0 -0.000431346)
(0.246523 0 -0.000431107)
(0.246258 0 -0.000430888)
(0.245994 0 -0.000430689)
(0.245731 0 -0.000430382)
(0.245468 0 -0.000429989)
(0.245206 0 -0.000429494)
(0.244944 0 -0.000428906)
(0.244683 -2.03534e-29 -0.000428225)
(0.244422 0 -0.000427461)
(0.244161 -9.91367e-30 -0.00042659)
(0.243901 -8.59935e-39 -0.000425615)
(0.24364 -9.72898e-30 -0.000424618)
(0.24338 0 -0.000423507)
(0.243119 -9.73991e-30 -0.000422415)
(0.242858 9.52081e-30 -0.000421644)
(0.242597 1.80103e-29 -0.000420113)
(0.242335 9.11389e-30 -0.00041815)
(0.242071 -9.4361e-30 -0.000417051)
(0.241807 0 -0.000416153)
(0.241543 0 -0.000414992)
(0.241279 9.12987e-30 -0.00041382)
(0.241014 -2.32183e-37 -0.000412622)
(0.24075 3.41149e-37 -0.000411416)
(0.240485 -8.89268e-30 -0.000410176)
(0.24022 -8.42916e-37 -0.000408881)
(0.239955 -1.72859e-29 -0.000407458)
(0.23969 -8.43701e-30 -0.000405898)
(0.239423 -7.89299e-30 -0.000403981)
(0.239156 5.65311e-35 -0.00040109)
(0.238881 1.20821e-30 -0.000399518)
(0.238613 -3.652e-35 -0.000379007)
(0.238372 0 -0.000357354)
(0.238133 -5.79101e-30 -0.000353654)
(0.237889 1.35863e-29 -0.000350196)
(0.237645 1.54909e-29 -0.000348826)
(0.2374 1.61701e-29 -0.000347934)
(0.237154 1.65544e-29 -0.000347356)
(0.236908 -8.39215e-30 -0.000346973)
(0.236663 0 -0.000346718)
(0.236418 -8.51587e-30 -0.000346571)
(0.236174 8.55463e-30 -0.00034651)
(0.23593 8.59653e-30 -0.00034653)
(0.235687 0 -0.00034662)
(0.235445 -8.68391e-30 -0.000346786)
(0.235204 8.72177e-30 -0.000347026)
(0.234964 8.75166e-30 -0.000347331)
(0.234725 0 -0.000347697)
(0.234488 8.75719e-30 -0.000348091)
(0.234252 1.75676e-29 -0.00034851)
(0.234018 0 -0.000349027)
(0.233785 0 -0.000349609)
(0.233555 -8.87641e-30 -0.000350237)
(0.233326 8.89417e-30 -0.000350953)
(0.233098 0 -0.000351701)
(0.232873 8.88051e-30 -0.000352476)
(0.232649 0 -0.000353314)
(0.232427 0 -0.000354191)
(0.232207 8.78117e-30 -0.000355083)
(0.231989 0 -0.000355993)
(0.231773 -1.74555e-29 -0.000356981)
(0.231559 8.65857e-30 -0.000358023)
(0.231347 8.57785e-30 -0.000359067)
(0.231137 8.49261e-30 -0.000360122)
(0.23093 0 -0.000361185)
(0.230724 -8.34295e-30 -0.000362276)
(0.230521 -1.65447e-29 -0.000363377)
(0.23032 -2.16326e-37 -0.000364491)
(0.230121 0 -0.000365603)
(0.229925 0 -0.000366732)
(0.229731 0 -0.000367866)
(0.229539 2.53779e-37 -0.000369001)
(0.22935 0 -0.000370122)
(0.229163 -8.0867e-30 -0.00037124)
(0.228979 0 -0.000372342)
(0.228796 0 -0.000373421)
(0.228616 8.07782e-30 -0.000374477)
(0.228438 0 -0.000375514)
(0.228263 0 -0.000376533)
(0.228089 0 -0.000377549)
(0.227917 -8.0642e-30 -0.000378563)
(0.227746 0 -0.000379561)
(0.227578 0 -0.000380533)
(0.227412 1.60293e-29 -0.000381504)
(0.227247 2.13576e-37 -0.000382465)
(0.227084 -1.60058e-29 -0.000383445)
(0.226923 7.9904e-30 -0.000384407)
(0.226764 -7.9846e-30 -0.000385367)
(0.226607 -1.5949e-29 -0.000386318)
(0.226452 7.96357e-30 -0.000387253)
(0.226298 0 -0.000388189)
(0.226147 7.94826e-30 -0.000389129)
(0.225997 1.58868e-29 -0.000390088)
(0.225849 7.9366e-30 -0.000391065)
(0.225703 7.92948e-30 -0.00039207)
(0.225559 0 -0.000393089)
(0.225418 -4.65206e-37 -0.000394115)
(0.225279 -7.85808e-30 -0.000395144)
(0.225142 8.48936e-37 -0.00039617)
(0.225008 1.20596e-36 -0.000397186)
(0.224876 7.691e-30 -0.000398173)
(0.224746 0 -0.000399161)
(0.224619 -7.5521e-30 -0.00040017)
(0.224493 -7.4525e-30 -0.000401156)
(0.224371 -4.24237e-37 -0.00040213)
(0.224251 -7.20094e-30 -0.00040311)
(0.224133 0 -0.000404055)
(0.224018 6.88398e-30 -0.00040503)
(0.223904 6.69501e-30 -0.000405977)
(0.223793 6.67023e-37 -0.000406844)
(0.223684 6.30154e-30 -0.000407655)
(0.223576 -6.09419e-30 -0.000408376)
(0.22347 0 -0.000409005)
(0.223366 4.85504e-37 -0.000409585)
(0.223263 5.60872e-30 -0.000410162)
(0.223162 -1.09471e-29 -0.000410734)
(0.223062 -5.33998e-30 -0.000411251)
(0.222964 -1.14505e-37 -0.000411699)
(0.222867 4.61225e-37 -0.000412108)
(0.222771 5.09366e-30 -0.00041245)
(0.222676 -5.05729e-30 -0.000412752)
(0.222581 -5.02871e-30 -0.000412997)
(0.222488 0 -0.000413199)
(0.222395 0 -0.000413324)
(0.222303 -9.75308e-30 -0.000413327)
(0.222211 4.79568e-30 -0.000413162)
(0.222121 4.70801e-30 -0.000412898)
(0.222032 0 -0.000412544)
(0.221944 -4.38836e-30 -0.000412149)
(0.221858 0 -0.000411804)
(0.221773 -4.47908e-30 -0.000411501)
(0.221688 0 -0.000411258)
(0.221605 4.59103e-30 -0.000411075)
(0.221523 -4.62787e-30 -0.000410925)
(0.221442 0 -0.000410796)
(0.221361 -4.66656e-30 -0.000410674)
(0.221282 0 -0.000410542)
(0.221202 4.65471e-30 -0.000410403)
(0.221124 0 -0.000410242)
(0.221046 0 -0.000410054)
(0.220968 4.58001e-30 -0.000409866)
(0.22089 -4.55129e-30 -0.000409653)
(0.220813 -3.23626e-38 -0.000409444)
(0.220736 4.47925e-30 -0.000409201)
(0.220659 -4.44081e-30 -0.000408968)
(0.220582 0 -0.000408705)
(0.220504 0 -0.000408438)
(0.220427 -4.30967e-30 -0.00040816)
(0.220349 0 -0.000407888)
(0.220271 -8.47523e-30 -0.000407611)
(0.220193 -4.21752e-30 -0.000407355)
(0.220115 1.71882e-37 -0.000407123)
(0.220037 0 -0.000406909)
(0.219958 8.26733e-30 -0.000406701)
(0.219879 0 -0.000406495)
(0.2198 1.81243e-37 -0.000406278)
(0.219721 0 -0.000406064)
(0.219642 4.00245e-30 -0.00040584)
(0.219562 0 -0.000405609)
(0.219482 0 -0.000405389)
(0.219402 0 -0.000405187)
(0.219322 0 -0.000404993)
(0.219241 8.06341e-38 -0.000404821)
(0.219161 -3.90458e-30 -0.00040466)
(0.21908 6.45363e-38 -0.000404515)
(0.218999 0 -0.000404365)
(0.218918 9.16762e-38 -0.000404219)
(0.218837 0 -0.000404059)
(0.218755 -3.82543e-30 -0.000403893)
(0.218674 0 -0.000403718)
(0.218592 0 -0.000403544)
(0.218511 -3.85223e-30 -0.000403396)
(0.218429 0 -0.000403274)
(0.218347 0 -0.000403196)
(0.218265 -3.90456e-30 -0.000403113)
(0.218183 0 -0.000403063)
(0.218101 0 -0.000402993)
(0.218019 3.99529e-30 -0.000402962)
(0.217937 0 -0.000402925)
(0.217855 -4.06868e-30 -0.000402916)
(0.217773 0 -0.000402908)
(0.217691 4.14044e-30 -0.000402936)
(0.217609 -4.17112e-30 -0.000402961)
(0.217527 -4.19281e-30 -0.000403001)
(0.217445 0 -0.000403015)
(0.217363 -1.73841e-38 -0.000403045)
(0.217281 -4.23774e-30 -0.000403071)
(0.2172 1.51089e-38 -0.000403133)
(0.217119 0 -0.000403205)
(0.217037 0 -0.000403299)
(0.216956 0 -0.000403397)
(0.216875 4.22072e-30 -0.000403508)
(0.216795 0 -0.000403611)
(0.216714 0 -0.000403674)
(0.216634 4.10684e-30 -0.000403736)
(0.216554 0 -0.000403863)
(0.216474 -4.02557e-30 -0.000403993)
(0.216394 3.95126e-30 -0.000404103)
(0.216315 -3.84817e-30 -0.000404184)
(0.216236 0 -0.00040417)
(0.216158 0 -0.000404203)
(0.21608 3.66587e-30 -0.000404333)
(0.216004 -3.47734e-30 -0.000404275)
(0.215928 0 -0.000404107)
(0.215853 -3.47021e-30 -0.000404099)
(0.21578 0 -0.000404303)
(0.215707 0 -0.000404677)
(0.215635 0 -0.00040509)
(0.215564 3.54285e-30 -0.000405462)
(0.215494 -3.4725e-30 -0.000405761)
(0.215424 3.38473e-30 -0.000405976)
(0.215356 -3.26427e-30 -0.000406085)
(0.215289 0 -0.000406062)
(0.215223 3.20927e-30 -0.000406093)
(0.215159 -6.54741e-30 -0.000406317)
(0.215096 0 -0.000406635)
(0.215034 3.35194e-30 -0.000407073)
(0.214973 0 -0.000407587)
(0.214914 0 -0.000408038)
(0.214855 0 -0.000408496)
(0.214798 -3.18734e-30 -0.000408948)
(0.214741 -5.81287e-37 -0.000409359)
(0.214686 3.02243e-30 -0.000409734)
(0.214631 2.76267e-38 -0.00041011)
(0.214577 -2.84698e-30 -0.000410488)
(0.214525 0 -0.000410862)
(0.214473 0 -0.000411204)
(0.214423 0 -0.000411501)
(0.214373 0 -0.000411731)
(0.214324 0 -0.000411887)
(0.214275 0 -0.00041198)
(0.214227 0 -0.000412047)
(0.214178 0 -0.0004121)
(0.21413 0 -0.000412154)
(0.214083 0 -0.000412207)
(0.214036 0 -0.000412251)
(0.21399 -1.91375e-30 -0.000412249)
(0.213944 0 -0.000412173)
(0.213899 -1.85244e-30 -0.000412044)
(0.213855 0 -0.000411841)
(0.213811 0 -0.000411527)
(0.213768 -1.74012e-30 -0.000411132)
(0.213726 -1.78043e-30 -0.000410679)
(0.213685 0 -0.000410366)
(0.213645 2.07091e-30 -0.000410305)
(0.213604 -2.03444e-30 -0.000410234)
(0.213565 0 -0.000409959)
(0.213526 -1.78292e-30 -0.000409462)
(0.213487 0 -0.00040887)
(0.213449 0 -0.000408443)
(0.213412 1.82015e-30 -0.000408093)
(0.213375 -1.78799e-30 -0.000407717)
(0.213338 1.79774e-30 -0.000407456)
(0.213301 -3.55807e-30 -0.000407288)
(0.213265 0 -0.000407173)
(0.213228 -1.57462e-30 -0.000406995)
(0.213192 0 -0.000406725)
(0.213155 -2.76174e-30 -0.000406444)
(0.213118 -1.28239e-30 -0.000406092)
(0.213081 -1.20464e-30 -0.000405653)
(0.213043 0 -0.000405165)
(0.213004 1.11579e-30 -0.000404634)
(0.212964 -1.0911e-30 -0.000404095)
(0.212924 -1.07362e-30 -0.000403534)
(0.212882 -1.06464e-30 -0.00040298)
(0.212839 0 -0.000402412)
(0.212796 -1.07603e-30 -0.000401841)
(0.212751 0 -0.000401268)
(0.212706 0 -0.000400688)
(0.21266 0 -0.000400095)
(0.212613 0 -0.000399474)
(0.212565 1.37761e-30 -0.000398836)
(0.212516 1.46417e-30 -0.000398164)
(0.212465 -1.57065e-30 -0.000397484)
(0.212413 -1.67561e-30 -0.000396795)
(0.21236 0 -0.000396109)