/*--------------------------------*- C++ -*----------------------------------*\
| =========                 |                                                 |
| \\      /  F ield         | foam-extend: Open Source CFD                    |
|  \\    /   O peration     | Version:     3.2                                |
|   \\  /    A nd           | Web:         http://www.foam-extend.org         |
|    \\/     M anipulation  | For copyright notice see file Copyright         |
\*---------------------------------------------------------------------------*/
FoamFile
{
    version     2.0;
    format      ascii;
    class       areaVectorField;
    location    "120";
    object      Ub2;
}
// * * * * * * * * * * * * * * * * * * * * * * * * * * * * * * * * * * * * * //

dimensions      [0 1 -1 0 0 0 0];

internalField   nonuniform List<vector> 
550
(
(0 0 0)
(0 0 0)
(0 0 0)
(0 0 0)
(0.0451563 -1.30737e-23 -9.03126e-05)
(0.0575628 0 -0.000115126)
(0.0692099 -1.8754e-29 -0.00013842)
(0.0798376 3.73305e-29 -0.000159675)
(0.0892905 -2.45111e-23 -0.000178581)
(0.0974523 -2.35892e-29 -0.000194905)
(0.10431 3.00304e-29 -0.000208619)
(0.109883 0 -0.000219766)
(0.114259 -2.93094e-23 -0.000228519)
(0.117535 3.95215e-29 -0.000235071)
(0.119835 0 -0.00023967)
(0.121278 -2.68391e-23 -0.000242557)
(0.121995 2.49339e-23 -0.00024399)
(0.122105 -2.30326e-23 -0.000244211)
(0.121725 -2.13504e-23 -0.000243451)
(0.120987 0 -0.000241973)
(0.119964 -1.8326e-23 -0.000239927)
(0.118718 1.7092e-23 -0.000237435)
(0.117303 0 -0.000234606)
(0.115767 -1.48193e-23 -0.000231534)
(0.114152 0 -0.000228304)
(0.112495 0 -0.00022499)
(0.110826 -1.14414e-23 -0.000221652)
(0.109177 0 -0.000218353)
(0.107569 0 -0.000215138)
(0.106005 0 -0.00021201)
(0.104489 -6.55414e-30 -0.000208978)
(0.103027 6.57973e-30 -0.000206054)
(0.101625 -6.56328e-30 -0.000203249)
(0.100284 -6.90143e-30 -0.000200569)
(0.0990081 7.2803e-30 -0.000198016)
(0.0977965 -7.54869e-30 -0.000195593)
(0.0966492 0 -0.000193298)
(0.0955655 0 -0.000191131)
(0.0945436 -5.8777e-24 -0.000189087)
(0.0935817 8.36268e-30 -0.000187163)
(0.0926776 -8.89691e-30 -0.000185355)
(0.0918288 0 -0.000183658)
(0.0910324 0 -0.000182065)
(0.0902854 0 -0.000180571)
(0.0895848 -9.16163e-30 -0.00017917)
(0.0889278 0 -0.000177856)
(0.088312 0 -0.000176624)
(0.087735 -1.00195e-29 -0.00017547)
(0.0871943 1.00713e-29 -0.000174389)
(0.0866879 -1.01181e-29 -0.000173376)
(0.0862134 0 -0.000172427)
(0.0857687 0 -0.000171537)
(0.0853517 -1.00345e-29 -0.000170703)
(0.0849602 9.88163e-30 -0.00016992)
(0.0845922 -9.71229e-30 -0.000169184)
(0.0842455 1.00367e-24 -0.000168491)
(0.0839182 8.96954e-25 -0.000167836)
(0.0836086 -8.20462e-25 -0.000167217)
(0.0833154 0 -0.000166631)
(0.083037 0 -0.000166074)
(0.0827721 6.53893e-25 -0.000165544)
(0.0825197 6.28848e-25 -0.000165039)
(0.0822786 6.10928e-25 -0.000164557)
(0.082048 0 -0.000164096)
(0.0818272 0 -0.000163654)
(0.0816152 5.67061e-25 -0.00016323)
(0.0814115 7.67305e-30 -0.000162823)
(0.0812153 0 -0.000162431)
(0.0810259 0 -0.000162052)
(0.0808427 0 -0.000161685)
(0.0806651 5.33367e-25 -0.00016133)
(0.0804925 5.24949e-25 -0.000160985)
(0.0803242 6.88156e-30 -0.000160648)
(0.08016 0 -0.00016032)
(0.0799993 -6.54225e-30 -0.000159999)
(0.0798418 4.6733e-25 -0.000159684)
(0.0796871 6.45867e-30 -0.000159374)
(0.0795348 0 -0.00015907)
(0.0793848 3.93079e-25 -0.00015877)
(0.0792372 -3.80575e-25 -0.000158474)
(0.079092 5.68219e-30 -0.000158184)
(0.0789492 0 -0.000157898)
(0.0788086 0 -0.000157617)
(0.0786703 0 -0.000157341)
(0.078534 3.57299e-25 -0.000157068)
(0.0783997 0 -0.000156799)
(0.0782673 0 -0.000156535)
(0.0781367 4.69762e-30 -0.000156273)
(0.0780077 3.23304e-25 -0.000156015)
(0.0778802 3.18826e-25 -0.00015576)
(0.0777542 -4.29115e-30 -0.000155508)
(0.0776294 0 -0.000155259)
(0.0775054 3.4367e-25 -0.000155011)
(0.077382 -3.7734e-30 -0.000154764)
(0.0772592 3.61321e-25 -0.000154518)
(0.0771371 3.57098e-30 -0.000154274)
(0.0770157 0 -0.000154031)
(0.0768948 0 -0.00015379)
(0.0767746 2.94948e-25 -0.000153549)
(0.076655 0 -0.00015331)
(0.0765361 3.84342e-30 -0.000153072)
(0.0764176 -2.37839e-25 -0.000152835)
(0.0762991 0 -0.000152598)
(0.0761805 0 -0.000152361)
(0.0760616 0 -0.000152123)
(0.0759422 0 -0.000151884)
(0.075822 2.52707e-25 -0.000151644)
(0.0757011 -2.56811e-25 -0.000151402)
(0.0755791 2.61899e-25 -0.000151158)
(0.0754561 -3.50194e-30 -0.000150912)
(0.0753318 2.73739e-25 -0.000150664)
(0.0752062 2.81334e-25 -0.000150412)
(0.0750792 -2.89456e-25 -0.000150158)
(0.0749508 -2.96021e-25 -0.000149902)
(0.074821 3.0879e-25 -0.000149642)
(0.0746897 3.22058e-25 -0.000149379)
(0.0745568 3.27676e-25 -0.000149114)
(0.0744223 -3.52719e-30 -0.000148845)
(0.0742863 3.45752e-30 -0.000148573)
(0.0741489 -3.4639e-30 -0.000148298)
(0.0740102 3.7281e-25 -0.00014802)
(0.0738701 -3.84116e-25 -0.00014774)
(0.0737288 3.95715e-25 -0.000147458)
(0.0735862 -4.08109e-25 -0.000147172)
(0.0734425 4.21303e-25 -0.000146885)
(0.0732975 4.36393e-25 -0.000146595)
(0.0731513 4.5266e-25 -0.000146303)
(0.0730038 4.819e-25 -0.000146066)
(0.0728547 0 -0.000146016)
(0.0726733 0 -0.000144633)
(0.0725447 0 -0.000136185)
(0.072391 0 -0.000128799)
(0.0722448 -2.28722e-30 -0.000127936)
(0.0720995 -4.1074e-25 -0.000127142)
(0.0719551 0 -0.000126857)
(0.071811 -4.66117e-25 -0.000126702)
(0.0716669 -4.83775e-25 -0.000126604)
(0.0715227 -3.19546e-30 -0.000126536)
(0.0713785 -5.08774e-25 -0.000126482)
(0.0712342 -5.18369e-25 -0.000126438)
(0.0710899 -5.26886e-25 -0.000126401)
(0.0709456 3.21892e-30 -0.000126367)
(0.0708015 0 -0.000126335)
(0.0706576 0 -0.000126305)
(0.070514 -5.5067e-25 -0.000126278)
(0.0703708 0 -0.000126251)
(0.070228 3.17516e-30 -0.000126221)
(0.0700859 5.60698e-25 -0.00012618)
(0.0699443 -3.13355e-30 -0.000126136)
(0.0698035 5.64619e-25 -0.000126114)
(0.0696635 3.10893e-30 -0.0001261)
(0.0695242 -5.66688e-25 -0.000126092)
(0.0693859 5.67008e-25 -0.000126101)
(0.0692485 0 -0.000126108)
(0.0691121 0 -0.000126114)
(0.0689767 0 -0.000126131)
(0.0688426 -2.9905e-30 -0.000126143)
(0.0687096 0 -0.000126143)
(0.068578 -5.55983e-25 -0.000126139)
(0.0684478 5.52716e-25 -0.000126156)
(0.0683191 -2.87499e-30 -0.00012618)
(0.0681897 0 -0.000126196)
(0.0680616 5.41033e-25 -0.00012621)
(0.067935 0 -0.000126224)
(0.0678102 0 -0.00012624)
(0.0676871 2.71807e-30 -0.000126255)
(0.0675658 -5.22703e-25 -0.000126271)
(0.0674463 2.65884e-30 -0.000126284)
(0.0673286 0 -0.0001263)
(0.0672127 -5.06831e-25 -0.000126316)
(0.0670987 -5.0134e-25 -0.00012633)
(0.0669865 0 -0.000126342)
(0.066876 0 -0.000126357)
(0.0667674 0 -0.000126374)
(0.0666605 0 -0.000126391)
(0.0665554 -2.44808e-30 -0.00012641)
(0.0664519 -4.69031e-25 -0.000126427)
(0.0663502 -4.63521e-25 -0.000126445)
(0.0662501 4.58085e-25 -0.000126466)
(0.0661517 4.52752e-25 -0.000126492)
(0.066055 0 -0.000126516)
(0.06596 4.42007e-25 -0.000126537)
(0.0658666 4.3662e-25 -0.000126558)
(0.0657749 2.28439e-30 -0.000126579)
(0.0656848 0 -0.000126601)
(0.0655964 -2.24362e-30 -0.000126619)
(0.0655095 -4.14481e-25 -0.000126636)
(0.0654243 4.0869e-25 -0.000126651)
(0.0653406 2.18381e-30 -0.000126665)
(0.0652585 0 -0.000126675)
(0.0651779 2.14387e-30 -0.000126684)
(0.0650989 3.83479e-25 -0.00012669)
(0.0650215 -2.10288e-30 -0.000126692)
(0.0649456 0 -0.000126693)
(0.0648712 0 -0.000126692)
(0.0647984 -3.5273e-25 -0.000126688)
(0.0647271 0 -0.000126681)
(0.0646574 1.98606e-30 -0.000126674)
(0.0645892 -3.2658e-25 -0.00012666)
(0.0645225 3.17227e-25 -0.000126636)
(0.0644574 -3.07833e-25 -0.000126609)
(0.0643939 -1.86084e-30 -0.000126581)
(0.0643319 0 -0.00012654)
(0.0642716 -1.77911e-30 -0.000126494)
(0.0642128 0 -0.000126447)
(0.0641556 2.62634e-25 -0.000126398)
(0.0640999 1.66147e-30 -0.000126372)
(0.0640457 2.46998e-25 -0.00012635)
(0.063993 -2.3923e-25 -0.000126319)
(0.0639418 1.55009e-30 -0.000126287)
(0.0638919 1.51139e-30 -0.000126239)
(0.0638434 0 -0.000126172)
(0.0637962 -1.43936e-30 -0.000126103)
(0.0637503 2.04095e-25 -0.000126044)
(0.0637055 1.98349e-25 -0.000125993)
(0.063662 -1.36454e-30 -0.000125935)
(0.0636195 1.34099e-30 -0.000125868)
(0.063578 0 -0.000125805)
(0.0635375 0 -0.000125735)
(0.0634979 0 -0.000125667)
(0.0634591 -1.64889e-25 -0.000125592)
(0.0634211 -1.29361e-30 -0.000125513)
(0.0633838 0 -0.000125409)
(0.0633472 1.25929e-30 -0.00012526)
(0.063311 0 -0.000125051)
(0.0632752 -1.20011e-30 -0.000124823)
(0.0632395 1.15229e-30 -0.000124619)
(0.0632037 -1.45923e-25 -0.000124446)
(0.0631676 1.11643e-30 -0.000124301)
(0.0631311 -1.11598e-30 -0.000124176)
(0.0630942 0 -0.000124071)
(0.0630568 0 -0.000123981)
(0.0630188 0 -0.000123899)
(0.0629804 0 -0.00012382)
(0.0629416 0 -0.000123744)
(0.0629022 -1.10536e-30 -0.000123668)
(0.0628625 1.10007e-30 -0.000123594)
(0.0628223 0 -0.000123518)
(0.0627817 0 -0.00012344)
(0.0627408 1.08317e-30 -0.000123368)
(0.0626994 1.94056e-25 -0.000123295)
(0.0626576 0 -0.000123228)
(0.0626155 0 -0.000123155)
(0.0625731 0 -0.00012309)
(0.0625303 0 -0.00012302)
(0.0624873 0 -0.000122954)
(0.062444 -1.05817e-30 -0.000122886)
(0.0624004 0 -0.00012282)
(0.0623567 2.13907e-25 -0.000122752)
(0.0623128 0 -0.00012269)
(0.0622687 -1.05575e-30 -0.000122633)
(0.0622245 1.05538e-30 -0.000122578)
(0.0621802 -1.05294e-30 -0.000122524)
(0.0621359 0 -0.00012247)
(0.0620915 -2.27841e-25 -0.000122415)
(0.0620471 0 -0.000122365)
(0.0620027 -1.04891e-30 -0.000122312)
(0.0619583 0 -0.000122259)
(0.0619139 0 -0.000122206)
(0.0618696 -1.04995e-30 -0.000122155)
(0.0618253 0 -0.000122102)
(0.0617812 2.42325e-25 -0.000122052)
(0.0617371 1.05121e-30 -0.000122004)
(0.0616931 -2.45968e-25 -0.000121958)
(0.0616492 0 -0.000121911)
(0.0616055 0 -0.000121864)
(0.0615619 0 -0.000121814)
(0.0615184 0 -0.000121764)
(0.061475 0 -0.000121712)
(0.0614318 0 -0.00012166)
(0.0613887 0 -0.000121613)
(0.0613457 0 -0.00012157)
(0.0613029 0 -0.000121534)
(0.0612603 1.06191e-30 -0.000121495)
(0.0612178 2.63329e-25 -0.000121464)
(0.0611755 0 -0.000121431)
(0.0611335 -1.07663e-30 -0.000121412)
(0.0610916 0 -0.000121392)
(0.0610499 1.08797e-30 -0.000121377)
(0.0610085 0 -0.000121358)
(0.0609673 -1.09595e-30 -0.000121344)
(0.0609264 0 -0.000121325)
(0.0608858 -2.72423e-25 -0.000121307)
(0.0608454 0 -0.000121283)
(0.0608053 0 -0.000121263)
(0.0607655 0 -0.000121243)
(0.0607259 -2.74692e-25 -0.000121229)
(0.0606866 0 -0.000121216)
(0.0606477 2.75235e-25 -0.000121206)
(0.0606091 0 -0.000121194)
(0.0605708 -1.08768e-30 -0.000121185)
(0.0605329 0 -0.00012117)
(0.0604953 0 -0.000121139)
(0.0604583 2.737e-25 -0.000121109)
(0.0604216 0 -0.000121096)
(0.0603855 0 -0.000121078)
(0.0603497 -1.0351e-30 -0.000121045)
(0.0603144 0 -0.000120986)
(0.0602796 -2.67066e-25 -0.000120893)
(0.0602452 -2.65065e-25 -0.000120817)
(0.0602114 -9.72166e-31 -0.000120748)
(0.0601779 -2.59064e-25 -0.000120594)
(0.060145 0 -0.000120397)
(0.0601126 0 -0.000120262)
(0.0600809 -2.49151e-25 -0.000120206)
(0.0600497 2.47417e-25 -0.000120203)
(0.060019 0 -0.000120206)
(0.0599887 -2.42259e-25 -0.00012019)
(0.0599588 0 -0.000120148)
(0.0599292 8.68339e-31 -0.000120069)
(0.0598999 0 -0.00011994)
(0.0598709 0 -0.000119759)
(0.0598421 0 -0.000119601)
(0.0598136 8.04785e-31 -0.000119506)
(0.0597854 -8.09786e-31 -0.000119445)
(0.0597574 0 -0.000119429)
(0.0597295 0 -0.000119435)
(0.0596987 -2.03771e-25 -0.000119421)
(0.0596649 2.00716e-25 -0.000119407)
(0.0596317 0 -0.000119396)
(0.0595991 -1.94275e-25 -0.000119372)
(0.0595672 0 -0.000119339)
(0.059536 1.87583e-25 -0.000119306)
(0.0595054 0 -0.000119274)
(0.0594754 0 -0.000119242)
(0.0594461 -1.79325e-25 -0.000119207)
(0.0594174 0 -0.000119172)
(0.0593892 0 -0.000119133)
(0.0593616 0 -0.000119091)
(0.0593345 0 -0.000119045)
(0.059308 0 -0.000118998)
(0.059282 0 -0.000118949)
(0.0592566 0 -0.000118895)
(0.0592319 5.71036e-31 -0.000118833)
(0.0592078 0 -0.000118762)
(0.0591844 5.43286e-31 -0.000118672)
(0.0591615 1.58419e-25 -0.00011856)
(0.0591391 -1.55992e-25 -0.000118436)
(0.0591173 -1.53455e-25 -0.000118288)
(0.059096 0 -0.000118103)
(0.0590694 0 -0.000117873)
(0.0590407 0 -0.000117624)
(0.0590117 4.74211e-31 -0.000117438)
(0.0589824 1.42471e-25 -0.000117341)
(0.0589525 0 -0.000117235)
(0.0589221 0 -0.000117052)
(0.0588911 0 -0.000116795)
(0.0588595 0 -0.000116524)
(0.0588275 1.31699e-25 -0.000116319)
(0.0587949 1.3089e-25 -0.000116138)
(0.0587617 0 -0.000115954)
(0.058728 -1.29962e-25 -0.000115818)
(0.0586938 -1.30753e-25 -0.000115724)
(0.0586591 0 -0.000115652)
(0.0586238 0 -0.000115563)
(0.0585879 0 -0.000115459)
(0.0585514 4.2367e-31 -0.000115369)
(0.0585143 0 -0.000115271)
(0.0584767 1.39437e-25 -0.000115166)
(0.0584384 1.42203e-25 -0.000115058)
(0.0583995 0 -0.000114952)
(0.0583601 4.13234e-31 -0.000114851)
(0.05832 0 -0.000114751)
(0.0582792 0 -0.000114655)
(0.0582379 4.35405e-31 -0.000114557)
(0.058196 0 -0.000114458)
(0.0581534 0 -0.000114364)
(0.0581101 0 -0.000114273)
(0.0580662 0 -0.000114186)
(0.0580215 0 -0.000114098)
(0.0579762 0 -0.000114013)
(0.0579301 0 -0.000113926)
(0.0578834 2.02987e-25 -0.000113844)
(0.057836 0 -0.000113763)
(0.0577879 0 -0.000113683)
(0.0577392 0 -0.000113601)
(0.0576899 0 -0.000113524)
(0.0576401 0 -0.000113446)
(0.0575898 0 -0.000113372)
(0.0575391 0 -0.000113298)
(0.0574879 2.42884e-25 -0.000113225)
(0.0574364 -2.47286e-25 -0.00011316)
(0.0573844 0 -0.000113091)
(0.0573322 7.55597e-31 -0.000113026)
(0.0572797 -7.67622e-31 -0.000112957)
(0.0572269 -2.62449e-25 -0.000112894)
(0.0571739 2.65341e-25 -0.000112827)
(0.0571207 0 -0.000112766)
(0.0570674 -2.70474e-25 -0.000112703)
(0.0570141 2.72765e-25 -0.000112644)
(0.0569608 2.74706e-25 -0.000112577)
(0.0569076 2.76661e-25 -0.000112512)
(0.0568545 2.78461e-25 -0.000112442)
(0.0568014 2.80244e-25 -0.000112371)
(0.0567485 -8.14435e-31 -0.000112293)
(0.0566957 0 -0.000112212)
(0.056643 0 -0.000112129)
(0.0565904 0 -0.000112048)
(0.0565378 0 -0.000111966)
(0.0564854 0 -0.000111887)
(0.056433 2.91884e-25 -0.000111804)
(0.0563807 2.93953e-25 -0.000111721)
(0.0563286 7.94386e-31 -0.000111636)
(0.0562765 -7.98708e-31 -0.000111551)
(0.0562245 0 -0.000111474)
(0.0561726 -8.10816e-31 -0.000111393)
(0.0561208 0 -0.000111309)
(0.0560691 3.07504e-25 -0.000111221)
(0.0560174 -8.28141e-31 -0.000111134)
(0.0559658 -3.11023e-25 -0.000111048)
(0.0559142 8.49189e-31 -0.000110962)
(0.0558626 3.1413e-25 -0.000110877)
(0.0558111 0 -0.000110795)
(0.0557595 0 -0.000110716)
(0.0557081 0 -0.000110638)
(0.0556567 0 -0.000110562)
(0.0556055 0 -0.00011049)
(0.0555543 9.14866e-31 -0.000110413)
(0.0555033 -9.17821e-31 -0.00011034)
(0.0554525 3.23284e-25 -0.000110265)
(0.0554019 0 -0.000110196)
(0.0553514 3.24197e-25 -0.00011012)
(0.0553012 0 -0.000110046)
(0.0552512 0 -0.00010997)
(0.0552014 -9.21428e-31 -0.000109889)
(0.0551519 0 -0.000109795)
(0.0551027 3.25462e-25 -0.000109701)
(0.0550537 0 -0.000109596)
(0.0550049 -3.25976e-25 -0.000109501)
(0.0549564 0 -0.000109421)
(0.0549082 -3.26796e-25 -0.000109331)
(0.0548601 -9.39649e-31 -0.00010923)
(0.0548121 0 -0.00010911)
(0.0547643 0 -0.000108995)
(0.0547167 3.25352e-25 -0.000108928)
(0.0546693 3.25119e-25 -0.000108868)
(0.054622 -3.23786e-25 -0.000108779)
(0.0545748 0 -0.000108672)
(0.0545278 -3.19699e-25 -0.000108562)
(0.0544809 0 -0.000108445)
(0.0544342 0 -0.000108328)
(0.0543877 0 -0.000108256)
(0.0543413 3.11513e-25 -0.000108218)
(0.0542951 9.96857e-31 -0.000108161)
(0.0542489 0 -0.000108079)
(0.0542028 9.61321e-31 -0.000107982)
(0.0541568 -3.00292e-25 -0.000107877)
(0.0541109 -2.96939e-25 -0.000107778)
(0.054065 0 -0.000107676)
(0.0540191 9.05052e-31 -0.000107583)
(0.0539732 2.88025e-25 -0.000107504)
(0.0539272 -8.80371e-31 -0.000107424)
(0.0538812 -2.82843e-25 -0.000107334)
(0.0538352 8.4914e-31 -0.000107232)
(0.0537891 -8.39775e-31 -0.000107131)
(0.053743 8.43833e-31 -0.000107059)
(0.053697 8.45582e-31 -0.000107011)
(0.053651 0 -0.000106956)
(0.053605 2.69405e-25 -0.000106891)
(0.0535592 0 -0.000106826)
(0.0535134 2.65527e-25 -0.000106757)
(0.0534678 -7.74284e-31 -0.000106685)
(0.0534223 -2.62674e-25 -0.000106617)
(0.053377 0 -0.000106551)
(0.0533318 0 -0.000106478)
(0.0532869 0 -0.0001064)
(0.0532421 0 -0.000106315)
(0.0531976 2.56226e-25 -0.000106222)
(0.0531532 0 -0.000106121)
(0.0531089 0 -0.000106017)
(0.0530648 0 -0.000105915)
(0.0530208 0 -0.000105811)
(0.0529767 -2.48635e-25 -0.000105694)
(0.0529326 -6.17818e-31 -0.000105574)
(0.0528884 6.11575e-31 -0.000105463)
(0.0528441 0 -0.000105354)
(0.0527996 0 -0.000105251)
(0.0527549 0 -0.00010515)
(0.0527099 0 -0.000105044)
(0.0526648 0 -0.000104931)
(0.0526195 0 -0.000104783)
(0.052574 0 -0.000104591)
(0.0525285 -2.41476e-25 -0.000104411)
(0.0524829 -2.38378e-25 -0.000104211)
(0.0524373 0 -0.000103997)
(0.0523918 0 -0.000103889)
(0.0523463 2.32923e-25 -0.000103848)
(0.0523007 -6.81936e-31 -0.000103795)
(0.0522551 2.29325e-25 -0.000103734)
(0.0522096 -6.62106e-31 -0.000103651)
(0.052164 -2.24609e-25 -0.000103558)
(0.0521184 2.21895e-25 -0.000103458)
(0.0520728 0 -0.00010335)
(0.0520273 2.17597e-25 -0.000103232)
(0.0519816 0 -0.000103107)
(0.0519358 0 -0.000102982)
(0.0518897 0 -0.000102857)
(0.0518434 0 -0.000102736)
(0.0517966 -5.12802e-31 -0.000102615)
(0.0517494 0 -0.000102495)
(0.0517016 0 -0.000102376)
(0.0516533 -2.18818e-25 -0.000102255)
(0.0516043 0 -0.000102134)
(0.0515546 5.59515e-31 -0.00010202)
(0.0515042 -2.2688e-25 -0.000101913)
(0.0514531 0 -0.000101819)
(0.0514014 -5.98895e-31 -0.000101732)
(0.0513493 0 -0.00010165)
(0.0512966 0 -0.00010157)
(0.0512437 0 -0.000101484)
(0.0511904 -2.33361e-25 -0.000101393)
(0.051137 -6.54303e-31 -0.000101298)
(0.0510832 2.34541e-25 -0.000101204)
(0.0510295 2.33311e-25 -0.000101106)
(0.0509753 0 -0.00010101)
(0.0509212 -2.36441e-25 -0.000100912)
(0.0508666 -2.41278e-25 -0.000100811)
(0.0508122 5.54122e-31 -0.0001007)
(0.0507572 0 -0.000100581)
(0.0507023 0 -0.000100445)
(0.0506466 0 -0.000100293)
(0.0505908 2.71333e-25 -0.000100121)
(0.0505338 0 -9.99239e-05)
(0.0504762 -2.98366e-25 -9.96989e-05)
(0.0504166 -4.58733e-31 -9.94058e-05)
(0.0503557 3.46444e-25 -9.90654e-05)
(0.0502912 0 -9.85679e-05)
(0.0502243 -3.60186e-31 -9.79072e-05)
(0.05015 5.27764e-25 -9.69291e-05)
(0.0500709 0 -9.55799e-05)
(0.0499764 0 -9.36507e-05)
(0.0498709 0 -9.09745e-05)
(0.0497338 -1.3473e-24 -8.70558e-05)
(0.0495724 1.6837e-24 -8.16679e-05)
(0.0493468 -7.39712e-30 -7.42071e-05)
(0.0490692 -2.70059e-30 -6.32334e-05)
(0.048676 0 -6.52333e-05)
(0.0481564 0 -3.9075e-05)
(0.0479139 -8.87738e-23 -0.000527466)
(0.0467157 1.91575e-22 -0.000558593)
(0.0448776 1.80814e-28 -8.97552e-05)
(0.0424095 0 -8.4819e-05)
(0.0386885 0 -7.7377e-05)
(0.0334855 0 -6.6971e-05)
(0 0 0)
(0 0 0)
(0 0 0)
(0 0 0)
(0 0 0)
(0 0 0)
)
;

boundaryField
{
    inlet
    {
        type            calculated;
        value           uniform (0 0 0);
    }
    endWall
    {
        type            calculated;
        value           uniform (0 0 0);
    }
    sideWall
    {
        type            empty;
    }
}


// ************************************************************************* //
