/*--------------------------------*- C++ -*----------------------------------*\
| =========                 |                                                 |
| \\      /  F ield         | foam-extend: Open Source CFD                    |
|  \\    /   O peration     | Version:     3.2                                |
|   \\  /    A nd           | Web:         http://www.foam-extend.org         |
|    \\/     M anipulation  | For copyright notice see file Copyright         |
\*---------------------------------------------------------------------------*/
FoamFile
{
    version     2.0;
    format      ascii;
    class       areaScalarField;
    location    "120";
    object      Uf;
}
// * * * * * * * * * * * * * * * * * * * * * * * * * * * * * * * * * * * * * //

dimensions      [0 1 -1 0 0 0 0];

internalField   nonuniform List<scalar> 
550
(
0.00700392
0.00822739
0.00950283
0.0108014
0.0120885
0.0133292
0.0144939
0.0155567
0.016502
0.0173181
0.0180039
0.0185612
0.0189989
0.0193265
0.0195564
0.0197007
0.0197724
0.0197834
0.0197454
0.0196715
0.0195692
0.0194446
0.0193032
0.0191496
0.0189881
0.0188223
0.0186555
0.0184905
0.0183297
0.0181734
0.0180218
0.0178756
0.0177353
0.0176013
0.0174737
0.0173525
0.0172378
0.0171294
0.0170272
0.016931
0.0168406
0.0167557
0.0166761
0.0166014
0.0165313
0.0164656
0.016404
0.0163463
0.0162923
0.0162416
0.0161942
0.0161497
0.016108
0.0160689
0.0160321
0.0159974
0.0159647
0.0159337
0.0159044
0.0158765
0.01585
0.0158248
0.0158007
0.0157776
0.0157555
0.0157344
0.015714
0.0156944
0.0156754
0.0156571
0.0156393
0.0156221
0.0156052
0.0155888
0.0155728
0.015557
0.0155415
0.0155263
0.0155113
0.0154965
0.015482
0.0154677
0.0154537
0.0154399
0.0154262
0.0154128
0.0153996
0.0153865
0.0153736
0.0153609
0.0153482
0.0153358
0.0153234
0.015311
0.0152988
0.0152865
0.0152744
0.0152623
0.0152503
0.0152383
0.0152264
0.0152146
0.0152027
0.0151909
0.015179
0.0151671
0.015155
0.0151429
0.0151307
0.0151184
0.015106
0.0150935
0.0150808
0.0150679
0.0150549
0.0150418
0.0150285
0.0150151
0.0150015
0.0149877
0.0149739
0.0149598
0.0149457
0.0149315
0.0149171
0.0149026
0.014888
0.0148732
0.0148583
0.0148431
0.014828
0.0148132
0.0147987
0.0147842
0.0147697
0.0147553
0.0147409
0.0147265
0.014712
0.0146976
0.0146831
0.0146687
0.0146542
0.0146398
0.0146255
0.0146111
0.0145968
0.0145826
0.0145684
0.0145543
0.0145403
0.0145263
0.0145125
0.0144987
0.0144851
0.0144715
0.0144581
0.0144447
0.0144316
0.0144185
0.0144056
0.0143929
0.0143803
0.0143679
0.0143557
0.0143436
0.0143318
0.0143201
0.0143086
0.0142973
0.0142862
0.0142752
0.0142645
0.0142539
0.0142435
0.0142332
0.0142231
0.0142131
0.0142033
0.0141936
0.0141841
0.0141747
0.0141655
0.0141564
0.0141474
0.0141386
0.0141299
0.0141213
0.0141129
0.0141046
0.0140965
0.0140885
0.0140806
0.0140729
0.0140654
0.014058
0.0140508
0.0140438
0.0140369
0.0140303
0.0140238
0.0140175
0.0140114
0.0140054
0.0139997
0.0139942
0.0139889
0.0139838
0.0139789
0.0139741
0.0139695
0.0139652
0.0139609
0.0139569
0.013953
0.0139493
0.0139457
0.0139423
0.013939
0.0139359
0.0139328
0.0139299
0.0139272
0.0139245
0.0139219
0.0139194
0.013917
0.0139146
0.0139122
0.0139097
0.0139072
0.0139047
0.013902
0.0138993
0.0138965
0.0138937
0.0138908
0.0138878
0.0138847
0.0138815
0.0138783
0.013875
0.0138716
0.0138681
0.0138646
0.0138609
0.0138573
0.0138535
0.0138497
0.0138458
0.0138419
0.0138379
0.0138339
0.0138298
0.0138257
0.0138215
0.0138173
0.0138131
0.0138088
0.0138045
0.0138001
0.0137957
0.0137913
0.0137869
0.0137824
0.013778
0.0137735
0.013769
0.0137644
0.0137599
0.0137553
0.0137507
0.0137462
0.0137416
0.0137369
0.0137323
0.0137277
0.013723
0.0137183
0.0137136
0.0137089
0.0137042
0.0136994
0.0136946
0.0136898
0.013685
0.0136802
0.0136753
0.0136705
0.0136656
0.0136607
0.0136558
0.0136509
0.013646
0.0136411
0.0136362
0.0136314
0.0136265
0.0136217
0.0136169
0.0136122
0.0136075
0.0136029
0.0135984
0.0135939
0.0135895
0.0135852
0.0135809
0.0135767
0.0135726
0.0135686
0.0135646
0.0135608
0.013557
0.0135533
0.0135497
0.0135462
0.0135427
0.0135393
0.013536
0.0135327
0.0135295
0.0135264
0.0135233
0.0135203
0.0135174
0.0135145
0.0135117
0.013509
0.0135062
0.0135036
0.013501
0.0134985
0.013496
0.0134936
0.0134912
0.013489
0.0134867
0.0134846
0.0134824
0.0134804
0.0134784
0.0134764
0.0134744
0.0134725
0.0134706
0.0134687
0.0134668
0.013465
0.0134631
0.0134612
0.0134594
0.0134575
0.0134555
0.0134536
0.0134516
0.0134496
0.0134475
0.0134454
0.0134433
0.013441
0.0134387
0.0134364
0.0134339
0.0134314
0.0134288
0.0134261
0.0134233
0.0134204
0.0134174
0.0134143
0.013411
0.0134076
0.0134041
0.0134004
0.0133966
0.0133926
0.0133886
0.0133844
0.0133801
0.0133757
0.0133712
0.0133666
0.0133618
0.013357
0.013352
0.013347
0.0133418
0.0133366
0.0133313
0.013326
0.0133206
0.0133151
0.0133096
0.0133041
0.0132985
0.0132929
0.0132873
0.0132817
0.013276
0.0132703
0.0132646
0.0132588
0.0132531
0.0132473
0.0132416
0.0132358
0.0132299
0.0132241
0.0132183
0.0132124
0.0132065
0.0132006
0.0131946
0.0131887
0.0131827
0.0131767
0.0131707
0.0131647
0.0131587
0.0131527
0.0131467
0.0131407
0.0131347
0.0131288
0.0131228
0.0131169
0.0131109
0.013105
0.0130992
0.0130933
0.0130874
0.0130816
0.0130758
0.01307
0.0130642
0.0130584
0.0130526
0.0130469
0.0130412
0.0130355
0.0130299
0.0130242
0.0130186
0.0130131
0.0130075
0.013002
0.0129965
0.0129911
0.0129858
0.0129804
0.0129751
0.0129699
0.0129647
0.0129596
0.0129545
0.0129494
0.0129444
0.0129395
0.0129346
0.0129298
0.012925
0.0129203
0.0129156
0.012911
0.0129064
0.0129018
0.0128974
0.012893
0.0128886
0.0128844
0.0128802
0.012876
0.012872
0.0128679
0.012864
0.01286
0.0128561
0.0128523
0.0128484
0.0128446
0.0128409
0.0128371
0.0128335
0.0128298
0.0128263
0.0128227
0.0128192
0.0128158
0.0128123
0.0128089
0.0128055
0.0128022
0.0127989
0.0127956
0.0127923
0.0127891
0.0127859
0.0127827
0.0127795
0.0127762
0.0127729
0.0127696
0.0127661
0.0127626
0.012759
0.0127553
0.0127515
0.0127477
0.0127438
0.0127397
0.0127357
0.0127316
0.0127274
0.0127231
0.0127189
0.0127145
0.0127101
0.0127057
0.0127012
0.0126966
0.012692
0.0126873
0.0126824
0.0126774
0.0126722
0.0126666
0.0126608
0.0126542
0.0126472
0.0126387
0.0126293
0.012617
0.0126029
0.012583
0.0125596
0.0125239
0.0124843
0.012398
0.012252
0.0120607
0.011814
0.0114422
0.0109222
0.0101716
0.00909239
0.0071614
0.00495417
0.00567126
0.00738771
)
;

boundaryField
{
    inlet
    {
        type            calculated;
        value           uniform 0;
    }
    endWall
    {
        type            calculated;
        value           uniform 0;
    }
    sideWall
    {
        type            empty;
    }
}


// ************************************************************************* //
