/*--------------------------------*- C++ -*----------------------------------*\
| =========                 |                                                 |
| \\      /  F ield         | foam-extend: Open Source CFD                    |
|  \\    /   O peration     | Version:     3.2                                |
|   \\  /    A nd           | Web:         http://www.foam-extend.org         |
|    \\/     M anipulation  | For copyright notice see file Copyright         |
\*---------------------------------------------------------------------------*/
FoamFile
{
    version     2.0;
    format      ascii;
    class       areaScalarField;
    location    "120";
    object      Uf2;
}
// * * * * * * * * * * * * * * * * * * * * * * * * * * * * * * * * * * * * * //

dimensions      [0 1 -1 0 0 0 0];

internalField   nonuniform List<scalar> 
550
(
0.0376451
0.037141
0.0364556
0.0357258
0.0350019
0.0342755
0.0336061
0.0329469
0.0323407
0.0317401
0.0311788
0.0306317
0.0301185
0.0296212
0.0291477
0.0286887
0.0282529
0.0278362
0.0274389
0.0270557
0.0266886
0.0263361
0.0259988
0.0256768
0.0253711
0.0250817
0.0248091
0.0245522
0.0243091
0.0240787
0.0238602
0.0236533
0.0234577
0.0232727
0.0230977
0.0229325
0.0227766
0.0226295
0.0224909
0.0223605
0.0222377
0.0221223
0.0220135
0.021911
0.0218143
0.021723
0.021637
0.0215559
0.0214794
0.0214072
0.021339
0.0212747
0.021214
0.0211566
0.0211022
0.0210505
0.0210014
0.0209548
0.0209105
0.0208683
0.0208279
0.0207893
0.0207525
0.0207172
0.0206836
0.0206513
0.0206205
0.020591
0.0205626
0.0205354
0.0205093
0.020484
0.0204596
0.020436
0.0204132
0.020391
0.0203693
0.0203481
0.0203274
0.0203074
0.020288
0.0202692
0.0202508
0.0202329
0.0202155
0.0201986
0.020182
0.0201659
0.0201502
0.0201348
0.0201198
0.0201049
0.0200901
0.0200755
0.0200611
0.0200469
0.020033
0.0200194
0.020006
0.019993
0.0199802
0.0199676
0.019955
0.0199424
0.0199299
0.0199173
0.0199047
0.0198921
0.0198793
0.0198666
0.0198536
0.0198406
0.0198274
0.019814
0.0198006
0.0197869
0.0197729
0.0197587
0.0197443
0.0197297
0.019715
0.0197001
0.0196849
0.0196696
0.019654
0.0196382
0.0196221
0.0196057
0.0195886
0.0195707
0.0195545
0.0195405
0.0195261
0.019511
0.0194957
0.0194799
0.0194639
0.0194478
0.0194314
0.019415
0.0193984
0.0193817
0.0193649
0.0193481
0.0193312
0.0193143
0.0192974
0.0192804
0.0192635
0.0192466
0.0192298
0.019213
0.0191962
0.0191795
0.0191629
0.0191463
0.0191298
0.0191135
0.0190972
0.0190811
0.0190651
0.0190493
0.0190335
0.019018
0.0190026
0.0189873
0.0189722
0.0189572
0.0189425
0.0189279
0.0189134
0.0188992
0.0188851
0.0188711
0.0188574
0.0188438
0.0188304
0.0188171
0.018804
0.018791
0.0187782
0.0187655
0.018753
0.0187406
0.0187284
0.0187163
0.0187044
0.0186927
0.0186811
0.0186697
0.0186584
0.0186473
0.0186364
0.0186257
0.0186152
0.0186049
0.0185948
0.0185849
0.0185753
0.0185658
0.0185566
0.0185477
0.0185389
0.0185304
0.0185222
0.0185142
0.0185064
0.0184989
0.0184915
0.0184844
0.0184774
0.0184707
0.0184641
0.0184577
0.0184515
0.0184454
0.0184395
0.0184337
0.0184281
0.0184226
0.0184172
0.0184119
0.0184067
0.0184017
0.0183967
0.018392
0.0183873
0.0183826
0.0183778
0.0183731
0.0183683
0.0183635
0.0183587
0.0183538
0.018349
0.0183441
0.0183392
0.0183343
0.0183294
0.0183244
0.0183194
0.0183144
0.0183093
0.0183042
0.0182991
0.0182939
0.0182887
0.0182834
0.0182781
0.0182727
0.0182673
0.0182618
0.0182563
0.0182507
0.0182451
0.0182394
0.0182337
0.018228
0.0182221
0.0182163
0.0182104
0.0182045
0.0181985
0.0181925
0.0181865
0.0181804
0.0181743
0.0181682
0.018162
0.0181558
0.0181495
0.0181433
0.018137
0.0181307
0.0181243
0.0181179
0.0181116
0.0181051
0.0180987
0.0180922
0.0180857
0.0180792
0.0180727
0.0180662
0.0180597
0.0180531
0.0180466
0.01804
0.0180335
0.018027
0.0180204
0.0180139
0.0180074
0.0180009
0.0179944
0.0179879
0.0179815
0.0179751
0.0179688
0.0179625
0.0179563
0.0179501
0.0179441
0.0179382
0.0179323
0.0179266
0.0179209
0.0179153
0.0179097
0.0179043
0.017899
0.0178938
0.0178888
0.0178839
0.0178791
0.0178744
0.0178698
0.0178653
0.0178609
0.0178565
0.0178523
0.0178482
0.0178441
0.0178402
0.0178363
0.0178326
0.0178289
0.0178253
0.0178217
0.0178182
0.0178147
0.0178113
0.0178079
0.0178045
0.0178012
0.017798
0.0177948
0.0177917
0.0177886
0.0177856
0.0177827
0.0177799
0.0177772
0.0177744
0.0177718
0.0177691
0.0177666
0.0177641
0.0177617
0.0177593
0.017757
0.0177547
0.0177524
0.0177501
0.0177477
0.0177454
0.017743
0.0177406
0.0177382
0.0177356
0.017733
0.0177303
0.0177276
0.0177247
0.0177217
0.0177186
0.0177154
0.017712
0.0177086
0.017705
0.0177013
0.0176974
0.0176934
0.0176893
0.017685
0.0176805
0.0176759
0.0176711
0.0176662
0.0176612
0.0176561
0.0176509
0.0176456
0.0176401
0.0176346
0.017629
0.0176232
0.0176174
0.0176115
0.0176055
0.0175995
0.0175934
0.0175872
0.0175811
0.0175748
0.0175686
0.0175623
0.0175559
0.0175495
0.017543
0.0175365
0.0175299
0.0175233
0.0175166
0.0175098
0.0175029
0.017496
0.017489
0.017482
0.0174749
0.0174678
0.0174607
0.0174534
0.0174462
0.0174389
0.0174315
0.0174241
0.0174167
0.0174092
0.0174018
0.0173943
0.0173868
0.0173793
0.0173717
0.0173642
0.0173566
0.017349
0.0173414
0.0173338
0.0173262
0.0173186
0.0173109
0.0173033
0.0172957
0.017288
0.0172804
0.0172728
0.0172652
0.0172577
0.0172502
0.0172429
0.0172356
0.0172283
0.0172211
0.017214
0.0172069
0.0172
0.0171931
0.0171863
0.0171797
0.0171731
0.0171666
0.0171602
0.0171539
0.0171477
0.0171415
0.0171353
0.0171293
0.0171233
0.0171173
0.0171114
0.0171056
0.0170999
0.0170942
0.0170885
0.0170828
0.0170772
0.0170716
0.017066
0.0170605
0.017055
0.0170496
0.0170442
0.0170389
0.0170336
0.0170284
0.0170231
0.0170178
0.0170125
0.0170073
0.017002
0.0169967
0.0169915
0.0169864
0.0169814
0.0169765
0.0169716
0.0169668
0.0169621
0.0169575
0.0169529
0.0169483
0.0169438
0.0169394
0.016935
0.0169307
0.0169264
0.0169221
0.0169179
0.0169137
0.0169094
0.0169051
0.0169007
0.0168963
0.0168918
0.0168873
0.0168826
0.016878
0.0168733
0.0168687
0.0168639
0.0168592
0.0168544
0.0168498
0.0168449
0.0168402
0.0168352
0.0168303
0.0168251
0.0168199
0.0168142
0.0168086
0.0168024
0.016796
0.0167889
0.0167815
0.0167725
0.0167634
0.0167503
0.0167378
0.0167169
0.016697
0.0166606
0.0166258
0.0165586
0.016498
0.016361
0.0162835
0.0158545
0.015238
0.0146432
0.0139317
0.0126549
0.0111511
0.00901184
0.00651408
0.00168135
0.000189195
0.00228108
0.00342765
)
;

boundaryField
{
    inlet
    {
        type            calculated;
        value           uniform 0;
    }
    endWall
    {
        type            calculated;
        value           uniform 0;
    }
    sideWall
    {
        type            empty;
    }
}


// ************************************************************************* //
