/*--------------------------------*- C++ -*----------------------------------*\
| =========                 |                                                 |
| \\      /  F ield         | foam-extend: Open Source CFD                    |
|  \\    /   O peration     | Version:     3.2                                |
|   \\  /    A nd           | Web:         http://www.foam-extend.org         |
|    \\/     M anipulation  | For copyright notice see file Copyright         |
\*---------------------------------------------------------------------------*/
FoamFile
{
    version     2.0;
    format      ascii;
    class       areaVectorField;
    location    "120";
    object      uNormal;
}
// * * * * * * * * * * * * * * * * * * * * * * * * * * * * * * * * * * * * * //

dimensions      [0 0 0 0 0 0 0];

internalField   nonuniform List<vector> 
550
(
(0.002 0 0.999998)
(0.002 0 0.999998)
(0.002 0 0.999998)
(0.002 0 0.999998)
(0.002 7.27917e-20 0.999998)
(0.002 0 0.999998)
(0.002 0 0.999998)
(0.002 0 0.999998)
(0.002 7.27917e-20 0.999998)
(0.002 0 0.999998)
(0.002 0 0.999998)
(0.002 0 0.999998)
(0.002 7.27917e-20 0.999998)
(0.002 0 0.999998)
(0.002 0 0.999998)
(0.002 7.27917e-20 0.999998)
(0.002 -7.27917e-20 0.999998)
(0.002 7.27917e-20 0.999998)
(0.002 7.27917e-20 0.999998)
(0.002 0 0.999998)
(0.002 7.27917e-20 0.999998)
(0.002 -7.27917e-20 0.999998)
(0.002 0 0.999998)
(0.002 7.27917e-20 0.999998)
(0.002 0 0.999998)
(0.002 0 0.999998)
(0.002 7.27917e-20 0.999998)
(0.002 0 0.999998)
(0.002 0 0.999998)
(0.002 0 0.999998)
(0.002 0 0.999998)
(0.002 0 0.999998)
(0.002 0 0.999998)
(0.002 0 0.999998)
(0.002 0 0.999998)
(0.002 0 0.999998)
(0.002 0 0.999998)
(0.002 0 0.999998)
(0.002 7.27917e-20 0.999998)
(0.002 0 0.999998)
(0.002 0 0.999998)
(0.002 0 0.999998)
(0.002 0 0.999998)
(0.002 0 0.999998)
(0.002 0 0.999998)
(0.002 0 0.999998)
(0.002 0 0.999998)
(0.002 0 0.999998)
(0.002 0 0.999998)
(0.002 0 0.999998)
(0.002 0 0.999998)
(0.002 0 0.999998)
(0.002 0 0.999998)
(0.002 0 0.999998)
(0.002 0 0.999998)
(0.002 -7.27917e-20 0.999998)
(0.002 -7.27917e-20 0.999998)
(0.002 7.27917e-20 0.999998)
(0.002 0 0.999998)
(0.002 0 0.999998)
(0.002 -7.27917e-20 0.999998)
(0.002 -7.27917e-20 0.999998)
(0.002 -7.27917e-20 0.999998)
(0.002 0 0.999998)
(0.002 0 0.999998)
(0.002 -7.27917e-20 0.999998)
(0.002 0 0.999998)
(0.002 0 0.999998)
(0.002 0 0.999998)
(0.002 0 0.999998)
(0.002 -7.27917e-20 0.999998)
(0.002 -7.27917e-20 0.999998)
(0.002 0 0.999998)
(0.002 0 0.999998)
(0.002 0 0.999998)
(0.002 -7.27917e-20 0.999998)
(0.002 0 0.999998)
(0.002 0 0.999998)
(0.002 -7.27917e-20 0.999998)
(0.002 7.27917e-20 0.999998)
(0.002 0 0.999998)
(0.002 0 0.999998)
(0.002 0 0.999998)
(0.002 0 0.999998)
(0.002 -7.27917e-20 0.999998)
(0.002 0 0.999998)
(0.002 0 0.999998)
(0.002 0 0.999998)
(0.002 -7.27917e-20 0.999998)
(0.002 -7.27917e-20 0.999998)
(0.002 0 0.999998)
(0.002 0 0.999998)
(0.002 -7.27917e-20 0.999998)
(0.002 0 0.999998)
(0.002 -7.27917e-20 0.999998)
(0.002 0 0.999998)
(0.002 0 0.999998)
(0.002 0 0.999998)
(0.002 -7.27917e-20 0.999998)
(0.002 0 0.999998)
(0.002 0 0.999998)
(0.002 7.27917e-20 0.999998)
(0.002 0 0.999998)
(0.002 0 0.999998)
(0.002 0 0.999998)
(0.002 0 0.999998)
(0.002 -7.27917e-20 0.999998)
(0.002 7.27917e-20 0.999998)
(0.002 -7.27917e-20 0.999998)
(0.002 0 0.999998)
(0.002 -7.27917e-20 0.999998)
(0.002 -7.27917e-20 0.999998)
(0.002 7.27917e-20 0.999998)
(0.002 7.27917e-20 0.999998)
(0.002 -7.27917e-20 0.999998)
(0.002 -7.27917e-20 0.999998)
(0.002 -7.27917e-20 0.999998)
(0.002 0 0.999998)
(0.002 0 0.999998)
(0.002 0 0.999998)
(0.002 -7.27917e-20 0.999998)
(0.002 7.27917e-20 0.999998)
(0.002 -7.27917e-20 0.999998)
(0.002 7.27917e-20 0.999998)
(0.002 -7.27917e-20 0.999998)
(0.002 -7.27917e-20 0.999998)
(0.002 -7.27917e-20 0.999998)
(0.0020008 -7.27917e-20 0.999998)
(0.00200421 0 0.999998)
(0.00199017 0 0.999998)
(0.00187725 0 0.999998)
(0.00177921 0 0.999998)
(0.00177086 0 0.999998)
(0.00176342 7.27918e-20 0.999998)
(0.001763 0 0.999998)
(0.00176439 7.27918e-20 0.999998)
(0.00176656 7.27918e-20 0.999998)
(0.00176916 0 0.999998)
(0.00177199 7.27918e-20 0.999998)
(0.00177496 7.27918e-20 0.999998)
(0.00177804 7.27918e-20 0.999998)
(0.00178117 0 0.999998)
(0.00178435 0 0.999998)
(0.00178757 0 0.999998)
(0.00179081 7.27918e-20 0.999998)
(0.00179407 0 0.999998)
(0.00179731 0 0.999998)
(0.00180036 -7.27918e-20 0.999998)
(0.00180338 0 0.999998)
(0.0018067 -7.27918e-20 0.999998)
(0.00181013 0 0.999998)
(0.00181364 7.27918e-20 0.999998)
(0.00181738 -7.27918e-20 0.999998)
(0.00182109 0 0.999998)
(0.00182477 0 0.999998)
(0.0018286 0 0.999998)
(0.00183234 0 0.999998)
(0.00183588 0 0.999998)
(0.00183936 7.27918e-20 0.999998)
(0.00184309 -7.27918e-20 0.999998)
(0.00184692 0 0.999998)
(0.00185066 0 0.999998)
(0.00185435 -7.27918e-20 0.999998)
(0.001858 0 0.999998)
(0.00186167 0 0.999998)
(0.00186528 0 0.999998)
(0.00186885 7.27918e-20 0.999998)
(0.00187236 0 0.999998)
(0.00187587 0 0.999998)
(0.00187934 7.27918e-20 0.999998)
(0.00188274 7.27918e-20 0.999998)
(0.00188608 0 0.999998)
(0.00188942 0 0.999998)
(0.00189275 0 0.999998)
(0.00189604 0 0.999998)
(0.00189931 0 0.999998)
(0.00190254 7.27918e-20 0.999998)
(0.00190571 7.27918e-20 0.999998)
(0.00190892 -7.27918e-20 0.999998)
(0.00191215 -7.27918e-20 0.999998)
(0.00191531 0 0.999998)
(0.00191839 -7.27918e-20 0.999998)
(0.00192142 -7.27918e-20 0.999998)
(0.00192443 0 0.999998)
(0.0019274 0 0.999998)
(0.00193028 0 0.999998)
(0.00193308 7.27918e-20 0.999998)
(0.00193584 -7.27918e-20 0.999998)
(0.00193852 0 0.999998)
(0.00194113 0 0.999998)
(0.00194367 0 0.999998)
(0.00194611 -7.27918e-20 0.999998)
(0.00194846 0 0.999998)
(0.00195076 0 0.999998)
(0.00195297 0 0.999998)
(0.0019551 7.27918e-20 0.999998)
(0.00195716 0 0.999998)
(0.00195915 0 0.999998)
(0.00196101 7.27918e-20 0.999998)
(0.00196266 -7.27918e-20 0.999998)
(0.00196422 7.27918e-20 0.999998)
(0.00196573 0 0.999998)
(0.00196698 0 0.999998)
(0.00196811 0 0.999998)
(0.00196919 0 0.999998)
(0.00197018 -7.27918e-20 0.999998)
(0.00197148 0 0.999998)
(0.00197281 -7.27918e-20 0.999998)
(0.00197395 7.27918e-20 0.999998)
(0.00197503 0 0.999998)
(0.00197581 0 0.999998)
(0.00197628 0 0.999998)
(0.00197665 0 0.999998)
(0.00197716 -7.27918e-20 0.999998)
(0.00197774 -7.27918e-20 0.999998)
(0.00197818 0 0.999998)
(0.00197845 0 0.999998)
(0.00197874 0 0.999998)
(0.00197891 0 0.999998)
(0.00197906 0 0.999998)
(0.0019791 7.27918e-20 0.999998)
(0.00197904 0 0.999998)
(0.00197857 0 0.999998)
(0.00197735 0 0.999998)
(0.00197518 0 0.999998)
(0.00197271 0 0.999998)
(0.00197058 0 0.999998)
(0.00196896 7.27918e-20 0.999998)
(0.00196779 0 0.999998)
(0.00196695 0 0.999998)
(0.00196643 0 0.999998)
(0.00196618 0 0.999998)
(0.00196606 0 0.999998)
(0.00196601 0 0.999998)
(0.00196601 0 0.999998)
(0.00196603 0 0.999998)
(0.00196609 0 0.999998)
(0.00196614 0 0.999998)
(0.00196618 0 0.999998)
(0.00196632 0 0.999998)
(0.00196645 -7.27918e-20 0.999998)
(0.00196668 0 0.999998)
(0.00196684 0 0.999998)
(0.00196714 0 0.999998)
(0.00196737 0 0.999998)
(0.00196766 0 0.999998)
(0.00196794 0 0.999998)
(0.00196825 0 0.999998)
(0.00196854 -7.27918e-20 0.999998)
(0.00196893 0 0.999998)
(0.00196941 0 0.999998)
(0.00196993 0 0.999998)
(0.00197046 0 0.999998)
(0.00197099 0 0.999998)
(0.00197152 7.27918e-20 0.999998)
(0.00197212 0 0.999998)
(0.00197269 0 0.999998)
(0.00197324 0 0.999998)
(0.0019738 0 0.999998)
(0.00197439 0 0.999998)
(0.00197494 0 0.999998)
(0.00197555 -7.27917e-20 0.999998)
(0.00197618 0 0.999998)
(0.00197685 7.27918e-20 0.999998)
(0.00197749 0 0.999998)
(0.00197813 0 0.999998)
(0.00197872 0 0.999998)
(0.0019793 0 0.999998)
(0.00197986 0 0.999998)
(0.00198041 0 0.999998)
(0.00198103 0 0.999998)
(0.00198171 0 0.999998)
(0.00198251 0 0.999998)
(0.00198325 0 0.999998)
(0.00198413 -7.27918e-20 0.999998)
(0.00198495 0 0.999998)
(0.00198601 0 0.999998)
(0.00198704 0 0.999998)
(0.00198816 0 0.999998)
(0.0019892 0 0.999998)
(0.0019903 0 0.999998)
(0.00199133 0 0.999998)
(0.00199236 7.27918e-20 0.999998)
(0.00199329 0 0.999998)
(0.00199429 0 0.999998)
(0.00199526 0 0.999998)
(0.00199633 7.27917e-20 0.999998)
(0.0019974 0 0.999998)
(0.00199852 -7.27917e-20 0.999998)
(0.0019996 0 0.999998)
(0.00200072 0 0.999998)
(0.00200172 0 0.999998)
(0.00200245 0 0.999998)
(0.00200318 -7.27917e-20 0.999998)
(0.00200419 0 0.999998)
(0.00200508 0 0.999998)
(0.00200572 0 0.999998)
(0.00200592 0 0.999998)
(0.00200553 7.27917e-20 0.999998)
(0.00200541 7.27917e-20 0.999998)
(0.00200541 0 0.999998)
(0.00200395 7.27917e-20 0.999998)
(0.00200178 0 0.999998)
(0.00200061 0 0.999998)
(0.00200073 7.27917e-20 0.999998)
(0.00200171 -7.27917e-20 0.999998)
(0.00200279 0 0.999998)
(0.00200355 7.27917e-20 0.999998)
(0.00200383 0 0.999998)
(0.00200352 0 0.999998)
(0.00200233 0 0.999998)
(0.00200029 0 0.999998)
(0.0019986 0 0.999998)
(0.00199796 0 0.999998)
(0.00199789 0 0.999998)
(0.00199856 0 0.999998)
(0.0019996 0 0.999998)
(0.00200039 7.27917e-20 0.999998)
(0.00200128 -7.27917e-20 0.999998)
(0.00200222 0 0.999998)
(0.00200292 7.27917e-20 0.999998)
(0.00200344 0 0.999998)
(0.00200392 -7.27917e-20 0.999998)
(0.00200442 0 0.999998)
(0.00200489 0 0.999998)
(0.0020053 7.27917e-20 0.999998)
(0.00200567 0 0.999998)
(0.00200597 0 0.999998)
(0.00200619 0 0.999998)
(0.00200633 0 0.999998)
(0.00200643 0 0.999998)
(0.00200649 0 0.999998)
(0.00200643 0 0.999998)
(0.00200624 0 0.999998)
(0.00200585 0 0.999998)
(0.00200512 0 0.999998)
(0.00200401 -7.27917e-20 0.999998)
(0.00200266 7.27917e-20 0.999998)
(0.0020009 7.27917e-20 0.999998)
(0.00199848 0 0.999998)
(0.00199549 0 0.999998)
(0.00199225 0 0.999998)
(0.00199007 0 0.999998)
(0.00198942 -7.27917e-20 0.999998)
(0.00198863 0 0.999998)
(0.00198656 0 0.999998)
(0.00198323 0 0.999998)
(0.0019797 0 0.999998)
(0.00197729 -7.27918e-20 0.999998)
(0.0019753 -7.27917e-20 0.999998)
(0.00197329 0 0.999998)
(0.00197211 7.27918e-20 0.999998)
(0.00197166 7.27918e-20 0.999998)
(0.00197159 0 0.999998)
(0.00197127 0 0.999998)
(0.00197069 0 0.999998)
(0.00197038 0 0.999998)
(0.00196997 0 0.999998)
(0.00196943 -7.27918e-20 0.999998)
(0.00196888 -7.27918e-20 0.999998)
(0.00196837 0 0.999998)
(0.00196796 0 0.999998)
(0.00196761 0 0.999998)
(0.00196733 0 0.999998)
(0.00196704 0 0.999998)
(0.00196677 0 0.999998)
(0.00196659 0 0.999998)
(0.00196648 0 0.999998)
(0.00196647 0 0.999998)
(0.00196647 0 0.999998)
(0.00196655 0 0.999998)
(0.00196661 0 0.999998)
(0.00196678 -7.27918e-20 0.999998)
(0.00196699 0 0.999998)
(0.00196723 0 0.999998)
(0.00196747 0 0.999998)
(0.00196782 0 0.999998)
(0.00196817 0 0.999998)
(0.0019686 0 0.999998)
(0.00196905 0 0.999998)
(0.00196954 -7.27918e-20 0.999998)
(0.00197017 7.27918e-20 0.999998)
(0.00197075 0 0.999998)
(0.00197142 0 0.999998)
(0.00197202 0 0.999998)
(0.00197274 7.27918e-20 0.999998)
(0.00197339 -7.27918e-20 0.999998)
(0.00197416 0 0.999998)
(0.0019749 7.27918e-20 0.999998)
(0.00197572 -7.27918e-20 0.999998)
(0.00197639 -7.27918e-20 0.999998)
(0.0019771 -7.27918e-20 0.999998)
(0.00197772 -7.27918e-20 0.999998)
(0.00197831 -7.27917e-20 0.999998)
(0.00197877 0 0.999998)
(0.0019792 0 0.999998)
(0.00197957 0 0.999998)
(0.00197999 0 0.999998)
(0.00198036 0 0.999998)
(0.00198081 0 0.999998)
(0.00198118 -7.27918e-20 0.999998)
(0.00198154 -7.27918e-20 0.999998)
(0.00198186 0 0.999998)
(0.0019822 0 0.999998)
(0.00198265 0 0.999998)
(0.00198304 0 0.999998)
(0.00198338 0 0.999998)
(0.00198363 -7.27918e-20 0.999998)
(0.00198391 0 0.999998)
(0.0019842 7.27917e-20 0.999998)
(0.00198451 0 0.999998)
(0.00198482 -7.27918e-20 0.999998)
(0.00198517 0 0.999998)
(0.00198558 0 0.999998)
(0.00198602 0 0.999998)
(0.0019865 0 0.999998)
(0.00198703 0 0.999998)
(0.00198748 0 0.999998)
(0.00198799 0 0.999998)
(0.00198846 -7.27918e-20 0.999998)
(0.00198902 0 0.999998)
(0.00198947 -7.27918e-20 0.999998)
(0.00198994 0 0.999998)
(0.00199036 0 0.999998)
(0.00199069 0 0.999998)
(0.00199077 0 0.999998)
(0.00199084 -7.27917e-20 0.999998)
(0.00199071 0 0.999998)
(0.00199075 7.27918e-20 0.999998)
(0.00199105 0 0.999998)
(0.00199116 7.27918e-20 0.999998)
(0.00199105 0 0.999998)
(0.00199062 0 0.999998)
(0.00199025 0 0.999998)
(0.00199075 -7.27918e-20 0.999998)
(0.00199138 -7.27918e-20 0.999998)
(0.00199149 7.27918e-20 0.999998)
(0.00199125 0 0.999998)
(0.00199094 7.27918e-20 0.999998)
(0.0019905 0 0.999998)
(0.00199006 0 0.999998)
(0.00199045 0 0.999998)
(0.00199145 -7.27917e-20 0.999998)
(0.00199209 0 0.999998)
(0.00199227 0 0.999998)
(0.00199217 0 0.999998)
(0.00199194 7.27918e-20 0.999998)
(0.00199179 7.27918e-20 0.999998)
(0.00199159 0 0.999998)
(0.00199156 0 0.999998)
(0.0019918 -7.27918e-20 0.999998)
(0.00199201 0 0.999998)
(0.00199205 7.27918e-20 0.999998)
(0.00199185 0 0.999998)
(0.00199167 0 0.999998)
(0.00199205 0 0.999998)
(0.00199286 0 0.999998)
(0.00199354 0 0.999998)
(0.00199405 -7.27917e-20 0.999998)
(0.00199453 0 0.999998)
(0.00199495 -7.27917e-20 0.999998)
(0.00199532 0 0.999998)
(0.00199574 7.27917e-20 0.999998)
(0.00199618 0 0.999998)
(0.00199652 0 0.999998)
(0.00199674 0 0.999998)
(0.00199682 0 0.999998)
(0.00199674 -7.27917e-20 0.999998)
(0.00199652 0 0.999998)
(0.00199621 0 0.999998)
(0.00199595 0 0.999998)
(0.00199564 0 0.999998)
(0.0019951 7.27917e-20 0.999998)
(0.00199449 0 0.999998)
(0.00199405 0 0.999998)
(0.00199367 0 0.999998)
(0.0019934 0 0.999998)
(0.00199318 0 0.999998)
(0.00199286 0 0.999998)
(0.00199242 0 0.999998)
(0.00199134 0 0.999998)
(0.00198941 0 0.999998)
(0.0019877 7.27918e-20 0.999998)
(0.00198562 7.27918e-20 0.999998)
(0.00198326 0 0.999998)
(0.00198293 0 0.999998)
(0.00198387 -7.27917e-20 0.999998)
(0.00198457 0 0.999998)
(0.00198514 -7.27918e-20 0.999998)
(0.00198529 0 0.999998)
(0.00198523 7.27918e-20 0.999998)
(0.00198505 -7.27918e-20 0.999998)
(0.00198472 0 0.999998)
(0.00198418 -7.27918e-20 0.999998)
(0.00198353 0 0.999998)
(0.00198287 0 0.999998)
(0.00198223 0 0.999998)
(0.00198166 0 0.999998)
(0.00198112 0 0.999998)
(0.0019806 0 0.999998)
(0.00198013 0 0.999998)
(0.00197963 7.27918e-20 0.999998)
(0.00197917 0 0.999998)
(0.00197888 0 0.999998)
(0.00197874 7.27918e-20 0.999998)
(0.00197886 0 0.999998)
(0.00197916 0 0.999998)
(0.00197957 0 0.999998)
(0.00198005 0 0.999998)
(0.00198042 0 0.999998)
(0.00198069 7.27918e-20 0.999998)
(0.00198091 0 0.999998)
(0.00198115 -7.27918e-20 0.999998)
(0.00198133 -7.27918e-20 0.999998)
(0.00198155 0 0.999998)
(0.00198171 7.27918e-20 0.999998)
(0.00198187 7.27918e-20 0.999998)
(0.0019818 0 0.999998)
(0.0019816 0 0.999998)
(0.00198107 0 0.999998)
(0.00198026 0 0.999998)
(0.00197903 -7.27918e-20 0.999998)
(0.00197737 0 0.999998)
(0.00197517 7.27918e-20 0.999998)
(0.00197169 0 0.999998)
(0.00196731 -7.27917e-20 0.999998)
(0.00195994 0 0.999998)
(0.0019494 0 0.999998)
(0.00193278 -7.27918e-20 0.999998)
(0.00190889 0 0.999998)
(0.0018739 0 0.999998)
(0.0018242 0 0.999998)
(0.00175043 7.27918e-20 0.999998)
(0.00164744 -7.27918e-20 0.999999)
(0.00150378 0 0.999999)
(0.00128866 0 0.999999)
(0.00134015 0 0.999999)
(0.000811418 0 1)
(0.011008 2.9115e-19 0.999939)
(0.0119564 -5.82294e-19 0.999929)
(0.002 0 0.999998)
(0.002 0 0.999998)
(0.002 0 0.999998)
(0.002 0 0.999998)
(0.002 0 0.999998)
(0.002 -7.27917e-20 0.999998)
(0.002 0 0.999998)
(0.002 0 0.999998)
(0.002 0 0.999998)
(0.002 0 0.999998)
)
;

boundaryField
{
    inlet
    {
        type            calculated;
        value           uniform (0 0 0);
    }
    endWall
    {
        type            calculated;
        value           uniform (0 0 0);
    }
    sideWall
    {
        type            empty;
    }
}


// ************************************************************************* //
