/*--------------------------------*- C++ -*----------------------------------*\
| =========                 |                                                 |
| \\      /  F ield         | foam-extend: Open Source CFD                    |
|  \\    /   O peration     | Version:     3.2                                |
|   \\  /    A nd           | Web:         http://www.foam-extend.org         |
|    \\/     M anipulation  | For copyright notice see file Copyright         |
\*---------------------------------------------------------------------------*/
FoamFile
{
    version     2.0;
    format      ascii;
    class       areaVectorField;
    location    "120";
    object      Utau;
}
// * * * * * * * * * * * * * * * * * * * * * * * * * * * * * * * * * * * * * //

dimensions      [0 1 -1 0 0 0 0];

internalField   nonuniform List<vector> 
550
(
(0.0700386 0 -0.000140077)
(0.0822733 0 -0.000164547)
(0.0950274 -7.22271e-30 -0.000190055)
(0.108013 0 -0.000216025)
(0.120884 -3.49983e-23 -0.000241768)
(0.13329 0 -0.000266581)
(0.144937 -3.9274e-29 -0.000289875)
(0.155565 7.27392e-29 -0.00031113)
(0.165018 -4.5299e-23 -0.000330036)
(0.17318 -4.19197e-29 -0.00034636)
(0.180037 5.18321e-29 -0.000360074)
(0.185611 0 -0.000371221)
(0.189987 -4.87348e-23 -0.000379974)
(0.193263 6.49851e-29 -0.000386526)
(0.195563 0 -0.000391126)
(0.197006 -4.35977e-23 -0.000394012)
(0.197723 4.04114e-23 -0.000395446)
(0.197833 -3.73171e-23 -0.000395666)
(0.197453 -3.4633e-23 -0.000394906)
(0.196715 0 -0.000393429)
(0.195691 -2.98944e-23 -0.000391383)
(0.194446 2.79947e-23 -0.000388891)
(0.193031 0 -0.000386062)
(0.191495 -2.45132e-23 -0.00038299)
(0.18988 0 -0.00037976)
(0.188223 0 -0.000376446)
(0.186554 -1.92594e-23 -0.000373108)
(0.184905 0 -0.000369809)
(0.183297 0 -0.000366594)
(0.181733 0 -0.000363466)
(0.180217 -1.13042e-29 -0.000360434)
(0.178755 1.1416e-29 -0.00035751)
(0.177353 -1.14541e-29 -0.000354705)
(0.176012 -1.21129e-29 -0.000352025)
(0.174736 1.28488e-29 -0.000349472)
(0.173524 -1.3394e-29 -0.000347049)
(0.172377 0 -0.000344754)
(0.171293 0 -0.000342587)
(0.170272 -1.05857e-23 -0.000340543)
(0.16931 1.51299e-29 -0.00033862)
(0.168406 -1.61667e-29 -0.000336811)
(0.167557 0 -0.000335114)
(0.16676 0 -0.000333521)
(0.166013 0 -0.000332027)
(0.165313 -1.69062e-29 -0.000330626)
(0.164656 0 -0.000329312)
(0.16404 0 -0.00032808)
(0.163463 -1.86678e-29 -0.000326926)
(0.162922 1.88182e-29 -0.000325845)
(0.162416 -1.8957e-29 -0.000324832)
(0.161941 0 -0.000323883)
(0.161497 0 -0.000322993)
(0.16108 -1.89377e-29 -0.000322159)
(0.160688 1.86895e-29 -0.000321377)
(0.16032 -1.84069e-29 -0.000320641)
(0.159974 1.90586e-24 -0.000319947)
(0.159646 1.70637e-24 -0.000319292)
(0.159337 -1.56359e-24 -0.000318673)
(0.159043 0 -0.000318087)
(0.158765 0 -0.00031753)
(0.1585 1.25214e-24 -0.000317)
(0.158248 1.20594e-24 -0.000316495)
(0.158007 1.17322e-24 -0.000316013)
(0.157776 0 -0.000315552)
(0.157555 0 -0.00031511)
(0.157343 1.09322e-24 -0.000314686)
(0.157139 1.48104e-29 -0.000314279)
(0.156943 0 -0.000313886)
(0.156754 0 -0.000313508)
(0.156571 0 -0.000313141)
(0.156393 1.03409e-24 -0.000312786)
(0.15622 1.01882e-24 -0.000312441)
(0.156052 1.33693e-29 -0.000312104)
(0.155888 0 -0.000311776)
(0.155727 -1.27352e-29 -0.000311454)
(0.15557 9.10581e-25 -0.000311139)
(0.155415 1.25964e-29 -0.00031083)
(0.155263 0 -0.000310525)
(0.155113 7.68052e-25 -0.000310225)
(0.154965 -7.44296e-25 -0.00030993)
(0.15482 1.11227e-29 -0.00030964)
(0.154677 0 -0.000309354)
(0.154537 0 -0.000309073)
(0.154398 0 -0.000308796)
(0.154262 7.01832e-25 -0.000308524)
(0.154128 0 -0.000308255)
(0.153995 0 -0.00030799)
(0.153865 9.25042e-30 -0.000307729)
(0.153736 6.3716e-25 -0.000307471)
(0.153608 6.28841e-25 -0.000307216)
(0.153482 -8.47048e-30 -0.000306964)
(0.153357 0 -0.000306715)
(0.153233 6.79459e-25 -0.000306467)
(0.15311 -7.46614e-30 -0.00030622)
(0.152987 7.1548e-25 -0.000305974)
(0.152865 7.07672e-30 -0.00030573)
(0.152744 0 -0.000305487)
(0.152623 0 -0.000305246)
(0.152503 5.85875e-25 -0.000305005)
(0.152383 0 -0.000304766)
(0.152264 7.64626e-30 -0.000304528)
(0.152146 -4.73531e-25 -0.000304291)
(0.152027 0 -0.000304054)
(0.151909 0 -0.000303817)
(0.15179 0 -0.000303579)
(0.15167 0 -0.00030334)
(0.15155 5.05102e-25 -0.0003031)
(0.151429 -5.13714e-25 -0.000302858)
(0.151307 5.24313e-25 -0.000302614)
(0.151184 -7.0165e-30 -0.000302368)
(0.15106 5.48918e-25 -0.00030212)
(0.150934 5.64619e-25 -0.000301869)
(0.150807 -5.81414e-25 -0.000301615)
(0.150679 -5.95112e-25 -0.000301358)
(0.150549 6.21323e-25 -0.000301098)
(0.150418 6.48593e-25 -0.000300836)
(0.150285 6.605e-25 -0.00030057)
(0.15015 -7.11627e-30 -0.000300301)
(0.150014 6.98215e-30 -0.000300029)
(0.149877 -7.00157e-30 -0.000299754)
(0.149738 7.54274e-25 -0.000299476)
(0.149598 -7.77894e-25 -0.000299196)
(0.149457 8.02161e-25 -0.000298914)
(0.149314 -8.28096e-25 -0.000298629)
(0.149171 8.55717e-25 -0.000298341)
(0.149026 8.87257e-25 -0.000298051)
(0.148879 9.21266e-25 -0.000297759)
(0.148732 9.81783e-25 -0.000297584)
(0.148582 0 -0.000297791)
(0.148431 0 -0.000295404)
(0.14828 0 -0.000278359)
(0.148132 0 -0.000263558)
(0.147986 -4.68515e-30 -0.000262064)
(0.147841 -8.4223e-25 -0.000260707)
(0.147697 0 -0.000260391)
(0.147553 -9.5775e-25 -0.000260341)
(0.147409 -9.95057e-25 -0.000260406)
(0.147264 -6.57942e-30 -0.000260535)
(0.14712 -1.04865e-24 -0.000260696)
(0.146975 -1.06953e-24 -0.000260877)
(0.146831 -1.08824e-24 -0.000261071)
(0.146686 6.65541e-30 -0.000261274)
(0.146542 0 -0.000261483)
(0.146398 0 -0.000261697)
(0.146254 -1.14215e-24 -0.000261915)
(0.146111 0 -0.000262134)
(0.145968 6.59952e-30 -0.000262349)
(0.145826 1.16663e-24 -0.000262538)
(0.145684 -6.52674e-30 -0.000262723)
(0.145543 1.17725e-24 -0.000262953)
(0.145403 6.489e-30 -0.000263197)
(0.145263 -1.18403e-24 -0.000263456)
(0.145125 1.18593e-24 -0.000263747)
(0.144987 0 -0.000264035)
(0.14485 0 -0.000264319)
(0.144715 0 -0.000264626)
(0.14458 -6.28052e-30 -0.000264921)
(0.144447 0 -0.000265188)
(0.144315 -1.17001e-24 -0.000265448)
(0.144185 1.16429e-24 -0.000265746)
(0.144056 -6.06214e-30 -0.00026606)
(0.143929 0 -0.000266363)
(0.143803 1.14311e-24 -0.000266661)
(0.143679 0 -0.000266956)
(0.143557 0 -0.000267255)
(0.143436 5.75988e-30 -0.000267548)
(0.143317 -1.10873e-24 -0.00026784)
(0.143201 5.64519e-30 -0.000268124)
(0.143086 0 -0.000268411)
(0.142973 -1.07811e-24 -0.000268694)
(0.142862 -1.06742e-24 -0.000268972)
(0.142752 0 -0.000269242)
(0.142644 0 -0.000269516)
(0.142539 0 -0.00026979)
(0.142434 0 -0.000270061)
(0.142332 -5.23534e-30 -0.000270333)
(0.142231 -1.00389e-24 -0.000270599)
(0.142131 -9.92923e-25 -0.000270861)
(0.142033 9.82082e-25 -0.000271129)
(0.141936 9.71431e-25 -0.000271404)
(0.141841 0 -0.00027167)
(0.141747 9.49867e-25 -0.000271927)
(0.141655 9.39008e-25 -0.000272179)
(0.141564 4.91657e-30 -0.00027243)
(0.141474 0 -0.000272678)
(0.141386 -4.83588e-30 -0.000272914)
(0.141299 -8.94002e-25 -0.000273143)
(0.141213 8.82125e-25 -0.000273367)
(0.141129 4.71679e-30 -0.000273582)
(0.141046 0 -0.000273789)
(0.140965 4.63669e-30 -0.000273989)
(0.140885 8.29911e-25 -0.000274178)
(0.140806 -4.55386e-30 -0.000274356)
(0.140729 0 -0.000274529)
(0.140654 0 -0.000274694)
(0.14058 -7.65248e-25 -0.000274848)
(0.140508 0 -0.000274997)
(0.140438 4.31377e-30 -0.000275139)
(0.140369 -7.09744e-25 -0.000275266)
(0.140302 6.89801e-25 -0.000275366)
(0.140237 -6.69739e-25 -0.000275458)
(0.140174 -4.05073e-30 -0.000275545)
(0.140113 0 -0.0002756)
(0.140054 -3.87685e-30 -0.000275643)
(0.139997 0 -0.000275681)
(0.139942 5.72881e-25 -0.000275712)
(0.139889 3.62592e-30 -0.000275788)
(0.139838 5.39297e-25 -0.000275874)
(0.139788 -5.22581e-25 -0.000275936)
(0.139741 3.38762e-30 -0.000275993)
(0.139695 3.30455e-30 -0.000276012)
(0.139651 0 -0.00027599)
(0.139609 -3.14985e-30 -0.000275958)
(0.139569 4.46826e-25 -0.00027595)
(0.13953 4.34431e-25 -0.000275955)
(0.139493 -2.98991e-30 -0.000275942)
(0.139457 2.93953e-30 -0.00027591)
(0.139423 0 -0.000275883)
(0.13939 0 -0.00027584)
(0.139358 0 -0.0002758)
(0.139328 -3.62023e-25 -0.000275745)
(0.139299 -2.8413e-30 -0.000275679)
(0.139271 0 -0.000275558)
(0.139244 2.76806e-30 -0.000275335)
(0.139219 0 -0.000274982)
(0.139194 -2.64002e-30 -0.000274589)
(0.13917 2.53581e-30 -0.000274245)
(0.139146 -3.21256e-25 -0.000273973)
(0.139122 2.45885e-30 -0.000273763)
(0.139097 -2.45885e-30 -0.000273598)
(0.139072 0 -0.000273476)
(0.139046 0 -0.000273391)
(0.13902 0 -0.000273322)
(0.138993 0 -0.000273262)
(0.138965 0 -0.000273208)
(0.138937 -2.4415e-30 -0.000273154)
(0.138907 2.43083e-30 -0.000273105)
(0.138877 0 -0.000273052)
(0.138846 0 -0.000272997)
(0.138815 2.39653e-30 -0.000272955)
(0.138782 4.29534e-25 -0.000272909)
(0.138749 0 -0.000272876)
(0.138715 0 -0.000272832)
(0.138681 0 -0.000272804)
(0.138645 0 -0.000272767)
(0.138609 0 -0.000272736)
(0.138572 -2.34823e-30 -0.000272702)
(0.138535 0 -0.000272672)
(0.138497 4.75096e-25 -0.000272636)
(0.138458 0 -0.000272614)
(0.138419 -2.34686e-30 -0.000272603)
(0.138379 2.34702e-30 -0.000272598)
(0.138339 -2.34257e-30 -0.000272591)
(0.138298 0 -0.000272585)
(0.138257 -5.07325e-25 -0.000272576)
(0.138215 0 -0.000272577)
(0.138173 -2.33749e-30 -0.000272573)
(0.13813 0 -0.000272565)
(0.138087 0 -0.000272558)
(0.138044 -2.34267e-30 -0.000272553)
(0.138001 0 -0.000272544)
(0.137957 5.4111e-25 -0.000272542)
(0.137913 2.34828e-30 -0.000272542)
(0.137869 -5.49677e-25 -0.000272547)
(0.137824 0 -0.000272546)
(0.137779 0 -0.000272546)
(0.137735 0 -0.000272538)
(0.137689 0 -0.000272529)
(0.137644 0 -0.000272517)
(0.137599 0 -0.000272502)
(0.137553 0 -0.000272498)
(0.137507 0 -0.0002725)
(0.137461 0 -0.000272519)
(0.137415 2.382e-30 -0.000272529)
(0.137369 5.90895e-25 -0.000272558)
(0.137323 0 -0.00027258)
(0.137276 -2.41759e-30 -0.000272632)
(0.13723 0 -0.000272682)
(0.137183 2.44474e-30 -0.000272742)
(0.137136 0 -0.000272791)
(0.137089 -2.4643e-30 -0.000272849)
(0.137041 0 -0.000272895)
(0.136994 -6.12956e-25 -0.000272942)
(0.136946 0 -0.000272974)
(0.136898 0 -0.000273014)
(0.13685 0 -0.000273051)
(0.136802 -6.18819e-25 -0.000273102)
(0.136753 0 -0.000273151)
(0.136704 6.20401e-25 -0.000273206)
(0.136656 0 -0.000273256)
(0.136607 -2.45307e-30 -0.000273312)
(0.136558 0 -0.00027335)
(0.136509 0 -0.000273352)
(0.13646 6.17766e-25 -0.000273354)
(0.136411 0 -0.000273393)
(0.136362 0 -0.000273417)
(0.136313 -2.338e-30 -0.000273407)
(0.136265 0 -0.000273337)
(0.136217 -6.03503e-25 -0.000273187)
(0.136169 -5.99112e-25 -0.000273076)
(0.136122 -2.19781e-30 -0.00027298)
(0.136075 -5.858e-25 -0.000272689)
(0.136029 0 -0.000272301)
(0.135984 0 -0.000272052)
(0.135939 -5.63728e-25 -0.000271977)
(0.135895 5.59915e-25 -0.000272023)
(0.135852 0 -0.000272083)
(0.135809 -5.48452e-25 -0.0002721)
(0.135767 0 -0.000272055)
(0.135726 1.96659e-30 -0.00027193)
(0.135685 0 -0.000271687)
(0.135646 0 -0.000271331)
(0.135607 0 -0.000271026)
(0.13557 1.82407e-30 -0.000270863)
(0.135533 -1.83577e-30 -0.000270779)
(0.135497 0 -0.000270798)
(0.135461 0 -0.000270869)
(0.135427 -4.62255e-25 -0.000270907)
(0.135393 4.55468e-25 -0.00027096)
(0.13536 0 -0.00027102)
(0.135327 -4.41124e-25 -0.00027105)
(0.135295 0 -0.000271056)
(0.135264 4.26182e-25 -0.000271058)
(0.135233 0 -0.000271065)
(0.135203 0 -0.000271068)
(0.135174 -4.07766e-25 -0.000271064)
(0.135145 0 -0.000271056)
(0.135117 0 -0.000271042)
(0.135089 0 -0.000271016)
(0.135062 0 -0.00027098)
(0.135036 0 -0.000270941)
(0.13501 0 -0.000270896)
(0.134984 0 -0.000270837)
(0.13496 1.3011e-30 -0.000270761)
(0.134936 0 -0.00027066)
(0.134912 1.23843e-30 -0.000270515)
(0.134889 3.61199e-25 -0.00027032)
(0.134867 -3.55739e-25 -0.000270093)
(0.134845 -3.50028e-25 -0.000269812)
(0.134824 0 -0.000269445)
(0.134803 0 -0.000269)
(0.134783 0 -0.000268522)
(0.134764 1.08294e-30 -0.00026819)
(0.134744 3.25472e-25 -0.000268063)
(0.134725 0 -0.000267919)
(0.134706 0 -0.000267601)
(0.134687 0 -0.000267115)
(0.134668 0 -0.000266603)
(0.134649 3.01444e-25 -0.000266241)
(0.134631 2.99718e-25 -0.000265936)
(0.134612 0 -0.000265628)
(0.134593 -2.97847e-25 -0.000265433)
(0.134574 -2.99792e-25 -0.000265335)
(0.134555 0 -0.000265288)
(0.134536 0 -0.000265206)
(0.134516 0 -0.00026509)
(0.134496 9.73195e-31 -0.000265008)
(0.134475 0 -0.000264912)
(0.134454 3.20604e-25 -0.000264798)
(0.134432 3.27125e-25 -0.000264681)
(0.13441 0 -0.000264569)
(0.134387 9.51564e-31 -0.000264469)
(0.134363 0 -0.000264375)
(0.134339 0 -0.000264289)
(0.134314 1.00417e-30 -0.000264202)
(0.134288 0 -0.000264114)
(0.134261 0 -0.000264037)
(0.134233 0 -0.000263968)
(0.134204 0 -0.000263909)
(0.134174 0 -0.000263849)
(0.134143 0 -0.000263798)
(0.13411 0 -0.000263742)
(0.134076 4.7018e-25 -0.000263698)
(0.13404 0 -0.000263657)
(0.134004 0 -0.000263617)
(0.133966 0 -0.000263574)
(0.133926 0 -0.000263544)
(0.133886 0 -0.00026351)
(0.133844 0 -0.000263485)
(0.133801 0 -0.000263462)
(0.133757 5.65116e-25 -0.00026344)
(0.133712 -5.75681e-25 -0.000263435)
(0.133665 0 -0.000263422)
(0.133618 1.76099e-30 -0.000263418)
(0.133569 -1.79e-30 -0.000263402)
(0.13352 -6.12336e-25 -0.000263401)
(0.133469 6.19425e-25 -0.000263388)
(0.133418 0 -0.000263389)
(0.133366 -6.32093e-25 -0.000263385)
(0.133313 6.37791e-25 -0.000263389)
(0.133259 6.42671e-25 -0.000263373)
(0.133205 6.47588e-25 -0.000263361)
(0.133151 6.52145e-25 -0.000263336)
(0.133096 6.56661e-25 -0.000263305)
(0.133041 -1.90935e-30 -0.000263258)
(0.132985 0 -0.000263205)
(0.132929 0 -0.000263144)
(0.132873 0 -0.000263087)
(0.132816 0 -0.000263025)
(0.13276 0 -0.000262972)
(0.132703 6.86367e-25 -0.000262908)
(0.132645 6.91575e-25 -0.000262842)
(0.132588 1.86985e-30 -0.000262772)
(0.132531 -1.88095e-30 -0.000262703)
(0.132473 0 -0.000262648)
(0.132415 -1.91133e-30 -0.000262585)
(0.132357 0 -0.000262515)
(0.132299 7.25578e-25 -0.000262433)
(0.132241 -1.955e-30 -0.000262354)
(0.132182 -7.34587e-25 -0.000262277)
(0.132123 2.00661e-30 -0.000262201)
(0.132064 7.42633e-25 -0.000262124)
(0.132005 0 -0.000262053)
(0.131946 0 -0.00026199)
(0.131886 0 -0.00026193)
(0.131827 0 -0.000261874)
(0.131767 0 -0.000261825)
(0.131707 2.16894e-30 -0.000261766)
(0.131647 -2.17696e-30 -0.000261713)
(0.131587 7.67141e-25 -0.000261656)
(0.131527 0 -0.00026161)
(0.131467 7.7001e-25 -0.00026155)
(0.131407 0 -0.000261492)
(0.131347 0 -0.000261429)
(0.131287 -2.19146e-30 -0.000261353)
(0.131228 0 -0.000261245)
(0.131168 7.74743e-25 -0.000261136)
(0.131109 0 -0.000261001)
(0.13105 -7.76643e-25 -0.000260889)
(0.130991 0 -0.00026081)
(0.130933 -7.79269e-25 -0.000260708)
(0.130874 -2.24162e-30 -0.000260578)
(0.130816 0 -0.000260405)
(0.130757 0 -0.00026024)
(0.130699 7.77154e-25 -0.00026019)
(0.130641 7.76925e-25 -0.000260158)
(0.130584 -7.74067e-25 -0.000260056)
(0.130526 0 -0.000259911)
(0.130469 -7.64945e-25 -0.000259757)
(0.130412 0 -0.000259586)
(0.130355 0 -0.000259415)
(0.130298 0 -0.000259353)
(0.130242 7.46615e-25 -0.000259371)
(0.130186 2.39022e-30 -0.000259343)
(0.13013 0 -0.000259255)
(0.130075 2.30696e-30 -0.000259132)
(0.13002 -7.20941e-25 -0.000258992)
(0.129965 -7.13197e-25 -0.000258863)
(0.129911 0 -0.00025873)
(0.129857 2.17567e-30 -0.000258619)
(0.129804 6.92692e-25 -0.000258544)
(0.129751 -2.11821e-30 -0.000258466)
(0.129699 -6.80838e-25 -0.000258367)
(0.129647 2.04491e-30 -0.000258238)
(0.129595 -2.02329e-30 -0.000258112)
(0.129544 2.03401e-30 -0.000258059)
(0.129494 2.03918e-30 -0.000258064)
(0.129444 0 -0.000258052)
(0.129395 6.50303e-25 -0.00025802)
(0.129346 0 -0.000257985)
(0.129297 6.41557e-25 -0.000257942)
(0.12925 -1.87171e-30 -0.000257894)
(0.129202 -6.35279e-25 -0.000257855)
(0.129156 0 -0.000257819)
(0.129109 0 -0.00025777)
(0.129064 0 -0.000257707)
(0.129018 0 -0.000257626)
(0.128974 6.21201e-25 -0.000257527)
(0.128929 0 -0.00025741)
(0.128886 0 -0.000257284)
(0.128843 0 -0.000257165)
(0.128801 0 -0.000257042)
(0.12876 -6.04308e-25 -0.00025689)
(0.128719 -1.50239e-30 -0.00025673)
(0.128679 1.48798e-30 -0.000256593)
(0.128639 0 -0.000256465)
(0.1286 0 -0.000256352)
(0.128561 0 -0.000256246)
(0.128522 0 -0.000256128)
(0.128484 0 -0.000255995)
(0.128446 0 -0.00025578)
(0.128408 0 -0.000255457)
(0.128371 -5.90128e-25 -0.000255164)
(0.128334 -5.82897e-25 -0.000254824)
(0.128298 0 -0.000254449)
(0.128262 0 -0.000254335)
(0.128227 5.70566e-25 -0.000254386)
(0.128192 -1.67146e-30 -0.000254407)
(0.128157 5.62427e-25 -0.000254411)
(0.128123 -1.62482e-30 -0.000254361)
(0.128089 -5.51528e-25 -0.000254286)
(0.128055 5.45197e-25 -0.000254196)
(0.128022 0 -0.000254088)
(0.127988 5.35294e-25 -0.000253952)
(0.127956 0 -0.000253804)
(0.127923 0 -0.000253656)
(0.127891 0 -0.000253509)
(0.127859 0 -0.000253373)
(0.127827 -1.26553e-30 -0.00025324)
(0.127795 0 -0.00025311)
(0.127762 0 -0.000252986)
(0.127729 -5.41096e-25 -0.000252857)
(0.127695 0 -0.000252732)
(0.127661 1.38549e-30 -0.000252626)
(0.127626 -5.62201e-25 -0.000252538)
(0.12759 0 -0.000252483)
(0.127553 -1.48616e-30 -0.000252448)
(0.127515 0 -0.000252425)
(0.127476 0 -0.00025241)
(0.127437 0 -0.00025238)
(0.127397 -5.80763e-25 -0.000252335)
(0.127357 -1.62954e-30 -0.000252283)
(0.127315 5.84548e-25 -0.000252232)
(0.127274 5.81906e-25 -0.000252171)
(0.127231 0 -0.000252116)
(0.127189 -5.90572e-25 -0.000252052)
(0.127145 -6.03091e-25 -0.000251985)
(0.127101 1.38608e-30 -0.00025189)
(0.127057 0 -0.000251776)
(0.127012 0 -0.000251619)
(0.126966 0 -0.000251426)
(0.12692 6.80707e-25 -0.000251178)
(0.126872 0 -0.000250874)
(0.126824 -7.4966e-25 -0.000250499)
(0.126774 -1.1535e-30 -0.000249959)
(0.126722 8.71839e-25 -0.000249301)
(0.126666 0 -0.000248258)
(0.126608 -9.07972e-31 -0.000246809)
(0.126542 1.33169e-24 -0.000244578)
(0.126471 0 -0.000241421)
(0.126387 0 -0.000236836)
(0.126293 0 -0.000230384)
(0.12617 -3.41798e-24 -0.000220853)
(0.126028 4.28049e-24 -0.000207625)
(0.12583 -1.8862e-29 -0.000189222)
(0.125596 -6.91235e-30 -0.00016185)
(0.125239 0 -0.000167839)
(0.124843 0 -0.0001013)
(0.12397 -2.29689e-22 -0.00136474)
(0.122508 5.02392e-22 -0.00146487)
(0.120604 4.8592e-28 -0.000241208)
(0.118133 0 -0.000236266)
(0.114406 0 -0.000228811)
(0.109195 0 -0.00021839)
(0.101658 0 -0.000203316)
(0.0906424 5.20263e-22 -0.000181285)
(0.0705124 0 -0.000141025)
(0.0179259 0 -3.58517e-05)
(-0.0564059 0 0.000112812)
(-0.0729934 0 0.000145987)
)
;

boundaryField
{
    inlet
    {
        type            calculated;
        value           uniform (0 0 0);
    }
    endWall
    {
        type            calculated;
        value           uniform (0 0 0);
    }
    sideWall
    {
        type            empty;
    }
}


// ************************************************************************* //
