/*--------------------------------*- C++ -*----------------------------------*\
| =========                 |                                                 |
| \\      /  F ield         | foam-extend: Open Source CFD                    |
|  \\    /   O peration     | Version:     3.2                                |
|   \\  /    A nd           | Web:         http://www.foam-extend.org         |
|    \\/     M anipulation  | For copyright notice see file Copyright         |
\*---------------------------------------------------------------------------*/
FoamFile
{
    version     2.0;
    format      ascii;
    class       areaScalarField;
    location    "120";
    object      zDimA;
}
// * * * * * * * * * * * * * * * * * * * * * * * * * * * * * * * * * * * * * //

dimensions      [0 1 0 0 0 0 0];

internalField   nonuniform List<scalar> 
550
(
0.00503636
0.00503636
0.00503636
0.00503636
0.00503636
0.00503636
0.00503636
0.00503636
0.00503636
0.00503636
0.00503636
0.00503636
0.00503636
0.00503636
0.00503636
0.00503636
0.00503636
0.00503636
0.00503636
0.00503636
0.00503636
0.00503636
0.00503636
0.00503636
0.00503636
0.00503636
0.00503636
0.00503636
0.00503636
0.00503636
0.00503636
0.00503636
0.00503636
0.00503636
0.00503636
0.00503636
0.00503636
0.00503636
0.00503636
0.00503636
0.00503636
0.00503636
0.00503636
0.00503636
0.00503636
0.00503636
0.00503636
0.00503636
0.00503636
0.00503636
0.00503636
0.00503636
0.00503636
0.00503636
0.00503636
0.00503636
0.00503636
0.00503636
0.00503636
0.00503636
0.00503636
0.00503636
0.00503636
0.00503636
0.00503636
0.00503636
0.00503636
0.00503636
0.00503636
0.00503636
0.00503636
0.00503636
0.00503636
0.00503636
0.00503636
0.00503636
0.00503636
0.00503636
0.00503636
0.00503636
0.00503636
0.00503636
0.00503636
0.00503636
0.00503636
0.00503636
0.00503636
0.00503636
0.00503636
0.00503636
0.00503636
0.00503636
0.00503636
0.00503636
0.00503636
0.00503636
0.00503636
0.00503636
0.00503636
0.00503636
0.00503636
0.00503636
0.00503636
0.00503636
0.00503636
0.00503636
0.00503636
0.00503636
0.00503636
0.00503636
0.00503636
0.00503636
0.00503636
0.00503636
0.00503636
0.00503636
0.00503636
0.00503636
0.00503636
0.00503636
0.00503636
0.00503636
0.00503636
0.00503636
0.00503636
0.00503636
0.00503636
0.00503636
0.00503636
0.00503636
0.00503636
0.00503636
0.00503636
0.00503636
0.00503636
0.00503636
0.00503636
0.00503636
0.00503636
0.00503636
0.00503636
0.00503636
0.00503636
0.00503636
0.00503636
0.00503636
0.00503636
0.00503636
0.00503636
0.00503636
0.00503636
0.00503636
0.00503636
0.00503636
0.00503636
0.00503636
0.00503636
0.00503636
0.00503636
0.00503636
0.00503636
0.00503636
0.00503636
0.00503636
0.00503636
0.00503636
0.00503636
0.00503636
0.00503636
0.00503636
0.00503636
0.00503636
0.00503636
0.00503636
0.00503636
0.00503636
0.00503636
0.00503636
0.00503636
0.00503636
0.00503636
0.00503636
0.00503636
0.00503636
0.00503636
0.00503636
0.00503636
0.00503636
0.00503636
0.00503636
0.00503636
0.00503636
0.00503636
0.00503636
0.00503636
0.00503636
0.00503636
0.00503636
0.00503636
0.00503636
0.00503636
0.00503636
0.00503636
0.00503636
0.00503636
0.00503636
0.00503636
0.00503636
0.00503636
0.00503636
0.00503636
0.00503636
0.00503636
0.00503636
0.00503636
0.00503636
0.00503636
0.00503636
0.00503636
0.00503636
0.00503636
0.00503636
0.00503636
0.00503636
0.00503636
0.00503636
0.00503636
0.00503636
0.00503636
0.00503636
0.00503636
0.00503636
0.00503636
0.00503636
0.00503636
0.00503637
0.00503636
0.00503635
0.00503627
0.00503614
0.00503601
0.00503587
0.00503574
0.00503558
0.00503553
0.00503558
0.00503558
0.00503556
0.00503555
0.00503555
0.00503555
0.00503555
0.00503554
0.00503554
0.00503553
0.00503553
0.00503553
0.00503552
0.00503552
0.00503552
0.00503552
0.00503552
0.00503551
0.00503551
0.00503551
0.00503552
0.00503552
0.00503552
0.00503552
0.00503553
0.00503553
0.00503553
0.00503554
0.00503554
0.00503555
0.00503555
0.00503556
0.00503557
0.00503558
0.00503558
0.00503559
0.0050356
0.00503561
0.00503562
0.00503563
0.00503564
0.00503566
0.00503567
0.00503568
0.00503569
0.0050357
0.00503572
0.00503573
0.00503575
0.00503577
0.00503578
0.0050358
0.00503582
0.00503584
0.00503586
0.00503589
0.00503591
0.00503593
0.00503595
0.00503597
0.00503598
0.005036
0.00503602
0.00503604
0.00503606
0.00503608
0.00503609
0.00503611
0.00503613
0.00503614
0.00503616
0.00503617
0.00503619
0.0050362
0.00503622
0.00503623
0.00503624
0.00503625
0.00503626
0.00503627
0.00503628
0.00503629
0.00503629
0.0050363
0.0050363
0.00503631
0.00503631
0.00503631
0.00503631
0.00503631
0.00503631
0.0050363
0.0050363
0.00503629
0.00503629
0.00503628
0.00503627
0.00503626
0.00503624
0.00503623
0.00503622
0.0050362
0.00503619
0.00503617
0.00503616
0.00503614
0.00503612
0.0050361
0.00503609
0.00503607
0.00503605
0.00503603
0.00503601
0.00503599
0.00503597
0.00503596
0.00503594
0.00503592
0.0050359
0.00503588
0.00503587
0.00503585
0.00503583
0.00503581
0.0050358
0.00503578
0.00503577
0.00503575
0.00503574
0.00503572
0.00503571
0.0050357
0.00503569
0.00503567
0.00503566
0.00503565
0.00503564
0.00503564
0.00503563
0.00503562
0.00503561
0.00503561
0.0050356
0.00503559
0.00503559
0.00503558
0.00503558
0.00503558
0.00503557
0.00503557
0.00503557
0.00503557
0.00503556
0.00503556
0.00503556
0.00503556
0.00503556
0.00503556
0.00503556
0.00503557
0.00503557
0.00503557
0.00503557
0.00503558
0.00503558
0.00503558
0.00503559
0.00503559
0.0050356
0.0050356
0.00503561
0.00503561
0.00503562
0.00503563
0.00503563
0.00503564
0.00503565
0.00503566
0.00503566
0.00503567
0.00503568
0.00503569
0.0050357
0.00503571
0.00503572
0.00503573
0.00503574
0.00503575
0.00503576
0.00503577
0.00503578
0.0050358
0.00503581
0.00503583
0.00503584
0.00503586
0.00503587
0.00503589
0.00503591
0.00503592
0.00503594
0.00503595
0.00503597
0.00503598
0.00503599
0.00503601
0.00503602
0.00503603
0.00503605
0.00503606
0.00503607
0.00503608
0.0050361
0.00503611
0.00503612
0.00503613
0.00503614
0.00503615
0.00503616
0.00503617
0.00503618
0.00503619
0.0050362
0.0050362
0.00503621
0.00503622
0.00503622
0.00503623
0.00503623
0.00503624
0.00503624
0.00503624
0.00503624
0.00503625
0.00503625
0.00503625
0.00503625
0.00503624
0.00503624
0.00503624
0.00503624
0.00503623
0.00503623
0.00503622
0.00503622
0.00503621
0.00503621
0.0050362
0.00503619
0.00503618
0.00503618
0.00503617
0.00503616
0.00503615
0.00503614
0.00503613
0.00503613
0.00503612
0.00503611
0.0050361
0.00503609
0.00503608
0.00503607
0.00503607
0.00503606
0.00503605
0.00503604
0.00503603
0.00503603
0.00503602
0.00503601
0.005036
0.00503599
0.00503597
0.00503596
0.00503594
0.00503591
0.00503587
0.00503582
0.00503574
0.00503565
0.0050355
0.00503528
0.00503496
0.0050345
0.00503382
0.00503288
0.0050315
0.0050296
0.00502685
0.00502295
0.00502093
0.00500863
0.00513009
0.00515876
0.0050448
0.00503626
0.00503641
0.00503638
0.00503637
0.00503637
0.00503637
0.00503636
0.00503636
0.00503636
)
;

boundaryField
{
    inlet
    {
        type            calculated;
        value           uniform 0;
    }
    endWall
    {
        type            calculated;
        value           uniform 0;
    }
    sideWall
    {
        type            empty;
    }
}


// ************************************************************************* //
