/*--------------------------------*- C++ -*----------------------------------*\
| =========                 |                                                 |
| \\      /  F ield         | foam-extend: Open Source CFD                    |
|  \\    /   O peration     | Version:     3.2                                |
|   \\  /    A nd           | Web:         http://www.foam-extend.org         |
|    \\/     M anipulation  | For copyright notice see file Copyright         |
\*---------------------------------------------------------------------------*/
FoamFile
{
    version     2.0;
    format      ascii;
    class       areaScalarField;
    location    "120";
    object      a;
}
// * * * * * * * * * * * * * * * * * * * * * * * * * * * * * * * * * * * * * //

dimensions      [1 -1 0 0 0 0 0];

internalField   nonuniform List<scalar> 
550
(
2.78678e-05
2.78678e-05
2.78678e-05
2.78678e-05
2.78678e-05
2.78678e-05
2.78678e-05
2.78678e-05
2.78678e-05
2.78678e-05
2.78678e-05
2.78678e-05
2.78678e-05
2.78678e-05
2.78678e-05
2.78678e-05
2.78678e-05
2.78678e-05
2.78678e-05
2.78678e-05
2.78678e-05
2.78678e-05
2.78678e-05
2.78678e-05
2.78678e-05
2.78678e-05
2.78678e-05
2.78678e-05
2.78678e-05
2.78678e-05
2.78678e-05
2.78678e-05
2.78678e-05
2.78678e-05
2.78678e-05
2.78678e-05
2.78678e-05
2.78678e-05
2.78678e-05
2.78678e-05
2.78678e-05
2.78678e-05
2.78678e-05
2.78678e-05
2.78678e-05
2.78678e-05
2.78678e-05
2.78678e-05
2.78678e-05
2.78678e-05
2.78678e-05
2.78678e-05
2.78678e-05
2.78678e-05
2.78678e-05
2.78678e-05
2.78678e-05
2.78678e-05
2.78678e-05
2.78678e-05
2.78678e-05
2.78678e-05
2.78678e-05
2.78678e-05
2.78678e-05
2.78678e-05
2.78678e-05
2.78678e-05
2.78678e-05
2.78678e-05
2.78678e-05
2.78678e-05
2.78678e-05
2.78678e-05
2.78678e-05
2.78678e-05
2.78678e-05
2.78678e-05
2.78678e-05
2.78678e-05
2.78678e-05
2.78678e-05
2.78678e-05
2.78678e-05
2.78678e-05
2.78678e-05
2.78678e-05
2.78678e-05
2.78678e-05
2.78678e-05
2.78678e-05
2.78678e-05
2.78678e-05
2.78678e-05
2.78678e-05
2.78678e-05
2.78678e-05
2.78678e-05
2.78678e-05
2.78678e-05
2.78678e-05
2.78678e-05
2.78678e-05
2.78678e-05
2.78678e-05
2.78678e-05
2.78678e-05
2.78678e-05
2.78678e-05
2.78678e-05
2.78678e-05
2.78678e-05
2.78678e-05
2.78678e-05
2.78678e-05
2.78678e-05
2.78678e-05
2.78678e-05
2.78678e-05
2.78678e-05
2.78678e-05
2.78678e-05
2.78678e-05
2.78678e-05
2.78678e-05
2.78678e-05
2.78678e-05
2.78678e-05
2.78678e-05
2.78464e-05
2.78678e-05
2.78678e-05
2.78678e-05
2.78678e-05
2.78678e-05
2.78678e-05
2.78678e-05
2.78678e-05
2.78678e-05
2.78678e-05
2.78678e-05
2.78678e-05
2.78678e-05
2.78678e-05
2.78678e-05
2.78678e-05
2.78678e-05
2.78678e-05
2.78678e-05
2.78678e-05
2.78678e-05
2.78678e-05
2.78678e-05
2.78678e-05
2.78678e-05
2.78678e-05
2.78678e-05
2.78678e-05
2.78678e-05
2.78678e-05
2.78678e-05
2.78662e-05
2.78642e-05
2.78623e-05
2.78603e-05
2.78582e-05
2.7856e-05
2.78539e-05
2.78517e-05
2.78494e-05
2.78472e-05
2.7845e-05
2.78428e-05
2.78407e-05
2.78386e-05
2.78366e-05
2.78348e-05
2.78331e-05
2.78315e-05
2.78301e-05
2.78289e-05
2.78278e-05
2.7827e-05
2.78264e-05
2.7826e-05
2.78258e-05
2.78257e-05
2.78259e-05
2.78262e-05
2.78266e-05
2.78271e-05
2.78277e-05
2.78284e-05
2.78291e-05
2.78297e-05
2.78303e-05
2.78308e-05
2.78312e-05
2.78314e-05
2.78314e-05
2.78312e-05
2.78308e-05
2.78301e-05
2.78291e-05
2.78278e-05
2.78262e-05
2.78243e-05
2.78221e-05
2.78195e-05
2.78167e-05
2.78136e-05
2.78102e-05
2.78065e-05
2.78024e-05
2.7798e-05
2.77934e-05
2.77883e-05
2.7783e-05
2.77774e-05
2.77714e-05
2.77652e-05
2.77586e-05
2.77518e-05
2.77447e-05
2.77372e-05
2.77293e-05
2.7721e-05
2.77124e-05
2.77037e-05
2.76949e-05
2.76863e-05
2.76777e-05
2.76692e-05
2.7661e-05
2.76529e-05
2.76451e-05
2.76375e-05
2.76301e-05
2.7623e-05
2.76162e-05
2.76097e-05
2.76034e-05
2.75975e-05
2.75919e-05
2.75866e-05
2.75816e-05
2.75769e-05
2.75725e-05
2.75684e-05
2.75646e-05
2.75611e-05
2.75579e-05
2.7555e-05
2.75524e-05
2.75501e-05
2.75481e-05
2.75464e-05
2.7545e-05
2.75439e-05
2.7543e-05
2.75424e-05
2.75421e-05
2.75421e-05
2.75423e-05
2.75427e-05
2.75434e-05
2.75443e-05
2.75455e-05
2.75469e-05
2.75485e-05
2.75503e-05
2.75523e-05
2.75545e-05
2.75569e-05
2.75595e-05
2.75624e-05
2.75655e-05
2.75689e-05
2.75726e-05
2.75765e-05
2.75809e-05
2.75855e-05
2.75905e-05
2.75958e-05
2.76015e-05
2.76075e-05
2.76138e-05
2.76205e-05
2.76275e-05
2.76348e-05
2.76425e-05
2.76505e-05
2.76588e-05
2.76675e-05
2.76764e-05
2.76856e-05
2.76949e-05
2.77045e-05
2.77142e-05
2.77239e-05
2.77337e-05
2.77435e-05
2.77532e-05
2.77628e-05
2.77723e-05
2.77816e-05
2.77908e-05
2.77999e-05
2.78087e-05
2.78172e-05
2.78254e-05
2.78332e-05
2.78405e-05
2.78474e-05
2.78537e-05
2.78596e-05
2.78651e-05
2.78678e-05
2.78678e-05
2.78678e-05
2.78678e-05
2.78678e-05
2.78678e-05
2.78678e-05
2.78678e-05
2.78678e-05
2.78678e-05
2.78678e-05
2.78678e-05
2.78678e-05
2.78678e-05
2.78678e-05
2.78678e-05
2.78678e-05
2.78678e-05
2.78678e-05
2.78678e-05
2.78678e-05
2.78678e-05
2.78678e-05
2.78635e-05
2.78574e-05
2.78507e-05
2.78435e-05
2.78357e-05
2.78274e-05
2.78187e-05
2.78094e-05
2.77998e-05
2.77896e-05
2.77791e-05
2.77683e-05
2.77571e-05
2.77457e-05
2.77341e-05
2.77223e-05
2.77105e-05
2.76985e-05
2.76865e-05
2.76745e-05
2.76625e-05
2.76505e-05
2.76386e-05
2.76267e-05
2.7615e-05
2.76034e-05
2.7592e-05
2.75808e-05
2.757e-05
2.75595e-05
2.75494e-05
2.75398e-05
2.75306e-05
2.75219e-05
2.75137e-05
2.7506e-05
2.74989e-05
2.74922e-05
2.74861e-05
2.74804e-05
2.74753e-05
2.74707e-05
2.74666e-05
2.74631e-05
2.74602e-05
2.74578e-05
2.7456e-05
2.74547e-05
2.74539e-05
2.74535e-05
2.74537e-05
2.74542e-05
2.74551e-05
2.74564e-05
2.74581e-05
2.74601e-05
2.74624e-05
2.7465e-05
2.74678e-05
2.74709e-05
2.74742e-05
2.74778e-05
2.74815e-05
2.74854e-05
2.74894e-05
2.74936e-05
2.74981e-05
2.75027e-05
2.75075e-05
2.75125e-05
2.75176e-05
2.7523e-05
2.75285e-05
2.75341e-05
2.754e-05
2.7546e-05
2.75521e-05
2.75585e-05
2.75649e-05
2.75716e-05
2.75783e-05
2.75852e-05
2.75923e-05
2.75994e-05
2.76066e-05
2.76139e-05
2.76213e-05
2.76287e-05
2.76362e-05
2.76437e-05
2.76513e-05
2.76589e-05
2.76665e-05
2.76742e-05
2.76818e-05
2.76894e-05
2.7697e-05
2.77046e-05
2.77121e-05
2.77195e-05
2.77269e-05
2.77342e-05
2.77414e-05
2.77485e-05
2.77555e-05
2.77624e-05
2.7769e-05
2.77754e-05
2.77815e-05
2.77873e-05
2.77927e-05
2.77977e-05
2.78023e-05
2.78067e-05
2.78106e-05
2.78142e-05
2.78174e-05
2.78203e-05
2.78228e-05
2.7825e-05
2.78269e-05
2.78284e-05
2.78297e-05
2.78308e-05
2.78316e-05
2.78322e-05
2.78326e-05
2.78327e-05
2.78325e-05
2.78318e-05
2.78308e-05
2.78293e-05
2.78273e-05
2.78249e-05
2.7822e-05
2.78186e-05
2.78148e-05
2.78106e-05
2.7806e-05
2.78011e-05
2.77958e-05
2.77902e-05
2.77842e-05
2.77778e-05
2.7771e-05
2.77639e-05
2.77564e-05
2.77487e-05
2.77407e-05
2.77325e-05
2.77241e-05
2.77155e-05
2.77067e-05
2.76976e-05
2.76883e-05
2.76786e-05
2.76685e-05
2.76581e-05
2.76475e-05
2.76366e-05
2.76256e-05
2.76145e-05
2.76034e-05
2.75923e-05
2.75812e-05
2.75703e-05
2.75596e-05
2.75491e-05
2.7539e-05
2.75291e-05
2.75195e-05
2.75102e-05
2.75012e-05
2.74925e-05
2.74841e-05
2.74759e-05
2.74679e-05
2.74603e-05
2.74528e-05
2.74455e-05
2.74384e-05
2.74315e-05
2.74247e-05
2.7418e-05
2.74116e-05
2.74054e-05
2.73995e-05
2.73939e-05
2.73884e-05
2.73831e-05
2.73776e-05
2.73715e-05
2.73641e-05
2.73546e-05
2.73411e-05
2.73192e-05
2.7291e-05
2.72255e-05
2.7238e-05
2.73856e-05
2.78678e-05
2.78678e-05
2.78678e-05
2.78678e-05
2.78678e-05
2.78678e-05
2.78678e-05
2.78678e-05
2.78678e-05
2.78678e-05
)
;

boundaryField
{
    inlet
    {
        type            calculated;
        value           uniform 0;
    }
    endWall
    {
        type            calculated;
        value           uniform 0;
    }
    sideWall
    {
        type            empty;
    }
}


// ************************************************************************* //
