/*--------------------------------*- C++ -*----------------------------------*\
| =========                 |                                                 |
| \\      /  F ield         | foam-extend: Open Source CFD                    |
|  \\    /   O peration     | Version:     3.2                                |
|   \\  /    A nd           | Web:         http://www.foam-extend.org         |
|    \\/     M anipulation  | For copyright notice see file Copyright         |
\*---------------------------------------------------------------------------*/
FoamFile
{
    version     2.0;
    format      ascii;
    class       surfaceScalarField;
    location    "120";
    object      AdSS2;
}
// * * * * * * * * * * * * * * * * * * * * * * * * * * * * * * * * * * * * * //

dimensions      [0 3 -1 0 0 0 0];

internalField   nonuniform List<scalar> 
65390
(
3.73887e-05
4.71828e-07
3.68029e-05
4.46286e-07
3.60827e-05
5.80808e-07
3.53707e-05
5.72476e-07
3.4632e-05
5.99294e-07
3.39463e-05
5.46225e-07
3.3272e-05
5.34763e-07
3.26474e-05
4.85123e-07
3.20378e-05
4.70116e-07
3.14614e-05
4.36954e-07
3.09039e-05
4.18091e-07
3.03762e-05
3.88221e-07
2.98692e-05
3.67498e-07
2.9385e-05
3.44758e-07
2.89179e-05
3.27646e-07
2.8471e-05
3.0734e-07
2.80445e-05
2.87117e-07
2.76377e-05
2.67313e-07
2.72472e-05
2.51028e-07
2.68722e-05
2.3549e-07
2.65123e-05
2.20449e-07
2.61675e-05
2.05367e-07
2.58378e-05
1.90205e-07
2.5524e-05
1.74353e-07
2.52264e-05
1.58091e-07
2.49454e-05
1.41511e-07
2.46806e-05
1.25297e-07
2.44307e-05
1.10484e-07
2.4194e-05
9.72741e-08
2.39695e-05
8.50104e-08
2.37568e-05
7.3244e-08
2.35555e-05
6.17773e-08
2.33652e-05
5.08478e-08
2.31852e-05
4.05083e-08
2.30151e-05
3.06411e-08
2.28545e-05
2.11223e-08
2.2703e-05
1.20112e-08
2.25602e-05
3.35754e-09
2.24257e-05
-4.9484e-09
2.22991e-05
-1.28907e-08
2.218e-05
-2.03731e-08
2.20679e-05
-2.73423e-08
2.19622e-05
-3.38097e-08
2.18626e-05
-3.98551e-08
2.17686e-05
-4.55052e-08
2.168e-05
-5.085e-08
2.15964e-05
-5.58979e-08
2.15176e-05
-6.06422e-08
2.14432e-05
-6.5101e-08
2.13731e-05
-6.93026e-08
2.13068e-05
-7.32498e-08
2.12443e-05
-7.69666e-08
2.11853e-05
-8.04121e-08
2.11294e-05
-8.35431e-08
2.10763e-05
-8.64153e-08
2.10259e-05
-8.90892e-08
2.09781e-05
-9.16398e-08
2.09326e-05
-9.40239e-08
2.08894e-05
-9.61761e-08
2.0848e-05
-9.81446e-08
2.08086e-05
-9.99996e-08
2.07709e-05
-1.01771e-07
2.07348e-05
-1.03431e-07
2.07004e-05
-1.05011e-07
2.06674e-05
-1.06517e-07
2.06359e-05
-1.07943e-07
2.06057e-05
-1.09283e-07
2.05768e-05
-1.10541e-07
2.0549e-05
-1.11707e-07
2.05223e-05
-1.12781e-07
2.04966e-05
-1.13756e-07
2.04718e-05
-1.14647e-07
2.04478e-05
-1.15483e-07
2.04246e-05
-1.16263e-07
2.04021e-05
-1.16956e-07
2.03801e-05
-1.17517e-07
2.03587e-05
-1.18019e-07
2.03377e-05
-1.1853e-07
2.03174e-05
-1.19106e-07
2.02977e-05
-1.19773e-07
2.02785e-05
-1.20364e-07
2.02599e-05
-1.20859e-07
2.02418e-05
-1.21351e-07
2.02242e-05
-1.21828e-07
2.0207e-05
-1.2229e-07
2.01903e-05
-1.22731e-07
2.01739e-05
-1.23153e-07
2.0158e-05
-1.23552e-07
2.01425e-05
-1.23921e-07
2.01273e-05
-1.24262e-07
2.01123e-05
-1.24534e-07
2.00975e-05
-1.24652e-07
2.00828e-05
-1.24738e-07
2.00682e-05
-1.24933e-07
2.00539e-05
-1.25182e-07
2.00399e-05
-1.25443e-07
2.00261e-05
-1.25698e-07
2.00126e-05
-1.25956e-07
1.99994e-05
-1.26277e-07
1.99866e-05
-1.26596e-07
1.99739e-05
-1.2677e-07
1.99612e-05
-1.26844e-07
1.99487e-05
-1.26891e-07
1.99361e-05
-1.26909e-07
1.99235e-05
-1.26908e-07
1.9911e-05
-1.2689e-07
1.98983e-05
-1.26853e-07
1.98857e-05
-1.26797e-07
1.98729e-05
-1.26718e-07
1.98601e-05
-1.26616e-07
1.98471e-05
-1.26491e-07
1.9834e-05
-1.26353e-07
1.98207e-05
-1.26191e-07
1.98073e-05
-1.26042e-07
1.97937e-05
-1.25907e-07
1.97799e-05
-1.25638e-07
1.97657e-05
-1.25343e-07
1.97514e-05
-1.25176e-07
1.9737e-05
-1.25014e-07
1.97223e-05
-1.2482e-07
1.97075e-05
-1.24626e-07
1.96924e-05
-1.24427e-07
1.96772e-05
-1.24224e-07
1.96617e-05
-1.24009e-07
1.9646e-05
-1.23779e-07
1.96301e-05
-1.23512e-07
1.96138e-05
-1.23211e-07
1.95971e-05
-1.22714e-07
1.95797e-05
-1.22057e-07
1.95631e-05
-1.22894e-07
1.9548e-05
-1.24342e-07
1.95333e-05
-1.24832e-07
1.95186e-05
-1.2468e-07
1.95033e-05
-1.24155e-07
1.94877e-05
-1.23822e-07
1.94719e-05
-1.23532e-07
1.94558e-05
-1.23293e-07
1.94396e-05
-1.23098e-07
1.94232e-05
-1.22927e-07
1.94066e-05
-1.22783e-07
1.939e-05
-1.22656e-07
1.93733e-05
-1.22551e-07
1.93564e-05
-1.22462e-07
1.93396e-05
-1.22391e-07
1.93227e-05
-1.22336e-07
1.93058e-05
-1.22298e-07
1.92888e-05
-1.22277e-07
1.92719e-05
-1.22272e-07
1.9255e-05
-1.22275e-07
1.92382e-05
-1.22288e-07
1.92213e-05
-1.22309e-07
1.92045e-05
-1.22339e-07
1.91878e-05
-1.2238e-07
1.91711e-05
-1.22432e-07
1.91545e-05
-1.22493e-07
1.9138e-05
-1.22564e-07
1.91216e-05
-1.22648e-07
1.91053e-05
-1.22747e-07
1.90891e-05
-1.22855e-07
1.90731e-05
-1.22968e-07
1.90571e-05
-1.23089e-07
1.90414e-05
-1.23215e-07
1.90257e-05
-1.23347e-07
1.90102e-05
-1.23482e-07
1.89949e-05
-1.23623e-07
1.89797e-05
-1.23768e-07
1.89647e-05
-1.23919e-07
1.89498e-05
-1.24073e-07
1.89351e-05
-1.24231e-07
1.89206e-05
-1.24392e-07
1.89062e-05
-1.24555e-07
1.88921e-05
-1.24719e-07
1.8878e-05
-1.2488e-07
1.88642e-05
-1.25039e-07
1.88505e-05
-1.25193e-07
1.8837e-05
-1.25345e-07
1.88237e-05
-1.25495e-07
1.88105e-05
-1.25644e-07
1.87974e-05
-1.2579e-07
1.87845e-05
-1.25935e-07
1.87718e-05
-1.26079e-07
1.87592e-05
-1.26222e-07
1.87467e-05
-1.26366e-07
1.87345e-05
-1.26508e-07
1.87223e-05
-1.26657e-07
1.87103e-05
-1.26806e-07
1.86985e-05
-1.26958e-07
1.86869e-05
-1.27111e-07
1.86753e-05
-1.27264e-07
1.8664e-05
-1.27423e-07
1.86528e-05
-1.27585e-07
1.86418e-05
-1.27757e-07
1.8631e-05
-1.27939e-07
1.86204e-05
-1.2813e-07
1.861e-05
-1.2833e-07
1.85998e-05
-1.28535e-07
1.85898e-05
-1.28745e-07
1.858e-05
-1.28959e-07
1.85705e-05
-1.29178e-07
1.85612e-05
-1.29402e-07
1.85521e-05
-1.29629e-07
1.85432e-05
-1.29861e-07
1.85346e-05
-1.30098e-07
1.85263e-05
-1.30336e-07
1.85181e-05
-1.30576e-07
1.85103e-05
-1.30808e-07
1.85026e-05
-1.31031e-07
1.84951e-05
-1.31245e-07
1.84879e-05
-1.3145e-07
1.84809e-05
-1.31648e-07
1.8474e-05
-1.31839e-07
1.84674e-05
-1.32023e-07
1.84609e-05
-1.32198e-07
1.84546e-05
-1.32363e-07
1.84484e-05
-1.32521e-07
1.84424e-05
-1.32675e-07
1.84366e-05
-1.32821e-07
1.84309e-05
-1.32959e-07
1.84253e-05
-1.33088e-07
1.84198e-05
-1.3321e-07
1.84145e-05
-1.33324e-07
1.84093e-05
-1.33434e-07
1.84042e-05
-1.33548e-07
1.83992e-05
-1.33671e-07
1.83943e-05
-1.33801e-07
1.83896e-05
-1.33912e-07
1.83849e-05
-1.33951e-07
1.83802e-05
-1.33931e-07
1.83754e-05
-1.33902e-07
1.83707e-05
-1.33869e-07
1.83659e-05
-1.33838e-07
1.83611e-05
-1.3381e-07
1.83562e-05
-1.33787e-07
1.83514e-05
-1.33768e-07
1.83465e-05
-1.33751e-07
1.83416e-05
-1.33732e-07
1.83367e-05
-1.33711e-07
1.83318e-05
-1.33688e-07
1.83269e-05
-1.3366e-07
1.83219e-05
-1.33628e-07
1.83169e-05
-1.33591e-07
1.83118e-05
-1.33553e-07
1.83068e-05
-1.3351e-07
1.83016e-05
-1.33465e-07
1.82965e-05
-1.33417e-07
1.82913e-05
-1.33366e-07
1.8286e-05
-1.33314e-07
1.82807e-05
-1.33262e-07
1.82753e-05
-1.3321e-07
1.82699e-05
-1.33157e-07
1.82645e-05
-1.33106e-07
1.8259e-05
-1.33057e-07
1.82534e-05
-1.33009e-07
1.82478e-05
-1.32962e-07
1.82422e-05
-1.32913e-07
1.82365e-05
-1.32862e-07
1.82308e-05
-1.3281e-07
1.8225e-05
-1.32759e-07
1.82192e-05
-1.32709e-07
1.82133e-05
-1.32663e-07
1.82074e-05
-1.3262e-07
1.82015e-05
-1.32579e-07
1.81955e-05
-1.3254e-07
1.81895e-05
-1.32502e-07
1.81834e-05
-1.32465e-07
1.81773e-05
-1.32429e-07
1.81712e-05
-1.32392e-07
1.8165e-05
-1.32355e-07
1.81588e-05
-1.32319e-07
1.81526e-05
-1.32283e-07
1.81464e-05
-1.3225e-07
1.81401e-05
-1.32219e-07
1.81338e-05
-1.32191e-07
1.81274e-05
-1.32163e-07
1.81211e-05
-1.32138e-07
1.81147e-05
-1.3211e-07
1.81083e-05
-1.32081e-07
1.81019e-05
-1.32052e-07
1.80954e-05
-1.32027e-07
1.80889e-05
-1.32005e-07
1.80824e-05
-1.31988e-07
1.80759e-05
-1.31974e-07
1.80694e-05
-1.31964e-07
1.80629e-05
-1.31953e-07
1.80564e-05
-1.31943e-07
1.80498e-05
-1.31934e-07
1.80433e-05
-1.31929e-07
1.80367e-05
-1.31926e-07
1.80302e-05
-1.31927e-07
1.80236e-05
-1.3193e-07
1.80171e-05
-1.31936e-07
1.80106e-05
-1.31946e-07
1.80041e-05
-1.31961e-07
1.79976e-05
-1.31976e-07
1.79911e-05
-1.31993e-07
1.79847e-05
-1.32017e-07
1.79783e-05
-1.3205e-07
1.79719e-05
-1.32099e-07
1.79656e-05
-1.32153e-07
1.79593e-05
-1.32208e-07
1.79532e-05
-1.32282e-07
1.79471e-05
-1.32381e-07
1.79411e-05
-1.32487e-07
1.79352e-05
-1.32581e-07
1.79294e-05
-1.32659e-07
1.79237e-05
-1.32731e-07
1.7918e-05
-1.32809e-07
1.79125e-05
-1.32894e-07
1.7907e-05
-1.32988e-07
1.79016e-05
-1.33096e-07
1.78964e-05
-1.33222e-07
1.78913e-05
-1.33356e-07
1.78863e-05
-1.33482e-07
1.78814e-05
-1.33601e-07
1.78767e-05
-1.33708e-07
1.7872e-05
-1.33806e-07
1.78675e-05
-1.33903e-07
1.7863e-05
-1.33997e-07
1.78587e-05
-1.34089e-07
1.78544e-05
-1.34178e-07
1.78502e-05
-1.34271e-07
1.78461e-05
-1.34363e-07
1.78421e-05
-1.34456e-07
1.78382e-05
-1.34546e-07
1.78344e-05
-1.34635e-07
1.78307e-05
-1.34719e-07
1.7827e-05
-1.34794e-07
1.78234e-05
-1.34857e-07
1.78199e-05
-1.3491e-07
1.78164e-05
-1.34952e-07
1.7813e-05
-1.3499e-07
1.78095e-05
-1.35027e-07
1.78062e-05
-1.35068e-07
1.78028e-05
-1.35114e-07
1.77996e-05
-1.35167e-07
1.77963e-05
-1.35228e-07
1.77932e-05
-1.3529e-07
1.77901e-05
-1.35353e-07
1.77871e-05
-1.3542e-07
1.77841e-05
-1.35492e-07
1.77813e-05
-1.35573e-07
1.77785e-05
-1.35648e-07
1.77758e-05
-1.357e-07
1.77731e-05
-1.35738e-07
1.77704e-05
-1.35782e-07
1.77679e-05
-1.35844e-07
1.77653e-05
-1.35915e-07
1.77629e-05
-1.35972e-07
1.77605e-05
-1.36014e-07
1.77581e-05
-1.3605e-07
1.77558e-05
-1.36075e-07
1.77535e-05
-1.36088e-07
1.77512e-05
-1.36084e-07
1.77489e-05
-1.36074e-07
1.77465e-05
-1.36062e-07
1.77442e-05
-1.36039e-07
1.77418e-05
-1.36002e-07
1.77394e-05
-1.35952e-07
1.77369e-05
-1.35888e-07
1.77343e-05
-1.35813e-07
1.77317e-05
-1.35725e-07
1.77289e-05
-1.3563e-07
1.77261e-05
-1.35527e-07
1.77231e-05
-1.35421e-07
1.77201e-05
-1.35311e-07
1.77169e-05
-1.35197e-07
1.77137e-05
-1.35078e-07
1.77103e-05
-1.34954e-07
1.77068e-05
-1.34822e-07
1.77031e-05
-1.34685e-07
1.76993e-05
-1.34542e-07
1.76954e-05
-1.34393e-07
1.76913e-05
-1.34238e-07
1.76871e-05
-1.34081e-07
1.76827e-05
-1.33925e-07
1.76781e-05
-1.3377e-07
1.76735e-05
-1.33622e-07
1.76686e-05
-1.33482e-07
1.76637e-05
-1.33353e-07
1.76586e-05
-1.33234e-07
1.76535e-05
-1.3312e-07
1.76482e-05
-1.3301e-07
1.76428e-05
-1.32902e-07
1.76373e-05
-1.32794e-07
1.76318e-05
-1.32687e-07
1.76261e-05
-1.32583e-07
1.76203e-05
-1.32484e-07
1.76144e-05
-1.32393e-07
1.76085e-05
-1.32312e-07
1.76025e-05
-1.32242e-07
1.75964e-05
-1.32182e-07
1.75903e-05
-1.32129e-07
1.75841e-05
-1.32081e-07
1.75779e-05
-1.32036e-07
1.75717e-05
-1.31993e-07
1.75654e-05
-1.31948e-07
1.7559e-05
-1.31901e-07
1.75527e-05
-1.31848e-07
1.75462e-05
-1.3179e-07
1.75397e-05
-1.31728e-07
1.75332e-05
-1.31662e-07
1.75266e-05
-1.31596e-07
1.75199e-05
-1.31529e-07
1.75131e-05
-1.31459e-07
1.75063e-05
-1.3139e-07
1.74994e-05
-1.31321e-07
1.74925e-05
-1.31259e-07
1.74855e-05
-1.31201e-07
1.74784e-05
-1.31148e-07
1.74713e-05
-1.31097e-07
1.74642e-05
-1.31046e-07
1.7457e-05
-1.30994e-07
1.74498e-05
-1.30941e-07
1.74425e-05
-1.30891e-07
1.74351e-05
-1.30845e-07
1.74278e-05
-1.30804e-07
1.74204e-05
-1.3077e-07
1.74129e-05
-1.30741e-07
1.74055e-05
-1.30717e-07
1.7398e-05
-1.30693e-07
1.73905e-05
-1.3067e-07
1.7383e-05
-1.30647e-07
1.73755e-05
-1.30626e-07
1.73679e-05
-1.30606e-07
1.73604e-05
-1.3059e-07
1.73528e-05
-1.30577e-07
1.73452e-05
-1.30566e-07
1.73376e-05
-1.30553e-07
1.733e-05
-1.30536e-07
1.73224e-05
-1.30519e-07
1.73147e-05
-1.30506e-07
1.73071e-05
-1.305e-07
1.72995e-05
-1.30502e-07
1.72918e-05
-1.30498e-07
1.72842e-05
-1.30495e-07
1.72766e-05
-1.30504e-07
1.7269e-05
-1.30533e-07
1.72614e-05
-1.30578e-07
1.72539e-05
-1.30639e-07
1.72465e-05
-1.30709e-07
1.72392e-05
-1.30778e-07
1.72319e-05
-1.30837e-07
1.72247e-05
-1.30892e-07
1.72175e-05
-1.30952e-07
1.72104e-05
-1.3102e-07
1.72034e-05
-1.311e-07
1.71965e-05
-1.31188e-07
1.71897e-05
-1.31288e-07
1.7183e-05
-1.31391e-07
1.71763e-05
-1.31489e-07
1.71698e-05
-1.31579e-07
1.71634e-05
-1.31661e-07
1.7157e-05
-1.31739e-07
1.71507e-05
-1.31812e-07
1.71445e-05
-1.31877e-07
1.71384e-05
-1.3193e-07
1.71323e-05
-1.31985e-07
1.71262e-05
-1.32044e-07
1.71203e-05
-1.32108e-07
1.71143e-05
-1.32173e-07
1.71085e-05
-1.32236e-07
1.71027e-05
-1.32289e-07
1.7097e-05
-1.32333e-07
1.70913e-05
-1.32365e-07
1.70856e-05
-1.32392e-07
1.70799e-05
-1.32415e-07
1.70743e-05
-1.32443e-07
1.70687e-05
-1.32475e-07
1.70632e-05
-1.32516e-07
1.70577e-05
-1.32563e-07
1.70523e-05
-1.32614e-07
1.70469e-05
-1.32664e-07
1.70415e-05
-1.3271e-07
1.70362e-05
-1.32744e-07
1.7031e-05
-1.32767e-07
1.70257e-05
-1.32776e-07
1.70204e-05
-1.32775e-07
1.70152e-05
-1.32767e-07
1.70099e-05
-1.32753e-07
1.70046e-05
-1.32747e-07
1.69993e-05
-1.32761e-07
1.69941e-05
-1.32797e-07
1.69889e-05
-1.32859e-07
1.69839e-05
-1.32953e-07
1.69789e-05
-1.33041e-07
1.6974e-05
-1.33121e-07
1.69692e-05
-1.33187e-07
1.69644e-05
-1.33254e-07
1.69597e-05
-1.33315e-07
1.69551e-05
-1.33376e-07
1.69506e-05
-1.33424e-07
1.6946e-05
-1.33475e-07
1.69416e-05
-1.33518e-07
1.69371e-05
-1.33573e-07
1.69328e-05
-1.33621e-07
1.69285e-05
-1.33677e-07
1.69242e-05
-1.33711e-07
1.692e-05
-1.3374e-07
1.69157e-05
-1.33731e-07
1.69115e-05
-1.33715e-07
1.69072e-05
-1.33663e-07
1.69029e-05
-1.3362e-07
1.68985e-05
-1.33546e-07
1.6894e-05
-1.33495e-07
1.68895e-05
-1.33419e-07
1.68849e-05
-1.33376e-07
1.68803e-05
-1.3331e-07
1.68756e-05
-1.33287e-07
1.68709e-05
-1.33236e-07
1.68662e-05
-1.33237e-07
1.68615e-05
-1.332e-07
1.68568e-05
-1.33215e-07
1.68521e-05
-1.3317e-07
1.68473e-05
-1.33177e-07
1.68425e-05
-1.33094e-07
1.68377e-05
-1.3307e-07
1.68327e-05
-1.32923e-07
1.68277e-05
-1.32855e-07
1.68224e-05
-1.32627e-07
1.6817e-05
-1.32512e-07
1.68113e-05
-1.32189e-07
1.68055e-05
-1.32009e-07
1.67991e-05
-1.31537e-07
1.67925e-05
-1.3121e-07
1.67851e-05
-1.30506e-07
1.6777e-05
-1.29753e-07
1.67679e-05
-1.28719e-07
1.6757e-05
-1.26966e-07
1.6744e-05
-1.24849e-07
1.67277e-05
-1.21535e-07
1.67068e-05
-1.16934e-07
1.66796e-05
-1.10593e-07
1.66429e-05
-1.01067e-07
1.65938e-05
-8.86499e-08
1.65277e-05
-7.15447e-08
1.64314e-05
-4.13764e-08
1.63208e-05
-2.69999e-08
1.6037e-05
1.46323e-07
1.55346e-05
3.6444e-07
1.4984e-05
4.11666e-07
1.42811e-05
5.63487e-07
1.33017e-05
8.39894e-07
1.18891e-05
1.27313e-06
1.00922e-05
1.65745e-06
7.72917e-06
2.22356e-06
4.09589e-06
3.49381e-06
8.43589e-07
3.11283e-06
-1.0789e-06
1.78302e-06
-2.84062e-06
1.62225e-06
-2.98009e-06
3.77926e-05
6.792e-07
3.74977e-05
7.41178e-07
3.70249e-05
1.05361e-06
3.65648e-05
1.03263e-06
3.61029e-05
1.06113e-06
3.56875e-05
9.61625e-07
3.5298e-05
9.24288e-07
3.49478e-05
8.3538e-07
3.46315e-05
7.86385e-07
3.43756e-05
6.92897e-07
3.41385e-05
6.55171e-07
3.39199e-05
6.06778e-07
3.37054e-05
5.82007e-07
3.34978e-05
5.52367e-07
3.32902e-05
5.35288e-07
3.30832e-05
5.14279e-07
3.28671e-05
5.03213e-07
3.26454e-05
4.89001e-07
3.24232e-05
4.73254e-07
3.2203e-05
4.55737e-07
3.1985e-05
4.38396e-07
3.17685e-05
4.21864e-07
3.15536e-05
4.05087e-07
3.13405e-05
3.87444e-07
3.11297e-05
3.68911e-07
3.09212e-05
3.50078e-07
3.07151e-05
3.314e-07
3.05129e-05
3.12668e-07
3.03159e-05
2.94281e-07
3.01237e-05
2.77209e-07
2.99363e-05
2.60577e-07
2.97542e-05
2.43919e-07
2.95774e-05
2.27685e-07
2.94056e-05
2.12235e-07
2.92389e-05
1.97354e-07
2.90773e-05
1.82785e-07
2.89207e-05
1.68592e-07
2.87691e-05
1.54943e-07
2.86224e-05
1.41722e-07
2.84805e-05
1.29033e-07
2.83436e-05
1.16534e-07
2.82116e-05
1.04604e-07
2.80843e-05
9.35592e-08
2.79612e-05
8.31632e-08
2.78425e-05
7.32682e-08
2.77277e-05
6.39354e-08
2.76163e-05
5.55392e-08
2.75081e-05
4.75484e-08
2.7403e-05
3.99774e-08
2.7301e-05
3.27074e-08
2.7202e-05
2.57214e-08
2.7106e-05
1.90458e-08
2.70129e-05
1.27159e-08
2.69226e-05
6.75607e-09
2.6835e-05
1.16167e-09
2.675e-05
-4.14884e-09
2.66677e-05
-9.32915e-09
2.6588e-05
-1.43014e-08
2.65107e-05
-1.88984e-08
2.64357e-05
-2.31487e-08
2.6363e-05
-2.72459e-08
2.62924e-05
-3.11528e-08
2.62238e-05
-3.48159e-08
2.61571e-05
-3.83237e-08
2.60923e-05
-4.17294e-08
2.60293e-05
-4.50148e-08
2.59682e-05
-4.81771e-08
2.59089e-05
-5.12264e-08
2.58514e-05
-5.41465e-08
2.57955e-05
-5.69141e-08
2.57413e-05
-5.95165e-08
2.56886e-05
-6.19419e-08
2.56373e-05
-6.42546e-08
2.55875e-05
-6.64496e-08
2.55391e-05
-6.84945e-08
2.54918e-05
-7.02582e-08
2.54456e-05
-7.18603e-08
2.54006e-05
-7.347e-08
2.53566e-05
-7.51688e-08
2.5314e-05
-7.70906e-08
2.52725e-05
-7.89501e-08
2.52322e-05
-8.05594e-08
2.51931e-05
-8.22008e-08
2.51551e-05
-8.3829e-08
2.51182e-05
-8.54236e-08
2.50825e-05
-8.69654e-08
2.50478e-05
-8.84571e-08
2.50141e-05
-8.98885e-08
2.49814e-05
-9.1252e-08
2.49497e-05
-9.25234e-08
2.49189e-05
-9.36952e-08
2.48887e-05
-9.45407e-08
2.48592e-05
-9.51485e-08
2.48302e-05
-9.59968e-08
2.48019e-05
-9.68626e-08
2.47741e-05
-9.76396e-08
2.47466e-05
-9.82163e-08
2.47193e-05
-9.86481e-08
2.46922e-05
-9.91975e-08
2.46655e-05
-9.98572e-08
2.4639e-05
-1.00278e-07
2.46126e-05
-1.00432e-07
2.45862e-05
-1.00541e-07
2.45599e-05
-1.00617e-07
2.45337e-05
-1.0066e-07
2.45075e-05
-1.00695e-07
2.44813e-05
-1.00702e-07
2.44552e-05
-1.00693e-07
2.44292e-05
-1.00645e-07
2.44031e-05
-1.00567e-07
2.43771e-05
-1.00449e-07
2.4351e-05
-1.003e-07
2.4325e-05
-1.00124e-07
2.42988e-05
-9.99319e-08
2.42728e-05
-9.98279e-08
2.42466e-05
-9.95032e-08
2.42203e-05
-9.90073e-08
2.41939e-05
-9.87846e-08
2.41675e-05
-9.86372e-08
2.41411e-05
-9.84049e-08
2.41147e-05
-9.819e-08
2.40882e-05
-9.79765e-08
2.40618e-05
-9.7763e-08
2.40353e-05
-9.75422e-08
2.40088e-05
-9.72922e-08
2.39823e-05
-9.69994e-08
2.39557e-05
-9.66111e-08
2.3929e-05
-9.60274e-08
2.39021e-05
-9.51376e-08
2.38757e-05
-9.64773e-08
2.38502e-05
-9.8847e-08
2.38255e-05
-1.00138e-07
2.38012e-05
-1.00388e-07
2.37768e-05
-9.9708e-08
2.37523e-05
-9.93335e-08
2.37277e-05
-9.89735e-08
2.37031e-05
-9.87276e-08
2.36786e-05
-9.85388e-08
2.36541e-05
-9.84065e-08
2.36296e-05
-9.83096e-08
2.36052e-05
-9.82456e-08
2.35808e-05
-9.8209e-08
2.35566e-05
-9.82012e-08
2.35324e-05
-9.82226e-08
2.35083e-05
-9.82755e-08
2.34844e-05
-9.83586e-08
2.34606e-05
-9.84749e-08
2.3437e-05
-9.86193e-08
2.34135e-05
-9.8781e-08
2.33901e-05
-9.89561e-08
2.3367e-05
-9.91452e-08
2.3344e-05
-9.93436e-08
2.33211e-05
-9.95563e-08
2.32985e-05
-9.97791e-08
2.3276e-05
-1.00014e-07
2.32537e-05
-1.00264e-07
2.32316e-05
-1.00538e-07
2.32097e-05
-1.00839e-07
2.3188e-05
-1.01157e-07
2.31665e-05
-1.01481e-07
2.31452e-05
-1.01812e-07
2.31242e-05
-1.02145e-07
2.31033e-05
-1.02485e-07
2.30826e-05
-1.02831e-07
2.30622e-05
-1.03189e-07
2.3042e-05
-1.03555e-07
2.3022e-05
-1.03932e-07
2.30023e-05
-1.04315e-07
2.29827e-05
-1.04707e-07
2.29634e-05
-1.05105e-07
2.29444e-05
-1.05509e-07
2.29256e-05
-1.05913e-07
2.2907e-05
-1.06313e-07
2.28887e-05
-1.06703e-07
2.28706e-05
-1.07083e-07
2.28527e-05
-1.07449e-07
2.2835e-05
-1.07806e-07
2.28175e-05
-1.08153e-07
2.28002e-05
-1.08493e-07
2.27831e-05
-1.08826e-07
2.27662e-05
-1.09156e-07
2.27494e-05
-1.0948e-07
2.27329e-05
-1.09809e-07
2.27165e-05
-1.10133e-07
2.27003e-05
-1.10469e-07
2.26843e-05
-1.10805e-07
2.26685e-05
-1.11145e-07
2.26529e-05
-1.11484e-07
2.26374e-05
-1.11819e-07
2.26222e-05
-1.12158e-07
2.26071e-05
-1.12506e-07
2.25922e-05
-1.1287e-07
2.25775e-05
-1.13255e-07
2.2563e-05
-1.13662e-07
2.25488e-05
-1.14083e-07
2.25348e-05
-1.14518e-07
2.2521e-05
-1.14959e-07
2.25074e-05
-1.15401e-07
2.24941e-05
-1.15848e-07
2.2481e-05
-1.16299e-07
2.24681e-05
-1.16757e-07
2.24555e-05
-1.17226e-07
2.24431e-05
-1.17708e-07
2.2431e-05
-1.18196e-07
2.24191e-05
-1.18685e-07
2.24074e-05
-1.19156e-07
2.2396e-05
-1.19606e-07
2.23848e-05
-1.20031e-07
2.23738e-05
-1.20432e-07
2.23629e-05
-1.20811e-07
2.23523e-05
-1.21171e-07
2.23418e-05
-1.21518e-07
2.23314e-05
-1.21851e-07
2.23212e-05
-1.22172e-07
2.23112e-05
-1.22482e-07
2.23013e-05
-1.2278e-07
2.22915e-05
-1.23057e-07
2.22819e-05
-1.23311e-07
2.22723e-05
-1.2354e-07
2.22629e-05
-1.23747e-07
2.22535e-05
-1.23937e-07
2.22442e-05
-1.24116e-07
2.22349e-05
-1.24304e-07
2.22258e-05
-1.24509e-07
2.22167e-05
-1.24732e-07
2.22077e-05
-1.24942e-07
2.21989e-05
-1.25101e-07
2.21902e-05
-1.25222e-07
2.21816e-05
-1.25322e-07
2.21731e-05
-1.25405e-07
2.21648e-05
-1.25478e-07
2.21565e-05
-1.25546e-07
2.21483e-05
-1.25612e-07
2.21402e-05
-1.25674e-07
2.21322e-05
-1.25732e-07
2.21242e-05
-1.2578e-07
2.21164e-05
-1.25819e-07
2.21085e-05
-1.25846e-07
2.21007e-05
-1.25859e-07
2.20929e-05
-1.2586e-07
2.20852e-05
-1.25847e-07
2.20775e-05
-1.25825e-07
2.20697e-05
-1.25789e-07
2.2062e-05
-1.25744e-07
2.20543e-05
-1.25688e-07
2.20466e-05
-1.25623e-07
2.20388e-05
-1.25553e-07
2.2031e-05
-1.25482e-07
2.20232e-05
-1.2541e-07
2.20154e-05
-1.25339e-07
2.20076e-05
-1.25269e-07
2.19997e-05
-1.25203e-07
2.19918e-05
-1.2514e-07
2.1984e-05
-1.25077e-07
2.1976e-05
-1.2501e-07
2.19681e-05
-1.24937e-07
2.19602e-05
-1.24859e-07
2.19522e-05
-1.24781e-07
2.19442e-05
-1.24706e-07
2.19362e-05
-1.24637e-07
2.19281e-05
-1.24575e-07
2.19201e-05
-1.24518e-07
2.1912e-05
-1.24465e-07
2.19039e-05
-1.24415e-07
2.18958e-05
-1.24367e-07
2.18877e-05
-1.24323e-07
2.18796e-05
-1.24275e-07
2.18714e-05
-1.24225e-07
2.18633e-05
-1.24171e-07
2.18551e-05
-1.24117e-07
2.18469e-05
-1.24068e-07
2.18388e-05
-1.24027e-07
2.18306e-05
-1.23996e-07
2.18224e-05
-1.2397e-07
2.18142e-05
-1.23946e-07
2.1806e-05
-1.23917e-07
2.17978e-05
-1.23883e-07
2.17896e-05
-1.23845e-07
2.17814e-05
-1.23813e-07
2.17732e-05
-1.23789e-07
2.17649e-05
-1.23778e-07
2.17567e-05
-1.23773e-07
2.17485e-05
-1.23774e-07
2.17404e-05
-1.23772e-07
2.17322e-05
-1.23773e-07
2.1724e-05
-1.23772e-07
2.17159e-05
-1.23779e-07
2.17077e-05
-1.2379e-07
2.16996e-05
-1.23807e-07
2.16915e-05
-1.23828e-07
2.16834e-05
-1.23851e-07
2.16754e-05
-1.23879e-07
2.16673e-05
-1.23914e-07
2.16593e-05
-1.23949e-07
2.16513e-05
-1.23991e-07
2.16433e-05
-1.24043e-07
2.16354e-05
-1.24112e-07
2.16275e-05
-1.24206e-07
2.16197e-05
-1.24313e-07
2.16119e-05
-1.24427e-07
2.16042e-05
-1.24574e-07
2.15965e-05
-1.24761e-07
2.1589e-05
-1.2497e-07
2.15816e-05
-1.25165e-07
2.15743e-05
-1.25335e-07
2.15671e-05
-1.25493e-07
2.15599e-05
-1.25653e-07
2.15528e-05
-1.25822e-07
2.15458e-05
-1.26007e-07
2.1539e-05
-1.26214e-07
2.15322e-05
-1.26456e-07
2.15256e-05
-1.26718e-07
2.15191e-05
-1.26979e-07
2.15127e-05
-1.2723e-07
2.15064e-05
-1.27464e-07
2.15003e-05
-1.27683e-07
2.14943e-05
-1.27897e-07
2.14884e-05
-1.28099e-07
2.14826e-05
-1.28295e-07
2.14769e-05
-1.2848e-07
2.14713e-05
-1.28663e-07
2.14658e-05
-1.28846e-07
2.14604e-05
-1.29035e-07
2.14551e-05
-1.29227e-07
2.14498e-05
-1.29422e-07
2.14447e-05
-1.29609e-07
2.14397e-05
-1.29777e-07
2.14348e-05
-1.29915e-07
2.14299e-05
-1.30021e-07
2.1425e-05
-1.30099e-07
2.14202e-05
-1.30164e-07
2.14154e-05
-1.30226e-07
2.14106e-05
-1.30301e-07
2.14059e-05
-1.30394e-07
2.14013e-05
-1.30508e-07
2.13967e-05
-1.30637e-07
2.13921e-05
-1.30768e-07
2.13877e-05
-1.30898e-07
2.13833e-05
-1.31029e-07
2.1379e-05
-1.31169e-07
2.13747e-05
-1.31326e-07
2.13706e-05
-1.31479e-07
2.13665e-05
-1.31603e-07
2.13624e-05
-1.31701e-07
2.13584e-05
-1.31797e-07
2.13545e-05
-1.31911e-07
2.13506e-05
-1.3204e-07
2.13468e-05
-1.32146e-07
2.1343e-05
-1.32233e-07
2.13393e-05
-1.32306e-07
2.13356e-05
-1.32366e-07
2.13319e-05
-1.32407e-07
2.13282e-05
-1.32422e-07
2.13246e-05
-1.32423e-07
2.13209e-05
-1.32415e-07
2.13173e-05
-1.32388e-07
2.13136e-05
-1.32331e-07
2.13099e-05
-1.32242e-07
2.13061e-05
-1.32118e-07
2.13023e-05
-1.3197e-07
2.12984e-05
-1.31796e-07
2.12943e-05
-1.31609e-07
2.12902e-05
-1.31409e-07
2.1286e-05
-1.31209e-07
2.12817e-05
-1.31007e-07
2.12773e-05
-1.30808e-07
2.12728e-05
-1.30605e-07
2.12683e-05
-1.30396e-07
2.12636e-05
-1.30172e-07
2.12589e-05
-1.29933e-07
2.1254e-05
-1.29675e-07
2.1249e-05
-1.294e-07
2.12439e-05
-1.29108e-07
2.12386e-05
-1.28805e-07
2.12332e-05
-1.28501e-07
2.12276e-05
-1.28199e-07
2.12219e-05
-1.27913e-07
2.12161e-05
-1.27647e-07
2.12101e-05
-1.27409e-07
2.12041e-05
-1.27197e-07
2.1198e-05
-1.27003e-07
2.11918e-05
-1.26821e-07
2.11855e-05
-1.2664e-07
2.11792e-05
-1.26456e-07
2.11728e-05
-1.26261e-07
2.11662e-05
-1.26061e-07
2.11596e-05
-1.25858e-07
2.11529e-05
-1.25666e-07
2.11461e-05
-1.25492e-07
2.11392e-05
-1.25346e-07
2.11322e-05
-1.25224e-07
2.11252e-05
-1.25125e-07
2.11182e-05
-1.25041e-07
2.11111e-05
-1.2497e-07
2.1104e-05
-1.24904e-07
2.10969e-05
-1.24835e-07
2.10898e-05
-1.24754e-07
2.10826e-05
-1.24655e-07
2.10753e-05
-1.24539e-07
2.1068e-05
-1.24409e-07
2.10606e-05
-1.24272e-07
2.10531e-05
-1.24134e-07
2.10456e-05
-1.24e-07
2.1038e-05
-1.23866e-07
2.10304e-05
-1.23737e-07
2.10227e-05
-1.2361e-07
2.10149e-05
-1.23497e-07
2.10071e-05
-1.23394e-07
2.09992e-05
-1.233e-07
2.09913e-05
-1.23207e-07
2.09834e-05
-1.2311e-07
2.09754e-05
-1.23008e-07
2.09674e-05
-1.22903e-07
2.09593e-05
-1.22801e-07
2.09512e-05
-1.2271e-07
2.0943e-05
-1.22631e-07
2.09348e-05
-1.22569e-07
2.09266e-05
-1.22519e-07
2.09183e-05
-1.22477e-07
2.09101e-05
-1.22432e-07
2.09018e-05
-1.22385e-07
2.08935e-05
-1.22334e-07
2.08851e-05
-1.22282e-07
2.08768e-05
-1.22235e-07
2.08684e-05
-1.22198e-07
2.08599e-05
-1.22166e-07
2.08515e-05
-1.22142e-07
2.08431e-05
-1.22116e-07
2.08346e-05
-1.22085e-07
2.08262e-05
-1.22053e-07
2.08177e-05
-1.22023e-07
2.08092e-05
-1.22001e-07
2.08007e-05
-1.2199e-07
2.07922e-05
-1.21971e-07
2.07836e-05
-1.21957e-07
2.07751e-05
-1.21965e-07
2.07666e-05
-1.22011e-07
2.07581e-05
-1.22096e-07
2.07496e-05
-1.22212e-07
2.07413e-05
-1.22351e-07
2.0733e-05
-1.2249e-07
2.07248e-05
-1.22613e-07
2.07166e-05
-1.22723e-07
2.07085e-05
-1.22835e-07
2.07004e-05
-1.22959e-07
2.06924e-05
-1.23105e-07
2.06845e-05
-1.23274e-07
2.06767e-05
-1.2347e-07
2.0669e-05
-1.2368e-07
2.06614e-05
-1.23886e-07
2.06539e-05
-1.24079e-07
2.06465e-05
-1.24251e-07
2.06391e-05
-1.24408e-07
2.06319e-05
-1.24547e-07
2.06247e-05
-1.24668e-07
2.06175e-05
-1.24769e-07
2.06104e-05
-1.24873e-07
2.06033e-05
-1.24987e-07
2.05964e-05
-1.25121e-07
2.05894e-05
-1.25261e-07
2.05826e-05
-1.25405e-07
2.05758e-05
-1.25529e-07
2.05691e-05
-1.25632e-07
2.05625e-05
-1.25699e-07
2.05558e-05
-1.25751e-07
2.05492e-05
-1.25781e-07
2.05426e-05
-1.25822e-07
2.0536e-05
-1.25868e-07
2.05294e-05
-1.25948e-07
2.05229e-05
-1.26039e-07
2.05164e-05
-1.26158e-07
2.051e-05
-1.26268e-07
2.05037e-05
-1.26376e-07
2.04974e-05
-1.26451e-07
2.04912e-05
-1.26511e-07
2.04849e-05
-1.26535e-07
2.04787e-05
-1.26546e-07
2.04724e-05
-1.2652e-07
2.04662e-05
-1.26484e-07
2.04599e-05
-1.26436e-07
2.04535e-05
-1.26439e-07
2.04472e-05
-1.2648e-07
2.0441e-05
-1.26601e-07
2.04348e-05
-1.26776e-07
2.04287e-05
-1.26977e-07
2.04228e-05
-1.27157e-07
2.04169e-05
-1.27332e-07
2.04111e-05
-1.27474e-07
2.04054e-05
-1.2762e-07
2.03998e-05
-1.27718e-07
2.03941e-05
-1.27811e-07
2.03885e-05
-1.27861e-07
2.0383e-05
-1.2794e-07
2.03774e-05
-1.28007e-07
2.03719e-05
-1.28129e-07
2.03664e-05
-1.28227e-07
2.03611e-05
-1.28347e-07
2.03557e-05
-1.28397e-07
2.03504e-05
-1.2844e-07
2.03451e-05
-1.28398e-07
2.03398e-05
-1.28362e-07
2.03345e-05
-1.28259e-07
2.03291e-05
-1.28192e-07
2.03237e-05
-1.28063e-07
2.03182e-05
-1.27982e-07
2.03127e-05
-1.27845e-07
2.03072e-05
-1.27777e-07
2.03016e-05
-1.27661e-07
2.02959e-05
-1.27626e-07
2.02903e-05
-1.27553e-07
2.02846e-05
-1.27563e-07
2.02789e-05
-1.27522e-07
2.02733e-05
-1.27536e-07
2.02676e-05
-1.27481e-07
2.02619e-05
-1.27413e-07
2.02561e-05
-1.27282e-07
2.02503e-05
-1.27053e-07
2.02442e-05
-1.26829e-07
2.0238e-05
-1.2641e-07
2.02317e-05
-1.26156e-07
2.0225e-05
-1.25568e-07
2.02183e-05
-1.25236e-07
2.02112e-05
-1.24448e-07
2.02038e-05
-1.23796e-07
2.01958e-05
-1.22582e-07
2.01872e-05
-1.21098e-07
2.01778e-05
-1.19316e-07
2.01668e-05
-1.16019e-07
2.01543e-05
-1.1231e-07
2.01388e-05
-1.06061e-07
2.01199e-05
-9.80318e-08
2.00954e-05
-8.61188e-08
2.00637e-05
-6.93541e-08
2.00202e-05
-4.50631e-08
1.99628e-05
-1.42293e-08
1.98729e-05
4.85863e-08
1.97662e-05
7.96418e-08
1.9547e-05
3.65519e-07
1.92208e-05
6.90651e-07
1.87629e-05
8.69559e-07
1.81345e-05
1.19189e-06
1.72996e-05
1.67486e-06
1.61065e-05
2.46615e-06
1.43219e-05
3.44213e-06
1.18727e-05
4.67269e-06
8.37638e-06
6.99016e-06
3.8609e-06
7.62832e-06
2.68253e-07
5.37567e-06
-1.67091e-06
3.56142e-06
-4.65101e-06
3.77845e-05
8.94738e-07
3.75101e-05
1.01558e-06
3.70521e-05
1.51156e-06
3.66206e-05
1.46411e-06
3.61921e-05
1.48962e-06
3.58276e-05
1.32613e-06
3.55123e-05
1.23963e-06
3.52512e-05
1.09647e-06
3.50358e-05
1.00174e-06
3.48506e-05
8.78097e-07
3.47006e-05
8.05215e-07
3.4569e-05
7.38363e-07
3.44463e-05
7.04717e-07
3.43384e-05
6.60316e-07
3.42454e-05
6.28281e-07
3.41662e-05
5.93484e-07
3.40902e-05
5.79153e-07
3.40164e-05
5.62804e-07
3.39431e-05
5.46621e-07
3.38693e-05
5.29444e-07
3.37938e-05
5.13919e-07
3.37165e-05
4.99172e-07
3.36368e-05
4.8483e-07
3.35542e-05
4.70028e-07
3.34681e-05
4.54963e-07
3.33783e-05
4.39927e-07
3.32843e-05
4.25355e-07
3.31842e-05
4.12823e-07
3.30779e-05
4.00512e-07
3.29681e-05
3.87014e-07
3.28552e-05
3.73516e-07
3.27396e-05
3.59525e-07
3.26215e-05
3.45811e-07
3.25009e-05
3.32813e-07
3.23781e-05
3.20174e-07
3.22535e-05
3.07381e-07
3.21275e-05
2.9454e-07
3.20006e-05
2.81847e-07
3.18731e-05
2.69245e-07
3.17454e-05
2.56774e-07
3.1618e-05
2.43932e-07
3.14912e-05
2.3139e-07
3.13651e-05
2.19647e-07
3.124e-05
2.08255e-07
3.11161e-05
1.97192e-07
3.09936e-05
1.8645e-07
3.08728e-05
1.76255e-07
3.0754e-05
1.66362e-07
3.06372e-05
1.56817e-07
3.05224e-05
1.4747e-07
3.04098e-05
1.38315e-07
3.02994e-05
1.29428e-07
3.01913e-05
1.20863e-07
3.00854e-05
1.1261e-07
2.99819e-05
1.04752e-07
2.98805e-05
9.71693e-08
2.97815e-05
8.96638e-08
2.9685e-05
8.22633e-08
2.95907e-05
7.5384e-08
2.94986e-05
6.89345e-08
2.94086e-05
6.27377e-08
2.93204e-05
5.70825e-08
2.92339e-05
5.16923e-08
2.91491e-05
4.64581e-08
2.90661e-05
4.12719e-08
2.89849e-05
3.61606e-08
2.89056e-05
3.11271e-08
2.88282e-05
2.61646e-08
2.87528e-05
2.13067e-08
2.86793e-05
1.6603e-08
2.86077e-05
1.20858e-08
2.85379e-05
7.79887e-09
2.847e-05
3.65021e-09
2.84039e-05
-3.48662e-10
2.83396e-05
-4.1528e-09
2.82768e-05
-7.52485e-09
2.82156e-05
-1.06048e-08
2.81558e-05
-1.36724e-08
2.80975e-05
-1.68431e-08
2.80408e-05
-2.0377e-08
2.79857e-05
-2.38571e-08
2.7932e-05
-2.68947e-08
2.78798e-05
-2.99631e-08
2.78289e-05
-3.30009e-08
2.77795e-05