/*--------------------------------*- C++ -*----------------------------------*\
| =========                 |                                                 |
| \\      /  F ield         | foam-extend: Open Source CFD                    |
|  \\    /   O peration     | Version:     3.2                                |
|   \\  /    A nd           | Web:         http://www.foam-extend.org         |
|    \\/     M anipulation  | For copyright notice see file Copyright         |
\*---------------------------------------------------------------------------*/
FoamFile
{
    version     2.0;
    format      ascii;
    class       areaVectorField;
    location    "120";
    object      aMeshCentreN;
}
// * * * * * * * * * * * * * * * * * * * * * * * * * * * * * * * * * * * * * //

dimensions      [0 0 0 0 0 0 0];

internalField   nonuniform List<vector> 
550
(
(0.00909091 0.01 -1.81818e-05)
(0.0272727 0.01 -5.45455e-05)
(0.0454545 0.01 -9.09091e-05)
(0.0636364 0.01 -0.000127273)
(0.0818182 0.01 -0.000163636)
(0.1 0.01 -0.0002)
(0.118182 0.01 -0.000236364)
(0.136364 0.01 -0.000272727)
(0.154545 0.01 -0.000309091)
(0.172727 0.01 -0.000345455)
(0.190909 0.01 -0.000381818)
(0.209091 0.01 -0.000418182)
(0.227273 0.01 -0.000454545)
(0.245455 0.01 -0.000490909)
(0.263636 0.01 -0.000527273)
(0.281818 0.01 -0.000563636)
(0.3 0.01 -0.0006)
(0.318182 0.01 -0.000636364)
(0.336364 0.01 -0.000672727)
(0.354545 0.01 -0.000709091)
(0.372727 0.01 -0.000745455)
(0.390909 0.01 -0.000781818)
(0.409091 0.01 -0.000818182)
(0.427273 0.01 -0.000854545)
(0.445455 0.01 -0.000890909)
(0.463636 0.01 -0.000927273)
(0.481818 0.01 -0.000963636)
(0.5 0.01 -0.001)
(0.518182 0.01 -0.00103636)
(0.536364 0.01 -0.00107273)
(0.554545 0.01 -0.00110909)
(0.572727 0.01 -0.00114545)
(0.590909 0.01 -0.00118182)
(0.609091 0.01 -0.00121818)
(0.627273 0.01 -0.00125455)
(0.645455 0.01 -0.00129091)
(0.663636 0.01 -0.00132727)
(0.681818 0.01 -0.00136364)
(0.7 0.01 -0.0014)
(0.718182 0.01 -0.00143636)
(0.736364 0.01 -0.00147273)
(0.754545 0.01 -0.00150909)
(0.772727 0.01 -0.00154545)
(0.790909 0.01 -0.00158182)
(0.809091 0.01 -0.00161818)
(0.827273 0.01 -0.00165455)
(0.845455 0.01 -0.00169091)
(0.863636 0.01 -0.00172727)
(0.881818 0.01 -0.00176364)
(0.9 0.01 -0.0018)
(0.918182 0.01 -0.00183636)
(0.936364 0.01 -0.00187273)
(0.954545 0.01 -0.00190909)
(0.972727 0.01 -0.00194545)
(0.990909 0.01 -0.00198182)
(1.00909 0.01 -0.00201818)
(1.02727 0.01 -0.00205455)
(1.04545 0.01 -0.00209091)
(1.06364 0.01 -0.00212727)
(1.08182 0.01 -0.00216364)
(1.1 0.01 -0.0022)
(1.11818 0.01 -0.00223636)
(1.13636 0.01 -0.00227273)
(1.15455 0.01 -0.00230909)
(1.17273 0.01 -0.00234545)
(1.19091 0.01 -0.00238182)
(1.20909 0.01 -0.00241818)
(1.22727 0.01 -0.00245455)
(1.24545 0.01 -0.00249091)
(1.26364 0.01 -0.00252727)
(1.28182 0.01 -0.00256364)
(1.3 0.01 -0.0026)
(1.31818 0.01 -0.00263636)
(1.33636 0.01 -0.00267273)
(1.35455 0.01 -0.00270909)
(1.37273 0.01 -0.00274545)
(1.39091 0.01 -0.00278182)
(1.40909 0.01 -0.00281818)
(1.42727 0.01 -0.00285455)
(1.44545 0.01 -0.00289091)
(1.46364 0.01 -0.00292727)
(1.48182 0.01 -0.00296364)
(1.5 0.01 -0.003)
(1.51818 0.01 -0.00303636)
(1.53636 0.01 -0.00307273)
(1.55455 0.01 -0.00310909)
(1.57273 0.01 -0.00314545)
(1.59091 0.01 -0.00318182)
(1.60909 0.01 -0.00321818)
(1.62727 0.01 -0.00325455)
(1.64545 0.01 -0.00329091)
(1.66364 0.01 -0.00332727)
(1.68182 0.01 -0.00336364)
(1.7 0.01 -0.0034)
(1.71818 0.01 -0.00343636)
(1.73636 0.01 -0.00347273)
(1.75455 0.01 -0.00350909)
(1.77273 0.01 -0.00354545)
(1.79091 0.01 -0.00358182)
(1.80909 0.01 -0.00361818)
(1.82727 0.01 -0.00365455)
(1.84545 0.01 -0.00369091)
(1.86364 0.01 -0.00372727)
(1.88182 0.01 -0.00376364)
(1.9 0.01 -0.0038)
(1.91818 0.01 -0.00383636)
(1.93636 0.01 -0.00387273)
(1.95455 0.01 -0.00390909)
(1.97273 0.01 -0.00394545)
(1.99091 0.01 -0.00398182)
(2.00909 0.01 -0.00401818)
(2.02727 0.01 -0.00405455)
(2.04545 0.01 -0.00409091)
(2.06364 0.01 -0.00412727)
(2.08182 0.01 -0.00416364)
(2.1 0.01 -0.0042)
(2.11818 0.01 -0.00423636)
(2.13636 0.01 -0.00427273)
(2.15455 0.01 -0.00430909)
(2.17273 0.01 -0.00434545)
(2.19091 0.01 -0.00438182)
(2.20909 0.01 -0.00441818)
(2.22727 0.01 -0.00445455)
(2.24545 0.01 -0.00449091)
(2.26364 0.01 -0.00452727)
(2.28182 0.01 -0.00456364)
(2.3 0.01 -0.0046)
(2.31818 0.01 -0.00463637)
(2.33636 0.01 -0.00467278)
(2.35455 0.01 -0.00470909)
(2.37273 0.01 -0.00474425)
(2.39091 0.01 -0.00477749)
(2.40909 0.01 -0.00480977)
(2.42727 0.01 -0.0048419)
(2.44545 0.01 -0.00487395)
(2.46364 0.01 -0.00490602)
(2.48182 0.01 -0.00493812)
(2.5 0.01 -0.00497026)
(2.51818 0.01 -0.00500246)
(2.53636 0.01 -0.0050347)
(2.55455 0.01 -0.005067)
(2.57273 0.01 -0.00509936)
(2.59091 0.01 -0.00513177)
(2.60909 0.01 -0.00516424)
(2.62727 0.01 -0.00519677)
(2.64545 0.01 -0.00522936)
(2.66364 0.01 -0.00526201)
(2.68182 0.01 -0.00529472)
(2.7 0.01 -0.00532748)
(2.71818 0.01 -0.0053603)
(2.73636 0.01 -0.00539318)
(2.75455 0.01 -0.00542612)
(2.77273 0.01 -0.00545913)
(2.79091 0.01 -0.00549221)
(2.80909 0.01 -0.00552535)
(2.82727 0.01 -0.00555857)
(2.84545 0.01 -0.00559185)
(2.86364 0.01 -0.0056252)
(2.88182 0.01 -0.00565861)
(2.9 0.01 -0.00569208)
(2.91818 0.01 -0.00572563)
(2.93636 0.01 -0.00575924)
(2.95455 0.01 -0.00579293)
(2.97273 0.01 -0.00582667)
(2.99091 0.01 -0.00586049)
(3.00909 0.01 -0.00589437)
(3.02727 0.01 -0.00592832)
(3.04545 0.01 -0.00596233)
(3.06364 0.01 -0.0059964)
(3.08182 0.01 -0.00603054)
(3.1 0.01 -0.00606474)
(3.11818 0.01 -0.006099)
(3.13636 0.01 -0.00613333)
(3.15455 0.01 -0.00616771)
(3.17273 0.01 -0.00620215)
(3.19091 0.01 -0.00623666)
(3.20909 0.01 -0.00627122)
(3.22727 0.01 -0.00630584)
(3.24545 0.01 -0.00634052)
(3.26364 0.01 -0.00637526)
(3.28182 0.01 -0.00641005)
(3.3 0.01 -0.0064449)
(3.31818 0.01 -0.00647981)
(3.33636 0.01 -0.00651477)
(3.35455 0.01 -0.00654979)
(3.37273 0.01 -0.00658486)
(3.39091 0.01 -0.00661998)
(3.40909 0.01 -0.00665515)
(3.42727 0.01 -0.00669037)
(3.44545 0.01 -0.00672564)
(3.46364 0.01 -0.00676096)
(3.48182 0.01 -0.00679632)
(3.5 0.01 -0.00683173)
(3.51818 0.01 -0.00686717)
(3.53636 0.01 -0.00690266)
(3.55455 0.01 -0.00693819)
(3.57273 0.01 -0.00697376)
(3.59091 0.01 -0.00700936)
(3.60909 0.01 -0.007045)
(3.62727 0.01 -0.00708067)
(3.64545 0.01 -0.00711637)
(3.66364 0.01 -0.00715209)
(3.68182 0.01 -0.00718785)
(3.7 0.01 -0.00722362)
(3.71818 0.01 -0.00725941)
(3.73636 0.01 -0.00729523)
(3.75455 0.01 -0.00733106)
(3.77273 0.01 -0.00736692)
(3.79091 0.01 -0.0074028)
(3.80909 0.01 -0.0074387)
(3.82727 0.01 -0.00747461)
(3.84545 0.01 -0.00751054)
(3.86364 0.01 -0.00754648)
(3.88182 0.01 -0.00758242)
(3.9 0.01 -0.00761837)
(3.91818 0.01 -0.00765434)
(3.93636 0.01 -0.00769031)
(3.95455 0.01 -0.00772628)
(3.97273 0.01 -0.00776226)
(3.99091 0.01 -0.00779824)
(4.00909 0.01 -0.00783422)
(4.02727 0.01 -0.00787021)
(4.04545 0.01 -0.00790619)
(4.06364 0.01 -0.00794215)
(4.08182 0.01 -0.00797808)
(4.1 0.01 -0.00801397)
(4.11818 0.01 -0.00804982)
(4.13636 0.01 -0.00808563)
(4.15455 0.01 -0.00812142)
(4.17273 0.01 -0.00815719)
(4.19091 0.01 -0.00819295)
(4.20909 0.01 -0.0082287)
(4.22727 0.01 -0.00826445)
(4.24545 0.01 -0.0083002)
(4.26364 0.01 -0.00833594)
(4.28182 0.01 -0.00837169)
(4.3 0.01 -0.00840743)
(4.31818 0.01 -0.00844318)
(4.33636 0.01 -0.00847893)
(4.35455 0.01 -0.00851468)
(4.37273 0.01 -0.00855043)
(4.39091 0.01 -0.00858619)
(4.40909 0.01 -0.00862195)
(4.42727 0.01 -0.00865771)
(4.44545 0.01 -0.00869348)
(4.46364 0.01 -0.00872925)
(4.48182 0.01 -0.00876503)
(4.5 0.01 -0.00880081)
(4.51818 0.01 -0.0088366)
(4.53636 0.01 -0.0088724)
(4.55455 0.01 -0.0089082)
(4.57273 0.01 -0.00894401)
(4.59091 0.01 -0.00897984)
(4.60909 0.01 -0.00901567)
(4.62727 0.01 -0.00905151)
(4.64545 0.01 -0.00908736)
(4.66364 0.01 -0.00912322)
(4.68182 0.01 -0.00915909)
(4.7 0.01 -0.00919498)
(4.71818 0.01 -0.00923087)
(4.73636 0.01 -0.00926677)
(4.75455 0.01 -0.00930268)
(4.77273 0.01 -0.00933861)
(4.79091 0.01 -0.00937455)
(4.80909 0.01 -0.0094105)
(4.82727 0.01 -0.00944646)
(4.84545 0.01 -0.00948243)
(4.86364 0.01 -0.00951841)
(4.88182 0.01 -0.0095544)
(4.9 0.01 -0.0095904)
(4.91818 0.01 -0.00962642)
(4.93636 0.01 -0.00966244)
(4.95455 0.01 -0.00969848)
(4.97273 0.01 -0.00973453)
(4.99091 0.01 -0.0097706)
(5.00909 0.01 -0.00980668)
(5.02727 0.01 -0.00984278)
(5.04545 0.01 -0.0098789)
(5.06364 0.01 -0.00991504)
(5.08182 0.01 -0.0099512)
(5.1 0.01 -0.00998737)
(5.11818 0.01 -0.0100236)
(5.13636 0.01 -0.0100598)
(5.15455 0.01 -0.010096)
(5.17273 0.01 -0.0101323)
(5.19091 0.01 -0.0101685)
(5.20909 0.01 -0.0102048)
(5.22727 0.01 -0.0102411)
(5.24545 0.01 -0.0102775)
(5.26364 0.01 -0.0103138)
(5.28182 0.01 -0.0103502)
(5.3 0.01 -0.0103866)
(5.31818 0.01 -0.010423)
(5.33636 0.01 -0.0104594)
(5.35455 0.01 -0.0104958)
(5.37273 0.01 -0.0105323)
(5.39091 0.01 -0.0105687)
(5.40909 0.01 -0.0106052)
(5.42727 0.01 -0.0106417)
(5.44545 0.01 -0.0106781)
(5.46364 0.01 -0.0107146)
(5.48182 0.01 -0.010751)
(5.5 0.01 -0.0107874)
(5.51818 0.01 -0.0108238)
(5.53636 0.01 -0.0108602)
(5.55455 0.01 -0.0108966)
(5.57273 0.01 -0.010933)
(5.59091 0.01 -0.0109694)
(5.60909 0.01 -0.0110058)
(5.62727 0.01 -0.0110423)
(5.64545 0.01 -0.0110787)
(5.66364 0.01 -0.0111151)
(5.68182 0.01 -0.0111514)
(5.7 0.01 -0.0111878)
(5.71818 0.01 -0.0112241)
(5.73636 0.01 -0.0112604)
(5.75455 0.01 -0.0112968)
(5.77273 0.01 -0.0113331)
(5.79091 0.01 -0.0113695)
(5.80909 0.01 -0.0114059)
(5.82727 0.01 -0.0114423)
(5.84545 0.01 -0.0114787)
(5.86364 0.01 -0.0115152)
(5.88182 0.01 -0.0115516)
(5.9 0.01 -0.0115881)
(5.91818 0.01 -0.0116245)
(5.93636 0.01 -0.011661)
(5.95455 0.01 -0.0116974)
(5.97273 0.01 -0.0117339)
(5.99091 0.01 -0.0117704)
(6.00909 0.01 -0.0118069)
(6.02727 0.01 -0.0118434)
(6.04545 0.01 -0.0118798)
(6.06364 0.01 -0.0119163)
(6.08182 0.01 -0.0119528)
(6.1 0.01 -0.0119893)
(6.11818 0.01 -0.0120257)
(6.13636 0.01 -0.0120621)
(6.15455 0.01 -0.0120985)
(6.17273 0.01 -0.0121349)
(6.19091 0.01 -0.0121712)
(6.20909 0.01 -0.0122074)
(6.22727 0.01 -0.0122436)
(6.24545 0.01 -0.0122798)
(6.26364 0.01 -0.012316)
(6.28182 0.01 -0.0123521)
(6.3 0.01 -0.0123882)
(6.31818 0.01 -0.0124242)
(6.33636 0.01 -0.0124602)
(6.35455 0.01 -0.0124961)
(6.37273 0.01 -0.012532)
(6.39091 0.01 -0.0125679)
(6.40909 0.01 -0.0126038)
(6.42727 0.01 -0.0126396)
(6.44545 0.01 -0.0126755)
(6.46364 0.01 -0.0127113)
(6.48182 0.01 -0.0127471)
(6.5 0.01 -0.0127829)
(6.51818 0.01 -0.0128188)
(6.53636 0.01 -0.0128546)
(6.55455 0.01 -0.0128904)
(6.57273 0.01 -0.0129261)
(6.59091 0.01 -0.0129619)
(6.60909 0.01 -0.0129977)
(6.62727 0.01 -0.0130335)
(6.64545 0.01 -0.0130692)
(6.66364 0.01 -0.013105)
(6.68182 0.01 -0.0131407)
(6.7 0.01 -0.0131765)
(6.71818 0.01 -0.0132122)
(6.73636 0.01 -0.013248)
(6.75455 0.01 -0.0132837)
(6.77273 0.01 -0.0133195)
(6.79091 0.01 -0.0133553)
(6.80909 0.01 -0.013391)
(6.82727 0.01 -0.0134268)
(6.84545 0.01 -0.0134626)
(6.86364 0.01 -0.0134984)
(6.88182 0.01 -0.0135341)
(6.9 0.01 -0.0135699)
(6.91818 0.01 -0.0136058)
(6.93636 0.01 -0.0136416)
(6.95455 0.01 -0.0136774)
(6.97273 0.01 -0.0137132)
(6.99091 0.01 -0.0137491)
(7.00909 0.01 -0.0137849)
(7.02727 0.01 -0.0138208)
(7.04545 0.01 -0.0138567)
(7.06364 0.01 -0.0138926)
(7.08182 0.01 -0.0139285)
(7.1 0.01 -0.0139644)
(7.11818 0.01 -0.0140004)
(7.13636 0.01 -0.0140363)
(7.15455 0.01 -0.0140723)
(7.17273 0.01 -0.0141083)
(7.19091 0.01 -0.0141443)
(7.20909 0.01 -0.0141803)
(7.22727 0.01 -0.0142162)
(7.24545 0.01 -0.0142522)
(7.26364 0.01 -0.0142883)
(7.28182 0.01 -0.0143243)
(7.3 0.01 -0.0143603)
(7.31818 0.01 -0.0143963)
(7.33636 0.01 -0.0144324)
(7.35455 0.01 -0.0144684)
(7.37273 0.01 -0.0145045)
(7.39091 0.01 -0.0145405)
(7.40909 0.01 -0.0145766)
(7.42727 0.01 -0.0146127)
(7.44545 0.01 -0.0146487)
(7.46364 0.01 -0.0146848)
(7.48182 0.01 -0.0147209)
(7.5 0.01 -0.014757)
(7.51818 0.01 -0.0147931)
(7.53636 0.01 -0.0148292)
(7.55455 0.01 -0.0148653)
(7.57273 0.01 -0.0149014)
(7.59091 0.01 -0.0149376)
(7.60909 0.01 -0.0149737)
(7.62727 0.01 -0.0150098)
(7.64545 0.01 -0.015046)
(7.66364 0.01 -0.0150822)
(7.68182 0.01 -0.0151184)
(7.7 0.01 -0.0151545)
(7.71818 0.01 -0.0151907)
(7.73636 0.01 -0.0152269)
(7.75455 0.01 -0.0152631)
(7.77273 0.01 -0.0152993)
(7.79091 0.01 -0.0153355)
(7.80909 0.01 -0.0153717)
(7.82727 0.01 -0.0154079)
(7.84545 0.01 -0.0154441)
(7.86364 0.01 -0.0154803)
(7.88182 0.01 -0.0155165)
(7.9 0.01 -0.0155527)
(7.91818 0.01 -0.0155889)
(7.93636 0.01 -0.0156251)
(7.95455 0.01 -0.0156613)
(7.97273 0.01 -0.0156975)
(7.99091 0.01 -0.0157337)
(8.00909 0.01 -0.0157699)
(8.02727 0.01 -0.0158061)
(8.04545 0.01 -0.0158423)
(8.06364 0.01 -0.0158785)
(8.08182 0.01 -0.0159147)
(8.1 0.01 -0.0159509)
(8.11818 0.01 -0.0159872)
(8.13636 0.01 -0.0160234)
(8.15455 0.01 -0.0160596)
(8.17273 0.01 -0.0160958)
(8.19091 0.01 -0.016132)
(8.20909 0.01 -0.0161682)
(8.22727 0.01 -0.0162044)
(8.24545 0.01 -0.0162407)
(8.26364 0.01 -0.0162769)
(8.28182 0.01 -0.0163131)
(8.3 0.01 -0.0163493)
(8.31818 0.01 -0.0163856)
(8.33636 0.01 -0.0164218)
(8.35455 0.01 -0.0164581)
(8.37273 0.01 -0.0164943)
(8.39091 0.01 -0.0165306)
(8.40909 0.01 -0.0165669)
(8.42727 0.01 -0.0166032)
(8.44545 0.01 -0.0166395)
(8.46364 0.01 -0.0166758)
(8.48182 0.01 -0.0167121)
(8.5 0.01 -0.0167484)
(8.51818 0.01 -0.0167847)
(8.53636 0.01 -0.016821)
(8.55455 0.01 -0.0168573)
(8.57273 0.01 -0.0168936)
(8.59091 0.01 -0.0169299)
(8.60909 0.01 -0.0169661)
(8.62727 0.01 -0.0170024)
(8.64545 0.01 -0.0170386)
(8.66364 0.01 -0.0170749)
(8.68182 0.01 -0.0171111)
(8.7 0.01 -0.0171474)
(8.71818 0.01 -0.0171836)
(8.73636 0.01 -0.0172198)
(8.75455 0.01 -0.017256)
(8.77273 0.01 -0.0172921)
(8.79091 0.01 -0.0173283)
(8.80909 0.01 -0.0173643)
(8.82727 0.01 -0.0174004)
(8.84545 0.01 -0.0174365)
(8.86364 0.01 -0.0174725)
(8.88182 0.01 -0.0175086)
(8.9 0.01 -0.0175447)
(8.91818 0.01 -0.0175808)
(8.93636 0.01 -0.0176169)
(8.95455 0.01 -0.017653)
(8.97273 0.01 -0.0176891)
(8.99091 0.01 -0.0177252)
(9.00909 0.01 -0.0177612)
(9.02727 0.01 -0.0177973)
(9.04545 0.01 -0.0178333)
(9.06364 0.01 -0.0178693)
(9.08182 0.01 -0.0179053)
(9.1 0.01 -0.0179413)
(9.11818 0.01 -0.0179773)
(9.13636 0.01 -0.0180133)
(9.15455 0.01 -0.0180493)
(9.17273 0.01 -0.0180853)
(9.19091 0.01 -0.0181213)
(9.20909 0.01 -0.0181573)
(9.22727 0.01 -0.0181932)
(9.24545 0.01 -0.0182292)
(9.26364 0.01 -0.0182652)
(9.28182 0.01 -0.0183013)
(9.3 0.01 -0.0183373)
(9.31818 0.01 -0.0183733)
(9.33636 0.01 -0.0184093)
(9.35455 0.01 -0.0184453)
(9.37273 0.01 -0.0184814)
(9.39091 0.01 -0.0185174)
(9.40909 0.01 -0.0185534)
(9.42727 0.01 -0.0185895)
(9.44545 0.01 -0.0186255)
(9.46364 0.01 -0.0186615)
(9.48182 0.01 -0.0186975)
(9.5 0.01 -0.0187335)
(9.51818 0.01 -0.0187694)
(9.53636 0.01 -0.0188053)
(9.55455 0.01 -0.0188411)
(9.57273 0.01 -0.0188768)
(9.59091 0.01 -0.0189123)
(9.60909 0.01 -0.0189476)
(9.62727 0.01 -0.0189825)
(9.64545 0.01 -0.0190169)
(9.66364 0.01 -0.0190505)
(9.68182 0.01 -0.019083)
(9.7 0.01 -0.0191139)
(9.71818 0.01 -0.0191426)
(9.73636 0.01 -0.019168)
(9.75455 0.01 -0.0191919)
(9.77273 0.01 -0.0192114)
(9.79091 0.01 -0.0193189)
(9.80909 0.01 -0.0195277)
(9.82727 0.01 -0.0196545)
(9.84545 0.01 -0.0196909)
(9.86364 0.01 -0.0197273)
(9.88182 0.01 -0.0197636)
(9.9 0.01 -0.0198)
(9.91818 0.01 -0.0198364)
(9.93636 0.01 -0.0198727)
(9.95455 0.01 -0.0199091)
(9.97273 0.01 -0.0199455)
(9.99091 0.01 -0.0199818)
)
;

boundaryField
{
    inlet
    {
        type            calculated;
        value           uniform (0 0 0);
    }
    endWall
    {
        type            calculated;
        value           uniform (0 0 0);
    }
    sideWall
    {
        type            empty;
    }
}


// ************************************************************************* //
