/*--------------------------------*- C++ -*----------------------------------*\
| =========                 |                                                 |
| \\      /  F ield         | foam-extend: Open Source CFD                    |
|  \\    /   O peration     | Version:     3.2                                |
|   \\  /    A nd           | Web:         http://www.foam-extend.org         |
|    \\/     M anipulation  | For copyright notice see file Copyright         |
\*---------------------------------------------------------------------------*/
FoamFile
{
    version     2.0;
    format      ascii;
    class       areaVectorField;
    location    "120";
    object      aUf;
}
// * * * * * * * * * * * * * * * * * * * * * * * * * * * * * * * * * * * * * //

dimensions      [0 1 -1 0 0 0 0];

internalField   nonuniform List<vector> 
550
(
(0.0700391 0 0.000107069)
(0.0822739 0 0.000112752)
(0.0950281 -7.22271e-30 0.000160329)
(0.108014 0 0.000192416)
(0.120885 9.55792e-30 0.000239032)
(0.133291 0 0.000252789)
(0.144939 -3.9274e-29 0.000277846)
(0.155566 7.27392e-29 0.000272392)
(0.165019 8.36582e-29 0.000292273)
(0.173181 -4.19197e-29 0.000309534)
(0.180038 5.18321e-29 0.000314889)
(0.185612 0 0.000301812)
(0.189988 -2.14714e-38 0.000289535)
(0.193264 6.49851e-29 0.00026844)
(0.195564 0 0.000239419)
(0.197007 7.00135e-29 0.000204926)
(0.197724 -7.51723e-29 0.000159719)
(0.197834 6.62575e-29 0.00011699)
(0.197454 4.01298e-29 8.08748e-05)
(0.196715 0 4.68254e-05)
(0.195692 1.39039e-29 1.93006e-05)
(0.194446 -1.14698e-29 -4.30567e-06)
(0.193032 0 -2.51447e-05)
(0.191496 1.2547e-29 -4.62327e-05)
(0.189881 0 -6.72685e-05)
(0.188223 0 -8.84424e-05)
(0.186555 1.82607e-29 -0.000108526)
(0.184905 0 -0.000121217)
(0.183297 0 -0.000127389)
(0.181734 0 -0.000134791)
(0.180217 -1.13042e-29 -0.000141896)
(0.178756 1.1416e-29 -0.000148283)
(0.177353 -1.14541e-29 -0.000154734)
(0.176013 -1.21129e-29 -0.000161518)
(0.174737 1.28488e-29 -0.000168431)
(0.173525 -1.3394e-29 -0.000175295)
(0.172378 0 -0.000181906)
(0.171294 0 -0.000188395)
(0.170272 0 -0.00019512)
(0.16931 1.51299e-29 -0.000201833)
(0.168406 -1.61667e-29 -0.000209324)
(0.167557 0 -0.000217078)
(0.166761 0 -0.000223826)
(0.166014 0 -0.000230301)
(0.165313 -1.69062e-29 -0.00023651)
(0.164656 0 -0.000243058)
(0.16404 0 -0.000250201)
(0.163463 -1.86678e-29 -0.000256962)
(0.162923 1.88182e-29 -0.000263294)
(0.162416 -1.8957e-29 -0.000269231)
(0.161942 0 -0.000274747)
(0.161497 0 -0.000279797)
(0.16108 -1.89377e-29 -0.000284211)
(0.160688 1.86895e-29 -0.000287951)
(0.16032 -1.84069e-29 -0.000291069)
(0.159974 -1.82402e-29 -0.000293765)
(0.159646 -1.78672e-29 -0.00029585)
(0.159337 0 -0.000297193)
(0.159043 0 -0.000298194)
(0.158765 0 -0.000299161)
(0.1585 -1.65185e-29 -0.000299798)
(0.158248 -1.59888e-29 -0.000299928)
(0.158007 0 -0.000299896)
(0.157776 0 -0.000299829)
(0.157555 0 -0.000299758)
(0.157343 -1.50353e-29 -0.000299668)
(0.157139 1.48104e-29 -0.000299523)
(0.156943 0 -0.000299346)
(0.156754 0 -0.000299148)
(0.156571 0 -0.000298872)
(0.156393 0 -0.00029858)
(0.15622 0 -0.000298444)
(0.156052 1.33693e-29 -0.000298431)
(0.155888 0 -0.000298489)
(0.155727 -1.27352e-29 -0.000298516)
(0.15557 -1.25788e-29 -0.00029863)
(0.155415 1.25964e-29 -0.000298943)
(0.155263 0 -0.000299313)
(0.155113 -1.23405e-29 -0.000299674)
(0.154965 1.17639e-29 -0.000299705)
(0.15482 1.11227e-29 -0.000299425)
(0.154677 0 -0.000299147)
(0.154537 0 -0.000299016)
(0.154398 0 -0.000298928)
(0.154262 -2.00725e-29 -0.000298882)
(0.154128 0 -0.000298856)
(0.153995 0 -0.000298827)
(0.153865 9.25042e-30 -0.000298781)
(0.153736 3.7979e-44 -0.000298718)
(0.153608 6.05863e-43 -0.000298578)
(0.153482 -8.47048e-30 -0.000298423)
(0.153357 0 -0.000297806)
(0.153233 4.65284e-42 -0.000297132)
(0.15311 -7.46614e-30 -0.000296669)
(0.152987 7.36096e-42 -0.000296145)
(0.152865 7.07672e-30 -0.0002959)
(0.152744 0 -0.000296035)
(0.152623 0 -0.000296391)
(0.152503 -7.68017e-30 -0.000296957)
(0.152383 0 -0.000297631)
(0.152264 7.64626e-30 -0.000297916)
(0.152146 7.35544e-30 -0.000297786)
(0.152027 0 -0.000297508)
(0.151909 0 -0.000297186)
(0.15179 0 -0.000296845)
(0.15167 0 -0.000296506)
(0.15155 -1.41132e-29 -0.000296161)
(0.151429 7.04145e-30 -0.000295801)
(0.151307 -7.02091e-30 -0.000295411)
(0.151184 -7.0165e-30 -0.000295005)
(0.15106 -1.4034e-29 -0.000294579)
(0.150934 -1.39958e-29 -0.000294112)
(0.150807 7.0006e-30 -0.000293627)
(0.150679 1.40993e-29 -0.000293182)
(0.150549 -6.88086e-30 -0.000292562)
(0.150418 2.1924e-39 -0.000291925)
(0.150285 -1.43394e-29 -0.000291496)
(0.15015 -7.11627e-30 -0.000290977)
(0.150014 6.98215e-30 -0.000290327)
(0.149877 -7.00157e-30 -0.000289714)
(0.149738 1.27033e-38 -0.000289114)
(0.149598 -1.86156e-38 -0.00028851)
(0.149457 2.9018e-38 -0.000287894)
(0.149314 6.98348e-30 -0.000287252)
(0.149171 -1.39394e-29 -0.000286585)
(0.149026 -6.93739e-30 -0.000285862)
(0.148879 -6.93342e-30 -0.000285102)
(0.148732 -2.76911e-36 -0.000284096)
(0.148582 0 -0.000283501)
(0.148431 0 -0.000280997)
(0.14828 0 -0.000267821)
(0.148132 0 -0.000255178)
(0.147986 -4.68515e-30 -0.000251605)
(0.147841 5.33066e-30 -0.000249136)
(0.147697 0 -0.00024789)
(0.147553 6.34878e-30 -0.000247183)
(0.147409 6.48351e-30 -0.000246736)
(0.147264 -6.57942e-30 -0.000246469)
(0.14712 6.61484e-30 -0.00024629)
(0.146975 6.64234e-30 -0.000246183)
(0.146831 1.1418e-37 -0.000246121)
(0.146687 6.65541e-30 -0.000246102)
(0.146542 0 -0.000246115)
(0.146398 0 -0.000246158)
(0.146254 1.01281e-39 -0.000246224)
(0.146111 0 -0.000246311)
(0.145968 6.59952e-30 -0.000246413)
(0.145826 -6.559e-30 -0.000246511)
(0.145684 -6.52674e-30 -0.000246621)
(0.145543 -6.51549e-30 -0.00024678)
(0.145403 6.489e-30 -0.000246969)
(0.145263 6.46309e-30 -0.00024719)
(0.145125 -6.44189e-30 -0.000247455)
(0.144987 0 -0.000247738)
(0.14485 0 -0.000248039)
(0.144715 0 -0.000248368)
(0.14458 -6.28052e-30 -0.000248705)
(0.144447 0 -0.000249035)
(0.144315 6.15839e-30 -0.000249374)
(0.144185 -6.116e-30 -0.000249752)
(0.144056 -6.06214e-30 -0.000250151)
(0.143929 0 -0.000250553)
(0.143803 1.17257e-37 -0.000250957)
(0.143679 0 -0.000251363)
(0.143557 0 -0.000251776)
(0.143436 5.75988e-30 -0.000252189)
(0.143317 5.70257e-30 -0.000252608)
(0.143201 5.64519e-30 -0.000253029)
(0.143086 0 -0.000253456)
(0.142973 5.53613e-30 -0.000253883)
(0.142862 5.48014e-30 -0.000254308)
(0.142752 0 -0.000254727)
(0.142644 0 -0.000255145)
(0.142539 0 -0.000255564)
(0.142434 0 -0.000255979)
(0.142332 -5.23534e-30 -0.000256394)
(0.142231 -1.56559e-37 -0.000256808)
(0.142131 1.03027e-29 -0.000257221)
(0.142033 -5.11447e-30 -0.000257637)
(0.141936 -5.07835e-30 -0.000258058)
(0.141841 0 -0.000258473)
(0.141747 1.60302e-37 -0.000258878)
(0.141655 -9.90923e-30 -0.000259279)
(0.141564 4.91657e-30 -0.000259677)
(0.141474 0 -0.000260078)
(0.141386 -4.83588e-30 -0.000260471)
(0.141299 4.79602e-30 -0.000260861)
(0.141213 -9.51199e-30 -0.000261249)
(0.141129 4.71679e-30 -0.000261633)
(0.141046 0 -0.000262016)
(0.140965 4.63669e-30 -0.000262396)
(0.140885 2.70319e-37 -0.000262777)
(0.140806 -4.55386e-30 -0.00026316)
(0.140729 0 -0.00026355)
(0.140654 0 -0.000263944)
(0.14058 -2.13799e-37 -0.000264336)
(0.140508 0 -0.00026473)
(0.140438 4.31377e-30 -0.000265125)
(0.140369 -6.12986e-37 -0.000265516)
(0.140302 -8.3801e-30 -0.00026589)
(0.140237 -2.02686e-37 -0.000266257)
(0.140174 -4.05073e-30 -0.000266612)
(0.140113 0 -0.00026694)
(0.140054 -3.87685e-30 -0.000267254)
(0.139997 0 -0.000267557)
(0.139942 -8.24461e-37 -0.000267841)
(0.139889 3.62592e-30 -0.000268152)
(0.139838 5.55751e-37 -0.000268465)
(0.139788 -1.87644e-37 -0.000268757)
(0.139741 3.38762e-30 -0.000269035)
(0.139695 3.30455e-30 -0.000269276)
(0.139651 0 -0.000269471)
(0.139609 -3.14985e-30 -0.00026964)
(0.139569 -3.09704e-30 -0.000269811)
(0.13953 3.34174e-37 -0.000269987)
(0.139493 -2.98991e-30 -0.000270146)
(0.139457 2.93953e-30 -0.000270287)
(0.139423 0 -0.000270427)
(0.13939 0 -0.000270552)
(0.139358 0 -0.000270671)
(0.139328 2.8496e-30 -0.000270772)
(0.139299 -2.8413e-30 -0.000270856)
(0.139271 0 -0.000270889)
(0.139244 2.76806e-30 -0.000270837)
(0.139219 0 -0.000270666)
(0.139194 -2.64002e-30 -0.000270403)
(0.13917 2.53581e-30 -0.000270012)
(0.139146 4.91588e-30 -0.000269559)
(0.139122 2.45885e-30 -0.000269168)
(0.139097 -2.45885e-30 -0.00026883)
(0.139072 0 -0.00026855)
(0.139046 0 -0.000268324)
(0.13902 0 -0.000268132)
(0.138993 0 -0.000267965)
(0.138965 0 -0.000267813)
(0.138937 -2.4415e-30 -0.000267669)
(0.138907 2.43083e-30 -0.000267533)
(0.138877 0 -0.000267397)
(0.138847 0 -0.000267261)
(0.138815 2.39653e-30 -0.000267134)
(0.138783 -4.77186e-30 -0.000267008)
(0.138749 0 -0.000266892)
(0.138715 0 -0.000266771)
(0.138681 0 -0.000266662)
(0.138645 0 -0.00026655)
(0.138609 0 -0.00026644)
(0.138572 -2.34823e-30 -0.000266328)
(0.138535 0 -0.00026622)
(0.138497 -2.34115e-30 -0.000266109)
(0.138458 0 -0.000266011)
(0.138419 -2.34686e-30 -0.000265923)
(0.138379 2.34702e-30 -0.000265843)
(0.138339 -2.34257e-30 -0.000265763)
(0.138298 0 -0.000265685)
(0.138257 9.90917e-38 -0.000265607)
(0.138215 0 -0.000265534)
(0.138173 -2.33749e-30 -0.00026546)
(0.13813 0 -0.000265384)
(0.138087 0 -0.00026531)
(0.138044 -2.34267e-30 -0.00026524)
(0.138001 0 -0.00026517)
(0.137957 -4.69151e-30 -0.000265108)
(0.137913 2.34828e-30 -0.00026505)
(0.137869 -5.90439e-38 -0.000264995)
(0.137824 0 -0.000264938)
(0.137779 0 -0.000264879)
(0.137735 0 -0.000264817)
(0.137689 0 -0.000264755)
(0.137644 0 -0.000264693)
(0.137599 0 -0.000264632)
(0.137553 0 -0.000264579)
(0.137507 0 -0.000264533)
(0.137461 0 -0.000264499)
(0.137415 2.382e-30 -0.000264463)
(0.137369 -2.39145e-30 -0.000264441)
(0.137323 0 -0.000264419)
(0.137276 -2.41759e-30 -0.000264422)
(0.13723 0 -0.00026443)
(0.137183 2.44474e-30 -0.000264447)
(0.137136 0 -0.000264462)
(0.137089 -2.4643e-30 -0.000264484)
(0.137041 0 -0.000264502)
(0.136994 -1.33913e-37 -0.000264522)
(0.136946 0 -0.000264532)
(0.136898 0 -0.000264549)
(0.13685 0 -0.000264568)
(0.136802 4.94501e-30 -0.000264601)
(0.136753 0 -0.000264638)
(0.136704 -2.46624e-30 -0.000264683)
(0.136656 0 -0.00026473)
(0.136607 -2.45307e-30 -0.000264783)
(0.136558 0 -0.000264827)
(0.136509 0 -0.000264847)
(0.13646 -4.79029e-30 -0.000264868)
(0.136411 0 -0.000264917)
(0.136362 0 -0.000264962)
(0.136313 -2.338e-30 -0.000264988)
(0.136265 0 -0.000264973)
(0.136217 2.22796e-30 -0.000264896)
(0.136169 4.43711e-30 -0.000264845)
(0.136122 -2.19781e-30 -0.000264811)
(0.136075 -9.15102e-37 -0.000264641)
(0.136029 0 -0.000264394)
(0.135984 0 -0.000264242)
(0.135939 2.07438e-30 -0.000264233)
(0.135895 -1.02572e-37 -0.000264331)
(0.135852 0 -0.00026446)
(0.135809 -6.01444e-37 -0.000264566)
(0.135767 0 -0.000264629)
(0.135726 1.96659e-30 -0.000264631)
(0.135685 0 -0.000264541)
(0.135646 0 -0.000264357)
(0.135607 0 -0.000264199)
(0.13557 1.82407e-30 -0.000264147)
(0.135533 -1.83577e-30 -0.000264165)
(0.135497 0 -0.000264269)
(0.135461 0 -0.000264422)
(0.135427 1.81505e-30 -0.000264556)
(0.135393 -1.79661e-30 -0.000264703)
(0.13536 0 -0.000264856)
(0.135327 -2.7082e-37 -0.000264989)
(0.135295 0 -0.000265101)
(0.135264 -3.3112e-30 -0.000265203)
(0.135233 0 -0.0002653)
(0.135203 0 -0.000265388)
(0.135174 1.52139e-30 -0.000265463)
(0.135145 0 -0.000265526)
(0.135117 0 -0.000265576)
(0.135089 0 -0.000265611)
(0.135062 0 -0.000265632)
(0.135036 0 -0.000265643)
(0.13501 0 -0.000265645)
(0.134984 0 -0.000265633)
(0.13496 1.3011e-30 -0.000265604)
(0.134936 0 -0.000265557)
(0.134912 1.23843e-30 -0.000265478)
(0.134889 -1.20419e-30 -0.000265358)
(0.134867 -5.72631e-37 -0.000265206)
(0.134845 2.29892e-30 -0.000265003)
(0.134824 0 -0.000264726)
(0.134803 0 -0.000264381)
(0.134783 0 -0.000264)
(0.134764 1.08294e-30 -0.000263717)
(0.134744 2.10723e-37 -0.000263592)
(0.134725 0 -0.000263473)
(0.134706 0 -0.000263233)
(0.134687 0 -0.000262852)
(0.134668 0 -0.000262428)
(0.134649 -2.03381e-30 -0.0002621)
(0.134631 -1.02665e-30 -0.000261819)
(0.134612 0 -0.00026154)
(0.134593 1.03259e-30 -0.000261341)
(0.134574 1.05414e-30 -0.000261216)
(0.134555 0 -0.000261134)
(0.134536 0 -0.000261026)
(0.134516 0 -0.000260882)
(0.134496 9.73195e-31 -0.000260745)
(0.134475 0 -0.000260584)
(0.134454 1.50286e-39 -0.000260394)
(0.134432 -9.33612e-38 -0.000260187)
(0.13441 0 -0.000259971)
(0.134387 9.51564e-31 -0.000259755)
(0.134363 0 -0.000259535)
(0.134339 0 -0.000259315)
(0.134314 1.00417e-30 -0.000259086)
(0.134288 0 -0.000258849)
(0.134261 0 -0.000258613)
(0.134233 0 -0.000258378)
(0.134204 0 -0.000258148)
(0.134174 0 -0.000257916)
(0.134143 0 -0.00025769)
(0.13411 0 -0.000257461)
(0.134076 -1.30882e-30 -0.000257239)
(0.13404 0 -0.00025702)
(0.134004 0 -0.000256804)
(0.133966 0 -0.000256589)
(0.133926 0 -0.000256389)
(0.133886 0 -0.000256195)
(0.133844 0 -0.000256015)
(0.133801 0 -0.000255843)
(0.133757 -1.6767e-30 -0.000255677)
(0.133712 -7.73148e-38 -0.000255526)
(0.133665 0 -0.000255376)
(0.133618 1.76099e-30 -0.000255239)
(0.133569 -1.79e-30 -0.000255104)
(0.13352 1.82949e-30 -0.000254989)
(0.133469 -1.86456e-30 -0.000254879)
(0.133418 0 -0.000254787)
(0.133366 1.92986e-30 -0.000254701)
(0.133313 2.6709e-37 -0.000254627)
(0.133259 -3.90637e-30 -0.000254544)
(0.133205 -1.95498e-30 -0.000254464)
(0.133151 -3.88816e-30 -0.000254377)
(0.133096 -1.93059e-30 -0.000254284)
(0.133041 -1.90935e-30 -0.00025418)
(0.132985 0 -0.000254071)
(0.132929 0 -0.000253958)
(0.132873 0 -0.000253845)
(0.132816 0 -0.000253726)
(0.13276 0 -0.000253609)
(0.132703 -1.86545e-30 -0.000253479)
(0.132646 -1.86848e-30 -0.000253342)
(0.132588 1.86985e-30 -0.000253195)
(0.132531 -1.88095e-30 -0.000253045)
(0.132473 0 -0.000252904)
(0.132415 -1.91133e-30 -0.000252761)
(0.132357 0 -0.000252614)
(0.132299 -3.2135e-38 -0.000252465)
(0.132241 -1.955e-30 -0.000252322)
(0.132182 1.97953e-30 -0.000252185)
(0.132123 2.00661e-30 -0.000252052)
(0.132065 -2.03658e-30 -0.000251922)
(0.132005 0 -0.000251797)
(0.131946 0 -0.000251681)
(0.131886 0 -0.00025157)
(0.131827 0 -0.000251468)
(0.131767 0 -0.000251375)
(0.131707 2.16894e-30 -0.000251281)
(0.131647 -2.17696e-30 -0.000251198)
(0.131587 -2.1803e-30 -0.000251117)
(0.131527 0 -0.000251048)
(0.131467 -4.37687e-30 -0.000250972)
(0.131407 0 -0.000250897)
(0.131347 0 -0.000250819)
(0.131287 -2.19146e-30 -0.000250729)
(0.131228 0 -0.000250614)
(0.131168 -4.36516e-30 -0.000250493)
(0.131109 0 -0.00025035)
(0.13105 1.33466e-37 -0.000250219)
(0.130991 0 -0.000250116)
(0.130933 2.22998e-30 -0.000250002)
(0.130874 -2.24162e-30 -0.000249876)
(0.130816 0 -0.000249722)
(0.130757 0 -0.000249574)
(0.130699 -2.3495e-30 -0.000249514)
(0.130641 -2.38678e-30 -0.000249484)
(0.130584 2.38194e-30 -0.000249422)
(0.130526 0 -0.000249335)
(0.130469 2.37879e-30 -0.000249248)
(0.130412 0 -0.000249153)
(0.130355 0 -0.000249063)
(0.130298 0 -0.000249054)
(0.130242 -2.41922e-30 -0.000249114)
(0.130186 2.39022e-30 -0.000249153)
(0.13013 0 -0.00024915)
(0.130075 2.30696e-30 -0.000249125)
(0.13002 7.53296e-38 -0.000249088)
(0.129965 -3.76074e-38 -0.000249066)
(0.129911 0 -0.000249039)
(0.129857 2.17567e-30 -0.000249024)
(0.129804 -2.14926e-30 -0.000249028)
(0.129751 -2.11821e-30 -0.000249029)
(0.129699 -2.97099e-37 -0.000249014)
(0.129647 2.04491e-30 -0.000248973)
(0.129595 -2.02329e-30 -0.00024893)
(0.129544 2.03401e-30 -0.000248939)
(0.129494 2.03918e-30 -0.000248997)
(0.129444 0 -0.00024905)
(0.129395 -1.97618e-30 -0.000249086)
(0.129346 0 -0.000249115)
(0.129297 8.63309e-38 -0.000249129)
(0.12925 -1.87171e-30 -0.00024913)
(0.129202 1.84473e-30 -0.000249128)
(0.129156 0 -0.000249125)
(0.129109 0 -0.000249108)
(0.129064 0 -0.000249083)
(0.129018 0 -0.000249043)
(0.128974 -1.72562e-30 -0.000248993)
(0.12893 0 -0.000248927)
(0.128886 0 -0.000248854)
(0.128843 0 -0.00024878)
(0.128801 0 -0.0002487)
(0.12876 3.05795e-30 -0.000248588)
(0.128719 -1.50239e-30 -0.000248463)
(0.128679 1.48798e-30 -0.000248339)
(0.128639 0 -0.000248216)
(0.1286 0 -0.000248093)
(0.128561 0 -0.00024798)
(0.128522 0 -0.000247854)
(0.128484 0 -0.000247731)
(0.128446 0 -0.000247545)
(0.128408 0 -0.000247293)
(0.128371 1.52562e-30 -0.000247057)
(0.128334 3.04428e-30 -0.000246816)
(0.128298 0 -0.000246545)
(0.128262 0 -0.000246483)
(0.128227 -1.66764e-30 -0.000246547)
(0.128192 -1.67146e-30 -0.000246629)
(0.128157 -3.28257e-30 -0.000246684)
(0.128123 -1.62482e-30 -0.000246721)
(0.128089 3.1665e-30 -0.000246709)
(0.128055 1.45063e-37 -0.000246706)
(0.128022 0 -0.000246652)
(0.127988 -1.51008e-30 -0.000246599)
(0.127956 0 -0.000246487)
(0.127923 0 -0.000246401)
(0.127891 0 -0.00024626)
(0.127859 0 -0.00024615)
(0.127827 -1.26553e-30 -0.000245971)
(0.127795 0 -0.00024582)
(0.127762 0 -0.000245598)
(0.127729 4.55159e-38 -0.000245423)
(0.127695 0 -0.000245175)
(0.127661 1.38549e-30 -0.000245022)
(0.127626 2.10696e-37 -0.000244815)
(0.12759 0 -0.000244735)
(0.127553 -1.48616e-30 -0.000244597)
(0.127515 0 -0.000244578)
(0.127476 0 -0.000244477)
(0.127437 0 -0.000244479)
(0.127397 1.5618e-30 -0.000244357)
(0.127357 -1.62954e-30 -0.000244349)
(0.127315 -3.02051e-30 -0.000244201)
(0.127274 -3.11997e-30 -0.000244177)
(0.127231 0 -0.000243994)
(0.127189 -1.03384e-38 -0.000243939)
(0.127145 -2.89181e-37 -0.0002437)
(0.127101 1.38608e-30 -0.00024356)
(0.127057 0 -0.0002432)
(0.127012 0 -0.000242895)
(0.126966 0 -0.00024234)
(0.12692 3.32582e-37 -0.000241827)
(0.126872 0 -0.00024097)
(0.126824 2.70229e-30 -0.000240201)
(0.126774 -1.1535e-30 -0.000238814)
(0.126722 -1.3891e-30 -0.000237324)
(0.126666 0 -0.000234963)
(0.126608 -9.07972e-31 -0.000231407)
(0.126542 -9.01523e-31 -0.000226284)
(0.126472 0 -0.000219345)
(0.126387 0 -0.000208491)
(0.126293 0 -0.000195245)
(0.12617 2.0995e-34 -0.000173897)
(0.126028 9.13669e-30 -0.000148821)
(0.12583 -1.8862e-29 -0.000107795)
(0.125596 -6.91235e-30 -6.15232e-05)
(0.125239 0 -8.89569e-06)
(0.124843 0 0.000171034)
(0.123978 1.77409e-27 -0.000575877)
(0.122519 -3.31188e-28 -0.000602149)
(0.120606 4.8592e-28 0.000523389)
(0.118136 0 0.00103179)
(0.114409 0 0.00171486)
(0.1092 0 0.00219824)
(0.101665 0 0.00321627)
(0.0906567 4.19807e-28 0.00696597)
(0.0705374 0 0.0123708)
(0.0180182 0 0.046149)
(-0.0563941 0 0.00600179)
(-0.0730162 0 -0.0112452)
)
;

boundaryField
{
    inlet
    {
        type            calculated;
        value           uniform (0 0 0);
    }
    endWall
    {
        type            calculated;
        value           uniform (0 0 0);
    }
    sideWall
    {
        type            empty;
    }
}


// ************************************************************************* //
