/*--------------------------------*- C++ -*----------------------------------*\
| =========                 |                                                 |
| \\      /  F ield         | foam-extend: Open Source CFD                    |
|  \\    /   O peration     | Version:     3.2                                |
|   \\  /    A nd           | Web:         http://www.foam-extend.org         |
|    \\/     M anipulation  | For copyright notice see file Copyright         |
\*---------------------------------------------------------------------------*/
FoamFile
{
    version     2.0;
    format      ascii;
    class       volScalarField;
    location    "120";
    object      C;
}
// * * * * * * * * * * * * * * * * * * * * * * * * * * * * * * * * * * * * * //

dimensions      [1 -3 0 0 0 0 0];

internalField   nonuniform List<scalar> 
33000
(
0.0235
0.0235
0.0235
0.0235
0.0235
0.0235
0.0235
0.0235
0.0235
0.0235
0.0235
0.0235
0.0235
0.0235
0.0235
0.0235
0.0235
0.0235
0.0235
0.0235
0.0235
0.0235
0.0235
0.0235
0.0235
0.0235
0.0235
0.0235
0.0235
0.0235
0.0235
0.0235
0.0235
0.0235
0.0235
0.0235
0.0235
0.0235
0.0235
0.0235
0.0235
0.0235
0.0235
0.0235
0.0235
0.0235
0.0235
0.0235
0.0235
0.0235
0.0235
0.0235
0.0235
0.0235
0.0235
0.0235
0.0235
0.0235
0.0235
0.0235
0.0235
0.0235
0.0235
0.0235
0.0235
0.0235
0.0235
0.0234999
0.0234999
0.0234999
0.0234999
0.0234999
0.0234999
0.0234999
0.0234998
0.0234998
0.0234998
0.0234998
0.0234997
0.0234997
0.0234996
0.0234996
0.0234995
0.0234995
0.0234994
0.0234993
0.0234992
0.0234991
0.0234989
0.0234988
0.0234986
0.0234984
0.0234982
0.023498
0.0234977
0.0234974
0.023497
0.0234967
0.0234962
0.0234958
0.0234953
0.0234947
0.0234941
0.0234934
0.0234927
0.0234919
0.023491
0.0234901
0.023489
0.023488
0.0234868
0.0234855
0.0234842
0.0234828
0.0234813
0.0234797
0.023478
0.0234763
0.0234744
0.0234725
0.0234704
0.0234683
0.0234661
0.0234637
0.0234613
0.0234588
0.0234562
0.0234535
0.0234507
0.0234478
0.0234485
0.0234482
0.0234471
0.0234454
0.0234431
0.0234402
0.0234368
0.0234328
0.0234284
0.0234234
0.023418
0.0234122
0.023406
0.0233994
0.0233926
0.0233854
0.023378
0.0233703
0.0233624
0.0233543
0.0233459
0.0233374
0.0233286
0.0233197
0.0233106
0.0233014
0.023292
0.0232825
0.0232728
0.023263
0.0232531
0.0232431
0.0232329
0.0232227
0.0232123
0.0232018
0.0231913
0.0231807
0.0231701
0.0231593
0.0231486
0.0231377
0.0231269
0.023116
0.0231051
0.0230941
0.0230832
0.0230722
0.0230612
0.0230502
0.0230393
0.0230283
0.0230173
0.0230063
0.0229954
0.0229845
0.0229735
0.0229627
0.0229518
0.022941
0.0229302
0.0229195
0.0229088
0.0228981
0.0228875
0.022877
0.0228664
0.022856
0.0228456
0.0228352
0.0228249
0.0228147
0.0228045
0.0227944
0.0227843
0.0227743
0.0227644
0.0227545
0.0227447
0.022735
0.0227253
0.0227157
0.0227062
0.0226967
0.0226873
0.022678
0.0226687
0.0226595
0.0226504
0.0226413
0.0226323
0.0226234
0.0226145
0.0226057
0.022597
0.0225883
0.0225796
0.022571
0.0225625
0.022554
0.0225455
0.0225371
0.0225287
0.0225203
0.022512
0.0225037
0.0224954
0.0224872
0.022479
0.0224708
0.0224626
0.0224545
0.0224463
0.0224383
0.0224302
0.0224222
0.0224141
0.0224062
0.0223982
0.0223903
0.0223823
0.0223745
0.0223666
0.0223588
0.022351
0.0223432
0.0223355
0.0223278
0.0223201
0.0223124
0.0223048
0.0222972
0.0222896
0.0222821
0.0222746
0.0222671
0.0222596
0.0222521
0.0222446
0.0222372
0.0222297
0.0222223
0.0222149
0.0222074
0.0222
0.0221926
0.0221851
0.0221777
0.0221702
0.0221628
0.0221553
0.0221478
0.0221403
0.0221328
0.0221252
0.0221177
0.0221101
0.0221026
0.022095
0.0220874
0.0220797
0.0220721
0.0220644
0.0220568
0.0220491
0.0220414
0.0220338
0.0220261
0.0220184
0.0220107
0.022003
0.0219953
0.0219876
0.0219799
0.0219722
0.0219646
0.0219569
0.0219492
0.0219416
0.0219339
0.0219263
0.0219186
0.021911
0.0219033
0.0218957
0.0218881
0.0218804
0.0218728
0.0218651
0.0218574
0.0218497
0.021842
0.0218343
0.0218265
0.0218188
0.0218111
0.0218034
0.0217957
0.021788
0.0217804
0.0217728
0.0217651
0.0217576
0.02175
0.0217425
0.021735
0.0217276
0.0217201
0.0217128
0.0217054
0.0216981
0.0216907
0.0216833
0.021676
0.0216686
0.0216612
0.0216538
0.0216463
0.0216389
0.0216314
0.021624
0.0216165
0.021609
0.0216015
0.0215939
0.0215864
0.0215789
0.0215713
0.0215638
0.0215563
0.0215487
0.0215412
0.0215336
0.021526
0.0215185
0.0215109
0.0215034
0.0214958
0.0214883
0.0214807
0.0214731
0.0214656
0.021458
0.0214505
0.0214429
0.0214354
0.0214278
0.0214203
0.0214128
0.0214052
0.0213977
0.0213902
0.0213827
0.0213752
0.0213678
0.0213603
0.0213529
0.0213455
0.021338
0.0213307
0.0213233
0.0213159
0.0213086
0.0213013
0.021294
0.0212868
0.0212796
0.0212724
0.0212652
0.0212581
0.0212509
0.0212438
0.0212367
0.0212297
0.0212227
0.0212157
0.0212087
0.0212017
0.0211947
0.0211878
0.0211809
0.021174
0.0211671
0.0211602
0.0211533
0.0211464
0.0211395
0.0211327
0.0211258
0.0211189
0.021112
0.0211052
0.0210983
0.0210914
0.0210845
0.0210776
0.0210706
0.0210637
0.0210568
0.0210498
0.0210428
0.0210358
0.0210288
0.0210218
0.0210148
0.0210077
0.0210006
0.0209935
0.0209864
0.0209793
0.0209721
0.0209649
0.0209577
0.0209505
0.0209432
0.0209359
0.0209287
0.0209213
0.020914
0.0209067
0.0208993
0.0208919
0.0208845
0.020877
0.0208696
0.0208621
0.0208546
0.020847
0.0208395
0.0208319
0.0208244
0.0208168
0.0208092
0.0208015
0.0207939
0.0207862
0.0207786
0.0207709
0.0207633
0.0207556
0.0207479
0.0207402
0.0207325
0.0207249
0.0207172
0.0207095
0.0207018
0.020694
0.0206863
0.0206786
0.0206708
0.0206631
0.0206554
0.0206476
0.0206399
0.0206321
0.0206244
0.0206166
0.0206089
0.0206011
0.0205934
0.0205856
0.0205779
0.0205702
0.0205624
0.0205547
0.020547
0.0205393
0.0205316
0.0205239
0.0205162
0.0205086
0.0205009
0.0204931
0.0204854
0.0204777
0.02047
0.0204622
0.0204545
0.0204467
0.0204389
0.0204311
0.0204233
0.0204155
0.0204077
0.0203999
0.0203921
0.0203843
0.0203765
0.0203687
0.0203608
0.020353
0.0203452
0.0203373
0.0203294
0.0203215
0.0203136
0.0203056
0.0202975
0.0202893
0.0202809
0.0202722
0.020263
0.0202533
0.0202427
0.0202308
0.0202176
0.020202
0.0201842
0.0202235
0.020257
0.0202862
0.0203116
0.0203329
0.0203519
0.0203668
0.0203845
0.0205031
0.020605
0.0206091
0.0235
0.0235
0.0235
0.0235
0.0235
0.0235
0.0235
0.0235
0.0235
0.0235
0.0235
0.0235
0.0235
0.0235
0.0235
0.0235
0.0235
0.0235
0.0235
0.0235
0.0235
0.0235
0.0235
0.0235
0.0235
0.0235
0.0235
0.0235
0.0235
0.0235
0.0235
0.0235
0.0235
0.0235
0.0235
0.0235
0.0235
0.0235
0.0235
0.0235
0.0235
0.0235
0.0235
0.0235
0.0235
0.0235
0.0235
0.0235
0.0235
0.0235
0.0235
0.0235
0.0235
0.0235
0.0235
0.0235
0.0235
0.0235
0.0235
0.0235
0.0234999
0.0234999
0.0234999
0.0234999
0.0234999
0.0234999
0.0234999
0.0234999
0.0234998
0.0234998
0.0234998
0.0234997
0.0234997
0.0234997
0.0234996
0.0234996
0.0234995
0.0234994
0.0234993
0.0234992
0.0234991
0.023499
0.0234988
0.0234987
0.0234985
0.0234983
0.0234981
0.0234978
0.0234975
0.0234972
0.0234968
0.0234964
0.0234959
0.0234954
0.0234948
0.0234942
0.0234935
0.0234927
0.0234919
0.023491
0.02349
0.0234889
0.0234877
0.0234864
0.0234851
0.0234836
0.0234821
0.0234804
0.0234787
0.0234768
0.0234749
0.0234728
0.0234707
0.0234684
0.023466
0.0234636
0.023461
0.0234583
0.0234555
0.0234526
0.0234497
0.0234466
0.0234434
0.0234401
0.0234368
0.0234333
0.0234298
0.0234261
0.0234224
0.0234186
0.023415
0.0234114
0.0234078
0.0234042
0.0234005
0.0233967
0.0233928
0.0233888
0.0233846
0.0233802
0.0233757
0.0233709
0.023366
0.0233609
0.0233557
0.0233503
0.0233447
0.023339
0.0233332
0.0233272
0.0233211
0.0233148
0.0233084
0.023302
0.0232954
0.0232886
0.0232818
0.0232749
0.0232679
0.0232607
0.0232535
0.0232462
0.0232388
0.0232313
0.0232238
0.0232161
0.0232084
0.0232006
0.0231928
0.0231849
0.0231769
0.0231689
0.0231608
0.0231526
0.0231445
0.0231362
0.023128
0.0231197
0.0231114
0.023103
0.0230946
0.0230862
0.0230778
0.0230693
0.0230608
0.0230524
0.0230439
0.0230354
0.0230269
0.0230184
0.0230099
0.0230014
0.0229929
0.0229844
0.0229759
0.0229674
0.022959
0.0229505
0.0229421
0.0229337
0.0229253
0.022917
0.0229086
0.0229003
0.022892
0.0228838
0.0228755
0.0228673
0.0228591
0.022851
0.0228429
0.0228348
0.0228268
0.0228187
0.0228108
0.0228028
0.0227949
0.0227871
0.0227793
0.0227715
0.0227638
0.0227561
0.0227484
0.0227408
0.0227333
0.0227258
0.0227183
0.0227109
0.0227035
0.0226962
0.0226889
0.0226816
0.0226744
0.0226673
0.0226601
0.022653
0.022646
0.022639
0.022632
0.022625
0.0226181
0.0226112
0.0226044
0.0225975
0.0225908
0.022584
0.0225773
0.0225705
0.0225639
0.0225572
0.0225506
0.022544
0.0225374
0.0225308
0.0225243
0.0225178
0.0225113
0.0225048
0.0224983
0.0224919
0.0224854
0.022479
0.0224725
0.0224661
0.0224596
0.0224531
0.0224466
0.0224401
0.0224336
0.0224271
0.0224205
0.0224138
0.0224072
0.0224005
0.0223938
0.022387
0.0223802
0.0223733
0.0223664
0.0223595
0.0223525
0.0223455
0.0223384
0.0223313
0.0223242
0.022317
0.0223098
0.0223025
0.0222953
0.0222879
0.0222806
0.0222732
0.0222658
0.0222584
0.0222509
0.0222434
0.0222359
0.0222284
0.0222209
0.0222134
0.0222058
0.0221983
0.0221907
0.0221832
0.0221756
0.022168
0.0221605
0.0221529
0.0221454
0.0221379
0.0221303
0.0221228
0.0221153
0.0221078
0.0221003
0.0220928
0.0220853
0.0220779
0.0220704
0.0220629
0.0220555
0.0220481
0.0220406
0.0220332
0.0220258
0.0220184
0.0220111
0.0220037
0.0219964
0.0219891
0.0219819
0.0219746
0.0219674
0.0219602
0.0219531
0.021946
0.0219389
0.0219319
0.0219249
0.0219179
0.0219109
0.021904
0.0218971
0.0218902
0.0218834
0.0218766
0.0218698
0.021863
0.0218562
0.0218494
0.0218427
0.0218359
0.0218292
0.0218225
0.0218158
0.0218092
0.0218025
0.0217959
0.0217893
0.0217827
0.0217761
0.0217695
0.021763
0.0217565
0.02175
0.0217435
0.0217371
0.0217306
0.0217242
0.0217178
0.0217115
0.0217051
0.0216988
0.0216925
0.0216862
0.0216799
0.0216736
0.0216674
0.0216612
0.021655
0.0216488
0.0216426
0.0216365
0.0216304
0.0216243
0.0216182
0.0216121
0.0216061
0.0216001
0.0215941
0.0215881
0.0215821
0.0215762
0.0215702
0.0215643
0.0215585
0.0215526
0.0215468
0.0215409
0.0215351
0.0215293
0.0215236
0.0215178
0.0215121
0.0215063
0.0215006
0.0214948
0.0214891
0.0214834
0.0214776
0.0214719
0.0214661
0.0214604
0.0214546
0.0214488
0.021443
0.0214371
0.0214312
0.0214254
0.0214194
0.0214135
0.0214075
0.0214015
0.0213954
0.0213893
0.0213832
0.021377
0.0213708
0.0213646
0.0213584
0.0213521
0.0213457
0.0213394
0.021333
0.0213265
0.0213201
0.0213136
0.021307
0.0213005
0.0212939
0.0212873
0.0212807
0.021274
0.0212673
0.0212606
0.0212539
0.0212471
0.0212404
0.0212336
0.0212268
0.0212199
0.0212131
0.0212063
0.0211994
0.0211925
0.0211856
0.0211787
0.0211718
0.0211649
0.021158
0.0211511
0.0211441
0.0211372
0.0211303
0.0211233
0.0211164
0.0211095
0.0211025
0.0210956
0.0210887
0.0210817
0.0210748
0.0210679
0.021061
0.0210541
0.0210472
0.0210403
0.0210334
0.0210265
0.0210196
0.0210128
0.0210059
0.0209991
0.0209922
0.0209854
0.0209786
0.0209718
0.020965
0.0209582
0.0209514
0.0209447
0.0209379
0.0209312
0.0209245
0.0209178
0.0209111
0.0209044
0.0208978
0.0208911
0.0208845
0.0208779
0.0208713
0.0208648
0.0208582
0.0208516
0.0208451
0.0208386
0.0208321
0.0208255
0.020819
0.0208125
0.0208061
0.0207996
0.0207931
0.0207866
0.0207802
0.0207737
0.0207672
0.0207608
0.0207543
0.0207479
0.0207414
0.020735
0.0207286
0.0207221
0.0207157
0.0207092
0.0207028
0.0206963
0.0206898
0.0206832
0.0206765
0.0206696
0.0206625
0.0206552
0.0206476
0.0206397
0.0206288
0.0206138
0.0206029
0.0205926
0.0205813
0.0205667
0.0205496
0.0205274
0.0204957
0.0204695
0.0204919
0.0205922
0.0206092
0.0235
0.0235
0.0235
0.0235
0.0235
0.0235
0.0235
0.0235
0.0235
0.0235
0.0235
0.0235
0.0235
0.0235
0.0235
0.0235
0.0235
0.0235
0.0235
0.0235
0.0235
0.0235
0.0235
0.0235
0.0235
0.0235
0.0235
0.0235
0.0235
0.0235
0.0235
0.0235
0.0235
0.0235
0.0235
0.0235
0.0235
0.0235
0.0235
0.0235
0.0235
0.0235
0.0235
0.0235
0.0235
0.0235
0.0235
0.0235
0.0235
0.0235
0.0235
0.0235
0.0234999
0.0234999
0.0234999
0.0234999
0.0234999
0.0234999
0.0234999
0.0234999
0.0234998
0.0234998
0.0234998
0.0234998
0.0234997
0.0234997
0.0234997
0.0234996
0.0234995
0.0234995
0.0234994
0.0234993
0.0234992
0.0234991
0.023499
0.0234989
0.0234987
0.0234985
0.0234983
0.0234981
0.0234978
0.0234975
0.0234972
0.0234968
0.0234964
0.023496
0.0234954
0.0234949
0.0234942
0.0234935
0.0234927
0.0234918
0.0234908
0.0234898
0.0234886
0.0234874
0.023486
0.0234845
0.0234829
0.0234812
0.0234794
0.0234774
0.0234753
0.0234731
0.0234707
0.0234683
0.0234656
0.0234629
0.02346
0.023457
0.0234539
0.0234507
0.0234473
0.0234439
0.0234403
0.0234366
0.0234328
0.023429
0.023425
0.0234209
0.0234167
0.0234125
0.0234082
0.0234037
0.0233992
0.0233947
0.02339
0.0233853
0.0233806
0.0233758
0.0233709
0.023366
0.0233611
0.0233562
0.0233512
0.0233463
0.0233413
0.0233363
0.0233312
0.0233261
0.023321
0.0233157
0.0233104
0.0233051
0.0232996
0.0232941
0.0232886
0.0232829
0.0232773
0.0232715
0.0232657
0.0232598
0.0232539
0.0232479
0.0232419
0.0232357
0.0232296
0.0232234
0.0232171
0.0232108
0.0232044
0.023198
0.0231915
0.023185
0.0231784
0.0231718
0.0231651
0.0231584
0.0231516
0.0231448
0.023138
0.0231311
0.0231242
0.0231172
0.0231103
0.0231032
0.0230962
0.0230891
0.023082
0.0230749
0.0230678
0.0230606
0.0230534
0.0230462
0.023039
0.0230318
0.0230245
0.0230173
0.02301
0.0230028
0.0229955
0.0229883
0.022981
0.0229737
0.0229665
0.0229592
0.022952
0.0229447
0.0229375
0.0229302
0.022923
0.0229158
0.0229086
0.0229014
0.0228942
0.022887
0.0228799
0.0228728
0.0228657
0.0228586
0.0228515
0.0228444
0.0228374
0.0228304
0.0228234
0.0228165
0.0228095
0.0228026
0.0227958
0.0227889
0.0227821
0.0227754
0.0227686
0.0227619
0.0227553
0.0227486
0.0227421
0.0227355
0.022729
0.0227225
0.0227161
0.0227097
0.0227034
0.022697
0.0226908
0.0226845
0.0226783
0.0226722
0.022666
0.0226599
0.0226539
0.0226478
0.0226418
0.0226359
0.0226299
0.022624
0.0226182
0.0226123
0.0226065
0.0226007
0.0225949
0.0225892
0.0225834
0.0225777
0.022572
0.0225662
0.0225605
0.0225548
0.022549
0.0225432
0.0225374
0.0225316
0.0225257
0.0225198
0.0225139
0.0225079
0.0225018
0.0224957
0.0224895
0.0224833
0.022477
0.0224706
0.0224642
0.0224576
0.022451
0.0224444
0.0224376
0.0224308
0.0224239
0.022417
0.02241
0.0224029
0.0223958
0.0223887
0.0223815
0.0223742
0.022367
0.0223596
0.0223523
0.0223449
0.0223375
0.02233
0.0223226
0.0223151
0.0223076
0.0223
0.0222925
0.022285
0.0222774
0.0222698
0.0222623
0.0222547
0.0222472
0.0222396
0.0222321
0.0222246
0.0222171
0.0222096
0.0222021
0.0221946
0.0221871
0.0221797
0.0221723
0.0221649
0.0221575
0.0221501
0.0221428
0.0221355
0.0221281
0.0221209
0.0221136
0.0221063
0.0220991
0.0220919
0.0220848
0.0220776
0.0220705
0.0220634
0.0220564
0.0220493
0.0220424
0.0220354
0.0220285
0.0220217
0.0220148
0.022008
0.0220013
0.0219946
0.0219879
0.0219813
0.0219747
0.0219681
0.0219616
0.0219551
0.0219487
0.0219422
0.0219359
0.0219295
0.0219232
0.0219168
0.0219106
0.0219043
0.0218981
0.0218919
0.0218857
0.0218796
0.0218735
0.0218674
0.0218614
0.0218553
0.0218494
0.0218434
0.0218375
0.0218316
0.0218257
0.0218199
0.0218141
0.0218083
0.0218026
0.0217969
0.0217912
0.0217855
0.0217799
0.0217743
0.0217687
0.0217632
0.0217577
0.0217522
0.0217467
0.0217413
0.0217359
0.0217305
0.0217251
0.0217198
0.0217145
0.0217092
0.0217039
0.0216987
0.0216934
0.0216882
0.0216831
0.0216779
0.0216728
0.0216677
0.0216626
0.0216575
0.0216524
0.0216474
0.0216423
0.0216373
0.0216323
0.0216273
0.0216222
0.0216172
0.0216122
0.0216071
0.021602
0.0215969
0.0215918
0.0215867
0.0215815
0.0215763
0.021571
0.0215657
0.0215603
0.0215549
0.0215495
0.0215439
0.0215384
0.0215328
0.0215271
0.0215214
0.0215156
0.0215097
0.0215039
0.0214979
0.0214919
0.0214859
0.0214798
0.0214737
0.0214675
0.0214613
0.021455
0.0214487
0.0214424
0.021436
0.0214296
0.0214232
0.0214167
0.0214102
0.0214037
0.0213972
0.0213907
0.0213841
0.0213775
0.0213709
0.0213643
0.0213577
0.021351
0.0213444
0.0213377
0.0213311
0.0213244
0.0213178
0.0213111
0.0213044
0.0212978
0.0212911
0.0212845
0.0212778
0.0212712
0.0212645
0.0212579
0.0212513
0.0212446
0.021238
0.0212314
0.0212249
0.0212183
0.0212117
0.0212052
0.0211986
0.0211921
0.0211856
0.0211791
0.0211727
0.0211662
0.0211597
0.0211533
0.0211469
0.0211405
0.0211341
0.0211278
0.0211214
0.0211151
0.0211088
0.0211025
0.0210962
0.02109
0.0210837
0.0210775
0.0210713
0.0210651
0.021059
0.0210529
0.0210468
0.0210407
0.0210346
0.0210286
0.0210226
0.0210166
0.0210106
0.0210046
0.0209987
0.0209928
0.0209869
0.020981
0.0209752
0.0209694
0.0209636
0.0209578
0.020952
0.0209462
0.0209405
0.0209347
0.020929
0.0209233
0.0209176
0.0209119
0.0209062
0.0209005
0.0208949
0.0208892
0.0208836
0.0208779
0.0208723
0.0208667
0.020861
0.0208554
0.0208497
0.020844
0.0208383
0.0208325
0.0208266
0.0208206
0.0208143
0.0208077
0.020799
0.0207878
0.0207759
0.020762
0.0207453
0.0207233
0.0206952
0.0206585
0.0206073
0.0205546
0.020531
0.0205732
0.0206095
0.0235
0.0235
0.0235
0.0235
0.0235
0.0235
0.0235
0.0235
0.0235
0.0235
0.0235
0.0235
0.0235
0.0235
0.0235
0.0235
0.0235
0.0235
0.0235
0.0235
0.0235
0.0235
0.0235
0.0235
0.0235
0.0235
0.0235
0.0235
0.0235
0.0235
0.0235
0.0235
0.0235
0.0235
0.0235
0.0235
0.0235
0.0235
0.0235
0.0235
0.0235
0.0234999
0.0234999
0.0234999
0.0234999
0.0234999
0.0234999
0.0234999
0.0234999
0.0234999
0.0234998
0.0234998
0.0234998
0.0234998
0.0234997
0.0234997
0.0234997
0.0234996
0.0234996
0.0234995
0.0234995
0.0234994
0.0234993
0.0234993
0.0234992
0.0234991
0.0234989
0.0234988
0.0234987
0.0234985
0.0234983
0.0234981
0.0234978
0.0234976
0.0234973
0.0234969
0.0234965
0.0234961
0.0234956
0.023495
0.0234944
0.0234937
0.023493
0.0234921
0.0234912
0.0234902
0.023489
0.0234878
0.0234864
0.0234849
0.0234833
0.0234815
0.0234796
0.0234776
0.0234754
0.023473
0.0234705
0.0234678
0.023465
0.023462
0.0234588
0.0234555
0.023452
0.0234484
0.0234446
0.0234406
0.0234365
0.0234323
0.023428
0.0234235
0.0234189
0.0234142
0.0234094
0.0234045
0.0233995
0.0233944
0.0233893
0.023384
0.0233788
0.0233734
0.023368
0.0233625
0.023357
0.0233515
0.0233459
0.0233403
0.0233346
0.0233289
0.0233232
0.0233175
0.0233117
0.0233059
0.0233001
0.0232944
0.0232886
0.0232828
0.0232771
0.0232713
0.0232656
0.0232598
0.0232541
0.0232484
0.0232426
0.0232369
0.0232311
0.0232253
0.0232196
0.0232138
0.023208
0.0232022
0.0231964
0.0231906
0.0231847
0.0231789
0.023173
0.0231672
0.0231613
0.0231554
0.0231494
0.0231435
0.0231375
0.0231316
0.0231256
0.0231196
0.0231135
0.0231075
0.0231014
0.0230953
0.0230892
0.0230831
0.0230769
0.0230708
0.0230646
0.0230584
0.0230522
0.0230459
0.0230397
0.0230334
0.0230271
0.0230208
0.0230145
0.0230082
0.0230019
0.0229956
0.0229892
0.0229829
0.0229765
0.0229702
0.0229638
0.0229574
0.0229511
0.0229447
0.0229384
0.022932
0.0229256
0.0229193
0.0229129
0.0229066
0.0229003
0.0228939
0.0228876
0.0228813
0.022875
0.0228686
0.0228624
0.0228561
0.0228498
0.0228435
0.0228373
0.022831
0.0228248
0.0228186
0.0228124
0.0228062
0.0228001
0.022794
0.0227879
0.0227818
0.0227757
0.0227697
0.0227637
0.0227577
0.0227518
0.0227459
0.02274
0.0227341
0.0227283
0.0227225
0.0227168
0.0227111
0.0227054
0.0226998
0.0226942
0.0226886
0.0226831
0.0226776
0.0226721
0.0226667
0.0226613
0.0226559
0.0226506
0.0226453
0.02264
0.0226348
0.0226296
0.0226244
0.0226192
0.0226141
0.022609
0.0226039
0.0225988
0.0225937
0.0225886
0.0225835
0.0225783
0.0225732
0.0225679
0.0225627
0.0225574
0.022552
0.0225465
0.022541
0.0225354
0.0225297
0.0225239
0.0225181
0.0225121
0.022506
0.0224999
0.0224936
0.0224872
0.0224808
0.0224742
0.0224675
0.0224607
0.0224538
0.0224469
0.0224398
0.0224327
0.0224255
0.0224183
0.022411
0.0224036
0.0223962
0.0223888
0.0223813
0.0223738
0.0223662
0.0223587
0.0223511
0.0223435
0.0223359
0.0223283
0.0223207
0.0223131
0.0223054
0.0222978
0.0222902
0.0222826
0.022275
0.0222674
0.0222599
0.0222523
0.0222448
0.0222373
0.0222298
0.0222224
0.0222149
0.0222075
0.0222002
0.0221928
0.0221855
0.0221782
0.022171
0.0221637
0.0221565
0.0221494
0.0221422
0.0221351
0.022128
0.022121
0.022114
0.022107
0.0221
0.0220931
0.0220862
0.0220794
0.0220726
0.0220658
0.0220591
0.0220524
0.0220458
0.0220392
0.0220327
0.0220262
0.0220197
0.0220133
0.022007
0.0220007
0.0219944
0.0219882
0.021982
0.0219759
0.0219698
0.0219637
0.0219577
0.0219517
0.0219457
0.0219398
0.0219339
0.0219281
0.0219223
0.0219165
0.0219107
0.021905
0.0218993
0.0218937
0.0218881
0.0218825
0.021877
0.0218715
0.021866
0.0218606
0.0218552
0.0218498
0.0218445
0.0218392
0.021834
0.0218288
0.0218236
0.0218185
0.0218133
0.0218083
0.0218032
0.0217982
0.0217932
0.0217883
0.0217833
0.0217784
0.0217736
0.0217687
0.0217639
0.0217591
0.0217543
0.0217496
0.0217449
0.0217402
0.0217355
0.0217309
0.0217263
0.0217217
0.0217171
0.0217125
0.021708
0.0217035
0.021699
0.0216945
0.02169
0.0216855
0.0216809
0.0216764
0.0216719
0.0216673
0.0216627
0.0216581
0.0216534
0.0216487
0.0216439
0.0216391
0.0216342
0.0216292
0.0216242
0.0216191
0.0216139
0.0216086
0.0216033
0.0215979
0.0215924
0.0215868
0.0215812
0.0215754
0.0215697
0.0215638
0.0215579
0.0215519
0.0215459
0.0215398
0.0215336
0.0215274
0.0215212
0.0215149
0.0215086
0.0215022
0.0214958
0.0214894
0.0214829
0.0214764
0.0214699
0.0214634
0.0214569
0.0214503
0.0214438
0.0214372
0.0214306
0.021424
0.0214175
0.0214109
0.0214043
0.0213977
0.0213911
0.0213846
0.021378
0.0213714
0.0213649
0.0213583
0.0213518
0.0213453
0.0213388
0.0213323
0.0213258
0.0213194
0.0213129
0.0213065
0.0213001
0.0212937
0.0212874
0.021281
0.0212747
0.0212684
0.0212621
0.0212559
0.0212496
0.0212434
0.0212372
0.021231
0.0212249
0.0212188
0.0212127
0.0212066
0.0212005
0.0211945
0.0211885
0.0211825
0.0211765
0.0211706
0.0211647
0.0211588
0.0211529
0.0211471
0.0211413
0.0211355
0.0211297
0.021124
0.0211182
0.0211126
0.0211069
0.0211013
0.0210957
0.0210901
0.0210845
0.021079
0.0210735
0.021068
0.0210626
0.0210571
0.0210517
0.0210464
0.021041
0.0210357
0.0210304
0.0210251
0.0210198
0.0210146
0.0210094
0.0210042
0.020999
0.0209938
0.0209887
0.0209835
0.0209784
0.0209733
0.0209682
0.0209631
0.020958
0.020953
0.0209479
0.0209429
0.0209379
0.0209328
0.0209278
0.0209227
0.0209177
0.0209126
0.0209074
0.0209022
0.0208967
0.0208909
0.0208839
0.0208754
0.0208657
0.0208538
0.020839
0.020819
0.020792
0.0207546
0.0206996
0.0206337
0.0205843
0.020582
0.0206104
0.0235
0.0235
0.0235
0.0235
0.0235
0.0235
0.0235
0.0235
0.0235
0.0235
0.0235
0.0235
0.0235
0.0235
0.0235
0.0235
0.0235
0.0235
0.0235
0.0235
0.0235
0.0235
0.0235
0.0235
0.0235
0.0235
0.0235
0.0235
0.0235
0.0235
0.0235
0.0235
0.0234999
0.0234999
0.0234999
0.0234999
0.0234999
0.0234999
0.0234998
0.0234998
0.0234998
0.0234998
0.0234997
0.0234997
0.0234997
0.0234996
0.0234996
0.0234995
0.0234995
0.0234994
0.0234993
0.0234993
0.0234992
0.0234991
0.023499
0.0234989
0.0234988
0.0234986
0.0234985
0.0234983
0.0234981
0.0234979
0.0234977
0.0234974
0.0234971
0.0234968
0.0234965
0.0234961
0.0234956
0.0234952
0.0234946
0.0234941
0.0234934
0.0234927
0.0234919
0.023491
0.0234901
0.023489
0.0234878
0.0234865
0.0234851
0.0234836
0.0234819
0.02348
0.023478
0.0234758
0.0234735
0.0234709
0.0234682
0.0234653
0.0234623
0.023459
0.0234556
0.0234519
0.0234481
0.0234441
0.0234399
0.0234356
0.023431
0.0234263
0.0234214
0.0234164
0.0234112
0.0234058
0.0234003
0.0233947
0.023389
0.0233831
0.0233772
0.0233712
0.0233651
0.023359
0.0233528
0.0233465
0.0233402
0.0233339
0.0233276
0.0233212
0.0233148
0.0233085
0.0233021
0.0232957
0.0232893
0.0232829
0.0232765
0.0232702
0.0232638
0.0232575
0.0232512
0.0232449
0.0232386
0.0232323
0.0232261
0.0232199
0.0232137
0.0232076
0.0232015
0.0231954
0.0231893
0.0231833
0.0231774
0.0231714
0.0231655
0.0231597
0.0231538
0.023148
0.0231422
0.0231365
0.0231307
0.023125
0.0231193
0.0231136
0.0231079
0.0231023
0.0230966
0.023091
0.0230854
0.0230798
0.0230742
0.0230686
0.023063
0.0230575
0.0230519
0.0230463
0.0230408
0.0230352
0.0230296
0.0230241
0.0230185
0.0230129
0.0230074
0.0230018
0.0229962
0.0229906
0.022985
0.0229794
0.0229738
0.0229682
0.0229626
0.022957
0.0229513
0.0229457
0.0229401
0.0229345
0.0229289
0.0229233
0.0229176
0.022912
0.0229064
0.0229008
0.0228952
0.0228896
0.022884
0.0228784
0.0228728
0.0228672
0.0228616
0.022856
0.0228504
0.0228449
0.0228393
0.0228337
0.0228282
0.0228227
0.0228171
0.0228116
0.0228061
0.0228006
0.0227951
0.0227896
0.0227841
0.0227787
0.0227732
0.0227678
0.0227624
0.022757
0.0227516
0.0227463
0.0227409
0.0227356
0.0227304
0.0227251
0.0227199
0.0227147
0.0227095
0.0227044
0.0226993
0.0226942
0.0226891
0.0226841
0.0226791
0.0226742
0.0226693
0.0226644
0.0226595
0.0226547
0.0226499
0.0226451
0.0226404
0.0226357
0.022631
0.0226264
0.0226217
0.0226171
0.0226126
0.022608
0.0226035
0.022599
0.0225944
0.0225899
0.0225854
0.0225808
0.0225762
0.0225715
0.0225668
0.0225619
0.022557
0.022552
0.0225468
0.0225416
0.0225362
0.0225306
0.022525
0.0225192
0.0225133
0.0225073
0.0225011
0.0224948
0.0224884
0.0224818
0.0224751
0.0224683
0.0224614
0.0224544
0.0224472
0.0224399
0.0224326
0.0224252
0.0224176
0.0224101
0.0224025
0.0223948
0.0223871
0.0223794
0.0223717
0.0223639
0.0223561
0.0223484
0.0223406
0.0223328
0.0223251
0.0223173
0.0223096
0.0223018
0.0222941
0.0222864
0.0222788
0.0222711
0.0222635
0.0222559
0.0222484
0.0222409
0.0222334
0.0222259
0.0222185
0.0222112
0.0222038
0.0221965
0.0221893
0.0221821
0.0221749
0.0221678
0.0221607
0.0221536
0.0221466
0.0221396
0.0221327
0.0221258
0.022119
0.0221121
0.0221054
0.0220986
0.0220919
0.0220853
0.0220786
0.0220721
0.0220655
0.0220591
0.0220526
0.0220463
0.0220399
0.0220336
0.0220274
0.0220212
0.0220151
0.022009
0.022003
0.021997
0.0219911
0.0219852
0.0219794
0.0219736
0.0219679
0.0219621
0.0219565
0.0219509
0.0219453
0.0219398
0.0219343
0.0219288
0.0219234
0.021918
0.0219126
0.0219073
0.021902
0.0218968
0.0218916
0.0218864
0.0218813
0.0218762
0.0218711
0.0218661
0.0218611
0.0218562
0.0218513
0.0218464
0.0218416
0.0218368
0.0218321
0.0218273
0.0218227
0.021818
0.0218134
0.0218088
0.0218043
0.0217997
0.0217952
0.0217908
0.0217864
0.021782
0.0217776
0.0217732
0.0217689
0.0217646
0.0217603
0.0217561
0.0217519
0.0217477
0.0217435
0.0217393
0.0217352
0.0217311
0.021727
0.0217229
0.0217188
0.0217147
0.0217106
0.0217065
0.0217023
0.0216982
0.021694
0.0216897
0.0216854
0.021681
0.0216766
0.021672
0.0216674
0.0216627
0.0216579
0.0216529
0.0216479
0.0216428
0.0216376
0.0216323
0.0216268
0.0216213
0.0216157
0.02161
0.0216042
0.0215983
0.0215923
0.0215863
0.0215802
0.021574
0.0215678
0.0215615
0.0215551
0.0215487
0.0215423
0.0215358
0.0215293
0.0215228
0.0215162
0.0215096
0.021503
0.0214964
0.0214898
0.0214831
0.0214765
0.0214699
0.0214632
0.0214566
0.02145
0.0214434
0.0214368
0.0214302
0.0214236
0.021417
0.0214105
0.0214039
0.0213974
0.0213909
0.0213845
0.021378
0.0213716
0.0213652
0.0213588
0.0213524
0.0213461
0.0213398
0.0213335
0.0213273
0.0213211
0.0213149
0.0213087
0.0213026
0.0212965
0.0212904
0.0212843
0.0212783
0.0212723
0.0212664
0.0212604
0.0212545
0.0212486
0.0212428
0.0212369
0.0212312
0.0212254
0.0212196
0.0212139
0.0212083
0.0212026
0.021197
0.0211914
0.0211858
0.0211803
0.0211748
0.0211693
0.0211639
0.0211585
0.0211531
0.0211478
0.0211424
0.0211371
0.0211319
0.0211266
0.0211214
0.0211162
0.0211111
0.0211059
0.0211008
0.0210958
0.0210907
0.0210857
0.0210807
0.0210758
0.0210708
0.0210659
0.0210611
0.0210562
0.0210514
0.0210466
0.0210418
0.0210371
0.0210323
0.0210276
0.0210229
0.0210182
0.0210135
0.0210089
0.0210042
0.0209996
0.020995
0.0209904
0.0209858
0.0209813
0.0209767
0.0209721
0.0209676
0.020963
0.0209585
0.0209539
0.0209493
0.0209446
0.0209398
0.0209348
0.020929
0.0209223
0.0209146
0.0209053
0.0208937
0.0208778
0.0208556
0.020823
0.020772
0.0207034
0.0206397
0.0206085
0.0206188
0.0235
0.0235
0.0235
0.0235
0.0235
0.0235
0.0235
0.0235
0.0235
0.0235
0.0235
0.0235
0.0235
0.0235
0.0235
0.0235
0.0235
0.0235
0.0235
0.0235
0.0235
0.0235
0.0235
0.0235
0.0235
0.0235
0.0235
0.0234999
0.0234999
0.0234999
0.0234999
0.0234999
0.0234998
0.0234998
0.0234998
0.0234997
0.0234997
0.0234996
0.0234995
0.0234995
0.0234994
0.0234993
0.0234992
0.0234991
0.023499
0.0234989
0.0234987
0.0234986
0.0234984
0.0234982
0.023498
0.0234978
0.0234975
0.0234972
0.0234969
0.0234965
0.0234962
0.0234957
0.0234953
0.0234948
0.0234942
0.0234936
0.0234929
0.0234922
0.0234915
0.0234906
0.0234897
0.0234887
0.0234877
0.0234865
0.0234853
0.0234839
0.0234824
0.0234808
0.023479
0.0234771
0.023475
0.0234727
0.0234703
0.0234676
0.0234647
0.0234616
0.0234583
0.0234547
0.023451
0.023447
0.0234428
0.0234384
0.0234338
0.0234291
0.0234241
0.0234189
0.0234136
0.023408
0.0234023
0.0233965
0.0233905
0.0233843
0.023378
0.0233715
0.0233649
0.0233582
0.0233514
0.0233445
0.0233375
0.0233304
0.0233233
0.0233161
0.0233089
0.0233017
0.0232945
0.0232873
0.0232801
0.0232729
0.0232657
0.0232586
0.0232515
0.0232444
0.0232374
0.0232304
0.0232235
0.0232166
0.0232097
0.023203
0.0231962
0.0231896
0.0231829
0.0231764
0.0231699
0.0231634
0.023157
0.0231506
0.0231443
0.0231381
0.0231319
0.0231257
0.0231196
0.0231136
0.0231076
0.0231017
0.0230958
0.02309
0.0230843
0.0230785
0.0230729
0.0230672
0.0230617
0.0230561
0.0230506
0.0230452
0.0230397
0.0230343
0.023029
0.0230236
0.0230183
0.023013
0.0230078
0.0230026
0.0229974
0.0229922
0.022987
0.0229819
0.0229768
0.0229717
0.0229666
0.0229615
0.0229564
0.0229513
0.0229463
0.0229412
0.0229362
0.0229311
0.0229261
0.0229211
0.0229161
0.022911
0.022906
0.022901
0.022896
0.022891
0.022886
0.022881
0.022876
0.022871
0.022866
0.022861
0.0228561
0.0228511
0.0228461
0.0228411
0.0228362
0.0228312
0.0228263
0.0228214
0.0228164
0.0228115
0.0228066
0.0228017
0.0227968
0.0227919
0.022787
0.0227821
0.0227772
0.0227723
0.0227675
0.0227626
0.0227578
0.022753
0.0227481
0.0227433
0.0227385
0.0227337
0.022729
0.0227242
0.0227195
0.0227147
0.02271
0.0227053
0.0227006
0.022696
0.0226914
0.0226868
0.0226822
0.0226776
0.0226731
0.0226686
0.0226641
0.0226597
0.0226553
0.0226509
0.0226465
0.0226422
0.0226379
0.0226336
0.0226293
0.0226251
0.0226209
0.0226167
0.0226126
0.0226085
0.0226044
0.0226003
0.0225963
0.0225922
0.0225882
0.0225842
0.0225802
0.0225762
0.0225722
0.0225681
0.022564
0.0225598
0.0225555
0.022551
0.0225465
0.0225417
0.0225368
0.0225318
0.0225265
0.022521
0.0225154
0.0225096
0.0225036
0.0224974
0.0224911
0.0224846
0.022478
0.0224713
0.0224643
0.0224573
0.0224501
0.0224428
0.0224354
0.0224278
0.0224202
0.0224124
0.0224046
0.0223967