/*--------------------------------*- C++ -*----------------------------------*\
| =========                 |                                                 |
| \\      /  F ield         | foam-extend: Open Source CFD                    |
|  \\    /   O peration     | Version:     3.2                                |
|   \\  /    A nd           | Web:         http://www.foam-extend.org         |
|    \\/     M anipulation  | For copyright notice see file Copyright         |
\*---------------------------------------------------------------------------*/
FoamFile
{
    version     2.0;
    format      ascii;
    class       areaScalarField;
    location    "120";
    object      Ce1;
}
// * * * * * * * * * * * * * * * * * * * * * * * * * * * * * * * * * * * * * //

dimensions      [1 -3 0 0 0 0 0];

internalField   nonuniform List<scalar> 
550
(
0.00292505
0.00539823
0.0090089
0.0139311
0.0202171
0.0277579
0.0362952
0.0454242
0.0546961
0.063627
0.0718261
0.0789768
0.084907
0.0895321
0.0928753
0.0950146
0.0960892
0.0962549
0.0956834
0.0945794
0.0930639
0.0912402
0.0891981
0.0870147
0.0847574
0.0824813
0.0802303
0.0780452
0.0759531
0.0739539
0.0720488
0.0702425
0.0685375
0.0669339
0.0654298
0.0640224
0.0627082
0.061483
0.0603422
0.0592811
0.0582949
0.0573788
0.0565279
0.0557372
0.0550023
0.0543188
0.0536833
0.0530922
0.0525422
0.0520304
0.0515539
0.0511098
0.0506957
0.050309
0.0499471
0.0496078
0.0492888
0.0489884
0.048705
0.0484368
0.0481826
0.0479411
0.0477112
0.047492
0.0472826
0.0470823
0.0468903
0.0467058
0.0465282
0.0463569
0.0461911
0.0460303
0.045874
0.0457217
0.0455731
0.0454277
0.0452851
0.0451451
0.0450075
0.0448723
0.0447396
0.0446093
0.0444814
0.0443556
0.044232
0.0441104
0.0439907
0.0438728
0.0437566
0.043642
0.0435288
0.043417
0.043306
0.0431958
0.0430863
0.0429776
0.0428696
0.0427624
0.0426558
0.0425501
0.0424451
0.0423405
0.0422362
0.042132
0.0420277
0.041923
0.0418179
0.0417123
0.041606
0.0414989
0.0413909
0.041282
0.0411721
0.041061
0.040949
0.0408359
0.0407217
0.0406063
0.0404898
0.0403723
0.0402539
0.0401346
0.0400145
0.0398935
0.0397718
0.0396493
0.0395259
0.0394017
0.0392762
0.039102
0.0390274
0.0389086
0.0387883
0.0386682
0.0385485
0.038429
0.0383097
0.0381905
0.0380715
0.0379527
0.0378341
0.0377158
0.0375978
0.0374802
0.0373632
0.0372466
0.0371307
0.0370155
0.0369011
0.0367874
0.0366746
0.0365626
0.0364515
0.0363414
0.0362324
0.0361244
0.0360175
0.0359118
0.0358073
0.0357042
0.0356024
0.0354988
0.035396
0.0352947
0.0351948
0.0350964
0.0349995
0.0349042
0.0348104
0.0347183
0.0346276
0.0345386
0.0344511
0.0343652
0.0342809
0.0341981
0.0341169
0.0340372
0.0339591
0.0338825
0.0338075
0.0337341
0.0336622
0.0335919
0.033523
0.0334557
0.0333898
0.0333254
0.0332624
0.0332007
0.0331405
0.0330815
0.0330238
0.0329674
0.0329121
0.032858
0.032805
0.0327532
0.0327024
0.0326526
0.0326039
0.0325562
0.0325095
0.0324638
0.032419
0.0323752
0.0323323
0.0322903
0.0322492
0.0322089
0.0321695
0.0321308
0.0320929
0.0320557
0.0320191
0.0319831
0.0319477
0.0319129
0.0318785
0.0318445
0.0318109
0.0317777
0.0317448
0.0317123
0.0316799
0.0316474
0.0316147
0.0315817
0.0315484
0.0315148
0.0314808
0.0314467
0.0314123
0.0313777
0.031343
0.0313081
0.0312732
0.0312382
0.0312032
0.0311681
0.031133
0.0310979
0.0310629
0.0310278
0.0309928
0.0309579
0.0309232
0.0308885
0.0308539
0.0308195
0.0307852
0.0307511
0.0307172
0.0306835
0.0306501
0.0306169
0.0305839
0.0305513
0.0305189
0.0304868
0.0304549
0.0304234
0.0303921
0.0303612
0.0303305
0.0303001
0.0302701
0.0302403
0.0302108
0.0301816
0.0301527
0.030124
0.0300956
0.0300675
0.0300397
0.0300122
0.029985
0.0299582
0.0299318
0.0299058
0.0298803
0.0298552
0.0298305
0.0298064
0.0297826
0.0297594
0.0297365
0.0297142
0.0296923
0.0296709
0.02965
0.0296296
0.0296098
0.0295905
0.0295717
0.0295534
0.0295356
0.0295183
0.0295014
0.0294849
0.0294687
0.0294529
0.0294375
0.0294223
0.0294074
0.0293927
0.0293782
0.0293639
0.0293497
0.0293356
0.0293214
0.0293072
0.0292929
0.0292783
0.0292635
0.0292484
0.029233
0.0292136
0.0291901
0.0291671
0.0291445
0.0291224
0.0291007
0.0290795
0.0290588
0.0290385
0.0290187
0.0289992
0.0289802
0.0289615
0.0289432
0.0289253
0.0289079
0.0288909
0.0288743
0.0288582
0.0288426
0.0288273
0.0288125
0.028798
0.0287769
0.028753
0.0287284
0.0287031
0.0286771
0.0286504
0.0286231
0.0285951
0.0285664
0.0285371
0.028507
0.0284764
0.0284451
0.0284134
0.0283811
0.0283483
0.0283151
0.0282815
0.0282475
0.0282131
0.0281784
0.0281433
0.0281078
0.028072
0.0280359
0.0279996
0.027963
0.0279261
0.0278891
0.0278518
0.0278144
0.0277769
0.0277393
0.0277017
0.027664
0.0276262
0.0275885
0.0275509
0.0275132
0.0274757
0.0274383
0.027401
0.0273639
0.027327
0.0272904
0.0272539
0.0272178
0.0271819
0.0271463
0.0271111
0.0270762
0.0270417
0.0270075
0.0269737
0.0269403
0.0269071
0.0268742
0.0268417
0.0268093
0.0267772
0.0267453
0.0267137
0.0266823
0.026651
0.02662
0.0265892
0.0265585
0.0265281
0.0264978
0.0264677
0.0264377
0.0264079
0.0263782
0.0263487
0.0263193
0.0262901
0.0262611
0.0262323
0.0262037
0.0261753
0.0261471
0.0261192
0.0260914
0.0260639
0.0260367
0.0260096
0.0259828
0.0259562
0.0259298
0.0259036
0.0258776
0.0258517
0.025826
0.0258003
0.0257748
0.0257493
0.025724
0.0256987
0.0256735
0.0256484
0.0256233
0.0255983
0.0255733
0.0255484
0.0255234
0.0254985
0.0254735
0.0254483
0.0254231
0.0253976
0.0253718
0.0253459
0.0253196
0.0252932
0.0252666
0.0252397
0.0252126
0.0251854
0.025158
0.0251304
0.0251028
0.025075
0.0250472
0.0250194
0.0249916
0.0249638
0.0249361
0.0249083
0.0248804
0.0248524
0.0248243
0.024796
0.0247674
0.0247385
0.0247094
0.0246799
0.02465
0.0246198
0.0245893
0.0245585
0.0245274
0.0244961
0.0244646
0.0244329
0.024401
0.0243689
0.0243365
0.0243039
0.0242713
0.0242386
0.0242059
0.024173
0.0241401
0.0241071
0.0240739
0.0240405
0.0240067
0.0239727
0.0239382
0.0239034
0.0238682
0.0238327
0.0237968
0.0237606
0.0237239
0.023687
0.0236499
0.0236126
0.0235752
0.023538
0.0235007
0.0234636
0.0234264
0.0233895
0.0233525
0.0233158
0.0232789
0.0232424
0.0232056
0.0231691
0.0231323
0.0230956
0.0230583
0.0230208
0.0229824
0.0229435
0.0229028
0.0228611
0.0228156
0.0227678
0.0227116
0.0226496
0.0225701
0.0224772
0.0223479
0.0221887
0.0219477
0.0216461
0.0210118
0.0203317
0.0200161
0.0187514
0.0168752
0.014459
0.0113762
0.00772249
0.00319404
0.000570549
0.001152
0.00356261
)
;

boundaryField
{
    inlet
    {
        type            calculated;
        value           uniform 0;
    }
    endWall
    {
        type            calculated;
        value           uniform 0;
    }
    sideWall
    {
        type            empty;
    }
}


// ************************************************************************* //
