/*--------------------------------*- C++ -*----------------------------------*\
| =========                 |                                                 |
| \\      /  F ield         | foam-extend: Open Source CFD                    |
|  \\    /   O peration     | Version:     3.2                                |
|   \\  /    A nd           | Web:         http://www.foam-extend.org         |
|    \\/     M anipulation  | For copyright notice see file Copyright         |
\*---------------------------------------------------------------------------*/
FoamFile
{
    version     2.0;
    format      ascii;
    class       areaScalarField;
    location    "120";
    object      Cpost;
}
// * * * * * * * * * * * * * * * * * * * * * * * * * * * * * * * * * * * * * //

dimensions      [1 -3 0 0 0 0 0];

internalField   nonuniform List<scalar> 
550
(
0.0235
0.0235
0.0235
0.0235
0.0235
0.0235
0.0235
0.0235
0.0235
0.0235
0.0235
0.0235
0.0235
0.0235
0.0235
0.0235
0.0235
0.0235
0.0235
0.0235
0.0235
0.0235
0.0235
0.0235
0.0235
0.0235
0.0235
0.0235
0.0235
0.0235
0.0235
0.0235
0.0235
0.0235
0.0235
0.0235
0.0235
0.0235
0.0235
0.0235
0.0235
0.0235
0.0235
0.0235
0.0235
0.0235
0.0235
0.0235
0.0235
0.0235
0.0235
0.0235
0.0235
0.0235
0.0235
0.0235
0.0235
0.0235
0.0235
0.0235
0.0235
0.0235
0.0235
0.0235
0.0235
0.0235
0.0235
0.0234999
0.0234999
0.0234999
0.0234999
0.0234999
0.0234999
0.0234999
0.0234998
0.0234998
0.0234998
0.0234998
0.0234997
0.0234997
0.0234996
0.0234996
0.0234995
0.0234995
0.0234994
0.0234993
0.0234992
0.0234991
0.0234989
0.0234988
0.0234986
0.0234984
0.0234982
0.023498
0.0234977
0.0234974
0.023497
0.0234967
0.0234962
0.0234958
0.0234953
0.0234947
0.0234941
0.0234934
0.0234927
0.0234919
0.023491
0.0234901
0.023489
0.023488
0.0234868
0.0234855
0.0234842
0.0234828
0.0234813
0.0234797
0.023478
0.0234763
0.0234744
0.0234725
0.0234704
0.0234683
0.0234661
0.0234637
0.0234613
0.0234588
0.0234562
0.0234535
0.0234507
0.0234478
0.0234485
0.0234482
0.0234471
0.0234454
0.0234431
0.0234402
0.0234368
0.0234328
0.0234284
0.0234234
0.023418
0.0234122
0.023406
0.0233994
0.0233926
0.0233854
0.023378
0.0233703
0.0233624
0.0233543
0.0233459
0.0233374
0.0233286
0.0233197
0.0233106
0.0233014
0.023292
0.0232825
0.0232728
0.023263
0.0232531
0.0232431
0.0232329
0.0232227
0.0232123
0.0232018
0.0231913
0.0231807
0.0231701
0.0231593
0.0231486
0.0231377
0.0231269
0.023116
0.0231051
0.0230941
0.0230832
0.0230722
0.0230612
0.0230502
0.0230393
0.0230283
0.0230173
0.0230063
0.0229954
0.0229845
0.0229735
0.0229627
0.0229518
0.022941
0.0229302
0.0229195
0.0229088
0.0228981
0.0228875
0.022877
0.0228664
0.022856
0.0228456
0.0228352
0.0228249
0.0228147
0.0228045
0.0227944
0.0227843
0.0227743
0.0227644
0.0227545
0.0227447
0.022735
0.0227253
0.0227157
0.0227062
0.0226967
0.0226873
0.022678
0.0226687
0.0226595
0.0226504
0.0226413
0.0226323
0.0226234
0.0226145
0.0226057
0.022597
0.0225883
0.0225796
0.022571
0.0225625
0.022554
0.0225455
0.0225371
0.0225287
0.0225203
0.022512
0.0225037
0.0224954
0.0224872
0.022479
0.0224708
0.0224626
0.0224545
0.0224463
0.0224383
0.0224302
0.0224222
0.0224141
0.0224062
0.0223982
0.0223903
0.0223823
0.0223745
0.0223666
0.0223588
0.022351
0.0223432
0.0223355
0.0223278
0.0223201
0.0223124
0.0223048
0.0222972
0.0222896
0.0222821
0.0222746
0.0222671
0.0222596
0.0222521
0.0222446
0.0222372
0.0222297
0.0222223
0.0222149
0.0222074
0.0222
0.0221926
0.0221851
0.0221777
0.0221702
0.0221628
0.0221553
0.0221478
0.0221403
0.0221328
0.0221252
0.0221177
0.0221101
0.0221026
0.022095
0.0220874
0.0220797
0.0220721
0.0220644
0.0220568
0.0220491
0.0220414
0.0220338
0.0220261
0.0220184
0.0220107
0.022003
0.0219953
0.0219876
0.0219799
0.0219722
0.0219646
0.0219569
0.0219492
0.0219416
0.0219339
0.0219263
0.0219186
0.021911
0.0219033
0.0218957
0.0218881
0.0218804
0.0218728
0.0218651
0.0218574
0.0218497
0.021842
0.0218343
0.0218265
0.0218188
0.0218111
0.0218034
0.0217957
0.021788
0.0217804
0.0217728
0.0217651
0.0217576
0.02175
0.0217425
0.021735
0.0217276
0.0217201
0.0217128
0.0217054
0.0216981
0.0216907
0.0216833
0.021676
0.0216686
0.0216612
0.0216538
0.0216463
0.0216389
0.0216314
0.021624
0.0216165
0.021609
0.0216015
0.0215939
0.0215864
0.0215789
0.0215713
0.0215638
0.0215563
0.0215487
0.0215412
0.0215336
0.021526
0.0215185
0.0215109
0.0215034
0.0214958
0.0214883
0.0214807
0.0214731
0.0214656
0.021458
0.0214505
0.0214429
0.0214354
0.0214278
0.0214203
0.0214128
0.0214052
0.0213977
0.0213902
0.0213827
0.0213752
0.0213678
0.0213603
0.0213529
0.0213455
0.021338
0.0213307
0.0213233
0.0213159
0.0213086
0.0213013
0.021294
0.0212868
0.0212796
0.0212724
0.0212652
0.0212581
0.0212509
0.0212438
0.0212367
0.0212297
0.0212227
0.0212157
0.0212087
0.0212017
0.0211947
0.0211878
0.0211809
0.021174
0.0211671
0.0211602
0.0211533
0.0211464
0.0211395
0.0211327
0.0211258
0.0211189
0.021112
0.0211052
0.0210983
0.0210914
0.0210845
0.0210776
0.0210706
0.0210637
0.0210568
0.0210498
0.0210428
0.0210358
0.0210288
0.0210218
0.0210148
0.0210077
0.0210006
0.0209935
0.0209864
0.0209793
0.0209721
0.0209649
0.0209577
0.0209505
0.0209432
0.0209359
0.0209287
0.0209213
0.020914
0.0209067
0.0208993
0.0208919
0.0208845
0.020877
0.0208696
0.0208621
0.0208546
0.020847
0.0208395
0.0208319
0.0208244
0.0208168
0.0208092
0.0208015
0.0207939
0.0207862
0.0207786
0.0207709
0.0207633
0.0207556
0.0207479
0.0207402
0.0207325
0.0207249
0.0207172
0.0207095
0.0207018
0.020694
0.0206863
0.0206786
0.0206708
0.0206631
0.0206554
0.0206476
0.0206399
0.0206321
0.0206244
0.0206166
0.0206089
0.0206011
0.0205934
0.0205856
0.0205779
0.0205702
0.0205624
0.0205547
0.020547
0.0205393
0.0205316
0.0205239
0.0205162
0.0205086
0.0205009
0.0204931
0.0204854
0.0204777
0.02047
0.0204622
0.0204545
0.0204467
0.0204389
0.0204311
0.0204233
0.0204155
0.0204077
0.0203999
0.0203921
0.0203843
0.0203765
0.0203687
0.0203608
0.020353
0.0203452
0.0203373
0.0203294
0.0203215
0.0203136
0.0203056
0.0202975
0.0202893
0.0202809
0.0202722
0.020263
0.0202533
0.0202427
0.0202308
0.0202176
0.020202
0.0201842
0.0202235
0.020257
0.0202862
0.0203116
0.0203329
0.0203519
0.0203668
0.0203845
0.0205031
0.020605
0.0206091
)
;

boundaryField
{
    inlet
    {
        type            calculated;
        value           uniform 0;
    }
    endWall
    {
        type            calculated;
        value           uniform 0;
    }
    sideWall
    {
        type            empty;
    }
}


// ************************************************************************* //
