/*--------------------------------*- C++ -*----------------------------------*\
| =========                 |                                                 |
| \\      /  F ield         | foam-extend: Open Source CFD                    |
|  \\    /   O peration     | Version:     3.2                                |
|   \\  /    A nd           | Web:         http://www.foam-extend.org         |
|    \\/     M anipulation  | For copyright notice see file Copyright         |
\*---------------------------------------------------------------------------*/
FoamFile
{
    version     2.0;
    format      ascii;
    class       areaScalarField;
    location    "120";
    object      Cpre;
}
// * * * * * * * * * * * * * * * * * * * * * * * * * * * * * * * * * * * * * //

dimensions      [1 -3 0 0 0 0 0];

internalField   nonuniform List<scalar> 
550
(
0.0235
0.0235
0.0235
0.0235
0.0235
0.0235
0.0235
0.0235
0.0235
0.0235
0.0235
0.0235
0.0235
0.0235
0.0235
0.0235
0.0235
0.0235
0.0235
0.0235
0.0235
0.0235
0.0235
0.0235
0.0235
0.0235
0.0235
0.0235
0.0235
0.0235
0.0235
0.0235
0.0235
0.0235
0.0235
0.0235
0.0235
0.0235
0.0235
0.0235
0.0235
0.0235
0.0235
0.0235
0.0235
0.0235
0.0235
0.0235
0.0235
0.0235
0.0235
0.0235
0.0235
0.0235
0.0235
0.0235
0.0235
0.0235
0.0235
0.0235
0.0235
0.0235
0.0235
0.0235
0.0235
0.0235
0.0235
0.0234999
0.0234999
0.0234999
0.0234999
0.0234999
0.0234999
0.0234999
0.0234998
0.0234998
0.0234998
0.0234998
0.0234997
0.0234997
0.0234996
0.0234996
0.0234995
0.0234995
0.0234994
0.0234993
0.0234992
0.0234991
0.0234989
0.0234988
0.0234986
0.0234984
0.0234982
0.023498
0.0234977
0.0234974
0.023497
0.0234967
0.0234962
0.0234958
0.0234953
0.0234947
0.0234941
0.0234934
0.0234927
0.0234919
0.023491
0.0234901
0.023489
0.023488
0.0234868
0.0234855
0.0234842
0.0234828
0.0234813
0.0234797
0.023478
0.0234763
0.0234744
0.0234725
0.0234704
0.0234683
0.0234661
0.0234637
0.0234613
0.0234588
0.0234562
0.0234535
0.0234507
0.0234478
0.0234483
0.0234481
0.023447
0.0234453
0.023443
0.0234402
0.0234368
0.0234328
0.0234284
0.0234235
0.0234181
0.0234123
0.0234061
0.0233995
0.0233927
0.0233856
0.0233782
0.0233705
0.0233626
0.0233545
0.0233462
0.0233376
0.0233289
0.02332
0.0233109
0.0233017
0.0232923
0.0232828
0.0232732
0.0232634
0.0232535
0.0232435
0.0232334
0.0232231
0.0232128
0.0232023
0.0231918
0.0231812
0.0231706
0.0231599
0.0231491
0.0231383
0.0231275
0.0231166
0.0231057
0.0230948
0.0230838
0.0230729
0.0230619
0.0230509
0.0230399
0.023029
0.023018
0.023007
0.0229961
0.0229852
0.0229743
0.0229634
0.0229526
0.0229418
0.022931
0.0229203
0.0229096
0.0228989
0.0228883
0.0228778
0.0228673
0.0228568
0.0228464
0.0228361
0.0228258
0.0228155
0.0228054
0.0227952
0.0227852
0.0227752
0.0227653
0.0227554
0.0227456
0.0227359
0.0227262
0.0227166
0.0227071
0.0226976
0.0226882
0.0226789
0.0226696
0.0226604
0.0226513
0.0226423
0.0226333
0.0226243
0.0226155
0.0226067
0.0225979
0.0225892
0.0225806
0.022572
0.0225635
0.022555
0.0225465
0.0225381
0.0225297
0.0225213
0.022513
0.0225047
0.0224964
0.0224882
0.02248
0.0224718
0.0224636
0.0224555
0.0224474
0.0224393
0.0224312
0.0224232
0.0224152
0.0224072
0.0223992
0.0223913
0.0223834
0.0223755
0.0223677
0.0223599
0.0223521
0.0223443
0.0223366
0.0223289
0.0223212
0.0223135
0.0223059
0.0222983
0.0222907
0.0222832
0.0222757
0.0222682
0.0222607
0.0222532
0.0222458
0.0222383
0.0222309
0.0222234
0.022216
0.0222086
0.0222011
0.0221937
0.0221863
0.0221788
0.0221714
0.0221639
0.0221564
0.0221489
0.0221414
0.0221339
0.0221264
0.0221189
0.0221113
0.0221037
0.0220961
0.0220885
0.0220809
0.0220733
0.0220656
0.022058
0.0220503
0.0220426
0.0220349
0.0220272
0.0220196
0.0220119
0.0220042
0.0219965
0.0219888
0.0219811
0.0219734
0.0219658
0.0219581
0.0219504
0.0219428
0.0219351
0.0219275
0.0219198
0.0219122
0.0219045
0.0218969
0.0218893
0.0218816
0.021874
0.0218663
0.0218586
0.0218509
0.0218432
0.0218355
0.0218278
0.02182
0.0218123
0.0218046
0.0217969
0.0217893
0.0217816
0.021774
0.0217664
0.0217588
0.0217512
0.0217437
0.0217362
0.0217288
0.0217214
0.021714
0.0217066
0.0216993
0.0216919
0.0216846
0.0216772
0.0216698
0.0216624
0.021655
0.0216476
0.0216401
0.0216327
0.0216252
0.0216177
0.0216102
0.0216027
0.0215952
0.0215877
0.0215802
0.0215726
0.0215651
0.0215575
0.02155
0.0215424
0.0215349
0.0215273
0.0215198
0.0215122
0.0215047
0.0214971
0.0214896
0.021482
0.0214745
0.0214669
0.0214594
0.0214518
0.0214443
0.0214367
0.0214292
0.0214217
0.0214141
0.0214066
0.0213991
0.0213916
0.0213841
0.0213766
0.0213692
0.0213617
0.0213543
0.0213469
0.0213395
0.0213321
0.0213247
0.0213174
0.0213101
0.0213028
0.0212955
0.0212882
0.021281
0.0212738
0.0212667
0.0212595
0.0212524
0.0212453
0.0212382
0.0212312
0.0212241
0.0212171
0.0212102
0.0212032
0.0211962
0.0211893
0.0211824
0.0211755
0.0211686
0.0211617
0.0211548
0.0211479
0.0211411
0.0211342
0.0211273
0.0211204
0.0211136
0.0211067
0.0210998
0.0210929
0.021086
0.0210791
0.0210722
0.0210653
0.0210583
0.0210514
0.0210444
0.0210374
0.0210304
0.0210234
0.0210163
0.0210093
0.0210022
0.0209951
0.020988
0.0209808
0.0209737
0.0209665
0.0209593
0.0209521
0.0209448
0.0209376
0.0209303
0.020923
0.0209156
0.0209083
0.0209009
0.0208935
0.0208861
0.0208786
0.0208712
0.0208637
0.0208562
0.0208487
0.0208411
0.0208336
0.020826
0.0208184
0.0208108
0.0208032
0.0207956
0.0207879
0.0207803
0.0207726
0.0207649
0.0207573
0.0207496
0.0207419
0.0207342
0.0207265
0.0207188
0.0207111
0.0207034
0.0206957
0.020688
0.0206803
0.0206726
0.0206648
0.0206571
0.0206493
0.0206416
0.0206338
0.0206261
0.0206184
0.0206106
0.0206029
0.0205951
0.0205874
0.0205796
0.0205719
0.0205642
0.0205565
0.0205488
0.0205411
0.0205334
0.0205257
0.020518
0.0205103
0.0205026
0.0204949
0.0204872
0.0204795
0.0204718
0.020464
0.0204563
0.0204485
0.0204407
0.020433
0.0204252
0.0204174
0.0204096
0.0204018
0.020394
0.0203862
0.0203783
0.0203705
0.0203627
0.0203549
0.020347
0.0203392
0.0203313
0.0203234
0.0203155
0.0203075
0.0202994
0.0202912
0.0202828
0.0202741
0.020265
0.0202553
0.0202447
0.0202328
0.0202197
0.0202042
0.0201864
0.0202235
0.020257
0.0202862
0.0203116
0.0203329
0.0203519
0.0203668
0.0203845
0.0205031
0.020605
0.0206091
)
;

boundaryField
{
    inlet
    {
        type            calculated;
        value           uniform 0;
    }
    endWall
    {
        type            calculated;
        value           uniform 0;
    }
    sideWall
    {
        type            empty;
    }
}


// ************************************************************************* //
