/*--------------------------------*- C++ -*----------------------------------*\
| =========                 |                                                 |
| \\      /  F ield         | foam-extend: Open Source CFD                    |
|  \\    /   O peration     | Version:     3.2                                |
|   \\  /    A nd           | Web:         http://www.foam-extend.org         |
|    \\/     M anipulation  | For copyright notice see file Copyright         |
\*---------------------------------------------------------------------------*/
FoamFile
{
    version     2.0;
    format      ascii;
    class       areaScalarField;
    location    "120";
    object      Cs;
}
// * * * * * * * * * * * * * * * * * * * * * * * * * * * * * * * * * * * * * //

dimensions      [0 0 0 0 0 0 0];

internalField   nonuniform List<scalar> 
550
(
0.434383
0.434383
0.434383
0.434383
0.434383
0.434383
0.434383
0.434383
0.434383
0.434383
0.434383
0.434383
0.434383
0.434383
0.434383
0.434383
0.434383
0.434383
0.434383
0.434383
0.434383
0.434383
0.434383
0.434383
0.434383
0.434383
0.434383
0.434383
0.434383
0.434383
0.434383
0.434383
0.434383
0.434383
0.434383
0.434383
0.434383
0.434383
0.434383
0.434383
0.434383
0.434383
0.434383
0.434383
0.434383
0.434383
0.434383
0.434383
0.434383
0.434383
0.434383
0.434383
0.434383
0.434383
0.434383
0.434383
0.434383
0.434383
0.434383
0.434383
0.434383
0.434383
0.434383
0.434383
0.434383
0.434383
0.434383
0.434383
0.434383
0.434383
0.434383
0.434383
0.434383
0.434383
0.434383
0.434383
0.434383
0.434383
0.434383
0.434383
0.434383
0.434383
0.434383
0.434383
0.434383
0.434383
0.434383
0.434383
0.434383
0.434383
0.434383
0.434383
0.434383
0.434383
0.434383
0.434383
0.434383
0.434383
0.434383
0.434383
0.434383
0.434383
0.434383
0.434383
0.434383
0.434383
0.434383
0.434383
0.434383
0.434383
0.434383
0.434383
0.434383
0.434383
0.434383
0.434383
0.434383
0.434383
0.434383
0.434383
0.434383
0.434383
0.434383
0.434383
0.434383
0.434383
0.434383
0.434383
0.434383
0.43405
0.434383
0.434383
0.434383
0.434383
0.434383
0.434383
0.434383
0.434383
0.434383
0.434383
0.434383
0.434383
0.434383
0.434383
0.434383
0.434383
0.434383
0.434383
0.434383
0.434383
0.434383
0.434383
0.434383
0.434383
0.434383
0.434383
0.434383
0.434383
0.434383
0.434383
0.434383
0.434358
0.434328
0.434297
0.434266
0.434234
0.4342
0.434166
0.434132
0.434098
0.434063
0.434028
0.433994
0.433961
0.433929
0.433898
0.433869
0.433842
0.433817
0.433796
0.433777
0.433761
0.433748
0.433738
0.433732
0.433728
0.433728
0.43373
0.433734
0.433741
0.433749
0.433759
0.43377
0.43378
0.43379
0.4338
0.433807
0.433813
0.433816
0.433817
0.433813
0.433807
0.433796
0.43378
0.43376
0.433735
0.433705
0.433671
0.433631
0.433588
0.433539
0.433486
0.433428
0.433364
0.433296
0.433223
0.433145
0.433062
0.432974
0.432881
0.432784
0.432682
0.432575
0.432464
0.432348
0.432225
0.432095
0.431961
0.431825
0.431689
0.431554
0.43142
0.431288
0.43116
0.431034
0.430912
0.430793
0.430679
0.430568
0.430462
0.43036
0.430263
0.43017
0.430083
0.43
0.429922
0.429849
0.42978
0.429717
0.429658
0.429603
0.429553
0.429508
0.429468
0.429432
0.429401
0.429374
0.429352
0.429334
0.429321
0.429312
0.429307
0.429306
0.429309
0.429316
0.429327
0.429341
0.429359
0.429381
0.429406
0.429434
0.429466
0.4295
0.429537
0.429578
0.429623
0.429672
0.429724
0.429782
0.429844
0.429911
0.429983
0.430061
0.430144
0.430232
0.430326
0.430425
0.430529
0.430638
0.430752
0.430872
0.430997
0.431127
0.431261
0.4314
0.431543
0.431689
0.431838
0.431989
0.432141
0.432293
0.432445
0.432597
0.432746
0.432894
0.43304
0.433184
0.433325
0.433462
0.433595
0.433723
0.433844
0.433958
0.434065
0.434165
0.434256
0.434341
0.434383
0.434383
0.434383
0.434383
0.434383
0.434383
0.434383
0.434383
0.434383
0.434383
0.434383
0.434383
0.434383
0.434383
0.434383
0.434383
0.434383
0.434383
0.434383
0.434383
0.434383
0.434383
0.434383
0.434317
0.434222
0.434117
0.434004
0.433883
0.433754
0.433618
0.433474
0.433323
0.433165
0.433002
0.432832
0.432658
0.432481
0.4323
0.432116
0.431931
0.431745
0.431558
0.431371
0.431183
0.430996
0.43081
0.430625
0.430443
0.430262
0.430085
0.429911
0.429742
0.429578
0.429421
0.42927
0.429127
0.428992
0.428864
0.428745
0.428633
0.428529
0.428434
0.428346
0.428266
0.428194
0.428131
0.428076
0.42803
0.427993
0.427964
0.427944
0.427931
0.427926
0.427928
0.427937
0.427951
0.427972
0.427998
0.428029
0.428065
0.428105
0.428149
0.428197
0.428249
0.428304
0.428362
0.428422
0.428485
0.428551
0.428621
0.428693
0.428767
0.428845
0.428925
0.429009
0.429094
0.429183
0.429274
0.429367
0.429463
0.429562
0.429663
0.429766
0.429872
0.429979
0.430089
0.4302
0.430312
0.430426
0.430541
0.430657
0.430773
0.430891
0.431009
0.431128
0.431246
0.431365
0.431484
0.431603
0.431721
0.431839
0.431956
0.432072
0.432187
0.432301
0.432413
0.432524
0.432633
0.43274
0.432844
0.432944
0.433039
0.433128
0.433212
0.433291
0.433363
0.43343
0.433492
0.433548
0.433598
0.433643
0.433683
0.433717
0.433746
0.43377
0.43379
0.433806
0.433819
0.433829
0.433835
0.433837
0.433833
0.433823
0.433807
0.433784
0.433753
0.433715
0.43367
0.433617
0.433558
0.433492
0.433421
0.433344
0.433261
0.433174
0.43308
0.432981
0.432875
0.432764
0.432647
0.432526
0.432402
0.432274
0.432143
0.43201
0.431873
0.431731
0.431585
0.431434
0.431277
0.431115
0.430949
0.430779
0.430608
0.430435
0.430262
0.430089
0.429917
0.429747
0.42958
0.429417
0.429258
0.429104
0.428955
0.42881
0.42867
0.428534
0.428402
0.428274
0.428151
0.428031
0.427915
0.427802
0.427691
0.427583
0.427476
0.427373
0.427272
0.427176
0.427084
0.426996
0.426911
0.426829
0.426742
0.426647
0.426533
0.426384
0.426173
0.425833
0.425393
0.424372
0.424567
0.426868
0.434383
0.434383
0.434383
0.434383
0.434383
0.434383
0.434383
0.434383
0.434383
0.434383
)
;

boundaryField
{
    inlet
    {
        type            calculated;
        value           uniform 0;
    }
    endWall
    {
        type            calculated;
        value           uniform 0;
    }
    sideWall
    {
        type            empty;
    }
}


// ************************************************************************* //
