/*--------------------------------*- C++ -*----------------------------------*\
| =========                 |                                                 |
| \\      /  F ield         | foam-extend: Open Source CFD                    |
|  \\    /   O peration     | Version:     3.2                                |
|   \\  /    A nd           | Web:         http://www.foam-extend.org         |
|    \\/     M anipulation  | For copyright notice see file Copyright         |
\*---------------------------------------------------------------------------*/
FoamFile
{
    version     2.0;
    format      ascii;
    class       areaScalarField;
    location    "120";
    object      Fi;
}
// * * * * * * * * * * * * * * * * * * * * * * * * * * * * * * * * * * * * * //

dimensions      [0 1 -1 0 0 0 0];

internalField   nonuniform List<scalar> 
550
(
6.05354e-08
5.62946e-08
5.01033e-08
2.02224e-08
-2.60696e-08
-6.56818e-08
-1.02545e-07
-1.3349e-07
-1.56183e-07
-1.69699e-07
-1.74496e-07
-1.7191e-07
-1.63803e-07
-1.51966e-07
-1.38088e-07
-1.23519e-07
-1.0933e-07
-9.61885e-08
-8.48625e-08
-7.53212e-08
-6.6956e-08
-5.9687e-08
-5.3442e-08
-4.81567e-08
-4.37541e-08
-4.01226e-08
-3.72048e-08
-3.49244e-08
-3.29986e-08
-3.122e-08
-2.96278e-08
-2.8238e-08
-2.7017e-08
-2.59329e-08
-2.49621e-08
-2.40874e-08
-2.32945e-08
-2.25696e-08
-2.19034e-08
-2.12885e-08
-2.0717e-08
-2.01817e-08
-1.96761e-08
-1.91964e-08
-1.87404e-08
-1.83087e-08
-1.79018e-08
-1.75176e-08
-1.71544e-08
-1.68103e-08
-1.64833e-08
-1.61714e-08
-1.58721e-08
-1.55818e-08
-1.52984e-08
-1.50206e-08
-1.47491e-08
-1.44844e-08
-1.42251e-08
-1.39706e-08
-1.37212e-08
-1.34774e-08
-1.3239e-08
-1.3006e-08
-1.27782e-08
-1.2555e-08
-1.23357e-08
-1.21196e-08
-1.1906e-08
-1.16941e-08
-1.14832e-08
-1.12732e-08
-1.10641e-08
-1.08563e-08
-1.06496e-08
-1.0443e-08
-1.02365e-08
-1.00313e-08
-9.82913e-09
-9.63188e-09
-9.43886e-09
-9.2485e-09
-9.06076e-09
-8.87554e-09
-8.6926e-09
-8.51175e-09
-8.33278e-09
-8.1555e-09
-7.9796e-09
-7.80487e-09
-7.63053e-09
-7.4547e-09
-7.27722e-09
-7.10015e-09
-6.9244e-09
-6.75e-09
-6.5768e-09
-6.40461e-09
-6.23406e-09
-6.06506e-09
-5.89553e-09
-5.72397e-09
-5.55027e-09
-5.37433e-09
-5.19614e-09
-5.01571e-09
-4.833e-09
-4.64798e-09
-4.46058e-09
-4.2708e-09
-4.07866e-09
-3.88431e-09
-3.6878e-09
-3.48968e-09
-3.29046e-09
-3.08868e-09
-2.88399e-09
-2.67854e-09
-2.47292e-09
-2.26661e-09
-2.0597e-09
-1.85217e-09
-1.64397e-09
-1.43503e-09
-1.2252e-09
-1.01412e-09
-8.01799e-10
-5.86457e-10
-2.03413e-10
-2.82925e-11
-5.21771e-11
2.40594e-10
3.94769e-10
5.81186e-10
7.6895e-10
9.59363e-10
1.14946e-09
1.33848e-09
1.5258e-09
1.71114e-09
1.89424e-09
2.07502e-09
2.25333e-09
2.42914e-09
2.60239e-09
2.77309e-09
2.94125e-09
3.10677e-09
3.26957e-09
3.42986e-09
3.58773e-09
3.74305e-09
3.89586e-09
4.04606e-09
4.19342e-09
4.33791e-09
4.47949e-09
4.61789e-09
4.75297e-09
4.88485e-09
5.02435e-09
5.16821e-09
5.29925e-09
5.42526e-09
5.54822e-09
5.66817e-09
5.78511e-09
5.89909e-09
6.01018e-09
6.11857e-09
6.22438e-09
6.32759e-09
6.42822e-09
6.52641e-09
6.62222e-09
6.7156e-09
6.80653e-09
6.89498e-09
6.98089e-09
7.06426e-09
7.1451e-09
7.22345e-09
7.2994e-09
7.37297e-09
7.44415e-09
7.51302e-09
7.57969e-09
7.64422e-09
7.70661e-09
7.7669e-09
7.82514e-09
7.88138e-09
7.9357e-09
7.98818e-09
8.0389e-09
8.08789e-09
8.13521e-09
8.18088e-09
8.22492e-09
8.26725e-09
8.30792e-09
8.34708e-09
8.38473e-09
8.42091e-09
8.45579e-09
8.4894e-09
8.5219e-09
8.55352e-09
8.58418e-09
8.61395e-09
8.64291e-09
8.67106e-09
8.69848e-09
8.72535e-09
8.75182e-09
8.778e-09
8.80399e-09
8.82991e-09
8.85576e-09
8.8815e-09
8.90718e-09
8.93292e-09
8.95889e-09
8.98554e-09
9.01353e-09
9.04314e-09
9.07494e-09
9.10907e-09
9.14498e-09
9.18221e-09
9.22036e-09
9.2591e-09
9.29818e-09
9.3375e-09
9.37702e-09
9.41666e-09
9.45638e-09
9.4962e-09
9.5361e-09
9.57606e-09
9.61596e-09
9.65576e-09
9.69541e-09
9.73486e-09
9.77405e-09
9.81294e-09
9.85154e-09
9.88981e-09
9.92774e-09
9.96531e-09
1.00024e-08
1.00391e-08
1.00752e-08
1.01108e-08
1.0146e-08
1.01806e-08
1.02147e-08
1.02483e-08
1.02814e-08
1.0314e-08
1.03461e-08
1.03776e-08
1.04087e-08
1.04391e-08
1.04691e-08
1.04986e-08
1.05276e-08
1.05561e-08
1.05842e-08
1.06119e-08
1.06391e-08
1.06658e-08
1.06919e-08
1.07174e-08
1.07424e-08
1.07667e-08
1.07903e-08
1.08131e-08
1.08351e-08
1.08562e-08
1.08765e-08
1.08958e-08
1.09143e-08
1.09321e-08
1.0949e-08
1.09651e-08
1.09802e-08
1.09945e-08
1.10077e-08
1.10199e-08
1.1031e-08
1.10411e-08
1.105e-08
1.10577e-08
1.10645e-08
1.10705e-08
1.10757e-08
1.10803e-08
1.10839e-08
1.10867e-08
1.10893e-08
1.10913e-08
1.1092e-08
1.10918e-08
1.10914e-08
1.10912e-08
1.10912e-08
1.10914e-08
1.10918e-08
1.10926e-08
1.10938e-08
1.1095e-08
1.10963e-08
1.10982e-08
1.1101e-08
1.11045e-08
1.11215e-08
1.11582e-08
1.1187e-08
1.12e-08
1.12122e-08
1.12236e-08
1.12341e-08
1.12439e-08
1.1253e-08
1.12616e-08
1.12697e-08
1.12773e-08
1.12845e-08
1.1291e-08
1.12968e-08
1.13017e-08
1.13058e-08
1.13091e-08
1.13118e-08
1.1314e-08
1.13158e-08
1.13171e-08
1.13183e-08
1.13423e-08
1.13881e-08
1.14184e-08
1.14427e-08
1.14689e-08
1.14972e-08
1.1527e-08
1.15577e-08
1.1589e-08
1.16214e-08
1.16552e-08
1.16899e-08
1.17254e-08
1.1762e-08
1.17997e-08
1.18383e-08
1.18776e-08
1.19175e-08
1.19581e-08
1.19994e-08
1.20414e-08
1.2084e-08
1.21273e-08
1.21711e-08
1.22153e-08
1.22601e-08
1.23053e-08
1.23511e-08
1.23974e-08
1.2444e-08
1.24909e-08
1.25381e-08
1.25854e-08
1.26326e-08
1.26799e-08
1.27269e-08
1.27736e-08
1.28201e-08
1.28663e-08
1.2912e-08
1.29573e-08
1.30022e-08
1.30466e-08
1.30905e-08
1.31338e-08
1.31766e-08
1.32187e-08
1.326e-08
1.33006e-08
1.33402e-08
1.33789e-08
1.34168e-08
1.34539e-08
1.34903e-08
1.35261e-08
1.35615e-08
1.35965e-08
1.36312e-08
1.36655e-08
1.36995e-08
1.37331e-08
1.37664e-08
1.37993e-08
1.3832e-08
1.38645e-08
1.38967e-08
1.39286e-08
1.39603e-08
1.39919e-08
1.40233e-08
1.40546e-08
1.40857e-08
1.41166e-08
1.41472e-08
1.41776e-08
1.42075e-08
1.4237e-08
1.4266e-08
1.42946e-08
1.43227e-08
1.43504e-08
1.43776e-08
1.44043e-08
1.44305e-08
1.44563e-08
1.44816e-08
1.45064e-08
1.45308e-08
1.45548e-08
1.45784e-08
1.46019e-08
1.46254e-08
1.46487e-08
1.46718e-08
1.46945e-08
1.4717e-08
1.47396e-08
1.47622e-08
1.47844e-08
1.48063e-08
1.48281e-08
1.48495e-08
1.48709e-08
1.48924e-08
1.49141e-08
1.49358e-08
1.49576e-08
1.49795e-08
1.50018e-08
1.50246e-08
1.50478e-08
1.50715e-08
1.50957e-08
1.51203e-08
1.51451e-08
1.51699e-08
1.51949e-08
1.52201e-08
1.52456e-08
1.52711e-08
1.52967e-08
1.53222e-08
1.53477e-08
1.53731e-08
1.53983e-08
1.54233e-08
1.54483e-08
1.54733e-08
1.54985e-08
1.5524e-08
1.55498e-08
1.55762e-08
1.56033e-08
1.56312e-08
1.56598e-08
1.56893e-08
1.57195e-08
1.57504e-08
1.5782e-08
1.58141e-08
1.58466e-08
1.58794e-08
1.59122e-08
1.5945e-08
1.59781e-08
1.6011e-08
1.60441e-08
1.60781e-08
1.61124e-08
1.61467e-08
1.61811e-08
1.62155e-08
1.625e-08
1.62848e-08
1.63201e-08
1.63562e-08
1.63932e-08
1.64312e-08
1.64702e-08
1.65102e-08
1.65511e-08
1.65929e-08
1.66356e-08
1.66792e-08
1.67233e-08
1.6768e-08
1.68127e-08
1.68574e-08
1.69015e-08
1.69451e-08
1.69881e-08
1.70308e-08
1.70731e-08
1.71153e-08
1.71571e-08
1.71989e-08
1.72404e-08
1.72819e-08
1.73231e-08
1.73647e-08
1.74065e-08
1.74496e-08
1.74936e-08
1.754e-08
1.75886e-08
1.76407e-08
1.7698e-08
1.77611e-08
1.78363e-08
1.79246e-08
1.80381e-08
1.81825e-08
1.83799e-08
1.86424e-08
1.90127e-08
1.95177e-08
2.01875e-08
2.12048e-08
2.09299e-08
2.33905e-08
2.85999e-08
3.16348e-08
3.64808e-08
4.2083e-08
4.06924e-08
3.84968e-08
4.35694e-08
5.13838e-08
5.62132e-08
5.55003e-08
5.13783e-08
)
;

boundaryField
{
    inlet
    {
        type            calculated;
        value           uniform 0;
    }
    endWall
    {
        type            calculated;
        value           uniform 0;
    }
    sideWall
    {
        type            empty;
    }
}


// ************************************************************************* //
