/*--------------------------------*- C++ -*----------------------------------*\
| =========                 |                                                 |
| \\      /  F ield         | foam-extend: Open Source CFD                    |
|  \\    /   O peration     | Version:     3.2                                |
|   \\  /    A nd           | Web:         http://www.foam-extend.org         |
|    \\/     M anipulation  | For copyright notice see file Copyright         |
\*---------------------------------------------------------------------------*/
FoamFile
{
    version     2.0;
    format      ascii;
    class       areaScalarField;
    location    "120";
    object      Fi1;
}
// * * * * * * * * * * * * * * * * * * * * * * * * * * * * * * * * * * * * * //

dimensions      [0 1 -1 0 0 0 0];

internalField   nonuniform List<scalar> 
550
(
6.05354e-08
5.62946e-08
5.01033e-08
2.02224e-08
-2.60695e-08
-6.56817e-08
-1.02545e-07
-1.33489e-07
-1.56183e-07
-1.69698e-07
-1.74495e-07
-1.7191e-07
-1.63803e-07
-1.51965e-07
-1.38087e-07
-1.23518e-07
-1.0933e-07
-9.61885e-08
-8.48624e-08
-7.53211e-08
-6.69561e-08
-5.9687e-08
-5.34421e-08
-4.81568e-08
-4.37543e-08
-4.01228e-08
-3.7205e-08
-3.49246e-08
-3.29987e-08
-3.122e-08
-2.96277e-08
-2.82378e-08
-2.70168e-08
-2.59328e-08
-2.49619e-08
-2.40873e-08
-2.32945e-08
-2.25696e-08
-2.19034e-08
-2.12885e-08
-2.07169e-08
-2.01817e-08
-1.9676e-08
-1.91962e-08
-1.87402e-08
-1.83085e-08
-1.79016e-08
-1.75175e-08
-1.71543e-08
-1.68102e-08
-1.64833e-08
-1.61715e-08
-1.58721e-08
-1.55819e-08
-1.52985e-08
-1.50207e-08
-1.47493e-08
-1.44845e-08
-1.42253e-08
-1.39708e-08
-1.37215e-08
-1.34777e-08
-1.32394e-08
-1.30065e-08
-1.27787e-08
-1.25555e-08
-1.23363e-08
-1.21203e-08
-1.19066e-08
-1.16947e-08
-1.14838e-08
-1.12736e-08
-1.10645e-08
-1.08567e-08
-1.065e-08
-1.04434e-08
-1.02369e-08
-1.00316e-08
-9.82946e-09
-9.63222e-09
-9.4392e-09
-9.24884e-09
-9.06109e-09
-8.87586e-09
-8.6929e-09
-8.51202e-09
-8.33302e-09
-8.1557e-09
-7.97976e-09
-7.80498e-09
-7.6306e-09
-7.45474e-09
-7.27721e-09
-7.10012e-09
-6.92435e-09
-6.74993e-09
-6.57672e-09
-6.40452e-09
-6.23397e-09
-6.06497e-09
-5.89544e-09
-5.72389e-09
-5.5502e-09
-5.37427e-09
-5.19608e-09
-5.01566e-09
-4.83297e-09
-4.64795e-09
-4.46055e-09
-4.27077e-09
-4.07862e-09
-3.88427e-09
-3.68777e-09
-3.48964e-09
-3.29043e-09
-3.08865e-09
-2.88397e-09
-2.67854e-09
-2.47293e-09
-2.26664e-09
-2.05973e-09
-1.85221e-09
-1.64402e-09
-1.43508e-09
-1.22525e-09
-1.01417e-09
-8.01842e-10
-5.86496e-10
-2.03507e-10
-2.83574e-11
-5.21502e-11
2.4057e-10
3.9475e-10
5.81171e-10
7.6894e-10
9.59355e-10
1.14946e-09
1.33847e-09
1.52578e-09
1.71111e-09
1.8942e-09
2.07497e-09
2.25327e-09
2.42907e-09
2.60231e-09
2.773e-09
2.94115e-09
3.10668e-09
3.26948e-09
3.42978e-09
3.58765e-09
3.74298e-09
3.8958e-09
4.046e-09
4.19336e-09
4.33786e-09
4.47943e-09
4.61784e-09
4.75292e-09
4.8848e-09
5.02441e-09
5.16833e-09
5.29925e-09
5.42525e-09
5.54822e-09
5.66816e-09
5.7851e-09
5.89907e-09
6.01017e-09
6.11856e-09
6.22437e-09
6.32759e-09
6.42822e-09
6.52642e-09
6.62224e-09
6.71562e-09
6.80656e-09
6.89501e-09
6.98092e-09
7.06429e-09
7.14513e-09
7.22349e-09
7.29943e-09
7.373e-09
7.44419e-09
7.51306e-09
7.57973e-09
7.64426e-09
7.70664e-09
7.76694e-09
7.82518e-09
7.88141e-09
7.93573e-09
7.98821e-09
8.03893e-09
8.08792e-09
8.13523e-09
8.1809e-09
8.22494e-09
8.26727e-09
8.30794e-09
8.34709e-09
8.38474e-09
8.42093e-09
8.45581e-09
8.48942e-09
8.52192e-09
8.55354e-09
8.5842e-09
8.61396e-09
8.64292e-09
8.67107e-09
8.69849e-09
8.72535e-09
8.75182e-09
8.77799e-09
8.80398e-09
8.8299e-09
8.85574e-09
8.88148e-09
8.90715e-09
8.93289e-09
8.95885e-09
8.9855e-09
9.01349e-09
9.0431e-09
9.0749e-09
9.10904e-09
9.14495e-09
9.18218e-09
9.22034e-09
9.25908e-09
9.29817e-09
9.3375e-09
9.37701e-09
9.41666e-09
9.45639e-09
9.49622e-09
9.53612e-09
9.57608e-09
9.61598e-09
9.65578e-09
9.69544e-09
9.73488e-09
9.77407e-09
9.81296e-09
9.85156e-09
9.88982e-09
9.92775e-09
9.96532e-09
1.00025e-08
1.00391e-08
1.00752e-08
1.01108e-08
1.0146e-08
1.01806e-08
1.02147e-08
1.02483e-08
1.02814e-08
1.0314e-08
1.03461e-08
1.03776e-08
1.04086e-08
1.04391e-08
1.04691e-08
1.04986e-08
1.05275e-08
1.05561e-08
1.05842e-08
1.06119e-08
1.06391e-08
1.06657e-08
1.06919e-08
1.07174e-08
1.07423e-08
1.07667e-08
1.07903e-08
1.08131e-08
1.08351e-08
1.08562e-08
1.08764e-08
1.08958e-08
1.09143e-08
1.0932e-08
1.0949e-08
1.09651e-08
1.09802e-08
1.09945e-08
1.10077e-08
1.10199e-08
1.1031e-08
1.10411e-08
1.105e-08
1.10577e-08
1.10645e-08
1.10705e-08
1.10758e-08
1.10803e-08
1.10839e-08
1.10867e-08
1.10893e-08
1.10913e-08
1.1092e-08
1.10918e-08
1.10914e-08
1.10912e-08
1.10912e-08
1.10914e-08
1.10918e-08
1.10926e-08
1.10937e-08
1.1095e-08
1.10963e-08
1.10982e-08
1.1101e-08
1.11045e-08
1.11214e-08
1.1158e-08
1.11869e-08
1.11999e-08
1.12122e-08
1.12236e-08
1.12341e-08
1.12439e-08
1.1253e-08
1.12616e-08
1.12697e-08
1.12774e-08
1.12845e-08
1.12911e-08
1.12968e-08
1.13017e-08
1.13058e-08
1.13091e-08
1.13118e-08
1.1314e-08
1.13157e-08
1.13171e-08
1.13182e-08
1.13423e-08
1.13882e-08
1.14184e-08
1.14427e-08
1.14689e-08
1.14972e-08
1.1527e-08
1.15577e-08
1.1589e-08
1.16214e-08
1.16552e-08
1.16899e-08
1.17254e-08
1.1762e-08
1.17997e-08
1.18383e-08
1.18776e-08
1.19175e-08
1.19582e-08
1.19994e-08
1.20414e-08
1.20841e-08
1.21273e-08
1.21711e-08
1.22153e-08
1.22601e-08
1.23053e-08
1.23511e-08
1.23974e-08
1.2444e-08
1.2491e-08
1.25381e-08
1.25854e-08
1.26327e-08
1.26799e-08
1.27269e-08
1.27736e-08
1.28201e-08
1.28663e-08
1.2912e-08
1.29573e-08
1.30022e-08
1.30466e-08
1.30905e-08
1.31338e-08
1.31766e-08
1.32187e-08
1.326e-08
1.33006e-08
1.33402e-08
1.33789e-08
1.34168e-08
1.34539e-08
1.34903e-08
1.35261e-08
1.35615e-08
1.35965e-08
1.36312e-08
1.36655e-08
1.36995e-08
1.37331e-08
1.37664e-08
1.37993e-08
1.3832e-08
1.38645e-08
1.38967e-08
1.39286e-08
1.39603e-08
1.39918e-08
1.40233e-08
1.40546e-08
1.40857e-08
1.41166e-08
1.41472e-08
1.41775e-08
1.42075e-08
1.4237e-08
1.4266e-08
1.42946e-08
1.43227e-08
1.43504e-08
1.43776e-08
1.44043e-08
1.44305e-08
1.44563e-08
1.44816e-08
1.45064e-08
1.45308e-08
1.45548e-08
1.45784e-08
1.46019e-08
1.46253e-08
1.46487e-08
1.46718e-08
1.46945e-08
1.4717e-08
1.47396e-08
1.47621e-08
1.47843e-08
1.48063e-08
1.48281e-08
1.48495e-08
1.48709e-08
1.48924e-08
1.49141e-08
1.49359e-08
1.49576e-08
1.49795e-08
1.50018e-08
1.50246e-08
1.50478e-08
1.50715e-08
1.50958e-08
1.51203e-08
1.51451e-08
1.517e-08
1.51949e-08
1.52201e-08
1.52456e-08
1.52712e-08
1.52967e-08
1.53223e-08
1.53477e-08
1.53731e-08
1.53983e-08
1.54233e-08
1.54483e-08
1.54733e-08
1.54985e-08
1.5524e-08
1.55498e-08
1.55762e-08
1.56033e-08
1.56312e-08
1.56598e-08
1.56892e-08
1.57195e-08
1.57504e-08
1.5782e-08
1.58141e-08
1.58466e-08
1.58794e-08
1.59121e-08
1.5945e-08
1.59781e-08
1.6011e-08
1.60441e-08
1.6078e-08
1.61124e-08
1.61467e-08
1.61811e-08
1.62155e-08
1.625e-08
1.62848e-08
1.63201e-08
1.63562e-08
1.63932e-08
1.64312e-08
1.64702e-08
1.65102e-08
1.65511e-08
1.65929e-08
1.66356e-08
1.66792e-08
1.67234e-08
1.6768e-08
1.68128e-08
1.68574e-08
1.69015e-08
1.69451e-08
1.69882e-08
1.70309e-08
1.70731e-08
1.71153e-08
1.71572e-08
1.7199e-08
1.72404e-08
1.72819e-08
1.73231e-08
1.73647e-08
1.74065e-08
1.74496e-08
1.74936e-08
1.754e-08
1.75886e-08
1.76407e-08
1.7698e-08
1.77611e-08
1.78363e-08
1.79246e-08
1.80381e-08
1.81825e-08
1.83799e-08
1.86423e-08
1.90127e-08
1.95177e-08
2.01875e-08
2.12048e-08
2.093e-08
2.33906e-08
2.85996e-08
3.16344e-08
3.64807e-08
4.20829e-08
4.06925e-08
3.84969e-08
4.35694e-08
5.13837e-08
5.62131e-08
5.55003e-08
5.13783e-08
)
;

boundaryField
{
    inlet
    {
        type            calculated;
        value           uniform 0;
    }
    endWall
    {
        type            calculated;
        value           uniform 0;
    }
    sideWall
    {
        type            empty;
    }
}


// ************************************************************************* //
