/*--------------------------------*- C++ -*----------------------------------*\
| =========                 |                                                 |
| \\      /  F ield         | foam-extend: Open Source CFD                    |
|  \\    /   O peration     | Version:     3.2                                |
|   \\  /    A nd           | Web:         http://www.foam-extend.org         |
|    \\/     M anipulation  | For copyright notice see file Copyright         |
\*---------------------------------------------------------------------------*/
FoamFile
{
    version     2.0;
    format      ascii;
    class       areaScalarField;
    location    "120";
    object      Fi2;
}
// * * * * * * * * * * * * * * * * * * * * * * * * * * * * * * * * * * * * * //

dimensions      [0 1 -1 0 0 0 0];

internalField   nonuniform List<scalar> 
550
(
6.05354e-08
5.62946e-08
5.01033e-08
2.02224e-08
-2.60695e-08
-6.56816e-08
-1.02545e-07
-1.33489e-07
-1.56182e-07
-1.69698e-07
-1.74495e-07
-1.71909e-07
-1.63802e-07
-1.51965e-07
-1.38087e-07
-1.23518e-07
-1.0933e-07
-9.61884e-08
-8.48624e-08
-7.53211e-08
-6.69561e-08
-5.96871e-08
-5.34422e-08
-4.8157e-08
-4.37545e-08
-4.01229e-08
-3.72052e-08
-3.49247e-08
-3.29987e-08
-3.122e-08
-2.96276e-08
-2.82377e-08
-2.70167e-08
-2.59326e-08
-2.49618e-08
-2.40872e-08
-2.32944e-08
-2.25695e-08
-2.19033e-08
-2.12884e-08
-2.07168e-08
-2.01816e-08
-1.96759e-08
-1.91961e-08
-1.87401e-08
-1.83084e-08
-1.79015e-08
-1.75174e-08
-1.71542e-08
-1.68102e-08
-1.64832e-08
-1.61715e-08
-1.58722e-08
-1.5582e-08
-1.52986e-08
-1.50209e-08
-1.47494e-08
-1.44847e-08
-1.42255e-08
-1.3971e-08
-1.37218e-08
-1.3478e-08
-1.32398e-08
-1.30069e-08
-1.27792e-08
-1.25561e-08
-1.23369e-08
-1.21209e-08
-1.19072e-08
-1.16952e-08
-1.14843e-08
-1.12741e-08
-1.1065e-08
-1.08572e-08
-1.06504e-08
-1.04437e-08
-1.02372e-08
-1.0032e-08
-9.8298e-09
-9.63256e-09
-9.43954e-09
-9.24919e-09
-9.06143e-09
-8.87619e-09
-8.6932e-09
-8.5123e-09
-8.33325e-09
-8.1559e-09
-7.97991e-09
-7.8051e-09
-7.63067e-09
-7.45477e-09
-7.27721e-09
-7.10009e-09
-6.9243e-09
-6.74986e-09
-6.57664e-09
-6.40443e-09
-6.23388e-09
-6.06488e-09
-5.89535e-09
-5.72381e-09
-5.55012e-09
-5.37421e-09
-5.19603e-09
-5.01562e-09
-4.83293e-09
-4.64792e-09
-4.46052e-09
-4.27074e-09
-4.07859e-09
-3.88424e-09
-3.68773e-09
-3.48961e-09
-3.2904e-09
-3.08863e-09
-2.88396e-09
-2.67853e-09
-2.47293e-09
-2.26666e-09
-2.05976e-09
-1.85225e-09
-1.64407e-09
-1.43513e-09
-1.22529e-09
-1.01421e-09
-8.01883e-10
-5.86532e-10
-2.03598e-10
-2.84206e-11
-5.21216e-11
2.40548e-10
3.94733e-10
5.81157e-10
7.68931e-10
9.59349e-10
1.14945e-09
1.33846e-09
1.52576e-09
1.71108e-09
1.89416e-09
2.07491e-09
2.25321e-09
2.42899e-09
2.60223e-09
2.77292e-09
2.94106e-09
3.10658e-09
3.26939e-09
3.42969e-09
3.58757e-09
3.74291e-09
3.89573e-09
4.04594e-09
4.19331e-09
4.33781e-09
4.47938e-09
4.61779e-09
4.75287e-09
4.88475e-09
5.02447e-09
5.16845e-09
5.29925e-09
5.42525e-09
5.54821e-09
5.66815e-09
5.78509e-09
5.89906e-09
6.01016e-09
6.11855e-09
6.22437e-09
6.32759e-09
6.42823e-09
6.52643e-09
6.62225e-09
6.71564e-09
6.80658e-09
6.89504e-09
6.98095e-09
7.06432e-09
7.14516e-09
7.22352e-09
7.29947e-09
7.37304e-09
7.44422e-09
7.51309e-09
7.57976e-09
7.64429e-09
7.70668e-09
7.76697e-09
7.82521e-09
7.88144e-09
7.93576e-09
7.98824e-09
8.03895e-09
8.08795e-09
8.13526e-09
8.18093e-09
8.22496e-09
8.26729e-09
8.30796e-09
8.34711e-09
8.38476e-09
8.42094e-09
8.45583e-09
8.48944e-09
8.52194e-09
8.55356e-09
8.58422e-09
8.61398e-09
8.64294e-09
8.67108e-09
8.6985e-09
8.72536e-09
8.75181e-09
8.77799e-09
8.80397e-09
8.82989e-09
8.85572e-09
8.88146e-09
8.90713e-09
8.93285e-09
8.95882e-09
8.98546e-09
9.01344e-09
9.04306e-09
9.07486e-09
9.10901e-09
9.14492e-09
9.18216e-09
9.22032e-09
9.25907e-09
9.29816e-09
9.33749e-09
9.37701e-09
9.41666e-09
9.4564e-09
9.49623e-09
9.53613e-09
9.5761e-09
9.616e-09
9.6558e-09
9.69546e-09
9.73491e-09
9.7741e-09
9.81298e-09
9.85157e-09
9.88984e-09
9.92776e-09
9.96533e-09
1.00025e-08
1.00391e-08
1.00752e-08
1.01108e-08
1.0146e-08
1.01806e-08
1.02147e-08
1.02483e-08
1.02814e-08
1.0314e-08
1.0346e-08
1.03776e-08
1.04086e-08
1.04391e-08
1.04691e-08
1.04985e-08
1.05275e-08
1.0556e-08
1.05842e-08
1.06118e-08
1.0639e-08
1.06657e-08
1.06918e-08
1.07173e-08
1.07423e-08
1.07666e-08
1.07903e-08
1.08131e-08
1.08351e-08
1.08562e-08
1.08764e-08
1.08958e-08
1.09143e-08
1.0932e-08
1.0949e-08
1.09651e-08
1.09802e-08
1.09945e-08
1.10077e-08
1.10199e-08
1.1031e-08
1.10411e-08
1.105e-08
1.10577e-08
1.10645e-08
1.10705e-08
1.10758e-08
1.10803e-08
1.10839e-08
1.10867e-08
1.10893e-08
1.10913e-08
1.1092e-08
1.10918e-08
1.10914e-08
1.10912e-08
1.10912e-08
1.10914e-08
1.10918e-08
1.10926e-08
1.10937e-08
1.1095e-08
1.10963e-08
1.10982e-08
1.1101e-08
1.11045e-08
1.11213e-08
1.11578e-08
1.11869e-08
1.11999e-08
1.12122e-08
1.12236e-08
1.12341e-08
1.12439e-08
1.1253e-08
1.12616e-08
1.12697e-08
1.12774e-08
1.12846e-08
1.12911e-08
1.12968e-08
1.13017e-08
1.13058e-08
1.13091e-08
1.13118e-08
1.1314e-08
1.13157e-08
1.13171e-08
1.13182e-08
1.13423e-08
1.13882e-08
1.14184e-08
1.14427e-08
1.14689e-08
1.14972e-08
1.1527e-08
1.15577e-08
1.1589e-08
1.16214e-08
1.16552e-08
1.16899e-08
1.17255e-08
1.1762e-08
1.17997e-08
1.18383e-08
1.18776e-08
1.19175e-08
1.19582e-08
1.19995e-08
1.20414e-08
1.20841e-08
1.21273e-08
1.21711e-08
1.22153e-08
1.22601e-08
1.23053e-08
1.23511e-08
1.23974e-08
1.2444e-08
1.2491e-08
1.25381e-08
1.25854e-08
1.26327e-08
1.26799e-08
1.27269e-08
1.27736e-08
1.28201e-08
1.28663e-08
1.2912e-08
1.29573e-08
1.30022e-08
1.30466e-08
1.30905e-08
1.31338e-08
1.31766e-08
1.32187e-08
1.32601e-08
1.33006e-08
1.33402e-08
1.33789e-08
1.34168e-08
1.34539e-08
1.34903e-08
1.35261e-08
1.35615e-08
1.35965e-08
1.36312e-08
1.36655e-08
1.36995e-08
1.37331e-08
1.37664e-08
1.37993e-08
1.3832e-08
1.38645e-08
1.38966e-08
1.39286e-08
1.39603e-08
1.39918e-08
1.40233e-08
1.40546e-08
1.40857e-08
1.41166e-08
1.41472e-08
1.41775e-08
1.42075e-08
1.42369e-08
1.4266e-08
1.42946e-08
1.43227e-08
1.43504e-08
1.43776e-08
1.44043e-08
1.44305e-08
1.44563e-08
1.44816e-08
1.45064e-08
1.45308e-08
1.45548e-08
1.45784e-08
1.46019e-08
1.46253e-08
1.46487e-08
1.46718e-08
1.46944e-08
1.47169e-08
1.47396e-08
1.47621e-08
1.47843e-08
1.48063e-08
1.48281e-08
1.48495e-08
1.48709e-08
1.48924e-08
1.49141e-08
1.49359e-08
1.49576e-08
1.49795e-08
1.50018e-08
1.50246e-08
1.50478e-08
1.50716e-08
1.50958e-08
1.51204e-08
1.51451e-08
1.517e-08
1.51949e-08
1.52201e-08
1.52456e-08
1.52712e-08
1.52967e-08
1.53223e-08
1.53478e-08
1.53731e-08
1.53983e-08
1.54234e-08
1.54483e-08
1.54733e-08
1.54985e-08
1.5524e-08
1.55498e-08
1.55762e-08
1.56033e-08
1.56312e-08
1.56598e-08
1.56892e-08
1.57195e-08
1.57504e-08
1.5782e-08
1.58141e-08
1.58466e-08
1.58794e-08
1.59121e-08
1.59449e-08
1.5978e-08
1.6011e-08
1.60441e-08
1.6078e-08
1.61124e-08
1.61467e-08
1.6181e-08
1.62154e-08
1.625e-08
1.62848e-08
1.63201e-08
1.63562e-08
1.63932e-08
1.64312e-08
1.64702e-08
1.65102e-08
1.65511e-08
1.6593e-08
1.66357e-08
1.66792e-08
1.67234e-08
1.67681e-08
1.68128e-08
1.68574e-08
1.69015e-08
1.69452e-08
1.69882e-08
1.70309e-08
1.70732e-08
1.71154e-08
1.71572e-08
1.7199e-08
1.72404e-08
1.72819e-08
1.73231e-08
1.73647e-08
1.74065e-08
1.74496e-08
1.74936e-08
1.754e-08
1.75886e-08
1.76407e-08
1.7698e-08
1.77611e-08
1.78362e-08
1.79246e-08
1.80381e-08
1.81825e-08
1.83799e-08
1.86423e-08
1.90127e-08
1.95177e-08
2.01875e-08
2.12048e-08
2.09301e-08
2.33907e-08
2.85993e-08
3.1634e-08
3.64806e-08
4.20829e-08
4.06926e-08
3.8497e-08
4.35693e-08
5.13837e-08
5.62131e-08
5.55003e-08
5.13783e-08
)
;

boundaryField
{
    inlet
    {
        type            calculated;
        value           uniform 0;
    }
    endWall
    {
        type            calculated;
        value           uniform 0;
    }
    sideWall
    {
        type            empty;
    }
}


// ************************************************************************* //
