/*--------------------------------*- C++ -*----------------------------------*\
| =========                 |                                                 |
| \\      /  F ield         | foam-extend: Open Source CFD                    |
|  \\    /   O peration     | Version:     3.2                                |
|   \\  /    A nd           | Web:         http://www.foam-extend.org         |
|    \\/     M anipulation  | For copyright notice see file Copyright         |
\*---------------------------------------------------------------------------*/
FoamFile
{
    version     2.0;
    format      ascii;
    class       volScalarField;
    location    "120";
    object      k;
}
// * * * * * * * * * * * * * * * * * * * * * * * * * * * * * * * * * * * * * //

dimensions      [0 2 -2 0 0 0 0];

internalField   nonuniform List<scalar> 
33000
(
0.000163516
0.000225633
0.000301012
0.000388899
0.000487106
0.000592222
0.000700242
0.000806699
0.000907715
0.000999727
0.00108047
0.0011484
0.00120319
0.00124504
0.00127485
0.00129373
0.00130316
0.00130461
0.0012996
0.0012899
0.00127652
0.00126031
0.00124204
0.00122235
0.00120182
0.00118094
0.00116009
0.00113966
0.00111993
0.0011009
0.00108261
0.00106512
0.00104847
0.00103268
0.00101776
0.0010037
0.000990469
0.000978054
0.000966419
0.000955531
0.000945354
0.000935848
0.000926973
0.000918686
0.000910949
0.000903723
0.000896976
0.000890676
0.000884795
0.000879302
0.000874172
0.000869377
0.000864893
0.000860695
0.000856757
0.000853054
0.000849567
0.000846276
0.000843164
0.000840214
0.000837413
0.000834747
0.000832205
0.000829778
0.000827456
0.000825231
0.000823095
0.00082104
0.00081906
0.000817147
0.000815294
0.000813494
0.000811743
0.000810035
0.000808366
0.000806732
0.000805128
0.000803551
0.000801999
0.000800473
0.000798974
0.000797501
0.000796053
0.000794628
0.000793226
0.000791845
0.000790485
0.000789145
0.000787823
0.000786517
0.000785228
0.000783951
0.000782684
0.000781424
0.000780172
0.000778927
0.00077769
0.00077646
0.000775238
0.000774023
0.000772816
0.000771613
0.000770412
0.00076921
0.000768007
0.000766798
0.000765584
0.000764363
0.000763132
0.000761891
0.000760639
0.000759375
0.000758098
0.000756807
0.000755503
0.000754187
0.000752855
0.000751508
0.000750147
0.000748773
0.000747387
0.00074599
0.000744581
0.000743162
0.000741731
0.00074029
0.000738838
0.000737374
0.000735894
0.000734394
0.0007329
0.000731439
0.00073
0.000728571
0.000727149
0.00072573
0.000724312
0.000722894
0.000721477
0.000720061
0.000718646
0.000717233
0.000715822
0.000714415
0.000713013
0.000711615
0.000710223
0.000708839
0.000707462
0.000706093
0.000704733
0.000703382
0.00070204
0.000700709
0.000699389
0.000698081
0.000696785
0.000695502
0.000694233
0.000692979
0.00069174
0.000690517
0.000689311
0.000688123
0.000686952
0.000685799
0.000684665
0.00068355
0.000682453
0.000681375
0.000680315
0.000679274
0.00067825
0.000677243
0.000676252
0.000675278
0.000674319
0.000673375
0.000672446
0.000671531
0.000670631
0.000669744
0.000668871
0.000668011
0.000667165
0.000666333
0.000665513
0.000664707
0.000663915
0.000663136
0.00066237
0.000661619
0.000660882
0.00066016
0.000659453
0.000658762
0.000658087
0.000657428
0.000656786
0.000656161
0.000655554
0.000654965
0.000654394
0.000653843
0.00065331
0.000652796
0.0006523
0.000651823
0.000651363
0.000650921
0.000650495
0.000650087
0.000649694
0.000649318
0.000648957
0.000648611
0.000648279
0.000647961
0.000647656
0.000647363
0.000647082
0.000646812
0.000646552
0.000646303
0.000646063
0.000645832
0.000645608
0.000645386
0.000645162
0.000644935
0.000644703
0.000644465
0.000644221
0.00064397
0.000643713
0.000643448
0.000643177
0.000642899
0.000642613
0.000642321
0.000642021
0.000641714
0.0006414
0.00064108
0.000640752
0.000640418
0.000640078
0.000639731
0.000639379
0.000639022
0.00063866
0.000638292
0.000637921
0.000637545
0.000637164
0.00063678
0.000636393
0.000636001
0.000635607
0.00063521
0.000634809
0.000634407
0.000634002
0.000633594
0.000633185
0.000632774
0.000632362
0.000631947
0.000631531
0.000631114
0.000630695
0.000630276
0.000629855
0.000629433
0.00062901
0.000628586
0.000628161
0.000627734
0.000627306
0.000626877
0.000626445
0.000626012
0.000625578
0.000625142
0.000624704
0.000624264
0.000623823
0.000623381
0.000622937
0.000622493
0.000622047
0.000621601
0.000621155
0.00062071
0.000620265
0.000619821
0.000619379
0.000618939
0.000618503
0.00061807
0.000617641
0.000617217
0.000616799
0.000616387
0.000615982
0.000615583
0.00061519
0.000614804
0.000614425
0.000614052
0.000613687
0.000613329
0.00061298
0.000612638
0.000612305
0.000611979
0.00061166
0.000611348
0.000611042
0.000610742
0.000610449
0.000610161
0.000609879
0.000609602
0.000609332
0.000609068
0.000608809
0.000608555
0.000608306
0.000608062
0.000607823
0.00060759
0.000607361
0.000607139
0.000606922
0.000606712
0.000606506
0.000606306
0.000606111
0.000605921
0.000605735
0.000605553
0.000605376
0.000605201
0.000605028
0.000604857
0.000604688
0.000604519
0.000604351
0.000604183
0.000604016
0.000603847
0.000603678
0.000603506
0.000603332
0.000603154
0.000602973
0.000602788
0.000602599
0.000602404
0.000602204
0.000601998
0.000601786
0.000601568
0.000601343
0.00060111
0.000600869
0.00060062
0.000600361
0.000600091
0.00059981
0.000599518
0.000599214
0.000598897
0.000598569
0.000598229
0.000597877
0.000597515
0.000597142
0.000596759
0.000596366
0.000595963
0.00059555
0.000595128
0.000594696
0.000594255
0.000593806
0.000593349
0.000592885
0.000592414
0.000591939
0.000591459
0.000590975
0.000590488
0.000589998
0.000589505
0.000589009
0.000588511
0.000588011
0.000587508
0.000587004
0.000586498
0.000585991
0.000585483
0.000584974
0.000584463
0.000583952
0.000583439
0.000582924
0.000582408
0.00058189
0.000581371
0.00058085
0.000580327
0.000579804
0.000579279
0.000578753
0.000578227
0.000577701
0.000577174
0.000576648
0.000576122
0.000575596
0.000575072
0.000574549
0.000574027
0.000573508
0.00057299
0.000572474
0.00057196
0.000571447
0.000570936
0.000570427
0.000569919
0.000569412
0.000568908
0.000568405
0.000567904
0.000567405
0.000566909
0.000566416
0.000565925
0.000565436
0.00056495
0.000564466
0.000563985
0.000563508
0.000563034
0.000562564
0.000562099
0.000561638
0.000561181
0.000560728
0.000560279
0.000559835
0.000559395
0.000558959
0.000558528
0.000558101
0.00055768
0.000557263
0.000556852
0.000556445
0.000556042
0.000555643
0.000555249
0.00055486
0.000554475
0.000554097
0.000553724
0.000553357
0.000552996
0.000552641
0.000552292
0.000551946
0.000551606
0.000551268
0.000550934
0.000550603
0.000550274
0.000549948
0.000549626
0.000549307
0.000548992
0.000548682
0.000548376
0.000548073
0.000547774
0.000547478
0.000547184
0.000546893
0.000546604
0.000546318
0.000546035
0.000545755
0.000545479
0.000545204
0.000544931
0.000544657
0.000544382
0.000544105
0.000543824
0.000543537
0.000543245
0.000542945
0.000542639
0.000542325
0.000542005
0.000541676
0.000541343
0.000541003
0.000540659
0.000540308
0.000539955
0.000539595
0.000539232
0.000538863
0.000538492
0.000538114
0.000537735
0.000537347
0.000536957
0.000536556
0.000536148
0.000535722
0.000535282
0.000534811
0.000534318
0.000533763
0.000533169
0.000532456
0.000531663
0.000530632
0.000529439
0.000527775
0.00052581
0.000522829
0.000519525
0.000512365
0.000500373
0.000484865
0.000465236
0.000436414
0.000397647
0.000344868
0.000275571
0.000170952
8.18127e-05
0.00010721
0.000181928
0.000113447
0.00011724
0.000123461
0.000131286
0.000141764
0.000153926
0.00016734
0.00018163
0.000196888
0.000212549
0.000228683
0.000244469
0.000259814
0.000274413
0.000288433
0.000302035
0.000315508
0.000329451
0.000344234
0.000359967
0.000377103
0.000395364
0.000413229
0.000431179
0.000449651
0.000469039
0.000489654
0.00051091
0.000531561
0.000551597
0.00057094
0.000589511
0.000607263
0.000624147
0.000640126
0.000655177
0.000669298
0.000682497
0.000694795
0.000706216
0.000716799
0.000726583
0.000735617
0.000743945
0.000751622
0.000758695
0.000765265
0.00077136
0.000777004
0.000782216
0.000787013
0.00079141
0.000795419
0.000799054
0.000802333
0.000805271
0.000807887
0.000810206
0.000812258
0.000814055
0.00081562
0.000816962
0.000818092
0.000819021
0.000819761
0.000820325
0.000820727
0.00082098
0.000821098
0.000821092
0.000820973
0.00082075
0.000820429
0.000820018
0.000819523
0.00081895
0.000818303
0.000817586
0.000816805
0.000815964
0.000815071
0.000814134
0.000813154
0.00081214
0.000811093
0.000810019
0.000808916
0.000807791
0.000806641
0.00080547
0.000804276
0.000803062
0.000801824
0.000800564
0.000799275
0.000797953
0.000796595
0.000795198
0.000793757
0.000792267
0.00079073
0.000789145
0.000787511
0.00078583
0.000784101
0.000782328
0.000780512
0.000778657
0.000776766
0.000774841
0.000772887
0.000770906
0.000768902
0.000766877
0.000764834
0.000762778
0.00076071
0.00075863
0.000756543
0.000754453
0.000752361
0.000750271
0.000748187
0.00074611
0.000744045
0.000741992
0.000739955
0.000737935
0.000735939
0.000733974
0.000732036
0.000730106
0.000728197
0.000726314
0.00072446
0.000722635
0.00072084
0.000719074
0.000717338
0.00071563
0.000713951
0.0007123
0.000710678
0.000709084
0.00070752
0.000705984
0.000704479
0.000703004
0.00070156
0.000700147
0.000698766
0.000697417
0.000696099
0.000694812
0.000693557
0.000692334
0.000691142
0.000689982
0.000688853
0.000687756
0.000686692
0.000685658
0.000684657
0.000683687
0.000682749
0.000681843
0.00068097
0.000680127
0.000679316
0.000678535
0.000677784
0.000677061
0.000676366
0.000675696
0.000675051
0.000674429
0.000673829
0.00067325
0.000672689
0.000672147
0.000671623
0.000671116
0.000670626
0.000670153
0.000669696
0.000669255
0.00066883
0.000668421
0.000668027
0.000667648
0.000667284
0.000666936
0.000666604
0.000666288
0.000665989
0.000665707
0.000665444
0.000665199
0.000664973
0.000664767
0.00066458
0.000664413
0.000664267
0.000664141
0.000664034
0.000663946
0.000663876
0.000663822
0.000663783
0.000663757
0.000663744
0.000663741
0.000663749
0.000663765
0.000663791
0.000663823
0.000663862
0.000663905
0.000663951
0.000663998
0.000664047
0.000664094
0.000664141
0.000664186
0.000664228
0.000664266
0.000664289
0.000664275
0.000664231
0.000664162
0.000664072
0.000663965
0.000663843
0.000663705
0.000663555
0.000663392
0.000663216
0.000663029
0.000662829
0.000662618
0.000662394
0.000662158
0.000661911
0.000661651
0.000661379
0.000661096
0.000660802
0.000660498
0.000660185
0.000659864
0.000659535
0.000659198
0.000658855
0.000658506
0.000658152
0.000657792
0.000657427
0.000657058
0.000656684
0.000656307
0.000655927
0.000655545
0.00065516
0.000654773
0.000654386
0.000653997
0.000653608
0.000653219
0.000652829
0.000652439
0.00065205
0.000651661
0.000651274
0.000650889
0.000650505
0.000650123
0.000649742
0.000649362
0.000648983
0.000648605
0.000648228
0.000647852
0.000647477
0.000647103
0.00064673
0.000646357
0.000645984
0.000645612
0.000645241
0.00064487
0.0006445
0.000644131
0.000643764
0.000643399
0.000643038
0.000642679
0.000642326
0.000641977
0.000641634
0.000641297
0.000640967
0.000640645
0.00064033
0.000640022
0.000639721
0.000639428
0.000639142
0.000638863
0.00063859
0.000638324
0.000638066
0.000637815
0.000637571
0.000637336
0.000637108
0.000636888
0.000636675
0.000636469
0.00063627
0.000636075
0.000635885
0.0006357
0.000635518
0.000635342
0.00063517
0.000635003
0.000634841
0.000634682
0.000634525
0.000634372
0.000634221
0.000634073
0.000633929
0.000633791
0.000633659
0.000633532
0.000633411
0.000633295
0.000633181
0.00063307
0.000632961
0.000632852
0.000632742
0.00063263
0.000632516
0.000632397
0.000632271
0.000632139
0.000631998
0.000631848
0.00063169
0.000631523
0.000631346
0.00063116
0.000630964
0.000630756
0.000630537
0.000630304
0.000630059
0.0006298
0.000629526
0.000629239
0.000628937
0.000628622
0.000628294
0.000627952
0.000627596
0.000627227
0.000626844
0.000626444
0.000626028
0.000625595
0.000625144
0.000624676
0.000624191
0.00062369
0.000623175
0.000622647
0.000622107
0.000621557
0.000620997
0.00062043
0.000619854
0.00061927
0.000618678
0.000618076
0.000617466
0.000616847
0.000616222
0.000615591
0.000614957
0.000614321
0.000613686
0.000613051
0.000612418
0.000611787
0.000611158
0.00061053
0.000609902
0.000609275
0.00060865
0.000608026
0.000607405
0.000606787
0.000606173
0.000605562
0.000604956
0.000604353
0.000603753
0.000603156
0.000602561
0.000601968
0.000601377
0.000600789
0.000600204
0.000599623
0.000599047
0.000598476
0.00059791
0.00059735
0.000596795
0.000596246
0.000595702
0.000595164
0.000594632
0.000594106
0.000593587
0.000593075
0.000592568
0.000592067
0.000591572
0.000591081
0.000590595
0.000590112
0.000589634
0.000589161
0.000588692
0.00058823
0.000587773
0.000587321
0.000586876
0.000586435
0.000586
0.000585568
0.000585142
0.000584719
0.0005843
0.000583886
0.000583476
0.00058307
0.000582669
0.00058227
0.000581875
0.000581481
0.000581089
0.000580698
0.00058031
0.000579925
0.000579544
0.000579168
0.000578797
0.000578431
0.000578071
0.000577715
0.000577365
0.000577019
0.000576679
0.000576346
0.000576019
0.000575702
0.000575392
0.000575092
0.000574798
0.000574511
0.000574228
0.00057395
0.000573672
0.000573395
0.000573116
0.000572837
0.000572554
0.000572272
0.000571988
0.000571708
0.000571426
0.000571151
0.000570875
0.000570605
0.000570334
0.000570068
0.000569797
0.000569532
0.000569261
0.000568997
0.000568728
0.000568468
0.000568201
0.000567941
0.000567668
0.000567401
0.000567114
0.000566832
0.000566526
0.000566224
0.000565891
0.000565563
0.0005652
0.000564845
0.000564453
0.000564075
0.000563658
0.000563263
0.000562826
0.000562416
0.000561961
0.000561538
0.000561062
0.000560623
0.000560128
0.000559678
0.000559172
0.000558717
0.000558206
0.000557747
0.000557226
0.000556757
0.000556218
0.000555739
0.000555185
0.000554694
0.000554118
0.00055363
0.00055303
0.000552559
0.000551907
0.000551302
0.000550658
0.000548019
0.000546333
0.000548223
0.000547295
0.000546009
0.000541106
0.000535988
0.000517629
0.000478837
0.000430591
0.000316062
0.000169496
0.000215826
0.000111329
0.000112029
0.000113249
0.000114709
0.000116291
0.000117911
0.00011961
0.000121316
0.000123139
0.000124887
0.000126722
0.00012849
0.00013012
0.000131646
0.00013312
0.000134574
0.000136109
0.000137751
0.000139577
0.000141635
0.000144
0.000146752
0.000149922
0.000153557
0.000157721
0.000162512
0.00016806
0.000174444
0.000181737
0.000190062
0.000199518
0.000210204
0.000222208
0.000234607
0.000247267
0.000260156
0.000273239
0.00028648
0.00029984
0.000313282
0.000326769
0.000340239
0.000353683
0.000367079
0.000380423
0.000393693
0.000406651
0.000419298
0.000431636
0.000443661
0.000455369
0.000466753
0.000477801
0.000488499
0.00049883
0.000508776
0.00051832
0.000527449
0.000536161
0.000544458
0.000552349
0.000559879
0.000567053
0.00057388
0.000580371
0.000586538
0.000592397
0.00059796
0.000603241
0.000608249
0.000612994
0.000617483
0.000621721
0.000625714
0.000629466
0.000632984
0.000636272
0.000639334
0.000642179
0.000644812
0.000647245
0.000649486
0.000651546
0.000653435
0.000655164
0.000656739
0.00065817
0.00065946
0.000660618
0.000661645
0.00066255
0.000663335
0.000664006
0.000664564
0.000665038
0.00066542
0.000665675
0.000665781
0.000665754
0.00066561
0.000665363
0.000665015
0.000664573
0.000664041
0.000663426
0.000662734
0.000661972
0.000661149
0.000660269
0.00065934
0.000658368
0.000657357
0.000656314
0.00065524
0.000654141
0.000653022
0.000651882
0.000650724
0.000649551
0.000648366
0.000647172
0.000645973
0.00064477
0.000643567
0.000642366
0.000641171
0.000639986
0.000638813
0.000637656
0.00063653
0.000635424
0.000634313
0.000633207
0.000632121
0.000631054
0.00063001
0.000628989
0.00062799
0.000627014
0.00062606
0.000625128
0.000624217
0.000623328
0.00062246
0.000621613
0.000620787
0.000619984
0.000619203
0.000618447
0.000617715
0.00061701
0.000616331
0.000615679
0.000615054
0.000614457
0.000613888
0.000613348
0.000612838
0.000612357
0.000611907
0.000611488
0.000611102
0.000610747
0.000610425
0.000610136
0.00060988
0.000609656
0.000609466
0.000609306
0.000609177
0.000609077
0.000609004
0.000608958
0.000608936
0.000608937
0.00060896
0.000609004
0.000609067
0.000609147
0.000609245
0.000609359
0.000609489
0.000609634
0.000609793
0.000609968
0.000610156
0.000610359
0.000610576
0.000610806
0.000611051
0.000611309
0.000611581
0.000611867
0.000612169
0.000612487
0.000612822
0.000613175
0.000613546
0.000613937
0.000614347
0.000614778
0.000615228
0.000615699
0.000616189
0.000616698
0.000617226
0.00061777
0.000618328
0.0006189
0.000619482
0.000620073
0.000620671
0.000621274
0.000621881
0.00062249
0.000623101
0.000623711
0.000624319
0.000624924
0.000625524
0.000626117
0.000626703
0.00062728
0.000627848
0.000628405
0.000628951
0.000629482
0.000629995
0.000630485
0.00063095
0.00063139
0.000631804
0.00063219
0.000632548
0.000632879
0.000633181
0.000633455
0.000633701
0.00063392
0.000634111
0.000634274
0.000634412
0.000634523
0.000634609
0.00063467
0.000634708
0.000634725
0.000634721
0.000634697
0.000634656
0.000634598
0.000634524
0.000634436
0.000634335
0.000634222
0.000634097
0.000633962
0.000633816
0.000633661
0.000633498
0.000633326
0.000633148
0.000632962
0.000632771
0.000632575
0.000632374
0.00063217
0.000631962
0.000631752
0.000631539
0.000631324
0.000631109
0.000630893
0.000630677
0.000630461
0.000630246
0.000630031
0.000629816
0.000629601
0.000629385
0.00062917
0.000628954
0.000628738
0.000628521
0.000628304
0.000628085
0.000627866
0.000627646
0.000627426
0.000627205
0.000626984
0.000626763
0.000626544
0.000626326
0.000626111
0.000625901
0.000625695
0.000625496
0.000625304
0.00062512
0.000624944
0.000624779
0.000624623
0.000624476
0.000624339
0.000624212
0.000624095
0.000623986
0.000623887
0.000623796
0.000623714
0.00062364
0.000623576
0.00062352
0.000623473
0.000623435
0.000623406
0.000623384
0.000623369
0.000623361
0.000623357
0.000623358
0.000623363
0.000623371
0.000623383
0.000623397
0.000623415
0.000623436
0.000623459
0.000623484
0.000623512
0.000623543
0.000623577
0.000623616
0.000623661
0.00062371
0.000623763
0.00062382
0.000623879
0.000623938
0.000623997
0.000624053
0.000624106
0.000624154
0.000624195
0.000624228
0.000624249
0.000624258
0.000624252
0.000624231
0.000624193
0.000624139
0.000624066
0.000623977
0.000623869
0.000623742
0.000623596
0.00062343
0.000623244
0.000623036
0.000622807
0.000622556
0.000622283
0.000621986
0.000621667
0.000621326
0.000620961
0.000620573
0.000620161
0.000619725
0.000619264
0.000618777
0.000618266
0.00061773
0.00061717
0.000616587
0.000615982
0.000615358
0.000614714
0.000614055
0.00061338
0.000612691
0.00061199
0.000611277
0.000610553
0.000609817
0.000609072
0.000608316
0.000607553
0.000606782
0.000606007
0.000605229
0.000604449
0.00060367
0.000602892
0.000602117
0.000601345
0.000600576
0.00059981
0.000599046
0.000598286
0.000597529
0.000596777
0.000596028
0.000595285
0.000594546
0.000593813
0.000593085
0.000592361
0.000591642
0.000590928
0.000590218
0.000589512
0.000588812
0.000588117
0.000587429
0.000586749
0.000586077
0.000585415
0.000584761
0.000584117
0.000583482
0.000582857
0.000582241
0.000581635
0.000581039
0.000580452
0.000579875
0.000579308
0.000578749
0.000578199
0.000577658
0.000577124
0.000576598
0.00057608
0.00057557
0.000575068
0.000574576
0.000574092
0.000573618
0.000573152
0.000572695
0.000572247
0.000571807
0.000571374
0.000570947
0.000570528
0.000570114
0.000569707
0.000569305
0.000568908
0.000568517
0.000568129
0.000567744
0.000567363
0.000566984
0.000566608
0.000566235
0.000565867
0.000565503
0.000565146
0.000564794
0.000564449
0.000564112
0.000563782
0.00056346
0.000563146
0.000562842
0.000562549
0.000562266
0.000561994
0.000561733
0.000561482
0.000561238
0.000561001
0.000560768
0.000560537
0.000560306
0.000560074
0.000559838
0.000559599
0.000559355
0.000559108
0.000558858
0.000558607
0.000558355
0.000558104
0.000557854
0.000557608
0.000557363
0.000557122
0.000556881
0.000556643
0.000556406
0.000556172
0.000555936
0.000555701
0.000555461
0.000555215
0.000554958
0.000554691
0.000554407
0.000554109
0.00055379
0.000553455
0.000553098
0.000552722
0.000552324
0.00055191
0.000551475
0.000551026
0.000550561
0.000550086
0.000549596
0.000549097
0.000548586
0.000548065
0.000547533
0.00054699
0.000546439
0.000545877
0.000545313
0.00054474
0.000544168
0.000543586
0.000543004
0.000542414
0.000541826
0.000541234
0.000540652
0.000540074
0.000539523
0.00053899
0.000538518
0.000538109
0.0005377
0.000537718
0.000536379
0.000535471
0.000538143
0.000541314
0.000544358
0.000547832
0.000551901
0.000554764
0.000542019
0.000528253
0.000468871
0.000303529
0.000258525
0.000111159
0.00011149
0.000112158
0.000112898
0.000113642
0.000114342
0.000114898
0.000115247
0.000115424
0.000115512
0.000115504
0.000115431
0.000115285
0.000115072
0.000114805
0.000114483
0.000114131
0.000113757
0.000113365
0.000112965
0.000112572
0.000112195
0.000111844
0.000111538
0.000111297
0.000111152
0.000111135
0.000111276
0.000111613
0.000112178
0.000113016
0.000114157
0.000115641
0.00011747
0.000119651
0.000122191
0.000125096
0.000128373
0.000132029
0.000136084
0.000140575
0.000145573
0.00015111
0.000157234
0.000163986
0.000171429
0.000179292
0.000187367
0.000195648
0.000204132
0.000212816
0.000221695
0.000230768
0.000240028
0.000249463
0.000259058
0.000268789
0.000278611
0.000288483
0.000298377
0.000308253
0.000317982
0.000327553
0.000336958
0.000346188
0.000355237
0.000364099
0.000372765
0.000381228
0.000389482
0.000397527
0.00040536
0.000412977
0.000420378
0.00042756
0.000434523
0.000441265
0.000447781
0.000454071
0.00046013
0.000465964
0.000471575
0.000476967
0.000482142
0.000487103
0.000491852
0.000496393
0.000500723
0.000504848
0.000508768
0.000512489
0.000516014
0.00051936
0.00052253
0.000525446
0.000528147
0.000530656
0.000532986
0.00053515
0.000537157
0.00053901
0.000540716
0.000542285
0.000543727
0.000545052
0.000546269
0.000547388
0.000548413
0.000549351
0.000550208
0.000550988
0.000551698
0.000552341
0.00055292
0.000553441
0.000553908
0.00055432
0.00055468
0.000554994
0.000555267
0.000555501
0.000555698
0.000555861
0.000555996
0.000556104
0.000556189
0.000556256
0.000556309
0.000556352
0.000556392
0.00055643
0.000556445
0.00055644
0.000556431
0.000556419
0.000556408
0.000556396
0.000556385
0.000556376
0.000556369
0.000556364
0.000556361
0.00055636
0.000556363
0.000556368
0.000556379
0.000556395
0.000556419
0.000556452
0.000556496
0.000556554
0.000556626
0.000556714
0.00055682
0.000556944
0.000557087
0.000557251
0.000557438
0.000557648
0.000557885
0.000558148
0.000558441
0.000558764
0.000559118
0.000559505
0.000559925
0.000560379
0.000560865
0.000561382
0.000561929
0.000562503
0.000563104
0.000563728
0.000564373
0.000565039
0.000565722
0.000566423
0.00056714
0.000567872
0.000568618
0.000569377
0.00057015
0.000570935
0.000571732
0.000572541
0.000573362
0.000574194
0.000575037
0.000575891
0.000576756
0.000577632
0.000578519
0.000579418
0.00058033
0.000581257
0.000582198
0.000583155
0.00058413
0.000585123
0.000586134
0.000587164
0.000588213
0.000589281
0.000590367
0.00059147
0.00059259
0.000593723
0.000594868
0.000596022
0.000597184
0.000598349
0.000599515
0.000600681
0.000601844
0.000603001
0.000604153
0.000605295
0.000606427
0.000607547
0.000608652
0.000609743
0.000610818
0.000611875
0.000612915
0.000613936
0.000614936
0.000615915
0.00061687
0.000617798
0.000618696
0.000619563
0.000620396
0.000621193
0.000621954
0.000622676
0.00062336
0.000624004
0.000624608
0.000625172
0.000625696
0.000626181
0.000626628
0.000627037
0.000627411
0.000627749
0.000628055
0.00062833
0.000628575
0.000628793
0.000628985
0.000629153
0.000629299
0.000629425
0.000629532
0.000629621
0.000629694
0.000629752
0.000629795
0.000629824
0.000629841
0.000629847
0.000629841
0.000629825
0.000629799
0.000629766
0.000629725
0.000629678
0.000629626
0.000629569
0.000629508
0.000629444
0.000629379
0.000629312
0.000629245
0.000629177
0.00062911
0.000629043
0.000628976
0.000628909
0.000628841
0.000628773
0.000628704
0.000628634
0.000628563
0.00062849
0.000628415
0.000628338
0.00062826
0.000628179
0.000628097
0.000628015
0.000627931
0.000627849
0.000627768
0.00062769
0.000627616
0.000627547
0.000627486
0.000627434
0.000627391
0.000627359
0.000627339
0.000627332
0.000627337
0.000627354
0.000627383
0.000627425
0.000627478
0.000627543
0.000627618
0.000627705
0.000627801
0.000627908
0.000628025
0.000628152
0.000628288
0.000628434
0.000628589
0.000628751
0.000628919
0.000629092
0.000629268
0.000629448
0.000629629
0.000629811
0.000629994
0.000630178
0.000630362
0.000630547
0.000630733
0.000630919
0.000631107
0.000631297
0.000631491
0.000631688
0.000631888
0.00063209
0.000632293
0.000632495
0.000632694
0.000632889
0.000633079
0.000633261
0.000633434
0.000633596
0.000633744
0.000633876
0.00063399
0.000634081
0.000634151
0.000634196
0.000634216
0.000634211
0.00063418
0.000634122
0.000634038
0.000633927
0.000633789
0.000633623
0.000633429
0.000633206
0.000632954
0.000632671
0.000632358
0.000632014
0.000631639
0.000631232
0.000630793
0.000630323
0.00062982
0.000629286
0.000628719
0.000628121
0.000627491
0.000626832
0.000626144
0.000625429
0.000624688
0.000623924
0.000623137
0.000622331
0.000621507
0.000620667
0.000619813
0.000618944
0.000618063
0.00061717
0.000616266
0.000615353
0.000614432
0.000613506
0.000612577
0.000611645
0.000610715
0.000609786
0.00060886
0.000607937
0.00060702
0.000606107
0.000605198
0.000604295
0.000603396
0.000602503
0.000601616
0.000600734
0.000599859
0.000598989
0.000598126
0.000597269
0.000596419
0.000595574
0.000594737
0.000593906
0.000593083
0.000592268
0.000591464
0.00059067
0.000589888
0.000589119
0.000588362
0.000587619
0.000586889
0.000586171
0.000585467
0.000584775
0.000584096
0.00058343
0.000582775
0.000582133
0.000581502
0.000580883
0.000580274
0.000579677
0.000579089
0.000578513
0.000577948
0.000577394
0.000576852
0.000576323
0.000575806
0.000575302
0.000574809
0.000574328
0.000573858
0.000573398
0.000572948
0.000572507
0.000572074
0.000571649
0.000571232
0.000570821
0.000570417
0.000570018
0.000569624
0.000569233
0.000568846
0.000568463
0.000568083
0.000567709
0.000567339
0.000566976
0.000566619
0.000566271
0.000565931
0.000565601
0.00056528
0.000564971
0.000564673
0.000564389
0.000564117
0.00056386
0.000563614
0.000563381
0.000563156
0.000562939
0.000562725
0.000562513
0.0005623
0.000562084
0.00056186
0.00056163
0.000561391
0.000561145
0.000560891
0.000560632
0.000560368
0.000560103
0.000559836
0.000559572
0.000559309
0.000559051
0.000558795
0.000558543
0.000558292
0.000558046
0.000557798
0.00055755
0.000557294
0.000557031
0.000556751
0.000556458
0.00055614
0.000555806
0.000555442
0.000555058
0.000554642
0.000554206
0.000553738
0.000553253
0.000552739
0.000552211
0.000551658
0.000551096
0.000550511
0.000549921
0.00054931
0.000548694
0.000548058
0.000547417
0.000546757
0.000546092
0.000545413
0.00054473
0.000544037
0.000543341
0.000542639
0.000541934
0.000541228
0.000540527
0.000539836
0.000539163
0.000538523
0.000537923
0.0005374
0.000536985
0.000536615
0.000536649
0.000536085
0.000535696
0.000538632
0.000542912
0.000547536
0.000553092
0.000560316
0.000570834
0.000569447
0.000572264
0.000554034
0.000430972
0.000311962
0.000111158
0.000111467
0.000112082
0.000112732
0.000113351
0.000113913
0.000114355
0.000114696
0.000114904
0.000114957
0.000114879
0.000114725
0.000114496
0.000114217
0.00011389
0.000113521
0.000113111
0.000112669
0.000112196
0.000111696
0.000111169
0.000110621
0.000110055
0.000109477
0.000108891
0.000108304
0.000107724
0.000107159
0.000106619
0.000106113
0.000105649
0.000105237
0.000104887
0.000104606
0.000104403
0.000104288
0.000104269
0.000104358
0.000104577
0.00010494
0.000105446
0.000106099
0.000106909
0.000107893
0.00010907
0.000110463
0.000112081
0.000113926
0.000116001
0.000118313
0.000120866
0.000123669
0.000126734
0.000130075
0.000133705
0.000137641
0.000141894
0.000146487
0.000151435
0.000156742
0.000162413
0.000168417
0.000174747
0.000181392
0.000188334
0.000195556
0.000202991
0.000210493
0.000218058
0.000225685
0.000233371
0.000241112
0.000248904
0.00025674
0.00026461
0.000272503
0.000280408
0.000288307
0.000296183
0.000304018
0.000311792
0.000319492
0.000327102
0.000334605
0.000341986
0.000349235
0.000356341
0.000363296
0.000370091
0.000376719
0.000383173
0.000389454
0.000395585
0.000401555
0.000407323
0.000412881
0.000418226
0.000423354
0.000428266
0.00043295
0.000437411
0.00044167
0.000445745
0.000449644
0.000453379
0.000456955
0.000460365
0.000463607
0.000466686
0.000469609
0.00047238
0.000475009
0.0004775
0.00047986
0.000482097
0.000484212
0.000486217
0.000488123
0.000489934
0.000491657
0.000493295
0.000494857
0.000496346
0.000497767
0.000499125
0.000500422
0.000501665
0.000502858
0.000504006
0.000505116
0.000506189
0.000507216
0.000508201
0.000509155
0.000510078
0.000510976
0.00051185
0.000512701
0.00051353
0.00051434
0.00051513
0.000515903
0.000516659
0.0005174
0.000518128
0.000518846
0.000519555
0.000520258
0.00052096
0.000521661
0.000522365
0.000523074
0.00052379
0.000524515
0.000525251
0.000526
0.000526764
0.000527544
0.000528345
0.000529168
0.000530018
0.000530895
0.000531805
0.000532747
0.000533726
0.000534741
0.000535793
0.000536881
0.000538003
0.000539157
0.00054034
0.000541548
0.000542779
0.000544028
0.000545295
0.000546577
0.000547872
0.00054918
0.000550499
0.00055183
0.000553173
0.000554526
0.000555889
0.000557263
0.000558646
0.000560037
0.000561438
0.000562846
0.000564261
0.000565684
0.000567114
0.000568551
0.000569997
0.000571452
0.000572919
0.000574397
0.000575888
0.000577394
0.000578914
0.00058045
0.000582002
0.000583569
0.000585151
0.000586748
0.000588358
0.000589979
0.00059161
0.000593246
0.000594886
0.000596526
0.000598163
0.000599794
0.000601416
0.000603026
0.000604622
0.000606201
0.00060776
0.000609299
0.000610813
0.000612303
0.000613767
0.000615204
0.000616614
0.000617996
0.00061935
0.000620675
0.000621969
0.000623232
0.000624461
0.000625654
0.000626809
0.000627924
0.000628997
0.000630025
0.000631008
0.000631945
0.000632833
0.000633673
0.000634464
0.000635207
0.000635903
0.000636551
0.000637154
0.000637714
0.000638232
0.000638711
0.000639153
0.000639561
0.000639936
0.000640281
0.000640597
0.000640888
0.000641155