/*--------------------------------*- C++ -*----------------------------------*\
| =========                 |                                                 |
| \\      /  F ield         | foam-extend: Open Source CFD                    |
|  \\    /   O peration     | Version:     3.2                                |
|   \\  /    A nd           | Web:         http://www.foam-extend.org         |
|    \\/     M anipulation  | For copyright notice see file Copyright         |
\*---------------------------------------------------------------------------*/
FoamFile
{
    version     2.0;
    format      ascii;
    class       areaScalarField;
    location    "120";
    object      kTempA;
}
// * * * * * * * * * * * * * * * * * * * * * * * * * * * * * * * * * * * * * //

dimensions      [0 2 -2 0 0 0 0];

internalField   nonuniform List<scalar> 
550
(
0.000163516
0.000225633
0.000301012
0.000388899
0.000487106
0.000592222
0.000700242
0.000806699
0.000907715
0.000999727
0.00108046
0.0011484
0.00120319
0.00124504
0.00127485
0.00129373
0.00130316
0.00130461
0.0012996
0.0012899
0.00127652
0.00126031
0.00124204
0.00122235
0.00120182
0.00118093
0.00116009
0.00113966
0.00111993
0.0011009
0.00108261
0.00106512
0.00104847
0.00103268
0.00101776
0.0010037
0.000990469
0.000978053
0.000966418
0.000955531
0.000945353
0.000935848
0.000926972
0.000918686
0.000910948
0.000903722
0.000896975
0.000890676
0.000884794
0.000879302
0.000874171
0.000869377
0.000864893
0.000860695
0.000856756
0.000853054
0.000849567
0.000846276
0.000843164
0.000840215
0.000837413
0.000834748
0.000832206
0.000829779
0.000827457
0.000825233
0.000823097
0.000821042
0.000819062
0.000817149
0.000815296
0.000813497
0.000811746
0.000810038
0.000808369
0.000806734
0.00080513
0.000803554
0.000802002
0.000800476
0.000798977
0.000797504
0.000796055
0.00079463
0.000793228
0.000791848
0.000790488
0.000789147
0.000787825
0.000786519
0.000785229
0.000783953
0.000782685
0.000781425
0.000780173
0.000778928
0.000777691
0.000776461
0.000775238
0.000774023
0.000772816
0.000771613
0.000770412
0.00076921
0.000768006
0.000766798
0.000765584
0.000764362
0.000763132
0.000761891
0.000760639
0.000759375
0.000758098
0.000756807
0.000755503
0.000754186
0.000752854
0.000751507
0.000750147
0.000748773
0.000747387
0.00074599
0.000744581
0.000743162
0.000741731
0.00074029
0.000738838
0.000737374
0.000735894
0.000734394
0.0007329
0.000731439
0.00073
0.000728572
0.00072715
0.00072573
0.000724312
0.000722895
0.000721478
0.000720061
0.000718646
0.000717233
0.000715823
0.000714416
0.000713013
0.000711615
0.000710224
0.000708839
0.000707462
0.000706093
0.000704733
0.000703382
0.000702041
0.00070071
0.00069939
0.000698082
0.000696786
0.000695503
0.000694234
0.000692979
0.000691741
0.000690518
0.000689312
0.000688123
0.000686952
0.0006858
0.000684666
0.00068355
0.000682454
0.000681376
0.000680316
0.000679275
0.000678251
0.000677244
0.000676253
0.000675279
0.00067432
0.000673376
0.000672447
0.000671532
0.000670631
0.000669744
0.000668871
0.000668012
0.000667166
0.000666333
0.000665513
0.000664707
0.000663915
0.000663135
0.00066237
0.000661619
0.000660882
0.000660159
0.000659453
0.000658761
0.000658086
0.000657427
0.000656785
0.00065616
0.000655553
0.000654964
0.000654393
0.000653842
0.000653309
0.000652795
0.000652299
0.000651821
0.000651362
0.000650919
0.000650494
0.000650085
0.000649693
0.000649317
0.000648956
0.00064861
0.000648278
0.00064796
0.000647655
0.000647362
0.000647081
0.000646811
0.000646552
0.000646303
0.000646063
0.000645832
0.000645608
0.000645386
0.000645162
0.000644935
0.000644703
0.000644466
0.000644222
0.000643971
0.000643713
0.000643449
0.000643178
0.000642899
0.000642614
0.000642322
0.000642022
0.000641715
0.000641401
0.00064108
0.000640753
0.000640418
0.000640078
0.000639732
0.00063938
0.000639022
0.00063866
0.000638293
0.000637921
0.000637545
0.000637165
0.000636781
0.000636393
0.000636002
0.000635607
0.00063521
0.00063481
0.000634407
0.000634002
0.000633595
0.000633186
0.000632775
0.000632362
0.000631948
0.000631532
0.000631115
0.000630696
0.000630276
0.000629856
0.000629434
0.000629011
0.000628587
0.000628162
0.000627736
0.000627308
0.000626878
0.000626447
0.000626014
0.000625579
0.000625143
0.000624705
0.000624266
0.000623825
0.000623382
0.000622938
0.000622494
0.000622048
0.000621602
0.000621156
0.000620711
0.000620266
0.000619822
0.00061938
0.00061894
0.000618503
0.00061807
0.000617642
0.000617218
0.0006168
0.000616388
0.000615983
0.000615584
0.000615191
0.000614805
0.000614425
0.000614053
0.000613687
0.00061333
0.00061298
0.000612639
0.000612306
0.00061198
0.000611661
0.000611349
0.000611043
0.000610743
0.000610449
0.000610161
0.000609879
0.000609603
0.000609333
0.000609068
0.000608809
0.000608555
0.000608306
0.000608062
0.000607823
0.000607589
0.000607361
0.000607139
0.000606922
0.000606712
0.000606506
0.000606306
0.000606111
0.000605921
0.000605735
0.000605553
0.000605376
0.000605201
0.000605029
0.000604858
0.000604688
0.000604519
0.000604351
0.000604183
0.000604016
0.000603847
0.000603678
0.000603506
0.000603332
0.000603154
0.000602973
0.000602788
0.000602598
0.000602404
0.000602204
0.000601998
0.000601786
0.000601567
0.000601342
0.00060111
0.000600869
0.000600619
0.00060036
0.00060009
0.00059981
0.000599517
0.000599213
0.000598896
0.000598568
0.000598228
0.000597877
0.000597514
0.000597141
0.000596758
0.000596365
0.000595962
0.000595549
0.000595127
0.000594695
0.000594254
0.000593805
0.000593348
0.000592883
0.000592413
0.000591938
0.000591458
0.000590974
0.000590487
0.000589997
0.000589504
0.000589008
0.00058851
0.000588009
0.000587507
0.000587002
0.000586496
0.00058599
0.000585482
0.000584973
0.000584462
0.000583951
0.000583438
0.000582923
0.000582407
0.000581889
0.00058137
0.000580849
0.000580326
0.000579803
0.000579278
0.000578752
0.000578226
0.0005777
0.000577174
0.000576647
0.000576121
0.000575596
0.000575071
0.000574548
0.000574027
0.000573507
0.00057299
0.000572474
0.00057196
0.000571447
0.000570936
0.000570427
0.000569919
0.000569413
0.000568908
0.000568405
0.000567904
0.000567406
0.00056691
0.000566416
0.000565925
0.000565436
0.00056495
0.000564466
0.000563985
0.000563508
0.000563034
0.000562565
0.000562099
0.000561638
0.000561181
0.000560728
0.000560279
0.000559835
0.000559394
0.000558959
0.000558527
0.000558101
0.000557679
0.000557263
0.000556851
0.000556444
0.000556041
0.000555643
0.000555249
0.000554859
0.000554475
0.000554096
0.000553723
0.000553357
0.000552996
0.000552641
0.000552291
0.000551946
0.000551605
0.000551268
0.000550934
0.000550603
0.000550274
0.000549948
0.000549626
0.000549307
0.000548992
0.000548682
0.000548376
0.000548074
0.000547775
0.000547479
0.000547185
0.000546894
0.000546605
0.000546319
0.000546036
0.000545756
0.00054548
0.000545205
0.000544932
0.000544658
0.000544384
0.000544106
0.000543825
0.000543538
0.000543246
0.000542946
0.00054264
0.000542326
0.000542006
0.000541677
0.000541344
0.000541004
0.00054066
0.000540309
0.000539955
0.000539595
0.000539233
0.000538863
0.000538492
0.000538114
0.000537735
0.000537347
0.000536957
0.000536556
0.000536148
0.000535722
0.000535282
0.000534811
0.000534318
0.000533763
0.00053317
0.000532456
0.000531664
0.000530633
0.00052944
0.000527776
0.000525811
0.000522829
0.000519526
0.000512366
0.000500374
0.000484866
0.000465237
0.000436415
0.000397647
0.000344869
0.000275572
0.000170952
8.18128e-05
0.000107211
0.000181927
)
;

boundaryField
{
    inlet
    {
        type            calculated;
        value           uniform 0;
    }
    endWall
    {
        type            calculated;
        value           uniform 0;
    }
    sideWall
    {
        type            empty;
    }
}


// ************************************************************************* //
