/*--------------------------------*- C++ -*----------------------------------*\
| =========                 |                                                 |
| \\      /  F ield         | foam-extend: Open Source CFD                    |
|  \\    /   O peration     | Version:     3.2                                |
|   \\  /    A nd           | Web:         http://www.foam-extend.org         |
|    \\/     M anipulation  | For copyright notice see file Copyright         |
\*---------------------------------------------------------------------------*/
FoamFile
{
    version     2.0;
    format      ascii;
    class       volScalarField;
    location    "120";
    object      Ktemp;
}
// * * * * * * * * * * * * * * * * * * * * * * * * * * * * * * * * * * * * * //

dimensions      [0 2 -2 0 0 0 0];

internalField   nonuniform List<scalar> 
33000
(
0.000163516
0.000225633
0.000301012
0.000388899
0.000487106
0.000592222
0.000700242
0.000806699
0.000907715
0.000999727
0.00108046
0.0011484
0.00120319
0.00124504
0.00127485
0.00129373
0.00130316
0.00130461
0.0012996
0.0012899
0.00127652
0.00126031
0.00124204
0.00122235
0.00120182
0.00118093
0.00116009
0.00113966
0.00111993
0.0011009
0.00108261
0.00106512
0.00104847
0.00103268
0.00101776
0.0010037
0.000990469
0.000978053
0.000966418
0.000955531
0.000945353
0.000935848
0.000926972
0.000918686
0.000910948
0.000903722
0.000896975
0.000890676
0.000884794
0.000879302
0.000874171
0.000869377
0.000864893
0.000860695
0.000856756
0.000853054
0.000849567
0.000846276
0.000843164
0.000840215
0.000837413
0.000834748
0.000832206
0.000829779
0.000827457
0.000825233
0.000823097
0.000821042
0.000819062
0.000817149
0.000815296
0.000813497
0.000811746
0.000810038
0.000808369
0.000806734
0.00080513
0.000803554
0.000802002
0.000800476
0.000798977
0.000797504
0.000796055
0.00079463
0.000793228
0.000791848
0.000790488
0.000789147
0.000787825
0.000786519
0.000785229
0.000783953
0.000782685
0.000781425
0.000780173
0.000778928
0.000777691
0.000776461
0.000775238
0.000774023
0.000772816
0.000771613
0.000770412
0.00076921
0.000768006
0.000766798
0.000765584
0.000764362
0.000763132
0.000761891
0.000760639
0.000759375
0.000758098
0.000756807
0.000755503
0.000754186
0.000752854
0.000751507
0.000750147
0.000748773
0.000747387
0.00074599
0.000744581
0.000743162
0.000741731
0.00074029
0.000738838
0.000737374
0.000735894
0.000734394
0.0007329
0.000731439
0.00073
0.000728572
0.00072715
0.00072573
0.000724312
0.000722895
0.000721478
0.000720061
0.000718646
0.000717233
0.000715823
0.000714416
0.000713013
0.000711615
0.000710224
0.000708839
0.000707462
0.000706093
0.000704733
0.000703382
0.000702041
0.00070071
0.00069939
0.000698082
0.000696786
0.000695503
0.000694234
0.000692979
0.000691741
0.000690518
0.000689312
0.000688123
0.000686952
0.0006858
0.000684666
0.00068355
0.000682454
0.000681376
0.000680316
0.000679275
0.000678251
0.000677244
0.000676253
0.000675279
0.00067432
0.000673376
0.000672447
0.000671532
0.000670631
0.000669744
0.000668871
0.000668012
0.000667166
0.000666333
0.000665513
0.000664707
0.000663915
0.000663135
0.00066237
0.000661619
0.000660882
0.000660159
0.000659453
0.000658761
0.000658086
0.000657427
0.000656785
0.00065616
0.000655553
0.000654964
0.000654393
0.000653842
0.000653309
0.000652795
0.000652299
0.000651821
0.000651362
0.000650919
0.000650494
0.000650085
0.000649693
0.000649317
0.000648956
0.00064861
0.000648278
0.00064796
0.000647655
0.000647362
0.000647081
0.000646811
0.000646552
0.000646303
0.000646063
0.000645832
0.000645608
0.000645386
0.000645162
0.000644935
0.000644703
0.000644466
0.000644222
0.000643971
0.000643713
0.000643449
0.000643178
0.000642899
0.000642614
0.000642322
0.000642022
0.000641715
0.000641401
0.00064108
0.000640753
0.000640418
0.000640078
0.000639732
0.00063938
0.000639022
0.00063866
0.000638293
0.000637921
0.000637545
0.000637165
0.000636781
0.000636393
0.000636002
0.000635607
0.00063521
0.00063481
0.000634407
0.000634002
0.000633595
0.000633186
0.000632775
0.000632362
0.000631948
0.000631532
0.000631115
0.000630696
0.000630276
0.000629856
0.000629434
0.000629011
0.000628587
0.000628162
0.000627736
0.000627308
0.000626878
0.000626447
0.000626014
0.000625579
0.000625143
0.000624705
0.000624266
0.000623825
0.000623382
0.000622938
0.000622494
0.000622048
0.000621602
0.000621156
0.000620711
0.000620266
0.000619822
0.00061938
0.00061894
0.000618503
0.00061807
0.000617642
0.000617218
0.0006168
0.000616388
0.000615983
0.000615584
0.000615191
0.000614805
0.000614425
0.000614053
0.000613687
0.00061333
0.00061298
0.000612639
0.000612306
0.00061198
0.000611661
0.000611349
0.000611043
0.000610743
0.000610449
0.000610161
0.000609879
0.000609603
0.000609333
0.000609068
0.000608809
0.000608555
0.000608306
0.000608062
0.000607823
0.000607589
0.000607361
0.000607139
0.000606922
0.000606712
0.000606506
0.000606306
0.000606111
0.000605921
0.000605735
0.000605553
0.000605376
0.000605201
0.000605029
0.000604858
0.000604688
0.000604519
0.000604351
0.000604183
0.000604016
0.000603847
0.000603678
0.000603506
0.000603332
0.000603154
0.000602973
0.000602788
0.000602598
0.000602404
0.000602204
0.000601998
0.000601786
0.000601567
0.000601342
0.00060111
0.000600869
0.000600619
0.00060036
0.00060009
0.00059981
0.000599517
0.000599213
0.000598896
0.000598568
0.000598228
0.000597877
0.000597514
0.000597141
0.000596758
0.000596365
0.000595962
0.000595549
0.000595127
0.000594695
0.000594254
0.000593805
0.000593348
0.000592883
0.000592413
0.000591938
0.000591458
0.000590974
0.000590487
0.000589997
0.000589504
0.000589008
0.00058851
0.000588009
0.000587507
0.000587002
0.000586496
0.00058599
0.000585482
0.000584973
0.000584462
0.000583951
0.000583438
0.000582923
0.000582407
0.000581889
0.00058137
0.000580849
0.000580326
0.000579803
0.000579278
0.000578752
0.000578226
0.0005777
0.000577174
0.000576647
0.000576121
0.000575596
0.000575071
0.000574548
0.000574027
0.000573507
0.00057299
0.000572474
0.00057196
0.000571447
0.000570936
0.000570427
0.000569919
0.000569413
0.000568908
0.000568405
0.000567904
0.000567406
0.00056691
0.000566416
0.000565925
0.000565436
0.00056495
0.000564466
0.000563985
0.000563508
0.000563034
0.000562565
0.000562099
0.000561638
0.000561181
0.000560728
0.000560279
0.000559835
0.000559394
0.000558959
0.000558527
0.000558101
0.000557679
0.000557263
0.000556851
0.000556444
0.000556041
0.000555643
0.000555249
0.000554859
0.000554475
0.000554096
0.000553723
0.000553357
0.000552996
0.000552641
0.000552291
0.000551946
0.000551605
0.000551268
0.000550934
0.000550603
0.000550274
0.000549948
0.000549626
0.000549307
0.000548992
0.000548682
0.000548376
0.000548074
0.000547775
0.000547479
0.000547185
0.000546894
0.000546605
0.000546319
0.000546036
0.000545756
0.00054548
0.000545205
0.000544932
0.000544658
0.000544384
0.000544106
0.000543825
0.000543538
0.000543246
0.000542946
0.00054264
0.000542326
0.000542006
0.000541677
0.000541344
0.000541004
0.00054066
0.000540309
0.000539955
0.000539595
0.000539233
0.000538863
0.000538492
0.000538114
0.000537735
0.000537347
0.000536957
0.000536556
0.000536148
0.000535722
0.000535282
0.000534811
0.000534318
0.000533763
0.00053317
0.000532456
0.000531664
0.000530633
0.00052944
0.000527776
0.000525811
0.000522829
0.000519526
0.000512366
0.000500374
0.000484866
0.000465237
0.000436415
0.000397647
0.000344869
0.000275572
0.000170952
8.18128e-05
0.000107211
0.000181927
0.000113447
0.00011724
0.000123461
0.000131286
0.000141764
0.000153926
0.00016734
0.00018163
0.000196888
0.000212549
0.000228683
0.000244469
0.000259814
0.000274413
0.000288433
0.000302034
0.000315508
0.000329451
0.000344234
0.000359967
0.000377103
0.000395364
0.000413229
0.000431179
0.00044965
0.000469039
0.000489654
0.000510909
0.000531561
0.000551597
0.00057094
0.000589511
0.000607264
0.000624147
0.000640126
0.000655177
0.000669298
0.000682497
0.000694795
0.000706216
0.000716799
0.000726584
0.000735618
0.000743946
0.000751622
0.000758695
0.000765266
0.00077136
0.000777004
0.000782216
0.000787014
0.00079141
0.000795419
0.000799054
0.000802333
0.000805272
0.000807887
0.000810206
0.000812258
0.000814056
0.00081562
0.000816962
0.000818092
0.000819021
0.000819761
0.000820325
0.000820727
0.00082098
0.000821098
0.000821093
0.000820974
0.000820751
0.00082043
0.00082002
0.000819524
0.000818951
0.000818304
0.000817587
0.000816805
0.000815964
0.000815072
0.000814134
0.000813155
0.000812141
0.000811094
0.000810019
0.000808917
0.000807792
0.000806642
0.000805471
0.000804277
0.000803063
0.000801825
0.000800565
0.000799276
0.000797954
0.000796596
0.000795199
0.000793757
0.000792268
0.00079073
0.000789145
0.000787511
0.00078583
0.000784102
0.000782328
0.000780513
0.000778657
0.000776766
0.000774841
0.000772887
0.000770907
0.000768902
0.000766878
0.000764834
0.000762778
0.00076071
0.00075863
0.000756544
0.000754453
0.000752361
0.000750272
0.000748187
0.000746111
0.000744045
0.000741992
0.000739955
0.000737935
0.000735939
0.000733974
0.000732036
0.000730106
0.000728197
0.000726314
0.000724461
0.000722636
0.000720841
0.000719075
0.000717338
0.00071563
0.000713951
0.0007123
0.000710678
0.000709084
0.000707519
0.000705984
0.000704478
0.000703003
0.000701559
0.000700147
0.000698765
0.000697416
0.000696098
0.000694812
0.000693557
0.000692333
0.000691141
0.000689981
0.000688853
0.000687756
0.000686691
0.000685658
0.000684657
0.000683687
0.000682749
0.000681844
0.00068097
0.000680128
0.000679317
0.000678536
0.000677785
0.000677062
0.000676367
0.000675697
0.000675052
0.00067443
0.00067383
0.00067325
0.00067269
0.000672148
0.000671623
0.000671117
0.000670626
0.000670153
0.000669696
0.000669255
0.00066883
0.000668421
0.000668026
0.000667647
0.000667284
0.000666935
0.000666603
0.000666287
0.000665988
0.000665706
0.000665443
0.000665198
0.000664972
0.000664765
0.000664579
0.000664412
0.000664266
0.00066414
0.000664034
0.000663946
0.000663876
0.000663822
0.000663783
0.000663757
0.000663743
0.000663741
0.000663748
0.000663765
0.000663791
0.000663823
0.000663862
0.000663905
0.000663951
0.000663998
0.000664047
0.000664095
0.000664141
0.000664186
0.000664228
0.000664266
0.00066429
0.000664276
0.000664231
0.000664162
0.000664073
0.000663966
0.000663843
0.000663706
0.000663556
0.000663392
0.000663217
0.000663029
0.00066283
0.000662618
0.000662395
0.000662159
0.000661911
0.000661651
0.000661379
0.000661096
0.000660802
0.000660498
0.000660185
0.000659864
0.000659535
0.000659198
0.000658855
0.000658506
0.000658152
0.000657792
0.000657427
0.000657058
0.000656684
0.000656307
0.000655927
0.000655545
0.00065516
0.000654773
0.000654386
0.000653997
0.000653609
0.000653219
0.00065283
0.00065244
0.000652051
0.000651662
0.000651275
0.000650889
0.000650506
0.000650124
0.000649743
0.000649363
0.000648984
0.000648606
0.000648229
0.000647853
0.000647478
0.000647104
0.00064673
0.000646357
0.000645985
0.000645613
0.000645241
0.00064487
0.0006445
0.000644132
0.000643764
0.000643399
0.000643038
0.000642679
0.000642325
0.000641977
0.000641634
0.000641297
0.000640967
0.000640645
0.00064033
0.000640022
0.000639721
0.000639428
0.000639142
0.000638863
0.00063859
0.000638324
0.000638066
0.000637815
0.000637571
0.000637336
0.000637108
0.000636888
0.000636675
0.00063647
0.00063627
0.000636075
0.000635885
0.0006357
0.000635518
0.000635342
0.00063517
0.000635003
0.000634841
0.000634682
0.000634525
0.000634372
0.00063422
0.000634073
0.000633929
0.000633791
0.000633659
0.000633533
0.000633412
0.000633295
0.000633182
0.000633071
0.000632962
0.000632853
0.000632743
0.000632631
0.000632517
0.000632398
0.000632273
0.00063214
0.000631999
0.000631849
0.000631691
0.000631524
0.000631347
0.000631161
0.000630965
0.000630757
0.000630538
0.000630305
0.00063006
0.000629801
0.000629527
0.00062924
0.000628938
0.000628623
0.000628294
0.000627953
0.000627597
0.000627228
0.000626844
0.000626445
0.000626029
0.000625596
0.000625145
0.000624676
0.000624191
0.00062369
0.000623175
0.000622647
0.000622107
0.000621557
0.000620997
0.00062043
0.000619854
0.00061927
0.000618677
0.000618076
0.000617465
0.000616847
0.000616221
0.00061559
0.000614956
0.000614321
0.000613685
0.000613051
0.000612418
0.000611787
0.000611157
0.000610529
0.000609901
0.000609275
0.000608649
0.000608025
0.000607404
0.000606786
0.000606172
0.000605562
0.000604955
0.000604353
0.000603753
0.000603156
0.00060256
0.000601967
0.000601376
0.000600788
0.000600203
0.000599622
0.000599046
0.000598475
0.00059791
0.00059735
0.000596795
0.000596246
0.000595702
0.000595163
0.000594631
0.000594106
0.000593587
0.000593074
0.000592568
0.000592067
0.000591571
0.000591081
0.000590594
0.000590112
0.000589634
0.00058916
0.000588692
0.000588229
0.000587772
0.000587321
0.000586876
0.000586435
0.000585999
0.000585568
0.000585141
0.000584719
0.0005843
0.000583886
0.000583476
0.00058307
0.000582668
0.00058227
0.000581874
0.00058148
0.000581088
0.000580698
0.000580309
0.000579924
0.000579543
0.000579167
0.000578796
0.00057843
0.00057807
0.000577714
0.000577364
0.000577018
0.000576678
0.000576345
0.000576018
0.000575701
0.000575392
0.000575091
0.000574798
0.000574511
0.000574228
0.000573949
0.000573671
0.000573395
0.000573116
0.000572837
0.000572554
0.000572271
0.000571987
0.000571707
0.000571426
0.000571151
0.000570875
0.000570606
0.000570334
0.000570068
0.000569797
0.000569532
0.000569261
0.000568998
0.000568729
0.000568469
0.000568202
0.000567942
0.000567669
0.000567402
0.000567116
0.000566834
0.000566527
0.000566225
0.000565892
0.000565564
0.000565201
0.000564846
0.000564453
0.000564075
0.000563658
0.000563263
0.000562826
0.000562417
0.000561961
0.000561538
0.000561061
0.000560623
0.000560128
0.000559678
0.000559172
0.000558717
0.000558206
0.000557747
0.000557226
0.000556757
0.000556218
0.000555739
0.000555185
0.000554694
0.000554118
0.00055363
0.00055303
0.000552559
0.000551907
0.000551302
0.000550658
0.000548019
0.000546333
0.000548223
0.000547295
0.000546009
0.000541106
0.000535988
0.000517629
0.000478838
0.000430591
0.000316062
0.000169496
0.000215826
0.000111329
0.000112029
0.000113249
0.000114709
0.000116291
0.000117911
0.00011961
0.000121316
0.000123139
0.000124887
0.000126722
0.00012849
0.00013012
0.000131646
0.00013312
0.000134574
0.000136109
0.000137751
0.000139577
0.000141635
0.000144
0.000146752
0.000149922
0.000153557
0.000157721
0.000162511
0.00016806
0.000174444
0.000181737
0.000190062
0.000199518
0.000210204
0.000222208
0.000234607
0.000247267
0.000260156
0.000273239
0.00028648
0.00029984
0.000313282
0.000326769
0.000340239
0.000353683
0.000367079
0.000380423
0.000393693
0.000406651
0.000419299
0.000431636
0.000443661
0.000455369
0.000466753
0.000477801
0.000488499
0.00049883
0.000508776
0.000518319
0.000527449
0.000536161
0.000544458
0.000552349
0.000559879
0.000567053
0.00057388
0.00058037
0.000586537
0.000592396
0.00059796
0.00060324
0.000608248
0.000612993
0.000617482
0.000621721
0.000625714
0.000629467
0.000632984
0.000636272
0.000639335
0.00064218
0.000644812
0.000647245
0.000649486
0.000651546
0.000653435
0.000655165
0.000656739
0.00065817
0.00065946
0.000660618
0.000661645
0.000662551
0.000663335
0.000664006
0.000664565
0.000665038
0.000665421
0.000665675
0.000665781
0.000665754
0.000665611
0.000665363
0.000665016
0.000664573
0.000664041
0.000663426
0.000662734
0.000661972
0.000661149
0.000660269
0.00065934
0.000658368
0.000657357
0.000656314
0.000655241
0.000654142
0.000653022
0.000651883
0.000650725
0.000649551
0.000648366
0.000647173
0.000645973
0.00064477
0.000643567
0.000642366
0.000641172
0.000639986
0.000638813
0.000637656
0.00063653
0.000635424
0.000634313
0.000633207
0.000632121
0.000631055
0.000630011
0.000628989
0.00062799
0.000627014
0.00062606
0.000625128
0.000624217
0.000623328
0.00062246
0.000621612
0.000620787
0.000619983
0.000619202
0.000618446
0.000617715
0.000617009
0.00061633
0.000615678
0.000615053
0.000614456
0.000613887
0.000613347
0.000612837
0.000612356
0.000611907
0.000611488
0.000611101
0.000610747
0.000610425
0.000610136
0.00060988
0.000609657
0.000609466
0.000609307
0.000609178
0.000609078
0.000609006
0.000608959
0.000608937
0.000608938
0.000608962
0.000609005
0.000609068
0.000609148
0.000609246
0.00060936
0.000609489
0.000609634
0.000609793
0.000609967
0.000610156
0.000610358
0.000610575
0.000610805
0.00061105
0.000611307
0.000611579
0.000611866
0.000612168
0.000612485
0.00061282
0.000613173
0.000613545
0.000613935
0.000614346
0.000614776
0.000615227
0.000615697
0.000616188
0.000616697
0.000617225
0.000617769
0.000618328
0.0006189
0.000619482
0.000620073
0.000620671
0.000621274
0.000621881
0.00062249
0.000623101
0.000623711
0.00062432
0.000624924
0.000625524
0.000626117
0.000626703
0.000627281
0.000627848
0.000628406
0.000628951
0.000629483
0.000629996
0.000630486
0.000630951
0.000631391
0.000631805
0.000632191
0.000632549
0.00063288
0.000633182
0.000633456
0.000633702
0.000633921
0.000634111
0.000634275
0.000634412
0.000634523
0.000634609
0.00063467
0.000634709
0.000634725
0.000634721
0.000634697
0.000634656
0.000634598
0.000634524
0.000634436
0.000634335
0.000634222
0.000634097
0.000633962
0.000633816
0.000633661
0.000633498
0.000633326
0.000633148
0.000632963
0.000632771
0.000632575
0.000632375
0.00063217
0.000631962
0.000631752
0.000631539
0.000631325
0.00063111
0.000630894
0.000630678
0.000630462
0.000630247
0.000630032
0.000629817
0.000629602
0.000629386
0.000629171
0.000628955
0.000628738
0.000628522
0.000628304
0.000628086
0.000627867
0.000627647
0.000627426
0.000627205
0.000626984
0.000626763
0.000626543
0.000626326
0.000626111
0.0006259
0.000625695
0.000625495
0.000625303
0.000625119
0.000624944
0.000624778
0.000624622
0.000624476
0.000624339
0.000624212
0.000624094
0.000623986
0.000623886
0.000623795
0.000623713
0.00062364
0.000623576
0.00062352
0.000623473
0.000623435
0.000623405
0.000623384
0.000623369
0.00062336
0.000623357
0.000623358
0.000623362
0.000623371
0.000623382
0.000623397
0.000623415
0.000623436
0.000623459
0.000623484
0.000623512
0.000623543
0.000623577
0.000623616
0.000623661
0.00062371
0.000623764
0.000623821
0.00062388
0.000623939
0.000623998
0.000624055
0.000624108
0.000624156
0.000624197
0.00062423
0.000624251
0.00062426
0.000624254
0.000624233
0.000624195
0.00062414
0.000624068
0.000623978
0.00062387
0.000623744
0.000623598
0.000623432
0.000623246
0.000623038
0.000622809
0.000622558
0.000622284
0.000621988
0.000621669
0.000621327
0.000620962
0.000620574
0.000620162
0.000619726
0.000619265
0.000618778
0.000618267
0.000617731
0.000617171
0.000616587
0.000615983
0.000615358
0.000614714
0.000614054
0.000613379
0.000612691
0.000611989
0.000611276
0.000610552
0.000609817
0.000609071
0.000608315
0.000607552
0.000606781
0.000606006
0.000605227
0.000604448
0.000603669
0.000602891
0.000602116
0.000601344
0.000600575
0.000599809
0.000599046
0.000598285
0.000597529
0.000596776
0.000596027
0.000595284
0.000594546
0.000593812
0.000593084
0.000592361
0.000591642
0.000590927
0.000590217
0.000589512
0.000588811
0.000588117
0.000587429
0.000586749
0.000586077
0.000585414
0.000584761
0.000584117
0.000583482
0.000582857
0.000582241
0.000581635
0.000581038
0.000580452
0.000579875
0.000579307
0.000578749
0.000578199
0.000577658
0.000577124
0.000576598
0.00057608
0.00057557
0.000575068
0.000574575
0.000574092
0.000573617
0.000573152
0.000572695
0.000572247
0.000571807
0.000571373
0.000570947
0.000570528
0.000570114
0.000569706
0.000569305
0.000568908
0.000568516
0.000568128
0.000567744
0.000567362
0.000566983
0.000566607
0.000566234
0.000565865
0.000565502
0.000565144
0.000564793
0.000564448
0.00056411
0.00056378
0.000563458
0.000563145
0.000562841
0.000562548
0.000562265
0.000561993
0.000561732
0.000561481
0.000561238
0.000561
0.000560767
0.000560537
0.000560306
0.000560074
0.000559838
0.000559598
0.000559354
0.000559107
0.000558857
0.000558606
0.000558354
0.000558104
0.000557854
0.000557608
0.000557364
0.000557122
0.000556882
0.000556644
0.000556407
0.000556173
0.000555938
0.000555703
0.000555463
0.000555217
0.00055496
0.000554693
0.000554409
0.00055411
0.000553792
0.000553457
0.000553099
0.000552723
0.000552325
0.00055191
0.000551475
0.000551027
0.000550562
0.000550086
0.000549596
0.000549097
0.000548586
0.000548065
0.000547533
0.00054699
0.000546439
0.000545877
0.000545313
0.00054474
0.000544168
0.000543586
0.000543004
0.000542414
0.000541826
0.000541234
0.000540652
0.000540073
0.000539522
0.00053899
0.000538517
0.000538109
0.000537699
0.000537718
0.000536379
0.000535471
0.000538143
0.000541314
0.000544357
0.000547832
0.000551901
0.000554764
0.000542019
0.000528254
0.000468871
0.00030353
0.000258526
0.000111159
0.00011149
0.000112158
0.000112898
0.000113643
0.000114342
0.000114898
0.000115247
0.000115424
0.000115512
0.000115504
0.000115431
0.000115285
0.000115072
0.000114805
0.000114483
0.000114131
0.000113757
0.000113365
0.000112965
0.000112572
0.000112195
0.000111844
0.000111538
0.000111297
0.000111152
0.000111135
0.000111276
0.000111613
0.000112178
0.000113016
0.000114157
0.000115641
0.00011747
0.000119651
0.000122191
0.000125096
0.000128373
0.000132028
0.000136083
0.000140575
0.000145572
0.00015111
0.000157234
0.000163986
0.000171429
0.000179292
0.000187367
0.000195648
0.000204133
0.000212816
0.000221695
0.000230768
0.000240027
0.000249463
0.000259058
0.000268788
0.00027861
0.000288483
0.000298377
0.000308253
0.000317982
0.000327553
0.000336958
0.000346187
0.000355236
0.000364098
0.000372764
0.000381226
0.000389481
0.000397526
0.000405359
0.000412977
0.000420378
0.00042756
0.000434523
0.000441265
0.000447782
0.000454071
0.00046013
0.000465964
0.000471575
0.000476967
0.000482142
0.000487103
0.000491852
0.000496392
0.000500723
0.000504848
0.000508768
0.000512489
0.000516014
0.00051936
0.00052253
0.000525446
0.000528147
0.000530656
0.000532986
0.00053515
0.000537157
0.00053901
0.000540716
0.000542285
0.000543727
0.000545051
0.000546269
0.000547387
0.000548413
0.00054935
0.000550207
0.000550988
0.000551698
0.000552341
0.00055292
0.000553442
0.000553909
0.00055432
0.00055468
0.000554995
0.000555268
0.000555501
0.000555698
0.000555862
0.000555996
0.000556104
0.000556189
0.000556256
0.000556309
0.000556351
0.000556392
0.00055643
0.000556445
0.00055644
0.000556432
0.00055642
0.000556408
0.000556396
0.000556386
0.000556377
0.000556369
0.000556364
0.000556361
0.00055636
0.000556362
0.000556368
0.000556378
0.000556394
0.000556417
0.000556451
0.000556495
0.000556552
0.000556625
0.000556713
0.000556818
0.000556942
0.000557086
0.00055725
0.000557437
0.000557647
0.000557884
0.000558148
0.000558441
0.000558764
0.000559119
0.000559506
0.000559926
0.00056038
0.000560866
0.000561383
0.00056193
0.000562505
0.000563106
0.000563729
0.000564375
0.00056504
0.000565724
0.000566425
0.000567142
0.000567873
0.000568619
0.000569378
0.00057015
0.000570935
0.000571732
0.000572541
0.000573361
0.000574193
0.000575036
0.00057589
0.000576754
0.00057763
0.000578517
0.000579416
0.000580328
0.000581254
0.000582195
0.000583153
0.000584127
0.00058512
0.000586131
0.000587162
0.000588211
0.000589279
0.000590365
0.000591469
0.000592588
0.000593722
0.000594867
0.000596022
0.000597183
0.000598349
0.000599515
0.000600681
0.000601844
0.000603002
0.000604153
0.000605295
0.000606427
0.000607547
0.000608653
0.000609744
0.000610818
0.000611876
0.000612916
0.000613937
0.000614937
0.000615917
0.000616872
0.0006178
0.000618698
0.000619565
0.000620398
0.000621195
0.000621955
0.000622678
0.000623361
0.000624005
0.000624609
0.000625173
0.000625697
0.000626182
0.000626629
0.000627038
0.000627411
0.00062775
0.000628055
0.00062833
0.000628575
0.000628792
0.000628985
0.000629153
0.000629299
0.000629425
0.000629532
0.000629621
0.000629694
0.000629752
0.000629795
0.000629824
0.000629841
0.000629847
0.000629841
0.000629825
0.0006298
0.000629766
0.000629725
0.000629678
0.000629626
0.000629569
0.000629509
0.000629445
0.00062938
0.000629313
0.000629246
0.000629179
0.000629112
0.000629045
0.000628978
0.00062891
0.000628843
0.000628774
0.000628705
0.000628635
0.000628564
0.000628491
0.000628416
0.000628339
0.00062826
0.000628179
0.000628097
0.000628014
0.000627931
0.000627848
0.000627767
0.000627689
0.000627615
0.000627546
0.000627485
0.000627433
0.00062739
0.000627358
0.000627339
0.000627331
0.000627336
0.000627353
0.000627383
0.000627424
0.000627478
0.000627542
0.000627618
0.000627704
0.000627801
0.000627908
0.000628025
0.000628151
0.000628288
0.000628434
0.000628588
0.00062875
0.000628918
0.000629091
0.000629268
0.000629447
0.000629628
0.00062981
0.000629993
0.000630177
0.000630361
0.000630546
0.000630732
0.000630918
0.000631107
0.000631297
0.000631491
0.000631688
0.000631889
0.000632091
0.000632294
0.000632496
0.000632695
0.000632891
0.000633081
0.000633263
0.000633436
0.000633598
0.000633747
0.000633879
0.000633992
0.000634084
0.000634153
0.000634199
0.000634219
0.000634213
0.000634182
0.000634124
0.00063404
0.000633929
0.000633791
0.000633625
0.000633431
0.000633209
0.000632956
0.000632674
0.00063236
0.000632016
0.000631641
0.000631234
0.000630795
0.000630324
0.000629822
0.000629287
0.00062872
0.000628122
0.000627492
0.000626833
0.000626145
0.000625429
0.000624688
0.000623923
0.000623137
0.000622331
0.000621507
0.000620667
0.000619812
0.000618943
0.000618062
0.000617169
0.000616265
0.000615351
0.000614431
0.000613505
0.000612575
0.000611644
0.000610713
0.000609784
0.000608858
0.000607936
0.000607018
0.000606105
0.000605197
0.000604294
0.000603395
0.000602502
0.000601615
0.000600733
0.000599858
0.000598989
0.000598125
0.000597269
0.000596418
0.000595574
0.000594736
0.000593905
0.000593082
0.000592268
0.000591463
0.000590669
0.000589887
0.000589118
0.000588362
0.000587619
0.000586888
0.000586171
0.000585467
0.000584775
0.000584096
0.00058343
0.000582775
0.000582133
0.000581502
0.000580882
0.000580274
0.000579676
0.000579089
0.000578513
0.000577947
0.000577394
0.000576852
0.000576323
0.000575806
0.000575302
0.000574809
0.000574328
0.000573858
0.000573398
0.000572948
0.000572507
0.000572074
0.000571649
0.000571231
0.00057082
0.000570416
0.000570017
0.000569622
0.000569232
0.000568845
0.000568461
0.000568082
0.000567707
0.000567337
0.000566974
0.000566617
0.000566269
0.000565929
0.000565599
0.000565278
0.000564969
0.000564671
0.000564387
0.000564116
0.000563858
0.000563614
0.00056338
0.000563156
0.000562938
0.000562724
0.000562513
0.000562299
0.000562083
0.00056186
0.000561629
0.00056139
0.000561144
0.00056089
0.000560631
0.000560367
0.000560102
0.000559836
0.000559572
0.000559309
0.000559052
0.000558795
0.000558544
0.000558294
0.000558048
0.0005578
0.000557553
0.000557297
0.000557034
0.000556754
0.000556461
0.000556143
0.000555808
0.000555444
0.00055506
0.000554643
0.000554208
0.00055374
0.000553255
0.00055274
0.000552212
0.000551658
0.000551096
0.000550511
0.000549921
0.00054931
0.000548695
0.000548058
0.000547417
0.000546757
0.000546092
0.000545413
0.00054473
0.000544038
0.000543341
0.000542639
0.000541934
0.000541228
0.000540527
0.000539836
0.000539163
0.000538523
0.000537923
0.0005374
0.000536985
0.000536615
0.000536649
0.000536085
0.000535696
0.000538632
0.000542911
0.000547536
0.000553091
0.000560316
0.000570833
0.000569446
0.000572264
0.000554035
0.000430973
0.000311963
0.000111158
0.000111467
0.000112082
0.000112732
0.000113351
0.000113913
0.000114355
0.000114696
0.000114904
0.000114957
0.000114879
0.000114725
0.000114496
0.000114217
0.00011389
0.000113521
0.000113111
0.000112669
0.000112196
0.000111696
0.000111169
0.000110621
0.000110055
0.000109477
0.000108891
0.000108304
0.000107724
0.000107159
0.000106619
0.000106113
0.000105649
0.000105237
0.000104887
0.000104606
0.000104403
0.000104288
0.000104269
0.000104358
0.000104577
0.00010494
0.000105446
0.000106099
0.000106909
0.000107893
0.00010907
0.000110463
0.000112081
0.000113926
0.000116001
0.000118313
0.000120866
0.000123669
0.000126734
0.000130075
0.000133705
0.00013764
0.000141894
0.000146487
0.000151434
0.000156742
0.000162413
0.000168417
0.000174747
0.000181392
0.000188333
0.000195555
0.000202991
0.000210492
0.000218057
0.000225684
0.00023337
0.000241112
0.000248904
0.00025674
0.00026461
0.000272503
0.000280408
0.000288307
0.000296184
0.000304018
0.000311792
0.000319492
0.000327102
0.000334605
0.000341986
0.000349236
0.000356342
0.000363296
0.000370091
0.00037672
0.000383173
0.000389454
0.000395585
0.000401555
0.000407323
0.000412882
0.000418226
0.000423354
0.000428266
0.00043295
0.000437411
0.00044167
0.000445745
0.000449644
0.000453379
0.000456955
0.000460364
0.000463607
0.000466686
0.000469608
0.00047238
0.000475008
0.000477499
0.00047986
0.000482098
0.000484213
0.000486217
0.000488123
0.000489935
0.000491657
0.000493296
0.000494857
0.000496346
0.000497768
0.000499125
0.000500422
0.000501665
0.000502858
0.000504006
0.000505116
0.000506189
0.000507216
0.000508201
0.000509155
0.000510079
0.000510977
0.00051185
0.000512701
0.00051353
0.00051434
0.00051513
0.000515902
0.000516658
0.000517399
0.000518127
0.000518844
0.000519553
0.000520257
0.000520958
0.000521659
0.000522363
0.000523072
0.000523788
0.000524513
0.000525249
0.000525998
0.000526762
0.000527543
0.000528343
0.000529167
0.000530017
0.000530895
0.000531804
0.000532748
0.000533727
0.000534742
0.000535795
0.000536883
0.000538006
0.00053916
0.000540343
0.000541551
0.000542781
0.000544031
0.000545297
0.000546579
0.000547874
0.000549181
0.000550501
0.000551832
0.000553173
0.000554526
0.000555889
0.000557262
0.000558645
0.000560036
0.000561436
0.000562844
0.000564259
0.000565681
0.000567111
0.000568548
0.000569994
0.000571449
0.000572915
0.000574393
0.000575885
0.00057739
0.000578911
0.000580447
0.000581999
0.000583566
0.000585149
0.000586746
0.000588356
0.000589978
0.000591608
0.000593245
0.000594885
0.000596525
0.000598162
0.000599794
0.000601416
0.000603026
0.000604622
0.000606201
0.000607761
0.000609299
0.000610814
0.000612304
0.000613768
0.000615205
0.000616615
0.000617997
0.000619351
0.000620676
0.000621971
0.000623233
0.000624463
0.000625656
0.000626811
0.000627926
0.000628998
0.000630027
0.00063101
0.000631946
0.000632835
0.000633675
0.000634466
0.000635209
0.000635904
0.000636552
0.000637155
0.000637715
0.000638233
0.000638711
0.000639153
0.000639561
0.000639936
0.00064028
0.000640597
0.000640888