/*--------------------------------*- C++ -*----------------------------------*\
| =========                 |                                                 |
| \\      /  F ield         | foam-extend: Open Source CFD                    |
|  \\    /   O peration     | Version:     3.2                                |
|   \\  /    A nd           | Web:         http://www.foam-extend.org         |
|    \\/     M anipulation  | For copyright notice see file Copyright         |
\*---------------------------------------------------------------------------*/
FoamFile
{
    version     2.0;
    format      ascii;
    class       volVectorField;
    location    "120";
    object      meshCentreN;
}
// * * * * * * * * * * * * * * * * * * * * * * * * * * * * * * * * * * * * * //

dimensions      [0 1 0 0 0 0 0];

internalField   nonuniform List<vector> 
33000
(
(0.00909091 0.01 0.00248182)
(0.0272727 0.01 0.00244545)
(0.0454545 0.01 0.00240909)
(0.0636364 0.01 0.00237273)
(0.0818182 0.01 0.00233636)
(0.1 0.01 0.0023)
(0.118182 0.01 0.00226364)
(0.136364 0.01 0.00222727)
(0.154545 0.01 0.00219091)
(0.172727 0.01 0.00215455)
(0.190909 0.01 0.00211818)
(0.209091 0.01 0.00208182)
(0.227273 0.01 0.00204545)
(0.245455 0.01 0.00200909)
(0.263636 0.01 0.00197273)
(0.281818 0.01 0.00193636)
(0.3 0.01 0.0019)
(0.318182 0.01 0.00186364)
(0.336364 0.01 0.00182727)
(0.354545 0.01 0.00179091)
(0.372727 0.01 0.00175455)
(0.390909 0.01 0.00171818)
(0.409091 0.01 0.00168182)
(0.427273 0.01 0.00164545)
(0.445455 0.01 0.00160909)
(0.463636 0.01 0.00157273)
(0.481818 0.01 0.00153636)
(0.5 0.01 0.0015)
(0.518182 0.01 0.00146364)
(0.536364 0.01 0.00142727)
(0.554545 0.01 0.00139091)
(0.572727 0.01 0.00135455)
(0.590909 0.01 0.00131818)
(0.609091 0.01 0.00128182)
(0.627273 0.01 0.00124545)
(0.645455 0.01 0.00120909)
(0.663636 0.01 0.00117273)
(0.681818 0.01 0.00113636)
(0.7 0.01 0.0011)
(0.718182 0.01 0.00106364)
(0.736364 0.01 0.00102727)
(0.754545 0.01 0.000990909)
(0.772727 0.01 0.000954545)
(0.790909 0.01 0.000918182)
(0.809091 0.01 0.000881818)
(0.827273 0.01 0.000845455)
(0.845455 0.01 0.000809091)
(0.863636 0.01 0.000772727)
(0.881818 0.01 0.000736364)
(0.9 0.01 0.0007)
(0.918182 0.01 0.000663636)
(0.936364 0.01 0.000627273)
(0.954545 0.01 0.000590909)
(0.972727 0.01 0.000554545)
(0.990909 0.01 0.000518182)
(1.00909 0.01 0.000481818)
(1.02727 0.01 0.000445455)
(1.04545 0.01 0.000409091)
(1.06364 0.01 0.000372727)
(1.08182 0.01 0.000336364)
(1.1 0.01 0.0003)
(1.11818 0.01 0.000263636)
(1.13636 0.01 0.000227273)
(1.15455 0.01 0.000190909)
(1.17273 0.01 0.000154545)
(1.19091 0.01 0.000118182)
(1.20909 0.01 8.18182e-05)
(1.22727 0.01 4.54545e-05)
(1.24545 0.01 9.09091e-06)
(1.26364 0.01 -2.72727e-05)
(1.28182 0.01 -6.36364e-05)
(1.3 0.01 -0.0001)
(1.31818 0.01 -0.000136364)
(1.33636 0.01 -0.000172727)
(1.35455 0.01 -0.000209091)
(1.37273 0.01 -0.000245455)
(1.39091 0.01 -0.000281818)
(1.40909 0.01 -0.000318182)
(1.42727 0.01 -0.000354545)
(1.44545 0.01 -0.000390909)
(1.46364 0.01 -0.000427273)
(1.48182 0.01 -0.000463636)
(1.5 0.01 -0.0005)
(1.51818 0.01 -0.000536364)
(1.53636 0.01 -0.000572727)
(1.55455 0.01 -0.000609091)
(1.57273 0.01 -0.000645455)
(1.59091 0.01 -0.000681818)
(1.60909 0.01 -0.000718182)
(1.62727 0.01 -0.000754545)
(1.64545 0.01 -0.000790909)
(1.66364 0.01 -0.000827273)
(1.68182 0.01 -0.000863636)
(1.7 0.01 -0.0009)
(1.71818 0.01 -0.000936364)
(1.73636 0.01 -0.000972727)
(1.75455 0.01 -0.00100909)
(1.77273 0.01 -0.00104545)
(1.79091 0.01 -0.00108182)
(1.80909 0.01 -0.00111818)
(1.82727 0.01 -0.00115455)
(1.84545 0.01 -0.00119091)
(1.86364 0.01 -0.00122727)
(1.88182 0.01 -0.00126364)
(1.9 0.01 -0.0013)
(1.91818 0.01 -0.00133636)
(1.93636 0.01 -0.00137273)
(1.95455 0.01 -0.00140909)
(1.97273 0.01 -0.00144545)
(1.99091 0.01 -0.00148182)
(2.00909 0.01 -0.00151818)
(2.02727 0.01 -0.00155455)
(2.04545 0.01 -0.00159091)
(2.06364 0.01 -0.00162727)
(2.08182 0.01 -0.00166364)
(2.1 0.01 -0.0017)
(2.11818 0.01 -0.00173636)
(2.13636 0.01 -0.00177273)
(2.15455 0.01 -0.00180909)
(2.17273 0.01 -0.00184545)
(2.19091 0.01 -0.00188182)
(2.20909 0.01 -0.00191818)
(2.22727 0.01 -0.00195455)
(2.24545 0.01 -0.00199091)
(2.26364 0.01 -0.00202727)
(2.28182 0.01 -0.00206364)
(2.3 0.01 -0.0021)
(2.31818 0.01 -0.00213636)
(2.33636 0.01 -0.00217273)
(2.35455 0.01 -0.00220909)
(2.37273 0.01 -0.00224545)
(2.39091 0.01 -0.00228182)
(2.40909 0.01 -0.00231818)
(2.42727 0.01 -0.00235455)
(2.44545 0.01 -0.00239091)
(2.46364 0.01 -0.00242727)
(2.48182 0.01 -0.00246364)
(2.5 0.01 -0.0025)
(2.51818 0.01 -0.00253636)
(2.53636 0.01 -0.00257273)
(2.55455 0.01 -0.00260909)
(2.57273 0.01 -0.00264545)
(2.59091 0.01 -0.00268182)
(2.60909 0.01 -0.00271818)
(2.62727 0.01 -0.00275455)
(2.64545 0.01 -0.00279091)
(2.66364 0.01 -0.00282727)
(2.68182 0.01 -0.00286364)
(2.7 0.01 -0.0029)
(2.71818 0.01 -0.00293636)
(2.73636 0.01 -0.00297273)
(2.75455 0.01 -0.00300909)
(2.77273 0.01 -0.00304545)
(2.79091 0.01 -0.00308182)
(2.80909 0.01 -0.00311818)
(2.82727 0.01 -0.00315455)
(2.84545 0.01 -0.00319091)
(2.86364 0.01 -0.00322727)
(2.88182 0.01 -0.00326364)
(2.9 0.01 -0.0033)
(2.91818 0.01 -0.00333636)
(2.93636 0.01 -0.00337273)
(2.95455 0.01 -0.00340909)
(2.97273 0.01 -0.00344545)
(2.99091 0.01 -0.00348182)
(3.00909 0.01 -0.00351818)
(3.02727 0.01 -0.00355455)
(3.04545 0.01 -0.00359091)
(3.06364 0.01 -0.00362727)
(3.08182 0.01 -0.00366364)
(3.1 0.01 -0.0037)
(3.11818 0.01 -0.00373636)
(3.13636 0.01 -0.00377273)
(3.15455 0.01 -0.00380909)
(3.17273 0.01 -0.00384545)
(3.19091 0.01 -0.00388182)
(3.20909 0.01 -0.00391818)
(3.22727 0.01 -0.00395455)
(3.24545 0.01 -0.00399091)
(3.26364 0.01 -0.00402727)
(3.28182 0.01 -0.00406364)
(3.3 0.01 -0.0041)
(3.31818 0.01 -0.00413636)
(3.33636 0.01 -0.00417273)
(3.35455 0.01 -0.00420909)
(3.37273 0.01 -0.00424545)
(3.39091 0.01 -0.00428182)
(3.40909 0.01 -0.00431818)
(3.42727 0.01 -0.00435455)
(3.44545 0.01 -0.00439091)
(3.46364 0.01 -0.00442727)
(3.48182 0.01 -0.00446364)
(3.5 0.01 -0.0045)
(3.51818 0.01 -0.00453636)
(3.53636 0.01 -0.00457273)
(3.55455 0.01 -0.00460909)
(3.57273 0.01 -0.00464545)
(3.59091 0.01 -0.00468182)
(3.60909 0.01 -0.00471818)
(3.62727 0.01 -0.00475455)
(3.64545 0.01 -0.00479091)
(3.66364 0.01 -0.00482727)
(3.68182 0.01 -0.00486364)
(3.7 0.01 -0.0049)
(3.71818 0.01 -0.00493636)
(3.73636 0.01 -0.00497273)
(3.75455 0.01 -0.00500909)
(3.77273 0.01 -0.00504545)
(3.79091 0.01 -0.00508182)
(3.80909 0.01 -0.00511818)
(3.82727 0.01 -0.00515455)
(3.84545 0.01 -0.00519091)
(3.86364 0.01 -0.00522727)
(3.88182 0.01 -0.00526364)
(3.9 0.01 -0.0053)
(3.91818 0.01 -0.00533636)
(3.93636 0.01 -0.00537273)
(3.95455 0.01 -0.00540909)
(3.97273 0.01 -0.00544545)
(3.99091 0.01 -0.00548182)
(4.00909 0.01 -0.00551818)
(4.02727 0.01 -0.00555455)
(4.04545 0.01 -0.00559091)
(4.06364 0.01 -0.00562727)
(4.08182 0.01 -0.00566364)
(4.1 0.01 -0.0057)
(4.11818 0.01 -0.00573636)
(4.13636 0.01 -0.00577273)
(4.15455 0.01 -0.00580909)
(4.17273 0.01 -0.00584545)
(4.19091 0.01 -0.00588182)
(4.20909 0.01 -0.00591818)
(4.22727 0.01 -0.00595455)
(4.24545 0.01 -0.00599091)
(4.26364 0.01 -0.00602727)
(4.28182 0.01 -0.00606364)
(4.3 0.01 -0.0061)
(4.31818 0.01 -0.00613635)
(4.33636 0.01 -0.00617266)
(4.35455 0.01 -0.00620885)
(4.37273 0.01 -0.00624492)
(4.39091 0.01 -0.00628085)
(4.40909 0.01 -0.00631664)
(4.42727 0.01 -0.00635229)
(4.44545 0.01 -0.00638785)
(4.46364 0.01 -0.00642341)
(4.48182 0.01 -0.00645899)
(4.5 0.01 -0.00649456)
(4.51818 0.01 -0.00653011)
(4.53636 0.01 -0.00656566)
(4.55455 0.01 -0.00660121)
(4.57273 0.01 -0.00663675)
(4.59091 0.01 -0.0066723)
(4.60909 0.01 -0.00670784)
(4.62727 0.01 -0.00674338)
(4.64545 0.01 -0.00677891)
(4.66364 0.01 -0.00681444)
(4.68182 0.01 -0.00684996)
(4.7 0.01 -0.00688549)
(4.71818 0.01 -0.00692101)
(4.73636 0.01 -0.00695652)
(4.75455 0.01 -0.00699204)
(4.77273 0.01 -0.00702756)
(4.79091 0.01 -0.00706307)
(4.80909 0.01 -0.00709859)
(4.82727 0.01 -0.0071341)
(4.84545 0.01 -0.00716962)
(4.86364 0.01 -0.00720514)
(4.88182 0.01 -0.00724066)
(4.9 0.01 -0.00727618)
(4.91818 0.01 -0.00731171)
(4.93636 0.01 -0.00734724)
(4.95455 0.01 -0.00738278)
(4.97273 0.01 -0.00741832)
(4.99091 0.01 -0.00745387)
(5.00909 0.01 -0.00748942)
(5.02727 0.01 -0.00752498)
(5.04545 0.01 -0.00756054)
(5.06364 0.01 -0.00759612)
(5.08182 0.01 -0.0076317)
(5.1 0.01 -0.00766729)
(5.11818 0.01 -0.00770289)
(5.13636 0.01 -0.0077385)
(5.15455 0.01 -0.00777412)
(5.17273 0.01 -0.00780975)
(5.19091 0.01 -0.00784539)
(5.20909 0.01 -0.00788104)
(5.22727 0.01 -0.0079167)
(5.24545 0.01 -0.00795237)
(5.26364 0.01 -0.00798806)
(5.28182 0.01 -0.00802376)
(5.3 0.01 -0.00805947)
(5.31818 0.01 -0.0080952)
(5.33636 0.01 -0.00813094)
(5.35455 0.01 -0.0081667)
(5.37273 0.01 -0.00820248)
(5.39091 0.01 -0.00823827)
(5.40909 0.01 -0.00827409)
(5.42727 0.01 -0.00830993)
(5.44545 0.01 -0.00834578)
(5.46364 0.01 -0.00838166)
(5.48182 0.01 -0.00841756)
(5.5 0.01 -0.00845347)
(5.51818 0.01 -0.00848941)
(5.53636 0.01 -0.00852537)
(5.55455 0.01 -0.00856134)
(5.57273 0.01 -0.00859734)
(5.59091 0.01 -0.00863335)
(5.60909 0.01 -0.00866939)
(5.62727 0.01 -0.00870544)
(5.64545 0.01 -0.00874151)
(5.66364 0.01 -0.00877759)
(5.68182 0.01 -0.0088137)
(5.7 0.01 -0.00884981)
(5.71818 0.01 -0.00888595)
(5.73636 0.01 -0.0089221)
(5.75455 0.01 -0.00895827)
(5.77273 0.01 -0.00899445)
(5.79091 0.01 -0.00903065)
(5.80909 0.01 -0.00906685)
(5.82727 0.01 -0.00910308)
(5.84545 0.01 -0.00913931)
(5.86364 0.01 -0.00917556)
(5.88182 0.01 -0.00921182)
(5.9 0.01 -0.00924808)
(5.91818 0.01 -0.00928436)
(5.93636 0.01 -0.00932065)
(5.95455 0.01 -0.00935694)
(5.97273 0.01 -0.00939324)
(5.99091 0.01 -0.00942954)
(6.00909 0.01 -0.00946585)
(6.02727 0.01 -0.00950216)
(6.04545 0.01 -0.00953847)
(6.06364 0.01 -0.00957478)
(6.08182 0.01 -0.00961109)
(6.1 0.01 -0.0096474)
(6.11818 0.01 -0.00968371)
(6.13636 0.01 -0.00972001)
(6.15455 0.01 -0.0097563)
(6.17273 0.01 -0.00979259)
(6.19091 0.01 -0.00982887)
(6.20909 0.01 -0.00986514)
(6.22727 0.01 -0.00990141)
(6.24545 0.01 -0.00993766)
(6.26364 0.01 -0.00997389)
(6.28182 0.01 -0.0100101)
(6.3 0.01 -0.0100463)
(6.31818 0.01 -0.0100825)
(6.33636 0.01 -0.0101187)
(6.35455 0.01 -0.0101549)
(6.37273 0.01 -0.010191)
(6.39091 0.01 -0.0102271)
(6.40909 0.01 -0.0102633)
(6.42727 0.01 -0.0102994)
(6.44545 0.01 -0.0103354)
(6.46364 0.01 -0.0103715)
(6.48182 0.01 -0.0104075)
(6.5 0.01 -0.0104435)
(6.51818 0.01 -0.0104795)
(6.53636 0.01 -0.0105155)
(6.55455 0.01 -0.0105515)
(6.57273 0.01 -0.0105874)
(6.59091 0.01 -0.0106234)
(6.60909 0.01 -0.0106593)
(6.62727 0.01 -0.0106952)
(6.64545 0.01 -0.010731)
(6.66364 0.01 -0.0107669)
(6.68182 0.01 -0.0108027)
(6.7 0.01 -0.0108386)
(6.71818 0.01 -0.0108744)
(6.73636 0.01 -0.0109102)
(6.75455 0.01 -0.0109459)
(6.77273 0.01 -0.0109817)
(6.79091 0.01 -0.0110174)
(6.80909 0.01 -0.0110532)
(6.82727 0.01 -0.0110889)
(6.84545 0.01 -0.0111246)
(6.86364 0.01 -0.0111603)
(6.88182 0.01 -0.0111959)
(6.9 0.01 -0.0112316)
(6.91818 0.01 -0.0112673)
(6.93636 0.01 -0.0113029)
(6.95455 0.01 -0.0113386)
(6.97273 0.01 -0.0113742)
(6.99091 0.01 -0.0114098)
(7.00909 0.01 -0.0114454)
(7.02727 0.01 -0.011481)
(7.04545 0.01 -0.0115167)
(7.06364 0.01 -0.0115522)
(7.08182 0.01 -0.0115878)
(7.1 0.01 -0.0116234)
(7.11818 0.01 -0.011659)
(7.13636 0.01 -0.0116946)
(7.15455 0.01 -0.0117302)
(7.17273 0.01 -0.0117657)
(7.19091 0.01 -0.0118013)
(7.20909 0.01 -0.0118369)
(7.22727 0.01 -0.0118724)
(7.24545 0.01 -0.011908)
(7.26364 0.01 -0.0119436)
(7.28182 0.01 -0.0119791)
(7.3 0.01 -0.0120147)
(7.31818 0.01 -0.0120503)
(7.33636 0.01 -0.0120858)
(7.35455 0.01 -0.0121214)
(7.37273 0.01 -0.012157)
(7.39091 0.01 -0.0121925)
(7.40909 0.01 -0.0122281)
(7.42727 0.01 -0.0122637)
(7.44545 0.01 -0.0122993)
(7.46364 0.01 -0.0123348)
(7.48182 0.01 -0.0123704)
(7.5 0.01 -0.012406)
(7.51818 0.01 -0.0124416)
(7.53636 0.01 -0.0124772)
(7.55455 0.01 -0.0125128)
(7.57273 0.01 -0.0125484)
(7.59091 0.01 -0.0125841)
(7.60909 0.01 -0.0126197)
(7.62727 0.01 -0.0126553)
(7.64545 0.01 -0.012691)
(7.66364 0.01 -0.0127266)
(7.68182 0.01 -0.0127623)
(7.7 0.01 -0.0127979)
(7.71818 0.01 -0.0128336)
(7.73636 0.01 -0.0128693)
(7.75455 0.01 -0.0129049)
(7.77273 0.01 -0.0129406)
(7.79091 0.01 -0.0129763)
(7.80909 0.01 -0.0130121)
(7.82727 0.01 -0.0130478)
(7.84545 0.01 -0.0130835)
(7.86364 0.01 -0.0131193)
(7.88182 0.01 -0.013155)
(7.9 0.01 -0.0131908)
(7.91818 0.01 -0.0132266)
(7.93636 0.01 -0.0132624)
(7.95455 0.01 -0.0132982)
(7.97273 0.01 -0.013334)
(7.99091 0.01 -0.0133698)
(8.00909 0.01 -0.0134057)
(8.02727 0.01 -0.0134415)
(8.04545 0.01 -0.0134774)
(8.06364 0.01 -0.0135133)
(8.08182 0.01 -0.0135492)
(8.1 0.01 -0.0135852)
(8.11818 0.01 -0.0136211)
(8.13636 0.01 -0.0136571)
(8.15455 0.01 -0.0136931)
(8.17273 0.01 -0.0137291)
(8.19091 0.01 -0.0137651)
(8.20909 0.01 -0.0138011)
(8.22727 0.01 -0.0138371)
(8.24545 0.01 -0.0138731)
(8.26364 0.01 -0.0139092)
(8.28182 0.01 -0.0139453)
(8.3 0.01 -0.0139813)
(8.31818 0.01 -0.0140174)
(8.33636 0.01 -0.0140535)
(8.35455 0.01 -0.0140897)
(8.37273 0.01 -0.0141258)
(8.39091 0.01 -0.0141619)
(8.40909 0.01 -0.0141981)
(8.42727 0.01 -0.0142342)
(8.44545 0.01 -0.0142704)
(8.46364 0.01 -0.0143066)
(8.48182 0.01 -0.0143427)
(8.5 0.01 -0.0143789)
(8.51818 0.01 -0.0144151)
(8.53636 0.01 -0.0144513)
(8.55455 0.01 -0.0144876)
(8.57273 0.01 -0.0145238)
(8.59091 0.01 -0.01456)
(8.60909 0.01 -0.0145962)
(8.62727 0.01 -0.0146325)
(8.64545 0.01 -0.0146687)
(8.66364 0.01 -0.014705)
(8.68182 0.01 -0.0147412)
(8.7 0.01 -0.0147774)
(8.71818 0.01 -0.0148137)
(8.73636 0.01 -0.0148499)
(8.75455 0.01 -0.0148862)
(8.77273 0.01 -0.0149224)
(8.79091 0.01 -0.0149587)
(8.80909 0.01 -0.0149949)
(8.82727 0.01 -0.0150312)
(8.84545 0.01 -0.0150674)
(8.86364 0.01 -0.0151036)
(8.88182 0.01 -0.0151398)
(8.9 0.01 -0.0151761)
(8.91818 0.01 -0.0152123)
(8.93636 0.01 -0.0152485)
(8.95455 0.01 -0.0152847)
(8.97273 0.01 -0.0153209)
(8.99091 0.01 -0.0153571)
(9.00909 0.01 -0.0153933)
(9.02727 0.01 -0.0154294)
(9.04545 0.01 -0.0154656)
(9.06364 0.01 -0.0155017)
(9.08182 0.01 -0.0155379)
(9.1 0.01 -0.015574)
(9.11818 0.01 -0.0156102)
(9.13636 0.01 -0.0156463)
(9.15455 0.01 -0.0156824)
(9.17273 0.01 -0.0157185)
(9.19091 0.01 -0.0157546)
(9.20909 0.01 -0.0157907)
(9.22727 0.01 -0.0158268)
(9.24545 0.01 -0.0158628)
(9.26364 0.01 -0.0158989)
(9.28182 0.01 -0.015935)
(9.3 0.01 -0.015971)
(9.31818 0.01 -0.016007)
(9.33636 0.01 -0.0160431)
(9.35455 0.01 -0.0160791)
(9.37273 0.01 -0.0161151)
(9.39091 0.01 -0.0161511)
(9.40909 0.01 -0.0161871)
(9.42727 0.01 -0.0162231)
(9.44545 0.01 -0.016259)
(9.46364 0.01 -0.016295)
(9.48182 0.01 -0.0163309)
(9.5 0.01 -0.0163668)
(9.51818 0.01 -0.0164026)
(9.53636 0.01 -0.0164384)
(9.55455 0.01 -0.0164741)
(9.57273 0.01 -0.0165097)
(9.59091 0.01 -0.016545)
(9.60909 0.01 -0.0165801)
(9.62727 0.01 -0.0166148)
(9.64545 0.01 -0.016649)
(9.66364 0.01 -0.0166822)
(9.68182 0.01 -0.0167143)
(9.7 0.01 -0.0167448)
(9.71818 0.01 -0.0167728)
(9.73636 0.01 -0.0167975)
(9.75455 0.01 -0.0168191)
(9.77272 0.01 -0.0168356)
(9.79091 0.01 -0.0169094)
(9.80909 0.01 -0.0170546)
(9.82727 0.01 -0.0171525)
(9.84545 0.01 -0.0171909)
(9.86364 0.01 -0.0172273)
(9.88182 0.01 -0.0172636)
(9.9 0.01 -0.0173)
(9.91818 0.01 -0.0173364)
(9.93636 0.01 -0.0173727)
(9.95455 0.01 -0.0174091)
(9.97273 0.01 -0.0174455)
(9.99091 0.01 -0.0174818)
(0.00909091 0.01 0.00748182)
(0.0272727 0.01 0.00744545)
(0.0454545 0.01 0.00740909)
(0.0636364 0.01 0.00737273)
(0.0818182 0.01 0.00733636)
(0.1 0.01 0.0073)
(0.118182 0.01 0.00726364)
(0.136364 0.01 0.00722727)
(0.154545 0.01 0.00719091)
(0.172727 0.01 0.00715455)
(0.190909 0.01 0.00711818)
(0.209091 0.01 0.00708182)
(0.227273 0.01 0.00704545)
(0.245455 0.01 0.00700909)
(0.263636 0.01 0.00697273)
(0.281818 0.01 0.00693636)
(0.3 0.01 0.0069)
(0.318182 0.01 0.00686364)
(0.336364 0.01 0.00682727)
(0.354545 0.01 0.00679091)
(0.372727 0.01 0.00675455)
(0.390909 0.01 0.00671818)
(0.409091 0.01 0.00668182)
(0.427273 0.01 0.00664545)
(0.445455 0.01 0.00660909)
(0.463636 0.01 0.00657273)
(0.481818 0.01 0.00653636)
(0.5 0.01 0.0065)
(0.518182 0.01 0.00646364)
(0.536364 0.01 0.00642727)
(0.554545 0.01 0.00639091)
(0.572727 0.01 0.00635455)
(0.590909 0.01 0.00631818)
(0.609091 0.01 0.00628182)
(0.627273 0.01 0.00624545)
(0.645455 0.01 0.00620909)
(0.663636 0.01 0.00617273)
(0.681818 0.01 0.00613636)
(0.7 0.01 0.0061)
(0.718182 0.01 0.00606364)
(0.736364 0.01 0.00602727)
(0.754545 0.01 0.00599091)
(0.772727 0.01 0.00595455)
(0.790909 0.01 0.00591818)
(0.809091 0.01 0.00588182)
(0.827273 0.01 0.00584545)
(0.845455 0.01 0.00580909)
(0.863636 0.01 0.00577273)
(0.881818 0.01 0.00573636)
(0.9 0.01 0.0057)
(0.918182 0.01 0.00566364)
(0.936364 0.01 0.00562727)
(0.954545 0.01 0.00559091)
(0.972727 0.01 0.00555455)
(0.990909 0.01 0.00551818)
(1.00909 0.01 0.00548182)
(1.02727 0.01 0.00544545)
(1.04545 0.01 0.00540909)
(1.06364 0.01 0.00537273)
(1.08182 0.01 0.00533636)
(1.1 0.01 0.0053)
(1.11818 0.01 0.00526364)
(1.13636 0.01 0.00522727)
(1.15455 0.01 0.00519091)
(1.17273 0.01 0.00515455)
(1.19091 0.01 0.00511818)
(1.20909 0.01 0.00508182)
(1.22727 0.01 0.00504545)
(1.24545 0.01 0.00500909)
(1.26364 0.01 0.00497273)
(1.28182 0.01 0.00493636)
(1.3 0.01 0.0049)
(1.31818 0.01 0.00486364)
(1.33636 0.01 0.00482727)
(1.35455 0.01 0.00479091)
(1.37273 0.01 0.00475455)
(1.39091 0.01 0.00471818)
(1.40909 0.01 0.00468182)
(1.42727 0.01 0.00464545)
(1.44545 0.01 0.00460909)
(1.46364 0.01 0.00457273)
(1.48182 0.01 0.00453636)
(1.5 0.01 0.0045)
(1.51818 0.01 0.00446364)
(1.53636 0.01 0.00442727)
(1.55455 0.01 0.00439091)
(1.57273 0.01 0.00435455)
(1.59091 0.01 0.00431818)
(1.60909 0.01 0.00428182)
(1.62727 0.01 0.00424545)
(1.64545 0.01 0.00420909)
(1.66364 0.01 0.00417273)
(1.68182 0.01 0.00413636)
(1.7 0.01 0.0041)
(1.71818 0.01 0.00406364)
(1.73636 0.01 0.00402727)
(1.75455 0.01 0.00399091)
(1.77273 0.01 0.00395455)
(1.79091 0.01 0.00391818)
(1.80909 0.01 0.00388182)
(1.82727 0.01 0.00384545)
(1.84545 0.01 0.00380909)
(1.86364 0.01 0.00377273)
(1.88182 0.01 0.00373636)
(1.9 0.01 0.0037)
(1.91818 0.01 0.00366364)
(1.93636 0.01 0.00362727)
(1.95455 0.01 0.00359091)
(1.97273 0.01 0.00355455)
(1.99091 0.01 0.00351818)
(2.00909 0.01 0.00348182)
(2.02727 0.01 0.00344545)
(2.04545 0.01 0.00340909)
(2.06364 0.01 0.00337273)
(2.08182 0.01 0.00333636)
(2.1 0.01 0.0033)
(2.11818 0.01 0.00326364)
(2.13636 0.01 0.00322727)
(2.15455 0.01 0.00319091)
(2.17273 0.01 0.00315455)
(2.19091 0.01 0.00311818)
(2.20909 0.01 0.00308182)
(2.22727 0.01 0.00304545)
(2.24545 0.01 0.00300909)
(2.26364 0.01 0.00297273)
(2.28182 0.01 0.00293636)
(2.3 0.01 0.0029)
(2.31818 0.01 0.00286364)
(2.33636 0.01 0.00282727)
(2.35455 0.01 0.00279091)
(2.37273 0.01 0.00275455)
(2.39091 0.01 0.00271818)
(2.40909 0.01 0.00268182)
(2.42727 0.01 0.00264545)
(2.44545 0.01 0.00260909)
(2.46364 0.01 0.00257273)
(2.48182 0.01 0.00253636)
(2.5 0.01 0.0025)
(2.51818 0.01 0.00246364)
(2.53636 0.01 0.00242727)
(2.55455 0.01 0.00239091)
(2.57273 0.01 0.00235455)
(2.59091 0.01 0.00231818)
(2.60909 0.01 0.00228182)
(2.62727 0.01 0.00224545)
(2.64545 0.01 0.00220909)
(2.66364 0.01 0.00217273)
(2.68182 0.01 0.00213636)
(2.7 0.01 0.0021)
(2.71818 0.01 0.00206364)
(2.73636 0.01 0.00202727)
(2.75455 0.01 0.00199091)
(2.77273 0.01 0.00195455)
(2.79091 0.01 0.00191818)
(2.80909 0.01 0.00188182)
(2.82727 0.01 0.00184545)
(2.84545 0.01 0.00180909)
(2.86364 0.01 0.00177273)
(2.88182 0.01 0.00173636)
(2.9 0.01 0.0017)
(2.91818 0.01 0.00166364)
(2.93636 0.01 0.00162727)
(2.95455 0.01 0.00159091)
(2.97273 0.01 0.00155455)
(2.99091 0.01 0.00151818)
(3.00909 0.01 0.00148182)
(3.02727 0.01 0.00144545)
(3.04545 0.01 0.00140909)
(3.06364 0.01 0.00137273)
(3.08182 0.01 0.00133636)
(3.1 0.01 0.0013)
(3.11818 0.01 0.00126364)
(3.13636 0.01 0.00122727)
(3.15455 0.01 0.00119091)
(3.17273 0.01 0.00115455)
(3.19091 0.01 0.00111818)
(3.20909 0.01 0.00108182)
(3.22727 0.01 0.00104545)
(3.24545 0.01 0.00100909)
(3.26364 0.01 0.000972727)
(3.28182 0.01 0.000936364)
(3.3 0.01 0.0009)
(3.31818 0.01 0.000863636)
(3.33636 0.01 0.000827273)
(3.35455 0.01 0.000790909)
(3.37273 0.01 0.000754545)
(3.39091 0.01 0.000718182)
(3.40909 0.01 0.000681818)
(3.42727 0.01 0.000645455)
(3.44545 0.01 0.000609091)
(3.46364 0.01 0.000572727)
(3.48182 0.01 0.000536364)
(3.5 0.01 0.0005)
(3.51818 0.01 0.000463636)
(3.53636 0.01 0.000427273)
(3.55455 0.01 0.000390909)
(3.57273 0.01 0.000354545)
(3.59091 0.01 0.000318182)
(3.60909 0.01 0.000281818)
(3.62727 0.01 0.000245455)
(3.64545 0.01 0.000209091)
(3.66364 0.01 0.000172727)
(3.68182 0.01 0.000136364)
(3.7 0.01 0.0001)
(3.71818 0.01 6.36364e-05)
(3.73636 0.01 2.72727e-05)
(3.75455 0.01 -9.09091e-06)
(3.77273 0.01 -4.54545e-05)
(3.79091 0.01 -8.18182e-05)
(3.80909 0.01 -0.000118182)
(3.82727 0.01 -0.000154545)
(3.84545 0.01 -0.000190909)
(3.86364 0.01 -0.000227273)
(3.88182 0.01 -0.000263636)
(3.9 0.01 -0.0003)
(3.91818 0.01 -0.000336364)
(3.93636 0.01 -0.000372727)
(3.95455 0.01 -0.000409091)
(3.97273 0.01 -0.000445455)
(3.99091 0.01 -0.000481818)
(4.00909 0.01 -0.000518182)
(4.02727 0.01 -0.000554545)
(4.04545 0.01 -0.000590909)
(4.06364 0.01 -0.000627273)
(4.08182 0.01 -0.000663636)
(4.1 0.01 -0.0007)
(4.11818 0.01 -0.000736364)
(4.13636 0.01 -0.000772727)
(4.15455 0.01 -0.000809091)
(4.17273 0.01 -0.000845455)
(4.19091 0.01 -0.000881818)
(4.20909 0.01 -0.000918182)
(4.22727 0.01 -0.000954545)
(4.24545 0.01 -0.000990909)
(4.26364 0.01 -0.00102727)
(4.28182 0.01 -0.00106364)
(4.3 0.01 -0.0011)
(4.31818 0.01 -0.00113635)
(4.33636 0.01 -0.00117265)
(4.35455 0.01 -0.00120884)
(4.37273 0.01 -0.00124491)
(4.39091 0.01 -0.00128084)
(4.40909 0.01 -0.00131663)
(4.42727 0.01 -0.00135229)
(4.44545 0.01 -0.00138785)
(4.46364 0.01 -0.00142341)
(4.48182 0.01 -0.00145899)
(4.5 0.01 -0.00149455)
(4.51818 0.01 -0.00153011)
(4.53636 0.01 -0.00156566)
(4.55455 0.01 -0.00160121)
(4.57273 0.01 -0.00163676)
(4.59091 0.01 -0.0016723)
(4.60909 0.01 -0.00170784)
(4.62727 0.01 -0.00174338)
(4.64545 0.01 -0.00177891)
(4.66364 0.01 -0.00181444)
(4.68182 0.01 -0.00184996)
(4.7 0.01 -0.00188549)
(4.71818 0.01 -0.00192101)
(4.73636 0.01 -0.00195652)
(4.75455 0.01 -0.00199204)
(4.77273 0.01 -0.00202756)
(4.79091 0.01 -0.00206307)
(4.80909 0.01 -0.00209859)
(4.82727 0.01 -0.0021341)
(4.84545 0.01 -0.00216962)
(4.86364 0.01 -0.00220514)
(4.88182 0.01 -0.00224066)
(4.9 0.01 -0.00227618)
(4.91818 0.01 -0.00231171)
(4.93636 0.01 -0.00234724)
(4.95455 0.01 -0.00238278)
(4.97273 0.01 -0.00241832)
(4.99091 0.01 -0.00245387)
(5.00909 0.01 -0.00248942)
(5.02727 0.01 -0.00252498)
(5.04545 0.01 -0.00256055)
(5.06364 0.01 -0.00259612)
(5.08182 0.01 -0.0026317)
(5.1 0.01 -0.00266729)
(5.11818 0.01 -0.00270289)
(5.13636 0.01 -0.0027385)
(5.15455 0.01 -0.00277412)
(5.17273 0.01 -0.00280975)
(5.19091 0.01 -0.00284539)
(5.20909 0.01 -0.00288104)
(5.22727 0.01 -0.0029167)
(5.24545 0.01 -0.00295238)
(5.26364 0.01 -0.00298806)
(5.28182 0.01 -0.00302376)
(5.3 0.01 -0.00305947)
(5.31818 0.01 -0.0030952)
(5.33636 0.01 -0.00313094)
(5.35455 0.01 -0.0031667)
(5.37273 0.01 -0.00320248)
(5.39091 0.01 -0.00323828)
(5.40909 0.01 -0.00327409)
(5.42727 0.01 -0.00330993)
(5.44545 0.01 -0.00334579)
(5.46364 0.01 -0.00338166)
(5.48182 0.01 -0.00341756)
(5.5 0.01 -0.00345348)
(5.51818 0.01 -0.00348941)
(5.53636 0.01 -0.00352537)
(5.55455 0.01 -0.00356135)
(5.57273 0.01 -0.00359734)
(5.59091 0.01 -0.00363336)
(5.60909 0.01 -0.00366939)
(5.62727 0.01 -0.00370544)
(5.64545 0.01 -0.00374151)
(5.66364 0.01 -0.0037776)
(5.68182 0.01 -0.0038137)
(5.7 0.01 -0.00384982)
(5.71818 0.01 -0.00388595)
(5.73636 0.01 -0.0039221)
(5.75455 0.01 -0.00395827)
(5.77273 0.01 -0.00399445)
(5.79091 0.01 -0.00403065)
(5.80909 0.01 -0.00406686)
(5.82727 0.01 -0.00410308)
(5.84545 0.01 -0.00413931)
(5.86364 0.01 -0.00417556)
(5.88182 0.01 -0.00421182)
(5.9 0.01 -0.00424809)
(5.91818 0.01 -0.00428436)
(5.93636 0.01 -0.00432065)
(5.95455 0.01 -0.00435694)
(5.97273 0.01 -0.00439324)
(5.99091 0.01 -0.00442954)
(6.00909 0.01 -0.00446585)
(6.02727 0.01 -0.00450216)
(6.04545 0.01 -0.00453847)
(6.06364 0.01 -0.00457478)
(6.08182 0.01 -0.00461109)
(6.1 0.01 -0.0046474)
(6.11818 0.01 -0.00468371)
(6.13636 0.01 -0.00472001)
(6.15455 0.01 -0.0047563)
(6.17273 0.01 -0.00479259)
(6.19091 0.01 -0.00482887)
(6.20909 0.01 -0.00486514)
(6.22727 0.01 -0.00490141)
(6.24545 0.01 -0.00493766)
(6.26364 0.01 -0.00497389)
(6.28182 0.01 -0.00501012)
(6.3 0.01 -0.00504633)
(6.31818 0.01 -0.00508252)
(6.33636 0.01 -0.0051187)
(6.35455 0.01 -0.00515487)
(6.37273 0.01 -0.00519102)
(6.39091 0.01 -0.00522715)
(6.40909 0.01 -0.00526326)
(6.42727 0.01 -0.00529935)
(6.44545 0.01 -0.00533543)
(6.46364 0.01 -0.00537149)
(6.48182 0.01 -0.00540753)
(6.5 0.01 -0.00544355)
(6.51818 0.01 -0.00547955)
(6.53636 0.01 -0.00551553)
(6.55455 0.01 -0.00555149)
(6.57273 0.01 -0.00558744)
(6.59091 0.01 -0.00562337)
(6.60909 0.01 -0.00565928)
(6.62727 0.01 -0.00569517)
(6.64545 0.01 -0.00573104)
(6.66364 0.01 -0.00576689)
(6.68182 0.01 -0.00580273)
(6.7 0.01 -0.00583856)
(6.71818 0.01 -0.00587436)
(6.73636 0.01 -0.00591015)
(6.75455 0.01 -0.00594592)
(6.77273 0.01 -0.00598168)
(6.79091 0.01 -0.00601743)
(6.80909 0.01 -0.00605316)
(6.82727 0.01 -0.00608887)
(6.84545 0.01 -0.00612458)
(6.86364 0.01 -0.00616027)
(6.88182 0.01 -0.00619595)
(6.9 0.01 -0.00623162)
(6.91818 0.01 -0.00626728)
(6.93636 0.01 -0.00630293)
(6.95455 0.01 -0.00633857)
(6.97273 0.01 -0.0063742)
(6.99091 0.01 -0.00640982)
(7.00909 0.01 -0.00644544)
(7.02727 0.01 -0.00648105)
(7.04545 0.01 -0.00651665)
(7.06364 0.01 -0.00655225)
(7.08182 0.01 -0.00658784)
(7.1 0.01 -0.00662343)
(7.11818 0.01 -0.00665901)
(7.13636 0.01 -0.00669459)
(7.15455 0.01 -0.00673017)
(7.17273 0.01 -0.00676574)
(7.19091 0.01 -0.00680131)
(7.20909 0.01 -0.00683688)
(7.22727 0.01 -0.00687244)
(7.24545 0.01 -0.00690801)
(7.26364 0.01 -0.00694357)
(7.28182 0.01 -0.00697914)
(7.3 0.01 -0.0070147)
(7.31818 0.01 -0.00705026)
(7.33636 0.01 -0.00708583)
(7.35455 0.01 -0.00712139)
(7.37273 0.01 -0.00715696)
(7.39091 0.01 -0.00719253)
(7.40909 0.01 -0.0072281)
(7.42727 0.01 -0.00726368)
(7.44545 0.01 -0.00729926)
(7.46364 0.01 -0.00733484)
(7.48182 0.01 -0.00737043)
(7.5 0.01 -0.00740602)
(7.51818 0.01 -0.00744162)
(7.53636 0.01 -0.00747722)
(7.55455 0.01 -0.00751283)
(7.57273 0.01 -0.00754844)
(7.59091 0.01 -0.00758406)
(7.60909 0.01 -0.00761968)
(7.62727 0.01 -0.00765532)
(7.64545 0.01 -0.00769095)
(7.66364 0.01 -0.0077266)
(7.68182 0.01 -0.00776225)
(7.7 0.01 -0.00779792)
(7.71818 0.01 -0.00783359)
(7.73636 0.01 -0.00786926)
(7.75455 0.01 -0.00790495)
(7.77273 0.01 -0.00794065)
(7.79091 0.01 -0.00797635)
(7.80909 0.01 -0.00801207)
(7.82727 0.01 -0.00804779)
(7.84545 0.01 -0.00808352)
(7.86364 0.01 -0.00811927)
(7.88182 0.01 -0.00815503)
(7.9 0.01 -0.00819079)
(7.91818 0.01 -0.00822657)
(7.93636 0.01 -0.00826237)
(7.95455 0.01 -0.00829817)
(7.97273 0.01 -0.00833399)
(7.99091 0.01 -0.00836983)
(8.00909 0.01 -0.00840568)
(8.02727 0.01 -0.00844155)
(8.04545 0.01 -0.00847744)
(8.06364 0.01 -0.00851334)
(8.08182 0.01 -0.00854925)
(8.1 0.01 -0.00858518)
(8.11818 0.01 -0.00862113)
(8.13636 0.01 -0.00865709)
(8.15455 0.01 -0.00869307)
(8.17273 0.01 -0.00872906)
(8.19091 0.01 -0.00876506)
(8.20909 0.01 -0.00880108)
(8.22727 0.01 -0.0088371)
(8.24545 0.01 -0.00887315)
(8.26364 0.01 -0.0089092)
(8.28182 0.01 -0.00894527)
(8.3 0.01 -0.00898135)
(8.31818 0.01 -0.00901744)
(8.33636 0.01 -0.00905354)
(8.35455 0.01 -0.00908965)
(8.37273 0.01 -0.00912578)
(8.39091 0.01 -0.00916192)
(8.40909 0.01 -0.00919806)
(8.42727 0.01 -0.00923422)
(8.44545 0.01 -0.00927039)
(8.46364 0.01 -0.00930656)
(8.48182 0.01 -0.00934275)
(8.5 0.01 -0.00937894)
(8.51818 0.01 -0.00941514)
(8.53636 0.01 -0.00945135)
(8.55455 0.01 -0.00948756)
(8.57273 0.01 -0.00952378)
(8.59091 0.01 -0.00956001)
(8.60909 0.01 -0.00959624)
(8.62727 0.01 -0.00963247)
(8.64545 0.01 -0.00966871)
(8.66364 0.01 -0.00970495)
(8.68182 0.01 -0.0097412)
(8.7 0.01 -0.00977744)
(8.71818 0.01 -0.00981369)
(8.73636 0.01 -0.00984993)
(8.75455 0.01 -0.00988618)
(8.77273 0.01 -0.00992243)
(8.79091 0.01 -0.00995867)
(8.80909 0.01 -0.00999491)
(8.82727 0.01 -0.0100312)
(8.84545 0.01 -0.0100674)
(8.86364 0.01 -0.0101036)
(8.88182 0.01 -0.0101398)
(8.9 0.01 -0.0101761)
(8.91818 0.01 -0.0102123)
(8.93636 0.01 -0.0102485)
(8.95455 0.01 -0.0102847)
(8.97273 0.01 -0.0103209)
(8.99091 0.01 -0.0103571)
(9.00909 0.01 -0.0103933)
(9.02727 0.01 -0.0104294)
(9.04545 0.01 -0.0104656)
(9.06364 0.01 -0.0105018)
(9.08182 0.01 -0.0105379)
(9.1 0.01 -0.010574)
(9.11818 0.01 -0.0106102)
(9.13636 0.01 -0.0106463)
(9.15455 0.01 -0.0106824)
(9.17273 0.01 -0.0107185)
(9.19091 0.01 -0.0107546)
(9.20909 0.01 -0.0107907)
(9.22727 0.01 -0.0108268)
(9.24545 0.01 -0.0108628)
(9.26364 0.01 -0.0108989)
(9.28182 0.01 -0.010935)
(9.3 0.01 -0.010971)
(9.31818 0.01 -0.011007)
(9.33636 0.01 -0.0110431)
(9.35455 0.01 -0.0110791)
(9.37273 0.01 -0.0111151)
(9.39091 0.01 -0.0111511)
(9.40909 0.01 -0.0111871)
(9.42727 0.01 -0.0112231)
(9.44545 0.01 -0.011259)
(9.46364 0.01 -0.011295)
(9.48182 0.01 -0.0113309)
(9.5 0.01 -0.0113668)
(9.51818 0.01 -0.0114026)
(9.53636 0.01 -0.0114384)
(9.55455 0.01 -0.0114741)
(9.57273 0.01 -0.0115097)
(9.59091 0.01 -0.011545)
(9.60909 0.01 -0.0115801)
(9.62727 0.01 -0.0116148)
(9.64545 0.01 -0.0116489)
(9.66364 0.01 -0.0116821)
(9.68182 0.01 -0.0117142)
(9.7 0.01 -0.0117446)
(9.71818 0.01 -0.0117726)
(9.73636 0.01 -0.0117974)
(9.75455 0.01 -0.011819)
(9.77272 0.01 -0.0118404)
(9.79091 0.01 -0.0119151)
(9.80909 0.01 -0.0120507)
(9.82727 0.01 -0.0121475)
(9.84545 0.01 -0.0121905)
(9.86364 0.01 -0.0122271)
(9.88182 0.01 -0.0122636)
(9.9 0.01 -0.0123)
(9.91818 0.01 -0.0123364)
(9.93636 0.01 -0.0123727)
(9.95455 0.01 -0.0124091)
(9.97273 0.01 -0.0124455)
(9.99091 0.01 -0.0124818)
(0.00909091 0.01 0.0124818)
(0.0272727 0.01 0.0124455)
(0.0454545 0.01 0.0124091)
(0.0636364 0.01 0.0123727)
(0.0818182 0.01 0.0123364)
(0.1 0.01 0.0123)
(0.118182 0.01 0.0122636)
(0.136364 0.01 0.0122273)
(0.154545 0.01 0.0121909)
(0.172727 0.01 0.0121545)
(0.190909 0.01 0.0121182)
(0.209091 0.01 0.0120818)
(0.227273 0.01 0.0120455)
(0.245455 0.01 0.0120091)
(0.263636 0.01 0.0119727)