/*--------------------------------*- C++ -*----------------------------------*\
| =========                 |                                                 |
| \\      /  F ield         | foam-extend: Open Source CFD                    |
|  \\    /   O peration     | Version:     3.2                                |
|   \\  /    A nd           | Web:         http://www.foam-extend.org         |
|    \\/     M anipulation  | For copyright notice see file Copyright         |
\*---------------------------------------------------------------------------*/
FoamFile
{
    version     2.0;
    format      ascii;
    class       volVectorField;
    location    "120";
    object      meshCentreN;
}
// * * * * * * * * * * * * * * * * * * * * * * * * * * * * * * * * * * * * * //

dimensions      [0 1 0 0 0 0 0];

internalField   nonuniform List<vector> 
33000
(
(0.00909091 0.01 0.00248182)
(0.0272727 0.01 0.00244545)
(0.0454545 0.01 0.00240909)
(0.0636364 0.01 0.00237273)
(0.0818182 0.01 0.00233636)
(0.1 0.01 0.0023)
(0.118182 0.01 0.00226364)
(0.136364 0.01 0.00222727)
(0.154545 0.01 0.00219091)
(0.172727 0.01 0.00215455)
(0.190909 0.01 0.00211818)
(0.209091 0.01 0.00208182)
(0.227273 0.01 0.00204545)
(0.245455 0.01 0.00200909)
(0.263636 0.01 0.00197273)
(0.281818 0.01 0.00193636)
(0.3 0.01 0.0019)
(0.318182 0.01 0.00186364)
(0.336364 0.01 0.00182727)
(0.354545 0.01 0.00179091)
(0.372727 0.01 0.00175455)
(0.390909 0.01 0.00171818)
(0.409091 0.01 0.00168182)
(0.427273 0.01 0.00164545)
(0.445455 0.01 0.00160909)
(0.463636 0.01 0.00157273)
(0.481818 0.01 0.00153636)
(0.5 0.01 0.0015)
(0.518182 0.01 0.00146364)
(0.536364 0.01 0.00142727)
(0.554545 0.01 0.00139091)
(0.572727 0.01 0.00135455)
(0.590909 0.01 0.00131818)
(0.609091 0.01 0.00128182)
(0.627273 0.01 0.00124545)
(0.645455 0.01 0.00120909)
(0.663636 0.01 0.00117273)
(0.681818 0.01 0.00113636)
(0.7 0.01 0.0011)
(0.718182 0.01 0.00106364)
(0.736364 0.01 0.00102727)
(0.754545 0.01 0.000990909)
(0.772727 0.01 0.000954545)
(0.790909 0.01 0.000918182)
(0.809091 0.01 0.000881818)
(0.827273 0.01 0.000845455)
(0.845455 0.01 0.000809091)
(0.863636 0.01 0.000772727)
(0.881818 0.01 0.000736364)
(0.9 0.01 0.0007)
(0.918182 0.01 0.000663636)
(0.936364 0.01 0.000627273)
(0.954545 0.01 0.000590909)
(0.972727 0.01 0.000554545)
(0.990909 0.01 0.000518182)
(1.00909 0.01 0.000481818)
(1.02727 0.01 0.000445455)
(1.04545 0.01 0.000409091)
(1.06364 0.01 0.000372727)
(1.08182 0.01 0.000336364)
(1.1 0.01 0.0003)
(1.11818 0.01 0.000263636)
(1.13636 0.01 0.000227273)
(1.15455 0.01 0.000190909)
(1.17273 0.01 0.000154545)
(1.19091 0.01 0.000118182)
(1.20909 0.01 8.18182e-05)
(1.22727 0.01 4.54545e-05)
(1.24545 0.01 9.09091e-06)
(1.26364 0.01 -2.72727e-05)
(1.28182 0.01 -6.36364e-05)
(1.3 0.01 -0.0001)
(1.31818 0.01 -0.000136364)
(1.33636 0.01 -0.000172727)
(1.35455 0.01 -0.000209091)
(1.37273 0.01 -0.000245455)
(1.39091 0.01 -0.000281818)
(1.40909 0.01 -0.000318182)
(1.42727 0.01 -0.000354545)
(1.44545 0.01 -0.000390909)
(1.46364 0.01 -0.000427273)
(1.48182 0.01 -0.000463636)
(1.5 0.01 -0.0005)
(1.51818 0.01 -0.000536364)
(1.53636 0.01 -0.000572727)
(1.55455 0.01 -0.000609091)
(1.57273 0.01 -0.000645455)
(1.59091 0.01 -0.000681818)
(1.60909 0.01 -0.000718182)
(1.62727 0.01 -0.000754545)
(1.64545 0.01 -0.000790909)
(1.66364 0.01 -0.000827273)
(1.68182 0.01 -0.000863636)
(1.7 0.01 -0.0009)
(1.71818 0.01 -0.000936364)
(1.73636 0.01 -0.000972727)
(1.75455 0.01 -0.00100909)
(1.77273 0.01 -0.00104545)
(1.79091 0.01 -0.00108182)
(1.80909 0.01 -0.00111818)
(1.82727 0.01 -0.00115455)
(1.84545 0.01 -0.00119091)
(1.86364 0.01 -0.00122727)
(1.88182 0.01 -0.00126364)
(1.9 0.01 -0.0013)
(1.91818 0.01 -0.00133636)
(1.93636 0.01 -0.00137273)
(1.95455 0.01 -0.00140909)
(1.97273 0.01 -0.00144545)
(1.99091 0.01 -0.00148182)
(2.00909 0.01 -0.00151818)
(2.02727 0.01 -0.00155455)
(2.04545 0.01 -0.00159091)
(2.06364 0.01 -0.00162727)
(2.08182 0.01 -0.00166364)
(2.1 0.01 -0.0017)
(2.11818 0.01 -0.00173636)
(2.13636 0.01 -0.00177273)
(2.15455 0.01 -0.00180909)
(2.17273 0.01 -0.00184545)
(2.19091 0.01 -0.00188182)
(2.20909 0.01 -0.00191818)
(2.22727 0.01 -0.00195455)
(2.24545 0.01 -0.00199091)
(2.26364 0.01 -0.00202727)
(2.28182 0.01 -0.00206364)
(2.3 0.01 -0.0021)
(2.31818 0.01 -0.00213637)
(2.33636 0.01 -0.00217278)
(2.35455 0.01 -0.00220905)
(2.37273 0.01 -0.00224419)
(2.39091 0.01 -0.00227746)
(2.40909 0.01 -0.00230976)
(2.42727 0.01 -0.00234189)
(2.44545 0.01 -0.00237396)
(2.46364 0.01 -0.00240602)
(2.48182 0.01 -0.00243812)
(2.5 0.01 -0.00247027)
(2.51818 0.01 -0.00250246)
(2.53636 0.01 -0.0025347)
(2.55455 0.01 -0.002567)
(2.57273 0.01 -0.00259936)
(2.59091 0.01 -0.00263177)
(2.60909 0.01 -0.00266425)
(2.62727 0.01 -0.00269678)
(2.64545 0.01 -0.00272937)
(2.66364 0.01 -0.00276202)
(2.68182 0.01 -0.00279472)
(2.7 0.01 -0.00282748)
(2.71818 0.01 -0.0028603)
(2.73636 0.01 -0.00289318)
(2.75455 0.01 -0.00292613)
(2.77273 0.01 -0.00295914)
(2.79091 0.01 -0.00299221)
(2.80909 0.01 -0.00302536)
(2.82727 0.01 -0.00305857)
(2.84545 0.01 -0.00309185)
(2.86364 0.01 -0.0031252)
(2.88182 0.01 -0.00315861)
(2.9 0.01 -0.00319209)
(2.91818 0.01 -0.00322563)
(2.93636 0.01 -0.00325925)
(2.95455 0.01 -0.00329293)
(2.97273 0.01 -0.00332668)
(2.99091 0.01 -0.00336049)
(3.00909 0.01 -0.00339437)
(3.02727 0.01 -0.00342832)
(3.04545 0.01 -0.00346233)
(3.06364 0.01 -0.00349641)
(3.08182 0.01 -0.00353054)
(3.1 0.01 -0.00356475)
(3.11818 0.01 -0.00359901)
(3.13636 0.01 -0.00363333)
(3.15455 0.01 -0.00366771)
(3.17273 0.01 -0.00370216)
(3.19091 0.01 -0.00373666)
(3.20909 0.01 -0.00377122)
(3.22727 0.01 -0.00380584)
(3.24545 0.01 -0.00384052)
(3.26364 0.01 -0.00387526)
(3.28182 0.01 -0.00391005)
(3.3 0.01 -0.00394491)
(3.31818 0.01 -0.00397981)
(3.33636 0.01 -0.00401477)
(3.35455 0.01 -0.00404979)
(3.37273 0.01 -0.00408486)
(3.39091 0.01 -0.00411998)
(3.40909 0.01 -0.00415515)
(3.42727 0.01 -0.00419038)
(3.44545 0.01 -0.00422565)
(3.46364 0.01 -0.00426096)
(3.48182 0.01 -0.00429632)
(3.5 0.01 -0.00433173)
(3.51818 0.01 -0.00436718)
(3.53636 0.01 -0.00440267)
(3.55455 0.01 -0.00443819)
(3.57273 0.01 -0.00447376)
(3.59091 0.01 -0.00450936)
(3.60909 0.01 -0.004545)
(3.62727 0.01 -0.00458067)
(3.64545 0.01 -0.00461637)
(3.66364 0.01 -0.00465209)
(3.68182 0.01 -0.00468785)
(3.7 0.01 -0.00472362)
(3.71818 0.01 -0.00475941)
(3.73636 0.01 -0.00479523)
(3.75455 0.01 -0.00483106)
(3.77273 0.01 -0.00486692)
(3.79091 0.01 -0.0049028)
(3.80909 0.01 -0.0049387)
(3.82727 0.01 -0.00497461)
(3.84545 0.01 -0.00501054)
(3.86364 0.01 -0.00504648)
(3.88182 0.01 -0.00508242)
(3.9 0.01 -0.00511837)
(3.91818 0.01 -0.00515434)
(3.93636 0.01 -0.00519031)
(3.95455 0.01 -0.00522628)
(3.97273 0.01 -0.00526226)
(3.99091 0.01 -0.00529824)
(4.00909 0.01 -0.00533422)
(4.02727 0.01 -0.00537021)
(4.04545 0.01 -0.00540619)
(4.06364 0.01 -0.00544215)
(4.08182 0.01 -0.00547808)
(4.1 0.01 -0.00551397)
(4.11818 0.01 -0.00554982)
(4.13636 0.01 -0.00558563)
(4.15455 0.01 -0.00562142)
(4.17273 0.01 -0.00565719)
(4.19091 0.01 -0.00569295)
(4.20909 0.01 -0.0057287)
(4.22727 0.01 -0.00576445)
(4.24545 0.01 -0.0058002)
(4.26364 0.01 -0.00583594)
(4.28182 0.01 -0.00587169)
(4.3 0.01 -0.00590743)
(4.31818 0.01 -0.00594318)
(4.33636 0.01 -0.00597893)
(4.35455 0.01 -0.00601468)
(4.37273 0.01 -0.00605043)
(4.39091 0.01 -0.00608619)
(4.40909 0.01 -0.00612195)
(4.42727 0.01 -0.00615771)
(4.44545 0.01 -0.00619348)
(4.46364 0.01 -0.00622925)
(4.48182 0.01 -0.00626503)
(4.5 0.01 -0.00630081)
(4.51818 0.01 -0.0063366)
(4.53636 0.01 -0.0063724)
(4.55455 0.01 -0.0064082)
(4.57273 0.01 -0.00644401)
(4.59091 0.01 -0.00647984)
(4.60909 0.01 -0.00651567)
(4.62727 0.01 -0.00655151)
(4.64545 0.01 -0.00658736)
(4.66364 0.01 -0.00662322)
(4.68182 0.01 -0.00665909)
(4.7 0.01 -0.00669498)
(4.71818 0.01 -0.00673087)
(4.73636 0.01 -0.00676677)
(4.75455 0.01 -0.00680269)
(4.77273 0.01 -0.00683861)
(4.79091 0.01 -0.00687455)
(4.80909 0.01 -0.0069105)
(4.82727 0.01 -0.00694646)
(4.84545 0.01 -0.00698243)
(4.86364 0.01 -0.00701841)
(4.88182 0.01 -0.0070544)
(4.9 0.01 -0.0070904)
(4.91818 0.01 -0.00712642)
(4.93636 0.01 -0.00716244)
(4.95455 0.01 -0.00719848)
(4.97273 0.01 -0.00723453)
(4.99091 0.01 -0.0072706)
(5.00909 0.01 -0.00730668)
(5.02727 0.01 -0.00734278)
(5.04545 0.01 -0.0073789)
(5.06364 0.01 -0.00741504)
(5.08182 0.01 -0.0074512)
(5.1 0.01 -0.00748738)
(5.11818 0.01 -0.00752357)
(5.13636 0.01 -0.00755979)
(5.15455 0.01 -0.00759602)
(5.17273 0.01 -0.00763227)
(5.19091 0.01 -0.00766854)
(5.20909 0.01 -0.00770483)
(5.22727 0.01 -0.00774113)
(5.24545 0.01 -0.00777746)
(5.26364 0.01 -0.00781381)
(5.28182 0.01 -0.00785017)
(5.3 0.01 -0.00788656)
(5.31818 0.01 -0.00792296)
(5.33636 0.01 -0.00795938)
(5.35455 0.01 -0.00799581)
(5.37273 0.01 -0.00803225)
(5.39091 0.01 -0.00806872)
(5.40909 0.01 -0.00810519)
(5.42727 0.01 -0.00814165)
(5.44545 0.01 -0.00817812)
(5.46364 0.01 -0.00821458)
(5.48182 0.01 -0.00825103)
(5.5 0.01 -0.00828744)
(5.51818 0.01 -0.00832383)
(5.53636 0.01 -0.0083602)
(5.55455 0.01 -0.00839659)
(5.57273 0.01 -0.008433)
(5.59091 0.01 -0.00846942)
(5.60909 0.01 -0.00850585)
(5.62727 0.01 -0.00854228)
(5.64545 0.01 -0.00857869)
(5.66364 0.01 -0.00861508)
(5.68182 0.01 -0.00865144)
(5.7 0.01 -0.00868777)
(5.71818 0.01 -0.00872409)
(5.73636 0.01 -0.00876043)
(5.75455 0.01 -0.00879677)
(5.77273 0.01 -0.00883314)
(5.79091 0.01 -0.00886952)
(5.80909 0.01 -0.00890591)
(5.82727 0.01 -0.00894232)
(5.84545 0.01 -0.00897874)
(5.86364 0.01 -0.00901517)
(5.88182 0.01 -0.00905161)
(5.9 0.01 -0.00908806)
(5.91818 0.01 -0.00912452)
(5.93636 0.01 -0.00916098)
(5.95455 0.01 -0.00919745)
(5.97273 0.01 -0.00923392)
(5.99091 0.01 -0.0092704)
(6.00909 0.01 -0.00930688)
(6.02727 0.01 -0.00934336)
(6.04545 0.01 -0.00937984)
(6.06364 0.01 -0.00941632)
(6.08182 0.01 -0.0094528)
(6.1 0.01 -0.00948926)
(6.11818 0.01 -0.00952571)
(6.13636 0.01 -0.00956213)
(6.15455 0.01 -0.00959853)
(6.17273 0.01 -0.00963488)
(6.19091 0.01 -0.00967119)
(6.20909 0.01 -0.00970744)
(6.22727 0.01 -0.00974365)
(6.24545 0.01 -0.00977983)
(6.26364 0.01 -0.00981599)
(6.28182 0.01 -0.00985213)
(6.3 0.01 -0.00988822)
(6.31818 0.01 -0.00992424)
(6.33636 0.01 -0.00996022)
(6.35455 0.01 -0.00999615)
(6.37273 0.01 -0.010032)
(6.39091 0.01 -0.0100679)
(6.40909 0.01 -0.0101038)
(6.42727 0.01 -0.0101396)
(6.44545 0.01 -0.0101755)
(6.46364 0.01 -0.0102113)
(6.48182 0.01 -0.0102471)
(6.5 0.01 -0.0102829)
(6.51818 0.01 -0.0103188)
(6.53636 0.01 -0.0103546)
(6.55455 0.01 -0.0103904)
(6.57273 0.01 -0.0104261)
(6.59091 0.01 -0.0104619)
(6.60909 0.01 -0.0104977)
(6.62727 0.01 -0.0105335)
(6.64545 0.01 -0.0105692)
(6.66364 0.01 -0.010605)
(6.68182 0.01 -0.0106407)
(6.7 0.01 -0.0106765)
(6.71818 0.01 -0.0107122)
(6.73636 0.01 -0.010748)
(6.75455 0.01 -0.0107837)
(6.77273 0.01 -0.0108195)
(6.79091 0.01 -0.0108553)
(6.80909 0.01 -0.010891)
(6.82727 0.01 -0.0109268)
(6.84545 0.01 -0.0109626)
(6.86364 0.01 -0.0109984)
(6.88182 0.01 -0.0110342)
(6.9 0.01 -0.0110699)
(6.91818 0.01 -0.0111058)
(6.93636 0.01 -0.0111416)
(6.95455 0.01 -0.0111774)
(6.97273 0.01 -0.0112132)
(6.99091 0.01 -0.0112491)
(7.00909 0.01 -0.0112849)
(7.02727 0.01 -0.0113208)
(7.04545 0.01 -0.0113567)
(7.06364 0.01 -0.0113926)
(7.08182 0.01 -0.0114285)
(7.1 0.01 -0.0114644)
(7.11818 0.01 -0.0115004)
(7.13636 0.01 -0.0115363)
(7.15455 0.01 -0.0115723)
(7.17273 0.01 -0.0116083)
(7.19091 0.01 -0.0116443)
(7.20909 0.01 -0.0116803)
(7.22727 0.01 -0.0117162)
(7.24545 0.01 -0.0117523)
(7.26364 0.01 -0.0117883)
(7.28182 0.01 -0.0118243)
(7.3 0.01 -0.0118603)
(7.31818 0.01 -0.0118963)
(7.33636 0.01 -0.0119324)
(7.35455 0.01 -0.0119684)
(7.37273 0.01 -0.0120045)
(7.39091 0.01 -0.0120405)
(7.40909 0.01 -0.0120766)
(7.42727 0.01 -0.0121127)
(7.44545 0.01 -0.0121487)
(7.46364 0.01 -0.0121848)
(7.48182 0.01 -0.0122209)
(7.5 0.01 -0.012257)
(7.51818 0.01 -0.0122931)
(7.53636 0.01 -0.0123292)
(7.55455 0.01 -0.0123653)
(7.57273 0.01 -0.0124014)
(7.59091 0.01 -0.0124376)
(7.60909 0.01 -0.0124737)
(7.62727 0.01 -0.0125099)
(7.64545 0.01 -0.012546)
(7.66364 0.01 -0.0125822)
(7.68182 0.01 -0.0126184)
(7.7 0.01 -0.0126545)
(7.71818 0.01 -0.0126907)
(7.73636 0.01 -0.0127269)
(7.75455 0.01 -0.0127631)
(7.77273 0.01 -0.0127993)
(7.79091 0.01 -0.0128355)
(7.80909 0.01 -0.0128717)
(7.82727 0.01 -0.0129079)
(7.84545 0.01 -0.0129441)
(7.86364 0.01 -0.0129803)
(7.88182 0.01 -0.0130165)
(7.9 0.01 -0.0130527)
(7.91818 0.01 -0.0130889)
(7.93636 0.01 -0.0131251)
(7.95455 0.01 -0.0131613)
(7.97273 0.01 -0.0131975)
(7.99091 0.01 -0.0132337)
(8.00909 0.01 -0.0132699)
(8.02727 0.01 -0.0133061)
(8.04545 0.01 -0.0133423)
(8.06364 0.01 -0.0133785)
(8.08182 0.01 -0.0134147)
(8.1 0.01 -0.0134509)
(8.11818 0.01 -0.0134872)
(8.13636 0.01 -0.0135234)
(8.15455 0.01 -0.0135596)
(8.17273 0.01 -0.0135958)
(8.19091 0.01 -0.013632)
(8.20909 0.01 -0.0136682)
(8.22727 0.01 -0.0137044)
(8.24545 0.01 -0.0137407)
(8.26364 0.01 -0.0137769)
(8.28182 0.01 -0.0138131)
(8.3 0.01 -0.0138493)
(8.31818 0.01 -0.0138856)
(8.33636 0.01 -0.0139218)
(8.35455 0.01 -0.0139581)
(8.37273 0.01 -0.0139943)
(8.39091 0.01 -0.0140306)
(8.40909 0.01 -0.0140669)
(8.42727 0.01 -0.0141032)
(8.44545 0.01 -0.0141395)
(8.46364 0.01 -0.0141758)
(8.48182 0.01 -0.0142121)
(8.5 0.01 -0.0142484)
(8.51818 0.01 -0.0142847)
(8.53636 0.01 -0.014321)
(8.55455 0.01 -0.0143573)
(8.57273 0.01 -0.0143936)
(8.59091 0.01 -0.0144299)
(8.60909 0.01 -0.0144661)
(8.62727 0.01 -0.0145024)
(8.64545 0.01 -0.0145386)
(8.66364 0.01 -0.0145749)
(8.68182 0.01 -0.0146111)
(8.7 0.01 -0.0146474)
(8.71818 0.01 -0.0146836)
(8.73636 0.01 -0.0147198)
(8.75455 0.01 -0.014756)
(8.77273 0.01 -0.0147921)
(8.79091 0.01 -0.0148283)
(8.80909 0.01 -0.0148643)
(8.82727 0.01 -0.0149004)
(8.84545 0.01 -0.0149365)
(8.86364 0.01 -0.0149725)
(8.88182 0.01 -0.0150086)
(8.9 0.01 -0.0150447)
(8.91818 0.01 -0.0150808)
(8.93636 0.01 -0.0151169)
(8.95455 0.01 -0.015153)
(8.97273 0.01 -0.0151891)
(8.99091 0.01 -0.0152252)
(9.00909 0.01 -0.0152612)
(9.02727 0.01 -0.0152973)
(9.04545 0.01 -0.0153333)
(9.06364 0.01 -0.0153693)
(9.08182 0.01 -0.0154053)
(9.1 0.01 -0.0154413)
(9.11818 0.01 -0.0154773)
(9.13636 0.01 -0.0155133)
(9.15455 0.01 -0.0155493)
(9.17273 0.01 -0.0155853)
(9.19091 0.01 -0.0156213)
(9.20909 0.01 -0.0156573)
(9.22727 0.01 -0.0156932)
(9.24545 0.01 -0.0157292)
(9.26364 0.01 -0.0157652)
(9.28182 0.01 -0.0158013)
(9.3 0.01 -0.0158373)
(9.31818 0.01 -0.0158733)
(9.33636 0.01 -0.0159093)
(9.35455 0.01 -0.0159453)
(9.37273 0.01 -0.0159814)
(9.39091 0.01 -0.0160174)
(9.40909 0.01 -0.0160534)
(9.42727 0.01 -0.0160895)
(9.44545 0.01 -0.0161255)
(9.46364 0.01 -0.0161615)
(9.48182 0.01 -0.0161975)
(9.5 0.01 -0.0162335)
(9.51818 0.01 -0.0162694)
(9.53636 0.01 -0.0163053)
(9.55455 0.01 -0.0163411)
(9.57273 0.01 -0.0163768)
(9.59091 0.01 -0.0164123)
(9.60909 0.01 -0.0164476)
(9.62727 0.01 -0.0164825)
(9.64545 0.01 -0.0165169)
(9.66364 0.01 -0.0165505)
(9.68182 0.01 -0.016583)
(9.7 0.01 -0.0166139)
(9.71818 0.01 -0.0166425)
(9.73636 0.01 -0.0166679)
(9.75455 0.01 -0.0166917)
(9.77272 0.01 -0.0167143)
(9.79091 0.01 -0.0168222)
(9.80909 0.01 -0.0170248)
(9.82727 0.01 -0.0171515)
(9.84545 0.01 -0.0171909)
(9.86364 0.01 -0.0172273)
(9.88182 0.01 -0.0172636)
(9.9 0.01 -0.0173)
(9.91818 0.01 -0.0173364)
(9.93636 0.01 -0.0173727)
(9.95455 0.01 -0.0174091)
(9.97273 0.01 -0.0174455)
(9.99091 0.01 -0.0174818)
(0.00909091 0.01 0.00748182)
(0.0272727 0.01 0.00744545)
(0.0454545 0.01 0.00740909)
(0.0636364 0.01 0.00737273)
(0.0818182 0.01 0.00733636)
(0.1 0.01 0.0073)
(0.118182 0.01 0.00726364)
(0.136364 0.01 0.00722727)
(0.154545 0.01 0.00719091)
(0.172727 0.01 0.00715455)
(0.190909 0.01 0.00711818)
(0.209091 0.01 0.00708182)
(0.227273 0.01 0.00704545)
(0.245455 0.01 0.00700909)
(0.263636 0.01 0.00697273)
(0.281818 0.01 0.00693636)
(0.3 0.01 0.0069)
(0.318182 0.01 0.00686364)
(0.336364 0.01 0.00682727)
(0.354545 0.01 0.00679091)
(0.372727 0.01 0.00675455)
(0.390909 0.01 0.00671818)
(0.409091 0.01 0.00668182)
(0.427273 0.01 0.00664545)
(0.445455 0.01 0.00660909)
(0.463636 0.01 0.00657273)
(0.481818 0.01 0.00653636)
(0.5 0.01 0.0065)
(0.518182 0.01 0.00646364)
(0.536364 0.01 0.00642727)
(0.554545 0.01 0.00639091)
(0.572727 0.01 0.00635455)
(0.590909 0.01 0.00631818)
(0.609091 0.01 0.00628182)
(0.627273 0.01 0.00624545)
(0.645455 0.01 0.00620909)
(0.663636 0.01 0.00617273)
(0.681818 0.01 0.00613636)
(0.7 0.01 0.0061)
(0.718182 0.01 0.00606364)
(0.736364 0.01 0.00602727)
(0.754545 0.01 0.00599091)
(0.772727 0.01 0.00595455)
(0.790909 0.01 0.00591818)
(0.809091 0.01 0.00588182)
(0.827273 0.01 0.00584545)
(0.845455 0.01 0.00580909)
(0.863636 0.01 0.00577273)
(0.881818 0.01 0.00573636)
(0.9 0.01 0.0057)
(0.918182 0.01 0.00566364)
(0.936364 0.01 0.00562727)
(0.954545 0.01 0.00559091)
(0.972727 0.01 0.00555455)
(0.990909 0.01 0.00551818)
(1.00909 0.01 0.00548182)
(1.02727 0.01 0.00544545)
(1.04545 0.01 0.00540909)
(1.06364 0.01 0.00537273)
(1.08182 0.01 0.00533636)
(1.1 0.01 0.0053)
(1.11818 0.01 0.00526364)
(1.13636 0.01 0.00522727)
(1.15455 0.01 0.00519091)
(1.17273 0.01 0.00515455)
(1.19091 0.01 0.00511818)
(1.20909 0.01 0.00508182)
(1.22727 0.01 0.00504545)
(1.24545 0.01 0.00500909)
(1.26364 0.01 0.00497273)
(1.28182 0.01 0.00493636)
(1.3 0.01 0.0049)
(1.31818 0.01 0.00486364)
(1.33636 0.01 0.00482727)
(1.35455 0.01 0.00479091)
(1.37273 0.01 0.00475455)
(1.39091 0.01 0.00471818)
(1.40909 0.01 0.00468182)
(1.42727 0.01 0.00464545)
(1.44545 0.01 0.00460909)
(1.46364 0.01 0.00457273)
(1.48182 0.01 0.00453636)
(1.5 0.01 0.0045)
(1.51818 0.01 0.00446364)
(1.53636 0.01 0.00442727)
(1.55455 0.01 0.00439091)
(1.57273 0.01 0.00435455)
(1.59091 0.01 0.00431818)
(1.60909 0.01 0.00428182)
(1.62727 0.01 0.00424545)
(1.64545 0.01 0.00420909)
(1.66364 0.01 0.00417273)
(1.68182 0.01 0.00413636)
(1.7 0.01 0.0041)
(1.71818 0.01 0.00406364)
(1.73636 0.01 0.00402727)
(1.75455 0.01 0.00399091)
(1.77273 0.01 0.00395455)
(1.79091 0.01 0.00391818)
(1.80909 0.01 0.00388182)
(1.82727 0.01 0.00384545)
(1.84545 0.01 0.00380909)
(1.86364 0.01 0.00377273)
(1.88182 0.01 0.00373636)
(1.9 0.01 0.0037)
(1.91818 0.01 0.00366364)
(1.93636 0.01 0.00362727)
(1.95455 0.01 0.00359091)
(1.97273 0.01 0.00355455)
(1.99091 0.01 0.00351818)
(2.00909 0.01 0.00348182)
(2.02727 0.01 0.00344545)
(2.04545 0.01 0.00340909)
(2.06364 0.01 0.00337273)
(2.08182 0.01 0.00333636)
(2.1 0.01 0.0033)
(2.11818 0.01 0.00326364)
(2.13636 0.01 0.00322727)
(2.15455 0.01 0.00319091)
(2.17273 0.01 0.00315455)
(2.19091 0.01 0.00311818)
(2.20909 0.01 0.00308182)
(2.22727 0.01 0.00304545)
(2.24545 0.01 0.00300909)
(2.26364 0.01 0.00297273)
(2.28182 0.01 0.00293636)
(2.3 0.01 0.0029)
(2.31818 0.01 0.00286363)
(2.33636 0.01 0.00282724)
(2.35455 0.01 0.00279105)
(2.37273 0.01 0.00275597)
(2.39091 0.01 0.00272263)
(2.40909 0.01 0.00269026)
(2.42727 0.01 0.00265811)
(2.44545 0.01 0.00262604)
(2.46364 0.01 0.00259397)
(2.48182 0.01 0.00256187)
(2.5 0.01 0.00252973)
(2.51818 0.01 0.00249753)
(2.53636 0.01 0.00246529)
(2.55455 0.01 0.00243299)
(2.57273 0.01 0.00240063)
(2.59091 0.01 0.00236822)
(2.60909 0.01 0.00233574)
(2.62727 0.01 0.00230321)
(2.64545 0.01 0.00227062)
(2.66364 0.01 0.00223798)
(2.68182 0.01 0.00220527)
(2.7 0.01 0.00217251)
(2.71818 0.01 0.00213969)
(2.73636 0.01 0.00210681)
(2.75455 0.01 0.00207386)
(2.77273 0.01 0.00204085)
(2.79091 0.01 0.00200778)
(2.80909 0.01 0.00197463)
(2.82727 0.01 0.00194142)
(2.84545 0.01 0.00190814)
(2.86364 0.01 0.00187479)
(2.88182 0.01 0.00184138)
(2.9 0.01 0.0018079)
(2.91818 0.01 0.00177436)
(2.93636 0.01 0.00174074)
(2.95455 0.01 0.00170706)
(2.97273 0.01 0.00167331)
(2.99091 0.01 0.0016395)
(3.00909 0.01 0.00160562)
(3.02727 0.01 0.00157167)
(3.04545 0.01 0.00153766)
(3.06364 0.01 0.00150358)
(3.08182 0.01 0.00146945)
(3.1 0.01 0.00143525)
(3.11818 0.01 0.00140098)
(3.13636 0.01 0.00136666)
(3.15455 0.01 0.00133228)
(3.17273 0.01 0.00129783)
(3.19091 0.01 0.00126333)
(3.20909 0.01 0.00122877)
(3.22727 0.01 0.00119415)
(3.24545 0.01 0.00115947)
(3.26364 0.01 0.00112473)
(3.28182 0.01 0.00108994)
(3.3 0.01 0.00105509)
(3.31818 0.01 0.00102018)
(3.33636 0.01 0.000985216)
(3.35455 0.01 0.0009502)
(3.37273 0.01 0.00091513)
(3.39091 0.01 0.000880009)
(3.40909 0.01 0.000844837)
(3.42727 0.01 0.000809615)
(3.44545 0.01 0.000774346)
(3.46364 0.01 0.00073903)
(3.48182 0.01 0.000703668)
(3.5 0.01 0.000668263)
(3.51818 0.01 0.000632816)
(3.53636 0.01 0.000597328)
(3.55455 0.01 0.0005618)
(3.57273 0.01 0.000526234)
(3.59091 0.01 0.000490631)
(3.60909 0.01 0.000454994)
(3.62727 0.01 0.000419325)
(3.64545 0.01 0.000383626)
(3.66364 0.01 0.000347899)
(3.68182 0.01 0.000312148)
(3.7 0.01 0.000276374)
(3.71818 0.01 0.000240581)
(3.73636 0.01 0.000204768)
(3.75455 0.01 0.000168934)
(3.77273 0.01 0.000133077)
(3.79091 0.01 9.71979e-05)
(3.80909 0.01 6.12985e-05)
(3.82727 0.01 2.53823e-05)
(3.84545 0.01 -1.05453e-05)
(3.86364 0.01 -4.64811e-05)
(3.88182 0.01 -8.2425e-05)
(3.9 0.01 -0.000118379)
(3.91818 0.01 -0.000154341)
(3.93636 0.01 -0.000190311)
(3.95455 0.01 -0.000226285)
(3.97273 0.01 -0.000262264)
(3.99091 0.01 -0.000298245)
(4.00909 0.01 -0.000334228)
(4.02727 0.01 -0.000370211)
(4.04545 0.01 -0.000406188)
(4.06364 0.01 -0.000442149)
(4.08182 0.01 -0.00047808)
(4.1 0.01 -0.00051397)
(4.11818 0.01 -0.000549819)
(4.13636 0.01 -0.000585634)
(4.15455 0.01 -0.000621423)
(4.17273 0.01 -0.000657195)
(4.19091 0.01 -0.000692953)
(4.20909 0.01 -0.000728705)
(4.22727 0.01 -0.000764453)
(4.24545 0.01 -0.000800199)
(4.26364 0.01 -0.000835945)
(4.28182 0.01 -0.000871691)
(4.3 0.01 -0.000907438)
(4.31818 0.01 -0.000943185)
(4.33636 0.01 -0.000978934)
(4.35455 0.01 -0.00101468)
(4.37273 0.01 -0.00105044)
(4.39091 0.01 -0.00108619)
(4.40909 0.01 -0.00112195)
(4.42727 0.01 -0.00115772)
(4.44545 0.01 -0.00119348)
(4.46364 0.01 -0.00122926)
(4.48182 0.01 -0.00126504)
(4.5 0.01 -0.00130082)
(4.51818 0.01 -0.00133661)
(4.53636 0.01 -0.0013724)
(4.55455 0.01 -0.00140821)
(4.57273 0.01 -0.00144402)
(4.59091 0.01 -0.00147984)
(4.60909 0.01 -0.00151567)
(4.62727 0.01 -0.00155151)
(4.64545 0.01 -0.00158736)
(4.66364 0.01 -0.00162323)
(4.68182 0.01 -0.0016591)
(4.7 0.01 -0.00169498)
(4.71818 0.01 -0.00173087)
(4.73636 0.01 -0.00176678)
(4.75455 0.01 -0.00180269)
(4.77273 0.01 -0.00183862)
(4.79091 0.01 -0.00187455)
(4.80909 0.01 -0.0019105)
(4.82727 0.01 -0.00194646)
(4.84545 0.01 -0.00198243)
(4.86364 0.01 -0.00201841)
(4.88182 0.01 -0.00205441)
(4.9 0.01 -0.00209041)
(4.91818 0.01 -0.00212642)
(4.93636 0.01 -0.00216245)
(4.95455 0.01 -0.00219849)
(4.97273 0.01 -0.00223454)
(4.99091 0.01 -0.00227061)
(5.00909 0.01 -0.00230669)
(5.02727 0.01 -0.00234279)
(5.04545 0.01 -0.00237891)
(5.06364 0.01 -0.00241505)
(5.08182 0.01 -0.0024512)
(5.1 0.01 -0.00248738)
(5.11818 0.01 -0.00252358)
(5.13636 0.01 -0.00255979)
(5.15455 0.01 -0.00259603)
(5.17273 0.01 -0.00263228)
(5.19091 0.01 -0.00266855)
(5.20909 0.01 -0.00270483)
(5.22727 0.01 -0.00274114)
(5.24545 0.01 -0.00277747)
(5.26364 0.01 -0.00281381)
(5.28182 0.01 -0.00285018)
(5.3 0.01 -0.00288657)
(5.31818 0.01 -0.00292297)
(5.33636 0.01 -0.00295938)
(5.35455 0.01 -0.00299581)
(5.37273 0.01 -0.00303226)
(5.39091 0.01 -0.00306872)
(5.40909 0.01 -0.00310519)
(5.42727 0.01 -0.00314166)
(5.44545 0.01 -0.00317812)
(5.46364 0.01 -0.00321458)
(5.48182 0.01 -0.00325103)
(5.5 0.01 -0.00328744)
(5.51818 0.01 -0.00332383)
(5.53636 0.01 -0.00336021)
(5.55455 0.01 -0.0033966)
(5.57273 0.01 -0.003433)
(5.59091 0.01 -0.00346942)
(5.60909 0.01 -0.00350585)
(5.62727 0.01 -0.00354228)
(5.64545 0.01 -0.00357869)
(5.66364 0.01 -0.00361508)
(5.68182 0.01 -0.00365144)
(5.7 0.01 -0.00368777)
(5.71818 0.01 -0.0037241)
(5.73636 0.01 -0.00376043)
(5.75455 0.01 -0.00379678)
(5.77273 0.01 -0.00383314)
(5.79091 0.01 -0.00386952)
(5.80909 0.01 -0.00390592)
(5.82727 0.01 -0.00394233)
(5.84545 0.01 -0.00397875)
(5.86364 0.01 -0.00401518)
(5.88182 0.01 -0.00405162)
(5.9 0.01 -0.00408807)
(5.91818 0.01 -0.00412452)
(5.93636 0.01 -0.00416099)
(5.95455 0.01 -0.00419745)
(5.97273 0.01 -0.00423393)
(5.99091 0.01 -0.00427041)
(6.00909 0.01 -0.00430689)
(6.02727 0.01 -0.00434337)
(6.04545 0.01 -0.00437985)
(6.06364 0.01 -0.00441633)
(6.08182 0.01 -0.0044528)
(6.1 0.01 -0.00448926)
(6.11818 0.01 -0.00452571)
(6.13636 0.01 -0.00456213)
(6.15455 0.01 -0.00459853)
(6.17273 0.01 -0.00463488)
(6.19091 0.01 -0.00467119)
(6.20909 0.01 -0.00470744)
(6.22727 0.01 -0.00474365)
(6.24545 0.01 -0.00477983)
(6.26364 0.01 -0.00481599)
(6.28182 0.01 -0.00485213)
(6.3 0.01 -0.00488821)
(6.31818 0.01 -0.00492424)
(6.33636 0.01 -0.00496022)
(6.35455 0.01 -0.00499615)
(6.37273 0.01 -0.00503205)
(6.39091 0.01 -0.00506792)
(6.40909 0.01 -0.00510377)
(6.42727 0.01 -0.00513962)
(6.44545 0.01 -0.00517546)
(6.46364 0.01 -0.0052113)
(6.48182 0.01 -0.00524713)
(6.5 0.01 -0.00528295)
(6.51818 0.01 -0.00531876)
(6.53636 0.01 -0.00535456)
(6.55455 0.01 -0.00539036)
(6.57273 0.01 -0.00542614)
(6.59091 0.01 -0.00546192)
(6.60909 0.01 -0.00549769)
(6.62727 0.01 -0.00553346)
(6.64545 0.01 -0.00556922)
(6.66364 0.01 -0.00560498)
(6.68182 0.01 -0.00564073)
(6.7 0.01 -0.00567649)
(6.71818 0.01 -0.00571224)
(6.73636 0.01 -0.005748)
(6.75455 0.01 -0.00578375)
(6.77273 0.01 -0.00581951)
(6.79091 0.01 -0.00585527)
(6.80909 0.01 -0.00589104)
(6.82727 0.01 -0.00592681)
(6.84545 0.01 -0.00596258)
(6.86364 0.01 -0.00599837)
(6.88182 0.01 -0.00603416)
(6.9 0.01 -0.00606995)
(6.91818 0.01 -0.00610576)
(6.93636 0.01 -0.00614157)
(6.95455 0.01 -0.0061774)
(6.97273 0.01 -0.00621324)
(6.99091 0.01 -0.00624909)
(7.00909 0.01 -0.00628495)
(7.02727 0.01 -0.00632082)
(7.04545 0.01 -0.00635671)
(7.06364 0.01 -0.00639261)
(7.08182 0.01 -0.00642853)
(7.1 0.01 -0.00646446)
(7.11818 0.01 -0.0065004)
(7.13636 0.01 -0.00653635)
(7.15455 0.01 -0.00657231)
(7.17273 0.01 -0.00660829)
(7.19091 0.01 -0.00664427)
(7.20909 0.01 -0.00668026)
(7.22727 0.01 -0.00671625)
(7.24545 0.01 -0.00675226)
(7.26364 0.01 -0.00678827)
(7.28182 0.01 -0.00682428)
(7.3 0.01 -0.00686031)
(7.31818 0.01 -0.00689634)
(7.33636 0.01 -0.00693238)
(7.35455 0.01 -0.00696842)
(7.37273 0.01 -0.00700447)
(7.39091 0.01 -0.00704053)
(7.40909 0.01 -0.0070766)
(7.42727 0.01 -0.00711266)
(7.44545 0.01 -0.00714874)
(7.46364 0.01 -0.00718482)
(7.48182 0.01 -0.0072209)
(7.5 0.01 -0.00725699)
(7.51818 0.01 -0.00729309)
(7.53636 0.01 -0.0073292)
(7.55455 0.01 -0.00736531)
(7.57273 0.01 -0.00740143)
(7.59091 0.01 -0.00743757)
(7.60909 0.01 -0.00747371)
(7.62727 0.01 -0.00750986)
(7.64545 0.01 -0.00754601)
(7.66364 0.01 -0.00758218)
(7.68182 0.01 -0.00761836)
(7.7 0.01 -0.00765454)
(7.71818 0.01 -0.00769073)
(7.73636 0.01 -0.00772693)
(7.75455 0.01 -0.00776313)
(7.77273 0.01 -0.00779932)
(7.79091 0.01 -0.00783552)
(7.80909 0.01 -0.00787172)
(7.82727 0.01 -0.00790792)
(7.84545 0.01 -0.00794412)
(7.86364 0.01 -0.00798032)
(7.88182 0.01 -0.00801651)
(7.9 0.01 -0.0080527)
(7.91818 0.01 -0.0080889)
(7.93636 0.01 -0.00812511)
(7.95455 0.01 -0.00816131)
(7.97273 0.01 -0.00819751)
(7.99091 0.01 -0.00823371)
(8.00909 0.01 -0.0082699)
(8.02727 0.01 -0.00830609)
(8.04545 0.01 -0.00834228)
(8.06364 0.01 -0.0083785)
(8.08182 0.01 -0.00841472)
(8.1 0.01 -0.00845094)
(8.11818 0.01 -0.00848716)
(8.13636 0.01 -0.00852338)
(8.15455 0.01 -0.00855959)
(8.17273 0.01 -0.0085958)
(8.19091 0.01 -0.00863201)
(8.20909 0.01 -0.00866823)
(8.22727 0.01 -0.00870445)
(8.24545 0.01 -0.00874066)
(8.26364 0.01 -0.00877688)
(8.28182 0.01 -0.00881309)
(8.3 0.01 -0.00884932)
(8.31818 0.01 -0.00888556)
(8.33636 0.01 -0.00892181)
(8.35455 0.01 -0.00895807)
(8.37273 0.01 -0.00899434)
(8.39091 0.01 -0.00903062)
(8.40909 0.01 -0.0090669)
(8.42727 0.01 -0.00910319)
(8.44545 0.01 -0.00913948)
(8.46364 0.01 -0.00917579)
(8.48182 0.01 -0.00921209)
(8.5 0.01 -0.0092484)
(8.51818 0.01 -0.0092847)
(8.53636 0.01 -0.009321)
(8.55455 0.01 -0.00935729)
(8.57273 0.01 -0.00939358)
(8.59091 0.01 -0.00942985)
(8.60909 0.01 -0.00946612)
(8.62727 0.01 -0.00950238)
(8.64545 0.01 -0.00953864)
(8.66364 0.01 -0.00957488)
(8.68182 0.01 -0.00961112)
(8.7 0.01 -0.00964736)
(8.71818 0.01 -0.00968359)
(8.73636 0.01 -0.0097198)
(8.75455 0.01 -0.00975599)
(8.77273 0.01 -0.00979215)
(8.79091 0.01 -0.00982827)
(8.80909 0.01 -0.00986435)
(8.82727 0.01 -0.00990041)
(8.84545 0.01 -0.00993647)
(8.86364 0.01 -0.00997255)
(8.88182 0.01 -0.0100086)
(8.9 0.01 -0.0100447)
(8.91818 0.01 -0.0100808)
(8.93636 0.01 -0.0101169)
(8.95455 0.01 -0.010153)
(8.97273 0.01 -0.0101891)
(8.99091 0.01 -0.0102252)
(9.00909 0.01 -0.0102612)
(9.02727 0.01 -0.0102973)
(9.04545 0.01 -0.0103333)
(9.06364 0.01 -0.0103693)
(9.08182 0.01 -0.0104053)
(9.1 0.01 -0.0104413)
(9.11818 0.01 -0.0104773)
(9.13636 0.01 -0.0105133)
(9.15455 0.01 -0.0105493)
(9.17273 0.01 -0.0105853)
(9.19091 0.01 -0.0106213)
(9.20909 0.01 -0.0106573)
(9.22727 0.01 -0.0106932)
(9.24545 0.01 -0.0107292)
(9.26364 0.01 -0.0107652)
(9.28182 0.01 -0.0108013)
(9.3 0.01 -0.0108373)
(9.31818 0.01 -0.0108733)
(9.33636 0.01 -0.0109093)
(9.35455 0.01 -0.0109453)
(9.37273 0.01 -0.0109814)
(9.39091 0.01 -0.0110174)
(9.40909 0.01 -0.0110534)
(9.42727 0.01 -0.0110895)
(9.44545 0.01 -0.0111255)
(9.46364 0.01 -0.0111615)
(9.48182 0.01 -0.0111975)
(9.5 0.01 -0.0112335)
(9.51818 0.01 -0.0112694)
(9.53636 0.01 -0.0113053)
(9.55455 0.01 -0.0113411)
(9.57273 0.01 -0.0113768)
(9.59091 0.01 -0.0114123)
(9.60909 0.01 -0.0114476)
(9.62727 0.01 -0.0114825)
(9.64545 0.01 -0.0115168)
(9.66364 0.01 -0.0115504)
(9.68182 0.01 -0.0115829)
(9.7 0.01 -0.0116137)
(9.71818 0.01 -0.0116423)
(9.73636 0.01 -0.011668)
(9.75455 0.01 -0.011692)
(9.77272 0.01 -0.0117214)
(9.79091 0.01 -0.0118297)
(9.8091 0.01 -0.0120185)
(9.82727 0.01 -0.0121442)
(9.84545 0.01 -0.0121903)
(9.86364 0.01 -0.0122271)
(9.88182 0.01 -0.0122636)
(9.9 0.01 -0.0123)
(9.91818 0.01 -0.0123363)
(9.93636 0.01 -0.0123727)
(9.95455 0.01 -0.0124091)
(9.97273 0.01 -0.0124455)
(9.99091 0.01 -0.0124818)
(0.00909091 0.01 0.0124818)
(0.0272727 0.01 0.0124455)
(0.0454545 0.01 0.0124091)
(0.0636364 0.01 0.0123727)
(0.0818182 0.01 0.0123364)
(0.1 0.01 0.0123)
(0.118182 0.01 0.0122636)
(0.136364 0.01 0.0122273)
(0.154545 0.01 0.0121909)
(0.172727 0.01 0.0121545)
(0.190909 0.01 0.0121182)
(0.209091 0.01 0.0120818)
(0.227273 0.01 0.0120455)