/*--------------------------------*- C++ -*----------------------------------*\
| =========                 |                                                 |
| \\      /  F ield         | foam-extend: Open Source CFD                    |
|  \\    /   O peration     | Version:     3.2                                |
|   \\  /    A nd           | Web:         http://www.foam-extend.org         |
|    \\/     M anipulation  | For copyright notice see file Copyright         |
\*---------------------------------------------------------------------------*/
FoamFile
{
    version     2.0;
    format      ascii;
    class       surfaceScalarField;
    location    "120";
    object      meshPhi;
}
// * * * * * * * * * * * * * * * * * * * * * * * * * * * * * * * * * * * * * //

dimensions      [0 3 -1 0 0 0 0];

internalField   nonuniform List<scalar> 
65390
(
0
0
0
0
0
0
0
0
0
0
0
0
0
0
0
0
0
0
0
0
0
0
0
0
0
0
0
0
0
0
0
0
0
0
0
0
0
0
0
0
0
0
0
0
0
0
0
0
0
0
0
0
0
0
0
0
0
0
0
0
0
0
0
0
0
0
0
0
0
0
0
0
0
0
0
0
0
0
0
0
0
0
0
0
0
0
0
0
0
0
0
0
0
0
0
0
0
0
0
0
0
0
0
0
0
0
0
0
0
0
0
0
0
0
0
0
0
0
0
0
0
0
0
0
0
0
0
0
0
0
0
0
0
0
0
0
0
0
0
0
0
0
0
0
0
0
0
0
0
0
0
0
0
0
0
0
0
0
0
0
0
0
0
0
0
0
0
0
0
0
0
0
-8.02471e-35
6.57092e-21
8.02471e-35
1.31418e-20
-8.02471e-35
3.94255e-20
-8.02471e-35
1.97128e-20
-1.85037e-18
3.28546e-20
0
3.28546e-20
3.70074e-18
5.25674e-20
0
6.57092e-20
-4.01235e-34
8.5422e-20
1.85037e-18
1.18277e-19
0
1.4456e-19
-1.85037e-18
1.90557e-19
-1.85037e-18
2.56266e-19
1.85037e-18
3.35117e-19
-3.70074e-18
4.46823e-19
-1.85037e-18
5.91383e-19
-1.85037e-18
7.8194e-19
-1.85037e-18
1.02506e-18
6.25927e-33
1.34704e-18
3.70074e-18
1.77415e-18
-1.08334e-32
2.34582e-18
0
3.08176e-18
-1.85037e-18
4.05426e-18
0
5.34873e-18
0
7.07688e-18
0
9.36685e-18
3.70074e-18
1.2419e-17
0
1.64963e-17
-3.70074e-18
2.19567e-17
2.73322e-31
2.93293e-17
-3.70074e-18
3.93467e-17
3.70074e-18
5.30372e-17
0
7.1945e-17
-9.26774e-31
9.83831e-17
0
1.35929e-16
3.70074e-18
1.90323e-16
3.70074e-18
2.71215e-16
-3.70074e-18
3.95577e-16
-3.70074e-18
5.9516e-16
0
9.40816e-16
-3.70074e-18
1.42591e-15
3.70074e-18
5.27313e-15
-3.70076e-18
-7.73494e-14
7.28821e-27
-8.20032e-13
0
3.85574e-12
3.70075e-18
1.88657e-11
3.70075e-18
3.65048e-11
0
5.29196e-11
0
6.99662e-11
0
8.72014e-11
3.70074e-18
1.04458e-10
0
1.21623e-10
3.70074e-18
1.38644e-10
-3.70074e-18
1.55485e-10
-3.70074e-18
1.72128e-10
0
1.88558e-10
3.70074e-18
2.04767e-10
-3.70074e-18
2.20749e-10
-3.70074e-18
2.36499e-10
-3.70074e-18
2.52017e-10
3.70074e-18
2.67301e-10
0
2.82347e-10
0
2.97153e-10
-3.70074e-18
3.11727e-10
3.70074e-18
3.26076e-10
-7.40148e-18
3.40197e-10
0
3.54085e-10
0
3.67734e-10
0
3.81129e-10
0
3.94263e-10
0
4.07127e-10
-3.70074e-18
4.19705e-10
3.70074e-18
4.32004e-10
-3.70074e-18
4.44267e-10
-3.70074e-18
4.56855e-10
3.70074e-18
4.69497e-10
-7.40148e-18
4.81588e-10
3.70074e-18
4.93107e-10
-3.70074e-18
5.04289e-10
3.70074e-18
5.15194e-10
-7.40148e-18
5.25826e-10
-1.99605e-28
5.3619e-10
-3.70074e-18
5.46294e-10
3.70074e-18
5.56151e-10
3.70074e-18
5.6577e-10
-3.70074e-18
5.75154e-10
7.40148e-18
5.84306e-10
-3.70074e-18
5.93234e-10
-3.70074e-18
6.01943e-10
-1.77782e-28
6.10432e-10
7.40148e-18
6.18697e-10
-1.11022e-17
6.26737e-10
3.70074e-18
6.34546e-10
-3.70074e-18
6.42126e-10
-7.40148e-18
6.49476e-10
3.70074e-18
6.56602e-10
3.70074e-18
6.63507e-10
3.70074e-18
6.70195e-10
1.60873e-28
6.76668e-10
3.70074e-18
6.82932e-10
-3.70074e-18
6.88995e-10
1.51863e-28
6.94862e-10
0
7.00535e-10
-3.70074e-18
7.06017e-10
3.70074e-18
7.11314e-10
3.70074e-18
7.16429e-10
0
7.21369e-10
1.11022e-17
7.26142e-10
1.26695e-28
7.30754e-10
1.24083e-28
7.3521e-10
0
7.39512e-10
-3.70074e-18
7.43664e-10
0
7.47666e-10
-7.40148e-18
7.51515e-10
-7.40148e-18
7.55217e-10
3.70074e-18
7.58777e-10
3.70074e-18
7.62201e-10
1.01061e-28
7.65495e-10
-9.57046e-29
7.68667e-10
-8.5562e-29
7.71727e-10
-3.70074e-18
7.74688e-10
3.70074e-18
7.77561e-10
0
7.8035e-10
3.70074e-18
7.83058e-10
7.40148e-18
7.85692e-10
0
7.88253e-10
-3.70074e-18
7.90751e-10
5.06186e-29
7.93198e-10
3.70074e-18
7.95607e-10
0
7.9799e-10
0
8.00357e-10
7.40149e-18
8.02713e-10
-3.70074e-18
8.05062e-10
0
8.07403e-10
-7.40149e-18
8.09741e-10
-7.40149e-18
8.12087e-10
0
8.1446e-10
0
8.16901e-10
0
8.19455e-10
1.54567e-28
8.22162e-10
0
8.25056e-10
0
8.28144e-10
0
8.31395e-10
7.07458e-31
8.34768e-10
0
8.38227e-10
0
8.41742e-10
0
8.45292e-10
7.40149e-18
8.48865e-10
0
8.52455e-10
-7.40149e-18
8.56057e-10
0
8.59669e-10
0
8.63289e-10
-7.40149e-18
8.66915e-10
7.40149e-18
8.70544e-10
0
8.7417e-10
0
8.77787e-10
0
8.8139e-10
-7.40148e-18
8.84975e-10
0
8.88537e-10
0
8.92072e-10
0
8.9558e-10
-7.40148e-18
8.99059e-10
0
9.02506e-10
7.40148e-18
9.0592e-10
-7.40148e-18
9.09294e-10
7.40148e-18
9.12624e-10
-7.40148e-18
9.15908e-10
7.40148e-18
9.19147e-10
0
9.22341e-10
7.40148e-18
9.25489e-10
0
9.28591e-10
0
9.31646e-10
7.40148e-18
9.34654e-10
-7.40148e-18
9.37616e-10
-7.40148e-18
9.40533e-10
1.4803e-17
9.43401e-10
0
9.46221e-10
0
9.48993e-10
-7.40148e-18
9.51718e-10
-7.40148e-18
9.54397e-10
0
9.57034e-10
0
9.59629e-10
0
9.62184e-10
0
9.64699e-10
0
9.67171e-10
0
9.69595e-10
1.4803e-17
9.71969e-10
7.40148e-18
9.74289e-10
-1.4803e-17
9.76556e-10
0
9.78765e-10
7.40148e-18
9.8091e-10
7.40148e-18
9.82983e-10
7.40148e-18
9.8498e-10
7.40148e-18
9.86899e-10
7.40148e-18
9.88738e-10
1.4803e-17
9.905e-10
7.40148e-18
9.92184e-10
0
9.93796e-10
7.40148e-18
9.95333e-10
7.40148e-18
9.96793e-10
0
9.98171e-10
7.40148e-18
9.99462e-10
-1.70132e-28
1.00066e-09
7.40148e-18
1.00177e-09
0
1.00279e-09
7.40148e-18
1.0037e-09
1.4803e-17
1.00451e-09
-1.48419e-28
1.00522e-09
1.4803e-17
1.00584e-09
-7.40148e-18
1.00638e-09
-1.44486e-28
1.00686e-09
-7.40149e-18
1.00727e-09
0
1.0076e-09
9.8555e-29
1.00787e-09
0
1.00809e-09
-1.7021e-28
1.00826e-09
1.12582e-28
1.00834e-09
0
1.00834e-09
7.40148e-18
1.00831e-09
0
1.00829e-09
0
1.00829e-09
2.53478e-29
1.00831e-09
7.40149e-18
1.00835e-09
-7.40149e-18
1.00842e-09
0
1.00852e-09
-1.99655e-29
1.00863e-09
-2.33885e-29
1.00877e-09
0
1.00895e-09
6.38641e-28
1.00922e-09
7.40148e-18
1.00988e-09
0
1.01156e-09
7.40148e-18
1.01418e-09
7.40148e-18
1.01657e-09
-1.46812e-28
1.01813e-09
7.40148e-18
1.01927e-09
-7.40148e-18
1.0203e-09
-1.37242e-28
1.02126e-09
-7.40148e-18
1.02215e-09
7.40149e-18
1.02298e-09
1.10408e-28
1.02376e-09
7.40149e-18
1.0245e-09
-7.40149e-18
1.02519e-09
-7.40149e-18
1.02584e-09
0
1.02643e-09
7.40149e-18
1.02695e-09
7.40149e-18
1.0274e-09
-7.40149e-18
1.02777e-09
7.40149e-18
1.02808e-09
0
1.02833e-09
-8.79983e-29
1.02853e-09
8.32849e-29
1.02869e-09
0
1.02886e-09
7.40149e-18
1.02955e-09
0
1.03169e-09
7.40149e-18
1.0349e-09
-7.40149e-18
1.03786e-09
-1.1959e-28
1.04028e-09
0
1.04268e-09
7.40149e-18
1.04524e-09
-7.40149e-18
1.04793e-09
7.40149e-18
1.05071e-09
0
1.05357e-09
0
1.05652e-09
-7.40149e-18
1.05958e-09
7.40149e-18
1.06274e-09
7.40149e-18
1.06597e-09
1.4803e-17
1.0693e-09
0
1.07272e-09
-7.40149e-18
1.07622e-09
7.40149e-18
1.07979e-09
-7.40149e-18
1.08342e-09
2.7094e-29
1.08712e-09
7.40149e-18
1.09087e-09
-3.21656e-29
1.09469e-09
7.40149e-18
1.09856e-09
7.40149e-18
1.10249e-09
7.40149e-18
1.10647e-09
4.78375e-29
1.11049e-09
-4.69105e-29
1.11456e-09
-7.40149e-18
1.11868e-09
0
1.12284e-09
7.40149e-18
1.12704e-09
-1.4803e-17
1.13128e-09
-8.38344e-29
1.13554e-09
7.40149e-18
1.13982e-09
-7.40148e-18
1.14412e-09
-1.4803e-17
1.14841e-09
0
1.1527e-09
-1.4803e-17
1.15697e-09
-1.4803e-17
1.16122e-09
7.40148e-18
1.16545e-09
1.4803e-17
1.16964e-09
1.45446e-28
1.1738e-09
7.40148e-18
1.17792e-09
7.40148e-18
1.182e-09
7.40148e-18
1.18603e-09
-7.40148e-18
1.19002e-09
0
1.19396e-09
7.40148e-18
1.19785e-09
7.40148e-18
1.20167e-09
7.40148e-18
1.20543e-09
-1.92626e-28
1.20911e-09
-1.90002e-28
1.21271e-09
2.22045e-17
1.21624e-09
7.40148e-18
1.21968e-09
7.40148e-18
1.22306e-09
-1.53016e-28
1.22637e-09
-1.39173e-28
1.22963e-09
0
1.23285e-09
7.40148e-18
1.23603e-09
-1.4803e-17
1.23918e-09
7.40148e-18
1.2423e-09
-1.35858e-28
1.24539e-09
-7.40148e-18
1.24845e-09
7.40148e-18
1.25148e-09
-7.40148e-18
1.25447e-09
1.4803e-17
1.25744e-09
-7.40148e-18
1.26039e-09
-7.40148e-18
1.26332e-09
0
1.26622e-09
-7.40148e-18
1.26911e-09
-7.40148e-18
1.27198e-09
-1.15037e-28
1.27484e-09
1.16991e-28
1.27768e-09
7.40148e-18
1.28051e-09
-1.2752e-28
1.28331e-09
1.4803e-17
1.2861e-09
1.4803e-17
1.28885e-09
-7.40148e-18
1.29157e-09
1.4803e-17
1.29425e-09
-1.4803e-17
1.29689e-09
-7.40148e-18
1.29949e-09
0
1.30205e-09
-1.47762e-28
1.30456e-09
1.4803e-17
1.30704e-09
7.40148e-18
1.30946e-09
7.40148e-18
1.31185e-09
-1.4803e-17
1.31419e-09
0
1.31649e-09
-7.40149e-18
1.31875e-09
-1.4803e-17
1.32097e-09
7.40149e-18
1.32315e-09
-1.4803e-17
1.3253e-09
-1.4803e-17
1.32744e-09
-7.40149e-18
1.32957e-09
-1.28365e-28
1.33169e-09
7.40149e-18
1.33378e-09
-1.4803e-17
1.33585e-09
-9.11042e-29
1.3379e-09
-7.40149e-18
1.33996e-09
7.40149e-18
1.342e-09
7.40149e-18
1.34402e-09
-1.17366e-28
1.34602e-09
0
1.34799e-09
0
1.34995e-09
-1.4803e-17
1.3519e-09
0
1.35385e-09
1.4803e-17
1.35582e-09
0
1.3578e-09
0
1.35978e-09
1.4803e-17
1.36178e-09
-1.4803e-17
1.36381e-09
0
1.36588e-09
0
1.36799e-09
1.4803e-17
1.37015e-09
0
1.37234e-09
1.4803e-17
1.37457e-09
0
1.37682e-09
1.56463e-28
1.37908e-09
0
1.38135e-09
-1.68105e-28
1.38365e-09
0
1.38596e-09
1.4803e-17
1.38828e-09
2.02705e-28
1.3906e-09
0
1.39292e-09
1.4803e-17
1.39524e-09
0
1.39754e-09
0
1.39983e-09
0
1.40211e-09
0
1.40439e-09
-1.53997e-28
1.40667e-09
0
1.40896e-09
0
1.41127e-09
0
1.41363e-09
0
1.41603e-09
0
1.4185e-09
5.48402e-29
1.42103e-09
-1.4803e-17
1.42364e-09
0
1.42631e-09
1.4803e-17
1.42906e-09
1.4803e-17
1.43187e-09
1.4803e-17
1.43473e-09
-1.4803e-17
1.43765e-09
-1.4803e-17
1.4406e-09
-1.4803e-17
1.44358e-09
0
1.44656e-09
1.4803e-17
1.44954e-09
-2.9606e-17
1.45254e-09
0
1.45555e-09
0
1.45857e-09
0
1.46165e-09
2.96059e-17
1.46476e-09
0
1.46788e-09
-1.4803e-17
1.471e-09
0
1.47413e-09
0
1.47727e-09
-1.4803e-17
1.48044e-09
-5.43985e-29
1.48366e-09
1.4803e-17
1.48694e-09
-1.4803e-17
1.49031e-09
0
1.49377e-09
0
1.49731e-09
1.4803e-17
1.50094e-09
0
1.50466e-09
-1.4803e-17
1.50847e-09
1.4803e-17
1.51235e-09
0
1.5163e-09
-1.4803e-17
1.52031e-09
0
1.52436e-09
0
1.52842e-09
0
1.53246e-09
-1.4803e-17
1.53647e-09
0
1.54044e-09
-1.4803e-17
1.54436e-09
0
1.54824e-09
-1.4803e-17
1.55209e-09
0
1.55592e-09
0
1.55973e-09
0
1.56352e-09
0
1.5673e-09
1.4803e-17
1.57106e-09
0
1.57483e-09
0
1.57861e-09
0
1.58244e-09
0
1.58635e-09
-1.4803e-17
1.59039e-09
-3.19437e-28
1.5946e-09
2.9606e-17
1.59906e-09
-1.4803e-17
1.60384e-09
0
1.60908e-09
0
1.61498e-09
1.4803e-17
1.62187e-09
-1.48031e-17
1.63022e-09
-1.48031e-17
1.64073e-09
0
1.65445e-09
2.96065e-17
1.6728e-09
0
1.69781e-09
-1.48034e-17
1.73224e-09
0
1.77923e-09
0
1.84216e-09
0
1.89921e-09
2.25949e-24
1.93277e-09
0
1.50212e-09
1.48396e-17
5.6626e-10
0
3.63156e-11
0
-2.11559e-13
1.4803e-17
2.60367e-13
-1.4803e-17
8.39511e-14
-2.9606e-17
4.22714e-14
1.4803e-17
2.31253e-14
0
1.33964e-14
1.4803e-17
7.75605e-15
0
4.06088e-15
1.26519e-15
0
0
0
0
0
0
0
0
0
0
0
0
0
0
0
0
0
0
0
0
0
0
0
0
0
0
0
0
0
0
0
0
0
0
0
0
0
0
0
0
0
0
0
0
0
0
0
0
0
0
0
0
0
0
0
0
0
0
0
0
0
0
0
0
0
0
0
0
0
0
0
0
0
0
0
0
0
0
0
0
0
0
0
0
0
0
0
0
0
0
0
0
0
0
0
0
0
0
0
0
0
0
0
0
0
0
0
0
0
0
0
0
0
0
0
0
0
0
0
0
0
0
0
0
0
0
0
0
0
0
0
0
0
0
0
0
0
0
0
0
0
0
0
0
0
0
0
0
0
0
0
0
0
0
0
0
0
0
0
0
0
0
0
0
0
0
0
2.62837e-20
-1.85037e-18
1.05135e-19
-3.70074e-18
7.88511e-20
-1.85037e-18
1.05135e-19
-1.85037e-18
1.05135e-19
-1.85037e-18
1.83986e-19
-1.85037e-18
2.1027e-19
-3.70074e-18
2.62837e-19
0
3.67972e-19
1.85037e-18
4.9939e-19
-3.70074e-18
6.57092e-19
1.85037e-18
8.93645e-19
-1.85037e-18
1.15648e-18
1.85037e-18
1.52445e-18
-8.42594e-33
2.05013e-18
0
2.62837e-18
-3.70074e-18
3.3906e-18
1.85037e-18
4.49451e-18
1.85037e-18
5.91383e-18
0
7.70112e-18
0
1.01981e-17
1.85037e-18
1.3431e-17
0
1.77152e-17
-9.70187e-32
2.32873e-17
-3.70074e-18
3.06994e-17
-1.85037e-18
4.04769e-17
0
5.34085e-17
-3.70074e-18
7.05717e-17
0
9.33334e-17
0
1.23717e-16
-3.70074e-18
1.64326e-16
0
2.18811e-16
0
2.923e-16
0
3.91995e-16
0
5.28276e-16
0
7.16493e-16
3.70074e-18
9.7962e-16
0
1.35279e-15
3.70074e-18
1.89316e-15
-3.70074e-18
2.69537e-15
-3.70074e-18
3.92702e-15
3.70074e-18
5.90226e-15
-3.70075e-18
9.24892e-15
0
1.53065e-14
0
2.61985e-14
0
-7.11857e-14
-3.70089e-18
-2.16367e-13
3.70088e-18
4.9179e-12
-3.70077e-18
1.9194e-11
3.70076e-18
3.64365e-11
-3.70075e-18
5.29919e-11
0
6.99873e-11
-3.70074e-18
8.72004e-11
-3.70074e-18
1.04441e-10
0
1.21597e-10
-3.70074e-18
1.38612e-10
-3.70074e-18
1.5545e-10
3.70074e-18
1.7209e-10
0
1.88518e-10
3.70074e-18
2.04726e-10
3.70074e-18
2.20706e-10
0
2.36455e-10
-3.70074e-18
2.51973e-10
0
2.67256e-10
0
2.82301e-10
-3.70073e-18
2.97107e-10
-3.70073e-18
3.11682e-10
-3.7699e-28
3.2603e-10
-3.70073e-18
3.4015e-10
-3.70073e-18
3.54037e-10
3.70073e-18
3.67684e-10
3.70073e-18
3.81078e-10
0
3.94211e-10
-3.70073e-18
4.07074e-10
0
4.19654e-10
0
4.31978e-10
-3.70073e-18
4.44274e-10
0
4.56834e-10
8.21307e-28
4.69417e-10
3.70073e-18
4.81503e-10
0
4.93043e-10
0
5.04232e-10
0
5.15138e-10
-3.70073e-18
5.2577e-10
0
5.36135e-10
4.29145e-28
5.46241e-10
0
5.56099e-10
-3.70073e-18
5.65718e-10
-4.19597e-28
5.75102e-10
0
5.84255e-10
0
5.93183e-10
3.70073e-18
6.01892e-10
-4.20987e-28
6.1038e-10
0
6.18645e-10
0
6.26684e-10
4.29059e-28
6.34494e-10
3.70073e-18
6.42073e-10
-4.23755e-28
6.49424e-10
0
6.5655e-10
-3.70073e-18
6.63455e-10
-4.16199e-28
6.70144e-10
-3.70073e-18
6.76618e-10
3.70073e-18
6.82882e-10
4.00634e-28
6.88946e-10
-7.40147e-18
6.94813e-10
0
7.00486e-10
-3.70073e-18
7.05969e-10
7.40147e-18
7.11266e-10
-3.79232e-28
7.16382e-10
-3.70074e-18
7.21323e-10
-3.68315e-28
7.26097e-10
-3.70074e-18
7.30709e-10
3.70074e-18
7.35165e-10
0
7.39468e-10
3.70074e-18
7.4362e-10
3.70074e-18
7.47621e-10
3.70074e-18
7.51471e-10
-3.70074e-18
7.55173e-10
3.70074e-18
7.58734e-10
3.70074e-18
7.62159e-10
0
7.65454e-10
-3.19033e-28
7.68628e-10
-3.70074e-18
7.71689e-10
0
7.74651e-10
7.40147e-18
7.77524e-10
0
7.80314e-10
0
7.83023e-10
7.40148e-18
7.85657e-10
0
7.88219e-10
0
7.90719e-10
-3.70074e-18
7.93167e-10
-3.70074e-18
7.95578e-10
0
7.97962e-10
7.40148e-18
8.00329e-10
3.70074e-18
8.02686e-10
3.70074e-18
8.05035e-10
0
8.07377e-10
0
8.09716e-10
-7.40148e-18
8.12064e-10
7.40148e-18
8.14442e-10
-7.40148e-18
8.16888e-10
1.4803e-17
8.19446e-10
-7.40148e-18
8.22157e-10
-7.40148e-18
8.25052e-10
0
8.28136e-10
0
8.31382e-10
0
8.34751e-10
7.40148e-18
8.38206e-10
0
8.41718e-10
7.40148e-18
8.45266e-10
0
8.48839e-10
4.43931e-28
8.52428e-10
0
8.5603e-10
0
8.59641e-10
0
8.6326e-10
0
8.66886e-10
4.89829e-28
8.70515e-10
7.40148e-18
8.7414e-10
0
8.77756e-10
0
8.81358e-10
-7.40148e-18
8.84942e-10
0
8.88504e-10
0
8.92039e-10
0
8.95546e-10
0
8.99025e-10
0
9.02472e-10
-7.40148e-18
9.05885e-10
0
9.09258e-10
0
9.12588e-10
0
9.15872e-10
0
9.19111e-10
-5.91768e-28
9.22305e-10
7.40148e-18
9.25453e-10
-7.40148e-18
9.28554e-10
-7.40148e-18
9.31609e-10
7.40147e-18
9.34617e-10
7.40148e-18
9.3758e-10
0
9.40496e-10
-7.40147e-18
9.43364e-10
0
9.46184e-10
0
9.48956e-10
7.40147e-18
9.51681e-10
-7.40147e-18
9.54361e-10
7.40147e-18
9.56997e-10
0
9.59592e-10
-7.40147e-18
9.62148e-10
-7.40147e-18
9.64662e-10
0
9.67133e-10
-7.40147e-18
9.69557e-10
0
9.7193e-10
-7.40147e-18
9.7425e-10
0
9.76516e-10
-7.40147e-18
9.78725e-10
0
9.80869e-10
-6.76953e-28
9.82942e-10
-7.40147e-18
9.84938e-10
0
9.86857e-10
7.40147e-18
9.88697e-10
1.48029e-17
9.90458e-10
-7.40147e-18
9.92143e-10
0
9.93754e-10
7.40147e-18
9.95291e-10
-6.93135e-28
9.96751e-10
-7.40147e-18
9.98128e-10
7.40147e-18
9.99419e-10
7.40147e-18
1.00062e-09
-7.40147e-18
1.00173e-09
0
1.00274e-09
1.48029e-17
1.00365e-09
7.40147e-18
1.00446e-09
7.40147e-18
1.00517e-09
-7.40147e-18
1.0058e-09
0
1.00634e-09
-7.40148e-18
1.00682e-09
-1.4803e-17
1.00723e-09
-6.18729e-28
1.00756e-09
0
1.00783e-09
0
1.00806e-09
7.40148e-18
1.00822e-09
-7.40148e-18
1.0083e-09
0
1.0083e-09
7.40147e-18
1.00828e-09
0
1.00826e-09
0
1.00826e-09
7.40148e-18
1.00828e-09
0
1.00832e-09
7.40148e-18
1.00839e-09
7.40148e-18
1.00849e-09
0
1.00861e-09
-7.40148e-18
1.00874e-09
7.40148e-18
1.00893e-09
-7.06348e-28
1.00923e-09
-1.75491e-27
1.00995e-09
0
1.01162e-09
2.00599e-27
1.01413e-09
0
1.01646e-09
-7.40147e-18
1.01805e-09
7.40148e-18
1.01922e-09
0
1.02026e-09
7.40148e-18
1.02122e-09
-1.4803e-17
1.02211e-09
7.40148e-18
1.02294e-09
-1.4803e-17
1.02372e-09
0
1.02446e-09
7.40148e-18
1.02516e-09
7.40148e-18
1.0258e-09
7.40148e-18
1.02639e-09
7.40148e-18
1.02691e-09
0
1.02736e-09
-7.40148e-18
1.02773e-09
-6.04263e-28
1.02804e-09
-7.40148e-18
1.02829e-09
7.40148e-18
1.0285e-09
-7.40148e-18
1.02867e-09
7.40148e-18
1.02889e-09
0
1.02967e-09
0
1.03177e-09
-7.40149e-18
1.03485e-09
-7.40148e-18
1.03778e-09
-7.40148e-18
1.04025e-09
0
1.04266e-09
7.40148e-18
1.04522e-09
0
1.04791e-09
-7.40149e-18
1.05069e-09
7.40148e-18
1.05355e-09
0
1.0565e-09
7.40148e-18
1.05956e-09
-7.40148e-18
1.06271e-09
-3.82667e-28
1.06595e-09
0
1.06927e-09
7.40148e-18
1.07269e-09
-7.40148e-18
1.0762e-09
0
1.07976e-09
0
1.0834e-09
-7.40148e-18
1.08709e-09
7.40148e-18
1.09084e-09
-7.40148e-18
1.09466e-09
7.40148e-18
1.09853e-09
7.40148e-18
1.10246e-09
-7.40148e-18
1.10644e-09
0
1.11046e-09
-7.40148e-18
1.11453e-09
7.40148e-18
1.11864e-09
7.40148e-18
1.12281e-09
-7.40148e-18
1.12701e-09
-7.40148e-18
1.13124e-09
-5.8587e-28
1.1355e-09
7.40148e-18
1.13979e-09
7.40148e-18
1.14408e-09
-7.40148e-18
1.14837e-09
-7.40148e-18
1.15266e-09
0
1.15693e-09
6.88085e-28
1.16118e-09
0
1.16541e-09
7.40147e-18
1.1696e-09
-1.48029e-17
1.17375e-09
-1.44483e-27
1.17787e-09
7.31461e-28
1.18195e-09
7.40326e-28
1.18599e-09
7.40147e-18
1.18998e-09
-7.40147e-18
1.19391e-09
-2.22044e-17
1.1978e-09
-7.40147e-18
1.20162e-09
8.02753e-28
1.20538e-09
7.40147e-18
1.20906e-09
8.10416e-28
1.21266e-09
-7.40147e-18
1.21619e-09
7.40147e-18
1.21963e-09
7.40147e-18
1.22301e-09
-7.40147e-18
1.22632e-09
0
1.22959e-09
-7.40147e-18
1.2328e-09
7.40147e-18
1.23599e-09
-7.2301e-28
1.23914e-09
0
1.24226e-09
1.48029e-17
1.24535e-09
7.27655e-28
1.24841e-09
7.40147e-18
1.25143e-09
7.40147e-18
1.25443e-09
7.40147e-18
1.2574e-09
1.48029e-17
1.26035e-09
-1.48029e-17
1.26328e-09
-7.40147e-18
1.26618e-09
0
1.26906e-09
-7.40147e-18
1.27193e-09
0
1.27479e-09
7.14666e-28
1.27763e-09
-7.40147e-18
1.28046e-09
-7.40147e-18
1.28327e-09
-7.40147e-18
1.28605e-09
7.40147e-18
1.28881e-09
-7.64194e-28
1.29152e-09
1.48029e-17
1.2942e-09
7.40147e-18
1.29684e-09
0
1.29944e-09
7.40147e-18
1.302e-09
-7.80058e-28
1.30452e-09
7.77262e-28
1.30699e-09
0
1.30941e-09
7.40147e-18
1.3118e-09
1.48029e-17
1.31414e-09
7.40147e-18
1.31644e-09
-7.40148e-18
1.3187e-09
0
1.32092e-09
-7.40148e-18
1.3231e-09
7.40147e-18
1.32526e-09
-7.16469e-28
1.3274e-09
2.22044e-17
1.32952e-09
-7.53259e-28
1.33164e-09
0
1.33374e-09
-2.22044e-17
1.33581e-09
-7.40147e-18
1.33786e-09
1.47708e-27
1.33991e-09
-7.40148e-18
1.34195e-09
7.40148e-18
1.34397e-09
1.4803e-17
1.34597e-09
0
1.34795e-09
1.48029e-17
1.3499e-09
0
1.35185e-09
0
1.35381e-09
-1.40506e-27
1.35578e-09
-1.4803e-17
1.35776e-09
0
1.35974e-09
0
1.36174e-09
-1.4803e-17
1.36377e-09
-1.26553e-27
1.36584e-09
-1.26344e-27
1.36795e-09
0
1.37011e-09
-1.33625e-27
1.3723e-09
0
1.37453e-09
-1.4803e-17
1.37678e-09
0
1.37904e-09
0
1.38131e-09
-1.48029e-17
1.3836e-09
1.48029e-17
1.38592e-09
0
1.38823e-09
0
1.39056e-09
0
1.39288e-09
0
1.39519e-09
1.48029e-17
1.3975e-09
0
1.39979e-09
0
1.40207e-09
0
1.40434e-09
1.4803e-17
1.40662e-09
1.35741e-27
1.40892e-09
-1.4803e-17
1.41123e-09
1.4803e-17
1.41359e-09
0
1.41599e-09
1.4803e-17
1.41846e-09
0
1.42099e-09
-1.4803e-17
1.4236e-09
1.4803e-17
1.42627e-09
-1.4803e-17
1.42902e-09
-1.4803e-17
1.43183e-09
-1.4803e-17
1.43469e-09
0
1.43761e-09
-1.46563e-27
1.44056e-09
-1.4803e-17
1.44353e-09
-1.4803e-17
1.44651e-09
1.49659e-27
1.4495e-09
0
1.4525e-09
0
1.4555e-09
1.48029e-17
1.45853e-09
1.48029e-17
1.4616e-09
1.48029e-17
1.46471e-09
0
1.46783e-09
0
1.47095e-09
1.47325e-27
1.47408e-09
0
1.47723e-09
1.4803e-17
1.4804e-09
0
1.48362e-09
-1.4803e-17
1.48691e-09
0
1.49027e-09
0
1.49373e-09
0
1.49727e-09
0
1.50091e-09
0
1.50462e-09
0
1.50843e-09
0
1.5123e-09
-1.4803e-17
1.51626e-09
0
1.52026e-09
0
1.52431e-09
1.48029e-17
1.52837e-09
-1.79548e-27
1.53241e-09
1.48029e-17
1.53642e-09
-1.48029e-17
1.54038e-09
0
1.5443e-09
0
1.54818e-09
1.48029e-17
1.55204e-09
2.96059e-17
1.55587e-09
0
1.55968e-09
0
1.56347e-09
0
1.56725e-09
1.48029e-17
1.57101e-09
0
1.57478e-09
-1.4803e-17
1.57856e-09
0
1.5824e-09
0
1.58631e-09
0
1.59036e-09
-1.4803e-17
1.59458e-09
0
1.59904e-09
0
1.60384e-09
0
1.6091e-09
0
1.61504e-09
-4.79906e-27
1.62198e-09
0
1.63041e-09
0
1.64103e-09
0
1.65489e-09
1.48034e-17
1.67342e-09
0
1.69863e-09
1.48036e-17
1.73319e-09
0
1.78005e-09
1.72932e-25
1.83985e-09
0
1.8932e-09
1.47575e-17
1.88616e-09
-2.1469e-25
1.45557e-09
0
6.07179e-10
1.48088e-17
8.63921e-11
0
6.91073e-12
0
2.0315e-12
-2.96064e-17
8.35298e-13
1.48031e-17
4.13657e-13
0
2.28152e-13
-1.4803e-17
1.32552e-13
-1.4803e-17
7.68862e-14
0
4.03005e-14
1.25625e-14
0
0
0
0
0
0
0
0
0
0
0
0
0
0
0
0
0
0
0
0
0
0
0
0
0
0
0
0
0
0
0
0
0
0
0
0
0
0
0
0
0
0
0
0
0
0
0
0
0
0
0
0
0
0
0
0
0
0
0
0
0
0
0
0
0
0
0
0
0
0
0
0
0
0
0
0
0
0
0
0
0
0
0
0
0
0
0
0
0
0
0
0
0
0
0
0
0
0
0
0
0
0
0
0
0
0
0
0
0
0
0
0
0
0
0
0
0
0
0
0
0
0
0
0
0
0
0
0
0
0
0
0
0
0
0
0
0
0
0
0
0
0
0
0
0
0
0
0
0
0
0
0
0
0
0
0
0
0
0
0
0
0
-1.85037e-18
5.25674e-20
0
1.05135e-19
-1.85037e-18
1.05135e-19
0
1.05135e-19
1.85037e-18
2.1027e-19
0
2.62837e-19
1.85037e-18
3.67972e-19
3.70074e-18
4.73106e-19
1.85037e-18
8.41078e-19
1.85037e-18
1.05135e-18
-1.85037e-18
1.31418e-18
0
1.73472e-18
1.85037e-18
2.36553e-18
0
3.10148e-18
0
4.10026e-18
3.70074e-18
5.20417e-18
-1.85037e-18
6.88633e-18
1.85037e-18
9.09416e-18
0
1.19854e-17
-1.85037e-18
1.56651e-17
-6.83705e-32
2.06064e-17
3.70074e-18
2.71248e-17
-3.70074e-18
3.55881e-17
1.54716e-31
4.69427e-17
-1.85037e-18
6.17141e-17
-2.68346e-31
8.12692e-17
-1.85037e-18
1.0708e-16
4.66717e-31
1.41315e-16
0
1.8639e-16
-3.70074e-18
2.46226e-16
3.70074e-18
3.25602e-16
-3.70074e-18
4.31631e-16
-3.70074e-18
5.73142e-16
0
7.63068e-16
0
1.01891e-15
0
1.36631e-15
3.70074e-18
1.84104e-15
3.70074e-18
2.49608e-15
0
3.41115e-15
0
4.70888e-15
4.46572e-29
6.58543e-15
0
9.36822e-15
0
1.36317e-14
0
2.04512e-14
0
3.19746e-14
-3.70075e-18
5.28195e-14
0
8.8045e-14
-3.70081e-18
7.79817e-14
3.70092e-18
5.79651e-13
0
6.14202e-12
0
1.97138e-11
3.70077e-18
3.64794e-11
3.70075e-18
5.30877e-11
-7.40149e-18
7.0033e-11
0
8.72086e-11
3.70074e-18
1.04423e-10
0
1.21564e-10
-3.70073e-18
1.38567e-10
0
1.55398e-10
0
1.72032e-10
5.17399e-28
1.88456e-10
0
2.04661e-10
0
2.20638e-10
3.70073e-18
2.36386e-10
0
2.51901e-10
-7.40146e-18
2.67182e-10
3.70073e-18
2.82226e-10
-3.70073e-18
2.97032e-10
-3.70073e-18
3.11605e-10
-3.70073e-18
3.25952e-10
0
3.4007e-10
0
3.53956e-10
6.97836e-28
3.676e-10
3.70073e-18
3.80992e-10
-7.40145e-18
3.94123e-10
-3.70073e-18
4.06985e-10
-3.70073e-18
4.19571e-10
2.65256e-28
4.31923e-10
0
4.4425e-10
-3.70073e-18
4.56778e-10
0
4.69297e-10
-9.68964e-28
4.81372e-10
0
4.92931e-10
0
5.04129e-10
3.70073e-18
5.15036e-10
0
5.2567e-10
-8.07673e-28
5.36036e-10
0
5.46142e-10
3.70073e-18
5.56001e-10
3.70073e-18
5.6562e-10
-3.70073e-18
5.75004e-10
-3.70073e-18
5.84158e-10
-3.70073e-18
5.93086e-10
3.70073e-18
6.01794e-10
-8.08106e-28
6.10281e-10
3.70073e-18
6.18545e-10
0
6.26583e-10
-3.70073e-18
6.34392e-10
3.70073e-18
6.41972e-10
3.70073e-18
6.49322e-10
7.40145e-18
6.56448e-10
0
6.63354e-10
7.40145e-18
6.70042e-10
-7.40145e-18
6.76517e-10
0
6.82782e-10
-3.70073e-18
6.88846e-10
-1.11022e-17
6.94713e-10
-3.70073e-18
7.00387e-10
0
7.0587e-10
3.70073e-18
7.11168e-10
-7.87616e-28
7.16284e-10
7.80905e-28
7.21226e-10
3.70073e-18
7.26001e-10
-7.40145e-18
7.30614e-10
-3.70073e-18
7.3507e-10
3.70073e-18
7.39373e-10
-3.70073e-18
7.43525e-10
0
7.47527e-10
0
7.51377e-10
0
7.5508e-10
-7.52287e-28
7.58642e-10
0
7.62067e-10
-3.70073e-18
7.65364e-10
3.70073e-18
7.68539e-10
-3.70073e-18
7.71602e-10
0
7.74565e-10
-7.40146e-18
7.7744e-10
-3.70073e-18
7.8023e-10
0
7.8294e-10
3.70073e-18
7.85574e-10
0
7.88138e-10
7.40146e-18
7.90639e-10
6.21877e-28
7.9309e-10
-3.70073e-18
7.95502e-10
7.40146e-18
7.97888e-10
3.70073e-18
8.00256e-10
0
8.02613e-10
-3.70073e-18
8.04963e-10
0
8.07306e-10
0
8.09647e-10
7.40147e-18
8.11999e-10
7.40147e-18
8.14383e-10
-7.40147e-18
8.16835e-10
-7.40147e-18
8.19399e-10
7.40147e-18
8.22114e-10
-7.40147e-18
8.25009e-10
0
8.2809e-10
7.40147e-18
8.3133e-10
-7.40146e-18
8.34693e-10
0
8.38143e-10
0
8.41651e-10
7.40146e-18
8.45196e-10
0
8.48767e-10
1.2033e-27
8.52355e-10
0
8.55956e-10
0
8.59566e-10
-7.40146e-18
8.63184e-10
0
8.66809e-10
1.28563e-27
8.70436e-10
-7.40146e-18
8.7406e-10
0
8.77675e-10
7.40146e-18
8.81276e-10
-7.40146e-18
8.84859e-10
0
8.8842e-10
-7.40146e-18
8.91954e-10
0
8.95461e-10
-7.40146e-18
8.98939e-10
7.40146e-18
9.02385e-10
0
9.05797e-10
7.40146e-18
9.09169e-10
-7.40146e-18
9.12498e-10
7.40146e-18
9.15782e-10
-7.40146e-18
9.19021e-10
-7.40146e-18
9.22214e-10
-7.40146e-18
9.25362e-10
-7.40146e-18
9.28463e-10
0
9.31518e-10
0
9.34526e-10
7.40146e-18
9.37488e-10
-7.40146e-18
9.40404e-10
0
9.43272e-10
0
9.46092e-10
-7.40146e-18
9.48863e-10
-1.50853e-27
9.51588e-10
0
9.54268e-10
0
9.56905e-10
-7.40146e-18
9.595e-10
7.40146e-18
9.62055e-10
0
9.64568e-10
-7.40146e-18
9.67039e-10
1.48029e-17
9.69462e-10
0
9.71835e-10
-7.40146e-18
9.74154e-10
-7.40146e-18
9.76419e-10
0
9.78627e-10
0
9.8077e-10
-7.40145e-18
9.82841e-10
7.40145e-18
9.84837e-10
-7.40145e-18
9.86756e-10
0
9.88595e-10
1.64631e-27
9.90357e-10
0
9.92042e-10
0
9.93653e-10
7.40145e-18
9.95189e-10
0
9.96648e-10
-1.48029e-17
9.98025e-10
0
9.99315e-10
-1.70627e-27
1.00052e-09
0
1.00162e-09
0
1.00264e-09
7.40146e-18
1.00355e-09
0
1.00436e-09
0
1.00507e-09
7.40146e-18
1.00569e-09
0
1.00624e-09
0
1.00672e-09
0
1.00713e-09
-7.40146e-18
1.00746e-09
1.58042e-27
1.00773e-09
-7.40146e-18
1.00796e-09
7.40147e-18
1.00812e-09
-7.40146e-18
1.0082e-09
0
1.00821e-09
-7.40146e-18
1.00819e-09
7.40146e-18
1.00818e-09
-7.40146e-18
1.00818e-09
7.40146e-18
1.0082e-09
-7.40146e-18
1.00824e-09
-7.40146e-18
1.00831e-09
0
1.00841e-09
0
1.00853e-09
7.40146e-18
1.00867e-09
-7.40146e-18
1.00887e-09
0
1.00922e-09
-7.40146e-18
1.00999e-09
0
1.01164e-09
2.91831e-27
1.01402e-09
7.40146e-18
1.01628e-09
-7.40146e-18
1.0179e-09
-7.40146e-18
1.0191e-09
-7.40146e-18
1.02015e-09
0
1.02111e-09
0
1.02201e-09
1.48029e-17
1.02284e-09
-7.40146e-18
1.02362e-09
7.40146e-18
1.02436e-09
-1.48029e-17
1.02506e-09
-1.63582e-27
1.0257e-09
-1.64892e-27
1.02629e-09
7.40146e-18
1.02681e-09
0
1.02726e-09
0
1.02763e-09
7.40146e-18
1.02795e-09
7.40146e-18
1.0282e-09
0
1.02841e-09
-7.40147e-18
1.0286e-09
0
1.02889e-09
7.40147e-18
1.02976e-09
0
1.03181e-09
7.40147e-18
1.03476e-09
7.40147e-18
1.03764e-09
-7.40147e-18
1.04015e-09
7.40147e-18
1.04259e-09
1.19049e-27
1.04515e-09
7.40147e-18
1.04783e-09
-7.40147e-18
1.05061e-09
0
1.05347e-09
-7.40147e-18
1.05643e-09
1.27066e-27
1.05948e-09
0
1.06263e-09
7.40146e-18
1.06587e-09
-7.40146e-18
1.0692e-09
0
1.07261e-09
1.36455e-27
1.07611e-09
7.40146e-18
1.07968e-09
7.40146e-18
1.08331e-09
0
1.087e-09
1.4016e-27
1.09076e-09
-1.48029e-17
1.09457e-09
-7.40146e-18
1.09844e-09
7.40146e-18
1.10237e-09
7.40146e-18
1.10635e-09
-7.40146e-18
1.11037e-09
7.40146e-18
1.11444e-09
-1.48029e-17
1.11855e-09
-7.40146e-18
1.12271e-09
0
1.12691e-09
7.40146e-18
1.13115e-09
2.22044e-17
1.13541e-09
0
1.13969e-09
-7.40146e-18
1.14398e-09
7.40146e-18
1.14827e-09
-1.48029e-17
1.15256e-09
0
1.15683e-09
0
1.16108e-09
0
1.1653e-09
-1.80502e-27
1.16949e-09
1.48029e-17
1.17364e-09
7.40145e-18
1.17776e-09
7.40145e-18
1.18184e-09
-1.48029e-17
1.18587e-09
0
1.18986e-09
7.40145e-18
1.1938e-09
0
1.19768e-09
1.94665e-27
1.2015e-09
0
1.20526e-09
0
1.20894e-09
-1.98084e-27
1.21254e-09
7.40145e-18
1.21607e-09
1.95219e-27
1.21951e-09
7.40145e-18
1.22289e-09
1.91531e-27
1.22621e-09
7.40145e-18
1.22947e-09
-1.48029e-17
1.23269e-09
0
1.23587e-09
-7.40145e-18
1.23902e-09
-1.88739e-27
1.24214e-09
-7.40145e-18
1.24523e-09
1.48029e-17
1.24829e-09
-1.88079e-27
1.25132e-09
-1.87672e-27
1.25431e-09
-1.87982e-27
1.25728e-09
-1.48029e-17
1.26023e-09
7.40145e-18
1.26316e-09
-7.40145e-18
1.26606e-09
-1.86986e-27
1.26895e-09
1.48029e-17
1.27182e-09
-7.40145e-18
1.27468e-09
1.48029e-17
1.27752e-09
-1.90866e-27
1.28034e-09
7.40145e-18
1.28315e-09
-7.40145e-18
1.28593e-09
-7.40145e-18
1.28869e-09
-1.97282e-27
1.2914e-09
-1.98042e-27
1.29408e-09
7.40145e-18
1.29672e-09
-7.40145e-18
1.29932e-09
1.48029e-17
1.30188e-09
7.40145e-18
1.30439e-09
1.48029e-17
1.30686e-09
0
1.30929e-09
-7.40145e-18
1.31168e-09
2.01008e-27
1.31402e-09
-2.00566e-27
1.31632e-09
-1.48029e-17
1.31858e-09
-1.98966e-27
1.3208e-09
7.40145e-18
1.32298e-09
7.40145e-18
1.32514e-09
-7.40145e-18
1.32728e-09
1.95466e-27
1.32941e-09
-1.97931e-27
1.33152e-09
1.48029e-17
1.33362e-09
-7.40145e-18
1.33569e-09
0
1.33774e-09
0
1.33979e-09
-7.40146e-18
1.34183e-09
1.48029e-17
1.34385e-09
0
1.34585e-09
-1.48029e-17
1.34783e-09
-1.48029e-17
1.34978e-09
0
1.35174e-09
0
1.35369e-09
0
1.35566e-09
0
1.35764e-09
1.48029e-17
1.35962e-09
1.48029e-17
1.36162e-09
0
1.36366e-09
1.48029e-17
1.36573e-09
0
1.36784e-09
-1.48029e-17
1.36999e-09
-1.48029e-17
1.37219e-09
0
1.37442e-09
0
1.37666e-09
-1.48029e-17
1.37892e-09
0
1.38119e-09
0
1.38349e-09
1.48029e-17
1.38579e-09
-1.48029e-17
1.38811e-09
0
1.39043e-09
0
1.39275e-09
-1.48029e-17
1.39507e-09
0
1.39737e-09
0
1.39966e-09
0
1.40194e-09
-1.48029e-17
1.40422e-09
0
1.4065e-09
0
1.4088e-09
-1.48029e-17
1.41112e-09
-3.72561e-27
1.41347e-09
0
1.41588e-09
-1.48029e-17
1.41835e-09
0
1.42088e-09
1.48029e-17
1.42349e-09
1.48029e-17
1.42616e-09
-3.75171e-27
1.4289e-09
-1.48029e-17
1.43171e-09
-1.48029e-17
1.43458e-09
0
1.43749e-09
-1.48029e-17
1.44043e-09
0
1.4434e-09
0
1.44638e-09
0
1.44937e-09
1.48029e-17
1.45237e-09
-3.98494e-27
1.45538e-09
0
1.45841e-09
0
1.46148e-09
1.48029e-17
1.46458e-09
0
1.4677e-09
0
1.47083e-09
0
1.47396e-09
4.01744e-27
1.4771e-09
0
1.48028e-09
0
1.4835e-09
-1.48029e-17
1.48679e-09
1.48029e-17
1.49016e-09
1.48029e-17
1.49361e-09
1.48029e-17
1.49716e-09
0
1.50079e-09
0
1.50451e-09
3.9225e-27
1.50831e-09
0
1.51218e-09
0
1.51613e-09
0
1.52014e-09
0
1.52418e-09
-1.48029e-17
1.52823e-09
-4.62737e-27
1.53227e-09
0
1.53628e-09
-1.48029e-17
1.54024e-09
0