/*--------------------------------*- C++ -*----------------------------------*\
| =========                 |                                                 |
| \\      /  F ield         | foam-extend: Open Source CFD                    |
|  \\    /   O peration     | Version:     3.2                                |
|   \\  /    A nd           | Web:         http://www.foam-extend.org         |
|    \\/     M anipulation  | For copyright notice see file Copyright         |
\*---------------------------------------------------------------------------*/
FoamFile
{
    version     2.0;
    format      ascii;
    class       tetPointVectorField;
    location    "120";
    object      motionU;
}
// * * * * * * * * * * * * * * * * * * * * * * * * * * * * * * * * * * * * * //

dimensions      [0 1 -1 0 0 0 0];

internalField   nonuniform List<vector> 
232832
(
(0 0 0)
(0 0 0)
(0 0 0)
(0 0 0)
(0 0 0)
(0 0 0)
(0 0 0)
(0 0 0)
(0 0 0)
(0 0 0)
(0 0 0)
(0 0 0)
(0 0 0)
(0 0 0)
(0 0 0)
(0 0 0)
(0 0 0)
(0 0 0)
(0 0 0)
(0 0 0)
(0 0 0)
(0 0 0)
(0 0 0)
(0 0 0)
(0 0 0)
(0 0 0)
(0 0 0)
(0 0 0)
(0 0 0)
(0 0 0)
(0 0 0)
(0 0 0)
(0 0 0)
(0 0 0)
(0 0 0)
(0 0 0)
(0 0 0)
(0 0 0)
(0 0 0)
(0 0 0)
(0 0 0)
(0 0 0)
(0 0 0)
(0 0 0)
(0 0 0)
(0 0 0)
(0 0 0)
(0 0 0)
(0 0 0)
(0 0 0)
(0 0 0)
(0 0 0)
(0 0 0)
(0 0 0)
(0 0 0)
(0 0 0)
(0 0 0)
(0 0 0)
(0 0 0)
(0 0 0)
(0 0 0)
(0 0 0)
(0 0 0)
(0 0 0)
(0 0 0)
(0 0 0)
(0 0 0)
(0 0 0)
(0 0 0)
(0 0 0)
(0 0 0)
(0 0 0)
(0 0 0)
(0 0 0)
(0 0 0)
(0 0 0)
(0 0 0)
(0 0 0)
(0 0 0)
(0 0 0)
(0 0 0)
(0 0 0)
(0 0 0)
(0 0 0)
(0 0 0)
(0 0 0)
(0 0 0)
(0 0 0)
(0 0 0)
(0 0 0)
(0 0 0)
(0 0 0)
(0 0 0)
(0 0 0)
(0 0 0)
(0 0 0)
(0 0 0)
(0 0 0)
(0 0 0)
(0 0 0)
(0 0 0)
(0 0 0)
(0 0 0)
(0 0 0)
(0 0 0)
(0 0 0)
(0 0 0)
(0 0 0)
(0 0 0)
(0 0 0)
(0 0 0)
(0 0 0)
(0 0 0)
(0 0 0)
(0 0 0)
(0 0 0)
(0 0 0)
(0 0 0)
(0 0 0)
(0 0 0)
(0 0 0)
(0 0 0)
(0 0 0)
(0 0 0)
(0 0 0)
(0 0 0)
(0 0 0)
(0 0 0)
(0 0 0)
(0 0 0)
(0 0 0)
(0 0 0)
(0 0 0)
(0 0 0)
(0 0 0)
(0 0 0)
(0 0 0)
(0 0 0)
(0 0 0)
(0 0 0)
(0 0 0)
(0 0 0)
(0 0 0)
(0 0 0)
(0 0 0)
(0 0 0)
(0 0 0)
(0 0 0)
(0 0 0)
(0 0 0)
(0 0 0)
(0 0 0)
(0 0 0)
(0 0 0)
(0 0 0)
(0 0 0)
(0 0 0)
(0 0 0)
(0 0 0)
(0 0 0)
(0 0 0)
(0 0 0)
(0 0 0)
(0 0 0)
(0 0 0)
(0 0 0)
(0 0 0)
(0 0 0)
(0 0 0)
(0 0 0)
(0 0 0)
(0 0 0)
(0 0 0)
(0 0 0)
(0 0 0)
(0 0 0)
(0 0 0)
(0 0 0)
(0 0 0)
(0 0 0)
(0 0 0)
(0 0 0)
(0 0 0)
(0 0 0)
(0 0 0)
(0 0 0)
(0 0 0)
(0 0 0)
(0 0 0)
(0 0 0)
(0 0 0)
(0 0 0)
(0 0 0)
(0 0 0)
(0 0 0)
(0 0 0)
(0 0 0)
(0 0 0)
(0 0 0)
(0 0 0)
(0 0 0)
(0 0 0)
(0 0 0)
(0 0 0)
(0 0 0)
(0 0 0)
(0 0 0)
(0 0 0)
(0 0 0)
(0 0 0)
(0 0 0)
(0 0 0)
(0 0 0)
(0 0 0)
(0 0 0)
(0 0 0)
(0 0 0)
(0 0 0)
(0 0 0)
(0 0 0)
(0 0 0)
(0 0 0)
(0 0 0)
(0 0 0)
(0 0 0)
(0 0 0)
(0 0 0)
(0 0 0)
(0 0 0)
(0 0 0)
(0 0 0)
(0 0 0)
(0 0 0)
(0 0 0)
(0 0 0)
(0 0 0)
(0 0 8.77374e-10)
(0 0 1.68233e-08)
(0 0 1.52661e-08)
(0 0 -9.42864e-09)
(0 0 1.49118e-09)
(0 0 2.47071e-08)
(0 0 3.30065e-08)
(0 0 4.08368e-08)
(0 0 4.82271e-08)
(0 0 5.6004e-08)
(0 0 6.45006e-08)
(0 0 7.30374e-08)
(0 0 8.1421e-08)
(0 0 8.99058e-08)
(0 0 9.85683e-08)
(0 0 1.07409e-07)
(0 0 1.16429e-07)
(0 0 1.25654e-07)
(0 0 1.35113e-07)
(0 0 1.44812e-07)
(0 0 1.54728e-07)
(0 0 1.64827e-07)
(0 0 1.75069e-07)
(0 0 1.85425e-07)
(0 0 1.95883e-07)
(0 0 2.06444e-07)
(0 0 2.1711e-07)
(0 0 2.27876e-07)
(0 0 2.38725e-07)
(0 0 2.49628e-07)
(0 0 2.6056e-07)
(0 0 2.71501e-07)
(0 0 2.82439e-07)
(0 0 2.93367e-07)
(0 0 3.04271e-07)
(0 0 3.15132e-07)
(0 0 3.2592e-07)
(0 0 3.36607e-07)
(0 0 3.47176e-07)
(0 0 3.57626e-07)
(0 0 3.67974e-07)
(0 0 3.78238e-07)
(0 0 3.88428e-07)
(0 0 3.98535e-07)
(0 0 4.08535e-07)
(0 0 4.18388e-07)
(0 0 4.28051e-07)
(0 0 4.37484e-07)
(0 0 4.4666e-07)
(0 0 4.55561e-07)
(0 0 4.64182e-07)
(0 0 4.72521e-07)
(0 0 4.80584e-07)
(0 0 4.88376e-07)
(0 0 4.95898e-07)
(0 0 5.03148e-07)
(0 0 5.10115e-07)
(0 0 5.1679e-07)
(0 0 5.23165e-07)
(0 0 5.29239e-07)
(0 0 5.35025e-07)
(0 0 5.40541e-07)
(0 0 5.45818e-07)
(0 0 5.50892e-07)
(0 0 5.55803e-07)
(0 0 5.60588e-07)
(0 0 5.6528e-07)
(0 0 5.699e-07)
(0 0 5.7446e-07)
(0 0 5.78956e-07)
(0 0 5.83374e-07)
(0 0 5.87692e-07)
(0 0 5.91881e-07)
(0 0 5.95914e-07)
(0 0 5.99775e-07)
(0 0 6.03455e-07)
(0 0 6.06961e-07)
(0 0 6.10306e-07)
(0 0 6.13507e-07)
(0 0 6.16578e-07)
(0 0 6.19531e-07)
(0 0 6.22368e-07)
(0 0 6.25087e-07)
(0 0 6.27682e-07)
(0 0 6.30141e-07)
(0 0 6.32455e-07)
(0 0 6.34617e-07)
(0 0 6.36628e-07)
(0 0 6.38494e-07)
(0 0 6.40233e-07)
(0 0 6.41867e-07)
(0 0 6.43418e-07)
(0 0 6.44904e-07)
(0 0 6.46331e-07)
(0 0 6.47701e-07)
(0 0 6.49011e-07)
(0 0 6.5026e-07)
(0 0 6.5145e-07)
(0 0 6.52594e-07)
(0 0 6.53713e-07)
(0 0 6.54832e-07)
(0 0 6.55971e-07)
(0 0 6.57149e-07)
(0 0 6.58383e-07)
(0 0 6.59693e-07)
(0 0 6.61103e-07)
(0 0 6.6265e-07)
(0 0 6.64373e-07)
(0 0 6.66314e-07)
(0 0 6.68509e-07)
(0 0 6.70991e-07)
(0 0 6.73784e-07)
(0 0 6.76908e-07)
(0 0 6.80379e-07)
(0 0 6.8421e-07)
(0 0 6.88408e-07)
(0 0 6.9297e-07)
(0 0 6.9788e-07)
(0 0 7.03108e-07)
(0 0 7.08617e-07)
(0 0 7.14372e-07)
(0 0 7.20342e-07)
(0 0 7.2651e-07)
(0 0 7.3287e-07)
(0 0 7.39428e-07)
(0 0 7.46196e-07)
(0 0 7.53192e-07)
(0 0 7.60426e-07)
(0 0 7.67903e-07)
(0 0 7.75617e-07)
(0 0 7.83558e-07)
(0 0 7.91714e-07)
(0 0 8.0008e-07)
(0 0 8.08655e-07)
(0 0 8.17448e-07)
(0 0 8.26476e-07)
(0 0 8.35761e-07)
(0 0 8.45331e-07)
(0 0 8.55211e-07)
(0 0 8.65413e-07)
(0 0 8.75933e-07)
(0 0 8.8675e-07)
(0 0 8.97839e-07)
(0 0 9.09173e-07)
(0 0 9.20732e-07)
(0 0 9.32502e-07)
(0 0 9.44471e-07)
(0 0 9.56621e-07)
(0 0 9.68936e-07)
(0 0 9.81399e-07)
(0 0 9.93997e-07)
(0 0 1.00672e-06)
(0 0 1.01957e-06)
(0 0 1.03253e-06)
(0 0 1.04557e-06)
(0 0 1.05866e-06)
(0 0 1.07178e-06)
(0 0 1.0849e-06)
(0 0 1.09803e-06)
(0 0 1.11117e-06)
(0 0 1.12432e-06)
(0 0 1.13751e-06)
(0 0 1.15073e-06)
(0 0 1.16399e-06)
(0 0 1.17728e-06)
(0 0 1.19058e-06)
(0 0 1.20386e-06)
(0 0 1.21709e-06)
(0 0 1.23028e-06)
(0 0 1.24341e-06)
(0 0 1.25648e-06)
(0 0 1.26952e-06)
(0 0 1.28252e-06)
(0 0 1.29551e-06)
(0 0 1.30849e-06)
(0 0 1.32148e-06)
(0 0 1.33449e-06)
(0 0 1.34754e-06)
(0 0 1.36063e-06)
(0 0 1.37378e-06)
(0 0 1.38697e-06)
(0 0 1.40021e-06)
(0 0 1.4135e-06)
(0 0 1.42681e-06)
(0 0 1.44015e-06)
(0 0 1.4535e-06)
(0 0 1.46682e-06)
(0 0 1.48012e-06)
(0 0 1.49337e-06)
(0 0 1.50657e-06)
(0 0 1.51969e-06)
(0 0 1.53272e-06)
(0 0 1.54563e-06)
(0 0 1.55838e-06)
(0 0 1.57095e-06)
(0 0 1.5833e-06)
(0 0 1.59541e-06)
(0 0 1.60728e-06)
(0 0 1.61888e-06)
(0 0 1.63022e-06)
(0 0 1.6413e-06)
(0 0 1.65212e-06)
(0 0 1.66268e-06)
(0 0 1.67296e-06)
(0 0 1.68295e-06)
(0 0 1.69261e-06)
(0 0 1.70195e-06)
(0 0 1.71096e-06)
(0 0 1.71965e-06)
(0 0 1.72803e-06)
(0 0 1.73615e-06)
(0 0 1.74404e-06)
(0 0 1.75173e-06)
(0 0 1.75925e-06)
(0 0 1.76664e-06)
(0 0 1.7739e-06)
(0 0 1.78103e-06)
(0 0 1.78802e-06)
(0 0 1.79485e-06)
(0 0 1.8015e-06)
(0 0 1.80795e-06)
(0 0 1.81422e-06)
(0 0 1.82034e-06)
(0 0 1.82635e-06)
(0 0 1.83231e-06)
(0 0 1.83824e-06)
(0 0 1.84419e-06)
(0 0 1.85016e-06)
(0 0 1.85616e-06)
(0 0 1.86217e-06)
(0 0 1.86815e-06)
(0 0 1.87406e-06)
(0 0 1.87987e-06)
(0 0 1.88558e-06)
(0 0 1.8912e-06)
(0 0 1.89675e-06)
(0 0 1.90225e-06)
(0 0 1.9077e-06)
(0 0 1.91307e-06)
(0 0 1.91833e-06)
(0 0 1.92346e-06)
(0 0 1.92843e-06)
(0 0 1.93327e-06)
(0 0 1.93798e-06)
(0 0 1.94259e-06)
(0 0 1.94713e-06)
(0 0 1.95161e-06)
(0 0 1.95604e-06)
(0 0 1.96046e-06)
(0 0 1.96488e-06)
(0 0 1.96936e-06)
(0 0 1.97392e-06)
(0 0 1.97861e-06)
(0 0 1.98342e-06)
(0 0 1.98839e-06)
(0 0 1.99349e-06)
(0 0 1.99874e-06)
(0 0 2.00413e-06)
(0 0 2.00961e-06)
(0 0 2.01517e-06)
(0 0 2.02077e-06)
(0 0 2.02635e-06)
(0 0 2.03192e-06)
(0 0 2.03748e-06)
(0 0 2.04306e-06)
(0 0 2.04872e-06)
(0 0 2.05454e-06)
(0 0 2.0606e-06)
(0 0 2.06697e-06)
(0 0 2.07369e-06)
(0 0 2.08076e-06)
(0 0 2.08817e-06)
(0 0 2.09586e-06)
(0 0 2.10378e-06)
(0 0 2.11189e-06)
(0 0 2.12018e-06)
(0 0 2.12863e-06)
(0 0 2.13726e-06)
(0 0 2.14606e-06)
(0 0 2.155e-06)
(0 0 2.16404e-06)
(0 0 2.17313e-06)
(0 0 2.18227e-06)
(0 0 2.19154e-06)
(0 0 2.20104e-06)
(0 0 2.21096e-06)
(0 0 2.22148e-06)
(0 0 2.23281e-06)
(0 0 2.24512e-06)
(0 0 2.25885e-06)
(0 0 2.27427e-06)
(0 0 2.29226e-06)
(0 0 2.31378e-06)
(0 0 2.34067e-06)
(0 0 2.37511e-06)
(0 0 2.42059e-06)
(0 0 2.48116e-06)
(0 0 2.5637e-06)
(0 0 2.67532e-06)
(0 0 2.82714e-06)
(0 0 3.0399e-06)
(0 0 3.20925e-06)
(0 0 3.65596e-06)
(0 0 2.02882e-06)
(0 0 0)
(0 0 0)
(0 0 0)
(0 0 0)
(0 0 0)
(0 0 0)
(0 0 0)
(0 0 0)
(0 0 0)
(0 0 0)
(0 0 0)
(0 0 0)
(0 0 0)
(0 0 0)
(0 0 0)
(0 0 0)
(0 0 0)
(0 0 0)
(0 0 0)
(0 0 0)
(0 0 0)
(0 0 0)
(0 0 0)
(0 0 0)
(0 0 0)
(0 0 0)
(0 0 0)
(0 0 0)
(0 0 0)
(0 0 0)
(0 0 0)
(0 0 0)
(0 0 0)
(0 0 0)
(0 0 0)
(0 0 0)
(0 0 0)
(0 0 0)
(0 0 0)
(0 0 0)
(0 0 0)
(0 0 0)
(0 0 0)
(0 0 0)
(0 0 0)
(0 0 0)
(0 0 0)
(0 0 0)
(0 0 0)
(0 0 0)
(0 0 0)
(0 0 0)
(0 0 0)
(0 0 0)
(0 0 0)
(0 0 0)
(0 0 0)
(0 0 0)
(0 0 0)
(0 0 0)
(0 0 0)
(0 0 0)
(0 0 0)
(0 0 0)
(0 0 0)
(0 0 0)
(0 0 0)
(0 0 0)
(0 0 0)
(0 0 0)
(0 0 0)
(0 0 0)
(0 0 0)
(0 0 0)
(0 0 0)
(0 0 0)
(0 0 0)
(0 0 0)
(0 0 0)
(0 0 0)
(0 0 0)
(0 0 0)
(0 0 0)
(0 0 0)
(0 0 0)
(0 0 0)
(0 0 0)
(0 0 0)
(0 0 0)
(0 0 0)
(0 0 0)
(0 0 0)
(0 0 0)
(0 0 0)
(0 0 0)
(0 0 0)
(0 0 0)
(0 0 0)
(0 0 0)
(0 0 0)
(0 0 0)
(0 0 0)
(0 0 0)
(0 0 0)
(0 0 0)
(0 0 0)
(0 0 0)
(0 0 0)
(0 0 0)
(0 0 0)
(0 0 0)
(0 0 0)
(0 0 0)
(0 0 0)
(0 0 0)
(0 0 0)
(0 0 0)
(0 0 0)
(0 0 0)
(0 0 0)
(0 0 0)
(0 0 0)
(0 0 0)
(0 0 0)
(0 0 0)
(0 0 0)
(0 0 0)
(0 0 0)
(0 0 0)
(0 0 0)
(0 0 0)
(0 0 0)
(0 0 0)
(0 0 0)
(0 0 0)
(0 0 0)
(0 0 0)
(0 0 0)
(0 0 0)
(0 0 0)
(0 0 0)
(0 0 0)
(0 0 0)
(0 0 0)
(0 0 0)
(0 0 0)
(0 0 0)
(0 0 0)
(0 0 0)
(0 0 0)
(0 0 0)
(0 0 0)
(0 0 0)
(0 0 0)
(0 0 0)
(0 0 0)
(0 0 0)
(0 0 0)
(0 0 0)
(0 0 0)
(0 0 0)
(0 0 0)
(0 0 0)
(0 0 0)
(0 0 0)
(0 0 0)
(0 0 0)
(0 0 0)
(0 0 0)
(0 0 0)
(0 0 0)
(0 0 0)
(0 0 0)
(0 0 0)
(0 0 0)
(0 0 0)
(0 0 0)
(0 0 0)
(0 0 0)
(0 0 0)
(0 0 0)
(0 0 0)
(0 0 0)
(0 0 0)
(0 0 0)
(0 0 0)
(0 0 0)
(0 0 0)
(0 0 0)
(0 0 0)
(0 0 0)
(0 0 0)
(0 0 0)
(0 0 0)
(0 0 0)
(0 0 0)
(0 0 0)
(0 0 0)
(0 0 0)
(0 0 0)
(0 0 0)
(0 0 0)
(0 0 0)
(0 0 0)
(0 0 0)
(0 0 0)
(0 0 0)
(0 0 0)
(0 0 0)
(0 0 0)
(0 0 0)
(0 0 0)
(0 0 0)
(0 0 0)
(0 0 0)
(0 0 0)
(0 0 0)
(0 0 0)
(0 0 0)
(0 0 0)
(0 0 0)
(0 0 0)
(0 0 0)
(0 0 0)
(0 0 0)
(0 0 0)
(0 0 0)
(0 0 0)
(0 0 0)
(0 0 0)
(0 0 0)
(0 0 0)
(0 0 0)
(0 0 0)
(0 0 0)
(0 0 0)
(0 0 0)
(0 0 0)
(0 0 0)
(0 0 0)
(0 0 0)
(0 0 0)
(0 0 0)
(0 0 0)
(0 0 0)
(0 0 0)
(0 0 0)
(0 0 8.77374e-10)
(0 0 1.68233e-08)
(0 0 1.52661e-08)
(0 0 -9.42864e-09)
(0 0 1.49118e-09)
(0 0 2.47071e-08)
(0 0 3.30065e-08)
(0 0 4.08368e-08)
(0 0 4.82271e-08)
(0 0 5.6004e-08)
(0 0 6.45006e-08)
(0 0 7.30374e-08)
(0 0 8.1421e-08)
(0 0 8.99058e-08)
(0 0 9.85683e-08)
(0 0 1.07409e-07)
(0 0 1.16429e-07)
(0 0 1.25654e-07)
(0 0 1.35113e-07)
(0 0 1.44812e-07)
(0 0 1.54728e-07)
(0 0 1.64827e-07)
(0 0 1.75069e-07)
(0 0 1.85425e-07)
(0 0 1.95883e-07)
(0 0 2.06444e-07)
(0 0 2.1711e-07)
(0 0 2.27876e-07)
(0 0 2.38725e-07)
(0 0 2.49628e-07)
(0 0 2.6056e-07)
(0 0 2.71501e-07)
(0 0 2.82439e-07)
(0 0 2.93367e-07)
(0 0 3.04271e-07)
(0 0 3.15132e-07)
(0 0 3.2592e-07)
(0 0 3.36607e-07)
(0 0 3.47176e-07)
(0 0 3.57626e-07)
(0 0 3.67974e-07)
(0 0 3.78238e-07)
(0 0 3.88428e-07)
(0 0 3.98535e-07)
(0 0 4.08535e-07)
(0 0 4.18388e-07)
(0 0 4.28051e-07)
(0 0 4.37484e-07)
(0 0 4.4666e-07)
(0 0 4.55561e-07)
(0 0 4.64182e-07)
(0 0 4.72521e-07)
(0 0 4.80584e-07)
(0 0 4.88376e-07)
(0 0 4.95898e-07)
(0 0 5.03148e-07)
(0 0 5.10115e-07)
(0 0 5.1679e-07)
(0 0 5.23165e-07)
(0 0 5.29239e-07)
(0 0 5.35025e-07)
(0 0 5.40541e-07)
(0 0 5.45818e-07)
(0 0 5.50892e-07)
(0 0 5.55803e-07)
(0 0 5.60588e-07)
(0 0 5.6528e-07)
(0 0 5.699e-07)
(0 0 5.7446e-07)
(0 0 5.78956e-07)
(0 0 5.83374e-07)
(0 0 5.87692e-07)
(0 0 5.91881e-07)
(0 0 5.95914e-07)
(0 0 5.99775e-07)
(0 0 6.03455e-07)
(0 0 6.06961e-07)
(0 0 6.10306e-07)
(0 0 6.13507e-07)
(0 0 6.16578e-07)
(0 0 6.19531e-07)
(0 0 6.22368e-07)
(0 0 6.25087e-07)
(0 0 6.27682e-07)
(0 0 6.30141e-07)
(0 0 6.32455e-07)
(0 0 6.34617e-07)
(0 0 6.36628e-07)
(0 0 6.38494e-07)
(0 0 6.40233e-07)
(0 0 6.41867e-07)
(0 0 6.43418e-07)
(0 0 6.44904e-07)
(0 0 6.46331e-07)
(0 0 6.47701e-07)
(0 0 6.49011e-07)
(0 0 6.5026e-07)
(0 0 6.5145e-07)
(0 0 6.52594e-07)
(0 0 6.53713e-07)
(0 0 6.54832e-07)
(0 0 6.55971e-07)
(0 0 6.57149e-07)
(0 0 6.58383e-07)
(0 0 6.59693e-07)
(0 0 6.61103e-07)
(0 0 6.6265e-07)
(0 0 6.64373e-07)
(0 0 6.66314e-07)
(0 0 6.68509e-07)
(0 0 6.70991e-07)
(0 0 6.73784e-07)
(0 0 6.76908e-07)
(0 0 6.80379e-07)
(0 0 6.8421e-07)
(0 0 6.88408e-07)
(0 0 6.9297e-07)
(0 0 6.9788e-07)
(0 0 7.03108e-07)
(0 0 7.08617e-07)
(0 0 7.14372e-07)
(0 0 7.20342e-07)
(0 0 7.2651e-07)
(0 0 7.3287e-07)
(0 0 7.39428e-07)
(0 0 7.46196e-07)
(0 0 7.53192e-07)
(0 0 7.60426e-07)
(0 0 7.67903e-07)
(0 0 7.75617e-07)
(0 0 7.83558e-07)
(0 0 7.91714e-07)
(0 0 8.0008e-07)
(0 0 8.08655e-07)
(0 0 8.17448e-07)
(0 0 8.26476e-07)
(0 0 8.35761e-07)
(0 0 8.45331e-07)
(0 0 8.55211e-07)
(0 0 8.65413e-07)
(0 0 8.75933e-07)
(0 0 8.8675e-07)
(0 0 8.97839e-07)
(0 0 9.09173e-07)
(0 0 9.20732e-07)
(0 0 9.32502e-07)
(0 0 9.44471e-07)
(0 0 9.56621e-07)
(0 0 9.68936e-07)
(0 0 9.81399e-07)
(0 0 9.93997e-07)
(0 0 1.00672e-06)
(0 0 1.01957e-06)
(0 0 1.03253e-06)
(0 0 1.04557e-06)
(0 0 1.05866e-06)
(0 0 1.07178e-06)
(0 0 1.0849e-06)
(0 0 1.09803e-06)
(0 0 1.11117e-06)
(0 0 1.12432e-06)
(0 0 1.13751e-06)
(0 0 1.15073e-06)
(0 0 1.16399e-06)
(0 0 1.17728e-06)
(0 0 1.19058e-06)
(0 0 1.20386e-06)
(0 0 1.21709e-06)
(0 0 1.23028e-06)
(0 0 1.24341e-06)
(0 0 1.25648e-06)
(0 0 1.26952e-06)
(0 0 1.28252e-06)
(0 0 1.29551e-06)
(0 0 1.30849e-06)
(0 0 1.32148e-06)
(0 0 1.33449e-06)
(0 0 1.34754e-06)
(0 0 1.36063e-06)
(0 0 1.37378e-06)
(0 0 1.38697e-06)
(0 0 1.40021e-06)
(0 0 1.4135e-06)
(0 0 1.42681e-06)
(0 0 1.44015e-06)
(0 0 1.4535e-06)
(0 0 1.46682e-06)
(0 0 1.48012e-06)
(0 0 1.49337e-06)
(0 0 1.50657e-06)
(0 0 1.51969e-06)
(0 0 1.53272e-06)
(0 0 1.54563e-06)
(0 0 1.55838e-06)
(0 0 1.57095e-06)
(0 0 1.5833e-06)
(0 0 1.59541e-06)
(0 0 1.60728e-06)
(0 0 1.61888e-06)
(0 0 1.63022e-06)
(0 0 1.6413e-06)
(0 0 1.65212e-06)
(0 0 1.66268e-06)
(0 0 1.67296e-06)
(0 0 1.68295e-06)
(0 0 1.69261e-06)
(0 0 1.70195e-06)
(0 0 1.71096e-06)
(0 0 1.71965e-06)
(0 0 1.72803e-06)
(0 0 1.73615e-06)
(0 0 1.74404e-06)
(0 0 1.75173e-06)
(0 0 1.75925e-06)
(0 0 1.76664e-06)
(0 0 1.7739e-06)
(0 0 1.78103e-06)
(0 0 1.78802e-06)
(0 0 1.79485e-06)
(0 0 1.8015e-06)
(0 0 1.80795e-06)
(0 0 1.81422e-06)
(0 0 1.82034e-06)
(0 0 1.82635e-06)
(0 0 1.83231e-06)
(0 0 1.83824e-06)
(0 0 1.84419e-06)
(0 0 1.85016e-06)
(0 0 1.85616e-06)
(0 0 1.86217e-06)
(0 0 1.86815e-06)
(0 0 1.87406e-06)
(0 0 1.87987e-06)
(0 0 1.88558e-06)
(0 0 1.8912e-06)
(0 0 1.89675e-06)
(0 0 1.90225e-06)
(0 0 1.9077e-06)
(0 0 1.91307e-06)
(0 0 1.91833e-06)
(0 0 1.92346e-06)
(0 0 1.92843e-06)
(0 0 1.93327e-06)
(0 0 1.93798e-06)
(0 0 1.94259e-06)
(0 0 1.94713e-06)
(0 0 1.95161e-06)
(0 0 1.95604e-06)
(0 0 1.96046e-06)
(0 0 1.96488e-06)
(0 0 1.96936e-06)
(0 0 1.97392e-06)
(0 0 1.97861e-06)
(0 0 1.98342e-06)
(0 0 1.98839e-06)
(0 0 1.99349e-06)
(0 0 1.99874e-06)
(0 0 2.00413e-06)
(0 0 2.00961e-06)
(0 0 2.01517e-06)
(0 0 2.02077e-06)
(0 0 2.02635e-06)
(0 0 2.03192e-06)
(0 0 2.03748e-06)
(0 0 2.04306e-06)
(0 0 2.04872e-06)
(0 0 2.05454e-06)
(0 0 2.0606e-06)
(0 0 2.06697e-06)
(0 0 2.07369e-06)
(0 0 2.08076e-06)
(0 0 2.08817e-06)
(0 0 2.09586e-06)
(0 0 2.10378e-06)
(0 0 2.11189e-06)
(0 0 2.12018e-06)
(0 0 2.12863e-06)
(0 0 2.13726e-06)
(0 0 2.14606e-06)
(0 0 2.155e-06)
(0 0 2.16404e-06)
(0 0 2.17313e-06)
(0 0 2.18227e-06)
(0 0 2.19154e-06)
(0 0 2.20104e-06)
(0 0 2.21096e-06)
(0 0 2.22148e-06)
(0 0 2.23281e-06)
(0 0 2.24512e-06)
(0 0 2.25885e-06)
(0 0 2.27427e-06)
(0 0 2.29226e-06)
(0 0 2.31378e-06)
(0 0 2.34067e-06)
(0 0 2.37511e-06)
(0 0 2.42059e-06)
(0 0 2.48116e-06)
(0 0 2.5637e-06)
(0 0 2.67532e-06)
(0 0 2.82714e-06)
(0 0 3.0399e-06)
(0 0 3.20925e-06)
(0 0 3.65596e-06)
(0 0 2.02882e-06)
(0 0 0)
(0 0 0)
(0 0 0)
(0 0 0)
(0 0 0)
(0 0 0)
(0 0 0)
(0 0 0)
(0 0 0)
(0 0 0)
(0 0 0)
(0 0 0)
(0 0 2.04667e-41)
(0 0 4.23844e-41)
(0 0 6.74405e-41)
(0 0 9.75183e-41)
(0 0 1.34868e-40)
(0 0 1.82278e-40)
(0 0 2.43284e-40)
(0 0 3.22433e-40)
(0 0 4.25621e-40)
(0 0 5.6053e-40)
(0 0 7.37201e-40)
(0 0 9.68777e-40)
(0 0 1.27248e-39)
(0 0 1.6709e-39)
(0 0 2.19363e-39)
(0 0 2.87953e-39)
(0 0 3.77954e-39)
(0 0 4.9605e-39)
(0 0 6.51009e-39)
(0 0 8.54333e-39)
(0 0 1.12111e-38)
(0 0 1.47114e-38)
(0 0 1.93038e-38)
(0 0 2.53289e-38)
(0 0 3.32337e-38)
(0 0 4.36042e-38)
(0 0 5.72094e-38)
(0 0 7.5058e-38)
(0 0 9.84731e-38)
(0 0 1.2919e-37)
(0 0 1.69487e-37)
(0 0 2.22351e-37)
(0 0 2.917e-37)
(0 0 3.82675e-37)
(0 0 5.02022e-37)
(0 0 6.5859e-37)
(0 0 8.63988e-37)
(0 0 1.13345e-36)
(0 0 1.48696e-36)
(0 0 1.95074e-36)
(0 0 2.55921e-36)
(0 0 3.35752e-36)
(0 0 4.40492e-36)
(0 0 5.77917e-36)
(0 0 7.58232e-36)
(0 0 9.94829e-36)
(0 0 1.30529e-35)
(0 0 1.71267e-35)
(0 0 2.24727e-35)
(0 0 2.94882e-35)
(0 0 3.86951e-35)
(0 0 5.07782e-35)
(0 0 6.66366e-35)
(0 0 8.74508e-35)
(0 0 1.1477e-34)
(0 0 1.5063e-34)
(0 0 1.97701e-34)
(0 0 2.5949e-34)
(0 0 3.40604e-34)
(0 0 4.47089e-34)
(0 0 5.86886e-34)
(0 0 7.70423e-34)
(0 0 1.01139e-33)
(0 0 1.32777e-33)
(0 0 1.74319e-33)
(0 0 2.28864e-33)
(0 0 3.00485e-33)
(0 0 3.94532e-33)
(0 0 5.18028e-33)
(0 0 6.80199e-33)
(0 0 8.93159e-33)
(0 0 1.17282e-32)
(0 0 1.54008e-32)
(0 0 2.02238e-32)
(0 0 2.65577e-32)
(0 0 3.48757e-32)
(0 0 4.57996e-32)
(0 0 6.01458e-32)
(0 0 7.89863e-32)
(0 0 1.03729e-31)
(0 0 1.36224e-31)
(0 0 1.78898e-31)
(0 0 2.34941e-31)
(0 0 3.0854e-31)
(0 0 4.05194e-31)
(0 0 5.32124e-31)
(0 0 6.98813e-31)
(0 0 9.17711e-31)
(0 0 1.20517e-30)
(0 0 1.58266e-30)
(0 0 2.07837e-30)
(0 0 2.72932e-30)
(0 0 3.58412e-30)
(0 0 4.7066e-30)
(0 0 6.18057e-30)
(0 0 8.11609e-30)
(0 0 1.06577e-29)
(0 0 1.39951e-29)
(0 0 1.83777e-29)
(0 0 2.41325e-29)
(0 0 3.16896e-29)
(0 0 4.16131e-29)
(0 0 5.46446e-29)
(0 0 7.17574e-29)
(0 0 9.42305e-29)
(0 0 1.23743e-28)
(0 0 1.62502e-28)
(0 0 2.13405e-28)
(0 0 2.8026e-28)
(0 0 3.68068e-28)
(0 0 4.83401e-28)
(0 0 6.34893e-28)
(0 0 8.33891e-28)
(0 0 1.0953e-27)
(0 0 1.43872e-27)
(0 0 1.8899e-27)
(0 0 2.48269e-27)
(0 0 3.26156e-27)
(0 0 4.28502e-27)
(0 0 5.62992e-27)
(0 0 7.39737e-27)
(0 0 9.72024e-27)
(0 0 1.27733e-26)
(0 0 1.67863e-26)
(0 0 2.20615e-26)
(0 0 2.89963e-26)
(0 0 3.81134e-26)
(0 0 5.01005e-26)
(0 0 6.58619e-26)
(0 0 8.65877e-26)
(0 0 1.13843e-25)
(0 0 1.49688e-25)
(0 0 1.96833e-25)
(0 0 2.58843e-25)
(0 0 3.40414e-25)
(0 0 4.47721e-25)
(0 0 5.88894e-25)
(0 0 7.74632e-25)
(0 0 1.01902e-24)
(0 0 1.34059e-24)
(0 0 1.76375e-24)
(0 0 2.32063e-24)
(0 0 3.05354e-24)
(0 0 4.01818e-24)
(0 0 5.28787e-24)
(0 0 6.95921e-24)
(0 0 9.15936e-24)
(0 0 1.20558e-23)
(0 0 1.58691e-23)
(0 0 2.08897e-23)
(0 0 2.75002e-23)
(0 0 3.62045e-23)
(0 0 4.76663e-23)
(0 0 6.27595e-23)
(0 0 8.26355e-23)
(0 0 1.08811e-22)
(0 0 1.43282e-22)
(0 0 1.88681e-22)
(0 0 2.48472e-22)
(0 0 3.27217e-22)
(0 0 4.30927e-22)
(0 0 5.67517e-22)
(0 0 7.47411e-22)
(0 0 9.84337e-22)
(0 0 1.29637e-21)
(0 0 1.70732e-21)
(0 0 2.24853e-21)
(0 0 2.96127e-21)
(0 0 3.8999e-21)
(0 0 5.13599e-21)
(0 0 6.76375e-21)
(0 0 8.90725e-21)
(0 0 1.17298e-20)
(0 0 1.54466e-20)
(0 0 2.03407e-20)
(0 0 2.67852e-20)
(0 0 3.52709e-20)
(0 0 4.64445e-20)
(0 0 6.11575e-20)
(0 0 8.05313e-20)
(0 0 1.06043e-19)
(0 0 1.39638e-19)
(0 0 1.8388e-19)
(0 0 2.42144e-19)
(0 0 3.18882e-19)
(0 0 4.19954e-19)
(0 0 5.53089e-19)
(0 0 7.28471e-19)
(0 0 9.59526e-19)
(0 0 1.26396e-18)
(0 0 1.6651e-18)
(0 0 2.19374e-18)
(0 0 2.89046e-18)
(0 0 3.80881e-18)
(0 0 5.01945e-18)
(0 0 6.61557e-18)
(0 0 8.7202e-18)
(0 0 1.14957e-17)
(0 0 1.51565e-17)
(0 0 1.99855e-17)
(0 0 2.63569e-17)
(0 0 3.47647e-17)
(0 0 4.58618e-17)
(0 0 6.05116e-17)
(0 0 7.98562e-17)
(0 0 1.05407e-16)
(0 0 1.39163e-16)
(0 0 1.83773e-16)
(0 0 2.42746e-16)
(0 0 3.20733e-16)
(0 0 4.23902e-16)
(0 0 5.6044e-16)
(0 0 7.41227e-16)
(0 0 9.8075e-16)
(0 0 1.29834e-15)
(0 0 1.71987e-15)
(0 0 2.28003e-15)
(0 0 3.02551e-15)
(0 0 4.01939e-15)
(0 0 5.34769e-15)
(0 0 7.12866e-15)
(0 0 9.52318e-15)
(0 0 1.27437e-14)
(0 0 1.70717e-14)
(0 0 2.28957e-14)
(0 0 3.07649e-14)
(0 0 4.16212e-14)
(0 0 5.71008e-14)
(0 0 8.04978e-14)
(0 0 1.19203e-13)
(0 0 1.66093e-13)
(0 0 2.57273e-13)
(0 0 6.95672e-13)
(0 0 2.83142e-12)
(0 0 4.22563e-11)
(0 0 1.89832e-09)
(0 0 1.56486e-08)
(0 0 1.36995e-08)
(0 0 -7.01428e-09)
(0 0 2.29497e-09)
(0 0 2.36925e-08)
(0 0 3.29871e-08)
(0 0 4.07997e-08)
(0 0 4.82486e-08)
(0 0 5.60477e-08)
(0 0 6.44984e-08)
(0 0 7.30226e-08)
(0 0 8.14233e-08)
(0 0 8.99129e-08)
(0 0 9.85753e-08)
(0 0 1.07416e-07)
(0 0 1.16438e-07)
(0 0 1.25664e-07)
(0 0 1.35124e-07)
(0 0 1.44821e-07)
(0 0 1.54735e-07)
(0 0 1.64831e-07)
(0 0 1.75071e-07)
(0 0 1.85426e-07)
(0 0 1.95884e-07)
(0 0 2.06445e-07)
(0 0 2.1711e-07)
(0 0 2.27875e-07)
(0 0 2.38722e-07)
(0 0 2.49624e-07)
(0 0 2.60554e-07)
(0 0 2.71494e-07)
(0 0 2.82432e-07)
(0 0 2.93358e-07)
(0 0 3.04261e-07)
(0 0 3.1512e-07)
(0 0 3.25906e-07)
(0 0 3.36592e-07)
(0 0 3.47161e-07)
(0 0 3.57613e-07)
(0 0 3.67962e-07)
(0 0 3.78226e-07)
(0 0 3.88415e-07)
(0 0 3.98521e-07)
(0 0 4.08518e-07)
(0 0 4.18368e-07)
(0 0 4.28028e-07)
(0 0 4.3746e-07)
(0 0 4.46635e-07)
(0 0 4.55536e-07)
(0 0 4.64156e-07)
(0 0 4.72496e-07)
(0 0 4.8056e-07)
(0 0 4.88352e-07)
(0 0 4.95874e-07)
(0 0 5.03123e-07)
(0 0 5.1009e-07)
(0 0 5.16765e-07)
(0 0 5.23139e-07)
(0 0 5.29215e-07)
(0 0 5.35001e-07)
(0 0 5.4052e-07)
(0 0 5.458e-07)
(0 0 5.50876e-07)
(0 0 5.55789e-07)
(0 0 5.60577e-07)
(0 0 5.6527e-07)
(0 0 5.69892e-07)
(0 0 5.74451e-07)
(0 0 5.78946e-07)
(0 0 5.83363e-07)
(0 0 5.87679e-07)
(0 0 5.91866e-07)
(0 0 5.95898e-07)
(0 0 5.99758e-07)
(0 0 6.03439e-07)
(0 0 6.06946e-07)
(0 0 6.10292e-07)
(0 0 6.13494e-07)
(0 0 6.16566e-07)
(0 0 6.19519e-07)
(0 0 6.22356e-07)
(0 0 6.25075e-07)
(0 0 6.27669e-07)
(0 0 6.30128e-07)
(0 0 6.32441e-07)
(0 0 6.34603e-07)
(0 0 6.36615e-07)
(0 0 6.38482e-07)
(0 0 6.40223e-07)
(0 0 6.41858e-07)
(0 0 6.43411e-07)
(0 0 6.44897e-07)
(0 0 6.46324e-07)
(0 0 6.47694e-07)
(0 0 6.49004e-07)
(0 0 6.50253e-07)
(0 0 6.51444e-07)
(0 0 6.5259e-07)
(0 0 6.53711e-07)
(0 0 6.5483e-07)
(0 0 6.55971e-07)
(0 0 6.5715e-07)
(0 0 6.58386e-07)
(0 0 6.59697e-07)
(0 0 6.61109e-07)
(0 0 6.62659e-07)
(0 0 6.64385e-07)
(0 0 6.66328e-07)
(0 0 6.68525e-07)
(0 0 6.71009e-07)
(0 0 6.73803e-07)
(0 0 6.76928e-07)
(0 0 6.80399e-07)
(0 0 6.84231e-07)
(0 0 6.88428e-07)
(0 0 6.92989e-07)
(0 0 6.97896e-07)
(0 0 7.03122e-07)
(0 0 7.08628e-07)
(0 0 7.14381e-07)
(0 0 7.2035e-07)
(0 0 7.26517e-07)
(0 0 7.32877e-07)
(0 0 7.39436e-07)
(0 0 7.46206e-07)
(0 0 7.53201e-07)
(0 0 7.60436e-07)
(0 0 7.67912e-07)
(0 0 7.75626e-07)
(0 0 7.83566e-07)
(0 0 7.91721e-07)
(0 0 8.00087e-07)
(0 0 8.08662e-07)
(0 0 8.17457e-07)
(0 0 8.26485e-07)
(0 0 8.35772e-07)
(0 0 8.45344e-07)
(0 0 8.55225e-07)
(0 0 8.65426e-07)
(0 0 8.75944e-07)
(0 0 8.8676e-07)
(0 0 8.97846e-07)
(0 0 9.09179e-07)
(0 0 9.20737e-07)
(0 0 9.32506e-07)
(0 0 9.44473e-07)
(0 0 9.56623e-07)
(0 0 9.68936e-07)
(0 0 9.81398e-07)
(0 0 9.93995e-07)
(0 0 1.00672e-06)
(0 0 1.01957e-06)
(0 0 1.03252e-06)
(0 0 1.04556e-06)
(0 0 1.05865e-06)
(0 0 1.07177e-06)
(0 0 1.08489e-06)
(0 0 1.09802e-06)
(0 0 1.11116e-06)
(0 0 1.12431e-06)
(0 0 1.1375e-06)
(0 0 1.15073e-06)
(0 0 1.16399e-06)
(0 0 1.17727e-06)
(0 0 1.19056e-06)
(0 0 1.20384e-06)
(0 0 1.21708e-06)
(0 0 1.23026e-06)
(0 0 1.24339e-06)
(0 0 1.25647e-06)
(0 0 1.2695e-06)
(0 0 1.28251e-06)
(0 0 1.2955e-06)
(0 0 1.30848e-06)
(0 0 1.32147e-06)
(0 0 1.33448e-06)
(0 0 1.34753e-06)
(0 0 1.36062e-06)
(0 0 1.37377e-06)
(0 0 1.38696e-06)
(0 0 1.4002e-06)
(0 0 1.41349e-06)
(0 0 1.4268e-06)
(0 0 1.44014e-06)
(0 0 1.45348e-06)
(0 0 1.46681e-06)
(0 0 1.4801e-06)
(0 0 1.49335e-06)
(0 0 1.50655e-06)
(0 0 1.51967e-06)
(0 0 1.5327e-06)
(0 0 1.54561e-06)
(0 0 1.55836e-06)
(0 0 1.57092e-06)
(0 0 1.58327e-06)
(0 0 1.59538e-06)
(0 0 1.60725e-06)
(0 0 1.61885e-06)
(0 0 1.63019e-06)
(0 0 1.64127e-06)
(0 0 1.65209e-06)
(0 0 1.66265e-06)
(0 0 1.67293e-06)
(0 0 1.68291e-06)
(0 0 1.69258e-06)
(0 0 1.70191e-06)
(0 0 1.71092e-06)
(0 0 1.71961e-06)
(0 0 1.72801e-06)
(0 0 1.73613e-06)
(0 0 1.74401e-06)
(0 0 1.7517e-06)
(0 0 1.75923e-06)
(0 0 1.76662e-06)
(0 0 1.77388e-06)
(0 0 1.78101e-06)
(0 0 1.788e-06)
(0 0 1.79483e-06)
(0 0 1.80147e-06)
(0 0 1.80793e-06)
(0 0 1.8142e-06)
(0 0 1.82032e-06)
(0 0 1.82634e-06)
(0 0 1.83229e-06)
(0 0 1.83823e-06)
(0 0 1.84418e-06)
(0 0 1.85016e-06)
(0 0 1.85615e-06)
(0 0 1.86216e-06)
(0 0 1.86813e-06)
(0 0 1.87404e-06)
(0 0 1.87985e-06)
(0 0 1.88557e-06)
(0 0 1.89119e-06)
(0 0 1.89674e-06)
(0 0 1.90224e-06)
(0 0 1.90768e-06)
(0 0 1.91305e-06)
(0 0 1.91831e-06)
(0 0 1.92344e-06)
(0 0 1.92841e-06)
(0 0 1.93325e-06)
(0 0 1.93796e-06)
(0 0 1.94258e-06)
(0 0 1.94712e-06)
(0 0 1.9516e-06)
(0 0 1.95603e-06)
(0 0 1.96045e-06)
(0 0 1.96487e-06)
(0 0 1.96935e-06)
(0 0 1.97392e-06)
(0 0 1.97861e-06)
(0 0 1.98342e-06)
(0 0 1.98839e-06)
(0 0 1.99349e-06)
(0 0 1.99874e-06)
(0 0 2.00412e-06)
(0 0 2.00961e-06)
(0 0 2.01517e-06)
(0 0 2.02076e-06)
(0 0 2.02634e-06)
(0 0 2.03191e-06)
(0 0 2.03747e-06)
(0 0 2.04305e-06)
(0 0 2.04872e-06)
(0 0 2.05455e-06)
(0 0 2.06061e-06)
(0 0 2.06698e-06)
(0 0 2.0737e-06)
(0 0 2.08077e-06)
(0 0 2.08818e-06)
(0 0 2.09586e-06)
(0 0 2.10378e-06)
(0 0 2.11189e-06)
(0 0 2.12018e-06)
(0 0 2.12863e-06)
(0 0 2.13726e-06)
(0 0 2.14606e-06)
(0 0 2.15499e-06)
(0 0 2.16403e-06)
(0 0 2.17312e-06)
(0 0 2.18227e-06)
(0 0 2.19154e-06)
(0 0 2.20106e-06)
(0 0 2.21099e-06)
(0 0 2.22152e-06)
(0 0 2.23286e-06)
(0 0 2.24521e-06)
(0 0 2.25895e-06)
(0 0 2.27443e-06)
(0 0 2.29248e-06)
(0 0 2.31413e-06)
(0 0 2.34116e-06)
(0 0 2.37583e-06)
(0 0 2.42157e-06)
(0 0 2.48258e-06)
(0 0 2.56557e-06)
(0 0 2.67784e-06)
(0 0 2.83108e-06)
(0 0 3.03585e-06)
(0 0 3.22932e-06)
(0 0 3.51789e-06)
(0 0 2.00618e-06)
(0 0 1.39411e-07)
(0 0 -1.65874e-09)
(0 0 7.48077e-10)
(0 0 2.00499e-10)
(0 0 9.71519e-11)
(0 0 5.12179e-11)
(0 0 2.91977e-11)
(0 0 1.70733e-11)
(0 0 9.58649e-12)
(0 0 4.32842e-12)
(0 0 0)
(0 0 0)
(0 0 2.04668e-41)
(0 0 4.23845e-41)
(0 0 6.74406e-41)
(0 0 9.75184e-41)
(0 0 1.34868e-40)
(0 0 1.82278e-40)
(0 0 2.43284e-40)
(0 0 3.22433e-40)
(0 0 4.2562e-40)
(0 0 5.60528e-40)
(0 0 7.37198e-40)
(0 0 9.68773e-40)
(0 0 1.27248e-39)
(0 0 1.67089e-39)
(0 0 2.19362e-39)
(0 0 2.87951e-39)
(0 0 3.77951e-39)
(0 0 4.96045e-39)
(0 0 6.51002e-39)
(0 0 8.54323e-39)
(0 0 1.1211e-38)
(0 0 1.47112e-38)
(0 0 1.93035e-38)
(0 0 2.53286e-38)
(0 0 3.32333e-38)
(0 0 4.36036e-38)
(0 0 5.72086e-38)
(0 0 7.50569e-38)
(0 0 9.84716e-38)
(0 0 1.29189e-37)
(0 0 1.69485e-37)
(0 0 2.22347e-37)
(0 0 2.91695e-37)
(0 0 3.82669e-37)
(0 0 5.02015e-37)
(0 0 6.5858e-37)
(0 0 8.63975e-37)
(0 0 1.13343e-36)
(0 0 1.48694e-36)
(0 0 1.95072e-36)
(0 0 2.55918e-36)
(0 0 3.35748e-36)
(0 0 4.40486e-36)
(0 0 5.7791e-36)
(0 0 7.58222e-36)
(0 0 9.94817e-36)
(0 0 1.30527e-35)
(0 0 1.71265e-35)
(0 0 2.24724e-35)
(0 0 2.94879e-35)
(0 0 3.86947e-35)
(0 0 5.07777e-35)
(0 0 6.66361e-35)
(0 0 8.74501e-35)
(0 0 1.1477e-34)
(0 0 1.50629e-34)
(0 0 1.977e-34)
(0 0 2.59489e-34)
(0 0 3.40602e-34)
(0 0 4.47087e-34)
(0 0 5.86884e-34)
(0 0 7.70421e-34)
(0 0 1.01139e-33)
(0 0 1.32777e-33)
(0 0 1.74318e-33)
(0 0 2.28864e-33)
(0 0 3.00485e-33)
(0 0 3.94532e-33)
(0 0 5.18029e-33)
(0 0 6.802e-33)
(0 0 8.93161e-33)
(0 0 1.17282e-32)
(0 0 1.54008e-32)
(0 0 2.02239e-32)
(0 0 2.65577e-32)
(0 0 3.48758e-32)
(0 0 4.57998e-32)
(0 0 6.0146e-32)
(0 0 7.89866e-32)
(0 0 1.0373e-31)
(0 0 1.36224e-31)
(0 0 1.78899e-31)
(0 0 2.34942e-31)
(0 0 3.08541e-31)
(0 0 4.05195e-31)
(0 0 5.32126e-31)
(0 0 6.98815e-31)
(0 0 9.17714e-31)
(0 0 1.20517e-30)
(0 0 1.58266e-30)
(0 0 2.07837e-30)
(0 0 2.72932e-30)
(0 0 3.58412e-30)
(0 0 4.7066e-30)
(0 0 6.18058e-30)
(0 0 8.11611e-30)
(0 0 1.06577e-29)
(0 0 1.39952e-29)
(0 0 1.83777e-29)
(0 0 2.41326e-29)
(0 0 3.16896e-29)
(0 0 4.16132e-29)
(0 0 5.46447e-29)
(0 0 7.17576e-29)
(0 0 9.42307e-29)
(0 0 1.23744e-28)
(0 0 1.62503e-28)
(0 0 2.13406e-28)
(0 0 2.80261e-28)
(0 0 3.6807e-28)
(0 0 4.83403e-28)
(0 0 6.34897e-28)
(0 0 8.33896e-28)
(0 0 1.09531e-27)
(0 0 1.43874e-27)
(0 0 1.88992e-27)
(0 0 2.48271e-27)
(0 0 3.2616e-27)
(0 0 4.28507e-27)
(0 0 5.63e-27)
(0 0 7.39747e-27)
(0 0 9.72039e-27)
(0 0 1.27735e-26)
(0 0 1.67866e-26)
(0 0 2.20619e-26)
(0 0 2.89968e-26)
(0 0 3.81142e-26)
(0 0 5.01016e-26)
(0 0 6.58635e-26)
(0 0 8.65898e-26)
(0 0 1.13846e-25)
(0 0 1.49692e-25)
(0 0 1.96838e-25)
(0 0 2.58851e-25)
(0 0 3.40424e-25)
(0 0 4.47735e-25)
(0 0 5.88914e-25)
(0 0 7.74659e-25)
(0 0 1.01905e-24)
(0 0 1.34064e-24)
(0 0 1.76382e-24)
(0 0 2.32072e-24)
(0 0 3.05366e-24)
(0 0 4.01834e-24)
(0 0 5.2881e-24)
(0 0 6.95951e-24)
(0 0 9.15976e-24)
(0 0 1.20563e-23)
(0 0 1.58698e-23)
(0 0 2.08907e-23)
(0 0 2.75016e-23)
(0 0 3.62063e-23)
(0 0 4.76686e-23)
(0 0 6.27626e-23)
(0 0 8.26397e-23)
(0 0 1.08816e-22)
(0 0 1.4329e-22)
(0 0 1.88691e-22)
(0 0 2.48485e-22)
(0 0 3.27234e-22)
(0 0 4.3095e-22)
(0 0 5.67548e-22)
(0 0 7.47451e-22)
(0 0 9.84389e-22)
(0 0 1.29644e-21)
(0 0 1.70741e-21)
(0 0 2.24865e-21)
(0 0 2.96143e-21)
(0 0 3.90011e-21)
(0 0 5.13626e-21)
(0 0 6.7641e-21)
(0 0 8.90771e-21)
(0 0 1.17304e-20)
(0 0 1.54474e-20)
(0 0 2.03418e-20)
(0 0 2.67865e-20)
(0 0 3.52727e-20)
(0 0 4.64468e-20)
(0 0 6.11606e-20)
(0 0 8.05353e-20)
(0 0 1.06048e-19)
(0 0 1.39645e-19)
(0 0 1.83889e-19)
(0 0 2.42157e-19)
(0 0 3.18899e-19)
(0 0 4.19977e-19)
(0 0 5.53119e-19)
(0 0 7.28512e-19)
(0 0 9.59582e-19)
(0 0 1.26403e-18)
(0 0 1.6652e-18)
(0 0 2.19387e-18)
(0 0 2.89064e-18)
(0 0 3.80906e-18)
(0 0 5.01978e-18)
(0 0 6.61602e-18)
(0 0 8.72081e-18)
(0 0 1.14965e-17)
(0 0 1.51576e-17)
(0 0 1.9987e-17)
(0 0 2.6359e-17)
(0 0 3.47674e-17)
(0 0 4.58655e-17)
(0 0 6.05166e-17)
(0 0 7.98628e-17)
(0 0 1.05415e-16)
(0 0 1.39175e-16)
(0 0 1.83789e-16)
(0 0 2.42767e-16)
(0 0 3.20761e-16)
(0 0 4.23938e-16)
(0 0 5.60487e-16)
(0 0 7.41287e-16)
(0 0 9.80827e-16)
(0 0 1.29844e-15)
(0 0 1.71999e-15)
(0 0 2.28019e-15)
(0 0 3.0257e-15)
(0 0 4.01962e-15)
(0 0 5.348e-15)
(0 0 7.1291e-15)
(0 0 9.52334e-15)
(0 0 1.27428e-14)
(0 0 1.70692e-14)
(0 0 2.28908e-14)
(0 0 3.07645e-14)
(0 0 4.16126e-14)
(0 0 5.71437e-14)
(0 0 8.08418e-14)
(0 0 1.17354e-13)
(0 0 1.72341e-13)
(0 0 2.45828e-13)
(0 0 6.27549e-13)
(0 0 3.44098e-12)
(0 0 4.09747e-11)
(0 0 1.898e-09)
(0 0 1.5654e-08)
(0 0 1.37025e-08)
(0 0 -7.01631e-09)
(0 0 2.29202e-09)
(0 0 2.36919e-08)
(0 0 3.29883e-08)
(0 0 4.07997e-08)
(0 0 4.82485e-08)
(0 0 5.60477e-08)
(0 0 6.44984e-08)
(0 0 7.30226e-08)
(0 0 8.14233e-08)