/*--------------------------------*- C++ -*----------------------------------*\
| =========                 |                                                 |
| \\      /  F ield         | foam-extend: Open Source CFD                    |
|  \\    /   O peration     | Version:     3.2                                |
|   \\  /    A nd           | Web:         http://www.foam-extend.org         |
|    \\/     M anipulation  | For copyright notice see file Copyright         |
\*---------------------------------------------------------------------------*/
FoamFile
{
    version     2.0;
    format      ascii;
    class       volScalarField;
    location    "120";
    object      nut;
}
// * * * * * * * * * * * * * * * * * * * * * * * * * * * * * * * * * * * * * //

dimensions      [0 2 -1 0 0 0 0];

internalField   nonuniform List<scalar> 
33000
(
6.25845e-06
7.60733e-06
8.999e-06
1.04023e-05
1.17819e-05
1.3103e-05
1.4337e-05
1.54584e-05
1.64529e-05
1.73096e-05
1.80281e-05
1.86114e-05
1.90689e-05
1.94111e-05
1.96512e-05
1.98019e-05
1.98767e-05
1.98882e-05
1.97651e-05
1.90202e-05
1.83019e-05
1.76311e-05
1.70004e-05
1.64196e-05
1.58848e-05
1.54002e-05
1.49635e-05
1.45742e-05
1.42194e-05
1.38962e-05
1.36017e-05
1.33345e-05
1.30919e-05
1.28722e-05
1.26746e-05
1.24972e-05
1.23388e-05
1.21978e-05
1.20732e-05
1.19637e-05
1.18688e-05
1.17851e-05
1.17132e-05
1.16512e-05
1.15992e-05
1.15552e-05
1.15204e-05
1.14941e-05
1.14756e-05
1.14645e-05
1.14599e-05
1.14614e-05
1.14683e-05
1.148e-05
1.14956e-05
1.15149e-05
1.15372e-05
1.15623e-05
1.15895e-05
1.16187e-05
1.16496e-05
1.16818e-05
1.17156e-05
1.17505e-05
1.17867e-05
1.18237e-05
1.18615e-05
1.18997e-05
1.19382e-05
1.19768e-05
1.20152e-05
1.20533e-05
1.20911e-05
1.21284e-05
1.21652e-05
1.22012e-05
1.22368e-05
1.22715e-05
1.23056e-05
1.23391e-05
1.23718e-05
1.24033e-05
1.24343e-05
1.24639e-05
1.24927e-05
1.252e-05
1.25465e-05
1.25716e-05
1.25958e-05
1.26185e-05
1.26406e-05
1.26607e-05
1.26802e-05
1.26985e-05
1.2716e-05
1.27329e-05
1.27495e-05
1.27664e-05
1.27839e-05
1.28017e-05
1.28195e-05
1.28374e-05
1.28555e-05
1.28736e-05
1.28916e-05
1.29095e-05
1.29272e-05
1.29446e-05
1.29616e-05
1.29783e-05
1.29945e-05
1.30102e-05
1.30253e-05
1.30399e-05
1.30542e-05
1.30675e-05
1.30801e-05
1.30925e-05
1.31042e-05
1.31152e-05
1.31256e-05
1.31353e-05
1.31442e-05
1.31525e-05
1.31599e-05
1.31666e-05
1.31723e-05
1.31773e-05
1.31802e-05
1.31828e-05
1.31883e-05
1.31929e-05
1.31961e-05
1.31991e-05
1.32009e-05
1.32025e-05
1.32032e-05
1.32035e-05
1.32031e-05
1.32022e-05
1.32008e-05
1.31989e-05
1.31965e-05
1.31937e-05
1.31906e-05
1.3187e-05
1.31831e-05
1.31789e-05
1.31744e-05
1.31696e-05
1.31644e-05
1.31591e-05
1.31535e-05
1.31477e-05
1.31418e-05
1.31358e-05
1.31297e-05
1.31236e-05
1.31174e-05
1.31112e-05
1.3105e-05
1.30988e-05
1.30928e-05
1.30868e-05
1.3081e-05
1.30753e-05
1.30698e-05
1.30643e-05
1.3059e-05
1.30539e-05
1.30488e-05
1.30439e-05
1.30391e-05
1.30344e-05
1.30298e-05
1.30253e-05
1.30209e-05
1.30166e-05
1.30125e-05
1.30086e-05
1.30048e-05
1.30011e-05
1.29976e-05
1.29943e-05
1.29911e-05
1.29881e-05
1.29852e-05
1.29824e-05
1.29799e-05
1.29775e-05
1.29753e-05
1.29734e-05
1.29717e-05
1.29702e-05
1.2969e-05
1.2968e-05
1.29672e-05
1.29668e-05
1.29666e-05
1.29668e-05
1.29673e-05
1.29682e-05
1.29694e-05
1.2971e-05
1.29729e-05
1.29752e-05
1.29779e-05
1.29809e-05
1.29844e-05
1.29882e-05
1.29924e-05
1.29971e-05
1.30022e-05
1.30077e-05
1.30135e-05
1.30197e-05
1.30262e-05
1.30331e-05
1.30403e-05
1.3048e-05
1.3056e-05
1.30644e-05
1.30732e-05
1.30823e-05
1.30918e-05
1.31017e-05
1.31116e-05
1.31211e-05
1.31301e-05
1.31384e-05
1.31463e-05
1.31535e-05
1.31603e-05
1.31666e-05
1.31724e-05
1.31778e-05
1.31828e-05
1.31874e-05
1.31916e-05
1.31955e-05
1.3199e-05
1.32022e-05
1.32051e-05
1.32077e-05
1.321e-05
1.32121e-05
1.32139e-05
1.32155e-05
1.32169e-05
1.32181e-05
1.3219e-05
1.32198e-05
1.32203e-05
1.32207e-05
1.32209e-05
1.32209e-05
1.32208e-05
1.32205e-05
1.322e-05
1.32194e-05
1.32187e-05
1.32179e-05
1.32169e-05
1.32158e-05
1.32146e-05
1.32132e-05
1.32118e-05
1.32102e-05
1.32085e-05
1.32067e-05
1.32049e-05
1.32029e-05
1.32009e-05
1.31987e-05
1.31965e-05
1.31941e-05
1.31916e-05
1.3189e-05
1.31863e-05
1.31835e-05
1.31806e-05
1.31776e-05
1.31745e-05
1.31713e-05
1.31679e-05
1.31645e-05
1.3161e-05
1.31574e-05
1.31537e-05
1.31499e-05
1.31461e-05
1.31422e-05
1.31383e-05
1.31344e-05
1.31305e-05
1.31266e-05
1.31227e-05
1.31189e-05
1.31151e-05
1.31114e-05
1.31078e-05
1.31043e-05
1.3101e-05
1.30978e-05
1.30946e-05
1.30916e-05
1.30886e-05
1.30858e-05
1.30831e-05
1.30806e-05
1.30783e-05
1.30762e-05
1.30743e-05
1.30724e-05
1.30707e-05
1.30691e-05
1.30675e-05
1.30661e-05
1.30647e-05
1.30634e-05
1.30622e-05
1.30612e-05
1.30604e-05
1.30596e-05
1.30589e-05
1.30583e-05
1.30577e-05
1.30571e-05
1.30567e-05
1.30563e-05
1.30561e-05
1.30561e-05
1.30563e-05
1.30565e-05
1.30569e-05
1.30574e-05
1.30579e-05
1.30586e-05
1.30594e-05
1.30603e-05
1.30613e-05
1.30624e-05
1.30636e-05
1.30647e-05
1.30659e-05
1.30671e-05
1.30684e-05
1.30698e-05
1.30712e-05
1.30726e-05
1.3074e-05
1.30754e-05
1.30766e-05
1.30778e-05
1.30788e-05
1.30798e-05
1.30806e-05
1.30813e-05
1.30818e-05
1.30823e-05
1.30826e-05
1.30829e-05
1.3083e-05
1.30829e-05
1.30827e-05
1.30822e-05
1.30814e-05
1.30804e-05
1.30789e-05
1.30772e-05
1.30751e-05
1.30726e-05
1.30698e-05
1.30668e-05
1.30634e-05
1.30598e-05
1.30559e-05
1.30518e-05
1.30473e-05
1.30426e-05
1.30375e-05
1.30322e-05
1.30264e-05
1.30204e-05
1.30141e-05
1.30075e-05
1.30007e-05
1.29938e-05
1.29869e-05
1.29798e-05
1.29726e-05
1.29654e-05
1.2958e-05
1.29505e-05
1.29429e-05
1.29351e-05
1.29273e-05
1.29193e-05
1.29113e-05
1.29032e-05
1.28952e-05
1.28871e-05
1.28791e-05
1.2871e-05
1.28629e-05
1.28547e-05
1.28464e-05
1.28381e-05
1.28297e-05
1.28213e-05
1.28128e-05
1.28042e-05
1.27956e-05
1.2787e-05
1.27784e-05
1.27697e-05
1.2761e-05
1.27523e-05
1.27436e-05
1.27348e-05
1.27261e-05
1.27173e-05
1.27087e-05
1.27e-05
1.26915e-05
1.2683e-05
1.26745e-05
1.26661e-05
1.26577e-05
1.26494e-05
1.26411e-05
1.26329e-05
1.26248e-05
1.26167e-05
1.26087e-05
1.26008e-05
1.2593e-05
1.25852e-05
1.25776e-05
1.25699e-05
1.25624e-05
1.25549e-05
1.25474e-05
1.254e-05
1.25328e-05
1.25256e-05
1.25185e-05
1.25116e-05
1.25048e-05
1.2498e-05
1.24913e-05
1.24846e-05
1.2478e-05
1.24715e-05
1.24651e-05
1.24589e-05
1.24528e-05
1.24468e-05
1.2441e-05
1.24352e-05
1.24295e-05
1.24238e-05
1.24182e-05
1.24126e-05
1.24072e-05
1.24018e-05
1.23967e-05
1.23917e-05
1.23869e-05
1.23822e-05
1.23778e-05
1.23732e-05
1.23689e-05
1.23645e-05
1.23605e-05
1.23561e-05
1.23522e-05
1.2348e-05
1.23443e-05
1.23403e-05
1.2337e-05
1.23333e-05
1.23304e-05
1.23269e-05
1.23243e-05
1.23208e-05
1.23183e-05
1.23147e-05
1.23122e-05
1.23086e-05
1.23065e-05
1.2303e-05
1.23013e-05
1.22981e-05
1.22969e-05
1.22936e-05
1.22927e-05
1.22891e-05
1.22883e-05
1.22843e-05
1.22835e-05
1.22788e-05
1.2278e-05
1.22725e-05
1.22716e-05
1.22654e-05
1.22645e-05
1.22575e-05
1.22568e-05
1.22491e-05
1.22487e-05
1.22401e-05
1.22401e-05
1.22305e-05
1.22308e-05
1.22204e-05
1.2221e-05
1.221e-05
1.22111e-05
1.21996e-05
1.22007e-05
1.21885e-05
1.21892e-05
1.21755e-05
1.21757e-05
1.21599e-05
1.2159e-05
1.214e-05
1.21358e-05
1.21109e-05
1.21007e-05
1.20629e-05
1.20405e-05
1.1977e-05
1.19355e-05
1.18283e-05
1.17705e-05
1.16237e-05
1.10227e-05
1.02757e-05
1.00184e-05
9.08844e-06
8.33855e-06
6.97216e-06
6.50045e-06
4.92211e-06
6.43283e-06
3.97594e-06
4.77558e-06
2.55529e-05
5.14712e-05
3.09452e-05
2.22246e-05
1.77273e-05
1.5083e-05
1.34911e-05
1.24893e-05
1.18544e-05
1.14692e-05
1.12564e-05
1.11782e-05
1.11857e-05
1.12588e-05
1.13777e-05
1.15375e-05
1.17355e-05
1.19732e-05
1.2261e-05
1.26048e-05
1.30047e-05
1.34734e-05
1.40094e-05
1.45845e-05
1.52122e-05
1.59058e-05
1.66755e-05
1.75235e-05
1.82403e-05
1.86789e-05
1.91177e-05
1.95541e-05
1.99861e-05
2.04119e-05
2.08311e-05
2.12427e-05
2.16464e-05
2.20409e-05
2.24268e-05
2.28033e-05
2.31716e-05
2.35308e-05
2.38815e-05
2.42237e-05
2.45584e-05
2.48851e-05
2.52058e-05
2.55213e-05
2.5832e-05
2.61376e-05
2.64381e-05
2.67329e-05
2.70221e-05
2.73049e-05
2.75813e-05
2.78501e-05
2.81123e-05
2.83667e-05
2.86144e-05
2.88542e-05
2.90882e-05
2.93147e-05
2.95361e-05
2.97521e-05
2.9963e-05
3.01687e-05
3.03692e-05
3.05643e-05
3.0754e-05
3.09381e-05
3.11166e-05
3.12895e-05
3.14566e-05
3.1618e-05
3.17736e-05
3.19236e-05
3.20675e-05
3.22061e-05
3.23393e-05
3.24675e-05
3.25909e-05
3.27091e-05
3.28221e-05
3.2931e-05
3.30349e-05
3.31349e-05
3.323e-05
3.33217e-05
3.34087e-05
3.34927e-05
3.3572e-05
3.3649e-05
3.37209e-05
3.3791e-05
3.38571e-05
3.39225e-05
3.3987e-05
3.40505e-05
3.41123e-05
3.41725e-05
3.42306e-05
3.42859e-05
3.43386e-05
3.43889e-05
3.44366e-05
3.44818e-05
3.45244e-05
3.45644e-05
3.46019e-05
3.46367e-05
3.4669e-05
3.46987e-05
3.47261e-05
3.47509e-05
3.47734e-05
3.47939e-05
3.48112e-05
3.48267e-05
3.48411e-05
3.48528e-05
3.48626e-05
3.48707e-05
3.4877e-05
3.48816e-05
3.48845e-05
3.48858e-05
3.48856e-05
3.48835e-05
3.48804e-05
3.48738e-05
3.48661e-05
3.48616e-05
3.48631e-05
3.48604e-05
3.48547e-05
3.48472e-05
3.48391e-05
3.48299e-05
3.48204e-05
3.48101e-05
3.47995e-05
3.47884e-05
3.47769e-05
3.47651e-05
3.47532e-05
3.47412e-05
3.47292e-05
3.47171e-05
3.47052e-05
3.46933e-05
3.46817e-05
3.46703e-05
3.46592e-05
3.46484e-05
3.46381e-05
3.46283e-05
3.46191e-05
3.46106e-05
3.46027e-05
3.45956e-05
3.45891e-05
3.45834e-05
3.45786e-05
3.45747e-05
3.45717e-05
3.45697e-05
3.45688e-05
3.45688e-05
3.45698e-05
3.45718e-05
3.45749e-05
3.45788e-05
3.45837e-05
3.45894e-05
3.45959e-05
3.46031e-05
3.46109e-05
3.46195e-05
3.46286e-05
3.46383e-05
3.46486e-05
3.46595e-05
3.46709e-05
3.46829e-05
3.46954e-05
3.47085e-05
3.47221e-05
3.47362e-05
3.47509e-05
3.47661e-05
3.47819e-05
3.47984e-05
3.48155e-05
3.48332e-05
3.48517e-05
3.4871e-05
3.4891e-05
3.49118e-05
3.49335e-05
3.49561e-05
3.49798e-05
3.50046e-05
3.50305e-05
3.50576e-05
3.50858e-05
3.5115e-05
3.51453e-05
3.51766e-05
3.52089e-05
3.52421e-05
3.52763e-05
3.53113e-05
3.53473e-05
3.53841e-05
3.54217e-05
3.54599e-05
3.54988e-05
3.55381e-05
3.55779e-05
3.56181e-05
3.56589e-05
3.57e-05
3.57415e-05
3.57834e-05
3.58256e-05
3.58682e-05
3.59109e-05
3.59483e-05
3.59713e-05
3.59925e-05
3.60123e-05
3.60307e-05
3.6048e-05
3.60642e-05
3.60795e-05
3.60937e-05
3.61071e-05
3.61195e-05
3.61311e-05
3.61417e-05
3.61514e-05
3.61603e-05
3.61682e-05
3.61752e-05
3.61814e-05
3.61867e-05
3.61912e-05
3.61949e-05
3.61979e-05
3.62003e-05
3.6202e-05
3.62031e-05
3.62037e-05
3.62038e-05
3.62034e-05
3.62025e-05
3.62012e-05
3.61995e-05
3.61973e-05
3.61948e-05
3.6192e-05
3.61888e-05
3.61854e-05
3.61818e-05
3.61779e-05
3.61739e-05
3.61696e-05
3.61652e-05
3.61607e-05
3.61559e-05
3.6151e-05
3.61461e-05
3.6141e-05
3.6136e-05
3.61309e-05
3.61257e-05
3.61205e-05
3.61152e-05
3.61099e-05
3.61044e-05
3.60989e-05
3.60933e-05
3.60876e-05
3.60819e-05
3.60762e-05
3.60703e-05
3.60644e-05
3.60584e-05
3.60524e-05
3.60462e-05
3.60401e-05
3.60339e-05
3.60277e-05
3.60215e-05
3.60155e-05
3.60095e-05
3.60037e-05
3.59982e-05
3.59929e-05
3.5988e-05
3.59834e-05
3.59793e-05
3.59756e-05
3.59724e-05
3.59696e-05
3.59671e-05
3.59649e-05
3.59631e-05
3.59616e-05
3.59604e-05
3.59595e-05
3.59591e-05
3.59592e-05
3.59596e-05
3.59604e-05
3.59616e-05
3.5963e-05
3.59647e-05
3.59667e-05
3.59688e-05
3.59711e-05
3.59735e-05
3.59761e-05
3.59789e-05
3.59819e-05
3.59851e-05
3.59885e-05
3.5992e-05
3.59955e-05
3.5999e-05
3.60026e-05
3.60062e-05
3.60099e-05
3.60138e-05
3.6018e-05
3.60225e-05
3.60273e-05
3.60323e-05
3.60375e-05
3.60428e-05
3.60483e-05
3.60537e-05
3.60592e-05
3.60645e-05
3.60697e-05
3.60745e-05
3.6079e-05
3.60832e-05
3.60869e-05
3.60902e-05
3.60929e-05
3.60951e-05
3.60968e-05
3.60978e-05
3.60982e-05
3.60979e-05
3.60969e-05
3.60951e-05
3.60925e-05
3.6089e-05
3.60847e-05
3.60795e-05
3.60734e-05
3.60665e-05
3.60588e-05
3.60504e-05
3.60411e-05
3.60309e-05
3.60198e-05
3.60078e-05
3.59947e-05
3.59806e-05
3.59652e-05
3.59488e-05
3.59313e-05
3.59127e-05
3.58933e-05
3.5873e-05
3.5852e-05
3.58304e-05
3.58083e-05
3.57856e-05
3.57624e-05
3.57387e-05
3.57144e-05
3.56896e-05
3.56642e-05
3.56383e-05
3.56119e-05
3.55853e-05
3.55584e-05
3.55315e-05
3.55045e-05
3.54777e-05
3.5451e-05
3.54244e-05
3.53979e-05
3.53715e-05
3.5345e-05
3.53186e-05
3.52922e-05
3.52658e-05
3.52396e-05
3.52135e-05
3.51877e-05
3.5162e-05
3.51365e-05
3.51112e-05
3.50861e-05
3.50611e-05
3.50362e-05
3.50114e-05
3.49866e-05
3.49619e-05
3.49373e-05
3.49129e-05
3.48888e-05
3.48649e-05
3.48413e-05
3.4818e-05
3.4795e-05
3.47723e-05
3.475e-05
3.47279e-05
3.47062e-05
3.46849e-05
3.46639e-05
3.46434e-05
3.46232e-05
3.46034e-05
3.45839e-05
3.45647e-05
3.45457e-05
3.45271e-05
3.45086e-05
3.44904e-05
3.44725e-05
3.4455e-05
3.44379e-05
3.44212e-05
3.44049e-05
3.4389e-05
3.43734e-05
3.4358e-05
3.4343e-05
3.43282e-05
3.43138e-05
3.42997e-05
3.4286e-05
3.42726e-05
3.42595e-05
3.42466e-05
3.42339e-05
3.42212e-05
3.42087e-05
3.41962e-05
3.41837e-05
3.41714e-05
3.41593e-05
3.41474e-05
3.41357e-05
3.41244e-05
3.41132e-05
3.41022e-05
3.40914e-05
3.40808e-05
3.40703e-05
3.40602e-05
3.40505e-05
3.40412e-05
3.40325e-05
3.40243e-05
3.40166e-05
3.40092e-05
3.40022e-05
3.39952e-05
3.39884e-05
3.39815e-05
3.39746e-05
3.39674e-05
3.39601e-05
3.39527e-05
3.39455e-05
3.39383e-05
3.39314e-05
3.39246e-05
3.3918e-05
3.39114e-05
3.39049e-05
3.38983e-05
3.38918e-05
3.3885e-05
3.38785e-05
3.38718e-05
3.38656e-05
3.38593e-05
3.38534e-05
3.38473e-05
3.38414e-05
3.38348e-05
3.38281e-05
3.38205e-05
3.38126e-05
3.38034e-05
3.37939e-05
3.37829e-05
3.37716e-05
3.37587e-05
3.37457e-05
3.37312e-05
3.37169e-05
3.37011e-05
3.36859e-05
3.36692e-05
3.36531e-05
3.36353e-05
3.36184e-05
3.35993e-05
3.35814e-05
3.35612e-05
3.35425e-05
3.35215e-05
3.35021e-05
3.34801e-05
3.34594e-05
3.34355e-05
3.3412e-05
3.33845e-05
3.33558e-05
3.33215e-05
3.32838e-05
3.32362e-05
3.31818e-05
3.31093e-05
3.30225e-05
3.29053e-05
3.27416e-05
3.25693e-05
3.20019e-05
3.11406e-05
2.97188e-05
2.94373e-05
2.7823e-05
2.62571e-05
2.33958e-05
2.17701e-05
1.8002e-05
1.43016e-05
1.56833e-05
1.30032e-05
2.0413e-05
0.000147821
0.000111448
7.06606e-05
6.66628e-05
5.36784e-05
4.40049e-05
3.63338e-05
3.06475e-05
2.6424e-05
2.3297e-05
2.08899e-05
1.90186e-05
1.75242e-05
1.63269e-05
1.53568e-05
1.45703e-05
1.39323e-05
1.3418e-05
1.30114e-05
1.26992e-05
1.24713e-05
1.23211e-05
1.22439e-05
1.22363e-05
1.22963e-05
1.2424e-05
1.26208e-05
1.28834e-05
1.32065e-05
1.35877e-05
1.40252e-05
1.45201e-05
1.50739e-05
1.56486e-05
1.62389e-05
1.68441e-05
1.74636e-05
1.80972e-05
1.87449e-05
1.9407e-05
2.00839e-05
2.07755e-05
2.14837e-05
2.22099e-05
2.29568e-05
2.37184e-05
2.43306e-05
2.49427e-05
2.55555e-05
2.61691e-05
2.67838e-05
2.73992e-05
2.80153e-05
2.86308e-05
2.92451e-05
2.98562e-05
3.0463e-05
3.10635e-05
3.16582e-05
3.22449e-05
3.28241e-05
3.33961e-05
3.396e-05
3.45158e-05
3.50625e-05
3.56005e-05
3.61293e-05
3.66495e-05
3.71607e-05
3.76633e-05
3.81566e-05
3.86413e-05
3.9116e-05
3.95815e-05
4.00362e-05
4.04814e-05
4.09158e-05
4.13412e-05
4.17558e-05
4.21623e-05
4.25588e-05
4.2949e-05
4.33309e-05
4.37078e-05
4.40772e-05
4.44432e-05
4.48027e-05
4.51602e-05
4.55115e-05
4.58618e-05
4.6206e-05
4.65492e-05
4.68894e-05
4.7229e-05
4.75646e-05
4.78971e-05
4.81845e-05
4.8428e-05
4.86627e-05
4.88894e-05
4.91083e-05
4.93194e-05
4.95229e-05
4.97188e-05
4.99075e-05
5.00893e-05
5.02643e-05
5.04329e-05
5.05953e-05
5.07516e-05
5.09022e-05
5.10472e-05
5.11867e-05
5.13208e-05
5.14498e-05
5.15737e-05
5.16922e-05
5.18058e-05
5.19147e-05
5.2019e-05
5.2119e-05
5.22148e-05
5.23066e-05
5.23945e-05
5.24788e-05
5.25596e-05
5.26371e-05
5.27113e-05
5.2782e-05
5.28528e-05
5.29246e-05
5.2995e-05
5.30631e-05
5.31283e-05
5.31911e-05
5.32517e-05
5.33103e-05
5.33671e-05
5.34221e-05
5.34755e-05
5.35274e-05
5.35777e-05
5.36267e-05
5.36744e-05
5.37209e-05
5.37664e-05
5.38111e-05
5.38551e-05
5.38988e-05
5.39421e-05
5.39852e-05
5.40282e-05
5.40714e-05
5.41147e-05
5.41584e-05
5.42025e-05
5.42472e-05
5.42927e-05
5.43392e-05
5.43867e-05
5.44354e-05
5.44854e-05
5.45368e-05
5.45897e-05
5.46443e-05
5.47005e-05
5.47586e-05
5.48184e-05
5.48799e-05
5.49432e-05
5.5008e-05
5.50743e-05
5.5142e-05
5.52109e-05
5.5281e-05
5.5352e-05
5.54238e-05
5.54963e-05
5.55694e-05
5.56432e-05
5.57174e-05
5.57921e-05
5.58673e-05
5.59431e-05
5.60193e-05
5.60961e-05
5.61734e-05
5.62512e-05
5.63295e-05
5.64085e-05
5.64881e-05
5.65684e-05
5.66495e-05
5.67316e-05
5.68147e-05
5.6899e-05
5.69845e-05
5.70713e-05
5.71595e-05
5.72493e-05
5.73406e-05
5.74336e-05
5.75284e-05
5.76248e-05
5.7723e-05
5.78227e-05
5.79238e-05
5.80262e-05
5.81295e-05
5.82337e-05
5.83385e-05
5.84439e-05
5.85497e-05
5.86557e-05
5.8762e-05
5.88683e-05
5.89743e-05
5.908e-05
5.91851e-05
5.92895e-05
5.93929e-05
5.94955e-05
5.95971e-05
5.96977e-05
5.97972e-05
5.98956e-05
5.99926e-05
6.00881e-05
6.01818e-05
6.02735e-05
6.03628e-05
6.04497e-05
6.0534e-05
6.06156e-05
6.06945e-05
6.07705e-05
6.08436e-05
6.09137e-05
6.09809e-05
6.10451e-05
6.11062e-05
6.11643e-05
6.12194e-05
6.12716e-05
6.13209e-05
6.13675e-05
6.14114e-05
6.14529e-05
6.1492e-05
6.1529e-05
6.15639e-05
6.15968e-05
6.1628e-05
6.16574e-05
6.16852e-05
6.17114e-05
6.17361e-05
6.17594e-05
6.17814e-05
6.18021e-05
6.18217e-05
6.18403e-05
6.18579e-05
6.18745e-05
6.18904e-05
6.19054e-05
6.19197e-05
6.19333e-05
6.19463e-05
6.19587e-05
6.19706e-05
6.1982e-05
6.19932e-05
6.20041e-05
6.20147e-05
6.20249e-05
6.20349e-05
6.20444e-05
6.20536e-05
6.20624e-05
6.20708e-05
6.2079e-05
6.20867e-05
6.20941e-05
6.21011e-05
6.21077e-05
6.21139e-05
6.21197e-05
6.21251e-05
6.21302e-05
6.2135e-05
6.21396e-05
6.21441e-05
6.21486e-05
6.21531e-05
6.2158e-05
6.21632e-05
6.21689e-05
6.21754e-05
6.21827e-05
6.21909e-05
6.22002e-05
6.22106e-05
6.22221e-05
6.22346e-05
6.22481e-05
6.22624e-05
6.22776e-05
6.22937e-05
6.23108e-05
6.23288e-05
6.2348e-05
6.23682e-05
6.23894e-05
6.24116e-05
6.24346e-05
6.24584e-05
6.24829e-05
6.25079e-05
6.25334e-05
6.25592e-05
6.25855e-05
6.26121e-05
6.26391e-05
6.26664e-05
6.26941e-05
6.2722e-05
6.275e-05
6.2778e-05
6.2806e-05
6.28341e-05
6.28624e-05
6.28911e-05
6.29204e-05
6.29503e-05
6.29807e-05
6.30117e-05
6.30429e-05
6.30744e-05
6.31059e-05
6.31375e-05
6.31689e-05
6.32e-05
6.32305e-05
6.32602e-05
6.3289e-05
6.33167e-05
6.3343e-05
6.33679e-05
6.33913e-05
6.3413e-05
6.34331e-05
6.34514e-05
6.34678e-05
6.34822e-05
6.34946e-05
6.35048e-05
6.35128e-05
6.35183e-05
6.35214e-05
6.35221e-05
6.35204e-05
6.35162e-05
6.35096e-05
6.35006e-05
6.34892e-05
6.34753e-05
6.34587e-05
6.34394e-05
6.34171e-05
6.33918e-05
6.33633e-05
6.33318e-05
6.32971e-05
6.32595e-05
6.32191e-05
6.31763e-05
6.31311e-05
6.30838e-05
6.30347e-05
6.29839e-05
6.29314e-05
6.28774e-05
6.28217e-05
6.27643e-05
6.27054e-05
6.26449e-05
6.2583e-05
6.25201e-05
6.24564e-05
6.23922e-05
6.23278e-05
6.22633e-05
6.21989e-05
6.21346e-05
6.20705e-05
6.20066e-05
6.19427e-05
6.18788e-05
6.1815e-05
6.17513e-05
6.16879e-05
6.16248e-05
6.1562e-05
6.14998e-05
6.14379e-05
6.13765e-05
6.13156e-05
6.12549e-05
6.11946e-05
6.11344e-05
6.10744e-05
6.10147e-05
6.09553e-05
6.08963e-05
6.0838e-05
6.07803e-05
6.07234e-05
6.06674e-05
6.06121e-05
6.05577e-05
6.05041e-05
6.04513e-05
6.03995e-05
6.03487e-05
6.02988e-05
6.025e-05
6.02021e-05
6.01552e-05
6.01092e-05
6.0064e-05
6.00196e-05
5.99759e-05
5.9933e-05
5.98908e-05
5.98495e-05
5.98092e-05
5.977e-05
5.97319e-05
5.96949e-05
5.9659e-05
5.96241e-05
5.959e-05
5.95568e-05
5.95245e-05
5.94931e-05
5.94626e-05
5.9433e-05
5.94043e-05
5.93764e-05
5.93492e-05
5.93225e-05
5.92963e-05
5.92703e-05
5.92447e-05
5.92193e-05
5.91943e-05
5.91697e-05
5.91457e-05
5.91224e-05
5.90997e-05
5.90777e-05
5.90563e-05
5.90354e-05
5.90151e-05
5.89954e-05
5.89766e-05
5.89589e-05
5.89424e-05
5.89272e-05
5.89135e-05
5.8901e-05
5.88897e-05
5.88791e-05
5.88691e-05
5.88594e-05
5.88499e-05
5.88401e-05
5.88299e-05
5.88193e-05
5.88084e-05
5.87972e-05
5.87861e-05
5.87752e-05
5.87646e-05
5.87541e-05
5.87438e-05
5.87336e-05
5.87235e-05
5.87134e-05
5.87034e-05
5.86934e-05
5.86838e-05
5.86745e-05
5.86659e-05
5.86576e-05
5.86495e-05
5.8641e-05
5.8632e-05
5.86216e-05
5.86099e-05
5.85963e-05
5.85808e-05
5.85629e-05
5.85427e-05
5.85199e-05
5.84948e-05
5.84672e-05
5.84376e-05
5.84059e-05
5.83727e-05
5.83379e-05
5.83019e-05
5.82645e-05
5.82259e-05
5.81858e-05
5.81443e-05
5.81015e-05
5.80572e-05
5.80121e-05
5.79655e-05
5.79185e-05
5.78698e-05
5.78199e-05
5.77672e-05
5.77117e-05
5.76524e-05
5.7587e-05
5.75149e-05
5.74325e-05
5.7337e-05
5.72232e-05
5.70829e-05
5.69064e-05
5.6684e-05
5.63587e-05
5.60118e-05
5.50926e-05
5.36524e-05
5.21991e-05
5.03598e-05
4.79379e-05
4.43513e-05
3.89387e-05
3.2429e-05
2.71101e-05
2.00085e-05
1.90328e-05
2.11715e-05
3.25797e-05
0.000182563
0.000107655
6.85927e-05
6.85195e-05
7.27772e-05
8.13849e-05
9.09218e-05
7.91396e-05
6.98532e-05
6.23338e-05
5.6098e-05
5.09205e-05
4.653e-05
4.28227e-05
3.96548e-05
3.69414e-05
3.45692e-05
3.24769e-05
3.05986e-05
2.88854e-05
2.73074e-05
2.58544e-05
2.45271e-05
2.33272e-05
2.22521e-05
2.12956e-05
2.0449e-05
1.97019e-05
1.90459e-05
1.84727e-05
1.79756e-05
1.7548e-05
1.71855e-05
1.68859e-05
1.66475e-05
1.64685e-05
1.63468e-05
1.62839e-05
1.62897e-05
1.6364e-05
1.64986e-05
1.66897e-05
1.69348e-05
1.72347e-05
1.75913e-05
1.80083e-05
1.8469e-05
1.89614e-05
1.94853e-05
2.00406e-05
2.06264e-05
2.12418e-05
2.18855e-05
2.25557e-05
2.32504e-05
2.39676e-05
2.47044e-05
2.54587e-05
2.62285e-05
2.70129e-05
2.78061e-05
2.84477e-05
2.90944e-05
2.97461e-05
3.04032e-05
3.10669e-05
3.17377e-05
3.24165e-05
3.31029e-05
3.37982e-05
3.4502e-05
3.52158e-05
3.59391e-05
3.66729e-05
3.74154e-05
3.81685e-05
3.89316e-05
3.97064e-05
4.04903e-05
4.12836e-05
4.20817e-05
4.28905e-05
4.37062e-05
4.45331e-05
4.53658e-05
4.62103e-05
4.7059e-05
4.79197e-05
4.8781e-05
4.96548e-05
5.05235e-05
5.14066e-05
5.22789e-05
5.31478e-05
5.37862e-05
5.44142e-05
5.50323e-05
5.56401e-05
5.62374e-05
5.68238e-05
5.73983e-05
5.79604e-05
5.85099e-05
5.90469e-05
5.95713e-05
6.00834e-05
6.05832e-05
6.10707e-05
6.15459e-05
6.20089e-05
6.24598e-05
6.28986e-05
6.33254e-05
6.37403e-05
6.41436e-05
6.45352e-05
6.49146e-05
6.52825e-05
6.56393e-05
6.59854e-05
6.63208e-05
6.66461e-05
6.69614e-05
6.72672e-05
6.75638e-05
6.78515e-05
6.81306e-05
6.84015e-05
6.86642e-05
6.89221e-05
6.91764e-05
6.94254e-05
6.96681e-05
6.9904e-05
7.01335e-05
7.0357e-05
7.05747e-05
7.07868e-05
7.09935e-05
7.11949e-05
7.13911e-05
7.15822e-05
7.17685e-05
7.19502e-05
7.21274e-05
7.23005e-05
7.24699e-05
7.26361e-05
7.27992e-05
7.29598e-05
7.31182e-05
7.32747e-05
7.34295e-05
7.3583e-05
7.37354e-05
7.38871e-05
7.40384e-05
7.41896e-05
7.43412e-05
7.44935e-05
7.46468e-05
7.48014e-05
7.49576e-05
7.51158e-05
7.52762e-05
7.54391e-05
7.56046e-05
7.57728e-05
7.59435e-05
7.61166e-05
7.6292e-05
7.64694e-05
7.66485e-05
7.68292e-05
7.70111e-05
7.71939e-05
7.73776e-05
7.75618e-05
7.77465e-05
7.79316e-05
7.81169e-05
7.83025e-05
7.84884e-05
7.86746e-05
7.8861e-05
7.90478e-05
7.92349e-05
7.94222e-05
7.96099e-05
7.9798e-05
7.99866e-05
8.01759e-05
8.0366e-05
8.05571e-05
8.07496e-05
8.09435e-05
8.1139e-05
8.13364e-05
8.15357e-05
8.17371e-05
8.19408e-05
8.2147e-05
8.23557e-05
8.25669e-05
8.27805e-05
8.29964e-05
8.32141e-05
8.34335e-05
8.36541e-05
8.38756e-05
8.40976e-05
8.43198e-05
8.4542e-05
8.4764e-05
8.49854e-05
8.5206e-05
8.54255e-05
8.56434e-05
8.58595e-05
8.60734e-05
8.62849e-05
8.64941e-05
8.67007e-05
8.69048e-05
8.71063e-05
8.73051e-05
8.75009e-05
8.76936e-05
8.78827e-05
8.8068e-05
8.82491e-05
8.84257e-05
8.85976e-05
8.87646e-05
8.89263e-05
8.90826e-05
8.92334e-05
8.93786e-05
8.9518e-05
8.96515e-05
8.97793e-05
8.99013e-05
9.00176e-05
9.01282e-05
9.02334e-05
9.03334e-05
9.04284e-05
9.05188e-05
9.06047e-05
9.06865e-05
9.07644e-05
9.08387e-05
9.09096e-05
9.09773e-05
9.10419e-05
9.11037e-05
9.11628e-05
9.12192e-05
9.12732e-05
9.1325e-05
9.13746e-05
9.14223e-05
9.1468e-05
9.15121e-05
9.15545e-05
9.15956e-05
9.16353e-05
9.16737e-05
9.17111e-05
9.17474e-05
9.17829e-05
9.18178e-05
9.18521e-05
9.18861e-05
9.19198e-05
9.1953e-05
9.19858e-05
9.20182e-05
9.205e-05
9.20812e-05
9.2112e-05
9.21422e-05
9.21719e-05
9.22009e-05
9.22293e-05
9.22569e-05
9.22838e-05
9.23099e-05
9.23354e-05
9.23602e-05
9.23844e-05
9.24081e-05
9.24315e-05
9.24547e-05
9.24781e-05
9.25017e-05
9.2526e-05
9.25512e-05
9.25776e-05
9.26054e-05
9.26348e-05
9.26662e-05
9.26996e-05
9.2735e-05
9.27724e-05
9.28116e-05
9.28526e-05
9.28953e-05
9.29397e-05
9.29858e-05
9.30338e-05
9.30836e-05
9.31353e-05
9.31889e-05
9.32441e-05
9.3301e-05
9.33594e-05
9.34189e-05
9.34796e-05
9.3541e-05
9.3603e-05
9.36655e-05
9.37284e-05
9.37917e-05
9.38555e-05
9.39194e-05
9.39835e-05
9.40476e-05
9.41116e-05
9.41754e-05
9.42391e-05
9.43029e-05
9.43673e-05
9.44323e-05
9.44981e-05
9.45647e-05
9.46318e-05
9.46992e-05
9.47665e-05
9.48337e-05
9.49005e-05
9.49668e-05
9.50322e-05
9.50963e-05
9.51588e-05
9.52193e-05
9.52774e-05
9.53328e-05
9.53852e-05
9.54343e-05
9.54801e-05
9.55224e-05
9.55611e-05
9.5596e-05
9.5627e-05
9.5654e-05
9.56769e-05
9.56954e-05
9.57094e-05
9.57188e-05
9.57235e-05
9.57236e-05
9.57189e-05
9.57096e-05
9.56957e-05
9.5677e-05
9.56536e-05
9.56252e-05
9.55918e-05
9.5553e-05
9.55088e-05
9.54589e-05
9.54035e-05
9.53424e-05
9.52761e-05
9.52047e-05
9.51286e-05
9.50481e-05
9.49638e-05
9.4876e-05
9.47849e-05
9.46909e-05
9.45939e-05
9.44942e-05
9.43915e-05
9.42861e-05
9.41779e-05
9.40674e-05
9.39548e-05
9.38407e-05
9.37255e-05
9.36098e-05
9.34937e-05
9.33778e-05
9.32621e-05
9.31467e-05
9.30316e-05
9.29167e-05
9.2802e-05
9.26875e-05
9.25733e-05
9.24594e-05
9.23461e-05
9.22334e-05
9.21215e-05
9.20103e-05
9.18999e-05
9.17902e-05
9.16812e-05
9.15728e-05
9.14649e-05
9.13576e-05
9.12507e-05
9.11446e-05
9.10395e-05
9.09355e-05
9.0833e-05
9.0732e-05
9.06327e-05
9.05351e-05
9.04391e-05
9.03446e-05
9.02518e-05
9.01607e-05
9.00713e-05
8.99837e-05
8.98978e-05
8.98137e-05
8.97312e-05
8.96503e-05
8.9571e-05
8.9493e-05
8.94164e-05
8.93412e-05
8.92675e-05
8.91953e-05
8.9125e-05
8.90566e-05
8.89902e-05
8.8926e-05
8.88638e-05
8.88034e-05
8.87448e-05
8.86879e-05
8.86326e-05
8.85788e-05
8.85268e-05
8.84764e-05
8.84276e-05
8.83802e-05
8.83342e-05
8.82891e-05
8.8245e-05
8.82014e-05
8.81584e-05
8.81159e-05
8.8074e-05
8.80327e-05
8.79925e-05
8.79532e-05
8.79152e-05
8.78782e-05
8.78423e-05
8.78075e-05
8.77739e-05
8.77415e-05
8.77106e-05
8.76817e-05
8.7655e-05
8.76306e-05
8.76089e-05
8.75894e-05
8.75719e-05
8.75558e-05
8.75409e-05
8.75265e-05
8.75122e-05
8.74974e-05
8.74818e-05
8.7465e-05
8.74471e-05
8.74281e-05
8.74087e-05
8.73889e-05
8.7369e-05
8.7349e-05
8.73291e-05
8.73092e-05
8.72896e-05
8.727e-05
8.72507e-05
8.72316e-05
8.72132e-05
8.71955e-05
8.71788e-05
8.71627e-05
8.71471e-05
8.71307e-05
8.71134e-05
8.70936e-05
8.70715e-05
8.70457e-05
8.70167e-05
8.69831e-05
8.69456e-05
8.69031e-05
8.68566e-05
8.68052e-05
8.67503e-05
8.66911e-05
8.66294e-05
8.65642e-05
8.64972e-05
8.64271e-05
8.63555e-05
8.62808e-05
8.62042e-05
8.61244e-05
8.60426e-05
8.59585e-05
8.58725e-05
8.57849e-05
8.5695e-05
8.56028e-05
8.55071e-05
8.54068e-05
8.53016e-05
8.51877e-05
8.5065e-05
8.4928e-05
8.47738e-05
8.45944e-05
8.43805e-05
8.41156e-05
8.37887e-05
8.33183e-05
8.27779e-05
8.15826e-05
7.97642e-05
7.76982e-05
7.39873e-05
6.8811e-05
6.16481e-05
5.27274e-05
4.20717e-05
3.69842e-05
2.62936e-05
2.28269e-05
2.56751e-05
3.58345e-05
0.000167594
9.93458e-05
6.57478e-05
6.49817e-05
6.91425e-05
7.58265e-05
9.03345e-05
0.00010157
0.000122765
0.000114944
0.000106863
9.97096e-05
9.32359e-05
8.74343e-05
8.22183e-05
7.75357e-05
7.32815e-05
6.93962e-05
6.58112e-05
6.24651e-05
5.93226e-05
5.63766e-05
5.36259e-05
5.1069e-05
4.87026e-05
4.65201e-05
4.45112e-05
4.26612e-05
4.09574e-05
3.9389e-05
3.79439e-05
3.66118e-05
3.53812e-05
3.42435e-05
3.31922e-05
3.22225e-05
3.13299e-05
3.04921e-05
2.96359e-05
2.87437e-05
2.78573e-05
2.70141e-05
2.62346e-05
2.55271e-05
2.48939e-05
2.43348e-05
2.38501e-05
2.3439e-05
2.31001e-05
2.28316e-05
2.26312e-05
2.24969e-05
2.24268e-05
2.24194e-05
2.24735e-05
2.25878e-05
2.27614e-05
2.29944e-05
2.32866e-05
2.36373e-05
2.4046e-05
2.45099e-05
2.50281e-05
2.55995e-05
2.62229e-05
2.68975e-05
2.76189e-05
2.83768e-05
2.9172e-05
3.00052e-05
3.08769e-05
3.17872e-05
3.27358e-05
3.3722e-05
3.47446e-05
3.58023e-05
3.68935e-05
3.80167e-05
3.91702e-05
4.03527e-05
4.15627e-05
4.27991e-05
4.40606e-05
4.53456e-05
4.6652e-05
4.7977e-05
4.93167e-05
5.06663e-05
5.202e-05
5.33711e-05
5.47129e-05
5.60397e-05
5.73476e-05
5.8632e-05
5.98882e-05
6.11143e-05
6.23096e-05
6.34739e-05
6.46079e-05
6.57118e-05
6.67861e-05
6.78321e-05
6.88509e-05
6.98433e-05
7.08101e-05
7.17516e-05
7.26669e-05
7.35559e-05
7.44187e-05
7.52563e-05
7.60692e-05
7.68581e-05
7.76236e-05
7.83663e-05
7.90871e-05
7.97857e-05
8.04628e-05
8.11201e-05
8.17583e-05
8.23779e-05
8.29795e-05
8.35639e-05
8.41316e-05
8.4683e-05
8.52187e-05
8.5739e-05
8.62443e-05
8.67353e-05
8.72125e-05
8.76792e-05
8.8137e-05
8.85847e-05
8.90216e-05
8.94468e-05
8.98611e-05
9.02647e-05
9.0658e-05
9.10413e-05
9.14149e-05
9.17789e-05
9.21337e-05
9.24795e-05
9.28165e-05
9.31452e-05
9.3466e-05
9.37795e-05
9.40864e-05
9.43873e-05
9.46829e-05
9.49737e-05
9.52605e-05
9.55436e-05
9.58235e-05
9.61008e-05
9.63757e-05
9.66488e-05
9.69206e-05
9.71919e-05
9.74632e-05
9.77353e-05
9.80086e-05
9.82839e-05
9.85619e-05
9.8843e-05
9.91279e-05
9.9417e-05
9.97105e-05
0.000100008
0.00010031
0.000100616
0.000100925
0.000101236
0.00010155
0.000101865
0.000102182
0.000102499
0.000102816
0.000103134
0.000103451
0.000103769
0.000104086
0.000104404
0.000104721
0.000105038
0.000105356
0.000105673
0.00010599
0.000106307
0.000106623
0.00010694
0.000107256
0.000107573
0.000107891
0.000108209
0.000108529
0.00010885
0.000109173
0.000109497
0.000109825
0.000110154
0.000110486
0.000110821
0.000111159
0.0001115
0.000111843
0.000112189
0.000112536
0.000112885
0.000113235
0.000113584
0.000113934
0.000114282
0.000114629
0.000114974
0.000115318
0.000115658
0.000115995
0.000116328
0.000116657
0.000116982
0.000117301
0.000117616
0.000117925
0.00011823
0.000118529
0.000118823
0.000119113
0.000119396
0.000119674
0.000119946
0.000120211
0.000120468
0.000120719
0.000120962
0.000121196
0.000121423
0.000121641
0.00012185
0.00012205
0.000122242
0.000122424
0.000122599
0.000122764
0.000122922
0.000123071
0.000123213
0.000123348
0.000123476
0.000123598
0.000123714