/*--------------------------------*- C++ -*----------------------------------*\
| =========                 |                                                 |
| \\      /  F ield         | foam-extend: Open Source CFD                    |
|  \\    /   O peration     | Version:     3.2                                |
|   \\  /    A nd           | Web:         http://www.foam-extend.org         |
|    \\/     M anipulation  | For copyright notice see file Copyright         |
\*---------------------------------------------------------------------------*/
FoamFile
{
    version     2.0;
    format      ascii;
    class       volScalarField;
    location    "120";
    object      omega;
}
// * * * * * * * * * * * * * * * * * * * * * * * * * * * * * * * * * * * * * //

dimensions      [0 0 -1 0 0 0 0];

internalField   nonuniform List<scalar> 
33000
(
26.1273
29.66
33.4495
37.386
41.3436
45.1973
48.8418
52.185
55.1704
57.7555
59.9321
61.704
63.097
64.1406
64.8736
65.3337
65.5623
65.5974
65.4762
65.2406
64.9144
64.5172
64.0664
63.577
63.0626
62.535
62.0039
61.4792
60.9678
60.4707
59.989
59.5246
59.0792
58.6538
58.2488
57.8645
57.5007
57.1571
56.8333
56.5286
56.2422
55.9735
55.7214
55.485
55.2633
55.0555
54.8607
54.6783
54.5074
54.3473
54.1973
54.0568
53.9251
53.8014
53.6852
53.5757
53.4723
53.3746
53.282
53.1941
53.1105
53.0308
52.9547
52.882
52.8123
52.7454
52.6811
52.6192
52.5595
52.5017
52.4457
52.3913
52.3382
52.2864
52.2358
52.1861
52.1373
52.0893
52.042
51.9955
51.9498
51.9047
51.8605
51.8169
51.7739
51.7316
51.6899
51.6487
51.6081
51.5679
51.5282
51.4889
51.4499
51.411
51.3723
51.3339
51.2956
51.2576
51.2197
51.1821
51.1446
51.1073
51.07
51.0327
50.9953
50.9577
50.9198
50.8818
50.8434
50.8047
50.7656
50.726
50.6861
50.6457
50.6048
50.5635
50.5217
50.4794
50.4366
50.3934
50.3498
50.3057
50.2613
50.2164
50.1712
50.1256
50.0797
50.0333
49.9863
49.9379
49.8898
49.844
49.7988
49.7533
49.708
49.6627
49.6174
49.5721
49.5267
49.4813
49.436
49.3906
49.3453
49.3
49.2549
49.2098
49.1649
49.1203
49.0758
49.0315
48.9875
48.9437
48.9002
48.857
48.8141
48.7716
48.7294
48.6876
48.6463
48.6054
48.5649
48.525
48.4855
48.4466
48.4082
48.3705
48.3333
48.2966
48.2606
48.2252
48.1903
48.156
48.1222
48.089
48.0564
48.0242
47.9925
47.9613
47.9305
47.9002
47.8704
47.841
47.812
47.7835
47.7554
47.7277
47.7005
47.6737
47.6473
47.6213
47.5958
47.5708
47.5462
47.5221
47.4985
47.4754
47.4528
47.4308
47.4093
47.3884
47.3681
47.3483
47.3292
47.3107
47.2928
47.2756
47.259
47.2429
47.2275
47.2126
47.1983
47.1846
47.1714
47.1587
47.1466
47.135
47.1238
47.1131
47.1028
47.0929
47.0835
47.0744
47.0656
47.0572
47.0491
47.0413
47.0338
47.0263
47.0188
47.0111
47.0033
46.9953
46.987
46.9786
46.9699
46.9609
46.9518
46.9424
46.9327
46.9228
46.9127
46.9023
46.8917
46.8809
46.8698
46.8585
46.8469
46.8352
46.8233
46.8112
46.7989
46.7864
46.7738
46.7611
46.7482
46.7352
46.722
46.7087
46.6953
46.6818
46.6682
46.6545
46.6407
46.6269
46.613
46.599
46.5849
46.5708
46.5567
46.5424
46.5282
46.5138
46.4995
46.4851
46.4707
46.4562
46.4417
46.4271
46.4125
46.3978
46.3831
46.3682
46.3534
46.3384
46.3235
46.3084
46.2933
46.2781
46.2629
46.2477
46.2324
46.2171
46.2018
46.1865
46.1712
46.1559
46.1407
46.1256
46.1106
46.0957
46.0809
46.0663
46.0519
46.0377
46.0238
46.01
45.9965
45.9832
45.9701
45.9572
45.9446
45.9322
45.9201
45.9084
45.8969
45.8856
45.8746
45.8638
45.8532
45.8428
45.8326
45.8227
45.8129
45.8033
45.794
45.7848
45.7758
45.767
45.7584
45.7499
45.7417
45.7336
45.7256
45.7179
45.7104
45.7031
45.696
45.689
45.6822
45.6756
45.6691
45.6628
45.6567
45.6506
45.6446
45.6387
45.6327
45.6269
45.6211
45.6152
45.6094
45.6035
45.5977
45.5917
45.5856
45.5794
45.5731
45.5667
45.5601
45.5533
45.5463
45.5392
45.5318
45.5242
45.5163
45.5082
45.4998
45.4911
45.4821
45.4727
45.4629
45.4527
45.4421
45.431
45.4196
45.4077
45.3954
45.3827
45.3697
45.3563
45.3425
45.3284
45.314
45.2992
45.2841
45.2686
45.2529
45.2369
45.2206
45.2041
45.1874
45.1705
45.1535
45.1364
45.1192
45.1019
45.0844
45.0669
45.0493
45.0316
45.0138
44.996
44.9781
44.9602
44.9422
44.9242
44.9061
44.888
44.8698
44.8516
44.8332
44.8149
44.7964
44.7779
44.7593
44.7407
44.7221
44.7034
44.6848
44.6661
44.6474
44.6287
44.61
44.5913
44.5727
44.5542
44.5357
44.5172
44.4988
44.4805
44.4622
44.444
44.4258
44.4076
44.3896
44.3715
44.3535
44.3356
44.3178
44.3
44.2823
44.2648
44.2472
44.2298
44.2124
44.1952
44.178
44.161
44.1441
44.1274
44.1108
44.0944
44.0781
44.0619
44.0459
44.0301
44.0144
43.9988
43.9835
43.9683
43.9532
43.9384
43.9237
43.9091
43.8947
43.8805
43.8664
43.8525
43.8388
43.8253
43.812
43.7989
43.7861
43.7734
43.7609
43.7485
43.7363
43.7242
43.7122
43.7002
43.6884
43.6767
43.6651
43.6537
43.6424
43.6313
43.6203
43.6094
43.5987
43.588
43.5774
43.5669
43.5564
43.5461
43.5359
43.5259
43.5158
43.5059
43.4959
43.4859
43.4758
43.4655
43.455
43.4444
43.4334
43.4223
43.4108
43.3991
43.3871
43.3749
43.3624
43.3498
43.337
43.3241
43.3109
43.2976
43.284
43.2704
43.2566
43.2427
43.2284
43.2141
43.1994
43.1844
43.1687
43.1525
43.1352
43.117
43.0965
43.0745
43.0481
43.0187
42.9804
42.9359
42.8738
42.8025
42.6894
42.6231
42.3654
41.7999
41.2023
40.4961
39.3502
37.7553
35.4685
32.2204
26.5749
20.5769
22.4497
6.67743
2.20409
3.78862
5.55513
7.40589
9.39893
11.4094
13.3986
15.3217
17.1667
18.8826
20.458
21.8555
23.0765
24.1185
24.9995
25.7369
26.3511
26.8699
27.3098
27.6798
27.9888
28.2214
28.3335
28.3443
28.2696
28.1275
27.9427
27.7505
27.5853
27.4698
27.4067
27.3805
27.3789
27.3919
27.4117
27.432
27.4486
27.4583
27.4591
27.4496
27.4296
27.3989
27.3582
27.3081
27.2497
27.1837
27.1126
27.0366
26.9563
26.8719
26.7834
26.6906
26.5935
26.4919
26.3862
26.2763
26.1625
26.046
25.9281
25.8095
25.6908
25.5723
25.4543
25.3368
25.2201
25.1044
24.9899
24.8767
24.7651
24.6553
24.5474
24.4416
24.3379
24.2363
24.1369
24.0397
23.9446
23.8516
23.7604
23.6708
23.5831
23.4971
23.4129
23.3305
23.2497
23.1706
23.0932
23.0174
22.9431
22.8703
22.7989
22.7291
22.6606
22.5933
22.5268
22.461
22.3958
22.3314
22.2675
22.2042
22.1416
22.0797
22.0185
21.9579
21.898
21.8386
21.7799
21.7217
21.6642
21.6074
21.5512
21.4956
21.4408
21.3866
21.333
21.2803
21.2283
21.177
21.1263
21.0763
21.027
20.9784
20.9305
20.8834
20.8371
20.7915
20.7469
20.7033
20.6609
20.6182
20.5747
20.5313
20.4888
20.4477
20.4077
20.3688
20.3308
20.2936
20.2572
20.2215
20.1865
20.1522
20.1185
20.0854
20.0529
20.0209
19.9895
19.9587
19.9283
19.8985
19.8692
19.8404
19.812
19.7841
19.7567
19.7297
19.7031
19.6769
19.6511
19.6256
19.6005
19.5757
19.5513
19.5272
19.5035
19.4801
19.4569
19.4341
19.4117
19.3895
19.3676
19.3461
19.3248
19.3039
19.2833
19.2631
19.2431
19.2234
19.204
19.1848
19.1659
19.1473
19.1289
19.1107
19.0928
19.0751
19.0576
19.0403
19.0232
19.0063
18.9896
18.973
18.9566
18.9404
18.9243
18.9083
18.8926
18.8769
18.8615
18.8461
18.8309
18.8158
18.8008
18.786
18.7713
18.7567
18.7422
18.7279
18.7137
18.6997
18.6858
18.672
18.6583
18.6448
18.6314
18.618
18.6049
18.5918
18.5789
18.5661
18.5534
18.5409
18.5284
18.5159
18.5035
18.4912
18.479
18.4668
18.4547
18.4427
18.4307
18.4189
18.4072
18.3957
18.3842
18.3729
18.3617
18.3507
18.3397
18.3289
18.3183
18.3077
18.2973
18.287
18.2768
18.2668
18.2568
18.2468
18.237
18.2273
18.2176
18.208
18.1985
18.1891
18.1797
18.1704
18.1612
18.1521
18.1431
18.1341
18.1251
18.1163
18.1074
18.0987
18.09
18.0814
18.0728
18.0644
18.0559
18.0476
18.0393
18.0311
18.0229
18.0148
18.0067
17.9987
17.9908
17.983
17.9752
17.9675
17.9598
17.9522
17.9446
17.9371
17.9297
17.9223
17.9149
17.9076
17.9004
17.8931
17.8859
17.8788
17.8716
17.8645
17.8574
17.8503
17.8433
17.8362
17.8291
17.822
17.8149
17.8078
17.8006
17.7934
17.7863
17.7792
17.7722
17.7652
17.7582
17.7512
17.7442
17.7372
17.7302
17.7232
17.7163
17.7095
17.7028
17.6961
17.6895
17.683
17.6765
17.67
17.6636
17.6572
17.6509
17.6446
17.6384
17.6323
17.6262
17.6202
17.6142
17.6083
17.6024
17.5965
17.5906
17.5848
17.579
17.5732
17.5675
17.5617
17.556
17.5503
17.5447
17.5391
17.5336
17.5281
17.5226
17.5171
17.5116
17.5062
17.5007
17.4953
17.4899
17.4845
17.4792
17.474
17.4687
17.4636
17.4585
17.4534
17.4483
17.4433
17.4383
17.4332
17.4282
17.4232
17.4183
17.4134
17.4085
17.4038
17.3991
17.3944
17.3899
17.3853
17.3808
17.3762
17.3717
17.3671
17.3625
17.3579
17.3533
17.3487
17.3441
17.3395
17.335
17.3304
17.3259
17.3214
17.3168
17.3121
17.3074
17.3026
17.2978
17.2929
17.288
17.2832
17.2783
17.2734
17.2686
17.2637
17.2589
17.254
17.2492
17.2443
17.2394
17.2346
17.2297
17.2249
17.22
17.2152
17.2104
17.2057
17.2009
17.1962
17.1914
17.1867
17.1819
17.1772
17.1724
17.1677
17.1629
17.1582
17.1534
17.1486
17.1438
17.139
17.1342
17.1294
17.1245
17.1197
17.1149
17.1101
17.1053
17.1004
17.0956
17.0907
17.0858
17.0809
17.0759
17.0709
17.0658
17.0607
17.0557
17.0506
17.0455
17.0403
17.0351
17.0299
17.0246
17.0192
17.0139
17.0086
17.0033
16.9981
16.9928
16.9876
16.9823
16.9771
16.9719
16.9666
16.9614
16.9562
16.9511
16.9461
16.9411
16.9361
16.9312
16.9262
16.9212
16.9162
16.9112
16.9062
16.9012
16.8963
16.8914
16.8866
16.8819
16.8772
16.8726
16.8679
16.8633
16.8586
16.8538
16.8489
16.844
16.8392
16.8343
16.8296
16.8249
16.8202
16.8156
16.811
16.8063
16.8016
16.7968
16.792
16.7872
16.7824
16.7776
16.773
16.7684
16.764
16.7594
16.7552
16.7508
16.7467
16.7424
16.7383
16.7339
16.7297
16.7252
16.721
16.7164
16.7122
16.7075
16.7033
16.6986
16.6945
16.6898
16.6857
16.681
16.6771
16.6727
16.6694
16.6657
16.6634
16.661
16.6609
16.6615
16.6656
16.6721
16.6847
16.7032
16.7328
16.7726
16.838
16.9073
17.1246
17.544
18.0068
18.4887
19.1831
20.1139
21.3204
22.4898
24.0201
24.8154
20.1528
13.035
7.26096
0.753134
1.0033
1.32601
1.72073
2.16645
2.6795
3.29197
3.95842
4.66014
5.36065
6.06617
6.75602
7.42518
8.06313
8.66851
9.23622
9.76933
10.2661
10.7273
11.153
11.5464
11.9106
12.2446
12.5493
12.8268
13.0805
13.3162
13.5402
13.7612
13.9878
14.2257
14.4768
14.7413
14.9922
15.2268
15.445
15.6463
15.8301
15.9958
16.1428
16.2702
16.3769
16.4629
16.5277
16.5713
16.5936
16.5959
16.5804
16.5495
16.5062
16.4535
16.3949
16.3334
16.272
16.2126
16.1566
16.1051
16.0567
16.0099
15.9641
15.9185
15.8733
15.8281
15.7827
15.7368
15.6905
15.6436
15.5962
15.5482
15.4995
15.4501
15.3998
15.3485
15.296
15.2422
15.1871
15.1306
15.0726
15.013
14.952
14.8896
14.8259
14.7613
14.6957
14.6296
14.5629
14.4958
14.4284
14.3607
14.2927
14.2245
14.1561
14.0877
14.019
13.9507
13.8828
13.8151
13.7478
13.681
13.6146
13.5489
13.4838
13.4195
13.3559
13.2931
13.2311
13.1698
13.1095
13.05
12.9915
12.934
12.8774
12.822
12.7675
12.7142
12.6619
12.6108
12.5608
12.5119
12.464
12.4172
12.3714
12.3267
12.2831
12.2405
12.1989
12.1584
12.1191
12.0809
12.0434
12.0062
11.9693
11.9331
11.898
11.8639
11.8308
11.7986
11.7674
11.737
11.7074
11.6787
11.6507
11.6235
11.597
11.5712
11.546
11.5215
11.4976
11.4742
11.4515
11.4292
11.4076
11.3864
11.3657
11.3456
11.3258
11.3065
11.2877
11.2692
11.251
11.2333
11.2159
11.1988
11.182
11.1656
11.1494
11.1335
11.1179
11.1025
11.0874
11.0725
11.0579
11.0434
11.0293
11.0153
11.0016
10.9881
10.9749
10.9619
10.9491
10.9366
10.9243
10.9122
10.9002
10.8885
10.877
10.8656
10.8545
10.8434
10.8326
10.8219
10.8114
10.8009
10.7906
10.7804
10.7704
10.7604
10.7505
10.7408
10.7311
10.7215
10.712
10.7025
10.6931
10.6838
10.6744
10.6652
10.656
10.6469
10.6379
10.6289
10.62
10.6111
10.6022
10.5934
10.5847
10.576
10.5674
10.5588
10.5503
10.5419
10.5336
10.5253
10.5171
10.5089
10.5008
10.4927
10.4845
10.4763
10.4681
10.4599
10.4517
10.4436
10.4354
10.4273
10.4192
10.4112
10.4033
10.3954
10.3876
10.3799
10.3722
10.3647
10.3573
10.35
10.3427
10.3356
10.3286
10.3216
10.3147
10.308
10.3012
10.2946
10.2881
10.2816
10.2752
10.2689
10.2627
10.2565
10.2504
10.2444
10.2384
10.2325
10.2267
10.2209
10.2152
10.2095
10.2039
10.1984
10.1929
10.1875
10.1821
10.1768
10.1715
10.1663
10.1612
10.1561
10.151
10.1461
10.1412
10.1363
10.1315
10.1268
10.1221
10.1174
10.1128
10.1083
10.1038
10.0994
10.095
10.0907
10.0864
10.0821
10.0779
10.0737
10.0695
10.0654
10.0612
10.0571
10.053
10.0488
10.0446
10.0404
10.0362
10.032
10.0278
10.0236
10.0194
10.0152
10.011
10.0068
10.0026
9.9983
9.994
9.9897
9.98541
9.98113
9.97687
9.97264
9.96844
9.96427
9.96011
9.95595
9.95179
9.94763
9.94348
9.93934
9.93524
9.93117
9.92714
9.92314
9.91916
9.91518
9.9112
9.90719
9.90318
9.89917
9.89516
9.89116
9.88715
9.88314
9.87912
9.87509
9.87109
9.8671
9.86313
9.85917
9.85521
9.85124
9.84727
9.8433
9.83932
9.83535
9.83139
9.82745
9.82354
9.81966
9.81583
9.81204
9.80829
9.80458
9.80089
9.79723
9.79358
9.78994
9.78632
9.78272
9.77916
9.77564
9.7722
9.76883
9.76554
9.76234
9.75922
9.75617
9.75317
9.75022
9.7473
9.74441
9.74153
9.73867
9.73585
9.73307
9.73035
9.7277
9.72512
9.72261
9.72015
9.71771
9.71529
9.71286
9.71042
9.70795
9.70548
9.703
9.70053
9.69809
9.69568
9.6933
9.69096
9.68864
9.68633
9.68404
9.68175
9.67946
9.67719
9.67492
9.67266
9.67043
9.66822
9.66605
9.66391
9.66181
9.65973
9.65768
9.65563
9.6536
9.65158
9.64958
9.64759
9.64563
9.64368
9.64175
9.63983
9.63791
9.63599
9.63406
9.63213
9.63021
9.62829
9.62639
9.62449
9.6226
9.62072
9.61884
9.61696
9.61505
9.61312
9.61115
9.60916
9.60714
9.60511
9.60307
9.60102
9.59896
9.59687
9.59474
9.59256
9.59033
9.58807
9.58578
9.58349
9.58119
9.5789
9.5766
9.57431
9.57201
9.56968
9.56733
9.56496
9.56258
9.56019
9.55783
9.55549
9.55319
9.55091
9.54864
9.54635
9.54404
9.54169
9.53931
9.5369
9.53447
9.53204
9.52963
9.52723
9.52486
9.52253
9.52022
9.51793
9.51563
9.51329
9.51088
9.50839
9.50584
9.50325
9.50065
9.49805
9.49548
9.49295
9.49045
9.48796
9.48547
9.48292
9.48033
9.47766
9.47496
9.47222
9.4695
9.46678
9.46411
9.46146
9.45888
9.45634
9.45387
9.45144
9.44908
9.44673
9.44442
9.4421
9.43979
9.43746
9.43512
9.43278
9.43047
9.42818
9.42595
9.42374
9.42157
9.4194
9.41727
9.41518
9.41321
9.41143
9.40993
9.40891
9.40835
9.40883
9.41033
9.41369
9.41929
9.4284
9.44223
9.46322
9.49313
9.54067
9.6001
9.73595
9.98038
10.3094
10.7489
11.3555
12.2681
13.5898
15.4465
17.9713
20.7796
20.1634
14.3367
7.93516
0.608882
0.652864
0.719823
0.814259
0.93395
1.08138
1.2637
1.45624
1.65237
1.85312
2.05896
2.26689
2.47764
2.68718
2.8951
3.09905
3.30153
3.50271
3.70491
3.9108
4.12238
4.33947
4.56001
4.78146
5.00166
5.21949
5.43474
5.64799
5.86024
6.07264
6.28719
6.50539
6.72897
6.9567
7.18734
7.41971
7.65263
7.88343
8.10503
8.31601
8.52044
8.72231
8.92306
9.12308
9.32199
9.51946
9.70772
9.88149
10.0408
10.186
10.3176
10.4367
10.5443
10.6416
10.7294
10.8087
10.8802
10.9436
10.9988
11.0457
11.0841
11.114
11.1355
11.1487
11.1536
11.1504
11.1394
11.1211
11.096
11.0648
11.0284
10.9874
10.9428
10.8953
10.8459
10.7951
10.7437
10.6919
10.6402
10.5887
10.5374
10.4865
10.4359
10.3853
10.3345
10.2833
10.2314
10.1785
10.1244
10.0689
10.0119
9.9532
9.8931
9.83164
9.76916
9.70605
9.64263
9.57916
9.5159
9.45303
9.39069
9.32906
9.26825
9.20839
9.14957
9.09186
9.03531
8.97997
8.92587
8.87304
8.82149
8.77123
8.72226
8.67457
8.62816
8.58305
8.53922
8.49662
8.45521
8.41501
8.37596
8.33804
8.30122
8.26548
8.2308
8.19716
8.16456
8.133
8.10249
8.07277
8.04364
8.015
7.98701
7.95994
7.93371
7.90834
7.88378
7.86001
7.83701
7.81474
7.79319
7.77233
7.75215
7.73261
7.71369
7.69536
7.67759
7.66036
7.64365
7.62743
7.6117
7.59643
7.58161
7.56723
7.55327
7.53971
7.52652
7.51369
7.5012
7.48904
7.47719
7.46565
7.4544
7.44342
7.43269
7.42221
7.41196
7.40193
7.3921
7.38247
7.37303
7.36378
7.35471
7.34582
7.33711
7.32859
7.32025
7.3121
7.30414
7.29637
7.28878
7.28137
7.27413
7.26705
7.26013
7.25336
7.24673
7.24025
7.23391
7.2277
7.2216
7.21562
7.20974
7.20396
7.19826
7.19265
7.18712
7.18166
7.17628
7.17096
7.1657
7.16049
7.15531
7.15017
7.14504
7.13995
7.13488
7.12984
7.12484
7.11987
7.11493
7.11002
7.10512
7.10023
7.09535
7.09049
7.08565
7.08084
7.07606
7.07132
7.06662
7.06196
7.05733
7.05272
7.04812
7.04353
7.03896
7.03438
7.0298
7.02521
7.02062
7.01601
7.0114
7.00678
7.00216
6.99755
6.99294
6.98834
6.98376
6.9792
6.97467
6.97018
6.96572
6.96131
6.95695
6.95263
6.94836
6.94414
6.93995
6.93581
6.93172
6.92766
6.92364
6.91966
6.91573
6.91184
6.90799
6.90419
6.90043
6.8967
6.89301
6.88936
6.88574
6.88215
6.87859
6.87506
6.87157
6.86811
6.86469
6.86131
6.85797
6.85465
6.85136
6.84809
6.84485
6.84165
6.83848
6.83535
6.83226
6.8292
6.82618
6.82319
6.82024
6.81732
6.81443
6.81158
6.80876
6.80598
6.80323
6.80052
6.79784
6.7952
6.79259
6.79
6.78744
6.78491
6.78239
6.77988
6.77739
6.77489
6.77239
6.76988
6.76736
6.76483
6.76229
6.75975
6.75721
6.75468
6.75215
6.74961
6.74706
6.74449
6.74189
6.73927
6.73664
6.73399
6.73135
6.72871
6.72608
6.72346
6.72085
6.71825
6.71565
6.71305
6.71044
6.70781
6.70519
6.70258
6.69999
6.69743
6.69488
6.69234
6.68979
6.68724
6.68466
6.68207
6.67947
6.67686
6.67424
6.67162
6.66898
6.66632
6.66365
6.66097
6.6583
6.65563
6.65295
6.65028
6.64759
6.64489
6.64218
6.63945
6.63671
6.63396
6.6312
6.62845
6.62571
6.62298
6.62028
6.61761
6.61495
6.61231
6.60968
6.60705
6.60442
6.60178
6.59914
6.59651
6.5939
6.59131
6.58877
6.58628
6.58383
6.58145
6.57911
6.57682
6.57457
6.57233
6.57012
6.56791
6.56572
6.56354
6.56138
6.55927
6.5572
6.55519
6.55323
6.55132
6.54945
6.54761
6.54577
6.54394
6.5421
6.54025
6.53841
6.53657
6.53474
6.53294
6.53118
6.52945
6.52774
6.52607
6.5244
6.52275
6.52111
6.51948
6.51785
6.51623
6.51463
6.51305
6.5115
6.50999
6.50851
6.50705
6.50562
6.50421
6.50281
6.50143
6.50006
6.49872
6.4974
6.49611
6.49484
6.49359
6.49236
6.49114
6.48992
6.48872
6.48752
6.48634
6.48517
6.48402
6.48289
6.48177
6.48067
6.47957
6.47848
6.47737
6.47625
6.47512
6.47398
6.47283
6.47168
6.47054
6.46939
6.46823
6.46705
6.46584
6.4646
6.46334
6.46207
6.46078
6.45949
6.45821
6.45693
6.45566
6.45438
6.45309
6.45179
6.45046
6.44912
6.44778
6.44645
6.44513
6.44384
6.44256
6.4413
6.44003
6.43875
6.43744
6.4361
6.43474
6.43336
6.43197
6.43058
6.42919
6.42782
6.42647
6.42515
6.42383
6.42252
6.42117
6.41978
6.41833
6.41683
6.41528
6.4137
6.41211
6.41053
6.40895
6.40741
6.40587
6.40434
6.40277
6.40117
6.3995
6.39781
6.39607
6.39432
6.39256
6.39082
6.38906
6.38735
6.38563
6.38396
6.3823
6.3807
6.37909
6.37754
6.37596
6.37441
6.37282
6.37126
6.36965
6.3681
6.36654
6.36506
6.36356
6.36216
6.3607
6.35933
6.35792
6.35661
6.35537
6.35434
6.35357
6.35315
6.35336
6.35428
6.3564
6.36001
6.36594
6.37497
6.38883
6.4088
6.44055
6.48299
6.57108
6.716
6.93236
7.24723
7.69668
8.39615
9.48325
11.1999
13.6593
16.958
18.5208
15.3641
8.70564
0.589062
0.597974
0.615957
0.641672
0.676807
0.722258
0.781677
0.848932
0.924298
1.00011
1.07501
1.15059
1.22802
1.30632
1.38522
1.46411
1.54352
1.62356
1.70481
1.78813
1.87397
1.96217
2.05227
2.1437
2.23583
2.32811
2.42015
2.51186
2.60316
2.69399
2.78435
2.87441
2.96447
3.05476
3.14541
3.23649
3.3281
3.42245
3.52871
3.65088
3.78521
3.92753
4.07511
4.22661
4.38139
4.53929
4.69942
4.86054
5.02168
5.18198
5.34067
5.49717
5.65102
5.80187
5.94947
6.09359
6.23397
6.37054
6.50308
6.63115
6.75428
6.8714
6.98204
7.08576
7.18204
7.27042
7.34973
7.41779
7.47493
7.52153
7.55809
7.58519
7.60343
7.61344
7.61586
7.61134
7.60046
7.58369
7.56145
7.53402
7.50171
7.46491
7.42391
7.37899
7.33058
7.27922
7.22557
7.17037
7.11441
7.05849
7.00334
6.94961
6.89802
6.84873
6.80138
6.75589
6.71207
6.66973
6.62868
6.58862
6.54943
6.51124
6.47406
6.4379
6.40275
6.36857
6.33527
6.30279
6.27109
6.24013
6.20988
6.18033
6.15148
6.1233
6.09578
6.06891
6.04275
6.01729
5.99247
5.96831
5.94479
5.9219
5.89964
5.87801
5.85699
5.83658
5.81679
5.79761
5.77906
5.76096
5.74321
5.72578
5.70874
5.69226
5.6763
5.66087
5.64594
5.63152
5.61758
5.60411
5.59111
5.57856
5.56645
5.55477
5.54349
5.53261
5.5221
5.51196
5.50215
5.49268
5.48354
5.47471
5.46619
5.45797
5.45004
5.44239
5.435
5.42786
5.42097
5.4143
5.40787
5.40165
5.39564
5.38983
5.38421
5.37876
5.37348
5.36836
5.3634
5.35857
5.35389
5.34935
5.34494
5.34067
5.33653
5.33252
5.32866
5.32493
5.32134
5.31788
5.31455
5.31136
5.30828
5.30532
5.30247
5.29973
5.29709
5.29455
5.2921
5.28974
5.28746
5.28524
5.2831
5.28101
5.27897
5.27697
5.27503
5.27313
5.27126
5.26943
5.26763
5.26585
5.26408
5.26232
5.26056
5.2588
5.25705
5.2553
5.25356
5.25182
5.25009
5.24836
5.24662
5.24487
5.2431
5.24132
5.23954
5.23775
5.23596
5.23418
5.23241
5.23063
5.22886
5.22709
5.2253
5.2235
5.22169
5.21986
5.21801
5.21615
5.21426
5.21235
5.21042
5.20847
5.20649
5.2045
5.20248
5.20044
5.19839
5.19632
5.19425
5.19216
5.19007
5.18798
5.18589
5.1838
5.18172
5.17964
5.17756
5.17549
5.17342
5.17135
5.16929
5.16723
5.16518
5.16314
5.16111
5.15909
5.15708
5.15508
5.15308
5.1511
5.14913
5.14716
5.1452
5.14325
5.14131
5.13938
5.13747
5.13558
5.13369
5.13182
5.12996
5.1281
5.12626
5.12442
5.1226
5.12081
5.11902
5.11726
5.11552
5.11379
5.11207
5.11038
5.1087
5.10704
5.1054
5.10378
5.10218
5.1006
5.09904
5.0975
5.09598
5.09448
5.093
5.09153
5.09008
5.08863
5.08719
5.08576
5.08432
5.08288
5.08143
5.07998
5.07852
5.07706
5.07561
5.07416
5.07271
5.07127
5.06981
5.06834
5.06686
5.06536
5.06385
5.06233
5.0608
5.05927
5.05774
5.05622
5.0547
5.05319
5.05166
5.05013
5.04859
5.04703
5.04547
5.0439
5.04233
5.04078
5.03922
5.03767
5.0361
5.03452
5.03291
5.03129
5.02964
5.02798
5.0263
5.0246
5.02289
5.02115
5.01938
5.0176
5.01581
5.01401
5.0122
5.01037
5.00852
5.00666
5.00477
5.00286
5.00092
4.99896
4.99698
4.99498
4.99298
4.99098
4.98897
4.98698
4.98498
4.98299
4.98099
4.97899
4.97697
4.97493
4.97287
4.97081
4.96873
4.96666
4.9646
4.96256
4.96055
4.95856
4.9566
4.95466
4.95273
4.95082
4.94891
4.947
4.94508
4.94316
4.94125
4.93936
4.93749
4.93565
4.93385
4.93209
4.93035
4.92864
4.92693
4.92523
4.92353
4.92183
4.92012
4.91841
4.91672
4.91505
4.9134
4.91178
4.91019
4.90862
4.90707
4.90553
4.90401
4.9025
4.90099
4.8995
4.89802
4.89656
4.89512
4.89371
4.89233
4.89098
4.88965
4.88834
4.88704
4.88576
4.8845
4.88326
4.88205
4.88087
4.87971
4.87857
4.87746
4.87636
4.87528
4.87421
4.87316
4.87212
4.87111
4.87012
4.86915
4.8682
4.86728
4.86636
4.86546
4.86456
4.86366
4.86276
4.86186
4.86096
4.86007
4.8592
4.85832
4.85745
4.85657
4.85569
4.85479
4.85387
4.85295
4.85204
4.85112
4.85021
4.84932
4.84843
4.84754
4.84665
4.84575
4.84485
4.84393
4.84302
4.84211
4.84121
4.84033
4.83946
4.83861
4.83776
4.83689
4.83601
4.83511
4.83418
4.83325
4.8323
4.83136
4.83041
4.82946
4.82853
4.82761
4.8267
4.82579
4.82486
4.82389
4.82288
4.82182
4.82072
4.81959
4.81843
4.81727
4.81611
4.81496
4.81381
4.81267
4.8115
4.8103
4.80905
4.80778
4.80647
4.80515
4.8038
4.80246
4.80109
4.79974
4.79838
4.79704
4.79569
4.79437
4.79304
4.79174
4.79042
4.78911
4.78777
4.78644
4.78507
4.78374
4.78239
4.7811
4.7798
4.77856
4.7773
4.77609
4.77485
4.77367
4.77253
4.77153
4.7707
4.7701
4.76993
4.77024
4.77139
4.77354
4.77732
4.78319
4.7925
4.80608
4.82803
4.85864
4.91897
5.01393
5.16187
5.3828
5.70884
6.2328
7.06047
8.5008
10.6389
13.8043
16.4775
15.4451
9.4932
0.586265
0.590093
0.599562
0.611201
0.624706
0.64057
0.659988
0.683911
0.713894
0.746678
0.781805
0.817679
0.853505
0.889279
0.925383
0.962066
0.999316
1.03705
1.07524
1.11402
1.15351
1.19373
1.23468
1.27641
1.3189
1.36211
1.40599
1.4505
1.4956
1.54117
1.58716
1.63353
1.68019
1.72722
1.77474
1.82284
1.87162
1.92183
1.97623
2.03596
2.10006
2.16736
2.23704
2.30861
2.38176
2.45634
2.53224
2.6093
2.68739
2.76635
2.84605
2.92635
3.00709
3.08814
3.16938
3.2507
3.332
3.41318
3.49408
3.57457
3.65445
3.73351
3.81151
3.8882
3.96334
4.03674
4.10816
4.17722
4.24362
4.30709
4.36742
4.42443
4.47793
4.52779
4.57387
4.61608
4.65433
4.68849
4.71841
4.74395
4.76505
4.78176
4.7941
4.80217
4.80615
4.80634
4.80311
4.79694
4.78834
4.77787
4.76605
4.75405
4.74208
4.73036
4.71906
4.70823
4.69788
4.68796
4.67843
4.66939
4.66087
4.65267
4.64466
4.63674
4.62886
4.6209
4.61212
4.60268
4.59272
4.58236
4.57166
4.56069
4.54951
4.53819
4.52672
4.51516
4.50369
4.49233
4.48104
4.46989
4.45891
4.44813
4.43756
4.42719
4.41703
4.40708
4.39735
4.38786
4.37861
4.3695
4.36051
4.35163
4.34289
4.33442
4.3262
4.31826
4.31058
4.30317
4.29602
4.28913
4.2825
4.27613
4.27001
4.26413
4.2585
4.2531
4.24792
4.24297
4.23822
4.23368
4.22935
4.22521
4.22128
4.21754
4.21399
4.21063
4.20745
4.20444
4.20159
4.19891
4.19638
4.19401
4.19179
4.18972
4.18778
4.18597
4.18429
4.18273
4.18129
4.17996
4.17875
4.17764
4.17664
4.17574
4.17494
4.17425
4.17365
4.17316
4.17275
4.17244
4.17222
4.17209
4.17203
4.17204
4.17212
4.17227
4.17247
4.17272
4.17302
4.17337
4.17375
4.17416
4.1746
4.17505
4.17551
4.17598
4.17646
4.17694
4.17743
4.17792
4.1784
4.17887
4.17933
4.17976
4.18017
4.18057
4.18094
4.18129
4.18162
4.18193
4.18222
4.18248
4.18272
4.18292
4.18308
4.18321
4.18331
4.18338
4.18343
4.18346
4.18346
4.18345
4.18341
4.18334
4.18325
4.18312
4.18296
4.18277
4.18255
4.1823
4.18202
4.18171
4.18136
4.18098
4.18056
4.18012
4.17964
4.17912
4.17857
4.17799
4.17738
4.17674
4.17608
4.17539
4.17467
4.17394
4.17318
4.17241
4.17162
4.1708
4.16997
4.16913
4.16826
4.16739
4.1665
4.1656
4.1647
4.16379
4.16287
4.16195
4.16102
4.16008
4.15915
4.1582
4.15726
4.15631
4.15535
4.1544
4.15345
4.15251
4.15156
4.15062
4.14967
4.14873
4.14778
4.14684
4.14591
4.14498
4.14406
4.14315
4.14224
4.14135
4.14046
4.13958
4.13871
4.13785
4.137
4.13616
4.13533
4.13451
4.1337
4.1329
4.13212
4.13135
4.1306
4.12985
4.12911
4.12838
4.12765
4.12692
4.1262
4.12547
4.12474
4.12401
4.12328
4.12255
4.12182
4.1211
4.12038
4.11966
4.11894
4.11822
4.11748
4.11673
4.11597
4.11519
4.11441
4.11362
4.11283
4.11204
4.11123
4.11043
4.1096
4.10877
4.1079
4.10702
4.10612
4.1052
4.10426
4.10332
4.10236
4.10139
4.1004
4.09937
4.09832
4.09724
4.09612
4.09498
4.09382
4.09262
4.0914
4.09015
4.08887
4.08755
4.08622
4.08486
4.08348
4.08208
4.08066
4.0792
4.07772
4.0762
4.07466
4.07308
4.07147
4.06984
4.06818
4.06651
4.06484
4.06315
4.06145
4.05975
4.05803
4.05629
4.05453
4.05275
4.05095
4.04913
4.04729
4.04543
4.04357
4.04172
4.03987
4.03802
4.03619
4.03437
4.03255
4.03073
4.0289
4.02707
4.02522
4.02337
4.02152
4.01966
4.01782
4.016
4.0142
4.01242
4.01067
4.00893
4.0072
4.00548
4.00376
4.00203
4.00031
3.99859
3.99689
3.9952
3.99353
3.99188
3.99027
3.98867
3.9871
3.98554
3.984
3.98248
3.98096
3.97946
3.97797
3.9765
3.97506
3.97364
3.97225
3.97088
3.96954
3.96821
3.96691
3.96562
3.96435
3.9631
3.96188
3.96069
3.95953
3.95839
3.95727
3.95618
3.95511
3.95406
3.95302
3.95201
3.95102
3.95005
3.94911
3.94819
3.94729
3.94642
3.94556
3.94471
3.94386
3.94303
3.9422
3.94139
3.94059
3.93981
3.93903
3.93827
3.93751
3.93675
3.93599
3.93523
3.93447
3.93372
3.93297
3.93223
3.93151
3.9308
3.93009
3.92938
3.92867
3.92796
3.92723
3.92651
3.92579
3.92508
3.92437
3.92368
3.92299
3.9223
3.92159
3.92087
3.92013
3.91937
3.9186
3.91782
3.91702
3.91622
3.91542
3.91461
3.91381
3.91301
3.9122
3.91137
3.91051
3.9096
3.90866
3.90767
3.90665
3.90559
3.90453
3.90345
3.90237
3.90129
3.90021
3.8991
3.89797
3.8968
3.8956
3.89437
3.89313
3.89187
3.8906
3.88931
3.88802
3.88671
3.8854
3.88408
3.88277
3.88145
3.88014
3.8788
3.87747
3.87611
3.87475
3.87335
3.87198
3.87058
3.86923
3.86787
3.86656
3.86523
3.86394
3.86263
3.86136
3.86012
3.85897
3.85793
3.85706
3.85649
3.85626
3.85663
3.85771
3.85997
3.86372
3.86999
3.87937
3.89481
3.91728
3.95968
4.02487
4.12939
4.28843
4.52584
4.91961
5.54249
6.6945
8.51855
11.3077
14.4336
15.0796
10.37
0.586215
0.589958
0.598591
0.608389
0.617691
0.626949
0.635636
0.645228
0.656305
0.669403
0.684903
0.702098
0.720394
0.739627
0.759354
0.779295
0.799505
0.8201
0.84117
0.863112
0.886148
0.91035
0.935813
0.962663
0.99116
1.02142
1.0534
1.087
1.12209
1.15852
1.19617
1.23496
1.27485
1.31634
1.36023
1.40681
1.4559
1.50723
1.5607
1.61628
1.67391
1.73345
1.79471
1.85753
1.92173
1.98712
2.0535
2.1207
2.18854
2.2568
2.32524
2.3936
2.46163
2.52905
2.5956
2.66099
2.72492
2.78704
2.84699
2.9044
2.95887
3.01006
3.05783
3.10243
3.14454
3.18504
3.22448
3.26299
3.30059
3.3373
3.37309
3.40791
3.44164
3.47417
3.50536
3.53512
3.56355
3.59057
3.61607
3.63996
3.66227
3.68266
3.70108
3.71724
3.73113
3.74278
3.75227
3.75968
3.76514
3.76878
3.77078
3.77135
3.77072
3.7691
3.76667
3.76359
3.75999
3.75596
3.75163
3.74707
3.74236
3.73754
3.73264
3.72765
3.72262
3.71754
3.71234
3.70696
3.7014
3.69565
3.68957
3.68317
3.67653
3.66965
3.66264
3.65552
3.64853
3.64173
3.63519
3.62888
3.62279
3.61693
3.61116
3.6054
3.59967
3.59401
3.58846
3.58303
3.57772
3.5725
3.56733
3.56224
3.55727
3.55249
3.54791
3.54353
3.53934
3.53534
3.53154
3.52793
3.5245
3.52126
3.51821
3.51534
3.51265
3.51014
3.50781
3.50564
3.50364
3.5018
3.50012
3.49861
3.49725
3.49604
3.49499
3.49409
3.49334
3.49272
3.49223
3.49188
3.49166
3.49156
3.4916
3.49175
3.49203
3.49242
3.49292
3.49354
3.49426
3.49509
3.49603
3.49706
3.49819
3.49941
3.50072
3.5021
3.50356
3.50509
3.50669
3.50835
3.51005
3.51181
3.5136
3.51543
3.51729
3.51917
3.52107
3.52298
3.5249
3.52681
3.52872
3.53062
3.5325
3.53435
3.53618
3.53798
3.53974
3.54148
3.54318
3.54484
3.54647
3.54806
3.5496
3.5511
3.55255
3.55395
3.55532
3.55663
3.55791
3.55915
3.56034
3.5615
3.5626
3.56366
3.56467
3.56563
3.56654
3.56741
3.56824
3.56904
3.5698
3.57052
3.57121
3.57187
3.57248
3.57306
3.57361
3.57411
3.57459
3.57503
3.57543
3.57581
3.57615
3.57645
3.57673
3.57697
3.57717
3.57734
3.57748
3.57758
3.57765
3.57768
3.57768
3.57766
3.5776
3.57752
3.57741
3.57727
3.57711
3.57693
3.57673
3.5765
3.57626
3.57599
3.57572
3.57543
3.57512
3.57481
3.57449
3.57416
3.57382
3.57348
3.57312
3.57276
3.57239
3.57202
3.57164
3.57126
3.57087
3.57049
3.5701
3.56972
3.56933
3.56893
3.56854
3.56815
3.56776
3.56737
3.567
3.56662
3.56626
3.56589
3.56554
3.56519
3.56485
3.56452
3.56419
3.56386
3.56355
3.56324
3.56294
3.56265
3.56237
3.5621
3.56184
3.56158
3.56133
3.56108
3.56084
3.56061
3.56037
3.56013
3.5599
3.55966
3.55942
3.55919
3.55896
3.55873
3.55851
3.55829
3.55806
3.55783
3.55758
3.55732
3.55705
3.55676
3.55645
3.55613
3.55579
3.55543
3.55506
3.55466
3.55424
3.55378
3.55329
3.55276
3.55219
3.55159
3.55096
3.55029
3.5496
3.54887
3.5481
3.54729
3.54644
3.54555
3.54462
3.54365
3.54264
3.5416
3.54052
3.53939
3.53823
3.53704
3.53581
3.53455
3.53326
3.53194
3.5306
3.52921
3.5278
3.52635
3.52487
3.52335
3.52179
3.52021
3.5186
3.51697
3.51532
3.51366
3.51198
3.51029
3.50858
3.50686
3.50511
3.50334
3.50154
3.49972
3.49789
3.49603
3.49417
3.4923
3.49043
3.48856
3.48669
3.48482
3.48296
3.48109
3.47921
3.47733
3.47543
3.47353
3.47162
3.46972