/*--------------------------------*- C++ -*----------------------------------*\
| =========                 |                                                 |
| \\      /  F ield         | foam-extend: Open Source CFD                    |
|  \\    /   O peration     | Version:     3.2                                |
|   \\  /    A nd           | Web:         http://www.foam-extend.org         |
|    \\/     M anipulation  | For copyright notice see file Copyright         |
\*---------------------------------------------------------------------------*/
FoamFile
{
    version     2.0;
    format      ascii;
    class       volScalarField;
    location    "120";
    object      p;
}
// * * * * * * * * * * * * * * * * * * * * * * * * * * * * * * * * * * * * * //

dimensions      [1 -1 -2 0 0 0 0];

internalField   nonuniform List<scalar> 
33000
(
1177.44
1178.97
1180.26
1182.86
1184.17
1186.45
1187.53
1189.2
1190.03
1191.21
1191.92
1192.79
1193.38
1194.04
1194.56
1195.11
1195.6
1196.08
1196.53
1196.98
1197.4
1197.82
1198.23
1198.64
1199.04
1199.44
1199.83
1200.22
1200.61
1200.99
1201.37
1201.75
1202.13
1202.5
1202.87
1203.24
1203.61
1203.98
1204.35
1204.72
1205.08
1205.45
1205.81
1206.17
1206.54
1206.9
1207.26
1207.63
1207.99
1208.35
1208.71
1209.08
1209.44
1209.8
1210.17
1210.53
1210.9
1211.26
1211.62
1211.99
1212.35
1212.72
1213.08
1213.45
1213.81
1214.18
1214.54
1214.91
1215.27
1215.64
1216
1216.36
1216.72
1217.08
1217.44
1217.8
1218.16
1218.52
1218.88
1219.23
1219.59
1219.94
1220.29
1220.65
1221
1221.35
1221.7
1222.05
1222.4
1222.74
1223.09
1223.44
1223.78
1224.13
1224.48
1224.82
1225.17
1225.51
1225.86
1226.21
1226.55
1226.89
1227.24
1227.58
1227.93
1228.28
1228.62
1228.97
1229.31
1229.66
1230
1230.35
1230.69
1231.04
1231.39
1231.73
1232.08
1232.43
1232.77
1233.12
1233.47
1233.81
1234.16
1234.51
1234.85
1235.2
1235.55
1235.9
1236.24
1236.59
1236.93
1237.25
1237.55
1237.85
1238.15
1238.45
1238.76
1239.06
1239.36
1239.67
1239.97
1240.28
1240.59
1240.89
1241.2
1241.51
1241.81
1242.12
1242.43
1242.74
1243.05
1243.36
1243.67
1243.98
1244.29
1244.6
1244.91
1245.23
1245.54
1245.85
1246.17
1246.48
1246.8
1247.11
1247.43
1247.74
1248.06
1248.38
1248.7
1249.02
1249.34
1249.66
1249.98
1250.3
1250.63
1250.95
1251.28
1251.6
1251.93
1252.25
1252.58
1252.91
1253.23
1253.56
1253.89
1254.22
1254.55
1254.88
1255.21
1255.54
1255.87
1256.2
1256.54
1256.87
1257.2
1257.53
1257.87
1258.2
1258.53
1258.86
1259.2
1259.53
1259.86
1260.2
1260.53
1260.86
1261.2
1261.53
1261.87
1262.2
1262.54
1262.87
1263.21
1263.55
1263.88
1264.22
1264.56
1264.9
1265.25
1265.59
1265.93
1266.27
1266.62
1266.96
1267.31
1267.65
1268
1268.34
1268.69
1269.03
1269.38
1269.73
1270.07
1270.42
1270.76
1271.11
1271.45
1271.8
1272.14
1272.49
1272.83
1273.17
1273.52
1273.86
1274.2
1274.55
1274.89
1275.23
1275.58
1275.92
1276.26
1276.6
1276.95
1277.29
1277.63
1277.97
1278.32
1278.66
1279
1279.34
1279.69
1280.03
1280.37
1280.72
1281.06
1281.4
1281.75
1282.09
1282.44
1282.78
1283.13
1283.47
1283.82
1284.16
1284.51
1284.85
1285.2
1285.55
1285.89
1286.24
1286.59
1286.94
1287.28
1287.63
1287.98
1288.33
1288.68
1289.02
1289.37
1289.72
1290.07
1290.42
1290.76
1291.11
1291.46
1291.81
1292.16
1292.51
1292.85
1293.2
1293.55
1293.9
1294.25
1294.59
1294.94
1295.29
1295.64
1295.99
1296.34
1296.68
1297.03
1297.38
1297.73
1298.08
1298.42
1298.77
1299.12
1299.46
1299.81
1300.16
1300.51
1300.85
1301.2
1301.55
1301.89
1302.24
1302.59
1302.93
1303.28
1303.63
1303.97
1304.32
1304.67
1305.02
1305.36
1305.71
1306.06
1306.41
1306.75
1307.1
1307.45
1307.79
1308.14
1308.48
1308.83
1309.17
1309.52
1309.86
1310.2
1310.54
1310.88
1311.22
1311.56
1311.9
1312.24
1312.57
1312.91
1313.25
1313.59
1313.93
1314.26
1314.6
1314.94
1315.28
1315.62
1315.96
1316.3
1316.64
1316.98
1317.32
1317.66
1318
1318.34
1318.68
1319.02
1319.36
1319.7
1320.04
1320.39
1320.73
1321.07
1321.41
1321.75
1322.09
1322.43
1322.77
1323.11
1323.45
1323.79
1324.13
1324.47
1324.81
1325.15
1325.49
1325.83
1326.17
1326.51
1326.85
1327.19
1327.53
1327.87
1328.21
1328.55
1328.89
1329.24
1329.58
1329.92
1330.27
1330.61
1330.95
1331.3
1331.64
1331.99
1332.34
1332.68
1333.03
1333.38
1333.72
1334.07
1334.42
1334.77
1335.11
1335.46
1335.81
1336.16
1336.51
1336.86
1337.21
1337.56
1337.91
1338.26
1338.62
1338.97
1339.32
1339.67
1340.02
1340.37
1340.73
1341.08
1341.43
1341.78
1342.13
1342.48
1342.83
1343.18
1343.53
1343.88
1344.23
1344.57
1344.92
1345.27
1345.62
1345.96
1346.31
1346.66
1347
1347.35
1347.69
1348.04
1348.38
1348.73
1349.07
1349.42
1349.76
1350.11
1350.45
1350.8
1351.14
1351.49
1351.83
1352.18
1352.52
1352.87
1353.22
1353.56
1353.91
1354.26
1354.61
1354.95
1355.3
1355.65
1356
1356.35
1356.7
1357.05
1357.39
1357.74
1358.09
1358.44
1358.78
1359.13
1359.48
1359.83
1360.17
1360.52
1360.86
1361.21
1361.56
1361.9
1362.25
1362.6
1362.94
1363.29
1363.64
1363.98
1364.33
1364.68
1365.02
1365.37
1365.71
1366.06
1366.41
1366.75
1367.1
1367.44
1367.78
1368.13
1368.47
1368.82
1369.16
1369.51
1369.86
1370.2
1370.55
1370.9
1371.25
1371.6
1371.95
1372.3
1372.66
1372.99
1373.37
1373.68
1374.08
1374.34
1374.79
1374.98
1375.66
1376.45
1379.88
1381.47
1383.15
1384.03
1387.01
1388.32
1392.32
1392.31
1394.47
1393.1
1394.52
1128.48
1130.14
1131.4
1134.02
1135.32
1137.62
1138.69
1140.37
1141.19
1142.37
1143.08
1143.95
1144.54
1145.2
1145.72
1146.27
1146.76
1147.24
1147.69
1148.13
1148.55
1148.97
1149.38
1149.79
1150.19
1150.59
1150.98
1151.37
1151.76
1152.14
1152.52
1152.9
1153.27
1153.65
1154.02
1154.39
1154.76
1155.13
1155.5
1155.87
1156.23
1156.6
1156.96
1157.32
1157.69
1158.05
1158.41
1158.78
1159.14
1159.5
1159.87
1160.23
1160.59
1160.95
1161.32
1161.68
1162.05
1162.41
1162.77
1163.14
1163.5
1163.87
1164.23
1164.6
1164.96
1165.33
1165.69
1166.06
1166.42
1166.78
1167.15
1167.51
1167.87
1168.23
1168.59
1168.95
1169.31
1169.67
1170.03
1170.38
1170.74
1171.09
1171.44
1171.79
1172.15
1172.5
1172.85
1173.2
1173.54
1173.89
1174.24
1174.58
1174.93
1175.28
1175.62
1175.97
1176.32
1176.66
1177.01
1177.35
1177.7
1178.04
1178.39
1178.73
1179.08
1179.42
1179.77
1180.11
1180.46
1180.8
1181.15
1181.5
1181.84
1182.19
1182.53
1182.88
1183.23
1183.57
1183.92
1184.27
1184.61
1184.96
1185.31
1185.65
1186
1186.35
1186.7
1187.04
1187.39
1187.74
1188.08
1188.39
1188.69
1189
1189.3
1189.6
1189.9
1190.21
1190.51
1190.82
1191.12
1191.43
1191.73
1192.04
1192.35
1192.65
1192.96
1193.27
1193.58
1193.89
1194.2
1194.51
1194.82
1195.13
1195.44
1195.75
1196.06
1196.37
1196.69
1197
1197.31
1197.63
1197.94
1198.26
1198.57
1198.89
1199.21
1199.53
1199.85
1200.17
1200.49
1200.81
1201.13
1201.45
1201.78
1202.1
1202.42
1202.75
1203.07
1203.4
1203.73
1204.05
1204.38
1204.71
1205.04
1205.37
1205.7
1206.03
1206.36
1206.69
1207.02
1207.35
1207.68
1208.02
1208.35
1208.68
1209.01
1209.35
1209.68
1210.01
1210.34
1210.68
1211.01
1211.34
1211.68
1212.01
1212.34
1212.68
1213.01
1213.35
1213.68
1214.02
1214.36
1214.69
1215.03
1215.37
1215.71
1216.05
1216.39
1216.73
1217.08
1217.42
1217.77
1218.11
1218.45
1218.8
1219.15
1219.49
1219.84
1220.18
1220.53
1220.87
1221.22
1221.56
1221.91
1222.25
1222.6
1222.94
1223.29
1223.63
1223.98
1224.32
1224.66
1225.01
1225.35
1225.69
1226.04
1226.38
1226.72
1227.07
1227.41
1227.75
1228.09
1228.44
1228.78
1229.12
1229.46
1229.8
1230.15
1230.49
1230.83
1231.18
1231.52
1231.86
1232.21
1232.55
1232.89
1233.24
1233.58
1233.93
1234.27
1234.62
1234.96
1235.31
1235.66
1236
1236.35
1236.69
1237.04
1237.39
1237.74
1238.08
1238.43
1238.78
1239.13
1239.47
1239.82
1240.17
1240.52
1240.87
1241.21
1241.56
1241.91
1242.26
1242.61
1242.96
1243.3
1243.65
1244
1244.35
1244.7
1245.05
1245.39
1245.74
1246.09
1246.44
1246.79
1247.13
1247.48
1247.83
1248.18
1248.53
1248.88
1249.22
1249.57
1249.92
1250.26
1250.61
1250.96
1251.31
1251.65
1252
1252.35
1252.69
1253.04
1253.39
1253.73
1254.08
1254.43
1254.77
1255.12
1255.47
1255.82
1256.16
1256.51
1256.86
1257.21
1257.55
1257.9
1258.25
1258.59
1258.94
1259.29
1259.63
1259.97
1260.32
1260.66
1261
1261.35
1261.69
1262.03
1262.37
1262.7
1263.04
1263.38
1263.72
1264.06
1264.4
1264.73
1265.07
1265.41
1265.75
1266.09
1266.43
1266.77
1267.11
1267.44
1267.78
1268.12
1268.46
1268.81
1269.15
1269.49
1269.83
1270.17
1270.51
1270.85
1271.19
1271.53
1271.87
1272.21
1272.55
1272.9
1273.24
1273.58
1273.92
1274.26
1274.6
1274.94
1275.28
1275.62
1275.96
1276.3
1276.64
1276.98
1277.32
1277.66
1278
1278.34
1278.68
1279.02
1279.36
1279.7
1280.04
1280.38
1280.73
1281.07
1281.41
1281.76
1282.1
1282.45
1282.79
1283.14
1283.48
1283.83
1284.18
1284.52
1284.87
1285.22
1285.57
1285.91
1286.26
1286.61
1286.96
1287.31
1287.66
1288.01
1288.36
1288.71
1289.06
1289.41
1289.76
1290.11
1290.47
1290.82
1291.17
1291.52
1291.87
1292.22
1292.58
1292.93
1293.28
1293.63
1293.98
1294.33
1294.68
1295.03
1295.37
1295.72
1296.07
1296.42
1296.76
1297.11
1297.46
1297.8
1298.15
1298.49
1298.84
1299.18
1299.53
1299.87
1300.22
1300.56
1300.91
1301.25
1301.6
1301.94
1302.29
1302.63
1302.98
1303.33
1303.67
1304.02
1304.36
1304.71
1305.06
1305.4
1305.75
1306.1
1306.45
1306.8
1307.15
1307.5
1307.84
1308.19
1308.54
1308.89
1309.24
1309.58
1309.93
1310.28
1310.63
1310.97
1311.32
1311.66
1312.01
1312.36
1312.7
1313.05
1313.4
1313.74
1314.09
1314.44
1314.78
1315.13
1315.48
1315.82
1316.17
1316.52
1316.86
1317.21
1317.55
1317.9
1318.24
1318.59
1318.93
1319.27
1319.62
1319.96
1320.31
1320.65
1321
1321.35
1321.7
1322.05
1322.4
1322.75
1323.1
1323.44
1323.8
1324.14
1324.51
1324.82
1325.22
1325.48
1325.94
1326.13
1326.87
1327.76
1330.98
1332.45
1334.27
1335.15
1338.15
1339.42
1343.42
1343.45
1345.66
1344.14
1345.51
1079.49
1081.23
1082.52
1085.17
1086.49
1088.78
1089.84
1091.52
1092.34
1093.53
1094.22
1095.1
1095.68
1096.34
1096.85
1097.41
1097.89
1098.38
1098.82
1099.27
1099.7
1100.12
1100.53
1100.94
1101.34
1101.74
1102.13
1102.52
1102.91
1103.29
1103.67
1104.05
1104.43
1104.8
1105.17
1105.54
1105.91
1106.28
1106.65
1107.02
1107.38
1107.75
1108.11
1108.47
1108.84
1109.2
1109.56
1109.93
1110.29
1110.65
1111.01
1111.38
1111.74
1112.1
1112.46
1112.83
1113.19
1113.56
1113.92
1114.29
1114.65
1115.02
1115.38
1115.75
1116.11
1116.48
1116.84
1117.2
1117.57
1117.93
1118.29
1118.66
1119.02
1119.38
1119.74
1120.1
1120.46
1120.81
1121.17
1121.53
1121.88
1122.24
1122.59
1122.94
1123.29
1123.64
1123.99
1124.34
1124.69
1125.04
1125.38
1125.73
1126.08
1126.42
1126.77
1127.12
1127.46
1127.81
1128.15
1128.5
1128.84
1129.19
1129.53
1129.88
1130.22
1130.57
1130.91
1131.26
1131.61
1131.95
1132.3
1132.64
1132.99
1133.33
1133.68
1134.03
1134.37
1134.72
1135.07
1135.41
1135.76
1136.11
1136.45
1136.8
1137.15
1137.49
1137.84
1138.19
1138.54
1138.88
1139.22
1139.54
1139.84
1140.14
1140.45
1140.75
1141.05
1141.35
1141.66
1141.96
1142.27
1142.57
1142.88
1143.19
1143.49
1143.8
1144.11
1144.42
1144.73
1145.03
1145.34
1145.65
1145.96
1146.27
1146.58
1146.9
1147.21
1147.52
1147.83
1148.15
1148.46
1148.77
1149.09
1149.4
1149.72
1150.04
1150.36
1150.67
1150.99
1151.31
1151.63
1151.95
1152.28
1152.6
1152.92
1153.25
1153.57
1153.9
1154.22
1154.55
1154.87
1155.2
1155.53
1155.86
1156.19
1156.52
1156.84
1157.17
1157.51
1157.84
1158.17
1158.5
1158.83
1159.16
1159.49
1159.83
1160.16
1160.49
1160.82
1161.16
1161.49
1161.82
1162.16
1162.49
1162.82
1163.16
1163.49
1163.82
1164.16
1164.49
1164.83
1165.17
1165.5
1165.84
1166.18
1166.52
1166.86
1167.2
1167.54
1167.88
1168.22
1168.57
1168.91
1169.26
1169.6
1169.95
1170.29
1170.64
1170.98
1171.33
1171.67
1172.02
1172.36
1172.71
1173.06
1173.4
1173.75
1174.09
1174.44
1174.78
1175.12
1175.47
1175.81
1176.15
1176.5
1176.84
1177.18
1177.53
1177.87
1178.21
1178.55
1178.9
1179.24
1179.58
1179.92
1180.27
1180.61
1180.95
1181.29
1181.64
1181.98
1182.32
1182.67
1183.01
1183.35
1183.7
1184.04
1184.39
1184.73
1185.07
1185.42
1185.76
1186.11
1186.46
1186.8
1187.15
1187.49
1187.84
1188.19
1188.53
1188.88
1189.23
1189.58
1189.93
1190.27
1190.62
1190.97
1191.32
1191.66
1192.01
1192.36
1192.71
1193.06
1193.41
1193.75
1194.1
1194.45
1194.8
1195.15
1195.5
1195.84
1196.19
1196.54
1196.89
1197.24
1197.58
1197.93
1198.28
1198.63
1198.98
1199.33
1199.67
1200.02
1200.37
1200.72
1201.06
1201.41
1201.76
1202.1
1202.45
1202.8
1203.15
1203.49
1203.84
1204.19
1204.53
1204.88
1205.23
1205.57
1205.92
1206.27
1206.61
1206.96
1207.31
1207.66
1208.01
1208.35
1208.7
1209.05
1209.39
1209.74
1210.09
1210.43
1210.78
1211.12
1211.46
1211.81
1212.15
1212.49
1212.83
1213.17
1213.51
1213.85
1214.19
1214.53
1214.87
1215.2
1215.54
1215.88
1216.22
1216.56
1216.9
1217.23
1217.57
1217.91
1218.25
1218.59
1218.93
1219.27
1219.61
1219.95
1220.29
1220.63
1220.97
1221.31
1221.66
1222
1222.34
1222.68
1223.02
1223.36
1223.7
1224.04
1224.38
1224.72
1225.06
1225.4
1225.74
1226.09
1226.43
1226.77
1227.1
1227.44
1227.78
1228.12
1228.46
1228.8
1229.14
1229.48
1229.82
1230.16
1230.5
1230.85
1231.19
1231.53
1231.87
1232.21
1232.56
1232.9
1233.25
1233.59
1233.94
1234.28
1234.63
1234.98
1235.32
1235.67
1236.02
1236.36
1236.71
1237.06
1237.41
1237.76
1238.11
1238.45
1238.8
1239.15
1239.5
1239.86
1240.21
1240.56
1240.91
1241.26
1241.61
1241.96
1242.32
1242.67
1243.02
1243.37
1243.72
1244.07
1244.42
1244.77
1245.12
1245.47
1245.82
1246.17
1246.52
1246.87
1247.22
1247.56
1247.91
1248.26
1248.6
1248.95
1249.29
1249.64
1249.99
1250.33
1250.68
1251.02
1251.37
1251.71
1252.06
1252.4
1252.75
1253.09
1253.44
1253.78
1254.13
1254.47
1254.82
1255.16
1255.51
1255.86
1256.2
1256.55
1256.9
1257.25
1257.6
1257.94
1258.29
1258.64
1258.99
1259.34
1259.69
1260.03
1260.38
1260.73
1261.08
1261.42
1261.77
1262.12
1262.47
1262.81
1263.16
1263.5
1263.85
1264.2
1264.54
1264.89
1265.24
1265.58
1265.93
1266.28
1266.62
1266.97
1267.32
1267.66
1268.01
1268.35
1268.7
1269.04
1269.39
1269.73
1270.08
1270.42
1270.77
1271.11
1271.46
1271.8
1272.15
1272.49
1272.85
1273.19
1273.54
1273.89
1274.25
1274.59
1274.95
1275.28
1275.65
1275.96
1276.36
1276.62
1277.08
1277.26
1278.11
1278.97
1281.95
1283.43
1285.3
1286.14
1289.1
1290.27
1294.23
1294.35
1296.66
1295.16
1296.71
1030.4
1032.3
1033.59
1036.32
1037.65
1039.98
1041.05
1042.73
1043.54
1044.72
1045.4
1046.27
1046.85
1047.51
1048.02
1048.58
1049.06
1049.54
1049.98
1050.43
1050.85
1051.27
1051.68
1052.09
1052.49
1052.89
1053.28
1053.67
1054.06
1054.44
1054.82
1055.2
1055.57
1055.95
1056.32
1056.69
1057.06
1057.43
1057.8
1058.16
1058.53
1058.9
1059.26
1059.62
1059.99
1060.35
1060.71
1061.07
1061.44
1061.8
1062.16
1062.53
1062.89
1063.25
1063.61
1063.98
1064.34
1064.71
1065.07
1065.44
1065.8
1066.17
1066.53
1066.9
1067.26
1067.62
1067.99
1068.35
1068.72
1069.08
1069.44
1069.81
1070.17
1070.53
1070.89
1071.25
1071.61
1071.96
1072.32
1072.68
1073.03
1073.39
1073.74
1074.09
1074.44
1074.79
1075.14
1075.49
1075.84
1076.19
1076.53
1076.88
1077.23
1077.57
1077.92
1078.26
1078.61
1078.96
1079.3
1079.65
1079.99
1080.34
1080.68
1081.03
1081.37
1081.72
1082.06
1082.41
1082.75
1083.1
1083.44
1083.79
1084.14
1084.48
1084.83
1085.17
1085.52
1085.87
1086.21
1086.56
1086.91
1087.25
1087.6
1087.95
1088.29
1088.64
1088.99
1089.34
1089.68
1090.03
1090.36
1090.68
1090.99
1091.29
1091.59
1091.9
1092.2
1092.5
1092.81
1093.11
1093.42
1093.72
1094.03
1094.33
1094.64
1094.95
1095.26
1095.56
1095.87
1096.18
1096.49
1096.8
1097.11
1097.42
1097.73
1098.04
1098.36
1098.67
1098.98
1099.29
1099.61
1099.92
1100.24
1100.55
1100.87
1101.19
1101.5
1101.82
1102.14
1102.46
1102.78
1103.1
1103.42
1103.75
1104.07
1104.39
1104.72
1105.04
1105.37
1105.69
1106.02
1106.35
1106.68
1107
1107.33
1107.66
1107.99
1108.32
1108.65
1108.98
1109.31
1109.65
1109.98
1110.31
1110.64
1110.97
1111.31
1111.64
1111.97
1112.3
1112.64
1112.97
1113.3
1113.64
1113.97
1114.3
1114.64
1114.97
1115.31
1115.64
1115.98
1116.31
1116.65
1116.99
1117.33
1117.66
1118
1118.34
1118.69
1119.03
1119.37
1119.71
1120.06
1120.4
1120.75
1121.09
1121.44
1121.78
1122.13
1122.47
1122.82
1123.17
1123.51
1123.86
1124.2
1124.55
1124.89
1125.24
1125.58
1125.93
1126.27
1126.61
1126.96
1127.3
1127.65
1127.99
1128.33
1128.67
1129.02
1129.36
1129.7
1130.04
1130.39
1130.73
1131.07
1131.41
1131.76
1132.1
1132.44
1132.78
1133.13
1133.47
1133.81
1134.16
1134.5
1134.84
1135.19
1135.53
1135.88
1136.22
1136.57
1136.91
1137.26
1137.6
1137.95
1138.29
1138.64
1138.99
1139.33
1139.68
1140.03
1140.38
1140.72
1141.07
1141.42
1141.77
1142.12
1142.46
1142.81
1143.16
1143.51
1143.86
1144.2
1144.55
1144.9
1145.25
1145.6
1145.95
1146.29
1146.64
1146.99
1147.34
1147.69
1148.03
1148.38
1148.73
1149.08
1149.43
1149.78
1150.12
1150.47
1150.82
1151.17
1151.52
1151.86
1152.21
1152.56
1152.9
1153.25
1153.6
1153.95
1154.29
1154.64
1154.99
1155.33
1155.68
1156.03
1156.37
1156.72
1157.07
1157.41
1157.76
1158.11
1158.46
1158.8
1159.15
1159.5
1159.85
1160.19
1160.54
1160.89
1161.23
1161.58
1161.92
1162.27
1162.61
1162.95
1163.3
1163.64
1163.98
1164.32
1164.66
1165
1165.34
1165.67
1166.01
1166.35
1166.69
1167.03
1167.37
1167.7
1168.04
1168.38
1168.72
1169.06
1169.4
1169.74
1170.08
1170.42
1170.76
1171.1
1171.44
1171.78
1172.12
1172.46
1172.8
1173.14
1173.48
1173.83
1174.17
1174.51
1174.85
1175.19
1175.53
1175.87
1176.21
1176.55
1176.89
1177.23
1177.57
1177.91
1178.25
1178.59
1178.93
1179.27
1179.61
1179.95
1180.29
1180.63
1180.97
1181.31
1181.65
1181.99
1182.33
1182.68
1183.02
1183.36
1183.71
1184.05
1184.39
1184.74
1185.08
1185.43
1185.78
1186.12
1186.47
1186.82
1187.16
1187.51
1187.86
1188.21
1188.55
1188.9
1189.25
1189.6
1189.95
1190.3
1190.65
1191
1191.35
1191.7
1192.06
1192.41
1192.76
1193.11
1193.46
1193.81
1194.17
1194.52
1194.87
1195.22
1195.57
1195.92
1196.27
1196.62
1196.97
1197.32
1197.67
1198.01
1198.36
1198.71
1199.06
1199.4
1199.75
1200.1
1200.44
1200.79
1201.13
1201.48
1201.82
1202.17
1202.51
1202.86
1203.2
1203.55
1203.89
1204.24
1204.58
1204.93
1205.27
1205.62
1205.96
1206.31
1206.66
1207
1207.35
1207.7
1208.05
1208.39
1208.74
1209.09
1209.44
1209.79
1210.14
1210.49
1210.83
1211.18
1211.53
1211.88
1212.22
1212.57
1212.92
1213.27
1213.61
1213.96
1214.3
1214.65
1215
1215.34
1215.69
1216.04
1216.38
1216.73
1217.08
1217.42
1217.77
1218.12
1218.46
1218.81
1219.15
1219.5
1219.85
1220.19
1220.54
1220.88
1221.22
1221.57
1221.91
1222.26
1222.6
1222.95
1223.3
1223.64
1223.99
1224.34
1224.69
1225.04
1225.39
1225.73
1226.09
1226.42
1226.8
1227.1
1227.5
1227.75
1228.23
1228.42
1229.33
1230.21
1232.99
1234.33
1236.29
1237.07
1240
1241.02
1244.92
1245.12
1247.64
1246.31
1247.88
981.236
983.315
984.648
987.468
988.826
991.166
992.228
993.909
994.722
995.9
996.573
997.431
998.006
998.661
999.171
999.721
1000.2
1000.68
1001.13
1001.58
1002
1002.42
1002.83
1003.24
1003.64
1004.04
1004.43
1004.82
1005.21
1005.59
1005.97
1006.35
1006.72
1007.1
1007.47
1007.84
1008.21
1008.58
1008.95
1009.31
1009.68
1010.04
1010.41
1010.77
1011.13
1011.5
1011.86
1012.22
1012.58
1012.95
1013.31
1013.67
1014.03
1014.4
1014.76
1015.12
1015.49
1015.85
1016.22
1016.58
1016.95
1017.31
1017.68
1018.04
1018.41
1018.77
1019.14
1019.5
1019.86
1020.23
1020.59
1020.95
1021.31
1021.68
1022.04
1022.39
1022.75
1023.11
1023.47
1023.82
1024.18
1024.53
1024.89
1025.24
1025.59
1025.94
1026.29
1026.64
1026.99
1027.33
1027.68
1028.03
1028.37
1028.72
1029.07
1029.41
1029.76
1030.1
1030.45
1030.79
1031.14
1031.48
1031.83
1032.17
1032.52
1032.86
1033.21
1033.56
1033.9
1034.25
1034.59
1034.94
1035.28
1035.63
1035.98
1036.32
1036.67
1037.01
1037.36
1037.71
1038.05
1038.4
1038.75
1039.09
1039.44
1039.79
1040.14
1040.48
1040.83
1041.17
1041.51
1041.82
1042.13
1042.44
1042.74
1043.04
1043.35
1043.65
1043.95
1044.26
1044.56
1044.87
1045.17
1045.48
1045.79
1046.1
1046.4
1046.71
1047.02
1047.33
1047.64
1047.95
1048.26
1048.57
1048.88
1049.19
1049.5
1049.82
1050.13
1050.44
1050.76
1051.07
1051.38
1051.7
1052.02
1052.33
1052.65
1052.97
1053.29
1053.61
1053.93
1054.25
1054.57
1054.89
1055.22
1055.54
1055.87
1056.19
1056.52
1056.84
1057.17
1057.5
1057.82
1058.15
1058.48
1058.81
1059.14
1059.47
1059.8
1060.13
1060.46
1060.79
1061.13
1061.46
1061.79
1062.12
1062.45
1062.79
1063.12
1063.45
1063.79
1064.12
1064.45
1064.78
1065.12
1065.45
1065.78
1066.12
1066.45
1066.79
1067.12
1067.46
1067.8
1068.13
1068.47
1068.81
1069.15
1069.49
1069.83
1070.17
1070.52
1070.86
1071.21
1071.55
1071.9
1072.24
1072.59
1072.93
1073.28
1073.62
1073.97
1074.31
1074.66
1075
1075.35
1075.69
1076.04
1076.38
1076.73
1077.07
1077.42
1077.76
1078.11
1078.45
1078.79
1079.14
1079.48
1079.82
1080.16
1080.51
1080.85
1081.19
1081.53
1081.88
1082.22
1082.56
1082.9
1083.25
1083.59
1083.93
1084.27
1084.62
1084.96
1085.3
1085.65
1085.99
1086.34
1086.68
1087.02
1087.37
1087.71
1088.06
1088.4
1088.75
1089.1
1089.44
1089.79
1090.13
1090.48
1090.83
1091.18
1091.52
1091.87
1092.22
1092.57
1092.91
1093.26
1093.61
1093.96
1094.31
1094.65
1095
1095.35
1095.7
1096.05
1096.4
1096.74
1097.09
1097.44
1097.79
1098.14
1098.49
1098.83
1099.18
1099.53
1099.88
1100.23
1100.57
1100.92
1101.27
1101.62
1101.97
1102.32
1102.66
1103.01
1103.36
1103.7
1104.05
1104.4
1104.75
1105.09
1105.44
1105.79
1106.13
1106.48
1106.83
1107.17
1107.52
1107.87
1108.21
1108.56
1108.91
1109.26
1109.6
1109.95
1110.3
1110.65
1110.99
1111.34
1111.69
1112.03
1112.38
1112.73
1113.07
1113.41
1113.76
1114.1
1114.44
1114.79
1115.13
1115.47
1115.81
1116.14
1116.48
1116.82
1117.16
1117.5
1117.84
1118.17
1118.51
1118.85
1119.19
1119.53
1119.87
1120.21
1120.55
1120.88
1121.22
1121.56
1121.9
1122.25
1122.59
1122.93
1123.27
1123.61
1123.95
1124.29
1124.63
1124.97
1125.31
1125.65
1126
1126.34
1126.68
1127.02
1127.36
1127.7
1128.04
1128.38
1128.72
1129.06
1129.4
1129.74
1130.08
1130.42
1130.76
1131.1
1131.44
1131.78
1132.12
1132.46
1132.8
1133.14
1133.48
1133.82
1134.17
1134.51
1134.85
1135.2
1135.54
1135.89
1136.23
1136.58
1136.92
1137.27
1137.62
1137.96
1138.31
1138.66
1139.01
1139.35
1139.7
1140.05
1140.4
1140.75
1141.1
1141.45
1141.8
1142.15
1142.5
1142.85
1143.2
1143.55
1143.91
1144.26
1144.61
1144.96
1145.31
1145.66
1146.02
1146.37
1146.72
1147.07
1147.42
1147.77
1148.12
1148.47
1148.81
1149.16
1149.51
1149.86
1150.2
1150.55
1150.9
1151.24
1151.59
1151.93
1152.28
1152.62
1152.97
1153.31
1153.66
1154
1154.35
1154.69
1155.04
1155.38
1155.73
1156.07
1156.42
1156.77
1157.11
1157.46
1157.8
1158.15
1158.5
1158.84
1159.19
1159.54
1159.89
1160.24
1160.59
1160.94
1161.28
1161.63
1161.98
1162.33
1162.68
1163.02
1163.37
1163.72
1164.07
1164.41
1164.76
1165.11
1165.45
1165.8
1166.14
1166.49
1166.84
1167.18
1167.53
1167.88
1168.22
1168.57
1168.92
1169.26
1169.61
1169.96
1170.3
1170.65
1170.99
1171.34
1171.68
1172.03
1172.37
1172.71
1173.06
1173.4
1173.75
1174.09
1174.44
1174.79
1175.14
1175.48
1175.84
1176.18
1176.54
1176.88
1177.24
1177.56
1177.94
1178.24
1178.64
1178.88
1179.37
1179.57
1180.55
1181.38
1183.95
1185.22
1187.21
1187.89
1190.76
1191.61
1195.39
1195.64
1198.38
1197.31
1199.28
931.982
934.3
935.664
938.61
939.991
942.366
943.425
945.112
945.921
947.093
947.761
948.612
949.18
949.833
950.34
950.89
951.363
951.846
952.288
952.734
953.155
953.575
953.983
954.39
954.79
955.187
955.58
955.97
956.356
956.738
957.118
957.496
957.871
958.244
958.617
958.988
959.358
959.726
960.094
960.461
960.827
961.191
961.555
961.919
962.282
962.644
963.007
963.369
963.732
964.095
964.457
964.82
965.183
965.546
965.909
966.273
966.637
967.001
967.365
967.73
968.095
968.46
968.825
969.19
969.555
969.92
970.285
970.649
971.013
971.376
971.739
972.101
972.463
972.824
973.184
973.544
973.902
974.26
974.618
974.974
975.329
975.682
976.036
976.388
976.739
977.089
977.439
977.788
978.136
978.484
978.83
979.176
979.522
979.869
980.216
980.562
980.908
981.253
981.6
981.945
982.289
982.633
982.978
983.323
983.668
984.013
984.358
984.704
985.049
985.395
985.74
986.086
986.432
986.778
987.124
987.469
987.816
988.162
988.509
988.855
989.202
989.549
989.896
990.242
990.589
990.936
991.283
991.63
991.976
992.318
992.651
992.969
993.279
993.584
993.887
994.191
994.494
994.798
995.102
995.407
995.712
996.017
996.323
996.63
996.937
997.244
997.552
997.86
998.169
998.478
998.787
999.097
999.407
999.717
1000.03
1000.34
1000.65
1000.96
1001.28
1001.59
1001.9
1002.22
1002.53
1002.85
1003.16
1003.48
1003.8
1004.12
1004.44
1004.76
1005.08
1005.4
1005.72
1006.04
1006.37
1006.69
1007.01
1007.34
1007.66
1007.99
1008.32
1008.64
1008.97
1009.3
1009.63
1009.96
1010.29
1010.62
1010.95
1011.28
1011.61
1011.94
1012.27
1012.61
1012.94
1013.27
1013.6
1013.93
1014.27
1014.6
1014.93
1015.27
1015.6
1015.93
1016.27
1016.6
1016.93
1017.27
1017.6
1017.94
1018.27
1018.61
1018.94
1019.28
1019.62
1019.96
1020.3
1020.64
1020.98
1021.32
1021.67
1022.01
1022.35
1022.7
1023.04
1023.39
1023.73
1024.08
1024.42
1024.77
1025.12
1025.46
1025.81
1026.15
1026.5
1026.84
1027.19
1027.53
1027.88
1028.22
1028.57
1028.91
1029.25
1029.6
1029.94
1030.28
1030.63
1030.97
1031.31
1031.65
1032
1032.34
1032.68
1033.02
1033.37
1033.71
1034.05
1034.39
1034.74
1035.08
1035.42
1035.76
1036.11
1036.45
1036.79
1037.14
1037.48
1037.83
1038.17
1038.52
1038.86
1039.21
1039.55
1039.9
1040.24
1040.59
1040.94
1041.28
1041.63
1041.98
1042.32
1042.67
1043.02
1043.37
1043.71
1044.06
1044.41
1044.76
1045.11
1045.45
1045.8
1046.15
1046.5
1046.85
1047.2
1047.54
1047.89
1048.24
1048.59
1048.94
1049.29
1049.63
1049.98
1050.33
1050.68
1051.03
1051.37
1051.72
1052.07
1052.42
1052.77
1053.12
1053.46
1053.81
1054.16
1054.5
1054.85
1055.2
1055.55
1055.89
1056.24
1056.59
1056.93
1057.28
1057.63
1057.97
1058.32
1058.67
1059.01
1059.36
1059.71
1060.06
1060.4
1060.75
1061.1
1061.45
1061.79
1062.14
1062.49
1062.84
1063.18
1063.53
1063.87
1064.22
1064.56
1064.91
1065.25
1065.59
1065.93
1066.27
1066.61
1066.95
1067.29
1067.63
1067.97
1068.31
1068.65
1068.98
1069.32
1069.66
1070
1070.34
1070.68
1071.01
1071.35
1071.69
1072.03
1072.37
1072.71
1073.05
1073.39
1073.73
1074.07
1074.41
1074.76
1075.1
1075.44
1075.78
1076.12
1076.46
1076.8
1077.14
1077.48
1077.82
1078.16
1078.51
1078.85
1079.19
1079.53
1079.87
1080.21
1080.55
1080.89
1081.23
1081.56
1081.9
1082.24
1082.58
1082.92
1083.26
1083.6
1083.94
1084.29
1084.63
1084.97
1085.31
1085.66
1086
1086.34
1086.69
1087.03
1087.38
1087.72
1088.07
1088.42
1088.76
1089.11
1089.46
1089.8
1090.15
1090.5
1090.85
1091.2
1091.55
1091.9
1092.25
1092.6
1092.95
1093.3
1093.65
1094
1094.35
1094.7
1095.05
1095.41
1095.76
1096.11
1096.46
1096.81
1097.16
1097.51
1097.87
1098.22
1098.57
1098.92
1099.26
1099.61
1099.96
1100.31
1100.66
1101
1101.35
1101.7
1102.04
1102.39
1102.74
1103.08
1103.43
1103.77
1104.12
1104.46
1104.81
1105.15
1105.5
1105.84
1106.19
1106.53
1106.88
1107.22
1107.57
1107.91
1108.26
1108.6
1108.95
1109.3
1109.64
1109.99
1110.34
1110.69
1111.04
1111.38
1111.73
1112.08
1112.43
1112.78
1113.13
1113.48
1113.82
1114.17
1114.52
1114.87
1115.21
1115.56
1115.91
1116.25
1116.6
1116.94
1117.29
1117.64
1117.98
1118.33
1118.68
1119.02
1119.37
1119.72
1120.06
1120.41
1120.76
1121.1
1121.45
1121.79
1122.14
1122.48
1122.83
1123.17
1123.52
1123.86
1124.21
1124.55
1124.9
1125.24
1125.59
1125.93
1126.28
1126.63
1126.98
1127.33
1127.68
1128.02
1128.38
1128.71
1129.08
1129.37
1129.78
1130.02
1130.52
1130.74
1131.75
1132.55
1134.95
1136.07
1138.09
1138.66
1141.44
1142.14
1145.75
1146.03
1148.99
1148.39
1150.65
882.642
885.277
886.692
889.788
891.194
893.598
894.644
896.325
897.117
898.282
898.937
899.783
900.346
900.996
901.499
902.044
902.514
902.996
903.437
903.883
904.304
904.725
905.134
905.541
905.941
906.339
906.731
907.122
907.507
907.89
908.27
908.648
909.023
909.396
909.768
910.139
910.508
910.877
911.244
911.61
911.976
912.34
912.704
913.067
913.429
913.792
914.154
914.516
914.879
915.241
915.603
915.966
916.329
916.692
917.055
917.419
917.783
918.148
918.512
918.877
919.242
919.607
919.972
920.337
920.702
921.068
921.432
921.797
922.161
922.525
922.888
923.25
923.612
923.973
924.333
924.692
925.05
925.408
925.766
926.124
926.478
926.832
927.185
927.537
927.888
928.238
928.588
928.937
929.285
929.632
929.979
930.326
930.672
931.018
931.364
931.71
932.056
932.401
932.747
933.092
933.437
933.781
934.126
934.471
934.816
935.161
935.506
935.852
936.197
936.543
936.888
937.234
937.58
937.926
938.272
938.617
938.963
939.31
939.657
940.003
940.35
940.696
941.043
941.39
941.737
942.084
942.43
942.777
943.122
943.463
943.795
944.114
944.424
944.73
945.034
945.338
945.641
945.945
946.25
946.554
946.859
947.165
947.471
947.778
948.085
948.392
948.7
949.008
949.317
949.626
949.935
950.245
950.555
950.865
951.176
951.488
951.8
952.112
952.425
952.738
953.052
953.366
953.681
953.997
954.313
954.63
954.947
955.266
955.585
955.904
956.225
956.546
956.868
957.19
957.514
957.837
958.162
958.487
958.812
959.139
959.465
959.793
960.12
960.449
960.777
961.107
961.436
961.766
962.097
962.428
962.759
963.09
963.422
963.754
964.086
964.418
964.751
965.083
965.416
965.749
966.081
966.414
966.747
967.08
967.414
967.747
968.081
968.415
968.749
969.084
969.42
969.756
970.092
970.43
970.768
971.106
971.446
971.787
972.128
972.47
972.813
973.156
973.5
973.845
974.19
974.535
974.881
975.226
975.572
975.917
976.263
976.608
976.954
977.3
977.645
977.99
978.336
978.68
979.025
979.37
979.714
980.058
980.401
980.745
981.088
981.431
981.774
982.117
982.459
982.802
983.144
983.486
983.829
984.171
984.513
984.856
985.198
985.541
985.883
986.226
986.569
986.912
987.255
987.599
987.942
988.286
988.63
988.974
989.319
989.664
990.009
990.354
990.699
991.045
991.391
991.737
992.084
992.43
992.777
993.124
993.472
993.819
994.167
994.515
994.862
995.21
995.558
995.906
996.254
996.602
996.95
997.298
997.647
997.995
998.343
998.691
999.039
999.388
999.736
1000.08
1000.43
1000.78
1001.13
1001.48
1001.82
1002.17
1002.52
1002.87
1003.22
1003.57
1003.91
1004.26
1004.61
1004.96
1005.31
1005.65
1006
1006.35
1006.69
1007.04
1007.39
1007.73
1008.08
1008.43
1008.78
1009.12
1009.47
1009.82
1010.16
1010.51
1010.86
1011.2
1011.55
1011.9
1012.25
1012.59
1012.94
1013.29
1013.64
1013.98
1014.33
1014.67
1015.02
1015.37
1015.71
1016.05
1016.4
1016.74
1017.08
1017.42
1017.76
1018.1
1018.44
1018.78
1019.12
1019.45
1019.79
1020.13
1020.47
1020.81
1021.15
1021.48
1021.82
1022.16
1022.5
1022.84
1023.18
1023.52
1023.86
1024.2
1024.54
1024.88
1025.22
1025.56
1025.9
1026.24
1026.58
1026.93
1027.27
1027.61
1027.95
1028.29
1028.63
1028.97
1029.31
1029.65
1029.99
1030.33
1030.67
1031.01
1031.35
1031.69
1032.03
1032.37
1032.71
1033.05
1033.39
1033.73
1034.07
1034.41
1034.75