/*--------------------------------*- C++ -*----------------------------------*\
| =========                 |                                                 |
| \\      /  F ield         | foam-extend: Open Source CFD                    |
|  \\    /   O peration     | Version:     3.2                                |
|   \\  /    A nd           | Web:         http://www.foam-extend.org         |
|    \\/     M anipulation  | For copyright notice see file Copyright         |
\*---------------------------------------------------------------------------*/
FoamFile
{
    version     2.0;
    format      ascii;
    class       areaScalarField;
    location    "120";
    object      Pef;
}
// * * * * * * * * * * * * * * * * * * * * * * * * * * * * * * * * * * * * * //

dimensions      [0 0 0 0 0 0 0];

internalField   nonuniform List<scalar> 
550
(
0
0
0
0
0.0290582
0.060552
0.0929147
0.124805
0.155055
0.182595
0.206741
0.227038
0.243391
0.25587
0.264748
0.27037
0.273177
0.273608
0.272118
0.26923
0.265246
0.26042
0.254977
0.249107
0.242984
0.236752
0.230529
0.22443
0.218536
0.212851
0.207383
0.202154
0.197175
0.192454
0.187991
0.183783
0.179825
0.17611
0.172628
0.169369
0.166323
0.163478
0.160821
0.15834
0.156023
0.15386
0.15184
0.149954
0.148193
0.146548
0.145012
0.143576
0.142233
0.140976
0.139797
0.138688
0.137644
0.136658
0.135726
0.134843
0.134004
0.133206
0.132445
0.131718
0.131023
0.130356
0.129717
0.129101
0.128508
0.127936
0.127381
0.126842
0.126317
0.125806
0.125306
0.124816
0.124336
0.123863
0.123399
0.122942
0.122493
0.122051
0.121617
0.121191
0.120771
0.120357
0.11995
0.119548
0.119152
0.118761
0.118374
0.117992
0.117612
0.117235
0.11686
0.116487
0.116116
0.115748
0.115381
0.115017
0.114656
0.114295
0.113935
0.113576
0.113215
0.112853
0.112489
0.112123
0.111755
0.111383
0.111008
0.110629
0.110247
0.10986
0.109469
0.109075
0.108676
0.108272
0.107865
0.107453
0.107038
0.10662
0.106198
0.105772
0.105344
0.104912
0.104477
0.104039
0.103596
0.103055
0.102676
0.102221
0.101788
0.101359
0.100933
0.100508
0.100084
0.0996594
0.0992354
0.0988117
0.0983884
0.0979656
0.0975436
0.0971226
0.096703
0.0962849
0.0958687
0.0954544
0.0950424
0.0946329
0.0942261
0.093822
0.0934208
0.0930228
0.092628
0.0922367
0.0918491
0.0914654
0.0910859
0.0907108
0.0903404
0.0899679
0.0895992
0.0892355
0.0888769
0.0885235
0.0881755
0.0878329
0.0874958
0.0871642
0.086838
0.0865172
0.0862018
0.0858918
0.085587
0.0852873
0.0849928
0.0847033
0.0844189
0.0841394
0.083865
0.0835956
0.0833311
0.0830715
0.0828167
0.0825668
0.0823217
0.0820812
0.0818454
0.0816142
0.0813876
0.0811655
0.0809479
0.0807348
0.0805262
0.0803219
0.080122
0.0799264
0.0797352
0.0795484
0.0793659
0.0791879
0.0790142
0.078845
0.0786801
0.0785195
0.0783632
0.078211
0.0780629
0.0779187
0.0777783
0.0776415
0.0775083
0.0773786
0.0772521
0.0771288
0.0770084
0.0768907
0.0767755
0.0766627
0.0765521
0.0764436
0.076337
0.076232
0.0761283
0.0760252
0.0759224
0.0758192
0.0757152
0.07561
0.0755036
0.0753958
0.0752868
0.0751765
0.0750651
0.0749525
0.0748388
0.0747241
0.0746083
0.0744916
0.0743739
0.0742553
0.0741359
0.0740158
0.0738949
0.0737734
0.0736514
0.0735289
0.073406
0.0732828
0.0731593
0.0730356
0.0729119
0.0727882
0.0726645
0.0725409
0.0724175
0.0722944
0.0721715
0.0720489
0.0719266
0.0718047
0.0716832
0.0715622
0.0714416
0.0713216
0.0712021
0.0710831
0.0709645
0.0708465
0.070729
0.070612
0.0704956
0.0703797
0.0702645
0.07015
0.0700361
0.069923
0.0698107
0.0696993
0.0695887
0.0694791
0.0693704
0.0692627
0.0691559
0.0690501
0.0689452
0.0688413
0.0687385
0.0686368
0.0685363
0.0684369
0.0683389
0.0682422
0.068147
0.0680531
0.0679607
0.0678695
0.0677796
0.0676912
0.0676041
0.0675182
0.0674335
0.0673506
0.0672693
0.0671894
0.0671109
0.0670334
0.0669569
0.066881
0.0668058
0.066731
0.0666569
0.0665834
0.0665103
0.0664375
0.0663649
0.0662829
0.0661914
0.0661017
0.0660137
0.0659275
0.0658431
0.0657604
0.0656795
0.0656004
0.0655228
0.0654468
0.0653722
0.0652991
0.0652275
0.0651575
0.0650892
0.0650225
0.0649576
0.0648943
0.0648326
0.0647724
0.0647137
0.0646562
0.0645822
0.0645015
0.0644198
0.0643369
0.0642524
0.064166
0.0640777
0.0639877
0.0638961
0.0638029
0.0637079
0.0636113
0.0635132
0.0634135
0.0633121
0.063209
0.0631043
0.062998
0.0628901
0.0627806
0.0626694
0.0625566
0.0624421
0.0623261
0.0622084
0.0620892
0.0619683
0.0618458
0.0617217
0.0615959
0.0614685
0.0613394
0.0612088
0.0610766
0.0609431
0.0608082
0.0606722
0.060535
0.0603968
0.0602577
0.0601179
0.0599774
0.0598363
0.0596948
0.0595528
0.0594105
0.0592681
0.0591255
0.0589831
0.0588409
0.0586992
0.0585579
0.0584171
0.058277
0.0581374
0.0579984
0.0578598
0.0577218
0.0575841
0.0574469
0.0573102
0.057174
0.0570381
0.0569028
0.0567678
0.0566333
0.0564992
0.0563655
0.0562321
0.0560989
0.0559661
0.0558334
0.0557011
0.055569
0.0554372
0.0553059
0.055175
0.0550446
0.0549147
0.0547855
0.0546569
0.0545289
0.0544017
0.0542752
0.0541494
0.0540244
0.0539002
0.0537768
0.0536542
0.0535324
0.0534111
0.0532904
0.0531702
0.0530504
0.0529313
0.0528126
0.0526943
0.0525763
0.0524587
0.0523416
0.0522248
0.0521087
0.0519929
0.0518775
0.0517622
0.0516471
0.0515321
0.0514172
0.0513022
0.051187
0.0510716
0.0509559
0.0508398
0.0507234
0.0506068
0.05049
0.0503732
0.0502563
0.0501392
0.0500222
0.0499053
0.0497885
0.049672
0.0495558
0.04944
0.0493245
0.0492094
0.0490947
0.0489801
0.0488658
0.0487515
0.0486371
0.0485224
0.0484072
0.0482916
0.0481753
0.0480582
0.0479404
0.0478218
0.0477024
0.0475823
0.0474616
0.0473405
0.047219
0.0470971
0.0469753
0.0468533
0.0467311
0.0466086
0.046486
0.0463632
0.0462404
0.0461173
0.0459941
0.0458703
0.0457461
0.0456208
0.0454947
0.0453672
0.0452386
0.0451083
0.0449766
0.044843
0.044708
0.0445709
0.0444325
0.0442924
0.0441516
0.0440095
0.0438672
0.0437241
0.0435812
0.0434373
0.0432939
0.0431495
0.0430056
0.0428606
0.0427164
0.0425707
0.0424257
0.0422787
0.0421316
0.0419815
0.0418301
0.0416739
0.0415146
0.0413463
0.0411722
0.0409793
0.0407742
0.0405298
0.0402568
0.0399025
0.0394843
0.0389005
0.038177
0.0371698
0.0357948
0.0355938
0.0328117
0.0283875
0.0225062
0.013871
0.00225565
0
0
0
0
0
0
)
;

boundaryField
{
    inlet
    {
        type            calculated;
        value           uniform 0;
    }
    endWall
    {
        type            calculated;
        value           uniform 0;
    }
    sideWall
    {
        type            empty;
    }
}


// ************************************************************************* //
