/*--------------------------------*- C++ -*----------------------------------*\
| =========                 |                                                 |
| \\      /  F ield         | foam-extend: Open Source CFD                    |
|  \\    /   O peration     | Version:     3.2                                |
|   \\  /    A nd           | Web:         http://www.foam-extend.org         |
|    \\/     M anipulation  | For copyright notice see file Copyright         |
\*---------------------------------------------------------------------------*/
FoamFile
{
    version     2.0;
    format      ascii;
    class       edgeScalarField;
    location    "120";
    object      q_f;
}
// * * * * * * * * * * * * * * * * * * * * * * * * * * * * * * * * * * * * * //

dimensions      [0 3 -1 0 0 0 0];

internalField   nonuniform List<scalar> 
549
(
0
0
0
2.78254e-09
1.01739e-08
2.1028e-08
3.47663e-08
5.0489e-08
6.70936e-08
8.34647e-08
9.86338e-08
1.11876e-07
1.22747e-07
1.31052e-07
1.36812e-07
1.40205e-07
1.41518e-07
1.41088e-07
1.39316e-07
1.36551e-07
1.33037e-07
1.28986e-07
1.2458e-07
1.19973e-07
1.15297e-07
1.10656e-07
1.06138e-07
1.0181e-07
9.7697e-08
9.37986e-08
9.01175e-08
8.6658e-08
8.34194e-08
8.0397e-08
7.75833e-08
7.49693e-08
7.25449e-08
7.0299e-08
6.82206e-08
6.62984e-08
6.45216e-08
6.28791e-08
6.13604e-08
5.99554e-08
5.86547e-08
5.74501e-08
5.63342e-08
5.52999e-08
5.43408e-08
5.3451e-08
5.26249e-08
5.1857e-08
5.11425e-08
5.04763e-08
4.98539e-08
4.92709e-08
4.87237e-08
4.8209e-08
4.77238e-08
4.72651e-08
4.68307e-08
4.64184e-08
4.60263e-08
4.56527e-08
4.52961e-08
4.49552e-08
4.46285e-08
4.43149e-08
4.4013e-08
4.37218e-08
4.344e-08
4.31668e-08
4.29012e-08
4.26426e-08
4.23902e-08
4.21433e-08
4.19014e-08
4.16639e-08
4.14309e-08
4.12023e-08
4.09781e-08
4.07583e-08
4.05425e-08
4.03306e-08
4.01225e-08
3.9918e-08
3.97168e-08
3.95188e-08
3.93238e-08
3.91315e-08
3.89418e-08
3.87541e-08
3.85679e-08
3.83832e-08
3.82e-08
3.80182e-08
3.78378e-08
3.76588e-08
3.74813e-08
3.73051e-08
3.71302e-08
3.6956e-08
3.67823e-08
3.66087e-08
3.64349e-08
3.62608e-08
3.60859e-08
3.59102e-08
3.57335e-08
3.55556e-08
3.53764e-08
3.51958e-08
3.50136e-08
3.48299e-08
3.46447e-08
3.4458e-08
3.42695e-08
3.40793e-08
3.38878e-08
3.36949e-08
3.35008e-08
3.33055e-08
3.31091e-08
3.29116e-08
3.27132e-08
3.25137e-08
3.23132e-08
3.21113e-08
3.18867e-08
3.16771e-08
3.14874e-08
3.12861e-08
3.10911e-08
3.08981e-08
3.07064e-08
3.05157e-08
3.03255e-08
3.01359e-08
2.99469e-08
2.97585e-08
2.95707e-08
2.93837e-08
2.91976e-08
2.90124e-08
2.88283e-08
2.86454e-08
2.84638e-08
2.82836e-08
2.81049e-08
2.79276e-08
2.7752e-08
2.75781e-08
2.74059e-08
2.72354e-08
2.70668e-08
2.69002e-08
2.67356e-08
2.6573e-08
2.64127e-08
2.62547e-08
2.60977e-08
2.59414e-08
2.57872e-08
2.56356e-08
2.54865e-08
2.534e-08
2.5196e-08
2.50546e-08
2.49158e-08
2.47795e-08
2.46458e-08
2.45146e-08
2.43858e-08
2.42595e-08
2.41356e-08
2.4014e-08
2.38947e-08
2.37777e-08
2.3663e-08
2.35505e-08
2.34402e-08
2.33321e-08
2.32262e-08
2.31224e-08
2.30208e-08
2.29212e-08
2.28237e-08
2.27282e-08
2.26347e-08
2.25432e-08
2.24537e-08
2.23661e-08
2.22803e-08
2.21965e-08
2.21146e-08
2.20345e-08
2.19563e-08
2.18799e-08
2.18053e-08
2.17325e-08
2.16616e-08
2.15925e-08
2.15252e-08
2.14597e-08
2.13961e-08
2.13342e-08
2.1274e-08
2.12155e-08
2.11586e-08
2.11033e-08
2.10495e-08
2.09972e-08
2.09463e-08
2.08968e-08
2.08486e-08
2.08016e-08
2.07558e-08
2.0711e-08
2.06672e-08
2.06244e-08
2.05825e-08
2.05413e-08
2.05009e-08
2.04611e-08
2.04217e-08
2.03826e-08
2.03434e-08
2.03041e-08
2.02645e-08
2.02244e-08
2.01838e-08
2.01427e-08
2.01013e-08
2.00593e-08
2.0017e-08
1.99742e-08
1.99311e-08
1.98876e-08
1.98437e-08
1.97995e-08
1.9755e-08
1.97102e-08
1.96651e-08
1.96197e-08
1.95742e-08
1.95284e-08
1.94824e-08
1.94364e-08
1.93902e-08
1.93439e-08
1.92976e-08
1.92512e-08
1.92049e-08
1.91586e-08
1.91124e-08
1.90662e-08
1.90201e-08
1.89742e-08
1.89284e-08
1.88827e-08
1.88372e-08
1.87919e-08
1.87468e-08
1.87018e-08
1.86571e-08
1.86126e-08
1.85683e-08
1.85242e-08
1.84804e-08
1.84367e-08
1.83933e-08
1.83501e-08
1.83071e-08
1.82644e-08
1.82219e-08
1.81798e-08
1.81379e-08
1.80963e-08
1.8055e-08
1.80141e-08
1.79735e-08
1.79333e-08
1.78934e-08
1.78539e-08
1.78148e-08
1.7776e-08
1.77376e-08
1.76996e-08
1.7662e-08
1.76248e-08
1.7588e-08
1.75517e-08
1.7516e-08
1.74807e-08
1.74459e-08
1.74117e-08
1.7378e-08
1.73447e-08
1.7312e-08
1.72798e-08
1.7248e-08
1.72168e-08
1.7186e-08
1.71559e-08
1.71264e-08
1.70975e-08
1.70689e-08
1.70408e-08
1.70129e-08
1.69854e-08
1.69581e-08
1.6931e-08
1.69042e-08
1.68776e-08
1.68511e-08
1.68248e-08
1.6797e-08
1.67659e-08
1.67336e-08
1.67019e-08
1.66709e-08
1.66405e-08
1.66108e-08
1.65817e-08
1.65533e-08
1.65254e-08
1.64982e-08
1.64715e-08
1.64453e-08
1.64196e-08
1.63946e-08
1.63701e-08
1.63462e-08
1.6323e-08
1.63003e-08
1.62782e-08
1.62567e-08
1.62358e-08
1.62153e-08
1.61922e-08
1.61653e-08
1.6137e-08
1.61085e-08
1.60795e-08
1.60499e-08
1.60197e-08
1.59889e-08
1.59576e-08
1.59258e-08
1.58934e-08
1.58606e-08
1.58272e-08
1.57933e-08
1.57588e-08
1.57238e-08
1.56883e-08
1.56523e-08
1.56157e-08
1.55786e-08
1.5541e-08
1.55028e-08
1.54642e-08
1.5425e-08
1.53852e-08
1.5345e-08
1.53042e-08
1.52629e-08
1.52211e-08
1.51787e-08
1.51358e-08
1.50924e-08
1.50484e-08
1.50039e-08
1.4959e-08
1.49136e-08
1.48678e-08
1.48216e-08
1.47751e-08
1.47283e-08
1.46813e-08
1.4634e-08
1.45865e-08
1.45389e-08
1.44912e-08
1.44434e-08
1.43955e-08
1.43476e-08
1.42997e-08
1.42519e-08
1.42043e-08
1.41569e-08
1.41096e-08
1.40626e-08
1.40158e-08
1.39693e-08
1.39229e-08
1.38768e-08
1.38308e-08
1.3785e-08
1.37394e-08
1.36941e-08
1.36489e-08
1.36039e-08
1.3559e-08
1.35144e-08
1.347e-08
1.34257e-08
1.33816e-08
1.33376e-08
1.32937e-08
1.325e-08
1.32064e-08
1.31629e-08
1.31196e-08
1.30764e-08
1.30334e-08
1.29907e-08
1.29481e-08
1.29057e-08
1.28636e-08
1.28218e-08
1.27802e-08
1.27388e-08
1.26978e-08
1.2657e-08
1.26166e-08
1.25764e-08
1.25366e-08
1.2497e-08
1.24577e-08
1.24186e-08
1.23797e-08
1.2341e-08
1.23025e-08
1.22643e-08
1.22262e-08
1.21883e-08
1.21505e-08
1.21129e-08
1.20755e-08
1.20383e-08
1.20013e-08
1.19644e-08
1.19277e-08
1.18911e-08
1.18545e-08
1.18181e-08
1.17817e-08
1.17453e-08
1.17089e-08
1.16725e-08
1.16361e-08
1.15996e-08
1.15631e-08
1.15266e-08
1.14901e-08
1.14536e-08
1.14172e-08
1.13809e-08
1.13446e-08
1.13084e-08
1.12723e-08
1.12364e-08
1.12006e-08
1.1165e-08
1.11296e-08
1.10943e-08
1.10592e-08
1.10242e-08
1.09893e-08
1.09544e-08
1.09196e-08
1.08847e-08
1.08497e-08
1.08146e-08
1.07794e-08
1.0744e-08
1.07084e-08
1.06727e-08
1.06368e-08
1.06008e-08
1.05647e-08
1.05285e-08
1.04923e-08
1.04561e-08
1.04199e-08
1.03838e-08
1.03476e-08
1.03114e-08
1.02753e-08
1.02391e-08
1.0203e-08
1.01669e-08
1.01308e-08
1.00945e-08
1.00581e-08
1.00215e-08
9.98467e-09
9.9475e-09
9.90997e-09
9.87206e-09
9.83372e-09
9.79494e-09
9.7557e-09
9.71603e-09
9.67596e-09
9.63557e-09
9.59495e-09
9.55417e-09
9.51328e-09
9.47234e-09
9.43134e-09
9.39032e-09
9.34926e-09
9.30819e-09
9.26709e-09
9.22598e-09
9.18483e-09
9.14362e-09
9.10227e-09
9.06069e-09
9.01873e-09
8.97621e-09
8.93289e-09
8.88851e-09
8.84249e-09
8.79447e-09
8.74307e-09
8.68741e-09
8.62467e-09
8.55265e-09
8.46565e-09
8.35897e-09
8.22137e-09
8.04321e-09
7.80922e-09
7.49205e-09
7.27206e-09
6.86742e-09
5.95221e-09
4.72558e-09
3.16205e-09
1.29817e-09
1.60171e-10
0
0
0
0
0
)
;

boundaryField
{
    inlet
    {
        type            calculated;
        value           uniform 0;
    }
    endWall
    {
        type            calculated;
        value           uniform 0;
    }
    sideWall
    {
        type            empty;
    }
}


// ************************************************************************* //
