/*--------------------------------*- C++ -*----------------------------------*\
| =========                 |                                                 |
| \\      /  F ield         | foam-extend: Open Source CFD                    |
|  \\    /   O peration     | Version:     3.2                                |
|   \\  /    A nd           | Web:         http://www.foam-extend.org         |
|    \\/     M anipulation  | For copyright notice see file Copyright         |
\*---------------------------------------------------------------------------*/
FoamFile
{
    version     2.0;
    format      ascii;
    class       areaScalarField;
    location    "120";
    object      SSd1;
}
// * * * * * * * * * * * * * * * * * * * * * * * * * * * * * * * * * * * * * //

dimensions      [0 1 -2 -1 0 0 0];

internalField   nonuniform List<scalar> 
550
(
9.01327e-06
9.01327e-06
9.01327e-06
9.01327e-06
9.01327e-06
9.01327e-06
9.01327e-06
9.01327e-06
9.01327e-06
9.01327e-06
9.01327e-06
9.01327e-06
9.01327e-06
9.01327e-06
9.01327e-06
9.01327e-06
9.01327e-06
9.01327e-06
9.01327e-06
9.01327e-06
9.01327e-06
9.01327e-06
9.01327e-06
9.01327e-06
9.01327e-06
9.01327e-06
9.01327e-06
9.01327e-06
9.01327e-06
9.01327e-06
9.01327e-06
9.01327e-06
9.01327e-06
9.01327e-06
9.01327e-06
9.01327e-06
9.01327e-06
9.01327e-06
9.01327e-06
9.01327e-06
9.01327e-06
9.01327e-06
9.01327e-06
9.01327e-06
9.01327e-06
9.01327e-06
9.01327e-06
9.01327e-06
9.01327e-06
9.01327e-06
9.01327e-06
9.01327e-06
9.01327e-06
9.01327e-06
9.01327e-06
9.01327e-06
9.01327e-06
9.01327e-06
9.01327e-06
9.01327e-06
9.01327e-06
9.01327e-06
9.01326e-06
9.01326e-06
9.01326e-06
9.01326e-06
9.01326e-06
9.01325e-06
9.01325e-06
9.01325e-06
9.01324e-06
9.01324e-06
9.01323e-06
9.01322e-06
9.01322e-06
9.01321e-06
9.0132e-06
9.01318e-06
9.01317e-06
9.01315e-06
9.01314e-06
9.01312e-06
9.01309e-06
9.01306e-06
9.01303e-06
9.013e-06
9.01296e-06
9.01291e-06
9.01286e-06
9.01281e-06
9.01274e-06
9.01267e-06
9.01258e-06
9.01249e-06
9.01239e-06
9.01227e-06
9.01214e-06
9.01199e-06
9.01183e-06
9.01165e-06
9.01146e-06
9.01124e-06
9.011e-06
9.01074e-06
9.01046e-06
9.01015e-06
9.00982e-06
9.00946e-06
9.00907e-06
9.00865e-06
9.00821e-06
9.00773e-06
9.00722e-06
9.00668e-06
9.0061e-06
9.0055e-06
9.00485e-06
9.00418e-06
9.00347e-06
9.00272e-06
9.00193e-06
9.00111e-06
9.00026e-06
8.99936e-06
8.99844e-06
8.99747e-06
8.99647e-06
8.99543e-06
8.99436e-06
8.99326e-06
8.99353e-06
8.9934e-06
8.993e-06
8.99234e-06
8.99145e-06
8.99034e-06
8.98903e-06
8.98752e-06
8.98581e-06
8.98391e-06
8.98183e-06
8.97959e-06
8.97721e-06
8.9747e-06
8.97207e-06
8.96932e-06
8.96647e-06
8.96353e-06
8.9605e-06
8.95737e-06
8.95417e-06
8.95089e-06
8.94754e-06
8.94412e-06
8.94064e-06
8.93709e-06
8.93349e-06
8.92983e-06
8.92613e-06
8.92237e-06
8.91857e-06
8.91473e-06
8.91083e-06
8.9069e-06
8.90293e-06
8.89892e-06
8.89488e-06
8.89082e-06
8.88673e-06
8.88261e-06
8.87848e-06
8.87433e-06
8.87017e-06
8.86599e-06
8.8618e-06
8.85761e-06
8.85341e-06
8.8492e-06
8.84499e-06
8.84077e-06
8.83656e-06
8.83235e-06
8.82814e-06
8.82393e-06
8.81973e-06
8.81554e-06
8.81136e-06
8.80718e-06
8.80302e-06
8.79887e-06
8.79474e-06
8.79062e-06
8.78652e-06
8.78243e-06
8.77836e-06
8.77431e-06
8.77028e-06
8.76626e-06
8.76227e-06
8.7583e-06
8.75435e-06
8.75042e-06
8.74652e-06
8.74264e-06
8.73878e-06
8.73494e-06
8.73114e-06
8.72735e-06
8.72359e-06
8.71986e-06
8.71615e-06
8.71246e-06
8.70881e-06
8.70518e-06
8.70157e-06
8.69799e-06
8.69444e-06
8.69091e-06
8.68741e-06
8.68393e-06
8.68048e-06
8.67705e-06
8.67365e-06
8.67027e-06
8.66692e-06
8.66359e-06
8.66027e-06
8.65698e-06
8.6537e-06
8.65044e-06
8.64719e-06
8.64396e-06
8.64074e-06
8.63753e-06
8.63433e-06
8.63115e-06
8.62797e-06
8.62481e-06
8.62166e-06
8.61852e-06
8.61539e-06
8.61226e-06
8.60915e-06
8.60605e-06
8.60296e-06
8.59987e-06
8.5968e-06
8.59373e-06
8.59068e-06
8.58764e-06
8.58461e-06
8.58158e-06
8.57857e-06
8.57557e-06
8.57258e-06
8.5696e-06
8.56663e-06
8.56367e-06
8.56073e-06
8.55779e-06
8.55487e-06
8.55195e-06
8.54905e-06
8.54615e-06
8.54327e-06
8.54039e-06
8.53751e-06
8.53465e-06
8.53179e-06
8.52893e-06
8.52607e-06
8.52322e-06
8.52037e-06
8.51752e-06
8.51467e-06
8.51182e-06
8.50896e-06
8.50611e-06
8.50325e-06
8.50038e-06
8.49751e-06
8.49464e-06
8.49176e-06
8.48888e-06
8.48599e-06
8.4831e-06
8.4802e-06
8.47729e-06
8.47438e-06
8.47146e-06
8.46854e-06
8.46561e-06
8.46268e-06
8.45974e-06
8.4568e-06
8.45385e-06
8.4509e-06
8.44796e-06
8.44501e-06
8.44206e-06
8.4391e-06
8.43616e-06
8.43321e-06
8.43026e-06
8.42731e-06
8.42437e-06
8.42143e-06
8.41849e-06
8.41555e-06
8.41261e-06
8.40968e-06
8.40675e-06
8.40382e-06
8.40089e-06
8.39796e-06
8.39503e-06
8.3921e-06
8.38917e-06
8.38623e-06
8.38328e-06
8.38032e-06
8.37736e-06
8.37439e-06
8.37143e-06
8.36847e-06
8.36551e-06
8.36256e-06
8.35961e-06
8.35666e-06
8.35373e-06
8.3508e-06
8.34788e-06
8.34498e-06
8.34208e-06
8.3392e-06
8.33632e-06
8.33347e-06
8.33062e-06
8.32779e-06
8.32497e-06
8.32215e-06
8.31933e-06
8.31651e-06
8.31368e-06
8.31085e-06
8.30801e-06
8.30516e-06
8.30231e-06
8.29946e-06
8.2966e-06
8.29373e-06
8.29086e-06
8.28798e-06
8.2851e-06
8.28222e-06
8.27933e-06
8.27644e-06
8.27355e-06
8.27066e-06
8.26776e-06
8.26487e-06
8.26197e-06
8.25907e-06
8.25617e-06
8.25328e-06
8.25038e-06
8.24748e-06
8.24458e-06
8.24168e-06
8.23878e-06
8.23588e-06
8.23299e-06
8.23009e-06
8.22719e-06
8.22429e-06
8.2214e-06
8.21851e-06
8.21561e-06
8.21273e-06
8.20984e-06
8.20696e-06
8.20408e-06
8.20121e-06
8.19834e-06
8.19547e-06
8.19261e-06
8.18976e-06
8.18691e-06
8.18407e-06
8.18124e-06
8.17841e-06
8.17559e-06
8.17278e-06
8.16998e-06
8.16719e-06
8.16441e-06
8.16164e-06
8.15888e-06
8.15613e-06
8.15339e-06
8.15066e-06
8.14793e-06
8.14522e-06
8.14251e-06
8.13982e-06
8.13713e-06
8.13445e-06
8.13177e-06
8.12911e-06
8.12645e-06
8.12379e-06
8.12114e-06
8.11849e-06
8.11585e-06
8.11321e-06
8.11057e-06
8.10793e-06
8.1053e-06
8.10266e-06
8.10002e-06
8.09739e-06
8.09475e-06
8.0921e-06
8.08946e-06
8.08681e-06
8.08416e-06
8.08151e-06
8.07885e-06
8.07619e-06
8.07352e-06
8.07084e-06
8.06816e-06
8.06548e-06
8.06278e-06
8.06008e-06
8.05737e-06
8.05466e-06
8.05193e-06
8.0492e-06
8.04646e-06
8.04371e-06
8.04096e-06
8.03819e-06
8.03542e-06
8.03264e-06
8.02985e-06
8.02705e-06
8.02425e-06
8.02144e-06
8.01862e-06
8.01579e-06
8.01295e-06
8.0101e-06
8.00725e-06
8.00439e-06
8.00152e-06
7.99864e-06
7.99575e-06
7.99286e-06
7.98996e-06
7.98705e-06
7.98414e-06
7.98122e-06
7.97829e-06
7.97536e-06
7.97243e-06
7.9695e-06
7.96656e-06
7.96361e-06
7.96067e-06
7.95773e-06
7.95478e-06
7.95183e-06
7.94888e-06
7.94593e-06
7.94298e-06
7.94002e-06
7.93706e-06
7.9341e-06
7.93114e-06
7.92817e-06
7.9252e-06
7.92223e-06
7.91926e-06
7.91629e-06
7.91332e-06
7.91035e-06
7.90737e-06
7.9044e-06
7.90143e-06
7.89846e-06
7.89549e-06
7.89252e-06
7.88955e-06
7.88659e-06
7.88363e-06
7.88068e-06
7.87773e-06
7.87478e-06
7.87183e-06
7.86888e-06
7.86592e-06
7.86297e-06
7.86001e-06
7.85706e-06
7.85409e-06
7.85113e-06
7.84815e-06
7.84518e-06
7.8422e-06
7.83922e-06
7.83623e-06
7.83324e-06
7.83025e-06
7.82726e-06
7.82426e-06
7.82127e-06
7.81827e-06
7.81527e-06
7.81227e-06
7.80927e-06
7.80626e-06
7.80326e-06
7.80025e-06
7.79723e-06
7.7942e-06
7.79116e-06
7.78808e-06
7.78498e-06
7.78183e-06
7.77859e-06
7.77525e-06
7.77175e-06
7.76802e-06
7.76396e-06
7.75939e-06
7.75433e-06
7.74837e-06
7.74153e-06
7.75659e-06
7.76945e-06
7.78062e-06
7.79037e-06
7.79854e-06
7.80583e-06
7.81156e-06
7.81834e-06
7.86383e-06
7.90291e-06
7.90449e-06
)
;

boundaryField
{
    inlet
    {
        type            calculated;
        value           uniform 0;
    }
    endWall
    {
        type            calculated;
        value           uniform 0;
    }
    sideWall
    {
        type            empty;
    }
}


// ************************************************************************* //
