/*--------------------------------*- C++ -*----------------------------------*\
| =========                 |                                                 |
| \\      /  F ield         | foam-extend: Open Source CFD                    |
|  \\    /   O peration     | Version:     3.2                                |
|   \\  /    A nd           | Web:         http://www.foam-extend.org         |
|    \\/     M anipulation  | For copyright notice see file Copyright         |
\*---------------------------------------------------------------------------*/
FoamFile
{
    version     2.0;
    format      ascii;
    class       areaScalarField;
    location    "120";
    object      SSe1;
}
// * * * * * * * * * * * * * * * * * * * * * * * * * * * * * * * * * * * * * //

dimensions      [0 1 -2 -1 0 0 0];

internalField   nonuniform List<scalar> 
550
(
6.89652e-07
1.27276e-06
2.12407e-06
3.28459e-06
4.76667e-06
6.54459e-06
8.55748e-06
1.07099e-05
1.28959e-05
1.50016e-05
1.69348e-05
1.86207e-05
2.00189e-05
2.11093e-05
2.18976e-05
2.2402e-05
2.26554e-05
2.26944e-05
2.25597e-05
2.22994e-05
2.19421e-05
2.15121e-05
2.10306e-05
2.05158e-05
1.99836e-05
1.9447e-05
1.89162e-05
1.8401e-05
1.79078e-05
1.74364e-05
1.69872e-05
1.65614e-05
1.61594e-05
1.57813e-05
1.54267e-05
1.50948e-05
1.4785e-05
1.44961e-05
1.42271e-05
1.3977e-05
1.37444e-05
1.35284e-05
1.33278e-05
1.31414e-05
1.29681e-05
1.2807e-05
1.26571e-05
1.25178e-05
1.23881e-05
1.22674e-05
1.21551e-05
1.20504e-05
1.19527e-05
1.18616e-05
1.17762e-05
1.16962e-05
1.1621e-05
1.15502e-05
1.14834e-05
1.14201e-05
1.13602e-05
1.13033e-05
1.12491e-05
1.11974e-05
1.1148e-05
1.11008e-05
1.10555e-05
1.1012e-05
1.09702e-05
1.09298e-05
1.08907e-05
1.08528e-05
1.08159e-05
1.078e-05
1.0745e-05
1.07107e-05
1.06771e-05
1.06441e-05
1.06116e-05
1.05797e-05
1.05484e-05
1.05177e-05
1.04876e-05
1.04579e-05
1.04288e-05
1.04001e-05
1.03719e-05
1.03441e-05
1.03167e-05
1.02897e-05
1.0263e-05
1.02366e-05
1.02104e-05
1.01844e-05
1.01586e-05
1.0133e-05
1.01075e-05
1.00823e-05
1.00571e-05
1.00322e-05
1.00074e-05
9.9828e-06
9.95821e-06
9.93364e-06
9.90904e-06
9.88437e-06
9.85959e-06
9.83469e-06
9.80962e-06
9.78437e-06
9.75892e-06
9.73323e-06
9.70731e-06
9.68113e-06
9.65472e-06
9.62806e-06
9.60113e-06
9.57391e-06
9.54644e-06
9.51875e-06
9.49083e-06
9.4627e-06
9.43438e-06
9.40586e-06
9.37716e-06
9.34828e-06
9.3192e-06
9.28991e-06
9.26031e-06
9.21925e-06
9.20166e-06
9.17363e-06
9.14529e-06
9.11696e-06
9.08874e-06
9.06056e-06
9.03243e-06
9.00434e-06
8.97628e-06
8.94827e-06
8.92031e-06
8.89241e-06
8.86459e-06
8.83687e-06
8.80927e-06
8.78179e-06
8.75447e-06
8.7273e-06
8.70032e-06
8.67352e-06
8.64691e-06
8.62051e-06
8.59433e-06
8.56837e-06
8.54266e-06
8.51719e-06
8.49199e-06
8.46707e-06
8.44245e-06
8.41813e-06
8.39413e-06
8.3697e-06
8.34546e-06
8.32157e-06
8.29802e-06
8.27482e-06
8.25198e-06
8.22951e-06
8.2074e-06
8.18567e-06
8.16431e-06
8.14331e-06
8.12269e-06
8.10244e-06
8.08256e-06
8.06304e-06
8.04389e-06
8.0251e-06
8.00668e-06
7.98863e-06
7.97095e-06
7.95363e-06
7.93668e-06
7.92009e-06
7.90386e-06
7.88798e-06
7.87246e-06
7.85727e-06
7.84241e-06
7.82788e-06
7.81367e-06
7.79976e-06
7.78616e-06
7.77285e-06
7.75983e-06
7.74707e-06
7.73458e-06
7.72235e-06
7.71037e-06
7.69864e-06
7.68716e-06
7.67591e-06
7.6649e-06
7.65412e-06
7.64357e-06
7.63325e-06
7.62313e-06
7.61323e-06
7.60353e-06
7.59403e-06
7.58473e-06
7.57561e-06
7.56667e-06
7.5579e-06
7.54927e-06
7.54079e-06
7.53245e-06
7.52423e-06
7.51612e-06
7.5081e-06
7.50019e-06
7.49236e-06
7.48461e-06
7.47693e-06
7.4693e-06
7.46164e-06
7.45393e-06
7.44615e-06
7.4383e-06
7.43037e-06
7.42237e-06
7.41431e-06
7.4062e-06
7.39805e-06
7.38986e-06
7.38165e-06
7.37342e-06
7.36517e-06
7.35691e-06
7.34864e-06
7.34036e-06
7.33209e-06
7.32382e-06
7.31556e-06
7.30731e-06
7.29909e-06
7.29088e-06
7.2827e-06
7.27456e-06
7.26644e-06
7.25836e-06
7.25031e-06
7.24232e-06
7.23438e-06
7.2265e-06
7.21867e-06
7.2109e-06
7.2032e-06
7.19557e-06
7.188e-06
7.18049e-06
7.17305e-06
7.16568e-06
7.15838e-06
7.15115e-06
7.14399e-06
7.1369e-06
7.12988e-06
7.12293e-06
7.11605e-06
7.10922e-06
7.10246e-06
7.09576e-06
7.08913e-06
7.08258e-06
7.07609e-06
7.06969e-06
7.06337e-06
7.05714e-06
7.05102e-06
7.04499e-06
7.03908e-06
7.03327e-06
7.02757e-06
7.02198e-06
7.01649e-06
7.01111e-06
7.00584e-06
7.00068e-06
6.99563e-06
6.99071e-06
6.9859e-06
6.98122e-06
6.97667e-06
6.97224e-06
6.96793e-06
6.96373e-06
6.95965e-06
6.95566e-06
6.95177e-06
6.94796e-06
6.94424e-06
6.9406e-06
6.93702e-06
6.93351e-06
6.93004e-06
6.92662e-06
6.92325e-06
6.9199e-06
6.91657e-06
6.91324e-06
6.90989e-06
6.9065e-06
6.90307e-06
6.89957e-06
6.89602e-06
6.89239e-06
6.88781e-06
6.88227e-06
6.87684e-06
6.87152e-06
6.8663e-06
6.8612e-06
6.85621e-06
6.85132e-06
6.84654e-06
6.84186e-06
6.83727e-06
6.83277e-06
6.82837e-06
6.82406e-06
6.81984e-06
6.81573e-06
6.81172e-06
6.80782e-06
6.80402e-06
6.80033e-06
6.79674e-06
6.79324e-06
6.78983e-06
6.78484e-06
6.7792e-06
6.77341e-06
6.76744e-06
6.76131e-06
6.75503e-06
6.74859e-06
6.74199e-06
6.73523e-06
6.7283e-06
6.72122e-06
6.714e-06
6.70663e-06
6.69914e-06
6.69152e-06
6.6838e-06
6.67597e-06
6.66805e-06
6.66003e-06
6.65193e-06
6.64373e-06
6.63545e-06
6.62709e-06
6.61865e-06
6.61015e-06
6.60158e-06
6.59295e-06
6.58426e-06
6.57552e-06
6.56674e-06
6.55793e-06
6.54909e-06
6.54022e-06
6.53134e-06
6.52245e-06
6.51355e-06
6.50466e-06
6.49578e-06
6.48691e-06
6.47806e-06
6.46924e-06
6.46045e-06
6.45171e-06
6.44301e-06
6.43436e-06
6.42577e-06
6.41725e-06
6.40879e-06
6.4004e-06
6.3921e-06
6.38387e-06
6.37573e-06
6.36768e-06
6.35971e-06
6.35182e-06
6.344e-06
6.33625e-06
6.32857e-06
6.32094e-06
6.31338e-06
6.30586e-06
6.2984e-06
6.29099e-06
6.28363e-06
6.27631e-06
6.26904e-06
6.26182e-06
6.25464e-06
6.2475e-06
6.2404e-06
6.23334e-06
6.22631e-06
6.21931e-06
6.21235e-06
6.20542e-06
6.19853e-06
6.19169e-06
6.1849e-06
6.17815e-06
6.17146e-06
6.16481e-06
6.15822e-06
6.15169e-06
6.1452e-06
6.13877e-06
6.1324e-06
6.12607e-06
6.1198e-06
6.11358e-06
6.1074e-06
6.10127e-06
6.09517e-06
6.0891e-06
6.08305e-06
6.07703e-06
6.07103e-06
6.06505e-06
6.05909e-06
6.05315e-06
6.04723e-06
6.04132e-06
6.03542e-06
6.02953e-06
6.02364e-06
6.01776e-06
6.01188e-06
6.00599e-06
6.00006e-06
5.9941e-06
5.98809e-06
5.98202e-06
5.9759e-06
5.96972e-06
5.96349e-06
5.9572e-06
5.95087e-06
5.94449e-06
5.93806e-06
5.9316e-06
5.92511e-06
5.91859e-06
5.91205e-06
5.90549e-06
5.89893e-06
5.89238e-06
5.88583e-06
5.87928e-06
5.87272e-06
5.86615e-06
5.85956e-06
5.85293e-06
5.84625e-06
5.83951e-06
5.83271e-06
5.82583e-06
5.81888e-06
5.81184e-06
5.80472e-06
5.79752e-06
5.79026e-06
5.78293e-06
5.77555e-06
5.76812e-06
5.76065e-06
5.75313e-06
5.74555e-06
5.73791e-06
5.73024e-06
5.72255e-06
5.71484e-06
5.70712e-06
5.69938e-06
5.69162e-06
5.68384e-06
5.67601e-06
5.66813e-06
5.66017e-06
5.65214e-06
5.64401e-06
5.63581e-06
5.62751e-06
5.61914e-06
5.61067e-06
5.60213e-06
5.59349e-06
5.58479e-06
5.57603e-06
5.56725e-06
5.55843e-06
5.54965e-06
5.54086e-06
5.53211e-06
5.52335e-06
5.51465e-06
5.50592e-06
5.49726e-06
5.48857e-06
5.47995e-06
5.47128e-06
5.46269e-06
5.454e-06
5.44535e-06
5.43655e-06
5.42772e-06
5.41866e-06
5.40948e-06
5.39988e-06
5.39006e-06
5.37932e-06
5.36805e-06
5.3548e-06
5.34019e-06
5.32146e-06
5.29956e-06
5.26905e-06
5.23152e-06
5.1747e-06
5.10358e-06
4.95404e-06
4.79369e-06
4.71928e-06
4.42108e-06
3.97874e-06
3.40906e-06
2.68221e-06
1.82076e-06
7.53072e-07
1.34521e-07
2.71613e-07
8.39971e-07
)
;

boundaryField
{
    inlet
    {
        type            calculated;
        value           uniform 0;
    }
    endWall
    {
        type            calculated;
        value           uniform 0;
    }
    sideWall
    {
        type            empty;
    }
}


// ************************************************************************* //
