/*--------------------------------*- C++ -*----------------------------------*\
| =========                 |                                                 |
| \\      /  F ield         | foam-extend: Open Source CFD                    |
|  \\    /   O peration     | Version:     3.2                                |
|   \\  /    A nd           | Web:         http://www.foam-extend.org         |
|    \\/     M anipulation  | For copyright notice see file Copyright         |
\*---------------------------------------------------------------------------*/
FoamFile
{
    version     2.0;
    format      ascii;
    class       areaScalarField;
    location    "120";
    object      tau;
}
// * * * * * * * * * * * * * * * * * * * * * * * * * * * * * * * * * * * * * //

dimensions      [1 1 2 0 0 0 0];

internalField   nonuniform List<scalar> 
550
(
0.0488587
0.0674193
0.0899425
0.116203
0.145547
0.176956
0.209232
0.241041
0.271225
0.298718
0.322843
0.34314
0.359513
0.372018
0.380923
0.386566
0.389384
0.389818
0.388321
0.385422
0.381423
0.376581
0.371122
0.365239
0.359104
0.352863
0.346635
0.340532
0.334636
0.32895
0.323484
0.318258
0.313283
0.308566
0.304107
0.299904
0.295952
0.292242
0.288766
0.285513
0.282472
0.279631
0.276979
0.274503
0.272191
0.270032
0.268016
0.266134
0.264376
0.262735
0.261202
0.25977
0.25843
0.257175
0.255999
0.254893
0.253851
0.252867
0.251937
0.251056
0.250219
0.249423
0.248664
0.247938
0.247245
0.24658
0.245942
0.245328
0.244737
0.244165
0.243611
0.243074
0.24255
0.24204
0.241541
0.241053
0.240574
0.240103
0.239639
0.239183
0.238735
0.238295
0.237862
0.237436
0.237017
0.236605
0.236198
0.235798
0.235403
0.235012
0.234627
0.234245
0.233867
0.23349
0.233116
0.232744
0.232374
0.232007
0.231641
0.231278
0.230917
0.230558
0.230199
0.22984
0.22948
0.229119
0.228756
0.228391
0.228024
0.227653
0.227279
0.226901
0.22652
0.226134
0.225744
0.225351
0.224953
0.22455
0.224144
0.223733
0.223319
0.222902
0.222481
0.222057
0.221629
0.221199
0.220765
0.220328
0.219885
0.219437
0.218991
0.218554
0.218124
0.217697
0.217272
0.216848
0.216425
0.216001
0.215578
0.215154
0.214732
0.214309
0.213888
0.213467
0.213048
0.212631
0.212215
0.211801
0.21139
0.210981
0.210574
0.210171
0.20977
0.209372
0.208978
0.208587
0.2082
0.207816
0.207437
0.207062
0.206692
0.206327
0.205966
0.205611
0.205261
0.204917
0.204578
0.204245
0.203917
0.203595
0.203279
0.202967
0.202661
0.202361
0.202065
0.201774
0.201487
0.201205
0.200927
0.200654
0.200385
0.20012
0.199859
0.199602
0.199349
0.1991
0.198855
0.198615
0.198378
0.198145
0.197916
0.197691
0.197471
0.197255
0.197044
0.196838
0.196636
0.196439
0.196247
0.19606
0.195879
0.195703
0.195532
0.195368
0.195208
0.195055
0.194907
0.194764
0.194626
0.194494
0.194367
0.194245
0.194128
0.194015
0.193908
0.193804
0.193705
0.19361
0.193519
0.193431
0.193347
0.193267
0.193189
0.193115
0.193043
0.192975
0.192908
0.192841
0.192775
0.192707
0.192638
0.192567
0.192494
0.192419
0.192342
0.192263
0.192182
0.192099
0.192013
0.191926
0.191836
0.191745
0.191651
0.191555
0.191457
0.191357
0.191256
0.191152
0.191047
0.19094
0.190832
0.190722
0.190611
0.190499
0.190385
0.19027
0.190154
0.190037
0.18992
0.189801
0.189681
0.189561
0.18944
0.189318
0.189196
0.189073
0.18895
0.188826
0.188702
0.188577
0.188452
0.188327
0.188201
0.188075
0.187949
0.187822
0.187695
0.187568
0.18744
0.187311
0.187183
0.187053
0.186923
0.186793
0.186662
0.186531
0.186399
0.186267
0.186134
0.186001
0.185868
0.185735
0.185602
0.185469
0.185336
0.185203
0.185071
0.18494
0.184809
0.18468
0.184552
0.184425
0.1843
0.184177
0.184056
0.183937
0.183819
0.183704
0.18359
0.183479
0.18337
0.183263
0.183159
0.183057
0.182957
0.18286
0.182764
0.182671
0.18258
0.18249
0.182402
0.182316
0.182232
0.182149
0.182069
0.18199
0.181912
0.181836
0.181762
0.181689
0.181618
0.181548
0.18148
0.181413
0.181348
0.181285
0.181224
0.181164
0.181106
0.181049
0.180994
0.180939
0.180886
0.180834
0.180783
0.180732
0.180681
0.18063
0.18058
0.18053
0.18048
0.18043
0.180379
0.180328
0.180275
0.180222
0.180168
0.180113
0.180056
0.179998
0.179938
0.179877
0.179813
0.179748
0.179681
0.179611
0.179539
0.179465
0.179387
0.179307
0.179223
0.179136
0.179045
0.17895
0.178852
0.17875
0.178645
0.178537
0.178426
0.178311
0.178193
0.178073
0.17795
0.177824
0.177695
0.177563
0.177429
0.177292
0.177153
0.177013
0.176871
0.176727
0.176583
0.176437
0.176291
0.176143
0.175995
0.175846
0.175697
0.175547
0.175396
0.175245
0.175093
0.174942
0.174789
0.174637
0.174484
0.174331
0.174177
0.174023
0.173868
0.173713
0.173557
0.173401
0.173245
0.173088
0.172931
0.172774
0.172617
0.172459
0.172302
0.172145
0.171988
0.171831
0.171675
0.171519
0.171364
0.171209
0.171055
0.170902
0.170748
0.170596
0.170443
0.170292
0.170141
0.16999
0.16984
0.16969
0.169541
0.169393
0.169245
0.169099
0.168952
0.168807
0.168663
0.168519
0.168376
0.168235
0.168094
0.167955
0.167817
0.167681
0.167546
0.167411
0.167279
0.167147
0.167017
0.166888
0.16676
0.166634
0.16651
0.166387
0.166265
0.166145
0.166026
0.165908
0.165792
0.165677
0.165564
0.165452
0.165343
0.165235
0.165129
0.165024
0.164921
0.16482
0.164719
0.164619
0.16452
0.164422
0.164325
0.164228
0.164133
0.164039
0.163946
0.163855
0.163765
0.163675
0.163587
0.163499
0.163412
0.163326
0.16324
0.163156
0.163072
0.16299
0.162908
0.162826
0.162744
0.162662
0.162579
0.162495
0.16241
0.162322
0.162233
0.162141
0.162047
0.161952
0.161853
0.161754
0.161652
0.161549
0.161444
0.161339
0.161231
0.161123
0.161012
0.160902
0.160789
0.160675
0.160559
0.160443
0.160323
0.160201
0.160074
0.159942
0.159802
0.159654
0.159489
0.159311
0.159098
0.158861
0.158553
0.158197
0.1577
0.157113
0.156222
0.155234
0.153095
0.149512
0.144878
0.139013
0.130401
0.118817
0.103047
0.0823411
0.0510806
0.0244457
0.0320346
0.0543599
)
;

boundaryField
{
    inlet
    {
        type            calculated;
        value           uniform 0;
    }
    endWall
    {
        type            calculated;
        value           uniform 0;
    }
    sideWall
    {
        type            empty;
    }
}


// ************************************************************************* //
