/*--------------------------------*- C++ -*----------------------------------*\
| =========                 |                                                 |
| \\      /  F ield         | foam-extend: Open Source CFD                    |
|  \\    /   O peration     | Version:     3.2                                |
|   \\  /    A nd           | Web:         http://www.foam-extend.org         |
|    \\/     M anipulation  | For copyright notice see file Copyright         |
\*---------------------------------------------------------------------------*/
FoamFile
{
    version     2.0;
    format      ascii;
    class       areaScalarField;
    location    "120";
    object      tauCSS1;
}
// * * * * * * * * * * * * * * * * * * * * * * * * * * * * * * * * * * * * * //

dimensions      [1 1 2 0 0 0 0];

internalField   nonuniform List<scalar> 
550
(
0.0120735
0.0120735
0.0120735
0.0120735
0.0120735
0.0120735
0.0120735
0.0120735
0.0120735
0.0120735
0.0120735
0.0120735
0.0120735
0.0120735
0.0120735
0.0120735
0.0120735
0.0120735
0.0120735
0.0120735
0.0120735
0.0120735
0.0120735
0.0120735
0.0120735
0.0120735
0.0120735
0.0120735
0.0120735
0.0120735
0.0120735
0.0120735
0.0120735
0.0120735
0.0120735
0.0120735
0.0120735
0.0120735
0.0120735
0.0120735
0.0120735
0.0120735
0.0120735
0.0120735
0.0120735
0.0120735
0.0120735
0.0120735
0.0120735
0.0120735
0.0120735
0.0120735
0.0120735
0.0120735
0.0120735
0.0120735
0.0120735
0.0120735
0.0120735
0.0120735
0.0120735
0.0120735
0.0120735
0.0120735
0.0120735
0.0120735
0.0120735
0.0120735
0.0120735
0.0120735
0.0120735
0.0120735
0.0120735
0.0120735
0.0120735
0.0120735
0.0120735
0.0120735
0.0120735
0.0120735
0.0120735
0.0120735
0.0120735
0.0120735
0.0120735
0.0120735
0.0120735
0.0120735
0.0120735
0.0120735
0.0120735
0.0120735
0.0120735
0.0120735
0.0120735
0.0120735
0.0120735
0.0120735
0.0120735
0.0120735
0.0120735
0.0120735
0.0120735
0.0120735
0.0120735
0.0120735
0.0120735
0.0120735
0.0120735
0.0120735
0.0120735
0.0120735
0.0120735
0.0120735
0.0120735
0.0120735
0.0120735
0.0120735
0.0120735
0.0120735
0.0120735
0.0120735
0.0120735
0.0120735
0.0120735
0.0120735
0.0120735
0.0120735
0.0120735
0.012083
0.0120758
0.0120777
0.0120778
0.012078
0.012078
0.0120779
0.0120779
0.0120779
0.0120778
0.0120777
0.0120777
0.0120776
0.0120776
0.0120775
0.0120775
0.0120774
0.0120773
0.0120773
0.0120772
0.0120772
0.0120771
0.012077
0.012077
0.0120769
0.0120768
0.0120767
0.0120767
0.0120766
0.0120765
0.0120765
0.0120764
0.012077
0.0120778
0.0120786
0.0120794
0.0120802
0.0120811
0.012082
0.0120828
0.0120837
0.0120846
0.0120855
0.0120864
0.0120873
0.0120881
0.0120889
0.0120897
0.0120904
0.012091
0.0120915
0.012092
0.0120924
0.0120927
0.0120929
0.012093
0.0120931
0.012093
0.0120929
0.0120928
0.0120925
0.0120922
0.0120919
0.0120916
0.0120913
0.0120909
0.0120906
0.0120904
0.0120902
0.0120901
0.01209
0.0120901
0.0120902
0.0120905
0.0120909
0.0120915
0.0120921
0.012093
0.0120939
0.012095
0.0120962
0.0120975
0.012099
0.0121006
0.0121024
0.0121043
0.0121063
0.0121085
0.0121108
0.0121132
0.0121158
0.0121186
0.0121214
0.0121244
0.0121275
0.0121308
0.0121344
0.012138
0.0121418
0.0121457
0.0121495
0.0121533
0.0121571
0.0121608
0.0121645
0.012168
0.0121715
0.0121748
0.012178
0.0121812
0.0121842
0.012187
0.0121898
0.0121924
0.0121949
0.0121972
0.0121994
0.0122015
0.0122034
0.0122053
0.0122069
0.0122085
0.0122099
0.0122111
0.0122123
0.0122133
0.0122142
0.0122149
0.0122155
0.012216
0.0122164
0.0122166
0.0122168
0.0122168
0.0122167
0.0122165
0.0122162
0.0122157
0.0122152
0.0122146
0.0122139
0.012213
0.0122121
0.0122112
0.0122101
0.0122089
0.0122076
0.0122062
0.0122047
0.012203
0.0122013
0.0121993
0.0121973
0.012195
0.0121927
0.0121901
0.0121875
0.0121847
0.0121817
0.0121786
0.0121753
0.0121719
0.0121684
0.0121647
0.0121609
0.012157
0.0121529
0.0121488
0.0121446
0.0121404
0.0121361
0.0121318
0.0121276
0.0121234
0.0121192
0.0121151
0.012111
0.0121069
0.012103
0.0120991
0.0120954
0.0120919
0.0120885
0.0120854
0.0120824
0.0120797
0.0120771
0.0120747
0.0120735
0.0120735
0.0120735
0.0120735
0.0120735
0.0120735
0.0120735
0.0120735
0.0120734
0.0120734
0.0120734
0.0120734
0.0120734
0.0120734
0.0120734
0.0120734
0.0120734
0.0120734
0.0120735
0.0120735
0.0120735
0.0120735
0.0120736
0.0120755
0.0120782
0.0120811
0.0120843
0.0120877
0.0120913
0.0120952
0.0120993
0.0121035
0.012108
0.0121126
0.0121173
0.0121222
0.0121272
0.0121323
0.0121374
0.0121426
0.0121479
0.0121532
0.0121585
0.0121637
0.012169
0.0121743
0.0121795
0.0121847
0.0121898
0.0121949
0.0121998
0.0122046
0.0122092
0.0122137
0.012218
0.0122221
0.0122259
0.0122295
0.0122329
0.0122361
0.0122391
0.0122418
0.0122443
0.0122466
0.0122486
0.0122504
0.012252
0.0122533
0.0122543
0.0122551
0.0122557
0.0122561
0.0122562
0.0122561
0.0122559
0.0122554
0.0122548
0.0122541
0.0122532
0.0122522
0.012251
0.0122497
0.0122483
0.0122468
0.0122453
0.0122436
0.0122419
0.0122401
0.0122382
0.0122362
0.0122341
0.012232
0.0122298
0.0122275
0.0122251
0.0122226
0.0122201
0.0122175
0.0122148
0.0122121
0.0122093
0.0122064
0.0122035
0.0122005
0.0121974
0.0121943
0.0121911
0.0121879
0.0121847
0.0121815
0.0121782
0.0121749
0.0121716
0.0121682
0.0121649
0.0121615
0.0121582
0.0121548
0.0121515
0.0121482
0.0121448
0.0121416
0.0121383
0.0121351
0.0121319
0.0121287
0.0121256
0.0121225
0.0121195
0.0121166
0.0121138
0.0121112
0.0121087
0.0121063
0.0121041
0.0121021
0.0121002
0.0120985
0.012097
0.0120955
0.0120943
0.0120932
0.0120922
0.0120914
0.0120907
0.0120901
0.0120897
0.0120893
0.012089
0.0120889
0.0120888
0.0120889
0.0120892
0.0120897
0.0120903
0.0120912
0.0120923
0.0120935
0.012095
0.0120966
0.0120985
0.0121005
0.0121026
0.012105
0.0121075
0.0121101
0.0121129
0.0121159
0.012119
0.0121223
0.0121257
0.0121292
0.0121327
0.0121364
0.0121402
0.012144
0.012148
0.0121521
0.0121564
0.0121608
0.0121654
0.0121701
0.0121749
0.0121798
0.0121847
0.0121896
0.0121945
0.0121994
0.0122042
0.0122089
0.0122136
0.0122181
0.0122225
0.0122267
0.0122308
0.0122348
0.0122387
0.0122425
0.0122461
0.0122496
0.0122531
0.0122564
0.0122596
0.0122628
0.012266
0.0122691
0.0122721
0.012275
0.0122779
0.0122807
0.0122834
0.0122861
0.012289
0.0122921
0.0122958
0.0123005
0.0123068
0.0123156
0.0123295
0.0123413
0.012381
0.0121802
0.0120965
0.0120735
0.0120735
0.0120735
0.0120735
0.0120735
0.0120735
0.0120735
0.0120735
0.0121481
0.0121481
)
;

boundaryField
{
    inlet
    {
        type            calculated;
        value           uniform 0;
    }
    endWall
    {
        type            calculated;
        value           uniform 0;
    }
    sideWall
    {
        type            empty;
    }
}


// ************************************************************************* //
