/*--------------------------------*- C++ -*----------------------------------*\
| =========                 |                                                 |
| \\      /  F ield         | foam-extend: Open Source CFD                    |
|  \\    /   O peration     | Version:     3.2                                |
|   \\  /    A nd           | Web:         http://www.foam-extend.org         |
|    \\/     M anipulation  | For copyright notice see file Copyright         |
\*---------------------------------------------------------------------------*/
FoamFile
{
    version     2.0;
    format      ascii;
    class       volScalarField;
    location    "120";
    object      testS;
}
// * * * * * * * * * * * * * * * * * * * * * * * * * * * * * * * * * * * * * //

dimensions      [0 0 0 0 0 0 0];

internalField   uniform 0;

boundaryField
{
    inlet
    {
        type            calculated;
        value           uniform 0;
    }
    outlet
    {
        type            calculated;
        value           uniform 0;
    }
    sideWall
    {
        type            empty;
    }
    bed
    {
        type            calculated;
        value           nonuniform List<scalar> 
550
(
0.00292505
0.00539825
0.00900898
0.0139313
0.0202177
0.0277591
0.0362975
0.0454281
0.0547022
0.063636
0.0718388
0.0789936
0.0849284
0.089558
0.0929056
0.0950487
0.0961269
0.0962957
0.0957269
0.0946255
0.0931122
0.0912905
0.0892501
0.0870679
0.0848114
0.0825358
0.0802851
0.0781001
0.0760083
0.0740097
0.0721052
0.0702998
0.0685956
0.0669926
0.0654887
0.064081
0.0627659
0.0615392
0.0603963
0.0593326
0.0583436
0.0574244
0.0565702
0.0557764
0.0550385
0.0543523
0.0537143
0.053121
0.0525692
0.0520558
0.0515779
0.0511326
0.0507175
0.0503298
0.0499672
0.0496271
0.0493075
0.0490067
0.0487228
0.0484543
0.0481999
0.0479583
0.0477285
0.0475096
0.0473006
0.0471006
0.0469088
0.0467246
0.0465472
0.046376
0.0462105
0.04605
0.0458941
0.0457423
0.0455942
0.0454493
0.0453074
0.0451681
0.0450312
0.0448968
0.0447648
0.044635
0.0445075
0.044382
0.0442584
0.0441369
0.0440171
0.0438992
0.0437829
0.0436683
0.0435552
0.0434434
0.0433325
0.0432224
0.0431132
0.0430047
0.0428972
0.0427905
0.0426847
0.0425799
0.0424759
0.0423726
0.0422697
0.0421669
0.0420639
0.0419606
0.0418567
0.041752
0.0416465
0.0415399
0.0414324
0.0413237
0.0412139
0.041103
0.0409911
0.0408781
0.0407639
0.0406485
0.0405321
0.0404147
0.0402964
0.0401771
0.040057
0.039936
0.0398143
0.039692
0.0395692
0.0394459
0.0393223
0.0391985
0.0390746
0.0389506
0.0388265
0.0387025
0.0385786
0.0384548
0.0383312
0.0382078
0.0380846
0.0379619
0.0378395
0.0377175
0.037596
0.037475
0.0373546
0.0372348
0.0371156
0.0369971
0.0368793
0.0367622
0.0366459
0.0365304
0.0364159
0.0363022
0.0361895
0.0360779
0.0359674
0.0358581
0.03575
0.0356431
0.0355375
0.0354332
0.0353303
0.0352287
0.0351285
0.0350297
0.0349325
0.0348367
0.0347424
0.0346497
0.0345585
0.034469
0.034381
0.0342946
0.0342099
0.0341268
0.0340453
0.0339654
0.0338872
0.0338105
0.0337354
0.0336618
0.0335898
0.0335194
0.0334504
0.033383
0.0333171
0.0332527
0.0331898
0.0331283
0.0330683
0.0330098
0.0329527
0.0328971
0.032843
0.0327903
0.0327391
0.0326893
0.032641
0.0325941
0.0325487
0.0325047
0.0324621
0.032421
0.0323812
0.0323428
0.0323057
0.0322699
0.0322353
0.0322019
0.0321696
0.0321383
0.032108
0.0320786
0.0320501
0.0320223
0.0319952
0.0319688
0.031943
0.0319176
0.0318928
0.0318683
0.0318441
0.0318202
0.0317965
0.031773
0.0317494
0.0317254
0.031701
0.0316762
0.031651
0.0316253
0.0315992
0.0315728
0.0315462
0.0315193
0.0314922
0.0314414
0.0314018
0.0314102
0.031383
0.031356
0.0313291
0.0313025
0.0312761
0.0312495
0.031223
0.0311965
0.0311701
0.0311436
0.031117
0.0310903
0.0310634
0.0310364
0.031009
0.0309813
0.0309533
0.0309249
0.0308962
0.0308671
0.0308376
0.0308078
0.0307777
0.0307472
0.0307164
0.0306853
0.0306539
0.0306222
0.0305903
0.0305582
0.0305259
0.0304934
0.0304608
0.0304281
0.0303953
0.0303625
0.0303297
0.030297
0.0302642
0.0302314
0.0301987
0.0301661
0.0301336
0.0301012
0.030069
0.0300371
0.0300055
0.0299742
0.0299433
0.0299127
0.0298826
0.0298529
0.0298237
0.0297949
0.0297666
0.0297389
0.0297117
0.0296851
0.029659
0.0296334
0.0296083
0.0295838
0.0295596
0.0295359
0.0295125
0.0294895
0.0294668
0.0294443
0.0294222
0.0294004
0.0293789
0.0293577
0.0293368
0.0293163
0.0292962
0.0292764
0.0292569
0.0292378
0.0292189
0.0292004
0.0291822
0.0291644
0.0291468
0.0291296
0.0291128
0.0290963
0.0290801
0.0290642
0.0290487
0.0290334
0.0290184
0.0290036
0.0289891
0.0289748
0.0289608
0.028947
0.0289333
0.0289199
0.0289065
0.0288933
0.0288801
0.028867
0.0288539
0.0288407
0.0288274
0.028814
0.0288004
0.0287864
0.0287721
0.0287574
0.0287423
0.0287266
0.0287104
0.0286936
0.0286762
0.0286583
0.0286397
0.0286205
0.0286008
0.0285805
0.0285597
0.0285384
0.0285166
0.0284942
0.0284713
0.0284479
0.028424
0.0283995
0.0283745
0.028349
0.028323
0.0282965
0.0282695
0.0282419
0.0282137
0.028185
0.0281556
0.0281256
0.028095
0.0280638
0.0280319
0.0279995
0.0279665
0.0279329
0.0278988
0.0278641
0.027829
0.0277934
0.0277574
0.0277209
0.027684
0.0276468
0.0276093
0.0275715
0.0275334
0.0274951
0.0274567
0.027418
0.0273792
0.0273402
0.0273011
0.0272618
0.0272224
0.0271829
0.0271434
0.0271038
0.0270642
0.0270246
0.026985
0.0269455
0.0269059
0.0268663
0.0268267
0.026787
0.0267473
0.0267075
0.0266677
0.0266278
0.0265877
0.0265476
0.0265073
0.026467
0.0264265
0.026386
0.0263454
0.0263048
0.0262641
0.0262235
0.0261829
0.0261424
0.0261019
0.0260617
0.0260216
0.0259818
0.0259423
0.0259032
0.0258644
0.025826
0.025788
0.0257505
0.0257134
0.0256769
0.0256409
0.0256055
0.0255706
0.0255364
0.0255028
0.0254698
0.0254373
0.0254054
0.025374
0.0253431
0.0253127
0.0252827
0.0252531
0.0252239
0.0251952
0.0251669
0.0251391
0.0251116
0.0250846
0.0250578
0.0250314
0.0250051
0.0249791
0.0249532
0.0249275
0.0249019
0.0248765
0.0248512
0.0248262
0.0248013
0.0247766
0.0247521
0.0247278
0.0247036
0.0246797
0.0246559
0.0246325
0.0246093
0.0245863
0.0245636
0.0245411
0.0245189
0.0244969
0.0244751
0.0244533
0.0244317
0.0244102
0.0243886
0.024367
0.0243453
0.0243235
0.0243016
0.0242795
0.0242573
0.0242349
0.0242124
0.0241898
0.0241672
0.0241445
0.0241218
0.024099
0.024076
0.0240527
0.0240291
0.024005
0.0239806
0.0239556
0.0239302
0.0239042
0.0238779
0.0238509
0.0238237
0.0237958
0.0237677
0.023739
0.0237102
0.0236808
0.0236514
0.0236213
0.0235912
0.0235601
0.0235287
0.0234959
0.0234623
0.0234265
0.0233894
0.0233482
0.0233044
0.0232522
0.0231946
0.0231203
0.0230345
0.0229156
0.0227744
0.022559
0.0223179
0.0217161
0.0209084
0.0199987
0.0187326
0.0168674
0.0144569
0.0113775
0.00772559
0.00319575
0.000569014
0.00114312
0.0035437
)
;
    }
    endWall
    {
        type            calculated;
        value           uniform 0;
    }
    topWall
    {
        type            calculated;
        value           uniform 0;
    }
}


// ************************************************************************* //
