/*--------------------------------*- C++ -*----------------------------------*\
| =========                 |                                                 |
| \\      /  F ield         | foam-extend: Open Source CFD                    |
|  \\    /   O peration     | Version:     3.2                                |
|   \\  /    A nd           | Web:         http://www.foam-extend.org         |
|    \\/     M anipulation  | For copyright notice see file Copyright         |
\*---------------------------------------------------------------------------*/
FoamFile
{
    version     2.0;
    format      ascii;
    class       areaScalarField;
    location    "120";
    object      thetaB;
}
// * * * * * * * * * * * * * * * * * * * * * * * * * * * * * * * * * * * * * //

dimensions      [0 0 0 0 0 0 0];

internalField   nonuniform List<scalar> 
550
(
0.0153911
0.021238
0.0283331
0.0366055
0.0458493
0.0557435
0.065911
0.0759313
0.0854395
0.0941003
0.1017
0.108094
0.113251
0.117191
0.119996
0.121774
0.122661
0.122798
0.122326
0.121413
0.120153
0.118628
0.116909
0.115055
0.113123
0.111157
0.109195
0.107272
0.105415
0.103624
0.101902
0.100256
0.0986884
0.0972024
0.0957979
0.094474
0.0932289
0.0920603
0.0909651
0.0899403
0.0889823
0.0880876
0.0872522
0.0864722
0.0857439
0.0850638
0.0844287
0.0838357
0.0832821
0.0827651
0.0822822
0.0818309
0.0814089
0.0810137
0.0806431
0.0802946
0.0799664
0.0796566
0.0793637
0.0790861
0.0788225
0.0785716
0.0783324
0.0781039
0.0778854
0.077676
0.077475
0.0772817
0.0770953
0.0769153
0.0767409
0.0765715
0.0764067
0.0762459
0.0760888
0.075935
0.075784
0.0756356
0.0754895
0.0753459
0.0752048
0.0750661
0.0749297
0.0747956
0.0746636
0.0745337
0.0744057
0.0742795
0.074155
0.0740321
0.0739107
0.0737905
0.0736712
0.0735526
0.0734347
0.0733175
0.073201
0.0730852
0.0729701
0.0728558
0.0727421
0.0726288
0.0725158
0.0724027
0.0722894
0.0721757
0.0720614
0.0719464
0.0718306
0.0717138
0.0715959
0.0714769
0.0713567
0.0712352
0.0711125
0.0709886
0.0708632
0.0707364
0.0706083
0.070479
0.0703486
0.0702171
0.0700845
0.0699509
0.0698162
0.0696806
0.0695439
0.0694062
0.0692669
0.0691256
0.068985
0.0688475
0.068712
0.0685776
0.0684437
0.0683101
0.0681766
0.0680432
0.0679099
0.0677765
0.0676434
0.0675103
0.0673776
0.0672451
0.0671131
0.0669816
0.0668506
0.0667203
0.0665906
0.0664618
0.0663338
0.0662066
0.0660804
0.0659551
0.0658308
0.0657077
0.0655857
0.0654649
0.0653455
0.0652275
0.0651108
0.0649957
0.0648822
0.0647703
0.0646601
0.0645516
0.0644449
0.0643399
0.0642367
0.0641353
0.0640355
0.0639375
0.0638411
0.0637463
0.0636531
0.0635614
0.0634711
0.0633823
0.0632948
0.0632087
0.0631239
0.0630404
0.0629582
0.0628773
0.0627977
0.0627193
0.0626421
0.0625663
0.0624916
0.0624183
0.0623462
0.0622755
0.0622061
0.0621381
0.0620716
0.0620065
0.0619429
0.0618809
0.0618205
0.0617616
0.0617045
0.061649
0.0615953
0.0615434
0.0614932
0.0614449
0.0613982
0.0613532
0.06131
0.0612683
0.0612283
0.0611898
0.0611529
0.0611175
0.0610835
0.0610509
0.0610197
0.0609898
0.0609611
0.0609335
0.0609071
0.0608817
0.0608573
0.0608338
0.0608113
0.0607896
0.0607685
0.0607476
0.0607266
0.0607052
0.0606834
0.0606611
0.0606381
0.0606145
0.0605903
0.0605654
0.0605399
0.0605137
0.0604868
0.0604593
0.0604311
0.0604022
0.0603726
0.0603424
0.0603116
0.0602801
0.0602481
0.0602155
0.0601823
0.0601487
0.0601146
0.06008
0.060045
0.0600096
0.0599738
0.0599377
0.0599012
0.0598644
0.0598272
0.0597898
0.0597522
0.0597143
0.0596761
0.0596378
0.0595993
0.0595606
0.0595218
0.0594828
0.0594437
0.0594044
0.059365
0.0593255
0.0592859
0.0592462
0.0592064
0.0591665
0.0591265
0.0590864
0.0590461
0.0590056
0.0589651
0.0589243
0.0588834
0.0588424
0.0588011
0.0587598
0.0587182
0.0586766
0.0586348
0.058593
0.058551
0.0585091
0.0584671
0.0584251
0.0583832
0.0583415
0.0582998
0.0582585
0.0582173
0.0581766
0.0581362
0.0580963
0.058057
0.0580182
0.0579801
0.0579425
0.0579056
0.0578692
0.0578335
0.0577984
0.057764
0.0577303
0.0576975
0.0576653
0.057634
0.0576033
0.0575733
0.0575439
0.0575151
0.0574869
0.0574592
0.0574321
0.0574055
0.0573795
0.0573541
0.0573292
0.0573048
0.0572809
0.0572575
0.0572345
0.057212
0.05719
0.0571685
0.0571476
0.0571272
0.0571074
0.057088
0.0570692
0.0570509
0.0570329
0.0570154
0.0569984
0.0569816
0.0569652
0.056949
0.0569329
0.0569169
0.056901
0.0568852
0.0568694
0.0568536
0.0568378
0.0568218
0.0568056
0.0567892
0.0567725
0.0567555
0.056738
0.0567202
0.0567018
0.056683
0.0566636
0.0566437
0.0566231
0.0566019
0.05658
0.0565574
0.0565339
0.0565095
0.0564841
0.0564576
0.0564301
0.0564015
0.0563717
0.0563408
0.0563088
0.0562757
0.0562416
0.0562064
0.0561704
0.0561334
0.0560954
0.0560566
0.0560168
0.0559762
0.0559347
0.0558924
0.0558494
0.0558057
0.0557614
0.0557166
0.0556715
0.0556259
0.0555801
0.055534
0.0554876
0.0554409
0.055394
0.0553469
0.0552995
0.0552521
0.0552045
0.0551568
0.0551089
0.055061
0.055013
0.0549649
0.0549166
0.0548682
0.0548196
0.0547709
0.054722
0.0546729
0.0546237
0.0545744
0.0545251
0.0544756
0.0544261
0.0543765
0.054327
0.0542774
0.0542279
0.0541785
0.0541291
0.0540799
0.0540308
0.0539819
0.0539332
0.0538847
0.0538363
0.053788
0.05374
0.053692
0.0536442
0.0535966
0.0535491
0.0535017
0.0534546
0.0534077
0.053361
0.0533145
0.0532683
0.0532223
0.0531765
0.053131
0.0530857
0.0530408
0.0529962
0.052952
0.0529082
0.0528648
0.0528218
0.0527791
0.0527369
0.052695
0.0526536
0.0526125
0.0525719
0.0525318
0.0524921
0.0524529
0.0524142
0.0523758
0.0523379
0.0523004
0.0522633
0.0522266
0.0521904
0.0521548
0.0521197
0.0520852
0.0520513
0.0520178
0.0519849
0.0519524
0.0519204
0.0518886
0.0518572
0.051826
0.0517951
0.0517644
0.0517341
0.0517041
0.0516745
0.0516453
0.0516165
0.0515881
0.05156
0.0515321
0.0515045
0.051477
0.0514499
0.051423
0.0513964
0.05137
0.051344
0.0513181
0.0512924
0.0512667
0.0512409
0.0512147
0.0511882
0.0511612
0.0511337
0.0511055
0.0510767
0.0510471
0.0510169
0.050986
0.0509547
0.0509226
0.0508902
0.0508572
0.0508239
0.05079
0.0507559
0.0507211
0.0506862
0.0506506
0.0506149
0.0505784
0.0505417
0.0505039
0.0504655
0.0504254
0.050384
0.0503397
0.0502933
0.0502411
0.0501852
0.050118
0.0500434
0.0499464
0.0498341
0.0496775
0.0494926
0.0492119
0.0489009
0.048227
0.0470983
0.0456386
0.043791
0.0410781
0.0374291
0.0324612
0.0259385
0.0160911
0.00770072
0.0100913
0.0171241
)
;

boundaryField
{
    inlet
    {
        type            calculated;
        value           uniform 0;
    }
    endWall
    {
        type            calculated;
        value           uniform 0;
    }
    sideWall
    {
        type            empty;
    }
}


// ************************************************************************* //
