/*--------------------------------*- C++ -*----------------------------------*\
| =========                 |                                                 |
| \\      /  F ield         | foam-extend: Open Source CFD                    |
|  \\    /   O peration     | Version:     3.2                                |
|   \\  /    A nd           | Web:         http://www.foam-extend.org         |
|    \\/     M anipulation  | For copyright notice see file Copyright         |
\*---------------------------------------------------------------------------*/
FoamFile
{
    version     2.0;
    format      ascii;
    class       areaScalarField;
    location    "120";
    object      thetaBinit;
}
// * * * * * * * * * * * * * * * * * * * * * * * * * * * * * * * * * * * * * //

dimensions      [0 0 0 0 0 0 0];

internalField   nonuniform List<scalar> 
550
(
0.0153895
0.0212358
0.0283334
0.0366067
0.0458557
0.055756
0.0659381
0.0759804
0.0855228
0.0942266
0.101878
0.108327
0.11354
0.117533
0.120386
0.122205
0.123126
0.123288
0.122835
0.121934
0.12068
0.119157
0.117435
0.115575
0.113634
0.111657
0.109681
0.107744
0.105871
0.104066
0.10233
0.10067
0.0990898
0.0975921
0.0961766
0.0948419
0.0935861
0.0924066
0.0913003
0.0902641
0.0892945
0.0883878
0.0875405
0.0867489
0.0860094
0.0853186
0.0846735
0.0840714
0.0835095
0.0829851
0.0824956
0.0820385
0.0816111
0.0812111
0.0808361
0.0804837
0.0801518
0.0798387
0.0795426
0.079262
0.0789954
0.0787417
0.0784998
0.0782687
0.0780476
0.0778358
0.0776326
0.0774371
0.077249
0.0770674
0.0768921
0.0767224
0.0765576
0.0763972
0.0762406
0.0760872
0.0759368
0.075789
0.0756437
0.0755009
0.0753604
0.0752223
0.0750863
0.0749523
0.0748202
0.0746898
0.074561
0.0744336
0.0743077
0.074183
0.0740595
0.0739373
0.0738161
0.0736957
0.073576
0.0734571
0.073339
0.0732217
0.0731051
0.0729893
0.0728742
0.0727598
0.0726457
0.0725317
0.0724175
0.0723029
0.0721877
0.0720718
0.071955
0.0718372
0.0717183
0.0715983
0.0714772
0.071355
0.0712318
0.0711076
0.0709824
0.0708562
0.0707288
0.0706004
0.070471
0.0703407
0.0702095
0.0700773
0.0699442
0.0698101
0.0696752
0.0695396
0.0694032
0.0692662
0.0691286
0.0689906
0.0688522
0.0687135
0.0685745
0.0684354
0.0682962
0.068157
0.0680179
0.067879
0.0677403
0.0676019
0.0674639
0.0673263
0.0671893
0.0670528
0.0669169
0.0667817
0.0666472
0.0665134
0.0663804
0.0662484
0.0661174
0.0659873
0.0658584
0.0657307
0.0656041
0.0654789
0.065355
0.0652326
0.0651115
0.064992
0.064874
0.0647575
0.0646427
0.0645294
0.0644178
0.0643078
0.0641996
0.0640931
0.0639883
0.0638852
0.0637839
0.0636843
0.0635865
0.0634904
0.063396
0.0633033
0.0632124
0.0631232
0.0630357
0.0629501
0.0628662
0.062784
0.0627035
0.0626247
0.0625476
0.0624722
0.0623983
0.062326
0.0622553
0.062186
0.0621182
0.0620519
0.0619869
0.0619232
0.0618608
0.0617997
0.0617398
0.0616811
0.0616235
0.0615672
0.061512
0.061458
0.061405
0.0613532
0.0613024
0.0612526
0.0612039
0.0611561
0.0611093
0.0610634
0.0610184
0.0609741
0.0609306
0.0608879
0.0608458
0.0608043
0.0607633
0.0607228
0.0606828
0.0606432
0.060604
0.0605651
0.0605264
0.0604875
0.0604484
0.0604089
0.060369
0.0603288
0.0602882
0.0602473
0.0602061
0.0601647
0.0601231
0.0600814
0.0600395
0.0599976
0.0599556
0.0599135
0.0598713
0.0598292
0.0597871
0.059745
0.0597029
0.059661
0.0596191
0.0595774
0.0595358
0.0594944
0.0594531
0.059412
0.0593711
0.0593305
0.0592902
0.0592502
0.0592104
0.059171
0.0591319
0.0590931
0.0590546
0.0590165
0.0589787
0.0589412
0.0589041
0.0588673
0.0588309
0.0587949
0.0587591
0.0587237
0.0586887
0.0586539
0.0586194
0.0585853
0.0585516
0.0585182
0.0584852
0.0584526
0.0584206
0.058389
0.058358
0.0583274
0.0582975
0.0582681
0.0582392
0.0582109
0.0581831
0.0581559
0.0581293
0.0581032
0.0580778
0.0580529
0.0580287
0.0580052
0.0579823
0.05796
0.0579383
0.0579171
0.0578965
0.0578763
0.0578565
0.0578371
0.0578182
0.0577996
0.0577813
0.0577634
0.0577457
0.0577282
0.0577108
0.0576935
0.0576761
0.0576587
0.057641
0.0576231
0.0576049
0.0575865
0.0575677
0.0575485
0.0575291
0.0575092
0.057489
0.0574684
0.0574475
0.0574261
0.0574044
0.0573823
0.0573598
0.0573371
0.057314
0.0572906
0.057267
0.057243
0.0572188
0.0571942
0.0571691
0.0571436
0.0571176
0.0570909
0.0570636
0.0570356
0.0570068
0.0569772
0.0569468
0.0569155
0.0568834
0.0568504
0.0568166
0.0567819
0.0567464
0.05671
0.0566728
0.0566348
0.0565962
0.0565568
0.0565168
0.0564762
0.0564351
0.0563934
0.0563512
0.0563086
0.0562654
0.0562218
0.0561778
0.0561333
0.0560884
0.0560432
0.0559977
0.0559518
0.0559056
0.0558593
0.0558127
0.0557659
0.055719
0.055672
0.0556249
0.0555778
0.0555307
0.0554836
0.0554366
0.0553897
0.0553428
0.0552962
0.0552497
0.0552035
0.0551575
0.0551118
0.0550665
0.0550214
0.0549768
0.0549325
0.0548887
0.0548453
0.0548023
0.0547597
0.0547176
0.0546758
0.0546344
0.0545933
0.0545526
0.054512
0.0544718
0.0544319
0.0543922
0.0543527
0.0543135
0.0542744
0.0542357
0.0541972
0.0541588
0.0541207
0.0540827
0.0540449
0.0540073
0.0539698
0.0539325
0.0538955
0.0538586
0.053822
0.0537856
0.0537495
0.0537137
0.0536781
0.0536429
0.0536079
0.0535731
0.0535387
0.0535045
0.0534705
0.0534369
0.0534034
0.0533702
0.0533372
0.0533043
0.0532715
0.0532388
0.0532063
0.0531739
0.0531415
0.0531093
0.0530771
0.053045
0.0530129
0.0529809
0.0529489
0.052917
0.052885
0.0528528
0.0528206
0.0527881
0.0527554
0.0527223
0.0526889
0.0526552
0.0526212
0.0525869
0.0525523
0.0525175
0.0524824
0.0524471
0.0524116
0.052376
0.0523402
0.0523043
0.0522684
0.0522325
0.0521966
0.0521607
0.0521248
0.0520887
0.0520525
0.0520161
0.0519794
0.0519424
0.051905
0.0518671
0.0518288
0.0517901
0.0517509
0.0517112
0.0516712
0.0516308
0.05159
0.051549
0.0515076
0.051466
0.0514241
0.051382
0.0513396
0.051297
0.0512544
0.0512116
0.0511688
0.0511257
0.0510826
0.0510391
0.0509954
0.0509512
0.0509065
0.0508614
0.0508157
0.0507696
0.050723
0.0506758
0.0506282
0.05058
0.0505315
0.0504826
0.0504336
0.0503844
0.0503354
0.0502862
0.0502373
0.0501883
0.0501395
0.0500906
0.0500421
0.0499933
0.049945
0.0498963
0.049848
0.0497992
0.0497505
0.0497009
0.0496511
0.0496
0.0495481
0.0494938
0.049438
0.0493768
0.0493124
0.0492364
0.0491522
0.0490438
0.0489164
0.0487386
0.0485184
0.0481934
0.047774
0.0471372
0.0462834
0.0449879
0.0432076
0.0405678
0.0370066
0.03215
0.0257793
0.016045
0.00762188
0.00879236
0.0154323
)
;

boundaryField
{
    inlet
    {
        type            calculated;
        value           uniform 0;
    }
    endWall
    {
        type            calculated;
        value           uniform 0;
    }
    sideWall
    {
        type            empty;
    }
}


// ************************************************************************* //
