/*--------------------------------*- C++ -*----------------------------------*\
| =========                 |                                                 |
| \\      /  F ield         | foam-extend: Open Source CFD                    |
|  \\    /   O peration     | Version:     3.2                                |
|   \\  /    A nd           | Web:         http://www.foam-extend.org         |
|    \\/     M anipulation  | For copyright notice see file Copyright         |
\*---------------------------------------------------------------------------*/
FoamFile
{
    version     2.0;
    format      ascii;
    class       areaScalarField;
    location    "120";
    object      thetaCSS2;
}
// * * * * * * * * * * * * * * * * * * * * * * * * * * * * * * * * * * * * * //

dimensions      [0 0 0 0 0 0 0];

internalField   nonuniform List<scalar> 
550
(
0.127208
0.127208
0.127208
0.127208
0.127208
0.127208
0.127208
0.127208
0.127208
0.127208
0.127208
0.127208
0.127208
0.127208
0.127208
0.127208
0.127208
0.127208
0.127208
0.127208
0.127208
0.127208
0.127208
0.127208
0.127208
0.127208
0.127208
0.127208
0.127208
0.127208
0.127208
0.127208
0.127208
0.127208
0.127208
0.127208
0.127208
0.127208
0.127208
0.127208
0.127208
0.127208
0.127208
0.127208
0.127208
0.127208
0.127208
0.127208
0.127208
0.127208
0.127208
0.127208
0.127208
0.127208
0.127208
0.127208
0.127208
0.127208
0.127208
0.127208
0.127208
0.127208
0.127208
0.127208
0.127208
0.127208
0.127208
0.127208
0.127208
0.127208
0.127208
0.127208
0.127208
0.127208
0.127208
0.127208
0.127208
0.127208
0.127208
0.127208
0.127208
0.127208
0.127208
0.127208
0.127208
0.127208
0.127208
0.127208
0.127208
0.127208
0.127208
0.127208
0.127208
0.127208
0.127208
0.127208
0.127208
0.127208
0.127208
0.127208
0.127208
0.127208
0.127208
0.127208
0.127208
0.127208
0.127208
0.127208
0.127208
0.127208
0.127208
0.127208
0.127208
0.127208
0.127208
0.127208
0.127208
0.127208
0.127208
0.127208
0.127208
0.127208
0.127208
0.127208
0.127208
0.127208
0.127208
0.127208
0.127207
0.127308
0.127232
0.127252
0.127253
0.127255
0.127255
0.127254
0.127254
0.127254
0.127253
0.127252
0.127252
0.127251
0.127251
0.12725
0.127249
0.127249
0.127248
0.127247
0.127247
0.127246
0.127245
0.127245
0.127244
0.127243
0.127243
0.127242
0.127241
0.12724
0.12724
0.127239
0.127238
0.127245
0.127253
0.127261
0.12727
0.127278
0.127288
0.127297
0.127306
0.127316
0.127325
0.127335
0.127344
0.127353
0.127362
0.12737
0.127378
0.127385
0.127392
0.127398
0.127403
0.127407
0.12741
0.127412
0.127414
0.127414
0.127414
0.127412
0.127411
0.127408
0.127405
0.127402
0.127398
0.127395
0.127391
0.127388
0.127385
0.127383
0.127382
0.127382
0.127382
0.127384
0.127387
0.127391
0.127397
0.127404
0.127413
0.127423
0.127434
0.127446
0.127461
0.127476
0.127493
0.127512
0.127532
0.127553
0.127576
0.1276
0.127626
0.127654
0.127682
0.127713
0.127744
0.127777
0.127812
0.127849
0.127888
0.127928
0.127968
0.128009
0.128049
0.128089
0.128128
0.128166
0.128203
0.12824
0.128275
0.128309
0.128342
0.128374
0.128404
0.128433
0.128461
0.128487
0.128511
0.128535
0.128556
0.128577
0.128596
0.128613
0.12863
0.128644
0.128658
0.12867
0.128681
0.12869
0.128698
0.128704
0.128709
0.128713
0.128716
0.128717
0.128717
0.128716
0.128714
0.128711
0.128706
0.128701
0.128694
0.128686
0.128678
0.128668
0.128658
0.128647
0.128634
0.128621
0.128606
0.12859
0.128573
0.128554
0.128533
0.128512
0.128488
0.128463
0.128437
0.128408
0.128379
0.128348
0.128315
0.12828
0.128245
0.128207
0.128169
0.128128
0.128087
0.128044
0.128001
0.127957
0.127912
0.127867
0.127822
0.127777
0.127733
0.127689
0.127646
0.127602
0.12756
0.127518
0.127478
0.127439
0.127401
0.127366
0.127333
0.127302
0.127273
0.127246
0.127221
0.127208
0.127208
0.127208
0.127208
0.127207
0.127207
0.127207
0.127207
0.127207
0.127207
0.127207
0.127207
0.127207
0.127207
0.127207
0.127207
0.127207
0.127207
0.127207
0.127207
0.127208
0.127208
0.127208
0.127228
0.127257
0.127288
0.127321
0.127357
0.127395
0.127436
0.127479
0.127524
0.127571
0.127619
0.127669
0.127721
0.127773
0.127827
0.127881
0.127936
0.127991
0.128047
0.128103
0.128158
0.128214
0.12827
0.128325
0.128379
0.128433
0.128486
0.128538
0.128589
0.128638
0.128685
0.12873
0.128773
0.128813
0.128852
0.128888
0.128921
0.128952
0.128981
0.129007
0.129031
0.129053
0.129072
0.129088
0.129102
0.129113
0.129121
0.129127
0.129131
0.129132
0.129132
0.129129
0.129124
0.129118
0.12911
0.129101
0.12909
0.129078
0.129064
0.12905
0.129034
0.129017
0.129
0.128982
0.128963
0.128943
0.128922
0.1289
0.128877
0.128854
0.12883
0.128805
0.128779
0.128752
0.128725
0.128697
0.128668
0.128638
0.128608
0.128577
0.128545
0.128513
0.12848
0.128447
0.128413
0.128379
0.128345
0.128311
0.128276
0.128241
0.128206
0.128171
0.128135
0.1281
0.128065
0.128029
0.127994
0.127959
0.127925
0.12789
0.127857
0.127823
0.127789
0.127756
0.127724
0.127693
0.127662
0.127633
0.127605
0.127578
0.127554
0.12753
0.127509
0.127489
0.127471
0.127455
0.12744
0.127426
0.127415
0.127405
0.127396
0.127389
0.127383
0.127378
0.127374
0.127371
0.12737
0.127369
0.12737
0.127373
0.127378
0.127385
0.127394
0.127405
0.127419
0.127434
0.127452
0.127471
0.127492
0.127515
0.127539
0.127565
0.127593
0.127623
0.127655
0.127687
0.127722
0.127757
0.127794
0.127832
0.12787
0.12791
0.127951
0.127993
0.128036
0.128081
0.128128
0.128176
0.128226
0.128276
0.128327
0.128379
0.128431
0.128483
0.128534
0.128585
0.128635
0.128683
0.128731
0.128777
0.128822
0.128865
0.128907
0.128948
0.128988
0.129026
0.129064
0.1291
0.129135
0.129169
0.129203
0.129235
0.129268
0.1293
0.129331
0.129361
0.12939
0.129419
0.129448
0.129478
0.129511
0.12955
0.129599
0.129665
0.129758
0.129905
0.130029
0.130448
0.128332
0.12745
0.127208
0.127208
0.127208
0.127208
0.127208
0.127208
0.127208
0.127208
0.127993
0.127993
)
;

boundaryField
{
    inlet
    {
        type            calculated;
        value           uniform 0;
    }
    endWall
    {
        type            calculated;
        value           uniform 0;
    }
    sideWall
    {
        type            empty;
    }
}


// ************************************************************************* //
