/*--------------------------------*- C++ -*----------------------------------*\
| =========                 |                                                 |
| \\      /  F ield         | foam-extend: Open Source CFD                    |
|  \\    /   O peration     | Version:     3.2                                |
|   \\  /    A nd           | Web:         http://www.foam-extend.org         |
|    \\/     M anipulation  | For copyright notice see file Copyright         |
\*---------------------------------------------------------------------------*/
FoamFile
{
    version     2.0;
    format      ascii;
    class       areaScalarField;
    location    "120";
    object      thetaC2SS2;
}
// * * * * * * * * * * * * * * * * * * * * * * * * * * * * * * * * * * * * * //

dimensions      [0 0 0 0 0 0 0];

internalField   nonuniform List<scalar> 
550
(
0.127601
0.127601
0.127601
0.127601
0.127601
0.127601
0.127601
0.127601
0.127601
0.127601
0.127601
0.127601
0.127601
0.127601
0.127601
0.127601
0.127601
0.127601
0.127601
0.127601
0.127601
0.127601
0.127601
0.127601
0.127601
0.127601
0.127601
0.127601
0.127601
0.127601
0.127601
0.127601
0.127601
0.127601
0.127601
0.127601
0.127601
0.127601
0.127601
0.127601
0.127601
0.127601
0.127601
0.127601
0.127601
0.127601
0.127601
0.127601
0.127601
0.127601
0.127601
0.127601
0.127601
0.127601
0.127601
0.127601
0.127601
0.127601
0.127601
0.127601
0.127601
0.127601
0.127601
0.127601
0.127601
0.127601
0.127601
0.127601
0.127601
0.127601
0.127601
0.127601
0.127601
0.127601
0.127601
0.127601
0.127601
0.127601
0.127601
0.127601
0.127601
0.127601
0.127601
0.127601
0.127601
0.127601
0.127601
0.127601
0.127601
0.127601
0.127601
0.127601
0.127601
0.127601
0.127601
0.127601
0.127601
0.127601
0.127601
0.127601
0.127601
0.127601
0.127601
0.127601
0.127601
0.127601
0.127601
0.127601
0.127601
0.127601
0.127601
0.127601
0.127601
0.127601
0.127601
0.127601
0.127601
0.127601
0.127601
0.127601
0.127601
0.127601
0.127601
0.127601
0.127601
0.127601
0.127601
0.127601
0.127601
0.127699
0.127601
0.127601
0.127601
0.127601
0.127601
0.127601
0.127601
0.127601
0.127601
0.127601
0.127601
0.127601
0.127601
0.127601
0.127601
0.127601
0.127601
0.127601
0.127601
0.127601
0.127601
0.127601
0.127601
0.127601
0.127601
0.127601
0.127601
0.127601
0.127601
0.127601
0.127601
0.127608
0.127617
0.127626
0.127635
0.127645
0.127655
0.127665
0.127675
0.127685
0.127695
0.127705
0.127715
0.127725
0.127735
0.127744
0.127752
0.12776
0.127767
0.127774
0.127779
0.127784
0.127788
0.127791
0.127793
0.127794
0.127794
0.127793
0.127792
0.12779
0.127787
0.127785
0.127782
0.127778
0.127775
0.127773
0.12777
0.127769
0.127768
0.127768
0.127769
0.127771
0.127774
0.127778
0.127784
0.127792
0.1278
0.127811
0.127822
0.127835
0.127849
0.127865
0.127882
0.127901
0.127921
0.127943
0.127966
0.12799
0.128016
0.128044
0.128073
0.128103
0.128134
0.128167
0.128202
0.128238
0.128277
0.128317
0.128357
0.128397
0.128438
0.128477
0.128517
0.128555
0.128593
0.128629
0.128664
0.128699
0.128732
0.128763
0.128794
0.128823
0.128851
0.128877
0.128902
0.128925
0.128947
0.128968
0.128987
0.129004
0.129021
0.129036
0.129049
0.129061
0.129072
0.129082
0.12909
0.129096
0.129102
0.129106
0.129108
0.12911
0.12911
0.129109
0.129107
0.129104
0.1291
0.129094
0.129088
0.12908
0.129072
0.129062
0.129052
0.129041
0.129028
0.129015
0.129
0.128984
0.128967
0.128949
0.128928
0.128907
0.128883
0.128859
0.128832
0.128804
0.128775
0.128743
0.128711
0.128677
0.128641
0.128604
0.128565
0.128525
0.128483
0.128441
0.128397
0.128353
0.128308
0.128263
0.128218
0.128173
0.128128
0.128084
0.12804
0.127997
0.127954
0.127913
0.127872
0.127833
0.127795
0.12776
0.127726
0.127695
0.127665
0.127638
0.127613
0.127601
0.127601
0.127601
0.127601
0.127601
0.127601
0.127601
0.127601
0.127601
0.127601
0.127601
0.127601
0.127601
0.127601
0.127601
0.127601
0.127601
0.127601
0.127601
0.127601
0.127601
0.127601
0.127601
0.12762
0.127648
0.127679
0.127712
0.127748
0.127786
0.127826
0.127869
0.127913
0.12796
0.128008
0.128058
0.12811
0.128162
0.128216
0.12827
0.128325
0.128381
0.128436
0.128492
0.128548
0.128604
0.128659
0.128714
0.128769
0.128823
0.128876
0.128928
0.128979
0.129028
0.129076
0.129121
0.129164
0.129205
0.129243
0.129279
0.129313
0.129344
0.129373
0.1294
0.129424
0.129445
0.129465
0.129481
0.129495
0.129506
0.129515
0.129521
0.129525
0.129526
0.129526
0.129523
0.129519
0.129513
0.129505
0.129495
0.129485
0.129472
0.129459
0.129444
0.129429
0.129412
0.129395
0.129376
0.129357
0.129337
0.129317
0.129295
0.129272
0.129249
0.129225
0.1292
0.129174
0.129147
0.12912
0.129092
0.129063
0.129033
0.129003
0.128972
0.12894
0.128908
0.128875
0.128842
0.128808
0.128774
0.12874
0.128705
0.12867
0.128635
0.1286
0.128565
0.128529
0.128494
0.128458
0.128423
0.128388
0.128353
0.128318
0.128284
0.128249
0.128216
0.128182
0.128149
0.128117
0.128085
0.128055
0.128025
0.127997
0.127971
0.127946
0.127923
0.127901
0.127882
0.127863
0.127847
0.127832
0.127819
0.127807
0.127797
0.127789
0.127781
0.127776
0.127771
0.127767
0.127764
0.127762
0.127762
0.127763
0.127766
0.127771
0.127777
0.127786
0.127798
0.127811
0.127826
0.127844
0.127863
0.127884
0.127907
0.127931
0.127957
0.127985
0.128014
0.128046
0.128078
0.128113
0.128149
0.128186
0.128224
0.128262
0.128302
0.128343
0.128385
0.128428
0.128473
0.12852
0.128568
0.128618
0.128668
0.12872
0.128771
0.128823
0.128875
0.128927
0.128978
0.129028
0.129077
0.129125
0.129171
0.129216
0.129259
0.129302
0.129343
0.129383
0.129421
0.129458
0.129495
0.12953
0.129564
0.129598
0.12963
0.129663
0.129694
0.129725
0.129754
0.129782
0.129809
0.129834
0.129859
0.129886
0.129915
0.129949
0.129995
0.130059
0.130163
0.130298
0.130611
0.130551
0.129847
0.127601
0.127601
0.127601
0.127601
0.127601
0.127601
0.127601
0.127601
0.127601
0.127601
)
;

boundaryField
{
    inlet
    {
        type            calculated;
        value           uniform 0;
    }
    endWall
    {
        type            calculated;
        value           uniform 0;
    }
    sideWall
    {
        type            empty;
    }
}


// ************************************************************************* //
