/*--------------------------------*- C++ -*----------------------------------*\
| =========                 |                                                 |
| \\      /  F ield         | foam-extend: Open Source CFD                    |
|  \\    /   O peration     | Version:     3.2                                |
|   \\  /    A nd           | Web:         http://www.foam-extend.org         |
|    \\/     M anipulation  | For copyright notice see file Copyright         |
\*---------------------------------------------------------------------------*/
FoamFile
{
    version     2.0;
    format      ascii;
    class       areaScalarField;
    location    "120";
    object      totH1;
}
// * * * * * * * * * * * * * * * * * * * * * * * * * * * * * * * * * * * * * //

dimensions      [0 0 0 0 0 0 0];

internalField   nonuniform List<scalar> 
550
(
0
0
0
0
0
0
0
0
0
0
0
0
0
0
0
0
0
0
0
0
0
0
0
0
0
0
0
0
0
0
0
0
0
0
0
0
0
0
0
0
0
0
0
0
0
0
0
0
0
0
0
0
0
0
0
0
0
0
0
0
0
0
0
0
0
0
0
0
0
0
0
0
0
0
0
0
0
0
0
0
0
0
0
0
0
0
0
0
0
0
0
0
0
0
0
0
0
0
0
0
0
0
0
0
0
0
0
0
0
0
0
0
0
0
0
0
0
0
0
0
0
0
0
0
0
0
0
-7.33127e-09
-5.29816e-08
-2.00379e-09
1.20309e-06
4.32597e-06
8.41599e-06
1.26495e-05
1.69546e-05
2.12508e-05
2.55147e-05
2.97352e-05
3.39063e-05
3.80246e-05
4.2088e-05
4.60949e-05
5.00445e-05
5.39359e-05
5.77686e-05
6.15421e-05
6.52566e-05
6.8914e-05
7.25163e-05
7.60608e-05
7.9544e-05
8.29641e-05
8.63182e-05
8.96047e-05
9.28239e-05
9.59749e-05
9.90571e-05
0.000102073
0.000105025
0.000107912
0.00011073
0.000113479
0.000116161
0.000118775
0.000121324
0.000123806
0.000126223
0.000128575
0.000130864
0.000133089
0.000135252
0.000137353
0.000139394
0.000141374
0.000143294
0.000145154
0.000146956
0.000148699
0.000150384
0.00015201
0.000153579
0.00015509
0.000156546
0.000157948
0.000159294
0.000160588
0.00016183
0.000163022
0.000164164
0.000165257
0.000166305
0.000167307
0.000168265
0.000169181
0.000170056
0.000170892
0.000171689
0.00017245
0.000173176
0.000173869
0.000174534
0.000175171
0.000175782
0.000176372
0.000176942
0.000177493
0.000178024
0.00017853
0.000179014
0.000179478
0.000179924
0.00018036
0.000180788
0.000181208
0.000181618
0.000182018
0.000182412
0.000182801
0.000183186
0.000183568
0.000183949
0.000184329
0.000184714
0.000185115
0.000185546
0.00018602
0.000186536
0.000187085
0.00018766
0.000188253
0.000188859
0.000189471
0.000190087
0.000190705
0.000191322
0.00019194
0.000192557
0.000193173
0.000193788
0.000194402
0.000195013
0.000195621
0.000196225
0.000196825
0.000197421
0.000198011
0.000198596
0.000199176
0.000199751
0.000200319
0.00020088
0.000201431
0.000201973
0.000202505
0.000203028
0.00020354
0.000204041
0.000204533
0.000205014
0.000205485
0.000205946
0.000206396
0.000206834
0.000207261
0.000207676
0.00020808
0.000208472
0.000208853
0.000209224
0.000209586
0.000209936
0.000210275
0.0002106
0.000210911
0.000211207
0.000211488
0.000211752
0.000211997
0.000212223
0.000212428
0.000212615
0.000212782
0.00021293
0.00021306
0.000213173
0.000213268
0.000213344
0.000213401
0.000213438
0.000213455
0.000213452
0.00021343
0.000213392
0.000213341
0.000213274
0.00021319
0.000213091
0.000212985
0.000212881
0.000212782
0.000212683
0.000212598
0.000212546
0.000212524
0.000212512
0.00021249
0.000212449
0.000212391
0.000212324
0.000212257
0.000212204
0.00021218
0.00021219
0.000212221
0.000212259
0.000212291
0.000212308
0.000212308
0.000212292
0.00021226
0.000212214
0.000212156
0.000212089
0.000212013
0.000211928
0.000211835
0.000211736
0.00021163
0.000211519
0.000211405
0.000211289
0.000211172
0.000211054
0.000210939
0.000210829
0.000210729
0.000210646
0.000210585
0.000210553
0.000210559
0.000210613
0.000210725
0.000210885
0.000211072
0.000211271
0.000211496
0.000211771
0.000212108
0.000212499
0.00021293
0.000213397
0.000213894
0.000214405
0.000214921
0.00021544
0.000215968
0.000216503
0.000217045
0.000217596
0.000218157
0.000218727
0.000219306
0.000219892
0.000220483
0.00022108
0.000221681
0.000222287
0.000222895
0.000223504
0.000224114
0.000224723
0.00022533
0.000225936
0.000226538
0.000227135
0.000227729
0.000228317
0.000228899
0.000229473
0.00023004
0.000230598
0.000231146
0.000231683
0.000232209
0.000232723
0.000233225
0.000233714
0.000234191
0.000234654
0.000235103
0.000235538
0.000235961
0.000236371
0.000236771
0.000237161
0.000237543
0.000237918
0.000238285
0.000238646
0.000238998
0.000239344
0.000239683
0.000240015
0.000240342
0.000240661
0.000240973
0.000241278
0.000241578
0.000241873
0.000242163
0.000242447
0.000242726
0.000242999
0.000243265
0.000243523
0.000243772
0.000244013
0.000244245
0.000244468
0.000244682
0.000244886
0.000245082
0.000245269
0.000245448
0.00024562
0.000245788
0.000245955
0.000246123
0.000246291
0.000246457
0.000246619
0.00024678
0.000246947
0.000247121
0.000247293
0.000247456
0.000247611
0.000247768
0.00024793
0.000248098
0.000248275
0.000248452
0.000248616
0.000248766
0.000248908
0.000249049
0.000249194
0.000249342
0.000249493
0.000249646
0.000249797
0.000249944
0.000250089
0.000250235
0.000250385
0.000250533
0.00025067
0.000250793
0.000250906
0.00025101
0.000251105
0.000251194
0.000251275
0.000251348
0.000251414
0.000251475
0.000251534
0.000251592
0.000251654
0.00025172
0.000251791
0.000251867
0.000251951
0.000252046
0.00025215
0.000252261
0.000252379
0.000252501
0.000252628
0.000252761
0.000252909
0.000253084
0.000253292
0.000253534
0.000253817
0.000254124
0.000254426
0.000254713
0.000254988
0.000255257
0.000255525
0.000255795
0.000256069
0.000256352
0.000256646
0.000256951
0.000257268
0.000257596
0.000257935
0.000258283
0.000258639
0.000259005
0.000259379
0.000259761
0.000260146
0.000260531
0.000260913
0.000261288
0.000261655
0.000262014
0.000262368
0.000262716
0.000263061
0.000263402
0.00026374
0.000264073
0.000264404
0.000264734
0.000265067
0.000265406
0.000265758
0.000266128
0.000266524
0.000266956
0.000267439
0.000267993
0.000268654
0.000269478
0.000270549
0.000271989
0.000273963
0.000276707
0.000280574
0.000286047
0.000293763
0.00030474
0.000317205
0.000334008
0.000262921
9.0515e-05
0
0
0
0
0
0
0
0
0
0
)
;

boundaryField
{
    inlet
    {
        type            calculated;
        value           uniform 0;
    }
    endWall
    {
        type            calculated;
        value           uniform 0;
    }
    sideWall
    {
        type            empty;
    }
}


// ************************************************************************* //
