/*--------------------------------*- C++ -*----------------------------------*\
| =========                 |                                                 |
| \\      /  F ield         | foam-extend: Open Source CFD                    |
|  \\    /   O peration     | Version:     3.2                                |
|   \\  /    A nd           | Web:         http://www.foam-extend.org         |
|    \\/     M anipulation  | For copyright notice see file Copyright         |
\*---------------------------------------------------------------------------*/
FoamFile
{
    version     2.0;
    format      ascii;
    class       areaScalarField;
    location    "120";
    object      totH;
}
// * * * * * * * * * * * * * * * * * * * * * * * * * * * * * * * * * * * * * //

dimensions      [0 0 0 0 0 0 0];

internalField   nonuniform List<scalar> 
550
(
0
0
0
0
0
0
0
0
0
0
0
0
0
0
0
0
0
0
0
0
0
0
0
0
0
0
0
0
0
0
0
0
0
0
0
0
0
0
0
0
0
0
0
0
0
0
0
0
0
0
0
0
0
0
0
0
0
0
0
0
0
0
0
0
0
0
0
0
0
0
0
0
0
0
0
0
0
0
0
0
0
0
0
0
0
0
0
0
0
0
0
0
0
0
0
0
0
0
0
0
0
0
0
0
0
0
0
0
0
0
0
0
0
0
0
0
0
0
0
0
0
0
0
0
0
0
0
0
0
0
0
0
0
0
0
0
0
0
0
0
0
0
0
0
0
0
0
0
0
0
0
0
0
0
0
0
0
0
0
0
0
0
0
0
0
0
0
0
0
0
0
0
0
0
0
0
0
0
0
0
0
0
0
0
0
0
0
0
0
0
0
0
0
0
0
0
0
0
0
0
0
0
0
0
0
0
0
0
0
0
0
0
0
0
0
0
0
0
0
0
0
0
0
0
0
0
0
0
0
0
0
0
0
0
-3.59507e-10
-2.7319e-09
-3.65295e-11
1.11225e-08
6.59889e-08
2.32096e-07
5.29784e-07
9.62489e-07
1.53283e-06
2.24758e-06
3.06267e-06
3.8682e-06
4.64826e-06
5.4447e-06
6.25568e-06
7.07031e-06
7.88466e-06
8.6997e-06
9.51833e-06
1.03412e-05
1.11684e-05
1.19996e-05
1.28346e-05
1.36729e-05
1.45141e-05
1.53579e-05
1.62037e-05
1.7051e-05
1.78993e-05
1.87481e-05
1.95966e-05
2.04444e-05
2.12909e-05
2.21355e-05
2.29777e-05
2.3817e-05
2.46528e-05
2.54847e-05
2.63122e-05
2.71347e-05
2.79517e-05
2.87628e-05
2.95673e-05
3.03648e-05
3.11548e-05
3.19367e-05
3.271e-05
3.34742e-05
3.4229e-05
3.49739e-05
3.57085e-05
3.64324e-05
3.71453e-05
3.78468e-05
3.85364e-05
3.92137e-05
3.98781e-05
4.05289e-05
4.11651e-05
4.1786e-05
4.23902e-05
4.29767e-05
4.35444e-05
4.40925e-05
4.46204e-05
4.51279e-05
4.56148e-05
4.60813e-05
4.65275e-05
4.69538e-05
4.73604e-05
4.77475e-05
4.81156e-05
4.84648e-05
4.87956e-05
4.91082e-05
4.94032e-05
4.96808e-05
4.99416e-05
5.01858e-05
5.04139e-05
5.06263e-05
5.08233e-05
5.10055e-05
5.11733e-05
5.13274e-05
5.14683e-05
5.15968e-05
5.17137e-05
5.18196e-05
5.19156e-05
5.20024e-05
5.20811e-05
5.21527e-05
5.22181e-05
5.22785e-05
5.2335e-05
5.23887e-05
5.24409e-05
5.24926e-05
5.25452e-05
5.25998e-05
5.26576e-05
5.27199e-05
5.27879e-05
5.28627e-05
5.29456e-05
5.30376e-05
5.31398e-05
5.32532e-05
5.33789e-05
5.35177e-05
5.36706e-05
5.38383e-05
5.40216e-05
5.4221e-05
5.44372e-05
5.46707e-05
5.49218e-05
5.51909e-05
5.54783e-05
5.57843e-05
5.61089e-05
5.64524e-05
5.68147e-05
5.71958e-05
5.75956e-05
5.8014e-05
5.84508e-05
5.89058e-05
5.93786e-05
5.98692e-05
6.03772e-05
6.09022e-05
6.14441e-05
6.20023e-05
6.25766e-05
6.31665e-05
6.37714e-05
6.43908e-05
6.50243e-05
6.56712e-05
6.63311e-05
6.70032e-05
6.76869e-05
6.83814e-05
6.90863e-05
6.98007e-05
7.0524e-05
7.12558e-05
7.19955e-05
7.27425e-05
7.34965e-05
7.42568e-05
7.50231e-05
7.57947e-05
7.65711e-05
7.73519e-05
7.81365e-05
7.89246e-05
7.97156e-05
8.05093e-05
8.1305e-05
8.21026e-05
8.29015e-05
8.37012e-05
8.45014e-05
8.53016e-05
8.61015e-05
8.69006e-05
8.76986e-05
8.84948e-05
8.92889e-05
9.00805e-05
9.08689e-05
9.16539e-05
9.24349e-05
9.32117e-05
9.39837e-05
9.47508e-05
9.55126e-05
9.62689e-05
9.70194e-05
9.77638e-05
9.85019e-05
9.92334e-05
9.9958e-05
0.000100676
0.000101386
0.000102088
0.000102782
0.000103468
0.000104144
0.000104812
0.000105471
0.00010612
0.000106759
0.000107388
0.000108007
0.000108615
0.000109211
0.000109795
0.000110366
0.000110922
0.000111465
0.000111991
0.000112503
0.000112998
0.000113477
0.00011394
0.000114388
0.00011482
0.000115237
0.00011564
0.000116028
0.000116402
0.000116763
0.000117111
0.000117446
0.000117768
0.000118077
0.000118374
0.000118658
0.000118931
0.000119192
0.000119441
0.000119679
0.000119906
0.000120122
0.000120328
0.000120525
0.000120712
0.000120891
0.000121061
0.000121225
0.000121381
0.00012153
0.000121674
0.000121812
0.000121945
0.000122075
0.0001222
0.000122323
0.000122443
0.000122562
0.000122679
0.000122796
0.000122913
0.00012303
0.00012315
0.000123271
0.000123395
0.000123523
0.000123655
0.000123791
0.000123933
0.000124081
0.000124235
0.000124397
0.000124565
0.000124741
0.000124924
0.000125116
0.000125315
0.000125523
0.00012574
0.000125965
0.000126198
0.00012644
0.000126691
0.000126951
0.000127219
0.000127495
0.00012778
0.000128073
0.000128374
0.000128683
0.000129
0.000129325
0.000129657
0.000129999
0.000130349
0.000130708
0.000131079
0.000131462
0.000131861
0.000132279
0.000132721
0.000133198
0.000133719
0.000134304
0.000134976
0.000135775
0.000136762
0.000138026
0.000139689
0.000141931
0.000144996
0.000149245
0.000155164
0.000163453
0.000175133
0.000189708
0.000211803
0.000174905
6.18269e-05
0
0
0
0
0
0
0
0
0
0
)
;

boundaryField
{
    inlet
    {
        type            calculated;
        value           uniform 0;
    }
    endWall
    {
        type            calculated;
        value           uniform 0;
    }
    sideWall
    {
        type            empty;
    }
}


// ************************************************************************* //
