/*--------------------------------*- C++ -*----------------------------------*\
| =========                 |                                                 |
| \\      /  F ield         | foam-extend: Open Source CFD                    |
|  \\    /   O peration     | Version:     3.2                                |
|   \\  /    A nd           | Web:         http://www.foam-extend.org         |
|    \\/     M anipulation  | For copyright notice see file Copyright         |
\*---------------------------------------------------------------------------*/
FoamFile
{
    version     2.0;
    format      ascii;
    class       areaVectorField;
    location    "120";
    object      Ub2;
}
// * * * * * * * * * * * * * * * * * * * * * * * * * * * * * * * * * * * * * //

dimensions      [0 1 -1 0 0 0 0];

internalField   nonuniform List<vector> 
550
(
(0 0 0)
(0 0 0)
(0 0 0)
(0.0371534 0 -7.43069e-05)
(0.0500251 -1.44727e-23 -0.00010005)
(0.0624323 0 -0.000124865)
(0.0740805 -2.01504e-29 -0.000148161)
(0.0847095 3.94588e-29 -0.000169419)
(0.094164 -2.58307e-23 -0.000188328)
(0.102328 -2.48179e-29 -0.000204656)
(0.109187 3.14267e-29 -0.000218375)
(0.114763 0 -0.000229527)
(0.119143 -3.05339e-23 -0.000238285)
(0.122421 4.10859e-29 -0.000244843)
(0.124723 0 -0.000249447)
(0.126169 -2.79e-23 -0.000252338)
(0.126888 2.59161e-23 -0.000253776)
(0.127 -2.39404e-23 -0.000254)
(0.126622 -2.2196e-23 -0.000253244)
(0.125885 0 -0.000251771)
(0.124864 -1.90696e-23 -0.000249728)
(0.12362 1.77986e-23 -0.00024724)
(0.122207 0 -0.000244414)
(0.120673 -1.54506e-23 -0.000241345)
(0.119059 0 -0.000238118)
(0.117403 0 -0.000234805)
(0.115735 -1.19539e-23 -0.00023147)
(0.114086 0 -0.000228173)
(0.112479 0 -0.000224959)
(0.110917 0 -0.000221834)
(0.109402 -6.84396e-30 -0.000218804)
(0.107942 6.89261e-30 -0.000215883)
(0.10654 -6.88071e-30 -0.000213081)
(0.105201 -7.20941e-30 -0.000210403)
(0.103926 7.64032e-30 -0.000207852)
(0.102715 -7.95524e-30 -0.00020543)
(0.101568 0 -0.000203135)
(0.100483 0 -0.000200966)
(0.0994599 -6.21405e-24 -0.00019892)
(0.0984963 8.87415e-30 -0.000196993)
(0.0975901 -9.46817e-30 -0.00019518)
(0.0967389 0 -0.000193478)
(0.0959399 0 -0.00019188)
(0.0951902 0 -0.00019038)
(0.0944871 -9.82281e-30 -0.000188974)
(0.0938278 0 -0.000187656)
(0.0932098 0 -0.00018642)
(0.0926308 -1.07155e-29 -0.000185262)
(0.0920886 1.07735e-29 -0.000184177)
(0.0915807 -1.08102e-29 -0.000183161)
(0.091105 0 -0.00018221)
(0.0906592 0 -0.000181318)
(0.0902413 -1.06998e-29 -0.000180483)
(0.089849 1.05554e-29 -0.000179698)
(0.0894803 -1.03359e-29 -0.000178961)
(0.0891329 1.04164e-24 -0.000178266)
(0.0888051 9.28101e-25 -0.00017761)
(0.0884952 -8.47907e-25 -0.00017699)
(0.0882016 0 -0.000176403)
(0.0879229 0 -0.000175846)
(0.0876579 6.71469e-25 -0.000175316)
(0.0874054 6.42534e-25 -0.000174811)
(0.0871646 6.21138e-25 -0.000174329)
(0.0869343 0 -0.000173869)
(0.0867139 0 -0.000173428)
(0.0865024 5.76666e-25 -0.000173005)
(0.086299 8.05408e-30 -0.000172598)
(0.0861031 0 -0.000172206)
(0.085914 0 -0.000171828)
(0.0857311 0 -0.000171462)
(0.0855538 5.38512e-25 -0.000171108)
(0.0853815 5.30248e-25 -0.000170763)
(0.0852137 7.13998e-30 -0.000170427)
(0.08505 0 -0.0001701)
(0.0848899 -6.80405e-30 -0.00016978)
(0.0847331 4.78249e-25 -0.000169466)
(0.0845791 6.7051e-30 -0.000169158)
(0.0844276 0 -0.000168855)
(0.0842785 4.17366e-25 -0.000168557)
(0.0841318 -4.12418e-25 -0.000168264)
(0.0839874 5.82852e-30 -0.000167975)
(0.0838452 0 -0.00016769)
(0.0837051 0 -0.00016741)
(0.0835671 0 -0.000167134)
(0.083431 3.87632e-25 -0.000166862)
(0.0832968 0 -0.000166594)
(0.0831644 0 -0.000166329)
(0.0830337 0 -0.000166067)
(0.0829047 3.5789e-25 -0.000165809)
(0.0827773 3.54156e-25 -0.000165555)
(0.0826514 4.61249e-30 -0.000165303)
(0.0825266 -4.30932e-30 -0.000165053)
(0.0824028 3.80163e-25 -0.000164806)
(0.0822796 -4.12635e-30 -0.000164559)
(0.0821571 3.92133e-25 -0.000164314)
(0.0820354 3.89634e-30 -0.000164071)
(0.0819145 0 -0.000163829)
(0.0817943 0 -0.000163589)
(0.0816749 3.14657e-25 -0.00016335)
(0.0815564 -4.29614e-30 -0.000163113)
(0.0814388 0 -0.000162878)
(0.0813217 -2.4669e-25 -0.000162643)
(0.0812049 -3.90174e-30 -0.00016241)
(0.081088 0 -0.000162176)
(0.0809707 -3.80522e-30 -0.000161941)
(0.0808528 0 -0.000161706)
(0.0807341 2.62183e-25 -0.000161468)
(0.0806143 -2.67393e-25 -0.000161229)
(0.0804933 2.73668e-25 -0.000160987)
(0.080371 0 -0.000160742)
(0.0802473 2.87112e-25 -0.000160495)
(0.0801221 2.95208e-25 -0.000160244)
(0.0799954 -3.03452e-25 -0.000159991)
(0.0798672 -3.1e-25 -0.000159734)
(0.0797375 3.23847e-25 -0.000159475)
(0.0796064 3.37695e-25 -0.000159213)
(0.0794737 3.43801e-25 -0.000158947)
(0.0793394 3.75471e-30 -0.000158679)
(0.0792036 -3.68492e-30 -0.000158407)
(0.0790664 -3.68914e-30 -0.000158133)
(0.0789278 3.94928e-25 -0.000157856)
(0.0787878 -4.06882e-25 -0.000157576)
(0.0786466 4.18482e-25 -0.000157293)
(0.0785041 -4.30022e-25 -0.000157008)
(0.0783605 4.41117e-25 -0.000156721)
(0.0782159 4.52076e-25 -0.000156432)
(0.0780704 4.62539e-25 -0.000156141)
(0.077924 4.72516e-25 -0.000155848)
(0.077777 4.82004e-25 -0.000155554)
(0.0776294 -4.91121e-25 -0.000155259)
(0.0774813 4.99971e-25 -0.000154963)
(0.0773329 -5.08696e-25 -0.000154666)
(0.0771841 5.17302e-25 -0.000154368)
(0.077035 5.25817e-25 -0.00015407)
(0.0768858 -5.34175e-25 -0.000153772)
(0.0767364 5.4231e-25 -0.000153473)
(0.0765868 5.50268e-25 -0.000153174)
(0.0764373 0 -0.000152875)
(0.0762877 5.65422e-25 -0.000152575)
(0.0761383 5.72771e-25 -0.000152277)
(0.075989 -5.79967e-25 -0.000151978)
(0.07584 5.86948e-25 -0.00015168)
(0.0756912 -5.93665e-25 -0.000151382)
(0.0755427 6.00017e-25 -0.000151085)
(0.0753946 6.05982e-25 -0.000150789)
(0.0752469 -6.1142e-25 -0.000150494)
(0.0750997 6.16238e-25 -0.000150199)
(0.074953 6.20366e-25 -0.000149906)
(0.0748069 6.23766e-25 -0.000149614)
(0.0746614 6.26322e-25 -0.000149323)
(0.0745166 -6.2796e-25 -0.000149033)
(0.0743725 -6.2858e-25 -0.000148745)
(0.0742292 6.28057e-25 -0.000148458)
(0.0740868 6.26387e-25 -0.000148174)
(0.0739454 6.23587e-25 -0.000147891)
(0.073805 -3.29384e-30 -0.00014761)
(0.0736657 -3.28433e-30 -0.000147331)
(0.0735276 -6.09706e-25 -0.000147055)
(0.0733908 6.03805e-25 -0.000146782)
(0.0732553 -5.97461e-25 -0.000146511)
(0.0731211 -3.20286e-30 -0.000146242)
(0.0729884 -5.83892e-25 -0.000145977)
(0.0728571 -5.76443e-25 -0.000145714)
(0.0727273 5.6856e-25 -0.000145455)
(0.0725991 5.60328e-25 -0.000145198)
(0.0724725 5.51815e-25 -0.000144945)
(0.0723475 5.43098e-25 -0.000144695)
(0.0722243 -5.34279e-25 -0.000144449)
(0.0721027 5.25405e-25 -0.000144205)
(0.071983 5.16568e-25 -0.000143966)
(0.0718651 5.07738e-25 -0.00014373)
(0.071749 4.99001e-25 -0.000143498)
(0.0716348 0 -0.00014327)
(0.0715226 0 -0.000143045)
(0.0714122 2.66383e-30 -0.000142824)
(0.0713039 4.64737e-25 -0.000142608)
(0.0711974 -4.56326e-25 -0.000142395)
(0.0710929 2.54463e-30 -0.000142186)
(0.0709903 -4.39567e-25 -0.000141981)
(0.0708897 4.31183e-25 -0.000141779)
(0.070791 4.22776e-25 -0.000141582)
(0.0706942 4.14337e-25 -0.000141388)
(0.0705993 4.05917e-25 -0.000141199)
(0.0705064 3.97468e-25 -0.000141013)
(0.0704153 -3.89048e-25 -0.000140831)
(0.0703261 3.80616e-25 -0.000140652)
(0.0702388 -3.72268e-25 -0.000140478)
(0.0701534 3.63827e-25 -0.000140307)
(0.0700698 3.5545e-25 -0.00014014)
(0.069988 -3.47163e-25 -0.000139976)
(0.0699082 3.39006e-25 -0.000139816)
(0.0698302 3.31058e-25 -0.00013966)
(0.069754 0 -0.000139508)
(0.0696797 3.15425e-25 -0.000139359)
(0.0696073 3.07771e-25 -0.000139215)
(0.0695368 -3.0023e-25 -0.000139074)
(0.0694682 2.92749e-25 -0.000138936)
(0.0694014 -2.85186e-25 -0.000138803)
(0.0693365 2.77713e-25 -0.000138673)
(0.0692735 2.70328e-25 -0.000138547)
(0.0692124 -2.62822e-25 -0.000138425)
(0.0691532 2.5523e-25 -0.000138306)
(0.0690958 2.47666e-25 -0.000138192)
(0.0690403 -2.40012e-25 -0.000138081)
(0.0689866 2.32258e-25 -0.000137973)
(0.0689348 -2.24437e-25 -0.00013787)
(0.0688846 -2.16562e-25 -0.000137769)
(0.0688362 2.08628e-25 -0.000137672)
(0.0687894 2.00639e-25 -0.000137579)
(0.0687441 1.92672e-25 -0.000137488)
(0.0687003 0 -0.000137401)
(0.0686579 1.66547e-30 -0.000137316)
(0.0686167 -1.69871e-25 -0.000137233)
(0.0685768 1.62958e-25 -0.000137154)
(0.068538 -1.56431e-25 -0.000137076)
(0.0685003 0 -0.000137001)
(0.0684635 1.44719e-25 -0.000136927)
(0.0684275 -1.39664e-25 -0.000136855)
(0.0683923 1.49527e-30 -0.000136785)
(0.0683578 1.31257e-25 -0.000136716)
(0.0683238 0 -0.000136648)
(0.0682904 0 -0.000136581)
(0.0682574 1.42536e-30 -0.000136515)
(0.0682248 1.41532e-30 -0.00013645)
(0.0681924 -1.40639e-30 -0.000136385)
(0.0681603 -1.35716e-30 -0.000136321)
(0.068128 0 -0.000136256)
(0.0680952 0 -0.00013619)
(0.0680619 0 -0.000136124)
(0.0680279 0 -0.000136056)
(0.0679933 1.32384e-30 -0.000135987)
(0.067958 0 -0.000135916)
(0.0679223 -1.34429e-30 -0.000135845)
(0.0678861 0 -0.000135772)
(0.0678495 1.36271e-30 -0.000135702)
(0.0678125 -1.36092e-30 -0.00013564)
(0.0677752 0 -0.000135515)
(0.0677211 -1.80382e-25 -0.000135394)
(0.0676743 1.26055e-30 -0.000134988)
(0.0676611 -1.1301e-30 -0.000134446)
(0.0676229 1.09125e-30 -0.000133907)
(0.0675848 1.0458e-30 -0.000133291)
(0.067547 1.52253e-25 -0.000132734)
(0.0675095 0 -0.00013207)
(0.0674726 -1.14193e-30 -0.000131843)
(0.0674362 0 -0.000131997)
(0.0673995 1.53044e-25 -0.000131889)
(0.0673629 0 -0.000131733)
(0.0673262 -1.50946e-25 -0.000131638)
(0.0672896 -1.51275e-25 -0.000131562)
(0.0672527 0 -0.000131496)
(0.0672157 -1.5216e-25 -0.000131413)
(0.0671784 1.10393e-30 -0.000131325)
(0.0671408 0 -0.000131235)
(0.0671029 0 -0.000131145)
(0.0670644 0 -0.000131056)
(0.0670254 0 -0.000130966)
(0.066986 0 -0.000130878)
(0.066946 -1.58989e-25 -0.000130789)
(0.0669054 0 -0.000130702)
(0.0668644 0 -0.000130615)
(0.0668229 0 -0.000130529)
(0.0667808 0 -0.000130445)
(0.0667383 0 -0.000130361)
(0.0666953 0 -0.000130279)
(0.0666519 0 -0.000130198)
(0.066608 0 -0.000130118)
(0.0665637 0 -0.000130039)
(0.066519 -1.00689e-30 -0.000129962)
(0.0664741 0 -0.000129885)
(0.0664288 1.7803e-25 -0.00012981)
(0.0663833 0 -0.000129737)
(0.0663375 0 -0.000129665)
(0.0662916 9.623e-31 -0.000129594)
(0.0662455 0 -0.000129525)
(0.0661994 0 -0.000129457)
(0.0661533 1.88844e-25 -0.000129392)
(0.0661071 0 -0.000129328)
(0.066061 1.93057e-25 -0.000129266)
(0.0660148 0 -0.000129206)
(0.0659687 1.97214e-25 -0.000129148)
(0.0659226 0 -0.000129091)
(0.0658767 0 -0.000129036)
(0.065831 0 -0.000128983)
(0.0657855 0 -0.000128932)
(0.0657403 0 -0.000128883)
(0.0656955 0 -0.000128835)
(0.0656512 0 -0.000128791)
(0.0656074 2.02237e-25 -0.000128748)
(0.065564 0 -0.000128708)
(0.0655213 1.9985e-25 -0.000128672)
(0.0654791 -1.98071e-25 -0.00012864)
(0.0654376 0 -0.000128612)
(0.0653967 0 -0.000128589)
(0.0653565 0 -0.000128572)
(0.065317 -1.8722e-25 -0.00012856)
(0.0652783 0 -0.000128553)
(0.0652404 1.80042e-25 -0.00012855)
(0.0652032 0 -0.00012855)
(0.0651668 8.76739e-31 -0.000128552)
(0.0651311 8.5456e-31 -0.000128555)
(0.065096 0 -0.000128558)
(0.0650616 1.64213e-25 -0.000128562)
(0.0650277 -1.62051e-25 -0.000128566)
(0.0649943 -1.60244e-25 -0.00012857)
(0.0649614 0 -0.000128574)
(0.0649289 -7.61938e-31 -0.000128577)
(0.0648968 0 -0.00012858)
(0.0648651 0 -0.000128583)
(0.0648338 -7.53037e-31 -0.000128585)
(0.064803 0 -0.000128586)
(0.0647727 0 -0.000128587)
(0.0647428 0 -0.000128587)
(0.0647134 0 -0.000128586)
(0.0646844 -1.46705e-25 -0.000128586)
(0.064656 -7.37356e-31 -0.000128584)
(0.064628 1.42739e-25 -0.000128582)
(0.0646005 0 -0.00012858)
(0.0645734 0 -0.000128576)
(0.0645467 0 -0.00012857)
(0.0645205 0 -0.000128564)
(0.0644948 0 -0.000128555)
(0.0644695 1.28472e-25 -0.000128545)
(0.0644447 0 -0.000128532)
(0.0644204 0 -0.000128518)
(0.0643966 0 -0.000128501)
(0.0643732 -6.2145e-31 -0.000128481)
(0.0643503 0 -0.000128459)
(0.0643278 -1.15076e-25 -0.000128434)
(0.0643057 0 -0.000128406)
(0.0642839 0 -0.000128374)
(0.0642626 -1.11243e-25 -0.000128339)
(0.0642415 5.23226e-31 -0.000128301)
(0.0642208 1.10165e-25 -0.000128259)
(0.0642004 0 -0.000128213)
(0.0641804 0 -0.000128163)
(0.0641605 0 -0.00012811)
(0.0641409 4.60849e-31 -0.000128053)
(0.0641215 -1.11962e-25 -0.000127992)
(0.0641022 1.13232e-25 -0.000127927)
(0.064083 0 -0.000127859)
(0.0640639 0 -0.000127787)
(0.0640447 -1.18832e-25 -0.000127711)
(0.0640255 0 -0.000127631)
(0.0640061 0 -0.000127547)
(0.0639865 1.2631e-25 -0.00012746)
(0.0639665 -1.29109e-25 -0.00012737)
(0.0639461 -1.3209e-25 -0.000127276)
(0.0639252 1.35255e-25 -0.000127178)
(0.0639036 -1.38596e-25 -0.000127077)
(0.0638815 0 -0.000126973)
(0.0638585 0 -0.000126866)
(0.0638348 0 -0.000126757)
(0.0638101 0 -0.000126644)
(0.0637846 -1.55576e-25 -0.000126529)
(0.0637583 0 -0.000126411)
(0.063731 -1.61282e-25 -0.000126291)
(0.0637029 0 -0.000126169)
(0.0636739 0 -0.000126046)
(0.0636441 1.68551e-25 -0.000125921)
(0.0636136 -1.70754e-25 -0.000125796)
(0.0635822 0 -0.000125669)
(0.0635501 -7.35093e-31 -0.000125542)
(0.0635172 -7.36295e-31 -0.000125414)
(0.0634836 0 -0.000125285)
(0.0634491 0 -0.000125156)
(0.0634138 1.83421e-25 -0.000125026)
(0.0633778 -1.86029e-25 -0.000124896)
(0.063341 1.88859e-25 -0.000124765)
(0.0633034 0 -0.000124635)
(0.063265 0 -0.000124504)
(0.0632259 0 -0.000124374)
(0.0631859 -2.02609e-25 -0.000124244)
(0.0631452 0 -0.000124114)
(0.0631035 2.10773e-25 -0.000123985)
(0.063061 2.15013e-25 -0.000123855)
(0.0630176 0 -0.000123726)
(0.0629732 0 -0.000123598)
(0.0629278 -2.27951e-25 -0.00012347)
(0.0628815 8.54312e-31 -0.000123343)
(0.0628343 0 -0.000123216)
(0.0627861 0 -0.000123089)
(0.062737 0 -0.000122963)
(0.0626871 0 -0.000122837)
(0.0626364 0 -0.000122711)
(0.0625848 2.54357e-25 -0.000122586)
(0.0625325 9.90334e-31 -0.000122461)
(0.0624794 0 -0.000122335)
(0.0624257 1.01432e-30 -0.000122211)
(0.0623712 0 -0.000122087)
(0.0623162 1.03735e-30 -0.000121963)
(0.0622605 0 -0.00012184)
(0.0622044 -2.6336e-25 -0.000121718)
(0.0621477 0 -0.000121596)
(0.0620907 -2.63837e-25 -0.000121475)
(0.0620333 0 -0.000121355)
(0.0619755 0 -0.000121235)
(0.0619174 0 -0.000121116)
(0.061859 2.64433e-25 -0.000120998)
(0.0618004 -2.64462e-25 -0.000120881)
(0.0617414 -1.00853e-30 -0.000120765)
(0.0616822 0 -0.00012065)
(0.0616227 -9.89468e-31 -0.000120535)
(0.0615631 9.79534e-31 -0.000120422)
(0.0615033 -2.65231e-25 -0.00012031)
(0.0614434 2.66054e-25 -0.000120199)
(0.0613835 0 -0.00012009)
(0.0613234 9.34518e-31 -0.000119982)
(0.0612634 0 -0.000119876)
(0.0612032 -2.72168e-25 -0.00011977)
(0.061143 0 -0.000119667)
(0.0610828 2.76412e-25 -0.000119564)
(0.0610225 0 -0.000119462)
(0.060962 2.81305e-25 -0.000119361)
(0.0609015 2.84073e-25 -0.00011926)
(0.0608407 -2.87089e-25 -0.00011916)
(0.0607798 0 -0.000119061)
(0.0607187 0 -0.000118962)
(0.0606574 -9.24294e-31 -0.000118863)
(0.0605958 0 -0.000118765)
(0.0605341 0 -0.000118667)
(0.0604721 0 -0.00011857)
(0.0604099 -3.09432e-25 -0.000118473)
(0.0603475 -1.00825e-30 -0.000118378)
(0.060285 0 -0.000118282)
(0.0602224 0 -0.000118188)
(0.0601596 3.19185e-25 -0.000118094)
(0.0600968 0 -0.000118001)
(0.060034 3.21974e-25 -0.000117909)
(0.0599713 0 -0.000117818)
(0.0599086 0 -0.000117727)
(0.0598462 0 -0.000117638)
(0.059784 3.21887e-25 -0.000117551)
(0.0597222 1.17645e-30 -0.000117466)
(0.0596607 0 -0.000117385)
(0.0595998 -3.15502e-25 -0.000117306)
(0.0595393 0 -0.000117232)
(0.0594795 0 -0.000117161)
(0.0594202 3.04882e-25 -0.000117093)
(0.0593615 1.15695e-30 -0.000117028)
(0.0593036 2.96027e-25 -0.000116966)
(0.0592464 0 -0.000116905)
(0.05919 0 -0.000116846)
(0.0591345 2.81034e-25 -0.000116788)
(0.0590798 0 -0.00011673)
(0.059026 0 -0.000116674)
(0.0589732 2.65432e-25 -0.000116617)
(0.0589212 -2.60767e-25 -0.000116561)
(0.0588702 0 -0.000116506)
(0.0588199 0 -0.000116451)
(0.0587704 2.49563e-25 -0.000116396)
(0.0587216 0 -0.000116341)
(0.0586735 2.43669e-25 -0.000116288)
(0.0586261 0 -0.000116235)
(0.0585793 0 -0.000116182)
(0.0585331 0 -0.00011613)
(0.0584876 2.35055e-25 -0.000116079)
(0.0584428 -2.3367e-25 -0.000116028)
(0.0583986 7.82431e-31 -0.000115978)
(0.058355 0 -0.000115929)
(0.058312 0 -0.000115879)
(0.0582695 2.30877e-25 -0.000115829)
(0.0582274 -2.30447e-25 -0.000115779)
(0.0581856 2.2988e-25 -0.000115727)
(0.0581441 7.89895e-31 -0.000115675)
(0.0581028 0 -0.000115621)
(0.0580617 -8.17613e-31 -0.000115566)
(0.0580209 2.24649e-25 -0.00011551)
(0.0579803 -2.22342e-25 -0.000115452)
(0.0579399 -2.19575e-25 -0.000115393)
(0.0578998 2.16815e-25 -0.000115333)
(0.05786 0 -0.000115272)
(0.0578204 0 -0.000115209)
(0.0577811 2.0844e-25 -0.000115145)
(0.057742 -2.06176e-25 -0.00011508)
(0.0577032 0 -0.000115013)
(0.0576647 0 -0.000114945)
(0.0576265 0 -0.000114875)
(0.0575888 0 -0.000114805)
(0.0575514 -1.99592e-25 -0.000114733)
(0.0575144 0 -0.00011466)
(0.0574778 0 -0.000114585)
(0.0574415 0 -0.000114509)
(0.0574056 0 -0.000114432)
(0.05737 6.80924e-31 -0.000114353)
(0.0573347 0 -0.000114273)
(0.0572996 0 -0.000114191)
(0.0572646 0 -0.000114107)
(0.0572296 0 -0.000114021)
(0.0571947 -1.92188e-25 -0.000113934)
(0.0571596 -1.9119e-25 -0.000113844)
(0.0571244 -1.89394e-25 -0.000113754)
(0.057089 1.88554e-25 -0.000113661)
(0.0570533 0 -0.000113567)
(0.0570174 0 -0.000113472)
(0.0569812 0 -0.000113375)
(0.0569448 0 -0.000113277)
(0.0569081 0 -0.000113178)
(0.0568713 1.81516e-25 -0.000113079)
(0.0568345 6.43252e-31 -0.000112979)
(0.0567974 1.81039e-25 -0.000112879)
(0.0567603 0 -0.000112778)
(0.0567229 0 -0.000112677)
(0.0566853 0 -0.000112575)
(0.0566471 -5.36826e-31 -0.000112472)
(0.0566086 1.89797e-25 -0.000112369)
(0.0565691 -5.46037e-31 -0.000112265)
(0.0565291 0 -0.00011216)
(0.0564881 0 -0.000112054)
(0.0564464 0 -0.000111946)
(0.0564037 0 -0.000111837)
(0.0563604 2.15637e-25 -0.000111726)
(0.056316 0 -0.000111614)
(0.0562712 6.69325e-31 -0.000111499)
(0.0562253 0 -0.000111382)
(0.056179 0 -0.000111262)
(0.0561316 0 -0.000111137)
(0.056084 2.40344e-25 -0.000111007)
(0.0560354 0 -0.000110869)
(0.0559866 0 -0.00011072)
(0.0559369 -2.64719e-25 -0.000110556)
(0.0558867 -6.82595e-31 -0.000110368)
(0.0558352 0 -0.000110147)
(0.0557827 -3.00794e-25 -0.00010989)
(0.055728 3.26618e-25 -0.000109543)
(0.0556716 0 -0.000109139)
(0.0556113 3.9341e-25 -0.000108541)
(0.0555484 4.60507e-25 -0.000107741)
(0.055478 0 -0.000106594)
(0.0554025 6.78356e-25 -0.000105026)
(0.0553118 0 -0.000102755)
(0.0552105 0 -9.96608e-05)
(0.0550787 -3.60683e-30 -9.51472e-05)
(0.0549245 -1.89999e-24 -8.9054e-05)
(0.0547097 -2.67814e-24 -8.02512e-05)
(0.0544502 0 -6.79736e-05)
(0.0540733 6.98401e-30 -6.20947e-05)
(0.0535973 0 -2.25766e-05)
(0.0531675 -8.34355e-23 -0.000406072)
(0.051898 0 -0.000456752)
(0.0496843 0 -9.93686e-05)
(0.0472411 -4.49059e-29 -9.44823e-05)
(0.0435393 5.02626e-29 -8.70787e-05)
(0.0383472 0 -7.66945e-05)
(0.0308411 0 -6.16822e-05)
(0 0 0)
(0 0 0)
(0 0 0)
(0 0 0)
(0 0 0)
)
;

boundaryField
{
    inlet
    {
        type            calculated;
        value           uniform (0 0 0);
    }
    endWall
    {
        type            calculated;
        value           uniform (0 0 0);
    }
    sideWall
    {
        type            empty;
    }
}


// ************************************************************************* //
