/*--------------------------------*- C++ -*----------------------------------*\
| =========                 |                                                 |
| \\      /  F ield         | foam-extend: Open Source CFD                    |
|  \\    /   O peration     | Version:     3.2                                |
|   \\  /    A nd           | Web:         http://www.foam-extend.org         |
|    \\/     M anipulation  | For copyright notice see file Copyright         |
\*---------------------------------------------------------------------------*/
FoamFile
{
    version     2.0;
    format      ascii;
    class       areaVectorField;
    location    "120";
    object      Utau;
}
// * * * * * * * * * * * * * * * * * * * * * * * * * * * * * * * * * * * * * //

dimensions      [0 1 -1 0 0 0 0];

internalField   nonuniform List<vector> 
550
(
(0.0700386 0 -0.000140077)
(0.0822734 0 -0.000164547)
(0.0950277 -7.18908e-30 -0.000190055)
(0.108013 0 -0.000216027)
(0.120885 -3.4973e-23 -0.00024177)
(0.133292 0 -0.000266584)
(0.14494 -3.94248e-29 -0.000289881)
(0.155569 7.24662e-29 -0.000311139)
(0.165024 -4.52686e-23 -0.000330048)
(0.173188 -4.20038e-29 -0.000346376)
(0.180047 5.18219e-29 -0.000360095)
(0.185623 0 -0.000371247)
(0.190003 -4.8694e-23 -0.000380005)
(0.193281 6.48672e-29 -0.000386563)
(0.195584 0 -0.000391167)
(0.197029 -4.35695e-23 -0.000394058)
(0.197748 4.03888e-23 -0.000395496)
(0.19786 -3.7298e-23 -0.000395721)
(0.197482 -3.46173e-23 -0.000394965)
(0.196746 0 -0.000393491)
(0.195724 -2.98916e-23 -0.000391449)
(0.19448 2.80009e-23 -0.000388961)
(0.193068 0 -0.000386135)
(0.191533 -2.45233e-23 -0.000383066)
(0.189919 0 -0.000379838)
(0.188263 0 -0.000376526)
(0.186595 -1.92728e-23 -0.000373191)
(0.184947 0 -0.000369893)
(0.18334 0 -0.00036668)
(0.181777 0 -0.000363554)
(0.180262 -1.12768e-29 -0.000360525)
(0.178802 1.14174e-29 -0.000357604)
(0.177401 -1.14571e-29 -0.000354801)
(0.176062 -1.20654e-29 -0.000352124)
(0.174786 1.28498e-29 -0.000349573)
(0.173575 -1.34434e-29 -0.000347151)
(0.172428 0 -0.000344856)
(0.171343 0 -0.000342687)
(0.17032 -1.06413e-23 -0.000340641)
(0.169357 1.52584e-29 -0.000338713)
(0.16845 -1.6343e-29 -0.000336901)
(0.167599 0 -0.000335198)
(0.1668 0 -0.0003336)
(0.166051 0 -0.000332101)
(0.165347 -1.71894e-29 -0.000330695)
(0.164688 0 -0.000329376)
(0.16407 0 -0.00032814)
(0.163491 -1.89127e-29 -0.000326982)
(0.162949 1.90634e-29 -0.000325898)
(0.162441 -1.91746e-29 -0.000324882)
(0.161965 0 -0.000323931)
(0.16152 0 -0.000323039)
(0.161102 -1.91016e-29 -0.000322203)
(0.160709 1.888e-29 -0.000321419)
(0.160341 -1.85209e-29 -0.000320681)
(0.159993 1.86974e-24 -0.000319987)
(0.159665 1.66866e-24 -0.000319331)
(0.159356 -1.52685e-24 -0.000318711)
(0.159062 0 -0.000318124)
(0.158783 0 -0.000317567)
(0.158518 1.21427e-24 -0.000317037)
(0.158266 1.16344e-24 -0.000316532)
(0.158025 1.12609e-24 -0.00031605)
(0.157795 0 -0.000315589)
(0.157574 0 -0.000315148)
(0.157363 1.04906e-24 -0.000314725)
(0.157159 1.46673e-29 -0.000314319)
(0.156963 0 -0.000313927)
(0.156774 0 -0.000313549)
(0.156591 0 -0.000313183)
(0.156414 9.84537e-25 -0.000312828)
(0.156242 9.70316e-25 -0.000312484)
(0.156074 1.30773e-29 -0.000312148)
(0.15591 0 -0.000311821)
(0.15575 -1.24836e-29 -0.000311501)
(0.155593 8.78197e-25 -0.000311187)
(0.155439 1.23226e-29 -0.000310879)
(0.155288 0 -0.000310576)
(0.155139 7.68282e-25 -0.000310278)
(0.154992 -7.59779e-25 -0.000309984)
(0.154848 1.07461e-29 -0.000309695)
(0.154706 0 -0.000309411)
(0.154566 0 -0.000309131)
(0.154427 0 -0.000308855)
(0.154291 7.16859e-25 -0.000308583)
(0.154157 0 -0.000308314)
(0.154025 0 -0.00030805)
(0.153894 0 -0.000307788)
(0.153765 6.63785e-25 -0.00030753)
(0.153638 6.57327e-25 -0.000307275)
(0.153512 8.56697e-30 -0.000307023)
(0.153387 -8.00947e-30 -0.000306774)
(0.153263 7.07076e-25 -0.000306526)
(0.15314 -7.68002e-30 -0.00030628)
(0.153017 7.30347e-25 -0.000306035)
(0.152896 7.26191e-30 -0.000305792)
(0.152775 0 -0.00030555)
(0.152655 0 -0.000305309)
(0.152535 5.87649e-25 -0.000305071)
(0.152417 -8.02883e-30 -0.000304834)
(0.152299 0 -0.000304598)
(0.152182 -4.61646e-25 -0.000304364)
(0.152065 -7.30645e-30 -0.000304131)
(0.151948 0 -0.000303897)
(0.151831 -7.1353e-30 -0.000303662)
(0.151713 0 -0.000303426)
(0.151594 4.92301e-25 -0.000303189)
(0.151475 -5.02432e-25 -0.000302949)
(0.151354 5.14585e-25 -0.000302707)
(0.151231 0 -0.000302463)
(0.151108 5.4064e-25 -0.000302215)
(0.150982 5.56292e-25 -0.000301965)
(0.150856 -5.72252e-25 -0.000301712)
(0.150728 -5.85042e-25 -0.000301455)
(0.150598 6.11641e-25 -0.000301196)
(0.150467 6.38289e-25 -0.000300934)
(0.150334 6.50341e-25 -0.000300668)
(0.1502 7.10815e-30 -0.0003004)
(0.150064 -6.98167e-30 -0.000300128)
(0.149927 -6.99541e-30 -0.000299854)
(0.149788 7.49489e-25 -0.000299576)
(0.149648 -7.72824e-25 -0.000299296)
(0.149507 7.95533e-25 -0.000299014)
(0.149365 -8.18174e-25 -0.000298729)
(0.149221 8.40013e-25 -0.000298442)
(0.149076 8.61638e-25 -0.000298153)
(0.148931 8.82361e-25 -0.000297862)
(0.148784 9.02199e-25 -0.000297569)
(0.148637 9.21145e-25 -0.000297275)
(0.14849 -9.39419e-25 -0.00029698)
(0.148342 9.57219e-25 -0.000296683)
(0.148193 -9.74816e-25 -0.000296387)
(0.148045 9.92221e-25 -0.000296089)
(0.147895 1.00949e-24 -0.000295791)
(0.147746 -1.02649e-24 -0.000295492)
(0.147597 1.04309e-24 -0.000295193)
(0.147447 1.05939e-24 -0.000294894)
(0.147298 0 -0.000294595)
(0.147148 1.09062e-24 -0.000294296)
(0.146999 1.10584e-24 -0.000293997)
(0.146849 -1.12079e-24 -0.000293699)
(0.1467 1.13536e-24 -0.000293401)
(0.146552 -1.14944e-24 -0.000293103)
(0.146403 1.16284e-24 -0.000292806)
(0.146255 1.17552e-24 -0.00029251)
(0.146107 -1.1872e-24 -0.000292215)
(0.14596 1.19769e-24 -0.00029192)
(0.145813 1.20686e-24 -0.000291627)
(0.145667 1.21462e-24 -0.000291334)
(0.145522 1.22076e-24 -0.000291043)
(0.145377 -1.22511e-24 -0.000290754)
(0.145233 -1.22748e-24 -0.000290466)
(0.14509 1.22761e-24 -0.000290179)
(0.144947 1.22549e-24 -0.000289894)
(0.144806 1.22116e-24 -0.000289611)
(0.144665 -6.45626e-30 -0.000289331)
(0.144526 -6.44359e-30 -0.000289052)
(0.144388 -1.19729e-24 -0.000288776)
(0.144251 1.18679e-24 -0.000288502)
(0.144116 -1.17539e-24 -0.000288231)
(0.143981 -6.30668e-30 -0.000287963)
(0.143849 -1.15076e-24 -0.000287697)
(0.143717 -1.13709e-24 -0.000287435)
(0.143588 1.12252e-24 -0.000287175)
(0.143459 1.10723e-24 -0.000286919)
(0.143333 1.09135e-24 -0.000286666)
(0.143208 1.07503e-24 -0.000286416)
(0.143085 -1.05847e-24 -0.000286169)
(0.142963 1.04176e-24 -0.000285926)
(0.142843 1.02508e-24 -0.000285687)
(0.142725 1.00838e-24 -0.000285451)
(0.142609 9.91822e-25 -0.000285219)
(0.142495 0 -0.00028499)
(0.142383 0 -0.000284766)
(0.142273 5.30707e-30 -0.000284545)
(0.142164 9.26584e-25 -0.000284328)
(0.142058 -9.10491e-25 -0.000284115)
(0.141953 5.08093e-30 -0.000283906)
(0.141851 -8.78328e-25 -0.000283701)
(0.14175 8.62187e-25 -0.0002835)
(0.141651 8.45966e-25 -0.000283303)
(0.141555 8.29648e-25 -0.000283109)
(0.14146 8.13334e-25 -0.000282919)
(0.141367 7.96932e-25 -0.000282733)
(0.141276 -7.80555e-25 -0.000282551)
(0.141186 7.64124e-25 -0.000282373)
(0.141099 -7.47829e-25 -0.000282198)
(0.141014 7.3132e-25 -0.000282027)
(0.14093 7.1491e-25 -0.00028186)
(0.140848 -6.98653e-25 -0.000281697)
(0.140769 6.82629e-25 -0.000281537)
(0.140691 6.67e-25 -0.000281381)
(0.140614 0 -0.000281229)
(0.14054 6.36194e-25 -0.00028108)
(0.140468 6.21082e-25 -0.000280935)
(0.140397 -6.06174e-25 -0.000280794)
(0.140329 5.91366e-25 -0.000280657)
(0.140262 -5.76367e-25 -0.000280524)
(0.140197 5.6153e-25 -0.000280394)
(0.140134 5.46848e-25 -0.000280268)
(0.140073 -5.31902e-25 -0.000280146)
(0.140014 5.16761e-25 -0.000280027)
(0.139956 5.01657e-25 -0.000279912)
(0.139901 -4.8635e-25 -0.000279801)
(0.139847 4.70824e-25 -0.000279694)
(0.139795 -4.55144e-25 -0.00027959)
(0.139745 -4.39336e-25 -0.00027949)
(0.139697 4.23391e-25 -0.000279393)
(0.13965 4.07319e-25 -0.0002793)
(0.139605 3.91275e-25 -0.000279209)
(0.139561 0 -0.000279121)
(0.139518 3.38436e-30 -0.000279037)
(0.139477 -3.45297e-25 -0.000278954)
(0.139437 3.31342e-25 -0.000278874)
(0.139398 -3.18163e-25 -0.000278797)
(0.139361 0 -0.000278721)
(0.139324 2.94504e-25 -0.000278648)
(0.139288 -2.84293e-25 -0.000278576)
(0.139253 3.04451e-30 -0.000278505)
(0.139218 2.6732e-25 -0.000278436)
(0.139184 0 -0.000278368)
(0.139151 0 -0.000278302)
(0.139118 2.90508e-30 -0.000278236)
(0.139085 2.88532e-30 -0.00027817)
(0.139053 -2.86781e-30 -0.000278106)
(0.139021 -2.76808e-30 -0.000278041)
(0.138988 0 -0.000277977)
(0.138956 0 -0.000277911)
(0.138922 0 -0.000277845)
(0.138888 0 -0.000277777)
(0.138854 2.70351e-30 -0.000277707)
(0.138818 0 -0.000277637)
(0.138783 -2.74674e-30 -0.000277565)
(0.138746 0 -0.000277493)
(0.13871 2.78589e-30 -0.000277425)
(0.138673 -2.783e-30 -0.000277376)
(0.138635 0 -0.000277199)
(0.138598 -3.69169e-25 -0.000277097)
(0.13856 2.58091e-30 -0.000276382)
(0.138522 -2.31364e-30 -0.000275251)
(0.138484 2.23475e-30 -0.000274227)
(0.138447 2.14231e-30 -0.000273045)
(0.138409 3.11979e-25 -0.000271982)
(0.138372 0 -0.0002707)
(0.138335 -2.34124e-30 -0.00027031)
(0.138299 0 -0.000270702)
(0.138262 3.13952e-25 -0.000270555)
(0.138226 0 -0.000270309)
(0.138189 -3.09821e-25 -0.00027019)
(0.138152 -3.10583e-25 -0.00027011)
(0.138115 0 -0.000270051)
(0.138078 -3.12575e-25 -0.000269956)
(0.138041 2.26841e-30 -0.000269851)
(0.138004 0 -0.000269745)
(0.137966 0 -0.000269639)
(0.137927 0 -0.000269534)
(0.137888 0 -0.000269431)
(0.137849 0 -0.00026933)
(0.137809 -3.2728e-25 -0.000269231)
(0.137768 0 -0.000269135)
(0.137727 0 -0.000269041)
(0.137686 0 -0.00026895)
(0.137644 0 -0.000268863)
(0.137601 0 -0.000268779)
(0.137558 0 -0.000268698)
(0.137515 0 -0.000268621)
(0.137471 0 -0.000268548)
(0.137427 0 -0.000268477)
(0.137382 -2.07953e-30 -0.00026841)
(0.137337 0 -0.000268347)
(0.137292 3.67943e-25 -0.000268286)
(0.137246 0 -0.000268229)
(0.1372 0 -0.000268175)
(0.137155 1.99096e-30 -0.000268124)
(0.137109 0 -0.000268077)
(0.137062 0 -0.000268034)
(0.137016 3.91132e-25 -0.000267995)
(0.13697 0 -0.00026796)
(0.136924 4.00147e-25 -0.000267928)
(0.136878 0 -0.000267901)
(0.136832 4.0906e-25 -0.000267877)
(0.136786 0 -0.000267856)
(0.13674 0 -0.000267839)
(0.136694 0 -0.000267825)
(0.136648 0 -0.000267815)
(0.136603 0 -0.000267808)
(0.136558 0 -0.000267804)
(0.136514 0 -0.000267805)
(0.13647 4.20673e-25 -0.000267809)
(0.136427 0 -0.000267819)
(0.136384 4.15992e-25 -0.000267834)
(0.136342 -4.12427e-25 -0.000267856)
(0.1363 0 -0.000267886)
(0.136259 0 -0.000267926)
(0.136219 0 -0.000267975)
(0.136179 -3.90334e-25 -0.000268034)
(0.136141 0 -0.000268103)
(0.136103 3.75598e-25 -0.000268177)
(0.136065 0 -0.000268256)
(0.136029 1.8301e-30 -0.000268338)
(0.135993 1.78431e-30 -0.000268421)
(0.135958 0 -0.000268504)
(0.135923 3.43066e-25 -0.000268586)
(0.13589 -3.38641e-25 -0.000268667)
(0.135856 -3.34953e-25 -0.000268747)
(0.135823 0 -0.000268826)
(0.135791 -1.5935e-30 -0.000268903)
(0.135758 0 -0.000268979)
(0.135727 0 -0.000269052)
(0.135695 -1.57608e-30 -0.000269124)
(0.135664 0 -0.000269193)
(0.135634 0 -0.000269261)
(0.135604 0 -0.000269326)
(0.135575 0 -0.000269389)
(0.135546 -3.0742e-25 -0.00026945)
(0.135517 -1.54548e-30 -0.000269509)
(0.135489 2.99245e-25 -0.000269566)
(0.135462 0 -0.00026962)
(0.135434 0 -0.000269671)
(0.135408 0 -0.000269718)
(0.135382 0 -0.000269761)
(0.135356 0 -0.0002698)
(0.13533 2.69681e-25 -0.000269833)
(0.135306 0 -0.000269861)
(0.135281 0 -0.000269884)
(0.135257 0 -0.000269901)
(0.135234 -1.30553e-30 -0.000269911)
(0.135211 0 -0.000269915)
(0.135189 -2.41839e-25 -0.000269911)
(0.135166 0 -0.0002699)
(0.135145 0 -0.000269882)
(0.135123 -2.33909e-25 -0.000269855)
(0.135102 1.10036e-30 -0.000269821)
(0.135082 2.3172e-25 -0.000269778)
(0.135061 0 -0.000269727)
(0.135041 0 -0.000269667)
(0.135021 0 -0.000269599)
(0.135002 9.6998e-31 -0.000269522)
(0.134982 -2.35691e-25 -0.000269437)
(0.134963 2.38402e-25 -0.000269343)
(0.134944 0 -0.000269241)
(0.134925 0 -0.000269131)
(0.134906 -2.50311e-25 -0.000269013)
(0.134886 0 -0.000268888)
(0.134867 0 -0.000268755)
(0.134847 2.6619e-25 -0.000268615)
(0.134827 -2.72135e-25 -0.000268468)
(0.134807 -2.78463e-25 -0.000268314)
(0.134786 2.85184e-25 -0.000268155)
(0.134765 -2.92282e-25 -0.00026799)
(0.134743 0 -0.00026782)
(0.13472 0 -0.000267645)
(0.134696 0 -0.000267466)
(0.134671 0 -0.000267282)
(0.134646 -3.28413e-25 -0.000267095)
(0.13462 0 -0.000266905)
(0.134592 -3.40609e-25 -0.000266712)
(0.134564 0 -0.000266517)
(0.134535 0 -0.00026632)
(0.134506 3.56215e-25 -0.000266122)
(0.134475 -3.60963e-25 -0.000265924)
(0.134444 0 -0.000265725)
(0.134412 -1.55476e-30 -0.000265527)
(0.134379 -1.55773e-30 -0.000265329)
(0.134345 0 -0.000265131)
(0.134311 0 -0.000264933)
(0.134276 3.88384e-25 -0.000264736)
(0.13424 -3.94026e-25 -0.00026454)
(0.134203 4.00144e-25 -0.000264345)
(0.134165 0 -0.000264151)
(0.134127 0 -0.000263959)
(0.134088 0 -0.000263769)
(0.134048 -4.29832e-25 -0.000263582)
(0.134007 0 -0.000263396)
(0.133966 4.47461e-25 -0.000263213)
(0.133923 4.56626e-25 -0.000263032)
(0.13388 0 -0.000262854)
(0.133835 0 -0.00026268)
(0.13379 -4.84645e-25 -0.000262508)
(0.133744 1.81705e-30 -0.000262339)
(0.133697 0 -0.000262174)
(0.133648 0 -0.000262012)
(0.133599 0 -0.000261851)
(0.133549 0 -0.000261694)
(0.133499 0 -0.000261539)
(0.133447 5.42356e-25 -0.000261385)
(0.133395 2.11259e-30 -0.000261234)
(0.133342 0 -0.000261085)
(0.133288 2.16572e-30 -0.000260938)
(0.133234 0 -0.000260794)
(0.133179 2.21697e-30 -0.000260653)
(0.133123 0 -0.000260514)
(0.133067 -5.63376e-25 -0.000260378)
(0.13301 0 -0.000260244)
(0.132953 -5.64947e-25 -0.000260112)
(0.132896 0 -0.000259982)
(0.132838 0 -0.000259855)
(0.13278 0 -0.00025973)
(0.132722 5.67355e-25 -0.000259608)
(0.132663 -5.67705e-25 -0.000259488)
(0.132604 -2.16606e-30 -0.000259371)
(0.132545 0 -0.000259257)
(0.132485 -2.1273e-30 -0.000259144)
(0.132426 2.10703e-30 -0.000259035)
(0.132366 -5.70824e-25 -0.000258928)
(0.132306 5.72894e-25 -0.000258825)
(0.132246 0 -0.000258725)
(0.132186 2.01441e-30 -0.000258628)
(0.132126 0 -0.000258534)
(0.132066 -5.8729e-25 -0.000258443)
(0.132006 0 -0.000258356)
(0.131945 5.97079e-25 -0.00025827)
(0.131885 0 -0.000258187)
(0.131825 6.08295e-25 -0.000258106)
(0.131764 6.1461e-25 -0.000258027)
(0.131703 -6.21468e-25 -0.000257949)
(0.131642 0 -0.000257873)
(0.131581 0 -0.000257798)
(0.13152 -2.00409e-30 -0.000257724)
(0.131458 0 -0.000257652)
(0.131397 0 -0.000257582)
(0.131335 0 -0.000257513)
(0.131272 -6.72405e-25 -0.000257446)
(0.13121 -2.19218e-30 -0.000257381)
(0.131147 0 -0.000257318)
(0.131085 0 -0.000257257)
(0.131022 6.95154e-25 -0.000257198)
(0.130959 0 -0.000257141)
(0.130896 7.02023e-25 -0.000257085)
(0.130833 0 -0.000257031)
(0.130771 0 -0.000256979)
(0.130708 0 -0.00025693)
(0.130646 7.03421e-25 -0.000256885)
(0.130584 2.57234e-30 -0.000256844)
(0.130523 0 -0.000256809)
(0.130462 -6.90622e-25 -0.00025678)
(0.130401 0 -0.000256758)
(0.130341 0 -0.000256742)
(0.130282 6.6847e-25 -0.000256733)
(0.130223 2.53804e-30 -0.000256729)
(0.130165 6.4975e-25 -0.000256729)
(0.130108 0 -0.00025673)
(0.130052 0 -0.000256733)
(0.129996 6.178e-25 -0.000256737)
(0.129941 0 -0.000256739)
(0.129888 0 -0.000256742)
(0.129835 5.84371e-25 -0.000256744)
(0.129783 -5.74378e-25 -0.000256743)
(0.129732 0 -0.000256742)
(0.129681 0 -0.000256741)
(0.129632 5.50468e-25 -0.000256738)
(0.129583 0 -0.000256734)
(0.129535 5.37953e-25 -0.00025673)
(0.129487 0 -0.000256727)
(0.12944 0 -0.000256723)
(0.129394 0 -0.000256719)
(0.129349 5.19838e-25 -0.000256716)
(0.129304 -5.16992e-25 -0.000256711)
(0.12926 1.73183e-30 -0.000256707)
(0.129216 0 -0.000256702)
(0.129173 0 -0.000256695)
(0.12913 5.11644e-25 -0.000256687)
(0.129088 -5.10895e-25 -0.000256677)
(0.129046 5.09837e-25 -0.000256665)
(0.129005 1.75255e-30 -0.000256649)
(0.128964 0 -0.00025663)
(0.128922 -1.81546e-30 -0.000256607)
(0.128882 4.99011e-25 -0.000256582)
(0.128841 -4.94078e-25 -0.000256552)
(0.128801 -4.88116e-25 -0.00025652)
(0.12876 4.82165e-25 -0.000256484)
(0.128721 0 -0.000256444)
(0.128681 0 -0.000256402)
(0.128642 4.64064e-25 -0.000256355)
(0.128603 -4.59194e-25 -0.000256305)
(0.128564 0 -0.000256251)
(0.128525 0 -0.000256194)
(0.128487 0 -0.000256132)
(0.128449 0 -0.000256067)
(0.128412 -4.45341e-25 -0.000255998)
(0.128375 0 -0.000255926)
(0.128338 0 -0.00025585)
(0.128302 0 -0.000255769)
(0.128266 0 -0.000255685)
(0.128231 1.52197e-30 -0.000255597)
(0.128195 0 -0.000255504)
(0.12816 0 -0.000255407)
(0.128125 0 -0.000255306)
(0.12809 0 -0.0002552)
(0.128055 -4.30297e-25 -0.00025509)
(0.12802 -4.28208e-25 -0.000254977)
(0.127985 -4.24331e-25 -0.000254861)
(0.12795 4.22595e-25 -0.000254741)
(0.127914 0 -0.000254618)
(0.127878 0 -0.000254493)
(0.127842 0 -0.000254366)
(0.127806 0 -0.000254237)
(0.127769 0 -0.000254106)
(0.127732 4.07683e-25 -0.000253974)
(0.127695 1.44526e-30 -0.000253841)
(0.127658 4.06904e-25 -0.000253708)
(0.127621 0 -0.000253573)
(0.127584 0 -0.000253438)
(0.127546 0 -0.000253302)
(0.127508 -1.20835e-30 -0.000253167)
(0.12747 4.27381e-25 -0.00025303)
(0.12743 -1.23003e-30 -0.000252894)
(0.12739 0 -0.000252756)
(0.127349 0 -0.000252619)
(0.127308 0 -0.00025248)
(0.127265 0 -0.00025234)
(0.127222 4.86755e-25 -0.000252199)
(0.127177 0 -0.000252056)
(0.127133 1.51219e-30 -0.000251909)
(0.127087 0 -0.000251759)
(0.12704 0 -0.000251602)
(0.126993 0 -0.000251439)
(0.126945 5.44016e-25 -0.000251262)
(0.126897 0 -0.000251072)
(0.126848 0 -0.000250856)
(0.126799 -6.0007e-25 -0.000250609)
(0.126749 -1.54809e-30 -0.000250309)
(0.126697 0 -0.000249937)
(0.126645 -6.82899e-25 -0.000249486)
(0.12659 7.41937e-25 -0.000248835)
(0.126534 0 -0.000248058)
(0.126474 8.94713e-25 -0.00024685)
(0.126412 1.04798e-24 -0.000245188)
(0.126343 0 -0.000242752)
(0.126269 1.54605e-24 -0.000239365)
(0.12618 0 -0.000234409)
(0.126082 0 -0.000227591)
(0.125954 -8.24811e-30 -0.000217583)
(0.125806 -4.35198e-24 -0.00020398)
(0.125599 -6.14833e-24 -0.000184236)
(0.125352 0 -0.000156484)
(0.12498 1.61422e-29 -0.00014352)
(0.124544 0 -5.24613e-05)
(0.123715 -1.94145e-22 -0.000944887)
(0.12238 0 -0.00107706)
(0.120543 0 -0.000241086)
(0.118097 -1.12259e-28 -0.000236195)
(0.114389 1.32053e-28 -0.000228779)
(0.10919 0 -0.00021838)
(0.101661 0 -0.000203323)
(0.0906522 5.20973e-22 -0.000181304)
(0.0705287 0 -0.000141057)
(0.0180319 0 -3.60639e-05)
(-0.0563149 0 0.00011263)
(-0.0728932 0 0.000145786)
)
;

boundaryField
{
    inlet
    {
        type            calculated;
        value           uniform (0 0 0);
    }
    endWall
    {
        type            calculated;
        value           uniform (0 0 0);
    }
    sideWall
    {
        type            empty;
    }
}


// ************************************************************************* //
