/*--------------------------------*- C++ -*----------------------------------*\
| =========                 |                                                 |
| \\      /  F ield         | foam-extend: Open Source CFD                    |
|  \\    /   O peration     | Version:     3.2                                |
|   \\  /    A nd           | Web:         http://www.foam-extend.org         |
|    \\/     M anipulation  | For copyright notice see file Copyright         |
\*---------------------------------------------------------------------------*/
FoamFile
{
    version     2.0;
    format      ascii;
    class       areaVectorField;
    location    "120";
    object      Wt;
}
// * * * * * * * * * * * * * * * * * * * * * * * * * * * * * * * * * * * * * //

dimensions      [1 1 -2 0 0 0 0];

internalField   nonuniform List<vector> 
550
(
(5.45265e-10 0 -1.09053e-12)
(5.45265e-10 0 -1.09053e-12)
(5.45265e-10 0 -1.09053e-12)
(5.45265e-10 0 -1.09053e-12)
(5.45265e-10 1.98454e-26 -1.09053e-12)
(5.45265e-10 0 -1.09053e-12)
(5.45265e-10 0 -1.09053e-12)
(5.45265e-10 0 -1.09053e-12)
(5.45265e-10 1.98454e-26 -1.09053e-12)
(5.45265e-10 0 -1.09053e-12)
(5.45265e-10 0 -1.09053e-12)
(5.45265e-10 0 -1.09053e-12)
(5.45265e-10 1.98454e-26 -1.09053e-12)
(5.45265e-10 0 -1.09053e-12)
(5.45265e-10 0 -1.09053e-12)
(5.45265e-10 1.98454e-26 -1.09053e-12)
(5.45265e-10 -1.98454e-26 -1.09053e-12)
(5.45265e-10 1.98454e-26 -1.09053e-12)
(5.45265e-10 1.98454e-26 -1.09053e-12)
(5.45265e-10 0 -1.09053e-12)
(5.45265e-10 1.98454e-26 -1.09053e-12)
(5.45265e-10 -1.98454e-26 -1.09053e-12)
(5.45265e-10 0 -1.09053e-12)
(5.45265e-10 1.98454e-26 -1.09053e-12)
(5.45265e-10 0 -1.09053e-12)
(5.45265e-10 0 -1.09053e-12)
(5.45265e-10 1.98454e-26 -1.09053e-12)
(5.45265e-10 0 -1.09053e-12)
(5.45265e-10 0 -1.09053e-12)
(5.45265e-10 0 -1.09053e-12)
(5.45265e-10 0 -1.09053e-12)
(5.45265e-10 0 -1.09053e-12)
(5.45265e-10 0 -1.09053e-12)
(5.45265e-10 0 -1.09053e-12)
(5.45265e-10 0 -1.09053e-12)
(5.45265e-10 0 -1.09053e-12)
(5.45265e-10 0 -1.09053e-12)
(5.45265e-10 0 -1.09053e-12)
(5.45265e-10 1.98454e-26 -1.09053e-12)
(5.45265e-10 0 -1.09053e-12)
(5.45265e-10 0 -1.09053e-12)
(5.45265e-10 0 -1.09053e-12)
(5.45265e-10 0 -1.09053e-12)
(5.45265e-10 0 -1.09053e-12)
(5.45265e-10 0 -1.09053e-12)
(5.45265e-10 0 -1.09053e-12)
(5.45265e-10 0 -1.09053e-12)
(5.45265e-10 0 -1.09053e-12)
(5.45265e-10 0 -1.09053e-12)
(5.45265e-10 0 -1.09053e-12)
(5.45265e-10 0 -1.09053e-12)
(5.45265e-10 0 -1.09053e-12)
(5.45265e-10 0 -1.09053e-12)
(5.45265e-10 0 -1.09053e-12)
(5.45265e-10 0 -1.09053e-12)
(5.45265e-10 -1.98454e-26 -1.09053e-12)
(5.45265e-10 -1.98454e-26 -1.09053e-12)
(5.45265e-10 1.98454e-26 -1.09053e-12)
(5.45265e-10 0 -1.09053e-12)
(5.45265e-10 0 -1.09053e-12)
(5.45265e-10 -1.98454e-26 -1.09053e-12)
(5.45265e-10 -1.98454e-26 -1.09053e-12)
(5.45265e-10 -1.98454e-26 -1.09053e-12)
(5.45265e-10 0 -1.09053e-12)
(5.45265e-10 0 -1.09053e-12)
(5.45265e-10 -1.98454e-26 -1.09053e-12)
(5.45265e-10 0 -1.09053e-12)
(5.45265e-10 0 -1.09053e-12)
(5.45265e-10 0 -1.09053e-12)
(5.45265e-10 0 -1.09053e-12)
(5.45265e-10 -1.98454e-26 -1.09053e-12)
(5.45265e-10 -1.98454e-26 -1.09053e-12)
(5.45265e-10 0 -1.09053e-12)
(5.45265e-10 0 -1.09053e-12)
(5.45265e-10 0 -1.09053e-12)
(5.45265e-10 -1.98454e-26 -1.09053e-12)
(5.45265e-10 0 -1.09053e-12)
(5.45265e-10 0 -1.09053e-12)
(5.45265e-10 -1.98454e-26 -1.09053e-12)
(5.45265e-10 1.98454e-26 -1.09053e-12)
(5.45265e-10 0 -1.09053e-12)
(5.45265e-10 0 -1.09053e-12)
(5.45265e-10 0 -1.09053e-12)
(5.45265e-10 0 -1.09053e-12)
(5.45265e-10 -1.98454e-26 -1.09053e-12)
(5.45265e-10 0 -1.09053e-12)
(5.45265e-10 0 -1.09053e-12)
(5.45265e-10 0 -1.09053e-12)
(5.45265e-10 -1.98454e-26 -1.09053e-12)
(5.45265e-10 -1.98454e-26 -1.09053e-12)
(5.45265e-10 0 -1.09053e-12)
(5.45265e-10 0 -1.09053e-12)
(5.45265e-10 -1.98454e-26 -1.09053e-12)
(5.45265e-10 0 -1.09053e-12)
(5.45265e-10 -1.98454e-26 -1.09053e-12)
(5.45265e-10 0 -1.09053e-12)
(5.45265e-10 0 -1.09053e-12)
(5.45265e-10 0 -1.09053e-12)
(5.45265e-10 -1.98454e-26 -1.09053e-12)
(5.45265e-10 0 -1.09053e-12)
(5.45265e-10 0 -1.09053e-12)
(5.45265e-10 1.98454e-26 -1.09053e-12)
(5.45265e-10 0 -1.09053e-12)
(5.45265e-10 0 -1.09053e-12)
(5.45265e-10 0 -1.09053e-12)
(5.45265e-10 0 -1.09053e-12)
(5.45265e-10 -1.98454e-26 -1.09053e-12)
(5.45265e-10 1.98454e-26 -1.09053e-12)
(5.45265e-10 -1.98454e-26 -1.09053e-12)
(5.45265e-10 0 -1.09053e-12)
(5.45265e-10 -1.98454e-26 -1.09053e-12)
(5.45265e-10 -1.98454e-26 -1.09053e-12)
(5.45265e-10 1.98454e-26 -1.09053e-12)
(5.45265e-10 1.98454e-26 -1.09053e-12)
(5.45265e-10 -1.98454e-26 -1.09053e-12)
(5.45265e-10 -1.98454e-26 -1.09053e-12)
(5.45265e-10 -1.98454e-26 -1.09053e-12)
(5.45265e-10 0 -1.09053e-12)
(5.45265e-10 0 -1.09053e-12)
(5.45265e-10 0 -1.09053e-12)
(5.45265e-10 -1.98454e-26 -1.09053e-12)
(5.45265e-10 1.98454e-26 -1.09053e-12)
(5.45265e-10 -1.98454e-26 -1.09053e-12)
(5.45265e-10 1.98454e-26 -1.09053e-12)
(5.45265e-10 -1.98454e-26 -1.09053e-12)
(5.45265e-10 -1.98454e-26 -1.09053e-12)
(5.45265e-10 -1.98454e-26 -1.09053e-12)
(5.45485e-10 -1.98454e-26 -1.09141e-12)
(5.46414e-10 0 -1.09513e-12)
(5.42588e-10 0 -1.07985e-12)
(5.11801e-10 0 -9.60782e-13)
(4.85071e-10 0 -8.63042e-13)
(4.82796e-10 0 -8.54968e-13)
(4.80767e-10 1.98455e-26 -8.47795e-13)
(4.80653e-10 0 -8.47394e-13)
(4.8103e-10 1.98455e-26 -8.48725e-13)
(4.81622e-10 1.98455e-26 -8.50813e-13)
(4.82333e-10 0 -8.53328e-13)
(4.83104e-10 1.98455e-26 -8.56059e-13)
(4.83914e-10 1.98455e-26 -8.58932e-13)
(4.84752e-10 1.98455e-26 -8.61909e-13)
(4.85607e-10 0 -8.64951e-13)
(4.86473e-10 0 -8.68038e-13)
(4.8735e-10 0 -8.71172e-13)
(4.88236e-10 1.98455e-26 -8.74341e-13)
(4.89124e-10 0 -8.77527e-13)
(4.90005e-10 0 -8.8069e-13)
(4.90837e-10 -1.98455e-26 -8.83682e-13)
(4.9166e-10 0 -8.86649e-13)
(4.92567e-10 -1.98455e-26 -8.89922e-13)
(4.935e-10 0 -8.93299e-13)
(4.94459e-10 1.98455e-26 -8.96772e-13)
(4.95479e-10 -1.98455e-26 -9.00476e-13)
(4.96489e-10 0 -9.04152e-13)
(4.97494e-10 0 -9.07815e-13)
(4.98536e-10 0 -9.11624e-13)
(4.99557e-10 0 -9.1536e-13)
(5.00522e-10 0 -9.189e-13)
(5.01469e-10 1.98455e-26 -9.22382e-13)
(5.02488e-10 -1.98455e-26 -9.26132e-13)
(5.0353e-10 0 -9.29979e-13)
(5.04551e-10 0 -9.33755e-13)
(5.05556e-10 -1.98455e-26 -9.37478e-13)
(5.06553e-10 0 -9.4118e-13)
(5.07552e-10 0 -9.44893e-13)
(5.08536e-10 0 -9.48562e-13)
(5.09511e-10 1.98455e-26 -9.52203e-13)
(5.10468e-10 0 -9.55783e-13)
(5.11425e-10 0 -9.59369e-13)
(5.12369e-10 1.98455e-26 -9.62916e-13)
(5.13298e-10 1.98455e-26 -9.66411e-13)
(5.14207e-10 0 -9.69837e-13)
(5.15118e-10 0 -9.73276e-13)
(5.16025e-10 0 -9.76706e-13)
(5.16923e-10 0 -9.80107e-13)
(5.17815e-10 0 -9.83495e-13)
(5.18695e-10 1.98454e-26 -9.86838e-13)
(5.19561e-10 1.98454e-26 -9.90135e-13)
(5.20434e-10 -1.98454e-26 -9.93465e-13)
(5.21315e-10 -1.98454e-26 -9.96834e-13)
(5.22178e-10 0 -1.00014e-12)
(5.23017e-10 -1.98454e-26 -1.00335e-12)
(5.23843e-10 -1.98454e-26 -1.00652e-12)
(5.24663e-10 0 -1.00968e-12)
(5.25474e-10 0 -1.0128e-12)
(5.26258e-10 0 -1.01583e-12)
(5.27023e-10 1.98454e-26 -1.01878e-12)
(5.27775e-10 -1.98454e-26 -1.02169e-12)
(5.28506e-10 0 -1.02452e-12)
(5.29216e-10 0 -1.02728e-12)
(5.29908e-10 0 -1.02997e-12)
(5.30574e-10 -1.98454e-26 -1.03256e-12)
(5.31215e-10 0 -1.03506e-12)
(5.3184e-10 0 -1.03749e-12)
(5.32445e-10 0 -1.03985e-12)
(5.33025e-10 1.98454e-26 -1.04212e-12)
(5.33585e-10 0 -1.04431e-12)
(5.3413e-10 0 -1.04644e-12)
(5.34637e-10 1.98454e-26 -1.04843e-12)
(5.35086e-10 -1.98454e-26 -1.05019e-12)
(5.35512e-10 1.98454e-26 -1.05187e-12)
(5.35922e-10 0 -1.05348e-12)
(5.36263e-10 0 -1.05482e-12)
(5.36572e-10 0 -1.05603e-12)
(5.36866e-10 0 -1.05719e-12)
(5.37136e-10 -1.98454e-26 -1.05826e-12)
(5.3749e-10 0 -1.05965e-12)
(5.37854e-10 -1.98454e-26 -1.06109e-12)
(5.38165e-10 1.98454e-26 -1.06231e-12)
(5.38458e-10 0 -1.06347e-12)
(5.38671e-10 0 -1.06431e-12)
(5.38798e-10 0 -1.06482e-12)
(5.38899e-10 0 -1.06521e-12)
(5.39038e-10 -1.98454e-26 -1.06577e-12)
(5.39198e-10 -1.98454e-26 -1.0664e-12)
(5.39317e-10 0 -1.06687e-12)
(5.39392e-10 0 -1.06716e-12)
(5.39471e-10 0 -1.06748e-12)
(5.39516e-10 0 -1.06765e-12)
(5.39558e-10 0 -1.06782e-12)
(5.39569e-10 1.98454e-26 -1.06786e-12)
(5.39552e-10 0 -1.0678e-12)
(5.39423e-10 0 -1.06729e-12)
(5.3909e-10 0 -1.06597e-12)
(5.38498e-10 0 -1.06363e-12)
(5.37825e-10 0 -1.06097e-12)
(5.37245e-10 0 -1.05869e-12)
(5.36804e-10 1.98454e-26 -1.05695e-12)
(5.36486e-10 0 -1.0557e-12)
(5.36256e-10 0 -1.05479e-12)
(5.36114e-10 0 -1.05423e-12)
(5.36047e-10 0 -1.05397e-12)
(5.36012e-10 0 -1.05383e-12)
(5.36e-10 0 -1.05378e-12)
(5.36e-10 0 -1.05378e-12)
(5.36004e-10 0 -1.0538e-12)
(5.36022e-10 0 -1.05387e-12)
(5.36034e-10 0 -1.05392e-12)
(5.36045e-10 0 -1.05396e-12)
(5.36083e-10 0 -1.05411e-12)
(5.36119e-10 -1.98454e-26 -1.05425e-12)
(5.36181e-10 0 -1.0545e-12)
(5.36226e-10 0 -1.05467e-12)
(5.36306e-10 0 -1.05499e-12)
(5.36369e-10 0 -1.05524e-12)
(5.3645e-10 0 -1.05555e-12)
(5.36525e-10 0 -1.05585e-12)
(5.36611e-10 0 -1.05619e-12)
(5.36688e-10 -1.98454e-26 -1.05649e-12)
(5.36795e-10 0 -1.05691e-12)
(5.36925e-10 0 -1.05743e-12)
(5.37069e-10 0 -1.05799e-12)
(5.37212e-10 0 -1.05856e-12)
(5.37358e-10 0 -1.05913e-12)
(5.37502e-10 1.98454e-26 -1.0597e-12)
(5.37665e-10 0 -1.06034e-12)
(5.37821e-10 0 -1.06096e-12)
(5.37971e-10 0 -1.06155e-12)
(5.38125e-10 0 -1.06216e-12)
(5.38283e-10 0 -1.06278e-12)
(5.38434e-10 0 -1.06338e-12)
(5.38601e-10 -1.98454e-26 -1.06404e-12)
(5.38772e-10 0 -1.06471e-12)
(5.38956e-10 1.98454e-26 -1.06544e-12)
(5.39129e-10 0 -1.06612e-12)
(5.39302e-10 0 -1.06681e-12)
(5.39464e-10 0 -1.06745e-12)
(5.39623e-10 0 -1.06808e-12)
(5.39776e-10 0 -1.06868e-12)
(5.39926e-10 0 -1.06928e-12)
(5.40096e-10 0 -1.06995e-12)
(5.40279e-10 0 -1.07068e-12)
(5.40497e-10 0 -1.07154e-12)
(5.407e-10 0 -1.07234e-12)
(5.40939e-10 -1.98454e-26 -1.07329e-12)
(5.41164e-10 0 -1.07419e-12)
(5.41451e-10 0 -1.07533e-12)
(5.41734e-10 0 -1.07645e-12)
(5.42037e-10 0 -1.07766e-12)
(5.42321e-10 0 -1.07879e-12)
(5.42622e-10 0 -1.07998e-12)
(5.42901e-10 0 -1.0811e-12)
(5.43185e-10 1.98454e-26 -1.08222e-12)
(5.43437e-10 0 -1.08323e-12)
(5.43709e-10 0 -1.08431e-12)
(5.43973e-10 0 -1.08537e-12)
(5.44266e-10 1.98454e-26 -1.08654e-12)
(5.44558e-10 0 -1.0877e-12)
(5.44862e-10 -1.98454e-26 -1.08892e-12)
(5.45156e-10 0 -1.09009e-12)
(5.45461e-10 0 -1.09132e-12)
(5.45734e-10 0 -1.09241e-12)
(5.45933e-10 0 -1.0932e-12)
(5.46134e-10 -1.98454e-26 -1.09401e-12)
(5.46407e-10 0 -1.0951e-12)
(5.46651e-10 0 -1.09608e-12)
(5.46825e-10 0 -1.09678e-12)
(5.4688e-10 0 -1.097e-12)
(5.46773e-10 1.98454e-26 -1.09657e-12)
(5.46741e-10 1.98454e-26 -1.09644e-12)
(5.4674e-10 0 -1.09644e-12)
(5.46343e-10 1.98454e-26 -1.09485e-12)
(5.45751e-10 0 -1.09248e-12)
(5.45434e-10 0 -1.09121e-12)
(5.45464e-10 1.98454e-26 -1.09133e-12)
(5.45733e-10 -1.98454e-26 -1.0924e-12)
(5.46028e-10 0 -1.09358e-12)
(5.46233e-10 1.98454e-26 -1.09441e-12)
(5.46311e-10 0 -1.09472e-12)
(5.46225e-10 0 -1.09437e-12)
(5.45901e-10 0 -1.09308e-12)
(5.45344e-10 0 -1.09085e-12)
(5.44886e-10 0 -1.08901e-12)
(5.44711e-10 0 -1.08831e-12)
(5.4469e-10 0 -1.08823e-12)
(5.44873e-10 0 -1.08896e-12)
(5.45157e-10 0 -1.0901e-12)
(5.45373e-10 1.98454e-26 -1.09096e-12)
(5.45616e-10 -1.98454e-26 -1.09194e-12)
(5.45871e-10 0 -1.09296e-12)
(5.46062e-10 1.98454e-26 -1.09372e-12)
(5.46203e-10 0 -1.09429e-12)
(5.46335e-10 -1.98454e-26 -1.09481e-12)
(5.46471e-10 0 -1.09536e-12)
(5.466e-10 0 -1.09587e-12)
(5.46711e-10 1.98454e-26 -1.09632e-12)
(5.46811e-10 0 -1.09672e-12)
(5.46895e-10 0 -1.09706e-12)
(5.46954e-10 0 -1.0973e-12)
(5.46992e-10 0 -1.09745e-12)
(5.47021e-10 0 -1.09756e-12)
(5.47035e-10 0 -1.09762e-12)
(5.47019e-10 0 -1.09756e-12)
(5.46966e-10 0 -1.09735e-12)
(5.4686e-10 0 -1.09692e-12)
(5.46661e-10 0 -1.09612e-12)
(5.46359e-10 -1.98454e-26 -1.09491e-12)
(5.4599e-10 1.98454e-26 -1.09343e-12)
(5.4551e-10 1.98454e-26 -1.09151e-12)
(5.44853e-10 0 -1.08888e-12)
(5.44038e-10 0 -1.08563e-12)
(5.43153e-10 0 -1.0821e-12)
(5.4256e-10 0 -1.07973e-12)
(5.42382e-10 -1.98454e-26 -1.07903e-12)
(5.42167e-10 0 -1.07817e-12)
(5.41602e-10 0 -1.07593e-12)
(5.40694e-10 0 -1.07232e-12)
(5.39732e-10 0 -1.06851e-12)
(5.39074e-10 -1.98454e-26 -1.0659e-12)
(5.38532e-10 -1.98454e-26 -1.06376e-12)
(5.37983e-10 0 -1.0616e-12)
(5.37661e-10 1.98454e-26 -1.06033e-12)
(5.37539e-10 1.98454e-26 -1.05984e-12)
(5.3752e-10 0 -1.05977e-12)
(5.37432e-10 0 -1.05942e-12)
(5.37276e-10 0 -1.05881e-12)
(5.37191e-10 0 -1.05847e-12)
(5.37078e-10 0 -1.05803e-12)
(5.36931e-10 -1.98454e-26 -1.05745e-12)
(5.36781e-10 -1.98454e-26 -1.05686e-12)
(5.36643e-10 0 -1.05631e-12)
(5.36531e-10 0 -1.05587e-12)
(5.36435e-10 0 -1.05549e-12)
(5.36359e-10 0 -1.0552e-12)
(5.36282e-10 0 -1.05489e-12)
(5.36207e-10 0 -1.0546e-12)
(5.36158e-10 0 -1.05441e-12)
(5.36129e-10 0 -1.05429e-12)
(5.36126e-10 0 -1.05428e-12)
(5.36124e-10 0 -1.05427e-12)
(5.36146e-10 0 -1.05436e-12)
(5.36163e-10 0 -1.05443e-12)
(5.36209e-10 -1.98454e-26 -1.05461e-12)
(5.36268e-10 0 -1.05484e-12)
(5.36333e-10 0 -1.0551e-12)
(5.36399e-10 0 -1.05535e-12)
(5.36494e-10 0 -1.05573e-12)
(5.36589e-10 0 -1.0561e-12)
(5.36706e-10 0 -1.05656e-12)
(5.3683e-10 0 -1.05705e-12)
(5.36963e-10 -1.98454e-26 -1.05757e-12)
(5.37134e-10 1.98454e-26 -1.05825e-12)
(5.37293e-10 0 -1.05887e-12)
(5.37475e-10 0 -1.05959e-12)
(5.37638e-10 0 -1.06024e-12)
(5.37835e-10 1.98454e-26 -1.06101e-12)
(5.38013e-10 -1.98454e-26 -1.06171e-12)
(5.38222e-10 0 -1.06254e-12)
(5.38423e-10 1.98454e-26 -1.06334e-12)
(5.38646e-10 -1.98454e-26 -1.06421e-12)
(5.3883e-10 -1.98454e-26 -1.06494e-12)
(5.39023e-10 -1.98454e-26 -1.06571e-12)
(5.39192e-10 -1.98454e-26 -1.06637e-12)
(5.39352e-10 -1.98454e-26 -1.06701e-12)
(5.39479e-10 0 -1.06751e-12)
(5.39595e-10 0 -1.06797e-12)
(5.39698e-10 0 -1.06837e-12)
(5.3981e-10 0 -1.06882e-12)
(5.39912e-10 0 -1.06922e-12)
(5.40035e-10 0 -1.06971e-12)
(5.40135e-10 -1.98454e-26 -1.07011e-12)
(5.40233e-10 -1.98454e-26 -1.07049e-12)
(5.40321e-10 0 -1.07084e-12)
(5.40413e-10 0 -1.07121e-12)
(5.40536e-10 0 -1.07169e-12)
(5.40643e-10 0 -1.07212e-12)
(5.40735e-10 0 -1.07248e-12)
(5.40803e-10 -1.98454e-26 -1.07276e-12)
(5.40879e-10 0 -1.07306e-12)
(5.40959e-10 1.98454e-26 -1.07337e-12)
(5.41043e-10 0 -1.07371e-12)
(5.41127e-10 -1.98454e-26 -1.07404e-12)
(5.41223e-10 0 -1.07442e-12)
(5.41336e-10 0 -1.07487e-12)
(5.41456e-10 0 -1.07535e-12)
(5.41586e-10 0 -1.07586e-12)
(5.41729e-10 0 -1.07643e-12)
(5.41853e-10 0 -1.07693e-12)
(5.41991e-10 0 -1.07747e-12)
(5.42119e-10 -1.98454e-26 -1.07798e-12)
(5.42272e-10 0 -1.07859e-12)
(5.42395e-10 -1.98454e-26 -1.07908e-12)
(5.42523e-10 0 -1.07959e-12)
(5.42639e-10 0 -1.08005e-12)
(5.42728e-10 0 -1.0804e-12)
(5.4275e-10 0 -1.08049e-12)
(5.42769e-10 -1.98454e-26 -1.08057e-12)
(5.42734e-10 0 -1.08043e-12)
(5.42744e-10 1.98454e-26 -1.08047e-12)
(5.42826e-10 0 -1.08079e-12)
(5.42855e-10 1.98454e-26 -1.08091e-12)
(5.42827e-10 0 -1.0808e-12)
(5.4271e-10 0 -1.08033e-12)
(5.42607e-10 0 -1.07993e-12)
(5.42744e-10 -1.98454e-26 -1.08047e-12)
(5.42917e-10 -1.98454e-26 -1.08116e-12)
(5.42946e-10 1.98454e-26 -1.08127e-12)
(5.42881e-10 0 -1.08102e-12)
(5.42797e-10 1.98454e-26 -1.08068e-12)
(5.42677e-10 0 -1.0802e-12)
(5.42556e-10 0 -1.07972e-12)
(5.42663e-10 0 -1.08015e-12)
(5.42935e-10 -1.98454e-26 -1.08123e-12)
(5.43109e-10 0 -1.08192e-12)
(5.43158e-10 0 -1.08212e-12)
(5.43132e-10 0 -1.08202e-12)
(5.43068e-10 1.98454e-26 -1.08176e-12)
(5.43027e-10 1.98454e-26 -1.08159e-12)
(5.42974e-10 0 -1.08139e-12)
(5.42966e-10 0 -1.08135e-12)
(5.43031e-10 -1.98454e-26 -1.08161e-12)
(5.43087e-10 0 -1.08184e-12)
(5.43099e-10 1.98454e-26 -1.08188e-12)
(5.43045e-10 0 -1.08167e-12)
(5.42997e-10 0 -1.08147e-12)
(5.43098e-10 0 -1.08188e-12)
(5.43319e-10 0 -1.08276e-12)
(5.43505e-10 0 -1.0835e-12)
(5.43644e-10 -1.98454e-26 -1.08405e-12)
(5.43776e-10 0 -1.08458e-12)
(5.43889e-10 -1.98454e-26 -1.08503e-12)
(5.43989e-10 0 -1.08543e-12)
(5.44106e-10 1.98454e-26 -1.0859e-12)
(5.44226e-10 0 -1.08638e-12)
(5.44317e-10 0 -1.08674e-12)
(5.44378e-10 0 -1.08698e-12)
(5.44398e-10 0 -1.08706e-12)
(5.44377e-10 -1.98454e-26 -1.08698e-12)
(5.44316e-10 0 -1.08674e-12)
(5.44233e-10 0 -1.08641e-12)
(5.44161e-10 0 -1.08612e-12)
(5.44077e-10 0 -1.08578e-12)
(5.43931e-10 1.98454e-26 -1.0852e-12)
(5.43764e-10 0 -1.08454e-12)
(5.43645e-10 0 -1.08406e-12)
(5.43541e-10 0 -1.08364e-12)
(5.43466e-10 0 -1.08335e-12)
(5.43406e-10 0 -1.08311e-12)
(5.43321e-10 0 -1.08277e-12)
(5.43201e-10 0 -1.08229e-12)
(5.42905e-10 0 -1.08111e-12)
(5.42378e-10 0 -1.07901e-12)
(5.41913e-10 1.98454e-26 -1.07716e-12)
(5.41346e-10 1.98454e-26 -1.07491e-12)
(5.40702e-10 0 -1.07236e-12)
(5.40612e-10 0 -1.072e-12)
(5.40868e-10 -1.98454e-26 -1.07301e-12)
(5.4106e-10 0 -1.07377e-12)
(5.41215e-10 -1.98454e-26 -1.07439e-12)
(5.41255e-10 0 -1.07455e-12)
(5.41239e-10 1.98454e-26 -1.07449e-12)
(5.41191e-10 -1.98454e-26 -1.07429e-12)
(5.41101e-10 0 -1.07394e-12)
(5.40953e-10 -1.98454e-26 -1.07335e-12)
(5.40775e-10 0 -1.07264e-12)
(5.40597e-10 0 -1.07194e-12)
(5.40421e-10 0 -1.07124e-12)
(5.40265e-10 0 -1.07062e-12)
(5.40118e-10 0 -1.07004e-12)
(5.39977e-10 0 -1.06948e-12)
(5.3985e-10 0 -1.06898e-12)
(5.39713e-10 1.98454e-26 -1.06843e-12)
(5.39589e-10 0 -1.06794e-12)
(5.39507e-10 0 -1.06762e-12)
(5.3947e-10 1.98454e-26 -1.06747e-12)
(5.39502e-10 0 -1.0676e-12)
(5.39584e-10 0 -1.06793e-12)
(5.39696e-10 0 -1.06837e-12)
(5.39827e-10 0 -1.06889e-12)
(5.39928e-10 0 -1.06929e-12)
(5.40003e-10 1.98454e-26 -1.06958e-12)
(5.40062e-10 0 -1.06982e-12)
(5.40128e-10 -1.98454e-26 -1.07008e-12)
(5.40175e-10 -1.98454e-26 -1.07027e-12)
(5.40237e-10 0 -1.07051e-12)
(5.40281e-10 1.98454e-26 -1.07068e-12)
(5.40323e-10 1.98454e-26 -1.07085e-12)
(5.40305e-10 0 -1.07078e-12)
(5.4025e-10 0 -1.07056e-12)
(5.40104e-10 0 -1.06998e-12)
(5.39884e-10 0 -1.06911e-12)
(5.39548e-10 -1.98454e-26 -1.06778e-12)
(5.39095e-10 0 -1.06599e-12)
(5.38495e-10 1.98454e-26 -1.06362e-12)
(5.37547e-10 0 -1.05987e-12)
(5.36354e-10 -1.98454e-26 -1.05518e-12)
(5.34345e-10 0 -1.04729e-12)
(5.3147e-10 0 -1.03605e-12)
(5.2694e-10 -1.98454e-26 -1.01846e-12)
(5.20427e-10 0 -9.93439e-13)
(5.10887e-10 0 -9.57351e-13)
(4.97337e-10 0 -9.07244e-13)
(4.77226e-10 1.98455e-26 -8.35353e-13)
(4.49148e-10 -1.98455e-26 -7.39948e-13)
(4.09982e-10 0 -6.16525e-13)
(3.51331e-10 0 -4.52746e-13)
(3.6537e-10 0 -4.89652e-13)
(2.2122e-10 0 -1.79502e-13)
(3.00096e-09 7.93725e-26 -3.30364e-11)
(3.25949e-09 -1.58741e-25 -3.89747e-11)
(5.45265e-10 0 -1.09053e-12)
(5.45265e-10 0 -1.09053e-12)
(5.45265e-10 0 -1.09053e-12)
(5.45265e-10 0 -1.09053e-12)
(5.45265e-10 0 -1.09053e-12)
(5.45265e-10 -1.98454e-26 -1.09053e-12)
(5.45265e-10 0 -1.09053e-12)
(5.45265e-10 0 -1.09053e-12)
(5.45265e-10 0 -1.09053e-12)
(5.45265e-10 0 -1.09053e-12)
)
;

boundaryField
{
    inlet
    {
        type            calculated;
        value           uniform (0 0 0);
    }
    endWall
    {
        type            calculated;
        value           uniform (0 0 0);
    }
    sideWall
    {
        type            empty;
    }
}


// ************************************************************************* //
