/*--------------------------------*- C++ -*----------------------------------*\
| =========                 |                                                 |
| \\      /  F ield         | foam-extend: Open Source CFD                    |
|  \\    /   O peration     | Version:     3.2                                |
|   \\  /    A nd           | Web:         http://www.foam-extend.org         |
|    \\/     M anipulation  | For copyright notice see file Copyright         |
\*---------------------------------------------------------------------------*/
FoamFile
{
    version     2.0;
    format      ascii;
    class       areaScalarField;
    location    "120";
    object      xCo;
}
// * * * * * * * * * * * * * * * * * * * * * * * * * * * * * * * * * * * * * //

dimensions      [0 0 0 0 0 0 0];

internalField   nonuniform List<scalar> 
550
(
0.00909091
0.0272727
0.0454545
0.0636364
0.0818182
0.1
0.118182
0.136364
0.154545
0.172727
0.190909
0.209091
0.227273
0.245455
0.263636
0.281818
0.3
0.318182
0.336364
0.354545
0.372727
0.390909
0.409091
0.427273
0.445455
0.463636
0.481818
0.5
0.518182
0.536364
0.554545
0.572727
0.590909
0.609091
0.627273
0.645455
0.663636
0.681818
0.7
0.718182
0.736364
0.754545
0.772727
0.790909
0.809091
0.827273
0.845455
0.863636
0.881818
0.9
0.918182
0.936364
0.954545
0.972727
0.990909
1.00909
1.02727
1.04545
1.06364
1.08182
1.1
1.11818
1.13636
1.15455
1.17273
1.19091
1.20909
1.22727
1.24545
1.26364
1.28182
1.3
1.31818
1.33636
1.35455
1.37273
1.39091
1.40909
1.42727
1.44545
1.46364
1.48182
1.5
1.51818
1.53636
1.55455
1.57273
1.59091
1.60909
1.62727
1.64545
1.66364
1.68182
1.7
1.71818
1.73636
1.75455
1.77273
1.79091
1.80909
1.82727
1.84545
1.86364
1.88182
1.9
1.91818
1.93636
1.95455
1.97273
1.99091
2.00909
2.02727
2.04545
2.06364
2.08182
2.1
2.11818
2.13636
2.15455
2.17273
2.19091
2.20909
2.22727
2.24545
2.26364
2.28182
2.3
2.31818
2.33636
2.35455
2.37273
2.39091
2.40909
2.42727
2.44545
2.46364
2.48182
2.5
2.51818
2.53636
2.55455
2.57273
2.59091
2.60909
2.62727
2.64545
2.66364
2.68182
2.7
2.71818
2.73636
2.75455
2.77273
2.79091
2.80909
2.82727
2.84545
2.86364
2.88182
2.9
2.91818
2.93636
2.95455
2.97273
2.99091
3.00909
3.02727
3.04545
3.06364
3.08182
3.1
3.11818
3.13636
3.15455
3.17273
3.19091
3.20909
3.22727
3.24545
3.26364
3.28182
3.3
3.31818
3.33636
3.35455
3.37273
3.39091
3.40909
3.42727
3.44545
3.46364
3.48182
3.5
3.51818
3.53636
3.55455
3.57273
3.59091
3.60909
3.62727
3.64545
3.66364
3.68182
3.7
3.71818
3.73636
3.75455
3.77273
3.79091
3.80909
3.82727
3.84545
3.86364
3.88182
3.9
3.91818
3.93636
3.95455
3.97273
3.99091
4.00909
4.02727
4.04545
4.06364
4.08182
4.1
4.11818
4.13636
4.15455
4.17273
4.19091
4.20909
4.22727
4.24545
4.26364
4.28182
4.3
4.31818
4.33636
4.35455
4.37273
4.39091
4.40909
4.42727
4.44545
4.46364
4.48182
4.5
4.51818
4.53636
4.55455
4.57273
4.59091
4.60909
4.62727
4.64545
4.66364
4.68182
4.7
4.71818
4.73636
4.75455
4.77273
4.79091
4.80909
4.82727
4.84545
4.86364
4.88182
4.9
4.91818
4.93636
4.95455
4.97273
4.99091
5.00909
5.02727
5.04545
5.06364
5.08182
5.1
5.11818
5.13636
5.15455
5.17273
5.19091
5.20909
5.22727
5.24545
5.26364
5.28182
5.3
5.31818
5.33636
5.35455
5.37273
5.39091
5.40909
5.42727
5.44545
5.46364
5.48182
5.5
5.51818
5.53636
5.55455
5.57273
5.59091
5.60909
5.62727
5.64545
5.66364
5.68182
5.7
5.71818
5.73636
5.75455
5.77273
5.79091
5.80909
5.82727
5.84545
5.86364
5.88182
5.9
5.91818
5.93636
5.95455
5.97273
5.99091
6.00909
6.02727
6.04545
6.06364
6.08182
6.1
6.11818
6.13636
6.15455
6.17273
6.19091
6.20909
6.22727
6.24545
6.26364
6.28182
6.3
6.31818
6.33636
6.35455
6.37273
6.39091
6.40909
6.42727
6.44545
6.46364
6.48182
6.5
6.51818
6.53636
6.55455
6.57273
6.59091
6.60909
6.62727
6.64545
6.66364
6.68182
6.7
6.71818
6.73636
6.75455
6.77273
6.79091
6.80909
6.82727
6.84545
6.86364
6.88182
6.9
6.91818
6.93636
6.95455
6.97273
6.99091
7.00909
7.02727
7.04545
7.06364
7.08182
7.1
7.11818
7.13636
7.15455
7.17273
7.19091
7.20909
7.22727
7.24545
7.26364
7.28182
7.3
7.31818
7.33636
7.35455
7.37273
7.39091
7.40909
7.42727
7.44545
7.46364
7.48182
7.5
7.51818
7.53636
7.55455
7.57273
7.59091
7.60909
7.62727
7.64545
7.66364
7.68182
7.7
7.71818
7.73636
7.75455
7.77273
7.79091
7.80909
7.82727
7.84545
7.86364
7.88182
7.9
7.91818
7.93636
7.95455
7.97273
7.99091
8.00909
8.02727
8.04545
8.06364
8.08182
8.1
8.11818
8.13636
8.15455
8.17273
8.19091
8.20909
8.22727
8.24545
8.26364
8.28182
8.3
8.31818
8.33636
8.35455
8.37273
8.39091
8.40909
8.42727
8.44545
8.46364
8.48182
8.5
8.51818
8.53636
8.55455
8.57273
8.59091
8.60909
8.62727
8.64545
8.66364
8.68182
8.7
8.71818
8.73636
8.75455
8.77273
8.79091
8.80909
8.82727
8.84545
8.86364
8.88182
8.9
8.91818
8.93636
8.95455
8.97273
8.99091
9.00909
9.02727
9.04545
9.06364
9.08182
9.1
9.11818
9.13636
9.15455
9.17273
9.19091
9.20909
9.22727
9.24545
9.26364
9.28182
9.3
9.31818
9.33636
9.35455
9.37273
9.39091
9.40909
9.42727
9.44545
9.46364
9.48182
9.5
9.51818
9.53636
9.55455
9.57273
9.59091
9.60909
9.62727
9.64545
9.66364
9.68182
9.7
9.71818
9.73636
9.75455
9.77273
9.79091
9.80909
9.82727
9.84545
9.86364
9.88182
9.9
9.91818
9.93636
9.95455
9.97273
9.99091
)
;

boundaryField
{
    inlet
    {
        type            calculated;
        value           uniform 0;
    }
    endWall
    {
        type            calculated;
        value           uniform 0;
    }
    sideWall
    {
        type            empty;
    }
}


// ************************************************************************* //
