/*--------------------------------*- C++ -*----------------------------------*\
| =========                 |                                                 |
| \\      /  F ield         | foam-extend: Open Source CFD                    |
|  \\    /   O peration     | Version:     3.2                                |
|   \\  /    A nd           | Web:         http://www.foam-extend.org         |
|    \\/     M anipulation  | For copyright notice see file Copyright         |
\*---------------------------------------------------------------------------*/
FoamFile
{
    version     2.0;
    format      ascii;
    class       areaScalarField;
    location    "120";
    object      zCo;
}
// * * * * * * * * * * * * * * * * * * * * * * * * * * * * * * * * * * * * * //

dimensions      [0 1 0 0 0 0 0];

internalField   nonuniform List<scalar> 
550
(
-1.81818e-05
-5.45455e-05
-9.09091e-05
-0.000127273
-0.000163636
-0.0002
-0.000236364
-0.000272727
-0.000309091
-0.000345455
-0.000381818
-0.000418182
-0.000454545
-0.000490909
-0.000527273
-0.000563636
-0.0006
-0.000636364
-0.000672727
-0.000709091
-0.000745455
-0.000781818
-0.000818182
-0.000854545
-0.000890909
-0.000927273
-0.000963636
-0.001
-0.00103636
-0.00107273
-0.00110909
-0.00114545
-0.00118182
-0.00121818
-0.00125455
-0.00129091
-0.00132727
-0.00136364
-0.0014
-0.00143636
-0.00147273
-0.00150909
-0.00154545
-0.00158182
-0.00161818
-0.00165455
-0.00169091
-0.00172727
-0.00176364
-0.0018
-0.00183636
-0.00187273
-0.00190909
-0.00194545
-0.00198182
-0.00201818
-0.00205455
-0.00209091
-0.00212727
-0.00216364
-0.0022
-0.00223636
-0.00227273
-0.00230909
-0.00234545
-0.00238182
-0.00241818
-0.00245455
-0.00249091
-0.00252727
-0.00256364
-0.0026
-0.00263636
-0.00267273
-0.00270909
-0.00274545
-0.00278182
-0.00281818
-0.00285455
-0.00289091
-0.00292727
-0.00296364
-0.003
-0.00303636
-0.00307273
-0.00310909
-0.00314545
-0.00318182
-0.00321818
-0.00325455
-0.00329091
-0.00332727
-0.00336364
-0.0034
-0.00343636
-0.00347273
-0.00350909
-0.00354545
-0.00358182
-0.00361818
-0.00365455
-0.00369091
-0.00372727
-0.00376364
-0.0038
-0.00383636
-0.00387273
-0.00390909
-0.00394545
-0.00398182
-0.00401818
-0.00405455
-0.00409091
-0.00412727
-0.00416364
-0.0042
-0.00423636
-0.00427273
-0.00430909
-0.00434545
-0.00438182
-0.00441818
-0.00445455
-0.00449091
-0.00452727
-0.00456364
-0.0046
-0.00463637
-0.00467278
-0.00470909
-0.00474425
-0.00477749
-0.00480977
-0.0048419
-0.00487395
-0.00490602
-0.00493812
-0.00497026
-0.00500246
-0.0050347
-0.005067
-0.00509936
-0.00513177
-0.00516424
-0.00519677
-0.00522936
-0.00526201
-0.00529472
-0.00532748
-0.0053603
-0.00539318
-0.00542612
-0.00545913
-0.00549221
-0.00552535
-0.00555857
-0.00559185
-0.0056252
-0.00565861
-0.00569208
-0.00572563
-0.00575924
-0.00579293
-0.00582667
-0.00586049
-0.00589437
-0.00592832
-0.00596233
-0.0059964
-0.00603054
-0.00606474
-0.006099
-0.00613333
-0.00616771
-0.00620215
-0.00623666
-0.00627122
-0.00630584
-0.00634052
-0.00637526
-0.00641005
-0.0064449
-0.00647981
-0.00651477
-0.00654979
-0.00658486
-0.00661998
-0.00665515
-0.00669037
-0.00672564
-0.00676096
-0.00679632
-0.00683173
-0.00686717
-0.00690266
-0.00693819
-0.00697376
-0.00700936
-0.007045
-0.00708067
-0.00711637
-0.00715209
-0.00718785
-0.00722362
-0.00725941
-0.00729523
-0.00733106
-0.00736692
-0.0074028
-0.0074387
-0.00747461
-0.00751054
-0.00754648
-0.00758242
-0.00761837
-0.00765434
-0.00769031
-0.00772628
-0.00776226
-0.00779824
-0.00783422
-0.00787021
-0.00790619
-0.00794215
-0.00797808
-0.00801397
-0.00804982
-0.00808563
-0.00812142
-0.00815719
-0.00819295
-0.0082287
-0.00826445
-0.0083002
-0.00833594
-0.00837169
-0.00840743
-0.00844318
-0.00847893
-0.00851468
-0.00855043
-0.00858619
-0.00862195
-0.00865771
-0.00869348
-0.00872925
-0.00876503
-0.00880081
-0.0088366
-0.0088724
-0.0089082
-0.00894401
-0.00897984
-0.00901567
-0.00905151
-0.00908736
-0.00912322
-0.00915909
-0.00919498
-0.00923087
-0.00926677
-0.00930268
-0.00933861
-0.00937455
-0.0094105
-0.00944646
-0.00948243
-0.00951841
-0.0095544
-0.0095904
-0.00962642
-0.00966244
-0.00969848
-0.00973453
-0.0097706
-0.00980668
-0.00984278
-0.0098789
-0.00991504
-0.0099512
-0.00998737
-0.0100236
-0.0100598
-0.010096
-0.0101323
-0.0101685
-0.0102048
-0.0102411
-0.0102775
-0.0103138
-0.0103502
-0.0103866
-0.010423
-0.0104594
-0.0104958
-0.0105323
-0.0105687
-0.0106052
-0.0106417
-0.0106781
-0.0107146
-0.010751
-0.0107874
-0.0108238
-0.0108602
-0.0108966
-0.010933
-0.0109694
-0.0110058
-0.0110423
-0.0110787
-0.0111151
-0.0111514
-0.0111878
-0.0112241
-0.0112604
-0.0112968
-0.0113331
-0.0113695
-0.0114059
-0.0114423
-0.0114787
-0.0115152
-0.0115516
-0.0115881
-0.0116245
-0.011661
-0.0116974
-0.0117339
-0.0117704
-0.0118069
-0.0118434
-0.0118798
-0.0119163
-0.0119528
-0.0119893
-0.0120257
-0.0120621
-0.0120985
-0.0121349
-0.0121712
-0.0122074
-0.0122436
-0.0122798
-0.012316
-0.0123521
-0.0123882
-0.0124242
-0.0124602
-0.0124961
-0.012532
-0.0125679
-0.0126038
-0.0126396
-0.0126755
-0.0127113
-0.0127471
-0.0127829
-0.0128188
-0.0128546
-0.0128904
-0.0129261
-0.0129619
-0.0129977
-0.0130335
-0.0130692
-0.013105
-0.0131407
-0.0131765
-0.0132122
-0.013248
-0.0132837
-0.0133195
-0.0133553
-0.013391
-0.0134268
-0.0134626
-0.0134984
-0.0135341
-0.0135699
-0.0136058
-0.0136416
-0.0136774
-0.0137132
-0.0137491
-0.0137849
-0.0138208
-0.0138567
-0.0138926
-0.0139285
-0.0139644
-0.0140004
-0.0140363
-0.0140723
-0.0141083
-0.0141443
-0.0141803
-0.0142162
-0.0142522
-0.0142883
-0.0143243
-0.0143603
-0.0143963
-0.0144324
-0.0144684
-0.0145045
-0.0145405
-0.0145766
-0.0146127
-0.0146487
-0.0146848
-0.0147209
-0.014757
-0.0147931
-0.0148292
-0.0148653
-0.0149014
-0.0149376
-0.0149737
-0.0150098
-0.015046
-0.0150822
-0.0151184
-0.0151545
-0.0151907
-0.0152269
-0.0152631
-0.0152993
-0.0153355
-0.0153717
-0.0154079
-0.0154441
-0.0154803
-0.0155165
-0.0155527
-0.0155889
-0.0156251
-0.0156613
-0.0156975
-0.0157337
-0.0157699
-0.0158061
-0.0158423
-0.0158785
-0.0159147
-0.0159509
-0.0159872
-0.0160234
-0.0160596
-0.0160958
-0.016132
-0.0161682
-0.0162044
-0.0162407
-0.0162769
-0.0163131
-0.0163493
-0.0163856
-0.0164218
-0.0164581
-0.0164943
-0.0165306
-0.0165669
-0.0166032
-0.0166395
-0.0166758
-0.0167121
-0.0167484
-0.0167847
-0.016821
-0.0168573
-0.0168936
-0.0169299
-0.0169661
-0.0170024
-0.0170386
-0.0170749
-0.0171111
-0.0171474
-0.0171836
-0.0172198
-0.017256
-0.0172921
-0.0173283
-0.0173643
-0.0174004
-0.0174365
-0.0174725
-0.0175086
-0.0175447
-0.0175808
-0.0176169
-0.017653
-0.0176891
-0.0177252
-0.0177612
-0.0177973
-0.0178333
-0.0178693
-0.0179053
-0.0179413
-0.0179773
-0.0180133
-0.0180493
-0.0180853
-0.0181213
-0.0181573
-0.0181932
-0.0182292
-0.0182652
-0.0183013
-0.0183373
-0.0183733
-0.0184093
-0.0184453
-0.0184814
-0.0185174
-0.0185534
-0.0185895
-0.0186255
-0.0186615
-0.0186975
-0.0187335
-0.0187694
-0.0188053
-0.0188411
-0.0188768
-0.0189123
-0.0189476
-0.0189825
-0.0190169
-0.0190505
-0.019083
-0.0191139
-0.0191426
-0.019168
-0.0191919
-0.0192114
-0.0193189
-0.0195277
-0.0196545
-0.0196909
-0.0197273
-0.0197636
-0.0198
-0.0198364
-0.0198727
-0.0199091
-0.0199455
-0.0199818
)
;

boundaryField
{
    inlet
    {
        type            calculated;
        value           uniform 0;
    }
    endWall
    {
        type            calculated;
        value           uniform 0;
    }
    sideWall
    {
        type            empty;
    }
}


// ************************************************************************* //
