/*--------------------------------*- C++ -*----------------------------------*\
| =========                 |                                                 |
| \\      /  F ield         | foam-extend: Open Source CFD                    |
|  \\    /   O peration     | Version:     3.2                                |
|   \\  /    A nd           | Web:         http://www.foam-extend.org         |
|    \\/     M anipulation  | For copyright notice see file Copyright         |
\*---------------------------------------------------------------------------*/
FoamFile
{
    version     2.0;
    format      ascii;
    class       regIOobject;
    location    "1440/uniform";
    object      profilingInfo;
}
// * * * * * * * * * * * * * * * * * * * * * * * * * * * * * * * * * * * * * //

profilingInfo
(

    {
        id              35;
        parentId        31;
        description     "Foam::Time::writeObject - outputTime";
        calls           51;
        totalTime       22.871;
        childTime       0;
        onStack         1;
    }

    {
        id              31;
        parentId        1;
        description     "Foam::Time::writeObject";
        calls           127500;
        totalTime       23.4978;
        childTime       22.871;
        onStack         1;
    }

    {
        id              1;
        description     "application::main";
        calls           1;
        totalTime       75462;
        childTime       36239.3;
        onStack         1;
    }

    {
        id              34;
        parentId        32;
        description     "FO::fieldMinMax1::execute";
        calls           127499;
        totalTime       0.26454;
        childTime       0;
        onStack         0;
    }

    {
        id              8;
        parentId        6;
        description     "FO::fieldMinMax1::start";
        calls           1;
        totalTime       5.3e-05;
        childTime       0;
        onStack         0;
    }

    {
        id              33;
        parentId        32;
        description     "FO::probes::execute";
        calls           127499;
        totalTime       0.656;
        childTime       0;
        onStack         0;
    }

    {
        id              7;
        parentId        6;
        description     "FO::probes::start";
        calls           1;
        totalTime       0.012162;
        childTime       0;
        onStack         0;
    }

    {
        id              16;
        parentId        1;
        description     "MULES::explicitSolve";
        calls           255000;
        totalTime       774.776;
        childTime       0;
        onStack         0;
    }

    {
        id              6;
        parentId        5;
        description     "functionObjectList::read";
        calls           1;
        totalTime       0.012574;
        childTime       0.012215;
        onStack         0;
    }

    {
        id              32;
        parentId        1;
        description     "functionObjects_.execute()";
        calls           127499;
        totalTime       1.50812;
        childTime       0.92054;
        onStack         0;
    }

    {
        id              5;
        parentId        1;
        description     "functionObjects_.start()";
        calls           1;
        totalTime       0.012583;
        childTime       0.012574;
        onStack         0;
    }

    {
        id              9;
        parentId        1;
        description     "fvMatrix::solve_C1";
        calls           127500;
        totalTime       86.1961;
        childTime       74.4683;
        onStack         0;
    }

    {
        id              12;
        parentId        1;
        description     "fvMatrix::solve_C2";
        calls           127500;
        totalTime       46.1767;
        childTime       36.1102;
        onStack         0;
    }

    {
        id              17;
        parentId        1;
        description     "fvMatrix::solve_U";
        calls           127500;
        totalTime       370.202;
        childTime       268.767;
        onStack         0;
    }

    {
        id              28;
        parentId        1;
        description     "fvMatrix::solve_k";
        calls           127500;
        totalTime       147.184;
        childTime       136.402;
        onStack         0;
    }

    {
        id              25;
        parentId        1;
        description     "fvMatrix::solve_omega";
        calls           127500;
        totalTime       249.902;
        childTime       177.366;
        onStack         0;
    }

    {
        id              2;
        parentId        1;
        description     "fvMatrix::solve_pcorr";
        calls           2;
        totalTime       3.21926;
        childTime       3.21877;
        onStack         0;
    }

    {
        id              22;
        parentId        1;
        description     "fvMatrix::solve_pd";
        calls           510000;
        totalTime       26971.8;
        childTime       26906.7;
        onStack         0;
    }

    {
        id              11;
        parentId        10;
        description     "lduMatrix::smoother_C1";
        calls           127500;
        totalTime       38.7333;
        childTime       0;
        onStack         0;
    }

    {
        id              19;
        parentId        18;
        description     "lduMatrix::smoother_Ux";
        calls           127500;
        totalTime       68.0151;
        childTime       0;
        onStack         0;
    }

    {
        id              21;
        parentId        20;
        description     "lduMatrix::smoother_Uz";
        calls           127500;
        totalTime       134.037;
        childTime       0;
        onStack         0;
    }

    {
        id              30;
        parentId        29;
        description     "lduMatrix::smoother_k";
        calls           127500;
        totalTime       101.447;
        childTime       0;
        onStack         0;
    }

    {
        id              27;
        parentId        26;
        description     "lduMatrix::smoother_omega";
        calls           127500;
        totalTime       137.269;
        childTime       0;
        onStack         0;
    }

    {
        id              10;
        parentId        9;
        description     "lduMatrix::solver_C1";
        calls           127500;
        totalTime       74.4683;
        childTime       38.7333;
        onStack         0;
    }

    {
        id              13;
        parentId        12;
        description     "lduMatrix::solver_C2";
        calls           127500;
        totalTime       36.1102;
        childTime       0;
        onStack         0;
    }

    {
        id              18;
        parentId        17;
        description     "lduMatrix::solver_Ux";
        calls           127500;
        totalTime       104.203;
        childTime       68.0151;
        onStack         0;
    }

    {
        id              20;
        parentId        17;
        description     "lduMatrix::solver_Uz";
        calls           127500;
        totalTime       164.565;
        childTime       134.037;
        onStack         0;
    }

    {
        id              4;
        parentId        3;
        description     "lduMatrix::solver_coarsestLevelCorr";
        calls           400;
        totalTime       2.528;
        childTime       0;
        onStack         0;
    }

    {
        id              24;
        parentId        23;
        description     "lduMatrix::solver_coarsestLevelCorr";
        calls           3402925;
        totalTime       20888.8;
        childTime       0;
        onStack         0;
    }

    {
        id              29;
        parentId        28;
        description     "lduMatrix::solver_k";
        calls           127500;
        totalTime       136.402;
        childTime       101.447;
        onStack         0;
    }

    {
        id              14;
        parentId        1;
        description     "lduMatrix::solver_motionUx";
        calls           127501;
        totalTime       716.544;
        childTime       0;
        onStack         0;
    }

    {
        id              15;
        parentId        1;
        description     "lduMatrix::solver_motionUz";
        calls           127501;
        totalTime       6848.25;
        childTime       0;
        onStack         0;
    }

    {
        id              26;
        parentId        25;
        description     "lduMatrix::solver_omega";
        calls           127500;
        totalTime       177.366;
        childTime       137.269;
        onStack         0;
    }

    {
        id              3;
        parentId        2;
        description     "lduMatrix::solver_pcorr";
        calls           2;
        totalTime       3.21877;
        childTime       2.528;
        onStack         0;
    }

    {
        id              23;
        parentId        22;
        description     "lduMatrix::solver_pd";
        calls           510000;
        totalTime       26906.7;
        childTime       20888.8;
        onStack         0;
    }
);


// ************************************************************************* //
