/*--------------------------------*- C++ -*----------------------------------*\
| =========                 |                                                 |
| \\      /  F ield         | foam-extend: Open Source CFD                    |
|  \\    /   O peration     | Version:     3.2                                |
|   \\  /    A nd           | Web:         http://www.foam-extend.org         |
|    \\/     M anipulation  | For copyright notice see file Copyright         |
\*---------------------------------------------------------------------------*/
FoamFile
{
    version     2.0;
    format      ascii;
    class       surfaceScalarField;
    location    "50";
    object      AdSS1;
}
// * * * * * * * * * * * * * * * * * * * * * * * * * * * * * * * * * * * * * //

dimensions      [0 3 -1 0 0 0 0];

internalField   nonuniform List<scalar> 
10482
(
9.61086e-06
1.10353e-05
6.86745e-06
9.31173e-07
6.51675e-06
-1.46153e-06
6.47618e-06
-1.77166e-06
6.45239e-06
-1.78843e-06
6.40863e-06
-1.76847e-06
6.39188e-06
-1.79548e-06
6.37228e-06
-1.79264e-06
6.37115e-06
-1.8111e-06
6.36987e-06
-1.81095e-06
6.37801e-06
-1.82037e-06
6.38568e-06
-1.81989e-06
6.40112e-06
-1.82767e-06
6.41664e-06
-1.82775e-06
6.43538e-06
-1.83096e-06
6.45581e-06
-1.83266e-06
6.47836e-06
-1.83479e-06
6.50143e-06
-1.8353e-06
6.52608e-06
-1.83688e-06
6.55279e-06
-1.83894e-06
6.58074e-06
-1.84018e-06
6.6094e-06
-1.84089e-06
6.63887e-06
-1.8417e-06
6.6686e-06
-1.84195e-06
6.699e-06
-1.84264e-06
6.72869e-06
-1.84192e-06
6.75569e-06
-1.83923e-06
6.77875e-06
-1.83529e-06
6.79822e-06
-1.8317e-06
6.81442e-06
-1.82843e-06
6.82797e-06
-1.82578e-06
6.8392e-06
-1.82345e-06
6.84857e-06
-1.8216e-06
6.85631e-06
-1.81997e-06
6.86278e-06
-1.8187e-06
6.86813e-06
-1.81759e-06
6.87262e-06
-1.81672e-06
6.87636e-06
-1.81597e-06
6.87952e-06
-1.81539e-06
6.88215e-06
-1.81486e-06
6.8844e-06
-1.81448e-06
6.88628e-06
-1.81411e-06
6.88795e-06
-1.8139e-06
6.8893e-06
-1.81358e-06
6.89055e-06
-1.81347e-06
6.89148e-06
-1.81316e-06
6.89259e-06
-1.81334e-06
6.8933e-06
-1.81293e-06
6.89412e-06
-1.81306e-06
6.89437e-06
-1.81248e-06
6.89544e-06
-1.8133e-06
6.89465e-06
-1.81144e-06
6.89682e-06
-1.8144e-06
6.89406e-06
-1.80946e-06
6.89919e-06
-1.81736e-06
6.89159e-06
-1.80463e-06
6.90677e-06
-1.82741e-06
6.89715e-06
-1.80262e-06
6.89589e-06
-1.81097e-06
6.03462e-06
-9.50965e-07
5.50024e-06
-1.27785e-06
5.73544e-06
-2.04742e-06
5.80093e-06
-1.87772e-06
5.91347e-06
-1.92477e-06
5.93355e-06
-1.83231e-06
5.9822e-06
-1.86088e-06
5.97915e-06
-1.80918e-06
6.01072e-06
-1.8438e-06
5.99199e-06
-1.7935e-06
6.02664e-06
-1.84688e-06
6.00338e-06
-1.78897e-06
5.98847e-06
-1.79733e-06
6.00108e-06
-1.82484e-06
6.04303e-06
-1.85417e-06
6.01168e-06
-1.78088e-06
5.94534e-06
-1.74589e-06
5.96331e-06
-1.8302e-06
6.08285e-06
-1.93177e-06
5.99527e-06
-1.72465e-06
5.98265e-06
-1.79961e-06
5.99768e-06
-1.82726e-06
5.89875e-06
-1.71329e-06
5.93686e-06
-1.85034e-06
5.98438e-06
-1.85975e-06
5.96893e-06
-1.79678e-06
6.01688e-06
-1.86019e-06
6.05568e-06
-1.85103e-06
5.9009e-06
-1.65745e-06
5.96458e-06
-1.87591e-06
6.16052e-06
-2.00817e-06
5.97883e-06
-1.63054e-06
5.77446e-06
-1.60786e-06
6.08777e-06
-2.12554e-06
6.21209e-06
-1.93655e-06
5.80889e-06
-1.40903e-06
5.78162e-06
-1.78496e-06
6.25011e-06
-2.28072e-06
6.1738e-06
-1.73592e-06
5.76885e-06
-1.40728e-06
5.85823e-06
-1.90161e-06
6.18039e-06
-2.13439e-06
6.13591e-06
-1.76775e-06
5.91388e-06
-1.59019e-06
5.8465e-06
-1.74486e-06
5.99556e-06
-1.96129e-06
6.113e-06
-1.92967e-06
6.02333e-06
-1.72255e-06
5.92194e-06
-1.71085e-06
5.94688e-06
-1.83717e-06
6.00812e-06
-1.87347e-06
6.03493e-06
-1.83904e-06
6.02758e-06
-1.80488e-06
6.0198e-06
-1.80445e-06
6.00417e-06
-1.7966e-06
5.98987e-06
-1.79793e-06
5.98288e-06
-1.80524e-06
5.98377e-06
-1.81311e-06
5.98861e-06
-1.81707e-06
5.99129e-06
-1.81491e-06
5.98795e-06
-1.80889e-06
5.98748e-06
-1.81176e-06
5.99148e-06
-1.81623e-06
5.99357e-06
-1.81431e-06
5.99234e-06
-1.811e-06
5.99126e-06
-1.81115e-06
5.99123e-06
-1.8122e-06
5.99156e-06
-1.81255e-06
5.99184e-06
-1.81251e-06
5.99213e-06
-1.81252e-06
5.99233e-06
-1.81244e-06
5.99245e-06
-1.81234e-06
5.99263e-06
-1.81241e-06
5.99268e-06
-1.81228e-06
5.99262e-06
-1.81217e-06
5.99276e-06
-1.81237e-06
5.99265e-06
-1.81212e-06
5.99238e-06
-1.81196e-06
5.99249e-06
-1.81234e-06
5.9927e-06
-1.81244e-06
5.99277e-06
-1.8123e-06
5.99273e-06
-1.81218e-06
5.99272e-06
-1.81222e-06
5.99279e-06
-1.81231e-06
5.99278e-06
-1.81222e-06
5.99294e-06
-1.81239e-06
5.99305e-06
-1.81234e-06
5.99298e-06
-1.81215e-06
5.99303e-06
-1.81229e-06
5.99278e-06
-1.81198e-06
5.99294e-06
-1.81239e-06
5.99347e-06
-1.81276e-06
5.99296e-06
-1.81173e-06
5.99276e-06
-1.81203e-06
5.99347e-06
-1.81294e-06
5.99367e-06
-1.81243e-06
5.99341e-06
-1.81197e-06
5.99307e-06
-1.81189e-06
5.99324e-06
-1.8124e-06
5.99395e-06
-1.81295e-06
5.99392e-06
-1.8122e-06
5.99314e-06
-1.81145e-06
5.99344e-06
-1.81252e-06
5.99423e-06
-1.81302e-06
5.99389e-06
-1.81189e-06
5.99356e-06
-1.8119e-06
5.99388e-06
-1.81255e-06
5.99405e-06
-1.8124e-06
5.99391e-06
-1.81209e-06
5.99371e-06
-1.81203e-06
5.99416e-06
-1.81268e-06
5.99464e-06
-1.81272e-06
5.99397e-06
-1.81156e-06
5.99386e-06
-1.81212e-06
5.99489e-06
-1.81326e-06
5.99474e-06
-1.81208e-06
5.99344e-06
-1.81093e-06
5.99457e-06
-1.81336e-06
5.99568e-06
-1.81334e-06
5.99348e-06
-1.81003e-06
5.99546e-06
-1.81421e-06
5.99546e-06
-1.81224e-06
5.99274e-06
-1.80951e-06
5.99693e-06
-1.81643e-06
5.99359e-06
-1.80889e-06
5.99397e-06
-1.8126e-06
6.00008e-06
-1.81834e-06
5.99014e-06
-1.80229e-06
5.99336e-06
-1.81545e-06
6.0047e-06
-1.82356e-06
5.98838e-06
-1.79592e-06
5.99096e-06
-1.8148e-06
6.00887e-06
-1.83014e-06
5.98781e-06
-1.79118e-06
5.98814e-06
-1.81255e-06
6.01214e-06
-1.83624e-06
5.98989e-06
-1.78998e-06
5.98326e-06
-1.8056e-06
6.0143e-06
-1.84327e-06
5.99645e-06
-1.79438e-06
5.97977e-06
-1.79554e-06
6.00768e-06
-1.84015e-06
6.00066e-06
-1.80521e-06
5.98623e-06
-1.7978e-06
6.00358e-06
-1.82958e-06
5.99461e-06
-1.80326e-06
5.99001e-06
-1.80763e-06
6.0104e-06
-1.83262e-06
5.99431e-06
-1.79614e-06
5.98444e-06
-1.80236e-06
6.01054e-06
-1.83833e-06
5.99956e-06
-1.80125e-06
5.98632e-06
-1.79899e-06
6.00752e-06
-1.83344e-06
5.99657e-06
-1.80128e-06
5.9869e-06
-1.80256e-06
6.01085e-06
-1.83617e-06
5.99905e-06
-1.80043e-06
5.98604e-06
-1.79922e-06
6.0085e-06
-1.83469e-06
5.99763e-06
-1.80136e-06
5.98544e-06
-1.80004e-06
6.00882e-06
-1.83561e-06
5.99859e-06
-1.80201e-06
5.98591e-06
-1.79955e-06
6.00927e-06
-1.83559e-06
5.99943e-06
-1.80239e-06
5.98623e-06
-1.79903e-06
6.00951e-06
-1.83551e-06
6.00011e-06
-1.80283e-06
5.98657e-06
-1.7987e-06
6.0098e-06
-1.83545e-06
6.00076e-06
-1.80319e-06
5.98685e-06
-1.79833e-06
6.01013e-06
-1.8355e-06
6.00151e-06
-1.80361e-06
5.98714e-06
-1.79787e-06
6.01038e-06
-1.83547e-06
6.00226e-06
-1.80411e-06
5.98752e-06
-1.79749e-06
6.01062e-06
-1.83533e-06
6.00297e-06
-1.80458e-06
5.98796e-06
-1.79722e-06
6.01093e-06
-1.8352e-06
6.00364e-06
-1.80494e-06
5.98835e-06
-1.79694e-06
6.01129e-06
-1.83517e-06
6.00432e-06
-1.80526e-06
5.98882e-06
-1.79672e-06
6.01156e-06
-1.83497e-06
6.00508e-06
-1.80576e-06
5.98923e-06
-1.79638e-06
6.01185e-06
-1.83484e-06
6.00614e-06
-1.80652e-06
5.98903e-06
-1.79512e-06
6.01267e-06
-1.83588e-06
6.00615e-06
-1.80571e-06
5.99009e-06
-1.79617e-06
6.01276e-06
-1.8349e-06
6.00625e-06
-1.80572e-06
5.99223e-06
-1.79821e-06
6.01069e-06
-1.83069e-06
6.01072e-06
-1.81227e-06
5.98899e-06
-1.7905e-06
6.01333e-06
-1.83657e-06
6.00895e-06
-1.80785e-06
5.99166e-06
-1.79494e-06
6.01112e-06
-1.8317e-06
6.0067e-06
-1.8078e-06
6.00519e-06
-1.81073e-06
5.99727e-06
-1.8043e-06
6.01271e-06
-1.82768e-06
6.00162e-06
-1.80114e-06
6.00909e-06
-1.8197e-06
6.00242e-06
-1.80556e-06
6.00358e-06
-1.81339e-06
6.00766e-06
-1.81631e-06
6.01005e-06
-1.81462e-06
6.00691e-06
-1.80909e-06
5.99596e-06
-1.80128e-06
6.0114e-06
-1.82767e-06
6.01008e-06
-1.81092e-06
6.01055e-06
-1.8127e-06
5.99442e-06
-1.7961e-06
6.0124e-06
-1.83021e-06
6.00366e-06
-1.80349e-06
6.01293e-06
-1.8215e-06
5.99731e-06
-1.79662e-06
6.01101e-06
-1.82592e-06
5.99808e-06
-1.7993e-06
6.01294e-06
-1.82709e-06
5.99751e-06
-1.7968e-06
6.01139e-06
-1.82611e-06
5.99914e-06
-1.79998e-06
5.97248e-06
-1.78557e-06
6.25912e-06
-2.09887e-06
7.23367e-06
-2.78678e-06
7.55177e-06
-2.13033e-06
6.90948e-06
-1.16994e-06
6.89035e-06
-1.7931e-06
-1.79334e-06
1.68775e-05
1.6616e-05
1.40454e-05
3.76331e-06
1.30682e-05
-4.84345e-07
1.28018e-05
-1.50525e-06
1.26154e-05
-1.60209e-06
1.2475e-05
-1.628e-06
1.2388e-05
-1.70847e-06
1.23319e-05
-1.73657e-06
1.23031e-05
-1.78228e-06
1.22925e-05
-1.8004e-06
1.22939e-05
-1.82178e-06
1.23029e-05
-1.82886e-06
1.23234e-05
-1.84813e-06
1.23476e-05
-1.85196e-06
1.23783e-05
-1.86172e-06
1.24133e-05
-1.86768e-06
1.24527e-05
-1.87416e-06
1.24943e-05
-1.87691e-06
1.25384e-05
-1.88094e-06
1.25866e-05
-1.88713e-06
1.26376e-05
-1.89118e-06
1.26904e-05
-1.89376e-06
1.2745e-05
-1.89626e-06
1.28005e-05
-1.89743e-06
1.28576e-05
-1.89977e-06
1.29138e-05
-1.89816e-06
1.29652e-05
-1.89057e-06
1.30098e-05
-1.87989e-06
1.30479e-05
-1.86985e-06
1.30802e-05
-1.86073e-06
1.31075e-05
-1.85305e-06
1.31304e-05
-1.84633e-06
1.31496e-05
-1.84079e-06
1.31656e-05
-1.83602e-06
1.31791e-05
-1.83213e-06
1.31903e-05
-1.82882e-06
1.31997e-05
-1.82612e-06
1.32076e-05
-1.82386e-06
1.32142e-05
-1.82201e-06
1.32198e-05
-1.82047e-06
1.32245e-05
-1.81919e-06
1.32285e-05
-1.81814e-06
1.3232e-05
-1.81734e-06
1.32349e-05
-1.8165e-06
1.32375e-05
-1.81603e-06
1.32395e-05
-1.81518e-06
1.32412e-05
-1.81501e-06
1.32427e-05
-1.81449e-06
1.32442e-05
-1.8145e-06
1.32452e-05
-1.81348e-06
1.32463e-05
-1.81445e-06
1.32466e-05
-1.8117e-06
1.32481e-05
-1.81588e-06
1.32471e-05
-1.80846e-06
1.32497e-05
-1.82005e-06
1.32471e-05
-1.80201e-06
1.3257e-05
-1.83725e-06
1.32772e-05
-1.82284e-06
1.32794e-05
-1.8132e-06
1.20257e-05
3.02713e-07
1.09561e-05
-2.08231e-07
1.10526e-05
-2.1439e-06
1.1155e-05
-1.9801e-06
1.13138e-05
-2.08359e-06
1.139e-05
-1.90848e-06
1.14657e-05
-1.93658e-06
1.14938e-05
-1.83729e-06
1.15382e-05
-1.88819e-06
1.15328e-05
-1.78818e-06
1.15745e-05
-1.88855e-06
1.15537e-05
-1.76814e-06
1.15293e-05
-1.77296e-06
1.15557e-05
-1.85125e-06
1.16192e-05
-1.91766e-06
1.15713e-05
-1.73297e-06
1.14614e-05
-1.63601e-06
1.15073e-05
-1.87607e-06
1.16688e-05
-2.09329e-06
1.15708e-05
-1.6266e-06
1.15366e-05
-1.76543e-06
1.15212e-05
-1.81188e-06
1.13867e-05
-1.57879e-06
1.1432e-05
-1.8956e-06
1.15182e-05
-1.94603e-06
1.15228e-05
-1.80138e-06
1.15975e-05
-1.93481e-06
1.16267e-05
-1.88031e-06
1.14245e-05
-1.45526e-06
1.15193e-05
-1.97064e-06
1.17858e-05
-2.27468e-06
1.15278e-05
-1.37255e-06
1.12593e-05
-1.33937e-06
1.16823e-05
-2.54851e-06
1.18366e-05
-2.09085e-06
1.12734e-05
-8.45805e-07
1.12466e-05
-1.75825e-06
1.19105e-05
-2.94453e-06
1.18201e-05
-1.64556e-06
1.12167e-05
-8.03871e-07
1.13144e-05
-1.99929e-06
1.18157e-05
-2.63573e-06
1.1804e-05
-1.75601e-06
1.14435e-05
-1.22969e-06
1.12966e-05
-1.59795e-06
1.15323e-05
-2.19699e-06
1.17466e-05
-2.14405e-06
1.16197e-05
-1.59562e-06
1.14364e-05
-1.52749e-06
1.14512e-05
-1.852e-06
1.15633e-05
-1.98559e-06
1.16293e-05
-1.90501e-06
1.16224e-05
-1.79805e-06
1.16008e-05
-1.78279e-06
1.15676e-05
-1.76346e-06
1.15365e-05
-1.76675e-06
1.15213e-05
-1.7901e-06
1.1523e-05
-1.8148e-06
1.15334e-05
-1.82748e-06
1.15398e-05
-1.82131e-06
1.15357e-05
-1.80478e-06
1.1535e-05
-1.81106e-06
1.15416e-05
-1.82283e-06
1.15461e-05
-1.8188e-06
1.15445e-05
-1.80945e-06
1.15423e-05
-1.80891e-06
1.15418e-05
-1.81172e-06
1.15424e-05
-1.81315e-06
1.15431e-05
-1.8132e-06
1.15438e-05
-1.81327e-06
1.15444e-05
-1.81301e-06
1.15447e-05
-1.81259e-06
1.15449e-05
-1.81268e-06
1.1545e-05
-1.81234e-06
1.15449e-05
-1.81206e-06
1.1545e-05
-1.8125e-06
1.15449e-05
-1.81203e-06
1.15447e-05
-1.81173e-06
1.15448e-05
-1.81243e-06
1.15451e-05
-1.81272e-06
1.15452e-05
-1.81247e-06
1.1545e-05
-1.81201e-06
1.1545e-05
-1.81215e-06
1.15451e-05
-1.81244e-06
1.15451e-05
-1.81221e-06
1.15453e-05
-1.81261e-06
1.15454e-05
-1.81246e-06
1.15454e-05
-1.81207e-06
1.15455e-05
-1.81242e-06
1.15452e-05
-1.81169e-06
1.15455e-05
-1.81268e-06
1.15462e-05
-1.81347e-06
1.15456e-05
-1.81109e-06
1.15454e-05
-1.81183e-06
1.15464e-05
-1.81397e-06
1.15469e-05
-1.81287e-06
1.15465e-05
-1.81157e-06
1.15459e-05
-1.81131e-06
1.15463e-05
-1.81277e-06
1.15474e-05
-1.81411e-06
1.15474e-05
-1.81215e-06
1.15463e-05
-1.81033e-06
1.15467e-05
-1.81298e-06
1.15479e-05
-1.8142e-06
1.15475e-05
-1.81152e-06
1.1547e-05
-1.81141e-06
1.15474e-05
-1.81296e-06
1.15478e-05
-1.81273e-06
1.15476e-05
-1.81197e-06
1.15474e-05
-1.81181e-06
1.15481e-05
-1.81339e-06
1.15488e-05
-1.81342e-06
1.1548e-05
-1.8107e-06
1.15479e-05
-1.8121e-06
1.15494e-05
-1.81475e-06
1.15492e-05
-1.81182e-06
1.15476e-05
-1.80934e-06
1.15491e-05
-1.8149e-06
1.15504e-05
-1.81462e-06
1.1548e-05
-1.80765e-06
1.15504e-05
-1.81653e-06
1.15501e-05
-1.81199e-06
1.15474e-05
-1.80679e-06
1.15522e-05
-1.82121e-06
1.15484e-05
-1.80514e-06
1.15495e-05
-1.81369e-06
1.15562e-05
-1.82502e-06
1.15442e-05
-1.79035e-06
1.15489e-05
-1.82009e-06
1.15621e-05
-1.8368e-06
1.15422e-05
-1.77602e-06
1.1546e-05
-1.81854e-06
1.15673e-05
-1.85151e-06
1.15419e-05
-1.76579e-06
1.1543e-05
-1.81358e-06
1.15718e-05
-1.86509e-06
1.15443e-05
-1.76249e-06
1.15372e-05
-1.79851e-06
1.15744e-05
-1.88043e-06
1.15533e-05
-1.7733e-06
1.15338e-05
-1.77607e-06
1.15663e-05
-1.87258e-06
1.15593e-05
-1.79822e-06
1.15423e-05
-1.78084e-06
1.1561e-05
-1.84822e-06
1.15508e-05
-1.79307e-06
1.15471e-05
-1.80399e-06
1.15706e-05
-1.85612e-06
1.15507e-05
-1.77619e-06
1.15401e-05
-1.79182e-06
1.15708e-05
-1.86901e-06
1.15586e-05
-1.78901e-06
1.15435e-05
-1.7839e-06
1.15661e-05
-1.85603e-06
1.15538e-05
-1.78894e-06
1.15447e-05
-1.79347e-06
1.15718e-05
-1.86335e-06
1.1558e-05
-1.78662e-06
1.15433e-05
-1.78451e-06
1.15677e-05
-1.85902e-06
1.15552e-05
-1.7889e-06
1.15424e-05
-1.78723e-06
1.15684e-05
-1.86166e-06
1.15569e-05
-1.79048e-06
1.15435e-05
-1.78611e-06
1.15696e-05
-1.86175e-06
1.15584e-05
-1.79119e-06
1.15442e-05
-1.78479e-06
1.15703e-05
-1.86161e-06
1.15596e-05
-1.79214e-06
1.15449e-05
-1.784e-06
1.1571e-05
-1.86157e-06
1.15607e-05
-1.79289e-06
1.15455e-05
-1.78312e-06
1.15718e-05
-1.8618e-06
1.1562e-05
-1.79379e-06
1.15461e-05
-1.78199e-06
1.15725e-05
-1.86183e-06
1.15633e-05
-1.79488e-06
1.15468e-05
-1.78106e-06
1.15731e-05
-1.86163e-06
1.15645e-05
-1.7959e-06
1.15476e-05
-1.78039e-06
1.15738e-05
-1.86143e-06
1.15656e-05
-1.79665e-06
1.15483e-05
-1.77971e-06
1.15746e-05
-1.86145e-06
1.15667e-05
-1.79736e-06
1.15491e-05
-1.77914e-06
1.15753e-05
-1.86117e-06
1.1568e-05
-1.79841e-06
1.15497e-05
-1.77814e-06
1.15761e-05
-1.8612e-06
1.15694e-05
-1.79983e-06
1.15497e-05
-1.77542e-06
1.15768e-05
-1.86295e-06
1.15696e-05
-1.79855e-06
1.15516e-05
-1.7782e-06
1.15776e-05
-1.86082e-06
1.15707e-05
-1.79882e-06
1.15536e-05
-1.7811e-06
1.15763e-05
-1.85341e-06
1.15754e-05
-1.81143e-06
1.155e-05
-1.76504e-06
1.15774e-05
-1.86397e-06
1.15734e-05
-1.80384e-06
1.15545e-05
-1.77608e-06
1.15754e-05
-1.85254e-06
1.15743e-05
-1.80677e-06
1.15677e-05
-1.80407e-06
1.15595e-05
-1.79615e-06
1.15778e-05
-1.8459e-06
1.15675e-05
-1.79091e-06
1.15734e-05
-1.82552e-06
1.15668e-05
-1.79906e-06
1.15674e-05
-1.81394e-06
1.15727e-05
-1.82159e-06
1.15768e-05
-1.81875e-06
1.15699e-05
-1.80215e-06
1.15585e-05
-1.78989e-06
1.15767e-05
-1.84592e-06
1.15803e-05
-1.81448e-06
1.1575e-05
-1.80745e-06
1.15565e-05
-1.7776e-06
1.15749e-05
-1.84856e-06
1.15716e-05
-1.80019e-06
1.15785e-05
-1.82837e-06
1.15624e-05
-1.78061e-06
1.1573e-05
-1.8365e-06
1.1562e-05
-1.78828e-06
1.15759e-05
-1.84097e-06
1.15609e-05
-1.78185e-06
1.15735e-05
-1.83874e-06
1.15611e-05
-1.78753e-06
1.14728e-05
-1.69729e-06
1.18814e-05
-2.50743e-06
1.34775e-05
-4.38287e-06
1.42979e-05
-2.95079e-06
1.35808e-05
-4.52806e-07
1.3359e-05
-1.57129e-06
-1.75297e-06
2.05334e-05
1.8541e-05
1.81926e-05
6.10409e-06
1.69495e-05
7.58816e-07
1.63977e-05
-9.53461e-07
1.60116e-05
-1.21595e-06
1.57843e-05
-1.40074e-06
1.56307e-05
-1.55488e-06
1.55347e-05
-1.64059e-06
1.54756e-05
-1.72317e-06
1.54477e-05
-1.77243e-06
1.54357e-05
-1.80984e-06
1.54394e-05
-1.83253e-06
1.54557e-05
-1.86448e-06
1.54792e-05
-1.87544e-06
1.55121e-05
-1.89457e-06
1.55509e-05
-1.90648e-06
1.55958e-05
-1.91912e-06
1.56445e-05
-1.9256e-06
1.56963e-05
-1.93271e-06
1.57533e-05
-1.94412e-06
1.58141e-05
-1.95197e-06
1.58776e-05
-1.95726e-06
1.59434e-05
-1.96209e-06
1.60107e-05
-1.96475e-06
1.60803e-05
-1.96934e-06
1.61488e-05
-1.96665e-06
1.62113e-05
-1.95313e-06
1.62661e-05
-1.93467e-06
1.63133e-05
-1.91706e-06
1.63536e-05
-1.90101e-06
1.63878e-05
-1.88724e-06
1.64167e-05
-1.8752e-06
1.6441e-05
-1.86511e-06
1.64614e-05
-1.85644e-06
1.64785e-05
-1.84927e-06
1.64929e-05
-1.8432e-06
1.6505e-05
-1.83817e-06
1.65151e-05
-1.83402e-06
1.65236e-05
-1.83052e-06
1.65309e-05
-1.8277e-06
1.65369e-05
-1.82525e-06
1.65421e-05
-1.82333e-06
1.65465e-05
-1.82175e-06
1.65503e-05
-1.82029e-06
1.65536e-05
-1.81929e-06
1.65562e-05
-1.81781e-06
1.65586e-05
-1.81742e-06
1.65606e-05
-1.81653e-06
1.65624e-05
-1.81631e-06
1.65638e-05
-1.81487e-06
1.6565e-05
-1.81567e-06
1.65659e-05
-1.81252e-06
1.6567e-05
-1.81702e-06
1.65676e-05
-1.80908e-06
1.65691e-05
-1.82152e-06
1.6569e-05
-1.80191e-06
1.65753e-05
-1.84354e-06
1.66082e-05
-1.85579e-06
1.6601e-05
-1.80599e-06
1.5329e-05
1.57471e-06
1.40696e-05
1.05124e-06
1.39664e-05
-2.04078e-06
1.40357e-05
-2.04937e-06
1.41896e-05
-2.23751e-06
1.42846e-05
-2.0035e-06
1.43739e-05
-2.02588e-06
1.44232e-05
-1.88655e-06
1.44742e-05
-1.93917e-06
1.44817e-05
-1.79573e-06
1.45255e-05
-1.93236e-06
1.45109e-05
-1.75347e-06
1.44864e-05
-1.74854e-06
1.45167e-05
-1.88147e-06
1.45837e-05
-1.98467e-06
1.45374e-05
-1.68668e-06
1.44234e-05
-1.52203e-06
1.44708e-05
-1.92349e-06
1.46303e-05
-2.25281e-06
1.45456e-05
-1.54189e-06
1.45029e-05
-1.72268e-06
1.44736e-05
-1.78261e-06
1.43393e-05
-1.44444e-06
1.43724e-05
-1.92874e-06
1.44646e-05
-2.0382e-06
1.44873e-05
-1.82408e-06
1.45666e-05
-2.01416e-06
1.4593e-05
-1.90671e-06
1.44052e-05
-1.26744e-06
1.44906e-05
-2.05599e-06
1.47332e-05
-2.51732e-06
1.44989e-05
-1.13825e-06
1.42419e-05
-1.08235e-06
1.46335e-05
-2.94016e-06
1.48013e-05
-2.25868e-06
1.42544e-05
-2.98908e-07
1.41959e-05
-1.69971e-06
1.48461e-05
-3.59477e-06
1.48136e-05
-1.61305e-06
1.42085e-05
-1.9872e-07
1.42377e-05
-2.02847e-06
1.47586e-05
-3.15665e-06
1.48134e-05
-1.81081e-06
1.44311e-05
-8.47391e-07
1.42422e-05
-1.4091e-06
1.44786e-05
-2.43342e-06
1.47163e-05
-2.38171e-06
1.46108e-05
-1.49012e-06
1.44081e-05
-1.32477e-06
1.4397e-05
-1.84096e-06
1.45197e-05
-2.10826e-06
1.46059e-05
-1.99116e-06
1.46068e-05
-1.79899e-06
1.45818e-05
-1.75777e-06
1.45422e-05
-1.72384e-06
1.45035e-05
-1.72808e-06
1.44833e-05
-1.76991e-06
1.44835e-05
-1.81496e-06
1.4495e-05
-1.83906e-06
1.4503e-05
-1.82932e-06
1.44997e-05
-1.80138e-06
1.4499e-05
-1.81036e-06
1.4506e-05
-1.82991e-06
1.45115e-05
-1.82429e-06
1.45104e-05
-1.80835e-06
1.45079e-05
-1.8064e-06
1.45072e-05
-1.81094e-06
1.45078e-05
-1.81378e-06
1.45086e-05
-1.81406e-06
1.45095e-05
-1.81417e-06
1.45102e-05
-1.81373e-06
1.45106e-05
-1.81298e-06
1.4511e-05
-1.81306e-06
1.45112e-05
-1.81257e-06
1.45113e-05
-1.8121e-06
1.45113e-05
-1.81253e-06
1.45112e-05
-1.81187e-06
1.4511e-05
-1.81155e-06
1.4511e-05
-1.81249e-06
1.45111e-05
-1.81281e-06
1.45111e-05
-1.81247e-06
1.4511e-05
-1.8119e-06
1.4511e-05
-1.81218e-06
1.45112e-05
-1.81258e-06
1.45112e-05
-1.81227e-06
1.45115e-05
-1.81286e-06
1.45116e-05
-1.81258e-06
1.45116e-05
-1.81205e-06
1.45118e-05
-1.81259e-06
1.45115e-05
-1.81145e-06
1.45118e-05
-1.81299e-06
1.45125e-05
-1.8142e-06
1.4512e-05
-1.81058e-06
1.45118e-05
-1.81161e-06
1.45128e-05
-1.81497e-06
1.45134e-05
-1.81343e-06
1.4513e-05
-1.81122e-06
1.45124e-05
-1.81071e-06
1.45128e-05
-1.81314e-06
1.4514e-05
-1.81536e-06
1.45141e-05
-1.81218e-06
1.4513e-05
-1.80926e-06
1.45134e-05
-1.81338e-06
1.45146e-05
-1.81536e-06
1.45143e-05
-1.81126e-06
1.45138e-05
-1.81093e-06
1.45142e-05
-1.81335e-06
1.45147e-05
-1.81316e-06
1.45146e-05
-1.81192e-06
1.45144e-05
-1.81162e-06
1.45151e-05
-1.81408e-06
1.45158e-05
-1.81414e-06
1.45151e-05
-1.80997e-06
1.45151e-05
-1.81212e-06
1.45166e-05
-1.81622e-06
1.45164e-05
-1.81165e-06
1.4515e-05
-1.80788e-06
1.45164e-05
-1.81631e-06
1.45176e-05
-1.81588e-06
1.45156e-05
-1.80564e-06
1.45175e-05
-1.81842e-06
1.45175e-05
-1.81196e-06
1.45154e-05
-1.80466e-06
1.45195e-05
-1.82539e-06
1.45166e-05
-1.80219e-06
1.45174e-05
-1.8145e-06
1.45232e-05
-1.83082e-06
1.45132e-05
-1.78037e-06
1.45168e-05
-1.8237e-06
1.45286e-05
-1.84861e-06
1.45118e-05
-1.75921e-06
1.45142e-05
-1.82093e-06
1.45334e-05
-1.87067e-06
1.45119e-05
-1.74427e-06
1.45117e-05
-1.8134e-06
1.45379e-05
-1.89135e-06
1.45139e-05
-1.73845e-06
1.45063e-05
-1.79089e-06
1.45398e-05
-1.91396e-06
1.45226e-05
-1.75606e-06
1.45042e-05
-1.75767e-06
1.45321e-05
-1.90052e-06
1.45284e-05
-1.79446e-06
1.45131e-05
-1.76564e-06
1.45286e-05
-1.86365e-06
1.45202e-05
-1.78467e-06
1.45169e-05
-1.80068e-06
1.45384e-05
-1.8777e-06
1.45205e-05
-1.75828e-06
1.45099e-05
-1.78121e-06
1.45377e-05
-1.89674e-06
1.45285e-05
-1.77985e-06
1.45146e-05
-1.76998e-06
1.4534e-05
-1.87545e-06
1.45236e-05
-1.77851e-06
1.4515e-05
-1.78492e-06
1.45394e-05
-1.88778e-06
1.45283e-05
-1.77544e-06
1.45144e-05
-1.77068e-06
1.45353e-05
-1.87987e-06
1.4525e-05
-1.77862e-06
1.4513e-05
-1.77522e-06
1.45359e-05
-1.88459e-06
1.45269e-05
-1.78144e-06
1.45145e-05
-1.77378e-06
1.45373e-05
-1.88456e-06
1.45286e-05
-1.7825e-06
1.45156e-05
-1.77179e-06
1.45382e-05
-1.88418e-06
1.453e-05
-1.78394e-06
1.45166e-05
-1.77064e-06
1.45391e-05
-1.88402e-06
1.45313e-05
-1.78509e-06
1.45175e-05
-1.76936e-06
1.454e-05
-1.88429e-06
1.45327e-05
-1.7865e-06
1.45184e-05
-1.76769e-06
1.45408e-05
-1.88422e-06
1.45342e-05
-1.78821e-06
1.45194e-05
-1.76633e-06
1.45416e-05
-1.8838e-06
1.45355e-05
-1.7898e-06
1.45205e-05
-1.76537e-06
1.45425e-05
-1.88342e-06
1.45368e-05
-1.79095e-06
1.45215e-05
-1.76439e-06
1.45434e-05
-1.88337e-06
1.45381e-05
-1.79206e-06
1.45225e-05
-1.76355e-06
1.45442e-05
-1.88284e-06
1.45395e-05
-1.7937e-06
1.45234e-05
-1.76206e-06
1.4545e-05
-1.88277e-06
1.45409e-05
-1.79582e-06
1.45238e-05
-1.75826e-06
1.4546e-05
-1.88519e-06
1.45415e-05
-1.79399e-06
1.45256e-05
-1.7623e-06
1.45469e-05
-1.88214e-06
1.45426e-05
-1.79459e-06
1.45274e-05
-1.76582e-06
1.45464e-05
-1.87249e-06
1.45469e-05
-1.81186e-06
1.45243e-05
-1.74244e-06
1.4547e-05
-1.88672e-06
1.45456e-05
-1.80243e-06
1.45289e-05
-1.75942e-06
1.4546e-05
-1.86963e-06
1.45471e-05
-1.80787e-06
1.45397e-05
-1.79659e-06
1.45324e-05
-1.78888e-06
1.45487e-05
-1.86228e-06
1.45408e-05
-1.78298e-06
1.45451e-05
-1.82977e-06
1.45395e-05
-1.79344e-06
1.45396e-05
-1.81405e-06
1.45449e-05
-1.82691e-06
1.45487e-05
-1.8226e-06
1.45419e-05
-1.79533e-06
1.45318e-05
-1.77975e-06
1.45479e-05
-1.862e-06
1.45534e-05
-1.82001e-06
1.45476e-05
-1.80166e-06
1.45303e-05
-1.7603e-06
1.45449e-05
-1.86312e-06
1.45451e-05
-1.80042e-06
1.45506e-05
-1.83383e-06
1.45365e-05
-1.76659e-06
1.45436e-05
-1.84357e-06
1.45348e-05
-1.77944e-06
1.45462e-05
-1.85238e-06
1.45337e-05
-1.76933e-06
1.4544e-05
-1.84905e-06
1.45326e-05
-1.77612e-06
1.44209e-05
-1.58558e-06
1.4813e-05
-2.89958e-06
1.65412e-05
-6.11112e-06
1.76152e-05
-4.02477e-06
1.70711e-05
9.13324e-08
1.67959e-05
-1.29609e-06
-1.6822e-06
2.24118e-05
1.85875e-05
2.1015e-05
7.5009e-06
1.98784e-05
1.89538e-06
1.90546e-05
-1.29674e-07
1.84708e-05
-6.32161e-07
1.81326e-05
-1.06251e-06
1.79008e-05
-1.32306e-06
1.77583e-05
-1.49808e-06
1.7665e-05
-1.62993e-06
1.76129e-05
-1.72026e-06
1.75826e-05
-1.77957e-06
1.75752e-05
-1.82516e-06
1.75827e-05
-1.87201e-06
1.76007e-05
-1.89341e-06
1.76303e-05
-1.9242e-06
1.76677e-05
-1.94382e-06
1.77131e-05
-1.96453e-06
1.77636e-05
-1.97613e-06
1.7818e-05
-1.98712e-06
1.78785e-05
-2.00452e-06
1.79435e-05
-2.01702e-06
1.8012e-05
-2.02575e-06
1.80833e-05
-2.03343e-06
1.81568e-05
-2.03826e-06
1.8233e-05
-2.04547e-06
1.83075e-05
-2.04113e-06
1.83751e-05
-2.02078e-06
1.84346e-05
-1.99413e-06
1.84861e-05
-1.96857e-06
1.85303e-05
-1.94522e-06
1.8568e-05
-1.92498e-06
1.86e-05
-1.90719e-06
1.86271e-05
-1.89215e-06
1.86499e-05
-1.87923e-06
1.8669e-05
-1.86844e-06
1.86852e-05
-1.85935e-06
1.86987e-05
-1.85172e-06
1.87102e-05
-1.84546e-06
1.87198e-05
-1.84012e-06
1.87279e-05
-1.83586e-06
1.87348e-05
-1.83208e-06
1.87406e-05
-1.82919e-06
1.87456e-05
-1.82671e-06
1.87499e-05
-1.82456e-06
1.87535e-05
-1.82293e-06
1.87565e-05
-1.8208e-06
1.87592e-05
-1.82012e-06
1.87615e-05
-1.81884e-06
1.87635e-05
-1.81832e-06
1.87651e-05
-1.81646e-06
1.87664e-05
-1.81696e-06
1.87675e-05
-1.81362e-06
1.87685e-05
-1.81806e-06
1.87693e-05
-1.8099e-06
1.87703e-05
-1.82246e-06
1.87713e-05
-1.8029e-06
1.87754e-05
-1.84767e-06
1.88123e-05
-1.89271e-06
1.87914e-05
-1.78503e-06
1.76286e-05
2.73748e-06
1.63413e-05
2.33858e-06
1.60609e-05
-1.76044e-06
1.60704e-05
-2.0589e-06
1.61891e-05
-2.35618e-06
1.62785e-05
-2.09285e-06
1.63704e-05
-2.11782e-06
1.64295e-05
-1.94563e-06
1.6485e-05
-1.99467e-06
1.65028e-05
-1.8135e-06
1.65467e-05
-1.97627e-06
1.65382e-05
-1.74499e-06
1.65181e-05
-1.72846e-06
1.65474e-05
-1.91074e-06
1.66094e-05
-2.04671e-06
1.65729e-05
-1.6501e-06
1.64732e-05
-1.42236e-06
1.651e-05
-1.96033e-06
1.66496e-05
-2.3924e-06
1.65851e-05
-1.47735e-06
1.65394e-05
-1.67699e-06
1.65065e-05
-1.74972e-06
1.63862e-05
-1.32418e-06
1.64014e-05
-1.94389e-06
1.64855e-05
-2.12234e-06
1.65215e-05
-1.86009e-06
1.65965e-05
-2.08913e-06
1.66246e-05
-1.93482e-06
1.64702e-05
-1.113e-06
1.65362e-05
-2.12205e-06
1.67365e-05
-2.71759e-06
1.65435e-05
-9.4529e-07
1.63156e-05
-8.54461e-07
1.6638e-05
-3.26253e-06
1.68132e-05
-2.43385e-06
1.6362e-05
1.52327e-07
1.62615e-05
-1.59931e-06
1.68025e-05
-4.13574e-06
1.68438e-05
-1.65438e-06
1.63333e-05
3.11804e-07
1.62877e-05
-1.98286e-06
1.67337e-05
-3.60267e-06
1.68408e-05
-1.91791e-06
1.65061e-05
-5.12678e-07
1.6302e-05
-1.20496e-06
1.65013e-05
-2.63273e-06
1.67277e-05
-2.60809e-06
1.66587e-05
-1.42117e-06
1.64718e-05
-1.1378e-06
1.64353e-05
-1.80445e-06
1.65464e-05
-2.21944e-06
1.66412e-05
-2.08591e-06
1.66514e-05
-1.80918e-06
1.66288e-05
-1.73519e-06
1.65883e-05
-1.68336e-06
1.65472e-05
-1.68695e-06
1.65235e-05
-1.74624e-06
1.65211e-05
-1.81255e-06
1.65319e-05
-1.84989e-06
1.65402e-05
-1.83759e-06
1.65378e-05
-1.799e-06
1.65373e-05
-1.80982e-06
1.6544e-05
-1.83667e-06
1.65497e-05
-1.83002e-06
1.65494e-05
-1.80796e-06
1.65471e-05
-1.80415e-06
1.65461e-05
-1.80997e-06
1.65467e-05
-1.81432e-06
1.65476e-05
-1.81497e-06
1.65485e-05
-1.81512e-06
1.65493e-05
-1.81451e-06
1.65498e-05
-1.81345e-06
1.65502e-05
-1.81352e-06
1.65505e-05
-1.81286e-06
1.65506e-05
-1.81218e-06
1.65506e-05
-1.81255e-06
1.65505e-05
-1.81174e-06
1.65504e-05
-1.81145e-06
1.65505e-05
-1.81253e-06
1.65505e-05
-1.81282e-06
1.65504e-05
-1.81243e-06
1.65504e-05
-1.81184e-06
1.65504e-05
-1.81222e-06
1.65505e-05
-1.81268e-06
1.65506e-05
-1.81235e-06
1.65509e-05
-1.81314e-06
1.6551e-05
-1.81272e-06
1.6551e-05
-1.81205e-06
1.65512e-05
-1.81276e-06
1.6551e-05
-1.81128e-06
1.65513e-05
-1.81327e-06
1.6552e-05
-1.81489e-06
1.65516e-05
-1.81021e-06
1.65514e-05
-1.81139e-06
1.65523e-05
-1.81588e-06
1.65529e-05
-1.81406e-06
1.65526e-05
-1.81095e-06
1.65521e-05
-1.81014e-06
1.65524e-05
-1.81345e-06
1.65535e-05
-1.81652e-06
1.65537e-05
-1.81233e-06
1.65528e-05
-1.80838e-06
1.65531e-05
-1.81365e-06
1.65541e-05
-1.81639e-06
1.6554e-05
-1.81119e-06
1.65537e-05
-1.81054e-06
1.6554e-05
-1.8137e-06
1.65544e-05
-1.81359e-06
1.65544e-05
-1.8119e-06
1.65543e-05
-1.81148e-06
1.65549e-05
-1.81473e-06
1.65557e-05
-1.81487e-06
1.65551e-05
-1.80942e-06
1.65551e-05
-1.8121e-06
1.65563e-05
-1.81748e-06
1.65563e-05
-1.81164e-06
1.65551e-05
-1.8067e-06
1.65563e-05
-1.81744e-06
1.65575e-05
-1.81709e-06
1.65559e-05
-1.80409e-06
1.65575e-05
-1.81997e-06
1.65576e-05
-1.8121e-06
1.65559e-05
-1.80292e-06
1.65594e-05
-1.8289e-06
1.65573e-05
-1.80006e-06
1.65578e-05
-1.81501e-06
1.65626e-05
-1.83562e-06
1.65547e-05
-1.77246e-06
1.65573e-05
-1.82631e-06
1.65674e-05
-1.85869e-06
1.65541e-05
-1.7459e-06
1.65552e-05
-1.82212e-06
1.65714e-05
-1.88681e-06
1.65545e-05
-1.72739e-06
1.65533e-05
-1.81215e-06
1.65753e-05
-1.91342e-06
1.65567e-05
-1.71984e-06
1.65486e-05
-1.78273e-06
1.65765e-05
-1.94185e-06
1.65642e-05
-1.74378e-06
1.65471e-05
-1.74057e-06
1.65699e-05
-1.92336e-06
1.6569e-05
-1.79358e-06
1.65557e-05
-1.75228e-06
1.65679e-05
-1.8759e-06
1.65622e-05
-1.77897e-06
1.65589e-05
-1.7973e-06
1.65769e-05
-1.89576e-06
1.65631e-05
-1.74446e-06
1.65525e-05
-1.77065e-06
1.65756e-05
-1.91979e-06
1.65701e-05
-1.77434e-06
1.65574e-05
-1.75732e-06
1.65731e-05
-1.89118e-06
1.65658e-05
-1.77118e-06
1.65576e-05
-1.77672e-06
1.6578e-05
-1.90817e-06
1.65703e-05
-1.76771e-06
1.65574e-05
-1.75783e-06
1.65743e-05
-1.89674e-06
1.6567e-05
-1.77135e-06
1.65558e-05
-1.76395e-06
1.65747e-05
-1.90351e-06
1.65688e-05
-1.77552e-06
1.65574e-05
-1.76246e-06
1.65763e-05
-1.90338e-06
1.65706e-05
-1.77684e-06
1.65588e-05
-1.75992e-06
1.65773e-05
-1.90275e-06
1.6572e-05
-1.77867e-06
1.65599e-05
-1.7585e-06
1.65784e-05
-1.90247e-06
1.65734e-05
-1.78012e-06
1.6561e-05
-1.75693e-06
1.65794e-05
-1.90274e-06
1.65749e-05
-1.78194e-06
1.6562e-05
-1.75485e-06
1.65804e-05
-1.90256e-06
1.65763e-05
-1.78415e-06
1.65631e-05
-1.75318e-06
1.65813e-05
-1.90193e-06
1.65777e-05
-1.7862e-06
1.65643e-05
-1.75203e-06
1.65823e-05
-1.90136e-06
1.6579e-05
-1.78766e-06
1.65654e-05
-1.75084e-06
1.65833e-05
-1.90123e-06
1.65803e-05
-1.7891e-06
1.65666e-05
-1.7498e-06
1.65842e-05
-1.90045e-06
1.65817e-05
-1.79117e-06
1.65676e-05
-1.74798e-06
1.65851e-05
-1.9003e-06
1.65831e-05
-1.79385e-06
1.65682e-05
-1.74335e-06
1.65863e-05
-1.90328e-06
1.6584e-05
-1.79166e-06
1.65699e-05
-1.74824e-06
1.6587e-05
-1.89926e-06
1.65848e-05
-1.79231e-06
1.65715e-05
-1.75252e-06
1.65868e-05
-1.88785e-06
1.65883e-05
-1.81336e-06
1.65696e-05
-1.72375e-06
1.6588e-05
-1.90509e-06
1.65882e-05
-1.80262e-06
1.65735e-05
-1.74472e-06
1.65869e-05
-1.88306e-06
1.65893e-05
-1.81021e-06
1.65828e-05
-1.79016e-06
1.65763e-05
-1.78237e-06
1.65894e-05
-1.87539e-06
1.65839e-05
-1.77746e-06
1.65871e-05
-1.83297e-06
1.65824e-05
-1.78872e-06
1.65822e-05
-1.81388e-06
1.65872e-05
-1.8319e-06
1.65907e-05
-1.82604e-06
1.65851e-05
-1.78973e-06