/*--------------------------------*- C++ -*----------------------------------*\
| =========                 |                                                 |
| \\      /  F ield         | foam-extend: Open Source CFD                    |
|  \\    /   O peration     | Version:     3.2                                |
|   \\  /    A nd           | Web:         http://www.foam-extend.org         |
|    \\/     M anipulation  | For copyright notice see file Copyright         |
\*---------------------------------------------------------------------------*/
FoamFile
{
    version     2.0;
    format      ascii;
    class       surfaceScalarField;
    location    "50";
    object      AdSS2;
}
// * * * * * * * * * * * * * * * * * * * * * * * * * * * * * * * * * * * * * //

dimensions      [0 3 -1 0 0 0 0];

internalField   nonuniform List<scalar> 
10482
(
9.61086e-06
1.05247e-05
6.86745e-06
4.20541e-07
6.51675e-06
-1.97216e-06
6.47618e-06
-2.28229e-06
6.45239e-06
-2.29907e-06
6.40863e-06
-2.2791e-06
6.39188e-06
-2.30611e-06
6.37228e-06
-2.30327e-06
6.37115e-06
-2.32173e-06
6.36987e-06
-2.32158e-06
6.37801e-06
-2.331e-06
6.38568e-06
-2.33053e-06
6.40112e-06
-2.3383e-06
6.41664e-06
-2.33839e-06
6.43538e-06
-2.3416e-06
6.45581e-06
-2.34329e-06
6.47836e-06
-2.34542e-06
6.50143e-06
-2.34593e-06
6.52608e-06
-2.34751e-06
6.55279e-06
-2.34957e-06
6.58074e-06
-2.35082e-06
6.6094e-06
-2.35152e-06
6.63887e-06
-2.35233e-06
6.6686e-06
-2.35259e-06
6.699e-06
-2.35327e-06
6.72869e-06
-2.35255e-06
6.75569e-06
-2.34986e-06
6.77875e-06
-2.34592e-06
6.79822e-06
-2.34233e-06
6.81442e-06
-2.33906e-06
6.82797e-06
-2.33642e-06
6.8392e-06
-2.33409e-06
6.84857e-06
-2.33223e-06
6.85631e-06
-2.3306e-06
6.86278e-06
-2.32933e-06
6.86813e-06
-2.32822e-06
6.87262e-06
-2.32735e-06
6.87636e-06
-2.3266e-06
6.87952e-06
-2.32602e-06
6.88215e-06
-2.3255e-06
6.8844e-06
-2.32512e-06
6.88628e-06
-2.32474e-06
6.88795e-06
-2.32453e-06
6.8893e-06
-2.32421e-06
6.89055e-06
-2.32411e-06
6.89148e-06
-2.3238e-06
6.89259e-06
-2.32398e-06
6.8933e-06
-2.32357e-06
6.89412e-06
-2.32369e-06
6.89437e-06
-2.32311e-06
6.89544e-06
-2.32393e-06
6.89465e-06
-2.32207e-06
6.89682e-06
-2.32504e-06
6.89406e-06
-2.3201e-06
6.89919e-06
-2.32799e-06
6.89159e-06
-2.31526e-06
6.90677e-06
-2.33804e-06
6.89715e-06
-2.31325e-06
6.89589e-06
-2.3216e-06
6.03462e-06
-1.4616e-06
5.50024e-06
-1.78848e-06
5.73544e-06
-2.55805e-06
5.80093e-06
-2.38835e-06
5.91347e-06
-2.43541e-06
5.93355e-06
-2.34294e-06
5.9822e-06
-2.37151e-06
5.97915e-06
-2.31981e-06
6.01072e-06
-2.35443e-06
5.99199e-06
-2.30413e-06
6.02664e-06
-2.35751e-06
6.00338e-06
-2.2996e-06
5.98847e-06
-2.30796e-06
6.00108e-06
-2.33547e-06
6.04303e-06
-2.3648e-06
6.01168e-06
-2.29151e-06
5.94534e-06
-2.25652e-06
5.96331e-06
-2.34084e-06
6.08285e-06
-2.4424e-06
5.99527e-06
-2.23529e-06
5.98265e-06
-2.31024e-06
5.99768e-06
-2.33789e-06
5.89875e-06
-2.22393e-06
5.93686e-06
-2.36097e-06
5.98438e-06
-2.37038e-06
5.96893e-06
-2.30741e-06
6.01688e-06
-2.37082e-06
6.05568e-06
-2.36166e-06
5.9009e-06
-2.16808e-06
5.96458e-06
-2.38655e-06
6.16052e-06
-2.5188e-06
5.97883e-06
-2.14117e-06
5.77446e-06
-2.11849e-06
6.08777e-06
-2.63617e-06
6.21209e-06
-2.44718e-06
5.80889e-06
-1.91966e-06
5.78162e-06
-2.29559e-06
6.25011e-06
-2.79135e-06
6.1738e-06
-2.24655e-06
5.76885e-06
-1.91791e-06
5.85823e-06
-2.41224e-06
6.18039e-06
-2.64502e-06
6.13591e-06
-2.27838e-06
5.91388e-06
-2.10083e-06
5.8465e-06
-2.25549e-06
5.99556e-06
-2.47192e-06
6.113e-06
-2.4403e-06
6.02333e-06
-2.23318e-06
5.92194e-06
-2.22148e-06
5.94688e-06
-2.3478e-06
6.00812e-06
-2.3841e-06
6.03493e-06
-2.34967e-06
6.02758e-06
-2.31551e-06
6.0198e-06
-2.31509e-06
6.00417e-06
-2.30723e-06
5.98987e-06
-2.30856e-06
5.98288e-06
-2.31588e-06
5.98377e-06
-2.32375e-06
5.98861e-06
-2.3277e-06
5.99129e-06
-2.32555e-06
5.98795e-06
-2.31952e-06
5.98748e-06
-2.32239e-06
5.99148e-06
-2.32687e-06
5.99357e-06
-2.32495e-06
5.99234e-06
-2.32164e-06
5.99126e-06
-2.32179e-06
5.99123e-06
-2.32283e-06
5.99156e-06
-2.32319e-06
5.99184e-06
-2.32314e-06
5.99213e-06
-2.32315e-06
5.99233e-06
-2.32307e-06
5.99245e-06
-2.32297e-06
5.99263e-06
-2.32304e-06
5.99268e-06
-2.32291e-06
5.99262e-06
-2.3228e-06
5.99276e-06
-2.323e-06
5.99265e-06
-2.32275e-06
5.99238e-06
-2.32259e-06
5.99249e-06
-2.32297e-06
5.9927e-06
-2.32307e-06
5.99277e-06
-2.32294e-06
5.99273e-06
-2.32282e-06
5.99272e-06
-2.32285e-06
5.99279e-06
-2.32294e-06
5.99278e-06
-2.32285e-06
5.99294e-06
-2.32302e-06
5.99305e-06
-2.32297e-06
5.99298e-06
-2.32278e-06
5.99303e-06
-2.32292e-06
5.99278e-06
-2.32261e-06
5.99294e-06
-2.32302e-06
5.99347e-06
-2.32339e-06
5.99296e-06
-2.32236e-06
5.99276e-06
-2.32266e-06
5.99347e-06
-2.32357e-06
5.99367e-06
-2.32306e-06
5.99341e-06
-2.3226e-06
5.99307e-06
-2.32252e-06
5.99324e-06
-2.32303e-06
5.99395e-06
-2.32358e-06
5.99392e-06
-2.32283e-06
5.99314e-06
-2.32208e-06
5.99344e-06
-2.32316e-06
5.99423e-06
-2.32365e-06
5.99389e-06
-2.32253e-06
5.99356e-06
-2.32253e-06
5.99388e-06
-2.32318e-06
5.99405e-06
-2.32303e-06
5.99391e-06
-2.32272e-06
5.99371e-06
-2.32266e-06
5.99416e-06
-2.32331e-06
5.99464e-06
-2.32335e-06
5.99397e-06
-2.32219e-06
5.99386e-06
-2.32275e-06
5.99489e-06
-2.32389e-06
5.99474e-06
-2.32271e-06
5.99344e-06
-2.32157e-06
5.99457e-06
-2.32399e-06
5.99568e-06
-2.32397e-06
5.99348e-06
-2.32066e-06
5.99546e-06
-2.32484e-06
5.99546e-06
-2.32287e-06
5.99274e-06
-2.32014e-06
5.99693e-06
-2.32706e-06
5.99359e-06
-2.31952e-06
5.99397e-06
-2.32324e-06
6.00008e-06
-2.32898e-06
5.99014e-06
-2.31292e-06
5.99336e-06
-2.32609e-06
6.0047e-06
-2.33419e-06
5.98838e-06
-2.30655e-06
5.99096e-06
-2.32544e-06
6.00887e-06
-2.34077e-06
5.98781e-06
-2.30181e-06
5.98814e-06
-2.32318e-06
6.01214e-06
-2.34687e-06
5.98989e-06
-2.30061e-06
5.98326e-06
-2.31623e-06
6.0143e-06
-2.35391e-06
5.99645e-06
-2.30501e-06
5.97977e-06
-2.30618e-06
6.00768e-06
-2.35078e-06
6.00066e-06
-2.31584e-06
5.98623e-06
-2.30843e-06
6.00358e-06
-2.34021e-06
5.99461e-06
-2.31389e-06
5.99001e-06
-2.31826e-06
6.0104e-06
-2.34325e-06
5.99431e-06
-2.30678e-06
5.98444e-06
-2.31299e-06
6.01054e-06
-2.34896e-06
5.99956e-06
-2.31188e-06
5.98632e-06
-2.30962e-06
6.00752e-06
-2.34407e-06
5.99657e-06
-2.31191e-06
5.9869e-06
-2.31319e-06
6.01085e-06
-2.3468e-06
5.99905e-06
-2.31106e-06
5.98604e-06
-2.30985e-06
6.0085e-06
-2.34533e-06
5.99763e-06
-2.31199e-06
5.98544e-06
-2.31068e-06
6.00882e-06
-2.34624e-06
5.99859e-06
-2.31264e-06
5.98591e-06
-2.31018e-06
6.00927e-06
-2.34622e-06
5.99943e-06
-2.31302e-06
5.98623e-06
-2.30966e-06
6.00951e-06
-2.34614e-06
6.00011e-06
-2.31346e-06
5.98657e-06
-2.30933e-06
6.0098e-06
-2.34609e-06
6.00076e-06
-2.31382e-06
5.98685e-06
-2.30896e-06
6.01013e-06
-2.34613e-06
6.00151e-06
-2.31424e-06
5.98714e-06
-2.3085e-06
6.01038e-06
-2.3461e-06
6.00226e-06
-2.31474e-06
5.98752e-06
-2.30812e-06
6.01062e-06
-2.34596e-06
6.00297e-06
-2.31521e-06
5.98796e-06
-2.30785e-06
6.01093e-06
-2.34583e-06
6.00364e-06
-2.31557e-06
5.98835e-06
-2.30757e-06
6.01129e-06
-2.34581e-06
6.00432e-06
-2.31589e-06
5.98882e-06
-2.30736e-06
6.01156e-06
-2.3456e-06
6.00508e-06
-2.31639e-06
5.98923e-06
-2.30701e-06
6.01185e-06
-2.34548e-06
6.00614e-06
-2.31715e-06
5.98903e-06
-2.30575e-06
6.01267e-06
-2.34651e-06
6.00615e-06
-2.31634e-06
5.99009e-06
-2.3068e-06
6.01276e-06
-2.34553e-06
6.00625e-06
-2.31635e-06
5.99223e-06
-2.30884e-06
6.01069e-06
-2.34132e-06
6.01072e-06
-2.3229e-06
5.98899e-06
-2.30113e-06
6.01333e-06
-2.3472e-06
6.00895e-06
-2.31848e-06
5.99166e-06
-2.30557e-06
6.01112e-06
-2.34233e-06
6.0067e-06
-2.31844e-06
6.00519e-06
-2.32136e-06
5.99727e-06
-2.31494e-06
6.01271e-06
-2.33831e-06
6.00162e-06
-2.31177e-06
6.00909e-06
-2.33033e-06
6.00242e-06
-2.3162e-06
6.00358e-06
-2.32402e-06
6.00766e-06
-2.32695e-06
6.01005e-06
-2.32525e-06
6.00691e-06
-2.31972e-06
5.99596e-06
-2.31191e-06
6.0114e-06
-2.3383e-06
6.01008e-06
-2.32155e-06
6.01055e-06
-2.32333e-06
5.99442e-06
-2.30674e-06
6.0124e-06
-2.34084e-06
6.00366e-06
-2.31412e-06
6.01293e-06
-2.33213e-06
5.99731e-06
-2.30725e-06
6.01101e-06
-2.33655e-06
5.99808e-06
-2.30993e-06
6.01294e-06
-2.33772e-06
5.99751e-06
-2.30743e-06
6.01139e-06
-2.33674e-06
5.99914e-06
-2.31061e-06
5.97248e-06
-2.2962e-06
6.25912e-06
-2.6095e-06
7.23367e-06
-3.29742e-06
7.55177e-06
-2.64097e-06
6.90948e-06
-1.68057e-06
6.89035e-06
-2.30373e-06
-2.30397e-06
1.68775e-05
1.61054e-05
1.40454e-05
3.25268e-06
1.30682e-05
-9.94977e-07
1.28018e-05
-2.01588e-06
1.26154e-05
-2.11272e-06
1.2475e-05
-2.13863e-06
1.2388e-05
-2.21911e-06
1.23319e-05
-2.2472e-06
1.23031e-05
-2.29291e-06
1.22925e-05
-2.31103e-06
1.22939e-05
-2.33241e-06
1.23029e-05
-2.33949e-06
1.23234e-05
-2.35876e-06
1.23476e-05
-2.3626e-06
1.23783e-05
-2.37235e-06
1.24133e-05
-2.37831e-06
1.24527e-05
-2.3848e-06
1.24943e-05
-2.38754e-06
1.25384e-05
-2.39158e-06
1.25866e-05
-2.39777e-06
1.26376e-05
-2.40181e-06
1.26904e-05
-2.40439e-06
1.2745e-05
-2.4069e-06
1.28005e-05
-2.40806e-06
1.28576e-05
-2.4104e-06
1.29138e-05
-2.40879e-06
1.29652e-05
-2.4012e-06
1.30098e-05
-2.39052e-06
1.30479e-05
-2.38048e-06
1.30802e-05
-2.37136e-06
1.31075e-05
-2.36368e-06
1.31304e-05
-2.35696e-06
1.31496e-05
-2.35142e-06
1.31656e-05
-2.34665e-06
1.31791e-05
-2.34276e-06
1.31903e-05
-2.33945e-06
1.31997e-05
-2.33675e-06
1.32076e-05
-2.33449e-06
1.32142e-05
-2.33264e-06
1.32198e-05
-2.3311e-06
1.32245e-05
-2.32983e-06
1.32285e-05
-2.32877e-06
1.3232e-05
-2.32797e-06
1.32349e-05
-2.32714e-06
1.32375e-05
-2.32666e-06
1.32395e-05
-2.32581e-06
1.32412e-05
-2.32564e-06
1.32427e-05
-2.32513e-06
1.32442e-05
-2.32514e-06
1.32452e-05
-2.32412e-06
1.32463e-05
-2.32508e-06
1.32466e-05
-2.32233e-06
1.32481e-05
-2.32651e-06
1.32471e-05
-2.3191e-06
1.32497e-05
-2.33068e-06
1.32471e-05
-2.31265e-06
1.3257e-05
-2.34788e-06
1.32772e-05
-2.33347e-06
1.32794e-05
-2.32383e-06
1.20257e-05
-2.07918e-07
1.09561e-05
-7.18863e-07
1.10526e-05
-2.65453e-06
1.1155e-05
-2.49073e-06
1.13138e-05
-2.59423e-06
1.139e-05
-2.41912e-06
1.14657e-05
-2.44721e-06
1.14938e-05
-2.34792e-06
1.15382e-05
-2.39882e-06
1.15328e-05
-2.29881e-06
1.15745e-05
-2.39918e-06
1.15537e-05
-2.27877e-06
1.15293e-05
-2.28359e-06
1.15557e-05
-2.36188e-06
1.16192e-05
-2.42829e-06
1.15713e-05
-2.2436e-06
1.14614e-05
-2.14664e-06
1.15073e-05
-2.38671e-06
1.16688e-05
-2.60392e-06
1.15708e-05
-2.13724e-06
1.15366e-05
-2.27606e-06
1.15212e-05
-2.32251e-06
1.13867e-05
-2.08942e-06
1.1432e-05
-2.40623e-06
1.15182e-05
-2.45666e-06
1.15228e-05
-2.31201e-06
1.15975e-05
-2.44545e-06
1.16267e-05
-2.39094e-06
1.14245e-05
-1.96589e-06
1.15193e-05
-2.48127e-06
1.17858e-05
-2.78531e-06
1.15278e-05
-1.88318e-06
1.12593e-05
-1.85001e-06
1.16823e-05
-3.05914e-06
1.18366e-05
-2.60149e-06
1.12734e-05
-1.35644e-06
1.12466e-05
-2.26888e-06
1.19105e-05
-3.45516e-06
1.18201e-05
-2.15619e-06
1.12167e-05
-1.3145e-06
1.13144e-05
-2.50992e-06
1.18157e-05
-3.14636e-06
1.1804e-05
-2.26665e-06
1.14435e-05
-1.74033e-06
1.12966e-05
-2.10859e-06
1.15323e-05
-2.70762e-06
1.17466e-05
-2.65469e-06
1.16197e-05
-2.10625e-06
1.14364e-05
-2.03813e-06
1.14512e-05
-2.36263e-06
1.15633e-05
-2.49622e-06
1.16293e-05
-2.41564e-06
1.16224e-05
-2.30868e-06
1.16008e-05
-2.29342e-06
1.15676e-05
-2.27409e-06
1.15365e-05
-2.27739e-06
1.15213e-05
-2.30073e-06
1.1523e-05
-2.32543e-06
1.15334e-05
-2.33811e-06
1.15398e-05
-2.33195e-06
1.15357e-05
-2.31541e-06
1.1535e-05
-2.32169e-06
1.15416e-05
-2.33346e-06
1.15461e-05
-2.32943e-06
1.15445e-05
-2.32008e-06
1.15423e-05
-2.31954e-06
1.15418e-05
-2.32235e-06
1.15424e-05
-2.32379e-06
1.15431e-05
-2.32383e-06
1.15438e-05
-2.3239e-06
1.15444e-05
-2.32365e-06
1.15447e-05
-2.32322e-06
1.15449e-05
-2.32331e-06
1.1545e-05
-2.32297e-06
1.15449e-05
-2.32269e-06
1.1545e-05
-2.32313e-06
1.15449e-05
-2.32266e-06
1.15447e-05
-2.32236e-06
1.15448e-05
-2.32306e-06
1.15451e-05
-2.32336e-06
1.15452e-05
-2.3231e-06
1.1545e-05
-2.32264e-06
1.1545e-05
-2.32279e-06
1.15451e-05
-2.32307e-06
1.15451e-05
-2.32284e-06
1.15453e-05
-2.32324e-06
1.15454e-05
-2.32309e-06
1.15454e-05
-2.32271e-06
1.15455e-05
-2.32305e-06
1.15452e-05
-2.32232e-06
1.15455e-05
-2.32331e-06
1.15462e-05
-2.3241e-06
1.15456e-05
-2.32173e-06
1.15454e-05
-2.32246e-06
1.15464e-05
-2.32461e-06
1.15469e-05
-2.3235e-06
1.15465e-05
-2.3222e-06
1.15459e-05
-2.32194e-06
1.15463e-05
-2.3234e-06
1.15474e-05
-2.32474e-06
1.15474e-05
-2.32278e-06
1.15463e-05
-2.32096e-06
1.15467e-05
-2.32361e-06
1.15479e-05
-2.32483e-06
1.15475e-05
-2.32215e-06
1.1547e-05
-2.32204e-06
1.15474e-05
-2.32359e-06
1.15478e-05
-2.32336e-06
1.15476e-05
-2.3226e-06
1.15474e-05
-2.32244e-06
1.15481e-05
-2.32402e-06
1.15488e-05
-2.32405e-06
1.1548e-05
-2.32133e-06
1.15479e-05
-2.32273e-06
1.15494e-05
-2.32538e-06
1.15492e-05
-2.32246e-06
1.15476e-05
-2.31997e-06
1.15491e-05
-2.32553e-06
1.15504e-05
-2.32526e-06
1.1548e-05
-2.31829e-06
1.15504e-05
-2.32717e-06
1.15501e-05
-2.32262e-06
1.15474e-05
-2.31742e-06
1.15522e-05
-2.33184e-06
1.15484e-05
-2.31577e-06
1.15495e-05
-2.32432e-06
1.15562e-05
-2.33565e-06
1.15442e-05
-2.30098e-06
1.15489e-05
-2.33073e-06
1.15621e-05
-2.34743e-06
1.15422e-05
-2.28665e-06
1.1546e-05
-2.32917e-06
1.15673e-05
-2.36214e-06
1.15419e-05
-2.27642e-06
1.1543e-05
-2.32421e-06
1.15718e-05
-2.37572e-06
1.15443e-05
-2.27312e-06
1.15372e-05
-2.30914e-06
1.15744e-05
-2.39106e-06
1.15533e-05
-2.28393e-06
1.15338e-05
-2.2867e-06
1.15663e-05
-2.38322e-06
1.15593e-05
-2.30885e-06
1.15423e-05
-2.29148e-06
1.1561e-05
-2.35886e-06
1.15508e-05
-2.3037e-06
1.15471e-05
-2.31462e-06
1.15706e-05
-2.36675e-06
1.15507e-05
-2.28683e-06
1.15401e-05
-2.30245e-06
1.15708e-05
-2.37964e-06
1.15586e-05
-2.29964e-06
1.15435e-05
-2.29454e-06
1.15661e-05
-2.36667e-06
1.15538e-05
-2.29957e-06
1.15447e-05
-2.3041e-06
1.15718e-05
-2.37398e-06
1.1558e-05
-2.29725e-06
1.15433e-05
-2.29514e-06
1.15677e-05
-2.36965e-06
1.15552e-05
-2.29954e-06
1.15424e-05
-2.29786e-06
1.15684e-05
-2.3723e-06
1.15569e-05
-2.30112e-06
1.15435e-05
-2.29674e-06
1.15696e-05
-2.37238e-06
1.15584e-05
-2.30182e-06
1.15442e-05
-2.29542e-06
1.15703e-05
-2.37224e-06
1.15596e-05
-2.30277e-06
1.15449e-05
-2.29463e-06
1.1571e-05
-2.3722e-06
1.15607e-05
-2.30352e-06
1.15455e-05
-2.29376e-06
1.15718e-05
-2.37243e-06
1.1562e-05
-2.30442e-06
1.15461e-05
-2.29262e-06
1.15725e-05
-2.37246e-06
1.15633e-05
-2.30551e-06
1.15468e-05
-2.29169e-06
1.15731e-05
-2.37226e-06
1.15645e-05
-2.30654e-06
1.15476e-05
-2.29102e-06
1.15738e-05
-2.37206e-06
1.15656e-05
-2.30728e-06
1.15483e-05
-2.29034e-06
1.15746e-05
-2.37208e-06
1.15667e-05
-2.30799e-06
1.15491e-05
-2.28977e-06
1.15753e-05
-2.3718e-06
1.1568e-05
-2.30904e-06
1.15497e-05
-2.28877e-06
1.15761e-05
-2.37183e-06
1.15694e-05
-2.31046e-06
1.15497e-05
-2.28605e-06
1.15768e-05
-2.37358e-06
1.15696e-05
-2.30918e-06
1.15516e-05
-2.28883e-06
1.15776e-05
-2.37146e-06
1.15707e-05
-2.30945e-06
1.15536e-05
-2.29173e-06
1.15763e-05
-2.36404e-06
1.15754e-05
-2.32206e-06
1.155e-05
-2.27567e-06
1.15774e-05
-2.3746e-06
1.15734e-05
-2.31447e-06
1.15545e-05
-2.28671e-06
1.15754e-05
-2.36317e-06
1.15743e-05
-2.3174e-06
1.15677e-05
-2.3147e-06
1.15595e-05
-2.30679e-06
1.15778e-05
-2.35653e-06
1.15675e-05
-2.30154e-06
1.15734e-05
-2.33615e-06
1.15668e-05
-2.30969e-06
1.15674e-05
-2.32457e-06
1.15727e-05
-2.33222e-06
1.15768e-05
-2.32938e-06
1.15699e-05
-2.31278e-06
1.15585e-05
-2.30052e-06
1.15767e-05
-2.35655e-06
1.15803e-05
-2.32512e-06
1.1575e-05
-2.31808e-06
1.15565e-05
-2.28823e-06
1.15749e-05
-2.35919e-06
1.15716e-05
-2.31082e-06
1.15785e-05
-2.339e-06
1.15624e-05
-2.29124e-06
1.1573e-05
-2.34713e-06
1.1562e-05
-2.29891e-06
1.15759e-05
-2.3516e-06
1.15609e-05
-2.29249e-06
1.15735e-05
-2.34937e-06
1.15611e-05
-2.29816e-06
1.14728e-05
-2.20792e-06
1.18814e-05
-3.01806e-06
1.34775e-05
-4.8935e-06
1.42979e-05
-3.46143e-06
1.35808e-05
-9.63438e-07
1.3359e-05
-2.08193e-06
-2.2636e-06
2.05334e-05
1.80303e-05
1.81926e-05
5.59346e-06
1.69495e-05
2.48185e-07
1.63977e-05
-1.46409e-06
1.60116e-05
-1.72659e-06
1.57843e-05
-1.91137e-06
1.56307e-05
-2.06551e-06
1.55347e-05
-2.15122e-06
1.54756e-05
-2.2338e-06
1.54477e-05
-2.28306e-06
1.54357e-05
-2.32047e-06
1.54394e-05
-2.34317e-06
1.54557e-05
-2.37511e-06
1.54792e-05
-2.38608e-06
1.55121e-05
-2.4052e-06
1.55509e-05
-2.41711e-06
1.55958e-05
-2.42975e-06
1.56445e-05
-2.43623e-06
1.56963e-05
-2.44334e-06
1.57533e-05
-2.45475e-06
1.58141e-05
-2.4626e-06
1.58776e-05
-2.46789e-06
1.59434e-05
-2.47272e-06
1.60107e-05
-2.47539e-06
1.60803e-05
-2.47997e-06
1.61488e-05
-2.47729e-06
1.62113e-05
-2.46376e-06
1.62661e-05
-2.4453e-06
1.63133e-05
-2.42769e-06
1.63536e-05
-2.41164e-06
1.63878e-05
-2.39787e-06
1.64167e-05
-2.38583e-06
1.6441e-05
-2.37574e-06
1.64614e-05
-2.36707e-06
1.64785e-05
-2.3599e-06
1.64929e-05
-2.35383e-06
1.6505e-05
-2.3488e-06
1.65151e-05
-2.34465e-06
1.65236e-05
-2.34116e-06
1.65309e-05
-2.33833e-06
1.65369e-05
-2.33588e-06
1.65421e-05
-2.33396e-06
1.65465e-05
-2.33238e-06
1.65503e-05
-2.33092e-06
1.65536e-05
-2.32992e-06
1.65562e-05
-2.32844e-06
1.65586e-05
-2.32805e-06
1.65606e-05
-2.32716e-06
1.65624e-05
-2.32694e-06
1.65638e-05
-2.32551e-06
1.6565e-05
-2.3263e-06
1.65659e-05
-2.32315e-06
1.6567e-05
-2.32766e-06
1.65676e-05
-2.31971e-06
1.65691e-05
-2.33215e-06
1.6569e-05
-2.31254e-06
1.65753e-05
-2.35417e-06
1.66082e-05
-2.36642e-06
1.6601e-05
-2.31662e-06
1.5329e-05
1.06408e-06
1.40696e-05
5.40605e-07
1.39664e-05
-2.55141e-06
1.40357e-05
-2.56001e-06
1.41896e-05
-2.74814e-06
1.42846e-05
-2.51413e-06
1.43739e-05
-2.53651e-06
1.44232e-05
-2.39718e-06
1.44742e-05
-2.4498e-06
1.44817e-05
-2.30636e-06
1.45255e-05
-2.44299e-06
1.45109e-05
-2.2641e-06
1.44864e-05
-2.25917e-06
1.45167e-05
-2.3921e-06
1.45837e-05
-2.4953e-06
1.45374e-05
-2.19731e-06
1.44234e-05
-2.03266e-06
1.44708e-05
-2.43412e-06
1.46303e-05
-2.76344e-06
1.45456e-05
-2.05252e-06
1.45029e-05
-2.23332e-06
1.44736e-05
-2.29324e-06
1.43393e-05
-1.95507e-06
1.43724e-05
-2.43937e-06
1.44646e-05
-2.54883e-06
1.44873e-05
-2.33471e-06
1.45666e-05
-2.52479e-06
1.4593e-05
-2.41734e-06
1.44052e-05
-1.77808e-06
1.44906e-05
-2.56662e-06
1.47332e-05
-3.02795e-06
1.44989e-05
-1.64888e-06
1.42419e-05
-1.59298e-06
1.46335e-05
-3.45079e-06
1.48013e-05
-2.76931e-06
1.42544e-05
-8.0954e-07
1.41959e-05
-2.21034e-06
1.48461e-05
-4.1054e-06
1.48136e-05
-2.12368e-06
1.42085e-05
-7.09352e-07
1.42377e-05
-2.5391e-06
1.47586e-05
-3.66728e-06
1.48134e-05
-2.32144e-06
1.44311e-05
-1.35802e-06
1.42422e-05
-1.91973e-06
1.44786e-05
-2.94405e-06
1.47163e-05
-2.89234e-06
1.46108e-05
-2.00075e-06
1.44081e-05
-1.8354e-06
1.4397e-05
-2.35159e-06
1.45197e-05
-2.61889e-06
1.46059e-05
-2.50179e-06
1.46068e-05
-2.30962e-06
1.45818e-05
-2.2684e-06
1.45422e-05
-2.23447e-06
1.45035e-05
-2.23872e-06
1.44833e-05
-2.28054e-06
1.44835e-05
-2.3256e-06
1.4495e-05
-2.34969e-06
1.4503e-05
-2.33995e-06
1.44997e-05
-2.31201e-06
1.4499e-05
-2.32099e-06
1.4506e-05
-2.34055e-06
1.45115e-05
-2.33492e-06
1.45104e-05
-2.31898e-06
1.45079e-05
-2.31704e-06
1.45072e-05
-2.32157e-06
1.45078e-05
-2.32441e-06
1.45086e-05
-2.32469e-06
1.45095e-05
-2.3248e-06
1.45102e-05
-2.32436e-06
1.45106e-05
-2.32361e-06
1.4511e-05
-2.32369e-06
1.45112e-05
-2.3232e-06
1.45113e-05
-2.32273e-06
1.45113e-05
-2.32316e-06
1.45112e-05
-2.3225e-06
1.4511e-05
-2.32218e-06
1.4511e-05
-2.32312e-06
1.45111e-05
-2.32345e-06
1.45111e-05
-2.3231e-06
1.4511e-05
-2.32254e-06
1.4511e-05
-2.32281e-06
1.45112e-05
-2.32321e-06
1.45112e-05
-2.3229e-06
1.45115e-05
-2.32349e-06
1.45116e-05
-2.32321e-06
1.45116e-05
-2.32268e-06
1.45118e-05
-2.32322e-06
1.45115e-05
-2.32208e-06
1.45118e-05
-2.32362e-06
1.45125e-05
-2.32484e-06
1.4512e-05
-2.32121e-06
1.45118e-05
-2.32224e-06
1.45128e-05
-2.32561e-06
1.45134e-05
-2.32406e-06
1.4513e-05
-2.32185e-06
1.45124e-05
-2.32134e-06
1.45128e-05
-2.32377e-06
1.4514e-05
-2.32599e-06
1.45141e-05
-2.32281e-06
1.4513e-05
-2.31989e-06
1.45134e-05
-2.32401e-06
1.45146e-05
-2.32599e-06
1.45143e-05
-2.3219e-06
1.45138e-05
-2.32156e-06
1.45142e-05
-2.32399e-06
1.45147e-05
-2.32379e-06
1.45146e-05
-2.32255e-06
1.45144e-05
-2.32225e-06
1.45151e-05
-2.32471e-06
1.45158e-05
-2.32477e-06
1.45151e-05
-2.3206e-06
1.45151e-05
-2.32275e-06
1.45166e-05
-2.32685e-06
1.45164e-05
-2.32228e-06
1.4515e-05
-2.31851e-06
1.45164e-05
-2.32694e-06
1.45176e-05
-2.32652e-06
1.45156e-05
-2.31627e-06
1.45175e-05
-2.32906e-06
1.45175e-05
-2.32259e-06
1.45154e-05
-2.31529e-06
1.45195e-05
-2.33602e-06
1.45166e-05
-2.31282e-06
1.45174e-05
-2.32513e-06
1.45232e-05
-2.34145e-06
1.45132e-05
-2.291e-06
1.45168e-05
-2.33433e-06
1.45286e-05
-2.35924e-06
1.45118e-05
-2.26984e-06
1.45142e-05
-2.33156e-06
1.45334e-05
-2.3813e-06
1.45119e-05
-2.2549e-06
1.45117e-05
-2.32403e-06
1.45379e-05
-2.40198e-06
1.45139e-05
-2.24908e-06
1.45063e-05
-2.30152e-06
1.45398e-05
-2.42459e-06
1.45226e-05
-2.26669e-06
1.45042e-05
-2.2683e-06
1.45321e-05
-2.41115e-06
1.45284e-05
-2.30509e-06
1.45131e-05
-2.27627e-06
1.45286e-05
-2.37428e-06
1.45202e-05
-2.2953e-06
1.45169e-05
-2.31131e-06
1.45384e-05
-2.38833e-06
1.45205e-05
-2.26892e-06
1.45099e-05
-2.29184e-06
1.45377e-05
-2.40737e-06
1.45285e-05
-2.29048e-06
1.45146e-05
-2.28062e-06
1.4534e-05
-2.38608e-06
1.45236e-05
-2.28915e-06
1.4515e-05
-2.29555e-06
1.45394e-05
-2.39841e-06
1.45283e-05
-2.28607e-06
1.45144e-05
-2.28131e-06
1.45353e-05
-2.3905e-06
1.4525e-05
-2.28925e-06
1.4513e-05
-2.28585e-06
1.45359e-05
-2.39522e-06
1.45269e-05
-2.29207e-06
1.45145e-05
-2.28441e-06
1.45373e-05
-2.39519e-06
1.45286e-05
-2.29313e-06
1.45156e-05
-2.28242e-06
1.45382e-05
-2.39481e-06
1.453e-05
-2.29457e-06
1.45166e-05
-2.28127e-06
1.45391e-05
-2.39465e-06
1.45313e-05
-2.29572e-06
1.45175e-05
-2.27999e-06
1.454e-05
-2.39492e-06
1.45327e-05
-2.29713e-06
1.45184e-05
-2.27833e-06
1.45408e-05
-2.39485e-06
1.45342e-05
-2.29884e-06
1.45194e-05
-2.27696e-06
1.45416e-05
-2.39444e-06
1.45355e-05
-2.30043e-06
1.45205e-05
-2.276e-06
1.45425e-05
-2.39405e-06
1.45368e-05
-2.30158e-06
1.45215e-05
-2.27503e-06
1.45434e-05
-2.394e-06
1.45381e-05
-2.30269e-06
1.45225e-05
-2.27419e-06
1.45442e-05
-2.39347e-06
1.45395e-05
-2.30433e-06
1.45234e-05
-2.27269e-06
1.4545e-05
-2.3934e-06
1.45409e-05
-2.30645e-06
1.45238e-05
-2.26889e-06
1.4546e-05
-2.39582e-06
1.45415e-05
-2.30462e-06
1.45256e-05
-2.27293e-06
1.45469e-05
-2.39277e-06
1.45426e-05
-2.30522e-06
1.45274e-05
-2.27645e-06
1.45464e-05
-2.38312e-06
1.45469e-05
-2.32249e-06
1.45243e-05
-2.25307e-06
1.4547e-05
-2.39736e-06
1.45456e-05
-2.31307e-06
1.45289e-05
-2.27005e-06
1.4546e-05
-2.38026e-06
1.45471e-05
-2.3185e-06
1.45397e-05
-2.30723e-06
1.45324e-05
-2.29951e-06
1.45487e-05
-2.37291e-06
1.45408e-05
-2.29361e-06
1.45451e-05
-2.3404e-06
1.45395e-05
-2.30407e-06
1.45396e-05
-2.32468e-06
1.45449e-05
-2.33754e-06
1.45487e-05
-2.33323e-06
1.45419e-05
-2.30596e-06
1.45318e-05
-2.29038e-06
1.45479e-05
-2.37263e-06
1.45534e-05
-2.33064e-06
1.45476e-05
-2.31229e-06
1.45303e-05
-2.27093e-06
1.45449e-05
-2.37375e-06
1.45451e-05
-2.31106e-06
1.45506e-05
-2.34446e-06
1.45365e-05
-2.27722e-06
1.45436e-05
-2.3542e-06
1.45348e-05
-2.29007e-06
1.45462e-05
-2.36301e-06
1.45337e-05
-2.27996e-06
1.4544e-05
-2.35968e-06
1.45326e-05
-2.28676e-06
1.44209e-05
-2.09621e-06
1.4813e-05
-3.41021e-06
1.65412e-05
-6.62175e-06
1.76152e-05
-4.5354e-06
1.70711e-05
-4.19299e-07
1.67959e-05
-1.80672e-06
-2.19284e-06
2.24118e-05
1.80769e-05
2.1015e-05
6.99027e-06
1.98784e-05
1.38475e-06
1.90546e-05
-6.40306e-07
1.84708e-05
-1.14279e-06
1.81326e-05
-1.57314e-06
1.79008e-05
-1.8337e-06
1.77583e-05
-2.00871e-06
1.7665e-05
-2.14056e-06
1.76129e-05
-2.23089e-06
1.75826e-05
-2.2902e-06
1.75752e-05
-2.33579e-06
1.75827e-05
-2.38264e-06
1.76007e-05
-2.40404e-06
1.76303e-05
-2.43484e-06
1.76677e-05
-2.45445e-06
1.77131e-05
-2.47516e-06
1.77636e-05
-2.48676e-06
1.7818e-05
-2.49775e-06
1.78785e-05
-2.51515e-06
1.79435e-05
-2.52765e-06
1.8012e-05
-2.53638e-06
1.80833e-05
-2.54406e-06
1.81568e-05
-2.5489e-06
1.8233e-05
-2.5561e-06
1.83075e-05
-2.55176e-06
1.83751e-05
-2.53141e-06
1.84346e-05
-2.50476e-06
1.84861e-05
-2.4792e-06
1.85303e-05
-2.45585e-06
1.8568e-05
-2.43562e-06
1.86e-05
-2.41782e-06
1.86271e-05
-2.40278e-06
1.86499e-05
-2.38987e-06
1.8669e-05
-2.37908e-06
1.86852e-05
-2.36998e-06
1.86987e-05
-2.36235e-06
1.87102e-05
-2.35609e-06
1.87198e-05
-2.35075e-06
1.87279e-05
-2.34649e-06
1.87348e-05
-2.34271e-06
1.87406e-05
-2.33982e-06
1.87456e-05
-2.33734e-06
1.87499e-05
-2.33519e-06
1.87535e-05
-2.33357e-06
1.87565e-05
-2.33143e-06
1.87592e-05
-2.33076e-06
1.87615e-05
-2.32947e-06
1.87635e-05
-2.32895e-06
1.87651e-05
-2.32709e-06
1.87664e-05
-2.32759e-06
1.87675e-05
-2.32425e-06
1.87685e-05
-2.32869e-06
1.87693e-05
-2.32053e-06
1.87703e-05
-2.33309e-06
1.87713e-05
-2.31353e-06
1.87754e-05
-2.3583e-06
1.88123e-05
-2.40334e-06
1.87914e-05
-2.29566e-06
1.76286e-05
2.22685e-06
1.63413e-05
1.82795e-06
1.60609e-05
-2.27107e-06
1.60704e-05
-2.56954e-06
1.61891e-05
-2.86681e-06
1.62785e-05
-2.60349e-06
1.63704e-05
-2.62845e-06
1.64295e-05
-2.45626e-06
1.6485e-05
-2.50531e-06
1.65028e-05
-2.32414e-06
1.65467e-05
-2.48691e-06
1.65382e-05
-2.25562e-06
1.65181e-05
-2.23909e-06
1.65474e-05
-2.42137e-06
1.66094e-05
-2.55734e-06
1.65729e-05
-2.16073e-06
1.64732e-05
-1.933e-06
1.651e-05
-2.47096e-06
1.66496e-05
-2.90303e-06
1.65851e-05
-1.98798e-06
1.65394e-05
-2.18762e-06
1.65065e-05
-2.26035e-06
1.63862e-05
-1.83481e-06
1.64014e-05
-2.45452e-06
1.64855e-05
-2.63297e-06
1.65215e-05
-2.37072e-06
1.65965e-05
-2.59976e-06
1.66246e-05
-2.44545e-06
1.64702e-05
-1.62363e-06
1.65362e-05
-2.63268e-06
1.67365e-05
-3.22822e-06
1.65435e-05
-1.45592e-06
1.63156e-05
-1.36509e-06
1.6638e-05
-3.77316e-06
1.68132e-05
-2.94448e-06
1.6362e-05
-3.58305e-07
1.62615e-05
-2.10994e-06
1.68025e-05
-4.64637e-06
1.68438e-05
-2.16501e-06
1.63333e-05
-1.98828e-07
1.62877e-05
-2.49349e-06
1.67337e-05
-4.1133e-06
1.68408e-05
-2.42854e-06
1.65061e-05
-1.02331e-06
1.6302e-05
-1.71559e-06
1.65013e-05
-3.14337e-06
1.67277e-05
-3.11872e-06
1.66587e-05
-1.9318e-06
1.64718e-05
-1.64844e-06
1.64353e-05
-2.31508e-06
1.65464e-05
-2.73007e-06
1.66412e-05
-2.59654e-06
1.66514e-05
-2.31981e-06
1.66288e-05
-2.24582e-06
1.65883e-05
-2.19399e-06
1.65472e-05
-2.19758e-06
1.65235e-05
-2.25687e-06
1.65211e-05
-2.32318e-06
1.65319e-05
-2.36052e-06
1.65402e-05
-2.34822e-06
1.65378e-05
-2.30963e-06
1.65373e-05
-2.32045e-06
1.6544e-05
-2.3473e-06
1.65497e-05
-2.34065e-06
1.65494e-05
-2.31859e-06
1.65471e-05
-2.31479e-06
1.65461e-05
-2.3206e-06
1.65467e-05
-2.32496e-06
1.65476e-05
-2.3256e-06
1.65485e-05
-2.32575e-06
1.65493e-05
-2.32514e-06
1.65498e-05
-2.32409e-06
1.65502e-05
-2.32415e-06
1.65505e-05
-2.3235e-06
1.65506e-05
-2.32281e-06
1.65506e-05
-2.32319e-06
1.65505e-05
-2.32237e-06
1.65504e-05
-2.32208e-06
1.65505e-05
-2.32316e-06
1.65505e-05
-2.32345e-06
1.65504e-05
-2.32306e-06
1.65504e-05
-2.32248e-06
1.65504e-05
-2.32285e-06
1.65505e-05
-2.32331e-06
1.65506e-05
-2.32298e-06
1.65509e-05
-2.32377e-06
1.6551e-05
-2.32335e-06
1.6551e-05
-2.32269e-06
1.65512e-05
-2.32339e-06
1.6551e-05
-2.32191e-06
1.65513e-05
-2.3239e-06
1.6552e-05
-2.32552e-06
1.65516e-05
-2.32084e-06
1.65514e-05
-2.32202e-06
1.65523e-05
-2.32651e-06
1.65529e-05
-2.32469e-06
1.65526e-05
-2.32158e-06
1.65521e-05
-2.32077e-06
1.65524e-05
-2.32408e-06
1.65535e-05
-2.32715e-06
1.65537e-05
-2.32296e-06
1.65528e-05
-2.31901e-06
1.65531e-05
-2.32428e-06
1.65541e-05
-2.32702e-06
1.6554e-05
-2.32182e-06
1.65537e-05
-2.32117e-06
1.6554e-05
-2.32433e-06
1.65544e-05
-2.32422e-06
1.65544e-05
-2.32254e-06
1.65543e-05
-2.32211e-06
1.65549e-05
-2.32536e-06
1.65557e-05
-2.3255e-06
1.65551e-05
-2.32006e-06
1.65551e-05
-2.32273e-06
1.65563e-05
-2.32811e-06
1.65563e-05
-2.32227e-06
1.65551e-05
-2.31733e-06
1.65563e-05
-2.32808e-06
1.65575e-05
-2.32772e-06
1.65559e-05
-2.31472e-06
1.65575e-05
-2.3306e-06
1.65576e-05
-2.32273e-06
1.65559e-05
-2.31355e-06
1.65594e-05
-2.33954e-06
1.65573e-05
-2.3107e-06
1.65578e-05
-2.32565e-06
1.65626e-05
-2.34626e-06
1.65547e-05
-2.2831e-06
1.65573e-05
-2.33694e-06
1.65674e-05
-2.36933e-06
1.65541e-05
-2.25653e-06
1.65552e-05
-2.33276e-06
1.65714e-05
-2.39744e-06
1.65545e-05
-2.23803e-06
1.65533e-05
-2.32279e-06
1.65753e-05
-2.42406e-06
1.65567e-05
-2.23048e-06
1.65486e-05
-2.29336e-06
1.65765e-05
-2.45248e-06
1.65642e-05
-2.25441e-06
1.65471e-05
-2.2512e-06
1.65699e-05
-2.434e-06
1.6569e-05
-2.30421e-06
1.65557e-05
-2.26291e-06
1.65679e-05
-2.38653e-06
1.65622e-05
-2.2896e-06
1.65589e-05
-2.30793e-06
1.65769e-05
-2.40639e-06
1.65631e-05
-2.25509e-06
1.65525e-05
-2.28128e-06
1.65756e-05
-2.43043e-06
1.65701e-05
-2.28497e-06
1.65574e-05
-2.26795e-06
1.65731e-05
-2.40181e-06
1.65658e-05
-2.28181e-06
1.65576e-05
-2.28735e-06
1.6578e-05
-2.4188e-06
1.65703e-05
-2.27834e-06
1.65574e-05
-2.26846e-06
1.65743e-05
-2.40737e-06
1.6567e-05
-2.28199e-06
1.65558e-05
-2.27458e-06
1.65747e-05
-2.41414e-06
1.65688e-05
-2.28616e-06
1.65574e-05
-2.27309e-06
1.65763e-05
-2.41402e-06
1.65706e-05
-2.28747e-06
1.65588e-05
-2.27055e-06
1.65773e-05
-2.41338e-06
1.6572e-05
-2.2893e-06
1.65599e-05
-2.26914e-06
1.65784e-05
-2.4131e-06
1.65734e-05
-2.29075e-06
1.6561e-05
-2.26756e-06
1.65794e-05
-2.41338e-06
1.65749e-05
-2.29258e-06
1.6562e-05
-2.26548e-06
1.65804e-05
-2.41319e-06
1.65763e-05
-2.29479e-06
1.65631e-05
-2.26382e-06
1.65813e-05
-2.41256e-06
1.65777e-05
-2.29683e-06
1.65643e-05
-2.26266e-06
1.65823e-05
-2.41199e-06
1.6579e-05
-2.2983e-06
1.65654e-05
-2.26147e-06
1.65833e-05
-2.41186e-06
1.65803e-05
-2.29973e-06
1.65666e-05
-2.26043e-06
1.65842e-05
-2.41108e-06
1.65817e-05
-2.3018e-06
1.65676e-05
-2.25861e-06
1.65851e-05
-2.41093e-06
1.65831e-05
-2.30448e-06
1.65682e-05
-2.25398e-06
1.65863e-05
-2.41391e-06
1.6584e-05
-2.30229e-06
1.65699e-05
-2.25887e-06
1.6587e-05
-2.4099e-06
1.65848e-05
-2.30294e-06
1.65715e-05
-2.26315e-06
1.65868e-05
-2.39848e-06
1.65883e-05
-2.324e-06
1.65696e-05
-2.23438e-06
1.6588e-05
-2.41572e-06
1.65882e-05
-2.31325e-06
1.65735e-05
-2.25535e-06
1.65869e-05
-2.39369e-06
1.65893e-05
-2.32084e-06
1.65828e-05
-2.30079e-06
1.65763e-05
-2.293e-06
1.65894e-05
-2.38603e-06
1.65839e-05
-2.2881e-06
1.65871e-05
-2.3436e-06
1.65824e-05
-2.29935e-06
1.65822e-05
-2.32451e-06
1.65872e-05
-2.34254e-06
1.65907e-05
-2.33667e-06
1.65851e-05
-2.30036e-06