/*--------------------------------*- C++ -*----------------------------------*\
| =========                 |                                                 |
| \\      /  F ield         | foam-extend: Open Source CFD                    |
|  \\    /   O peration     | Version:     3.2                                |
|   \\  /    A nd           | Web:         http://www.foam-extend.org         |
|    \\/     M anipulation  | For copyright notice see file Copyright         |
\*---------------------------------------------------------------------------*/
FoamFile
{
    version     2.0;
    format      ascii;
    class       areaVectorField;
    location    "50";
    object      aMeshCentreN;
}
// * * * * * * * * * * * * * * * * * * * * * * * * * * * * * * * * * * * * * //

dimensions      [0 0 0 0 0 0 0];

internalField   nonuniform List<vector> 
300
(
(0.025 0.01 -0.000125)
(0.075 0.01 -0.000375)
(0.125 0.01 -0.000625)
(0.175 0.01 -0.000875)
(0.225 0.01 -0.001125)
(0.275 0.01 -0.001375)
(0.325 0.01 -0.001625)
(0.375 0.01 -0.001875)
(0.425 0.01 -0.002125)
(0.475 0.01 -0.002375)
(0.525 0.01 -0.002625)
(0.575 0.01 -0.002875)
(0.625 0.01 -0.003125)
(0.675 0.01 -0.003375)
(0.725 0.01 -0.003625)
(0.775 0.01 -0.003875)
(0.825 0.01 -0.004125)
(0.875 0.01 -0.004375)
(0.925 0.01 -0.004625)
(0.975 0.01 -0.004875)
(1.025 0.01 -0.005125)
(1.075 0.01 -0.005375)
(1.125 0.01 -0.005625)
(1.175 0.01 -0.005875)
(1.225 0.01 -0.006125)
(1.275 0.01 -0.006375)
(1.325 0.01 -0.006625)
(1.375 0.01 -0.006875)
(1.425 0.01 -0.007125)
(1.475 0.01 -0.007375)
(1.525 0.01 -0.007625)
(1.575 0.01 -0.007875)
(1.625 0.01 -0.008125)
(1.675 0.01 -0.008375)
(1.725 0.01 -0.008625)
(1.775 0.01 -0.008875)
(1.825 0.01 -0.009125)
(1.875 0.01 -0.009375)
(1.925 0.01 -0.009625)
(1.975 0.01 -0.009875)
(2.025 0.01 -0.010125)
(2.075 0.01 -0.010375)
(2.125 0.01 -0.010625)
(2.175 0.01 -0.010875)
(2.225 0.01 -0.011125)
(2.275 0.01 -0.011375)
(2.325 0.01 -0.011625)
(2.375 0.01 -0.011875)
(2.425 0.01 -0.012125)
(2.475 0.01 -0.012375)
(2.525 0.01 -0.012625)
(2.575 0.01 -0.012875)
(2.625 0.01 -0.013125)
(2.675 0.01 -0.013375)
(2.725 0.01 -0.013625)
(2.775 0.01 -0.013875)
(2.825 0.01 -0.014125)
(2.875 0.01 -0.014375)
(2.925 0.01 -0.014625)
(2.975 0.01 -0.0153594)
(3.025 0.01 -0.0167533)
(3.075 0.01 -0.0179542)
(3.125 0.01 -0.0186509)
(3.175 0.01 -0.019122)
(3.225 0.01 -0.0194786)
(3.275 0.01 -0.0197802)
(3.325 0.01 -0.0200572)
(3.375 0.01 -0.0203198)
(3.425 0.01 -0.0205826)
(3.475 0.01 -0.0208373)
(3.525 0.01 -0.021087)
(3.575 0.01 -0.0213639)
(3.625 0.01 -0.021624)
(3.675 0.01 -0.0218366)
(3.725 0.01 -0.0220641)
(3.775 0.01 -0.0223728)
(3.825 0.01 -0.0226757)
(3.875 0.01 -0.0228403)
(3.925 0.01 -0.0230291)
(3.975 0.01 -0.0233386)
(4.025 0.01 -0.0236237)
(4.075 0.01 -0.0239503)
(4.125 0.01 -0.0242823)
(4.175 0.01 -0.0244954)
(4.225 0.01 -0.0246788)
(4.275 0.01 -0.0248656)
(4.325 0.01 -0.0250323)
(4.375 0.01 -0.0253255)
(4.425 0.01 -0.0256459)
(4.475 0.01 -0.0257513)
(4.525 0.01 -0.0259413)
(4.575 0.01 -0.0264293)
(4.625 0.01 -0.026679)
(4.675 0.01 -0.0266171)
(4.725 0.01 -0.0269584)
(4.775 0.01 -0.0275576)
(4.825 0.01 -0.0276278)
(4.875 0.01 -0.0275082)
(4.925 0.01 -0.0279505)
(4.975 0.01 -0.028541)
(5.025 0.01 -0.0286301)
(5.075 0.01 -0.0285661)
(5.125 0.01 -0.0289004)
(5.175 0.01 -0.0294348)
(5.225 0.01 -0.029715)
(5.275 0.01 -0.0297589)
(5.325 0.01 -0.0299065)
(5.375 0.01 -0.0302681)
(5.425 0.01 -0.0306458)
(5.475 0.01 -0.0308759)
(5.525 0.01 -0.0310197)
(5.575 0.01 -0.0311993)
(5.625 0.01 -0.0314399)
(5.675 0.01 -0.0317147)
(5.725 0.01 -0.0320059)
(5.775 0.01 -0.0322974)
(5.825 0.01 -0.0325727)
(5.875 0.01 -0.032827)
(5.925 0.01 -0.0330715)
(5.975 0.01 -0.0333205)
(6.025 0.01 -0.0335734)
(6.075 0.01 -0.0338213)
(6.125 0.01 -0.034065)
(6.175 0.01 -0.0343116)
(6.225 0.01 -0.0345622)
(6.275 0.01 -0.0348135)
(6.325 0.01 -0.0350636)
(6.375 0.01 -0.0353127)
(6.425 0.01 -0.0355615)
(6.475 0.01 -0.0358103)
(6.525 0.01 -0.0360592)
(6.575 0.01 -0.0363083)
(6.625 0.01 -0.0365575)
(6.675 0.01 -0.036807)
(6.725 0.01 -0.0370568)
(6.775 0.01 -0.0373065)
(6.825 0.01 -0.0375564)
(6.875 0.01 -0.0378063)
(6.925 0.01 -0.0380562)
(6.975 0.01 -0.0383061)
(7.025 0.01 -0.038556)
(7.075 0.01 -0.0388059)
(7.125 0.01 -0.0390557)
(7.175 0.01 -0.0393055)
(7.225 0.01 -0.0395553)
(7.275 0.01 -0.039805)
(7.325 0.01 -0.0400548)
(7.375 0.01 -0.0403047)
(7.425 0.01 -0.0405545)
(7.475 0.01 -0.0408044)
(7.525 0.01 -0.0410538)
(7.575 0.01 -0.0413034)
(7.625 0.01 -0.0415537)
(7.675 0.01 -0.0418034)
(7.725 0.01 -0.0420524)
(7.775 0.01 -0.0423021)
(7.825 0.01 -0.0425524)
(7.875 0.01 -0.0428026)
(7.925 0.01 -0.0430518)
(7.975 0.01 -0.0433009)
(8.025 0.01 -0.043551)
(8.075 0.01 -0.0438013)
(8.125 0.01 -0.0440506)
(8.175 0.01 -0.0442998)
(8.225 0.01 -0.0445499)
(8.275 0.01 -0.0447998)
(8.325 0.01 -0.0450493)
(8.375 0.01 -0.0452989)
(8.425 0.01 -0.0455489)
(8.475 0.01 -0.0457986)
(8.525 0.01 -0.0460476)
(8.575 0.01 -0.0462972)
(8.625 0.01 -0.0465475)
(8.675 0.01 -0.0467968)
(8.725 0.01 -0.0470458)
(8.775 0.01 -0.0472963)
(8.825 0.01 -0.0475464)
(8.875 0.01 -0.0477947)
(8.925 0.01 -0.0480448)
(8.975 0.01 -0.0482948)
(9.025 0.01 -0.0485432)
(9.075 0.01 -0.0487942)
(9.125 0.01 -0.0490432)
(9.175 0.01 -0.049292)
(9.225 0.01 -0.0495437)
(9.275 0.01 -0.04979)
(9.325 0.01 -0.0500408)
(9.375 0.01 -0.0502953)
(9.425 0.01 -0.0505372)
(9.475 0.01 -0.0507871)
(9.525 0.01 -0.0510465)
(9.575 0.01 -0.0512861)
(9.625 0.01 -0.0515334)
(9.675 0.01 -0.0517968)
(9.725 0.01 -0.0520352)
(9.775 0.01 -0.0522787)
(9.825 0.01 -0.0525466)
(9.875 0.01 -0.0527869)
(9.925 0.01 -0.0530238)
(9.975 0.01 -0.0532919)
(10.025 0.01 -0.0535403)
(10.075 0.01 -0.0537752)
(10.125 0.01 -0.0540342)
(10.175 0.01 -0.0542849)
(10.225 0.01 -0.0545291)
(10.275 0.01 -0.0547865)
(10.325 0.01 -0.0550284)
(10.375 0.01 -0.0552723)
(10.425 0.01 -0.0555379)
(10.475 0.01 -0.0557822)
(10.525 0.01 -0.0560192)
(10.575 0.01 -0.0562805)
(10.625 0.01 -0.056529)
(10.675 0.01 -0.0567716)
(10.725 0.01 -0.0570325)
(10.775 0.01 -0.0572765)
(10.825 0.01 -0.0575162)
(10.875 0.01 -0.057779)
(10.925 0.01 -0.0580273)
(10.975 0.01 -0.0582693)
(11.025 0.01 -0.0585319)
(11.075 0.01 -0.0587786)
(11.125 0.01 -0.0590186)
(11.175 0.01 -0.05928)
(11.225 0.01 -0.0595266)
(11.275 0.01 -0.0597662)
(11.325 0.01 -0.0600275)
(11.375 0.01 -0.0602745)
(11.425 0.01 -0.060514)
(11.475 0.01 -0.0607753)
(11.525 0.01 -0.0610224)
(11.575 0.01 -0.0612618)
(11.625 0.01 -0.0615231)
(11.675 0.01 -0.0617705)
(11.725 0.01 -0.0620096)
(11.775 0.01 -0.0622709)
(11.825 0.01 -0.0625186)
(11.875 0.01 -0.0627575)
(11.925 0.01 -0.0630186)
(11.975 0.01 -0.0632667)
(12.025 0.01 -0.0635055)
(12.075 0.01 -0.0637664)
(12.125 0.01 -0.0640147)
(12.175 0.01 -0.0642535)
(12.225 0.01 -0.0645143)
(12.275 0.01 -0.0647629)
(12.325 0.01 -0.0650015)
(12.375 0.01 -0.0652623)
(12.425 0.01 -0.0655111)
(12.475 0.01 -0.0657496)
(12.525 0.01 -0.0660103)
(12.575 0.01 -0.0662595)
(12.625 0.01 -0.0664976)
(12.675 0.01 -0.0667584)
(12.725 0.01 -0.0670079)
(12.775 0.01 -0.067246)
(12.825 0.01 -0.0675067)
(12.875 0.01 -0.0677561)
(12.925 0.01 -0.0679948)
(12.975 0.01 -0.0682545)
(13.025 0.01 -0.0685054)
(13.075 0.01 -0.0687427)
(13.125 0.01 -0.0690025)
(13.175 0.01 -0.0692546)
(13.225 0.01 -0.0694916)
(13.275 0.01 -0.0697511)
(13.325 0.01 -0.0700031)
(13.375 0.01 -0.0702435)
(13.425 0.01 -0.0704946)
(13.475 0.01 -0.0707514)
(13.525 0.01 -0.070998)
(13.575 0.01 -0.0712439)
(13.625 0.01 -0.0714951)
(13.675 0.01 -0.0717452)
(13.725 0.01 -0.0719988)
(13.775 0.01 -0.0722462)
(13.825 0.01 -0.072491)
(13.875 0.01 -0.0727405)
(13.925 0.01 -0.0729997)
(13.975 0.01 -0.0732498)
(14.025 0.01 -0.07349)
(14.075 0.01 -0.0737367)
(14.125 0.01 -0.0739961)
(14.175 0.01 -0.0742485)
(14.225 0.01 -0.0744929)
(14.275 0.01 -0.07474)
(14.325 0.01 -0.0749935)
(14.375 0.01 -0.0752471)
(14.425 0.01 -0.0754986)
(14.475 0.01 -0.0757483)
(14.525 0.01 -0.0759985)
(14.575 0.01 -0.0762503)
(14.625 0.01 -0.0764925)
(14.675 0.01 -0.0767638)
(14.725 0.01 -0.076882)
(14.775 0.01 -0.076135)
(14.825 0.01 -0.0748344)
(14.875 0.01 -0.074375)
(14.925 0.01 -0.074625)
(14.975 0.01 -0.074875)
)
;

boundaryField
{
    inlet
    {
        type            calculated;
        value           uniform (0 0 0);
    }
    outlet
    {
        type            calculated;
        value           uniform (0 0 0);
    }
    sideWall
    {
        type            empty;
    }
}


// ************************************************************************* //
