/*--------------------------------*- C++ -*----------------------------------*\
| =========                 |                                                 |
| \\      /  F ield         | foam-extend: Open Source CFD                    |
|  \\    /   O peration     | Version:     3.2                                |
|   \\  /    A nd           | Web:         http://www.foam-extend.org         |
|    \\/     M anipulation  | For copyright notice see file Copyright         |
\*---------------------------------------------------------------------------*/
FoamFile
{
    version     2.0;
    format      ascii;
    class       areaScalarField;
    location    "50";
    object      angBeta;
}
// * * * * * * * * * * * * * * * * * * * * * * * * * * * * * * * * * * * * * //

dimensions      [0 0 0 0 0 0 0];

internalField   nonuniform List<scalar> 
300
(
0.00499996
0.00499996
0.00499996
0.00499996
0.00499996
0.00499996
0.00499996
0.00499996
0.00499996
0.00499996
0.00499996
0.00499996
0.00499996
0.00499996
0.00499996
0.00499996
0.00499996
0.00499996
0.00499996
0.00499996
0.00499996
0.00499996
0.00499996
0.00499996
0.00499996
0.00499996
0.00499996
0.00499996
0.00499996
0.00499996
0.00499996
0.00499996
0.00499996
0.00499996
0.00499996
0.00499996
0.00499996
0.00499996
0.00499996
0.00499996
0.00499996
0.00499996
0.00499996
0.00499996
0.00499996
0.00499996
0.00499996
0.00499996
0.00499996
0.00499996
0.00499996
0.00499996
0.00499996
0.00499996
0.00499996
0.00499996
0.00499996
0.00499996
0.00499996
0.0243724
0.0313692
0.0166528
0.0112145
0.00762711
0.00663606
0.00543114
0.00564631
0.00485777
0.00565262
0.00453594
0.00545304
0.00562122
0.00478559
0.00371772
0.00538132
0.00696697
0.00514897
0.00143421
0.00611741
0.00626198
0.00514235
0.007924
0.00535302
0.00316996
0.00416861
0.00330086
0.00337048
0.0083541
0.00446512
0.000249618
0.00784999
0.0116693
0.00168512
0.000789929
0.0144427
0.00952408
0.00671751
0.00193208
0.0157602
0.00785819
0.00429241
0.00173083
0.011641
0.00973408
0.00147254
0.000283467
0.00562023
0.00884458
0.00626369
0.00293766
0.00281505
0.00436881
0.00525762
0.00573223
0.00591777
0.00573989
0.00527309
0.00489643
0.00488602
0.00507405
0.00504032
0.00487658
0.0048731
0.00498765
0.00503579
0.00501659
0.00498766
0.00497848
0.00497408
0.00497529
0.0049818
0.00498223
0.00498626
0.00499422
0.00499395
0.00499577
0.00499851
0.00499803
0.00499835
0.00499771
0.00499885
0.00499738
0.00499472
0.00499755
0.00499254
0.0049947
0.00500008
0.00499297
0.00500069
0.00499482
0.00497979
0.0050044
0.005008
0.00497898
0.00498397
0.00500306
0.00500954
0.00499665
0.00497316
0.00498808
0.00501691
0.00499723
0.00497321
0.00499534
0.00500708
0.00499112
0.00498768
0.00499652
0.005002
0.00498573
0.00497651
0.00500578
0.00500438
0.00496983
0.00499013
0.00502836
0.00497548
0.00495899
0.00504247
0.00495682
0.00498002
0.00506055
0.00490043
0.00505075
0.00501484
0.00483812
0.00519429
0.0049874
0.00468511
0.00531284
0.00506358
0.00451844
0.00537288
0.0051637
0.00437256
0.00536817
0.00534776
0.00426587
0.00520709
0.00551608
0.00442049
0.00497811
0.00538003
0.00464923
0.00511662
0.00518058
0.00449449
0.00526039
0.0053654
0.00440685
0.00507433
0.00537611
0.00456467
0.00513768
0.00529949
0.00446103
0.0051248
0.00538884
0.00454268
0.00513613
0.00536744
0.00450219
0.00509586
0.00536185
0.00449958
0.00508422
0.00537123
0.00450517
0.00507471
0.00537724
0.00450873
0.00506672
0.0053848
0.00450986
0.00505578
0.00539437
0.00451406
0.00504312
0.0054015
0.00452034
0.0050317
0.0054062
0.00452594
0.0050233
0.00541203
0.0045293
0.00501497
0.00541633
0.00453803
0.00500124
0.00542459
0.00454495
0.00498019
0.00545153
0.00452548
0.00500084
0.00542612
0.00455061
0.00499683
0.00539051
0.00464606
0.0048452
0.00554548
0.0045384
0.00494146
0.00543837
0.00464152
0.00497553
0.00506727
0.00520835
0.0046553
0.00517883
0.00486922
0.00513457
0.00500986
0.0048846
0.00490694
0.00507621
0.00528992
0.00471219
0.00489781
0.0049708
0.00540269
0.00469533
0.00508145
0.00480233
0.00533668
0.0048057
0.00525663
0.00473113
0.00527454
0.00479695
0.00489376
0.00595529
0.00122571
0.0286445
0.0233706
0.00499996
0.00499996
0.00499996
)
;

boundaryField
{
    inlet
    {
        type            calculated;
        value           uniform 0;
    }
    outlet
    {
        type            calculated;
        value           uniform 0;
    }
    sideWall
    {
        type            empty;
    }
}


// ************************************************************************* //
