/*--------------------------------*- C++ -*----------------------------------*\
| =========                 |                                                 |
| \\      /  F ield         | foam-extend: Open Source CFD                    |
|  \\    /   O peration     | Version:     3.2                                |
|   \\  /    A nd           | Web:         http://www.foam-extend.org         |
|    \\/     M anipulation  | For copyright notice see file Copyright         |
\*---------------------------------------------------------------------------*/
FoamFile
{
    version     2.0;
    format      ascii;
    class       areaVectorField;
    location    "50";
    object      aUf;
}
// * * * * * * * * * * * * * * * * * * * * * * * * * * * * * * * * * * * * * //

dimensions      [0 1 -1 0 0 0 0];

internalField   nonuniform List<vector> 
300
(
(0.969774 -1.6018e-25 0.0225765)
(0.775539 2.45911e-25 9.42335e-05)
(0.667775 9.90246e-26 -0.0035748)
(0.668869 0 -0.00358006)
(0.658454 -1.19171e-26 -0.00345655)
(0.658435 -9.77618e-27 -0.00333426)
(0.653336 -1.25729e-26 -0.00332813)
(0.653094 -3.92067e-27 -0.00327803)
(0.651266 0 -0.00329117)
(0.651959 -1.01673e-27 -0.00327016)
(0.652126 0 -0.00328578)
(0.653315 5.46931e-29 -0.00328061)
(0.654515 -7.22798e-28 -0.00329593)
(0.656413 -9.23944e-28 -0.00330035)
(0.658192 0 -0.00331126)
(0.660436 0 -0.00332191)
(0.662717 -1.96412e-27 -0.00333443)
(0.665267 2.10378e-27 -0.0033458)
(0.667793 0 -0.0033603)
(0.670555 0 -0.00337494)
(0.67346 0 -0.00338957)
(0.676445 2.9411e-27 -0.00340415)
(0.679508 0 -0.00341968)
(0.682604 0 -0.00343467)
(0.685728 0 -0.00345003)
(0.688882 3.41003e-27 -0.00346414)
(0.691822 -3.18392e-27 -0.0034763)
(0.694386 0 -0.00348536)
(0.696549 0 -0.00349337)
(0.698357 2.09143e-27 -0.00349986)
(0.699866 -1.78304e-27 -0.00350575)
(0.701114 0 -0.00351047)
(0.702158 0 -0.00351475)
(0.703016 0 -0.00351811)
(0.703739 -8.97444e-28 -0.0035212)
(0.704327 0 -0.00352356)
(0.704832 0 -0.00352581)
(0.705236 -5.30632e-28 -0.00352744)
(0.705596 0 -0.00352913)
(0.705873 0 -0.00353021)
(0.706137 0 -0.00353153)
(0.706325 -9.78373e-43 -0.0035322)
(0.706528 0 -0.00353333)
(0.706653 1.17629e-40 -0.00353362)
(0.706815 1.74502e-28 -0.00353461)
(0.70689 0 -0.00353468)
(0.707023 6.78712e-31 -0.00353566)
(0.707052 0 -0.00353535)
(0.707206 6.62162e-39 -0.0035368)
(0.70714 0 -0.00353498)
(0.707399 8.79526e-29 -0.00353907)
(0.707105 5.53143e-37 -0.00353229)
(0.707668 -1.22332e-28 -0.0035439)
(0.706845 -9.02584e-29 -0.00352541)
(0.708245 0 -0.00355556)
(0.706043 0 -0.00350689)
(0.709682 1.68533e-27 -0.00358763)
(0.704215 0 -0.0034585)
(0.715088 0 -0.003642)
(0.692941 6.88437e-25 -0.0161283)
(0.595715 0 -0.0185545)
(0.590549 2.56739e-25 -0.0102908)
(0.600139 0 -0.00674245)
(0.602366 0 -0.00470472)
(0.609089 0 -0.00397789)
(0.610078 8.79732e-27 -0.00336033)
(0.61217 0 -0.00340226)
(0.613516 0 -0.00301886)
(0.613538 0 -0.00341521)
(0.613981 0 -0.00283556)
(0.615541 0 -0.00331322)
(0.612677 -2.76406e-27 -0.00343424)
(0.611748 5.86654e-27 -0.00291931)
(0.61537 1.62311e-26 -0.00233157)
(0.616713 0 -0.00330149)
(0.611818 -2.46614e-26 -0.00421101)
(0.60528 -1.69061e-30 -0.00308032)
(0.616893 0 -0.00102812)
(0.618759 0 -0.00367138)
(0.608468 5.59609e-27 -0.00383745)
(0.615007 0 -0.00321547)
(0.607617 0 -0.00469577)
(0.602804 1.54527e-26 -0.00325671)
(0.610346 0 -0.0019549)
(0.610764 0 -0.00249729)
(0.609587 -7.34652e-27 -0.00205563)
(0.619233 0 -0.00218655)
(0.612096 -5.14565e-26 -0.00492479)
(0.600951 -2.61126e-26 -0.00270639)
(0.620256 1.3609e-30 -5.19274e-05)
(0.626925 0 -0.00478989)
(0.59539 -1.96879e-26 -0.00662293)
(0.601291 0 0.000615927)
(0.636147 0 0.000264585)
(0.618309 0 -0.00851523)
(0.581884 -6.51775e-26 -0.00542257)
(0.614905 1.81987e-25 0.00358564)
(0.644123 2.66665e-26 -0.0012488)
(0.60843 -2.96827e-25 -0.00920058)
(0.587225 -1.01335e-25 -0.00465383)
(0.617166 7.16094e-26 0.00231378)
(0.633025 0 -0.00107821)
(0.615107 0 -0.00699481)
(0.599463 -1.66604e-26 -0.00579519)
(0.603414 0 -0.000945112)
(0.619787 0 -0.000220775)
(0.621995 -3.28405e-26 -0.00344488)
(0.609395 0 -0.00534549)
(0.605587 0 -0.00380954)
(0.610634 -6.91528e-27 -0.00181028)
(0.615359 -2.56656e-27 -0.00170199)
(0.616049 -1.39693e-26 -0.00272142)
(0.615459 -3.86634e-27 -0.00325197)
(0.6145 -3.30497e-27 -0.00352269)
(0.61285 0 -0.00362126)
(0.61175 -9.04783e-28 -0.00350926)
(0.611338 0 -0.00321843)
(0.611583 0 -0.00299273)
(0.612083 0 -0.00299185)
(0.611989 -4.7205e-28 -0.0031008)
(0.61169 2.46871e-28 -0.00308178)
(0.611911 7.08913e-28 -0.00298656)
(0.61227 -3.67674e-28 -0.00298248)
(0.612294 5.18766e-28 -0.0030552)
(0.612157 -2.43935e-28 -0.0030826)
(0.612111 2.08513e-29 -0.00307122)
(0.612129 0 -0.00305305)
(0.612158 1.08292e-28 -0.00304752)
(0.612187 -2.09213e-28 -0.00304504)
(0.612223 -6.3882e-29 -0.003046)
(0.612237 0 -0.00305011)
(0.612251 9.56246e-30 -0.00305056)
(0.61227 6.50497e-29 -0.00305311)
(0.612269 -6.5994e-30 -0.00305782)
(0.612277 0 -0.00305796)
(0.612289 0 -0.00305866)
(0.612265 0 -0.00306004)
(0.612265 0 -0.00306039)
(0.612276 0 -0.00306066)
(0.612279 0 -0.00306001)
(0.61228 0 -0.00306074)
(0.612273 0 -0.00305979)
(0.612283 2.95489e-29 -0.0030582)
(0.612286 -1.05934e-29 -0.00306001)
(0.61229 0 -0.0030571)
(0.612309 -5.82485e-29 -0.0030586)
(0.612301 0 -0.00306138)
(0.612303 0 -0.00305724)
(0.612303 -5.73925e-29 -0.00306165)
(0.612278 0 -0.00305825)
(0.612331 0 -0.0030499)
(0.612341 -3.49657e-28 -0.00306386)
(0.612278 -3.83628e-32 -0.00306597)
(0.612325 1.5831e-28 -0.00304949)
(0.612377 1.37639e-32 -0.00305221)
(0.612369 6.8137e-29 -0.00306358)
(0.612341 -9.79693e-29 -0.00306729)
(0.612318 0 -0.00305942)
(0.612371 -4.7792e-32 -0.00304598)
(0.612427 0 -0.00305508)
(0.612369 0 -0.00307143)
(0.612325 1.40586e-28 -0.00306001)
(0.612411 -1.50159e-28 -0.00304644)
(0.612436 0 -0.00305908)
(0.612376 0 -0.00306585)
(0.612387 7.44871e-29 -0.00305686)
(0.61242 -5.2051e-29 -0.00305451)
(0.612423 -3.68433e-29 -0.00305998)
(0.612407 0 -0.00306297)
(0.612401 0 -0.00305355)
(0.612474 0 -0.0030487)
(0.612468 3.93886e-32 -0.0030651)
(0.612396 2.83363e-29 -0.00306428)
(0.612459 1.77271e-28 -0.00304489)
(0.612538 0 -0.00305682)
(0.61244 2.22181e-28 -0.00307781)
(0.612374 0 -0.00304795)
(0.612603 0 -0.00303978)
(0.612485 0 -0.0030851)
(0.612387 -4.62041e-28 -0.00303806)
(0.612722 0 -0.00305251)
(0.612335 -6.29863e-29 -0.00309356)
(0.612508 -1.47802e-27 -0.00300765)
(0.612747 0 -0.00309031)
(0.612151 0 -0.00306815)
(0.612881 -7.10641e-31 -0.00297614)
(0.612756 -3.0499e-27 -0.00316952)
(0.611743 0 -0.00305131)
(0.613218 0 -0.00289177)
(0.613016 2.48161e-27 -0.00323609)
(0.611305 0 -0.00309314)
(0.613383 6.85402e-28 -0.00280276)
(0.613344 2.68978e-27 -0.00326595)
(0.610978 -1.86377e-27 -0.00314866)
(0.613404 0 -0.00271654)
(0.613787 5.29995e-27 -0.00326962)
(0.610774 7.83579e-28 -0.00325111)
(0.613048 -4.86693e-27 -0.00265816)
(0.614416 0 -0.00317792)
(0.611015 -6.09921e-28 -0.00334503)
(0.612387 0 -0.00274508)
(0.614252 2.8773e-27 -0.00304969)
(0.611752 0 -0.00326992)
(0.61256 0 -0.00287389)
(0.613541 -2.21604e-27 -0.00312772)
(0.611643 3.74265e-28 -0.00315733)
(0.613173 -3.18069e-27 -0.0027856)
(0.613909 3.95476e-27 -0.00321087)
(0.611272 -1.52738e-28 -0.00326213)
(0.612823 0 -0.00273625)
(0.614296 3.41072e-27 -0.0031032)
(0.611641 0 -0.00326825)
(0.612761 -3.06624e-27 -0.0028292)
(0.613926 0 -0.00313881)
(0.611567 -2.3578e-29 -0.00322379)
(0.612949 0 -0.00276886)
(0.614276 0 -0.00313344)
(0.611618 0 -0.00327587)
(0.612772 0 -0.00281732)
(0.614091 2.96771e-27 -0.00313939)
(0.611548 2.8724e-28 -0.00326252)
(0.612739 3.44931e-27 -0.00279273)
(0.61417 0 -0.0031161)
(0.611611 0 -0.00325887)
(0.612764 3.4513e-27 -0.0027911)
(0.614246 0 -0.00311032)
(0.611675 -4.41944e-28 -0.00326432)
(0.612773 0 -0.00279432)
(0.614302 0 -0.00310554)
(0.611737 0 -0.00326787)
(0.612788 6.88069e-27 -0.00279634)
(0.61436 5.82695e-27 -0.00310165)
(0.611793 0 -0.00327224)
(0.612799 -1.85671e-30 -0.00279693)
(0.614425 0 -0.00309617)
(0.611855 -5.48935e-28 -0.00327775)
(0.612805 0 -0.00279926)
(0.614484 0 -0.00308969)
(0.611925 0 -0.00328188)
(0.612816 0 -0.00280279)
(0.614536 -2.80583e-27 -0.00308386)
(0.611996 6.05134e-28 -0.00328465)
(0.612835 -3.4272e-27 -0.002806)
(0.61459 5.55402e-27 -0.00307975)
(0.612057 -1.24795e-27 -0.00328801)
(0.612857 -3.43194e-27 -0.00280798)
(0.614643 2.75404e-27 -0.00307559)
(0.612124 -6.48342e-28 -0.00329065)
(0.612879 0 -0.00281287)
(0.614684 0 -0.00306883)
(0.612218 -1.58354e-30 -0.00329546)
(0.612855 0 -0.0028163)
(0.614794 2.74861e-27 -0.00305877)
(0.612235 1.70732e-30 -0.00330929)
(0.612887 -7.11677e-27 -0.00280663)
(0.614854 -2.66519e-27 -0.00306792)
(0.612222 0 -0.00329647)
(0.613072 0 -0.00282168)
(0.614667 2.67622e-27 -0.00306595)
(0.612582 1.87057e-28 -0.0032787)
(0.61281 -2.36078e-27 -0.00287136)
(0.614937 0 -0.00298685)
(0.612607 -9.05064e-28 -0.0033589)
(0.61268 0 -0.00281793)
(0.615185 2.27291e-27 -0.00303471)
(0.612279 1.80582e-27 -0.00330231)
(0.613413 -5.36815e-27 -0.00287706)
(0.613945 0 -0.00304397)
(0.613825 -7.77743e-28 -0.0031176)
(0.612781 0 -0.00317519)
(0.613741 -2.59828e-27 -0.00287871)
(0.613823 2.68084e-27 -0.00316075)
(0.613341 -1.71965e-27 -0.00300164)
(0.613935 -1.50595e-27 -0.00314115)
(0.612996 1.04726e-27 -0.00307491)
(0.613813 5.78603e-28 -0.00300114)
(0.613624 4.65202e-28 -0.00301334)
(0.614362 0 -0.00312085)
(0.612679 0 -0.00322088)
(0.613596 0 -0.00291228)
(0.613869 0 -0.00299815)
(0.614556 -1.29088e-27 -0.00306788)
(0.61273 -1.19737e-27 -0.00328265)
(0.613664 -1.81328e-27 -0.00291242)
(0.613557 -6.95786e-28 -0.00309342)
(0.614223 0 -0.00297183)
(0.613189 3.0147e-27 -0.00324435)
(0.613783 0 -0.00297908)
(0.613135 8.58651e-28 -0.00319595)
(0.613872 1.2499e-27 -0.00293303)
(0.613259 0 -0.00320558)
(0.613715 0 -0.00297092)
(0.613123 -1.52261e-30 -0.00297514)
(0.614204 -1.14679e-26 -0.00369406)
(0.60551 0 0.000460683)
(0.661944 0 0.0183004)
(0.762085 2.65391e-25 0.0179603)
(0.735041 0 -0.00248875)
(0.698831 2.23105e-26 -0.00377864)
(0.706686 -6.02347e-27 -0.00354435)
)
;

boundaryField
{
    inlet
    {
        type            calculated;
        value           uniform (0 0 0);
    }
    outlet
    {
        type            calculated;
        value           uniform (0 0 0);
    }
    sideWall
    {
        type            empty;
    }
}


// ************************************************************************* //
