/*--------------------------------*- C++ -*----------------------------------*\
| =========                 |                                                 |
| \\      /  F ield         | foam-extend: Open Source CFD                    |
|  \\    /   O peration     | Version:     3.2                                |
|   \\  /    A nd           | Web:         http://www.foam-extend.org         |
|    \\/     M anipulation  | For copyright notice see file Copyright         |
\*---------------------------------------------------------------------------*/
FoamFile
{
    version     2.0;
    format      ascii;
    class       volScalarField;
    location    "50";
    object      C;
}
// * * * * * * * * * * * * * * * * * * * * * * * * * * * * * * * * * * * * * //

dimensions      [1 -3 0 0 0 0 0];

internalField   nonuniform List<scalar> 
5400
(
0.21285
0.21285
0.21285
0.21285
0.21285
0.21285
0.21285
0.21285
0.21285
0.21285
0.21285
0.21285
0.21285
0.21285
0.21285
0.21285
0.21285
0.21285
0.21285
0.21285
0.21285
0.21285
0.21285
0.21285
0.21285
0.21285
0.21285
0.21285
0.21285
0.21285
0.21285
0.21285
0.21285
0.21285
0.21285
0.21285
0.21285
0.21285
0.21285
0.21285
0.21285
0.21285
0.21285
0.21285
0.21285
0.21285
0.21285
0.21285
0.21285
0.21285
0.21285
0.21285
0.21285
0.21285
0.21285
0.21285
0.21285
0.21285
0.21285
0.21285
0.212358
0.21213
0.212019
0.21193
0.211902
0.211865
0.21187
0.211852
0.21185
0.211955
0.211899
0.211575
0.2119
0.212246
0.211939
0.21111
0.211565
0.213143
0.212035
0.211411
0.211626
0.210784
0.211203
0.212416
0.212319
0.21278
0.212831
0.211372
0.211784
0.21435
0.211949
0.210203
0.213039
0.214457
0.210413
0.210525
0.211971
0.213017
0.209483
0.210587
0.212536
0.213322
0.210425
0.210062
0.212636
0.214375
0.212802
0.211153
0.211343
0.212682
0.213186
0.212803
0.212344
0.212006
0.211781
0.211738
0.211864
0.212039
0.212112
0.212083
0.212091
0.212162
0.212195
0.212173
0.212151
0.212154
0.212169
0.212182
0.212193
0.212202
0.212209
0.212217
0.212224
0.212231
0.212239
0.212248
0.212255
0.212265
0.212276
0.212286
0.212296
0.212308
0.21232
0.212332
0.212345
0.212358
0.212369
0.212384
0.212395
0.21241
0.212431
0.21244
0.212452
0.212479
0.212497
0.212508
0.212522
0.212543
0.212572
0.21259
0.212599
0.212622
0.212654
0.212672
0.212689
0.212716
0.212743
0.212766
0.212789
0.212819
0.212851
0.21287
0.212896
0.212937
0.212964
0.21298
0.213024
0.213068
0.213076
0.213129
0.213165
0.213172
0.213251
0.213258
0.213291
0.213395
0.213337
0.213401
0.213574
0.213443
0.213493
0.213755
0.213578
0.213592
0.213941
0.213738
0.213685
0.214109
0.213966
0.213808
0.214193
0.214189
0.214049
0.214301
0.214282
0.214273
0.214567
0.214446
0.214389
0.214767
0.214722
0.214611
0.214918
0.214883
0.21484
0.215183
0.215133
0.215041
0.215371
0.215345
0.215281
0.21563
0.215616
0.215544
0.215894
0.215887
0.215812
0.216165
0.216168
0.216093
0.216449
0.216461
0.216386
0.216747
0.216769
0.216692
0.217057
0.21709
0.217013
0.217379
0.217423
0.217346
0.217714
0.217767
0.21769
0.218061
0.218122
0.218045
0.218415
0.218486
0.218406
0.218776
0.218858
0.218767
0.219148
0.219222
0.219144
0.21951
0.219595
0.219519
0.219857
0.219992
0.219854
0.220231
0.220327
0.220235
0.220539
0.220664
0.220665
0.220755
0.220989
0.221024
0.221132
0.221203
0.221288
0.22144
0.221559
0.221553
0.221582
0.221768
0.221934
0.221875
0.221875
0.222018
0.222146
0.222141
0.22219
0.222233
0.222301
0.222329
0.222386
0.222413
0.222446
0.222514
0.222411
0.222993
0.223575
0.223581
0.223598
0.223614
0.21285
0.21285
0.21285
0.21285
0.21285
0.21285
0.21285
0.21285
0.21285
0.21285
0.21285
0.21285
0.21285
0.21285
0.21285
0.21285
0.21285
0.21285
0.21285
0.21285
0.21285
0.21285
0.21285
0.21285
0.21285
0.21285
0.21285
0.21285
0.21285
0.21285
0.21285
0.21285
0.21285
0.21285
0.21285
0.21285
0.21285
0.21285
0.21285
0.21285
0.21285
0.21285
0.21285
0.21285
0.21285
0.21285
0.21285
0.21285
0.21285
0.21285
0.21285
0.21285
0.21285
0.21285
0.21285
0.21285
0.21285
0.21285
0.21285
0.21285
0.212872
0.212879
0.212882
0.212882
0.212881
0.21288
0.212878
0.21288
0.21287
0.21292
0.212902
0.212779
0.212877
0.213038
0.212947
0.212605
0.212704
0.213349
0.213068
0.212769
0.212763
0.212411
0.212496
0.212993
0.213098
0.213327
0.213409
0.212855
0.212915
0.213914
0.213207
0.212356
0.213184
0.213957
0.212547
0.212289
0.212721
0.213216
0.211961
0.212157
0.212936
0.213446
0.212454
0.212088
0.213065
0.213964
0.213594
0.212874
0.212763
0.213258
0.21358
0.213522
0.213334
0.213148
0.213001
0.212937
0.212964
0.213038
0.213087
0.213091
0.2131
0.213133
0.213156
0.213156
0.213149
0.21315
0.213157
0.213165
0.213174
0.213182
0.213188
0.213196
0.213203
0.21321
0.213217
0.213225
0.213233
0.213242
0.213251
0.21326
0.21327
0.21328
0.21329
0.213301
0.213313
0.213324
0.213335
0.213347
0.213358
0.213371
0.213387
0.213399
0.213412
0.21343
0.213446
0.21346
0.213474
0.213492
0.213513
0.213531
0.213545
0.213565
0.213588
0.213608
0.213626
0.213649
0.213672
0.213695
0.213717
0.213743
0.21377
0.213793
0.213818
0.21385
0.213877
0.2139
0.213933
0.213968
0.213991
0.214029
0.214063
0.214086
0.214134
0.214161
0.214193
0.214254
0.214259
0.214301
0.214391
0.214375
0.214408
0.214532
0.214507
0.214526
0.214682
0.214655
0.214648
0.214829
0.214831
0.214792
0.214953
0.215006
0.214986
0.215101
0.215139
0.215167
0.215311
0.215318
0.215322
0.215495
0.215539
0.215534
0.215678
0.215721
0.215742
0.215909
0.215953
0.215958
0.216117
0.21617
0.216189
0.216361
0.216424
0.216445
0.21662
0.216688
0.216711
0.216889
0.216964
0.21699
0.217172
0.217254
0.217283
0.21747
0.217558
0.21759
0.217781
0.217877
0.217912
0.218107
0.218209
0.218248
0.218446
0.218554
0.218596
0.218798
0.218911
0.218956
0.21916
0.219279
0.219325
0.21953
0.219656
0.2197
0.219909
0.220033
0.220083
0.220288
0.220415
0.220466
0.220659
0.220805
0.220834
0.221038
0.221167
0.22121
0.221388
0.22152
0.221599
0.221696
0.221856
0.221946
0.222055
0.222146
0.222241
0.222361
0.222472
0.222532
0.22259
0.222712
0.222833
0.222873
0.222907
0.223003
0.223095
0.223145
0.223193
0.223248
0.223302
0.223351
0.223396
0.223439
0.223475
0.223513
0.223551
0.223557
0.223546
0.223564
0.223583
0.223601
0.21285
0.21285
0.21285
0.21285
0.21285
0.21285
0.21285
0.21285
0.21285
0.21285
0.21285
0.21285
0.21285
0.21285
0.21285
0.21285
0.21285
0.21285
0.21285
0.21285
0.21285
0.21285
0.21285
0.21285
0.21285
0.21285
0.21285
0.21285
0.21285
0.21285
0.21285
0.21285
0.21285
0.21285
0.21285
0.21285
0.21285
0.21285
0.21285
0.21285
0.21285
0.21285
0.21285
0.21285
0.21285
0.21285
0.21285
0.21285
0.21285
0.21285
0.21285
0.21285
0.21285
0.21285
0.21285
0.21285
0.21285
0.21285
0.21285
0.21285
0.212853
0.212851
0.21285
0.212848
0.212846
0.212844
0.212843
0.212843
0.212838
0.212861
0.212859
0.212802
0.212834
0.212914
0.212893
0.212732
0.212738
0.213035
0.212981
0.212834
0.212793
0.212615
0.212608
0.212837
0.212946
0.213086
0.213165
0.212937
0.212912
0.213362
0.213152
0.212711
0.212951
0.213358
0.212819
0.212577
0.212692
0.212938
0.212433
0.212421
0.212767
0.213089
0.212729
0.21248
0.212884
0.213394
0.213364
0.213035
0.212901
0.213093
0.213287
0.213314
0.213238
0.213134
0.213037
0.212979
0.212974
0.213005
0.213035
0.213046
0.213055
0.213074
0.213091
0.213097
0.213097
0.213098
0.213103
0.213109
0.213115
0.213122
0.213129
0.213135
0.213142
0.213149
0.213156
0.213164
0.213171
0.21318
0.213188
0.213197
0.213206
0.213215
0.213225
0.213235
0.213246
0.213256
0.213267
0.213278
0.213289
0.213301
0.213314
0.213327
0.213339
0.213354
0.213369
0.213384
0.213398
0.213414
0.213432
0.213449
0.213465
0.213483
0.213503
0.213522
0.213541
0.213562
0.213584
0.213605
0.213627
0.213651
0.213676
0.213699
0.213724
0.213751
0.213778
0.213803
0.213832
0.213864
0.21389
0.213923
0.213955
0.213983
0.214021
0.214052
0.214085
0.214131
0.214155
0.214191
0.214252
0.214271
0.214302
0.214379
0.214398
0.214424
0.214514
0.214537
0.214553
0.214654
0.214694
0.2147
0.214791
0.214852
0.214873
0.214948
0.214999
0.215041
0.215135
0.215178
0.215209
0.215314
0.215378
0.215411
0.215505
0.215567
0.215612
0.215721
0.215788
0.215829
0.215934
0.216007
0.216056
0.216171
0.216252
0.216306
0.216425
0.216511
0.216568
0.216691
0.216782
0.216845
0.216972
0.217069
0.217135
0.217267
0.21737
0.217441
0.217577
0.217686
0.217761
0.217902
0.218016
0.218096
0.218241
0.21836
0.218444
0.218593
0.218717
0.218805
0.218957
0.219086
0.219176
0.21933
0.219464
0.219555
0.219712
0.219846
0.21994
0.220096
0.220231
0.220327
0.220478
0.22062
0.220707
0.22086
0.220994
0.221085
0.221226
0.221357
0.221462
0.221568
0.221701
0.22181
0.22192
0.222021
0.222121
0.222231
0.222339
0.222421
0.222496
0.222597
0.222703
0.222772
0.222828
0.222908
0.222991
0.223054
0.22311
0.223167
0.223222
0.223273
0.223321
0.223365
0.223406
0.223445
0.22348
0.223506
0.223525
0.223548
0.223569
0.223589
0.21285
0.21285
0.21285
0.21285
0.21285
0.21285
0.21285
0.21285
0.21285
0.21285
0.21285
0.21285
0.21285
0.21285
0.21285
0.21285
0.21285
0.21285
0.21285
0.21285
0.21285
0.21285
0.21285
0.21285
0.21285
0.21285
0.21285
0.21285
0.21285
0.21285
0.21285
0.21285
0.21285
0.21285
0.21285
0.21285
0.21285
0.21285
0.21285
0.21285
0.21285
0.21285
0.21285
0.21285
0.21285
0.21285
0.21285
0.21285
0.21285
0.21285
0.21285
0.21285
0.21285
0.21285
0.21285
0.21285
0.21285
0.21285
0.21285
0.21285
0.212852
0.212851
0.212849
0.212848
0.212846
0.212845
0.212844
0.212843
0.212841
0.212852
0.212855
0.212827
0.212837
0.212878
0.21288
0.212801
0.212782
0.212927
0.212936
0.212866
0.212832
0.212732
0.212704
0.212811
0.212892
0.212984
0.213051
0.212959
0.212921
0.213137
0.213093
0.212862
0.212903
0.213114
0.212906
0.212736
0.21273
0.212858
0.212651
0.212601
0.212751
0.212957
0.212842
0.212695
0.212866
0.213162
0.213226
0.213085
0.212983
0.213052
0.213165
0.213206
0.213181
0.213124
0.213062
0.213016
0.213002
0.213013
0.213031
0.213042
0.21305
0.213063
0.213076
0.213083
0.213085
0.213088
0.213091
0.213096
0.213101
0.213107
0.213113
0.213119
0.213125
0.213132
0.213139
0.213146
0.213154
0.213162
0.21317
0.213179
0.213187
0.213196
0.213205
0.213215
0.213225
0.213235
0.213245
0.213255
0.213266
0.213277
0.21329
0.213302
0.213314
0.213327
0.213342
0.213356
0.21337
0.213385
0.213401
0.213418
0.213434
0.213451
0.213469
0.213488
0.213507
0.213526
0.213547
0.213568
0.213589
0.213612
0.213636
0.213659
0.213683
0.213708
0.213734
0.21376
0.213787
0.213816
0.213844
0.213874
0.213905
0.213934
0.213969
0.214001
0.214033
0.214073
0.214103
0.214137
0.214186
0.214217
0.214249
0.214306
0.21434
0.214371
0.214435
0.214473
0.214502
0.214571
0.21462
0.214647
0.214712
0.214771
0.214809
0.214869
0.214924
0.214972
0.215045
0.2151
0.215143
0.215222
0.215289
0.215338
0.215413
0.21548
0.215536
0.215622
0.215695
0.215751
0.215837
0.215913
0.215976
0.216069
0.216153
0.216221
0.216319
0.216408
0.216481
0.216583
0.216676
0.216754
0.216861
0.21696
0.217042
0.217154
0.217258
0.217346
0.217462
0.217572
0.217664
0.217786
0.217901
0.217998
0.218124
0.218244
0.218346
0.218476
0.218601
0.218707
0.21884
0.21897
0.219079
0.219215
0.219348
0.219459
0.219598
0.219733
0.219846
0.219986
0.220122
0.220236
0.220373
0.220512
0.220622
0.220759
0.220893
0.221003
0.221133
0.221263
0.221379
0.221491
0.221616
0.22173
0.221842
0.221949
0.222053
0.22216
0.222267
0.22236
0.222445
0.222539
0.222637
0.222718
0.222787
0.222863
0.222942
0.22301
0.223072
0.223131
0.223188
0.223241
0.223291
0.223337
0.22338
0.22342
0.223457
0.223485
0.223508
0.223533
0.223556
0.223577
0.21285
0.21285
0.21285
0.21285
0.21285
0.21285
0.21285
0.21285
0.21285
0.21285
0.21285
0.21285
0.21285
0.21285
0.21285
0.21285
0.21285
0.21285
0.21285
0.21285
0.21285
0.21285
0.21285
0.21285
0.21285
0.21285
0.21285
0.21285
0.21285
0.21285
0.21285
0.21285
0.21285
0.21285
0.21285
0.21285
0.21285
0.21285
0.21285
0.21285
0.21285
0.21285
0.21285
0.21285
0.21285
0.21285
0.21285
0.21285
0.21285
0.21285
0.21285
0.21285
0.21285
0.21285
0.21285
0.21285
0.21285
0.21285
0.21285
0.212851
0.212853
0.212852
0.212851
0.21285
0.212849
0.212848
0.212847
0.212846
0.212845
0.21285
0.212855
0.212843
0.212843
0.212863
0.212873
0.212838
0.212814
0.212882
0.212906
0.212878
0.212857
0.212802
0.212772
0.212819
0.21287
0.212928
0.212983
0.212955
0.21292
0.213023
0.21304
0.212926
0.212893
0.212996
0.212934
0.212826
0.212767
0.212835
0.212766
0.212722
0.212771
0.212902
0.212895
0.21282
0.212886
0.213052
0.213136
0.213092
0.213025
0.21304
0.2131
0.213136
0.213134
0.213106
0.213069
0.213037
0.213021
0.213023
0.213034
0.213043
0.21305
0.213059
0.213068
0.213075
0.213079
0.213082
0.213085
0.213089
0.213093
0.213098
0.213104
0.213109
0.213115
0.213122
0.213128
0.213135
0.213143
0.21315
0.213158
0.213167
0.213175
0.213184
0.213192
0.213202
0.213211
0.21322
0.21323
0.21324
0.213251
0.213262
0.213273
0.213285
0.213296
0.213309
0.213323
0.213336
0.21335
0.213364
0.21338
0.213396
0.213412
0.213428
0.213446
0.213464
0.213482
0.213501
0.213521
0.213541
0.213562
0.213584
0.213606
0.213629
0.213653
0.213677
0.213702
0.213728
0.213754
0.213782
0.213809
0.213838
0.213869
0.213898
0.21393
0.213962
0.213994
0.21403
0.214063
0.214097
0.214139
0.214174
0.214208
0.214255
0.214294
0.214329
0.21438
0.214423
0.214459
0.214513
0.214564
0.214602
0.214655
0.214711
0.214757
0.214811
0.214866
0.214916
0.21498
0.215038
0.215088
0.215155
0.215221
0.215277
0.215345
0.215413
0.215474
0.215549
0.215622
0.215687
0.215764
0.21584
0.21591
0.215993
0.216076
0.216151
0.216239
0.216328
0.216408
0.2165
0.216594
0.216678
0.216776
0.216875
0.216964
0.217067
0.217171
0.217266
0.217374
0.217483
0.217583
0.217696
0.21781
0.217916
0.218033
0.218153
0.218263
0.218385
0.218509
0.218623
0.218749
0.218877
0.218996
0.219125
0.219257
0.219377
0.219509
0.219643
0.219766
0.219899
0.220034
0.220158
0.22029
0.220426
0.220548
0.220679
0.220812
0.220932
0.221059
0.221187
0.221309
0.221425
0.221547
0.221664
0.221779
0.221889
0.221996
0.222103
0.222209
0.222308
0.222399
0.222492
0.222587
0.222673
0.22275
0.222826
0.222904
0.222975
0.22304
0.223102
0.223161
0.223216
0.223267
0.223316
0.22336
0.223402
0.223439
0.223468
0.223493
0.223519
0.223544
0.223566
0.21285
0.21285
0.21285
0.21285
0.21285
0.21285
0.21285
0.21285
0.21285
0.21285
0.21285
0.21285
0.21285
0.21285
0.21285
0.21285
0.21285
0.21285
0.21285
0.21285
0.21285
0.21285
0.21285
0.21285
0.21285
0.21285
0.21285
0.21285
0.21285
0.21285
0.21285
0.21285
0.21285
0.21285
0.21285
0.21285
0.21285
0.21285
0.21285
0.21285
0.21285
0.21285
0.21285
0.21285
0.21285
0.21285
0.21285
0.21285
0.21285
0.21285
0.21285
0.21285
0.21285
0.21285
0.21285
0.21285
0.21285
0.21285
0.21285
0.212851
0.212854
0.212855
0.212854
0.212853
0.212852
0.212852
0.212851
0.21285
0.212849
0.212852
0.212858
0.212854
0.21285
0.212858
0.212871
0.21286
0.212837
0.212863
0.212888
0.212883
0.212875
0.212849
0.212823
0.212837
0.212865
0.212898
0.21294
0.212944
0.212915
0.212957
0.212999
0.212952
0.212891
0.212934
0.212944
0.21288
0.212798
0.212833
0.212838
0.212809
0.212801
0.212882
0.212926
0.2129
0.212915
0.213
0.213077
0.213084
0.213047
0.213037
0.213062
0.213089
0.213097
0.213087
0.213068
0.213048
0.213035
0.213033
0.213038
0.213045
0.213051
0.213058
0.213065
0.213071
0.213076
0.213079
0.213082
0.213085
0.213089
0.213093
0.213098
0.213103
0.213109
0.213115
0.213121
0.213128
0.213135
0.213143
0.21315
0.213158
0.213167
0.213175
0.213183
0.213192
0.213201
0.21321
0.21322
0.21323
0.21324
0.21325
0.213261
0.213272
0.213284
0.213296
0.213309
0.213322
0.213335
0.213349
0.213364
0.213379
0.213395
0.213411
0.213428
0.213445
0.213463
0.213482
0.213501
0.213521
0.213541
0.213562
0.213584
0.213606
0.213629
0.213653
0.213677
0.213702
0.213728
0.213755
0.213782
0.21381
0.21384
0.213869
0.2139
0.213931
0.213963
0.213997
0.214031
0.214064
0.214102
0.214139
0.214174
0.214216
0.214256
0.214293
0.214338
0.214383
0.214422
0.214469
0.214519
0.214562
0.21461
0.214663
0.214712
0.214764
0.214818
0.21487
0.214928
0.214987
0.215041
0.215102
0.215167
0.215227
0.215291
0.215358
0.215421
0.215491
0.215563
0.215632
0.215705
0.215781
0.215853
0.215932
0.216014
0.216092
0.216175
0.216262
0.216345
0.216434
0.216526
0.216614
0.216707
0.216805
0.216898
0.216996
0.217099
0.217198
0.217301
0.217409
0.217513
0.217622
0.217735
0.217845
0.217958
0.218077
0.218191
0.218309
0.218432
0.218551
0.218673
0.218801
0.218923
0.219049
0.21918
0.219306
0.219435
0.219568
0.219695
0.219826
0.21996
0.220089
0.220219
0.220354
0.220482
0.220612
0.220744
0.22087
0.220996
0.221123
0.221248
0.221368
0.221489
0.221608
0.221725
0.221838
0.221947
0.222055
0.222161
0.222263
0.222359
0.222452
0.222546
0.222635
0.222717
0.222795
0.222872
0.222945
0.223014
0.223077
0.223138
0.223195
0.223248
0.223298
0.223344
0.223387
0.223426
0.223455
0.223481
0.223507
0.223532
0.223556
0.21285
0.21285
0.21285
0.21285
0.21285
0.21285
0.21285
0.21285
0.21285
0.21285
0.21285
0.21285
0.21285
0.21285
0.21285
0.21285
0.21285
0.21285
0.21285
0.21285
0.21285
0.21285
0.21285
0.21285
0.21285
0.21285
0.21285
0.21285
0.21285
0.21285
0.21285
0.21285
0.21285
0.21285
0.21285
0.21285
0.21285
0.21285
0.21285
0.21285
0.21285
0.21285
0.21285
0.21285
0.21285
0.21285
0.21285
0.21285
0.21285
0.21285
0.21285
0.21285
0.21285
0.21285
0.21285
0.21285
0.21285
0.21285
0.21285
0.212852
0.212855
0.212856
0.212856
0.212855
0.212855
0.212854
0.212853
0.212853
0.212852
0.212854
0.21286
0.212861
0.212855
0.212855
0.212869
0.212873
0.212853
0.212855
0.212875
0.212884
0.212887
0.21288
0.212861
0.212857
0.212866
0.21288
0.212911
0.212931
0.212907
0.212914
0.212966
0.21296
0.212888
0.212897
0.212946
0.212914
0.212819
0.212837
0.212888
0.212872
0.21283
0.212877
0.212949
0.212955
0.212942
0.212974
0.213038
0.213073
0.213056
0.213035
0.213038
0.213053
0.213065
0.213067
0.213061
0.213051
0.213042
0.213039
0.213042
0.213047
0.213052
0.213057
0.213062
0.213068
0.213072
0.213075
0.213078
0.213081
0.213084
0.213088
0.213092
0.213097
0.213102
0.213108
0.213114
0.213121
0.213128
0.213135
0.213143
0.21315
0.213158
0.213167
0.213175
0.213183
0.213192
0.213201
0.21321
0.21322
0.213229
0.213239
0.21325
0.213261
0.213272
0.213284
0.213296
0.213309
0.213322
0.213335
0.213349
0.213364
0.21338
0.213395
0.213412
0.213429
0.213446
0.213464
0.213483
0.213502
0.213522
0.213542
0.213564
0.213586
0.213608
0.213631
0.213655
0.21368
0.213705
0.213731
0.213758
0.213785
0.213814
0.213843
0.213873
0.213904
0.213935
0.213968
0.214002
0.214035
0.214071
0.214108
0.214143
0.214182
0.214223
0.214261
0.214302
0.214347
0.214388
0.214431
0.21448
0.214526
0.214571
0.214622
0.214673
0.214723
0.214777
0.214829
0.214884
0.214943
0.214999
0.215056
0.215119
0.215181
0.215243
0.215309
0.215373
0.21544
0.215512
0.215582
0.215653
0.215728
0.215802
0.215878
0.215958
0.216038
0.216119
0.216205
0.216289
0.216375
0.216466
0.216556
0.216647
0.216743
0.216838
0.216934
0.217036
0.217136
0.217237
0.217344
0.21745
0.217557
0.217669
0.21778
0.217892
0.218009
0.218125
0.218242
0.218364
0.218485
0.218606
0.218732
0.218857
0.218982
0.219112
0.21924
0.219368
0.2195
0.219631
0.219761
0.219894
0.220026
0.220156
0.22029
0.220422
0.220551
0.220682
0.220812
0.220939
0.221066
0.221193
0.221316
0.221437
0.221557
0.221675
0.22179
0.221901
0.22201
0.222117
0.222222
0.222321
0.222415
0.222509
0.2226
0.222686
0.222766
0.222843
0.222918
0.222988
0.223054
0.223116
0.223174
0.223229
0.22328
0.223328
0.223372
0.223412
0.223442
0.223468
0.223496
0.223522
0.223546
0.21285
0.21285
0.21285
0.21285
0.21285
0.21285
0.21285
0.21285
0.21285
0.21285
0.21285
0.21285
0.21285
0.21285
0.21285
0.21285
0.21285
0.21285
0.21285
0.21285
0.21285
0.21285
0.21285
0.21285
0.21285
0.21285
0.21285
0.21285
0.21285
0.21285
0.21285
0.21285
0.21285
0.21285
0.21285
0.21285
0.21285
0.21285
0.21285
0.21285
0.21285
0.21285
0.21285
0.21285
0.21285
0.21285
0.21285
0.21285
0.21285
0.21285
0.21285
0.21285
0.21285
0.21285
0.21285
0.21285
0.21285
0.21285
0.21285
0.212853
0.212857
0.212858
0.212858
0.212858
0.212857
0.212857
0.212856
0.212856
0.212855
0.212856
0.212863
0.212867
0.21286
0.212855
0.21287
0.212884
0.212866
0.212852
0.212868
0.212884
0.212897
0.212905
0.212892
0.212877
0.212871
0.21287
0.212892
0.21292
0.212898
0.212884
0.212941
0.212961
0.212884
0.212874
0.212948
0.212938
0.212835
0.212844
0.212926
0.212923
0.212857
0.212881
0.212968
0.212998
0.212969
0.212962
0.213014
0.213064
0.213062
0.213034
0.213021
0.213027
0.213039
0.213049
0.213053
0.213052
0.213047
0.213044
0.213045
0.21305
0.213054
0.213058
0.213061
0.213066
0.21307
0.213073
0.213076
0.213078
0.213081
0.213084
0.213088
0.213092
0.213097
0.213103
0.213109
0.213115
0.213122
0.213129
0.213137
0.213144
0.213152
0.21316
0.213168
0.213176
0.213185
0.213194
0.213203
0.213212
0.213221
0.213231
0.213241
0.213252
0.213263
0.213274
0.213286
0.213298
0.213311
0.213324
0.213338
0.213352
0.213367
0.213382
0.213398
0.213415
0.213432
0.21345
0.213468
0.213487
0.213506
0.213526
0.213547
0.213568
0.21359
0.213613
0.213636
0.213661
0.213685
0.213711
0.213737
0.213764
0.213792
0.213821
0.21385
0.213881
0.213911
0.213943
0.213977
0.21401
0.214044
0.214082
0.214117
0.214153
0.214195
0.214233
0.214271
0.214316
0.214358
0.214399
0.214447
0.214494
0.214538
0.214587
0.214638
0.214688
0.214741
0.214793
0.214846
0.214904
0.214961
0.215016
0.215078
0.21514
0.215201
0.215267
0.215332
0.215396
0.215467
0.215538
0.215608
0.215682
0.215757
0.215831
0.215911
0.215991
0.21607
0.216155
0.21624
0.216324
0.216414
0.216505
0.216594
0.216689
0.216785
0.21688
0.21698
0.217082
0.217182
0.217288
0.217394
0.2175
0.217611
0.217723
0.217834
0.21795
0.218068
0.218183
0.218304
0.218427
0.218547
0.218672
0.218799
0.218923
0.219052
0.219182
0.219309
0.219441
0.219574
0.219703
0.219836
0.21997
0.2201
0.220234
0.220367
0.220497
0.220629
0.22076
0.220888
0.221015
0.221144
0.221268
0.22139
0.221511
0.22163
0.221747
0.221861
0.22197
0.222078
0.222185
0.222287
0.222382
0.222476
0.222569
0.222658
0.222739
0.222817
0.222893
0.222965
0.223033
0.223097
0.223156
0.223213
0.223265
0.223314
0.223359
0.2234
0.223431
0.223457
0.223485
0.223513
0.223538
0.21285
0.21285
0.21285
0.21285
0.21285
0.21285
0.21285
0.21285
0.21285
0.21285
0.21285
0.21285
0.21285
0.21285
0.21285
0.21285
0.21285
0.21285
0.21285
0.21285
0.21285
0.21285
0.21285
0.21285
0.21285
0.21285
0.21285
0.21285
0.21285
0.21285
0.21285
0.21285
0.21285
0.21285
0.21285
0.21285
0.21285
0.21285
0.21285
0.21285
0.21285
0.21285
0.21285
0.21285
0.21285
0.21285
0.21285
0.21285
0.21285
0.21285
0.21285
0.21285
0.21285
0.21285
0.21285
0.21285
0.21285
0.21285
0.21285
0.212854
0.212859
0.212862
0.212862
0.212862
0.212862
0.212862
0.212861
0.212861
0.212861
0.212861
0.212869
0.212875
0.212867
0.212858
0.212874
0.212895
0.212878
0.212854
0.212866
0.212888
0.212908
0.212928
0.21292
0.212897
0.212881
0.212866
0.212881
0.212914
0.212891
0.212863
0.212924
0.212962
0.212881
0.212859
0.212953
0.212958
0.212847
0.212854
0.21296
0.212966
0.212883
0.21289
0.212989
0.213036
0.212995
0.212961
0.213
0.21306
0.213068
0.213036
0.21301
0.213008
0.21302
0.213035
0.213047
0.213053
0.213053
0.21305
0.213051
0.213054
0.213058
0.213061
0.213063
0.213067
0.213071
0.213074
0.213077
0.213079
0.213081
0.213084
0.213087
0.213091
0.213096
0.213101
0.213107
0.213113
0.213119
0.213126
0.213134
0.213141
0.213149
0.213157
0.213165
0.213173
0.213181
0.21319
0.213198
0.213207
0.213217
0.213226
0.213236
0.213246
0.213257
0.213268
0.213279
0.213291
0.213304
0.213317
0.21333
0.213344
0.213359
0.213374
0.213389
0.213405
0.213422
0.213439
0.213457
0.213476
0.213495
0.213514
0.213535
0.213556
0.213577
0.213599
0.213623
0.213646
0.213671
0.213696
0.213722
0.213748
0.213776
0.213804
0.213833
0.213863
0.213893
0.213924
0.213958
0.21399
0.214023
0.214061
0.214096
0.214131
0.214172
0.21421
0.214247
0.214292
0.214334
0.214373
0.21442
0.214468
0.214511
0.214559
0.21461
0.214659
0.214711
0.214763
0.214815
0.214873
0.21493
0.214984
0.215045
0.215107
0.215167
0.215232
0.215297
0.21536
0.21543
0.215502
0.21557
0.215644
0.21572
0.215792
0.215871
0.215951
0.216029
0.216113
0.216199
0.216282
0.216371
0.216462
0.21655
0.216644
0.21674
0.216834
0.216934
0.217035
0.217134
0.21724
0.217347
0.217451
0.217562
0.217675
0.217785
0.2179
0.218018
0.218133
0.218254
0.218377
0.218496
0.218621
0.218749
0.218872
0.219001
0.219132
0.219259
0.219391
0.219524
0.219653
0.219787
0.219922
0.220052
0.220186
0.220321
0.220451
0.220583
0.220716
0.220844
0.220972
0.221102
0.221228
0.22135
0.221472
0.221593
0.221711
0.221826
0.221937
0.222045
0.222154
0.222258
0.222355
0.222449
0.222544
0.222635
0.222718
0.222797
0.222874
0.222948
0.223017
0.223082
0.223143
0.2232
0.223254
0.223304
0.22335
0.223391
0.223423
0.223449
0.223477
0.223504
0.22353
0.21285
0.21285
0.21285
0.21285
0.21285
0.21285
0.21285
0.21285
0.21285
0.21285
0.21285
0.21285
0.21285
0.21285
0.21285
0.21285
0.21285
0.21285
0.21285
0.21285
0.21285
0.21285
0.21285
0.21285
0.21285
0.21285
0.21285
0.21285
0.21285
0.21285
0.21285
0.21285
0.21285
0.21285
0.21285
0.21285
0.21285
0.21285
0.21285
0.21285
0.21285
0.21285
0.21285
0.21285
0.21285
0.21285
0.21285
0.21285
0.21285
0.21285
0.21285
0.21285
0.21285
0.21285
0.21285
0.21285
0.21285
0.21285
0.212851
0.212854
0.212861
0.212865
0.212866
0.212866
0.212866
0.212866
0.212865
0.212865
0.212865
0.212865
0.212873
0.212881
0.212873
0.212861
0.212878
0.212904
0.212887
0.212856
0.212865
0.212891
0.212918
0.212947
0.212943
0.212915
0.212889
0.212864
0.212873
0.212909
0.212884
0.212846
0.212911
0.21296
0.212875
0.212846
0.212957
0.212974
0.212855
0.212861
0.212989
0.213003
0.212904
0.212899
0.213009
0.213068
0.213017
0.212961
0.212991
0.213058
0.213072
0.213036
0.213001
0.212992
0.213003
0.213022
0.213041
0.213053
0.213056
0.213055
0.213055
0.213058
0.213061
0.213063
0.213065
0.213068
0.213071
0.213074
0.213077
0.213078
0.21308
0.213083
0.213086
0.21309
0.213094
0.213099
0.213104
0.21311
0.213117
0.213123
0.213131
0.213138
0.213146
0.213153
0.213161
0.213169
0.213177
0.213185
0.213194
0.213203
0.213212
0.213221
0.21323
0.213241
0.213251
0.213261
0.213273
0.213284
0.213297
0.213309
0.213322
0.213336
0.213351
0.213365
0.21338
0.213396
0.213413
0.21343
0.213447
0.213465
0.213484
0.213503
0.213523
0.213544
0.213565
0.213587
0.21361
0.213633
0.213657
0.213681
0.213707
0.213733
0.21376
0.213788
0.213816
0.213846
0.213876
0.213907
0.21394
0.213972
0.214004
0.214042
0.214076
0.21411
0.214151
0.214189
0.214225
0.21427
0.214312
0.214349
0.214396
0.214445
0.214486
0.214533
0.214584
0.214633
0.214685
0.214736
0.214786
0.214845
0.214902
0.214955
0.215014
0.215077
0.215136
0.215201
0.215266
0.215328
0.215397
0.215468
0.215536
0.21561
0.215685
0.215757
0.215835
0.215915
0.215992
0.216075
0.216161
0.216243
0.216331
0.216422
0.216509
0.216603
0.216699
0.216792
0.216891
0.216993
0.217091
0.217196
0.217304
0.217407
0.217517
0.21763
0.217739
0.217855
0.217973
0.218087
0.218208
0.218331
0.21845
0.218575
0.218703
0.218826
0.218955
0.219086
0.219213
0.219345
0.219479
0.219608
0.219742
0.219878
0.220008
0.220142
0.220278
0.220408
0.220541
0.220675
0.220804
0.220932
0.221063
0.221191
0.221314
0.221436
0.221558
0.221678
0.221794
0.221905
0.222015
0.222125
0.222231
0.222329
0.222423
0.22252
0.222613
0.222697
0.222777
0.222855
0.22293
0.223001
0.223067
0.223129
0.223188
0.223243
0.223294
0.223341
0.223383
0.223415
0.223441
0.223468
0.223497
0.223523
0.21285
0.21285
0.21285
0.21285
0.21285
0.21285
0.21285
0.21285
0.21285
0.21285
0.21285
0.21285
0.21285
0.21285
0.21285
0.21285
0.21285
0.21285
0.21285
0.21285
0.21285
0.21285
0.21285
0.21285
0.21285
0.21285
0.21285
0.21285
0.21285
0.21285
0.21285
0.21285
0.21285
0.21285
0.21285
0.21285
0.21285
0.21285
0.21285
0.21285
0.21285
0.21285
0.21285
0.21285
0.21285
0.21285
0.21285
0.21285
0.21285
0.21285
0.21285
0.21285
0.21285
0.21285
0.21285
0.21285
0.21285
0.21285
0.212851
0.212855
0.212862
0.212866
0.212867
0.212867
0.212867
0.212867
0.212867
0.212867
0.212866
0.212867
0.212876
0.212885
0.212875
0.212861
0.212879
0.212911
0.212893
0.212855
0.212862
0.212892
0.212926
0.212962
0.212961
0.212928
0.212894
0.21286
0.212865
0.212903
0.212874
0.212828
0.212899
0.212957
0.212865
0.212833
0.21296
0.212986
0.212857
0.212864
0.213014
0.213034
0.212919
0.212905
0.213026
0.213096
0.213035
0.21296
0.212984
0.213056
0.213075
0.213034
0.21299
0.212976
0.212986
0.213009
0.213033
0.21305
0.213056
0.213056
0.213056
0.213059
0.213062
0.213062
0.213063
0.213066
0.21307
0.213072
0.213074
0.213076
0.213078
0.21308
0.213082
0.213086
0.21309
0.213094
0.2131
0.213105
0.213112
0.213118
0.213126
0.213133
0.21314
0.213148
0.213156
0.213163
0.213171
0.213179
0.213188
0.213196
0.213205
0.213214
0.213223
0.213233
0.213243
0.213254
0.213265
0.213276
0.213288
0.213301
0.213313
0.213327
0.213341
0.213355
0.21337
0.213386
0.213402
0.213419
0.213436
0.213454
0.213472
0.213491
0.21351
0.213531
0.213552
0.213573
0.213596
0.213619
0.213642
0.213666
0.213692
0.213717
0.213744
0.213772
0.2138
0.213829
0.213858
0.213889
0.213922
0.213953
0.213985
0.214022
0.214056
0.21409
0.21413
0.214168
0.214203
0.214247
0.21429
0.214326
0.214372
0.214421
0.214462
0.214508
0.214559
0.214607
0.214658
0.214709
0.214759
0.214817
0.214874
0.214926
0.214985
0.215047
0.215106
0.21517
0.215235
0.215296
0.215365
0.215436
0.215503
0.215577
0.215652
0.215723
0.215801
0.21588
0.215956
0.216039
0.216124
0.216206
0.216294
0.216384
0.216471
0.216564
0.21666
0.216752
0.216851
0.216953
0.217051
0.217155
0.217262
0.217365
0.217475
0.217588
0.217697
0.217812
0.21793
0.218044
0.218164
0.218288
0.218406
0.218531
0.218659
0.218782
0.218911
0.219043
0.219169
0.219301
0.219436
0.219565
0.219699
0.219835
0.219966
0.2201
0.220237
0.220367
0.2205
0.220636
0.220765
0.220894
0.221026
0.221154
0.221278
0.221402
0.221524
0.221645
0.221763
0.221875
0.221985
0.222097
0.222204
0.222303
0.222398
0.222495
0.22259
0.222676
0.222757
0.222836
0.222912
0.222984
0.223051
0.223115
0.223174
0.22323
0.223282
0.223331
0.223373
0.223406
0.223432
0.22346
0.22349
0.223517
0.21285
0.21285
0.21285
0.21285
0.21285
0.21285
0.21285
0.21285
0.21285
0.21285
0.21285
0.21285
0.21285
0.21285
0.21285
0.21285
0.21285
0.21285
0.21285
0.21285
0.21285
0.21285
0.21285
0.21285
0.21285
0.21285
0.21285
0.21285
0.21285
0.21285
0.21285
0.21285
0.21285
0.21285
0.21285
0.21285
0.21285
0.21285
0.21285
0.21285
0.21285
0.21285
0.21285
0.21285
0.21285
0.21285