/*--------------------------------*- C++ -*----------------------------------*\
| =========                 |                                                 |
| \\      /  F ield         | foam-extend: Open Source CFD                    |
|  \\    /   O peration     | Version:     3.2                                |
|   \\  /    A nd           | Web:         http://www.foam-extend.org         |
|    \\/     M anipulation  | For copyright notice see file Copyright         |
\*---------------------------------------------------------------------------*/
FoamFile
{
    version     2.0;
    format      ascii;
    class       areaScalarField;
    location    "50";
    object      Ce1;
}
// * * * * * * * * * * * * * * * * * * * * * * * * * * * * * * * * * * * * * //

dimensions      [1 -3 0 0 0 0 0];

internalField   nonuniform List<scalar> 
300
(
3.85569
1.96378
1.24964
1.25584
1.1976
1.1975
1.16966
1.16835
1.15848
1.16221
1.16311
1.16954
1.17605
1.1864
1.19616
1.20854
1.22122
1.23548
1.24973
1.26543
1.28209
1.29936
1.31723
1.33547
1.35403
1.37295
1.39074
1.40638
1.41967
1.43084
1.4402
1.44799
1.45451
1.45989
1.46443
1.46813
1.47132
1.47387
1.47614
1.4779
1.47957
1.48075
1.48204
1.48283
1.48387
1.48434
1.48518
1.48535
1.48632
1.4859
1.48755
1.48568
1.48926
1.48403
1.49293
1.47894
1.5021
1.4674
1.5369
0.973536
0.559055
0.678566
0.789281
0.860662
0.91011
0.940311
0.945404
0.969513
0.951699
0.979242
0.965565
0.948306
0.962772
1.00588
0.9728
0.915489
0.924322
1.07439
0.96591
0.915
0.970076
0.877814
0.908368
0.994741
0.972471
0.987809
1.03399
0.889092
0.919328
1.12708
0.966287
0.763389
0.980838
1.19633
0.811098
0.7439
0.908163
1.20859
0.753955
0.792846
0.982476
1.15276
0.842523
0.810639
1.00422
1.12387
0.992695
0.868197
0.901852
1.00204
1.02877
0.993361
0.969665
0.954369
0.94258
0.941353
0.949748
0.959443
0.962049
0.95731
0.956659
0.961461
0.963234
0.960727
0.958982
0.959199
0.959943
0.960291
0.960533
0.960675
0.960595
0.960651
0.960649
0.960464
0.960508
0.960522
0.960349
0.960362
0.960401
0.960425
0.960407
0.960407
0.960518
0.960468
0.9606
0.960642
0.960474
0.960644
0.960472
0.960489
0.961079
0.960564
0.960189
0.961078
0.961211
0.960734
0.960455
0.96064
0.961428
0.961351
0.960419
0.960657
0.961617
0.961227
0.960673
0.961091
0.961328
0.961139
0.960941
0.961281
0.961838
0.96114
0.96083
0.961922
0.961833
0.96049
0.961394
0.962851
0.960384
0.961876
0.962937
0.959261
0.963745
0.961444
0.959432
0.966953
0.95822
0.958121
0.972118
0.956771
0.954313
0.976821
0.956968
0.950511
0.980382
0.959161
0.945423
0.981216
0.96578
0.942827
0.974359
0.97029
0.949292
0.969805
0.963718
0.953266
0.976387
0.962154
0.947389
0.97678
0.968267
0.948857
0.972756
0.965037
0.950249
0.976104
0.967006
0.948474
0.973326
0.965869
0.948627
0.974122
0.967169
0.949042
0.974304
0.967799
0.949133
0.974214
0.96829
0.949288
0.9742
0.96875
0.94938
0.974227
0.969317
0.94946
0.974155
0.969891
0.949629
0.974056
0.970403
0.949856
0.974013
0.970855
0.950014
0.97404
0.971302
0.950235
0.973939
0.971814
0.950491
0.97366
0.972829
0.949974
0.974267
0.97264
0.950478
0.974573
0.971843
0.952969
0.97108
0.976646
0.94963
0.97296
0.975604
0.950465
0.974081
0.968894
0.966141
0.958037
0.97532
0.963651
0.968415
0.965188
0.963541
0.970349
0.968921
0.968527
0.955686
0.973298
0.970322
0.971871
0.953404
0.974
0.96461
0.974177
0.95708
0.971991
0.958622
0.974144
0.95881
0.971865
0.966814
0.948169
1.01376
0.697798
1.182
1.67163
1.43368
1.48303
)
;

boundaryField
{
    inlet
    {
        type            calculated;
        value           uniform 0;
    }
    outlet
    {
        type            calculated;
        value           uniform 0;
    }
    sideWall
    {
        type            empty;
    }
}


// ************************************************************************* //
