/*--------------------------------*- C++ -*----------------------------------*\
| =========                 |                                                 |
| \\      /  F ield         | foam-extend: Open Source CFD                    |
|  \\    /   O peration     | Version:     3.2                                |
|   \\  /    A nd           | Web:         http://www.foam-extend.org         |
|    \\/     M anipulation  | For copyright notice see file Copyright         |
\*---------------------------------------------------------------------------*/
FoamFile
{
    version     2.0;
    format      ascii;
    class       areaScalarField;
    location    "50";
    object      Ce2;
}
// * * * * * * * * * * * * * * * * * * * * * * * * * * * * * * * * * * * * * //

dimensions      [1 -3 0 0 0 0 0];

internalField   nonuniform List<scalar> 
300
(
1.72151
0.875329
0.5561
0.558874
0.53285
0.532803
0.520362
0.519776
0.515366
0.517035
0.517436
0.52031
0.523218
0.527843
0.532203
0.537736
0.5434
0.549776
0.556143
0.563159
0.570603
0.578319
0.586308
0.594457
0.602753
0.611211
0.619161
0.626152
0.63209
0.637082
0.641267
0.644745
0.647663
0.650066
0.652096
0.653751
0.655175
0.656314
0.657331
0.658114
0.658862
0.659392
0.659968
0.660322
0.660782
0.660994
0.661372
0.661444
0.661881
0.661694
0.662428
0.661595
0.663193
0.660858
0.664835
0.658583
0.668935
0.653425
0.684486
0.433506
0.248464
0.30148
0.350734
0.382459
0.404497
0.417924
0.42021
0.430936
0.423022
0.435264
0.429206
0.421505
0.427921
0.447116
0.432434
0.406916
0.410766
0.477573
0.429395
0.406662
0.431204
0.390134
0.403652
0.442107
0.432218
0.439018
0.459649
0.395192
0.408498
0.501025
0.429652
0.339187
0.435803
0.532
0.360602
0.330396
0.40363
0.537562
0.335122
0.352182
0.436694
0.512602
0.374533
0.360212
0.446233
0.499597
0.441334
0.385881
0.400789
0.445352
0.457283
0.441561
0.431026
0.42422
0.418963
0.418406
0.422131
0.42644
0.427604
0.425497
0.425205
0.427341
0.428132
0.427019
0.426242
0.426338
0.426669
0.426824
0.426931
0.426995
0.42696
0.426984
0.426984
0.426902
0.426922
0.426928
0.426851
0.426857
0.426874
0.426885
0.426877
0.426876
0.426926
0.426904
0.426963
0.426981
0.426907
0.426982
0.426906
0.426913
0.427176
0.426947
0.42678
0.427175
0.427235
0.427023
0.426899
0.426981
0.427331
0.427298
0.426883
0.426988
0.427416
0.427243
0.426996
0.427182
0.427287
0.427203
0.427115
0.427266
0.427515
0.427204
0.427066
0.427552
0.427513
0.426915
0.427316
0.427966
0.426869
0.42753
0.428006
0.426368
0.428362
0.427343
0.426442
0.429792
0.425911
0.425855
0.43209
0.42527
0.424158
0.434182
0.425361
0.422465
0.435764
0.42634
0.420203
0.43613
0.429288
0.419052
0.433077
0.43129
0.421933
0.431055
0.428362
0.423697
0.433986
0.427671
0.421082
0.434157
0.430392
0.421738
0.432369
0.428952
0.422356
0.433858
0.429831
0.421568
0.432622
0.429324
0.421635
0.432975
0.429903
0.42182
0.433056
0.430183
0.421861
0.433017
0.430402
0.421931
0.43301
0.430607
0.421972
0.433022
0.43086
0.422009
0.43299
0.431115
0.422084
0.432947
0.431344
0.422186
0.432928
0.431545
0.422257
0.43294
0.431744
0.422356
0.432895
0.431972
0.422471
0.432771
0.432424
0.422241
0.433041
0.432341
0.422465
0.43318
0.431985
0.423576
0.431624
0.434122
0.422093
0.432458
0.433662
0.42246
0.432965
0.430667
0.429442
0.425829
0.433519
0.428336
0.430447
0.42902
0.428277
0.431311
0.430675
0.430508
0.424784
0.432619
0.4313
0.431996
0.423771
0.432931
0.428759
0.433017
0.425409
0.43204
0.426093
0.432998
0.426178
0.431984
0.429733
0.421462
0.450481
0.31039
0.526664
0.74471
0.63835
0.660409
)
;

boundaryField
{
    inlet
    {
        type            calculated;
        value           uniform 0;
    }
    outlet
    {
        type            calculated;
        value           uniform 0;
    }
    sideWall
    {
        type            empty;
    }
}


// ************************************************************************* //
