/*--------------------------------*- C++ -*----------------------------------*\
| =========                 |                                                 |
| \\      /  F ield         | foam-extend: Open Source CFD                    |
|  \\    /   O peration     | Version:     3.2                                |
|   \\  /    A nd           | Web:         http://www.foam-extend.org         |
|    \\/     M anipulation  | For copyright notice see file Copyright         |
\*---------------------------------------------------------------------------*/
FoamFile
{
    version     2.0;
    format      ascii;
    class       areaScalarField;
    location    "50";
    object      Cpre;
}
// * * * * * * * * * * * * * * * * * * * * * * * * * * * * * * * * * * * * * //

dimensions      [1 -3 0 0 0 0 0];

internalField   nonuniform List<scalar> 
300
(
0.21285
0.21285
0.21285
0.21285
0.21285
0.21285
0.21285
0.21285
0.21285
0.21285
0.21285
0.21285
0.21285
0.21285
0.21285
0.21285
0.21285
0.21285
0.21285
0.21285
0.21285
0.21285
0.21285
0.21285
0.21285
0.21285
0.21285
0.21285
0.21285
0.21285
0.21285
0.21285
0.21285
0.21285
0.21285
0.21285
0.21285
0.21285
0.21285
0.21285
0.21285
0.21285
0.21285
0.21285
0.21285
0.21285
0.21285
0.21285
0.21285
0.21285
0.21285
0.21285
0.21285
0.21285
0.21285
0.21285
0.21285
0.21285
0.21285
0.21285
0.21326
0.213447
0.213544
0.213609
0.213631
0.213652
0.21365
0.21367
0.213631
0.213789
0.21369
0.213361
0.213725
0.21412
0.213732
0.212838
0.213376
0.215138
0.213796
0.213168
0.213432
0.212477
0.21301
0.214328
0.21418
0.21468
0.21472
0.213044
0.213628
0.216409
0.213634
0.211761
0.215021
0.216473
0.211877
0.212161
0.213701
0.214944
0.210905
0.212284
0.214379
0.215271
0.211969
0.211683
0.214639
0.216434
0.214579
0.212804
0.213102
0.214599
0.215104
0.214639
0.214137
0.213778
0.213547
0.213514
0.213662
0.213856
0.213929
0.213892
0.213902
0.213981
0.214013
0.213986
0.213961
0.213966
0.213982
0.213995
0.214007
0.214016
0.214022
0.21403
0.214037
0.214043
0.214052
0.214061
0.214068
0.214078
0.214088
0.214099
0.214109
0.214121
0.214133
0.214145
0.214159
0.214171
0.214183
0.214197
0.214208
0.214224
0.214245
0.214253
0.214266
0.214293
0.214311
0.214322
0.214336
0.214358
0.214387
0.214405
0.214413
0.214437
0.214471
0.214488
0.214504
0.214532
0.214559
0.214582
0.214604
0.214636
0.214669
0.214687
0.214712
0.214755
0.214782
0.214796
0.214843
0.214887
0.214892
0.214949
0.214985
0.214988
0.215074
0.215075
0.215109
0.215222
0.215148
0.215222
0.215409
0.215249
0.215312
0.215599
0.215382
0.215408
0.215793
0.215544
0.215493
0.215967
0.21578
0.21561
0.216045
0.216014
0.215857
0.216144
0.216103
0.216092
0.216418
0.216261
0.216201
0.216624
0.216547
0.216424
0.216768
0.216707
0.216658
0.21704
0.216959
0.216857
0.217227
0.217173
0.2171
0.21749
0.217448
0.217365
0.217756
0.217721
0.217635
0.218028
0.218005
0.217918
0.218315
0.218301
0.218213
0.218615
0.218612
0.218521
0.218928
0.218936
0.218844
0.219252
0.219272
0.21918
0.21959
0.219619
0.219526
0.219939
0.219977
0.219883
0.220295
0.220345
0.220247
0.22066
0.220721
0.22061
0.221036
0.221087
0.220992
0.2214
0.221463
0.221371
0.221745
0.221871
0.221702
0.222127
0.222204
0.222091
0.222434
0.222543
0.22254
0.222626
0.222886
0.222897
0.223021
0.22308
0.223172
0.223331
0.223449
0.223436
0.223456
0.22367
0.223827
0.223765
0.223746
0.223923
0.224033
0.224042
0.224065
0.224135
0.224182
0.224236
0.224266
0.224318
0.224345
0.224364
0.224501
0.224074
0.223575
0.223581
0.223598
0.223614
)
;

boundaryField
{
    inlet
    {
        type            calculated;
        value           uniform 0;
    }
    outlet
    {
        type            calculated;
        value           uniform 0;
    }
    sideWall
    {
        type            empty;
    }
}


// ************************************************************************* //
