/*--------------------------------*- C++ -*----------------------------------*\
| =========                 |                                                 |
| \\      /  F ield         | foam-extend: Open Source CFD                    |
|  \\    /   O peration     | Version:     3.2                                |
|   \\  /    A nd           | Web:         http://www.foam-extend.org         |
|    \\/     M anipulation  | For copyright notice see file Copyright         |
\*---------------------------------------------------------------------------*/
FoamFile
{
    version     2.0;
    format      ascii;
    class       areaScalarField;
    location    "50";
    object      Dbed;
}
// * * * * * * * * * * * * * * * * * * * * * * * * * * * * * * * * * * * * * //

dimensions      [0 0 0 0 0 0 0];

internalField   nonuniform List<scalar> 
300
(
0.000423
0.000423
0.000423
0.000423
0.000423
0.000423
0.000423
0.000423
0.000423
0.000423
0.000423
0.000423
0.000423
0.000423
0.000423
0.000423
0.000423
0.000423
0.000423
0.000423
0.000423
0.000423
0.000423
0.000423
0.000423
0.000423
0.000423
0.000423
0.000423
0.000423
0.000423
0.000423
0.000423
0.000423
0.000423
0.000423
0.000423
0.000423
0.000423
0.000423
0.000423
0.000423
0.000423
0.000423
0.000423
0.000423
0.000423
0.000423
0.000423
0.000423
0.000423
0.000423
0.000423
0.000423
0.000423
0.000423
0.000423
0.000423
0.000423
0.000423
0.00056443
0.00066792
0.000749821
0.000791495
0.000816461
0.000830444
0.000832463
0.000842876
0.000835619
0.000843838
0.000840861
0.000842128
0.000836627
0.000847321
0.000844821
0.000842195
0.000824888
0.000850253
0.000848884
0.000834469
0.000844158
0.000829858
0.000821127
0.000831012
0.000836326
0.00083216
0.000852285
0.000835901
0.000823367
0.000851575
0.000864986
0.000806894
0.00079493
0.00088086
0.000857395
0.000755879
0.000795033
0.000891782
0.000845193
0.000772475
0.000817547
0.000876948
0.000852405
0.000813454
0.00082885
0.000851623
0.000853837
0.000837023
0.000825773
0.000834733
0.000844196
0.000845303
0.000845107
0.000843009
0.000839956
0.000837339
0.000836236
0.000836545
0.000837366
0.000837077
0.000836575
0.000836982
0.000837596
0.000837598
0.000837401
0.000837245
0.000837259
0.000837272
0.000837297
0.000837332
0.000837332
0.00083733
0.000837339
0.000837286
0.000837264
0.00083724
0.000837191
0.000837135
0.000837087
0.000837041
0.000836991
0.000836927
0.000836906
0.000836845
0.000836814
0.000836787
0.000836694
0.000836665
0.000836615
0.000836503
0.000836541
0.000836487
0.00083631
0.000836321
0.000836354
0.000836249
0.000836135
0.000836025
0.000836047
0.000836065
0.000835894
0.000835734
0.000835794
0.000835751
0.000835579
0.000835506
0.00083547
0.000835385
0.00083527
0.000835182
0.000835206
0.000835097
0.00083488
0.000834884
0.000834917
0.000834645
0.000834445
0.00083473
0.000834365
0.000834146
0.000834609
0.000833746
0.000834105
0.000834235
0.000833153
0.000834346
0.000833809
0.00083219
0.000834523
0.000833871
0.000831018
0.000834472
0.000833985
0.000830073
0.000834094
0.000834405
0.000829128
0.000833261
0.000834754
0.000829225
0.000831802
0.000834113
0.000829969
0.000831598
0.000832606
0.00082923
0.000832051
0.000832747
0.000828079
0.000831024
0.000832728
0.000828365
0.000830462
0.000831691
0.000827595
0.000830236
0.000831672
0.00082724
0.000829415
0.000830804
0.000826467
0.000828769
0.000830354
0.000826025
0.000828268
0.000829939
0.000825586
0.000827745
0.000829486
0.000825133
0.000827224
0.000829033
0.000824667
0.000826696
0.000828596
0.000824215
0.000826161
0.000828153
0.00082378
0.000825637
0.000827707
0.000823356
0.000825134
0.000827276
0.000822926
0.000824651
0.000826855
0.000822524
0.000824181
0.000826423
0.000822206
0.000823616
0.000826184
0.000821718
0.000823261
0.000825824
0.000821204
0.000823247
0.000824869
0.000821753
0.000821856
0.000825495
0.000820961
0.000821635
0.000825388
0.000819812
0.000823197
0.000821945
0.00082368
0.000819727
0.000823444
0.00082131
0.00082239
0.00082181
0.000820907
0.000822256
0.000821094
0.00082363
0.000818611
0.000822886
0.000819947
0.000824921
0.000817597
0.000823708
0.000818436
0.000824827
0.000817043
0.000823451
0.000817032
0.000824258
0.000817139
0.000823047
0.000820957
0.000811689
0.000842078
0.000660769
0.000423
0.000423
0.000423
0.000423
)
;

boundaryField
{
    inlet
    {
        type            calculated;
        value           uniform 0;
    }
    outlet
    {
        type            calculated;
        value           uniform 0;
    }
    sideWall
    {
        type            empty;
    }
}


// ************************************************************************* //
