/*--------------------------------*- C++ -*----------------------------------*\
| =========                 |                                                 |
| \\      /  F ield         | foam-extend: Open Source CFD                    |
|  \\    /   O peration     | Version:     3.2                                |
|   \\  /    A nd           | Web:         http://www.foam-extend.org         |
|    \\/     M anipulation  | For copyright notice see file Copyright         |
\*---------------------------------------------------------------------------*/
FoamFile
{
    version     2.0;
    format      ascii;
    class       areaScalarField;
    location    "50";
    object      deltaHb;
}
// * * * * * * * * * * * * * * * * * * * * * * * * * * * * * * * * * * * * * //

dimensions      [0 1 -1 0 0 0 0];

internalField   nonuniform List<scalar> 
300
(
0
0
0
0
0
0
0
0
0
0
0
0
0
0
0
0
0
0
0
0
0
0
0
0
0
0
0
0
0
0
0
0
0
0
0
0
0
0
0
0
0
0
0
0
0
0
0
0
0
0
0
0
0
0
0
0
0
0
0
0
0
0
0
0
0
0
0
0
0
0
1.22566e-07
3.86893e-07
-2.54957e-07
-5.09283e-07
3.37627e-07
1.15093e-06
-4.60918e-07
-1.3808e-06
8.252e-07
3.79343e-07
7.4348e-08
1.1999e-06
-2.32857e-07
-7.74554e-07
7.46241e-08
-8.34915e-07
-2.90629e-07
1.80876e-06
-7.42831e-07
-2.67742e-06
2.50727e-06
2.48118e-06
-3.70003e-06
-1.93589e-06
5.50442e-06
4.06539e-07
-5.69409e-06
5.58283e-07
5.70007e-06
-6.67896e-07
-4.35412e-06
1.19649e-07
3.38167e-06
1.17248e-06
-1.92515e-06
-1.92361e-06
1.0032e-06
1.634e-06
-8.06429e-08
-9.44646e-07
-5.56232e-07
-2.97415e-08
1.46882e-07
2.58826e-07
2.75665e-07
1.55918e-07
2.30592e-08
-7.12062e-08
-4.1503e-08
3.81006e-08
8.89026e-09
-5.66493e-08
-3.88277e-08
9.97038e-09
1.79737e-08
3.19674e-09
-4.38361e-09
-5.74603e-09
-6.48078e-09
-5.06635e-09
-2.87609e-09
-3.3176e-09
-1.9194e-09
-7.72077e-10
-1.98026e-09
1.13308e-09
2.29728e-09
-1.04442e-09
-1.24434e-09
-3.89862e-10
5.57513e-10
-3.12935e-10
-1.35361e-09
-6.61151e-10
-2.2674e-09
-1.04625e-09
7.61038e-10
-2.42883e-10
2.37387e-09
-2.59497e-09
-6.26431e-09
4.97212e-09
1.62346e-09
-9.73868e-09
-4.5185e-09
3.41394e-09
5.09309e-09
-2.71316e-09
-1.07391e-08
-1.08485e-10
1.01076e-08
-3.86437e-09
-1.10241e-08
3.27865e-09
4.87722e-09
-4.27572e-09
-3.62676e-09
1.17393e-09
2.27863e-09
-6.44424e-09
-6.78297e-09
7.57854e-09
1.09271e-09
-1.40683e-08
1.54977e-09
1.63244e-08
-1.57381e-08
-1.13659e-08
2.14428e-08
-2.31396e-08
4.46225e-09
2.17569e-08
-4.08924e-08
3.46862e-08
-1.17391e-08
-6.1329e-08
1.11848e-07
-4.22009e-08
-1.28703e-07
1.87244e-07
-3.09062e-08
-2.04678e-07
2.34372e-07
6.25871e-10
-2.80189e-07
2.5495e-07
7.96146e-08
-3.5995e-07
1.94059e-07
2.04261e-07
-3.1664e-07
5.72604e-08
1.69048e-07
-1.75439e-07
8.73928e-08
4.03272e-08
-2.24428e-07
1.82427e-07
1.11655e-07
-2.96426e-07
1.11163e-07
1.53994e-07
-2.23803e-07
1.13231e-07
9.98424e-08
-2.65733e-07
1.25739e-07
1.51029e-07
-2.41837e-07
1.15599e-07
1.36299e-07
-2.56062e-07
1.05949e-07
1.41223e-07
-2.57189e-07
1.01932e-07
1.4757e-07
-2.56115e-07
9.66629e-08
1.51517e-07
-2.55449e-07
9.25116e-08
1.55912e-07
-2.56097e-07
8.73318e-08
1.61566e-07
-2.55372e-07
8.09417e-08
1.66083e-07
-2.53291e-07
7.49571e-08
1.6912e-07
-2.51361e-07
7.07211e-08
1.72021e-07
-2.50283e-07
6.62367e-08
1.74861e-07
-2.47382e-07
5.91326e-08
1.80945e-07
-2.48593e-07
5.48909e-08
1.88475e-07
-2.52546e-07
5.92725e-08
1.76044e-07
-2.35786e-07
4.25355e-08
1.82949e-07
-2.25557e-07
1.4088e-08
2.21279e-07
-2.46914e-07
3.34613e-08
1.73675e-07
-1.59762e-07
-4.21503e-08
1.11961e-07
1.04198e-08
-1.01364e-07
3.75746e-08
-1.06878e-08
3.25867e-08
1.36195e-08
-6.06046e-08
-5.43676e-08
8.97006e-08
7.6412e-08
-1.13572e-07
-9.45173e-08
1.08102e-07
8.78441e-08
-7.86431e-08
-5.45625e-08
3.4042e-08
0
0
0
0
0
0
0
0
0
0
0
0
0
0
)
;

boundaryField
{
    inlet
    {
        type            zeroGradient;
    }
    outlet
    {
        type            zeroGradient;
    }
    sideWall
    {
        type            empty;
    }
}


// ************************************************************************* //
