/*--------------------------------*- C++ -*----------------------------------*\
| =========                 |                                                 |
| \\      /  F ield         | foam-extend: Open Source CFD                    |
|  \\    /   O peration     | Version:     3.2                                |
|   \\  /    A nd           | Web:         http://www.foam-extend.org         |
|    \\/     M anipulation  | For copyright notice see file Copyright         |
\*---------------------------------------------------------------------------*/
FoamFile
{
    version     2.0;
    format      ascii;
    class       areaScalarField;
    location    "50";
    object      deltaH;
}
// * * * * * * * * * * * * * * * * * * * * * * * * * * * * * * * * * * * * * //

dimensions      [0 1 -1 0 0 0 0];

internalField   nonuniform List<scalar> 
300
(
0
0
0
0
0
0
0
0
0
0
0
0
0
0
0
0
0
0
0
0
0
0
0
0
0
0
0
0
0
0
0
0
0
0
0
0
0
0
0
0
0
0
0
0
0
0
0
0
0
0
0
0
0
0
0
0
0
0
0
0
-4.94314e-06
-5.57327e-06
-5.74959e-06
-5.81588e-06
-5.84569e-06
-5.85784e-06
-5.86637e-06
-5.87278e-06
-5.85749e-06
-5.96481e-06
-5.75824e-06
-5.24544e-06
-6.22503e-06
-6.69641e-06
-5.51613e-06
-4.074e-06
-6.27402e-06
-8.30828e-06
-4.8168e-06
-5.04706e-06
-5.77427e-06
-3.88496e-06
-5.94823e-06
-7.31398e-06
-6.0173e-06
-7.2375e-06
-6.65584e-06
-3.24232e-06
-6.52517e-06
-1.01824e-05
-2.65759e-06
-1.6446e-06
-1.1103e-05
-9.20434e-06
1.97506e-06
-4.55435e-06
-1.20937e-05
-6.47577e-06
2.56088e-06
-5.99715e-06
-1.11305e-05
-6.8219e-06
-6.65174e-07
-3.45289e-06
-8.64852e-06
-9.38613e-06
-4.79985e-06
-3.12267e-06
-5.57705e-06
-7.45779e-06
-7.1028e-06
-6.10349e-06
-5.64603e-06
-5.41193e-06
-5.34008e-06
-5.521e-06
-5.79073e-06
-5.9963e-06
-5.97393e-06
-5.84238e-06
-5.87763e-06
-5.99122e-06
-5.97724e-06
-5.89663e-06
-5.87255e-06
-5.89462e-06
-5.91098e-06
-5.91606e-06
-5.91881e-06
-5.91792e-06
-5.91449e-06
-5.91548e-06
-5.91356e-06
-5.91138e-06
-5.91354e-06
-5.91105e-06
-5.90887e-06
-5.91373e-06
-5.91553e-06
-5.91602e-06
-5.91601e-06
-5.91839e-06
-5.92112e-06
-5.9212e-06
-5.92504e-06
-5.92476e-06
-5.92317e-06
-5.92678e-06
-5.92306e-06
-5.93109e-06
-5.94065e-06
-5.92405e-06
-5.92736e-06
-5.94912e-06
-5.94409e-06
-5.93271e-06
-5.93036e-06
-5.94316e-06
-5.95987e-06
-5.94715e-06
-5.92961e-06
-5.95062e-06
-5.96752e-06
-5.94887e-06
-5.94465e-06
-5.96052e-06
-5.9632e-06
-5.95773e-06
-5.95673e-06
-5.97153e-06
-5.97742e-06
-5.95659e-06
-5.96467e-06
-5.99265e-06
-5.97409e-06
-5.94935e-06
-5.9977e-06
-6.00257e-06
-5.9481e-06
-6.01694e-06
-5.98843e-06
-5.94837e-06
-6.05653e-06
-5.9469e-06
-5.99786e-06
-6.10726e-06
-5.83779e-06
-6.036e-06
-6.23115e-06
-5.73842e-06
-6.00614e-06
-6.36435e-06
-5.68638e-06
-5.94903e-06
-6.49187e-06
-5.67715e-06
-5.82746e-06
-6.60235e-06
-5.80697e-06
-5.66203e-06
-6.51034e-06
-6.01466e-06
-5.75356e-06
-6.31215e-06
-5.9404e-06
-5.94921e-06
-6.42579e-06
-5.81573e-06
-5.83002e-06
-6.52743e-06
-5.95902e-06
-5.79202e-06
-6.41401e-06
-5.94033e-06
-5.8798e-06
-6.49853e-06
-5.94653e-06
-5.80918e-06
-6.45669e-06
-5.96083e-06
-5.8409e-06
-6.49262e-06
-5.99254e-06
-5.84615e-06
-6.50289e-06
-6.00876e-06
-5.84543e-06
-6.50785e-06
-6.02522e-06
-5.848e-06
-6.51371e-06
-6.0398e-06
-5.84925e-06
-6.5212e-06
-6.05591e-06
-5.8483e-06
-6.52586e-06
-6.07309e-06
-5.84873e-06
-6.52807e-06
-6.08878e-06
-5.85071e-06
-6.53017e-06
-6.1012e-06
-5.85173e-06
-6.53311e-06
-6.11316e-06
-5.85254e-06
-6.53189e-06
-6.12864e-06
-5.84795e-06
-6.53497e-06
-6.14197e-06
-5.83645e-06
-6.54609e-06
-6.13455e-06
-5.85886e-06
-6.52273e-06
-6.15745e-06
-5.85806e-06
-6.49611e-06
-6.21909e-06
-5.78741e-06
-6.53771e-06
-6.17876e-06
-5.86763e-06
-6.41e-06
-6.25599e-06
-6.0141e-06
-6.11935e-06
-6.34705e-06
-6.11342e-06
-6.19067e-06
-6.11892e-06
-6.13955e-06
-6.26094e-06
-6.26603e-06
-6.04239e-06
-6.02857e-06
-6.32478e-06
-6.34719e-06
-6.02071e-06
-6.00649e-06
-6.26726e-06
-6.26786e-06
-6.12007e-06
-6.15045e-06
-6.16278e-06
-6.16828e-06
-6.16472e-06
-6.16512e-06
-6.16746e-06
-6.16014e-06
-6.17266e-06
-6.1384e-06
-5.71667e-06
0
0
0
0
)
;

boundaryField
{
    inlet
    {
        type            zeroGradient;
    }
    outlet
    {
        type            zeroGradient;
    }
    sideWall
    {
        type            empty;
    }
}


// ************************************************************************* //
