/*--------------------------------*- C++ -*----------------------------------*\
| =========                 |                                                 |
| \\      /  F ield         | foam-extend: Open Source CFD                    |
|  \\    /   O peration     | Version:     3.2                                |
|   \\  /    A nd           | Web:         http://www.foam-extend.org         |
|    \\/     M anipulation  | For copyright notice see file Copyright         |
\*---------------------------------------------------------------------------*/
FoamFile
{
    version     2.0;
    format      ascii;
    class       areaScalarField;
    location    "50";
    object      deltaHs;
}
// * * * * * * * * * * * * * * * * * * * * * * * * * * * * * * * * * * * * * //

dimensions      [0 1 -1 0 0 0 0];

internalField   nonuniform List<scalar> 
300
(
-8.55748e-05
-4.0377e-05
-2.3316e-05
-2.34643e-05
-2.2073e-05
-2.20705e-05
-2.14053e-05
-2.1374e-05
-2.11382e-05
-2.12275e-05
-2.12489e-05
-2.14026e-05
-2.1558e-05
-2.18053e-05
-2.20384e-05
-2.23342e-05
-2.2637e-05
-2.29779e-05
-2.33183e-05
-2.36934e-05
-2.40914e-05
-2.45038e-05
-2.49309e-05
-2.53665e-05
-2.581e-05
-2.62621e-05
-2.66871e-05
-2.70607e-05
-2.73781e-05
-2.76449e-05
-2.78687e-05
-2.80546e-05
-2.82105e-05
-2.8339e-05
-2.84475e-05
-2.85359e-05
-2.8612e-05
-2.86729e-05
-2.87273e-05
-2.87691e-05
-2.88091e-05
-2.88374e-05
-2.88682e-05
-2.88871e-05
-2.89117e-05
-2.8923e-05
-2.89433e-05
-2.89471e-05
-2.89705e-05
-2.89605e-05
-2.89997e-05
-2.89552e-05
-2.90406e-05
-2.89158e-05
-2.91284e-05
-2.87942e-05
-2.93475e-05
-2.85185e-05
-3.01787e-05
-1.672e-05
-4.94314e-06
-5.57327e-06
-5.74959e-06
-5.81588e-06
-5.84569e-06
-5.85784e-06
-5.86637e-06
-5.87278e-06
-5.85749e-06
-5.96481e-06
-5.88081e-06
-5.63233e-06
-5.97008e-06
-6.18713e-06
-5.85376e-06
-5.22492e-06
-5.8131e-06
-6.92748e-06
-5.642e-06
-5.4264e-06
-5.84862e-06
-5.08486e-06
-5.71537e-06
-6.53942e-06
-6.09192e-06
-6.40259e-06
-6.36521e-06
-5.05108e-06
-5.78234e-06
-7.50503e-06
-5.16486e-06
-4.12577e-06
-7.40295e-06
-7.26845e-06
-3.52935e-06
-4.96089e-06
-6.39963e-06
-7.03405e-06
-3.13918e-06
-5.32925e-06
-6.77634e-06
-6.94155e-06
-4.04684e-06
-4.62537e-06
-6.72337e-06
-7.46253e-06
-5.80305e-06
-4.75667e-06
-5.4964e-06
-6.51314e-06
-6.54657e-06
-6.07375e-06
-5.79291e-06
-5.67075e-06
-5.61575e-06
-5.67692e-06
-5.81379e-06
-5.9251e-06
-5.93243e-06
-5.88048e-06
-5.88652e-06
-5.93457e-06
-5.93841e-06
-5.9066e-06
-5.89053e-06
-5.89781e-06
-5.90659e-06
-5.91031e-06
-5.91233e-06
-5.91286e-06
-5.91161e-06
-5.91216e-06
-5.91164e-06
-5.91061e-06
-5.91156e-06
-5.91218e-06
-5.91117e-06
-5.91268e-06
-5.91428e-06
-5.91563e-06
-5.91657e-06
-5.91808e-06
-5.91977e-06
-5.92053e-06
-5.92277e-06
-5.92371e-06
-5.92393e-06
-5.92654e-06
-5.92543e-06
-5.92849e-06
-5.93438e-06
-5.92902e-06
-5.92898e-06
-5.93938e-06
-5.93957e-06
-5.93612e-06
-5.93545e-06
-5.94044e-06
-5.94913e-06
-5.94705e-06
-5.93972e-06
-5.94676e-06
-5.9565e-06
-5.95215e-06
-5.94953e-06
-5.95625e-06
-5.95957e-06
-5.9589e-06
-5.95901e-06
-5.96508e-06
-5.97064e-06
-5.96417e-06
-5.96576e-06
-5.97858e-06
-5.97564e-06
-5.96567e-06
-5.98196e-06
-5.99121e-06
-5.96954e-06
-5.9938e-06
-5.99289e-06
-5.97013e-06
-6.01564e-06
-5.98158e-06
-5.98612e-06
-6.04594e-06
-5.94964e-06
-5.9938e-06
-6.10245e-06
-5.92566e-06
-5.97523e-06
-6.15967e-06
-5.92075e-06
-5.94965e-06
-6.21168e-06
-5.9321e-06
-5.90707e-06
-6.2424e-06
-6.00103e-06
-5.86629e-06
-6.1937e-06
-6.07193e-06
-5.92261e-06
-6.13671e-06
-6.02779e-06
-5.98954e-06
-6.20136e-06
-5.99816e-06
-5.94168e-06
-6.231e-06
-6.07019e-06
-5.94601e-06
-6.19021e-06
-6.05356e-06
-5.97964e-06
-6.2328e-06
-6.07227e-06
-5.96021e-06
-6.21485e-06
-6.07642e-06
-5.9772e-06
-6.23656e-06
-6.09849e-06
-5.98737e-06
-6.2457e-06
-6.11069e-06
-5.993e-06
-6.25174e-06
-6.12189e-06
-5.99951e-06
-6.25826e-06
-6.13231e-06
-6.00516e-06
-6.2651e-06
-6.14325e-06
-6.00987e-06
-6.27049e-06
-6.15403e-06
-6.01481e-06
-6.27478e-06
-6.16374e-06
-6.01983e-06
-6.27881e-06
-6.17192e-06
-6.02375e-06
-6.28282e-06
-6.1794e-06
-6.02741e-06
-6.28451e-06
-6.18777e-06
-6.02889e-06
-6.28638e-06
-6.19686e-06
-6.02492e-06
-6.29354e-06
-6.19382e-06
-6.03491e-06
-6.28694e-06
-6.19998e-06
-6.04101e-06
-6.27055e-06
-6.23318e-06
-6.00868e-06
-6.2908e-06
-6.21222e-06
-6.0413e-06
-6.25024e-06
-6.21384e-06
-6.12606e-06
-6.12977e-06
-6.24568e-06
-6.15099e-06
-6.17998e-06
-6.15151e-06
-6.15317e-06
-6.20034e-06
-6.21166e-06
-6.13209e-06
-6.10498e-06
-6.21121e-06
-6.25267e-06
-6.12881e-06
-6.09434e-06
-6.18862e-06
-6.21329e-06
-6.15411e-06
-6.15045e-06
-6.16278e-06
-6.16828e-06
-6.16472e-06
-6.16512e-06
-6.16746e-06
-6.16014e-06
-6.17266e-06
-6.1384e-06
-5.71667e-06
-2.13708e-05
-3.30678e-05
-2.73826e-05
-2.85611e-05
)
;

boundaryField
{
    inlet
    {
        type            calculated;
        value           uniform -4.34536e-05;
    }
    outlet
    {
        type            calculated;
        value           uniform -1.27158e-05;
    }
    sideWall
    {
        type            empty;
    }
}


// ************************************************************************* //
