/*--------------------------------*- C++ -*----------------------------------*\
| =========                 |                                                 |
| \\      /  F ield         | foam-extend: Open Source CFD                    |
|  \\    /   O peration     | Version:     3.2                                |
|   \\  /    A nd           | Web:         http://www.foam-extend.org         |
|    \\/     M anipulation  | For copyright notice see file Copyright         |
\*---------------------------------------------------------------------------*/
FoamFile
{
    version     2.0;
    format      ascii;
    class       volScalarField;
    location    "50";
    object      DiSSt;
}
// * * * * * * * * * * * * * * * * * * * * * * * * * * * * * * * * * * * * * //

dimensions      [0 2 -1 0 0 0 0];

internalField   nonuniform List<scalar> 
5400
(
3.38997e-05
2.71954e-05
2.34672e-05
2.35051e-05
2.3144e-05
2.31433e-05
2.29665e-05
2.2958e-05
2.28946e-05
2.29187e-05
2.29245e-05
2.29658e-05
2.30074e-05
2.30732e-05
2.31349e-05
2.32127e-05
2.32918e-05
2.33802e-05
2.34678e-05
2.35635e-05
2.36642e-05
2.37676e-05
2.38738e-05
2.39811e-05
2.40893e-05
2.41985e-05
2.43004e-05
2.43891e-05
2.4464e-05
2.45266e-05
2.45789e-05
2.46221e-05
2.46583e-05
2.4688e-05
2.4713e-05
2.47333e-05
2.47508e-05
2.47648e-05
2.47773e-05
2.47869e-05
2.4796e-05
2.48025e-05
2.48095e-05
2.48138e-05
2.48195e-05
2.4822e-05
2.48269e-05
2.48281e-05
2.48334e-05
2.48312e-05
2.48401e-05
2.48299e-05
2.48494e-05
2.4821e-05
2.48694e-05
2.47932e-05
2.49191e-05
2.47304e-05
2.50991e-05
2.43346e-05
2.09802e-05
2.08046e-05
2.11306e-05
2.12062e-05
2.14388e-05
2.14728e-05
2.15453e-05
2.15919e-05
2.15928e-05
2.16081e-05
2.16622e-05
2.15632e-05
2.15309e-05
2.16554e-05
2.17021e-05
2.15348e-05
2.13069e-05
2.17063e-05
2.17736e-05
2.14176e-05
2.16432e-05
2.13888e-05
2.12215e-05
2.14805e-05
2.14959e-05
2.14541e-05
2.1788e-05
2.15454e-05
2.11569e-05
2.18208e-05
2.20583e-05
2.09691e-05
2.11648e-05
2.23672e-05
2.17652e-05
2.05019e-05
2.16311e-05
2.26463e-05
2.14254e-05
2.06842e-05
2.17113e-05
2.22627e-05
2.16532e-05
2.11093e-05
2.12382e-05
2.18068e-05
2.18844e-05
2.14506e-05
2.13191e-05
2.14909e-05
2.16546e-05
2.16787e-05
2.16589e-05
2.16263e-05
2.15691e-05
2.15309e-05
2.15165e-05
2.15247e-05
2.15419e-05
2.15388e-05
2.15285e-05
2.1536e-05
2.15485e-05
2.15493e-05
2.15447e-05
2.15431e-05
2.15436e-05
2.15447e-05
2.15456e-05
2.15469e-05
2.15474e-05
2.15479e-05
2.15485e-05
2.15485e-05
2.15487e-05
2.15492e-05
2.15483e-05
2.15483e-05
2.15487e-05
2.15488e-05
2.15489e-05
2.15486e-05
2.1549e-05
2.15491e-05
2.15492e-05
2.15499e-05
2.15496e-05
2.15497e-05
2.15497e-05
2.15488e-05
2.15507e-05
2.1551e-05
2.15489e-05
2.15504e-05
2.15522e-05
2.1552e-05
2.1551e-05
2.15502e-05
2.1552e-05
2.1554e-05
2.1552e-05
2.15504e-05
2.15534e-05
2.15543e-05
2.15523e-05
2.15526e-05
2.15538e-05
2.15539e-05
2.15533e-05
2.15531e-05
2.15556e-05
2.15554e-05
2.15529e-05
2.15551e-05
2.15578e-05
2.15545e-05
2.15521e-05
2.15601e-05
2.1556e-05
2.15526e-05
2.15642e-05
2.15509e-05
2.15568e-05
2.15651e-05
2.15445e-05
2.15696e-05
2.15655e-05
2.15303e-05
2.15812e-05
2.15746e-05
2.15153e-05
2.15868e-05
2.15859e-05
2.1504e-05
2.15873e-05
2.16013e-05
2.14972e-05
2.15749e-05
2.16231e-05
2.15056e-05
2.15521e-05
2.16171e-05
2.1531e-05
2.15584e-05
2.15926e-05
2.15271e-05
2.15794e-05
2.16056e-05
2.15143e-05
2.15672e-05
2.16188e-05
2.15272e-05
2.15652e-05
2.16062e-05
2.15244e-05
2.15717e-05
2.16182e-05
2.15264e-05
2.15656e-05
2.16118e-05
2.15239e-05
2.15644e-05
2.16145e-05
2.15261e-05
2.15653e-05
2.16171e-05
2.15284e-05
2.15656e-05
2.1619e-05
2.15305e-05
2.15662e-05
2.1621e-05
2.15325e-05
2.15666e-05
2.16232e-05
2.15347e-05
2.15668e-05
2.16253e-05
2.15371e-05
2.15672e-05
2.1627e-05
2.15395e-05
2.15679e-05
2.16289e-05
2.15417e-05
2.15687e-05
2.16307e-05
2.1544e-05
2.15694e-05
2.16321e-05
2.15472e-05
2.15687e-05
2.1636e-05
2.15478e-05
2.15698e-05
2.16381e-05
2.15474e-05
2.15762e-05
2.16316e-05
2.15598e-05
2.15672e-05
2.16409e-05
2.15608e-05
2.15627e-05
2.16495e-05
2.15494e-05
2.15881e-05
2.16065e-05
2.16029e-05
2.15664e-05
2.15995e-05
2.16025e-05
2.15858e-05
2.16064e-05
2.1574e-05
2.16021e-05
2.15955e-05
2.16213e-05
2.15631e-05
2.15946e-05
2.16039e-05
2.1628e-05
2.15649e-05
2.1597e-05
2.15932e-05
2.16164e-05
2.15805e-05
2.16012e-05
2.15787e-05
2.16043e-05
2.15829e-05
2.1599e-05
2.15776e-05
2.16173e-05
2.13289e-05
2.32859e-05
2.6722e-05
2.57846e-05
2.45444e-05
2.48154e-05
3.2309e-05
4.26988e-05
4.63696e-05
4.91185e-05
5.08853e-05
5.17396e-05
5.23841e-05
5.27724e-05
5.31772e-05
5.34909e-05
5.38081e-05
5.41135e-05
5.44153e-05
5.47287e-05
5.50297e-05
5.53315e-05
5.56363e-05
5.59397e-05
5.62465e-05
5.65517e-05
5.68533e-05
5.71518e-05
5.74443e-05
5.77292e-05
5.80045e-05
5.82569e-05
5.8472e-05
5.86434e-05
5.87765e-05
5.88795e-05
5.89593e-05
5.90218e-05
5.90705e-05
5.91094e-05
5.91399e-05
5.9165e-05
5.91847e-05
5.92016e-05
5.92147e-05
5.92268e-05
5.92357e-05
5.92448e-05
5.9251e-05
5.92583e-05
5.92625e-05
5.9268e-05
5.92715e-05
5.92754e-05
5.92793e-05
5.92801e-05
5.92865e-05
5.92812e-05
5.92938e-05
5.92763e-05
5.9306e-05
5.92579e-05
5.93336e-05
5.92213e-05
5.93181e-05
5.74986e-05
5.64879e-05
5.53647e-05
5.42531e-05
5.364e-05
5.30685e-05
5.2773e-05
5.25314e-05
5.24234e-05
5.22462e-05
5.21542e-05
5.2059e-05
5.19147e-05
5.18629e-05
5.18005e-05
5.17419e-05
5.16987e-05
5.16705e-05
5.16462e-05
5.16322e-05
5.14873e-05
5.16029e-05
5.14576e-05
5.1415e-05
5.13759e-05
5.12537e-05
5.13145e-05
5.1485e-05
5.14509e-05
5.14409e-05
5.16563e-05
5.15606e-05
5.13482e-05
5.15027e-05
5.17665e-05
5.14467e-05
5.15688e-05
5.16806e-05
5.16687e-05
5.15421e-05
5.17673e-05
5.17323e-05
5.14491e-05
5.15397e-05
5.16001e-05
5.15615e-05
5.14996e-05
5.14798e-05
5.15902e-05
5.1655e-05
5.15501e-05
5.14798e-05
5.15715e-05
5.16806e-05
5.1721e-05
5.17143e-05
5.1677e-05
5.16197e-05
5.15862e-05
5.15622e-05
5.15579e-05
5.15544e-05
5.15558e-05
5.15538e-05
5.15561e-05
5.15605e-05
5.15628e-05
5.15617e-05
5.15607e-05
5.15612e-05
5.15615e-05
5.15631e-05
5.15648e-05
5.15668e-05
5.15679e-05
5.1569e-05
5.15703e-05
5.15703e-05
5.15709e-05
5.15721e-05
5.1572e-05
5.1572e-05
5.15728e-05
5.15731e-05
5.15733e-05
5.1574e-05
5.15749e-05
5.15755e-05
5.15757e-05
5.15756e-05
5.15761e-05
5.15768e-05
5.15776e-05
5.15773e-05
5.1578e-05
5.15785e-05
5.15789e-05
5.15794e-05
5.15797e-05
5.15796e-05
5.15803e-05
5.15811e-05
5.15818e-05
5.15823e-05
5.15827e-05
5.15834e-05
5.15845e-05
5.15848e-05
5.15851e-05
5.15852e-05
5.15857e-05
5.15871e-05
5.15876e-05
5.15876e-05
5.15882e-05
5.15889e-05
5.1589e-05
5.15882e-05
5.15929e-05
5.15904e-05
5.15907e-05
5.15978e-05
5.15906e-05
5.15954e-05
5.15975e-05
5.15883e-05
5.16027e-05
5.15966e-05
5.1584e-05
5.16118e-05
5.16009e-05
5.15832e-05
5.16185e-05
5.1605e-05
5.15824e-05
5.16209e-05
5.16129e-05
5.15853e-05
5.16164e-05
5.16329e-05
5.15723e-05
5.16093e-05
5.16329e-05
5.15826e-05
5.16153e-05
5.16225e-05
5.15979e-05
5.16204e-05
5.16311e-05
5.15939e-05
5.16194e-05
5.16411e-05
5.15899e-05
5.16241e-05
5.16417e-05
5.15965e-05
5.16238e-05
5.16465e-05
5.15945e-05
5.1627e-05
5.16471e-05
5.15944e-05
5.16231e-05
5.16451e-05
5.15931e-05
5.16234e-05
5.16471e-05
5.15953e-05
5.16258e-05
5.16501e-05
5.15981e-05
5.16284e-05
5.16532e-05
5.16009e-05
5.16309e-05
5.16562e-05
5.16037e-05
5.16335e-05
5.16591e-05
5.16066e-05
5.1636e-05
5.1662e-05
5.16096e-05
5.16386e-05
5.16649e-05
5.16125e-05
5.16412e-05
5.16676e-05
5.16153e-05
5.16435e-05
5.16697e-05
5.16182e-05
5.16455e-05
5.1673e-05
5.16204e-05
5.16488e-05
5.16774e-05
5.16221e-05
5.16515e-05
5.16734e-05
5.16281e-05
5.16491e-05
5.16709e-05
5.16356e-05
5.16549e-05
5.16914e-05
5.16266e-05
5.16624e-05
5.16593e-05
5.16514e-05
5.16617e-05
5.16627e-05
5.16569e-05
5.16565e-05
5.16683e-05
5.16466e-05
5.16695e-05
5.16613e-05
5.16787e-05
5.16548e-05
5.16667e-05
5.16595e-05
5.16611e-05
5.16643e-05
5.1673e-05
5.16692e-05
5.16549e-05
5.16683e-05
5.16601e-05
5.16691e-05
5.16561e-05
5.16583e-05
5.16649e-05
5.16445e-05
5.16384e-05
5.20536e-05
5.34454e-05
5.50705e-05
5.53613e-05
5.64317e-05
5.7462e-05
2.95091e-05
4.63222e-05
5.43724e-05
6.33143e-05
7.01947e-05
7.36419e-05
7.59228e-05
7.77531e-05
7.91502e-05
8.03956e-05
8.1404e-05
8.23495e-05
8.32076e-05
8.39981e-05
8.47557e-05
8.54626e-05
8.61458e-05
8.68076e-05
8.74466e-05
8.80639e-05
8.8658e-05
8.92282e-05
8.9772e-05
9.0285e-05
9.07675e-05
9.11871e-05
9.15026e-05
9.1726e-05
9.18827e-05
9.19915e-05
9.20677e-05
9.21198e-05
9.21564e-05
9.21808e-05
9.21986e-05
9.22102e-05
9.22195e-05
9.22256e-05
9.22315e-05
9.22354e-05
9.22399e-05
9.22428e-05
9.2247e-05
9.22494e-05
9.22533e-05
9.22547e-05
9.22584e-05
9.22603e-05
9.22629e-05
9.22652e-05
9.22651e-05
9.22674e-05
9.2267e-05
9.22685e-05
9.22658e-05
9.22678e-05
9.22624e-05
9.23248e-05
9.21363e-05
8.79027e-05
8.81467e-05
8.84605e-05
8.74353e-05
8.64571e-05
8.50815e-05
8.42222e-05
8.34434e-05
8.29269e-05
8.24084e-05
8.21706e-05
8.17497e-05
8.15112e-05
8.14078e-05
8.12745e-05
8.09388e-05
8.08069e-05
8.11092e-05
8.09787e-05
8.05247e-05
8.06997e-05
8.0521e-05
8.03689e-05
8.06635e-05
8.04046e-05
8.02921e-05
8.04997e-05
8.03527e-05
8.01679e-05
8.09356e-05
8.08945e-05
7.99765e-05
8.05422e-05
8.14047e-05
8.04536e-05
7.98197e-05
8.11333e-05
8.1429e-05
7.98754e-05
8.01668e-05
8.13068e-05
8.10839e-05
8.02508e-05
8.04943e-05
8.07038e-05
8.09851e-05
8.07848e-05
8.03099e-05
8.05668e-05
8.07886e-05
8.0703e-05
8.06718e-05
8.06976e-05
8.07795e-05
8.08022e-05
8.08029e-05
8.07687e-05
8.07307e-05
8.07024e-05
8.06741e-05
8.06483e-05
8.06495e-05
8.0649e-05
8.06445e-05
8.06379e-05
8.06419e-05
8.06436e-05
8.0643e-05
8.06427e-05
8.06432e-05
8.06441e-05
8.06461e-05
8.06485e-05
8.06505e-05
8.06527e-05
8.0654e-05
8.06543e-05
8.06572e-05
8.06596e-05
8.06603e-05
8.066e-05
8.06595e-05
8.06608e-05
8.06617e-05
8.0662e-05
8.06631e-05
8.06635e-05
8.0664e-05
8.06657e-05
8.0666e-05
8.0668e-05
8.06686e-05
8.06676e-05
8.06697e-05
8.06704e-05
8.06701e-05
8.067e-05
8.06706e-05
8.06729e-05
8.06734e-05
8.06722e-05
8.0673e-05
8.06776e-05
8.06768e-05
8.06755e-05
8.06783e-05
8.06804e-05
8.06804e-05
8.06806e-05
8.06811e-05
8.06834e-05
8.06838e-05
8.06832e-05
8.06871e-05
8.06886e-05
8.06853e-05
8.06863e-05
8.06928e-05
8.06903e-05
8.06878e-05
8.06979e-05
8.06907e-05
8.06956e-05
8.07051e-05
8.06882e-05
8.07055e-05
8.07021e-05
8.06769e-05
8.07209e-05
8.07109e-05
8.06675e-05
8.07359e-05
8.07256e-05
8.06572e-05
8.07428e-05
8.0742e-05
8.06519e-05
8.07387e-05
8.07632e-05
8.06605e-05
8.07159e-05
8.07656e-05
8.06836e-05
8.07125e-05
8.07535e-05
8.06965e-05
8.07396e-05
8.0756e-05
8.06816e-05
8.07398e-05
8.07729e-05
8.06925e-05
8.07315e-05
8.07706e-05
8.07032e-05
8.07445e-05
8.07762e-05
8.06999e-05
8.07386e-05
8.07779e-05
8.0706e-05
8.07407e-05
8.07772e-05
8.0703e-05
8.07384e-05
8.07779e-05
8.07046e-05
8.07398e-05
8.07816e-05
8.07087e-05
8.07427e-05
8.07859e-05
8.07127e-05
8.07457e-05
8.07904e-05
8.07167e-05
8.07484e-05
8.07949e-05
8.07209e-05
8.0751e-05
8.0799e-05
8.0725e-05
8.07537e-05
8.0803e-05
8.07289e-05
8.07564e-05
8.08068e-05
8.07324e-05
8.07588e-05
8.081e-05
8.07357e-05
8.076e-05
8.08145e-05
8.07382e-05
8.07625e-05
8.08197e-05
8.07427e-05
8.0768e-05
8.08161e-05
8.07446e-05
8.07626e-05
8.08183e-05
8.07453e-05
8.07565e-05
8.08392e-05
8.07587e-05
8.07788e-05
8.08115e-05
8.07697e-05
8.0766e-05
8.07884e-05
8.08082e-05
8.07607e-05
8.07981e-05
8.07707e-05
8.07912e-05
8.07908e-05
8.07954e-05
8.07684e-05
8.07959e-05
8.08137e-05
8.07834e-05
8.07586e-05
8.07883e-05
8.08187e-05
8.07857e-05
8.07897e-05
8.07783e-05
8.07985e-05
8.07762e-05
8.07975e-05
8.07593e-05
8.08034e-05
8.0756e-05
8.05911e-05
8.18644e-05
8.41612e-05
8.51486e-05
8.40509e-05
8.5492e-05
8.79315e-05
2.79991e-05
4.02627e-05
5.0852e-05
6.40566e-05
7.53328e-05
8.3571e-05
9.01205e-05
9.42283e-05
9.75041e-05
0.000100312
0.000102624
0.000104675
0.000106485
0.000108129
0.000109639
0.000111015
0.000112311
0.00011353
0.000114682
0.00011577
0.000116794
0.000117756
0.000118652
0.000119477
0.000120231
0.000120856
0.000121302
0.000121599
0.00012179
0.000121908
0.000121976
0.000122011
0.000122025
0.000122026
0.000122019
0.000122009
0.000121998
0.000121986
0.000121977
0.000121968
0.000121962
0.000121956
0.000121953
0.00012195
0.000121948
0.000121947
0.000121947
0.000121947
0.000121946
0.000121948
0.000121946
0.000121949
0.000121945
0.000121951
0.000121941
0.000121954
0.00012193
0.000122041
0.000121644
0.000115644
0.00011397
0.000117684
0.000117703
0.000116981
0.000115351
0.000114133
0.000112873
0.000111918
0.000111009
0.000110458
0.000109718
0.000109242
0.000109024
0.000108725
0.000108142
0.000107907
0.000108321
0.000108103
0.000107424
0.000107564
0.000107312
0.000107178
0.000107587
0.00010734
0.000107136
0.000107342
0.000107039
0.00010679
0.00010777
0.000107821
0.000106602
0.000107237
0.000108502
0.000107224
0.000106074
0.000106126
0.000108472
0.000106381
0.000106314
0.000107048
0.000108195
0.000106878
0.000106861
0.000107451
0.000108096
0.000107806
0.000106942
0.000107173
0.000107638
0.000107689
0.000107579
0.00010751
0.000107551
0.000107575
0.000107608
0.000107613
0.000107607
0.000107594
0.00010755
0.000107507
0.000107505
0.000107504
0.000107489
0.000107472
0.000107473
0.000107475
0.000107475
0.000107474
0.000107474
0.000107474
0.000107476
0.000107478
0.00010748
0.000107482
0.000107483
0.000107485
0.000107489
0.000107492
0.000107494
0.000107495
0.000107495
0.000107496
0.000107498
0.000107498
0.000107499
0.0001075
0.0001075
0.000107503
0.000107503
0.000107506
0.000107507
0.000107505
0.000107508
0.00010751
0.000107509
0.000107508
0.000107509
0.000107513
0.000107514
0.000107512
0.000107512
0.000107519
0.000107518
0.000107517
0.00010752
0.000107523
0.000107523
0.000107523
0.000107524
0.000107527
0.000107528
0.000107527
0.000107532
0.000107534
0.00010753
0.000107531
0.00010754
0.000107537
0.000107533
0.000107546
0.000107538
0.000107543
0.000107555
0.000107533
0.000107553
0.000107552
0.000107518
0.000107572
0.000107569
0.000107506
0.000107589
0.000107591
0.000107493
0.000107596
0.000107613
0.000107486
0.000107591
0.000107639
0.000107504
0.00010756
0.000107639
0.000107539
0.000107557
0.000107619
0.000107546
0.000107598
0.000107626
0.000107523
0.000107595
0.00010765
0.000107547
0.000107582
0.000107642
0.000107555
0.000107604
0.000107652
0.000107553
0.000107591
0.000107653
0.000107561
0.000107599
0.000107655
0.000107559
0.000107595
0.000107654
0.00010756
0.000107595
0.000107657
0.000107565
0.000107597
0.000107662
0.000107569
0.0001076
0.000107667
0.000107574
0.000107603
0.000107672
0.00010758
0.000107605
0.000107676
0.000107585
0.000107608
0.00010768
0.000107589
0.00010761
0.000107684
0.000107593
0.000107612
0.000107687
0.000107597
0.000107613
0.000107692
0.000107601
0.000107614
0.000107698
0.000107604
0.00010762
0.000107691
0.000107606
0.000107613
0.000107696
0.000107608
0.000107605
0.000107721
0.000107624
0.00010763
0.000107681
0.000107632
0.000107616
0.000107653
0.00010768
0.000107619
0.000107662
0.000107628
0.000107654
0.000107657
0.000107661
0.000107625
0.000107656
0.000107686
0.000107651
0.000107606
0.000107644
0.00010769
0.000107661
0.000107645
0.000107636
0.000107651
0.000107644
0.000107658
0.000107623
0.000107673
0.000107617
0.000107353
0.00010933
0.000112786
0.000112127
0.000109556
0.000109148
0.000113879
2.91568e-05
3.45503e-05
4.73406e-05
5.92838e-05
6.96829e-05
8.15325e-05
9.2011e-05
0.000100249
0.000107171
0.000112865
0.000116933
0.00012051
0.000123654
0.000126489
0.000129043
0.000131354
0.000133496
0.000135481
0.000137333
0.000139058
0.000140659
0.000142145
0.000143508
0.000144747
0.000145855
0.000146758
0.000147403
0.000147841
0.000148128
0.000148308
0.000148414
0.00014847
0.000148494
0.000148498
0.000148491
0.000148478
0.000148463
0.000148448
0.000148435
0.000148424
0.000148415
0.000148409
0.000148404
0.000148402
0.0001484
0.000148399
0.000148399
0.0001484
0.0001484
0.000148402
0.000148401
0.000148407
0.000148403
0.000148413
0.000148399
0.000148421
0.000148386
0.000148528
0.000147942
0.000140765
0.000135373
0.000143073
0.000144246
0.000144083
0.000142722
0.000141447
0.000139929
0.000138657
0.000137416
0.00013655
0.000135507
0.000134772
0.000134387
0.000133923
0.000133127
0.000132726
0.00013311
0.000132872
0.000132049
0.000132085
0.000131766
0.000131599
0.000132024
0.000131853
0.000131608
0.000131787
0.000131414
0.000131047
0.000132063
0.000132248
0.000130897
0.000131405
0.000132946
0.000131702
0.000130054
0.000128924
0.000132917
0.00013076
0.00013012
0.000129818
0.000132679
0.000131283
0.000130853
0.000131638
0.000132578
0.000132362
0.000131281
0.000131381
0.00013195
0.000132182
0.000132052
0.00013192
0.000131898
0.000131905
0.000131948
0.000131984
0.000132013
0.000132025
0.00013198
0.000131929
0.000131924
0.000131921
0.0001319
0.000131875
0.000131869
0.000131869
0.000131869
0.000131867
0.000131866
0.000131866
0.000131867
0.000131868
0.00013187
0.000131872
0.000131873
0.000131876
0.000131881
0.000131885
0.000131887
0.000131888
0.00013189
0.000131891
0.000131893
0.000131894
0.000131895
0.000131895
0.000131897
0.000131899
0.0001319
0.000131904
0.000131905
0.000131903
0.000131906
0.000131909
0.000131908
0.000131907
0.000131907
0.000131912
0.000131914
0.000131912
0.000131912
0.000131919
0.00013192
0.000131918
0.000131921
0.000131925
0.000131925
0.000131925
0.000131926
0.000131931
0.000131932
0.000131931
0.000131937
0.00013194
0.000131935
0.000131935
0.000131946
0.000131944
0.000131938
0.000131953
0.000131945
0.000131949
0.000131964
0.000131939
0.000131958
0.000131962
0.000131922
0.000131978
0.000131984
0.000131911
0.000131994
0.000132012
0.000131898
0.000131999
0.000132036
0.000131892
0.000131991
0.000132065
0.000131916
0.000131961
0.000132062
0.000131959
0.000131963
0.000132038
0.00013196
0.000132008
0.000132051
0.000131934
0.000132001
0.000132077
0.000131967
0.000131991
0.000132067
0.000131971
0.000132015
0.00013208
0.000131971
0.000131999
0.000132079
0.000131978
0.000132009
0.000132083
0.000131979
0.000132006
0.000132082
0.00013198
0.000132005
0.000132084
0.000131984
0.000132007
0.000132088
0.000131988
0.00013201
0.000132093
0.000131994
0.000132012
0.000132097
0.000131999
0.000132014
0.000132101
0.000132004
0.000132017
0.000132105
0.000132009
0.000132019
0.000132108
0.000132013
0.00013202
0.000132111
0.000132017
0.000132021
0.000132116
0.00013202
0.000132021
0.00013212
0.000132022
0.000132026
0.000132112
0.000132024
0.000132021
0.000132117
0.000132031
0.000132011
0.000132143
0.000132044
0.000132033
0.000132097
0.000132049
0.000132023
0.000132063
0.000132101
0.000132035
0.000132077
0.000132039
0.000132066
0.000132073
0.000132077
0.000132036
0.000132062
0.000132105
0.000132073
0.000132017
0.000132046
0.000132105
0.000132085
0.000132057
0.000132041
0.000132054
0.000132057
0.00013207
0.000132039
0.00013209
0.000132032
0.000131693
0.000133443
0.00013858
0.00013688
0.000133324
0.000131264
0.000134501
3.56388e-05
3.23153e-05
4.0235e-05
5.30573e-05
6.0846e-05
7.33447e-05
8.52453e-05
9.62712e-05
0.000106339
0.000114898
0.000122344
0.000128517
0.000134177
0.000138795
0.000142648
0.000146135
0.000149342
0.000152299
0.000155038
0.000157566
0.000159896
0.000162042
0.000163996
0.000165759
0.000167326
0.000168617
0.000169574
0.000170261
0.000170745
0.00017108
0.000171307
0.000171458
0.000171558
0.000171621
0.000171663
0.00017169
0.000171708
0.000171722
0.000171732
0.000171743
0.000171751
0.000171762
0.00017177
0.000171781
0.000171789
0.000171799
0.000171806
0.000171816
0.000171821
0.00017183
0.000171834
0.000171846
0.000171846
0.000171862
0.00017185
0.000171879
0.00017184
0.000172002
0.000171247
0.000163412
0.000155338
0.00016425
0.000167396
0.000167798
0.000166965
0.000165849
0.000164311
0.000162888
0.000161436
0.00016032
0.000159035
0.000158068
0.000157503
0.000156881
0.000155909
0.000155332
0.000155606
0.000155349
0.000154443
0.000154354
0.000153971
0.000153748
0.000154124
0.000154015
0.000153759
0.000153904
0.000153517
0.000153029
0.000154007
0.000154276
0.000152913
0.000153246
0.000154915
0.000153826
0.000151878
0.000150801
0.000154903
0.000152882
0.000151787
0.000151156
0.000154683
0.000153399
0.000152639
0.000153451
0.00015454
0.00015445
0.000153324
0.000153268
0.000153887
0.000154268
0.000154152
0.00015399
0.000153912
0.0001539
0.000153941
0.000153996
0.00015405
0.000154089
0.00015405
0.000153998
0.000153991
0.00015399
0.000153965
0.000153935
0.000153922
0.00015392
0.000153918
0.000153915
0.000153913
0.000153912
0.000153912
0.000153913
0.000153915
0.000153916
0.000153917
0.000153921
0.000153927
0.00015393
0.000153933
0.000153935
0.000153937
0.000153939
0.000153941
0.000153942
0.000153943
0.000153944
0.000153946
0.000153948
0.00015395
0.000153954
0.000153956
0.000153954
0.000153957
0.00015396
0.00015396
0.000153958
0.000153959
0.000153965
0.000153967
0.000153965
0.000153965
0.000153972
0.000153974
0.000153973
0.000153975
0.000153979
0.00015398
0.00015398
0.000153981
0.000153987
0.000153989
0.000153988
0.000153994
0.000153997
0.000153993
0.000153993
0.000154004
0.000154003
0.000153997
0.000154012
0.000154005
0.000154007
0.000154023
0.000153999
0.000154017
0.000154023
0.000153982
0.000154037
0.00015405
0.000153972
0.000154051
0.00015408
0.000153962
0.000154054
0.000154103
0.000153957
0.000154045
0.000154131
0.000153984
0.000154017
0.000154129
0.000154029
0.000154025
0.000154105
0.000154028
0.00015407
0.000154121
0.000154002
0.000154059
0.000154147
0.000154039
0.000154054
0.000154138
0.000154041
0.000154077
0.000154151
0.000154042
0.000154061
0.000154149
0.000154048
0.000154071
0.000154155
0.000154051
0.000154069
0.000154154
0.000154051
0.000154067
0.000154155
0.000154054
0.000154068
0.000154157
0.000154058
0.000154071
0.000154162
0.000154063
0.000154072
0.000154165
0.000154068
0.000154074
0.000154169
0.000154073
0.000154076
0.000154172
0.000154077
0.000154078
0.000154174
0.00015408
0.000154078
0.000154176
0.000154084
0.000154078
0.00015418
0.000154087
0.000154078
0.000154183
0.000154087
0.00015408
0.000154174
0.000154088
0.000154078
0.00015418
0.0001541
0.000154067
0.000154204
0.000154109
0.000154086
0.000154153
0.00015411
0.00015408
0.000154117
0.000154164
0.000154098
0.000154136
0.000154097
0.000154123
0.000154132
0.000154136
0.000154093
0.000154112
0.000154162
0.000154138
0.000154081
0.000154096
0.000154162
0.00015415
0.000154117
0.000154093
0.000154103
0.00015411
0.000154128
0.000154098
0.00015415
0.000154094
0.000153709
0.000152425
0.000160085
0.00015915
0.000155227
0.000153349
0.000153605
5.08335e-05
3.48485e-05
3.53528e-05
4.34875e-05
5.52791e-05
6.54664e-05
7.49669e-05
8.65902e-05
9.83389e-05
0.000108963
0.000119081
0.000127731
0.000135761
0.000142627
0.000148797
0.000154095
0.000158968
0.000163635
0.000167683
0.000171163
0.000174366
0.000177303
0.000179972
0.000182379
0.000184541
0.00018638
0.000187798
0.000188873
0.000189685
0.000190294
0.000190753
0.0001911
0.000191364
0.000191568
0.000191728
0.000191857
0.000191961
0.000192049
0.000192123
0.000192189
0.000192245
0.000192298
0.000192341
0.000192384
0.000192418
0.000192453
0.000192479
0.000192507
0.000192528
0.000192551
0.000192567
0.000192589
0.000192598
0.000192624
0.000192618
0.000192656
0.000192618
0.000192792
0.000191901
0.0001838
0.000175676
0.000181286
0.000187732
0.000188577
0.000188287
0.000187424
0.000186044
0.000184611
0.000183078
0.000181804
0.000180359
0.000179219
0.000178493
0.000177728
0.00017662
0.000175889
0.000176017
0.000175717
0.000174771
0.000174561
0.00017412
0.000173828
0.000174121
0.000174041
0.000173787
0.000173894
0.000173521
0.000172953
0.000173853
0.000174144
0.000172842
0.000173001
0.000174684
0.000173781
0.000171709
0.00017178
0.000174694
0.000172893
0.000171504
0.000171678
0.00017449
0.000173391
0.000172404
0.000173132
0.000174329
0.000174314
0.000173239
0.000173061
0.000173692
0.000174177
0.000174091
0.000173915
0.000173799
0.000173773
0.000173811
0.000173878
0.000173947
0.000174005
0.000173976
0.000173928
0.000173921
0.000173922
0.000173895
0.000173863
0.000173846
0.00017384
0.000173837
0.000173833
0.00017383
0.000173828
0.000173827
0.000173828
0.000173829
0.000173829
0.00017383
0.000173835
0.000173841
0.000173844
0.000173847
0.00017385
0.000173853
0.000173856
0.000173857
0.000173858
0.00017386
0.000173861
0.000173863
0.000173866
0.000173868
0.000173873
0.000173876
0.000173874
0.000173877
0.000173881
0.00017388
0.000173878
0.000173879
0.000173885
0.000173889
0.000173887
0.000173886
0.000173893
0.000173896
0.000173896
0.000173898
0.000173902
0.000173904
0.000173904
0.000173906
0.000173911
0.000173914
0.000173914
0.000173919
0.000173923
0.000173919
0.000173919
0.00017393
0.00017393
0.000173923
0.000173938
0.000173932
0.000173933
0.00017395
0.000173926
0.000173943
0.000173952
0.000173911
0.000173965
0.000173982
0.000173905
0.000173978
0.000174012
0.000173897
0.000173979
0.000174032
0.000173895
0.000173968
0.000174056
0.000173922
0.000173945
0.000174057
0.000173966
0.000173957
0.000174037
0.000173965
0.000174
0.000174054
0.00017394
0.000173988
0.000174077
0.000173978
0.000173988
0.000174071
0.000173979
0.000174007
0.000174083
0.00017398
0.000173993
0.000174082
0.000173986
0.000174002
0.000174087
0.000173988
0.000174001
0.000174086
0.000173989
0.000173998
0.000174086
0.000173991
0.000173998
0.000174088
0.000173994
0.000173999
0.000174091
0.000173998
0.000174
0.000174094
0.000174002
0.000174001
0.000174096
0.000174006
0.000174002
0.000174098
0.000174009
0.000174003
0.0001741
0.000174011
0.000174002
0.0001741
0.000174014
0.000174002
0.000174103
0.000174016
0.000174
0.000174106
0.000174014
0.000174
0.000174094
0.000174015
0.000174
0.000174102
0.00017403
0.000173991
0.000174124
0.000174034
0.000174003
0.000174068
0.000174032
0.000174001
0.000174035
0.000174086
0.000174023
0.000174057
0.000174018
0.000174041
0.00017405
0.000174055
0.000174013
0.000174025
0.000174078
0.000174062
0.000174007
0.000174011
0.000174077
0.000174073
0.00017404
0.000174007
0.000174016
0.000174024
0.000174047
0.000174017
0.00017407
0.000174018
0.000173619
0.000168597
0.000177267
0.000179118
0.000175294
0.000175272
0.000173959
7.92305e-05
4.57864e-05
3.72483e-05
3.85116e-05
4.6616e-05
5.86761e-05
6.60341e-05
7.65887e-05
8.71795e-05
9.8301e-05
0.000109846
0.000120272
0.000130309
0.000139231
0.000147567
0.000154868
0.000161394
0.000167588
0.00017315
0.000178219
0.00018279
0.000186726
0.000190188
0.000193082
0.000196356
0.000200156
0.000202195
0.000203811
0.000205093
0.000206114
0.000206932
0.00020759
0.000208126
0.000208564
0.000208927
0.00020923
0.000209486
0.000209704
0.00020989
0.000210054
0.000210193
0.000210319
0.000210424
0.000210522
0.000210602
0.000210677
0.000210739
0.000210798
0.000210844
0.00021089
0.000210926
0.000210966
0.000210991
0.000211031
0.000211037
0.000211086
0.000211055
0.000211234
0.000210256
0.000202154
0.000197066
0.000198958
0.000205775
0.000206908
0.000207054
0.000206444
0.000205312
0.000203962
0.000202457
0.000201118
0.000199599
0.000198352
0.000197503
0.000196622
0.000195421
0.000194571
0.000194546
0.000194189
0.000193229
0.000192909
0.00019242
0.000192051
0.000192248
0.000192169
0.000191918
0.000191984
0.000191636
0.000191029
0.000191831
0.000192108
0.000190906
0.000190907
0.000192522
0.000191811
0.000189738
0.000191153
0.000192548
0.000191006
0.000189457
0.000191138
0.000192359
0.000191473
0.000190348
0.000190936
0.000192157
0.000192222
0.000191245
0.000190985
0.000191604
0.000192157
0.000192106
0.000191925
0.000191785
0.000191755
0.000191791
0.000191868
0.000191946
0.000192016
0.000191995
0.000191952
0.000191945
0.000191949
0.000191923
0.00019189
0.00019187
0.000191863
0.000191858
0.000191853
0.00019185
0.000191847
0.000191846
0.000191846
0.000191847
0.000191846
0.000191847
0.000191852
0.000191858
0.000191862
0.000191865
0.000191868
0.000191872
0.000191874
0.000191876
0.000191878
0.00019188
0.000191881
0.000191883
0.000191886
0.000191889
0.000191895
0.000191898
0.000191897
0.000191899
0.000191903
0.000191903
0.000191901
0.000191903
0.000191909
0.000191913
0.000191912
0.000191911
0.000191917
0.000191921
0.000191921
0.000191923
0.000191928
0.00019193
0.00019193
0.000191932
0.000191938
0.000191942
0.000191942
0.000191947
0.000191951
0.000191948
0.000191948
0.000191959
0.000191959
0.000191952
0.000191966
0.000191961
0.000191961
0.000191977
0.000191956
0.000191972
0.000191982
0.000191944
0.000191994
0.000192015
0.000191942
0.000192007
0.000192043
0.000191937
0.000192007
0.000192059
0.000191936
0.000191996
0.000192079
0.000191961
0.000191978
0.000192083
0.000192003
0.000191992
0.000192069
0.000192003
0.000192033
0.000192085
0.000191983
0.000192021
0.000192105
0.000192018
0.000192024
0.000192103
0.000192018
0.00019204
0.000192112
0.000192019
0.000192028
0.000192112
0.000192024
0.000192034
0.000192116
0.000192026
0.000192034
0.000192116
0.000192026
0.000192031
0.000192115
0.000192027
0.000192029
0.000192115
0.000192029
0.000192029
0.000192117
0.000192031
0.000192029
0.000192119
0.000192034
0.000192028
0.00019212
0.000192037
0.000192028
0.000192121
0.000192038
0.000192027
0.000192121
0.000192039
0.000192026
0.00019212
0.000192041
0.000192024
0.000192122
0.000192042
0.000192021
0.000192122
0.000192038
0.00019202
0.00019211
0.000192038
0.000192021
0.000192118
0.000192056
0.000192013
0.000192136
0.000192055
0.00019202
0.000192079
0.00019205
0.000192021
0.00019205
0.000192102
0.000192046
0.000192075
0.000192036
0.000192055
0.000192064
0.000192069
0.000192028
0.000192036
0.000192088
0.00019208
0.000192031
0.000192024
0.000192088
0.00019209
0.000192058
0.00019202
0.000192027
0.000192035
0.000192062
0.000192032
0.000192084
0.000192039
0.000191648
0.000184611
0.000193466
0.000197353
0.00019358
0.000193164
0.000194237
0.000130985
6.7599e-05
4.86058e-05
4.10529e-05
4.17642e-05
4.92145e-05
6.04524e-05
6.98486e-05
7.74076e-05
8.7245e-05
9.79172e-05
0.000108733
0.000119911
0.000130275
0.000140325
0.000149517
0.00015785
0.000165394
0.000172337
0.000178916
0.000184762
0.000189702
0.000194187
0.000198499
0.000204378
0.000210182
0.000212987
0.000215291
0.000217191
0.000218765
0.000220075
0.000221169
0.000222087
0.00022286
0.000223515
0.000224073
0.000224549
0.000224958
0.00022531
0.000225616
0.000225879
0.000226111
0.000226309
0.000226486
0.000226634
0.000226769
0.000226882
0.000226985
0.00022707
0.000227149
0.000227214
0.000227279