/*--------------------------------*- C++ -*----------------------------------*\
| =========                 |                                                 |
| \\      /  F ield         | foam-extend: Open Source CFD                    |
|  \\    /   O peration     | Version:     3.2                                |
|   \\  /    A nd           | Web:         http://www.foam-extend.org         |
|    \\/     M anipulation  | For copyright notice see file Copyright         |
\*---------------------------------------------------------------------------*/
FoamFile
{
    version     2.0;
    format      ascii;
    class       areaScalarField;
    location    "50";
    object      Fi1;
}
// * * * * * * * * * * * * * * * * * * * * * * * * * * * * * * * * * * * * * //

dimensions      [0 1 -1 0 0 0 0];

internalField   nonuniform List<scalar> 
300
(
-8.55748e-05
-4.0377e-05
-2.3316e-05
-2.34643e-05
-2.2073e-05
-2.20705e-05
-2.14053e-05
-2.1374e-05
-2.11382e-05
-2.12275e-05
-2.12489e-05
-2.14026e-05
-2.1558e-05
-2.18053e-05
-2.20384e-05
-2.23342e-05
-2.2637e-05
-2.29779e-05
-2.33183e-05
-2.36934e-05
-2.40914e-05
-2.45038e-05
-2.49309e-05
-2.53665e-05
-2.581e-05
-2.62621e-05
-2.66871e-05
-2.70607e-05
-2.73781e-05
-2.76449e-05
-2.78687e-05
-2.80546e-05
-2.82105e-05
-2.8339e-05
-2.84475e-05
-2.85359e-05
-2.8612e-05
-2.86729e-05
-2.87273e-05
-2.87691e-05
-2.88091e-05
-2.88374e-05
-2.88682e-05
-2.88871e-05
-2.89117e-05
-2.8923e-05
-2.89433e-05
-2.89471e-05
-2.89705e-05
-2.89605e-05
-2.89997e-05
-2.89552e-05
-2.90406e-05
-2.89158e-05
-2.91284e-05
-2.87942e-05
-2.93475e-05
-2.85185e-05
-3.01785e-05
-3.20482e-06
4.94458e-06
5.58494e-06
5.7584e-06
5.82915e-06
5.85851e-06
5.8732e-06
5.87956e-06
5.88329e-06
5.88603e-06
5.8869e-06
6.01887e-06
6.22719e-06
5.69856e-06
5.41661e-06
6.1369e-06
6.84553e-06
5.62532e-06
4.68273e-06
6.2695e-06
6.41019e-06
6.22981e-06
6.96617e-06
5.9849e-06
5.26618e-06
5.58653e-06
5.01904e-06
5.54096e-06
7.18645e-06
5.36855e-06
3.69546e-06
7.5886e-06
8.09403e-06
3.02104e-06
3.88855e-06
1.00499e-05
6.8393e-06
1.22715e-06
5.2015e-06
1.07353e-05
6.24364e-06
2.2283e-06
4.90863e-06
8.89716e-06
7.53519e-06
4.50066e-06
3.81957e-06
6.34824e-06
7.53626e-06
6.24157e-06
5.0619e-06
5.01145e-06
5.56554e-06
5.98133e-06
6.21398e-06
6.28272e-06
6.17684e-06
5.99772e-06
5.8508e-06
5.84481e-06
5.914e-06
5.89987e-06
5.83633e-06
5.83745e-06
5.8834e-06
5.90406e-06
5.89556e-06
5.88493e-06
5.88006e-06
5.87818e-06
5.87905e-06
5.8813e-06
5.88186e-06
5.88373e-06
5.88599e-06
5.88626e-06
5.88847e-06
5.88985e-06
5.88853e-06
5.88865e-06
5.88929e-06
5.88997e-06
5.8894e-06
5.88873e-06
5.88927e-06
5.88823e-06
5.88934e-06
5.89124e-06
5.89082e-06
5.89263e-06
5.8891e-06
5.88607e-06
5.89506e-06
5.89454e-06
5.88492e-06
5.88743e-06
5.89585e-06
5.89911e-06
5.89242e-06
5.88454e-06
5.89271e-06
5.9033e-06
5.89416e-06
5.88661e-06
5.8969e-06
5.90104e-06
5.89493e-06
5.89443e-06
5.89898e-06
5.9008e-06
5.89402e-06
5.89329e-06
5.90536e-06
5.90268e-06
5.89079e-06
5.90243e-06
5.91569e-06
5.89309e-06
5.89402e-06
5.91901e-06
5.89084e-06
5.90754e-06
5.92282e-06
5.88067e-06
5.92982e-06
5.90245e-06
5.86689e-06
5.98989e-06
5.88781e-06
5.8137e-06
6.04363e-06
5.9092e-06
5.75951e-06
6.07317e-06
5.94176e-06
5.70729e-06
6.08555e-06
6.01018e-06
5.65709e-06
6.03144e-06
6.10402e-06
5.70959e-06
5.93087e-06
6.06177e-06
5.8227e-06
5.98091e-06
5.96657e-06
5.76729e-06
6.05703e-06
6.04611e-06
5.7242e-06
5.98733e-06
6.06985e-06
5.79812e-06
6.01241e-06
6.03243e-06
5.7569e-06
6.01928e-06
6.08442e-06
5.79718e-06
6.02772e-06
6.07819e-06
5.78591e-06
6.01928e-06
6.08321e-06
5.79003e-06
6.02238e-06
6.09443e-06
5.7984e-06
6.02596e-06
6.10425e-06
5.80647e-06
6.0307e-06
6.11496e-06
5.81382e-06
6.03473e-06
6.12704e-06
5.8229e-06
6.03835e-06
6.13849e-06
5.83334e-06
6.04281e-06
6.14919e-06
5.84396e-06
6.04908e-06
6.1605e-06
5.85425e-06
6.05529e-06
6.17219e-06
5.86625e-06
6.06021e-06
6.18604e-06
5.87582e-06
6.06676e-06
6.20154e-06
5.88422e-06
6.07927e-06
6.2042e-06
5.90516e-06
6.07962e-06
6.21832e-06
5.92302e-06
6.06836e-06
6.25383e-06
5.9239e-06
6.08783e-06
6.23535e-06
5.99173e-06
6.04742e-06
6.18962e-06
6.13075e-06
6.03149e-06
6.12448e-06
6.1156e-06
6.14753e-06
6.13746e-06
6.06863e-06
6.07702e-06
6.20175e-06
6.20941e-06
6.04712e-06
6.03976e-06
6.21141e-06
6.23039e-06
6.09358e-06
6.08646e-06
6.16371e-06
6.1479e-06
6.15045e-06
6.15187e-06
6.15362e-06
6.15437e-06
6.15639e-06
6.15532e-06
6.16081e-06
6.1305e-06
5.68006e-06
-2.07724e-06
-3.30675e-05
-2.73825e-05
-2.85611e-05
)
;

boundaryField
{
    inlet
    {
        type            calculated;
        value           uniform -4.34536e-05;
    }
    outlet
    {
        type            calculated;
        value           uniform -1.27158e-05;
    }
    sideWall
    {
        type            empty;
    }
}


// ************************************************************************* //
