/*--------------------------------*- C++ -*----------------------------------*\
| =========                 |                                                 |
| \\      /  F ield         | foam-extend: Open Source CFD                    |
|  \\    /   O peration     | Version:     3.2                                |
|   \\  /    A nd           | Web:         http://www.foam-extend.org         |
|    \\/     M anipulation  | For copyright notice see file Copyright         |
\*---------------------------------------------------------------------------*/
FoamFile
{
    version     2.0;
    format      ascii;
    class       areaScalarField;
    location    "50";
    object      Fi2;
}
// * * * * * * * * * * * * * * * * * * * * * * * * * * * * * * * * * * * * * //

dimensions      [0 1 -1 0 0 0 0];

internalField   nonuniform List<scalar> 
300
(
-8.55748e-05
-4.0377e-05
-2.3316e-05
-2.34643e-05
-2.2073e-05
-2.20705e-05
-2.14053e-05
-2.1374e-05
-2.11382e-05
-2.12275e-05
-2.12489e-05
-2.14026e-05
-2.1558e-05
-2.18053e-05
-2.20384e-05
-2.23342e-05
-2.2637e-05
-2.29779e-05
-2.33183e-05
-2.36934e-05
-2.40914e-05
-2.45038e-05
-2.49309e-05
-2.53665e-05
-2.581e-05
-2.62621e-05
-2.66871e-05
-2.70607e-05
-2.73781e-05
-2.76449e-05
-2.78687e-05
-2.80546e-05
-2.82105e-05
-2.8339e-05
-2.84475e-05
-2.85359e-05
-2.8612e-05
-2.86729e-05
-2.87273e-05
-2.87691e-05
-2.88091e-05
-2.88374e-05
-2.88682e-05
-2.88871e-05
-2.89117e-05
-2.8923e-05
-2.89433e-05
-2.89471e-05
-2.89705e-05
-2.89605e-05
-2.89997e-05
-2.89552e-05
-2.90406e-05
-2.89158e-05
-2.91284e-05
-2.87942e-05
-2.93475e-05
-2.85185e-05
-3.01787e-05
-1.672e-05
-4.94312e-06
-5.57326e-06
-5.74964e-06
-5.81592e-06
-5.84579e-06
-5.85793e-06
-5.86648e-06
-5.87288e-06
-5.85764e-06
-5.96525e-06
-5.75338e-06
-5.25406e-06
-6.2362e-06
-6.68695e-06
-5.49008e-06
-4.08787e-06
-6.31823e-06
-8.28769e-06
-4.78323e-06
-5.0585e-06
-5.76269e-06
-3.88784e-06
-5.98203e-06
-7.31863e-06
-6.01907e-06
-7.24071e-06
-6.60619e-06
-3.25209e-06
-6.59911e-06
-1.01652e-05
-2.57854e-06
-1.75514e-06
-1.11035e-05
-9.17781e-06
2.013e-06
-4.73224e-06
-1.20902e-05
-6.23538e-06
2.53516e-06
-6.17537e-06
-1.11157e-05
-6.64554e-06
-6.38593e-07
-3.57453e-06
-8.7083e-06
-9.30935e-06
-4.75501e-06
-3.13454e-06
-5.61812e-06
-7.47503e-06
-7.08311e-06
-6.09246e-06
-5.63914e-06
-5.40839e-06
-5.34335e-06
-5.52592e-06
-5.79554e-06
-5.99822e-06
-5.97185e-06
-5.84176e-06
-5.88008e-06
-5.99242e-06
-5.9758e-06
-5.89616e-06
-5.87286e-06
-5.89536e-06
-5.91157e-06
-5.91639e-06
-5.91917e-06
-5.91821e-06
-5.91471e-06
-5.91576e-06
-5.91392e-06
-5.91184e-06
-5.91393e-06
-5.91153e-06
-5.90965e-06
-5.91414e-06
-5.91556e-06
-5.91614e-06
-5.91636e-06
-5.91892e-06
-5.92161e-06
-5.92159e-06
-5.92544e-06
-5.92512e-06
-5.92346e-06
-5.92702e-06
-5.92353e-06
-5.93162e-06
-5.94074e-06
-5.92446e-06
-5.92834e-06
-5.94971e-06
-5.94429e-06
-5.93305e-06
-5.93098e-06
-5.94393e-06
-5.96038e-06
-5.94729e-06
-5.93017e-06
-5.95156e-06
-5.96797e-06
-5.94911e-06
-5.94533e-06
-5.96126e-06
-5.96366e-06
-5.95825e-06
-5.9575e-06
-5.97222e-06
-5.97773e-06
-5.95707e-06
-5.96568e-06
-5.9933e-06
-5.97417e-06
-5.9504e-06
-5.99882e-06
-6.00244e-06
-5.94897e-06
-6.01787e-06
-5.98844e-06
-5.94979e-06
-6.05712e-06
-5.94716e-06
-5.99988e-06
-6.10606e-06
-5.83844e-06
-6.04039e-06
-6.22812e-06
-5.73762e-06
-6.01279e-06
-6.36115e-06
-5.68387e-06
-5.95814e-06
-6.48878e-06
-5.67112e-06
-5.83902e-06
-6.60124e-06
-5.79679e-06
-5.6735e-06
-6.5144e-06
-6.00598e-06
-5.75791e-06
-6.31521e-06
-5.9372e-06
-5.95523e-06
-6.42379e-06
-5.8102e-06
-5.84088e-06
-6.52819e-06
-5.95081e-06
-5.79916e-06
-6.41509e-06
-5.93521e-06
-5.88914e-06
-6.49802e-06
-5.93925e-06
-5.81728e-06
-6.45782e-06
-5.95463e-06
-5.84934e-06
-6.49365e-06
-5.98579e-06
-5.85404e-06
-6.50437e-06
-6.00184e-06
-5.85301e-06
-6.50968e-06
-6.01829e-06
-5.85526e-06
-6.51576e-06
-6.03283e-06
-5.85627e-06
-6.52346e-06
-6.04887e-06
-5.855e-06
-6.52835e-06
-6.06604e-06
-5.85509e-06
-6.53071e-06
-6.08179e-06
-5.85677e-06
-6.53286e-06
-6.09423e-06
-5.85757e-06
-6.53584e-06
-6.10618e-06
-5.85813e-06
-6.5347e-06
-6.12169e-06
-5.85324e-06
-6.53773e-06
-6.13499e-06
-5.84164e-06
-6.54876e-06
-6.12748e-06
-5.86399e-06
-6.52572e-06
-6.1506e-06
-5.86235e-06
-6.4992e-06
-6.21202e-06
-5.79117e-06
-6.54124e-06
-6.17156e-06
-5.87098e-06
-6.41466e-06
-6.24985e-06
-6.01283e-06
-6.12449e-06
-6.34663e-06
-6.11125e-06
-6.19066e-06
-6.11852e-06
-6.14123e-06
-6.26232e-06
-6.26268e-06
-6.03993e-06
-6.03241e-06
-6.32786e-06
-6.34314e-06
-6.01732e-06
-6.0097e-06
-6.26995e-06
-6.26573e-06
-6.11908e-06
-6.15057e-06
-6.16287e-06
-6.1683e-06
-6.16472e-06
-6.16515e-06
-6.16749e-06
-6.16017e-06
-6.17276e-06
-6.13841e-06
-5.7167e-06
-2.13708e-05
-3.30675e-05
-2.73825e-05
-2.8561e-05
)
;

boundaryField
{
    inlet
    {
        type            calculated;
        value           uniform -4.34536e-05;
    }
    outlet
    {
        type            calculated;
        value           uniform -1.27158e-05;
    }
    sideWall
    {
        type            empty;
    }
}


// ************************************************************************* //
