/*--------------------------------*- C++ -*----------------------------------*\
| =========                 |                                                 |
| \\      /  F ield         | foam-extend: Open Source CFD                    |
|  \\    /   O peration     | Version:     3.2                                |
|   \\  /    A nd           | Web:         http://www.foam-extend.org         |
|    \\/     M anipulation  | For copyright notice see file Copyright         |
\*---------------------------------------------------------------------------*/
FoamFile
{
    version     2.0;
    format      ascii;
    class       volScalarField;
    location    "50";
    object      k;
}
// * * * * * * * * * * * * * * * * * * * * * * * * * * * * * * * * * * * * * //

dimensions      [0 2 -2 0 0 0 0];

internalField   nonuniform List<scalar> 
5400
(
0.0313657
0.0200487
0.0148645
0.0149133
0.0144524
0.0144516
0.0142286
0.0142181
0.0141386
0.0141687
0.014176
0.0142277
0.01428
0.0143629
0.0144409
0.0145395
0.0146402
0.014753
0.0148653
0.0149885
0.0151187
0.015253
0.0153914
0.015532
0.0156745
0.015819
0.0159543
0.0160728
0.0161731
0.0162572
0.0163275
0.0163858
0.0164346
0.0164748
0.0165087
0.0165363
0.01656
0.016579
0.0165959
0.016609
0.0166214
0.0166302
0.0166398
0.0166457
0.0166533
0.0166568
0.0166631
0.0166645
0.0166718
0.0166687
0.0166808
0.016667
0.0166935
0.0166548
0.0167208
0.016617
0.0167887
0.016531
0.0170455
0.0160133
0.0118387
0.0116246
0.0120037
0.0120922
0.0123636
0.0124037
0.0124889
0.0125438
0.0125448
0.0125626
0.0126275
0.0125098
0.0124711
0.0126188
0.0126757
0.0124773
0.0122077
0.0126787
0.0127616
0.012339
0.0126051
0.0123068
0.0121093
0.0124122
0.0124311
0.0123813
0.0127782
0.0124908
0.0120326
0.0128155
0.0131064
0.0118186
0.0120385
0.0134817
0.012757
0.0112851
0.012585
0.0138286
0.0123549
0.0114891
0.0126807
0.0133543
0.012622
0.0119782
0.0121257
0.0127996
0.012895
0.0123792
0.0122222
0.0124232
0.0126183
0.0126475
0.0126236
0.0125849
0.0125172
0.012472
0.0124549
0.0124646
0.0124852
0.0124815
0.0124692
0.012478
0.0124928
0.0124939
0.0124883
0.0124864
0.0124871
0.0124883
0.0124895
0.012491
0.0124916
0.0124921
0.0124929
0.0124928
0.0124931
0.0124936
0.0124926
0.0124926
0.0124931
0.0124932
0.0124933
0.012493
0.0124934
0.0124935
0.0124937
0.0124945
0.0124941
0.0124942
0.0124942
0.0124932
0.0124954
0.0124958
0.0124932
0.0124951
0.0124972
0.0124969
0.0124958
0.0124948
0.0124969
0.0124992
0.0124969
0.0124951
0.0124986
0.0124996
0.0124972
0.0124976
0.012499
0.0124991
0.0124984
0.0124981
0.0125011
0.0125009
0.012498
0.0125005
0.0125038
0.0124998
0.012497
0.0125064
0.0125016
0.0124975
0.0125113
0.0124955
0.0125024
0.0125124
0.0124879
0.0125176
0.0125129
0.0124711
0.0125313
0.0125237
0.0124534
0.0125378
0.0125372
0.0124401
0.0125384
0.0125555
0.012432
0.0125235
0.0125813
0.012442
0.0124966
0.0125739
0.0124721
0.0125041
0.012545
0.0124672
0.012529
0.0125605
0.0124521
0.0125144
0.012576
0.0124675
0.0125122
0.012561
0.0124641
0.0125197
0.0125752
0.0124665
0.0125125
0.0125676
0.0124635
0.0125112
0.0125708
0.0124661
0.0125122
0.0125739
0.0124688
0.0125126
0.0125761
0.0124713
0.0125132
0.0125785
0.0124736
0.0125136
0.0125811
0.0124762
0.0125139
0.0125835
0.012479
0.0125143
0.0125856
0.0124819
0.0125151
0.0125878
0.0124844
0.012516
0.0125899
0.0124871
0.0125169
0.0125916
0.0124909
0.012516
0.0125961
0.0124916
0.0125173
0.0125986
0.0124911
0.0125248
0.0125909
0.0125058
0.0125142
0.0126018
0.0125069
0.0125088
0.0126121
0.0124935
0.0125389
0.012561
0.0125567
0.0125134
0.0125525
0.0125562
0.0125365
0.0125608
0.0125224
0.0125555
0.0125479
0.0125785
0.0125095
0.0125465
0.0125579
0.0125864
0.0125117
0.0125494
0.0125451
0.0125726
0.0125302
0.0125545
0.012528
0.0125581
0.0125331
0.0125517
0.0125275
0.012572
0.0122181
0.014615
0.0193694
0.0180098
0.0162793
0.0166472
0.0117156
0.0144739
0.0140583
0.0142415
0.0139676
0.0139607
0.0138323
0.0138391
0.0138103
0.0138576
0.0138932
0.013962
0.0140391
0.0141277
0.0142248
0.0143312
0.0144425
0.0145633
0.0146858
0.0148132
0.0149452
0.0150803
0.0152175
0.0153552
0.015493
0.0156283
0.0157495
0.0158528
0.0159393
0.016011
0.0160707
0.0161199
0.016161
0.0161947
0.0162231
0.0162462
0.0162661
0.016282
0.0162961
0.0163072
0.0163175
0.0163251
0.016333
0.0163382
0.0163444
0.0163478
0.0163526
0.0163548
0.0163591
0.0163599
0.0163643
0.0163619
0.0163697
0.0163605
0.0163782
0.0163519
0.0163969
0.0163346
0.0164942
0.0159727
0.0141953
0.0130764
0.0127058
0.0125367
0.0124986
0.0124691
0.0124718
0.012486
0.0124665
0.0124735
0.0124681
0.0124261
0.012393
0.0124436
0.0124564
0.0123691
0.0122877
0.0124209
0.0124569
0.0123524
0.0123591
0.0122401
0.0121681
0.0122143
0.0122728
0.0123037
0.0124244
0.0123407
0.0122584
0.0124557
0.012506
0.012201
0.0122219
0.0126281
0.0124443
0.012031
0.0123198
0.0127394
0.0124388
0.0120592
0.0122885
0.0126561
0.012552
0.0121825
0.0121667
0.0124307
0.0125346
0.0123949
0.0122521
0.0122765
0.0124031
0.0124662
0.0124755
0.0124528
0.0124104
0.0123671
0.012345
0.0123421
0.0123516
0.0123519
0.0123482
0.0123502
0.0123581
0.012361
0.0123599
0.0123582
0.0123579
0.0123587
0.0123595
0.0123607
0.0123616
0.0123624
0.0123632
0.0123637
0.012364
0.012364
0.0123642
0.0123645
0.0123645
0.0123644
0.0123643
0.0123644
0.0123646
0.0123647
0.012365
0.0123654
0.0123654
0.0123657
0.0123659
0.0123658
0.0123666
0.012367
0.0123665
0.0123669
0.0123679
0.0123682
0.0123678
0.0123676
0.0123684
0.0123695
0.0123691
0.0123687
0.0123697
0.0123703
0.0123701
0.0123702
0.0123708
0.0123712
0.0123711
0.0123713
0.0123724
0.0123727
0.0123722
0.0123731
0.0123741
0.0123733
0.012373
0.0123753
0.0123748
0.0123741
0.012377
0.0123746
0.0123763
0.0123786
0.0123744
0.0123801
0.0123793
0.0123716
0.0123835
0.0123834
0.0123692
0.0123854
0.0123876
0.0123676
0.012387
0.0123932
0.0123658
0.0123849
0.0123981
0.012371
0.0123789
0.0123969
0.0123801
0.0123832
0.0123927
0.0123774
0.0123913
0.0123988
0.0123747
0.0123872
0.0124019
0.0123824
0.0123888
0.0123993
0.0123803
0.0123919
0.0124042
0.0123834
0.01239
0.0124012
0.0123808
0.0123888
0.0124018
0.0123823
0.0123903
0.0124038
0.0123844
0.0123918
0.0124056
0.0123863
0.0123933
0.0124073
0.0123881
0.0123946
0.0124091
0.0123901
0.0123959
0.0124108
0.012392
0.0123973
0.0124124
0.0123939
0.0123987
0.0124141
0.0123957
0.0124
0.0124157
0.0123975
0.0124013
0.012417
0.0123994
0.0124021
0.0124188
0.0124008
0.0124035
0.0124206
0.0124018
0.0124061
0.01242
0.0124053
0.0124042
0.0124232
0.0124059
0.0124043
0.0124259
0.012406
0.0124111
0.0124174
0.0124189
0.012405
0.0124155
0.0124171
0.012414
0.0124177
0.0124097
0.0124163
0.0124177
0.0124227
0.0124078
0.0124144
0.0124189
0.0124282
0.0124089
0.0124154
0.0124129
0.0124264
0.012413
0.0124194
0.0124065
0.0124174
0.0124072
0.0124145
0.0124053
0.0124074
0.0122472
0.0130692
0.0156177
0.0162431
0.0160775
0.0161364
0.00535861
0.00905145
0.0109639
0.0118385
0.0120202
0.0122202
0.0122563
0.0123526
0.0124066
0.012502
0.012577
0.0126773
0.0127791
0.0128843
0.0129973
0.0131121
0.0132314
0.0133564
0.0134827
0.0136103
0.0137396
0.0138697
0.0139995
0.0141276
0.0142537
0.0143721
0.0144714
0.0145515
0.014616
0.0146679
0.0147101
0.014744
0.0147719
0.0147944
0.0148131
0.0148282
0.0148411
0.0148514
0.0148606
0.0148678
0.0148744
0.0148794
0.0148845
0.0148881
0.014892
0.0148944
0.0148976
0.0148993
0.0149018
0.0149031
0.0149047
0.0149054
0.0149071
0.0149067
0.0149094
0.0149067
0.0149122
0.0149065
0.0149303
0.0145146
0.0140609
0.0130152
0.0124206
0.0120825
0.0118455
0.0117188
0.0116447
0.0115937
0.0115515
0.0115267
0.0114914
0.0114603
0.0114366
0.011426
0.011409
0.0113915
0.011397
0.0113626
0.0113784
0.0113714
0.0113184
0.0112956
0.0112768
0.0112161
0.0112604
0.0113023
0.0113123
0.0113357
0.0113966
0.0113533
0.0113088
0.0113983
0.0113376
0.0113195
0.0113956
0.0114353
0.0112578
0.0112855
0.0115054
0.011424
0.0112208
0.0113475
0.0115052
0.0113641
0.0113022
0.0113246
0.0113781
0.011435
0.0113513
0.0113007
0.0113551
0.0114138
0.0114396
0.0114355
0.0114146
0.0113848
0.0113618
0.0113529
0.0113526
0.0113528
0.0113524
0.0113518
0.0113545
0.0113569
0.0113582
0.0113575
0.0113569
0.0113572
0.0113577
0.0113585
0.0113593
0.0113601
0.0113608
0.0113616
0.0113619
0.0113619
0.0113625
0.0113629
0.0113629
0.0113626
0.0113625
0.0113628
0.011363
0.0113631
0.0113634
0.0113637
0.0113639
0.0113642
0.0113644
0.0113647
0.0113648
0.0113652
0.0113656
0.0113654
0.0113658
0.0113662
0.0113663
0.0113664
0.0113665
0.011367
0.0113675
0.0113679
0.0113676
0.0113681
0.0113687
0.0113689
0.011369
0.0113694
0.0113696
0.0113699
0.0113702
0.0113707
0.0113712
0.0113712
0.0113713
0.011372
0.0113723
0.0113722
0.0113731
0.0113735
0.0113731
0.0113751
0.0113746
0.0113747
0.0113768
0.0113741
0.0113754
0.011379
0.0113742
0.0113769
0.0113823
0.0113749
0.0113775
0.0113847
0.0113763
0.0113785
0.011386
0.0113775
0.011378
0.0113867
0.0113792
0.0113785
0.0113874
0.0113827
0.0113828
0.0113882
0.0113836
0.0113847
0.0113898
0.0113834
0.0113842
0.0113921
0.0113866
0.0113868
0.0113921
0.0113872
0.0113875
0.0113941
0.011388
0.0113875
0.0113926
0.0113869
0.0113868
0.0113933
0.0113881
0.0113879
0.0113949
0.0113898
0.0113893
0.0113964
0.0113914
0.0113907
0.0113979
0.011393
0.011392
0.0113995
0.0113946
0.0113932
0.0114009
0.0113961
0.0113944
0.0114024
0.0113976
0.0113956
0.0114037
0.011399
0.0113968
0.011405
0.0114003
0.0113977
0.0114061
0.0114017
0.0113983
0.0114078
0.011403
0.0114005
0.0114088
0.0114034
0.0114008
0.0114078
0.0114051
0.0113996
0.0114096
0.0114074
0.0114042
0.0114125
0.0114055
0.0114062
0.0114066
0.01141
0.0114063
0.011407
0.0114084
0.0114077
0.0114077
0.0114079
0.0114099
0.0114072
0.011413
0.0114071
0.0114076
0.0114069
0.011415
0.0114081
0.0114083
0.0114088
0.0114132
0.0114085
0.0114076
0.011405
0.0114051
0.011406
0.0114027
0.0113962
0.0113783
0.0115709
0.0127603
0.0136699
0.0142342
0.0143974
0.00276137
0.00514248
0.00763324
0.00913232
0.00997269
0.0104957
0.0107703
0.01099
0.0111448
0.0113001
0.0114292
0.0115681
0.0116985
0.0118306
0.0119628
0.0120915
0.012223
0.0123561
0.0124892
0.0126208
0.0127511
0.01288
0.0130059
0.0131278
0.0132449
0.0133483
0.0134277
0.0134867
0.013531
0.0135641
0.0135893
0.0136083
0.013623
0.0136342
0.0136432
0.01365
0.0136558
0.0136603
0.0136642
0.0136673
0.0136702
0.0136725
0.0136747
0.0136764
0.0136782
0.0136793
0.0136808
0.0136818
0.0136828
0.0136838
0.0136841
0.0136854
0.0136849
0.013687
0.0136848
0.0136892
0.013682
0.013691
0.0136555
0.013325
0.0134836
0.0127235
0.0121172
0.0116854
0.0113333
0.0111308
0.0109867
0.0108805
0.0108091
0.0107518
0.0106952
0.0106585
0.0106337
0.0105876
0.0105531
0.010568
0.0106035
0.0105023
0.0105032
0.0105264
0.0104644
0.0104886
0.0104866
0.0103993
0.0104165
0.0104493
0.0104169
0.0104854
0.0105817
0.0104724
0.0104132
0.0106031
0.010538
0.0103722
0.0105183
0.0107269
0.0104251
0.0102811
0.0106256
0.0107182
0.010416
0.0103657
0.010576
0.0106025
0.0105408
0.0104505
0.0104535
0.0105809
0.0105603
0.0104916
0.0104903
0.0105329
0.0105651
0.010575
0.0105706
0.0105532
0.0105329
0.0105211
0.0105139
0.0105126
0.0105132
0.0105112
0.0105107
0.010512
0.0105143
0.0105143
0.0105138
0.0105137
0.010514
0.0105145
0.0105152
0.0105158
0.0105165
0.0105171
0.0105175
0.0105177
0.0105185
0.0105189
0.010519
0.010519
0.0105189
0.0105192
0.0105194
0.0105195
0.0105197
0.0105199
0.0105202
0.0105205
0.0105207
0.0105212
0.010521
0.0105214
0.0105219
0.0105217
0.0105218
0.0105221
0.0105225
0.0105228
0.0105225
0.0105227
0.0105235
0.0105242
0.0105236
0.0105239
0.0105247
0.010525
0.010525
0.0105254
0.0105256
0.010526
0.0105259
0.0105266
0.0105274
0.0105271
0.0105269
0.010528
0.0105285
0.0105277
0.0105289
0.0105296
0.0105287
0.0105313
0.0105303
0.0105298
0.0105329
0.010529
0.0105305
0.010536
0.0105287
0.0105311
0.0105406
0.0105295
0.0105307
0.010544
0.0105306
0.0105303
0.0105469
0.0105325
0.0105292
0.0105455
0.0105361
0.0105306
0.0105431
0.0105387
0.010536
0.0105465
0.0105373
0.010536
0.0105496
0.0105389
0.0105356
0.0105487
0.010542
0.0105391
0.0105508
0.0105417
0.0105388
0.0105512
0.0105437
0.0105399
0.0105511
0.0105428
0.010539
0.0105511
0.0105435
0.0105397
0.0105521
0.010545
0.010541
0.0105533
0.0105465
0.0105422
0.0105546
0.010548
0.0105433
0.0105557
0.0105495
0.0105444
0.0105568
0.0105509
0.0105456
0.0105579
0.0105523
0.0105466
0.0105589
0.0105536
0.0105476
0.0105598
0.0105548
0.0105484
0.0105605
0.0105562
0.0105489
0.0105618
0.0105573
0.0105505
0.0105629
0.010557
0.010551
0.0105607
0.0105595
0.0105486
0.0105629
0.0105623
0.0105537
0.0105657
0.0105582
0.0105565
0.010556
0.0105658
0.0105577
0.0105577
0.0105599
0.0105586
0.0105607
0.0105593
0.0105605
0.0105571
0.0105674
0.0105594
0.0105572
0.0105529
0.0105694
0.0105609
0.0105619
0.0105552
0.0105664
0.0105579
0.0105637
0.0105545
0.0105599
0.0105577
0.0105569
0.0105531
0.0106161
0.010576
0.0109276
0.0117506
0.0125108
0.0128522
0.00159821
0.00290521
0.00480228
0.00640699
0.00776649
0.00866943
0.00924123
0.00964697
0.00993637
0.0101791
0.0103724
0.0105573
0.0107215
0.0108843
0.01104
0.0111874
0.0113343
0.0114784
0.0116204
0.0117585
0.0118924
0.0120223
0.0121465
0.0122639
0.0123725
0.0124611
0.0125218
0.0125615
0.0125872
0.0126031
0.0126126
0.0126177
0.01262
0.0126205
0.0126202
0.0126191
0.012618
0.0126168
0.0126158
0.0126148
0.0126141
0.0126135
0.0126131
0.0126129
0.0126126
0.0126125
0.0126125
0.0126125
0.0126124
0.0126128
0.0126122
0.0126133
0.012612
0.0126145
0.0126107
0.0126168
0.0126058
0.0126168
0.0125526
0.0123076
0.0127141
0.0122613
0.0117379
0.0112687
0.0108748
0.0106176
0.010419
0.0102691
0.0101662
0.0100796
0.0100048
0.00995689
0.00992365
0.00986
0.00981478
0.00983512
0.00987179
0.00975929
0.00974807
0.00977617
0.00972103
0.00975999
0.00976258
0.00968193
0.00967672
0.00969554
0.00965355
0.00972595
0.00981856
0.00971149
0.00966237
0.00985206
0.00980421
0.00961343
0.00974242
0.00997664
0.00971161
0.00951664
0.00981476
0.00997246
0.00971902
0.00959121
0.00976126
0.00986978
0.00983208
0.0097059
0.00967708
0.00980566
0.00982671
0.00977205
0.0097376
0.00976293
0.00979243
0.00981056
0.00981739
0.0098099
0.00979447
0.00978219
0.00977124
0.00976825
0.00976854
0.00976586
0.00976332
0.00976375
0.00976578
0.00976629
0.009766
0.00976573
0.0097658
0.00976603
0.00976663
0.00976718
0.00976773
0.00976829
0.00976865
0.00976908
0.00976984
0.00977033
0.00977053
0.0097706
0.00977065
0.00977089
0.00977109
0.00977127
0.00977138
0.00977151
0.00977179
0.00977204
0.00977228
0.00977276
0.00977256
0.00977283
0.00977345
0.00977329
0.00977326
0.00977348
0.00977388
0.0097743
0.00977399
0.00977404
0.0097748
0.00977549
0.00977498
0.00977525
0.00977599
0.00977631
0.00977631
0.00977658
0.00977689
0.00977721
0.00977711
0.00977769
0.00977861
0.00977828
0.00977804
0.00977907
0.00977964
0.00977888
0.00977987
0.00978061
0.00977978
0.0097822
0.00978124
0.00978058
0.00978332
0.00977994
0.00978125
0.00978639
0.00977988
0.00978163
0.00979065
0.00978091
0.00978114
0.00979375
0.00978201
0.00978041
0.00979678
0.00978431
0.00977941
0.00979544
0.00978824
0.0097811
0.00979238
0.00978967
0.00978623
0.0097961
0.00978791
0.00978558
0.00979947
0.00979046
0.00978544
0.00979778
0.00979298
0.00978894
0.00980053
0.00979258
0.00978827
0.00980039
0.00979479
0.00978995
0.00980109
0.00979421
0.00978899
0.00980066
0.00979451
0.00978946
0.00980138
0.00979572
0.00979052
0.0098024
0.009797
0.0097916
0.00980348
0.0097983
0.00979262
0.00980447
0.00979962
0.00979363
0.00980538
0.00980088
0.00979464
0.00980624
0.00980204
0.00979558
0.0098071
0.00980311
0.00979644
0.00980781
0.00980411
0.00979716
0.00980828
0.00980529
0.00979765
0.00980931
0.00980619
0.00979878
0.00981015
0.00980583
0.00979934
0.00980831
0.00980794
0.00979742
0.00980985
0.00981053
0.00980144
0.0098122
0.00980657
0.00980378
0.00980295
0.00981338
0.00980612
0.00980527
0.00980712
0.009806
0.00980851
0.00980678
0.00980725
0.00980459
0.00981413
0.00980777
0.00980441
0.0097993
0.00981524
0.00980934
0.00981053
0.00980154
0.00981234
0.00980466
0.00981256
0.00980226
0.00980883
0.0098058
0.00980629
0.00980756
0.00991808
0.00979058
0.00965684
0.0103229
0.0110191
0.0114638
0.00109024
0.00173577
0.00283458
0.00414383
0.00556044
0.00669445
0.00758403
0.00822216
0.00868435
0.00904699
0.00932953
0.0095777
0.00979041
0.00998963
0.0101729
0.0103442
0.0105092
0.0106665
0.0108194
0.0109659
0.0111052
0.011238
0.0113617
0.0114753
0.0115747
0.0116472
0.0116902
0.0117128
0.0117222
0.011723
0.0117188
0.0117115
0.0117029
0.0116938
0.0116851
0.011677
0.0116697
0.0116633
0.0116578
0.0116532
0.0116491
0.011646
0.0116432
0.0116411
0.0116391
0.0116378
0.0116363
0.0116355
0.0116344
0.0116341
0.011633
0.0116336
0.0116319
0.0116341
0.0116301
0.0116359
0.0116245
0.0116332
0.0115545
0.0113885
0.0118637
0.011666
0.0112644
0.0108029
0.0104158
0.0101258
0.0098917
0.0097094
0.00957875
0.00946697
0.00937586
0.00931521
0.00927107
0.00919825
0.00914572
0.0091589
0.00918514
0.00908013
0.00906279
0.00908609
0.00904093
0.00908021
0.00908405
0.00901616
0.00899745
0.00900289
0.00896395
0.00902526
0.00910206
0.00901139
0.00898271
0.00914556
0.00911057
0.00893473
0.0090394
0.00924171
0.00903709
0.0088505
0.00908203
0.00924033
0.00905349
0.00891171
0.00903562
0.00916827
0.0091517
0.00902521
0.00898395
0.00908967
0.00913254
0.00909662
0.00904909
0.0090599
0.00908248
0.0091043
0.00911828
0.00911862
0.009108
0.00909704
0.00908472
0.00908029
0.0090797
0.00907664
0.00907295
0.00907255
0.00907392
0.00907464
0.00907447
0.00907411
0.00907403
0.0090741
0.00907455
0.009075
0.00907549
0.00907598
0.00907631
0.00907686
0.00907759
0.00907803
0.00907828
0.00907846
0.00907869
0.00907892
0.00907906
0.00907924
0.0090793
0.00907938
0.00907966
0.00907988
0.00908013
0.00908059
0.00908042
0.00908066
0.00908121
0.00908113
0.00908103
0.00908118
0.0090816
0.00908205
0.00908177
0.00908175
0.00908241
0.00908305
0.00908269
0.00908291
0.00908355
0.00908388
0.00908388
0.00908411
0.00908443
0.00908475
0.00908464
0.00908518
0.00908601
0.00908577
0.00908558
0.00908647
0.00908703
0.00908639
0.00908718
0.00908786
0.0090872
0.00908921
0.0090885
0.00908788
0.00909007
0.00908734
0.00908855
0.00909283
0.00908747
0.00908893
0.00909648
0.00908849
0.00908867
0.00909912
0.00908935
0.009088
0.00910189
0.0090917
0.0090871
0.00910103
0.00909569
0.00908883
0.00909815
0.00909651
0.00909339
0.00910141
0.00909477
0.00909256
0.00910466
0.00909759
0.00909263
0.00910309
0.0090997
0.00909589
0.00910567
0.00909935
0.00909511
0.00910557
0.00910155
0.00909702
0.00910659
0.00910126
0.00909616
0.00910601
0.00910128
0.00909639
0.00910649
0.00910221
0.00909725
0.00910734
0.0091033
0.0090982
0.00910828
0.00910441
0.0090991
0.00910915
0.00910555
0.0091
0.00910994
0.00910662
0.00910088
0.00911068
0.00910759
0.0091017
0.00911141
0.00910849
0.00910242
0.009112
0.0091093
0.00910306
0.00911241
0.00911028
0.0091035
0.00911322
0.00911099
0.00910429
0.00911377
0.00911061
0.00910481
0.00911253
0.00911237
0.00910358
0.00911367
0.00911447
0.00910644
0.00911529
0.00911104
0.0091082
0.00910735
0.0091165
0.00911106
0.00910997
0.00911119
0.00911036
0.00911269
0.00911095
0.00911096
0.00910906
0.00911705
0.00911229
0.00910889
0.00910426
0.00911725
0.00911368
0.00911515
0.00910628
0.00911465
0.00910856
0.0091164
0.00910767
0.00911351
0.00911066
0.00911196
0.0091183
0.00925027
0.0090906
0.00868712
0.0091922
0.00976344
0.0102182
0.000870889
0.00113578
0.00166547
0.00253295
0.00370378
0.00479955
0.00583595
0.00666633
0.0073294
0.0078433
0.00824321
0.00857661
0.008855
0.0091031
0.00932345
0.00952587
0.00971483
0.00989083
0.0100582
0.0102148
0.010361
0.0104977
0.0106216
0.0107312
0.0108189
0.0108736
0.0109009
0.0109092
0.0109054
0.0108941
0.0108787
0.0108614
0.010844
0.0108271
0.0108116
0.0107976
0.0107853
0.0107747
0.0107655
0.0107578
0.0107511
0.0107459
0.0107411
0.0107375
0.010734
0.0107317
0.0107292
0.0107276
0.0107256
0.0107247
0.0107233
0.0107234
0.0107216
0.0107232
0.0107195
0.0107243
0.0107139
0.0107195
0.0106346
0.0105352
0.0109957
0.0109731
0.0107027
0.0102887
0.00993107
0.0096291
0.00937972
0.0091758
0.00902365
0.00889207
0.0087871
0.00871439
0.00865917
0.00858057
0.00852306
0.00852501
0.00853712
0.00844316
0.00842354
0.00843939
0.00840307
0.00843754
0.00844038
0.00838401
0.00835886
0.00835344
0.00831961
0.00836943
0.00842835
0.00835079
0.00834402
0.00847831
0.00844859
0.00829965
0.00838623
0.00854612
0.00838638
0.00823115
0.00840959
0.00854427
0.00840714
0.00828144
0.00837132
0.00849927
0.00849519
0.00838239
0.0083406
0.0084216
0.0084715
0.00845026
0.00840202
0.0084023
0.00841773
0.00843982
0.00845772
0.00846384
0.00845749
0.0084486
0.00843654
0.00843122
0.00842967
0.00842637
0.00842208
0.00842097
0.00842165
0.00842229
0.00842216
0.00842176
0.00842156
0.00842151
0.00842181
0.00842216
0.00842259
0.008423
0.00842332
0.00842389
0.00842455
0.00842492
0.00842521
0.00842548
0.00842584
0.00842608
0.00842617
0.00842635
0.0084264
0.00842646
0.00842672
0.00842691
0.00842718
0.00842761
0.0084275
0.00842773
0.00842819
0.00842815
0.00842803
0.00842815
0.00842854
0.00842898
0.00842876
0.00842872
0.00842928
0.00842983
0.0084296
0.0084298
0.00843034
0.00843065
0.00843068
0.00843088
0.0084312
0.00843149
0.00843142
0.0084319
0.00843261
0.00843246
0.00843235
0.00843311
0.00843359
0.00843309
0.00843374
0.00843431
0.00843383
0.00843545
0.00843492
0.00843445
0.00843615
0.00843396
0.00843515
0.00843856
0.00843417
0.00843565
0.00844164
0.00843497
0.00843565
0.00844389
0.00843549
0.00843516
0.00844638
0.0084377
0.0084343
0.008446
0.00844173
0.00843589
0.00844348
0.00844233
0.0084399
0.00844616
0.00844059
0.00843914
0.00844918
0.00844337
0.00843926
0.00844791
0.00844531
0.00844225
0.00845014
0.00844493
0.00844145
0.00845019
0.0084471
0.00844344
0.00845134
0.00844702
0.00844271
0.00845073
0.00844687
0.00844275
0.00845102
0.00844757
0.00844343
0.00845171
0.00844847
0.00844423
0.00845251
0.00844942
0.00844501
0.00845327
0.0084504
0.0084458
0.00845396
0.00845131
0.00844656
0.0084546
0.00845213
0.00844726
0.00845523
0.00845287
0.00844787
0.00845572
0.00845354
0.00844842
0.0084561
0.00845434
0.0084488
0.00845673
0.00845489
0.00844934
0.00845706
0.00845452
0.00844979
0.00845639
0.00845599
0.00844906
0.00845734
0.00845764
0.00845101
0.00845817
0.00845472
0.00845225
0.00845159
0.00845915
0.00845516
0.00845427
0.00845494
0.00845436
0.00845631
0.00845468
0.00845439
0.00845313
0.00845963
0.00845596
0.00845303
0.00844931
0.0084593
0.00845712
0.00845877
0.00845108
0.00845703
0.00845229
0.00845918
0.00845267
0.00845723
0.008455
0.00845683
0.00846721
0.00859845
0.00842726
0.00787276
0.0082633
0.00871771
0.00912291
0.000778804
0.000883516
0.00109315
0.00154751
0.00231904
0.00324526
0.00421223
0.00508799
0.00587428
0.00653012
0.00707053
0.00751146
0.00787575
0.00818959
0.0084606
0.0087029
0.00892306
0.00912482
0.0093114
0.00948211
0.00963798
0.00977994
0.00990366
0.0100066
0.0100802
0.0101206
0.0101361
0.0101343
0.0101212
0.0101014
0.0100783
0.0100541
0.0100305
0.0100083
0.00998809
0.00997008
0.00995429
0.0099407
0.00992895
0.00991917
0.00991063
0.00990385
0.00989773
0.00989312
0.00988865
0.00988558
0.00988232
0.0098802
0.00987776
0.00987643
0.0098748
0.00987451
0.00987272
0.00987381
0.00987053
0.00987433
0.00986533
0.00986811
0.00978455
0.00973396
0.010153
0.010228
0.0100746
0.00973174
0.00941515
0.00911778
0.00886997
0.00865504
0.00848907
0.00834355
0.00822814
0.00814521
0.00807977
0.007997
0.00793603
0.00792679
0.00792487
0.00784024
0.0078199
0.00782843
0.0077989
0.00782696
0.00782728
0.00777983
0.00775252
0.00773931
0.00771001
0.00775052
0.007793
0.0077249
0.00773527
0.00784621
0.00781637
0.00769543
0.00777055
0.00789428
0.00776249
0.00764141
0.00778282
0.00789114
0.00778441
0.00768311
0.00775133
0.00786308
0.00786398
0.00776861
0.00773217
0.00779373
0.00784167
0.00782987
0.0077867
0.0077805
0.00779005
0.00781035
0.00782982
0.00783979
0.00783708
0.00783027
0.00781946
0.00781387
0.00781152
0.00780806
0.00780354
0.00780189
0.00780196
0.00780236
0.00780219
0.00780175
0.00780147
0.00780131
0.00780148
0.00780174
0.00780209
0.00780242
0.00780272
0.00780327
0.00780385
0.00780418
0.00780446
0.00780479
0.00780519
0.00780544
0.00780554
0.00780572
0.00780579
0.00780586
0.0078061
0.00780627
0.00780654
0.00780695
0.0078069
0.00780712
0.0078075
0.00780747
0.00780735
0.00780746
0.00780782
0.00780821
0.00780805
0.00780801
0.0078085
0.00780895
0.00780881
0.007809
0.00780946
0.00780975
0.0078098
0.00780999
0.0078103
0.00781057
0.00781053
0.00781095
0.00781155
0.00781146
0.00781142
0.00781208
0.00781248
0.0078121
0.00781265
0.00781309
0.00781277
0.00781407
0.00781365
0.00781335
0.00781466
0.00781289
0.00781413
0.00781676
0.00781309
0.00781477
0.00781938
0.0078136
0.00781501
0.00782132
0.00781379
0.00781469
0.00782357
0.00781579
0.00781382
0.00782356
0.00781983
0.00781518
0.00782141
0.00782043
0.00781871
0.00782356
0.00781863
0.00781813
0.00782633
0.00782125
0.00781822
0.00782537
0.00782312
0.00782094
0.00782724
0.00782267
0.00782018
0.00782744
0.00782482
0.00782214
0.00782861
0.00782487
0.00782154
0.00782803
0.00782462
0.00782145
0.00782817
0.00782513
0.00782195
0.00782871
0.00782587
0.00782262
0.00782938
0.00782668
0.00782328
0.00783004
0.00782751
0.00782396
0.00783064
0.00782829
0.00782461
0.00783119
0.00782898
0.0078252
0.00783172
0.0078296
0.00782571
0.00783213
0.00783016
0.00782617
0.00783248
0.00783082
0.00782649
0.00783299
0.00783123
0.00782687
0.00783314
0.00783088
0.00782723
0.00783296
0.00783211
0.00782684
0.00783385
0.00783338
0.00782811
0.00783393
0.00783091
0.00782894
0.00782856
0.00783465
0.00783162
0.00783113
0.00783141
0.00783104
0.00783256
0.00783104
0.00783058
0.00782983
0.00783508
0.00783209
0.00782974
0.00782698
0.00783458
0.00783305
0.00783472
0.00782849
0.00783262
0.0078289
0.00783454
0.00782998
0.00783342
0.00783177
0.007834
0.0078471
0.00795952
0.0077868
0.00721794
0.00748878
0.00783706
0.00817895
0.000741694
0.000784427
0.000858118
0.0010503
0.00145048
0.00209287
0.00288798
0.00369117
0.00446648
0.00517367
0.00580887
0.00635544
0.0068218
0.00721703
0.0075547
0.00784967
0.00811021
0.00834527
0.00855706
0.00874688
0.00891564
0.00906352
0.00918594
0.00928007
0.00934215
0.0093767
0.00938644
0.00937961
0.00936206
0.00933819
0.00931144
0.00928404
0.0092576
0.00923294
0.00921062
0.00919077
0.00917339
0.00915846
0.00914554
0.00913479
0.00912541
0.00911794
0.00911122
0.00910611
0.00910122
0.00909776
0.00909426
0.00909184
0.00908927
0.00908771
0.00908604
0.00908552
0.00908387
0.00908458
0.00908183
0.00908472
0.00907722
0.00907794
0.00900239
0.00898126
0.0093561
0.00947671
0.00940812
0.00914172
0.00887284
0.00859253
0.00835721
0.00814118
0.00796983
0.00781625
0.00769417
0.00760355
0.00752934
0.00744374
0.00738034
0.00736153
0.007347
0.00726947
0.00724856
0.00725054
0.0072258
0.00724703
0.00724412
0.00720321
0.00717597
0.0071578
0.00713206
0.00716524
0.00719388
0.00713356
0.00715445
0.00724765
0.00721475
0.00711913
0.00718718
0.00728204
0.00716937
0.00707764
0.00719378
0.00727786
0.00719041
0.00711212
0.00716737
0.00726013
0.00726119
0.0071826
0.00715392
0.00720145
0.00724335
0.0072368
0.0072005
0.00719117
0.00719641
0.00721393
0.00723336
0.00724552
0.00724572
0.00724076
0.00723165
0.00722631
0.00722345
0.0072199
0.0072154
0.00721338
0.00721297
0.00721304
0.00721277
0.00721231
0.00721196
0.00721172
0.00721177
0.00721194
0.00721221
0.00721248
0.00721275
0.00721324
0.00721376
0.00721408
0.00721435
0.00721467
0.00721505
0.00721531
0.00721545
0.00721564
0.00721573
0.00721581
0.00721603
0.00721618
0.00721647
0.00721684
0.00721685
0.00721706
0.00721736
0.00721733
0.00721723
0.00721734
0.00721767
0.00721801
0.00721789
0.00721787
0.00721829
0.00721866
0.00721858
0.00721876
0.00721916
0.00721942
0.0072195
0.00721968
0.00721997
0.00722022
0.00722021
0.00722059
0.00722108
0.00722103
0.00722105
0.00722164
0.00722195
0.00722166
0.00722215
0.00722248
0.00722227
0.00722333
0.00722297
0.00722283
0.00722384
0.00722238
0.00722369
0.00722569
0.00722254
0.00722449
0.00722795
0.0072228
0.0072249
0.00722963
0.00722275
0.00722469
0.00723165
0.00722449
0.00722382
0.00723191
0.00722845
0.00722492
0.00723012
0.00722915
0.00722806
0.00723182
0.00722731
0.00722771
0.00723437
0.00722972
0.00722771
0.00723365
0.00723154
0.00723015
0.0072352
0.00723102
0.00722947
0.00723552
0.00723312
0.00723135
0.00723666
0.00723325
0.00723087
0.00723614
0.00723296
0.00723068
0.00723616
0.00723332
0.00723104
0.00723657
0.00723391
0.00723157
0.00723713
0.0072346
0.00723213
0.00723769
0.00723531
0.00723271
0.0072382
0.00723598
0.00723326
0.00723867
0.00723656
0.00723375
0.00723912
0.00723708
0.00723417
0.00723947
0.00723754
0.00723456
0.00723979
0.00723808
0.00723482
0.0072402
0.00723838
0.00723509
0.00724023
0.00723808
0.00723538
0.00724041
0.00723912
0.00723521
0.00724135
0.00724005
0.00723597
0.00724075
0.00723798
0.0072365
0.00723642
0.00724127
0.00723883
0.00723875
0.0072388
0.00723859
0.00723971
0.0072383
0.00723776
0.00723738
0.00724162
0.00723907
0.00723727
0.00723535
0.00724116
0.00723988
0.00724142
0.00723659
0.0072395
0.00723657
0.00724097
0.00723782
0.00724049
0.00723923
0.00724173
0.00725622
0.00734297
0.00717334
0.00668727
0.00683364
0.00708802
0.00736613
0.000727192
0.000746123
0.000771369
0.000841846
0.00101256
0.00136367
0.00190027
0.00255203
0.00325286
0.0039224
0.00456612
0.00515685
0.00569311
0.00616695
0.00658241
0.00694276
0.00725453
0.0075307
0.0077738
0.007988
0.00817307
0.00832759
0.00844908
0.00853772
0.00859969
0.0086373
0.00864835
0.00864258
0.00862605
0.00860321
0.00857746
0.00855103
0.00852546
0.00850159
0.00847995
0.0084607
0.00844382
0.0084293
0.00841676
0.0084063
0.00839721
0.00838994
0.00838343
0.00837843
0.00837373
0.0083703
0.00836705
0.00836464
0.0083623
0.00836075
0.00835922
0.00835867
0.00835729
0.00835778
0.00835561
0.00835781
0.00835177
0.00835119
0.0082873
0.00827945
0.00861039
0.0087446
0.0087297
0.00853301
0.00831326
0.00805986
0.00784317
0.00763436
0.00746494
0.00730916
0.00718406
0.00708857
0.00700754
0.00692062
0.00685566
0.00682899
0.00680391
0.00673186
0.00670994
0.00670616
0.0066844
0.00669899
0.00669268
0.00665645
0.00663028
0.00660942
0.00658647
0.00661366
0.00663119
0.00657803
0.00660393
0.0066834
0.00664653
0.00657254
0.00663554
0.00670771
0.00661035
0.00654186
0.00663983
0.00670315
0.00662931
0.00657
0.00661714
0.00669192