/*--------------------------------*- C++ -*----------------------------------*\
| =========                 |                                                 |
| \\      /  F ield         | foam-extend: Open Source CFD                    |
|  \\    /   O peration     | Version:     3.2                                |
|   \\  /    A nd           | Web:         http://www.foam-extend.org         |
|    \\/     M anipulation  | For copyright notice see file Copyright         |
\*---------------------------------------------------------------------------*/
FoamFile
{
    version     2.0;
    format      ascii;
    class       areaScalarField;
    location    "50";
    object      kTempA;
}
// * * * * * * * * * * * * * * * * * * * * * * * * * * * * * * * * * * * * * //

dimensions      [0 2 -2 0 0 0 0];

internalField   nonuniform List<scalar> 
300
(
0.0313657
0.0200487
0.0148645
0.0149133
0.0144524
0.0144516
0.0142286
0.0142181
0.0141386
0.0141687
0.014176
0.0142277
0.01428
0.0143629
0.0144409
0.0145395
0.0146402
0.014753
0.0148653
0.0149885
0.0151187
0.015253
0.0153914
0.015532
0.0156745
0.015819
0.0159543
0.0160728
0.0161731
0.0162572
0.0163275
0.0163858
0.0164346
0.0164748
0.0165087
0.0165363
0.01656
0.016579
0.0165959
0.016609
0.0166214
0.0166302
0.0166398
0.0166457
0.0166533
0.0166568
0.0166631
0.0166645
0.0166718
0.0166687
0.0166808
0.016667
0.0166935
0.0166548
0.0167208
0.016617
0.0167887
0.016531
0.0170455
0.0160143
0.0118407
0.0116285
0.0120071
0.0120956
0.0123668
0.0124069
0.0124921
0.012547
0.012548
0.012566
0.01263
0.0125128
0.0124748
0.0126229
0.0126782
0.012478
0.0122124
0.0126853
0.0127625
0.0123416
0.0126081
0.0123074
0.0121128
0.0124175
0.0124346
0.0123867
0.0127818
0.0124895
0.0120383
0.0128239
0.0131019
0.0118178
0.0120517
0.0134895
0.0127459
0.0112873
0.012604
0.0138298
0.0123424
0.0114951
0.0126966
0.0133574
0.0126135
0.0119796
0.012137
0.0128045
0.0128963
0.0123797
0.012225
0.0124292
0.0126223
0.0126508
0.0126267
0.0125874
0.0125199
0.012475
0.0124582
0.0124681
0.0124885
0.0124847
0.0124725
0.0124815
0.0124961
0.0124971
0.0124915
0.0124897
0.0124904
0.0124916
0.0124927
0.0124942
0.0124948
0.0124953
0.0124961
0.0124961
0.0124964
0.0124969
0.0124959
0.0124959
0.0124964
0.0124965
0.0124965
0.0124963
0.0124967
0.0124968
0.012497
0.0124977
0.0124974
0.0124975
0.0124975
0.0124965
0.0124986
0.012499
0.0124965
0.0124984
0.0125005
0.0125002
0.012499
0.0124981
0.0125003
0.0125025
0.0125002
0.0124984
0.0125019
0.0125029
0.0125005
0.0125009
0.0125023
0.0125024
0.0125017
0.0125015
0.0125045
0.0125042
0.0125013
0.0125038
0.0125071
0.0125031
0.0125004
0.0125097
0.0125049
0.0125009
0.0125146
0.0124988
0.0125058
0.0125156
0.0124913
0.012521
0.012516
0.0124746
0.0125348
0.0125266
0.0124568
0.0125415
0.01254
0.0124435
0.0125424
0.0125582
0.0124352
0.0125278
0.0125839
0.012445
0.0125009
0.0125771
0.0124751
0.0125079
0.0125481
0.0124706
0.012533
0.0125631
0.0124555
0.0125186
0.012579
0.0124705
0.0125161
0.0125638
0.0124675
0.0125238
0.0125781
0.0124696
0.0125166
0.0125706
0.0124667
0.0125152
0.0125738
0.0124693
0.0125163
0.0125769
0.0124719
0.0125166
0.0125792
0.0124744
0.0125172
0.0125816
0.0124767
0.0125177
0.0125843
0.0124793
0.0125179
0.0125867
0.0124821
0.0125184
0.0125888
0.012485
0.0125191
0.012591
0.0124875
0.0125201
0.0125932
0.0124902
0.0125209
0.0125948
0.012494
0.01252
0.0125994
0.0124948
0.0125213
0.0126018
0.0124942
0.0125289
0.0125942
0.0125089
0.0125182
0.0126052
0.0125099
0.0125128
0.0126154
0.0124965
0.0125428
0.0125646
0.0125597
0.012517
0.0125562
0.0125596
0.0125399
0.0125642
0.0125258
0.0125592
0.0125514
0.0125817
0.0125128
0.0125503
0.0125615
0.0125896
0.012515
0.0125531
0.0125487
0.0125759
0.0125337
0.012558
0.0125315
0.0125616
0.0125366
0.0125552
0.0125309
0.0125754
0.0122214
0.0146168
0.0193698
0.0180097
0.0162793
0.0166472
)
;

boundaryField
{
    inlet
    {
        type            calculated;
        value           uniform 0;
    }
    outlet
    {
        type            calculated;
        value           uniform 0;
    }
    sideWall
    {
        type            empty;
    }
}


// ************************************************************************* //
