/*--------------------------------*- C++ -*----------------------------------*\
| =========                 |                                                 |
| \\      /  F ield         | foam-extend: Open Source CFD                    |
|  \\    /   O peration     | Version:     3.2                                |
|   \\  /    A nd           | Web:         http://www.foam-extend.org         |
|    \\/     M anipulation  | For copyright notice see file Copyright         |
\*---------------------------------------------------------------------------*/
FoamFile
{
    version     2.0;
    format      ascii;
    class       volScalarField;
    location    "50";
    object      Ktemp;
}
// * * * * * * * * * * * * * * * * * * * * * * * * * * * * * * * * * * * * * //

dimensions      [0 2 -2 0 0 0 0];

internalField   nonuniform List<scalar> 
5400
(
0.0313657
0.0200487
0.0148645
0.0149133
0.0144524
0.0144516
0.0142286
0.0142181
0.0141386
0.0141687
0.014176
0.0142277
0.01428
0.0143629
0.0144409
0.0145395
0.0146402
0.014753
0.0148653
0.0149885
0.0151187
0.015253
0.0153914
0.015532
0.0156745
0.015819
0.0159543
0.0160728
0.0161731
0.0162572
0.0163275
0.0163858
0.0164346
0.0164748
0.0165087
0.0165363
0.01656
0.016579
0.0165959
0.016609
0.0166214
0.0166302
0.0166398
0.0166457
0.0166533
0.0166568
0.0166631
0.0166645
0.0166718
0.0166687
0.0166808
0.016667
0.0166935
0.0166548
0.0167208
0.016617
0.0167887
0.016531
0.0170455
0.0160143
0.0118407
0.0116285
0.0120071
0.0120956
0.0123668
0.0124069
0.0124921
0.012547
0.012548
0.012566
0.01263
0.0125128
0.0124748
0.0126229
0.0126782
0.012478
0.0122124
0.0126853
0.0127625
0.0123416
0.0126081
0.0123074
0.0121128
0.0124175
0.0124346
0.0123867
0.0127818
0.0124895
0.0120383
0.0128239
0.0131019
0.0118178
0.0120517
0.0134895
0.0127459
0.0112873
0.012604
0.0138298
0.0123424
0.0114951
0.0126966
0.0133574
0.0126135
0.0119796
0.012137
0.0128045
0.0128963
0.0123797
0.012225
0.0124292
0.0126223
0.0126508
0.0126267
0.0125874
0.0125199
0.012475
0.0124582
0.0124681
0.0124885
0.0124847
0.0124725
0.0124815
0.0124961
0.0124971
0.0124915
0.0124897
0.0124904
0.0124916
0.0124927
0.0124942
0.0124948
0.0124953
0.0124961
0.0124961
0.0124964
0.0124969
0.0124959
0.0124959
0.0124964
0.0124965
0.0124965
0.0124963
0.0124967
0.0124968
0.012497
0.0124977
0.0124974
0.0124975
0.0124975
0.0124965
0.0124986
0.012499
0.0124965
0.0124984
0.0125005
0.0125002
0.012499
0.0124981
0.0125003
0.0125025
0.0125002
0.0124984
0.0125019
0.0125029
0.0125005
0.0125009
0.0125023
0.0125024
0.0125017
0.0125015
0.0125045
0.0125042
0.0125013
0.0125038
0.0125071
0.0125031
0.0125004
0.0125097
0.0125049
0.0125009
0.0125146
0.0124988
0.0125058
0.0125156
0.0124913
0.012521
0.012516
0.0124746
0.0125348
0.0125266
0.0124568
0.0125415
0.01254
0.0124435
0.0125424
0.0125582
0.0124352
0.0125278
0.0125839
0.012445
0.0125009
0.0125771
0.0124751
0.0125079
0.0125481
0.0124706
0.012533
0.0125631
0.0124555
0.0125186
0.012579
0.0124705
0.0125161
0.0125638
0.0124675
0.0125238
0.0125781
0.0124696
0.0125166
0.0125706
0.0124667
0.0125152
0.0125738
0.0124693
0.0125163
0.0125769
0.0124719
0.0125166
0.0125792
0.0124744
0.0125172
0.0125816
0.0124767
0.0125177
0.0125843
0.0124793
0.0125179
0.0125867
0.0124821
0.0125184
0.0125888
0.012485
0.0125191
0.012591
0.0124875
0.0125201
0.0125932
0.0124902
0.0125209
0.0125948
0.012494
0.01252
0.0125994
0.0124948
0.0125213
0.0126018
0.0124942
0.0125289
0.0125942
0.0125089
0.0125182
0.0126052
0.0125099
0.0125128
0.0126154
0.0124965
0.0125428
0.0125646
0.0125597
0.012517
0.0125562
0.0125596
0.0125399
0.0125642
0.0125258
0.0125592
0.0125514
0.0125817
0.0125128
0.0125503
0.0125615
0.0125896
0.012515
0.0125531
0.0125487
0.0125759
0.0125337
0.012558
0.0125315
0.0125616
0.0125366
0.0125552
0.0125309
0.0125754
0.0122214
0.0146168
0.0193698
0.0180097
0.0162793
0.0166472
0.0117156
0.0144739
0.0140583
0.0142415
0.0139676
0.0139607
0.0138323
0.0138391
0.0138103
0.0138576
0.0138932
0.013962
0.0140391
0.0141277
0.0142248
0.0143312
0.0144425
0.0145633
0.0146858
0.0148132
0.0149452
0.0150803
0.0152175
0.0153552
0.015493
0.0156283
0.0157495
0.0158528
0.0159393
0.016011
0.0160707
0.0161199
0.016161
0.0161947
0.0162231
0.0162462
0.0162661
0.016282
0.0162961
0.0163072
0.0163175
0.0163251
0.016333
0.0163382
0.0163444
0.0163478
0.0163526
0.0163548
0.0163591
0.0163599
0.0163643
0.0163619
0.0163697
0.0163605
0.0163782
0.0163519
0.0163969
0.0163346
0.0164942
0.0159728
0.0141964
0.0130757
0.0127047
0.0125353
0.0124969
0.0124673
0.0124699
0.0124841
0.0124645
0.0124721
0.0124662
0.0124246
0.0123918
0.0124427
0.0124549
0.0123668
0.0122873
0.0124203
0.0124553
0.0123508
0.0123569
0.0122375
0.0121671
0.0122137
0.0122721
0.0123036
0.0124231
0.0123383
0.0122584
0.0124549
0.0125021
0.0121996
0.0122237
0.0126269
0.0124387
0.0120302
0.0123224
0.0127373
0.0124333
0.0120575
0.0122903
0.0126553
0.012548
0.0121796
0.0121663
0.0124313
0.0125333
0.0123922
0.0122501
0.0122759
0.0124029
0.0124654
0.0124743
0.0124512
0.0124089
0.0123657
0.0123437
0.0123411
0.0123506
0.0123508
0.0123472
0.0123492
0.0123571
0.0123599
0.0123588
0.0123571
0.0123569
0.0123576
0.0123585
0.0123597
0.0123605
0.0123613
0.0123621
0.0123626
0.0123629
0.012363
0.0123631
0.0123634
0.0123634
0.0123633
0.0123632
0.0123633
0.0123635
0.0123637
0.0123639
0.0123644
0.0123644
0.0123646
0.0123648
0.0123647
0.0123655
0.0123659
0.0123654
0.0123658
0.0123668
0.0123671
0.0123668
0.0123665
0.0123674
0.0123684
0.012368
0.0123677
0.0123686
0.0123693
0.012369
0.0123692
0.0123697
0.0123701
0.0123701
0.0123702
0.0123713
0.0123716
0.0123711
0.012372
0.0123731
0.0123722
0.012372
0.0123742
0.0123737
0.0123731
0.012376
0.0123735
0.0123752
0.0123776
0.0123734
0.012379
0.0123782
0.0123706
0.0123825
0.0123822
0.0123682
0.0123843
0.0123865
0.0123666
0.0123859
0.012392
0.0123649
0.012384
0.0123969
0.0123699
0.012378
0.0123958
0.012379
0.0123822
0.0123917
0.0123764
0.0123903
0.0123976
0.0123736
0.0123863
0.0124007
0.0123813
0.0123878
0.0123982
0.0123793
0.0123909
0.012403
0.0123823
0.012389
0.0124001
0.0123797
0.0123879
0.0124006
0.0123812
0.0123894
0.0124026
0.0123833
0.0123908
0.0124044
0.0123852
0.0123923
0.0124062
0.012387
0.0123937
0.012408
0.0123889
0.012395
0.0124097
0.0123909
0.0123963
0.0124113
0.0123928
0.0123977
0.0124129
0.0123946
0.012399
0.0124145
0.0123964
0.0124003
0.0124159
0.0123983
0.0124011
0.0124176
0.0123997
0.0124025
0.0124194
0.0124006
0.0124051
0.0124189
0.0124041
0.0124032
0.012422
0.0124048
0.0124033
0.0124247
0.0124048
0.01241
0.0124163
0.0124177
0.0124039
0.0124144
0.012416
0.0124128
0.0124165
0.0124086
0.0124152
0.0124166
0.0124214
0.0124066
0.0124134
0.0124179
0.0124269
0.0124078
0.0124142
0.0124119
0.0124252
0.0124119
0.0124182
0.0124054
0.0124162
0.0124061
0.0124133
0.0124042
0.0124061
0.0122449
0.0130668
0.0156164
0.0162431
0.0160775
0.0161364
0.00535861
0.00905145
0.0109639
0.0118385
0.0120202
0.0122202
0.0122563
0.0123526
0.0124066
0.012502
0.012577
0.0126773
0.0127791
0.0128843
0.0129973
0.0131121
0.0132314
0.0133564
0.0134827
0.0136103
0.0137396
0.0138697
0.0139995
0.0141276
0.0142537
0.0143721
0.0144714
0.0145515
0.014616
0.0146679
0.0147101
0.014744
0.0147719
0.0147944
0.0148131
0.0148282
0.0148411
0.0148514
0.0148606
0.0148678
0.0148744
0.0148794
0.0148845
0.0148881
0.014892
0.0148944
0.0148976
0.0148993
0.0149018
0.0149031
0.0149047
0.0149054
0.0149071
0.0149067
0.0149094
0.0149067
0.0149122
0.0149065
0.0149303
0.0145141
0.0140605
0.0130144
0.0124197
0.0120814
0.0118442
0.0117174
0.0116432
0.0115921
0.0115499
0.0115251
0.0114898
0.0114586
0.0114351
0.0114245
0.0114071
0.0113897
0.0113953
0.0113608
0.0113769
0.0113697
0.0113162
0.0112937
0.0112753
0.0112147
0.0112589
0.011301
0.0113104
0.0113344
0.0113949
0.0113512
0.0113088
0.0113972
0.0113351
0.0113162
0.011394
0.0114348
0.0112558
0.0112834
0.0115036
0.0114222
0.0112191
0.0113454
0.011505
0.0113626
0.0112986
0.011324
0.0113769
0.0114325
0.0113497
0.0112989
0.011354
0.0114125
0.0114381
0.0114337
0.0114129
0.0113829
0.0113601
0.0113512
0.011351
0.0113512
0.0113508
0.0113502
0.011353
0.0113553
0.0113566
0.0113558
0.0113553
0.0113556
0.0113561
0.0113568
0.0113577
0.0113585
0.0113592
0.0113599
0.0113603
0.0113603
0.0113608
0.0113613
0.0113613
0.011361
0.0113608
0.0113612
0.0113614
0.0113615
0.0113618
0.0113621
0.0113623
0.0113626
0.0113628
0.0113631
0.0113632
0.0113636
0.0113639
0.0113637
0.0113642
0.0113646
0.0113647
0.0113648
0.0113649
0.0113654
0.0113659
0.0113662
0.011366
0.0113665
0.0113671
0.0113672
0.0113674
0.0113678
0.011368
0.0113683
0.0113685
0.0113691
0.0113696
0.0113696
0.0113697
0.0113703
0.0113707
0.0113705
0.0113715
0.0113719
0.0113715
0.0113735
0.011373
0.0113731
0.0113752
0.0113725
0.0113738
0.0113774
0.0113725
0.0113753
0.0113807
0.0113731
0.0113759
0.0113831
0.0113746
0.0113769
0.0113845
0.0113759
0.0113766
0.0113851
0.0113775
0.0113769
0.0113858
0.011381
0.0113812
0.0113866
0.0113819
0.0113831
0.0113883
0.0113818
0.0113826
0.0113905
0.0113849
0.0113852
0.0113905
0.0113855
0.0113859
0.0113924
0.0113863
0.0113859
0.011391
0.0113852
0.0113852
0.0113917
0.0113864
0.0113864
0.0113933
0.0113881
0.0113878
0.0113948
0.0113897
0.0113891
0.0113963
0.0113913
0.0113904
0.0113978
0.0113928
0.0113916
0.0113993
0.0113944
0.0113929
0.0114007
0.0113958
0.0113941
0.0114021
0.0113972
0.0113952
0.0114033
0.0113986
0.0113961
0.0114045
0.0114
0.0113967
0.0114061
0.0114012
0.0113989
0.0114071
0.0114017
0.0113991
0.0114062
0.0114033
0.0113979
0.011408
0.0114056
0.0114026
0.0114107
0.0114037
0.0114044
0.011405
0.0114083
0.0114045
0.0114053
0.0114067
0.011406
0.011406
0.0114062
0.0114082
0.0114055
0.0114113
0.0114054
0.0114059
0.0114052
0.0114133
0.0114063
0.0114066
0.0114071
0.0114115
0.0114067
0.0114059
0.0114032
0.0114034
0.0114043
0.011401
0.0113946
0.0113768
0.0115696
0.0127596
0.0136699
0.0142342
0.0143974
0.00276137
0.00514248
0.00763324
0.00913232
0.00997269
0.0104957
0.0107703
0.01099
0.0111448
0.0113001
0.0114292
0.0115681
0.0116985
0.0118306
0.0119628
0.0120915
0.012223
0.0123561
0.0124892
0.0126208
0.0127511
0.01288
0.0130059
0.0131278
0.0132449
0.0133483
0.0134277
0.0134867
0.013531
0.0135641
0.0135893
0.0136083
0.013623
0.0136342
0.0136432
0.01365
0.0136558
0.0136603
0.0136642
0.0136673
0.0136702
0.0136725
0.0136747
0.0136764
0.0136782
0.0136793
0.0136808
0.0136818
0.0136828
0.0136838
0.0136841
0.0136854
0.0136849
0.013687
0.0136848
0.0136892
0.013682
0.013691
0.0136555
0.0133247
0.0134831
0.0127231
0.0121166
0.0116847
0.0113325
0.0111299
0.0109857
0.0108795
0.0108081
0.0107507
0.0106941
0.0106574
0.0106325
0.0105866
0.010552
0.010567
0.0106019
0.0105009
0.0105024
0.0105253
0.010463
0.0104875
0.0104853
0.010398
0.0104154
0.0104482
0.0104156
0.0104849
0.0105798
0.0104711
0.0104147
0.010603
0.010535
0.0103687
0.0105187
0.0107269
0.0104217
0.0102797
0.0106259
0.0107169
0.010413
0.0103638
0.0105774
0.0106024
0.0105372
0.0104496
0.0104531
0.0105795
0.0105593
0.0104898
0.0104895
0.0105321
0.0105641
0.0105739
0.0105694
0.0105518
0.0105316
0.0105198
0.0105127
0.0105115
0.0105121
0.0105101
0.0105096
0.0105109
0.0105131
0.0105132
0.0105127
0.0105126
0.0105129
0.0105133
0.0105141
0.0105147
0.0105153
0.010516
0.0105163
0.0105166
0.0105173
0.0105178
0.0105179
0.0105178
0.0105178
0.0105181
0.0105182
0.0105184
0.0105186
0.0105188
0.0105191
0.0105193
0.0105196
0.01052
0.0105199
0.0105202
0.0105208
0.0105206
0.0105207
0.010521
0.0105213
0.0105217
0.0105214
0.0105216
0.0105224
0.010523
0.0105224
0.0105228
0.0105236
0.0105239
0.0105239
0.0105242
0.0105245
0.0105248
0.0105248
0.0105254
0.0105263
0.0105259
0.0105258
0.0105268
0.0105273
0.0105266
0.0105278
0.0105284
0.0105276
0.0105302
0.0105291
0.0105287
0.0105317
0.0105278
0.0105294
0.0105348
0.0105275
0.0105301
0.0105394
0.0105283
0.0105296
0.0105428
0.0105294
0.0105292
0.0105458
0.0105313
0.0105282
0.0105445
0.0105349
0.0105295
0.010542
0.0105375
0.0105349
0.0105453
0.0105361
0.010535
0.0105486
0.0105377
0.0105345
0.0105476
0.0105408
0.010538
0.0105497
0.0105405
0.0105377
0.0105501
0.0105425
0.0105388
0.01055
0.0105416
0.0105379
0.01055
0.0105423
0.0105387
0.010551
0.0105438
0.0105399
0.0105522
0.0105453
0.0105411
0.0105535
0.0105467
0.0105422
0.0105547
0.0105482
0.0105433
0.0105557
0.0105497
0.0105445
0.0105568
0.010551
0.0105455
0.0105578
0.0105523
0.0105465
0.0105587
0.0105535
0.0105473
0.0105594
0.0105549
0.0105478
0.0105607
0.010556
0.0105494
0.0105617
0.0105557
0.0105499
0.0105596
0.0105582
0.0105474
0.0105618
0.010561
0.0105526
0.0105645
0.0105569
0.0105552
0.0105549
0.0105646
0.0105565
0.0105565
0.0105587
0.0105574
0.0105595
0.0105581
0.0105593
0.010556
0.0105662
0.0105581
0.010556
0.0105518
0.0105682
0.0105596
0.0105607
0.0105541
0.0105652
0.0105567
0.0105625
0.0105533
0.0105586
0.0105565
0.0105557
0.010552
0.0106151
0.0105752
0.0109272
0.0117506
0.0125108
0.0128522
0.00159821
0.00290521
0.00480228
0.00640699
0.00776649
0.00866943
0.00924123
0.00964697
0.00993637
0.0101791
0.0103724
0.0105573
0.0107215
0.0108843
0.01104
0.0111874
0.0113343
0.0114784
0.0116204
0.0117585
0.0118924
0.0120223
0.0121465
0.0122639
0.0123725
0.0124611
0.0125218
0.0125615
0.0125872
0.0126031
0.0126126
0.0126177
0.01262
0.0126205
0.0126202
0.0126191
0.012618
0.0126168
0.0126158
0.0126148
0.0126141
0.0126135
0.0126131
0.0126129
0.0126126
0.0126125
0.0126125
0.0126125
0.0126124
0.0126128
0.0126122
0.0126133
0.012612
0.0126145
0.0126107
0.0126168
0.0126058
0.0126168
0.0125526
0.0123074
0.0127135
0.0122609
0.0117374
0.0112681
0.0108742
0.0106169
0.0104183
0.0102684
0.0101655
0.0100788
0.010004
0.00995607
0.00992268
0.00985922
0.0098141
0.00983451
0.0098704
0.00975807
0.00974749
0.00977544
0.00972014
0.00975928
0.00976148
0.00968073
0.00967571
0.00969458
0.00965265
0.00972574
0.00981685
0.00971049
0.00966387
0.00985232
0.00980167
0.00961054
0.00974328
0.0099766
0.00970815
0.00951557
0.00981597
0.00997141
0.0097158
0.00958965
0.00976289
0.00987017
0.00982914
0.00970478
0.00967674
0.00980498
0.00982602
0.00977047
0.00973682
0.00976223
0.00979176
0.00980984
0.0098166
0.0098089
0.00979351
0.00978118
0.00977032
0.00976737
0.00976768
0.00976495
0.00976245
0.00976288
0.00976492
0.00976543
0.00976512
0.00976486
0.00976493
0.00976516
0.00976577
0.00976632
0.00976687
0.00976742
0.00976779
0.00976823
0.00976898
0.00976947
0.00976966
0.00976974
0.0097698
0.00977004
0.00977023
0.00977041
0.00977052
0.00977065
0.00977093
0.00977118
0.00977143
0.0097719
0.0097717
0.00977197
0.00977258
0.00977241
0.0097724
0.00977262
0.00977302
0.00977344
0.00977312
0.00977318
0.00977394
0.00977463
0.00977412
0.0097744
0.00977514
0.00977545
0.00977545
0.00977571
0.00977603
0.00977635
0.00977626
0.00977685
0.00977775
0.00977742
0.00977718
0.00977822
0.00977878
0.00977802
0.00977902
0.00977975
0.00977894
0.00978135
0.00978037
0.00977973
0.00978244
0.00977906
0.00978044
0.0097855
0.009779
0.00978085
0.00978977
0.00978002
0.00978037
0.00979288
0.00978111
0.00977964
0.00979594
0.00978337
0.00977867
0.00979468
0.00978728
0.00978029
0.00979159
0.00978878
0.00978539
0.00979521
0.00978702
0.00978478
0.00979867
0.00978953
0.00978466
0.00979698
0.00979207
0.0097881
0.00979969
0.00979165
0.00978748
0.00979958
0.00979387
0.00978913
0.00980027
0.00979327
0.00978817
0.00979985
0.00979357
0.00978864
0.00980057
0.00979477
0.0097897
0.00980159
0.00979606
0.00979078
0.00980267
0.00979735
0.00979179
0.00980366
0.00979866
0.0097928
0.00980457
0.00979991
0.0097938
0.00980543
0.00980108
0.00979474
0.00980629
0.00980214
0.00979559
0.00980699
0.00980313
0.00979631
0.00980747
0.00980432
0.00979679
0.00980849
0.00980521
0.00979791
0.0098093
0.00980484
0.00979848
0.00980747
0.00980697
0.00979655
0.00980903
0.00980956
0.00980054
0.00981131
0.00980558
0.00980284
0.00980212
0.00981248
0.00980515
0.00980436
0.0098062
0.0098051
0.0098076
0.00980584
0.00980633
0.00980374
0.00981325
0.00980678
0.00980347
0.00979845
0.00981437
0.00980836
0.00980958
0.00980063
0.00981141
0.00980372
0.00981162
0.00980133
0.00980791
0.00980487
0.00980537
0.0098067
0.00991728
0.00978998
0.00965658
0.0103229
0.0110191
0.0114638
0.00109024
0.00173577
0.00283458
0.00414383
0.00556044
0.00669445
0.00758403
0.00822216
0.00868435
0.00904699
0.00932953
0.0095777
0.00979041
0.00998963
0.0101729
0.0103442
0.0105092
0.0106665
0.0108194
0.0109659
0.0111052
0.011238
0.0113617
0.0114753
0.0115747
0.0116472
0.0116902
0.0117128
0.0117222
0.011723
0.0117188
0.0117115
0.0117029
0.0116938
0.0116851
0.011677
0.0116697
0.0116633
0.0116578
0.0116532
0.0116491
0.011646
0.0116432
0.0116411
0.0116391
0.0116378
0.0116363
0.0116355
0.0116344
0.0116341
0.011633
0.0116336
0.0116319
0.0116341
0.0116301
0.0116359
0.0116245
0.0116332
0.0115545
0.0113883
0.0118632
0.0116656
0.011264
0.0108024
0.0104154
0.0101253
0.0098912
0.00970887
0.0095782
0.00946638
0.0093753
0.00931464
0.00927029
0.00919763
0.0091453
0.00915859
0.00918409
0.00907914
0.00906242
0.0090856
0.00904041
0.00907977
0.0090831
0.00901505
0.00899664
0.00900205
0.00896334
0.00902523
0.00910074
0.00901066
0.00898393
0.00914591
0.00910852
0.00893254
0.0090404
0.00924155
0.00903408
0.00884977
0.00908339
0.00923939
0.00905069
0.00891066
0.00903717
0.00916872
0.00914941
0.009024
0.00898359
0.00908957
0.00913208
0.00909538
0.00904837
0.00905934
0.00908201
0.00910387
0.00911777
0.0091179
0.00910728
0.00909626
0.00908401
0.00907961
0.00907905
0.00907595
0.00907229
0.0090719
0.00907329
0.009074
0.00907382
0.00907346
0.00907338
0.00907345
0.00907391
0.00907436
0.00907485
0.00907533
0.00907567
0.00907623
0.00907696
0.00907739
0.00907764
0.00907782
0.00907806
0.00907829
0.00907842
0.00907861
0.00907866
0.00907874
0.00907901
0.00907924
0.00907949
0.00907995
0.00907978
0.00908002
0.00908057
0.00908048
0.00908039
0.00908054
0.00908096
0.00908141
0.00908112
0.00908112
0.00908178
0.00908241
0.00908205
0.00908228
0.00908292
0.00908324
0.00908324
0.00908347
0.0090838
0.00908411
0.00908401
0.00908455
0.00908538
0.00908514
0.00908496
0.00908585
0.00908639
0.00908576
0.00908655
0.00908723
0.00908658
0.00908858
0.00908786
0.00908725
0.00908942
0.00908669
0.00908796
0.00909217
0.00908682
0.00908836
0.00909582
0.00908782
0.0090881
0.00909847
0.00908867
0.00908745
0.00910127
0.00909098
0.00908656
0.00910048
0.00909497
0.00908823
0.00909758
0.00909585
0.00909277
0.00910075
0.0090941
0.00909199
0.00910407
0.00909688
0.00909205
0.00910251
0.00909903
0.00909528
0.00910505
0.00909866
0.00909452
0.00910498
0.00910086
0.00909641
0.00910599
0.00910056
0.00909555
0.00910542
0.00910058
0.00909578
0.0091059
0.00910151
0.00909664
0.00910675
0.00910259
0.00909759
0.00910769
0.0091037
0.00909848
0.00910855
0.00910484
0.00909938
0.00910935
0.0091059
0.00910026
0.00911009
0.00910687
0.00910107
0.00911081
0.00910776
0.00910179
0.0091114
0.00910858
0.00910242
0.00911181
0.00910955
0.00910286
0.00911261
0.00911025
0.00910363
0.00911314
0.00910987
0.00910416
0.0091119
0.00911165
0.00910293
0.00911306
0.00911375
0.00910576
0.00911463
0.00911029
0.00910749
0.00910674
0.00911583
0.00911034
0.00910928
0.00911051
0.00910968
0.00911201
0.00911025
0.00911026
0.00910843
0.0091164
0.00911154
0.00910819
0.00910364
0.00911662
0.00911296
0.00911442
0.00910558
0.00911396
0.00910786
0.0091157
0.00910698
0.00911282
0.00910997
0.00911127
0.00911765
0.00924966
0.00909017
0.00868697
0.00919221
0.00976344
0.0102182
0.000870889
0.00113578
0.00166547
0.00253295
0.00370378
0.00479955
0.00583595
0.00666633
0.0073294
0.0078433
0.00824321
0.00857661
0.008855
0.0091031
0.00932345
0.00952587
0.00971483
0.00989083
0.0100582
0.0102148
0.010361
0.0104977
0.0106216
0.0107312
0.0108189
0.0108736
0.0109009
0.0109092
0.0109054
0.0108941
0.0108787
0.0108614
0.010844
0.0108271
0.0108116
0.0107976
0.0107853
0.0107747
0.0107655
0.0107578
0.0107511
0.0107459
0.0107411
0.0107375
0.010734
0.0107317
0.0107292
0.0107276
0.0107256
0.0107247
0.0107233
0.0107234
0.0107216
0.0107232
0.0107195
0.0107243
0.0107139
0.0107195
0.0106346
0.010535
0.0109952
0.0109726
0.0107024
0.0102883
0.00993068
0.00962869
0.0093793
0.00917537
0.00902321
0.00889159
0.00878667
0.00871394
0.00865852
0.00858001
0.00852272
0.00852484
0.0085363
0.0084423
0.00842326
0.00843901
0.00840275
0.00843722
0.00843953
0.00838294
0.00835816
0.00835265
0.00831916
0.00836945
0.00842733
0.00835023
0.00834489
0.00847846
0.00844689
0.00829805
0.00838717
0.00854589
0.00838384
0.00823065
0.00841084
0.00854346
0.00840483
0.00828079
0.00837265
0.00849962
0.00849332
0.00838117
0.0083402
0.00842171
0.00847121
0.00844927
0.00840132
0.00840179
0.00841732
0.00843953
0.00845735
0.00846329
0.00845691
0.00844796
0.00843593
0.00843065
0.00842912
0.00842579
0.00842152
0.00842044
0.00842113
0.00842176
0.00842162
0.00842122
0.00842103
0.00842097
0.00842128
0.00842164
0.00842206
0.00842246
0.00842278
0.00842337
0.00842403
0.0084244
0.00842468
0.00842496
0.00842532
0.00842555
0.00842563
0.00842581
0.00842586
0.00842593
0.00842619
0.00842638
0.00842665
0.00842708
0.00842698
0.0084272
0.00842767
0.00842762
0.0084275
0.00842762
0.00842802
0.00842845
0.00842823
0.0084282
0.00842876
0.0084293
0.00842908
0.00842928
0.00842982
0.00843013
0.00843015
0.00843036
0.00843068
0.00843097
0.0084309
0.00843138
0.00843209
0.00843194
0.00843183
0.0084326
0.00843308
0.00843258
0.00843323
0.00843379
0.00843332
0.00843493
0.0084344
0.00843393
0.00843562
0.00843343
0.00843467
0.00843803
0.00843365
0.00843518
0.0084411
0.00843444
0.00843519
0.00844335
0.00843494
0.00843472
0.00844586
0.00843708
0.00843386
0.00844555
0.00844113
0.00843539
0.00844302
0.0084418
0.0084394
0.00844563
0.00844003
0.00843868
0.00844869
0.00844277
0.00843879
0.00844745
0.00844475
0.00844176
0.00844963
0.00844435
0.00844098
0.00844972
0.00844654
0.00844294
0.00845085
0.00844644
0.00844221
0.00845024
0.00844629
0.00844225
0.00845053
0.00844699
0.00844293
0.00845122
0.00844789
0.00844373
0.00845202
0.00844884
0.0084445
0.00845278
0.00844981
0.00844529
0.00845347
0.00845072
0.00844604
0.00845411
0.00845154
0.00844673
0.00845473
0.00845228
0.00844734
0.00845522
0.00845295
0.00844788
0.0084556
0.00845374
0.00844826
0.00845623
0.00845428
0.0084488
0.00845653
0.00845391
0.00844925
0.00845586
0.00845541
0.00844854
0.00845683
0.00845705
0.00845046
0.00845762
0.00845409
0.00845167
0.00845109
0.0084586
0.00845456
0.0084537
0.00845438
0.0084538
0.00845574
0.00845409
0.00845381
0.0084526
0.00845909
0.00845534
0.00845245
0.0084488
0.00845878
0.00845652
0.00845817
0.0084505
0.00845646
0.00845171
0.0084586
0.0084521
0.00845666
0.00845443
0.00845627
0.00846665
0.00859792
0.0084269
0.0078727
0.00826331
0.00871772
0.00912292
0.000778804
0.000883516
0.00109315
0.00154751
0.00231904
0.00324526
0.00421223
0.00508799
0.00587428
0.00653012
0.00707053
0.00751146
0.00787575
0.00818959
0.0084606
0.0087029
0.00892306
0.00912482
0.0093114
0.00948211
0.00963798
0.00977994
0.00990366
0.0100066
0.0100802
0.0101206
0.0101361
0.0101343
0.0101212
0.0101014
0.0100783
0.0100541
0.0100305
0.0100083
0.00998809
0.00997008
0.00995429
0.0099407
0.00992895
0.00991917
0.00991063
0.00990385
0.00989773
0.00989312
0.00988865
0.00988558
0.00988232
0.0098802
0.00987776
0.00987643
0.0098748
0.00987451
0.00987272
0.00987381
0.00987053
0.00987433
0.00986533
0.00986811
0.00978456
0.00973386
0.0101526
0.0102275
0.0100743
0.00973139
0.00941483
0.00911744
0.00886963
0.00865469
0.00848872
0.00834317
0.0082278
0.00814486
0.00807923
0.0079965
0.00793575
0.0079267
0.00792426
0.00783955
0.00781971
0.00782815
0.0077987
0.00782675
0.00782654
0.00777885
0.00775191
0.00773859
0.00770967
0.00775057
0.00779224
0.00772447
0.00773591
0.00784607
0.00781498
0.00769433
0.00777143
0.00789406
0.00776043
0.00764112
0.00778393
0.00789046
0.00778261
0.0076828
0.00775245
0.00786328
0.00786243
0.00776751
0.00773182
0.0077939
0.00784152
0.00782913
0.00778608
0.00778005
0.0077897
0.00781016
0.00782955
0.00783938
0.00783661
0.00782976
0.00781895
0.0078134
0.00781107
0.00780758
0.00780308
0.00780145
0.00780154
0.00780193
0.00780175
0.00780132
0.00780104
0.00780088
0.00780106
0.00780131
0.00780167
0.00780199
0.00780229
0.00780285
0.00780343
0.00780376
0.00780404
0.00780436
0.00780476
0.00780501
0.00780511
0.00780529
0.00780536
0.00780543
0.00780567
0.00780584
0.00780612
0.00780653
0.00780648
0.0078067
0.00780707
0.00780704
0.00780692
0.00780703
0.0078074
0.00780779
0.00780762
0.00780759
0.00780808
0.00780853
0.00780839
0.00780858
0.00780904
0.00780933
0.00780938
0.00780957
0.00780988
0.00781015
0.00781011
0.00781054
0.00781113
0.00781104
0.00781101
0.00781167
0.00781207
0.00781169
0.00781224
0.00781268
0.00781235
0.00781366
0.00781323
0.00781294
0.00781424
0.00781248
0.00781374
0.00781634
0.00781269
0.00781439
0.00781895
0.00781319
0.00781464
0.00782088
0.00781334
0.00781434
0.00782314
0.00781527
0.00781347
0.00782319
0.00781933
0.00781477
0.00782104
0.00782
0.00781831
0.00782314
0.00781818
0.00781777
0.00782594
0.00782076
0.00781784
0.007825
0.00782267
0.00782054
0.00782683
0.00782219
0.00781979
0.00782706
0.00782436
0.00782175
0.00782821
0.00782439
0.00782114
0.00782764
0.00782415
0.00782105
0.00782778
0.00782466
0.00782155
0.00782831
0.00782539
0.00782221
0.00782899
0.00782621
0.00782287
0.00782964
0.00782704
0.00782355
0.00783024
0.00782782
0.00782419
0.00783079
0.00782851
0.00782477
0.00783131
0.00782912
0.00782528
0.00783173
0.00782968
0.00782574
0.00783207
0.00783033
0.00782606
0.00783257
0.00783074
0.00782643
0.00783272
0.00783039
0.00782679
0.00783252
0.00783166
0.00782642
0.00783343
0.00783291
0.00782766
0.00783348
0.00783039
0.00782847
0.00782816
0.00783422
0.00783114
0.00783067
0.00783095
0.00783058
0.00783209
0.00783056
0.00783011
0.0078294
0.00783464
0.00783158
0.00782928
0.00782657
0.00783415
0.00783257
0.00783424
0.00782802
0.00783215
0.00782843
0.00783408
0.00782952
0.00783296
0.00783131
0.00783355
0.00784662
0.00795908
0.0077865
0.00721786
0.00748879
0.00783707
0.00817896
0.000741694
0.000784427
0.000858118
0.0010503
0.00145048
0.00209287
0.00288798
0.00369117
0.00446648
0.00517367
0.00580887
0.00635544
0.0068218
0.00721703
0.0075547
0.00784967
0.00811021
0.00834527
0.00855706
0.00874688
0.00891564
0.00906352
0.00918594
0.00928007
0.00934215
0.0093767
0.00938644
0.00937961
0.00936206
0.00933819
0.00931144
0.00928404
0.0092576
0.00923294
0.00921062
0.00919077
0.00917339
0.00915846
0.00914554
0.00913479
0.00912541
0.00911794
0.00911122
0.00910611
0.00910122
0.00909776
0.00909426
0.00909184
0.00908927
0.00908771
0.00908604
0.00908552
0.00908387
0.00908458
0.00908183
0.00908472
0.00907722
0.00907794
0.0090024
0.0089812
0.00935584
0.00947638
0.00940796
0.00914154
0.00887266
0.00859235
0.00835702
0.00814099
0.00796963
0.00781603
0.00769399
0.00760336
0.00752899
0.00744338
0.0073802
0.00736155
0.00734662
0.00726902
0.00724851
0.0072504
0.00722574
0.00724697
0.00724357
0.00720242
0.00717552
0.00715726
0.00713187
0.00716538
0.00719338
0.00713332
0.00715501
0.00724726
0.00721375
0.00711851
0.00718806
0.00728192
0.00716781
0.0070776
0.00719482
0.00727736
0.00718913
0.00711217
0.00716837
0.00726026
0.00725999
0.00718176
0.00715373
0.0072017
0.00724335
0.00723633
0.00720005
0.00719085
0.0071962
0.00721389
0.00723324
0.0072453
0.00724542
0.00724042
0.00723131
0.00722601
0.00722315
0.00721958
0.00721509
0.0072131
0.0072127
0.00721277
0.0072125
0.00721204
0.00721168
0.00721144
0.0072115
0.00721167
0.00721194
0.00721221
0.00721248
0.00721298
0.0072135
0.00721382
0.00721409
0.0072144
0.00721479
0.00721505
0.00721518
0.00721537
0.00721546
0.00721555
0.00721576
0.00721592
0.00721621
0.00721658
0.00721659
0.00721679
0.00721709
0.00721706
0.00721696
0.00721708
0.00721741
0.00721774
0.00721763
0.00721761
0.00721803
0.0072184
0.00721832
0.00721851
0.00721891
0.00721916
0.00721924
0.00721943
0.00721972
0.00721996
0.00721995
0.00722034
0.00722083
0.00722077
0.0072208
0.00722139
0.0072217
0.00722141
0.0072219
0.00722223
0.00722202
0.00722308
0.00722271
0.00722257
0.00722358
0.00722214
0.00722346
0.00722543
0.00722231
0.00722426
0.00722768
0.00722256
0.00722467
0.00722935
0.00722248
0.00722449
0.00723138
0.00722415
0.00722362
0.0072317
0.00722812
0.00722467
0.0072299
0.00722888
0.00722782
0.00723156
0.00722703
0.00722751
0.00723414
0.00722939
0.00722749
0.00723344
0.00723126
0.00722991
0.00723495
0.00723071
0.00722924
0.0072353
0.00723283
0.00723111
0.00723642
0.00723295
0.00723063
0.0072359
0.00723266
0.00723044
0.00723593
0.00723302
0.0072308
0.00723633
0.00723361
0.00723133
0.00723689
0.00723429
0.00723189
0.00723744
0.00723501
0.00723246
0.00723796
0.00723567
0.007233
0.00723843
0.00723626
0.00723349
0.00723887
0.00723677
0.00723391
0.00723922
0.00723723
0.00723429
0.00723953
0.00723777
0.00723455
0.00723993
0.00723807
0.00723481
0.00723996
0.00723775
0.00723511
0.00724012
0.00723884
0.00723495
0.00724108
0.00723974
0.00723569
0.00724047
0.00723764
0.00723621
0.00723618
0.007241
0.00723853
0.00723846
0.00723851
0.0072383
0.00723941
0.00723799
0.00723746
0.00723711
0.00724134
0.00723874
0.00723698
0.0072351
0.00724089
0.00723958
0.00724111
0.00723629
0.00723921
0.00723628
0.00724067
0.00723753
0.0072402
0.00723894
0.00724144
0.0072559
0.00734269
0.00717316
0.00668725
0.00683366
0.00708803
0.00736614
0.000727192
0.000746123
0.000771369
0.000841846
0.00101256
0.00136367
0.00190027
0.00255203
0.00325286
0.0039224
0.00456612
0.00515685
0.00569311
0.00616695
0.00658241
0.00694276
0.00725453
0.0075307
0.0077738
0.007988
0.00817307
0.00832759
0.00844908
0.00853772
0.00859969
0.0086373
0.00864835
0.00864258
0.00862605
0.00860321
0.00857746
0.00855103
0.00852546
0.00850159
0.00847995
0.0084607
0.00844382
0.0084293
0.00841676
0.0084063
0.00839721
0.00838994
0.00838343
0.00837843
0.00837373
0.0083703
0.00836705
0.00836464
0.0083623
0.00836075
0.00835922
0.00835867
0.00835729
0.00835778
0.00835561
0.00835781
0.00835177
0.00835119
0.00828731
0.00827941
0.00861022
0.00874438
0.00872954
0.00853294
0.00831318
0.00805979
0.00784308
0.00763428
0.00746486
0.00730906
0.007184
0.00708848
0.00700733
0.00692038
0.00685562
0.00682908
0.00680368
0.00673159
0.00670999
0.00670611
0.00668443
0.00669901
0.00669228
0.00665584
0.00662994
0.00660903
0.00658639
0.00661385
0.00663087
0.00657793
0.00660445
0.00668283
0.00664584
0.00657228
0.0066364
0.00670768
0.00660921
0.006542
0.00664079
0.00670278