/*--------------------------------*- C++ -*----------------------------------*\
| =========                 |                                                 |
| \\      /  F ield         | foam-extend: Open Source CFD                    |
|  \\    /   O peration     | Version:     3.2                                |
|   \\  /    A nd           | Web:         http://www.foam-extend.org         |
|    \\/     M anipulation  | For copyright notice see file Copyright         |
\*---------------------------------------------------------------------------*/
FoamFile
{
    version     2.0;
    format      ascii;
    class       surfaceScalarField;
    location    "50";
    object      meshPhi;
}
// * * * * * * * * * * * * * * * * * * * * * * * * * * * * * * * * * * * * * //

dimensions      [0 3 -1 0 0 0 0];

internalField   nonuniform List<scalar> 
10482
(
0
0
0
0
0
0
0
0
0
0
0
0
0
0
0
0
0
0
0
0
0
0
0
0
0
0
0
0
0
0
0
0
0
0
0
0
0
0
0
0
0
0
0
0
0
0
0
0
0
0
0
0
0
0
0
0
0
0
0
0
0
0
0
0
0
0
0
0
0
0
0
0
0
0
0
0
0
0
0
0
0
0
0
0
0
0
0
-1.73472e-19
0
-1.15648e-19
-4.93433e-19
3.46945e-19
0
-1.38778e-18
0
2.94903e-18
0
5.20417e-19
0
-4.51028e-17
-4.93442e-19
3.17017e-16
-4.93442e-19
-1.77318e-15
4.93442e-19
9.29505e-15
4.93442e-19
-4.52023e-14
-1.43606e-27
1.85901e-13
-4.93442e-19
-5.25805e-13
-4.93441e-19
1.23775e-13
0
9.85842e-12
4.93136e-19
-1.08113e-10
0
-1.23588e-07
9.87931e-19
-3.86179e-07
0
-5.45809e-07
4.93626e-19
-5.7227e-07
4.93569e-19
-5.80745e-07
0
-5.84204e-07
2.35638e-25
-5.85773e-07
0
-5.86663e-07
-9.87072e-19
-5.86819e-07
-2.0878e-25
-5.88894e-07
1.15447e-25
-5.88689e-07
4.93553e-19
-5.68268e-07
4.9357e-19
-5.62006e-07
1.9157e-25
-6.09837e-07
-4.9352e-19
-6.28298e-07
-4.93525e-19
-5.45203e-07
-4.93591e-19
-4.9876e-07
9.87264e-19
-6.23244e-07
-4.93452e-19
-6.92513e-07
-4.93559e-19
-5.74915e-07
0
-5.17284e-07
0
-5.1206e-07
0
-4.87548e-07
0
-5.77445e-07
9.8706e-19
-6.64791e-07
0
-6.64766e-07
9.87109e-19
-6.78653e-07
0
-5.94836e-07
0
-4.92096e-07
4.10484e-24
-6.61813e-07
0
-7.38249e-07
0
-4.29071e-07
0
-4.26841e-07
0
-8.25687e-07
0
-6.88113e-07
0
-2.46238e-07
-9.87799e-19
-4.80908e-07
0
-8.79504e-07
0
-5.62158e-07
9.87495e-19
-1.84813e-07
0
-5.14132e-07
-3.7662e-24
-8.76236e-07
-9.86735e-19
-6.35976e-07
0
-2.90834e-07
-9.87447e-19
-4.05818e-07
0
-7.53055e-07
-9.8689e-19
-8.05214e-07
3.404e-24
-5.5298e-07
9.87228e-19
-4.1598e-07
-9.87236e-19
-5.43433e-07
0
-6.89767e-07
-9.87038e-19
-6.94164e-07
8.00523e-25
-6.24006e-07
-9.87089e-19
-5.70308e-07
0
-5.45356e-07
0
-5.40432e-07
-9.87127e-19
-5.54411e-07
3.57072e-25
-5.77539e-07
-9.87108e-19
-5.93991e-07
-9.87101e-19
-5.94736e-07
-9.8711e-19
-5.88499e-07
-9.87115e-19
-5.89808e-07
0
-5.96005e-07
-9.87103e-19
-5.96132e-07
0
-5.91161e-07
-9.87109e-19
-5.88494e-07
4.68183e-25
-5.894e-07
-9.87107e-19
-5.90895e-07
-4.74246e-25
-5.91627e-07
1.97422e-18
-5.9187e-07
0
-5.91809e-07
4.77001e-25
-5.9164e-07
9.87108e-19
-5.91556e-07
9.87107e-19
-5.9143e-07
0
-5.91327e-07
0
-5.91318e-07
0
-5.91193e-07
9.87108e-19
-5.91144e-07
0
-5.91377e-07
-9.87108e-19
-5.916e-07
-4.77392e-25
-5.9167e-07
-9.87107e-19
-5.91741e-07
9.87108e-19
-5.91928e-07
-4.77117e-25
-5.92126e-07
0
-5.92294e-07
-9.87108e-19
-5.92481e-07
4.78626e-25
-5.92524e-07
-9.87108e-19
-5.92527e-07
0
-5.92575e-07
0
-5.92681e-07
0
-5.93227e-07
-9.87106e-19
-5.9349e-07
9.87108e-19
-5.92984e-07
-4.72306e-25
-5.93279e-07
0
-5.94321e-07
0
-5.9433e-07
9.87108e-19
-5.93578e-07
4.83795e-25
-5.93496e-07
9.87108e-19
-5.94494e-07
-9.87107e-19
-5.9533e-07
0
-5.94675e-07
0
-5.94008e-07
0
-5.9504e-07
-1.97421e-18
-5.95942e-07
1.97421e-18
-5.95329e-07
1.97422e-18
-5.95049e-07
0
-5.95802e-07
0
-5.96196e-07
0
-5.95966e-07
0
-5.96149e-07
0
-5.9701e-07
1.97421e-18
-5.97154e-07
-1.97421e-18
-5.96464e-07
0
-5.97046e-07
-1.97421e-18
-5.98179e-07
0
-5.97336e-07
0
-5.96846e-07
-1.97421e-18
-5.98761e-07
0
-5.98853e-07
0
-5.97977e-07
0
-5.99338e-07
1.0767e-24
-5.98636e-07
-1.97423e-18
-5.98626e-07
-1.9742e-18
-6.00284e-07
0
-5.98791e-07
0
-6.01324e-07
0
-6.01327e-07
0
-5.95572e-07
1.97424e-18
-6.03596e-07
0
-6.05977e-07
0
-5.92967e-07
0
-6.02952e-07
0
-6.10575e-07
-1.97423e-18
-5.92275e-07
0
-6.01992e-07
0
-6.15277e-07
0
-5.91966e-07
0
-5.98461e-07
-1.97413e-18
-6.20993e-07
1.97419e-18
-5.97068e-07
3.94861e-18
-5.91158e-07
-1.97416e-18
-6.17462e-07
-1.97418e-18
-6.07414e-07
0
-5.95963e-07
0
-6.08011e-07
0
-6.03647e-07
0
-6.06705e-07
0
-6.15456e-07
-1.97421e-18
-5.97294e-07
1.97429e-18
-6.00185e-07
0
-6.21127e-07
0
-6.06033e-07
1.97428e-18
-5.99038e-07
0
-6.14054e-07
1.9017e-24
-6.04459e-07
-1.97428e-18
-6.05063e-07
-3.58858e-25
-6.20621e-07
1.99514e-24
-6.05119e-07
0
-6.0065e-07
-1.97416e-18
-6.17125e-07
1.9742e-18
-6.05578e-07
-5.96842e-25
-6.03489e-07
-1.97416e-18
-6.20505e-07
-1.97419e-18
-6.08192e-07
0
-6.04802e-07
-1.97416e-18
-6.21556e-07
-1.97419e-18
-6.09242e-07
0
-6.05297e-07
-1.97416e-18
-6.22198e-07
-1.97419e-18
-6.10252e-07
0
-6.05984e-07
-1.97416e-18
-6.2292e-07
-1.97418e-18
-6.11158e-07
-1.97429e-18
-6.06599e-07
2.49399e-25
-6.23729e-07
0
-6.12126e-07
1.97429e-18
-6.07072e-07
0
-6.24368e-07
1.97418e-18
-6.13111e-07
7.41644e-25
-6.07579e-07
0
-6.24882e-07
1.97418e-18
-6.14e-07
-1.97429e-18
-6.08124e-07
0
-6.25347e-07
-3.94836e-18
-6.14698e-07
-1.97429e-18
-6.08559e-07
-1.97566e-25
-6.25819e-07
0
-6.15389e-07
1.97429e-18
-6.08869e-07
1.825e-25
-6.26166e-07
0
-6.16017e-07
1.97429e-18
-6.09104e-07
0
-6.26538e-07
-1.97417e-18
-6.16472e-07
8.40101e-25
-6.09141e-07
0
-6.26622e-07
-1.97418e-18
-6.16939e-07
0
-6.09492e-07
-3.94834e-18
-6.26588e-07
-1.97418e-18
-6.17478e-07
0
-6.0936e-07
-1.97419e-18
-6.26778e-07
1.88022e-24
-6.18126e-07
-1.9743e-18
-6.08412e-07
9.92339e-26
-6.26086e-07
-1.97417e-18
-6.19151e-07
0
-6.0822e-07
3.37214e-25
-6.2365e-07
0
-6.23468e-07
0
-6.10198e-07
0
-6.15082e-07
-1.97416e-18
-6.23238e-07
1.13252e-24
-6.19199e-07
1.97418e-18
-6.15429e-07
1.97422e-18
-6.14289e-07
0
-6.16563e-07
-3.94841e-18
-6.23258e-07
0
-6.20957e-07
-1.97419e-18
-6.09585e-07
9.89476e-25
-6.10709e-07
1.97419e-18
-6.25695e-07
1.9742e-18
-6.26059e-07
-1.97417e-18
-6.09981e-07
-3.94854e-18
-6.07626e-07
1.97417e-18
-6.2029e-07
1.97424e-18
-6.23148e-07
1.97416e-18
-6.16552e-07
1.97426e-18
-6.14681e-07
-3.94833e-18
-6.16189e-07
-1.97426e-18
-6.16685e-07
0
-6.16655e-07
-9.89397e-25
-6.16644e-07
0
-6.16587e-07
0
-6.16594e-07
1.97459e-18
-6.16186e-07
1.97671e-18
-6.03973e-07
1.97425e-18
-4.38946e-07
1.97181e-18
-1.42928e-07
-3.94783e-18
-1.20459e-10
-1.97376e-18
8.69926e-12
-2.28311e-12
0
0
0
0
0
0
0
0
0
0
0
0
0
0
0
0
0
0
0
0
0
0
0
0
0
0
0
0
0
0
0
0
0
0
0
0
0
0
0
0
0
0
0
0
0
0
0
0
0
0
0
0
0
0
0
0
0
0
0
0
0
0
0
0
0
0
0
0
0
0
0
0
0
0
0
0
0
0
0
0
0
0
-4.9343e-19
-5.78241e-20
0
5.78241e-20
0
-1.15648e-19
0
-8.67362e-20
0
1.4456e-18
-4.93422e-19
-6.82325e-18
0
2.01806e-17
0
-4.81837e-17
0
1.50153e-16
0
-9.03328e-16
0
5.93809e-15
4.93422e-19
-3.16377e-14
-4.93413e-19
1.336e-13
0
-4.56832e-13
4.93413e-19
1.29962e-12
4.93409e-19
-3.28569e-12
0
1.62425e-11
-1.01965e-24
-2.67826e-10
-1.6446e-24
-1.23483e-07
4.94817e-19
-3.85288e-07
0
-5.44922e-07
4.94488e-19
-5.7175e-07
1.38614e-24
-5.80265e-07
0
-5.83737e-07
-1.36402e-24
-5.8531e-07
0
-5.86201e-07
-4.94387e-19
-5.86364e-07
4.94475e-19
-5.88431e-07
-9.88769e-19
-5.88182e-07
-4.94424e-19
-5.67858e-07
4.94465e-19
-5.61698e-07
0
-6.09291e-07
2.06227e-24
-6.27569e-07
0
-5.4487e-07
4.94509e-19
-4.98781e-07
0
-6.22607e-07
0
-6.91518e-07
-4.94427e-19
-5.7465e-07
0
-5.17014e-07
0
-5.11596e-07
0
-4.87449e-07
-9.89099e-19
-5.76976e-07
0
-6.64057e-07
0
-6.64313e-07
-9.88861e-19
-6.77895e-07
0
-5.9431e-07
0
-4.9238e-07
0
-6.61059e-07
0
-7.3672e-07
-9.88527e-19
-4.29492e-07
-9.90014e-19
-4.27468e-07
0
-8.23688e-07
0
-6.86838e-07
0
-2.4772e-07
0
-4.80866e-07
-9.88062e-19
-8.77013e-07
0
-5.61602e-07
-9.8958e-19
-1.86374e-07
0
-5.13707e-07
9.88286e-19
-8.74053e-07
0
-6.35279e-07
0
-2.91717e-07
4.83472e-24
-4.0598e-07
9.88927e-19
-7.51716e-07
-4.74102e-24
-8.03884e-07
0
-5.52862e-07
-1.54653e-25
-4.16276e-07
-9.89124e-19
-5.43004e-07
-9.8884e-19
-6.88876e-07
0
-6.93458e-07
9.88717e-19
-6.23566e-07
2.34021e-24
-5.69926e-07
-9.88791e-19
-5.4497e-07
9.88838e-19
-5.40048e-07
0
-5.53993e-07
9.88873e-19
-5.77068e-07
9.88847e-19
-5.93489e-07
0
-5.94256e-07
0
-5.88058e-07
9.88856e-19
-5.89357e-07
9.88841e-19
-5.95523e-07
0
-5.95654e-07
1.97767e-18
-5.90704e-07
-9.8884e-19
-5.88042e-07
0
-5.88939e-07
9.88839e-19
-5.9043e-07
2.74788e-24
-5.91163e-07
-9.88837e-19
-5.91406e-07
-9.88836e-19
-5.91345e-07
-2.7431e-24
-5.91177e-07
-9.88839e-19
-5.91092e-07
2.74059e-24
-5.90967e-07
2.74403e-24
-5.90864e-07
9.88835e-19
-5.90854e-07
-1.97767e-18
-5.9073e-07
-2.74119e-24
-5.90681e-07
-9.88835e-19
-5.90913e-07
1.97768e-18
-5.91136e-07
-9.88838e-19
-5.91206e-07
0
-5.91278e-07
-9.88838e-19
-5.91464e-07
2.74787e-24
-5.91662e-07
9.88838e-19
-5.9183e-07
0
-5.92016e-07
1.97767e-18
-5.92059e-07
-2.75248e-24
-5.92063e-07
0
-5.92111e-07
9.88838e-19
-5.92217e-07
0
-5.92761e-07
9.88832e-19
-5.93023e-07
-9.88836e-19
-5.92521e-07
1.97768e-18
-5.92815e-07
9.88836e-19
-5.93853e-07
0
-5.93862e-07
9.8883e-19
-5.93114e-07
9.88834e-19
-5.93033e-07
-9.88832e-19
-5.94027e-07
2.78973e-24
-5.94859e-07
0
-5.94209e-07
-1.97767e-18
-5.93546e-07
0
-5.94572e-07
0
-5.95471e-07
5.47498e-24
-5.94863e-07
0
-5.94585e-07
0
-5.95334e-07
-1.97767e-18
-5.95726e-07
0
-5.95499e-07
0
-5.95683e-07
0
-5.96539e-07
0
-5.96683e-07
-1.97767e-18
-5.95999e-07
0
-5.96579e-07
-1.97766e-18
-5.97705e-07
0
-5.96867e-07
-1.97767e-18
-5.96383e-07
1.97766e-18
-5.98286e-07
0
-5.9838e-07
0
-5.97513e-07
0
-5.98862e-07
-1.97764e-18
-5.98168e-07
1.97769e-18
-5.9816e-07
0
-5.99804e-07
0
-5.98331e-07
0
-6.00846e-07
0
-6.00839e-07
0
-5.95139e-07
0
-6.03107e-07
0
-6.05462e-07
0
-5.9256e-07
0
-6.02472e-07
0
-6.10028e-07
3.58078e-24
-5.91882e-07
0
-6.01527e-07
-1.97748e-18
-6.147e-07
-1.97766e-18
-5.91577e-07
-1.97785e-18
-5.9803e-07
0
-6.20387e-07
1.9776e-18
-5.96646e-07
0
-5.90772e-07
0
-6.16881e-07
0
-6.06936e-07
5.84466e-24
-5.95554e-07
-1.97757e-18
-6.07488e-07
1.97764e-18
-6.03191e-07
-1.97777e-18
-6.06243e-07
-1.97751e-18
-6.14903e-07
0
-5.96878e-07
1.97781e-18
-5.99757e-07
0
-6.20546e-07
0
-6.05579e-07
1.97778e-18
-5.98622e-07
1.97754e-18
-6.13505e-07
1.97761e-18
-6.0401e-07
0
-6.04625e-07
6.92836e-24
-6.20053e-07
0
-6.04672e-07
0
-6.00229e-07
1.97753e-18
-6.16565e-07
-3.95521e-18
-6.05126e-07
-1.97779e-18
-6.03062e-07
-7.01948e-24
-6.19941e-07
-1.9776e-18
-6.07737e-07
-1.9778e-18
-6.04377e-07
-3.95507e-18
-6.20991e-07
-1.97759e-18
-6.08784e-07
0
-6.04873e-07
1.97754e-18
-6.21633e-07
-1.97759e-18
-6.09792e-07
-6.25245e-24
-6.0556e-07
7.14791e-24
-6.22354e-07
-3.80066e-24
-6.10696e-07
6.22478e-24
-6.06176e-07
-1.97754e-18
-6.23162e-07
0
-6.11662e-07
0
-6.0665e-07
0
-6.23801e-07
1.97757e-18
-6.12644e-07
-1.97779e-18
-6.07158e-07
1.97753e-18
-6.24315e-07
-1.97756e-18
-6.13529e-07
-1.97779e-18
-6.07702e-07
-1.97753e-18
-6.24781e-07
0
-6.14225e-07
-1.97779e-18
-6.08138e-07
1.97754e-18
-6.25253e-07
0
-6.14914e-07
1.97778e-18
-6.08449e-07
-1.97754e-18
-6.256e-07
0
-6.1554e-07
5.99085e-24
-6.08685e-07
1.97755e-18
-6.25972e-07
-1.97754e-18
-6.15993e-07
-1.97779e-18
-6.08723e-07
-1.97754e-18
-6.26056e-07
-1.97755e-18
-6.16458e-07
0
-6.09073e-07
1.97754e-18
-6.26025e-07
-4.08916e-24
-6.16994e-07
1.97775e-18
-6.08944e-07
-1.97758e-18
-6.26215e-07
-3.95499e-18
-6.17635e-07
5.6913e-24
-6.08001e-07
1.97753e-18
-6.25527e-07
-4.2417e-24
-6.18653e-07
1.97776e-18
-6.07806e-07
-1.97755e-18
-6.23115e-07
3.95521e-18
-6.22945e-07
-5.01264e-24
-6.09761e-07
0
-6.14601e-07
6.02936e-24
-6.22714e-07
0
-6.18712e-07
1.97757e-18
-6.14948e-07
-5.46137e-24
-6.1381e-07
-1.97763e-18
-6.16086e-07
-1.97761e-18
-6.22743e-07
0
-6.20445e-07
1.97758e-18
-6.09134e-07
-1.97772e-18
-6.10258e-07
1.97758e-18
-6.25164e-07
1.9776e-18
-6.25526e-07
0
-6.09534e-07
1.97774e-18
-6.07181e-07
0
-6.19773e-07
0
-6.22633e-07
-1.97751e-18
-6.16078e-07
-1.97771e-18
-6.14203e-07
0
-6.15699e-07
1.97771e-18
-6.16196e-07
0
-6.16168e-07
1.9777e-18
-6.16156e-07
-1.9776e-18
-6.16102e-07
1.97739e-18
-6.16101e-07
0
-6.15702e-07
-1.98174e-18
-6.03159e-07
0
-4.38147e-07
-3.9396e-18
-1.42987e-07
0
-4.00026e-10
1.97363e-18
5.77721e-12
-1.63769e-12
0
0
0
0
0
0
0
0
0
0
0
0
0
0
0
0
0
0
0
0
0
0
0
0
0
0
0
0
0
0
0
0
0
0
0
0
0
0
0
-6.32989e-33
0
-6.32989e-33
0
0
0
0
0
0
0
0
0
0
0
0
0
0
0
0
0
0
0
0
0
0
0
0
0
0
0
0
0
0
0
0
0
0
0
0
0
0
0
0
0
-2.89121e-20
-4.93433e-19
1.15648e-19
0
-4.33681e-19
4.93433e-19
6.64977e-19
0
5.78241e-20
-4.93433e-19
-7.05454e-18
0
3.73255e-17
-4.93433e-19
-1.33603e-16
0
3.91354e-16
4.93433e-19
-1.06942e-15
0
3.16894e-15
-4.93433e-19
-1.04135e-14
-7.3121e-28
3.35951e-14
4.93442e-19
-1.04605e-13
0
3.8086e-13
1.28372e-26
-2.51215e-12
4.93516e-19
3.55228e-11
0
-5.29001e-10
0
-1.23209e-07
-4.96312e-19
-3.83506e-07
4.96081e-19
-5.42843e-07
0
-5.70007e-07
-9.92393e-19
-5.7849e-07
0
-5.81976e-07
-4.96218e-19
-5.83552e-07
4.96305e-19
-5.84445e-07
0
-5.84618e-07
-4.96333e-19
-5.86672e-07
0
-5.8636e-07
-4.33782e-24
-5.66196e-07
0
-5.60191e-07
-4.96346e-19
-6.07398e-07
-4.96149e-19
-6.2539e-07
4.96176e-19
-5.43338e-07
-4.9641e-19
-4.97811e-07
0
-6.20576e-07
-4.95958e-19
-6.88905e-07
4.96256e-19
-5.73176e-07
4.96356e-19
-5.15586e-07
0
-5.09931e-07
0
-4.86344e-07
0
-5.75244e-07
0
-6.61856e-07
0
-6.6249e-07
0
-6.75599e-07
-9.91864e-19
-5.92441e-07
0
-4.91785e-07
0
-6.58811e-07
0
-7.33285e-07
0
-4.29154e-07
0
-4.27431e-07
0
-8.19522e-07
0
-6.83834e-07
0
-2.49063e-07
9.94689e-19
-4.79848e-07
0
-8.72134e-07
0
-5.5975e-07
-9.93602e-19
-1.87911e-07
9.9413e-19
-5.1214e-07
-9.91643e-19
-8.69617e-07
0
-6.33121e-07
-9.92756e-19
-2.92153e-07
9.93664e-19
-4.05341e-07
9.92665e-19
-7.48598e-07
0
-8.00663e-07
-9.92009e-19
-5.51582e-07
-9.92845e-19
-4.15749e-07
9.92982e-19
-5.41365e-07
-9.92514e-19
-6.86428e-07
0
-6.91232e-07
-9.92248e-19
-6.21769e-07
-9.92293e-19
-5.68277e-07
9.3883e-24
-5.43357e-07
0
-5.38452e-07
9.92544e-19
-5.52339e-07
-1.06814e-23
-5.75315e-07
-9.92509e-19
-5.91671e-07
-9.92482e-19
-5.92464e-07
0
-5.86327e-07
9.92526e-19
-5.87612e-07
-1.07316e-23
-5.93727e-07
9.92491e-19
-5.93863e-07
-9.92487e-19
-5.88948e-07
-9.92496e-19
-5.86294e-07
-9.92498e-19
-5.8718e-07
9.92495e-19
-5.88663e-07
1.04657e-23
-5.89396e-07
0
-5.89638e-07
-9.92488e-19
-5.89578e-07
9.92488e-19
-5.8941e-07
0
-5.89325e-07
-9.92474e-19
-5.892e-07
0
-5.89098e-07
0
-5.89087e-07
0
-5.88964e-07
-9.92495e-19
-5.88916e-07
0
-5.89146e-07
-1.98498e-18
-5.89368e-07
1.98499e-18
-5.89438e-07
9.92495e-19
-5.8951e-07
9.92484e-19
-5.89696e-07
-9.92483e-19
-5.89893e-07
-9.92494e-19
-5.90061e-07
0
-5.90246e-07
0
-5.90289e-07
-1.0486e-23
-5.90293e-07
-9.92481e-19
-5.9034e-07
0
-5.90448e-07
9.92483e-19
-5.90988e-07
-9.92488e-19
-5.91247e-07
2.97745e-18
-5.90752e-07
-1.98497e-18
-5.91045e-07
-9.92479e-19
-5.92074e-07
0
-5.92085e-07
9.92478e-19
-5.91343e-07
9.9247e-19
-5.91263e-07
9.92492e-19
-5.9225e-07
-9.92476e-19
-5.93076e-07
9.92474e-19
-5.92432e-07
0
-5.91776e-07
1.98496e-18
-5.92794e-07
0
-5.93686e-07
0
-5.93086e-07
0
-5.9281e-07
0
-5.93552e-07
0
-5.93943e-07
-1.98495e-18
-5.9372e-07
0
-5.93904e-07
0
-5.94753e-07
0
-5.94896e-07
0
-5.94221e-07
1.98497e-18
-5.94796e-07
1.98496e-18
-5.95911e-07
1.98495e-18
-5.95084e-07
-1.98495e-18
-5.94608e-07
-2.14378e-23
-5.96491e-07
0
-5.96588e-07
1.98496e-18
-5.95734e-07
0
-5.97063e-07
0
-5.96381e-07
0
-5.96376e-07
1.98491e-18
-5.97998e-07
0
-5.96556e-07
0
-5.99041e-07
0
-5.99021e-07
-2.00792e-23
-5.93405e-07
-1.98501e-18
-6.01285e-07
0
-6.03599e-07
0
-5.90865e-07
0
-6.0066e-07
1.98469e-18
-6.08117e-07
0
-5.90206e-07
0
-5.99737e-07
0
-6.12739e-07
0
-5.89909e-07
0
-5.96291e-07
1.98468e-18
-6.18378e-07
-1.98485e-18
-5.94926e-07
1.98523e-18
-5.89105e-07
0
-6.14912e-07
1.9848e-18
-6.05125e-07
1.98512e-18
-5.93848e-07
0
-6.05607e-07
1.92771e-23
-6.01415e-07
-1.9851e-18
-6.04452e-07
1.98469e-18
-6.12972e-07
1.80747e-23
-5.95161e-07
0
-5.98018e-07
0
-6.1857e-07
0
-6.03801e-07
1.9851e-18
-5.969e-07
0
-6.1158e-07
-1.98487e-18
-6.02239e-07
0
-6.02866e-07
2.34759e-23
-6.18093e-07
-1.98483e-18
-6.02902e-07
0
-5.98498e-07
1.9847e-18
-6.14622e-07
0
-6.0335e-07
2.26816e-23
-6.01319e-07
-2.36378e-23
-6.17985e-07
1.864e-23
-6.05952e-07
-1.98513e-18
-6.02634e-07
1.98472e-18
-6.19033e-07
1.98482e-18
-6.06994e-07
-1.98513e-18
-6.0313e-07
0
-6.19673e-07
-1.87231e-23
-6.07996e-07
0
-6.03816e-07
1.98474e-18
-6.20392e-07
1.98478e-18
-6.08895e-07
1.98512e-18
-6.04431e-07
-3.96947e-18
-6.21197e-07
0
-6.09855e-07
2.25126e-23
-6.04906e-07
-1.98473e-18
-6.21834e-07
1.98478e-18
-6.10831e-07
0
-6.05414e-07
1.98473e-18
-6.22347e-07
1.89123e-23
-6.11711e-07
1.9851e-18
-6.05957e-07
1.98473e-18
-6.22812e-07
-1.98478e-18
-6.12403e-07
0
-6.06392e-07
-1.9847e-18
-6.23283e-07
0
-6.13087e-07
1.98509e-18
-6.06703e-07
-1.98475e-18
-6.23629e-07
1.90502e-23
-6.13708e-07
-3.97013e-18
-6.0694e-07
-2.44392e-23
-6.23999e-07
0
-6.14158e-07
1.98507e-18
-6.06978e-07
0
-6.24083e-07
1.91183e-23
-6.14619e-07
0
-6.07326e-07
-1.98469e-18
-6.24055e-07
-1.98473e-18
-6.15148e-07
0
-6.072e-07
-1.98476e-18
-6.24245e-07
-1.92508e-23
-6.1578e-07
-1.98511e-18
-6.06265e-07
1.9847e-18
-6.23562e-07
0
-6.16785e-07
1.98505e-18
-6.06066e-07
-2.39903e-23
-6.21188e-07
2.12539e-23
-6.21034e-07
-1.98481e-18
-6.07987e-07
-1.98496e-18
-6.12759e-07
-1.98466e-18
-6.20804e-07
-1.98491e-18
-6.16857e-07
-1.98473e-18
-6.13105e-07
-2.1447e-23
-6.11972e-07
2.20746e-23
-6.14249e-07
1.98481e-18
-6.20844e-07
1.98475e-18
-6.1855e-07
-3.9695e-18
-6.07338e-07
1.98496e-18
-6.08463e-07
-1.98476e-18
-6.23239e-07
4.40897e-23
-6.23596e-07
1.98467e-18
-6.07742e-07
0
-6.05395e-07
1.98469e-18
-6.17876e-07
0
-6.20734e-07
0
-6.14241e-07
-1.98496e-18
-6.12362e-07
-1.9847e-18
-6.13842e-07
-1.98497e-18
-6.14341e-07
0
-6.14314e-07
2.19566e-23
-6.14303e-07
1.98479e-18
-6.14248e-07
2.19319e-23
-6.14248e-07
1.98588e-18
-6.13861e-07
-3.35383e-23
-6.00828e-07
1.54265e-23
-4.3608e-07
5.4424e-24
-1.42565e-07
0
-5.4877e-10
6.23454e-26
8.41854e-11
-4.27e-12
0
0
0
0
0
0
0
0
0
0
0
0
0
0
0
0
0
0
0
0
0
0
0
0
0
0
0
0
0
0
0
0
0
0
0
0
0
0
0
0
0
0
0
0
0
0
0
0
0
0
0
0
0
0
0
0
0
0
0
0
0
0
0
0
0
0
0
0
0
0
0
0
0
0
0
0
0
0
0
0
0
-2.89121e-20
3.85186e-34
-1.28129e-34
4.93433e-19
1.30104e-19
4.93433e-19
-5.78241e-19
0
2.34188e-18
0
-6.4763e-18
4.93433e-19
1.47162e-17
4.93433e-19
-3.65899e-17
-4.93433e-19
1.73575e-16
0
-1.03933e-15
-4.93433e-19
4.91961e-15
4.93433e-19
-1.56273e-14
0
1.88293e-14
-4.93433e-19
1.31122e-13
9.86867e-19
-1.10322e-12
4.93434e-19
5.13435e-12
0
-1.98874e-11
-4.93523e-19
9.1211e-11
-1.65847e-24
-7.30234e-10
0
-1.22665e-07
0
-3.80679e-07
0
-5.39179e-07
-4.98814e-19
-5.66679e-07
-4.98824e-19
-5.75187e-07
9.97946e-19
-5.78714e-07
4.98902e-19
-5.80306e-07
-4.99032e-19
-5.81201e-07
-9.52325e-24
-5.81387e-07
4.99095e-19
-5.83428e-07
4.98922e-19
-5.8304e-07
4.99002e-19
-5.63091e-07
0
-5.57295e-07
0
-6.03978e-07
-4.9884e-19
-6.21573e-07
-6.31604e-24
-5.404e-07
4.99206e-19
-4.95671e-07
1.47607e-23
-6.1701e-07
0
-6.84438e-07
-4.98974e-19
-5.70249e-07
0
-5.12885e-07
9.97731e-19
-5.06933e-07
0
-4.84067e-07
9.98818e-19
-5.72109e-07
-9.9814e-19
-6.57957e-07
0
-6.59031e-07
0
-6.71574e-07
0
-5.88997e-07
0
-4.90078e-07
3.83183e-23
-6.54957e-07
0
-7.27741e-07
-9.97298e-19
-4.27745e-07
-1.00041e-18
-4.26632e-07
0
-8.13112e-07
-9.95134e-19
-6.78772e-07
0
-2.50042e-07
0
-4.77861e-07
0
-8.64705e-07
-9.95246e-19
-5.56268e-07
9.99394e-19
-1.89298e-07
0
-5.09427e-07
0
-8.62696e-07
0
-6.29177e-07
0
-2.92001e-07
0
-4.03857e-07
9.98203e-19
-7.43521e-07
0
-7.95226e-07
-9.97199e-19
-5.48873e-07
1.11129e-23
-4.14286e-07
0
-5.38405e-07
0
-6.82192e-07
-2.15229e-23
-6.87201e-07
0
-6.18379e-07
9.97579e-19
-5.65179e-07
-9.97692e-19
-5.40352e-07
9.97875e-19
-5.35481e-07
1.996e-18
-5.49278e-07
-9.98034e-19
-5.72096e-07
-9.97958e-19
-5.88342e-07
-9.9792e-19
-5.89161e-07
0
-5.83109e-07
0
-5.84379e-07
-1.97253e-23
-5.90422e-07
0
-5.90559e-07
9.97937e-19
-5.85694e-07
1.91967e-23
-5.83057e-07
0
-5.83928e-07
0
-5.854e-07
-9.97926e-19
-5.8613e-07
9.97941e-19
-5.86371e-07
9.97937e-19
-5.86311e-07
-9.97935e-19
-5.86145e-07
-1.93405e-23
-5.86059e-07
9.9793e-19
-5.85935e-07
0
-5.85833e-07
-9.97929e-19
-5.85822e-07
9.97909e-19
-5.857e-07
-9.97929e-19
-5.85652e-07
0
-5.8588e-07
0
-5.86101e-07
-1.99586e-18
-5.86171e-07
0
-5.86243e-07
-1.9361e-23
-5.86427e-07
1.93612e-23
-5.86623e-07
9.97927e-19
-5.8679e-07
9.97906e-19
-5.86974e-07
0
-5.87017e-07
-1.99585e-18
-5.87021e-07
0
-5.87068e-07
0
-5.87176e-07
-1.9437e-23
-5.87711e-07
-9.97917e-19
-5.87967e-07
9.97882e-19
-5.8748e-07
-9.97906e-19
-5.87772e-07
1.94808e-23
-5.88789e-07
9.97915e-19
-5.888e-07
9.97897e-19
-5.88067e-07
0
-5.87989e-07
1.94864e-23
-5.88967e-07
-9.97893e-19
-5.89783e-07
0
-5.89147e-07
0
-5.88502e-07
0
-5.89507e-07
0
-5.90389e-07
0
-5.89799e-07
0
-5.89527e-07
1.99578e-18
-5.9026e-07
0
-5.90648e-07
1.99582e-18
-5.90429e-07
0
-5.90614e-07
1.99578e-18
-5.91454e-07
0
-5.91594e-07
0
-5.90931e-07
1.99582e-18
-5.91501e-07
-1.99576e-18
-5.92599e-07
0
-5.91784e-07
1.99582e-18
-5.9132e-07
1.99577e-18
-5.93176e-07
0
-5.93276e-07
0
-5.9244e-07
0
-5.93744e-07
0
-5.93076e-07
-3.94245e-23
-5.93077e-07
1.99569e-18
-5.94668e-07
1.99576e-18
-5.93264e-07
0
-5.95712e-07
0
-5.95671e-07
-1.99585e-18
-5.90166e-07
4.16665e-23
-5.97935e-07
0
-6.00186e-07
0
-5.87674e-07
0
-5.97327e-07
0
-6.04638e-07
0
-5.87037e-07
0
-5.96433e-07
0
-6.09194e-07
1.99576e-18
-5.86744e-07
0
-5.93054e-07
1.99541e-18
-6.14768e-07
0
-5.91687e-07
0
-5.85962e-07
-1.9955e-18
-6.11362e-07
-3.99113e-18
-6.01763e-07
0
-5.90644e-07
1.99552e-18
-6.02174e-07
0
-5.98106e-07
-1.99592e-18
-6.01131e-07
3.99083e-18
-6.09461e-07
0
-5.9193e-07
0
-5.94775e-07
-1.99547e-18
-6.14999e-07
0
-6.00478e-07
-4.06422e-23
-5.93674e-07
1.9955e-18
-6.08084e-07
-3.61675e-23
-5.98931e-07
-1.99599e-18
-5.99585e-07
1.99545e-18
-6.1454e-07
0
-5.99592e-07
0
-5.95259e-07
-4.25731e-23
-6.11096e-07
0
-6.00031e-07
-1.99596e-18
-5.9806e-07
1.99544e-18
-6.14439e-07
0
-6.02618e-07
-1.99599e-18
-5.99372e-07
0
-6.15481e-07
0
-6.03651e-07
0
-5.99867e-07
1.99547e-18
-6.16118e-07
0
-6.04644e-07
3.9919e-18
-6.0055e-07
-1.99541e-18
-6.16833e-07
0
-6.05535e-07
0
-6.01163e-07
1.99541e-18
-6.17633e-07
0
-6.06487e-07
1.99595e-18
-6.01637e-07
1.9954e-18
-6.18266e-07
0
-6.07453e-07
1.9959e-18
-6.02142e-07
-1.9954e-18
-6.18777e-07
1.99548e-18
-6.08325e-07
1.99589e-18
-6.02683e-07
-1.99543e-18
-6.1924e-07
1.99543e-18
-6.0901e-07
-1.99588e-18
-6.03116e-07
4.37646e-23
-6.19708e-07
0
-6.09687e-07
1.99591e-18
-6.03425e-07
-4.3862e-23
-6.20052e-07
-1.99543e-18
-6.103e-07
-1.99582e-18
-6.03662e-07
3.99081e-18
-6.20419e-07
-1.99537e-18
-6.10745e-07
0
-6.03701e-07
0
-6.20503e-07
1.99541e-18
-6.11201e-07
-1.99588e-18
-6.04044e-07
0
-6.20478e-07
1.99538e-18
-6.1172e-07
0
-6.03922e-07
-1.99544e-18
-6.20667e-07
1.99526e-18
-6.1234e-07
4.02231e-23
-6.02998e-07
-4.43007e-23
-6.19993e-07
0
-6.13328e-07
-1.99579e-18
-6.02791e-07
-1.99542e-18
-6.17669e-07
0
-6.17523e-07
0
-6.04664e-07
1.99574e-18
-6.09354e-07
-3.9906e-18
-6.17299e-07
1.99563e-18
-6.13422e-07
1.99543e-18
-6.09693e-07
1.99554e-18
-6.08567e-07
1.99553e-18
-6.10842e-07
-1.99542e-18
-6.17354e-07
0
-6.15065e-07
1.99544e-18
-6.03988e-07
-8.0958e-23
-6.05121e-07
0
-6.19716e-07
3.99095e-18
-6.20058e-07
-3.84317e-23
-6.04395e-07
0
-6.02068e-07
3.99068e-18
-6.14393e-07
0
-6.1724e-07
4.00997e-23
-6.10831e-07
-1.99567e-18
-6.08955e-07
0
-6.10413e-07
-1.99572e-18
-6.10913e-07
0
-6.10887e-07
-3.99131e-18
-6.10875e-07
-1.99552e-18
-6.10825e-07
4.11361e-23
-6.10803e-07
-3.83932e-23
-6.10503e-07
0
-5.96962e-07
2.96865e-23
-4.32581e-07
-1.96755e-18
-1.41568e-07
-1.97431e-18
-7.83075e-10
-1.97372e-18
8.64108e-11
-2.3898e-11
0
0
0
0
0
0
0
0
0
0
0
0
0
0
0
0
0
0
0
0
0
0
0
0
0
0
0
0
0
0
0
0
0
0
0
0
0
0
0
0
0
0
0
0
0
0
0
0
0
0
0
0
0
0
0
0
0
0
0
0
0
0
0
0
0
0
0
0
0
0
0
0
0
0
0
0
0
-7.22801e-21
0
7.22801e-21
0
-6.50521e-20
0
1.22876e-19
-4.9343e-19
-1.87928e-19
0
4.33681e-20
0
2.89121e-19
0
3.75857e-18
-4.9343e-19
-4.54607e-17
0
2.84625e-16
0
-1.3234e-15
-4.9343e-19
5.15764e-15
0
-1.82209e-14
4.9343e-19
6.23872e-14
0
-2.12463e-13
5.34121e-27
6.92636e-13
-1.09303e-26
-2.04714e-12
0
5.63474e-12
4.93422e-19
-1.71738e-11
0
7.66515e-11
-8.6979e-26
-7.5985e-10
0
-1.21052e-07
0
-3.76276e-07
0
-5.34097e-07
-1.32103e-23
-5.62142e-07
-5.0237e-19
-5.7077e-07
1.28221e-23
-5.74363e-07
-5.02552e-19
-5.75979e-07
1.27795e-23
-5.76882e-07
5.0255e-19
-5.77084e-07
0
-5.79101e-07
5.0257e-19
-5.78652e-07
5.02674e-19
-5.58998e-07
-1.00563e-18
-5.53407e-07
-5.02819e-19
-5.99392e-07
1.42887e-23
-6.16575e-07
0
-5.36588e-07
-9.21502e-24
-4.92716e-07
-5.03122e-19
-6.1219e-07
5.02117e-19
-6.78616e-07
5.02613e-19
-5.66335e-07
0
-5.09322e-07
0
-5.03131e-07
0
-4.81025e-07
0
-5.6791e-07
1.00567e-18
-6.52801e-07
0
-6.54289e-07
0
-6.66209e-07
1.00418e-18
-5.84562e-07
1.00616e-18
-4.87585e-07
-1.00617e-18
-6.49656e-07
-1.00325e-18
-7.20738e-07
1.00443e-18
-4.25913e-07
1.00835e-18
-4.251e-07
0
-8.04759e-07
4.56223e-24
-6.72522e-07
0
-2.51112e-07
-1.00907e-18
-4.7494e-07
-1.00302e-18
-8.55178e-07
0
-5.51923e-07
-9.05639e-24
-1.90868e-07
0
-5.05672e-07
1.00365e-18
-8.53731e-07
-7.2294e-24
-6.24122e-07
0
-2.91739e-07
0
-4.01713e-07
1.00565e-18
-7.36747e-07
-3.34912e-23
-7.88116e-07
-8.64084e-24
-5.45315e-07
1.52154e-23
-4.12272e-07
-1.00613e-18
-5.34428e-07
0
-6.76548e-07
-1.00457e-18
-6.81796e-07
0
-6.13813e-07
1.00463e-18
-5.61045e-07
2.30831e-23
-5.36382e-07
-1.00508e-18
-5.31562e-07
0
-5.4523e-07
-1.00537e-18
-5.67826e-07
-1.00524e-18
-5.83921e-07
-1.00522e-18
-5.8477e-07
1.00527e-18
-5.7882e-07
0
-5.80066e-07
0
-5.86019e-07
2.58388e-23
-5.86159e-07
-1.00518e-18
-5.8136e-07
1.0052e-18
-5.78746e-07
0
-5.79598e-07
-2.5756e-23
-5.81054e-07
2.5768e-23
-5.81779e-07
1.00521e-18
-5.82019e-07
-1.00518e-18
-5.8196e-07
1.00515e-18
-5.81794e-07
1.00517e-18
-5.81708e-07
-1.00516e-18
-5.81585e-07
0
-5.81484e-07
0
-5.81472e-07
-1.00519e-18
-5.81351e-07
-2.57497e-23
-5.81305e-07
-1.00516e-18
-5.8153e-07
2.57754e-23
-5.81748e-07
2.01035e-18
-5.81818e-07
-1.00519e-18
-5.8189e-07
0
-5.82072e-07
2.57984e-23
-5.82266e-07
1.00518e-18
-5.82432e-07
-1.00518e-18
-5.82614e-07
1.00515e-18
-5.82656e-07
0
-5.82661e-07
-1.00515e-18
-5.82708e-07
1.00518e-18
-5.82817e-07
1.00518e-18
-5.83344e-07
0
-5.83596e-07
-2.01035e-18
-5.83119e-07
2.58965e-23
-5.83408e-07
1.00517e-18
-5.8441e-07
-1.00517e-18
-5.84422e-07
-2.58294e-23
-5.837e-07
-2.58599e-23
-5.83624e-07
2.59784e-23
-5.8459e-07
0
-5.85394e-07
0
-5.84769e-07
0
-5.84135e-07
0
-5.85125e-07
2.01031e-18
-5.85995e-07
0
-5.85416e-07
0
-5.85149e-07
0
-5.85871e-07
0
-5.86255e-07
2.0103e-18
-5.86041e-07
0
-5.86225e-07
0
-5.87053e-07
0
-5.87192e-07
2.01024e-18
-5.86542e-07
0
-5.87104e-07
-2.01028e-18
-5.88184e-07
2.01027e-18
-5.87385e-07
0
-5.86931e-07
-2.01028e-18
-5.88756e-07
0
-5.88859e-07
0
-5.88042e-07
0
-5.89317e-07
0
-5.88666e-07
-5.25906e-23
-5.88671e-07
0
-5.90229e-07
-2.01026e-18
-5.88867e-07
-2.01026e-18
-5.91268e-07
0
-5.91214e-07
0
-5.85833e-07
-2.01031e-18
-5.93458e-07
0
-5.95654e-07
0
-5.83399e-07
0
-5.92866e-07
-2.00983e-18
-6.00027e-07
4.78518e-23
-5.82789e-07
0
-5.92001e-07
0
-6.04502e-07
-2.01021e-18
-5.82506e-07
-2.01068e-18
-5.88698e-07
0
-6.09991e-07
-2.01004e-18
-5.87365e-07
0
-5.81728e-07
0
-6.06647e-07
0
-5.97282e-07
0
-5.86342e-07
0
-5.97611e-07
-2.01013e-18
-5.93682e-07
0
-5.96674e-07
0
-6.04803e-07
2.01009e-18
-5.8761e-07
2.01051e-18
-5.90412e-07
0
-6.10258e-07
0
-5.96042e-07
0
-5.89337e-07
-2.0098e-18
-6.03439e-07
-2.01004e-18
-5.94512e-07
2.01047e-18
-5.95174e-07
5.62595e-23
-6.09821e-07
-2.00996e-18
-5.95171e-07
-2.01041e-18
-5.90904e-07
-5.61777e-23
-6.06415e-07
0
-5.95601e-07
-2.01043e-18
-5.93678e-07
2.00978e-18
-6.09727e-07
-2.00992e-18
-5.98166e-07
-5.50467e-23
-5.94983e-07
2.00976e-18
-6.10761e-07
-2.00989e-18
-5.99187e-07
0
-5.95477e-07
5.68981e-23
-6.11393e-07
0
-6.00169e-07
0
-5.96155e-07
5.70466e-23
-6.12102e-07
2.00984e-18
-6.0105e-07
0
-5.96764e-07
-5.72244e-23
-6.12894e-07
-2.00986e-18
-6.0199e-07
-2.01034e-18
-5.97236e-07
2.00971e-18
-6.13522e-07
2.00983e-18
-6.02945e-07
-2.01032e-18
-5.97739e-07
-2.00975e-18
-6.1403e-07
4.95009e-23
-6.03806e-07
0
-5.98275e-07
5.76352e-23
-6.14489e-07
-4.95915e-23
-6.04482e-07
0
-5.98705e-07
5.77474e-23
-6.14953e-07
2.00971e-18
-6.05151e-07
5.48063e-23
-5.99014e-07
2.00966e-18
-6.15295e-07
-2.00968e-18
-6.05756e-07
2.01031e-18
-5.9925e-07
2.00966e-18
-6.15658e-07
0
-6.06194e-07
-5.473e-23
-5.9929e-07
2.00963e-18
-6.15741e-07
0
-6.06644e-07
0
-5.99629e-07
0
-6.1572e-07
0
-6.07153e-07
2.0102e-18
-5.99511e-07
5.84269e-23
-6.15908e-07
0
-6.07758e-07
-2.01025e-18
-5.98601e-07
2.00956e-18
-6.15244e-07
-2.00957e-18
-6.08726e-07
5.36496e-23
-5.98391e-07
0
-6.12974e-07
-2.00973e-18
-6.12851e-07
-5.22008e-23
-6.00217e-07
-2.01003e-18
-6.04802e-07
0
-6.12627e-07
0
-6.08835e-07
5.42381e-23
-6.0514e-07
-2.00983e-18
-6.04024e-07
-2.00983e-18
-6.06288e-07
0
-6.12694e-07
0
-6.10424e-07
-2.00967e-18
-5.99519e-07
-5.42234e-23
-6.00645e-07
0
-6.15014e-07
-2.00968e-18
-6.15351e-07
-2.0096e-18
-5.9993e-07
2.01007e-18
-5.97619e-07
0
-6.09749e-07
-2.00985e-18
-6.12582e-07
5.3544e-23
-6.0628e-07
-5.41527e-23
-6.04408e-07
0
-6.05839e-07
-5.41314e-23
-6.0634e-07
0
-6.06317e-07
-2.00998e-18
-6.06303e-07
2.00976e-18
-6.06256e-07
5.42369e-23
-6.06231e-07
-2.01147e-18
-6.05948e-07
2.01474e-18
-5.92191e-07
1.9895e-18
-4.2896e-07
1.96704e-18
-1.40807e-07
-3.94848e-18
-1.15801e-09
-3.9472e-18
5.32383e-11
-3.59044e-11
0
0
0
0
0
0
0
0
0
0
0
0
0
0
0
0
0
0
0
0
0
0
0
0
0
0
0
0
0
0
0
0
0
0
0
0
0
0
0
0
0
0
0
0
0
0
0
0
0
0
0
0
0
0
0
0
0
0
0
0
0
0
0
0
0
0
0
0
0
0
0
0
0
0
0
0
0
-5.42101e-21
0
2.02732e-20
0
-5.9235e-20
1.60494e-34
1.35525e-19
4.93433e-19
-1.22876e-19
0
-6.10767e-19
0
4.17779e-18
0
-1.49548e-17
0
3.65015e-17
0
-7.13512e-17
1.21162e-29
2.61715e-16
4.93433e-19
-2.06202e-15
4.93433e-19
1.41153e-14
4.93433e-19
-7.31564e-14
-4.93433e-19
2.94297e-13
4.93433e-19
-9.12254e-13
-4.93433e-19
1.96473e-12
7.88995e-26
-1.38953e-12
4.93425e-19
-1.05581e-11
0
7.96749e-11
-5.77255e-26
-7.86517e-10
0
-1.18762e-07
5.04149e-19
-3.69567e-07
-5.05517e-19
-5.25199e-07
5.06574e-19
-5.53078e-07
-5.06861e-19
-5.6164e-07
0
-5.65255e-07
-2.69356e-23
-5.66879e-07
5.07378e-19
-5.67784e-07
0
-5.68005e-07
-5.07457e-19
-5.6999e-07
-5.07262e-19
-5.69473e-07
-2.48841e-23