/*--------------------------------*- C++ -*----------------------------------*\
| =========                 |                                                 |
| \\      /  F ield         | foam-extend: Open Source CFD                    |
|  \\    /   O peration     | Version:     3.2                                |
|   \\  /    A nd           | Web:         http://www.foam-extend.org         |
|    \\/     M anipulation  | For copyright notice see file Copyright         |
\*---------------------------------------------------------------------------*/
FoamFile
{
    version     2.0;
    format      ascii;
    class       volVectorField;
    location    "50";
    object      meshCentreN;
}
// * * * * * * * * * * * * * * * * * * * * * * * * * * * * * * * * * * * * * //

dimensions      [0 1 0 0 0 0 0];

internalField   nonuniform List<vector> 
5400
(
(0.025 0.01 0.000708335)
(0.075 0.01 0.000458335)
(0.125 0.01 0.000208334)
(0.175 0.01 -4.16665e-05)
(0.225 0.01 -0.000291667)
(0.275 0.01 -0.000541666)
(0.325 0.01 -0.000791667)
(0.375 0.01 -0.00104167)
(0.425 0.01 -0.00129167)
(0.475 0.01 -0.00154167)
(0.525 0.01 -0.00179167)
(0.575 0.01 -0.00204166)
(0.625 0.01 -0.00229166)
(0.675 0.01 -0.00254167)
(0.725 0.01 -0.00279166)
(0.775 0.01 -0.00304167)
(0.825 0.01 -0.00329167)
(0.875 0.01 -0.00354166)
(0.925 0.01 -0.00379166)
(0.975 0.01 -0.00404166)
(1.025 0.01 -0.00429167)
(1.075 0.01 -0.00454167)
(1.125 0.01 -0.00479167)
(1.175 0.01 -0.00504167)
(1.225 0.01 -0.00529166)
(1.275 0.01 -0.00554167)
(1.325 0.01 -0.00579167)
(1.375 0.01 -0.00604167)
(1.425 0.01 -0.00629167)
(1.475 0.01 -0.00654167)
(1.525 0.01 -0.00679166)
(1.575 0.01 -0.00704166)
(1.625 0.01 -0.00729167)
(1.675 0.01 -0.00754167)
(1.725 0.01 -0.00779166)
(1.775 0.01 -0.00804167)
(1.825 0.01 -0.00829166)
(1.875 0.01 -0.00854167)
(1.925 0.01 -0.00879166)
(1.975 0.01 -0.00904166)
(2.025 0.01 -0.00929166)
(2.075 0.01 -0.00954166)
(2.125 0.01 -0.00979166)
(2.175 0.01 -0.0100417)
(2.225 0.01 -0.0102917)
(2.275 0.01 -0.0105417)
(2.325 0.01 -0.0107917)
(2.375 0.01 -0.0110417)
(2.425 0.01 -0.0112916)
(2.475 0.01 -0.0115416)
(2.525 0.01 -0.0117917)
(2.575 0.01 -0.0120416)
(2.625 0.01 -0.0122917)
(2.675 0.01 -0.0125416)
(2.725 0.01 -0.0127917)
(2.775 0.01 -0.0130416)
(2.825 0.01 -0.0132917)
(2.875 0.01 -0.0135416)
(2.925 0.01 -0.0137919)
(2.975 0.01 -0.0145263)
(3.025 0.01 -0.0159196)
(3.075 0.01 -0.0171202)
(3.125 0.01 -0.0178172)
(3.175 0.01 -0.0182884)
(3.225 0.01 -0.018645)
(3.275 0.01 -0.0189467)
(3.325 0.01 -0.0192236)
(3.375 0.01 -0.0194863)
(3.425 0.01 -0.019749)
(3.475 0.01 -0.0200037)
(3.525 0.01 -0.0202535)
(3.575 0.01 -0.0205303)
(3.625 0.01 -0.0207905)
(3.675 0.01 -0.0210031)
(3.725 0.01 -0.0212306)
(3.775 0.01 -0.0215393)
(3.825 0.01 -0.0218421)
(3.875 0.01 -0.0220068)
(3.925 0.01 -0.0221956)
(3.975 0.01 -0.022505)
(4.025 0.01 -0.0227902)
(4.075 0.01 -0.0231168)
(4.125 0.01 -0.0234486)
(4.175 0.01 -0.0236618)
(4.225 0.01 -0.0238453)
(4.275 0.01 -0.024032)
(4.325 0.01 -0.0241989)
(4.375 0.01 -0.0244919)
(4.425 0.01 -0.0248123)
(4.475 0.01 -0.0249179)
(4.525 0.01 -0.025108)
(4.575 0.01 -0.0255957)
(4.625 0.01 -0.0258452)
(4.675 0.01 -0.0257838)
(4.725 0.01 -0.0261251)
(4.775 0.01 -0.0267237)
(4.825 0.01 -0.0267942)
(4.875 0.01 -0.026675)
(4.925 0.01 -0.0271171)
(4.975 0.01 -0.0277071)
(5.025 0.01 -0.0277965)
(5.075 0.01 -0.0277328)
(5.125 0.01 -0.028067)
(5.175 0.01 -0.0286011)
(5.225 0.01 -0.0288813)
(5.275 0.01 -0.0289254)
(5.325 0.01 -0.0290731)
(5.375 0.01 -0.0294346)
(5.425 0.01 -0.0298122)
(5.475 0.01 -0.0300423)
(5.525 0.01 -0.0301862)
(5.575 0.01 -0.0303658)
(5.625 0.01 -0.0306064)
(5.675 0.01 -0.0308812)
(5.725 0.01 -0.0311724)
(5.775 0.01 -0.0314638)
(5.825 0.01 -0.0317392)
(5.875 0.01 -0.0319934)
(5.925 0.01 -0.032238)
(5.975 0.01 -0.032487)
(6.025 0.01 -0.0327398)
(6.075 0.01 -0.0329878)
(6.125 0.01 -0.0332315)
(6.175 0.01 -0.033478)
(6.225 0.01 -0.0337286)
(6.275 0.01 -0.0339799)
(6.325 0.01 -0.03423)
(6.375 0.01 -0.0344792)
(6.425 0.01 -0.034728)
(6.475 0.01 -0.0349767)
(6.525 0.01 -0.0352257)
(6.575 0.01 -0.0354748)
(6.625 0.01 -0.035724)
(6.675 0.01 -0.0359735)
(6.725 0.01 -0.0362232)
(6.775 0.01 -0.036473)
(6.825 0.01 -0.0367228)
(6.875 0.01 -0.0369727)
(6.925 0.01 -0.0372226)
(6.975 0.01 -0.0374725)
(7.025 0.01 -0.0377225)
(7.075 0.01 -0.0379724)
(7.125 0.01 -0.0382222)
(7.175 0.01 -0.038472)
(7.225 0.01 -0.0387217)
(7.275 0.01 -0.0389714)
(7.325 0.01 -0.0392213)
(7.375 0.01 -0.0394711)
(7.425 0.01 -0.039721)
(7.475 0.01 -0.0399709)
(7.525 0.01 -0.0402202)
(7.575 0.01 -0.0404698)
(7.625 0.01 -0.0407201)
(7.675 0.01 -0.0409698)
(7.725 0.01 -0.0412189)
(7.775 0.01 -0.0414686)
(7.825 0.01 -0.0417189)
(7.875 0.01 -0.041969)
(7.925 0.01 -0.0422183)
(7.975 0.01 -0.0424673)
(8.025 0.01 -0.0427175)
(8.075 0.01 -0.0429678)
(8.125 0.01 -0.0432171)
(8.175 0.01 -0.0434663)
(8.225 0.01 -0.0437164)
(8.275 0.01 -0.0439663)
(8.325 0.01 -0.0442158)
(8.375 0.01 -0.0444654)
(8.425 0.01 -0.0447154)
(8.475 0.01 -0.044965)
(8.525 0.01 -0.0452141)
(8.575 0.01 -0.0454637)
(8.625 0.01 -0.0457139)
(8.675 0.01 -0.0459633)
(8.725 0.01 -0.0462123)
(8.775 0.01 -0.0464627)
(8.825 0.01 -0.0467128)
(8.875 0.01 -0.0469612)
(8.925 0.01 -0.0472112)
(8.975 0.01 -0.0474612)
(9.025 0.01 -0.0477097)
(9.075 0.01 -0.0479607)
(9.125 0.01 -0.0482097)
(9.175 0.01 -0.0484585)
(9.225 0.01 -0.0487101)
(9.275 0.01 -0.0489564)
(9.325 0.01 -0.0492073)
(9.375 0.01 -0.0494618)
(9.425 0.01 -0.0497036)
(9.475 0.01 -0.0499536)
(9.525 0.01 -0.050213)
(9.575 0.01 -0.0504525)
(9.625 0.01 -0.0506998)
(9.675 0.01 -0.0509632)
(9.725 0.01 -0.0512016)
(9.775 0.01 -0.0514452)
(9.825 0.01 -0.051713)
(9.875 0.01 -0.0519534)
(9.925 0.01 -0.0521903)
(9.975 0.01 -0.0524583)
(10.025 0.01 -0.0527067)
(10.075 0.01 -0.0529417)
(10.125 0.01 -0.0532006)
(10.175 0.01 -0.0534514)
(10.225 0.01 -0.0536955)
(10.275 0.01 -0.053953)
(10.325 0.01 -0.0541948)
(10.375 0.01 -0.0544387)
(10.425 0.01 -0.0547044)
(10.475 0.01 -0.0549487)
(10.525 0.01 -0.0551857)
(10.575 0.01 -0.055447)
(10.625 0.01 -0.0556955)
(10.675 0.01 -0.0559381)
(10.725 0.01 -0.056199)
(10.775 0.01 -0.056443)
(10.825 0.01 -0.0566827)
(10.875 0.01 -0.0569455)
(10.925 0.01 -0.0571938)
(10.975 0.01 -0.0574358)
(11.025 0.01 -0.0576983)
(11.075 0.01 -0.0579451)
(11.125 0.01 -0.0581851)
(11.175 0.01 -0.0584465)
(11.225 0.01 -0.058693)
(11.275 0.01 -0.0589326)
(11.325 0.01 -0.059194)
(11.375 0.01 -0.0594409)
(11.425 0.01 -0.0596804)
(11.475 0.01 -0.0599417)
(11.525 0.01 -0.0601889)
(11.575 0.01 -0.0604283)
(11.625 0.01 -0.0606895)
(11.675 0.01 -0.0609369)
(11.725 0.01 -0.0611761)
(11.775 0.01 -0.0614373)
(11.825 0.01 -0.061685)
(11.875 0.01 -0.061924)
(11.925 0.01 -0.0621851)
(11.975 0.01 -0.0624331)
(12.025 0.01 -0.0626719)
(12.075 0.01 -0.0629329)
(12.125 0.01 -0.0631812)
(12.175 0.01 -0.0634199)
(12.225 0.01 -0.0636808)
(12.275 0.01 -0.0639293)
(12.325 0.01 -0.064168)
(12.375 0.01 -0.0644287)
(12.425 0.01 -0.0646776)
(12.475 0.01 -0.0649161)
(12.525 0.01 -0.0651767)
(12.575 0.01 -0.065426)
(12.625 0.01 -0.0656641)
(12.675 0.01 -0.0659249)
(12.725 0.01 -0.0661743)
(12.775 0.01 -0.0664125)
(12.825 0.01 -0.0666731)
(12.875 0.01 -0.0669226)
(12.925 0.01 -0.0671613)
(12.975 0.01 -0.0674209)
(13.025 0.01 -0.0676719)
(13.075 0.01 -0.0679092)
(13.125 0.01 -0.0681689)
(13.175 0.01 -0.068421)
(13.225 0.01 -0.068658)
(13.275 0.01 -0.0689175)
(13.325 0.01 -0.0691695)
(13.375 0.01 -0.06941)
(13.425 0.01 -0.069661)
(13.475 0.01 -0.0699179)
(13.525 0.01 -0.0701645)
(13.575 0.01 -0.0704104)
(13.625 0.01 -0.0706616)
(13.675 0.01 -0.0709117)
(13.725 0.01 -0.0711653)
(13.775 0.01 -0.0714126)
(13.825 0.01 -0.0716574)
(13.875 0.01 -0.071907)
(13.925 0.01 -0.0721662)
(13.975 0.01 -0.0724162)
(14.025 0.01 -0.0726565)
(14.075 0.01 -0.0729032)
(14.125 0.01 -0.0731625)
(14.175 0.01 -0.073415)
(14.225 0.01 -0.0736594)
(14.275 0.01 -0.0739065)
(14.325 0.01 -0.07416)
(14.375 0.01 -0.0744135)
(14.425 0.01 -0.0746651)
(14.475 0.01 -0.0749148)
(14.525 0.01 -0.0751649)
(14.575 0.01 -0.0754167)
(14.625 0.01 -0.075659)
(14.675 0.01 -0.0759302)
(14.725 0.01 -0.0760479)
(14.775 0.01 -0.0753011)
(14.825 0.01 -0.0740015)
(14.875 0.01 -0.0735421)
(14.925 0.01 -0.0737916)
(14.975 0.01 -0.0740417)
(0.025 0.01 0.002375)
(0.075 0.01 0.002125)
(0.125 0.01 0.001875)
(0.175 0.01 0.001625)
(0.225 0.01 0.001375)
(0.275 0.01 0.001125)
(0.325 0.01 0.000874998)
(0.375 0.01 0.000624998)
(0.425 0.01 0.000374999)
(0.475 0.01 0.000124999)
(0.525 0.01 -0.000124999)
(0.575 0.01 -0.000374998)
(0.625 0.01 -0.000624998)
(0.675 0.01 -0.000874998)
(0.725 0.01 -0.001125)
(0.775 0.01 -0.001375)
(0.825 0.01 -0.001625)
(0.875 0.01 -0.001875)
(0.925 0.01 -0.002125)
(0.975 0.01 -0.002375)
(1.025 0.01 -0.002625)
(1.075 0.01 -0.002875)
(1.125 0.01 -0.003125)
(1.175 0.01 -0.003375)
(1.225 0.01 -0.003625)
(1.275 0.01 -0.003875)
(1.325 0.01 -0.004125)
(1.375 0.01 -0.004375)
(1.425 0.01 -0.004625)
(1.475 0.01 -0.004875)
(1.525 0.01 -0.005125)
(1.575 0.01 -0.005375)
(1.625 0.01 -0.005625)
(1.675 0.01 -0.005875)
(1.725 0.01 -0.006125)
(1.775 0.01 -0.006375)
(1.825 0.01 -0.006625)
(1.875 0.01 -0.006875)
(1.925 0.01 -0.007125)
(1.975 0.01 -0.007375)
(2.025 0.01 -0.007625)
(2.075 0.01 -0.007875)
(2.125 0.01 -0.008125)
(2.175 0.01 -0.008375)
(2.225 0.01 -0.008625)
(2.275 0.01 -0.008875)
(2.325 0.01 -0.00912499)
(2.375 0.01 -0.00937499)
(2.425 0.01 -0.00962498)
(2.475 0.01 -0.00987498)
(2.525 0.01 -0.010125)
(2.575 0.01 -0.010375)
(2.625 0.01 -0.010625)
(2.675 0.01 -0.010875)
(2.725 0.01 -0.011125)
(2.775 0.01 -0.011375)
(2.825 0.01 -0.011625)
(2.875 0.01 -0.0118749)
(2.92499 0.01 -0.0121259)
(2.97501 0.01 -0.0128603)
(3.02501 0.01 -0.0142512)
(3.075 0.01 -0.0154508)
(3.125 0.01 -0.0161485)
(3.175 0.01 -0.0166197)
(3.225 0.01 -0.0169764)
(3.275 0.01 -0.0172781)
(3.325 0.01 -0.0175551)
(3.375 0.01 -0.0178177)
(3.425 0.01 -0.0180805)
(3.475 0.01 -0.0183352)
(3.525 0.01 -0.018585)
(3.575 0.01 -0.0188617)
(3.625 0.01 -0.0191218)
(3.675 0.01 -0.0193346)
(3.725 0.01 -0.0195622)
(3.775 0.01 -0.0198707)
(3.825 0.01 -0.0201732)
(3.875 0.01 -0.0203383)
(3.925 0.01 -0.0205273)
(3.975 0.01 -0.0208364)
(4.025 0.01 -0.0211217)
(4.075 0.01 -0.0214482)
(4.125 0.01 -0.0217798)
(4.175 0.01 -0.0219931)
(4.225 0.01 -0.0221767)
(4.275 0.01 -0.0223634)
(4.325 0.01 -0.0225306)
(4.375 0.01 -0.0228235)
(4.425 0.01 -0.0231433)
(4.475 0.01 -0.0232495)
(4.525 0.01 -0.0234401)
(4.57501 0.01 -0.0239266)
(4.62499 0.01 -0.024176)
(4.675 0.01 -0.0241161)
(4.72501 0.01 -0.0244571)
(4.775 0.01 -0.025054)
(4.82499 0.01 -0.0251252)
(4.875 0.01 -0.0250076)
(4.92501 0.01 -0.0254488)
(4.975 0.01 -0.0260374)
(5.02499 0.01 -0.0261277)
(5.075 0.01 -0.0260652)
(5.125 0.01 -0.0263989)
(5.175 0.01 -0.026932)
(5.225 0.01 -0.0272123)
(5.275 0.01 -0.0272571)
(5.325 0.01 -0.027405)
(5.375 0.01 -0.0277661)
(5.425 0.01 -0.0281433)
(5.475 0.01 -0.0283736)
(5.525 0.01 -0.0285177)
(5.575 0.01 -0.0286974)
(5.625 0.01 -0.028938)
(5.675 0.01 -0.0292127)
(5.725 0.01 -0.0295039)
(5.775 0.01 -0.0297953)
(5.825 0.01 -0.0300706)
(5.875 0.01 -0.0303248)
(5.925 0.01 -0.0305694)
(5.975 0.01 -0.0308184)
(6.025 0.01 -0.0310713)
(6.075 0.01 -0.0313192)
(6.125 0.01 -0.031563)
(6.175 0.01 -0.0318095)
(6.225 0.01 -0.0320601)
(6.275 0.01 -0.0323114)
(6.325 0.01 -0.0325615)
(6.375 0.01 -0.0328107)
(6.425 0.01 -0.0330595)
(6.475 0.01 -0.0333082)
(6.525 0.01 -0.0335571)
(6.575 0.01 -0.0338062)
(6.625 0.01 -0.0340555)
(6.675 0.01 -0.034305)
(6.725 0.01 -0.0345547)
(6.775 0.01 -0.0348044)
(6.825 0.01 -0.0350543)
(6.875 0.01 -0.0353042)
(6.925 0.01 -0.0355541)
(6.975 0.01 -0.035804)
(7.025 0.01 -0.0360539)
(7.075 0.01 -0.0363038)
(7.125 0.01 -0.0365536)
(7.175 0.01 -0.0368035)
(7.225 0.01 -0.0370532)
(7.275 0.01 -0.0373029)
(7.325 0.01 -0.0375528)
(7.375 0.01 -0.0378026)
(7.425 0.01 -0.0380524)
(7.475 0.01 -0.0383023)
(7.525 0.01 -0.0385517)
(7.575 0.01 -0.0388013)
(7.625 0.01 -0.0390516)
(7.675 0.01 -0.0393013)
(7.725 0.01 -0.0395504)
(7.775 0.01 -0.0398)
(7.825 0.01 -0.0400504)
(7.875 0.01 -0.0403005)
(7.925 0.01 -0.0405498)
(7.975 0.01 -0.0407988)
(8.025 0.01 -0.0410489)
(8.075 0.01 -0.0412993)
(8.125 0.01 -0.0415485)
(8.175 0.01 -0.0417978)
(8.225 0.01 -0.0420478)
(8.275 0.01 -0.0422978)
(8.325 0.01 -0.0425472)
(8.375 0.01 -0.0427969)
(8.425 0.01 -0.0430468)
(8.475 0.01 -0.0432965)
(8.525 0.01 -0.0435456)
(8.575 0.01 -0.0437951)
(8.625 0.01 -0.0440454)
(8.675 0.01 -0.0442947)
(8.725 0.01 -0.0445438)
(8.775 0.01 -0.0447942)
(8.825 0.01 -0.0450443)
(8.875 0.01 -0.0452927)
(8.925 0.01 -0.0455427)
(8.975 0.01 -0.0457927)
(9.025 0.01 -0.0460411)
(9.075 0.01 -0.0462921)
(9.125 0.01 -0.0465412)
(9.175 0.01 -0.04679)
(9.225 0.01 -0.0470416)
(9.275 0.01 -0.0472879)
(9.325 0.01 -0.0475387)
(9.375 0.01 -0.0477932)
(9.425 0.01 -0.0480351)
(9.475 0.01 -0.0482851)
(9.525 0.01 -0.0485444)
(9.575 0.01 -0.048784)
(9.625 0.01 -0.0490313)
(9.675 0.01 -0.0492946)
(9.725 0.01 -0.0495331)
(9.775 0.01 -0.0497767)
(9.825 0.01 -0.0500445)
(9.875 0.01 -0.0502849)
(9.925 0.01 -0.0505218)
(9.975 0.01 -0.0507897)
(10.025 0.01 -0.0510382)
(10.075 0.01 -0.0512732)
(10.125 0.01 -0.0515321)
(10.175 0.01 -0.0517828)
(10.225 0.01 -0.0520271)
(10.275 0.01 -0.0522844)
(10.325 0.01 -0.0525263)
(10.375 0.01 -0.0527703)
(10.425 0.01 -0.0530358)
(10.475 0.01 -0.0532801)
(10.525 0.01 -0.0535173)
(10.575 0.01 -0.0537784)
(10.625 0.01 -0.054027)
(10.675 0.01 -0.0542696)
(10.725 0.01 -0.0545304)
(10.775 0.01 -0.0547745)
(10.825 0.01 -0.0550142)
(10.875 0.01 -0.0552769)
(10.925 0.01 -0.0555252)
(10.975 0.01 -0.0557673)
(11.025 0.01 -0.0560298)
(11.075 0.01 -0.0562765)
(11.125 0.01 -0.0565166)
(11.175 0.01 -0.0567779)
(11.225 0.01 -0.0570245)
(11.275 0.01 -0.0572642)
(11.325 0.01 -0.0575254)
(11.375 0.01 -0.0577724)
(11.425 0.01 -0.058012)
(11.475 0.01 -0.0582732)
(11.525 0.01 -0.0585203)
(11.575 0.01 -0.0587598)
(11.625 0.01 -0.059021)
(11.675 0.01 -0.0592684)
(11.725 0.01 -0.0595076)
(11.775 0.01 -0.0597688)
(11.825 0.01 -0.0600165)
(11.875 0.01 -0.0602555)
(11.925 0.01 -0.0605165)
(11.975 0.01 -0.0607646)
(12.025 0.01 -0.0610035)
(12.075 0.01 -0.0612643)
(12.125 0.01 -0.0615126)
(12.175 0.01 -0.0617515)
(12.225 0.01 -0.0620123)
(12.275 0.01 -0.0622608)
(12.325 0.01 -0.0624995)
(12.375 0.01 -0.0627602)
(12.425 0.01 -0.0630091)
(12.475 0.01 -0.0632476)
(12.525 0.01 -0.0635082)
(12.575 0.01 -0.0637574)
(12.625 0.01 -0.0639957)
(12.675 0.01 -0.0642563)
(12.725 0.01 -0.0645058)
(12.775 0.01 -0.064744)
(12.825 0.01 -0.0650046)
(12.875 0.01 -0.065254)
(12.925 0.01 -0.0654928)
(12.975 0.01 -0.0657524)
(13.025 0.01 -0.0660033)
(13.075 0.01 -0.0662407)
(13.125 0.01 -0.0665004)
(13.175 0.01 -0.0667525)
(13.225 0.01 -0.0669896)
(13.275 0.01 -0.067249)
(13.325 0.01 -0.067501)
(13.375 0.01 -0.0677415)
(13.425 0.01 -0.0679925)
(13.475 0.01 -0.0682494)
(13.525 0.01 -0.068496)
(13.575 0.01 -0.0687419)
(13.625 0.01 -0.068993)
(13.675 0.01 -0.0692432)
(13.725 0.01 -0.0694967)
(13.775 0.01 -0.0697441)
(13.825 0.01 -0.0699889)
(13.875 0.01 -0.0702385)
(13.925 0.01 -0.0704976)
(13.975 0.01 -0.0707477)
(14.025 0.01 -0.070988)
(14.075 0.01 -0.0712347)
(14.125 0.01 -0.071494)
(14.175 0.01 -0.0717464)
(14.225 0.01 -0.0719909)
(14.275 0.01 -0.072238)
(14.325 0.01 -0.0724915)
(14.375 0.01 -0.072745)
(14.425 0.01 -0.0729966)
(14.475 0.01 -0.0732463)
(14.525 0.01 -0.0734964)
(14.575 0.01 -0.0737482)
(14.625 0.01 -0.0739906)
(14.675 0.01 -0.0742615)
(14.725 0.01 -0.0743777)
(14.775 0.01 -0.0736319)
(14.825 0.01 -0.0723357)
(14.875 0.01 -0.0718766)
(14.925 0.01 -0.0721249)
(14.975 0.01 -0.072375)
(0.025 0.01 0.00404167)
(0.075 0.01 0.00379166)
(0.125 0.01 0.00354166)
(0.175 0.01 0.00329167)
(0.225 0.01 0.00304167)
(0.275 0.01 0.00279167)
(0.325 0.01 0.00254167)
(0.375 0.01 0.00229167)
(0.425 0.01 0.00204166)
(0.475 0.01 0.00179167)
(0.525 0.01 0.00154167)
(0.575 0.01 0.00129167)
(0.625 0.01 0.00104167)
(0.675 0.01 0.000791667)
(0.725 0.01 0.000541667)
(0.775 0.01 0.000291666)
(0.825 0.01 4.16665e-05)
(0.875 0.01 -0.000208334)
(0.925 0.01 -0.000458335)
(0.975 0.01 -0.000708335)
(1.025 0.01 -0.000958335)
(1.075 0.01 -0.00120833)
(1.125 0.01 -0.00145833)
(1.175 0.01 -0.00170834)
(1.225 0.01 -0.00195833)
(1.275 0.01 -0.00220834)
(1.325 0.01 -0.00245834)
(1.375 0.01 -0.00270834)
(1.425 0.01 -0.00295833)
(1.475 0.01 -0.00320834)
(1.525 0.01 -0.00345834)
(1.575 0.01 -0.00370834)
(1.625 0.01 -0.00395833)
(1.675 0.01 -0.00420834)
(1.725 0.01 -0.00445833)
(1.775 0.01 -0.00470833)
(1.825 0.01 -0.00495834)
(1.875 0.01 -0.00520833)
(1.925 0.01 -0.00545833)
(1.975 0.01 -0.00570833)
(2.025 0.01 -0.00595834)
(2.075 0.01 -0.00620833)
(2.125 0.01 -0.00645834)
(2.175 0.01 -0.00670833)
(2.225 0.01 -0.00695834)
(2.275 0.01 -0.00720834)
(2.325 0.01 -0.00745833)
(2.375 0.01 -0.00770834)
(2.425 0.01 -0.00795833)
(2.475 0.01 -0.00820834)
(2.525 0.01 -0.00845834)
(2.575 0.01 -0.00870833)
(2.625 0.01 -0.00895834)
(2.675 0.01 -0.00920834)
(2.725 0.01 -0.00945835)
(2.775 0.01 -0.00970835)
(2.825 0.01 -0.00995836)
(2.875 0.01 -0.0102082)
(2.92499 0.01 -0.0104604)
(2.97501 0.01 -0.0111942)
(3.02502 0.01 -0.0125803)
(3.075 0.01 -0.0137775)
(3.125 0.01 -0.0144755)
(3.175 0.01 -0.0149466)
(3.225 0.01 -0.0153033)
(3.275 0.01 -0.015605)
(3.325 0.01 -0.015882)
(3.375 0.01 -0.0161446)
(3.425 0.01 -0.0164073)
(3.475 0.01 -0.016662)
(3.525 0.01 -0.0169119)
(3.575 0.01 -0.0171885)
(3.625 0.01 -0.0174485)
(3.675 0.01 -0.0176615)
(3.725 0.01 -0.0178894)
(3.775 0.01 -0.0181975)
(3.825 0.01 -0.0184995)
(3.875 0.01 -0.0186652)
(3.925 0.01 -0.0188547)
(3.975 0.01 -0.0191631)
(4.025 0.01 -0.0194486)
(4.075 0.01 -0.0197749)
(4.125 0.01 -0.020106)
(4.175 0.01 -0.0203197)
(4.225 0.01 -0.0205035)
(4.275 0.01 -0.0206901)
(4.325 0.01 -0.0208579)
(4.375 0.01 -0.0211505)
(4.425 0.01 -0.0214694)
(4.47499 0.01 -0.0215768)
(4.525 0.01 -0.0217681)
(4.57501 0.01 -0.0222526)
(4.62499 0.01 -0.0225018)
(4.67499 0.01 -0.0224446)
(4.72501 0.01 -0.0227849)
(4.77501 0.01 -0.0233789)
(4.82499 0.01 -0.0234515)
(4.875 0.01 -0.0233367)
(4.92501 0.01 -0.0237763)
(4.975 0.01 -0.0243624)
(5.02499 0.01 -0.0244541)
(5.075 0.01 -0.0243936)
(5.12501 0.01 -0.0247266)
(5.175 0.01 -0.0252579)
(5.225 0.01 -0.0255383)
(5.275 0.01 -0.0255845)
(5.325 0.01 -0.0257328)
(5.375 0.01 -0.0260931)
(5.425 0.01 -0.0264697)
(5.475 0.01 -0.0267001)
(5.525 0.01 -0.0268448)
(5.575 0.01 -0.0270247)
(5.625 0.01 -0.0272652)
(5.675 0.01 -0.0275398)
(5.725 0.01 -0.0278309)
(5.775 0.01 -0.0281222)
(5.825 0.01 -0.0283974)
(5.875 0.01 -0.0286517)
(5.925 0.01 -0.0288964)
(5.975 0.01 -0.0291454)
(6.025 0.01 -0.0293982)
(6.075 0.01 -0.0296461)
(6.125 0.01 -0.0298899)
(6.175 0.01 -0.0301364)
(6.225 0.01 -0.030387)
(6.275 0.01 -0.0306383)
(6.325 0.01 -0.0308884)
(6.375 0.01 -0.0311376)
(6.425 0.01 -0.0313864)
(6.475 0.01 -0.0316351)
(6.525 0.01 -0.0318841)
(6.575 0.01 -0.0321332)
(6.625 0.01 -0.0323824)
(6.675 0.01 -0.0326319)
(6.725 0.01 -0.0328816)
(6.775 0.01 -0.0331313)
(6.825 0.01 -0.0333812)
(6.875 0.01 -0.0336311)
(6.925 0.01 -0.033881)
(6.975 0.01 -0.0341309)
(7.025 0.01 -0.0343809)
(7.075 0.01 -0.0346308)
(7.125 0.01 -0.0348806)
(7.175 0.01 -0.0351304)
(7.225 0.01 -0.0353801)
(7.275 0.01 -0.0356298)
(7.325 0.01 -0.0358797)
(7.375 0.01 -0.0361295)
(7.425 0.01 -0.0363794)
(7.475 0.01 -0.0366292)
(7.525 0.01 -0.0368786)
(7.575 0.01 -0.0371282)
(7.625 0.01 -0.0373785)
(7.675 0.01 -0.0376282)
(7.725 0.01 -0.0378773)
(7.775 0.01 -0.038127)
(7.825 0.01 -0.0383773)
(7.875 0.01 -0.0386274)
(7.925 0.01 -0.0388767)
(7.975 0.01 -0.0391257)
(8.025 0.01 -0.0393759)
(8.075 0.01 -0.0396262)
(8.125 0.01 -0.0398755)
(8.175 0.01 -0.0401247)
(8.225 0.01 -0.0403748)
(8.275 0.01 -0.0406247)
(8.325 0.01 -0.0408742)
(8.375 0.01 -0.0411238)
(8.425 0.01 -0.0413738)
(8.475 0.01 -0.0416234)
(8.525 0.01 -0.0418725)
(8.575 0.01 -0.0421221)
(8.625 0.01 -0.0423723)
(8.675 0.01 -0.0426217)
(8.725 0.01 -0.0428707)
(8.775 0.01 -0.0431212)
(8.825 0.01 -0.0433712)
(8.875 0.01 -0.0436196)
(8.925 0.01 -0.0438697)
(8.975 0.01 -0.0441196)
(9.025 0.01 -0.0443681)
(9.075 0.01 -0.0446191)
(9.125 0.01 -0.0448681)
(9.175 0.01 -0.0451169)
(9.225 0.01 -0.0453685)
(9.275 0.01 -0.0456149)
(9.325 0.01 -0.0458657)
(9.375 0.01 -0.0461201)
(9.425 0.01 -0.0463621)
(9.475 0.01 -0.0466121)
(9.525 0.01 -0.0468713)
(9.575 0.01 -0.047111)
(9.625 0.01 -0.0473584)
(9.675 0.01 -0.0476215)
(9.725 0.01 -0.0478601)
(9.775 0.01 -0.0481038)
(9.825 0.01 -0.0483713)
(9.875 0.01 -0.0486118)
(9.925 0.01 -0.0488489)
(9.975 0.01 -0.0491166)
(10.025 0.01 -0.0493651)
(10.075 0.01 -0.0496003)
(10.125 0.01 -0.049859)
(10.175 0.01 -0.0501098)
(10.225 0.01 -0.0503541)
(10.275 0.01 -0.0506113)
(10.325 0.01 -0.0508533)
(10.375 0.01 -0.0510973)
(10.425 0.01 -0.0513627)
(10.475 0.01 -0.0516071)
(10.525 0.01 -0.0518443)
(10.575 0.01 -0.0521053)
(10.625 0.01 -0.0523539)
(10.675 0.01 -0.0525966)
(10.725 0.01 -0.0528573)
(10.775 0.01 -0.0531014)
(10.825 0.01 -0.0533413)
(10.875 0.01 -0.0536038)
(10.925 0.01 -0.0538522)
(10.975 0.01 -0.0540943)
(11.025 0.01 -0.0543567)
(11.075 0.01 -0.0546035)
(11.125 0.01 -0.0548436)
(11.175 0.01 -0.0551048)
(11.225 0.01 -0.0553514)
(11.275 0.01 -0.0555912)
(11.325 0.01 -0.0558524)
(11.375 0.01 -0.0560993)
(11.425 0.01 -0.056339)
(11.475 0.01 -0.0566001)
(11.525 0.01 -0.0568473)
(11.575 0.01 -0.0570869)
(11.625 0.01 -0.0573479)
(11.675 0.01 -0.0575953)
(11.725 0.01 -0.0578347)
(11.775 0.01 -0.0580957)
(11.825 0.01 -0.0583434)
(11.875 0.01 -0.0585826)
(11.925 0.01 -0.0588435)
(11.975 0.01 -0.0590915)
(12.025 0.01 -0.0593306)
(12.075 0.01 -0.0595913)
(12.125 0.01 -0.0598396)
(12.175 0.01 -0.0600786)
(12.225 0.01 -0.0603392)
(12.275 0.01 -0.0605878)
(12.325 0.01 -0.0608266)
(12.375 0.01 -0.0610871)
(12.425 0.01 -0.061336)
(12.475 0.01 -0.0615747)
(12.525 0.01 -0.0618351)
(12.575 0.01 -0.0620844)
(12.625 0.01 -0.0623227)
(12.675 0.01 -0.0625833)
(12.725 0.01 -0.0628327)
(12.775 0.01 -0.0630711)
(12.825 0.01 -0.0633316)
(12.875 0.01 -0.063581)
(12.925 0.01 -0.0638199)
(12.975 0.01 -0.0640794)
(13.025 0.01 -0.0643303)
(13.075 0.01 -0.0645678)
(13.125 0.01 -0.0648274)
(13.175 0.01 -0.0650794)
(13.225 0.01 -0.0653167)
(13.275 0.01 -0.065576)
(13.325 0.01 -0.0658279)
(13.375 0.01 -0.0660685)
(13.425 0.01 -0.0663196)
(13.475 0.01 -0.0665764)
(13.525 0.01 -0.066823)
(13.575 0.01 -0.0670689)
(13.625 0.01 -0.0673201)
(13.675 0.01 -0.0675702)
(13.725 0.01 -0.0678237)
(13.775 0.01 -0.0680711)
(13.825 0.01 -0.068316)
(13.875 0.01 -0.0685656)
(13.925 0.01 -0.0688246)
(13.975 0.01 -0.0690747)
(14.025 0.01 -0.069315)
(14.075 0.01 -0.0695618)
(14.125 0.01 -0.069821)
(14.175 0.01 -0.0700734)
(14.225 0.01 -0.0703179)
(14.275 0.01 -0.0705651)
(14.325 0.01 -0.0708185)
(14.375 0.01 -0.071072)
(14.425 0.01 -0.0713236)
(14.475 0.01 -0.0715733)
(14.525 0.01 -0.0718235)
(14.575 0.01 -0.0720752)
(14.625 0.01 -0.0723177)
(14.675 0.01 -0.0725882)
(14.725 0.01 -0.0727024)
(14.775 0.01 -0.0719591)
(14.825 0.01 -0.0706698)
(14.875 0.01 -0.0702117)
(14.925 0.01 -0.0704581)
(14.975 0.01 -0.0707084)
(0.025 0.01 0.00570834)
(0.075 0.01 0.00545833)
(0.125 0.01 0.00520834)
(0.175 0.01 0.00495833)
(0.225 0.01 0.00470834)
(0.275 0.01 0.00445833)
(0.325 0.01 0.00420834)
(0.375 0.01 0.00395834)
(0.425 0.01 0.00370833)
(0.475 0.01 0.00345833)
(0.525 0.01 0.00320833)
(0.575 0.01 0.00295833)
(0.625 0.01 0.00270834)
(0.675 0.01 0.00245833)
(0.725 0.01 0.00220834)
(0.775 0.01 0.00195833)
(0.825 0.01 0.00170833)
(0.875 0.01 0.00145833)
(0.925 0.01 0.00120833)
(0.975 0.01 0.000958335)
(1.025 0.01 0.000708335)
(1.075 0.01 0.000458335)
(1.125 0.01 0.000208334)
(1.175 0.01 -4.16665e-05)
(1.225 0.01 -0.000291666)
(1.275 0.01 -0.000541667)
(1.325 0.01 -0.000791667)
(1.375 0.01 -0.00104167)
(1.425 0.01 -0.00129167)
(1.475 0.01 -0.00154167)
(1.525 0.01 -0.00179167)
(1.575 0.01 -0.00204167)
(1.625 0.01 -0.00229167)
(1.675 0.01 -0.00254167)
(1.725 0.01 -0.00279166)
(1.775 0.01 -0.00304166)
(1.825 0.01 -0.00329167)
(1.875 0.01 -0.00354167)
(1.925 0.01 -0.00379166)
(1.975 0.01 -0.00404166)
(2.025 0.01 -0.00429166)
(2.075 0.01 -0.00454167)
(2.125 0.01 -0.00479167)
(2.175 0.01 -0.00504166)
(2.225 0.01 -0.00529167)
(2.275 0.01 -0.00554166)
(2.325 0.01 -0.00579166)
(2.375 0.01 -0.00604167)
(2.425 0.01 -0.00629166)
(2.475 0.01 -0.00654166)
(2.525 0.01 -0.00679167)
(2.575 0.01 -0.00704166)
(2.625 0.01 -0.00729167)
(2.675 0.01 -0.00754166)
(2.725 0.01 -0.00779167)
(2.775 0.01 -0.00804166)
(2.825 0.01 -0.00829169)
(2.875 0.01 -0.00854137)
(2.92499 0.01 -0.00879519)
(2.97502 0.01 -0.00952732)
(3.02503 0.01 -0.0109055)
(3.075 0.01 -0.0120979)
(3.125 0.01 -0.0127954)
(3.175 0.01 -0.0132661)
(3.225 0.01 -0.0136227)
(3.275 0.01 -0.0139243)
(3.325 0.01 -0.0142012)
(3.375 0.01 -0.0144638)
(3.425 0.01 -0.0147265)
(3.475 0.01 -0.0149812)
(3.525 0.01 -0.0152312)
(3.575 0.01 -0.0155075)
(3.625 0.01 -0.0157673)
(3.675 0.01 -0.0159807)
(3.725 0.01 -0.0162089)
(3.775 0.01 -0.0165165)
(3.825 0.01 -0.0168179)
(3.87499 0.01 -0.0169845)
(3.925 0.01 -0.0171745)
(3.975 0.01 -0.0174821)
(4.025 0.01 -0.0177678)
(4.075 0.01 -0.0180937)
(4.125 0.01 -0.018424)
(4.175 0.01 -0.0186383)
(4.225 0.01 -0.0188224)
(4.275 0.01 -0.0190091)
(4.325 0.01 -0.0191778)
(4.37501 0.01 -0.0194698)
(4.425 0.01 -0.0197875)
(4.47499 0.01 -0.0198965)
(4.525 0.01 -0.0200889)
(4.57501 0.01 -0.0205705)
(4.62499 0.01 -0.0208194)
(4.67499 0.01 -0.020766)
(4.72502 0.01 -0.0211055)
(4.77501 0.01 -0.0216952)
(4.82498 0.01 -0.0217698)
(4.875 0.01 -0.0216591)
(4.92502 0.01 -0.0220965)
(4.975 0.01 -0.022679)
(5.02499 0.01 -0.0227726)
(5.075 0.01 -0.0227152)
(5.12501 0.01 -0.0230471)
(5.17501 0.01 -0.0235757)
(5.22499 0.01 -0.0238561)
(5.27499 0.01 -0.0239043)
(5.325 0.01 -0.0240533)
(5.37501 0.01 -0.0244125)
(5.425 0.01 -0.0247881)
(5.475 0.01 -0.0250189)
(5.525 0.01 -0.0251644)
(5.575 0.01 -0.0253445)
(5.625 0.01 -0.025585)
(5.675 0.01 -0.0258594)
(5.725 0.01 -0.0261503)
(5.775 0.01 -0.0264414)
(5.825 0.01 -0.0267165)
(5.875 0.01 -0.0269709)
(5.925 0.01 -0.0272156)
(5.975 0.01 -0.0274646)
(6.025 0.01 -0.0277173)
(6.075 0.01 -0.0279653)
(6.125 0.01 -0.0282091)
(6.175 0.01 -0.0284557)
(6.225 0.01 -0.0287062)
(6.275 0.01 -0.0289575)
(6.325 0.01 -0.0292076)
(6.375 0.01 -0.0294568)
(6.425 0.01 -0.0297056)
(6.475 0.01 -0.0299544)
(6.525 0.01 -0.0302033)
(6.575 0.01 -0.0304524)
(6.625 0.01 -0.0307016)
(6.675 0.01 -0.0309512)
(6.725 0.01 -0.0312009)
(6.775 0.01 -0.0314506)
(6.825 0.01 -0.0317005)
(6.875 0.01 -0.0319504)
(6.925 0.01 -0.0322003)
(6.975 0.01 -0.0324502)
(7.025 0.01 -0.0327001)
(7.075 0.01 -0.03295)
(7.125 0.01 -0.0331998)
(7.175 0.01 -0.0334496)
(7.225 0.01 -0.0336994)
(7.275 0.01 -0.0339491)
(7.325 0.01 -0.034199)
(7.375 0.01 -0.0344488)
(7.425 0.01 -0.0346986)
(7.475 0.01 -0.0349485)
(7.525 0.01 -0.0351979)
(7.575 0.01 -0.0354475)
(7.625 0.01 -0.0356978)
(7.675 0.01 -0.0359475)
(7.725 0.01 -0.0361966)
(7.775 0.01 -0.0364463)
(7.825 0.01 -0.0366966)
(7.875 0.01 -0.0369467)
(7.925 0.01 -0.037196)
(7.975 0.01 -0.037445)
(8.025 0.01 -0.0376951)
(8.075 0.01 -0.0379455)
(8.125 0.01 -0.0381948)
(8.175 0.01 -0.038444)
(8.225 0.01 -0.038694)
(8.275 0.01 -0.038944)
(8.325 0.01 -0.0391935)
(8.375 0.01 -0.0394431)
(8.425 0.01 -0.039693)
(8.475 0.01 -0.0399427)
(8.525 0.01 -0.0401918)
(8.575 0.01 -0.0404414)
(8.625 0.01 -0.0406916)
(8.675 0.01 -0.040941)
(8.725 0.01 -0.04119)
(8.775 0.01 -0.0414404)
(8.825 0.01 -0.0416905)
(8.875 0.01 -0.0419389)
(8.925 0.01 -0.042189)
(8.975 0.01 -0.0424389)
(9.025 0.01 -0.0426874)
(9.075 0.01 -0.0429384)
(9.125 0.01 -0.0431874)
(9.175 0.01 -0.0434362)
(9.225 0.01 -0.0436878)
(9.275 0.01 -0.0439342)
(9.325 0.01 -0.044185)
(9.375 0.01 -0.0444394)
(9.425 0.01 -0.0446815)
(9.475 0.01 -0.0449314)
(9.525 0.01 -0.0451905)
(9.575 0.01 -0.0454304)
(9.625 0.01 -0.0456778)
(9.675 0.01 -0.0459407)
(9.725 0.01 -0.0461795)
(9.775 0.01 -0.0464232)
(9.825 0.01 -0.0466905)
(9.875 0.01 -0.0469311)
(9.925 0.01 -0.0471684)
(9.975 0.01 -0.0474358)
(10.025 0.01 -0.0476843)
(10.075 0.01 -0.0479198)
(10.125 0.01 -0.0481783)
(10.175 0.01 -0.0484291)
(10.225 0.01 -0.0486735)
(10.275 0.01 -0.0489306)
(10.325 0.01 -0.0491727)
(10.375 0.01 -0.0494168)
(10.425 0.01 -0.0496819)
(10.475 0.01 -0.0499264)
(10.525 0.01 -0.0501638)
(10.575 0.01 -0.0504246)
(10.625 0.01 -0.0506732)
(10.675 0.01 -0.0509161)
(10.725 0.01 -0.0511766)
(10.775 0.01 -0.0514208)
(10.825 0.01 -0.0516608)
(10.875 0.01 -0.0519231)
(10.925 0.01 -0.0521715)
(10.975 0.01 -0.0524138)
(11.025 0.01 -0.052676)
(11.075 0.01 -0.0529228)
(11.125 0.01 -0.0531631)
(11.175 0.01 -0.0534241)
(11.225 0.01 -0.0536708)
(11.275 0.01 -0.0539107)
(11.325 0.01 -0.0541717)
(11.375 0.01 -0.0544187)
(11.425 0.01 -0.0546585)
(11.475 0.01 -0.0549194)
(11.525 0.01 -0.0551666)
(11.575 0.01 -0.0554064)
(11.625 0.01 -0.0556672)
(11.675 0.01 -0.0559147)
(11.725 0.01 -0.0561542)
(11.775 0.01 -0.056415)
(11.825 0.01 -0.0566628)
(11.875 0.01 -0.0569021)
(11.925 0.01 -0.0571628)
(11.975 0.01 -0.0574109)
(12.025 0.01 -0.0576501)
(12.075 0.01 -0.0579106)
(12.125 0.01 -0.058159)
(12.175 0.01 -0.0583981)
(12.225 0.01 -0.0586586)
(12.275 0.01 -0.0589071)
(12.325 0.01 -0.0591461)
(12.375 0.01 -0.0594065)
(12.425 0.01 -0.0596554)
(12.475 0.01 -0.0598943)
(12.525 0.01 -0.0601545)
(12.575 0.01 -0.0604038)
(12.625 0.01 -0.0606423)
(12.675 0.01 -0.0609027)
(12.725 0.01 -0.0611521)
(12.775 0.01 -0.0613907)
(12.825 0.01 -0.061651)
(12.875 0.01 -0.0619004)
(12.925 0.01 -0.0621395)
(12.975 0.01 -0.0623988)
(13.025 0.01 -0.0626497)
(13.075 0.01 -0.0628874)
(13.125 0.01 -0.0631468)
(13.175 0.01 -0.0633988)
(13.225 0.01 -0.0636363)
(13.275 0.01 -0.0638954)
(13.325 0.01 -0.0641474)
(13.375 0.01 -0.0643881)
(13.425 0.01 -0.0646391)
(13.475 0.01 -0.0648958)
(13.525 0.01 -0.0651425)
(13.575 0.01 -0.0653884)
(13.625 0.01 -0.0656395)
(13.675 0.01 -0.0658897)
(13.725 0.01 -0.0661432)
(13.775 0.01 -0.0663906)
(13.825 0.01 -0.0666355)
(13.875 0.01 -0.0668851)
(13.925 0.01 -0.067144)
(13.975 0.01 -0.0673941)
(14.025 0.01 -0.0676346)
(14.075 0.01 -0.0678813)
(14.125 0.01 -0.0681404)
(14.175 0.01 -0.0683929)
(14.225 0.01 -0.0686374)
(14.275 0.01 -0.0688846)
(14.325 0.01 -0.069138)
(14.375 0.01 -0.0693915)
(14.425 0.01 -0.0696431)
(14.475 0.01 -0.0698928)
(14.525 0.01 -0.0701429)
(14.575 0.01 -0.0703946)
(14.625 0.01 -0.0706373)
(14.675 0.01 -0.0709073)