/*--------------------------------*- C++ -*----------------------------------*\
| =========                 |                                                 |
| \\      /  F ield         | foam-extend: Open Source CFD                    |
|  \\    /   O peration     | Version:     3.2                                |
|   \\  /    A nd           | Web:         http://www.foam-extend.org         |
|    \\/     M anipulation  | For copyright notice see file Copyright         |
\*---------------------------------------------------------------------------*/
FoamFile
{
    version     2.0;
    format      ascii;
    class       pointVectorField;
    location    "50";
    object      newMeshPoints;
}
// * * * * * * * * * * * * * * * * * * * * * * * * * * * * * * * * * * * * * //

dimensions      [0 1 0 0 0 0 0];

internalField   nonuniform List<vector> 
11438
(
(0 0 0)
(0.05 0 -0.00025)
(0.1 0 -0.0005)
(0.15 0 -0.00075)
(0.2 0 -0.001)
(0.25 0 -0.00125)
(0.3 0 -0.0015)
(0.35 0 -0.00175)
(0.4 0 -0.002)
(0.45 0 -0.00225)
(0.5 0 -0.0025)
(0.55 0 -0.00275)
(0.6 0 -0.003)
(0.65 0 -0.00325)
(0.7 0 -0.0035)
(0.75 0 -0.00375)
(0.8 0 -0.004)
(0.85 0 -0.00425)
(0.9 0 -0.0045)
(0.95 0 -0.00475)
(1 0 -0.005)
(1.05 0 -0.00525)
(1.1 0 -0.0055)
(1.15 0 -0.00575)
(1.2 0 -0.006)
(1.25 0 -0.00625)
(1.3 0 -0.0065)
(1.35 0 -0.00675)
(1.4 0 -0.007)
(1.45 0 -0.00725)
(1.5 0 -0.0075)
(1.55 0 -0.00775)
(1.6 0 -0.008)
(1.65 0 -0.00825)
(1.7 0 -0.0085)
(1.75 0 -0.00875)
(1.8 0 -0.009)
(1.85 0 -0.00925)
(1.9 0 -0.0095)
(1.95 0 -0.00975)
(2 0 -0.01)
(2.05 0 -0.01025)
(2.1 0 -0.0105)
(2.15 0 -0.01075)
(2.2 0 -0.011)
(2.25 0 -0.01125)
(2.3 0 -0.0115)
(2.35 0 -0.01175)
(2.4 0 -0.012)
(2.45 0 -0.01225)
(2.5 0 -0.0125)
(2.55 0 -0.01275)
(2.6 0 -0.013)
(2.65 0 -0.01325)
(2.7 0 -0.0135)
(2.75 0 -0.01375)
(2.8 0 -0.014)
(2.85 0 -0.01425)
(2.9 0 -0.0145)
(2.95 0 -0.01475)
(3 0 -0.0159689)
(3.05 0 -0.0175378)
(3.1 0 -0.0183706)
(3.15 0 -0.0189313)
(3.2 0 -0.0193127)
(3.25 0 -0.0196445)
(3.3 0 -0.019916)
(3.35 0 -0.0201983)
(3.4 0 -0.0204412)
(3.45 0 -0.0207239)
(3.5 0 -0.0209507)
(3.55 0 -0.0212233)
(3.6 0 -0.0215044)
(3.65 0 -0.0217437)
(3.7 0 -0.0219296)
(3.75 0 -0.0221986)
(3.8 0 -0.022547)
(3.85 0 -0.0228044)
(3.9 0 -0.0228761)
(3.95 0 -0.023182)
(4 0 -0.0234951)
(4.05 0 -0.0237522)
(4.1 0 -0.0241484)
(4.15 0 -0.0244161)
(4.2 0 -0.0245746)
(4.25 0 -0.024783)
(4.3 0 -0.0249481)
(4.35 0 -0.0251166)
(4.4 0 -0.0255343)
(4.45 0 -0.0257576)
(4.5 0 -0.0257451)
(4.55 0 -0.0261376)
(4.6 0 -0.0267211)
(4.65 0 -0.0266368)
(4.7 0 -0.0265973)
(4.75 0 -0.0273195)
(4.8 0 -0.0277957)
(4.85 0 -0.0274599)
(4.9 0 -0.0275565)
(4.95 0 -0.0283445)
(5 0 -0.0287375)
(5.05 0 -0.0285228)
(5.1 0 -0.0286094)
(5.15 0 -0.0291915)
(5.2 0 -0.0296782)
(5.25 0 -0.0297518)
(5.3 0 -0.029766)
(5.35 0 -0.030047)
(5.4 0 -0.0304892)
(5.45 0 -0.0308024)
(5.5 0 -0.0309493)
(5.55 0 -0.0310901)
(5.6 0 -0.0313085)
(5.65 0 -0.0315714)
(5.7 0 -0.031858)
(5.75 0 -0.0321539)
(5.8 0 -0.0324409)
(5.85 0 -0.0327045)
(5.9 0 -0.0329494)
(5.95 0 -0.0331937)
(6 0 -0.0334474)
(6.05 0 -0.0336994)
(6.1 0 -0.0339432)
(6.15 0 -0.0341869)
(6.2 0 -0.0344363)
(6.25 0 -0.0346881)
(6.3 0 -0.0349389)
(6.35 0 -0.0351883)
(6.4 0 -0.0354372)
(6.45 0 -0.0356859)
(6.5 0 -0.0359347)
(6.55 0 -0.0361838)
(6.6 0 -0.0364329)
(6.65 0 -0.0366822)
(6.7 0 -0.0369319)
(6.75 0 -0.0371816)
(6.8 0 -0.0374314)
(6.85 0 -0.0376813)
(6.9 0 -0.0379312)
(6.95 0 -0.0381811)
(7 0 -0.038431)
(7.05 0 -0.038681)
(7.1 0 -0.0389308)
(7.15 0 -0.0391806)
(7.2 0 -0.0394305)
(7.25 0 -0.0396801)
(7.3 0 -0.0399298)
(7.35 0 -0.0401798)
(7.4 0 -0.0404295)
(7.45 0 -0.0406795)
(7.5 0 -0.0409293)
(7.55 0 -0.0411783)
(7.6 0 -0.0414285)
(7.65 0 -0.0416789)
(7.7 0 -0.0419278)
(7.75 0 -0.042177)
(7.8 0 -0.0424272)
(7.85 0 -0.0426777)
(7.9 0 -0.0429275)
(7.95 0 -0.0431762)
(8 0 -0.0434256)
(8.05 0 -0.0436764)
(8.1 0 -0.0439263)
(8.15 0 -0.0441749)
(8.2 0 -0.0444247)
(8.25 0 -0.0446751)
(8.3 0 -0.0449246)
(8.35 0 -0.045174)
(8.4 0 -0.0454238)
(8.45 0 -0.0456739)
(8.5 0 -0.0459232)
(8.55 0 -0.0461721)
(8.6 0 -0.0464223)
(8.65 0 -0.0466726)
(8.7 0 -0.0469211)
(8.75 0 -0.0471706)
(8.8 0 -0.047422)
(8.85 0 -0.0476708)
(8.9 0 -0.0479187)
(8.95 0 -0.0481708)
(9 0 -0.0484187)
(9.05 0 -0.0486677)
(9.1 0 -0.0489207)
(9.15 0 -0.0491657)
(9.2 0 -0.0494183)
(9.25 0 -0.049669)
(9.3 0 -0.0499109)
(9.35 0 -0.0501707)
(9.4 0 -0.05042)
(9.45 0 -0.0506543)
(9.5 0 -0.0509199)
(9.55 0 -0.0511731)
(9.6 0 -0.051399)
(9.65 0 -0.0516677)
(9.7 0 -0.0519259)
(9.75 0 -0.0521445)
(9.8 0 -0.0524129)
(9.85 0 -0.0526803)
(9.9 0 -0.0528936)
(9.95 0 -0.0531539)
(10 0 -0.0534298)
(10.05 0 -0.0536508)
(10.1 0 -0.0538997)
(10.15 0 -0.0541687)
(10.2 0 -0.0544012)
(10.25 0 -0.054657)
(10.3 0 -0.054916)
(10.35 0 -0.0551407)
(10.4 0 -0.0554038)
(10.45 0 -0.055672)
(10.5 0 -0.0558924)
(10.55 0 -0.0561461)
(10.6 0 -0.0564149)
(10.65 0 -0.0566431)
(10.7 0 -0.0569)
(10.75 0 -0.057165)
(10.8 0 -0.0573881)
(10.85 0 -0.0576443)
(10.9 0 -0.0579137)
(10.95 0 -0.0581409)
(11 0 -0.0583977)
(11.05 0 -0.0586661)
(11.1 0 -0.0588912)
(11.15 0 -0.059146)
(11.2 0 -0.0594141)
(11.25 0 -0.059639)
(11.3 0 -0.0598933)
(11.35 0 -0.0601618)
(11.4 0 -0.0603871)
(11.45 0 -0.0606408)
(11.5 0 -0.0609097)
(11.55 0 -0.0611351)
(11.6 0 -0.0613885)
(11.65 0 -0.0616577)
(11.7 0 -0.0618832)
(11.75 0 -0.062136)
(11.8 0 -0.0624057)
(11.85 0 -0.0626314)
(11.9 0 -0.0628836)
(11.95 0 -0.0631537)
(12 0 -0.0633797)
(12.05 0 -0.0636313)
(12.1 0 -0.0639016)
(12.15 0 -0.0641279)
(12.2 0 -0.064379)
(12.25 0 -0.0646496)
(12.3 0 -0.0648761)
(12.35 0 -0.0651269)
(12.4 0 -0.0653977)
(12.45 0 -0.0656246)
(12.5 0 -0.0658746)
(12.55 0 -0.0661459)
(12.6 0 -0.0663731)
(12.65 0 -0.0666221)
(12.7 0 -0.0668947)
(12.75 0 -0.067121)
(12.8 0 -0.067371)
(12.85 0 -0.0676423)
(12.9 0 -0.0678699)
(12.95 0 -0.0681197)
(13 0 -0.0683893)
(13.05 0 -0.0686216)
(13.1 0 -0.0688638)
(13.15 0 -0.0691411)
(13.2 0 -0.069368)
(13.25 0 -0.0696151)
(13.3 0 -0.069887)
(13.35 0 -0.0701191)
(13.4 0 -0.0703679)
(13.45 0 -0.0706212)
(13.5 0 -0.0708817)
(13.55 0 -0.0711144)
(13.6 0 -0.0713734)
(13.65 0 -0.0716168)
(13.7 0 -0.0718736)
(13.75 0 -0.0721241)
(13.8 0 -0.0723683)
(13.85 0 -0.0726136)
(13.9 0 -0.0728674)
(13.95 0 -0.0731319)
(14 0 -0.0733676)
(14.05 0 -0.0736124)
(14.1 0 -0.073861)
(14.15 0 -0.0741311)
(14.2 0 -0.0743659)
(14.25 0 -0.07462)
(14.3 0 -0.0748601)
(14.35 0 -0.0751269)
(14.4 0 -0.0753672)
(14.45 0 -0.07563)
(14.5 0 -0.0758666)
(14.55 0 -0.0761303)
(14.6 0 -0.0763702)
(14.65 0 -0.0766149)
(14.7 0 -0.0769126)
(14.75 0 -0.0768514)
(14.8 0 -0.0754187)
(14.85 0 -0.07425)
(14.9 0 -0.0745)
(14.95 0 -0.07475)
(15 0 -0.075)
(0 0.02 0)
(0.05 0.02 -0.00025)
(0.1 0.02 -0.0005)
(0.15 0.02 -0.00075)
(0.2 0.02 -0.001)
(0.25 0.02 -0.00125)
(0.3 0.02 -0.0015)
(0.35 0.02 -0.00175)
(0.4 0.02 -0.002)
(0.45 0.02 -0.00225)
(0.5 0.02 -0.0025)
(0.55 0.02 -0.00275)
(0.6 0.02 -0.003)
(0.65 0.02 -0.00325)
(0.7 0.02 -0.0035)
(0.75 0.02 -0.00375)
(0.8 0.02 -0.004)
(0.85 0.02 -0.00425)
(0.9 0.02 -0.0045)
(0.95 0.02 -0.00475)
(1 0.02 -0.005)
(1.05 0.02 -0.00525)
(1.1 0.02 -0.0055)
(1.15 0.02 -0.00575)
(1.2 0.02 -0.006)
(1.25 0.02 -0.00625)
(1.3 0.02 -0.0065)
(1.35 0.02 -0.00675)
(1.4 0.02 -0.007)
(1.45 0.02 -0.00725)
(1.5 0.02 -0.0075)
(1.55 0.02 -0.00775)
(1.6 0.02 -0.008)
(1.65 0.02 -0.00825)
(1.7 0.02 -0.0085)
(1.75 0.02 -0.00875)
(1.8 0.02 -0.009)
(1.85 0.02 -0.00925)
(1.9 0.02 -0.0095)
(1.95 0.02 -0.00975)
(2 0.02 -0.01)
(2.05 0.02 -0.01025)
(2.1 0.02 -0.0105)
(2.15 0.02 -0.01075)
(2.2 0.02 -0.011)
(2.25 0.02 -0.01125)
(2.3 0.02 -0.0115)
(2.35 0.02 -0.01175)
(2.4 0.02 -0.012)
(2.45 0.02 -0.01225)
(2.5 0.02 -0.0125)
(2.55 0.02 -0.01275)
(2.6 0.02 -0.013)
(2.65 0.02 -0.01325)
(2.7 0.02 -0.0135)
(2.75 0.02 -0.01375)
(2.8 0.02 -0.014)
(2.85 0.02 -0.01425)
(2.9 0.02 -0.0145)
(2.95 0.02 -0.01475)
(3 0.02 -0.0159689)
(3.05 0.02 -0.0175378)
(3.1 0.02 -0.0183706)
(3.15 0.02 -0.0189313)
(3.2 0.02 -0.0193127)
(3.25 0.02 -0.0196445)
(3.3 0.02 -0.019916)
(3.35 0.02 -0.0201983)
(3.4 0.02 -0.0204412)
(3.45 0.02 -0.0207239)
(3.5 0.02 -0.0209507)
(3.55 0.02 -0.0212233)
(3.6 0.02 -0.0215044)
(3.65 0.02 -0.0217437)
(3.7 0.02 -0.0219296)
(3.75 0.02 -0.0221986)
(3.8 0.02 -0.022547)
(3.85 0.02 -0.0228044)
(3.9 0.02 -0.0228761)
(3.95 0.02 -0.023182)
(4 0.02 -0.0234951)
(4.05 0.02 -0.0237522)
(4.1 0.02 -0.0241484)
(4.15 0.02 -0.0244161)
(4.2 0.02 -0.0245746)
(4.25 0.02 -0.024783)
(4.3 0.02 -0.0249481)
(4.35 0.02 -0.0251166)
(4.4 0.02 -0.0255343)
(4.45 0.02 -0.0257576)
(4.5 0.02 -0.0257451)
(4.55 0.02 -0.0261376)
(4.6 0.02 -0.0267211)
(4.65 0.02 -0.0266368)
(4.7 0.02 -0.0265973)
(4.75 0.02 -0.0273195)
(4.8 0.02 -0.0277957)
(4.85 0.02 -0.0274599)
(4.9 0.02 -0.0275565)
(4.95 0.02 -0.0283445)
(5 0.02 -0.0287375)
(5.05 0.02 -0.0285228)
(5.1 0.02 -0.0286094)
(5.15 0.02 -0.0291915)
(5.2 0.02 -0.0296782)
(5.25 0.02 -0.0297518)
(5.3 0.02 -0.029766)
(5.35 0.02 -0.030047)
(5.4 0.02 -0.0304892)
(5.45 0.02 -0.0308024)
(5.5 0.02 -0.0309493)
(5.55 0.02 -0.0310901)
(5.6 0.02 -0.0313085)
(5.65 0.02 -0.0315714)
(5.7 0.02 -0.031858)
(5.75 0.02 -0.0321539)
(5.8 0.02 -0.0324409)
(5.85 0.02 -0.0327045)
(5.9 0.02 -0.0329494)
(5.95 0.02 -0.0331937)
(6 0.02 -0.0334474)
(6.05 0.02 -0.0336994)
(6.1 0.02 -0.0339432)
(6.15 0.02 -0.0341869)
(6.2 0.02 -0.0344363)
(6.25 0.02 -0.0346881)
(6.3 0.02 -0.0349389)
(6.35 0.02 -0.0351883)
(6.4 0.02 -0.0354372)
(6.45 0.02 -0.0356859)
(6.5 0.02 -0.0359347)
(6.55 0.02 -0.0361838)
(6.6 0.02 -0.0364329)
(6.65 0.02 -0.0366822)
(6.7 0.02 -0.0369319)
(6.75 0.02 -0.0371816)
(6.8 0.02 -0.0374314)
(6.85 0.02 -0.0376813)
(6.9 0.02 -0.0379312)
(6.95 0.02 -0.0381811)
(7 0.02 -0.038431)
(7.05 0.02 -0.038681)
(7.1 0.02 -0.0389308)
(7.15 0.02 -0.0391806)
(7.2 0.02 -0.0394305)
(7.25 0.02 -0.0396801)
(7.3 0.02 -0.0399298)
(7.35 0.02 -0.0401798)
(7.4 0.02 -0.0404295)
(7.45 0.02 -0.0406795)
(7.5 0.02 -0.0409293)
(7.55 0.02 -0.0411783)
(7.6 0.02 -0.0414285)
(7.65 0.02 -0.0416789)
(7.7 0.02 -0.0419278)
(7.75 0.02 -0.042177)
(7.8 0.02 -0.0424272)
(7.85 0.02 -0.0426777)
(7.9 0.02 -0.0429275)
(7.95 0.02 -0.0431762)
(8 0.02 -0.0434256)
(8.05 0.02 -0.0436764)
(8.1 0.02 -0.0439263)
(8.15 0.02 -0.0441749)
(8.2 0.02 -0.0444247)
(8.25 0.02 -0.0446751)
(8.3 0.02 -0.0449246)
(8.35 0.02 -0.045174)
(8.4 0.02 -0.0454238)
(8.45 0.02 -0.0456739)
(8.5 0.02 -0.0459232)
(8.55 0.02 -0.0461721)
(8.6 0.02 -0.0464223)
(8.65 0.02 -0.0466726)
(8.7 0.02 -0.0469211)
(8.75 0.02 -0.0471706)
(8.8 0.02 -0.047422)
(8.85 0.02 -0.0476708)
(8.9 0.02 -0.0479187)
(8.95 0.02 -0.0481708)
(9 0.02 -0.0484187)
(9.05 0.02 -0.0486677)
(9.1 0.02 -0.0489207)
(9.15 0.02 -0.0491657)
(9.2 0.02 -0.0494183)
(9.25 0.02 -0.049669)
(9.3 0.02 -0.0499109)
(9.35 0.02 -0.0501707)
(9.4 0.02 -0.05042)
(9.45 0.02 -0.0506543)
(9.5 0.02 -0.0509199)
(9.55 0.02 -0.0511731)
(9.6 0.02 -0.051399)
(9.65 0.02 -0.0516677)
(9.7 0.02 -0.0519259)
(9.75 0.02 -0.0521445)
(9.8 0.02 -0.0524129)
(9.85 0.02 -0.0526803)
(9.9 0.02 -0.0528936)
(9.95 0.02 -0.0531539)
(10 0.02 -0.0534298)
(10.05 0.02 -0.0536508)
(10.1 0.02 -0.0538997)
(10.15 0.02 -0.0541687)
(10.2 0.02 -0.0544012)
(10.25 0.02 -0.054657)
(10.3 0.02 -0.054916)
(10.35 0.02 -0.0551407)
(10.4 0.02 -0.0554038)
(10.45 0.02 -0.055672)
(10.5 0.02 -0.0558924)
(10.55 0.02 -0.0561461)
(10.6 0.02 -0.0564149)
(10.65 0.02 -0.0566431)
(10.7 0.02 -0.0569)
(10.75 0.02 -0.057165)
(10.8 0.02 -0.0573881)
(10.85 0.02 -0.0576443)
(10.9 0.02 -0.0579137)
(10.95 0.02 -0.0581409)
(11 0.02 -0.0583977)
(11.05 0.02 -0.0586661)
(11.1 0.02 -0.0588912)
(11.15 0.02 -0.059146)
(11.2 0.02 -0.0594141)
(11.25 0.02 -0.059639)
(11.3 0.02 -0.0598933)
(11.35 0.02 -0.0601618)
(11.4 0.02 -0.0603871)
(11.45 0.02 -0.0606408)
(11.5 0.02 -0.0609097)
(11.55 0.02 -0.0611351)
(11.6 0.02 -0.0613885)
(11.65 0.02 -0.0616577)
(11.7 0.02 -0.0618832)
(11.75 0.02 -0.062136)
(11.8 0.02 -0.0624057)
(11.85 0.02 -0.0626314)
(11.9 0.02 -0.0628836)
(11.95 0.02 -0.0631537)
(12 0.02 -0.0633797)
(12.05 0.02 -0.0636313)
(12.1 0.02 -0.0639016)
(12.15 0.02 -0.0641279)
(12.2 0.02 -0.064379)
(12.25 0.02 -0.0646496)
(12.3 0.02 -0.0648761)
(12.35 0.02 -0.0651269)
(12.4 0.02 -0.0653977)
(12.45 0.02 -0.0656246)
(12.5 0.02 -0.0658746)
(12.55 0.02 -0.0661459)
(12.6 0.02 -0.0663731)
(12.65 0.02 -0.0666221)
(12.7 0.02 -0.0668947)
(12.75 0.02 -0.067121)
(12.8 0.02 -0.067371)
(12.85 0.02 -0.0676423)
(12.9 0.02 -0.0678699)
(12.95 0.02 -0.0681197)
(13 0.02 -0.0683893)
(13.05 0.02 -0.0686216)
(13.1 0.02 -0.0688638)
(13.15 0.02 -0.0691411)
(13.2 0.02 -0.069368)
(13.25 0.02 -0.0696151)
(13.3 0.02 -0.069887)
(13.35 0.02 -0.0701191)
(13.4 0.02 -0.0703679)
(13.45 0.02 -0.0706212)
(13.5 0.02 -0.0708817)
(13.55 0.02 -0.0711144)
(13.6 0.02 -0.0713734)
(13.65 0.02 -0.0716168)
(13.7 0.02 -0.0718736)
(13.75 0.02 -0.0721241)
(13.8 0.02 -0.0723683)
(13.85 0.02 -0.0726136)
(13.9 0.02 -0.0728674)
(13.95 0.02 -0.0731319)
(14 0.02 -0.0733676)
(14.05 0.02 -0.0736124)
(14.1 0.02 -0.073861)
(14.15 0.02 -0.0741311)
(14.2 0.02 -0.0743659)
(14.25 0.02 -0.07462)
(14.3 0.02 -0.0748601)
(14.35 0.02 -0.0751269)
(14.4 0.02 -0.0753672)
(14.45 0.02 -0.07563)
(14.5 0.02 -0.0758666)
(14.55 0.02 -0.0761303)
(14.6 0.02 -0.0763702)
(14.65 0.02 -0.0766149)
(14.7 0.02 -0.0769126)
(14.75 0.02 -0.0768514)
(14.8 0.02 -0.0754187)
(14.85 0.02 -0.07425)
(14.9 0.02 -0.0745)
(14.95 0.02 -0.07475)
(15 0.02 -0.075)
(0 0 0.00166667)
(0.05 0 0.00141667)
(0.1 0 0.00116667)
(0.15 0 0.000916667)
(0.2 0 0.000666667)
(0.25 0 0.000416667)
(0.3 0 0.000166667)
(0.35 0 -8.33333e-05)
(0.4 0 -0.000333333)
(0.45 0 -0.000583333)
(0.5 0 -0.000833333)
(0.55 0 -0.00108333)
(0.6 0 -0.00133333)
(0.65 0 -0.00158333)
(0.7 0 -0.00183333)
(0.75 0 -0.00208333)
(0.8 0 -0.00233333)
(0.85 0 -0.00258333)
(0.9 0 -0.00283333)
(0.95 0 -0.00308333)
(1 0 -0.00333333)
(1.05 0 -0.00358333)
(1.1 0 -0.00383333)
(1.15 0 -0.00408333)
(1.2 0 -0.00433333)
(1.25 0 -0.00458333)
(1.3 0 -0.00483333)
(1.35 0 -0.00508333)
(1.4 0 -0.00533333)
(1.45 0 -0.00558333)
(1.5 0 -0.00583333)
(1.55 0 -0.00608333)
(1.6 0 -0.00633333)
(1.65 0 -0.00658333)
(1.7 0 -0.00683333)
(1.75 0 -0.00708333)
(1.8 0 -0.00733333)
(1.85 0 -0.00758333)
(1.9 0 -0.00783333)
(1.95 0 -0.00808333)
(2 0 -0.00833333)
(2.05 0 -0.00858333)
(2.1 0 -0.00883333)
(2.15 0 -0.00908333)
(2.2 0 -0.00933333)
(2.25 0 -0.00958333)
(2.3 0 -0.00983333)
(2.35 0 -0.0100833)
(2.4 0 -0.0103333)
(2.45 0 -0.0105833)
(2.5 0 -0.0108333)
(2.55 0 -0.0110833)
(2.6 0 -0.0113333)
(2.65 0 -0.0115833)
(2.7 0 -0.0118333)
(2.75 0 -0.0120833)
(2.8 0 -0.0123333)
(2.85 0 -0.0125833)
(2.9 0 -0.0128332)
(2.95 0 -0.0130843)
(3 0 -0.0143018)
(3.05 0 -0.0158694)
(3.1 0 -0.0167031)
(3.15 0 -0.017264)
(3.2 0 -0.0176455)
(3.25 0 -0.0179773)
(3.3 0 -0.018249)
(3.35 0 -0.0185312)
(3.4 0 -0.0187742)
(3.45 0 -0.0190567)
(3.5 0 -0.0192837)
(3.55 0 -0.0195563)
(3.6 0 -0.0198373)
(3.65 0 -0.0200765)
(3.7 0 -0.0202626)
(3.75 0 -0.0205316)
(3.8 0 -0.0208798)
(3.85 0 -0.0211371)
(3.9 0 -0.0212094)
(3.95 0 -0.0215149)
(4 0 -0.0218279)
(4.05 0 -0.0220853)
(4.1 0 -0.0224812)
(4.15 0 -0.0227489)
(4.2 0 -0.0229076)
(4.25 0 -0.0231159)
(4.3 0 -0.023281)
(4.35 0 -0.0234499)
(4.4 0 -0.023867)
(4.45 0 -0.0240902)
(4.5 0 -0.0240786)
(4.55 0 -0.0244707)
(4.6 0 -0.025053)
(4.65 0 -0.0249698)
(4.7 0 -0.0249313)
(4.75 0 -0.025652)
(4.8 0 -0.0261275)
(4.85 0 -0.0257934)
(4.9 0 -0.0258902)
(4.95 0 -0.0266768)
(5 0 -0.0270696)
(5.05 0 -0.0268562)
(5.1 0 -0.0269429)
(5.15 0 -0.0275242)
(5.2 0 -0.0280105)
(5.25 0 -0.0280847)
(5.3 0 -0.0280993)
(5.35 0 -0.0283801)
(5.4 0 -0.0288219)
(5.45 0 -0.0291351)
(5.5 0 -0.0292822)
(5.55 0 -0.0294231)
(5.6 0 -0.0296415)
(5.65 0 -0.0299043)
(5.7 0 -0.0301909)
(5.75 0 -0.0304868)
(5.8 0 -0.0307738)
(5.85 0 -0.0310374)
(5.9 0 -0.0312823)
(5.95 0 -0.0315266)
(6 0 -0.0317803)
(6.05 0 -0.0320323)
(6.1 0 -0.0322761)
(6.15 0 -0.0325198)
(6.2 0 -0.0327692)
(6.25 0 -0.033021)
(6.3 0 -0.0332718)
(6.35 0 -0.0335212)
(6.4 0 -0.0337701)
(6.45 0 -0.0340188)
(6.5 0 -0.0342676)
(6.55 0 -0.0345167)
(6.6 0 -0.0347658)
(6.65 0 -0.0350151)
(6.7 0 -0.0352648)
(6.75 0 -0.0355145)
(6.8 0 -0.0357643)
(6.85 0 -0.0360142)
(6.9 0 -0.0362641)
(6.95 0 -0.0365141)
(7 0 -0.036764)
(7.05 0 -0.0370139)
(7.1 0 -0.0372638)
(7.15 0 -0.0375135)
(7.2 0 -0.0377634)
(7.25 0 -0.038013)
(7.3 0 -0.0382628)
(7.35 0 -0.0385128)
(7.4 0 -0.0387624)
(7.45 0 -0.0390124)
(7.5 0 -0.0392622)
(7.55 0 -0.0395112)
(7.6 0 -0.0397614)
(7.65 0 -0.0400118)
(7.7 0 -0.0402608)
(7.75 0 -0.04051)
(7.8 0 -0.0407601)
(7.85 0 -0.0410106)
(7.9 0 -0.0412604)
(7.95 0 -0.0415091)
(8 0 -0.0417585)
(8.05 0 -0.0420093)
(8.1 0 -0.0422592)
(8.15 0 -0.0425079)
(8.2 0 -0.0427576)
(8.25 0 -0.043008)
(8.3 0 -0.0432575)
(8.35 0 -0.0435069)
(8.4 0 -0.0437568)
(8.45 0 -0.0440069)
(8.5 0 -0.0442562)
(8.55 0 -0.044505)
(8.6 0 -0.0447553)
(8.65 0 -0.0450055)
(8.7 0 -0.045254)
(8.75 0 -0.0455035)
(8.8 0 -0.0457549)
(8.85 0 -0.0460037)
(8.9 0 -0.0462517)
(8.95 0 -0.0465038)
(9 0 -0.0467516)
(9.05 0 -0.0470006)
(9.1 0 -0.0472536)
(9.15 0 -0.0474987)
(9.2 0 -0.0477512)
(9.25 0 -0.0480019)
(9.3 0 -0.0482439)
(9.35 0 -0.0485036)
(9.4 0 -0.0487529)
(9.45 0 -0.0489873)
(9.5 0 -0.0492528)
(9.55 0 -0.049506)
(9.6 0 -0.049732)
(9.65 0 -0.0500006)
(9.7 0 -0.0502587)
(9.75 0 -0.0504775)
(9.8 0 -0.0507458)
(9.85 0 -0.0510131)
(9.9 0 -0.0512266)
(9.95 0 -0.0514869)
(10 0 -0.0517626)
(10.05 0 -0.0519837)
(10.1 0 -0.0522326)
(10.15 0 -0.0525016)
(10.2 0 -0.0527341)
(10.25 0 -0.0529899)
(10.3 0 -0.0532489)
(10.35 0 -0.0534737)
(10.4 0 -0.0537367)
(10.45 0 -0.0540049)
(10.5 0 -0.0542254)
(10.55 0 -0.054479)
(10.6 0 -0.0547478)
(10.65 0 -0.0549761)
(10.7 0 -0.055233)
(10.75 0 -0.0554979)
(10.8 0 -0.055721)
(10.85 0 -0.0559772)
(10.9 0 -0.0562466)
(10.95 0 -0.0564739)
(11 0 -0.0567306)
(11.05 0 -0.0569989)
(11.1 0 -0.0572242)
(11.15 0 -0.0574789)
(11.2 0 -0.0577469)
(11.25 0 -0.057972)
(11.3 0 -0.0582262)
(11.35 0 -0.0584947)
(11.4 0 -0.0587201)
(11.45 0 -0.0589738)
(11.5 0 -0.0592426)
(11.55 0 -0.0594681)
(11.6 0 -0.0597214)
(11.65 0 -0.0599906)
(11.7 0 -0.0602162)
(11.75 0 -0.0604689)
(11.8 0 -0.0607386)
(11.85 0 -0.0609644)
(11.9 0 -0.0612165)
(11.95 0 -0.0614865)
(12 0 -0.0617126)
(12.05 0 -0.0619642)
(12.1 0 -0.0622344)
(12.15 0 -0.0624608)
(12.2 0 -0.062712)
(12.25 0 -0.0629825)
(12.3 0 -0.0632091)
(12.35 0 -0.0634598)
(12.4 0 -0.0637305)
(12.45 0 -0.0639575)
(12.5 0 -0.0642076)
(12.55 0 -0.0644787)
(12.6 0 -0.0647061)
(12.65 0 -0.0649551)
(12.7 0 -0.0652276)
(12.75 0 -0.065454)
(12.8 0 -0.065704)
(12.85 0 -0.0659752)
(12.9 0 -0.0662028)
(12.95 0 -0.0664527)
(13 0 -0.0667221)
(13.05 0 -0.0669545)
(13.1 0 -0.0671968)
(13.15 0 -0.0674739)
(13.2 0 -0.067701)
(13.25 0 -0.0679481)
(13.3 0 -0.0682199)
(13.35 0 -0.068452)
(13.4 0 -0.0687008)
(13.45 0 -0.0689542)
(13.5 0 -0.0692145)
(13.55 0 -0.0694474)
(13.6 0 -0.0697063)
(13.65 0 -0.0699498)
(13.7 0 -0.0702065)
(13.75 0 -0.070457)
(13.8 0 -0.0707012)
(13.85 0 -0.0709466)
(13.9 0 -0.0712004)
(13.95 0 -0.0714648)
(14 0 -0.0717005)
(14.05 0 -0.0719454)
(14.1 0 -0.072194)
(14.15 0 -0.072464)
(14.2 0 -0.0726989)
(14.25 0 -0.0729529)
(14.3 0 -0.0731931)
(14.35 0 -0.0734598)
(14.4 0 -0.0737002)
(14.45 0 -0.0739629)
(14.5 0 -0.0741996)
(14.55 0 -0.0744632)
(14.6 0 -0.0747031)
(14.65 0 -0.0749479)
(14.7 0 -0.0752453)
(14.75 0 -0.0751822)
(14.8 0 -0.0737516)
(14.85 0 -0.072585)
(14.9 0 -0.0728332)
(14.95 0 -0.0730833)
(15 0 -0.0733333)
(0 0.02 0.00166667)
(0.05 0.02 0.00141667)
(0.1 0.02 0.00116667)
(0.15 0.02 0.000916667)
(0.2 0.02 0.000666667)
(0.25 0.02 0.000416667)
(0.3 0.02 0.000166667)
(0.35 0.02 -8.33333e-05)
(0.4 0.02 -0.000333333)
(0.45 0.02 -0.000583333)
(0.5 0.02 -0.000833333)
(0.55 0.02 -0.00108333)
(0.6 0.02 -0.00133333)
(0.65 0.02 -0.00158333)
(0.7 0.02 -0.00183333)
(0.75 0.02 -0.00208333)
(0.8 0.02 -0.00233333)
(0.85 0.02 -0.00258333)
(0.9 0.02 -0.00283333)
(0.95 0.02 -0.00308333)
(1 0.02 -0.00333333)
(1.05 0.02 -0.00358333)
(1.1 0.02 -0.00383333)
(1.15 0.02 -0.00408333)
(1.2 0.02 -0.00433333)
(1.25 0.02 -0.00458333)
(1.3 0.02 -0.00483333)
(1.35 0.02 -0.00508333)
(1.4 0.02 -0.00533333)
(1.45 0.02 -0.00558333)
(1.5 0.02 -0.00583333)
(1.55 0.02 -0.00608333)
(1.6 0.02 -0.00633333)
(1.65 0.02 -0.00658333)
(1.7 0.02 -0.00683333)
(1.75 0.02 -0.00708333)
(1.8 0.02 -0.00733333)
(1.85 0.02 -0.00758333)
(1.9 0.02 -0.00783333)
(1.95 0.02 -0.00808333)
(2 0.02 -0.00833333)
(2.05 0.02 -0.00858333)
(2.1 0.02 -0.00883333)
(2.15 0.02 -0.00908333)
(2.2 0.02 -0.00933333)
(2.25 0.02 -0.00958333)
(2.3 0.02 -0.00983333)
(2.35 0.02 -0.0100833)
(2.4 0.02 -0.0103333)
(2.45 0.02 -0.0105833)
(2.5 0.02 -0.0108333)
(2.55 0.02 -0.0110833)
(2.6 0.02 -0.0113333)
(2.65 0.02 -0.0115833)
(2.7 0.02 -0.0118333)
(2.75 0.02 -0.0120833)
(2.8 0.02 -0.0123333)
(2.85 0.02 -0.0125833)
(2.9 0.02 -0.0128332)
(2.95 0.02 -0.0130843)
(3 0.02 -0.0143018)
(3.05 0.02 -0.0158694)
(3.1 0.02 -0.0167031)
(3.15 0.02 -0.017264)
(3.2 0.02 -0.0176455)
(3.25 0.02 -0.0179773)
(3.3 0.02 -0.018249)
(3.35 0.02 -0.0185312)
(3.4 0.02 -0.0187742)
(3.45 0.02 -0.0190567)
(3.5 0.02 -0.0192837)
(3.55 0.02 -0.0195563)
(3.6 0.02 -0.0198373)
(3.65 0.02 -0.0200765)
(3.7 0.02 -0.0202626)
(3.75 0.02 -0.0205316)
(3.8 0.02 -0.0208798)
(3.85 0.02 -0.0211371)
(3.9 0.02 -0.0212094)
(3.95 0.02 -0.0215149)
(4 0.02 -0.0218279)
(4.05 0.02 -0.0220853)
(4.1 0.02 -0.0224812)
(4.15 0.02 -0.0227489)
(4.2 0.02 -0.0229076)
(4.25 0.02 -0.0231159)
(4.3 0.02 -0.023281)
(4.35 0.02 -0.0234499)
(4.4 0.02 -0.023867)
(4.45 0.02 -0.0240902)
(4.5 0.02 -0.0240786)
(4.55 0.02 -0.0244707)
(4.6 0.02 -0.025053)
(4.65 0.02 -0.0249698)
(4.7 0.02 -0.0249313)
(4.75 0.02 -0.025652)
(4.8 0.02 -0.0261275)
(4.85 0.02 -0.0257934)
(4.9 0.02 -0.0258902)
(4.95 0.02 -0.0266768)
(5 0.02 -0.0270696)
(5.05 0.02 -0.0268562)
(5.1 0.02 -0.0269429)
(5.15 0.02 -0.0275242)
(5.2 0.02 -0.0280105)
(5.25 0.02 -0.0280847)
(5.3 0.02 -0.0280993)
(5.35 0.02 -0.0283801)
(5.4 0.02 -0.0288219)
(5.45 0.02 -0.0291351)
(5.5 0.02 -0.0292822)
(5.55 0.02 -0.0294231)
(5.6 0.02 -0.0296415)
(5.65 0.02 -0.0299043)
(5.7 0.02 -0.0301909)
(5.75 0.02 -0.0304868)
(5.8 0.02 -0.0307738)
(5.85 0.02 -0.0310374)
(5.9 0.02 -0.0312823)
(5.95 0.02 -0.0315266)
(6 0.02 -0.0317803)
(6.05 0.02 -0.0320323)
(6.1 0.02 -0.0322761)
(6.15 0.02 -0.0325198)
(6.2 0.02 -0.0327692)
(6.25 0.02 -0.033021)
(6.3 0.02 -0.0332718)
(6.35 0.02 -0.0335212)
(6.4 0.02 -0.0337701)
(6.45 0.02 -0.0340188)
(6.5 0.02 -0.0342676)
(6.55 0.02 -0.0345167)
(6.6 0.02 -0.0347658)
(6.65 0.02 -0.0350151)
(6.7 0.02 -0.0352648)
(6.75 0.02 -0.0355145)
(6.8 0.02 -0.0357643)
(6.85 0.02 -0.0360142)
(6.9 0.02 -0.0362641)
(6.95 0.02 -0.0365141)
(7 0.02 -0.036764)
(7.05 0.02 -0.0370139)
(7.1 0.02 -0.0372638)
(7.15 0.02 -0.0375135)
(7.2 0.02 -0.0377634)
(7.25 0.02 -0.038013)
(7.3 0.02 -0.0382628)
(7.35 0.02 -0.0385128)
(7.4 0.02 -0.0387624)
(7.45 0.02 -0.0390124)
(7.5 0.02 -0.0392622)
(7.55 0.02 -0.0395112)
(7.6 0.02 -0.0397614)
(7.65 0.02 -0.0400118)
(7.7 0.02 -0.0402608)
(7.75 0.02 -0.04051)
(7.8 0.02 -0.0407601)
(7.85 0.02 -0.0410106)
(7.9 0.02 -0.0412604)
(7.95 0.02 -0.0415091)
(8 0.02 -0.0417585)
(8.05 0.02 -0.0420093)
(8.1 0.02 -0.0422592)
(8.15 0.02 -0.0425079)
(8.2 0.02 -0.0427576)
(8.25 0.02 -0.043008)
(8.3 0.02 -0.0432575)
(8.35 0.02 -0.0435069)
(8.4 0.02 -0.0437568)
(8.45 0.02 -0.0440069)
(8.5 0.02 -0.0442562)
(8.55 0.02 -0.044505)
(8.6 0.02 -0.0447553)
(8.65 0.02 -0.0450055)
(8.7 0.02 -0.045254)
(8.75 0.02 -0.0455035)
(8.8 0.02 -0.0457549)
(8.85 0.02 -0.0460037)
(8.9 0.02 -0.0462517)
(8.95 0.02 -0.0465038)
(9 0.02 -0.0467516)
(9.05 0.02 -0.0470006)
(9.1 0.02 -0.0472536)
(9.15 0.02 -0.0474987)
(9.2 0.02 -0.0477512)
(9.25 0.02 -0.0480019)
(9.3 0.02 -0.0482439)
(9.35 0.02 -0.0485036)
(9.4 0.02 -0.0487529)
(9.45 0.02 -0.0489873)
(9.5 0.02 -0.0492528)
(9.55 0.02 -0.049506)
(9.6 0.02 -0.049732)
(9.65 0.02 -0.0500006)
(9.7 0.02 -0.0502587)
(9.75 0.02 -0.0504775)
(9.8 0.02 -0.0507458)
(9.85 0.02 -0.0510131)
(9.9 0.02 -0.0512266)
(9.95 0.02 -0.0514869)
(10 0.02 -0.0517626)
(10.05 0.02 -0.0519837)
(10.1 0.02 -0.0522326)
(10.15 0.02 -0.0525016)
(10.2 0.02 -0.0527341)
(10.25 0.02 -0.0529899)
(10.3 0.02 -0.0532489)
(10.35 0.02 -0.0534737)
(10.4 0.02 -0.0537367)
(10.45 0.02 -0.0540049)
(10.5 0.02 -0.0542254)
(10.55 0.02 -0.054479)
(10.6 0.02 -0.0547478)
(10.65 0.02 -0.0549761)
(10.7 0.02 -0.055233)
(10.75 0.02 -0.0554979)
(10.8 0.02 -0.055721)
(10.85 0.02 -0.0559772)
(10.9 0.02 -0.0562466)
(10.95 0.02 -0.0564739)
(11 0.02 -0.0567306)
(11.05 0.02 -0.0569989)
(11.1 0.02 -0.0572242)
(11.15 0.02 -0.0574789)
(11.2 0.02 -0.0577469)
(11.25 0.02 -0.057972)
(11.3 0.02 -0.0582262)
(11.35 0.02 -0.0584947)
(11.4 0.02 -0.0587201)
(11.45 0.02 -0.0589738)
(11.5 0.02 -0.0592426)
(11.55 0.02 -0.0594681)
(11.6 0.02 -0.0597214)
(11.65 0.02 -0.0599906)
(11.7 0.02 -0.0602162)
(11.75 0.02 -0.0604689)
(11.8 0.02 -0.0607386)
(11.85 0.02 -0.0609644)
(11.9 0.02 -0.0612165)
(11.95 0.02 -0.0614865)
(12 0.02 -0.0617126)
(12.05 0.02 -0.0619642)
(12.1 0.02 -0.0622344)
(12.15 0.02 -0.0624608)
(12.2 0.02 -0.062712)
(12.25 0.02 -0.0629825)
(12.3 0.02 -0.0632091)
(12.35 0.02 -0.0634598)
(12.4 0.02 -0.0637305)
(12.45 0.02 -0.0639575)
(12.5 0.02 -0.0642076)
(12.55 0.02 -0.0644787)
(12.6 0.02 -0.0647061)
(12.65 0.02 -0.0649551)
(12.7 0.02 -0.0652276)
(12.75 0.02 -0.065454)
(12.8 0.02 -0.065704)
(12.85 0.02 -0.0659752)
(12.9 0.02 -0.0662028)
(12.95 0.02 -0.0664527)
(13 0.02 -0.0667221)
(13.05 0.02 -0.0669545)
(13.1 0.02 -0.0671968)
(13.15 0.02 -0.0674739)
(13.2 0.02 -0.067701)
(13.25 0.02 -0.0679481)
(13.3 0.02 -0.0682199)
(13.35 0.02 -0.068452)
(13.4 0.02 -0.0687008)
(13.45 0.02 -0.0689542)
(13.5 0.02 -0.0692145)
(13.55 0.02 -0.0694474)
(13.6 0.02 -0.0697063)
(13.65 0.02 -0.0699498)
(13.7 0.02 -0.0702065)
(13.75 0.02 -0.070457)
(13.8 0.02 -0.0707012)
(13.85 0.02 -0.0709466)
(13.9 0.02 -0.0712004)
(13.95 0.02 -0.0714648)
(14 0.02 -0.0717005)
(14.05 0.02 -0.0719454)
(14.1 0.02 -0.072194)
(14.15 0.02 -0.072464)
(14.2 0.02 -0.0726989)
(14.25 0.02 -0.0729529)
(14.3 0.02 -0.0731931)
(14.35 0.02 -0.0734598)
(14.4 0.02 -0.0737002)
(14.45 0.02 -0.0739629)
(14.5 0.02 -0.0741996)
(14.55 0.02 -0.0744632)
(14.6 0.02 -0.0747031)
(14.65 0.02 -0.0749479)
(14.7 0.02 -0.0752453)
(14.75 0.02 -0.0751822)
(14.8 0.02 -0.0737516)
(14.85 0.02 -0.072585)
(14.9 0.02 -0.0728332)
(14.95 0.02 -0.0730833)
(15 0.02 -0.0733333)
(0 0 0.00333333)
(0.05 0 0.00308333)
(0.1 0 0.00283333)
(0.15 0 0.00258333)
(0.2 0 0.00233333)
(0.25 0 0.00208333)
(0.3 0 0.00183333)
(0.35 0 0.00158333)
(0.4 0 0.00133333)
(0.45 0 0.00108333)
(0.5 0 0.000833333)
(0.55 0 0.000583333)
(0.6 0 0.000333333)
(0.65 0 8.33333e-05)
(0.7 0 -0.000166667)
(0.75 0 -0.000416667)
(0.8 0 -0.000666667)
(0.85 0 -0.000916667)
(0.9 0 -0.00116667)
(0.95 0 -0.00141667)
(1 0 -0.00166667)
(1.05 0 -0.00191667)
(1.1 0 -0.00216667)
(1.15 0 -0.00241667)
(1.2 0 -0.00266667)
(1.25 0 -0.00291667)
(1.3 0 -0.00316667)
(1.35 0 -0.00341667)
(1.4 0 -0.00366667)
(1.45 0 -0.00391667)
(1.5 0 -0.00416667)
(1.55 0 -0.00441667)
(1.6 0 -0.00466667)
(1.65 0 -0.00491667)
(1.7 0 -0.00516667)
(1.75 0 -0.00541667)
(1.8 0 -0.00566667)
(1.85 0 -0.00591667)
(1.9 0 -0.00616667)
(1.95 0 -0.00641667)
(2 0 -0.00666667)
(2.05 0 -0.00691667)
(2.1 0 -0.00716667)
(2.15 0 -0.00741667)
(2.2 0 -0.00766667)
(2.25 0 -0.00791667)
(2.3 0 -0.00816667)
(2.35 0 -0.00841667)
(2.4 0 -0.00866667)
(2.45 0 -0.00891667)
(2.5 0 -0.00916667)
(2.55 0 -0.00941667)
(2.6 0 -0.00966667)
(2.65 0 -0.00991667)
(2.7 0 -0.0101667)
(2.75 0 -0.0104167)
(2.8 0 -0.0106667)
(2.85 0 -0.0109167)
(2.9 0 -0.0111665)
(2.95 0 -0.0114198)
(3 0 -0.0126343)
(3.05 0 -0.014198)
(3.1 0 -0.015033)
(3.15 0 -0.0155937)
(3.2 0 -0.0159755)
(3.25 0 -0.0163072)
(3.3 0 -0.016579)
(3.35 0 -0.0168611)
(3.4 0 -0.0171043)
(3.45 0 -0.0173865)
(3.5 0 -0.0176138)
(3.55 0 -0.0178862)
(3.6 0 -0.0181671)
(3.65 0 -0.0184063)
(3.7 0 -0.0185928)
(3.75 0 -0.0188618)
(3.8 0 -0.0192095)
(3.85 0 -0.0194665)
(3.9 0 -0.0195401)
(3.95 0 -0.0198449)
(4 0 -0.0201577)
(4.05 0 -0.0204157)
(4.1 0 -0.0208106)
(4.15 0 -0.0210784)
(4.2 0 -0.0212377)
(4.25 0 -0.0214457)
(4.3 0 -0.021611)
(4.35 0 -0.0217806)
(4.4 0 -0.0221964)
(4.45 0 -0.0224195)
(4.5 0 -0.0224098)
(4.55 0 -0.0228012)
(4.6 0 -0.0233811)
(4.65 0 -0.0233)
(4.7 0 -0.0232634)
(4.75 0 -0.0239812)
(4.8 0 -0.0244551)
(4.85 0 -0.0241247)
(4.9 0 -0.0242222)
(4.95 0 -0.0250056)
(5 0 -0.0253978)
(5.05 0 -0.0251871)
(5.1 0 -0.0252744)
(5.15 0 -0.0258538)
(5.2 0 -0.0263393)
(5.25 0 -0.0264145)
(5.3 0 -0.0264301)
(5.35 0 -0.0267106)
(5.4 0 -0.0271515)
(5.45 0 -0.0274646)
(5.5 0 -0.0276122)
(5.55 0 -0.0277534)
(5.6 0 -0.0279717)
(5.65 0 -0.0282345)
(5.7 0 -0.028521)
(5.75 0 -0.0288168)
(5.8 0 -0.0291037)
(5.85 0 -0.0293674)
(5.9 0 -0.0296123)
(5.95 0 -0.0298566)
(6 0 -0.0301103)
(6.05 0 -0.0303623)
(6.1 0 -0.0306061)
(6.15 0 -0.0308498)
(6.2 0 -0.0310992)
(6.25 0 -0.031351)
(6.3 0 -0.0316018)
(6.35 0 -0.0318512)
(6.4 0 -0.0321001)
(6.45 0 -0.0323488)
(6.5 0 -0.0325976)
(6.55 0 -0.0328467)
(6.6 0 -0.0330958)
(6.65 0 -0.0333451)
(6.7 0 -0.0335948)
(6.75 0 -0.0338445)
(6.8 0 -0.0340943)
(6.85 0 -0.0343442)
(6.9 0 -0.0345942)
(6.95 0 -0.0348441)
(7 0 -0.035094)
(7.05 0 -0.0353439)
(7.1 0 -0.0355938)
(7.15 0 -0.0358435)
(7.2 0 -0.0360934)
(7.25 0 -0.036343)
(7.3 0 -0.0365928)
(7.35 0 -0.0368428)
(7.4 0 -0.0370924)
(7.45 0 -0.0373425)
(7.5 0 -0.0375922)
(7.55 0 -0.0378412)
(7.6 0 -0.0380914)
(7.65 0 -0.0383418)
(7.7 0 -0.0385908)
(7.75 0 -0.03884)
(7.8 0 -0.0390901)
(7.85 0 -0.0393406)
(7.9 0 -0.0395904)
(7.95 0 -0.0398391)
(8 0 -0.0400885)
(8.05 0 -0.0403393)
(8.1 0 -0.0405892)
(8.15 0 -0.0408379)
(8.2 0 -0.0410876)
(8.25 0 -0.041338)
(8.3 0 -0.0415876)
(8.35 0 -0.0418369)
(8.4 0 -0.0420868)
(8.45 0 -0.0423369)
(8.5 0 -0.0425862)
(8.55 0 -0.042835)
(8.6 0 -0.0430853)
(8.65 0 -0.0433355)
(8.7 0 -0.043584)
(8.75 0 -0.0438335)
(8.8 0 -0.0440849)
(8.85 0 -0.0443337)
(8.9 0 -0.0445817)
(8.95 0 -0.0448338)
(9 0 -0.0450816)
(9.05 0 -0.0453307)
(9.1 0 -0.0455836)
(9.15 0 -0.0458287)
(9.2 0 -0.0460812)
(9.25 0 -0.0463319)
(9.3 0 -0.046574)
(9.35 0 -0.0468335)
(9.4 0 -0.0470829)
(9.45 0 -0.0473174)
(9.5 0 -0.0475828)
(9.55 0 -0.0478359)
(9.6 0 -0.0480622)
(9.65 0 -0.0483306)
(9.7 0 -0.0485886)
(9.75 0 -0.0488077)
(9.8 0 -0.0490758)
(9.85 0 -0.049343)
(9.9 0 -0.0495568)
(9.95 0 -0.049817)
(10 0 -0.0500925)
(10.05 0 -0.0503139)
(10.1 0 -0.0505627)