/*--------------------------------*- C++ -*----------------------------------*\
| =========                 |                                                 |
| \\      /  F ield         | foam-extend: Open Source CFD                    |
|  \\    /   O peration     | Version:     3.2                                |
|   \\  /    A nd           | Web:         http://www.foam-extend.org         |
|    \\/     M anipulation  | For copyright notice see file Copyright         |
\*---------------------------------------------------------------------------*/
FoamFile
{
    version     2.0;
    format      ascii;
    class       pointVectorField;
    location    "50";
    object      newPoints;
}
// * * * * * * * * * * * * * * * * * * * * * * * * * * * * * * * * * * * * * //

dimensions      [0 1 0 0 0 0 0];

internalField   nonuniform List<vector> 
602
(
(0 0 0)
(0.05 0 -0.00025)
(0.1 0 -0.0005)
(0.15 0 -0.00075)
(0.2 0 -0.001)
(0.25 0 -0.00125)
(0.3 0 -0.0015)
(0.35 0 -0.00175)
(0.4 0 -0.002)
(0.45 0 -0.00225)
(0.5 0 -0.0025)
(0.55 0 -0.00275)
(0.6 0 -0.003)
(0.65 0 -0.00325)
(0.7 0 -0.0035)
(0.75 0 -0.00375)
(0.8 0 -0.004)
(0.85 0 -0.00425)
(0.9 0 -0.0045)
(0.95 0 -0.00475)
(1 0 -0.005)
(1.05 0 -0.00525)
(1.1 0 -0.0055)
(1.15 0 -0.00575)
(1.2 0 -0.006)
(1.25 0 -0.00625)
(1.3 0 -0.0065)
(1.35 0 -0.00675)
(1.4 0 -0.007)
(1.45 0 -0.00725)
(1.5 0 -0.0075)
(1.55 0 -0.00775)
(1.6 0 -0.008)
(1.65 0 -0.00825)
(1.7 0 -0.0085)
(1.75 0 -0.00875)
(1.8 0 -0.009)
(1.85 0 -0.00925)
(1.9 0 -0.0095)
(1.95 0 -0.00975)
(2 0 -0.01)
(2.05 0 -0.01025)
(2.1 0 -0.0105)
(2.15 0 -0.01075)
(2.2 0 -0.011)
(2.25 0 -0.01125)
(2.3 0 -0.0115)
(2.35 0 -0.01175)
(2.4 0 -0.012)
(2.45 0 -0.01225)
(2.5 0 -0.0125)
(2.55 0 -0.01275)
(2.6 0 -0.013)
(2.65 0 -0.01325)
(2.7 0 -0.0135)
(2.75 0 -0.01375)
(2.8 0 -0.014)
(2.85 0 -0.01425)
(2.9 0 -0.0145)
(2.95 0 -0.01475)
(3 0 -0.0159689)
(3.05 0 -0.0175378)
(3.1 0 -0.0183706)
(3.15 0 -0.0189313)
(3.2 0 -0.0193127)
(3.25 0 -0.0196445)
(3.3 0 -0.019916)
(3.35 0 -0.0201983)
(3.4 0 -0.0204412)
(3.45 0 -0.0207239)
(3.5 0 -0.0209507)
(3.55 0 -0.0212233)
(3.6 0 -0.0215044)
(3.65 0 -0.0217437)
(3.7 0 -0.0219296)
(3.75 0 -0.0221986)
(3.8 0 -0.022547)
(3.85 0 -0.0228044)
(3.9 0 -0.0228761)
(3.95 0 -0.023182)
(4 0 -0.0234951)
(4.05 0 -0.0237522)
(4.1 0 -0.0241484)
(4.15 0 -0.0244161)
(4.2 0 -0.0245746)
(4.25 0 -0.024783)
(4.3 0 -0.0249481)
(4.35 0 -0.0251166)
(4.4 0 -0.0255343)
(4.45 0 -0.0257576)
(4.5 0 -0.0257451)
(4.55 0 -0.0261376)
(4.6 0 -0.0267211)
(4.65 0 -0.0266368)
(4.7 0 -0.0265973)
(4.75 0 -0.0273195)
(4.8 0 -0.0277957)
(4.85 0 -0.0274599)
(4.9 0 -0.0275565)
(4.95 0 -0.0283445)
(5 0 -0.0287375)
(5.05 0 -0.0285228)
(5.1 0 -0.0286094)
(5.15 0 -0.0291915)
(5.2 0 -0.0296782)
(5.25 0 -0.0297518)
(5.3 0 -0.029766)
(5.35 0 -0.030047)
(5.4 0 -0.0304892)
(5.45 0 -0.0308024)
(5.5 0 -0.0309493)
(5.55 0 -0.0310901)
(5.6 0 -0.0313085)
(5.65 0 -0.0315714)
(5.7 0 -0.031858)
(5.75 0 -0.0321539)
(5.8 0 -0.0324409)
(5.85 0 -0.0327045)
(5.9 0 -0.0329494)
(5.95 0 -0.0331937)
(6 0 -0.0334474)
(6.05 0 -0.0336994)
(6.1 0 -0.0339432)
(6.15 0 -0.0341869)
(6.2 0 -0.0344363)
(6.25 0 -0.0346881)
(6.3 0 -0.0349389)
(6.35 0 -0.0351883)
(6.4 0 -0.0354372)
(6.45 0 -0.0356859)
(6.5 0 -0.0359347)
(6.55 0 -0.0361838)
(6.6 0 -0.0364329)
(6.65 0 -0.0366822)
(6.7 0 -0.0369319)
(6.75 0 -0.0371816)
(6.8 0 -0.0374314)
(6.85 0 -0.0376813)
(6.9 0 -0.0379312)
(6.95 0 -0.0381811)
(7 0 -0.038431)
(7.05 0 -0.038681)
(7.1 0 -0.0389308)
(7.15 0 -0.0391806)
(7.2 0 -0.0394305)
(7.25 0 -0.0396801)
(7.3 0 -0.0399298)
(7.35 0 -0.0401798)
(7.4 0 -0.0404295)
(7.45 0 -0.0406795)
(7.5 0 -0.0409293)
(7.55 0 -0.0411783)
(7.6 0 -0.0414285)
(7.65 0 -0.0416789)
(7.7 0 -0.0419278)
(7.75 0 -0.042177)
(7.8 0 -0.0424272)
(7.85 0 -0.0426777)
(7.9 0 -0.0429275)
(7.95 0 -0.0431762)
(8 0 -0.0434256)
(8.05 0 -0.0436764)
(8.1 0 -0.0439263)
(8.15 0 -0.0441749)
(8.2 0 -0.0444247)
(8.25 0 -0.0446751)
(8.3 0 -0.0449246)
(8.35 0 -0.045174)
(8.4 0 -0.0454238)
(8.45 0 -0.0456739)
(8.5 0 -0.0459232)
(8.55 0 -0.0461721)
(8.6 0 -0.0464223)
(8.65 0 -0.0466726)
(8.7 0 -0.0469211)
(8.75 0 -0.0471706)
(8.8 0 -0.047422)
(8.85 0 -0.0476708)
(8.9 0 -0.0479187)
(8.95 0 -0.0481708)
(9 0 -0.0484187)
(9.05 0 -0.0486677)
(9.1 0 -0.0489207)
(9.15 0 -0.0491657)
(9.2 0 -0.0494183)
(9.25 0 -0.049669)
(9.3 0 -0.0499109)
(9.35 0 -0.0501707)
(9.4 0 -0.05042)
(9.45 0 -0.0506543)
(9.5 0 -0.0509199)
(9.55 0 -0.0511731)
(9.6 0 -0.051399)
(9.65 0 -0.0516677)
(9.7 0 -0.0519259)
(9.75 0 -0.0521445)
(9.8 0 -0.0524129)
(9.85 0 -0.0526803)
(9.9 0 -0.0528936)
(9.95 0 -0.0531539)
(10 0 -0.0534298)
(10.05 0 -0.0536508)
(10.1 0 -0.0538997)
(10.15 0 -0.0541687)
(10.2 0 -0.0544012)
(10.25 0 -0.054657)
(10.3 0 -0.054916)
(10.35 0 -0.0551407)
(10.4 0 -0.0554038)
(10.45 0 -0.055672)
(10.5 0 -0.0558924)
(10.55 0 -0.0561461)
(10.6 0 -0.0564149)
(10.65 0 -0.0566431)
(10.7 0 -0.0569)
(10.75 0 -0.057165)
(10.8 0 -0.0573881)
(10.85 0 -0.0576443)
(10.9 0 -0.0579137)
(10.95 0 -0.0581409)
(11 0 -0.0583977)
(11.05 0 -0.0586661)
(11.1 0 -0.0588912)
(11.15 0 -0.059146)
(11.2 0 -0.0594141)
(11.25 0 -0.059639)
(11.3 0 -0.0598933)
(11.35 0 -0.0601618)
(11.4 0 -0.0603871)
(11.45 0 -0.0606408)
(11.5 0 -0.0609097)
(11.55 0 -0.0611351)
(11.6 0 -0.0613885)
(11.65 0 -0.0616577)
(11.7 0 -0.0618832)
(11.75 0 -0.062136)
(11.8 0 -0.0624057)
(11.85 0 -0.0626314)
(11.9 0 -0.0628836)
(11.95 0 -0.0631537)
(12 0 -0.0633797)
(12.05 0 -0.0636313)
(12.1 0 -0.0639016)
(12.15 0 -0.0641279)
(12.2 0 -0.064379)
(12.25 0 -0.0646496)
(12.3 0 -0.0648761)
(12.35 0 -0.0651269)
(12.4 0 -0.0653977)
(12.45 0 -0.0656246)
(12.5 0 -0.0658746)
(12.55 0 -0.0661459)
(12.6 0 -0.0663731)
(12.65 0 -0.0666221)
(12.7 0 -0.0668947)
(12.75 0 -0.067121)
(12.8 0 -0.067371)
(12.85 0 -0.0676423)
(12.9 0 -0.0678699)
(12.95 0 -0.0681197)
(13 0 -0.0683893)
(13.05 0 -0.0686216)
(13.1 0 -0.0688638)
(13.15 0 -0.0691411)
(13.2 0 -0.069368)
(13.25 0 -0.0696151)
(13.3 0 -0.069887)
(13.35 0 -0.0701191)
(13.4 0 -0.0703679)
(13.45 0 -0.0706212)
(13.5 0 -0.0708817)
(13.55 0 -0.0711144)
(13.6 0 -0.0713734)
(13.65 0 -0.0716168)
(13.7 0 -0.0718736)
(13.75 0 -0.0721241)
(13.8 0 -0.0723683)
(13.85 0 -0.0726136)
(13.9 0 -0.0728674)
(13.95 0 -0.0731319)
(14 0 -0.0733676)
(14.05 0 -0.0736124)
(14.1 0 -0.073861)
(14.15 0 -0.0741311)
(14.2 0 -0.0743659)
(14.25 0 -0.07462)
(14.3 0 -0.0748601)
(14.35 0 -0.0751269)
(14.4 0 -0.0753672)
(14.45 0 -0.07563)
(14.5 0 -0.0758666)
(14.55 0 -0.0761303)
(14.6 0 -0.0763702)
(14.65 0 -0.0766149)
(14.7 0 -0.0769126)
(14.75 0 -0.0768514)
(14.8 0 -0.0754187)
(14.85 0 -0.07425)
(14.9 0 -0.0745)
(14.95 0 -0.07475)
(15 0 -0.075)
(0 0.02 0)
(0.05 0.02 -0.00025)
(0.1 0.02 -0.0005)
(0.15 0.02 -0.00075)
(0.2 0.02 -0.001)
(0.25 0.02 -0.00125)
(0.3 0.02 -0.0015)
(0.35 0.02 -0.00175)
(0.4 0.02 -0.002)
(0.45 0.02 -0.00225)
(0.5 0.02 -0.0025)
(0.55 0.02 -0.00275)
(0.6 0.02 -0.003)
(0.65 0.02 -0.00325)
(0.7 0.02 -0.0035)
(0.75 0.02 -0.00375)
(0.8 0.02 -0.004)
(0.85 0.02 -0.00425)
(0.9 0.02 -0.0045)
(0.95 0.02 -0.00475)
(1 0.02 -0.005)
(1.05 0.02 -0.00525)
(1.1 0.02 -0.0055)
(1.15 0.02 -0.00575)
(1.2 0.02 -0.006)
(1.25 0.02 -0.00625)
(1.3 0.02 -0.0065)
(1.35 0.02 -0.00675)
(1.4 0.02 -0.007)
(1.45 0.02 -0.00725)
(1.5 0.02 -0.0075)
(1.55 0.02 -0.00775)
(1.6 0.02 -0.008)
(1.65 0.02 -0.00825)
(1.7 0.02 -0.0085)
(1.75 0.02 -0.00875)
(1.8 0.02 -0.009)
(1.85 0.02 -0.00925)
(1.9 0.02 -0.0095)
(1.95 0.02 -0.00975)
(2 0.02 -0.01)
(2.05 0.02 -0.01025)
(2.1 0.02 -0.0105)
(2.15 0.02 -0.01075)
(2.2 0.02 -0.011)
(2.25 0.02 -0.01125)
(2.3 0.02 -0.0115)
(2.35 0.02 -0.01175)
(2.4 0.02 -0.012)
(2.45 0.02 -0.01225)
(2.5 0.02 -0.0125)
(2.55 0.02 -0.01275)
(2.6 0.02 -0.013)
(2.65 0.02 -0.01325)
(2.7 0.02 -0.0135)
(2.75 0.02 -0.01375)
(2.8 0.02 -0.014)
(2.85 0.02 -0.01425)
(2.9 0.02 -0.0145)
(2.95 0.02 -0.01475)
(3 0.02 -0.0159689)
(3.05 0.02 -0.0175378)
(3.1 0.02 -0.0183706)
(3.15 0.02 -0.0189313)
(3.2 0.02 -0.0193127)
(3.25 0.02 -0.0196445)
(3.3 0.02 -0.019916)
(3.35 0.02 -0.0201983)
(3.4 0.02 -0.0204412)
(3.45 0.02 -0.0207239)
(3.5 0.02 -0.0209507)
(3.55 0.02 -0.0212233)
(3.6 0.02 -0.0215044)
(3.65 0.02 -0.0217437)
(3.7 0.02 -0.0219296)
(3.75 0.02 -0.0221986)
(3.8 0.02 -0.022547)
(3.85 0.02 -0.0228044)
(3.9 0.02 -0.0228761)
(3.95 0.02 -0.023182)
(4 0.02 -0.0234951)
(4.05 0.02 -0.0237522)
(4.1 0.02 -0.0241484)
(4.15 0.02 -0.0244161)
(4.2 0.02 -0.0245746)
(4.25 0.02 -0.024783)
(4.3 0.02 -0.0249481)
(4.35 0.02 -0.0251166)
(4.4 0.02 -0.0255343)
(4.45 0.02 -0.0257576)
(4.5 0.02 -0.0257451)
(4.55 0.02 -0.0261376)
(4.6 0.02 -0.0267211)
(4.65 0.02 -0.0266368)
(4.7 0.02 -0.0265973)
(4.75 0.02 -0.0273195)
(4.8 0.02 -0.0277957)
(4.85 0.02 -0.0274599)
(4.9 0.02 -0.0275565)
(4.95 0.02 -0.0283445)
(5 0.02 -0.0287375)
(5.05 0.02 -0.0285228)
(5.1 0.02 -0.0286094)
(5.15 0.02 -0.0291915)
(5.2 0.02 -0.0296782)
(5.25 0.02 -0.0297518)
(5.3 0.02 -0.029766)
(5.35 0.02 -0.030047)
(5.4 0.02 -0.0304892)
(5.45 0.02 -0.0308024)
(5.5 0.02 -0.0309493)
(5.55 0.02 -0.0310901)
(5.6 0.02 -0.0313085)
(5.65 0.02 -0.0315714)
(5.7 0.02 -0.031858)
(5.75 0.02 -0.0321539)
(5.8 0.02 -0.0324409)
(5.85 0.02 -0.0327045)
(5.9 0.02 -0.0329494)
(5.95 0.02 -0.0331937)
(6 0.02 -0.0334474)
(6.05 0.02 -0.0336994)
(6.1 0.02 -0.0339432)
(6.15 0.02 -0.0341869)
(6.2 0.02 -0.0344363)
(6.25 0.02 -0.0346881)
(6.3 0.02 -0.0349389)
(6.35 0.02 -0.0351883)
(6.4 0.02 -0.0354372)
(6.45 0.02 -0.0356859)
(6.5 0.02 -0.0359347)
(6.55 0.02 -0.0361838)
(6.6 0.02 -0.0364329)
(6.65 0.02 -0.0366822)
(6.7 0.02 -0.0369319)
(6.75 0.02 -0.0371816)
(6.8 0.02 -0.0374314)
(6.85 0.02 -0.0376813)
(6.9 0.02 -0.0379312)
(6.95 0.02 -0.0381811)
(7 0.02 -0.038431)
(7.05 0.02 -0.038681)
(7.1 0.02 -0.0389308)
(7.15 0.02 -0.0391806)
(7.2 0.02 -0.0394305)
(7.25 0.02 -0.0396801)
(7.3 0.02 -0.0399298)
(7.35 0.02 -0.0401798)
(7.4 0.02 -0.0404295)
(7.45 0.02 -0.0406795)
(7.5 0.02 -0.0409293)
(7.55 0.02 -0.0411783)
(7.6 0.02 -0.0414285)
(7.65 0.02 -0.0416789)
(7.7 0.02 -0.0419278)
(7.75 0.02 -0.042177)
(7.8 0.02 -0.0424272)
(7.85 0.02 -0.0426777)
(7.9 0.02 -0.0429275)
(7.95 0.02 -0.0431762)
(8 0.02 -0.0434256)
(8.05 0.02 -0.0436764)
(8.1 0.02 -0.0439263)
(8.15 0.02 -0.0441749)
(8.2 0.02 -0.0444247)
(8.25 0.02 -0.0446751)
(8.3 0.02 -0.0449246)
(8.35 0.02 -0.045174)
(8.4 0.02 -0.0454238)
(8.45 0.02 -0.0456739)
(8.5 0.02 -0.0459232)
(8.55 0.02 -0.0461721)
(8.6 0.02 -0.0464223)
(8.65 0.02 -0.0466726)
(8.7 0.02 -0.0469211)
(8.75 0.02 -0.0471706)
(8.8 0.02 -0.047422)
(8.85 0.02 -0.0476708)
(8.9 0.02 -0.0479187)
(8.95 0.02 -0.0481708)
(9 0.02 -0.0484187)
(9.05 0.02 -0.0486677)
(9.1 0.02 -0.0489207)
(9.15 0.02 -0.0491657)
(9.2 0.02 -0.0494183)
(9.25 0.02 -0.049669)
(9.3 0.02 -0.0499109)
(9.35 0.02 -0.0501707)
(9.4 0.02 -0.05042)
(9.45 0.02 -0.0506543)
(9.5 0.02 -0.0509199)
(9.55 0.02 -0.0511731)
(9.6 0.02 -0.051399)
(9.65 0.02 -0.0516677)
(9.7 0.02 -0.0519259)
(9.75 0.02 -0.0521445)
(9.8 0.02 -0.0524129)
(9.85 0.02 -0.0526803)
(9.9 0.02 -0.0528936)
(9.95 0.02 -0.0531539)
(10 0.02 -0.0534298)
(10.05 0.02 -0.0536508)
(10.1 0.02 -0.0538997)
(10.15 0.02 -0.0541687)
(10.2 0.02 -0.0544012)
(10.25 0.02 -0.054657)
(10.3 0.02 -0.054916)
(10.35 0.02 -0.0551407)
(10.4 0.02 -0.0554038)
(10.45 0.02 -0.055672)
(10.5 0.02 -0.0558924)
(10.55 0.02 -0.0561461)
(10.6 0.02 -0.0564149)
(10.65 0.02 -0.0566431)
(10.7 0.02 -0.0569)
(10.75 0.02 -0.057165)
(10.8 0.02 -0.0573881)
(10.85 0.02 -0.0576443)
(10.9 0.02 -0.0579137)
(10.95 0.02 -0.0581409)
(11 0.02 -0.0583977)
(11.05 0.02 -0.0586661)
(11.1 0.02 -0.0588912)
(11.15 0.02 -0.059146)
(11.2 0.02 -0.0594141)
(11.25 0.02 -0.059639)
(11.3 0.02 -0.0598933)
(11.35 0.02 -0.0601618)
(11.4 0.02 -0.0603871)
(11.45 0.02 -0.0606408)
(11.5 0.02 -0.0609097)
(11.55 0.02 -0.0611351)
(11.6 0.02 -0.0613885)
(11.65 0.02 -0.0616577)
(11.7 0.02 -0.0618832)
(11.75 0.02 -0.062136)
(11.8 0.02 -0.0624057)
(11.85 0.02 -0.0626314)
(11.9 0.02 -0.0628836)
(11.95 0.02 -0.0631537)
(12 0.02 -0.0633797)
(12.05 0.02 -0.0636313)
(12.1 0.02 -0.0639016)
(12.15 0.02 -0.0641279)
(12.2 0.02 -0.064379)
(12.25 0.02 -0.0646496)
(12.3 0.02 -0.0648761)
(12.35 0.02 -0.0651269)
(12.4 0.02 -0.0653977)
(12.45 0.02 -0.0656246)
(12.5 0.02 -0.0658746)
(12.55 0.02 -0.0661459)
(12.6 0.02 -0.0663731)
(12.65 0.02 -0.0666221)
(12.7 0.02 -0.0668947)
(12.75 0.02 -0.067121)
(12.8 0.02 -0.067371)
(12.85 0.02 -0.0676423)
(12.9 0.02 -0.0678699)
(12.95 0.02 -0.0681197)
(13 0.02 -0.0683893)
(13.05 0.02 -0.0686216)
(13.1 0.02 -0.0688638)
(13.15 0.02 -0.0691411)
(13.2 0.02 -0.069368)
(13.25 0.02 -0.0696151)
(13.3 0.02 -0.069887)
(13.35 0.02 -0.0701191)
(13.4 0.02 -0.0703679)
(13.45 0.02 -0.0706212)
(13.5 0.02 -0.0708817)
(13.55 0.02 -0.0711144)
(13.6 0.02 -0.0713734)
(13.65 0.02 -0.0716168)
(13.7 0.02 -0.0718736)
(13.75 0.02 -0.0721241)
(13.8 0.02 -0.0723683)
(13.85 0.02 -0.0726136)
(13.9 0.02 -0.0728674)
(13.95 0.02 -0.0731319)
(14 0.02 -0.0733676)
(14.05 0.02 -0.0736124)
(14.1 0.02 -0.073861)
(14.15 0.02 -0.0741311)
(14.2 0.02 -0.0743659)
(14.25 0.02 -0.07462)
(14.3 0.02 -0.0748601)
(14.35 0.02 -0.0751269)
(14.4 0.02 -0.0753672)
(14.45 0.02 -0.07563)
(14.5 0.02 -0.0758666)
(14.55 0.02 -0.0761303)
(14.6 0.02 -0.0763702)
(14.65 0.02 -0.0766149)
(14.7 0.02 -0.0769126)
(14.75 0.02 -0.0768514)
(14.8 0.02 -0.0754187)
(14.85 0.02 -0.07425)
(14.9 0.02 -0.0745)
(14.95 0.02 -0.07475)
(15 0.02 -0.075)
)
;

boundaryField
{
    inlet
    {
        type            zeroGradient;
    }
    outlet
    {
        type            zeroGradient;
    }
    sideWall
    {
        type            empty;
    }
    bed
    {
        type            zeroGradient;
    }
    topWall
    {
        type            zeroGradient;
    }
}


// ************************************************************************* //
