/*--------------------------------*- C++ -*----------------------------------*\
| =========                 |                                                 |
| \\      /  F ield         | foam-extend: Open Source CFD                    |
|  \\    /   O peration     | Version:     3.2                                |
|   \\  /    A nd           | Web:         http://www.foam-extend.org         |
|    \\/     M anipulation  | For copyright notice see file Copyright         |
\*---------------------------------------------------------------------------*/
FoamFile
{
    version     2.0;
    format      ascii;
    class       volScalarField;
    location    "50";
    object      nut;
}
// * * * * * * * * * * * * * * * * * * * * * * * * * * * * * * * * * * * * * //

dimensions      [0 2 -1 0 0 0 0];

internalField   nonuniform List<scalar> 
5400
(
3.28997e-05
2.61954e-05
2.24672e-05
2.25051e-05
2.2144e-05
2.21433e-05
2.19665e-05
2.1958e-05
2.18946e-05
2.19187e-05
2.19245e-05
2.19658e-05
2.20074e-05
2.20732e-05
2.21349e-05
2.22127e-05
2.22918e-05
2.23802e-05
2.24678e-05
2.25635e-05
2.26642e-05
2.27676e-05
2.28738e-05
2.29811e-05
2.30893e-05
2.31985e-05
2.33004e-05
2.33891e-05
2.3464e-05
2.35266e-05
2.35789e-05
2.36221e-05
2.36583e-05
2.3688e-05
2.3713e-05
2.37333e-05
2.37508e-05
2.37648e-05
2.37773e-05
2.37869e-05
2.3796e-05
2.38025e-05
2.38095e-05
2.38138e-05
2.38195e-05
2.3822e-05
2.38269e-05
2.38281e-05
2.38334e-05
2.38312e-05
2.38401e-05
2.38299e-05
2.38494e-05
2.3821e-05
2.38694e-05
2.37932e-05
2.39191e-05
2.37304e-05
2.40992e-05
2.33326e-05
1.99753e-05
1.97949e-05
2.01221e-05
2.01979e-05
2.04308e-05
2.04648e-05
2.05374e-05
2.0584e-05
2.0585e-05
2.06e-05
2.0655e-05
2.05554e-05
2.05225e-05
2.06468e-05
2.06949e-05
2.05293e-05
2.02975e-05
2.06954e-05
2.07678e-05
2.04102e-05
2.06356e-05
2.03834e-05
2.02133e-05
2.04708e-05
2.04876e-05
2.04443e-05
2.07798e-05
2.05416e-05
2.01466e-05
2.08084e-05
2.10572e-05
1.99649e-05
2.01478e-05
2.1356e-05
2.07699e-05
1.94948e-05
2.06098e-05
2.16405e-05
2.04316e-05
1.96737e-05
2.06926e-05
2.12551e-05
2.06556e-05
2.01031e-05
2.02232e-05
2.07972e-05
2.08781e-05
2.04453e-05
2.03116e-05
2.04804e-05
2.06459e-05
2.06708e-05
2.06511e-05
2.06191e-05
2.05617e-05
2.05233e-05
2.05087e-05
2.05165e-05
2.05339e-05
2.0531e-05
2.05206e-05
2.05278e-05
2.05405e-05
2.05414e-05
2.05368e-05
2.05351e-05
2.05357e-05
2.05367e-05
2.05377e-05
2.0539e-05
2.05395e-05
2.054e-05
2.05406e-05
2.05406e-05
2.05408e-05
2.05413e-05
2.05403e-05
2.05403e-05
2.05408e-05
2.05409e-05
2.0541e-05
2.05407e-05
2.05411e-05
2.05412e-05
2.05413e-05
2.05419e-05
2.05416e-05
2.05417e-05
2.05418e-05
2.05409e-05
2.05427e-05
2.05431e-05
2.05408e-05
2.05424e-05
2.05443e-05
2.0544e-05
2.05431e-05
2.05422e-05
2.0544e-05
2.0546e-05
2.0544e-05
2.05424e-05
2.05454e-05
2.05463e-05
2.05442e-05
2.05446e-05
2.05457e-05
2.05458e-05
2.05453e-05
2.0545e-05
2.05476e-05
2.05474e-05
2.05449e-05
2.0547e-05
2.05498e-05
2.05465e-05
2.05441e-05
2.0552e-05
2.0548e-05
2.05445e-05
2.05562e-05
2.05428e-05
2.05486e-05
2.05571e-05
2.05364e-05
2.05614e-05
2.05577e-05
2.05221e-05
2.05729e-05
2.05668e-05
2.05071e-05
2.05783e-05
2.05783e-05
2.04959e-05
2.05787e-05
2.05938e-05
2.04892e-05
2.05659e-05
2.06157e-05
2.04978e-05
2.05433e-05
2.06091e-05
2.05232e-05
2.05499e-05
2.05847e-05
2.05189e-05
2.05708e-05
2.05982e-05
2.05061e-05
2.05583e-05
2.0611e-05
2.05193e-05
2.05566e-05
2.05985e-05
2.05162e-05
2.05628e-05
2.06104e-05
2.05184e-05
2.05569e-05
2.0604e-05
2.05158e-05
2.05556e-05
2.06066e-05
2.05181e-05
2.05565e-05
2.06092e-05
2.05204e-05
2.05568e-05
2.06111e-05
2.05225e-05
2.05574e-05
2.0613e-05
2.05245e-05
2.05578e-05
2.06153e-05
2.05266e-05
2.0558e-05
2.06172e-05
2.05291e-05
2.05584e-05
2.0619e-05
2.05315e-05
2.05591e-05
2.06208e-05
2.05336e-05
2.05599e-05
2.06226e-05
2.05359e-05
2.05606e-05
2.0624e-05
2.05392e-05
2.05599e-05
2.06278e-05
2.05398e-05
2.05609e-05
2.063e-05
2.05393e-05
2.05674e-05
2.06234e-05
2.05517e-05
2.05584e-05
2.06326e-05
2.05528e-05
2.05539e-05
2.06413e-05
2.05413e-05
2.05794e-05
2.05981e-05
2.0595e-05
2.0558e-05
2.05909e-05
2.05942e-05
2.05775e-05
2.05981e-05
2.05656e-05
2.05935e-05
2.05871e-05
2.06132e-05
2.05548e-05
2.05859e-05
2.05954e-05
2.06199e-05
2.05566e-05
2.05884e-05
2.05847e-05
2.06081e-05
2.05721e-05
2.05928e-05
2.05703e-05
2.05959e-05
2.05746e-05
2.05907e-05
2.05693e-05
2.0609e-05
2.03207e-05
2.22819e-05
2.5721e-05
2.47847e-05
2.35444e-05
2.38154e-05
3.1309e-05
4.16988e-05
4.53696e-05
4.81185e-05
4.98853e-05
5.07396e-05
5.13841e-05
5.17724e-05
5.21772e-05
5.24909e-05
5.28081e-05
5.31135e-05
5.34153e-05
5.37287e-05
5.40297e-05
5.43315e-05
5.46363e-05
5.49397e-05
5.52465e-05
5.55517e-05
5.58533e-05
5.61518e-05
5.64443e-05
5.67292e-05
5.70045e-05
5.72569e-05
5.7472e-05
5.76434e-05
5.77765e-05
5.78795e-05
5.79593e-05
5.80218e-05
5.80705e-05
5.81094e-05
5.81399e-05
5.8165e-05
5.81847e-05
5.82016e-05
5.82147e-05
5.82268e-05
5.82357e-05
5.82448e-05
5.8251e-05
5.82583e-05
5.82625e-05
5.8268e-05
5.82715e-05
5.82754e-05
5.82793e-05
5.82801e-05
5.82865e-05
5.82812e-05
5.82938e-05
5.82763e-05
5.8306e-05
5.82579e-05
5.83336e-05
5.82213e-05
5.83184e-05
5.64827e-05
5.53224e-05
5.4238e-05
5.30918e-05
5.24807e-05
5.18998e-05
5.16096e-05
5.13637e-05
5.12639e-05
5.10792e-05
5.10581e-05
5.09181e-05
5.08279e-05
5.07594e-05
5.07338e-05
5.06778e-05
5.05869e-05
5.05947e-05
5.05779e-05
5.05324e-05
5.04213e-05
5.05303e-05
5.03223e-05
5.03505e-05
5.02701e-05
5.01869e-05
5.02467e-05
5.04209e-05
5.03328e-05
5.03764e-05
5.05855e-05
5.04136e-05
5.02882e-05
5.04354e-05
5.07024e-05
5.031e-05
5.05033e-05
5.06107e-05
5.06079e-05
5.04892e-05
5.06255e-05
5.05932e-05
5.03877e-05
5.0481e-05
5.04669e-05
5.04378e-05
5.04328e-05
5.04136e-05
5.05293e-05
5.05242e-05
5.0435e-05
5.04125e-05
5.05051e-05
5.06157e-05
5.06566e-05
5.06506e-05
5.06004e-05
5.05513e-05
5.05211e-05
5.04967e-05
5.04925e-05
5.04892e-05
5.04904e-05
5.04885e-05
5.04909e-05
5.04959e-05
5.04981e-05
5.04965e-05
5.04955e-05
5.04965e-05
5.04973e-05
5.04989e-05
5.05004e-05
5.05015e-05
5.0503e-05
5.05045e-05
5.0505e-05
5.05051e-05
5.05059e-05
5.05069e-05
5.05066e-05
5.05067e-05
5.05071e-05
5.05076e-05
5.05082e-05
5.05087e-05
5.05092e-05
5.05096e-05
5.05099e-05
5.05099e-05
5.05106e-05
5.05113e-05
5.05119e-05
5.05114e-05
5.05128e-05
5.0513e-05
5.05132e-05
5.0514e-05
5.05143e-05
5.05142e-05
5.05149e-05
5.05156e-05
5.05162e-05
5.05168e-05
5.05171e-05
5.05171e-05
5.05183e-05
5.0519e-05
5.05194e-05
5.05195e-05
5.052e-05
5.05207e-05
5.05214e-05
5.05219e-05
5.05225e-05
5.05232e-05
5.05232e-05
5.0522e-05
5.05266e-05
5.05246e-05
5.05249e-05
5.05315e-05
5.05243e-05
5.05295e-05
5.05317e-05
5.05222e-05
5.05363e-05
5.05307e-05
5.05178e-05
5.0545e-05
5.05348e-05
5.05171e-05
5.05512e-05
5.05388e-05
5.05163e-05
5.0554e-05
5.05472e-05
5.05193e-05
5.05492e-05
5.05569e-05
5.05057e-05
5.05426e-05
5.05637e-05
5.0516e-05
5.05488e-05
5.05566e-05
5.05312e-05
5.05534e-05
5.05656e-05
5.05259e-05
5.05523e-05
5.05708e-05
5.0523e-05
5.05572e-05
5.05746e-05
5.0529e-05
5.05567e-05
5.05763e-05
5.05274e-05
5.056e-05
5.05762e-05
5.05271e-05
5.05559e-05
5.05742e-05
5.05258e-05
5.05561e-05
5.05764e-05
5.05279e-05
5.05584e-05
5.05794e-05
5.05306e-05
5.0561e-05
5.05823e-05
5.05334e-05
5.05634e-05
5.05852e-05
5.05361e-05
5.05659e-05
5.05881e-05
5.05389e-05
5.05684e-05
5.0591e-05
5.05418e-05
5.05709e-05
5.05938e-05
5.05446e-05
5.05734e-05
5.05965e-05
5.05474e-05
5.05757e-05
5.05989e-05
5.05503e-05
5.05775e-05
5.06016e-05
5.05525e-05
5.05808e-05
5.06044e-05
5.0554e-05
5.05835e-05
5.06049e-05
5.05598e-05
5.05805e-05
5.06026e-05
5.05674e-05
5.05862e-05
5.06142e-05
5.05585e-05
5.05942e-05
5.05912e-05
5.05836e-05
5.05933e-05
5.05947e-05
5.05889e-05
5.05886e-05
5.06003e-05
5.05782e-05
5.06006e-05
5.05932e-05
5.06103e-05
5.05864e-05
5.05989e-05
5.05916e-05
5.05932e-05
5.0596e-05
5.06045e-05
5.06006e-05
5.05868e-05
5.06e-05
5.05921e-05
5.06008e-05
5.05881e-05
5.059e-05
5.05964e-05
5.05758e-05
5.05468e-05
5.09137e-05
5.2396e-05
5.40547e-05
5.43613e-05
5.54319e-05
5.6462e-05
2.85091e-05
4.53222e-05
5.33724e-05
6.23143e-05
6.91947e-05
7.26419e-05
7.49228e-05
7.67531e-05
7.81502e-05
7.93956e-05
8.0404e-05
8.13495e-05
8.22076e-05
8.29981e-05
8.37557e-05
8.44626e-05
8.51458e-05
8.58076e-05
8.64466e-05
8.70639e-05
8.7658e-05
8.82282e-05
8.8772e-05
8.9285e-05
8.97675e-05
9.01871e-05
9.05026e-05
9.0726e-05
9.08827e-05
9.09915e-05
9.10677e-05
9.11198e-05
9.11564e-05
9.11808e-05
9.11986e-05
9.12102e-05
9.12195e-05
9.12256e-05
9.12315e-05
9.12354e-05
9.12399e-05
9.12428e-05
9.1247e-05
9.12494e-05
9.12533e-05
9.12547e-05
9.12584e-05
9.12603e-05
9.12629e-05
9.12652e-05
9.12651e-05
9.12674e-05
9.1267e-05
9.12685e-05
9.12658e-05
9.12678e-05
9.12624e-05
9.13248e-05
9.11361e-05
8.68551e-05
8.70136e-05
8.73573e-05
8.62943e-05
8.53153e-05
8.39251e-05
8.30693e-05
8.22846e-05
8.17738e-05
8.12495e-05
8.10208e-05
8.05956e-05
8.03605e-05
8.02546e-05
8.01236e-05
7.97915e-05
7.96599e-05
7.9957e-05
7.98321e-05
7.93663e-05
7.95571e-05
7.93855e-05
7.92208e-05
7.95202e-05
7.92513e-05
7.91318e-05
7.93443e-05
7.921e-05
7.90103e-05
7.97857e-05
7.97583e-05
7.88158e-05
7.93795e-05
8.02813e-05
7.9325e-05
7.86507e-05
7.99902e-05
8.03293e-05
7.87298e-05
7.9001e-05
8.01737e-05
7.997e-05
7.90978e-05
7.93388e-05
7.95613e-05
7.98403e-05
7.9621e-05
7.91517e-05
7.94312e-05
7.96463e-05
7.95484e-05
7.95111e-05
7.9542e-05
7.96317e-05
7.96571e-05
7.96586e-05
7.9624e-05
7.95837e-05
7.95538e-05
7.95249e-05
7.94992e-05
7.95003e-05
7.94999e-05
7.9495e-05
7.94886e-05
7.9493e-05
7.94947e-05
7.94939e-05
7.94936e-05
7.94941e-05
7.9495e-05
7.94969e-05
7.94993e-05
7.95013e-05
7.95035e-05
7.95049e-05
7.95051e-05
7.95079e-05
7.95104e-05
7.95111e-05
7.95107e-05
7.95102e-05
7.95115e-05
7.95123e-05
7.95126e-05
7.95137e-05
7.9514e-05
7.95145e-05
7.95162e-05
7.95164e-05
7.95184e-05
7.9519e-05
7.95179e-05
7.952e-05
7.95207e-05
7.95203e-05
7.95203e-05
7.95209e-05
7.9523e-05
7.95235e-05
7.95223e-05
7.95231e-05
7.95276e-05
7.95268e-05
7.95254e-05
7.95281e-05
7.95302e-05
7.95302e-05
7.95304e-05
7.95308e-05
7.95331e-05
7.95333e-05
7.95328e-05
7.95366e-05
7.95381e-05
7.95348e-05
7.95356e-05
7.95422e-05
7.95396e-05
7.95368e-05
7.95473e-05
7.95398e-05
7.95444e-05
7.95546e-05
7.9537e-05
7.95543e-05
7.95516e-05
7.9525e-05
7.95698e-05
7.95604e-05
7.95149e-05
7.95846e-05
7.95755e-05
7.95041e-05
7.9591e-05
7.95921e-05
7.9499e-05
7.9586e-05
7.96132e-05
7.95069e-05
7.9563e-05
7.96156e-05
7.95302e-05
7.95593e-05
7.96032e-05
7.95436e-05
7.95864e-05
7.96052e-05
7.95285e-05
7.95861e-05
7.96218e-05
7.95385e-05
7.95779e-05
7.96197e-05
7.95497e-05
7.95904e-05
7.96248e-05
7.95457e-05
7.95846e-05
7.96266e-05
7.9552e-05
7.95863e-05
7.96255e-05
7.95486e-05
7.95837e-05
7.9626e-05
7.95499e-05
7.95849e-05
7.96296e-05
7.95538e-05
7.95875e-05
7.96336e-05
7.95577e-05
7.95903e-05
7.9638e-05
7.95615e-05
7.95928e-05
7.96423e-05
7.95655e-05
7.95952e-05
7.96463e-05
7.95695e-05
7.95977e-05
7.965e-05
7.95731e-05
7.96002e-05
7.96537e-05
7.95766e-05
7.96025e-05
7.96568e-05
7.95796e-05
7.96035e-05
7.96611e-05
7.95821e-05
7.96057e-05
7.96663e-05
7.95864e-05
7.96113e-05
7.96626e-05
7.95882e-05
7.9606e-05
7.9664e-05
7.95898e-05
7.95988e-05
7.96855e-05
7.96021e-05
7.96221e-05
7.96576e-05
7.96131e-05
7.96107e-05
7.96319e-05
7.96538e-05
7.96034e-05
7.96434e-05
7.96145e-05
7.96355e-05
7.96346e-05
7.96396e-05
7.96128e-05
7.96393e-05
7.96586e-05
7.96264e-05
7.96036e-05
7.96315e-05
7.96646e-05
7.9628e-05
7.96347e-05
7.96209e-05
7.96444e-05
7.96188e-05
7.96433e-05
7.96015e-05
7.96491e-05
7.95987e-05
7.94324e-05
8.0763e-05
8.30923e-05
8.41238e-05
8.30498e-05
8.44925e-05
8.69315e-05
2.69991e-05
3.92627e-05
4.9852e-05
6.30566e-05
7.43328e-05
8.2571e-05
8.91205e-05
9.32283e-05
9.65041e-05
9.93118e-05
0.000101624
0.000103675
0.000105485
0.000107129
0.000108639
0.000110015
0.000111311
0.00011253
0.000113682
0.00011477
0.000115794
0.000116756
0.000117652
0.000118477
0.000119231
0.000119856
0.000120302
0.000120599
0.00012079
0.000120908
0.000120976
0.000121011
0.000121025
0.000121026
0.000121019
0.000121009
0.000120998
0.000120986
0.000120977
0.000120968
0.000120962
0.000120956
0.000120953
0.00012095
0.000120948
0.000120947
0.000120947
0.000120947
0.000120946
0.000120948
0.000120946
0.000120949
0.000120945
0.000120951
0.000120941
0.000120954
0.00012093
0.000121041
0.000120643
0.000114605
0.000112923
0.000116603
0.000116593
0.000115869
0.000114223
0.000113005
0.000111739
0.000110788
0.000109873
0.000109329
0.000108584
0.00010811
0.000107893
0.000107597
0.000107012
0.000106774
0.000107191
0.000106983
0.000106286
0.000106438
0.000106192
0.000106045
0.000106464
0.000106213
0.000106
0.000106211
0.000105918
0.000105642
0.000106644
0.000106727
0.000105445
0.000106072
0.000107399
0.00010613
0.000104932
0.000105087
0.000107386
0.000105259
0.00010517
0.000105978
0.000107104
0.000105754
0.000105707
0.000106313
0.000106985
0.000106681
0.000105802
0.000106046
0.000106513
0.000106562
0.000106445
0.000106377
0.000106422
0.000106448
0.000106481
0.000106488
0.00010648
0.000106466
0.000106422
0.000106378
0.000106377
0.000106375
0.000106361
0.000106343
0.000106344
0.000106346
0.000106346
0.000106345
0.000106345
0.000106345
0.000106347
0.000106349
0.000106351
0.000106353
0.000106355
0.000106356
0.00010636
0.000106364
0.000106365
0.000106366
0.000106366
0.000106367
0.000106369
0.00010637
0.00010637
0.000106371
0.000106371
0.000106374
0.000106374
0.000106377
0.000106378
0.000106376
0.000106379
0.000106381
0.00010638
0.000106379
0.00010638
0.000106384
0.000106385
0.000106382
0.000106383
0.000106389
0.000106389
0.000106387
0.00010639
0.000106393
0.000106393
0.000106393
0.000106394
0.000106398
0.000106398
0.000106397
0.000106402
0.000106405
0.0001064
0.000106401
0.00010641
0.000106407
0.000106403
0.000106416
0.000106408
0.000106412
0.000106426
0.000106403
0.000106423
0.000106423
0.000106386
0.000106441
0.000106439
0.000106374
0.000106458
0.000106462
0.00010636
0.000106465
0.000106485
0.000106353
0.000106459
0.000106511
0.000106372
0.000106427
0.00010651
0.000106407
0.000106424
0.000106489
0.000106414
0.000106466
0.000106497
0.00010639
0.000106462
0.000106521
0.000106414
0.000106449
0.000106513
0.000106422
0.000106471
0.000106523
0.00010642
0.000106457
0.000106523
0.000106428
0.000106465
0.000106525
0.000106426
0.000106461
0.000106524
0.000106427
0.000106461
0.000106527
0.000106431
0.000106463
0.000106531
0.000106436
0.000106466
0.000106536
0.000106441
0.000106468
0.000106541
0.000106446
0.00010647
0.000106545
0.000106451
0.000106473
0.000106549
0.000106455
0.000106475
0.000106553
0.000106459
0.000106477
0.000106556
0.000106463
0.000106477
0.000106561
0.000106466
0.000106478
0.000106566
0.000106469
0.000106484
0.00010656
0.000106471
0.000106477
0.000106563
0.000106474
0.000106468
0.000106589
0.00010649
0.000106494
0.000106549
0.000106498
0.000106481
0.000106518
0.000106547
0.000106483
0.000106529
0.000106493
0.00010652
0.000106523
0.000106527
0.00010649
0.00010652
0.000106553
0.000106516
0.000106471
0.000106508
0.000106557
0.000106525
0.000106511
0.0001065
0.000106518
0.000106508
0.000106525
0.000106487
0.00010654
0.000106481
0.000106214
0.000108238
0.000111718
0.000111102
0.000108555
0.000108147
0.000112879
2.81568e-05
3.35503e-05
4.63406e-05
5.82838e-05
6.86829e-05
8.05325e-05
9.1011e-05
9.92494e-05
0.000106171
0.000111865
0.000115933
0.00011951
0.000122654
0.000125489
0.000128043
0.000130354
0.000132496
0.000134481
0.000136333
0.000138058
0.000139659
0.000141145
0.000142508
0.000143747
0.000144855
0.000145758
0.000146403
0.000146841
0.000147128
0.000147308
0.000147414
0.00014747
0.000147494
0.000147498
0.000147491
0.000147478
0.000147463
0.000147448
0.000147435
0.000147424
0.000147415
0.000147409
0.000147404
0.000147402
0.0001474
0.000147399
0.000147399
0.0001474
0.0001474
0.000147402
0.000147401
0.000147407
0.000147403
0.000147413
0.000147399
0.000147421
0.000147386
0.000147528
0.000146941
0.000139733
0.000134332
0.000142
0.000143156
0.000142995
0.000141617
0.000140339
0.000138814
0.000137544
0.000136297
0.000135437
0.00013439
0.000133654
0.000133272
0.000132813
0.000132012
0.000131606
0.000131996
0.000131772
0.000130928
0.000130973
0.000130658
0.000130478
0.000130914
0.000130745
0.000130489
0.000130674
0.000130308
0.000129911
0.000130951
0.000131165
0.000129765
0.000130256
0.000131849
0.000130638
0.000128935
0.000127893
0.000131834
0.000129659
0.000128993
0.000128757
0.000131592
0.000130179
0.000129719
0.000130501
0.000131487
0.000131273
0.00013016
0.000130253
0.000130835
0.000131073
0.000130938
0.000130804
0.000130785
0.000130791
0.000130835
0.000130872
0.000130901
0.000130913
0.000130868
0.000130816
0.00013081
0.000130808
0.000130787
0.000130762
0.000130756
0.000130756
0.000130755
0.000130754
0.000130753
0.000130752
0.000130753
0.000130755
0.000130757
0.000130758
0.00013076
0.000130763
0.000130768
0.000130772
0.000130774
0.000130775
0.000130776
0.000130778
0.00013078
0.000130781
0.000130782
0.000130782
0.000130783
0.000130786
0.000130786
0.00013079
0.000130791
0.000130789
0.000130792
0.000130795
0.000130794
0.000130793
0.000130793
0.000130799
0.0001308
0.000130798
0.000130798
0.000130805
0.000130806
0.000130804
0.000130807
0.000130811
0.000130811
0.000130811
0.000130812
0.000130816
0.000130818
0.000130817
0.000130822
0.000130825
0.000130821
0.000130821
0.000130832
0.00013083
0.000130824
0.000130839
0.000130831
0.000130834
0.00013085
0.000130824
0.000130844
0.000130848
0.000130806
0.000130863
0.000130871
0.000130794
0.000130879
0.000130899
0.000130781
0.000130883
0.000130924
0.000130775
0.000130875
0.000130953
0.0001308
0.000130843
0.000130949
0.000130843
0.000130846
0.000130924
0.000130844
0.000130891
0.000130937
0.000130817
0.000130883
0.000130964
0.00013085
0.000130873
0.000130953
0.000130855
0.000130898
0.000130967
0.000130854
0.000130881
0.000130965
0.000130861
0.000130891
0.000130969
0.000130862
0.000130888
0.000130968
0.000130863
0.000130886
0.00013097
0.000130867
0.000130888
0.000130973
0.000130871
0.000130891
0.000130978
0.000130876
0.000130893
0.000130982
0.000130882
0.000130895
0.000130986
0.000130887
0.000130897
0.00013099
0.000130891
0.000130899
0.000130993
0.000130895
0.000130901
0.000130996
0.000130899
0.000130901
0.000131
0.000130903
0.000130901
0.000131005
0.000130904
0.000130906
0.000130997
0.000130906
0.000130901
0.000131001
0.000130913
0.000130889
0.000131027
0.000130926
0.000130914
0.00013098
0.00013093
0.000130905
0.000130944
0.000130984
0.000130915
0.000130959
0.00013092
0.000130948
0.000130955
0.000130959
0.000130918
0.000130942
0.000130987
0.000130955
0.000130899
0.000130926
0.000130989
0.000130966
0.00013094
0.000130921
0.000130937
0.000130937
0.000130953
0.000130919
0.000130973
0.000130912
0.000130568
0.000132379
0.000137515
0.000135856
0.000132322
0.000130262
0.000133501
3.46388e-05
3.13153e-05
3.9235e-05
5.20573e-05
5.9846e-05
7.23447e-05
8.42453e-05
9.52712e-05
0.000105339
0.000113898
0.000121344
0.000127517
0.000133177
0.000137795
0.000141648
0.000145135
0.000148342
0.000151299
0.000154038
0.000156566
0.000158896
0.000161042
0.000162996
0.000164759
0.000166326
0.000167617
0.000168574
0.000169261
0.000169745
0.00017008
0.000170307
0.000170458
0.000170558
0.000170621
0.000170663
0.00017069
0.000170708
0.000170722
0.000170732
0.000170743
0.000170751
0.000170762
0.00017077
0.000170781
0.000170789
0.000170799
0.000170806
0.000170816
0.000170821
0.00017083
0.000170834
0.000170846
0.000170846
0.000170862
0.00017085
0.000170879
0.00017084
0.000171002
0.000170246
0.000162384
0.000154302
0.0001632
0.000166318
0.000166722
0.000165878
0.000164758
0.000163214
0.000161791
0.000160332
0.000159221
0.000157931
0.000156963
0.000156402
0.000155785
0.000154807
0.000154223
0.000154503
0.000154266
0.000153336
0.000153254
0.000152874
0.000152636
0.000153026
0.000152921
0.000152655
0.000152806
0.000152425
0.00015191
0.000152907
0.000153198
0.000151803
0.000152115
0.000153824
0.000152771
0.000150775
0.000149762
0.000153825
0.000151797
0.000150676
0.000150077
0.000153598
0.00015231
0.000151523
0.00015232
0.000153442
0.000153373
0.000152219
0.000152152
0.000152782
0.000153172
0.000153055
0.000152889
0.000152811
0.000152798
0.000152839
0.000152896
0.000152951
0.000152989
0.000152951
0.000152898
0.000152891
0.00015289
0.000152865
0.000152834
0.000152822
0.000152819
0.000152817
0.000152815
0.000152813
0.000152811
0.000152812
0.000152813
0.000152815
0.000152815
0.000152817
0.000152821
0.000152826
0.00015283
0.000152832
0.000152834
0.000152837
0.000152839
0.00015284
0.000152842
0.000152843
0.000152843
0.000152845
0.000152848
0.000152849
0.000152854
0.000152855
0.000152853
0.000152856
0.00015286
0.000152859
0.000152857
0.000152858
0.000152864
0.000152866
0.000152864
0.000152864
0.000152871
0.000152873
0.000152872
0.000152874
0.000152878
0.000152879
0.000152879
0.00015288
0.000152886
0.000152888
0.000152887
0.000152892
0.000152896
0.000152892
0.000152891
0.000152903
0.000152902
0.000152895
0.00015291
0.000152903
0.000152905
0.000152922
0.000152897
0.000152915
0.000152922
0.000152879
0.000152935
0.00015295
0.000152869
0.000152949
0.00015298
0.000152858
0.000152952
0.000153004
0.000152854
0.000152941
0.000153032
0.000152882
0.000152913
0.000153029
0.000152927
0.000152921
0.000153004
0.000152925
0.000152966
0.000153021
0.000152898
0.000152955
0.000153047
0.000152936
0.00015295
0.000153037
0.000152938
0.000152973
0.000153051
0.000152938
0.000152957
0.000153048
0.000152945
0.000152967
0.000153054
0.000152947
0.000152964
0.000153053
0.000152948
0.000152962
0.000153053
0.000152951
0.000152963
0.000153056
0.000152955
0.000152965
0.00015306
0.00015296
0.000152967
0.000153064
0.000152965
0.000152969
0.000153067
0.000152969
0.00015297
0.00015307
0.000152973
0.000152972
0.000153072
0.000152976
0.000152972
0.000153074
0.00015298
0.000152972
0.000153078
0.000152983
0.000152971
0.000153081
0.000152982
0.000152974
0.000153072
0.000152984
0.000152971
0.000153077
0.000152997
0.00015296
0.000153102
0.000153005
0.00015298
0.00015305
0.000153005
0.000152975
0.000153011
0.000153061
0.000152992
0.000153032
0.000152992
0.000153018
0.000153027
0.000153032
0.000152989
0.000153006
0.000153059
0.000153033
0.000152976
0.000152989
0.000153059
0.000153045
0.000153014
0.000152986
0.000152999
0.000153004
0.000153024
0.000152991
0.000153047
0.000152988
0.000152596
0.000151374
0.000159035
0.000158128
0.000154226
0.000152349
0.000152605
4.98335e-05
3.38485e-05
3.43528e-05
4.24875e-05
5.42791e-05
6.44664e-05
7.39669e-05
8.55902e-05
9.73389e-05
0.000107963
0.000118081
0.000126731
0.000134761
0.000141627
0.000147797
0.000153095
0.000157968
0.000162635
0.000166683
0.000170163
0.000173366
0.000176303
0.000178972
0.000181379
0.000183541
0.00018538
0.000186798
0.000187873
0.000188685
0.000189294
0.000189753
0.0001901
0.000190364
0.000190568
0.000190728
0.000190857
0.000190961
0.000191049
0.000191123
0.000191189
0.000191245
0.000191298
0.000191341
0.000191384
0.000191418
0.000191453
0.000191479
0.000191507
0.000191528
0.000191551
0.000191567
0.000191589
0.000191598
0.000191624
0.000191618
0.000191656
0.000191618
0.000191792
0.0001909
0.000182775
0.000174639
0.00018024
0.000186663
0.000187509
0.000187212
0.000186346
0.00018496
0.000183526
0.000181987
0.000180718
0.000179267
0.000178124
0.000177402
0.000176643
0.000175529
0.000174788
0.000174924
0.000174641
0.000173675
0.00017347
0.000173032
0.000172724
0.000173032
0.000172957
0.000172694
0.000172807
0.000172438
0.000171846
0.000172761
0.000173069
0.000171748
0.000171884
0.000173599
0.000172729
0.000170618
0.000170739
0.000173619
0.00017182
0.000170406
0.000170588
0.000173406
0.000172313
0.000171304
0.000172013
0.000173235
0.000173242
0.000172145
0.000171956
0.000172594
0.000173091
0.000173005
0.000172825
0.000172708
0.000172681
0.000172718
0.000172787
0.000172856
0.000172916
0.000172887
0.000172838
0.00017283
0.000172832
0.000172805
0.000172772
0.000172755
0.00017275
0.000172746
0.000172742
0.000172739
0.000172737
0.000172737
0.000172737
0.000172738
0.000172739
0.00017274
0.000172744
0.00017275
0.000172754
0.000172757
0.000172759
0.000172762
0.000172765
0.000172766
0.000172768
0.000172769
0.00017277
0.000172772
0.000172775
0.000172777
0.000172782
0.000172785
0.000172783
0.000172786
0.00017279
0.000172789
0.000172787
0.000172788
0.000172794
0.000172798
0.000172796
0.000172795
0.000172802
0.000172805
0.000172804
0.000172807
0.000172811
0.000172812
0.000172812
0.000172814
0.00017282
0.000172823
0.000172822
0.000172827
0.000172831
0.000172828
0.000172827
0.000172839
0.000172839
0.000172831
0.000172846
0.00017284
0.000172841
0.000172858
0.000172834
0.000172851
0.00017286
0.000172818
0.000172872
0.000172892
0.000172812
0.000172885
0.000172921
0.000172803
0.000172886
0.000172942
0.000172801
0.000172874
0.000172967
0.000172829
0.00017285
0.000172967
0.000172874
0.000172863
0.000172946
0.000172871
0.000172907
0.000172963
0.000172847
0.000172893
0.000172987
0.000172885
0.000172893
0.00017298
0.000172886
0.000172913
0.000172993
0.000172887
0.000172898
0.000172991
0.000172893
0.000172907
0.000172996
0.000172895
0.000172905
0.000172995
0.000172896
0.000172903
0.000172995
0.000172897
0.000172903
0.000172997
0.0001729
0.000172904
0.000173
0.000172904
0.000172904
0.000173002
0.000172908
0.000172905
0.000173005
0.000172912
0.000172906
0.000173006
0.000172915
0.000172907
0.000173008
0.000172917
0.000172906
0.000173008
0.00017292
0.000172906
0.000173011
0.000172922
0.000172904
0.000173013
0.00017292
0.000172904
0.000173002
0.000172921
0.000172904
0.000173009
0.000172937
0.000172894
0.000173031
0.00017294
0.000172907
0.000172975
0.000172938
0.000172906
0.000172939
0.000172992
0.000172928
0.000172964
0.000172923
0.000172946
0.000172956
0.000172961
0.000172918
0.000172929
0.000172984
0.000172968
0.000172913
0.000172914
0.000172984
0.000172978
0.000172946
0.000172911
0.000172922
0.000172928
0.000172953
0.000172921
0.000172976
0.000172922
0.000172513
0.000167552
0.000176222
0.000178099
0.000174293
0.000174271
0.000172959
7.82305e-05
4.47864e-05
3.62483e-05
3.75116e-05
4.5616e-05
5.76761e-05
6.50341e-05
7.55887e-05
8.61795e-05
9.7301e-05
0.000108846
0.000119272
0.000129309
0.000138231
0.000146567
0.000153868
0.000160394
0.000166588
0.00017215
0.000177219
0.00018179
0.000185726
0.000189188
0.000192082
0.000195356
0.000199156
0.000201195
0.000202811
0.000204093
0.000205114
0.000205932
0.00020659
0.000207126
0.000207564
0.000207927
0.00020823
0.000208486
0.000208704
0.00020889
0.000209054
0.000209193
0.000209319
0.000209424
0.000209522
0.000209602
0.000209677
0.000209739
0.000209798
0.000209844
0.00020989
0.000209926
0.000209966
0.000209991
0.000210031
0.000210037
0.000210086
0.000210055
0.000210234
0.000209257
0.000201133
0.00019603
0.000197914
0.000204712
0.000205846
0.000205988
0.000205377
0.000204239
0.000202889
0.000201377
0.000200042
0.000198518
0.000197268
0.000196422
0.000195547
0.000194341
0.000193478
0.000193461
0.000193119
0.000192142
0.000191827
0.000191341
0.000190958
0.000191168
0.000191095
0.000190835
0.000190907
0.000190562
0.000189934
0.000190747
0.000191038
0.000189824
0.000189805
0.000191443
0.000190761
0.000188658
0.000190049
0.000191477
0.000189942
0.00018837
0.00019004
0.000191278
0.000190405
0.000189261
0.000189831
0.000191083
0.000191155
0.000190161
0.000189891
0.000190513
0.000191081
0.00019103
0.000190845
0.000190704
0.000190671
0.000190706
0.000190785
0.000190864
0.000190935
0.000190915
0.000190871
0.000190864
0.000190868
0.000190842
0.000190809
0.000190789
0.000190781
0.000190777
0.000190772
0.000190768
0.000190765
0.000190764
0.000190764
0.000190765
0.000190765
0.000190765
0.000190771
0.000190776
0.00019078
0.000190783
0.000190787
0.00019079
0.000190792
0.000190794
0.000190796
0.000190798
0.000190799
0.000190802
0.000190805
0.000190807
0.000190813
0.000190817
0.000190815
0.000190817
0.000190821
0.000190821
0.000190819
0.00019082
0.000190827
0.000190831
0.00019083
0.000190829
0.000190835
0.000190839
0.000190839
0.000190841
0.000190846
0.000190847
0.000190848
0.00019085
0.000190856
0.000190859
0.000190859
0.000190864
0.000190868
0.000190866
0.000190865
0.000190876
0.000190877
0.000190869
0.000190884
0.000190879
0.000190878
0.000190895
0.000190873
0.000190889
0.0001909
0.00019086
0.000190911
0.000190934
0.000190858
0.000190924
0.000190962
0.000190852
0.000190923
0.000190978
0.000190852
0.000190912
0.000190999
0.000190878
0.000190892
0.000191003
0.00019092
0.000190907
0.000190987
0.000190919
0.000190949
0.000191004
0.000190898
0.000190936
0.000191024
0.000190934
0.000190938
0.000191021
0.000190934
0.000190954
0.000191031
0.000190935
0.000190942
0.00019103
0.00019094
0.000190949
0.000191034
0.000190942
0.000190948
0.000191034
0.000190942
0.000190945
0.000191033
0.000190943
0.000190943
0.000191033
0.000190945
0.000190943
0.000191035
0.000190947
0.000190943
0.000191037
0.00019095
0.000190942
0.000191038
0.000190953
0.000190942
0.000191038
0.000190954
0.000190941
0.000191038
0.000190955
0.00019094
0.000191038
0.000190956
0.000190938
0.000191039
0.000190958
0.000190934
0.00019104
0.000190954
0.000190933
0.000191027
0.000190953
0.000190934
0.000191035
0.000190972
0.000190926
0.000191053
0.000190971
0.000190934
0.000190996
0.000190966
0.000190935
0.000190964
0.000191019
0.00019096
0.000190991
0.000190951
0.00019097
0.000190979
0.000190985
0.000190943
0.00019095
0.000191004
0.000190995
0.000190946
0.000190937
0.000191004
0.000191005
0.000190974
0.000190933
0.000190943
0.000190948
0.000190978
0.000190945
0.000191
0.000190953
0.00019055
0.000183563
0.000192427
0.000196336
0.000192579
0.000192164
0.000193237
0.000129985
6.6599e-05
4.76058e-05
4.00529e-05
4.07642e-05
4.82145e-05
5.94524e-05
6.88486e-05
7.64076e-05
8.6245e-05
9.69172e-05
0.000107733
0.000118911
0.000129275
0.000139325
0.000148517
0.00015685
0.000164394
0.000171337
0.000177916
0.000183762
0.000188702
0.000193187
0.000197499
0.000203378
0.000209182
0.000211987
0.000214291
0.000216191
0.000217765
0.000219075
0.000220169
0.000221087
0.00022186
0.000222515
0.000223073
0.000223549
0.000223958
0.00022431
0.000224616
0.000224879
0.000225111
0.000225309
0.000225486
0.000225634
0.000225769
0.000225882
0.000225985
0.00022607
0.000226149
0.000226214
0.000226279