/*--------------------------------*- C++ -*----------------------------------*\
| =========                 |                                                 |
| \\      /  F ield         | foam-extend: Open Source CFD                    |
|  \\    /   O peration     | Version:     3.2                                |
|   \\  /    A nd           | Web:         http://www.foam-extend.org         |
|    \\/     M anipulation  | For copyright notice see file Copyright         |
\*---------------------------------------------------------------------------*/
FoamFile
{
    version     2.0;
    format      ascii;
    class       volScalarField;
    location    "50";
    object      omega;
}
// * * * * * * * * * * * * * * * * * * * * * * * * * * * * * * * * * * * * * //

dimensions      [0 0 -1 0 0 0 0];

internalField   nonuniform List<scalar> 
5400
(
953.373
765.351
661.611
662.663
652.658
652.64
647.744
647.512
645.757
646.422
646.581
647.723
648.874
650.696
652.405
654.56
656.751
659.2
661.627
664.281
667.072
669.941
672.885
675.862
678.864
681.898
684.725
687.191
689.271
691.01
692.462
693.663
694.667
695.493
696.188
696.754
697.24
697.629
697.975
698.242
698.496
698.676
698.872
698.992
699.148
699.22
699.342
699.363
699.511
699.448
699.697
699.414
699.956
699.164
700.511
698.392
701.895
696.617
707.306
686.307
592.67
587.252
596.542
598.687
605.143
606.096
608.104
609.397
609.418
609.837
611.354
608.589
607.679
611.175
612.502
607.78
601.439
612.634
614.489
604.55
610.843
603.766
599.076
606.339
606.761
605.614
614.932
608.076
597.251
615.882
622.419
591.971
597.511
631.283
614.204
578.878
610.631
639.017
604.697
583.986
612.812
628.289
611.067
595.839
599.593
615.45
617.632
605.48
601.734
606.588
611.177
611.855
611.278
610.353
608.765
607.701
607.302
607.541
608.026
607.936
607.646
607.858
608.205
608.229
608.097
608.051
608.068
608.096
608.125
608.158
608.172
608.186
608.204
608.203
608.21
608.222
608.199
608.199
608.21
608.212
608.214
608.207
608.217
608.22
608.223
608.242
608.233
608.235
608.236
608.212
608.262
608.272
608.212
608.257
608.307
608.3
608.273
608.25
608.301
608.355
608.3
608.256
608.339
608.363
608.306
608.316
608.348
608.351
608.336
608.329
608.4
608.394
608.324
608.385
608.462
608.367
608.303
608.524
608.41
608.315
608.639
608.266
608.432
608.663
608.088
608.791
608.673
607.693
609.115
608.926
607.27
609.272
609.244
606.954
609.29
609.673
606.759
608.944
610.279
606.995
608.307
610.116
607.706
608.477
609.431
607.597
609.068
609.788
607.24
608.728
610.159
607.597
608.67
609.803
607.524
608.85
610.14
607.575
608.68
609.962
607.507
608.649
610.037
607.568
608.673
610.11
607.63
608.681
610.164
607.689
608.695
610.219
607.743
608.706
610.282
607.803
608.711
610.339
607.87
608.721
610.388
607.938
608.739
610.44
607.997
608.76
610.491
608.062
608.781
610.53
608.152
608.758
610.636
608.169
608.788
610.694
608.156
608.967
610.514
608.502
608.714
610.772
608.527
608.588
611.01
608.213
609.294
609.816
609.699
608.691
609.613
609.697
609.231
609.804
608.899
609.682
609.505
610.216
608.594
609.47
609.741
610.402
608.645
609.536
609.441
610.079
609.088
609.654
609.035
609.739
609.157
609.583
609.04
610.022
601.263
655.914
753.058
726.649
691.431
699.013
374.192
345.005
302.785
288.412
276.261
271.691
266.984
265.03
262.955
262.219
261.537
261.378
261.388
261.631
262.002
262.545
263.164
263.923
264.71
265.576
266.522
267.524
268.574
269.655
270.765
271.911
273.004
273.988
274.846
275.582
276.212
276.742
277.194
277.569
277.89
278.153
278.381
278.564
278.727
278.854
278.974
279.06
279.15
279.208
279.28
279.317
279.371
279.394
279.443
279.448
279.503
279.471
279.569
279.454
279.681
279.354
279.927
279.059
281.455
282.659
256.593
241.093
239.317
238.882
240.821
241.604
242.813
243.563
244.061
244.3
244.865
244.473
244.152
245.092
245.704
244.512
242.866
245.134
246.513
244.29
244.588
243.234
241.596
242.973
244.22
244.218
246.058
245.182
242.581
245.696
248.067
242.291
241.199
249.03
247.352
238.158
242.301
251.72
246.353
238.204
242.889
250.12
247.576
241.395
241.222
245.928
247.979
244.986
242.498
243.413
245.544
246.296
246.088
245.624
244.96
244.408
244.206
244.27
244.48
244.517
244.452
244.488
244.62
244.664
244.628
244.598
244.598
244.612
244.625
244.641
244.65
244.657
244.665
244.669
244.67
244.671
244.67
244.67
244.669
244.669
244.669
244.668
244.671
244.673
244.675
244.681
244.68
244.682
244.685
244.68
244.691
244.7
244.689
244.693
244.711
244.715
244.707
244.701
244.714
244.733
244.725
244.712
244.729
244.742
244.734
244.732
244.742
244.746
244.745
244.745
244.762
244.768
244.754
244.765
244.787
244.773
244.758
244.797
244.797
244.766
244.824
244.784
244.785
244.858
244.764
244.846
244.891
244.695
244.886
244.975
244.631
244.89
245.065
244.594
244.886
245.16
244.576
244.817
245.231
244.703
244.713
245.175
244.855
244.798
245.077
244.77
244.934
245.191
244.723
244.843
245.238
244.86
244.86
245.168
244.813
244.911
245.257
244.864
244.87
245.199
244.828
244.862
245.22
244.859
244.886
245.248
244.89
244.902
245.269
244.916
244.918
245.29
244.94
244.932
245.311
244.966
244.945
245.331
244.992
244.959
245.349
245.018
244.974
245.368
245.041
244.988
245.386
245.065
245.003
245.401
245.092
245.009
245.423
245.111
245.018
245.445
245.114
245.063
245.431
245.171
245.04
245.47
245.199
244.995
245.502
245.158
245.142
245.357
245.352
245.117
245.228
245.367
245.218
245.338
245.176
245.286
245.3
245.402
245.145
245.202
245.358
245.501
245.173
245.191
245.268
245.424
245.265
245.283
245.171
245.263
245.219
245.212
245.193
245.463
240.549
248.194
282.25
293.208
284.645
282.585
187.962
199.714
194.472
184.186
173.716
168.225
163.585
160.94
158.753
157.464
156.422
155.838
155.449
155.236
155.182
155.242
155.397
155.655
155.966
156.326
156.74
157.202
157.702
158.23
158.785
159.359
159.9
160.389
160.823
161.201
161.529
161.809
162.05
162.253
162.427
162.572
162.697
162.799
162.889
162.96
163.026
163.075
163.123
163.158
163.195
163.218
163.246
163.262
163.284
163.295
163.312
163.316
163.335
163.328
163.362
163.329
163.4
163.226
163.824
167.113
161.595
148.988
143.933
141.622
141.144
141.073
141.517
141.777
142.173
142.268
142.581
142.611
142.504
142.605
142.985
143.002
142.539
142.331
143.366
142.934
142.575
142.583
141.811
141.526
142.3
142.447
142.813
143.471
142.84
142.346
143.484
143.592
141.224
142.698
144.889
142.959
140.146
143.345
145.636
142.49
140.312
143.462
145.014
142.834
141.56
142.232
143.751
143.961
142.521
142.061
142.811
143.494
143.657
143.559
143.295
142.982
142.765
142.707
142.755
142.804
142.797
142.79
142.833
142.875
142.883
142.871
142.865
142.869
142.875
142.883
142.89
142.895
142.901
142.906
142.908
142.908
142.91
142.911
142.91
142.907
142.906
142.908
142.908
142.909
142.911
142.915
142.916
142.917
142.919
142.919
142.92
142.927
142.927
142.924
142.93
142.935
142.935
142.932
142.933
142.941
142.946
142.942
142.94
142.949
142.952
142.95
142.952
142.957
142.958
142.958
142.961
142.969
142.968
142.966
142.973
142.98
142.972
142.975
142.992
142.977
142.986
143.003
142.978
143.012
143.007
142.978
143.041
143.007
142.963
143.078
143.022
142.944
143.106
143.04
142.932
143.128
143.065
142.91
143.107
143.116
142.926
143.072
143.131
142.993
143.101
143.092
143.001
143.152
143.113
142.969
143.128
143.157
143.012
143.141
143.134
143.011
143.156
143.169
143.018
143.145
143.148
143.006
143.143
143.161
143.02
143.155
143.179
143.035
143.165
143.194
143.048
143.175
143.208
143.06
143.184
143.222
143.072
143.193
143.237
143.084
143.201
143.25
143.096
143.21
143.263
143.107
143.218
143.275
143.118
143.223
143.287
143.128
143.227
143.304
143.134
143.247
143.306
143.146
143.247
143.304
143.165
143.23
143.339
143.155
143.266
143.333
143.181
143.27
143.28
143.285
143.198
143.298
143.243
143.287
143.249
143.253
143.269
143.283
143.309
143.2
143.264
143.297
143.348
143.201
143.27
143.264
143.345
143.242
143.278
143.201
143.278
143.203
143.253
143.471
140.885
139.254
151.685
164.599
166.766
165.618
102.276
130.976
137.042
134.43
129.561
125.096
120.851
117.883
115.485
113.784
112.466
111.58
110.903
110.433
110.116
109.908
109.809
109.803
109.861
109.967
110.119
110.316
110.546
110.804
111.086
111.37
111.617
111.832
112.02
112.185
112.33
112.455
112.564
112.656
112.736
112.802
112.86
112.907
112.949
112.983
113.013
113.036
113.058
113.075
113.091
113.102
113.114
113.122
113.131
113.138
113.143
113.15
113.15
113.162
113.153
113.177
113.14
113.11
113.189
116.269
117.625
109.119
103.927
100.85
99.221
98.4981
98.3249
98.2101
98.3783
98.3436
98.4969
98.5899
98.5578
98.401
98.6158
98.9753
98.9209
98.1675
98.8203
98.8964
98.5429
98.9067
98.4992
97.9096
98.2693
98.3816
98.3493
99.2535
99.2249
98.1236
98.7549
99.962
98.1194
97.7309
100.239
100.616
97.081
97.6742
101.032
100.278
97.2512
98.0173
100.05
99.7282
98.526
97.9601
98.8024
99.777
99.1462
98.455
98.5518
99.0153
99.2755
99.3445
99.2723
99.1024
98.9187
98.8211
98.7945
98.8229
98.83
98.813
98.8211
98.85
98.8703
98.8686
98.8642
98.8643
98.867
98.871
98.8764
98.8804
98.8845
98.8886
98.8907
98.8917
98.8947
98.8959
98.8956
98.8944
98.8936
98.8948
98.8953
98.896
98.8971
98.8989
98.9007
98.901
98.9031
98.9044
98.9025
98.9073
98.9102
98.9062
98.9081
98.9119
98.9143
98.9135
98.9104
98.9142
98.9212
98.9213
98.916
98.9211
98.926
98.9254
98.9257
98.9287
98.9307
98.9304
98.9298
98.9364
98.9395
98.9345
98.9369
98.9463
98.9425
98.9378
98.9533
98.9467
98.9462
98.9669
98.9447
98.9615
98.9719
98.9353
98.9832
98.9842
98.9173
99.0011
99.0116
98.9031
99.0096
99.0373
98.8933
99.0121
99.0707
98.886
98.9852
99.0869
98.9213
98.9651
99.0665
98.9646
99.0092
99.0601
98.9445
99.0318
99.0929
98.9376
99.0053
99.0961
98.9743
99.0309
99.0957
98.9624
99.0301
99.1118
98.9808
99.0337
99.1046
98.9704
99.0262
99.1074
98.9779
99.0324
99.1176
98.9892
99.0401
99.1269
98.9994
99.0473
99.136
99.0088
99.0534
99.1448
99.0185
99.0592
99.1529
99.0281
99.0652
99.1606
99.0372
99.0712
99.1683
99.0455
99.0769
99.1751
99.0538
99.0806
99.1808
99.0624
99.0824
99.1919
99.0677
99.0949
99.1965
99.0713
99.0977
99.1826
99.0909
99.0718
99.2114
99.0937
99.1056
99.2135
99.0926
99.1239
99.135
99.1931
99.0896
99.1487
99.127
99.1487
99.1431
99.1275
99.1344
99.1372
99.2053
99.1
99.1134
99.1152
99.236
99.1098
99.1493
99.0999
99.2155
99.1187
99.1826
99.0799
99.1658
99.0968
99.1442
99.3575
98.0815
94.6666
98.3559
108.246
113.027
113.858
56.7613
86.5927
100.567
102.4
102.461
100.702
97.8318
95.2155
92.8645
90.9934
89.4688
88.3378
87.4127
86.7351
86.2213
85.8232
85.544
85.3529
85.2358
85.1708
85.1526
85.177
85.2336
85.3159
85.4132
85.4917
85.5293
85.5451
85.5524
85.5561
85.559
85.5608
85.5629
85.564
85.5656
85.5662
85.5674
85.5676
85.5683
85.5683
85.5685
85.5682
85.5681
85.5678
85.5675
85.5672
85.5669
85.5666
85.5658
85.5669
85.5643
85.5681
85.5614
85.5727
85.5548
85.5838
85.529
85.5212
85.4257
88.0797
91.4744
86.3473
81.9939
78.8052
76.7903
75.6567
75.057
74.6605
74.5891
74.4231
74.446
74.4974
74.4619
74.24
74.3476
74.7318
74.7886
74.0618
74.4537
74.6429
74.4005
74.8016
74.5722
74.052
74.1574
74.1961
74.0827
74.8666
74.9787
74.0402
74.4605
75.636
74.3596
73.5881
75.5608
76.3584
73.6653
73.3976
76.0873
76.2006
73.8572
73.6769
75.2495
75.6297
74.7761
73.9369
74.3478
75.2817
75.1074
74.5541
74.368
74.6377
74.8746
75.0092
75.0365
74.9578
74.8236
74.7228
74.665
74.6719
74.6772
74.6578
74.6504
74.6683
74.6872
74.691
74.689
74.6879
74.6889
74.6911
74.6951
74.6982
74.7015
74.7048
74.7068
74.7085
74.7114
74.713
74.7133
74.7131
74.7128
74.7135
74.7142
74.7149
74.7153
74.7161
74.7176
74.7179
74.7195
74.7208
74.7187
74.722
74.725
74.7221
74.7224
74.7249
74.7276
74.7279
74.7245
74.7262
74.7321
74.7334
74.7289
74.7319
74.7361
74.7363
74.7361
74.7382
74.7401
74.74
74.7384
74.7435
74.7472
74.743
74.7438
74.7516
74.7499
74.745
74.7562
74.7532
74.7513
74.7681
74.7518
74.7611
74.7711
74.7428
74.7765
74.7833
74.7292
74.7864
74.807
74.721
74.7901
74.8281
74.7152
74.7879
74.8562
74.7163
74.766
74.8639
74.7483
74.7547
74.8391
74.7736
74.7932
74.8416
74.7526
74.8036
74.8719
74.7569
74.7835
74.8649
74.7823
74.8078
74.8717
74.7716
74.803
74.88
74.7896
74.8116
74.8797
74.7826
74.8039
74.8784
74.7856
74.8071
74.8846
74.7938
74.813
74.8914
74.8016
74.8187
74.8981
74.8089
74.8235
74.9044
74.8164
74.8281
74.9101
74.8238
74.8329
74.9155
74.8307
74.8377
74.9209
74.8369
74.842
74.9256
74.843
74.8453
74.9292
74.8495
74.8469
74.9367
74.8537
74.8549
74.9406
74.8555
74.8581
74.9294
74.8691
74.8389
74.9476
74.8739
74.8624
74.9517
74.8705
74.8778
74.8863
74.9436
74.8649
74.8979
74.8867
74.9007
74.9039
74.8867
74.8879
74.8913
74.9502
74.8756
74.8688
74.8615
74.9679
74.8868
74.9091
74.8552
74.9484
74.8808
74.9412
74.853
74.923
74.8687
74.9075
75.1147
74.61
71.1966
71.0814
78.0135
82.3873
84.421
31.4746
55.4289
72.2462
79.6013
82.9339
82.666
82.0452
80.6441
78.8625
77.1896
75.6523
74.4068
73.3351
72.4964
71.8186
71.2731
70.8443
70.4993
70.2388
70.0404
69.8899
69.7829
69.7055
69.6493
69.5901
69.4871
69.3479
69.1998
69.0576
68.9268
68.8097
68.706
68.6156
68.5367
68.469
68.4104
68.3605
68.3176
68.281
68.2498
68.2229
68.2003
68.1803
68.164
68.1489
68.1373
68.126
68.1174
68.1083
68.103
68.0953
68.0942
68.0843
68.0906
68.072
68.0942
68.0433
68.0299
67.8693
70.1332
73.7349
71.0321
67.7278
64.7955
62.7923
61.4586
60.6058
60.0121
59.7432
59.458
59.3668
59.3465
59.2773
59.0446
59.0782
59.3875
59.4494
58.8602
59.1043
59.2878
59.1396
59.4893
59.3627
58.9597
58.9398
58.917
58.8091
59.412
59.5268
58.8219
59.1736
60.1228
59.2272
58.4846
59.9528
60.6203
58.7494
58.3047
60.275
60.5631
58.9427
58.5102
59.6319
60.1907
59.6277
58.8449
59.02
59.7405
59.7752
59.3882
59.1233
59.2582
59.4359
59.584
59.6592
59.6393
59.5486
59.4618
59.3963
59.3878
59.3868
59.3671
59.3527
59.362
59.3758
59.3815
59.3811
59.3798
59.3799
59.381
59.3838
59.3863
59.389
59.3918
59.3935
59.3955
59.3982
59.3996
59.4003
59.4006
59.4012
59.4019
59.4023
59.403
59.4029
59.4032
59.4044
59.4047
59.4059
59.407
59.4053
59.4077
59.4101
59.4082
59.4078
59.4096
59.412
59.4127
59.4098
59.4105
59.4151
59.4165
59.4134
59.4152
59.4185
59.419
59.4188
59.4203
59.4219
59.4219
59.4204
59.4243
59.4275
59.4245
59.4249
59.4309
59.4301
59.4262
59.4341
59.4326
59.431
59.4435
59.4323
59.438
59.4453
59.4247
59.4493
59.4554
59.4147
59.4557
59.4739
59.4096
59.4582
59.4902
59.4059
59.4555
59.5125
59.4105
59.4389
59.5178
59.4377
59.4325
59.4958
59.4526
59.463
59.4995
59.4349
59.468
59.5252
59.4432
59.4538
59.5169
59.4609
59.4744
59.5248
59.4531
59.4691
59.5304
59.4685
59.4789
59.5332
59.4645
59.4725
59.5303
59.465
59.4738
59.5342
59.4708
59.4783
59.5394
59.4768
59.4829
59.5448
59.4826
59.4869
59.5498
59.4886
59.4909
59.5543
59.4943
59.4948
59.5585
59.4996
59.4987
59.5627
59.5044
59.5022
59.5663
59.5092
59.505
59.5691
59.514
59.5066
59.5746
59.5173
59.512
59.5773
59.5186
59.5149
59.5702
59.5279
59.5018
59.582
59.5321
59.5174
59.585
59.5299
59.5287
59.535
59.5805
59.5259
59.5455
59.5377
59.548
59.553
59.5382
59.5363
59.5408
59.5862
59.5346
59.5223
59.5144
59.5941
59.5438
59.5588
59.5129
59.5782
59.5333
59.5827
59.5178
59.5688
59.5287
59.5601
59.7546
59.6654
56.681
54.9372
59.6021
62.9946
65.2267
17.476
33.5549
48.4813
59.6163
66.6681
68.8373
69.4838
69.1593
68.5062
67.4674
66.243
65.1051
64.0421
63.1433
62.3634
61.7162
61.1779
60.7178
60.3434
60.0297
59.7638
59.5433
59.3477
59.1645
58.9451
58.6555
58.3566
58.067
57.7971
57.5511
57.3308
57.1354
56.9643
56.815
56.686
56.5746
56.4792
56.3974
56.3274
56.2679
56.2165
56.1735
56.1357
56.1046
56.0764
56.0542
56.033
56.0166
56.0005
55.9891
55.977
55.971
55.9589
55.9597
55.942
55.9561
55.9129
55.8914
55.7074
57.6401
60.8218
59.6356
57.3373
54.8701
53.0473
51.6731
50.7122
49.9973
49.5842
49.2042
49.0168
48.9231
48.8109
48.5758
48.5565
48.7734
48.8049
48.3459
48.5018
48.6504
48.5636
48.8499
48.7793
48.4746
48.4026
48.3396
48.247
48.7031
48.7863
48.2512
48.5831
49.3257
48.6674
48.0503
49.1519
49.6304
48.3033
47.9057
49.3504
49.6057
48.4823
48.0605
48.8683
49.4106
49.0331
48.3855
48.4511
48.9754
49.0835
48.8198
48.5651
48.6173
48.7397
48.8753
48.9685
48.9843
48.9278
48.8596
48.7981
48.7812
48.7743
48.7548
48.7374
48.7404
48.7492
48.7544
48.7546
48.7534
48.753
48.7533
48.7552
48.757
48.7592
48.7615
48.7631
48.7651
48.7673
48.7684
48.7693
48.77
48.7713
48.772
48.7721
48.7727
48.7726
48.7727
48.7736
48.7739
48.7749
48.7759
48.7745
48.7763
48.7783
48.777
48.7764
48.7776
48.7797
48.7804
48.7782
48.7784
48.7819
48.7832
48.781
48.7823
48.7848
48.7854
48.7852
48.7863
48.7877
48.7878
48.7865
48.7895
48.7921
48.7901
48.7904
48.795
48.7946
48.7917
48.7975
48.7965
48.7955
48.8047
48.7968
48.8009
48.8059
48.7906
48.8094
48.8138
48.783
48.8141
48.828
48.7792
48.8165
48.8408
48.7763
48.8143
48.8585
48.7822
48.8015
48.863
48.8055
48.798
48.8451
48.8149
48.8218
48.8481
48.7999
48.8244
48.8693
48.8093
48.8144
48.8621
48.8224
48.8314
48.8694
48.8167
48.8266
48.8738
48.8298
48.8364
48.878
48.8279
48.8314
48.8749
48.8272
48.8315
48.8772
48.8313
48.8349
48.8813
48.836
48.8387
48.8857
48.8407
48.8421
48.8898
48.8455
48.8455
48.8936
48.8502
48.8488
48.897
48.8544
48.8521
48.9005
48.8583
48.855
48.9034
48.862
48.8574
48.9059
48.8658
48.8589
48.9101
48.8684
48.8627
48.9118
48.8695
48.8651
48.9081
48.876
48.8564
48.9164
48.8793
48.8666
48.9173
48.8782
48.8746
48.8797
48.9141
48.8759
48.889
48.8828
48.8909
48.8956
48.8834
48.8803
48.8852
48.9196
48.8828
48.8706
48.8645
48.922
48.8896
48.9008
48.8654
48.9098
48.8791
48.9172
48.8725
48.9081
48.8795
48.9054
49.0816
49.124
46.6212
44.2045
47.4103
49.9716
51.8905
9.95525
19.7273
30.1574
41.2543
50.8383
56.2671
58.9948
59.7241
59.6806
59.3812
58.8435
58.0895
57.2379
56.4286
55.6581
54.9772
54.3829
53.8606
53.4079
53.0029
52.6394
52.3152
52.0009
51.6752
51.278
50.8174
50.3795
49.9692
49.5911
49.2475
48.9397
48.6667
48.427
48.2178
48.0365
47.8801
47.7457
47.6306
47.5318
47.4479
47.3755
47.3147
47.2616
47.2176
47.1782
47.1466
47.1173
47.094
47.0719
47.0553
47.0394
47.029
47.0149
47.0112
46.9943
47.0014
46.9654
46.9388
46.7586
48.3957
51.0663
50.6674
49.2134
47.2767
45.7072
44.3953
43.4293
42.659
42.155
41.7089
41.4478
41.29
41.1347
40.8955
40.8357
40.9699
40.9636
40.5981
40.6985
40.8098
40.7591
40.9879
40.9446
40.7119
40.6241
40.5396
40.4594
40.8064
40.8552
40.4365
40.7496
41.3382
40.8286
40.3407
41.1885
41.5381
40.54
40.2303
41.3166
41.5235
40.6969
40.3515
40.9558
41.4215
41.1547
40.6404
40.6612
41.0432
41.1608
40.9767
40.7616
40.7686
40.8489
40.9625
41.0569
41.0922
41.0611
41.0101
40.9578
40.938
40.9272
40.9082
40.8899
40.8885
40.8932
40.8968
40.897
40.8958
40.8951
40.8949
40.896
40.8973
40.899
40.9008
40.9022
40.9039
40.9058
40.9067
40.9075
40.9085
40.9099
40.9106
40.9108
40.9114
40.9113
40.9114
40.9121
40.9124
40.9133
40.9141
40.9131
40.9146
40.9161
40.9152
40.9145
40.9154
40.9171
40.9178
40.9161
40.9161
40.9189
40.9199
40.9184
40.9193
40.9213
40.9218
40.9217
40.9226
40.9237
40.9239
40.9229
40.9252
40.9272
40.9259
40.9263
40.9299
40.9296
40.9275
40.9319
40.9312
40.9305
40.9374
40.9316
40.9348
40.9382
40.9266
40.9416
40.9445
40.9205
40.9455
40.9555
40.9171
40.9479
40.9658
40.9145
40.9463
40.9801
40.9206
40.9362
40.9841
40.9409
40.9344
40.9698
40.9475
40.9531
40.972
40.9345
40.9544
40.9894
40.9438
40.9473
40.9838
40.9542
40.9614
40.9901
40.9498
40.9573
40.9938
40.9611
40.9665
40.9985
40.9606
40.9629
40.9957
40.9594
40.9623
40.997
40.9623
40.9649
41.0002
40.966
40.968
41.0038
40.9699
40.9709
41.0073
40.9739
40.9738
41.0105
40.9777
40.9767
41.0134
40.9812
40.9795
41.0164
40.9844
40.9819
41.0189
40.9875
40.984
41.0211
40.9906
40.9854
41.0245
40.9926
40.9882
41.0255
40.9936
40.9903
41.0244
40.9983
40.9843
41.0308
41.001
40.991
41.0296
41.0005
40.9966
41.0011
41.0268
40.9992
41.0092
41.0041
41.0108
41.0146
41.0047
41.0011
41.006
41.0322
41.0049
40.9944
40.9906
41.0322
41.0098
41.0185
40.9925
41.0228
41.0012
41.0296
40.9994
41.0244
41.004
41.0258
41.1813
41.181
39.1047
36.7632
38.8869
40.7831
42.3261
5.70598
11.7784
18.0255
26.2228
35.5821
43.4075
48.5763
51.144
52.1907
52.4334
52.2713
52.0134
51.6125
51.0724
50.4588
49.8514
49.2704
48.7396
48.2493
47.7862
47.345
46.9189
46.4731
45.9799
45.4079
44.8256
44.2784
43.7705
43.3045
42.8819
42.5034
42.1679
41.8732
41.6161
41.3932
41.2008
41.0353
40.8936
40.7719
40.6684
40.5793
40.5042
40.4388
40.3843
40.3361
40.2967
40.2611
40.2321
40.2056
40.1846
40.1656
40.1518
40.1362
40.1289
40.1126
40.1142
40.0842
40.0556
39.8991
41.2603
43.503
43.4827
42.6066
41.1537
39.8617
38.6723
37.7617
36.9893
36.4438
35.9601
35.6483
35.4405
35.2472
35.0027
34.9105
34.9783
34.9358
34.6332
34.694
34.7716
34.74
34.9183
34.8864
34.7043
34.6165
34.5238
34.4529
34.7187
34.7394
34.4052
34.6882
35.1654
34.7521
34.374
35.0436
35.3094
34.5268
34.2938
35.133
35.3012
34.6604
34.3898
34.8612
35.2424
35.041
34.6376
34.6442
34.9284
35.0316
34.8979
34.7241
34.7101
34.7611
34.8515
34.9386
34.9822
34.9689
34.932
34.8903
34.8711
34.8586
34.8404
34.8226
34.8183
34.8199
34.8217
34.8214
34.8201
34.8191
34.8185
34.8191
34.8199
34.8211
34.8225
34.8236
34.8251
34.8267
34.8275
34.8282
34.8291
34.8304
34.8312
34.8315
34.8321
34.8321
34.8323
34.8329
34.8331
34.8339
34.8346
34.8339
34.8351
34.8364
34.8356
34.835
34.8358
34.8371
34.8377
34.8364
34.8364
34.8385
34.8393
34.8382
34.839
34.8405
34.841
34.8409
34.8416
34.8427
34.8428
34.8421
34.8439
34.8455
34.8445
34.845
34.8479
34.8477
34.8461
34.8496
34.849
34.8487
34.8539
34.8495
34.8522
34.8545
34.8454
34.8577
34.8595
34.8403
34.8613
34.8682
34.8371
34.8636
34.8766
34.8349
34.8624
34.8882
34.8406
34.8543
34.892
34.8584
34.8534
34.8807
34.8634
34.8683
34.8821
34.852
34.8692
34.8965
34.8607
34.8639
34.8922
34.8694
34.8758
34.8976
34.8658
34.8723
34.9009
34.8757
34.8808
34.9056
34.8761
34.8782
34.9033
34.8747
34.8774
34.904
34.8768
34.8793
34.9065
34.8798
34.8818
34.9095
34.883
34.8843
34.9125
34.8864
34.8869
34.9152
34.8897
34.8894
34.9178
34.8926
34.8918
34.9203
34.8953
34.8939
34.9225
34.8979
34.8958
34.9246
34.9004
34.8971
34.9274
34.9021
34.8992
34.928
34.903
34.9009
34.9285
34.9067
34.8969
34.9342
34.9089
34.9013
34.931
34.9086
34.9051
34.9094
34.9287
34.908
34.9162
34.9121
34.9177
34.9206
34.9125
34.909
34.9136
34.9337
34.9128
34.9042
34.9023
34.933
34.9164
34.923
34.9043
34.9258
34.9102
34.9309
34.9102
34.9284
34.9134
34.9321
35.0662
34.9749
33.2585
31.3861
32.6718
34.0229
35.2364
3.53511
6.92841
10.987
15.9998
22.8814
30.719
37.5516
42.1586
44.8731
46.1094
46.5781
46.6447
46.4849
46.2688
45.9695
45.5734
45.1024
44.6276
44.1447
43.6585
43.1575
42.6255
42.0358
41.3767
40.6845
40.0298
39.4063
38.8263
38.2944
37.8128
37.3822
37.001
36.6666
36.3751
36.1224
35.9044
35.7168
35.5561
35.4181
35.3006
35.1996
35.1142
35.0402
34.9781
34.9236
34.8785
34.8386
34.8054
34.7759
34.7518
34.7305
34.7142
34.6975
34.6876
34.6719
34.6694
34.6443
34.6163
34.4911
35.5957
37.474
37.64
37.113
36.0545
35.0267
33.994
33.1693
32.4333
31.8846
31.39
31.0486
30.8063
30.5834
30.3352
30.2176
30.233
30.1599
29.9001
29.9289
29.9769
29.9529
30.0872
30.0582
29.911
29.829
29.7366
29.6731
29.8772
29.8772
29.608
29.8533
30.2461
29.8997
29.6099
30.1481
30.3505
29.7301
29.5556
30.2169
30.3474
29.8421
29.6343
30.0111
30.3164
30.1556
29.8396
29.8444
30.0611
30.1438
30.0425
29.9044
29.8827
29.9147
29.9843
30.0601
30.1048
30.1032
30.0772
30.0455
30.0289
30.0164
29.9995
29.9828
29.9769
29.9763
29.9765
29.9755
29.974
29.9728
29.9719
29.972
29.9723
29.9731
29.9742
29.9751
29.9763
29.9776
29.9784
29.979
29.9798
29.9809
29.9816
29.982
29.9826
29.9828
29.983
29.9835
29.9837
29.9845
29.985
29.9846
29.9856
29.9866
29.986
29.9855
29.9861
29.9872
29.9877
29.9867
29.9866
29.9883
29.9889
29.9881
29.9888
29.99
29.9904
29.9904
29.991
29.9919
29.992
29.9916
29.993
29.9943
29.9936
29.9941
29.9965
29.9963
29.9951
29.9979
29.9974
29.9973
30.0013
29.9979
30.0002
30.0018
29.9945
30.0049
30.0059
29.9903
30.0081
30.0129
29.9876
30.0103
30.0198
29.9857
30.0094
30.0293
29.9907
30.003
30.0327
30.0061
30.0026
30.0239
30.0104
30.0147
30.0249
30.0003
30.0155
30.0369
30.0082
30.0115
30.0337
30.0157
30.0214
30.0382
30.0127
30.0187
30.0412
30.0215
30.0263
30.0458
30.0223
30.0245
30.044
30.0211
30.0237
30.0444
30.0226
30.0251
30.0463
30.025
30.0272
30.0488
30.0277
30.0294
30.0513
30.0306
30.0316
30.0538
30.0334
30.0338
30.056
30.0359
30.0359
30.0583
30.0383
30.0378
30.0602
30.0405
30.0395
30.0623
30.0426
30.0407
30.0647
30.044
30.0424
30.0648
30.0449
30.0439
30.0661
30.0481
30.0413
30.0718
30.0497
30.044
30.0673
30.0496
30.0468
30.0509
30.0653
30.0493
30.0563
30.0532
30.058
30.0601
30.0534
30.0502
30.0544
30.0699
30.0536
30.0467
30.0461
30.0692
30.0563
30.0611
30.0479
30.0637
30.0523
30.0671
30.0526
30.0662
30.055
30.0709
30.1835
30.0561
28.6373
27.1843
27.962
28.9039
29.8291
2.36125
4.26761
6.61786
10.0145
14.2576
20.0763
26.6544
32.5486
36.9019
39.5488
41.0638
41.7358
41.9654
41.9627
41.82
41.6214
41.3559
41.0192
40.5981
40.1175
39.5764
38.9476
38.2348
37.4735
36.7423
36.0457
35.3765
34.751
34.1772
33.6586
33.1961
32.7876
32.4298
32.1184
31.8486
31.616
31.4158
31.2441
31.0969
30.9712
30.8634
30.7718
30.6929
30.6261
30.5683
30.5195
30.4774
30.4415
30.4105
30.3845
30.3619
30.3439
30.3267
30.3152
30.3001
30.295
30.2738
30.248
30.1539
31.0198
32.5707
32.8054
32.4914
31.7317
30.9332
30.0693
29.346
28.6712
28.146
27.6623
27.3101
27.0479
26.8053
26.5575
26.4206
26.3946
26.2978
26.0687
26.0702
26.092
26.0677
26.1641
26.1332
26.0104
25.9352
25.8478
25.7907
25.9464
25.9324
25.716
25.9209
26.242
25.9523
25.7311
26.1657
26.3194
25.8288
25.6981
26.2237
26.3217
25.9219
25.7635
26.0676
26.3089
26.1759
25.9288
25.9356
26.1038
26.1669
26.0874
25.9794
25.9563
25.9763
26.0288
26.0919
26.1336
26.1386
26.1209
26.0977
26.0844
26.0729
26.0577
26.0427
26.0361
26.0341
26.033
26.0313
26.0296
26.0282
26.0271
26.0267
26.0267
26.0272
26.0279
26.0285
26.0295
26.0306
26.0313
26.0319
26.0326
26.0334
26.0341
26.0346
26.0352
26.0354
26.0357
26.0361
26.0364
26.037
26.0375
26.0372
26.0381
26.0389
26.0384
26.038
26.0385
26.0394
26.0398
26.039
26.039
26.0404
26.0409
26.0403
26.0408
26.0418
26.0422
26.0422
26.0428
26.0435
26.0437
26.0434
26.0445
26.0456
26.045
26.0455
26.0476
26.0474
26.0466
26.0488
26.0484
26.0484
26.0515
26.0489
26.0508
26.052
26.0461
26.055
26.0554
26.043
26.0578
26.0611
26.0408
26.0598
26.0668
26.0393
26.0592
26.0746
26.0435
26.0542
26.0777
26.0565
26.0542
26.071
26.0603
26.0642
26.0718
26.0517
26.065
26.0818
26.0587
26.062
26.0795
26.0651
26.0703
26.0833
26.0628
26.0683
26.0861
26.0704
26.0749
26.0903
26.0716
26.0739
26.089
26.0706
26.0731
26.0892
26.0717
26.0742
26.0907
26.0737
26.0759
26.0928
26.076
26.0778
26.0951
26.0785
26.0798
26.0972
26.0809
26.0818
26.0992
26.0831
26.0837
26.1013
26.0852
26.0854
26.1031
26.0871
26.0869
26.1051
26.0889
26.088
26.1072
26.0902
26.0895
26.1071
26.0912
26.0908
26.1085
26.0941
26.0893
26.1143
26.0952
26.0911
26.1093
26.0951
26.093
26.0968
26.1077
26.095
26.1011
26.0988
26.1028
26.1043
26.0989
26.096
26.0998
26.1117
26.0988
26.0934
26.0938
26.1112
26.101
26.1043
26.0952
26.1071
26.0988
26.1092
26.0987
26.1091
26.1007
26.1139
26.2059
26.0984
24.95
23.8233
24.2971
24.9477
25.6413
1.63164
2.92193
4.20355
6.24531
9.19154
12.8463
17.6743
23.2009
28.3709
32.3892
35.089
36.7036
37.6043
38.0094
38.1203
38.0621
37.8892
37.6192
37.2533
36.8008
36.2452
35.5797
34.8344
34.0809
33.3528
32.6404
31.954
31.3101
30.7197
30.1877
29.7145
29.2978
28.9335
28.6167
28.3425
28.106
27.9024
27.7277
27.5778
27.4497
27.3399
27.2463
27.1659
27.0975
27.0386
26.9885
26.9459
26.9089
26.8776
26.8508
26.8278
26.8092
26.792
26.7796
26.7654
26.7586
26.7408
26.7181
26.6507
27.2929
28.5521
28.7811
28.5885
28.0444
27.4325
26.7304
26.1133
25.5141
25.0304
24.5727
24.2255
23.956
23.7038
23.4604
23.3101
23.2516
23.1377
22.9325
22.9104
22.909
22.8796
22.943
22.9079
22.803
22.7337
22.6536
22.6024
22.7187
22.696
22.5239
22.6892
22.9445
22.71
22.5414
22.8891
23.0044
22.6223
22.5247
22.9408
23.0124
22.699
22.5794
22.8235
23.0114
22.9002
22.7088
22.7175
22.8486
22.8952
22.8314
22.7478
22.7268
22.7398
22.7788
22.8293
22.8655
22.8738
22.8621
22.8457
22.8357
22.8257
22.8125
22.7995
22.7928
22.7899
22.7879
22.7858
22.7838
22.7822
22.7809
22.7803
22.78
22.7801
22.7806
22.781
22.7817
22.7826
22.7832
22.7838
22.7844
22.785
22.7856
22.7861
22.7867
22.787
22.7872
22.7877
22.7879
22.7885
22.7889
22.7888
22.7895
22.7902
22.7898
22.7895
22.7899
22.7907
22.791
22.7904
22.7905
22.7916
22.792
22.7916
22.792
22.7929
22.7932
22.7933
22.7937
22.7944
22.7946
22.7944
22.7954
22.7962
22.7959
22.7963
22.798
22.7979
22.7973
22.7992
22.7988
22.7989
22.8014
22.7993
22.801
22.8018
22.7973
22.8046
22.8047
22.7952
22.8071
22.8094
22.7937
22.809
22.8141
22.7925
22.8087
22.8205
22.796
22.805
22.8234
22.8067
22.8053
22.8186
22.8102
22.8136
22.8193
22.8032
22.8145
22.8276
22.8093
22.8124
22.8261
22.8147
22.8193
22.8293
22.813
22.818
22.8319
22.8196
22.8237
22.8357
22.8209
22.8232
22.8349
22.8202
22.8226
22.835
22.8211
22.8234
22.8362
22.8227
22.8249
22.838
22.8247
22.8266
22.84
22.8269
22.8284
22.842
22.829
22.8302
22.8438
22.831
22.8319
22.8457
22.8328
22.8334
22.8474
22.8345
22.8349
22.8493
22.8362
22.836
22.8512
22.8374
22.8372
22.8511
22.8383
22.8385
22.8524
22.8411
22.8378
22.8578
22.842
22.839
22.8532
22.842
22.8404
22.8437
22.8518
22.8418
22.847
22.8454
22.8487
22.8498
22.8454
22.843
22.8462
22.8554
22.8452
22.8411
22.8419
22.8552
22.847
22.8492
22.8429
22.852
22.8459
22.8532
22.8455
22.8535
22.8471
22.8578
22.9307
22.8521
21.9517
21.1092
21.4002
21.8523
22.369
1.17464
2.13684
2.95435
4.12215
5.96012
8.55751
11.6379
15.669
20.2912
24.8169
28.5311
31.2172
32.9468
33.987
34.5479
34.7656
34.7568
34.5615
34.2193
33.7591
33.1752
32.5206
31.8131
31.0988
30.3853
29.6825
29.0045
28.3683
27.7864
27.2641
26.8012
26.3945
26.0394
25.7308
25.4635
25.2327
25.0339
24.863
24.7163
24.5906
24.4829
24.3908
24.3118
24.2443
24.1864
24.1369
24.095
24.0585
24.0278
24.0012
23.9787
23.9602
23.9435
23.9309
23.9177
23.91
23.8951
23.876
23.8295
24.2626
25.2567
25.441
25.3084
24.9127
24.4448
23.8853
23.37
22.8524
22.4195
21.9991
21.6678
21.4007
21.1485
20.9127
20.7542
20.6704
20.5454
20.36
20.318
20.2964
20.2594
20.2935
20.2533
20.1618
20.0976
20.0258
19.9799
20.0634
20.036
19.9021
20.0303
20.2261
20.043
19.9165
20.1888
20.2728