/*--------------------------------*- C++ -*----------------------------------*\
| =========                 |                                                 |
| \\      /  F ield         | foam-extend: Open Source CFD                    |
|  \\    /   O peration     | Version:     3.2                                |
|   \\  /    A nd           | Web:         http://www.foam-extend.org         |
|    \\/     M anipulation  | For copyright notice see file Copyright         |
\*---------------------------------------------------------------------------*/
FoamFile
{
    version     2.0;
    format      ascii;
    class       volScalarField;
    location    "50";
    object      p;
}
// * * * * * * * * * * * * * * * * * * * * * * * * * * * * * * * * * * * * * //

dimensions      [1 -1 -2 0 0 0 0];

internalField   nonuniform List<scalar> 
5400
(
1710.76
1654.15
1665.55
1647.12
1646.2
1636.04
1632.27
1624.73
1620.31
1614.04
1609.4
1603.83
1599.14
1594.01
1589.29
1584.41
1579.71
1574.93
1570.26
1565.55
1560.84
1556.06
1551.27
1546.38
1541.45
1536.4
1531.25
1525.95
1520.56
1515.05
1509.47
1503.81
1498.1
1492.34
1486.54
1480.7
1474.84
1468.94
1463.04
1457.11
1451.18
1445.22
1439.27
1433.29
1427.32
1421.33
1415.36
1409.34
1403.4
1397.3
1391.48
1385.17
1379.67
1372.85
1368.17
1360.01
1357.48
1345.84
1348.82
1334.05
1365.18
1394.56
1394.4
1404.88
1399.37
1403.5
1397.66
1399.56
1393.84
1395.11
1389.66
1389.45
1386.38
1384.71
1379.73
1378.99
1376.46
1377.48
1367.23
1368.37
1367.96
1363.25
1366.13
1362.46
1358.21
1355.02
1353.07
1345.12
1348.46
1346.09
1336.6
1335.5
1344.78
1334.02
1320.85
1329.64
1336.58
1316.94
1310.87
1322.45
1322.12
1307.23
1303.33
1308.22
1310.29
1303.17
1295.45
1295.25
1297.17
1294.51
1289.61
1285.13
1282.64
1280.29
1278.7
1277.01
1275.16
1272.78
1270.24
1267.63
1265.31
1262.89
1260.27
1257.68
1255.23
1252.79
1250.33
1247.83
1245.33
1242.81
1240.31
1237.8
1235.3
1232.81
1230.32
1227.83
1225.34
1222.86
1220.38
1217.91
1215.43
1212.95
1210.48
1208
1205.52
1203.05
1200.58
1198.12
1195.65
1193.2
1190.74
1188.25
1185.8
1183.36
1180.86
1178.37
1175.91
1173.45
1170.98
1168.49
1166.02
1163.59
1161.13
1158.63
1156.17
1153.73
1151.25
1148.76
1146.29
1143.84
1141.37
1138.86
1136.42
1133.98
1131.49
1129.01
1126.6
1124.16
1121.59
1119.24
1116.77
1114.17
1111.96
1109.27
1106.87
1104.62
1101.73
1099.58
1097.33
1094.15
1092.18
1090.12
1086.59
1084.75
1082.88
1079.16
1077.2
1075.71
1071.88
1069.62
1068.31
1064.79
1062.19
1060.69
1057.4
1055.05
1053.28
1049.82
1047.62
1046.11
1042.57
1040.11
1038.6
1035.24
1032.85
1031.28
1027.81
1025.4
1023.91
1020.54
1018.12
1016.63
1013.23
1010.76
1009.26
1005.87
1003.37
1001.89
998.504
995.988
994.516
991.14
988.606
987.145
983.777
981.221
979.773
976.414
973.836
972.397
969.051
966.453
965.018
961.684
959.068
957.643
954.313
951.685
950.262
946.944
944.311
942.865
939.61
936.866
935.545
932.182
929.498
928.168
924.72
922.329
920.519
917.737
914.507
913.505
910.109
907.229
906.179
902.31
900.788
897.403
896.272
892.297
891.089
887.729
885.865
883.311
880.635
878.439
875.385
874.179
870.339
868.926
865.092
864.648
860.138
859.472
855.065
854.83
850.235
849.991
845.25
845.125
840.267
840.554
833.248
824.927
777.718
725.241
744.633
721.627
1694.37
1637.99
1649.31
1630.85
1629.92
1619.76
1615.99
1608.45
1604.03
1597.75
1593.12
1587.55
1582.86
1577.73
1573
1568.13
1563.42
1558.64
1553.97
1549.27
1544.55
1539.78
1534.98
1530.1
1525.16
1520.11
1514.96
1509.66
1504.27
1498.76
1493.19
1487.53
1481.82
1476.05
1470.25
1464.41
1458.55
1452.66
1446.75
1440.82
1434.89
1428.93
1422.98
1417
1411.04
1405.04
1399.08
1393.06
1387.12
1381.02
1375.2
1368.89
1363.39
1356.56
1351.88
1343.72
1341.2
1329.55
1332.56
1317.86
1348.92
1378.21
1378.08
1388.56
1383.06
1387.19
1381.35
1383.26
1377.53
1378.8
1373.36
1373.15
1370.08
1368.41
1363.43
1362.69
1360.15
1361.17
1350.94
1352.07
1351.65
1346.95
1349.81
1346.15
1341.91
1338.71
1336.77
1328.83
1332.14
1329.77
1320.33
1319.2
1328.45
1317.73
1304.59
1313.31
1320.23
1300.67
1294.6
1306.11
1305.78
1290.95
1287.05
1291.91
1293.97
1286.86
1279.17
1278.96
1280.86
1278.2
1273.3
1268.84
1266.34
1263.99
1262.4
1260.71
1258.85
1256.47
1253.94
1251.33
1249
1246.59
1243.96
1241.38
1238.93
1236.49
1234.03
1231.53
1229.02
1226.51
1224
1221.5
1219
1216.5
1214.01
1211.53
1209.04
1206.56
1204.08
1201.6
1199.12
1196.65
1194.18
1191.69
1189.22
1186.74
1184.27
1181.82
1179.35
1176.89
1174.44
1171.94
1169.5
1167.05
1164.56
1162.07
1159.61
1157.15
1154.68
1152.19
1149.72
1147.29
1144.83
1142.33
1139.87
1137.42
1134.94
1132.46
1129.99
1127.54
1125.06
1122.56
1120.11
1117.68
1115.19
1112.71
1110.3
1107.85
1105.28
1102.94
1100.47
1097.87
1095.66
1092.97
1090.56
1088.32
1085.42
1083.28
1081.03
1077.85
1075.87
1073.81
1070.28
1068.45
1066.57
1062.86
1060.89
1059.4
1055.58
1053.32
1052
1048.49
1045.89
1044.38
1041.1
1038.75
1036.98
1033.52
1031.31
1029.8
1026.27
1023.8
1022.3
1018.94
1016.55
1014.97
1011.51
1009.1
1007.61
1004.24
1001.82
1000.33
996.926
994.453
992.959
989.565
987.067
985.584
982.203
979.685
978.211
974.839
972.304
970.84
967.476
964.919
963.468
960.113
957.534
956.092
952.75
950.15
948.714
945.383
942.765
941.339
938.012
935.383
933.958
930.643
928.009
926.561
923.309
920.563
919.241
915.881
913.196
911.863
908.419
906.026
904.215
901.435
898.205
897.201
893.808
890.926
889.875
886.008
884.486
881.101
879.969
875.996
874.786
871.428
869.562
867.008
864.332
862.137
859.083
857.875
854.037
852.624
848.79
848.344
843.835
843.17
838.763
838.527
833.933
833.688
828.948
828.821
823.965
824.255
816.868
808.512
761.472
709.048
728.358
705.346
1677.76
1621.87
1633.1
1614.6
1613.66
1603.48
1599.72
1592.17
1587.75
1581.47
1576.84
1571.27
1566.57
1561.44
1556.72
1551.84
1547.14
1542.35
1537.69
1532.98
1528.27
1523.49
1518.69
1513.81
1508.88
1503.83
1498.68
1493.38
1487.98
1482.48
1476.9
1471.24
1465.53
1459.77
1453.97
1448.13
1442.27
1436.37
1430.47
1424.54
1418.61
1412.65
1406.7
1400.72
1394.75
1388.76
1382.79
1376.77
1370.83
1364.74
1358.91
1352.6
1347.1
1340.28
1335.6
1327.44
1324.91
1313.27
1316.34
1301.72
1332.67
1361.83
1361.7
1372.19
1366.7
1370.84
1365
1366.9
1361.19
1362.45
1357.02
1356.8
1353.72
1352.05
1347.1
1346.35
1343.78
1344.8
1334.62
1335.73
1335.31
1330.61
1333.45
1329.79
1325.56
1322.36
1320.43
1312.5
1315.77
1313.4
1304.03
1302.85
1312.06
1301.41
1288.3
1296.91
1303.82
1284.39
1278.32
1289.7
1289.38
1274.65
1270.75
1275.55
1277.59
1270.5
1262.86
1262.63
1264.49
1261.83
1256.95
1252.5
1250
1247.65
1246.06
1244.36
1242.5
1240.12
1237.59
1234.99
1232.66
1230.24
1227.62
1225.03
1222.58
1220.14
1217.68
1215.18
1212.68
1210.16
1207.66
1205.15
1202.65
1200.16
1197.67
1195.18
1192.69
1190.21
1187.73
1185.26
1182.78
1180.3
1177.83
1175.34
1172.87
1170.4
1167.93
1165.47
1163
1160.55
1158.09
1155.6
1153.15
1150.71
1148.21
1145.72
1143.26
1140.8
1138.33
1135.84
1133.37
1130.94
1128.48
1125.98
1123.52
1121.08
1118.6
1116.11
1113.64
1111.19
1108.72
1106.21
1103.77
1101.33
1098.84
1096.36
1093.95
1091.51
1088.94
1086.59
1084.12
1081.52
1079.31
1076.62
1074.22
1071.97
1069.08
1066.93
1064.68
1061.51
1059.53
1057.46
1053.94
1052.1
1050.22
1046.52
1044.55
1043.05
1039.24
1036.97
1035.65
1032.14
1029.54
1028.04
1024.76
1022.4
1020.63
1017.17
1014.97
1013.45
1009.92
1007.46
1005.95
1002.6
1000.2
998.624
995.166
992.749
991.259
987.898
985.473
983.977
980.582
978.106
976.609
973.221
970.72
969.235
965.858
963.338
961.862
958.495
955.957
954.491
951.132
948.572
947.119
943.769
941.187
939.743
936.405
933.804
932.365
929.039
926.419
924.99
921.667
919.036
917.609
914.299
911.662
910.212
906.965
904.217
902.892
899.537
896.85
895.515
892.074
889.681
887.865
885.091
881.86
880.85
877.463
874.581
873.526
869.663
868.141
864.754
863.62
859.652
858.438
855.083
853.215
850.661
847.986
845.792
842.736
841.527
837.691
836.279
832.444
831.997
827.489
826.824
822.418
822.18
817.586
817.341
812.603
812.473
807.62
807.918
800.396
792.009
745.17
692.943
712.1
689.071
1661.16
1605.8
1616.9
1598.37
1597.4
1587.22
1583.45
1575.89
1571.47
1565.19
1560.56
1554.98
1550.29
1545.16
1540.43
1535.56
1530.85
1526.07
1521.4
1516.69
1511.98
1507.21
1502.41
1497.52
1492.59
1487.54
1482.39
1477.09
1471.7
1466.19
1460.61
1454.95
1449.25
1443.48
1437.68
1431.84
1425.98
1420.09
1414.18
1408.25
1402.32
1396.36
1390.41
1384.43
1378.47
1372.47
1366.51
1360.49
1354.55
1348.45
1342.63
1336.32
1330.82
1323.99
1319.32
1311.15
1308.63
1296.98
1300.13
1285.55
1316.37
1345.41
1345.24
1355.75
1350.26
1354.41
1348.57
1350.48
1344.76
1346.02
1340.6
1340.38
1337.29
1335.62
1330.68
1329.94
1327.34
1328.36
1318.22
1319.31
1318.88
1314.2
1317
1313.35
1309.14
1305.93
1304.02
1296.1
1299.32
1296.95
1287.66
1286.44
1295.58
1285.01
1271.96
1280.44
1287.33
1268.03
1261.98
1273.23
1272.91
1258.26
1254.39
1259.12
1261.13
1254.08
1246.46
1246.23
1248.06
1245.39
1240.53
1236.09
1233.59
1231.23
1229.64
1227.94
1226.07
1223.7
1221.17
1218.56
1216.23
1213.82
1211.19
1208.61
1206.16
1203.72
1201.26
1198.76
1196.25
1193.74
1191.23
1188.73
1186.23
1183.73
1181.24
1178.76
1176.27
1173.79
1171.31
1168.83
1166.35
1163.88
1161.41
1158.92
1156.45
1153.97
1151.5
1149.05
1146.58
1144.12
1141.67
1139.17
1136.73
1134.28
1131.79
1129.3
1126.84
1124.38
1121.91
1119.42
1116.95
1114.52
1112.06
1109.56
1107.1
1104.66
1102.17
1099.69
1097.22
1094.77
1092.29
1089.79
1087.35
1084.91
1082.42
1079.94
1077.53
1075.08
1072.51
1070.17
1067.7
1065.1
1062.89
1060.2
1057.8
1055.55
1052.66
1050.51
1048.26
1045.09
1043.1
1041.04
1037.52
1035.68
1033.8
1030.1
1028.12
1026.62
1022.82
1020.55
1019.23
1015.73
1013.12
1011.61
1008.34
1005.98
1004.21
1000.76
998.544
997.028
993.503
991.036
989.525
986.179
983.779
982.199
978.749
976.328
974.834
971.48
969.053
967.552
964.163
961.686
960.184
956.803
954.3
952.81
949.44
946.918
945.437
942.077
939.537
938.066
934.713
932.152
930.694
927.351
924.768
923.318
919.987
917.385
915.94
912.62
910
908.565
905.249
902.618
901.184
897.88
895.244
893.787
890.546
887.798
886.467
883.119
880.431
879.09
875.656
873.264
871.44
868.671
865.444
864.424
861.044
858.163
857.102
853.244
851.721
848.333
847.198
843.234
842.016
838.664
836.794
834.24
831.566
829.373
826.317
825.104
821.271
819.86
816.025
815.574
811.07
810.404
805.999
805.759
801.166
800.92
796.183
796.051
791.201
791.507
783.833
775.473
728.799
676.932
695.848
672.798
1644.44
1589.8
1600.75
1582.13
1581.14
1570.96
1567.18
1559.62
1555.2
1548.91
1544.28
1538.7
1534.01
1528.88
1524.15
1519.27
1514.57
1509.79
1505.12
1500.41
1495.69
1490.92
1486.12
1481.24
1476.3
1471.25
1466.1
1460.8
1455.41
1449.9
1444.33
1438.67
1432.96
1427.2
1421.4
1415.56
1409.7
1403.8
1397.9
1391.97
1386.04
1380.08
1374.13
1368.15
1362.18
1356.19
1350.22
1344.2
1338.26
1332.17
1326.34
1320.03
1314.53
1307.71
1303.03
1294.87
1292.35
1280.69
1283.93
1269.36
1300.02
1328.9
1328.7
1339.21
1333.72
1337.87
1332.04
1333.94
1328.23
1329.49
1324.07
1323.85
1320.75
1319.09
1314.17
1313.42
1310.8
1311.81
1301.73
1302.79
1302.35
1297.68
1300.45
1296.8
1292.6
1289.39
1287.5
1279.6
1282.77
1280.4
1271.18
1269.95
1278.96
1268.47
1255.55
1263.89
1270.7
1251.54
1245.57
1256.67
1256.3
1241.76
1237.95
1242.59
1244.53
1237.55
1229.96
1229.72
1231.52
1228.83
1224.01
1219.57
1217.07
1214.72
1213.12
1211.41
1209.54
1207.17
1204.64
1202.04
1199.7
1197.29
1194.67
1192.08
1189.63
1187.19
1184.73
1182.23
1179.73
1177.21
1174.71
1172.2
1169.7
1167.21
1164.72
1162.23
1159.74
1157.26
1154.78
1152.31
1149.83
1147.35
1144.88
1142.4
1139.92
1137.45
1134.98
1132.52
1130.05
1127.6
1125.14
1122.65
1120.2
1117.76
1115.26
1112.77
1110.31
1107.85
1105.38
1102.89
1100.42
1097.99
1095.53
1093.03
1090.58
1088.13
1085.65
1083.16
1080.7
1078.24
1075.77
1073.27
1070.82
1068.38
1065.89
1063.42
1061
1058.56
1055.99
1053.64
1051.17
1048.57
1046.36
1043.67
1041.27
1039.02
1036.13
1033.98
1031.73
1028.57
1026.57
1024.51
1021
1019.15
1017.27
1013.58
1011.6
1010.09
1006.3
1004.03
1002.69
999.202
996.6
995.08
991.814
989.452
987.677
984.236
982.02
980.495
976.982
974.514
972.994
969.657
967.255
965.668
962.227
959.806
958.303
954.958
952.53
951.021
947.642
945.163
943.653
940.281
937.777
936.279
932.918
930.396
928.906
925.555
923.015
921.536
918.192
915.63
914.163
910.829
908.246
906.788
903.465
900.863
899.409
896.099
893.479
892.035
888.727
886.097
884.654
881.358
878.723
877.257
874.024
871.278
869.937
866.597
863.911
862.56
859.134
856.743
854.912
852.148
848.926
847.894
844.523
841.643
840.573
836.722
835.198
831.81
830.671
826.714
825.491
822.142
820.27
817.715
815.042
812.851
809.795
808.577
804.748
803.337
799.505
799.046
794.548
793.88
789.478
789.234
784.643
784.395
779.66
779.525
774.679
774.989
767.16
758.863
712.498
660.839
679.603
656.524
1627.84
1573.67
1584.61
1565.86
1564.87
1554.7
1550.92
1543.35
1538.93
1532.64
1528
1522.43
1517.73
1512.6
1507.87
1502.99
1498.29
1493.5
1488.83
1484.13
1479.41
1474.64
1469.84
1464.95
1460.02
1454.97
1449.82
1444.52
1439.12
1433.62
1428.04
1422.38
1416.68
1410.91
1405.11
1399.27
1393.41
1387.52
1381.61
1375.69
1369.75
1363.79
1357.84
1351.86
1345.9
1339.9
1333.94
1327.92
1321.98
1315.88
1310.06
1303.75
1298.25
1291.42
1286.75
1278.58
1276.06
1264.41
1267.72
1253.14
1283.61
1312.27
1312.06
1322.54
1317.04
1321.2
1315.37
1317.27
1311.56
1312.81
1307.41
1307.18
1304.07
1302.42
1297.51
1296.76
1294.12
1295.11
1285.09
1286.13
1285.67
1281.01
1283.76
1280.1
1275.93
1272.71
1270.83
1262.97
1266.08
1263.7
1254.57
1253.32
1262.2
1251.81
1239.01
1247.19
1253.92
1234.94
1229.02
1239.95
1239.55
1225.14
1221.38
1225.91
1227.8
1220.89
1213.32
1213.09
1214.84
1212.13
1207.35
1202.92
1200.43
1198.06
1196.46
1194.75
1192.88
1190.5
1187.97
1185.37
1183.04
1180.62
1178
1175.42
1172.97
1170.53
1168.06
1165.57
1163.06
1160.55
1158.04
1155.54
1153.04
1150.54
1148.05
1145.57
1143.08
1140.6
1138.12
1135.64
1133.16
1130.69
1128.22
1125.73
1123.26
1120.78
1118.31
1115.86
1113.38
1110.93
1108.48
1105.98
1103.53
1101.09
1098.6
1096.11
1093.65
1091.19
1088.72
1086.23
1083.76
1081.33
1078.87
1076.37
1073.91
1071.46
1068.98
1066.5
1064.03
1061.58
1059.1
1056.6
1054.16
1051.72
1049.23
1046.75
1044.34
1041.89
1039.33
1036.98
1034.51
1031.91
1029.7
1027.01
1024.61
1022.36
1019.47
1017.31
1015.06
1011.91
1009.91
1007.84
1004.35
1002.49
1000.6
996.928
994.937
993.419
989.649
987.372
986.023
982.544
979.942
978.413
975.156
972.791
971.01
967.58
965.359
963.827
960.325
957.855
956.328
952.999
950.595
949.001
945.571
943.147
941.636
938.301
935.87
934.354
930.984
928.504
926.986
923.624
921.119
919.612
916.261
913.737
912.24
908.898
906.357
904.869
901.535
898.973
897.497
894.172
891.589
890.122
886.809
884.206
882.744
879.442
876.822
875.369
872.071
869.44
867.988
864.702
862.067
860.592
857.368
854.623
853.272
849.941
847.255
845.895
842.478
840.087
838.248
835.49
832.272
831.228
827.867
824.988
823.909
820.066
818.541
815.153
814.009
810.059
808.831
805.486
803.61
801.056
798.384
796.194
793.138
791.915
788.091
786.68
782.849
782.383
777.891
777.222
772.823
772.573
767.986
767.735
763.004
762.864
758.021
758.331
750.354
742.168
696.246
644.668
663.357
640.249
1611.36
1557.45
1568.47
1549.59
1548.6
1538.43
1534.65
1527.09
1522.66
1516.37
1511.73
1506.15
1501.46
1496.32
1491.59
1486.71
1482.01
1477.22
1472.55
1467.84
1463.13
1458.35
1453.55
1448.67
1443.73
1438.68
1433.53
1428.23
1422.84
1417.33
1411.75
1406.1
1400.39
1394.63
1388.83
1382.99
1377.13
1371.23
1365.33
1359.4
1353.47
1347.51
1341.56
1335.58
1329.61
1323.62
1317.65
1311.63
1305.69
1299.6
1293.77
1287.47
1281.97
1275.14
1270.46
1262.3
1259.78
1248.12
1251.52
1236.89
1267.1
1295.51
1295.25
1305.72
1300.2
1304.36
1298.53
1300.43
1294.72
1295.97
1290.57
1290.34
1287.23
1285.57
1280.68
1279.92
1277.26
1278.24
1268.29
1269.29
1268.82
1264.17
1266.88
1263.22
1259.08
1255.87
1254
1246.17
1249.22
1246.84
1237.8
1236.51
1245.27
1234.99
1222.29
1230.31
1236.97
1218.18
1212.3
1223.06
1222.62
1208.36
1204.64
1209.06
1210.89
1204.06
1196.52
1196.29
1197.99
1195.26
1190.52
1186.11
1183.62
1181.25
1179.63
1177.91
1176.04
1173.66
1171.14
1168.54
1166.2
1163.79
1161.17
1158.58
1156.13
1153.69
1151.23
1148.73
1146.23
1143.71
1141.21
1138.71
1136.2
1133.71
1131.22
1128.73
1126.25
1123.76
1121.28
1118.81
1116.33
1113.85
1111.38
1108.9
1106.42
1103.95
1101.48
1099.02
1096.55
1094.1
1091.64
1089.15
1086.7
1084.26
1081.76
1079.28
1076.81
1074.35
1071.89
1069.4
1066.92
1064.49
1062.03
1059.53
1057.08
1054.63
1052.15
1049.67
1047.2
1044.74
1042.27
1039.77
1037.32
1034.88
1032.39
1029.92
1027.5
1025.06
1022.49
1020.15
1017.68
1015.08
1012.87
1010.18
1007.77
1005.52
1002.64
1000.48
998.228
995.08
993.077
991.007
987.521
985.652
983.76
980.103
978.105
976.58
972.824
970.543
969.184
965.716
963.114
961.577
958.327
955.96
954.174
950.755
948.529
946.989
943.499
941.027
939.491
936.173
933.766
932.165
928.746
926.319
924.8
921.475
919.041
917.517
914.158
911.675
910.15
906.798
904.291
902.776
899.436
896.91
895.404
892.073
889.53
888.034
884.71
882.146
880.662
877.347
874.763
873.287
869.984
867.381
865.909
862.617
859.997
858.535
855.246
852.615
851.154
847.877
845.242
843.758
840.543
837.799
836.438
833.117
830.431
829.062
825.654
823.264
821.416
818.665
815.45
814.394
811.043
808.165
807.077
803.242
801.715
798.327
797.179
793.236
792.003
788.662
786.783
784.229
781.559
779.37
776.313
775.085
771.266
769.855
766.027
765.552
761.067
760.395
756.001
755.744
751.161
750.905
746.18
746.035
741.196
741.499
733.389
725.367
679.939
628.506
647.11
623.975
1594.85
1541.28
1552.27
1533.32
1532.34
1522.15
1518.37
1510.82
1506.39
1500.1
1495.46
1489.88
1485.18
1480.04
1475.32
1470.43
1465.73
1460.94
1456.27
1451.56
1446.85
1442.07
1437.27
1432.38
1427.45
1422.4
1417.25
1411.95
1406.55
1401.05
1395.47
1389.81
1384.11
1378.34
1372.54
1366.7
1360.84
1354.95
1349.05
1343.12
1337.18
1331.23
1325.27
1319.29
1313.33
1307.33
1301.37
1295.35
1289.41
1283.31
1277.49
1271.18
1265.68
1258.85
1254.18
1246.01
1243.5
1231.84
1235.3
1220.61
1250.5
1278.6
1278.26
1288.71
1283.15
1287.32
1281.48
1283.39
1277.67
1278.92
1273.53
1273.28
1270.17
1268.52
1263.64
1262.88
1260.19
1261.17
1251.28
1252.26
1251.77
1247.12
1249.79
1246.13
1242.02
1238.81
1236.96
1229.16
1232.14
1229.77
1220.82
1219.49
1228.12
1217.98
1205.38
1213.21
1219.8
1201.23
1195.38
1205.95
1205.48
1191.39
1187.71
1191.99
1193.77
1187.03
1179.53
1179.28
1180.93
1178.19
1173.48
1169.1
1166.61
1164.23
1162.61
1160.88
1159
1156.61
1154.1
1151.49
1149.16
1146.74
1144.13
1141.54
1139.09
1136.65
1134.19
1131.69
1129.19
1126.68
1124.17
1121.67
1119.17
1116.67
1114.18
1111.69
1109.21
1106.72
1104.25
1101.77
1099.29
1096.82
1094.34
1091.86
1089.38
1086.91
1084.44
1081.99
1079.51
1077.06
1074.6
1072.11
1069.66
1067.22
1064.72
1062.24
1059.78
1057.31
1054.85
1052.36
1049.89
1047.45
1045
1042.5
1040.04
1037.59
1035.11
1032.63
1030.16
1027.71
1025.23
1022.73
1020.29
1017.85
1015.36
1012.89
1010.47
1008.03
1005.46
1003.11
1000.64
998.043
995.83
993.146
990.737
988.487
985.61
983.443
981.19
978.05
976.04
973.967
970.493
968.616
966.719
963.076
961.07
959.537
955.797
953.511
952.141
948.687
946.083
944.538
941.297
938.926
937.136
933.727
931.496
929.949
926.471
923.996
922.453
919.144
916.734
915.126
911.718
909.288
907.761
904.446
902.01
900.478
897.13
894.645
893.111
889.77
887.261
885.738
882.408
879.88
878.366
875.046
872.501
870.996
867.683
865.117
863.625
860.321
857.735
856.25
852.958
850.353
848.873
845.592
842.97
841.499
838.221
835.589
834.119
830.852
828.216
826.723
823.518
820.773
819.402
816.092
813.406
812.028
808.629
806.239
804.382
801.638
798.428
797.359
794.018
791.141
790.043
786.218
784.689
781.3
780.148
776.213
774.974
771.637
769.755
767.201
764.533
762.345
759.287
758.054
754.241
752.83
749.003
748.52
744.042
743.368
738.979
738.714
734.136
733.874
729.156
729.004
724.17
724.461
716.239
708.433
663.582
612.338
630.859
607.704
1578.31
1525.13
1536.02
1517.05
1516.06
1505.88
1502.1
1494.54
1490.12
1483.83
1479.19
1473.61
1468.91
1463.77
1459.04
1454.16
1449.45
1444.66
1439.99
1435.28
1430.56
1425.79
1420.99
1416.1
1411.17
1406.12
1400.96
1395.66
1390.27
1384.76
1379.19
1373.53
1367.82
1362.06
1356.26
1350.42
1344.56
1338.66
1332.76
1326.83
1320.9
1314.94
1308.99
1303.01
1297.05
1291.05
1285.08
1279.06
1273.13
1267.03
1261.2
1254.9
1249.4
1242.57
1237.89
1229.73
1227.21
1215.56
1219.06
1204.3
1233.77
1261.5
1261.06
1271.46
1265.89
1270.04
1264.19
1266.1
1260.38
1261.63
1256.24
1255.99
1252.87
1251.23
1246.36
1245.6
1242.88
1243.85
1234.03
1234.98
1234.46
1229.82
1232.45
1228.78
1224.71
1221.51
1219.68
1211.91
1214.83
1212.47
1203.6
1202.22
1210.73
1200.73
1188.23
1195.86
1202.4
1184.05
1178.23
1188.59
1188.1
1174.19
1170.54
1174.68
1176.4
1169.76
1162.3
1162.04
1163.62
1160.86
1156.21
1151.85
1149.37
1146.98
1145.34
1143.6
1141.71
1139.33
1136.81
1134.21
1131.87
1129.46
1126.84
1124.26
1121.81
1119.37
1116.9
1114.41
1111.91
1109.39
1106.89
1104.39
1101.89
1099.39
1096.9
1094.41
1091.93
1089.44
1086.97
1084.49
1082.01
1079.54
1077.06
1074.58
1072.1
1069.63
1067.16
1064.71
1062.23
1059.78
1057.33
1054.83
1052.38
1049.94
1047.44
1044.96
1042.5
1040.04
1037.57
1035.08
1032.61
1030.18
1027.72
1025.22
1022.76
1020.32
1017.83
1015.35
1012.88
1010.43
1007.96
1005.46
1003.01
1000.57
998.081
995.608
993.189
990.748
988.182
985.832
983.364
980.767
978.552
975.871
973.46
971.209
968.337
966.165
963.912
960.779
958.762
956.688
953.223
951.339
949.439
945.809
943.794
942.254
938.53
936.238
934.858
931.417
928.812
927.259
924.026
921.653
919.859
916.461
914.223
912.668
909.204
906.726
905.174
901.876
899.462
897.848
894.452
892.018
890.483
887.179
884.739
883.199
879.863
877.374
875.833
872.504
869.991
868.46
865.142
862.611
861.089
857.78
855.232
853.72
850.418
847.85
846.349
843.056
840.468
838.975
835.693
833.087
831.598
828.328
825.704
824.224
820.957
818.324
816.845
813.588
810.952
809.449
806.255
803.51
802.129
798.83
796.142
794.755
791.367
788.975
787.111
784.375
781.168
780.087
776.757
773.88
772.772
768.956
767.425
764.036
762.88
758.953
757.708
754.374
752.489
749.936
747.27
745.083
742.024
740.785
736.979
735.568
731.742
731.251
726.78
726.104
721.719
721.446
716.874
716.606
711.895
711.735
706.906
707.184
698.874
691.335
647.163
596.158
614.608
591.433
1561.82
1508.93
1519.78
1500.78
1499.78
1489.6
1485.84
1478.27
1473.84
1467.55
1462.91
1457.33
1452.63
1447.49
1442.77
1437.88
1433.17
1428.39
1423.72
1419
1414.29
1409.51
1404.71
1399.82
1394.89
1389.83
1384.68
1379.38
1373.98
1368.48
1362.9
1357.24
1351.54
1345.77
1339.97
1334.13
1328.27
1322.38
1316.48
1310.55
1304.61
1298.66
1292.7
1286.72
1280.76
1274.76
1268.8
1262.78
1256.84
1250.74
1244.92
1238.61
1233.11
1226.28
1221.61
1213.44
1210.93
1199.28
1202.81
1187.95
1216.91
1244.19
1243.62
1253.94
1248.35
1252.48
1246.63
1248.53
1242.82
1244.05
1238.67
1238.41
1235.28
1233.66
1228.8
1228.03
1225.28
1226.25
1216.49
1217.41
1216.87
1212.23
1214.8
1211.14
1207.1
1203.93
1202.12
1194.38
1197.22
1194.9
1186.11
1184.67
1193.06
1183.21
1170.8
1178.21
1184.71
1166.62
1160.8
1170.93
1170.43
1156.73
1153.09
1157.07
1158.75
1152.21
1144.8
1144.51
1146.03
1143.26
1138.67
1134.33
1131.85
1129.45
1127.8
1126.04
1124.14
1121.76
1119.25
1116.65
1114.31
1111.89
1109.28
1106.7
1104.25
1101.81
1099.34
1096.85
1094.34
1091.83
1089.33
1086.82
1084.32
1081.83
1079.34
1076.85
1074.37
1071.88
1069.41
1066.93
1064.45
1061.97
1059.5
1057.02
1054.54
1052.07
1049.6
1047.15
1044.67
1042.22
1039.77
1037.27
1034.82
1032.38
1029.89
1027.4
1024.94
1022.48
1020.01
1017.52
1015.05
1012.62
1010.16
1007.66
1005.2
1002.76
1000.28
997.793
995.326
992.871
990.398
987.898
985.45
983.01
980.523
978.051
975.631
973.191
970.626
968.274
965.807
963.211
960.995
958.316
955.904
953.653
950.783
948.608
946.356
943.228
941.205
939.13
935.675
933.782
931.879
928.262
926.238
924.692
920.985
918.686
917.296
913.869
911.262
909.701
906.477
904.1
902.302
898.915
896.67
895.109
891.659
889.177
887.618
884.33
881.911
880.292
876.908
874.469
872.926
869.634
867.189
865.642
862.318
859.825
858.277
854.959
852.443
850.905
847.598
845.064
843.534
840.237
837.686
836.165
832.875
830.304
828.795
825.514
822.923
821.421
818.151
815.543
814.045
810.786
808.161
806.672
803.416
800.781
799.294
796.048
793.411
791.899
788.715
785.969
784.579
781.291
778.602
777.206
773.829
771.434
769.565
766.835
763.63
762.537
759.219
756.341
755.225
751.418
749.885
746.494
745.335
741.416
740.165
736.836
734.947
732.395
729.731
727.545
724.484
723.24
719.441
718.03
714.205
713.705
709.242
708.564
704.183
703.902
699.335
699.061
694.357
694.19
689.366
689.63
681.26
674.054
630.672
579.965
598.356
575.161
1545.41
1492.69
1503.52
1484.49
1483.49
1473.31
1469.56
1461.99
1457.57
1451.27
1446.63
1441.06
1436.36
1431.22
1426.49
1421.61
1416.9
1412.11
1407.44
1402.73
1398.01
1393.23
1388.43
1383.55
1378.61
1373.55
1368.4
1363.1
1357.7
1352.19
1346.62
1340.96
1335.25
1329.49
1323.69
1317.85
1311.99
1306.1
1300.19
1294.26
1288.33
1282.37
1276.42
1270.44
1264.48
1258.48
1252.51
1246.49
1240.56
1234.46
1228.64
1222.33
1216.83
1210
1205.33
1197.16
1194.65
1183
1186.54
1171.54
1199.88
1226.64
1225.88
1236.13
1230.49
1234.6
1228.75
1230.64
1224.93
1226.15
1220.78
1220.5
1217.37
1215.75
1210.92
1210.13
1207.34
1208.33
1198.64
1199.52
1198.95
1194.31
1196.82
1193.16
1189.17
1186.02
1184.25
1176.52
1179.29
1177.01
1168.3
1166.76
1175.07
1165.39
1153.06
1160.22
1166.69
1148.88
1143.05
1152.93
1152.45
1138.96
1135.34
1139.14
1140.76
1134.35
1126.99
1126.67
1128.1
1125.32
1120.8
1116.5
1114.02
1111.61
1109.94
1108.16
1106.25
1103.86
1101.36
1098.76
1096.42
1094
1091.39
1088.82
1086.37
1083.92
1081.46
1078.96
1076.46
1073.95
1071.44
1068.94
1066.44
1063.95
1061.46
1058.97
1056.49
1054
1051.52
1049.05
1046.57
1044.09
1041.62
1039.14
1036.66
1034.19
1031.72
1029.26
1026.79
1024.34
1021.88
1019.39
1016.94
1014.5
1012
1009.52
1007.06
1004.6
1002.13
999.643
997.169
994.737
992.279
989.781
987.325
984.877
982.397
979.914
977.447
974.992
972.519
970.019
967.572
965.131
962.646
960.173
957.753
955.313
952.749
950.396
947.931
945.335
943.117
940.44
938.027
935.776
932.91
930.73
928.48
925.356
923.327
921.253
917.805
915.904
914.001
910.396
908.362
906.811
903.121
900.814
899.414
896.002
893.392
891.823
888.609
886.227
884.427
881.051
878.798
877.231
873.795
871.308
869.742
866.465
864.041
862.417
859.046
856.601
855.051
851.77
849.319
847.766
844.454
841.956
840.402
837.096
834.575
833.031
829.736
827.198
825.661
822.376
819.821
818.293
815.015
812.44
810.924
807.654
805.06
803.551
800.293
797.681
796.175
792.928
790.3
788.803
785.559
782.922
781.425
778.192
775.551
774.032
770.859
768.111
766.712
763.436
760.744
759.34
755.974
753.575
751.702
748.979
745.776
744.672
741.365
738.486
737.36
733.564
732.029
728.637
727.474
723.563
722.307
718.981
717.088
714.537
711.876
709.691
706.628
705.379
701.587
700.177
696.352
695.843
691.389
690.709
686.331
686.041
681.48
681.2
676.503
676.328
671.511
671.759
663.364
656.57
614.098
563.758
582.102
558.888
1529.07
1476.44
1487.25
1468.2
1467.2
1457.02
1453.28
1445.7
1441.29
1435
1430.36
1424.78
1420.08
1414.94
1410.21
1405.33
1400.62
1395.83
1391.16
1386.45
1381.73
1376.96
1372.16
1367.27
1362.33
1357.27
1352.11
1346.81
1341.42
1335.91
1330.33
1324.68
1318.97
1313.2
1307.41
1301.57
1295.7
1289.81
1283.91
1277.98
1272.04
1266.09
1260.14
1254.16
1248.19
1242.19
1236.23
1230.21
1224.27
1218.17
1212.35
1206.04
1200.54
1193.71
1189.04
1180.87
1178.36
1166.71
1170.26
1155.07
1182.68
1208.83
1207.83
1217.96
1212.27
1216.36
1210.5
1212.38
1206.66
1207.87
1202.52
1202.22
1199.09
1197.48
1192.66
1191.85
1189.03
1190.04
1180.42
1181.26
1180.65
1176
1178.44
1174.8
1170.86
1167.73
1166
1158.29
1160.99
1158.76
1150.12
1148.46
1156.73
1147.21
1134.94
1141.84
1148.31
1130.8
1124.94
1134.54
1134.09
1120.85
1117.23
1120.81
1122.4
1116.12
1108.82
1108.46
1109.81
1107.02
1102.57
1098.31
1095.84
1093.41
1091.72
1089.92
1087.99
1085.6
1083.1
1080.5
1078.16
1075.74
1073.14
1070.56
1068.11
1065.67
1063.2
1060.71
1058.21
1055.7
1053.19
1050.69
1048.19
1045.7
1043.21
1040.72
1038.24
1035.75
1033.27
1030.8
1028.32
1025.84
1023.37
1020.89
1018.41
1015.94
1013.47
1011.02
1008.54
1006.09
1003.64
1001.14
998.694
996.252
993.757
991.274
988.809
986.348
983.882
981.396
978.922
976.49
974.032
971.534
969.079
966.631
964.151
961.668
959.201
956.746
954.274
951.775
949.327
946.887
944.402
941.929
939.508
937.07
934.506
932.152
929.688
927.092
924.874
922.199
919.784
917.534
914.67
912.486
910.239
907.118
905.083
903.011
899.57
897.661
895.758
892.164
890.12
888.565
884.892
882.575
881.166
877.77
875.158
873.581
870.375
867.99
866.188
862.823
860.56
858.989
855.568
853.075
851.502
848.236
845.806
844.178
840.82
838.369
836.812
833.542
831.085
829.526
826.227
823.723
822.163
818.87
816.344
814.793
811.511
808.967
807.424
804.152
801.592
800.058
796.792
794.212
792.689
789.432
786.834
785.317
782.071
779.456
777.943
774.708
772.076
770.572
767.34
764.699
763.195
759.973
757.328
755.804
752.641
749.89
748.485
745.22
742.525
741.112
737.758
735.355
733.478
730.762
727.559
726.446
723.15
720.27
719.135
715.349
713.813
710.418
709.252
705.349
704.088
700.766
698.869
696.319
693.661
691.477
688.41
687.157
683.373
681.964
678.137
677.62
673.174
672.493
668.118
667.82
663.264
662.979
658.287
658.106
653.294
653.527
645.141
638.859
597.435
547.536
565.845
542.614
1512.74
1460.2
1470.97
1451.9
1450.9
1440.73
1436.99
1429.42
1425
1418.72
1414.08
1408.5
1403.8
1398.66
1393.93
1389.05
1384.34
1379.55
1374.88
1370.18
1365.46
1360.68
1355.88
1350.99
1346.05
1340.99
1335.83
1330.53
1325.14
1319.63
1314.05
1308.39
1302.69
1296.92
1291.12
1285.28
1279.42
1273.53
1267.62
1261.69
1255.76
1249.8
1243.85
1237.87
1231.91
1225.91
1219.95
1213.93
1207.99
1201.89
1196.07
1189.76
1184.26
1177.43
1172.76
1164.59
1162.08
1150.43
1153.98
1138.52
1165.29
1190.71
1189.42
1199.41
1193.65
1197.71
1191.83
1193.71
1187.98
1189.18
1183.83
1183.52
1180.38
1178.79
1173.99
1173.15
1170.29
1171.33
1161.78
1162.58
1161.93
1157.25
1159.62
1156
1152.11
1149.02
1147.34
1139.64
1142.26
1140.1
1131.54
1129.73
1137.96
1128.64
1116.41
1123.02
1129.52
1112.34
1106.42
1115.72
1115.31
1102.34