/*--------------------------------*- C++ -*----------------------------------*\
| =========                 |                                                 |
| \\      /  F ield         | foam-extend: Open Source CFD                    |
|  \\    /   O peration     | Version:     3.2                                |
|   \\  /    A nd           | Web:         http://www.foam-extend.org         |
|    \\/     M anipulation  | For copyright notice see file Copyright         |
\*---------------------------------------------------------------------------*/
FoamFile
{
    version     2.0;
    format      ascii;
    class       areaScalarField;
    location    "50";
    object      Pa;
}
// * * * * * * * * * * * * * * * * * * * * * * * * * * * * * * * * * * * * * //

dimensions      [0 0 0 0 0 0 0];

internalField   nonuniform List<scalar> 
300
(
0.3
0.3
0.3
0.3
0.3
0.3
0.3
0.3
0.3
0.3
0.3
0.3
0.3
0.3
0.3
0.3
0.3
0.3
0.3
0.3
0.3
0.3
0.3
0.3
0.3
0.3
0.3
0.3
0.3
0.3
0.3
0.3
0.3
0.3
0.3
0.3
0.3
0.3
0.3
0.3
0.3
0.3
0.3
0.3
0.3
0.3
0.3
0.3
0.3
0.3
0.3
0.3
0.3
0.3
0.3
0.3
0.3
0.3
0.3
0.3
0.427414
0.520648
0.594433
0.631977
0.654469
0.667066
0.668885
0.678266
0.671729
0.679134
0.676451
0.677593
0.672637
0.682271
0.680019
0.677654
0.662061
0.684913
0.683679
0.670692
0.679421
0.666539
0.658673
0.667579
0.672366
0.668613
0.686744
0.671983
0.660691
0.686104
0.698186
0.645851
0.635072
0.712486
0.691347
0.599891
0.635165
0.722326
0.680354
0.614842
0.655448
0.708962
0.686851
0.651761
0.665631
0.686146
0.688141
0.672994
0.662858
0.67093
0.679456
0.680453
0.680277
0.678386
0.675636
0.673278
0.672285
0.672563
0.673303
0.673042
0.67259
0.672957
0.67351
0.673512
0.673334
0.673193
0.673206
0.673218
0.673241
0.673272
0.673272
0.67327
0.673279
0.673231
0.673211
0.673189
0.673145
0.673095
0.673051
0.67301
0.672964
0.672907
0.672888
0.672834
0.672805
0.672781
0.672697
0.672671
0.672626
0.672525
0.672559
0.672511
0.672351
0.672361
0.672391
0.672296
0.672194
0.672094
0.672115
0.672131
0.671976
0.671833
0.671886
0.671847
0.671692
0.671627
0.671594
0.671518
0.671414
0.671335
0.671357
0.671259
0.671063
0.671066
0.671096
0.670851
0.670671
0.670928
0.670599
0.670402
0.670819
0.670042
0.670365
0.670482
0.669507
0.670582
0.670098
0.668639
0.670742
0.670154
0.667584
0.670696
0.670257
0.666733
0.670355
0.670635
0.665881
0.669605
0.67095
0.665968
0.66829
0.670372
0.666639
0.668106
0.669015
0.665973
0.668514
0.669141
0.664936
0.667589
0.669124
0.665193
0.667083
0.66819
0.6645
0.666879
0.668173
0.66418
0.666139
0.667391
0.663484
0.665558
0.666985
0.663085
0.665106
0.666611
0.66269
0.664635
0.666204
0.662282
0.664166
0.665796
0.661862
0.66369
0.665401
0.661455
0.663208
0.665003
0.661063
0.662736
0.664601
0.660681
0.662283
0.664213
0.660294
0.661848
0.663833
0.659931
0.661424
0.663444
0.659645
0.660915
0.663229
0.659206
0.660596
0.662905
0.658742
0.660583
0.662044
0.659237
0.659329
0.662608
0.658524
0.65913
0.662512
0.657488
0.660537
0.65941
0.660973
0.657412
0.66076
0.658838
0.65981
0.659289
0.658475
0.65969
0.658644
0.660928
0.656406
0.660257
0.65761
0.662091
0.655493
0.660999
0.656249
0.662007
0.654994
0.660766
0.654984
0.661494
0.65508
0.660403
0.65852
0.65017
0.677548
0.514206
0.3
0.3
0.3
0.3
)
;

boundaryField
{
    inlet
    {
        type            calculated;
        value           uniform 0;
    }
    outlet
    {
        type            calculated;
        value           uniform 0;
    }
    sideWall
    {
        type            empty;
    }
}


// ************************************************************************* //
