/*--------------------------------*- C++ -*----------------------------------*\
| =========                 |                                                 |
| \\      /  F ield         | foam-extend: Open Source CFD                    |
|  \\    /   O peration     | Version:     3.2                                |
|   \\  /    A nd           | Web:         http://www.foam-extend.org         |
|    \\/     M anipulation  | For copyright notice see file Copyright         |
\*---------------------------------------------------------------------------*/
FoamFile
{
    version     2.0;
    format      ascii;
    class       areaScalarField;
    location    "50";
    object      Pc;
}
// * * * * * * * * * * * * * * * * * * * * * * * * * * * * * * * * * * * * * //

dimensions      [0 0 0 0 0 0 0];

internalField   nonuniform List<scalar> 
300
(
0.7
0.7
0.7
0.7
0.7
0.7
0.7
0.7
0.7
0.7
0.7
0.7
0.7
0.7
0.7
0.7
0.7
0.7
0.7
0.7
0.7
0.7
0.7
0.7
0.7
0.7
0.7
0.7
0.7
0.7
0.7
0.7
0.7
0.7
0.7
0.7
0.7
0.7
0.7
0.7
0.7
0.7
0.7
0.7
0.7
0.7
0.7
0.7
0.7
0.7
0.7
0.7
0.7
0.7
0.7
0.7
0.7
0.7
0.7
0.7
0.572586
0.479352
0.405567
0.368023
0.345531
0.332934
0.331115
0.321734
0.328271
0.320866
0.323549
0.322407
0.327363
0.317729
0.319981
0.322346
0.337939
0.315087
0.316321
0.329308
0.320579
0.333461
0.341327
0.332421
0.327634
0.331387
0.313256
0.328017
0.339309
0.313896
0.301814
0.354149
0.364928
0.287514
0.308653
0.400109
0.364835
0.277674
0.319646
0.385158
0.344552
0.291038
0.313149
0.348239
0.334369
0.313854
0.311859
0.327006
0.337142
0.32907
0.320544
0.319547
0.319723
0.321614
0.324364
0.326722
0.327715
0.327437
0.326697
0.326958
0.32741
0.327043
0.32649
0.326488
0.326666
0.326807
0.326794
0.326782
0.326759
0.326728
0.326728
0.32673
0.326721
0.326769
0.326789
0.326811
0.326855
0.326905
0.326949
0.32699
0.327036
0.327093
0.327112
0.327166
0.327195
0.327219
0.327303
0.327329
0.327374
0.327475
0.327441
0.327489
0.327649
0.327639
0.327609
0.327704
0.327806
0.327906
0.327885
0.327869
0.328024
0.328167
0.328114
0.328153
0.328308
0.328373
0.328406
0.328482
0.328586
0.328665
0.328643
0.328741
0.328937
0.328934
0.328904
0.329149
0.329329
0.329072
0.329401
0.329598
0.329181
0.329958
0.329635
0.329518
0.330493
0.329418
0.329902
0.331361
0.329258
0.329846
0.332416
0.329304
0.329743
0.333267
0.329645
0.329365
0.334119
0.330395
0.32905
0.334032
0.33171
0.329628
0.333361
0.331894
0.330985
0.334027
0.331486
0.330859
0.335064
0.332411
0.330876
0.334807
0.332917
0.33181
0.3355
0.333121
0.331827
0.33582
0.333861
0.332609
0.336516
0.334442
0.333015
0.336915
0.334894
0.333389
0.33731
0.335365
0.333796
0.337718
0.335834
0.334204
0.338138
0.33631
0.334599
0.338545
0.336792
0.334997
0.338937
0.337264
0.335399
0.339319
0.337717
0.335787
0.339706
0.338152
0.336167
0.340069
0.338576
0.336556
0.340355
0.339085
0.336771
0.340794
0.339404
0.337095
0.341258
0.339417
0.337956
0.340763
0.340671
0.337392
0.341476
0.34087
0.337488
0.342512
0.339463
0.34059
0.339027
0.342588
0.33924
0.341162
0.34019
0.340711
0.341525
0.34031
0.341356
0.339072
0.343594
0.339743
0.34239
0.337909
0.344507
0.339001
0.343751
0.337993
0.345006
0.339234
0.345016
0.338506
0.34492
0.339597
0.34148
0.34983
0.322452
0.485794
0.7
0.7
0.7
0.7
)
;

boundaryField
{
    inlet
    {
        type            calculated;
        value           uniform 0;
    }
    outlet
    {
        type            calculated;
        value           uniform 0;
    }
    sideWall
    {
        type            empty;
    }
}


// ************************************************************************* //
