/*--------------------------------*- C++ -*----------------------------------*\
| =========                 |                                                 |
| \\      /  F ield         | foam-extend: Open Source CFD                    |
|  \\    /   O peration     | Version:     3.2                                |
|   \\  /    A nd           | Web:         http://www.foam-extend.org         |
|    \\/     M anipulation  | For copyright notice see file Copyright         |
\*---------------------------------------------------------------------------*/
FoamFile
{
    version     2.0;
    format      ascii;
    class       volScalarField;
    location    "50";
    object      pd;
}
// * * * * * * * * * * * * * * * * * * * * * * * * * * * * * * * * * * * * * //

dimensions      [1 -1 -2 0 0 0 0];

internalField   nonuniform List<scalar> 
5400
(
1717.68
1658.63
1667.58
1646.72
1643.35
1630.74
1624.54
1614.55
1607.69
1598.97
1591.9
1583.88
1576.75
1569.18
1562.01
1554.69
1547.55
1540.32
1533.21
1526.06
1518.9
1511.69
1504.45
1497.12
1489.75
1482.25
1474.66
1466.92
1459.08
1451.13
1443.11
1435.01
1426.86
1418.65
1410.41
1402.13
1393.82
1385.49
1377.14
1368.77
1360.39
1351.99
1343.59
1335.17
1326.77
1318.32
1309.92
1301.46
1293.07
1284.53
1276.27
1267.52
1259.57
1250.31
1243.18
1232.58
1227.61
1213.53
1214.06
1192.11
1209.6
1227.22
1220.25
1226.13
1217.13
1218.32
1209.77
1209.11
1200.82
1199.6
1191.71
1188.8
1183.18
1179.43
1172.24
1168.49
1162.99
1162.39
1150.31
1148.43
1145.23
1137.33
1136.96
1131.2
1125.16
1120.14
1116.57
1105.77
1105.96
1102.55
1091.23
1085.37
1092.17
1082.03
1065.56
1068.48
1074.7
1056.25
1045.9
1051.68
1050.44
1036.2
1029.06
1028.73
1028.02
1020.47
1011.33
1007.62
1005.83
1000.9
994.599
988.377
983.538
978.506
974.073
969.531
964.984
960.118
955.193
950.155
945.355
940.521
935.511
930.516
925.619
920.724
915.817
910.888
905.949
901.007
896.067
891.131
886.195
881.259
876.331
871.404
866.477
861.552
856.631
851.713
846.792
841.875
836.963
832.037
827.12
822.209
817.296
812.401
807.486
802.592
797.7
792.767
787.873
782.992
778.06
773.136
768.226
763.323
758.42
753.497
748.578
743.703
738.809
733.873
728.974
724.085
719.165
714.242
709.333
704.439
699.531
694.591
689.699
684.823
679.901
674.98
670.121
665.251
660.238
655.452
650.552
645.501
640.861
635.735
630.874
626.22
620.875
616.242
611.628
606.011
601.5
597.097
591.152
586.743
582.54
576.445
571.864
568.021
561.887
557.01
553.263
547.45
542.322
538.368
532.698
527.829
523.7
517.852
513.055
509.157
503.3
498.288
494.356
488.626
483.685
479.726
473.919
468.939
465.026
459.293
454.308
450.403
444.655
439.63
435.727
429.99
424.94
421.045
415.321
410.252
406.364
400.651
395.564
391.684
385.98
380.873
377.002
371.31
366.182
362.317
356.638
351.492
347.629
341.963
336.799
332.944
327.283
322.108
318.252
312.604
307.425
303.543
297.962
292.67
288.911
283.222
277.992
274.222
268.443
263.516
259.252
254.152
248.385
244.918
239.207
233.793
230.279
224.061
220.088
214.192
210.651
204.274
200.612
194.809
190.466
185.494
180.427
175.793
170.207
166.556
160.369
156.546
150.179
147.267
140.368
137.289
130.406
127.693
120.64
117.956
110.771
108.186
100.96
98.5978
90.1438
89.135
54.6536
6.67928
23.6323
-1.81638
1717.58
1658.75
1667.63
1646.73
1643.35
1630.75
1624.54
1614.55
1607.69
1598.97
1591.9
1583.88
1576.75
1569.18
1562.01
1554.69
1547.55
1540.32
1533.21
1526.06
1518.9
1511.69
1504.45
1497.12
1489.74
1482.25
1474.66
1466.92
1459.08
1451.13
1443.11
1435.01
1426.86
1418.65
1410.41
1402.13
1393.82
1385.49
1377.14
1368.77
1360.39
1351.99
1343.59
1335.17
1326.77
1318.32
1309.92
1301.46
1293.07
1284.53
1276.27
1267.52
1259.57
1250.31
1243.18
1232.58
1227.61
1213.53
1214.09
1192.19
1209.64
1227.19
1220.24
1226.12
1217.13
1218.32
1209.77
1209.11
1200.82
1199.6
1191.72
1188.8
1183.18
1179.43
1172.24
1168.49
1162.98
1162.38
1150.32
1148.43
1145.23
1137.34
1136.95
1131.2
1125.16
1120.14
1116.57
1105.78
1105.95
1102.53
1091.26
1085.38
1092.15
1082.03
1065.6
1068.47
1074.65
1056.27
1045.93
1051.66
1050.4
1036.21
1029.08
1028.73
1028.01
1020.46
1011.35
1007.63
1005.82
1000.9
994.596
988.38
983.54
978.508
974.074
969.531
964.983
960.117
955.192
950.155
945.355
940.521
935.511
930.516
925.619
920.724
915.817
910.888
905.949
901.007
896.067
891.131
886.195
881.259
876.331
871.404
866.477
861.552
856.631
851.713
846.792
841.875
836.963
832.037
827.12
822.209
817.296
812.401
807.486
802.592
797.7
792.767
787.873
782.992
778.06
773.136
768.226
763.323
758.42
753.497
748.579
743.703
738.809
733.873
728.974
724.085
719.165
714.243
709.333
704.439
699.531
694.591
689.699
684.823
679.901
674.98
670.121
665.251
660.238
655.452
650.552
645.501
640.86
635.735
630.874
626.22
620.876
616.241
611.627
606.012
601.5
597.097
591.154
586.742
582.538
576.447
571.864
568.019
561.889
557.01
553.261
547.451
542.323
538.367
532.699
527.829
523.698
517.853
513.055
509.155
503.302
498.289
494.355
488.627
483.685
479.725
473.921
468.939
465.024
459.294
454.308
450.401
444.657
439.631
435.725
429.991
424.941
421.043
415.322
410.253
406.362
400.652
395.565
391.682
385.981
380.873
377
371.311
366.182
362.315
356.639
351.492
347.627
341.964
336.799
332.942
327.284
322.109
318.25
312.605
307.426
303.541
297.963
292.67
288.909
283.223
277.992
274.221
268.444
263.516
259.251
254.153
248.386
244.917
239.208
233.793
230.278
224.061
220.088
214.193
210.65
204.275
200.611
194.809
190.465
185.494
180.427
175.794
170.208
166.555
160.369
156.547
150.18
147.266
140.369
137.289
130.407
127.692
120.64
117.956
110.772
108.185
100.961
98.6037
90.0826
89.0291
54.6827
6.75915
23.6434
-1.81329
1717.25
1658.92
1667.71
1646.77
1643.37
1630.76
1624.55
1614.56
1607.7
1598.98
1591.9
1583.89
1576.75
1569.18
1562.01
1554.69
1547.55
1540.32
1533.21
1526.06
1518.9
1511.69
1504.45
1497.12
1489.74
1482.25
1474.66
1466.91
1459.08
1451.13
1443.11
1435.01
1426.86
1418.65
1410.41
1402.12
1393.82
1385.49
1377.14
1368.77
1360.39
1351.99
1343.59
1335.17
1326.77
1318.32
1309.92
1301.45
1293.07
1284.53
1276.27
1267.52
1259.57
1250.31
1243.19
1232.58
1227.61
1213.52
1214.14
1192.33
1209.71
1227.16
1220.21
1226.09
1217.12
1218.31
1209.76
1209.1
1200.82
1199.59
1191.72
1188.8
1183.18
1179.42
1172.25
1168.5
1162.97
1162.36
1150.34
1148.44
1145.23
1137.35
1136.94
1131.19
1125.16
1120.13
1116.58
1105.8
1105.93
1102.51
1091.3
1085.38
1092.12
1082.05
1065.65
1068.44
1074.6
1056.32
1045.99
1051.62
1050.36
1036.25
1029.12
1028.72
1027.99
1020.44
1011.37
1007.64
1005.81
1000.88
994.591
988.387
983.544
978.511
974.076
969.532
964.98
960.115
955.192
950.156
945.355
940.52
935.511
930.517
925.619
920.724
915.817
910.888
905.949
901.007
896.067
891.131
886.195
881.259
876.331
871.404
866.477
861.552
856.631
851.713
846.792
841.875
836.963
832.037
827.12
822.209
817.296
812.401
807.486
802.592
797.7
792.767
787.873
782.992
778.06
773.136
768.226
763.323
758.42
753.497
748.579
743.703
738.808
733.873
728.974
724.085
719.165
714.243
709.333
704.439
699.531
694.591
689.699
684.823
679.901
674.98
670.121
665.251
660.238
655.451
650.552
645.501
640.86
635.736
630.874
626.22
620.877
616.241
611.627
606.014
601.498
597.095
591.156
586.741
582.535
576.451
571.863
568.015
561.892
557.01
553.259
547.453
542.323
538.366
532.7
527.828
523.696
517.856
513.055
509.153
503.304
498.289
494.353
488.629
483.685
479.722
473.923
468.94
465.022
459.296
454.308
450.399
444.658
439.631
435.723
429.993
424.941
421.041
415.324
410.253
406.36
400.654
395.565
391.68
385.983
380.873
376.998
371.313
366.183
362.313
356.641
351.492
347.625
341.966
336.8
332.94
327.285
322.109
318.248
312.607
307.426
303.539
297.964
292.671
288.907
283.224
277.993
274.219
268.445
263.517
259.248
254.154
248.388
244.914
239.209
233.795
230.276
224.062
220.089
214.192
210.648
204.277
200.61
194.81
190.465
185.493
180.426
175.795
170.208
166.554
160.369
156.548
150.18
147.265
140.369
137.29
130.407
127.692
120.64
117.955
110.773
108.184
100.961
98.6156
89.9793
88.8715
54.6578
6.92102
23.6706
-1.80322
1716.93
1659.13
1667.79
1646.82
1643.4
1630.78
1624.56
1614.57
1607.7
1598.98
1591.9
1583.89
1576.75
1569.18
1562.01
1554.69
1547.55
1540.32
1533.21
1526.06
1518.9
1511.68
1504.44
1497.12
1489.74
1482.25
1474.65
1466.91
1459.08
1451.13
1443.11
1435.01
1426.86
1418.65
1410.41
1402.12
1393.82
1385.48
1377.14
1368.76
1360.39
1351.99
1343.59
1335.17
1326.77
1318.32
1309.92
1301.45
1293.07
1284.53
1276.27
1267.52
1259.57
1250.3
1243.19
1232.58
1227.61
1213.52
1214.2
1192.45
1209.78
1227.15
1220.16
1226.08
1217.1
1218.3
1209.76
1209.1
1200.82
1199.59
1191.72
1188.8
1183.17
1179.42
1172.26
1168.51
1162.96
1162.34
1150.36
1148.45
1145.23
1137.36
1136.93
1131.18
1125.16
1120.13
1116.58
1105.82
1105.92
1102.48
1091.33
1085.41
1092.08
1082.04
1065.72
1068.42
1074.54
1056.35
1046.06
1051.59
1050.32
1036.26
1029.17
1028.73
1027.96
1020.43
1011.39
1007.66
1005.81
1000.87
994.589
988.391
983.548
978.514
974.078
969.533
964.978
960.114
955.192
950.156
945.355
940.519
935.511
930.517
925.62
920.724
915.817
910.888
905.949
901.007
896.067
891.131
886.195
881.259
876.331
871.404
866.477
861.552
856.631
851.713
846.792
841.875
836.963
832.037
827.12
822.209
817.296
812.401
807.486
802.592
797.7
792.767
787.873
782.992
778.06
773.136
768.226
763.323
758.42
753.498
748.579
743.703
738.808
733.873
728.974
724.085
719.165
714.243
709.333
704.439
699.531
694.591
689.699
684.823
679.901
674.981
670.121
665.251
660.238
655.451
650.552
645.501
640.86
635.737
630.874
626.219
620.879
616.24
611.625
606.017
601.498
597.091
591.161
586.742
582.53
576.456
571.864
568.01
561.896
557.013
553.254
547.454
542.326
538.363
532.702
527.829
523.693
517.86
513.056
509.149
503.306
498.291
494.35
488.631
483.686
479.719
473.925
468.942
465.018
459.298
454.31
450.396
444.66
439.633
435.72
429.995
424.943
421.038
415.325
410.255
406.357
400.655
395.567
391.677
385.985
380.876
376.995
371.314
366.185
362.309
356.642
351.495
347.622
341.967
336.802
332.937
327.286
322.112
318.245
312.608
307.429
303.536
297.965
292.674
288.904
283.225
277.995
274.215
268.446
263.521
259.245
254.154
248.393
244.909
239.21
233.798
230.273
224.063
220.089
214.193
210.646
204.28
200.608
194.812
190.465
185.492
180.426
175.796
170.209
166.552
160.369
156.548
150.182
147.263
140.369
137.289
130.408
127.691
120.641
117.955
110.773
108.183
100.961
98.6285
89.8636
88.7354
54.5745
7.1732
23.7058
-1.79142
1716.5
1659.42
1667.92
1646.86
1643.43
1630.8
1624.58
1614.58
1607.72
1598.99
1591.91
1583.89
1576.76
1569.18
1562.01
1554.69
1547.55
1540.32
1533.21
1526.06
1518.9
1511.68
1504.44
1497.12
1489.74
1482.25
1474.65
1466.91
1459.07
1451.12
1443.11
1435
1426.86
1418.65
1410.41
1402.12
1393.82
1385.48
1377.14
1368.76
1360.39
1351.99
1343.59
1335.17
1326.77
1318.32
1309.92
1301.45
1293.07
1284.53
1276.27
1267.52
1259.57
1250.3
1243.19
1232.58
1227.62
1213.52
1214.26
1192.56
1209.85
1227.14
1220.13
1226.05
1217.09
1218.29
1209.75
1209.09
1200.81
1199.58
1191.72
1188.8
1183.17
1179.41
1172.26
1168.52
1162.95
1162.32
1150.38
1148.45
1145.22
1137.37
1136.93
1131.16
1125.16
1120.12
1116.58
1105.84
1105.91
1102.44
1091.36
1085.46
1092.01
1082.01
1065.82
1068.43
1074.45
1056.35
1046.16
1051.59
1050.25
1036.25
1029.24
1028.74
1027.92
1020.43
1011.4
1007.68
1005.81
1000.85
994.587
988.394
983.554
978.517
974.08
969.532
964.976
960.112
955.191
950.157
945.354
940.519
935.511
930.517
925.62
920.724
915.817
910.888
905.949
901.007
896.067
891.131
886.195
881.259
876.331
871.404
866.477
861.552
856.631
851.713
846.792
841.875
836.963
832.037
827.12
822.209
817.296
812.401
807.486
802.592
797.7
792.767
787.873
782.992
778.06
773.136
768.226
763.323
758.419
753.498
748.579
743.703
738.808
733.873
728.974
724.085
719.165
714.243
709.334
704.439
699.531
694.592
689.699
684.823
679.901
674.981
670.121
665.251
660.239
655.451
650.551
645.501
640.859
635.737
630.874
626.218
620.881
616.24
611.622
606.02
601.498
597.086
591.165
586.743
582.523
576.46
571.867
568.002
561.899
557.017
553.248
547.455
542.33
538.358
532.704
527.83
523.688
517.863
513.059
509.142
503.308
498.295
494.345
488.633
483.688
479.713
473.928
468.945
465.013
459.3
454.313
450.39
444.662
439.636
435.714
429.997
424.946
421.032
415.327
410.258
406.351
400.657
395.57
391.672
385.986
380.879
376.99
371.316
366.189
362.304
356.644
351.499
347.616
341.968
336.806
332.932
327.288
322.116
318.239
312.609
307.433
303.53
297.966
292.678
288.898
283.226
277.999
274.21
268.447
263.525
259.241
254.153
248.398
244.903
239.21
233.802
230.268
224.064
220.089
214.194
210.643
204.282
200.606
194.813
190.464
185.492
180.426
175.796
170.211
166.549
160.369
156.548
150.185
147.259
140.371
137.289
130.411
127.69
120.641
117.954
110.774
108.181
100.96
98.6383
89.7423
88.5985
54.5808
7.34045
23.7471
-1.7811
1716.19
1659.57
1668.07
1646.88
1643.44
1630.83
1624.6
1614.6
1607.73
1599
1591.92
1583.9
1576.76
1569.18
1562.02
1554.7
1547.55
1540.32
1533.21
1526.06
1518.9
1511.68
1504.44
1497.11
1489.74
1482.24
1474.65
1466.91
1459.07
1451.12
1443.1
1435
1426.85
1418.65
1410.41
1402.12
1393.82
1385.48
1377.14
1368.76
1360.39
1351.99
1343.59
1335.17
1326.77
1318.32
1309.92
1301.45
1293.07
1284.53
1276.27
1267.52
1259.57
1250.3
1243.19
1232.58
1227.62
1213.52
1214.32
1192.66
1209.92
1227.11
1220.12
1226.03
1217.07
1218.28
1209.75
1209.09
1200.81
1199.58
1191.72
1188.81
1183.16
1179.41
1172.27
1168.53
1162.95
1162.29
1150.4
1148.46
1145.22
1137.39
1136.92
1131.14
1125.17
1120.12
1116.57
1105.88
1105.9
1102.4
1091.39
1085.51
1091.94
1081.98
1065.92
1068.44
1074.35
1056.35
1046.26
1051.59
1050.17
1036.25
1029.31
1028.75
1027.87
1020.42
1011.4
1007.7
1005.81
1000.82
994.585
988.395
983.562
978.521
974.082
969.532
964.975
960.11
955.191
950.157
945.354
940.518
935.511
930.517
925.62
920.724
915.817
910.888
905.949
901.007
896.067
891.131
886.195
881.259
876.331
871.404
866.477
861.552
856.631
851.713
846.792
841.875
836.963
832.037
827.12
822.209
817.296
812.401
807.486
802.592
797.7
792.767
787.873
782.992
778.06
773.136
768.226
763.323
758.419
753.498
748.579
743.703
738.808
733.873
728.974
724.085
719.165
714.243
709.334
704.439
699.531
694.592
689.7
684.823
679.901
674.981
670.12
665.251
660.24
655.45
650.551
645.502
640.858
635.738
630.874
626.216
620.883
616.24
611.619
606.024
601.499
597.082
591.17
586.744
582.517
576.465
571.869
567.995
561.903
557.022
553.241
547.457
542.333
538.354
532.706
527.832
523.683
517.866
513.061
509.136
503.311
498.298
494.34
488.636
483.691
479.708
473.93
468.948
465.008
459.302
454.316
450.385
444.665
439.639
435.709
429.999
424.95
421.027
415.329
410.262
406.346
400.659
395.574
391.666
385.988
380.883
376.984
371.318
366.192
362.299
356.645
351.503
347.611
341.97
336.81
332.926
327.289
322.12
318.234
312.61
307.437
303.525
297.966
292.683
288.893
283.227
278.004
274.205
268.448
263.529
259.237
254.152
248.404
244.898
239.211
233.806
230.264
224.066
220.09
214.195
210.639
204.285
200.605
194.815
190.464
185.491
180.425
175.797
170.213
166.546
160.37
156.548
150.189
147.255
140.372
137.288
130.415
127.688
120.643
117.952
110.776
108.18
100.959
98.6438
89.6197
88.4702
54.6651
7.42921
23.7883
-1.77247
1715.98
1659.63
1668.21
1646.89
1643.46
1630.84
1624.62
1614.62
1607.75
1599.01
1591.93
1583.91
1576.77
1569.19
1562.02
1554.7
1547.55
1540.32
1533.21
1526.06
1518.9
1511.68
1504.44
1497.11
1489.74
1482.24
1474.65
1466.91
1459.07
1451.12
1443.1
1435
1426.85
1418.65
1410.4
1402.12
1393.82
1385.48
1377.14
1368.76
1360.39
1351.99
1343.59
1335.17
1326.77
1318.32
1309.92
1301.45
1293.07
1284.53
1276.27
1267.52
1259.57
1250.3
1243.19
1232.58
1227.62
1213.52
1214.39
1192.76
1209.98
1227.08
1220.1
1226.02
1217.05
1218.28
1209.74
1209.08
1200.81
1199.57
1191.73
1188.8
1183.16
1179.4
1172.27
1168.54
1162.95
1162.25
1150.42
1148.47
1145.21
1137.4
1136.92
1131.13
1125.17
1120.11
1116.56
1105.91
1105.89
1102.36
1091.42
1085.57
1091.87
1081.94
1066.01
1068.45
1074.25
1056.36
1046.36
1051.58
1050.09
1036.26
1029.38
1028.76
1027.83
1020.42
1011.4
1007.73
1005.81
1000.8
994.584
988.398
983.568
978.524
974.084
969.532
964.975
960.107
955.191
950.158
945.354
940.517
935.511
930.517
925.621
920.724
915.817
910.888
905.949
901.007
896.067
891.131
886.195
881.259
876.331
871.404
866.477
861.552
856.631
851.713
846.792
841.875
836.964
832.037
827.12
822.209
817.297
812.401
807.486
802.592
797.7
792.767
787.873
782.992
778.06
773.137
768.226
763.323
758.419
753.498
748.579
743.703
738.808
733.873
728.974
724.085
719.165
714.243
709.334
704.439
699.531
694.592
689.7
684.823
679.901
674.982
670.12
665.25
660.24
655.45
650.551
645.503
640.857
635.739
630.875
626.215
620.885
616.239
611.616
606.027
601.499
597.077
591.174
586.745
582.511
576.47
571.872
567.987
561.907
557.026
553.234
547.458
542.337
538.35
532.708
527.834
523.678
517.87
513.064
509.13
503.313
498.302
494.335
488.638
483.694
479.702
473.933
468.952
465.002
459.305
454.319
450.379
444.667
439.643
435.703
430.001
424.953
421.022
415.331
410.265
406.341
400.661
395.578
391.661
385.99
380.887
376.979
371.319
366.196
362.294
356.647
351.507
347.606
341.971
336.814
332.921
327.29
322.124
318.229
312.611
307.442
303.52
297.967
292.687
288.887
283.228
278.008
274.2
268.449
263.533
259.233
254.151
248.41
244.892
239.212
233.81
230.26
224.068
220.09
214.197
210.636
204.289
200.603
194.817
190.464
185.49
180.425
175.797
170.216
166.543
160.37
156.547
150.193
147.251
140.373
137.286
130.419
127.685
120.645
117.949
110.779
108.177
100.958
98.644
89.4998
88.3517
54.733
7.52872
23.8279
-1.76188
1715.76
1659.75
1668.3
1646.9
1643.48
1630.85
1624.63
1614.63
1607.76
1599.03
1591.94
1583.92
1576.78
1569.2
1562.03
1554.71
1547.56
1540.33
1533.22
1526.06
1518.9
1511.69
1504.44
1497.12
1489.74
1482.24
1474.65
1466.91
1459.07
1451.12
1443.1
1435
1426.85
1418.65
1410.4
1402.12
1393.82
1385.48
1377.14
1368.76
1360.39
1351.99
1343.59
1335.17
1326.76
1318.32
1309.92
1301.45
1293.07
1284.53
1276.27
1267.52
1259.57
1250.3
1243.19
1232.58
1227.62
1213.53
1214.44
1192.86
1210.05
1227.06
1220.08
1226.02
1217.03
1218.27
1209.73
1209.08
1200.8
1199.57
1191.73
1188.8
1183.16
1179.4
1172.27
1168.55
1162.96
1162.23
1150.44
1148.48
1145.2
1137.42
1136.91
1131.11
1125.17
1120.11
1116.55
1105.95
1105.89
1102.32
1091.45
1085.62
1091.8
1081.91
1066.11
1068.46
1074.14
1056.37
1046.45
1051.57
1050.02
1036.26
1029.44
1028.77
1027.79
1020.41
1011.41
1007.76
1005.81
1000.78
994.582
988.403
983.572
978.526
974.086
969.532
964.975
960.104
955.191
950.158
945.354
940.516
935.511
930.518
925.621
920.724
915.816
910.888
905.949
901.007
896.067
891.131
886.195
881.259
876.332
871.404
866.477
861.552
856.631
851.713
846.792
841.875
836.964
832.037
827.12
822.209
817.297
812.401
807.487
802.592
797.7
792.768
787.874
782.992
778.06
773.137
768.227
763.323
758.419
753.498
748.58
743.703
738.808
733.873
728.974
724.085
719.166
714.243
709.334
704.439
699.531
694.592
689.7
684.822
679.901
674.982
670.12
665.25
660.241
655.449
650.551
645.504
640.856
635.74
630.875
626.213
620.887
616.239
611.613
606.031
601.499
597.072
591.179
586.746
582.505
576.475
571.875
567.98
561.911
557.03
553.228
547.46
542.341
538.345
532.71
527.836
523.673
517.874
513.067
509.124
503.316
498.305
494.329
488.641
483.697
479.697
473.936
468.955
464.997
459.307
454.322
450.374
444.669
439.646
435.698
430.003
424.957
421.016
415.334
410.269
406.335
400.663
395.581
391.655
385.992
380.891
376.973
371.321
366.2
362.288
356.648
351.511
347.601
341.973
336.818
332.916
327.292
322.128
318.224
312.612
307.446
303.515
297.968
292.692
288.882
283.23
278.012
274.195
268.45
263.537
259.229
254.15
248.416
244.886
239.212
233.815
230.255
224.069
220.09
214.199
210.632
204.292
200.601
194.819
190.463
185.49
180.425
175.798
170.218
166.541
160.371
156.547
150.197
147.247
140.375
137.285
130.422
127.683
120.647
117.945
110.783
108.175
100.957
98.6405
89.3881
88.234
54.7974
7.62489
23.8635
-1.74773
1715.51
1659.88
1668.34
1646.92
1643.49
1630.86
1624.64
1614.64
1607.77
1599.04
1591.96
1583.93
1576.79
1569.21
1562.04
1554.72
1547.57
1540.34
1533.22
1526.07
1518.91
1511.69
1504.45
1497.12
1489.74
1482.25
1474.65
1466.91
1459.07
1451.12
1443.1
1435
1426.85
1418.65
1410.4
1402.12
1393.82
1385.48
1377.14
1368.76
1360.39
1351.99
1343.59
1335.17
1326.76
1318.32
1309.92
1301.45
1293.07
1284.53
1276.27
1267.52
1259.57
1250.3
1243.19
1232.58
1227.62
1213.53
1214.48
1192.96
1210.11
1227.03
1220.06
1226.01
1217.02
1218.26
1209.73
1209.08
1200.8
1199.56
1191.73
1188.8
1183.16
1179.39
1172.27
1168.56
1162.96
1162.2
1150.46
1148.49
1145.19
1137.44
1136.91
1131.1
1125.17
1120.11
1116.54
1105.98
1105.88
1102.28
1091.47
1085.68
1091.74
1081.88
1066.2
1068.47
1074.04
1056.38
1046.54
1051.57
1049.94
1036.27
1029.51
1028.78
1027.75
1020.41
1011.41
1007.78
1005.81
1000.76
994.581
988.408
983.576
978.529
974.087
969.532
964.973
960.103
955.191
950.158
945.354
940.515
935.511
930.518
925.622
920.724
915.816
910.888
905.95
901.007
896.068
891.131
886.195
881.26
876.332
871.404
866.477
861.552
856.631
851.713
846.792
841.875
836.964
832.037
827.12
822.209
817.297
812.401
807.487
802.592
797.7
792.768
787.874
782.992
778.061
773.137
768.227
763.323
758.419
753.498
748.58
743.703
738.808
733.873
728.975
724.085
719.166
714.243
709.334
704.439
699.531
694.592
689.7
684.822
679.901
674.983
670.12
665.25
660.242
655.449
650.551
645.505
640.855
635.741
630.875
626.212
620.89
616.239
611.61
606.035
601.5
597.068
591.183
586.748
582.499
576.48
571.878
567.972
561.915
557.035
553.221
547.462
542.345
538.341
532.712
527.838
523.668
517.877
513.07
509.118
503.319
498.309
494.325
488.643
483.7
479.692
473.938
468.959
464.992
459.31
454.326
450.369
444.672
439.649
435.693
430.006
424.96
421.011
415.336
410.273
406.33
400.665
395.585
391.65
385.994
380.895
376.968
371.323
366.204
362.283
356.65
351.515
347.596
341.974
336.822
332.911
327.293
322.133
318.219
312.614
307.451
303.51
297.969
292.697
288.877
283.231
278.017
274.19
268.452
263.54
259.226
254.149
248.423
244.881
239.213
233.819
230.251
224.071
220.091
214.201
210.629
204.295
200.599
194.821
190.463
185.489
180.425
175.799
170.221
166.538
160.371
156.547
150.201
147.243
140.377
137.284
130.427
127.68
120.65
117.942
110.786
108.172
100.955
98.6356
89.2872
88.1125
54.8579
7.71266
23.8991
-1.73445
1715.3
1659.97
1668.38
1646.93
1643.49
1630.87
1624.66
1614.65
1607.78
1599.05
1591.97
1583.94
1576.8
1569.22
1562.05
1554.72
1547.57
1540.34
1533.23
1526.08
1518.91
1511.69
1504.45
1497.12
1489.75
1482.25
1474.65
1466.91
1459.07
1451.12
1443.1
1435
1426.85
1418.65
1410.4
1402.12
1393.82
1385.48
1377.14
1368.76
1360.39
1351.99
1343.59
1335.17
1326.76
1318.32
1309.92
1301.45
1293.07
1284.53
1276.27
1267.52
1259.57
1250.3
1243.19
1232.58
1227.62
1213.54
1214.5
1193.07
1210.17
1227
1220.04
1225.99
1217.02
1218.25
1209.73
1209.07
1200.8
1199.55
1191.73
1188.8
1183.15
1179.39
1172.27
1168.57
1162.96
1162.17
1150.48
1148.5
1145.18
1137.45
1136.91
1131.08
1125.17
1120.11
1116.53
1106.01
1105.88
1102.25
1091.49
1085.73
1091.67
1081.85
1066.29
1068.48
1073.94
1056.39
1046.63
1051.56
1049.86
1036.27
1029.57
1028.78
1027.71
1020.4
1011.42
1007.8
1005.81
1000.74
994.58
988.413
983.581
978.531
974.089
969.532
964.971
960.102
955.191
950.159
945.354
940.514
935.511
930.518
925.622
920.724
915.816
910.888
905.95
901.008
896.068
891.131
886.195
881.26
876.332
871.404
866.478
861.552
856.632
851.714
846.793
841.875
836.964
832.037
827.121
822.209
817.297
812.401
807.487
802.593
797.7
792.768
787.874
782.992
778.061
773.137
768.227
763.323
758.419
753.498
748.581
743.703
738.808
733.874
728.975
724.085
719.166
714.243
709.335
704.44
699.531
694.592
689.7
684.823
679.902
674.983
670.12
665.25
660.243
655.449
650.552
645.506
640.854
635.742
630.876
626.21
620.892
616.24
611.608
606.038
601.501
597.064
591.187
586.75
582.493
576.484
571.881
567.965
561.919
557.039
553.215
547.464
542.349
538.337
532.714
527.841
523.664
517.881
513.073
509.112
503.321
498.313
494.32
488.646
483.703
479.687
473.941
468.963
464.987
459.313
454.329
450.364
444.674
439.653
435.688
430.008
424.964
421.006
415.338
410.277
406.325
400.667
395.589
391.646
385.996
380.899
376.964
371.325
366.209
362.279
356.652
351.519
347.591
341.976
336.827
332.906
327.295
322.137
318.215
312.615
307.455
303.506
297.971
292.702
288.872
283.233
278.021
274.186
268.453
263.543
259.224
254.149
248.429
244.876
239.214
233.824
230.247
224.073
220.091
214.203
210.626
204.299
200.598
194.823
190.463
185.489
180.426
175.8
170.224
166.536
160.372
156.547
150.205
147.24
140.379
137.283
130.431
127.677
120.654
117.94
110.791
108.17
100.955
98.6314
89.1997
87.9907
54.9115
7.79229
23.933
-1.72178
1715.18
1660.02
1668.4
1646.93
1643.49
1630.86
1624.67
1614.66
1607.79
1599.06
1591.97
1583.95
1576.81
1569.23
1562.06
1554.73
1547.58
1540.35
1533.24
1526.08
1518.92
1511.7
1504.46
1497.13
1489.75
1482.25
1474.65
1466.91
1459.07
1451.12
1443.1
1435
1426.85
1418.65
1410.41
1402.12
1393.82
1385.48
1377.14
1368.76
1360.39
1351.99
1343.59
1335.17
1326.77
1318.32
1309.92
1301.45
1293.07
1284.53
1276.27
1267.52
1259.57
1250.3
1243.19
1232.58
1227.62
1213.54
1214.51
1193.18
1210.22
1226.97
1220.02
1225.98
1217.01
1218.25
1209.73
1209.07
1200.81
1199.55
1191.73
1188.8
1183.15
1179.38
1172.27
1168.59
1162.96
1162.15
1150.49
1148.5
1145.17
1137.47
1136.9
1131.07
1125.17
1120.1
1116.52
1106.04
1105.87
1102.22
1091.5
1085.76
1091.63
1081.82
1066.38
1068.49
1073.85
1056.39
1046.72
1051.56
1049.79
1036.28
1029.62
1028.79
1027.68
1020.4
1011.42
1007.83
1005.81
1000.72
994.579
988.418
983.584
978.534
974.09
969.532
964.97
960.101
955.191
950.16
945.355
940.514
935.511
930.518
925.622
920.724
915.816
910.888
905.95
901.008
896.068
891.132
886.195
881.26
876.332
871.404
866.478
861.553
856.632
851.714
846.793
841.876
836.964
832.037
827.121
822.209
817.297
812.402
807.487
802.593
797.7
792.768
787.874
782.992
778.061
773.137
768.228
763.323
758.419
753.498
748.581
743.703
738.808
733.874
728.975
724.085
719.166
714.243
709.335
704.44
699.532
694.593
689.701
684.823
679.902
674.984
670.12
665.25
660.244
655.449
650.552
645.507
640.854
635.743
630.877
626.209
620.894
616.24
611.607
606.041
601.502
597.06
591.19
586.752
582.489
576.488
571.884
567.959
561.922
557.044
553.21
547.466
542.353
538.334
532.717
527.843
523.659
517.885
513.076
509.107
503.324
498.317
494.316
488.649
483.705
479.682
473.944
468.966
464.983
459.315
454.333
450.359
444.677
439.657
435.684
430.011
424.968
421.002
415.341
410.28
406.321
400.67
395.593
391.641
385.998
380.903
376.959
371.327
366.213
362.274
356.654
351.523
347.587
341.978
336.831
332.902
327.297
322.142
318.21
312.617
307.46
303.502
297.972
292.707
288.868
283.234
278.026
274.182
268.455
263.546
259.223
254.148
248.435
244.872
239.215
233.829
230.244
224.075
220.092
214.206
210.624
204.302
200.597
194.825
190.464
185.489
180.426
175.801
170.227
166.534
160.373
156.547
150.209
147.237
140.382
137.282
130.435
127.675
120.658
117.937
110.795
108.168
100.954
98.6279
89.1276
87.8747
54.9583
7.86418
23.9644
-1.70973
1715.12
1660.05
1668.42
1646.92
1643.48
1630.86
1624.67
1614.66
1607.8
1599.06
1591.98
1583.96
1576.82
1569.24
1562.07
1554.74
1547.59
1540.36
1533.24
1526.09
1518.93
1511.71
1504.47
1497.14
1489.76
1482.26
1474.66
1466.91
1459.07
1451.12
1443.11
1435
1426.85
1418.65
1410.41
1402.12
1393.82
1385.48
1377.14
1368.76
1360.39
1351.99
1343.59
1335.17
1326.77
1318.32
1309.92
1301.45
1293.07
1284.53
1276.27
1267.52
1259.57
1250.3
1243.19
1232.58
1227.62
1213.54
1214.52
1193.28
1210.26
1226.94
1220
1225.97
1217
1218.24
1209.72
1209.07
1200.81
1199.54
1191.73
1188.8
1183.16
1179.37
1172.27
1168.6
1162.96
1162.12
1150.5
1148.51
1145.16
1137.48
1136.9
1131.05
1125.17
1120.1
1116.52
1106.07
1105.87
1102.19
1091.51
1085.78
1091.6
1081.79
1066.46
1068.5
1073.76
1056.4
1046.8
1051.55
1049.73
1036.28
1029.67
1028.78
1027.66
1020.39
1011.42
1007.85
1005.81
1000.7
994.578
988.422
983.587
978.536
974.092
969.532
964.968
960.1
955.191
950.16
945.355
940.513
935.511
930.518
925.623
920.724
915.816
910.889
905.95
901.008
896.068
891.132
886.195
881.26
876.332
871.405
866.478
861.553
856.632
851.714
846.793
841.876
836.964
832.037
827.121
822.209
817.297
812.402
807.487
802.593
797.7
792.768
787.874
782.992
778.061
773.138
768.228
763.323
758.42
753.499
748.581
743.703
738.808
733.874
728.976
724.086
719.166
714.244
709.335
704.44
699.532
694.593
689.701
684.823
679.902
674.984
670.12
665.25
660.245
655.449
650.552
645.508
640.853
635.744
630.877
626.208
620.896
616.24
611.606
606.042
601.503
597.058
591.193
586.753
582.484
576.492
571.887
567.953
561.926
557.048
553.204
547.467
542.357
538.33
532.719
527.845
523.655
517.888
513.079
509.102
503.327
498.32
494.312
488.651
483.708
479.678
473.947
468.97
464.979
459.318
454.336
450.355
444.679
439.66
435.679
430.013
424.971
420.998
415.343
410.284
406.317
400.672
395.597
391.637
386
380.907
376.955
371.329
366.217
362.27
356.656
351.528
347.583
341.98
336.836
332.898
327.298
322.146
318.207
312.618
307.463
303.5
297.973
292.71
288.866
283.236
278.03
274.178
268.456
263.548
259.222
254.148
248.44
244.869
239.217
233.833
230.241
224.077
220.093
214.208
210.621
204.306
200.596
194.828
190.464
185.49
180.427
175.802
170.229
166.532
160.375
156.547
150.213
147.234
140.384
137.282
130.44
127.672
120.661
117.935
110.799
108.167
100.953
98.6241
89.0689
87.7663
55.0002
7.92824
23.9933
-1.69835
1715.08
1660.1
1668.42
1646.91
1643.46
1630.85
1624.67
1614.66
1607.8
1599.07
1591.99
1583.97
1576.82
1569.24
1562.07
1554.75
1547.6
1540.36
1533.25
1526.1
1518.94
1511.72
1504.48
1497.15
1489.76
1482.26
1474.66
1466.91
1459.08
1451.13
1443.11
1435.01
1426.86
1418.65
1410.41
1402.12
1393.82
1385.48
1377.14
1368.76
1360.39
1351.99
1343.59
1335.17
1326.77
1318.32
1309.92
1301.46
1293.07
1284.53
1276.27
1267.52
1259.57
1250.3
1243.19
1232.58
1227.62
1213.55
1214.52
1193.37
1210.3
1226.91
1219.98
1225.96
1217
1218.24
1209.72
1209.07
1200.81
1199.53
1191.73
1188.8
1183.16
1179.37
1172.27
1168.6
1162.97
1162.1
1150.51
1148.52
1145.15
1137.5
1136.89
1131.04
1125.17
1120.1
1116.51
1106.1
1105.87
1102.16
1091.52
1085.79
1091.58
1081.76
1066.53
1068.51
1073.67