/*--------------------------------*- C++ -*----------------------------------*\
| =========                 |                                                 |
| \\      /  F ield         | foam-extend: Open Source CFD                    |
|  \\    /   O peration     | Version:     3.2                                |
|   \\  /    A nd           | Web:         http://www.foam-extend.org         |
|    \\/     M anipulation  | For copyright notice see file Copyright         |
\*---------------------------------------------------------------------------*/
FoamFile
{
    version     2.0;
    format      ascii;
    class       areaScalarField;
    location    "50";
    object      Pef;
}
// * * * * * * * * * * * * * * * * * * * * * * * * * * * * * * * * * * * * * //

dimensions      [0 0 0 0 0 0 0];

internalField   nonuniform List<scalar> 
300
(
0.986981
0.92595
0.809228
0.810902
0.794553
0.794522
0.786183
0.785782
0.782736
0.783894
0.784172
0.786149
0.788129
0.79124
0.794128
0.797733
0.801355
0.80535
0.809254
0.813458
0.81781
0.822204
0.826632
0.831025
0.83537
0.839673
0.843604
0.84697
0.849766
0.852071
0.853973
0.855533
0.856826
0.857882
0.858766
0.859483
0.860096
0.860584
0.861018
0.861352
0.861669
0.861894
0.862137
0.862287
0.862481
0.86257
0.862729
0.862763
0.862947
0.862868
0.863176
0.862827
0.863496
0.862517
0.86418
0.861555
0.865869
0.859345
0.872071
0.846537
0.682103
0.669263
0.688149
0.692194
0.705481
0.707293
0.711424
0.713965
0.714095
0.714836
0.717934
0.712405
0.710519
0.717474
0.720189
0.710778
0.697812
0.720279
0.724135
0.704179
0.716893
0.70261
0.692819
0.707657
0.708508
0.706176
0.72486
0.711392
0.689081
0.726631
0.739515
0.678362
0.689412
0.756012
0.723718
0.650184
0.716179
0.770072
0.704582
0.661349
0.720647
0.750403
0.717319
0.686532
0.693969
0.725622
0.730258
0.70623
0.698473
0.70823
0.717342
0.718825
0.717776
0.715944
0.712762
0.710604
0.709751
0.7102
0.711169
0.710999
0.710414
0.710839
0.711532
0.711589
0.711328
0.711237
0.711269
0.711325
0.711382
0.711452
0.711481
0.711508
0.711545
0.711545
0.711561
0.711583
0.711538
0.711539
0.711558
0.711562
0.711566
0.711551
0.711572
0.711578
0.711585
0.711623
0.711605
0.711607
0.711609
0.711561
0.711661
0.711682
0.711563
0.711653
0.711755
0.71174
0.711687
0.711641
0.711742
0.711851
0.711741
0.711653
0.71182
0.711869
0.711753
0.711773
0.711838
0.711844
0.711815
0.711801
0.711942
0.711932
0.711792
0.711913
0.712069
0.711879
0.71175
0.712191
0.711968
0.711772
0.712426
0.711677
0.712004
0.712481
0.711316
0.712724
0.712507
0.710517
0.71337
0.713021
0.709665
0.713681
0.713662
0.709032
0.713717
0.714519
0.708641
0.713026
0.715719
0.709128
0.71175
0.7154
0.710555
0.712092
0.714031
0.710333
0.713277
0.71474
0.709628
0.712597
0.715485
0.710338
0.712482
0.714767
0.710199
0.712843
0.715448
0.710298
0.712503
0.715092
0.710162
0.712437
0.715243
0.710281
0.712486
0.71539
0.710407
0.712503
0.7155
0.710528
0.712532
0.715612
0.710637
0.712553
0.715739
0.71076
0.712564
0.715853
0.710897
0.712585
0.715953
0.711035
0.712621
0.716058
0.711155
0.712664
0.71616
0.711287
0.712707
0.716239
0.711471
0.712661
0.716451
0.711508
0.71272
0.716569
0.711479
0.713085
0.716209
0.712181
0.71258
0.716718
0.712239
0.712316
0.717206
0.711588
0.713756
0.714811
0.714562
0.712566
0.714385
0.714588
0.713618
0.714804
0.712958
0.714548
0.714177
0.715617
0.712363
0.71411
0.714657
0.71598
0.712474
0.714236
0.714064
0.715321
0.713372
0.714471
0.713257
0.714633
0.713501
0.714336
0.713192
0.715423
0.697472
0.797743
0.915396
0.892871
0.852674
0.862326
)
;

boundaryField
{
    inlet
    {
        type            calculated;
        value           uniform 0;
    }
    outlet
    {
        type            calculated;
        value           uniform 0;
    }
    sideWall
    {
        type            empty;
    }
}


// ************************************************************************* //
