/*--------------------------------*- C++ -*----------------------------------*\
| =========                 |                                                 |
| \\      /  F ield         | foam-extend: Open Source CFD                    |
|  \\    /   O peration     | Version:     3.2                                |
|   \\  /    A nd           | Web:         http://www.foam-extend.org         |
|    \\/     M anipulation  | For copyright notice see file Copyright         |
\*---------------------------------------------------------------------------*/
FoamFile
{
    version     2.0;
    format      ascii;
    class       surfaceScalarField;
    location    "50";
    object      phi;
}
// * * * * * * * * * * * * * * * * * * * * * * * * * * * * * * * * * * * * * //

dimensions      [0 3 -1 0 0 0 0];

internalField   nonuniform List<scalar> 
10482
(
9.61086e-06
1.28475e-05
6.86745e-06
2.7434e-06
6.51675e-06
3.50702e-07
6.47618e-06
4.05689e-08
6.45239e-06
2.37954e-08
6.40863e-06
4.3759e-08
6.39188e-06
1.67535e-08
6.37228e-06
1.95923e-08
6.37115e-06
1.12844e-09
6.36987e-06
1.28234e-09
6.37801e-06
-8.14056e-09
6.38568e-06
-7.66351e-09
6.40112e-06
-1.54427e-08
6.41664e-06
-1.55243e-08
6.43538e-06
-1.8734e-08
6.45581e-06
-2.0428e-08
6.47836e-06
-2.25553e-08
6.50143e-06
-2.30667e-08
6.52608e-06
-2.46524e-08
6.55279e-06
-2.67096e-08
6.58074e-06
-2.79542e-08
6.6094e-06
-2.86591e-08
6.63887e-06
-2.94706e-08
6.6686e-06
-2.97243e-08
6.699e-06
-3.04057e-08
6.72869e-06
-2.96891e-08
6.75569e-06
-2.69999e-08
6.77875e-06
-2.30563e-08
6.79822e-06
-1.94686e-08
6.81442e-06
-1.62031e-08
6.82797e-06
-1.35543e-08
6.8392e-06
-1.12234e-08
6.84857e-06
-9.36699e-09
6.85631e-06
-7.7428e-09
6.86278e-06
-6.46933e-09
6.86813e-06
-5.35623e-09
6.87262e-06
-4.49075e-09
6.87636e-06
-3.7351e-09
6.87952e-06
-3.15692e-09
6.88215e-06
-2.63408e-09
6.8844e-06
-2.25341e-09
6.88628e-06
-1.8804e-09
6.88795e-06
-1.66885e-09
6.8893e-06
-1.34909e-09
6.89055e-06
-1.24358e-09
6.89148e-06
-9.33318e-10
6.89259e-06
-1.11488e-09
6.8933e-06
-7.03695e-10
6.89412e-06
-8.25108e-10
6.89437e-06
-2.47335e-10
6.89544e-06
-1.06975e-09
6.89465e-06
7.90874e-10
6.89682e-06
-2.17345e-09
6.89406e-06
2.76624e-09
6.89919e-06
-5.12921e-09
6.89159e-06
7.60031e-09
6.90676e-06
-1.51789e-08
6.89714e-06
9.61368e-09
6.89475e-06
2.49829e-09
6.02669e-06
9.9165e-07
5.48531e-06
9.27554e-07
5.71828e-06
3.12843e-07
5.78331e-06
5.07242e-07
5.89545e-06
4.68604e-07
5.9155e-06
5.64157e-07
5.96404e-06
5.37229e-07
5.961e-06
5.89703e-07
5.99247e-06
5.55344e-07
5.97364e-06
6.07727e-07
6.00825e-06
5.5408e-07
5.98525e-06
5.91263e-07
5.97003e-06
5.77232e-07
5.98215e-06
5.97712e-07
6.0243e-06
5.86148e-07
5.9943e-06
5.75208e-07
5.92761e-06
5.65448e-07
5.94323e-06
6.07623e-07
6.06384e-06
5.71909e-07
5.9779e-06
6.60854e-07
5.96411e-06
5.31067e-07
5.98013e-06
4.96048e-07
5.88137e-06
5.86305e-07
5.91749e-06
5.41319e-07
5.96517e-06
6.17111e-07
5.94993e-06
6.80013e-07
5.99744e-06
6.31137e-07
6.03823e-06
5.54053e-07
5.88375e-06
6.46575e-07
5.94346e-06
6.02101e-07
6.14188e-06
5.39833e-07
5.96437e-06
6.06577e-07
5.75526e-06
6.35954e-07
6.06486e-06
5.16085e-07
6.19634e-06
5.56631e-07
5.7959e-06
6.46682e-07
5.76062e-06
5.16189e-07
6.22793e-06
4.1219e-07
6.16046e-06
6.29625e-07
5.75503e-06
5.90248e-07
5.8362e-06
4.32956e-07
6.15859e-06
5.53845e-07
6.12062e-06
6.73947e-07
5.89955e-06
5.11911e-07
5.82701e-06
4.78354e-07
5.97404e-06
6.06028e-07
6.09372e-06
6.85531e-07
6.00641e-06
6.40291e-07
5.90483e-06
5.17556e-07
5.92766e-06
5.20606e-07
5.98839e-06
6.29042e-07
6.01606e-06
6.66491e-07
6.00909e-06
6.30974e-07
6.00152e-06
5.77876e-07
5.98601e-06
5.60873e-07
5.97175e-06
5.54691e-07
5.9646e-06
5.61555e-07
5.9652e-06
5.7694e-07
5.96991e-06
5.89281e-07
5.97272e-06
5.91929e-07
5.96944e-06
5.91778e-07
5.96883e-06
5.90412e-07
5.9728e-06
5.92035e-07
5.97496e-06
5.93977e-07
5.97379e-06
5.92329e-07
5.97276e-06
5.89529e-07
5.97265e-06
5.89507e-07
5.97294e-06
5.90603e-07
5.9733e-06
5.91267e-07
5.97369e-06
5.91485e-07
5.97395e-06
5.91551e-07
5.97406e-06
5.91523e-07
5.97419e-06
5.91425e-07
5.9742e-06
5.91427e-07
5.97417e-06
5.91354e-07
5.9743e-06
5.91189e-07
5.97412e-06
5.91376e-07
5.97386e-06
5.91399e-07
5.97399e-06
5.91248e-07
5.97414e-06
5.9145e-07
5.97422e-06
5.9159e-07
5.9742e-06
5.91758e-07
5.97418e-06
5.91952e-07
5.97428e-06
5.92027e-07
5.97426e-06
5.92309e-07
5.97437e-06
5.92377e-07
5.9744e-06
5.92492e-07
5.97428e-06
5.92641e-07
5.97439e-06
5.92472e-07
5.97416e-06
5.92906e-07
5.97433e-06
5.93061e-07
5.97487e-06
5.92947e-07
5.9743e-06
5.93552e-07
5.97408e-06
5.93505e-07
5.97486e-06
5.93542e-07
5.97505e-06
5.9414e-07
5.97477e-06
5.93856e-07
5.97445e-06
5.93811e-07
5.97461e-06
5.94335e-07
5.97531e-06
5.94628e-07
5.97528e-06
5.94711e-07
5.97448e-06
5.94809e-07
5.97477e-06
5.94747e-07
5.97558e-06
5.95135e-07
5.97518e-06
5.95725e-07
5.97478e-06
5.95446e-07
5.97514e-06
5.95448e-07
5.97535e-06
5.95986e-07
5.97521e-06
5.961e-07
5.97501e-06
5.96355e-07
5.97543e-06
5.96587e-07
5.97594e-06
5.9665e-07
5.97528e-06
5.97122e-07
5.97513e-06
5.97189e-07
5.97616e-06
5.9715e-07
5.97603e-06
5.9747e-07
5.9747e-06
5.98171e-07
5.97577e-06
5.97701e-07
5.97691e-06
5.97705e-07
5.97478e-06
6.00113e-07
5.97672e-06
5.97398e-07
5.97668e-06
5.98672e-07
5.97393e-06
6.01376e-07
5.97819e-06
5.96021e-07
5.97488e-06
6.02108e-07
5.97509e-06
6.01107e-07
5.98129e-06
5.95129e-07
5.97141e-06
6.05448e-07
5.9744e-06
6.00615e-07
5.98589e-06
5.94483e-07
5.96972e-06
6.09137e-07
5.97193e-06
6.00746e-07
5.99e-06
5.925e-07
5.96921e-06
6.13063e-07
5.96907e-06
6.02134e-07
5.99327e-06
5.91076e-07
5.97144e-06
6.13802e-07
5.96418e-06
6.05718e-07
5.99525e-06
5.89923e-07
5.97793e-06
6.14389e-07
5.96079e-06
6.08293e-07
5.98854e-06
5.89718e-07
5.98191e-06
6.14038e-07
5.96733e-06
6.10547e-07
5.98464e-06
5.90698e-07
5.97584e-06
6.12452e-07
5.97089e-06
6.11648e-07
5.99148e-06
5.94874e-07
5.97562e-06
6.13147e-07
5.96522e-06
6.10592e-07
5.99137e-06
5.94973e-07
5.9808e-06
6.16601e-07
5.96727e-06
6.12567e-07
5.98844e-06
5.92887e-07
5.97774e-06
6.15155e-07
5.96771e-06
6.15098e-07
5.99168e-06
5.96653e-07
5.98025e-06
6.16548e-07
5.96692e-06
6.13974e-07
5.98933e-06
5.94715e-07
5.97877e-06
6.16137e-07
5.96628e-06
6.15986e-07
5.9896e-06
5.97185e-07
5.97971e-06
6.18076e-07
5.96673e-06
6.17787e-07
5.99003e-06
5.98259e-07
5.98052e-06
6.18742e-07
5.96704e-06
6.18784e-07
5.99023e-06
5.99003e-07
5.98117e-06
6.19314e-07
5.96736e-06
6.19794e-07
5.9905e-06
5.99782e-07
5.98179e-06
6.19866e-07
5.96762e-06
6.20767e-07
5.9908e-06
6.00552e-07
5.98251e-06
6.20413e-07
5.9679e-06
6.2169e-07
5.99103e-06
6.01236e-07
5.98324e-06
6.20901e-07
5.96825e-06
6.22563e-07
5.99124e-06
6.01893e-07
5.98392e-06
6.21325e-07
5.96868e-06
6.23364e-07
5.99153e-06
6.02491e-07
5.98456e-06
6.21673e-07
5.96905e-06
6.24071e-07
5.99187e-06
6.02997e-07
5.98521e-06
6.22046e-07
5.96949e-06
6.24589e-07
5.9921e-06
6.03555e-07
5.98594e-06
6.2218e-07
5.96989e-06
6.25151e-07
5.99238e-06
6.04055e-07
5.98698e-06
6.21873e-07
5.96967e-06
6.26449e-07
5.99318e-06
6.03108e-07
5.98698e-06
6.23147e-07
5.97071e-06
6.25759e-07
5.99323e-06
6.04067e-07
5.98702e-06
6.23682e-07
5.97284e-06
6.23545e-07
5.99113e-06
6.08486e-07
5.9915e-06
6.17755e-07
5.96961e-06
6.30305e-07
5.99374e-06
6.01957e-07
5.9897e-06
6.23191e-07
5.97224e-06
6.25674e-07
5.99154e-06
6.04349e-07
5.9874e-06
6.27615e-07
5.98585e-06
6.11742e-07
5.97774e-06
6.23198e-07
5.99327e-06
6.07709e-07
5.98233e-06
6.30133e-07
5.98976e-06
6.08004e-07
5.98309e-06
6.20956e-07
5.98411e-06
6.15537e-07
5.98817e-06
6.19202e-07
5.99068e-06
6.18449e-07
5.98756e-06
6.12705e-07
5.97647e-06
6.21798e-07
5.99184e-06
6.1032e-07
5.99073e-06
6.27169e-07
5.99123e-06
6.09488e-07
5.97491e-06
6.23945e-07
5.99274e-06
6.02455e-07
5.98416e-06
6.31728e-07
5.99342e-06
6.07291e-07
5.97781e-06
6.303e-07
5.99146e-06
6.02533e-07
5.97856e-06
6.29584e-07
5.99338e-06
6.01839e-07
5.97799e-06
6.32032e-07
5.99186e-06
6.02716e-07
5.97977e-06
6.2869e-07
5.95346e-06
6.42497e-07
6.24142e-06
3.16012e-07
7.22323e-06
-5.42871e-07
7.55008e-06
-1.83922e-07
6.90944e-06
6.40762e-07
6.89035e-06
1.90819e-08
1.89012e-08
1.68775e-05
1.84282e-05
1.40454e-05
5.57554e-06
1.30682e-05
1.32788e-06
1.28018e-05
3.06984e-07
1.26154e-05
2.10138e-07
1.2475e-05
1.84233e-07
1.2388e-05
1.03757e-07
1.23319e-05
7.56633e-08
1.23031e-05
2.99494e-08
1.22925e-05
1.1835e-08
1.22939e-05
-9.54547e-09
1.23029e-05
-1.66289e-08
1.23234e-05
-3.58958e-08
1.23476e-05
-3.97332e-08
1.23783e-05
-4.94891e-08
1.24133e-05
-5.54469e-08
1.24527e-05
-6.19337e-08
1.24943e-05
-6.46794e-08
1.25384e-05
-6.87132e-08
1.25866e-05
-7.49042e-08
1.26376e-05
-7.89473e-08
1.26904e-05
-8.15249e-08
1.2745e-05
-8.40341e-08
1.28005e-05
-8.51987e-08
1.28576e-05
-8.75356e-08
1.29138e-05
-8.5928e-08
1.29652e-05
-7.83421e-08
1.30098e-05
-6.76623e-08
1.30479e-05
-5.76221e-08
1.30802e-05
-4.84981e-08
1.31075e-05
-4.0817e-08
1.31304e-05
-3.41005e-08
1.31496e-05
-2.85614e-08
1.31656e-05
-2.37863e-08
1.31791e-05
-1.98997e-08
1.31903e-05
-1.65877e-08
1.31997e-05
-1.38901e-08
1.32076e-05
-1.16331e-08
1.32142e-05
-9.78044e-09
1.32198e-05
-8.24171e-09
1.32245e-05
-6.96402e-09
1.32285e-05
-5.905e-09
1.3232e-05
-5.11056e-09
1.32349e-05
-4.27404e-09
1.32375e-05
-3.80068e-09
1.32395e-05
-2.95131e-09
1.32412e-05
-2.77874e-09
1.32427e-05
-2.26335e-09
1.32442e-05
-2.27396e-09
1.32452e-05
-1.25415e-09
1.32463e-05
-2.22269e-09
1.32466e-05
5.29982e-10
1.32481e-05
-3.64525e-09
1.32471e-05
3.76613e-09
1.32497e-05
-7.81463e-09
1.32471e-05
1.02152e-08
1.3257e-05
-2.5008e-08
1.32772e-05
-1.06099e-08
1.32791e-05
7.27883e-10
1.20208e-05
2.24989e-06
1.09467e-05
2.00069e-06
1.10425e-05
2.16224e-07
1.11446e-05
4.04553e-07
1.13033e-05
3.09432e-07
1.13795e-05
4.87556e-07
1.14551e-05
4.61093e-07
1.14832e-05
5.61123e-07
1.15276e-05
5.10495e-07
1.15223e-05
6.12625e-07
1.1564e-05
5.11844e-07
1.15435e-05
6.1137e-07
1.15189e-05
6.01556e-07
1.15448e-05
5.71258e-07
1.16086e-05
5.21572e-07
1.15619e-05
6.21614e-07
1.14514e-05
6.75902e-07
1.14951e-05
5.63349e-07
1.16577e-05
4.08246e-07
1.15614e-05
7.569e-07
1.15264e-05
5.65838e-07
1.15116e-05
5.10337e-07
1.13771e-05
7.20773e-07
1.14204e-05
4.97559e-07
1.15068e-05
5.29897e-07
1.15118e-05
6.74627e-07
1.1586e-05
5.56161e-07
1.16173e-05
5.22216e-07
1.1415e-05
8.4918e-07
1.15061e-05
5.10196e-07
1.1776e-05
2.68453e-07
1.15215e-05
8.61481e-07
1.12465e-05
9.11618e-07
1.16666e-05
9.39736e-08
1.18295e-05
3.92481e-07
1.12685e-05
1.2091e-06
1.12327e-05
5.51923e-07
1.18956e-05
-2.53146e-07
1.18153e-05
7.09388e-07
1.12111e-05
1.19597e-06
1.12993e-05
3.44305e-07
1.1801e-05
5.00429e-08
1.17973e-05
6.76858e-07
1.14377e-05
8.72439e-07
1.12842e-05
6.32025e-07
1.15181e-05
3.7075e-07
1.17355e-05
4.66851e-07
1.1611e-05
7.64657e-07
1.14272e-05
7.01637e-07
1.14396e-05
5.07739e-07
1.15514e-05
5.16418e-07
1.16185e-05
5.98682e-07
1.1612e-05
6.36992e-07
1.15906e-05
5.9894e-07
1.15575e-05
5.93537e-07
1.15263e-05
5.85584e-07
1.15109e-05
5.76447e-07
1.15124e-05
5.75013e-07
1.15227e-05
5.78494e-07
1.15292e-05
5.84904e-07
1.15252e-05
5.95375e-07
1.15243e-05
5.90813e-07
1.15309e-05
5.84959e-07
1.15355e-05
5.88889e-07
1.1534e-05
5.93447e-07
1.15317e-05
5.91368e-07
1.15312e-05
5.89561e-07
1.15318e-05
5.89527e-07
1.15325e-05
5.90072e-07
1.15333e-05
5.90246e-07
1.15339e-05
5.90488e-07
1.15342e-05
5.9078e-07
1.15345e-05
5.90659e-07
1.15345e-05
5.90932e-07
1.15344e-05
5.90998e-07
1.15346e-05
5.90553e-07
1.15344e-05
5.91029e-07
1.15342e-05
5.91191e-07
1.15343e-05
5.90695e-07
1.15345e-05
5.90746e-07
1.15347e-05
5.90933e-07
1.15346e-05
5.91405e-07
1.15345e-05
5.91548e-07
1.15347e-05
5.91417e-07
1.15347e-05
5.91849e-07
1.15348e-05
5.91773e-07
1.15348e-05
5.92026e-07
1.15347e-05
5.92261e-07
1.1535e-05
5.91786e-07
1.15347e-05
5.92736e-07
1.15349e-05
5.92339e-07
1.15357e-05
5.91721e-07
1.1535e-05
5.93761e-07
1.15347e-05
5.93331e-07
1.15358e-05
5.92008e-07
1.15362e-05
5.93212e-07
1.15359e-05
5.93783e-07
1.15353e-05
5.93893e-07
1.15357e-05
5.93517e-07
1.15368e-05
5.93005e-07
1.15368e-05
5.94305e-07
1.15356e-05
5.95478e-07
1.15361e-05
5.93826e-07
1.15373e-05
5.93465e-07
1.15368e-05
5.95688e-07
1.15363e-05
5.9555e-07
1.15368e-05
5.94496e-07
1.15372e-05
5.95107e-07
1.1537e-05
5.95779e-07
1.15368e-05
5.96144e-07
1.15375e-05
5.95429e-07
1.15382e-05
5.95455e-07
1.15373e-05
5.97517e-07
1.15373e-05
5.96778e-07
1.15388e-05
5.95181e-07
1.15385e-05
5.97235e-07
1.15369e-05
5.99309e-07
1.15384e-05
5.95728e-07
1.15397e-05
5.95932e-07
1.15374e-05
6.01974e-07
1.15397e-05
5.94615e-07
1.15394e-05
5.98504e-07
1.15366e-05
6.03679e-07
1.15415e-05
5.90673e-07
1.15378e-05
6.0538e-07
1.15387e-05
5.99704e-07
1.15455e-05
5.87862e-07
1.15336e-05
6.16902e-07
1.1538e-05
5.9572e-07
1.15514e-05
5.8053e-07
1.15316e-05
6.28519e-07
1.1535e-05
5.96884e-07
1.15566e-05
5.7037e-07
1.15314e-05
6.37861e-07
1.1532e-05
6.01095e-07
1.15611e-05
5.61387e-07
1.15339e-05
6.40568e-07
1.15262e-05
6.12997e-07
1.15635e-05
5.52006e-07
1.15429e-05
6.34564e-07
1.15229e-05
6.27935e-07
1.15553e-05
5.56768e-07
1.15487e-05
6.20167e-07
1.15315e-05
6.27321e-07
1.15501e-05
5.71526e-07
1.15401e-05
6.21996e-07
1.15362e-05
6.15136e-07
1.15599e-05
5.70641e-07
1.15402e-05
6.32385e-07
1.15291e-05
6.21242e-07
1.15599e-05
5.63651e-07
1.1548e-05
6.27998e-07
1.15326e-05
6.27603e-07
1.15552e-05
5.69694e-07
1.15432e-05
6.26759e-07
1.15337e-05
6.24161e-07
1.15609e-05
5.68825e-07
1.15475e-05
6.29562e-07
1.15324e-05
6.28666e-07
1.15567e-05
5.6977e-07
1.15446e-05
6.27833e-07
1.15314e-05
6.28772e-07
1.15575e-05
5.70514e-07
1.15463e-05
6.28816e-07
1.15325e-05
6.31194e-07
1.15587e-05
5.71494e-07
1.15478e-05
6.29151e-07
1.15332e-05
6.32975e-07
1.15593e-05
5.72307e-07
1.15489e-05
6.29218e-07
1.15339e-05
6.34437e-07
1.156e-05
5.73077e-07
1.155e-05
6.2938e-07
1.15345e-05
6.35907e-07
1.15608e-05
5.7367e-07
1.15513e-05
6.29455e-07
1.15351e-05
6.37487e-07
1.15614e-05
5.74294e-07
1.15525e-05
6.29355e-07
1.15358e-05
6.38905e-07
1.15621e-05
5.75024e-07
1.15537e-05
6.2923e-07
1.15365e-05
6.40096e-07
1.15628e-05
5.75694e-07
1.15548e-05
6.29189e-07
1.15372e-05
6.4119e-07
1.15635e-05
5.76158e-07
1.15559e-05
6.29178e-07
1.1538e-05
6.4205e-07
1.15642e-05
5.768e-07
1.15571e-05
6.28773e-07
1.15386e-05
6.43254e-07
1.1565e-05
5.77151e-07
1.15585e-05
6.27806e-07
1.15386e-05
6.45999e-07
1.15656e-05
5.75481e-07
1.15588e-05
6.29533e-07
1.15405e-05
6.43603e-07
1.15664e-05
5.77632e-07
1.15598e-05
6.29795e-07
1.15425e-05
6.40448e-07
1.15651e-05
5.85307e-07
1.15646e-05
6.17774e-07
1.15389e-05
6.55557e-07
1.15662e-05
5.7411e-07
1.15625e-05
6.26389e-07
1.15434e-05
6.44369e-07
1.15641e-05
5.83073e-07
1.15635e-05
6.2777e-07
1.15567e-05
6.18062e-07
1.15483e-05
6.31095e-07
1.15667e-05
5.88838e-07
1.15566e-05
6.39723e-07
1.15624e-05
6.01717e-07
1.15559e-05
6.26966e-07
1.15564e-05
6.14588e-07
1.15616e-05
6.13468e-07
1.15658e-05
6.13696e-07
1.15589e-05
6.19188e-07
1.15473e-05
6.32968e-07
1.15655e-05
5.91563e-07
1.15693e-05
6.22829e-07
1.15641e-05
6.14251e-07
1.15453e-05
6.42263e-07
1.15636e-05
5.83703e-07
1.15604e-05
6.34367e-07
1.15673e-05
5.99917e-07
1.15513e-05
6.4588e-07
1.15618e-05
5.91464e-07
1.15508e-05
6.4012e-07
1.15647e-05
5.87483e-07
1.15498e-05
6.46448e-07
1.15625e-05
5.89528e-07
1.15501e-05
6.40594e-07
1.14619e-05
7.30233e-07
1.1871e-05
-9.39301e-08
1.34717e-05
-2.14441e-06
1.42974e-05
-1.00952e-06
1.35808e-05
1.35767e-06
1.3359e-05
2.40852e-07
5.92686e-08
2.05334e-05
2.03532e-05
1.81926e-05
7.91632e-06
1.69495e-05
2.57105e-06
1.63977e-05
8.58769e-07
1.60116e-05
5.96275e-07
1.57843e-05
4.11489e-07
1.56307e-05
2.57355e-07
1.55347e-05
1.71642e-07
1.54756e-05
8.9057e-08
1.54477e-05
3.98034e-08
1.54357e-05
2.39084e-09
1.54394e-05
-2.03038e-08
1.54557e-05
-5.22479e-08
1.54792e-05
-6.32141e-08
1.55121e-05
-8.23356e-08
1.55509e-05
-9.42475e-08
1.55958e-05
-1.06887e-07
1.56445e-05
-1.13372e-07
1.56963e-05
-1.20478e-07
1.57533e-05
-1.31885e-07
1.58141e-05
-1.3974e-07
1.58776e-05
-1.45026e-07
1.59434e-05
-1.49857e-07
1.60107e-05
-1.52524e-07
1.60803e-05
-1.57109e-07
1.61488e-05
-1.54424e-07
1.62113e-05
-1.40899e-07
1.62661e-05
-1.2244e-07
1.63133e-05
-1.04827e-07
1.63536e-05
-8.87768e-08
1.63878e-05
-7.50091e-08
1.64167e-05
-6.29689e-08
1.6441e-05
-5.28756e-08
1.64614e-05
-4.42075e-08
1.64785e-05
-3.70357e-08
1.64929e-05
-3.09724e-08
1.6505e-05
-2.59421e-08
1.65151e-05
-2.17893e-08
1.65236e-05
-1.82934e-08
1.65309e-05
-1.54699e-08
1.65369e-05
-1.30188e-08
1.65421e-05
-1.10969e-08
1.65465e-05
-9.51688e-09
1.65503e-05
-8.0556e-09
1.65536e-05
-7.0573e-09
1.65562e-05
-5.57907e-09
1.65586e-05
-5.1866e-09
1.65606e-05
-4.29938e-09
1.65624e-05
-4.0766e-09
1.65638e-05
-2.64348e-09
1.6565e-05
-3.44219e-09
1.65659e-05
-2.8832e-10
1.6567e-05
-4.79444e-09
1.65676e-05
3.15495e-09
1.65691e-05
-9.28472e-09
1.6569e-05
1.03206e-08
1.65753e-05
-3.13017e-08
1.66082e-05
-4.35839e-08
1.66009e-05
8.27588e-09
1.53256e-05
3.52492e-06
1.4063e-05
3.26155e-06
1.39597e-05
3.17427e-07
1.40289e-05
3.33568e-07
1.41828e-05
1.53795e-07
1.42778e-05
3.90779e-07
1.43671e-05
3.70067e-07
1.44164e-05
5.10079e-07
1.44674e-05
4.57745e-07
1.44749e-05
6.03332e-07
1.45188e-05
4.66151e-07
1.45044e-05
6.24099e-07
1.44797e-05
6.24716e-07
1.45095e-05
5.39593e-07
1.45769e-05
4.51991e-07
1.45317e-05
6.65313e-07
1.4417e-05
7.89574e-07
1.44625e-05
5.1585e-07
1.46231e-05
2.45015e-07
1.454e-05
8.38591e-07
1.44966e-05
6.07768e-07
1.44678e-05
5.37462e-07
1.43332e-05
8.54227e-07
1.43646e-05
4.64461e-07
1.4457e-05
4.35353e-07
1.448e-05
6.49794e-07
1.4559e-05
4.74812e-07
1.45872e-05
4.92128e-07
1.43991e-05
1.03677e-06
1.44815e-05
4.2553e-07
1.47274e-05
1.90494e-08
1.4496e-05
1.09261e-06
1.42332e-05
1.17432e-06
1.46222e-05
-2.99111e-07
1.47973e-05
2.14288e-07
1.42528e-05
1.75499e-06
1.41859e-05
6.17754e-07
1.48355e-05
-9.0753e-07
1.48123e-05
7.30733e-07
1.42063e-05
1.8035e-06
1.42265e-05
3.22508e-07
1.47476e-05
-4.75535e-07
1.48099e-05
6.12405e-07
1.44289e-05
1.25395e-06
1.42342e-05
8.26058e-07
1.44683e-05
1.33545e-07
1.47087e-05
2.23163e-07
1.46059e-05
8.66181e-07
1.44026e-05
9.0439e-07
1.43893e-05
5.19488e-07
1.45115e-05
3.91727e-07
1.45987e-05
5.09259e-07
1.46001e-05
6.33782e-07
1.45754e-05
6.22028e-07
1.45359e-05
6.31439e-07
1.4497e-05
6.22803e-07
1.44767e-05
5.95188e-07
1.44766e-05
5.73307e-07
1.44881e-05
5.65157e-07
1.44963e-05
5.74939e-07
1.44929e-05
5.97002e-07
1.44921e-05
5.89917e-07
1.44991e-05
5.76113e-07
1.45047e-05
5.81527e-07
1.45036e-05
5.92768e-07
1.45011e-05
5.92133e-07
1.45003e-05
5.88604e-07
1.45009e-05
5.87135e-07
1.45018e-05
5.87421e-07
1.45027e-05
5.87575e-07
1.45034e-05
5.88005e-07
1.45039e-05
5.88601e-07
1.45043e-05
5.88457e-07
1.45045e-05
5.88933e-07
1.45045e-05
5.89215e-07
1.45046e-05
5.88732e-07
1.45044e-05
5.89436e-07
1.45042e-05
5.89615e-07
1.45043e-05
5.88855e-07
1.45044e-05
5.88913e-07
1.45044e-05
5.89145e-07
1.45043e-05
5.89693e-07
1.45044e-05
5.89761e-07
1.45045e-05
5.89539e-07
1.45045e-05
5.90041e-07
1.45048e-05
5.8975e-07
1.45048e-05
5.90166e-07
1.45048e-05
5.90547e-07
1.4505e-05
5.89812e-07
1.45047e-05
5.91214e-07
1.4505e-05
5.90287e-07
1.45058e-05
5.89171e-07
1.45053e-05
5.92528e-07
1.4505e-05
5.91865e-07
1.4506e-05
5.89203e-07
1.45066e-05
5.90828e-07
1.45062e-05
5.92374e-07
1.45056e-05
5.92728e-07
1.4506e-05
5.91394e-07
1.45072e-05
5.89991e-07
1.45072e-05
5.92479e-07
1.45062e-05
5.94785e-07
1.45066e-05
5.91658e-07
1.45077e-05
5.90493e-07
1.45075e-05
5.94143e-07
1.4507e-05
5.94272e-07
1.45074e-05
5.92332e-07
1.45078e-05
5.92908e-07
1.45078e-05
5.94064e-07
1.45076e-05
5.94548e-07
1.45083e-05
5.92916e-07
1.45091e-05
5.9289e-07
1.45083e-05
5.96503e-07
1.45082e-05
5.95054e-07
1.45097e-05
5.91913e-07
1.45096e-05
5.95603e-07
1.45081e-05
5.98975e-07
1.45095e-05
5.92538e-07
1.45108e-05
5.92881e-07
1.45088e-05
6.02189e-07
1.45107e-05
5.90913e-07
1.45107e-05
5.96751e-07
1.45085e-05
6.04092e-07
1.45127e-05
5.84652e-07
1.45098e-05
6.06516e-07
1.45105e-05
5.97185e-07
1.45164e-05
5.8017e-07
1.45064e-05
6.25139e-07
1.45098e-05
5.90439e-07
1.45218e-05
5.66685e-07
1.45051e-05
6.43585e-07
1.45072e-05
5.9292e-07
1.45266e-05
5.49085e-07
1.45051e-05
6.57634e-07
1.45046e-05
5.9986e-07
1.45311e-05
5.32937e-07
1.45073e-05
6.62703e-07
1.44991e-05
6.19395e-07
1.45328e-05
5.16321e-07
1.4516e-05
6.49622e-07
1.44972e-05
6.45114e-07
1.4525e-05
5.26994e-07
1.45216e-05
6.21736e-07
1.45062e-05
6.41001e-07
1.45216e-05
5.5429e-07
1.45133e-05
6.28484e-07
1.45098e-05
6.16893e-07
1.45315e-05
5.46975e-07
1.45139e-05
6.48305e-07
1.45028e-05
6.30539e-07
1.45306e-05
5.3395e-07
1.45218e-05
6.34987e-07
1.45076e-05
6.40097e-07
1.4527e-05
5.48395e-07
1.45168e-05
6.35152e-07
1.45079e-05
6.31279e-07
1.45324e-05
5.42394e-07
1.45216e-05
6.38622e-07
1.45074e-05
6.41091e-07
1.45282e-05
5.47013e-07
1.45182e-05
6.36038e-07
1.45059e-05
6.39356e-07
1.45288e-05
5.4566e-07
1.45201e-05
6.35748e-07
1.45074e-05
6.4209e-07
1.45302e-05
5.46753e-07
1.45219e-05
6.35727e-07
1.45086e-05
6.44536e-07
1.45311e-05
5.4782e-07
1.45232e-05
6.3529e-07
1.45096e-05
6.46352e-07
1.4532e-05
5.48703e-07
1.45245e-05
6.3505e-07
1.45104e-05
6.48213e-07
1.45329e-05
5.49266e-07
1.45259e-05
6.34609e-07
1.45114e-05
6.5032e-07
1.45337e-05
5.49997e-07
1.45273e-05
6.33889e-07
1.45123e-05
6.52155e-07
1.45345e-05
5.50941e-07
1.45287e-05
6.33197e-07
1.45134e-05
6.53625e-07
1.45353e-05
5.51802e-07
1.45299e-05
6.32756e-07
1.45144e-05
6.5501e-07
1.45362e-05
5.52338e-07
1.45312e-05
6.32339e-07
1.45154e-05
6.56137e-07
1.4537e-05
5.53225e-07
1.45326e-05
6.31345e-07
1.45163e-05
6.57821e-07
1.45378e-05
5.53671e-07
1.45341e-05
6.29686e-07
1.45167e-05
6.61657e-07
1.45388e-05
5.51332e-07
1.45346e-05
6.31957e-07
1.45184e-05
6.57999e-07
1.45397e-05
5.54427e-07
1.45357e-05
6.31872e-07
1.45203e-05
6.54141e-07
1.45393e-05
5.64368e-07
1.454e-05
6.1523e-07
1.45172e-05
6.76598e-07
1.45398e-05
5.49507e-07
1.45387e-05
6.2566e-07
1.45218e-05
6.59485e-07
1.45388e-05
5.64209e-07
1.45401e-05
6.24521e-07
1.45326e-05
6.23762e-07
1.45251e-05
6.3674e-07
1.45416e-05
5.70486e-07
1.45338e-05
6.45668e-07
1.4538e-05
5.95626e-07
1.45324e-05
6.30732e-07
1.45325e-05
6.12707e-07
1.45378e-05
6.06293e-07
1.45417e-05
6.07836e-07
1.4535e-05
6.24156e-07
1.45246e-05
6.4157e-07
1.45406e-05
5.73648e-07
1.45463e-05
6.15115e-07
1.45407e-05
6.18137e-07
1.45232e-05
6.57983e-07
1.45376e-05
5.67362e-07
1.45379e-05
6.32131e-07
1.45434e-05
5.92604e-07
1.45294e-05
6.58096e-07
1.45364e-05
5.82552e-07
1.45276e-05
6.47114e-07
1.4539e-05
5.74223e-07
1.45265e-05
6.57077e-07
1.45369e-05
5.77281e-07
1.45255e-05
6.50114e-07
1.44138e-05
8.40114e-07
1.48062e-05
-4.88711e-07
1.65377e-05
-3.87797e-06
1.76151e-05
-2.08734e-06
1.70711e-05
1.90189e-06
1.67959e-05
5.1597e-07
1.30025e-07
2.24118e-05
2.03998e-05
2.1015e-05
9.31313e-06
1.98784e-05
3.70761e-06
1.90546e-05
1.68256e-06
1.84708e-05
1.18007e-06
1.81326e-05
7.49724e-07
1.79008e-05
4.89166e-07
1.77583e-05
3.14153e-07
1.7665e-05
1.82305e-07
1.76129e-05
9.19744e-08
1.75826e-05
3.26637e-08
1.75752e-05
-1.29291e-08
1.75827e-05
-5.97781e-08
1.76007e-05
-8.11817e-08
1.76303e-05
-1.11973e-07
1.76677e-05
-1.31592e-07
1.77131e-05
-1.52299e-07
1.77636e-05
-1.63897e-07
1.7818e-05
-1.74893e-07
1.78785e-05
-1.92293e-07
1.79435e-05
-2.04792e-07
1.8012e-05
-2.13516e-07
1.80833e-05
-2.21196e-07
1.81568e-05
-2.26034e-07
1.8233e-05
-2.3324e-07
1.83075e-05
-2.28903e-07
1.83751e-05
-2.08547e-07
1.84346e-05
-1.81895e-07
1.84861e-05
-1.56338e-07
1.85303e-05
-1.32992e-07
1.8568e-05
-1.12755e-07
1.86e-05
-9.49602e-08
1.86271e-05
-7.99162e-08
1.86499e-05
-6.70032e-08
1.8669e-05
-5.62142e-08
1.86852e-05
-4.71159e-08
1.86987e-05
-3.94928e-08
1.87102e-05
-3.32281e-08
1.87198e-05
-2.78908e-08
1.87279e-05
-2.36268e-08
1.87348e-05
-1.98515e-08
1.87406e-05
-1.69588e-08
1.87456e-05
-1.44808e-08
1.87499e-05
-1.23274e-08
1.87535e-05
-1.07043e-08
1.87565e-05
-8.57108e-09
1.87592e-05
-7.89457e-09
1.87615e-05
-6.60681e-09
1.87635e-05
-6.09285e-09
1.87651e-05
-4.22999e-09
1.87664e-05
-4.72601e-09
1.87675e-05
-1.38604e-09
1.87685e-05
-5.82964e-09
1.87693e-05
2.33441e-09
1.87703e-05
-1.02245e-08
1.87713e-05
9.3246e-09
1.87754e-05
-3.54107e-08
1.88123e-05
-8.05748e-08
1.87914e-05
2.94572e-08
1.76261e-05
4.68967e-06
1.63363e-05
4.54846e-06
1.60559e-05
5.94158e-07
1.60655e-05
3.20679e-07
1.61842e-05
3.18286e-08
1.62735e-05
2.98157e-07
1.63654e-05
2.74897e-07
1.64245e-05
4.4774e-07
1.648e-05
3.99005e-07
1.64978e-05
5.82331e-07
1.65418e-05
4.18833e-07
1.65336e-05
6.29231e-07
1.65132e-05
6.42173e-07
1.6542e-05
5.07347e-07
1.66045e-05
3.85681e-07
1.65689e-05
6.97966e-07
1.64686e-05
8.87747e-07
1.65037e-05
4.77216e-07
1.66442e-05
1.00038e-07
1.65811e-05
8.98794e-07
1.6535e-05
6.51113e-07
1.65026e-05
5.66926e-07
1.63819e-05
9.72586e-07
1.63955e-05
4.47782e-07
1.64798e-05
3.47171e-07
1.6516e-05
6.10068e-07
1.65909e-05
3.95958e-07
1.66206e-05
4.58975e-07
1.64657e-05
1.18991e-06
1.65292e-05
3.58155e-07
1.67322e-05
-1.8945e-07
1.65417e-05
1.28174e-06
1.63096e-05
1.40561e-06
1.66298e-05
-6.25706e-07
1.68105e-05
2.84901e-08
1.6361e-05
2.20546e-06
1.62539e-05
7.22901e-07
1.67943e-05
-1.4554e-06
1.68433e-05
6.78294e-07
1.63322e-05
2.31596e-06
1.62792e-05
3.72828e-07
1.67254e-05
-9.28649e-07
1.68386e-05
4.95254e-07
1.65049e-05
1.58744e-06
1.62964e-05
1.03315e-06
1.64934e-05
-6.85467e-08
1.67218e-05
-1.06513e-08
1.66555e-05
9.29761e-07
1.64682e-05
1.09024e-06
1.64295e-05
5.55151e-07
1.65402e-05
2.76829e-07
1.66358e-05
4.09669e-07
1.66465e-05
6.19686e-07
1.66242e-05
6.41202e-07
1.65838e-05
6.68814e-07
1.65425e-05
6.61128e-07
1.65186e-05
6.16019e-07
1.6516e-05
5.7269e-07
1.65268e-05
5.51053e-07
1.65352e-05
5.63248e-07
1.65328e-05
5.96113e-07
1.65322e-05
5.87335e-07
1.65389e-05
5.66097e-07
1.65447e-05
5.72427e-07
1.65444e-05
5.89855e-07
1.65421e-05
5.9113e-07
1.65412e-05
5.86332e-07
1.65417e-05
5.83346e-07
1.65426e-05
5.83255e-07
1.65435e-05
5.8336e-07
1.65443e-05
5.83957e-07
1.65448e-05
5.84857e-07
1.65453e-05
5.84726e-07
1.65455e-05
5.8537e-07
1.65456e-05
5.85856e-07
1.65457e-05
5.85409e-07
1.65456e-05
5.86285e-07
1.65455e-05
5.86462e-07
1.65455e-05
5.85562e-07
1.65455e-05
5.8564e-07
1.65455e-05
5.85913e-07
1.65454e-05
5.86476e-07
1.65455e-05
5.86444e-07
1.65456e-05
5.86187e-07
1.65456e-05
5.86716e-07
1.65459e-05
5.86186e-07
1.6546e-05
5.86755e-07
1.6546e-05
5.87298e-07
1.65462e-05
5.8635e-07
1.6546e-05
5.88107e-07
1.65463e-05
5.86733e-07
1.6547e-05
5.85181e-07
1.65466e-05
5.89643e-07
1.65464e-05
5.88869e-07
1.65473e-05
5.8502e-07
1.65479e-05
5.86907e-07
1.65476e-05
5.89367e-07
1.65471e-05
5.90023e-07
1.65473e-05
5.87836e-07
1.65485e-05
5.85531e-07
1.65487e-05
5.88991e-07
1.65478e-05
5.92386e-07
1.65481e-05
5.88135e-07
1.65491e-05
5.86151e-07
1.65491e-05
5.90891e-07
1.65487e-05
5.91382e-07
1.6549e-05
5.8873e-07
1.65494e-05
5.8919e-07
1.65494e-05
5.90766e-07
1.65493e-05
5.91402e-07
1.65499e-05
5.8895e-07
1.65507e-05
5.88825e-07
1.65501e-05
5.93794e-07
1.655e-05
5.91839e-07
1.65513e-05
5.87333e-07
1.65513e-05
5.92292e-07
1.65501e-05
5.96874e-07
1.65513e-05
5.88086e-07
1.65525e-05
5.88347e-07
1.65509e-05
6.00469e-07
1.65525e-05
5.86062e-07
1.65526e-05
5.93298e-07
1.65508e-05
6.02592e-07
1.65543e-05
5.77801e-07
1.65522e-05
6.05314e-07
1.65527e-05
5.93365e-07
1.65576e-05
5.71935e-07
1.65497e-05
6.29818e-07
1.65522e-05
5.84584e-07
1.65624e-05
5.53052e-07
1.65491e-05
6.53691e-07
1.65501e-05
5.88576e-07
1.65664e-05
5.2931e-07
1.65496e-05
6.71283e-07
1.65481e-05
5.98107e-07
1.65703e-05
5.07141e-07
1.65519e-05
6.77937e-07
1.65433e-05
6.24738e-07
1.65713e-05
4.84734e-07
1.65594e-05
6.58274e-07
1.6542e-05
6.59391e-07
1.65647e-05
5.00741e-07
1.65641e-05
6.18952e-07
1.65507e-05
6.5126e-07
1.65628e-05
5.38686e-07
1.65572e-05
6.30793e-07
1.65537e-05
6.17131e-07
1.65718e-05
5.25293e-07
1.65582e-05
6.5867e-07
1.65473e-05
6.38178e-07
1.65704e-05
5.07343e-07
1.65652e-05
6.36859e-07
1.65523e-05
6.49734e-07
1.6568e-05
5.29235e-07
1.65608e-05
6.38995e-07
1.65524e-05
6.36433e-07
1.65728e-05
5.18432e-07
1.65654e-05
6.42751e-07
1.65523e-05
6.50921e-07
1.65691e-05
5.26674e-07
1.65621e-05
6.39753e-07
1.65506e-05
6.47584e-07
1.65695e-05
5.23238e-07
1.65638e-05
6.38074e-07
1.65523e-05
6.50365e-07
1.65711e-05
5.24422e-07
1.65657e-05
6.37776e-07
1.65536e-05
6.53343e-07
1.65721e-05
5.25759e-07
1.65671e-05
6.36951e-07
1.65548e-05
6.5542e-07
1.65731e-05
5.26761e-07
1.65684e-05
6.36401e-07
1.65558e-05
6.57575e-07
1.65742e-05
5.27317e-07
1.65699e-05
6.35534e-07
1.65569e-05
6.6008e-07
1.65751e-05
5.28173e-07
1.65713e-05
6.34303e-07
1.6558e-05
6.62211e-07
1.6576e-05
5.29332e-07
1.65727e-05
6.33153e-07
1.65592e-05
6.63864e-07
1.6577e-05
5.30379e-07
1.6574e-05
6.32399e-07
1.65603e-05
6.65455e-07
1.6578e-05
5.30995e-07
1.65753e-05
6.31658e-07
1.65614e-05
6.66771e-07
1.65789e-05
5.32131e-07
1.65766e-05
6.30227e-07
1.65624e-05
6.68768e-07
1.65798e-05
5.32657e-07
1.65781e-05
6.28006e-07
1.65631e-05
6.73434e-07
1.65811e-05
5.29761e-07
1.6579e-05
6.30635e-07
1.65647e-05
6.68931e-07
1.65818e-05
5.33823e-07
1.65797e-05
6.30486e-07
1.65663e-05
6.64269e-07
1.65816e-05
5.45529e-07
1.65833e-05
6.10051e-07
1.65645e-05
6.92168e-07
1.65827e-05
5.27707e-07
1.65831e-05
6.21776e-07
1.65683e-05
6.71031e-07
1.65816e-05
5.47419e-07
1.65841e-05
6.18493e-07
1.65777e-05
6.26828e-07
1.65711e-05
6.40002e-07
1.65842e-05
5.53847e-07
1.65788e-05
6.47666e-07
1.65819e-05
5.89021e-07
1.65772e-05
6.3203e-07
1.6577e-05
6.09525e-07
1.6582e-05
5.97854e-07
1.65855e-05
6.00806e-07
1.658e-05
6.26319e-07
1.65708e-05
6.47471e-07
1.65831e-05
5.57736e-07
1.65895e-05
6.05217e-07
1.65855e-05
6.18773e-07
1.65704e-05
6.69756e-07
1.65805e-05
5.53827e-07
1.65823e-05
6.26846e-07
1.65874e-05
5.84059e-07
1.6576e-05
6.66073e-07
1.65799e-05
5.75193e-07
1.65728e-05
6.5082e-07
1.65817e-05
5.61899e-07
1.65719e-05
6.63463e-07
1.65801e-05
5.65634e-07
1.65699e-05
6.56868e-07
1.64532e-05
9.53476e-07
1.68074e-05
-8.46731e-07
1.84846e-05
-5.55871e-06
1.96421e-05
-3.2458e-06
1.9313e-05
2.23121e-06
1.90792e-05
7.4973e-07
2.26332e-07
2.33602e-05
1.94979e-05
2.27885e-05
9.8848e-06
2.20842e-05
4.41192e-06
2.12031e-05
2.56369e-06
2.05113e-05
1.87181e-06
2.00527e-05
1.20832e-06
1.97265e-05
8.15421e-07
1.95209e-05
5.1973e-07
1.93803e-05
3.22913e-07
1.92951e-05
1.77102e-07
1.92421e-05
8.56872e-08
1.92184e-05
1.07851e-08
1.92137e-05
-5.50582e-08
1.92229e-05
-9.04411e-08
1.9245e-05
-1.3404e-07
1.92772e-05
-1.63786e-07
1.93197e-05
-1.94744e-07
1.93686e-05
-2.12836e-07