/*--------------------------------*- C++ -*----------------------------------*\
| =========                 |                                                 |
| \\      /  F ield         | foam-extend: Open Source CFD                    |
|  \\    /   O peration     | Version:     3.2                                |
|   \\  /    A nd           | Web:         http://www.foam-extend.org         |
|    \\/     M anipulation  | For copyright notice see file Copyright         |
\*---------------------------------------------------------------------------*/
FoamFile
{
    version     2.0;
    format      ascii;
    class       areaScalarField;
    location    "50";
    object      Pva;
}
// * * * * * * * * * * * * * * * * * * * * * * * * * * * * * * * * * * * * * //

dimensions      [0 0 0 0 0 0 0];

internalField   nonuniform List<scalar> 
300
(
0.222222
0.222222
0.222222
0.222222
0.222222
0.222222
0.222222
0.222222
0.222222
0.222222
0.222222
0.222222
0.222222
0.222222
0.222222
0.222222
0.222222
0.222222
0.222222
0.222222
0.222222
0.222222
0.222222
0.222222
0.222222
0.222222
0.222222
0.222222
0.222222
0.222222
0.222222
0.222222
0.222222
0.222222
0.222222
0.222222
0.222222
0.222222
0.222222
0.222222
0.222222
0.222222
0.222222
0.222222
0.222222
0.222222
0.222222
0.222222
0.222222
0.222222
0.222222
0.222222
0.222222
0.222222
0.222222
0.222222
0.222222
0.222222
0.222222
0.222222
0.332284
0.419988
0.494215
0.53376
0.558056
0.571869
0.573876
0.584276
0.577019
0.585241
0.582257
0.583527
0.578025
0.588741
0.586228
0.583594
0.566363
0.591695
0.590315
0.575873
0.585562
0.571287
0.562649
0.572434
0.577724
0.573575
0.593746
0.577301
0.56486
0.593029
0.60664
0.548691
0.537075
0.622935
0.598918
0.499886
0.537175
0.634267
0.586601
0.515557
0.559124
0.6189
0.593867
0.555106
0.570288
0.593077
0.595314
0.57842
0.567239
0.576136
0.585601
0.586712
0.586515
0.58441
0.581351
0.578735
0.577635
0.577943
0.578763
0.578474
0.577973
0.57838
0.578992
0.578994
0.578797
0.578642
0.578655
0.578669
0.578694
0.578729
0.578729
0.578726
0.578736
0.578683
0.578661
0.578637
0.578588
0.578532
0.578484
0.578438
0.578388
0.578324
0.578303
0.578243
0.578211
0.578185
0.578091
0.578063
0.578013
0.577901
0.577939
0.577885
0.577708
0.577719
0.577753
0.577648
0.577534
0.577424
0.577447
0.577464
0.577293
0.577135
0.577194
0.577151
0.576979
0.576907
0.57687
0.576786
0.576671
0.576584
0.576608
0.576499
0.576282
0.576286
0.576319
0.576048
0.575849
0.576133
0.57577
0.575552
0.576013
0.575153
0.575511
0.57564
0.574563
0.575751
0.575216
0.573604
0.575927
0.575277
0.57244
0.575876
0.575391
0.571501
0.5755
0.575809
0.570563
0.57467
0.576158
0.570659
0.573219
0.575519
0.571398
0.573016
0.574019
0.570664
0.573466
0.574158
0.569522
0.572445
0.57414
0.569806
0.571887
0.573109
0.569043
0.571663
0.57309
0.568691
0.570848
0.572227
0.567925
0.570207
0.57178
0.567488
0.56971
0.571368
0.567054
0.569192
0.570918
0.566605
0.568675
0.570469
0.566145
0.568153
0.570035
0.565697
0.567623
0.569596
0.565268
0.567104
0.569155
0.564849
0.566607
0.568727
0.564424
0.566129
0.56831
0.564027
0.565664
0.567882
0.563714
0.565106
0.567646
0.563232
0.564755
0.56729
0.562725
0.564741
0.566344
0.563267
0.563368
0.566964
0.562486
0.56315
0.566858
0.561353
0.564692
0.563456
0.565169
0.56127
0.564936
0.56283
0.563895
0.563323
0.562433
0.563763
0.562617
0.56512
0.56017
0.564384
0.561486
0.566395
0.559174
0.565197
0.559998
0.566303
0.558629
0.564943
0.558617
0.565741
0.558723
0.564544
0.562482
0.553376
0.583476
0.413716
0.222222
0.222222
0.222222
0.222222
)
;

boundaryField
{
    inlet
    {
        type            calculated;
        value           uniform 0;
    }
    outlet
    {
        type            calculated;
        value           uniform 0;
    }
    sideWall
    {
        type            empty;
    }
}


// ************************************************************************* //
