/*--------------------------------*- C++ -*----------------------------------*\
| =========                 |                                                 |
| \\      /  F ield         | foam-extend: Open Source CFD                    |
|  \\    /   O peration     | Version:     3.2                                |
|   \\  /    A nd           | Web:         http://www.foam-extend.org         |
|    \\/     M anipulation  | For copyright notice see file Copyright         |
\*---------------------------------------------------------------------------*/
FoamFile
{
    version     2.0;
    format      ascii;
    class       areaScalarField;
    location    "50";
    object      Pvc;
}
// * * * * * * * * * * * * * * * * * * * * * * * * * * * * * * * * * * * * * //

dimensions      [0 0 0 0 0 0 0];

internalField   nonuniform List<scalar> 
300
(
0.777778
0.777778
0.777778
0.777778
0.777778
0.777778
0.777778
0.777778
0.777778
0.777778
0.777778
0.777778
0.777778
0.777778
0.777778
0.777778
0.777778
0.777778
0.777778
0.777778
0.777778
0.777778
0.777778
0.777778
0.777778
0.777778
0.777778
0.777778
0.777778
0.777778
0.777778
0.777778
0.777778
0.777778
0.777778
0.777778
0.777778
0.777778
0.777778
0.777778
0.777778
0.777778
0.777778
0.777778
0.777778
0.777778
0.777778
0.777778
0.777778
0.777778
0.777778
0.777778
0.777778
0.777778
0.777778
0.777778
0.777778
0.777778
0.777778
0.777778
0.667716
0.580012
0.505785
0.46624
0.441944
0.428131
0.426124
0.415724
0.422981
0.414759
0.417743
0.416473
0.421975
0.411259
0.413772
0.416406
0.433637
0.408305
0.409685
0.424127
0.414438
0.428713
0.437351
0.427566
0.422276
0.426425
0.406254
0.422699
0.43514
0.406971
0.39336
0.451309
0.462925
0.377065
0.401082
0.500114
0.462825
0.365733
0.413399
0.484443
0.440876
0.3811
0.406133
0.444894
0.429712
0.406923
0.404686
0.42158
0.432761
0.423864
0.414399
0.413288
0.413485
0.41559
0.418649
0.421265
0.422365
0.422057
0.421237
0.421526
0.422027
0.42162
0.421008
0.421006
0.421203
0.421358
0.421345
0.421331
0.421306
0.421271
0.421271
0.421274
0.421264
0.421317
0.421339
0.421363
0.421412
0.421468
0.421516
0.421562
0.421612
0.421676
0.421697
0.421757
0.421789
0.421815
0.421909
0.421937
0.421987
0.422099
0.422061
0.422115
0.422292
0.422281
0.422247
0.422352
0.422466
0.422576
0.422553
0.422536
0.422707
0.422865
0.422806
0.422849
0.423021
0.423093
0.42313
0.423214
0.423329
0.423416
0.423392
0.423501
0.423718
0.423714
0.423681
0.423952
0.424151
0.423867
0.42423
0.424448
0.423987
0.424847
0.424489
0.42436
0.425437
0.424249
0.424784
0.426396
0.424073
0.424723
0.42756
0.424124
0.424609
0.428499
0.4245
0.424191
0.429437
0.42533
0.423842
0.429341
0.426781
0.424481
0.428602
0.426984
0.425981
0.429336
0.426534
0.425842
0.430478
0.427555
0.42586
0.430194
0.428113
0.426891
0.430957
0.428337
0.42691
0.431309
0.429152
0.427773
0.432075
0.429793
0.42822
0.432512
0.43029
0.428632
0.432946
0.430808
0.429082
0.433395
0.431325
0.429531
0.433855
0.431847
0.429965
0.434303
0.432377
0.430404
0.434732
0.432896
0.430845
0.435151
0.433393
0.431273
0.435576
0.433871
0.43169
0.435973
0.434336
0.432118
0.436286
0.434894
0.432354
0.436768
0.435245
0.43271
0.437275
0.435259
0.433656
0.436733
0.436632
0.433036
0.437514
0.43685
0.433142
0.438647
0.435308
0.436544
0.434831
0.43873
0.435064
0.43717
0.436105
0.436677
0.437567
0.436237
0.437383
0.43488
0.43983
0.435616
0.438514
0.433605
0.440826
0.434803
0.440002
0.433697
0.441371
0.435057
0.441383
0.434259
0.441277
0.435456
0.437518
0.446624
0.416524
0.586284
0.777778
0.777778
0.777778
0.777778
)
;

boundaryField
{
    inlet
    {
        type            calculated;
        value           uniform 0;
    }
    outlet
    {
        type            calculated;
        value           uniform 0;
    }
    sideWall
    {
        type            empty;
    }
}


// ************************************************************************* //
