/*--------------------------------*- C++ -*----------------------------------*\
| =========                 |                                                 |
| \\      /  F ield         | foam-extend: Open Source CFD                    |
|  \\    /   O peration     | Version:     3.2                                |
|   \\  /    A nd           | Web:         http://www.foam-extend.org         |
|    \\/     M anipulation  | For copyright notice see file Copyright         |
\*---------------------------------------------------------------------------*/
FoamFile
{
    version     2.0;
    format      ascii;
    class       volVectorField;
    location    "50";
    object      q_b_slide;
}
// * * * * * * * * * * * * * * * * * * * * * * * * * * * * * * * * * * * * * //

dimensions      [0 2 -1 0 0 0 0];

internalField   uniform (0 0 0);

boundaryField
{
    inlet
    {
        type            calculated;
        value           uniform (0 0 0);
    }
    outlet
    {
        type            calculated;
        value           uniform (0 0 0);
    }
    sideWall
    {
        type            empty;
    }
    bed
    {
        type            calculated;
        value           nonuniform List<vector> 
300
(
(0.000510689 -8.43638e-29 -2.55344e-06)
(0.000366141 1.161e-28 -1.8307e-06)
(0.000265203 3.9327e-29 -1.32601e-06)
(0.000266309 0 -1.33155e-06)
(0.00025574 -2.70269e-26 -1.2787e-06)
(0.000255721 -6.92598e-27 -1.2786e-06)
(0.000250518 -9.98439e-27 -1.25259e-06)
(0.000250271 -2.0398e-27 -1.25135e-06)
(0.000248402 0 -1.24201e-06)
(0.00024911 -1.67687e-27 -1.24555e-06)
(0.000249281 0 -1.2464e-06)
(0.000250497 2.27831e-27 -1.25248e-06)
(0.000251722 -2.77983e-31 -1.25861e-06)
(0.000253659 2.99289e-27 -1.26829e-06)
(0.000255472 0 -1.27736e-06)
(0.000257757 0 -1.28878e-06)
(0.000260076 3.46282e-27 -1.30038e-06)
(0.000262662 -3.25386e-27 -1.31331e-06)
(0.00026522 3.5886e-27 -1.3261e-06)
(0.00026801 0 -1.34005e-06)
(0.000270936 0 -1.35468e-06)
(0.000273934 -3.75856e-27 -1.36967e-06)
(0.000277 0 -1.385e-06)
(0.000280089 0 -1.40045e-06)
(0.000283193 0 -1.41596e-06)
(0.000286316 -3.47014e-27 -1.43158e-06)
(0.000289215 -1.33103e-30 -1.44607e-06)
(0.000291733 0 -1.45867e-06)
(0.000293851 0 -1.46925e-06)
(0.000295616 -1.44726e-27 -1.47808e-06)
(0.000297085 -7.56883e-31 -1.48543e-06)
(0.000298299 0 -1.4915e-06)
(0.000299312 0 -1.49656e-06)
(0.000300143 0 -1.50072e-06)
(0.000300843 -3.8365e-31 -1.50421e-06)
(0.000301412 0 -1.50706e-06)
(0.000301899 0 -1.5095e-06)
(0.000302289 -2.27448e-31 -1.51145e-06)
(0.000302636 0 -1.51318e-06)
(0.000302904 0 -1.51452e-06)
(0.000303158 0 -1.51579e-06)
(0.000303339 -1.04619e-28 -1.51669e-06)
(0.000303534 0 -1.51767e-06)
(0.000303655 -6.56902e-29 -1.51827e-06)
(0.000303811 7.50062e-32 -1.51906e-06)
(0.000303883 0 -1.51941e-06)
(0.000304011 -9.90869e-29 -1.52006e-06)
(0.000304039 0 -1.5202e-06)
(0.000304187 -1.40909e-28 -1.52094e-06)
(0.000304124 0 -1.52062e-06)
(0.000304372 3.78434e-32 -1.52186e-06)
(0.00030409 5.89936e-28 -1.52045e-06)
(0.000304631 -5.26606e-32 -1.52316e-06)
(0.00030384 1.60595e-27 -1.5192e-06)
(0.000305186 0 -1.52593e-06)
(0.000303067 0 -1.51533e-06)
(0.000306564 -7.17417e-27 -1.53282e-06)
(0.000301302 0 -1.50651e-06)
(0.000311722 0 -1.55861e-06)
(0.000292013 2.90123e-28 -7.11846e-06)
(0.000193989 0 -6.08728e-06)
(0.000187421 -2.44785e-25 -3.12137e-06)
(0.000196579 0 -2.20463e-06)
(0.000198523 0 -1.51419e-06)
(0.000205263 0 -1.36216e-06)
(0.000206169 -6.70633e-27 -1.11974e-06)
(0.000208319 0 -1.17624e-06)
(0.000209627 0 -1.01833e-06)
(0.000209715 0 -1.18545e-06)
(0.000210075 0 -9.52893e-07)
(0.000211734 0 -1.15461e-06)
(0.000208832 -9.42133e-31 -1.1739e-06)
(0.000207823 1.19417e-27 -9.94563e-07)
(0.000211436 -6.36542e-27 -7.86063e-07)
(0.000212926 0 -1.14583e-06)
(0.000208034 -8.38552e-30 -1.44939e-06)
(0.000201291 -5.10865e-27 -1.03645e-06)
(0.00021284 0 -3.05259e-07)
(0.000215058 0 -1.31561e-06)
(0.000204589 7.74385e-27 -1.28115e-06)
(0.000211172 0 -1.08593e-06)
(0.000203837 0 -1.61524e-06)
(0.00019878 5.09567e-30 -1.06408e-06)
(0.000206284 0 -6.53915e-07)
(0.000206764 0 -8.61926e-07)
(0.000205522 6.20346e-27 -6.78403e-07)
(0.000215353 0 -7.25847e-07)
(0.000208404 5.44386e-26 -1.74107e-06)
(0.000196867 3.18927e-27 -8.79039e-07)
(0.00021617 1.90735e-27 5.396e-08)
(0.000223499 0 -1.7545e-06)
(0.000191771 8.86906e-26 -2.23792e-06)
(0.000196825 0 3.31673e-07)
(0.00023243 0 1.83603e-07)
(0.000215137 0 -3.10738e-06)
(0.000178194 -3.10177e-26 -1.69718e-06)
(0.000210355 6.2257e-29 1.41308e-06)
(0.000240743 3.51034e-28 -4.65135e-07)
(0.000205139 2.22156e-25 -3.2333e-06)
(0.000183403 1.0341e-26 -1.44125e-06)
(0.000212805 -4.89485e-26 9.13452e-07)
(0.000229355 0 -3.96974e-07)
(0.000211651 0 -2.46394e-06)
(0.000195748 -1.11265e-26 -1.90549e-06)
(0.000199203 0 -2.93334e-07)
(0.000215674 0 -6.11365e-08)
(0.000218336 7.55638e-27 -1.22711e-06)
(0.000205723 0 -1.81958e-06)
(0.000201668 0 -1.2632e-06)
(0.000206569 1.17501e-27 -6.06833e-07)
(0.000211345 -2.20327e-27 -5.94947e-07)
(0.000212172 -4.38113e-27 -9.26947e-07)
(0.000211642 -1.32954e-30 -1.11274e-06)
(0.000210693 -2.92221e-29 -1.20776e-06)
(0.000209028 0 -1.23699e-06)
(0.000207896 3.09203e-28 -1.19331e-06)
(0.000207439 0 -1.09386e-06)
(0.000207661 0 -1.01681e-06)
(0.000208167 0 -1.01711e-06)
(0.000208084 6.45987e-28 -1.05584e-06)
(0.000207778 1.95837e-28 -1.04728e-06)
(0.000207993 2.40965e-31 -1.0143e-06)
(0.000208356 -1.72619e-28 -1.01535e-06)
(0.000208389 1.76558e-31 -1.03938e-06)
(0.000208254 1.74951e-29 -1.04873e-06)
(0.000208206 -6.96651e-29 -1.04449e-06)
(0.000208222 0 -1.03855e-06)
(0.00020825 3.68399e-32 -1.03678e-06)
(0.00020828 -7.34815e-30 -1.03601e-06)
(0.000208317 -2.17367e-32 -1.03644e-06)
(0.000208332 0 -1.03788e-06)
(0.000208346 2.3299e-29 -1.03804e-06)
(0.000208366 2.11752e-29 -1.03897e-06)
(0.000208365 1.27104e-30 -1.04063e-06)
(0.000208373 0 -1.04062e-06)
(0.000208386 0 -1.04106e-06)
(0.000208362 0 -1.04151e-06)
(0.000208362 0 -1.04141e-06)
(0.000208373 0 -1.04153e-06)
(0.000208375 0 -1.04141e-06)
(0.000208377 0 -1.04165e-06)
(0.000208369 0 -1.04131e-06)
(0.00020838 1.91734e-30 -1.04081e-06)
(0.000208383 -7.01083e-30 -1.04141e-06)
(0.000208386 0 -1.04039e-06)
(0.000208406 -3.99331e-29 -1.04094e-06)
(0.000208397 0 -1.04201e-06)
(0.000208398 0 -1.04054e-06)
(0.0002084 4.48162e-29 -1.04215e-06)
(0.000208374 0 -1.0408e-06)
(0.000208426 0 -1.03793e-06)
(0.000208438 8.18343e-29 -1.04312e-06)
(0.000208375 -4.9252e-29 -1.04355e-06)
(0.000208422 5.38851e-32 -1.03774e-06)
(0.000208475 1.66066e-29 -1.03904e-06)
(0.000208468 -2.33535e-29 -1.04298e-06)
(0.00020844 4.04071e-29 -1.0442e-06)
(0.000208416 0 -1.04139e-06)
(0.000208468 -7.75441e-29 -1.03675e-06)
(0.000208525 0 -1.04015e-06)
(0.000208469 0 -1.04588e-06)
(0.000208422 4.78525e-32 -1.04154e-06)
(0.000208508 1.10882e-28 -1.03696e-06)
(0.000208535 0 -1.04171e-06)
(0.000208475 0 -1.04386e-06)
(0.000208485 2.53589e-32 -1.04058e-06)
(0.000208519 -1.1119e-29 -1.04003e-06)
(0.000208522 3.53918e-30 -1.04189e-06)
(0.000208506 0 -1.04296e-06)
(0.000208499 0 -1.03953e-06)
(0.000208572 0 -1.03797e-06)
(0.000208568 1.15567e-28 -1.04405e-06)
(0.000208495 5.94672e-29 -1.0434e-06)
(0.000208557 6.03649e-32 -1.0365e-06)
(0.000208639 0 -1.04114e-06)
(0.000208541 7.56545e-32 -1.04863e-06)
(0.000208472 0 -1.03725e-06)
(0.000208702 0 -1.03496e-06)
(0.000208588 0 -1.05181e-06)
(0.000208483 3.66445e-28 -1.03342e-06)
(0.000208825 0 -1.03996e-06)
(0.000208437 -2.14403e-32 -1.05481e-06)
(0.000208602 8.75308e-28 -1.02225e-06)
(0.000208856 0 -1.05489e-06)
(0.000208247 0 -1.04433e-06)
(0.000208977 -1.57784e-27 -1.01106e-06)
(0.000208875 1.92548e-27 -1.08497e-06)
(0.000207829 0 -1.03654e-06)
(0.000209309 0 -9.80646e-07)
(0.000209147 -3.00365e-27 -1.11118e-06)
(0.000207389 0 -1.05014e-06)
(0.000209467 2.34061e-31 -9.46469e-07)
(0.000209485 -4.26742e-27 -1.12555e-06)
(0.000207063 -6.3164e-31 -1.06922e-06)
(0.00020948 0 -9.15969e-07)
(0.000209935 -3.66685e-27 -1.12698e-06)
(0.000206867 2.65395e-31 -1.10628e-06)
(0.000209113 -1.66013e-30 -8.92055e-07)
(0.000210562 0 -1.09643e-06)
(0.000207125 3.6476e-27 -1.14253e-06)
(0.000208451 0 -9.21462e-07)
(0.000210384 9.85488e-31 -1.04732e-06)
(0.000207863 0 -1.11832e-06)
(0.000208639 0 -9.70018e-07)
(0.00020967 1.67308e-27 -1.07281e-06)
(0.00020774 1.6344e-27 -1.07622e-06)
(0.000209254 4.28892e-27 -9.40493e-07)
(0.000210049 1.35312e-30 -1.10495e-06)
(0.000207378 -2.53207e-27 -1.11268e-06)
(0.000208893 0 -9.20568e-07)
(0.000210434 -2.02482e-27 -1.06782e-06)
(0.00020775 0 -1.1169e-06)
(0.00020884 -1.04503e-30 -9.53291e-07)
(0.000210059 0 -1.07923e-06)
(0.000207673 -8.00651e-33 -1.10057e-06)
(0.000209025 0 -9.32472e-07)
(0.000210416 0 -1.07835e-06)
(0.000207729 0 -1.11943e-06)
(0.00020885 0 -9.48743e-07)
(0.000210229 -2.12849e-27 -1.07977e-06)
(0.000207657 -2.87016e-27 -1.1146e-06)
(0.000208814 -4.91198e-27 -9.40125e-07)
(0.000210307 0 -1.0717e-06)
(0.000207719 0 -1.11377e-06)
(0.000208839 -4.89174e-27 -9.39693e-07)
(0.000210383 0 -1.06964e-06)
(0.000207785 -1.50128e-31 -1.11607e-06)
(0.000208848 0 -9.40905e-07)
(0.000210441 0 -1.06793e-06)
(0.000207849 0 -1.11766e-06)
(0.000208863 -4.82351e-27 -9.41714e-07)
(0.000210499 -1.61878e-27 -1.06655e-06)
(0.000207906 0 -1.11954e-06)
(0.000208875 -4.8025e-27 -9.42003e-07)
(0.000210566 0 -1.06458e-06)
(0.00020797 3.29047e-27 -1.12188e-06)
(0.000208881 0 -9.42907e-07)
(0.000210625 0 -1.06222e-06)
(0.000208042 0 -1.12375e-06)
(0.000208892 0 -9.44269e-07)
(0.000210677 1.20827e-27 -1.06007e-06)
(0.000208114 2.05781e-31 -1.12512e-06)
(0.000208911 4.66538e-27 -9.45526e-07)
(0.000210732 -1.09363e-27 -1.05858e-06)
(0.000208177 3.52739e-27 -1.12667e-06)
(0.000208934 -1.17001e-30 -9.46332e-07)
(0.000210785 -9.93408e-28 -1.05709e-06)
(0.000208246 3.57935e-27 -1.12794e-06)
(0.000208957 0 -9.48258e-07)
(0.000210826 0 -1.0544e-06)
(0.000208341 -3.68922e-27 -1.13018e-06)
(0.000208933 0 -9.49597e-07)
(0.000210937 9.43054e-31 -1.05052e-06)
(0.000208361 4.08729e-27 -1.1359e-06)
(0.000208964 4.76365e-27 -9.45667e-07)
(0.000211 1.00174e-27 -1.05519e-06)
(0.000208346 0 -1.13052e-06)
(0.000209155 0 -9.51789e-07)
(0.00021081 9.17854e-31 -1.05339e-06)
(0.000208711 6.37317e-32 -1.12507e-06)
(0.000208894 3.49117e-27 -9.7054e-07)
(0.000211074 0 -1.0227e-06)
(0.000208746 5.53124e-27 -1.15761e-06)
(0.000208753 0 -9.47412e-07)
(0.000211334 -7.59459e-28 -1.04431e-06)
(0.000208404 -3.96704e-27 -1.13339e-06)
(0.000209509 4.31853e-27 -9.72446e-07)
(0.000210073 0 -1.04523e-06)
(0.00020995 -2.66015e-31 -1.06388e-06)
(0.000208904 0 -1.08806e-06)
(0.000209841 3.11881e-27 -9.76878e-07)
(0.000209963 -2.63011e-27 -1.08737e-06)
(0.000209447 -5.87234e-31 -1.01985e-06)
(0.000210075 -5.15302e-31 -1.07865e-06)
(0.000209105 -5.56387e-28 -1.0476e-06)
(0.000209932 -4.17273e-28 -1.02544e-06)
(0.000209739 1.59008e-31 -1.02919e-06)
(0.000210502 0 -1.06856e-06)
(0.000208803 0 -1.10456e-06)
(0.000209698 0 -9.88142e-07)
(0.00020999 0 -1.0285e-06)
(0.000210691 -4.4256e-31 -1.04731e-06)
(0.000208864 4.00948e-27 -1.12844e-06)
(0.000209764 -6.1982e-31 -9.84919e-07)
(0.000209685 3.52569e-27 -1.06551e-06)
(0.000210339 0 -1.01013e-06)
(0.00020933 -4.05837e-27 -1.11714e-06)
(0.000209892 0 -1.00869e-06)
(0.000209268 2.93064e-31 -1.10005e-06)
(0.000209976 4.27529e-31 -9.93428e-07)
(0.000209396 0 -1.10448e-06)
(0.000209821 0 -1.00651e-06)
(0.000209225 3.66422e-27 -1.0239e-06)
(0.00021042 -3.92877e-30 -1.25313e-06)
(0.000200973 0 2.46334e-07)
(0.00025666 0 7.35389e-06)
(0.000352444 -1.14765e-25 8.23832e-06)
(0.000330348 0 -1.65174e-06)
(0.00029608 9.45247e-30 -1.4804e-06)
(0.000303687 -2.58849e-30 -1.51843e-06)
)
;
    }
    topWall
    {
        type            calculated;
        value           uniform (0 0 0);
    }
}


// ************************************************************************* //
