/*--------------------------------*- C++ -*----------------------------------*\
| =========                 |                                                 |
| \\      /  F ield         | foam-extend: Open Source CFD                    |
|  \\    /   O peration     | Version:     3.2                                |
|   \\  /    A nd           | Web:         http://www.foam-extend.org         |
|    \\/     M anipulation  | For copyright notice see file Copyright         |
\*---------------------------------------------------------------------------*/
FoamFile
{
    version     2.0;
    format      ascii;
    class       edgeScalarField;
    location    "50";
    object      q_f;
}
// * * * * * * * * * * * * * * * * * * * * * * * * * * * * * * * * * * * * * //

dimensions      [0 3 -1 0 0 0 0];

internalField   nonuniform List<scalar> 
299
(
8.7684e-06
6.31351e-06
5.31519e-06
5.22056e-06
5.11467e-06
5.06245e-06
5.00795e-06
4.98678e-06
4.97518e-06
4.98397e-06
4.99783e-06
5.02224e-06
5.05387e-06
5.09137e-06
5.13235e-06
5.17839e-06
5.22745e-06
5.27889e-06
5.33236e-06
5.38953e-06
5.44877e-06
5.50941e-06
5.57096e-06
5.63289e-06
5.69516e-06
5.75538e-06
5.80955e-06
5.85591e-06
5.89474e-06
5.92709e-06
5.95392e-06
5.97619e-06
5.99463e-06
6.00993e-06
6.02262e-06
6.03318e-06
6.04196e-06
6.04933e-06
6.05548e-06
6.06069e-06
6.06505e-06
6.06881e-06
6.07197e-06
6.07473e-06
6.07701e-06
6.07902e-06
6.08058e-06
6.08234e-06
6.08319e-06
6.08504e-06
6.0847e-06
6.08729e-06
6.08479e-06
6.09034e-06
6.0826e-06
6.09639e-06
6.07874e-06
6.13032e-06
6.03829e-06
4.86194e-06
3.81531e-06
3.84039e-06
3.95121e-06
4.03797e-06
4.1144e-06
4.14494e-06
4.17951e-06
4.19348e-06
4.19795e-06
4.21814e-06
4.20572e-06
4.1666e-06
4.19263e-06
4.24366e-06
4.20968e-06
4.09332e-06
4.14134e-06
4.27902e-06
4.19655e-06
4.15768e-06
4.15019e-06
4.02627e-06
4.05068e-06
4.13052e-06
4.1229e-06
4.20878e-06
4.23766e-06
4.0528e-06
4.13039e-06
4.39676e-06
4.1529e-06
3.88609e-06
4.29255e-06
4.47591e-06
3.9336e-06
3.88562e-06
4.51104e-06
4.45911e-06
3.88572e-06
3.96216e-06
4.42162e-06
4.41022e-06
4.07423e-06
3.9496e-06
4.14877e-06
4.34014e-06
4.24071e-06
4.07403e-06
4.08242e-06
4.17916e-06
4.2352e-06
4.23819e-06
4.22342e-06
4.19729e-06
4.16931e-06
4.15341e-06
4.15106e-06
4.15833e-06
4.16256e-06
4.15867e-06
4.15776e-06
4.16354e-06
4.1675e-06
4.16648e-06
4.16465e-06
4.16432e-06
4.16477e-06
4.16536e-06
4.16602e-06
4.16654e-06
4.16683e-06
4.16717e-06
4.16736e-06
4.16744e-06
4.16764e-06
4.16753e-06
4.16729e-06
4.1674e-06
4.16753e-06
4.16757e-06
4.16751e-06
4.16754e-06
4.16768e-06
4.16775e-06
4.16798e-06
4.16808e-06
4.16801e-06
4.16803e-06
4.16779e-06
4.16805e-06
4.16869e-06
4.16819e-06
4.16802e-06
4.16902e-06
4.16948e-06
4.16913e-06
4.16861e-06
4.16888e-06
4.16998e-06
4.16999e-06
4.16896e-06
4.16936e-06
4.17048e-06
4.17015e-06
4.16965e-06
4.17009e-06
4.17046e-06
4.17034e-06
4.1701e-06
4.17076e-06
4.17146e-06
4.17068e-06
4.17057e-06
4.17201e-06
4.17185e-06
4.17018e-06
4.17179e-06
4.17296e-06
4.17076e-06
4.17313e-06
4.17267e-06
4.17044e-06
4.17463e-06
4.17108e-06
4.17228e-06
4.17857e-06
4.1671e-06
4.17144e-06
4.18462e-06
4.16542e-06
4.1686e-06
4.18957e-06
4.16554e-06
4.16548e-06
4.1942e-06
4.16808e-06
4.15984e-06
4.1968e-06
4.17693e-06
4.15581e-06
4.1884e-06
4.18253e-06
4.16508e-06
4.18314e-06
4.17416e-06
4.16999e-06
4.19308e-06
4.17433e-06
4.16276e-06
4.19332e-06
4.18189e-06
4.16595e-06
4.18904e-06
4.17738e-06
4.16703e-06
4.19445e-06
4.18151e-06
4.16584e-06
4.19083e-06
4.17892e-06
4.16476e-06
4.19125e-06
4.18032e-06
4.16564e-06
4.19227e-06
4.18174e-06
4.16639e-06
4.19294e-06
4.18295e-06
4.16717e-06
4.19367e-06
4.18411e-06
4.16786e-06
4.19445e-06
4.18541e-06
4.16856e-06
4.19511e-06
4.18672e-06
4.16939e-06
4.19574e-06
4.18797e-06
4.1703e-06
4.19648e-06
4.18914e-06
4.17116e-06
4.19724e-06
4.19037e-06
4.17208e-06
4.19788e-06
4.19173e-06
4.1728e-06
4.19875e-06
4.19305e-06
4.1733e-06
4.19969e-06
4.19352e-06
4.17506e-06
4.1997e-06
4.19526e-06
4.1761e-06
4.19972e-06
4.19826e-06
4.17505e-06
4.20092e-06
4.19743e-06
4.17918e-06
4.19587e-06
4.20029e-06
4.1886e-06
4.1875e-06
4.19809e-06
4.19415e-06
4.19527e-06
4.19185e-06
4.19043e-06
4.19677e-06
4.20247e-06
4.1931e-06
4.18506e-06
4.19693e-06
4.20686e-06
4.1956e-06
4.18633e-06
4.19454e-06
4.20029e-06
4.19674e-06
4.19228e-06
4.19165e-06
4.19249e-06
4.19377e-06
4.19223e-06
4.19051e-06
4.19651e-06
4.11396e-06
4.57726e-06
6.09312e-06
6.8289e-06
6.26436e-06
5.99774e-06
)
;

boundaryField
{
    inlet
    {
        type            calculated;
        value           uniform -9.99358e-06;
    }
    outlet
    {
        type            calculated;
        value           uniform 5.83963e-06;
    }
    sideWall
    {
        type            empty;
    }
}


// ************************************************************************* //
