/*--------------------------------*- C++ -*----------------------------------*\
| =========                 |                                                 |
| \\      /  F ield         | foam-extend: Open Source CFD                    |
|  \\    /   O peration     | Version:     3.2                                |
|   \\  /    A nd           | Web:         http://www.foam-extend.org         |
|    \\/     M anipulation  | For copyright notice see file Copyright         |
\*---------------------------------------------------------------------------*/
FoamFile
{
    version     2.0;
    format      ascii;
    class       areaScalarField;
    location    "50";
    object      SSe1;
}
// * * * * * * * * * * * * * * * * * * * * * * * * * * * * * * * * * * * * * //

dimensions      [0 1 -2 -1 0 0 0];

internalField   nonuniform List<scalar> 
300
(
0.00543465
0.00276798
0.00176138
0.00177013
0.00168804
0.00168789
0.00164865
0.0016468
0.00163289
0.00163815
0.00163942
0.00164848
0.00165766
0.00167225
0.001686
0.00170345
0.00172132
0.00174143
0.00176151
0.00178364
0.00180712
0.00183146
0.00185665
0.00188236
0.00190852
0.0019352
0.00196027
0.00198232
0.00200104
0.00201679
0.00202998
0.00204095
0.00205015
0.00205773
0.00206413
0.00206935
0.00207384
0.00207744
0.00208064
0.00208311
0.00208547
0.00208714
0.00208896
0.00209007
0.00209153
0.00209219
0.00209339
0.00209361
0.00209499
0.0020944
0.00209671
0.00209409
0.00209913
0.00209176
0.00210431
0.00208459
0.00211724
0.00206832
0.00216627
0.00137221
0.000676487
0.000713251
0.000723454
0.000727203
0.00072891
0.000729561
0.000730073
0.000730419
0.000729513
0.000736036
0.000730978
0.00071573
0.000736247
0.000749679
0.000729454
0.00069085
0.000726378
0.000794986
0.000717134
0.000703284
0.000728583
0.000681996
0.000719955
0.000770773
0.000744193
0.000763358
0.000761246
0.000681069
0.000724958
0.000831247
0.000688827
0.000624357
0.00082285
0.000817484
0.000589549
0.000674212
0.000761718
0.000801046
0.000564843
0.000696058
0.000784968
0.000796139
0.000620103
0.000653578
0.000782024
0.000828786
0.000728026
0.000663301
0.000707289
0.000769704
0.000772589
0.000743999
0.000726598
0.000718779
0.000715124
0.000718656
0.000726959
0.000733843
0.000734408
0.000731292
0.000731663
0.000734627
0.000734912
0.000732996
0.000732007
0.000732443
0.000732987
0.00073323
0.00073337
0.000733418
0.000733357
0.000733404
0.000733386
0.000733337
0.000733409
0.000733461
0.000733414
0.000733522
0.000733635
0.000733733
0.000733807
0.000733917
0.000734039
0.000734106
0.000734262
0.00073434
0.000734374
0.000734554
0.000734509
0.000734717
0.000735102
0.000734802
0.000734823
0.000735484
0.000735528
0.000735346
0.00073533
0.000735663
0.000736227
0.000736137
0.000735721
0.000736179
0.000736812
0.000736588
0.000736463
0.000736909
0.000737154
0.000737156
0.000737203
0.000737617
0.000738003
0.000737656
0.000737796
0.000738627
0.000738502
0.000737943
0.000738984
0.000739609
0.000738346
0.000739873
0.000739885
0.000738554
0.000741382
0.000739386
0.000739713
0.00074343
0.000737645
0.000740366
0.00074709
0.000736422
0.000739437
0.000750794
0.000736376
0.000738108
0.0007542
0.000737337
0.000735764
0.000756316
0.000741816
0.00073358
0.000753594
0.000746403
0.000737339
0.000750429
0.000743967
0.000741694
0.000754725
0.000742516
0.000739081
0.000756836
0.000747266
0.000739739
0.000754702
0.000746577
0.000742138
0.000757696
0.000748134
0.000741357
0.000756978
0.000748764
0.000742793
0.000758728
0.000750556
0.00074387
0.000759747
0.000751768
0.000744688
0.000760593
0.000752937
0.000745581
0.000761493
0.000754083
0.000746446
0.000762436
0.000755287
0.000747279
0.000763316
0.000756506
0.000748151
0.000764153
0.000757682
0.000749051
0.000764998
0.000758787
0.000749906
0.000765863
0.000759871
0.000750764
0.000766604
0.000761025
0.000751506
0.000767369
0.000762236
0.000751927
0.000768466
0.000762716
0.000753199
0.000768733
0.000763755
0.000754238
0.000768394
0.000766434
0.000752939
0.000770266
0.000765803
0.000755553
0.000768432
0.00076651
0.000761333
0.000761716
0.000768977
0.000763455
0.000765361
0.00076381
0.000764061
0.00076712
0.000768004
0.000763298
0.000761751
0.000768356
0.000771103
0.000763688
0.000761654
0.000767475
0.000769165
0.000765662
0.000765536
0.000766341
0.000766789
0.00076663
0.000766756
0.000766944
0.000766571
0.000767434
0.000765225
0.000741397
0.00166605
0.00235618
0.00202078
0.00209035
)
;

boundaryField
{
    inlet
    {
        type            calculated;
        value           uniform 0;
    }
    outlet
    {
        type            calculated;
        value           uniform 0;
    }
    sideWall
    {
        type            empty;
    }
}


// ************************************************************************* //
