/*--------------------------------*- C++ -*----------------------------------*\
| =========                 |                                                 |
| \\      /  F ield         | foam-extend: Open Source CFD                    |
|  \\    /   O peration     | Version:     3.2                                |
|   \\  /    A nd           | Web:         http://www.foam-extend.org         |
|    \\/     M anipulation  | For copyright notice see file Copyright         |
\*---------------------------------------------------------------------------*/
FoamFile
{
    version     2.0;
    format      ascii;
    class       areaScalarField;
    location    "50";
    object      tau;
}
// * * * * * * * * * * * * * * * * * * * * * * * * * * * * * * * * * * * * * //

dimensions      [1 1 2 0 0 0 0];

internalField   nonuniform List<scalar> 
300
(
9.37208
5.99054
4.44152
4.45609
4.31839
4.31814
4.25152
4.24837
4.22462
4.23361
4.23578
4.25124
4.26687
4.29165
4.31494
4.34441
4.37448
4.4082
4.44175
4.47856
4.51746
4.55759
4.59896
4.64097
4.68353
4.72673
4.76715
4.80255
4.83252
4.85764
4.87865
4.89607
4.91067
4.92267
4.9328
4.94105
4.94814
4.95381
4.95887
4.96276
4.96648
4.96911
4.97197
4.97373
4.97602
4.97707
4.97895
4.97935
4.98152
4.98059
4.98423
4.9801
4.98803
4.97644
4.99617
4.96515
5.01646
4.93946
5.09319
4.78478
3.53741
3.47343
3.58669
3.61315
3.69423
3.70621
3.73167
3.74809
3.74837
3.75378
3.7727
3.73781
3.72663
3.77096
3.78707
3.72676
3.64853
3.79031
3.81183
3.6865
3.76633
3.67578
3.61841
3.70998
3.71457
3.70076
3.81836
3.72964
3.59678
3.83224
3.91171
3.52909
3.60289
4.03105
3.80351
3.37147
3.76981
4.13079
3.68253
3.43466
3.79651
3.99011
3.76462
3.57815
3.62791
3.82536
3.85189
3.69735
3.65177
3.71368
3.77073
3.77908
3.77183
3.75994
3.73984
3.72651
3.72153
3.72457
3.7306
3.72941
3.7258
3.72855
3.73287
3.73315
3.73149
3.73094
3.73115
3.73151
3.73187
3.73231
3.73248
3.73265
3.73288
3.73287
3.73297
3.73311
3.73283
3.73283
3.73295
3.73298
3.733
3.73291
3.73304
3.73307
3.73312
3.73335
3.73324
3.73326
3.73327
3.73297
3.7336
3.73372
3.73297
3.73356
3.73419
3.73408
3.73374
3.73347
3.73411
3.73479
3.73408
3.73354
3.7346
3.73489
3.73416
3.7343
3.7347
3.73473
3.73455
3.73447
3.73536
3.73528
3.7344
3.73518
3.73614
3.73493
3.73416
3.73693
3.73548
3.73431
3.73838
3.73365
3.7358
3.73867
3.73143
3.74034
3.73874
3.72648
3.74448
3.74187
3.72113
3.74654
3.74585
3.71714
3.74687
3.75122
3.71459
3.74261
3.75888
3.71749
3.73454
3.75703
3.72644
3.73652
3.74833
3.7252
3.74403
3.75268
3.72069
3.73983
3.7575
3.7251
3.73901
3.75294
3.72429
3.74134
3.75723
3.72485
3.73916
3.75498
3.72401
3.73877
3.75596
3.72476
3.73907
3.75689
3.72553
3.73918
3.75759
3.72628
3.73936
3.7583
3.72695
3.73949
3.75911
3.72771
3.73956
3.75983
3.72856
3.73968
3.76047
3.72942
3.7399
3.76114
3.73016
3.74017
3.76179
3.73098
3.74043
3.76229
3.73212
3.74014
3.76365
3.73233
3.74052
3.76438
3.73217
3.74279
3.76211
3.73657
3.73956
3.76542
3.73683
3.73799
3.76844
3.73284
3.74693
3.75332
3.75169
3.7391
3.75086
3.75179
3.74591
3.75317
3.74168
3.75173
3.74939
3.75832
3.73778
3.7491
3.75241
3.76069
3.73839
3.7499
3.74856
3.75665
3.74406
3.75131
3.74339
3.75237
3.74491
3.75046
3.74323
3.75651
3.65078
4.36698
5.78756
5.38132
4.86427
4.9742
)
;

boundaryField
{
    inlet
    {
        type            calculated;
        value           uniform 0;
    }
    outlet
    {
        type            calculated;
        value           uniform 0;
    }
    sideWall
    {
        type            empty;
    }
}


// ************************************************************************* //
