/*--------------------------------*- C++ -*----------------------------------*\
| =========                 |                                                 |
| \\      /  F ield         | foam-extend: Open Source CFD                    |
|  \\    /   O peration     | Version:     3.2                                |
|   \\  /    A nd           | Web:         http://www.foam-extend.org         |
|    \\/     M anipulation  | For copyright notice see file Copyright         |
\*---------------------------------------------------------------------------*/
FoamFile
{
    version     2.0;
    format      ascii;
    class       areaScalarField;
    location    "50";
    object      tauCSS2;
}
// * * * * * * * * * * * * * * * * * * * * * * * * * * * * * * * * * * * * * //

dimensions      [1 1 2 0 0 0 0];

internalField   nonuniform List<scalar> 
300
(
0.0552126
0.0552126
0.0552126
0.0552126
0.0552126
0.0552126
0.0552126
0.0552126
0.0552126
0.0552126
0.0552126
0.0552126
0.0552126
0.0552126
0.0552126
0.0552126
0.0552126
0.0552126
0.0552126
0.0552126
0.0552126
0.0552126
0.0552126
0.0552126
0.0552126
0.0552126
0.0552126
0.0552126
0.0552126
0.0552126
0.0552126
0.0552126
0.0552126
0.0552126
0.0552126
0.0552126
0.0552126
0.0552126
0.0552126
0.0552126
0.0552126
0.0552126
0.0552126
0.0552126
0.0552126
0.0552126
0.0552126
0.0552126
0.0552126
0.0552126
0.0552126
0.0552126
0.0552126
0.0552126
0.0552126
0.0552126
0.0552126
0.0552126
0.0552126
0.0535387
0.0529291
0.0542082
0.0546779
0.0549868
0.055072
0.0551756
0.0551571
0.0552248
0.0551566
0.0552525
0.0551737
0.0551593
0.055231
0.0553227
0.0551799
0.0550436
0.0551998
0.0555185
0.0551166
0.0551042
0.0552004
0.0549613
0.0551823
0.0553697
0.055284
0.0553585
0.0553525
0.0549243
0.0552585
0.0556627
0.0549676
0.0546386
0.0557855
0.0557089
0.0543992
0.0548235
0.0562151
0.0554758
0.0542854
0.0549669
0.0560082
0.0554931
0.0546411
0.0548054
0.0555152
0.0556171
0.0551593
0.054882
0.055104
0.0553896
0.0554001
0.0552668
0.0551905
0.0551497
0.0551338
0.0551491
0.0551892
0.0552215
0.0552224
0.0552063
0.0552092
0.0552232
0.0552235
0.0552137
0.0552095
0.0552112
0.0552137
0.0552145
0.0552148
0.0552147
0.0552142
0.0552141
0.0552138
0.0552131
0.0552131
0.055213
0.0552127
0.0552128
0.0552128
0.0552128
0.0552127
0.0552128
0.0552131
0.0552128
0.0552133
0.0552131
0.0552126
0.0552132
0.0552126
0.0552131
0.0552143
0.0552122
0.0552119
0.0552144
0.055214
0.0552124
0.0552118
0.0552129
0.0552149
0.0552136
0.0552112
0.0552129
0.0552149
0.055213
0.055212
0.0552134
0.0552137
0.0552129
0.0552124
0.0552138
0.0552146
0.0552121
0.0552122
0.0552152
0.0552135
0.0552102
0.0552147
0.0552161
0.055209
0.0552163
0.0552143
0.0552074
0.0552212
0.0552083
0.0552113
0.0552265
0.0551959
0.0552137
0.0552397
0.0551857
0.0552072
0.055254
0.0551806
0.0551986
0.0552665
0.055181
0.0551827
0.0552756
0.0551948
0.0551683
0.0552624
0.0552145
0.05518
0.0552427
0.0552026
0.0551971
0.055256
0.0551902
0.0551812
0.0552635
0.0552062
0.0551803
0.05525
0.0552008
0.0551869
0.0552589
0.0552019
0.0551792
0.0552519
0.0552009
0.0551811
0.0552554
0.0552044
0.0551815
0.0552556
0.0552054
0.0551807
0.0552551
0.0552062
0.0551802
0.0552548
0.0552069
0.0551796
0.0552547
0.0552078
0.0551787
0.0552543
0.0552089
0.0551781
0.0552538
0.0552099
0.0551777
0.0552533
0.0552106
0.0551772
0.055253
0.0552113
0.0551769
0.0552523
0.0552125
0.0551761
0.0552517
0.0552143
0.0551738
0.0552534
0.0552125
0.055176
0.0552512
0.0552129
0.0551791
0.055243
0.0552259
0.0551658
0.0552522
0.0552176
0.055175
0.0552434
0.0552147
0.0552068
0.0551947
0.0552422
0.0551973
0.0552238
0.0552011
0.0552118
0.0552225
0.0552206
0.0552061
0.0551877
0.0552373
0.0552214
0.0552151
0.055178
0.0552388
0.0552056
0.0552296
0.0551837
0.0552293
0.0551906
0.0552357
0.055189
0.0552301
0.0552217
0.0551305
0.0557462
0.0580702
0.0576265
0.0552126
0.0552126
0.0552126
)
;

boundaryField
{
    inlet
    {
        type            calculated;
        value           uniform 0;
    }
    outlet
    {
        type            calculated;
        value           uniform 0;
    }
    sideWall
    {
        type            empty;
    }
}


// ************************************************************************* //
