/*--------------------------------*- C++ -*----------------------------------*\
| =========                 |                                                 |
| \\      /  F ield         | foam-extend: Open Source CFD                    |
|  \\    /   O peration     | Version:     3.2                                |
|   \\  /    A nd           | Web:         http://www.foam-extend.org         |
|    \\/     M anipulation  | For copyright notice see file Copyright         |
\*---------------------------------------------------------------------------*/
FoamFile
{
    version     2.0;
    format      ascii;
    class       areaScalarField;
    location    "50";
    object      tauCB;
}
// * * * * * * * * * * * * * * * * * * * * * * * * * * * * * * * * * * * * * //

dimensions      [1 1 2 0 0 0 0];

internalField   nonuniform List<scalar> 
300
(
0.246313
0.246313
0.246313
0.246313
0.246313
0.246313
0.246313
0.246313
0.246313
0.246313
0.246313
0.246313
0.246313
0.246313
0.246313
0.246313
0.246313
0.246313
0.246313
0.246313
0.246313
0.246313
0.246313
0.246313
0.246313
0.246313
0.246313
0.246313
0.246313
0.246313
0.246313
0.246313
0.246313
0.246313
0.246313
0.246313
0.246313
0.246313
0.246313
0.246313
0.246313
0.246313
0.246313
0.246313
0.246313
0.246313
0.246313
0.246313
0.246313
0.246313
0.246313
0.246313
0.246313
0.246313
0.246313
0.246313
0.246313
0.246313
0.246313
0.238845
0.236126
0.241832
0.243927
0.245306
0.245686
0.246148
0.246065
0.246367
0.246063
0.246491
0.246139
0.246075
0.246395
0.246804
0.246167
0.245559
0.246256
0.247678
0.245885
0.245829
0.246258
0.245192
0.246178
0.247014
0.246631
0.246964
0.246937
0.245027
0.246518
0.248321
0.24522
0.243752
0.248869
0.248527
0.242684
0.244577
0.250785
0.247487
0.242176
0.245217
0.249862
0.247564
0.243763
0.244496
0.247663
0.248117
0.246075
0.244838
0.245829
0.247103
0.247149
0.246555
0.246214
0.246032
0.245961
0.246029
0.246208
0.246353
0.246357
0.246285
0.246298
0.24636
0.246362
0.246318
0.246299
0.246307
0.246318
0.246321
0.246323
0.246322
0.24632
0.24632
0.246318
0.246315
0.246315
0.246315
0.246314
0.246314
0.246314
0.246314
0.246313
0.246314
0.246315
0.246314
0.246316
0.246315
0.246313
0.246316
0.246313
0.246315
0.246321
0.246311
0.24631
0.246321
0.246319
0.246312
0.246309
0.246314
0.246323
0.246318
0.246306
0.246314
0.246323
0.246315
0.24631
0.246316
0.246318
0.246314
0.246312
0.246318
0.246322
0.246311
0.246311
0.246325
0.246317
0.246302
0.246322
0.246329
0.246297
0.24633
0.246321
0.24629
0.246351
0.246294
0.246307
0.246375
0.246239
0.246318
0.246434
0.246193
0.246289
0.246497
0.24617
0.24625
0.246553
0.246172
0.24618
0.246594
0.246234
0.246115
0.246535
0.246321
0.246167
0.246447
0.246268
0.246244
0.246507
0.246213
0.246173
0.24654
0.246284
0.246169
0.24648
0.24626
0.246198
0.246519
0.246265
0.246164
0.246488
0.246261
0.246172
0.246504
0.246276
0.246174
0.246505
0.246281
0.246171
0.246503
0.246284
0.246168
0.246501
0.246287
0.246166
0.246501
0.246292
0.246162
0.246499
0.246296
0.246159
0.246497
0.246301
0.246157
0.246495
0.246304
0.246155
0.246493
0.246307
0.246153
0.24649
0.246312
0.24615
0.246487
0.246321
0.24614
0.246495
0.246313
0.24615
0.246485
0.246314
0.246163
0.246449
0.246372
0.246104
0.24649
0.246335
0.246145
0.24645
0.246322
0.246287
0.246233
0.246445
0.246244
0.246363
0.246261
0.246309
0.246357
0.246349
0.246284
0.246202
0.246423
0.246352
0.246324
0.246159
0.24643
0.246282
0.246389
0.246184
0.246387
0.246215
0.246416
0.246208
0.246391
0.246354
0.245947
0.248693
0.259061
0.257082
0.246313
0.246313
0.246313
)
;

boundaryField
{
    inlet
    {
        type            calculated;
        value           uniform 0;
    }
    outlet
    {
        type            calculated;
        value           uniform 0;
    }
    sideWall
    {
        type            empty;
    }
}


// ************************************************************************* //
