/*--------------------------------*- C++ -*----------------------------------*\
| =========                 |                                                 |
| \\      /  F ield         | foam-extend: Open Source CFD                    |
|  \\    /   O peration     | Version:     3.2                                |
|   \\  /    A nd           | Web:         http://www.foam-extend.org         |
|    \\/     M anipulation  | For copyright notice see file Copyright         |
\*---------------------------------------------------------------------------*/
FoamFile
{
    version     2.0;
    format      ascii;
    class       areaScalarField;
    location    "50";
    object      tauCSS1;
}
// * * * * * * * * * * * * * * * * * * * * * * * * * * * * * * * * * * * * * //

dimensions      [1 1 2 0 0 0 0];

internalField   nonuniform List<scalar> 
300
(
0.0368752
0.0368752
0.0368752
0.0368752
0.0368752
0.0368752
0.0368752
0.0368752
0.0368752
0.0368752
0.0368752
0.0368752
0.0368752
0.0368752
0.0368752
0.0368752
0.0368752
0.0368752
0.0368752
0.0368752
0.0368752
0.0368752
0.0368752
0.0368752
0.0368752
0.0368752
0.0368752
0.0368752
0.0368752
0.0368752
0.0368752
0.0368752
0.0368752
0.0368752
0.0368752
0.0368752
0.0368752
0.0368752
0.0368752
0.0368752
0.0368752
0.0368752
0.0368752
0.0368752
0.0368752
0.0368752
0.0368752
0.0368752
0.0368752
0.0368752
0.0368752
0.0368752
0.0368752
0.0368752
0.0368752
0.0368752
0.0368752
0.0368752
0.0368752
0.0357572
0.0353501
0.0362043
0.036518
0.0367244
0.0367813
0.0368505
0.0368381
0.0368833
0.0368378
0.0369018
0.0368492
0.0368396
0.0368875
0.0369487
0.0368533
0.0367623
0.0368666
0.0370795
0.0368111
0.0368028
0.036867
0.0367073
0.0368549
0.0369801
0.0369229
0.0369726
0.0369686
0.0366826
0.0369059
0.0371758
0.0367116
0.0364918
0.0372578
0.0372067
0.036332
0.0366153
0.0375447
0.037051
0.0362559
0.0367111
0.0374066
0.0370625
0.0364935
0.0366032
0.0370773
0.0371453
0.0368396
0.0366544
0.0368027
0.0369934
0.0370004
0.0369114
0.0368604
0.0368332
0.0368225
0.0368327
0.0368595
0.0368811
0.0368817
0.0368709
0.0368729
0.0368823
0.0368825
0.0368759
0.0368731
0.0368742
0.0368759
0.0368764
0.0368767
0.0368766
0.0368762
0.0368762
0.036876
0.0368755
0.0368755
0.0368754
0.0368753
0.0368753
0.0368753
0.0368753
0.0368753
0.0368753
0.0368755
0.0368753
0.0368756
0.0368755
0.0368752
0.0368756
0.0368752
0.0368755
0.0368763
0.0368749
0.0368747
0.0368764
0.0368761
0.036875
0.0368746
0.0368754
0.0368767
0.0368759
0.0368742
0.0368753
0.0368767
0.0368755
0.0368748
0.0368757
0.0368759
0.0368754
0.0368751
0.036876
0.0368765
0.0368749
0.0368749
0.0368769
0.0368758
0.0368736
0.0368766
0.0368775
0.0368728
0.0368777
0.0368763
0.0368717
0.0368809
0.0368723
0.0368743
0.0368845
0.036864
0.0368759
0.0368932
0.0368572
0.0368715
0.0369028
0.0368538
0.0368658
0.0369112
0.0368541
0.0368552
0.0369173
0.0368633
0.0368456
0.0369084
0.0368764
0.0368534
0.0368953
0.0368685
0.0368648
0.0369042
0.0368603
0.0368542
0.0369092
0.0368709
0.0368536
0.0369002
0.0368673
0.036858
0.0369061
0.036868
0.0368529
0.0369014
0.0368674
0.0368541
0.0369037
0.0368697
0.0368544
0.0369039
0.0368704
0.0368539
0.0369036
0.0368709
0.0368536
0.0369034
0.0368714
0.0368531
0.0369033
0.036872
0.0368526
0.0369031
0.0368727
0.0368522
0.0369027
0.0368734
0.0368519
0.0369024
0.0368739
0.0368516
0.0369022
0.0368743
0.0368513
0.0369017
0.0368751
0.0368508
0.0369013
0.0368763
0.0368493
0.0369024
0.0368751
0.0368507
0.036901
0.0368754
0.0368528
0.0368955
0.0368841
0.0368439
0.0369017
0.0368785
0.03685
0.0368957
0.0368766
0.0368713
0.0368632
0.036895
0.0368649
0.0368827
0.0368675
0.0368746
0.0368818
0.0368805
0.0368708
0.0368586
0.0368917
0.0368811
0.0368769
0.0368521
0.0368927
0.0368705
0.0368865
0.0368559
0.0368863
0.0368605
0.0368906
0.0368594
0.0368868
0.0368813
0.0368204
0.0372316
0.0387837
0.0384874
0.0368752
0.0368752
0.0368752
)
;

boundaryField
{
    inlet
    {
        type            calculated;
        value           uniform 0;
    }
    outlet
    {
        type            calculated;
        value           uniform 0;
    }
    sideWall
    {
        type            empty;
    }
}


// ************************************************************************* //
