/*--------------------------------*- C++ -*----------------------------------*\
| =========                 |                                                 |
| \\      /  F ield         | foam-extend: Open Source CFD                    |
|  \\    /   O peration     | Version:     3.2                                |
|   \\  /    A nd           | Web:         http://www.foam-extend.org         |
|    \\/     M anipulation  | For copyright notice see file Copyright         |
\*---------------------------------------------------------------------------*/
FoamFile
{
    version     2.0;
    format      ascii;
    class       areaScalarField;
    location    "50";
    object      thetaCSS1;
}
// * * * * * * * * * * * * * * * * * * * * * * * * * * * * * * * * * * * * * //

dimensions      [0 0 0 0 0 0 0];

internalField   nonuniform List<scalar> 
300
(
0.0940675
0.0940675
0.0940675
0.0940675
0.0940675
0.0940675
0.0940675
0.0940675
0.0940675
0.0940675
0.0940675
0.0940675
0.0940675
0.0940675
0.0940675
0.0940675
0.0940675
0.0940675
0.0940675
0.0940675
0.0940675
0.0940675
0.0940675
0.0940675
0.0940675
0.0940675
0.0940675
0.0940675
0.0940675
0.0940675
0.0940675
0.0940675
0.0940675
0.0940675
0.0940675
0.0940675
0.0940675
0.0940675
0.0940675
0.0940675
0.0940675
0.0940675
0.0940675
0.0940675
0.0940675
0.0940675
0.0940675
0.0940675
0.0940675
0.0940675
0.0940675
0.0940675
0.0940675
0.0940675
0.0940675
0.0940675
0.0940675
0.0940675
0.0940675
0.0912156
0.0901771
0.0923562
0.0931565
0.0936828
0.093828
0.0940044
0.093973
0.0940883
0.093972
0.0941354
0.0940012
0.0939766
0.0940989
0.0942551
0.0940117
0.0937796
0.0940457
0.0945887
0.093904
0.0938828
0.0940467
0.0936393
0.0940159
0.0943351
0.0941892
0.094316
0.0943058
0.0935763
0.0941458
0.0948343
0.0936502
0.0930896
0.0950436
0.0949131
0.0926818
0.0934046
0.0957755
0.094516
0.0924877
0.093649
0.0954231
0.0945454
0.0930938
0.0933738
0.0945831
0.0947566
0.0939768
0.0935043
0.0938826
0.0943691
0.094387
0.0941599
0.0940298
0.0939604
0.0939332
0.0939593
0.0940276
0.0940827
0.0940842
0.0940567
0.0940616
0.0940856
0.0940861
0.0940693
0.0940623
0.0940651
0.0940693
0.0940707
0.0940713
0.0940712
0.0940702
0.0940701
0.0940695
0.0940684
0.0940684
0.0940682
0.0940678
0.0940678
0.0940678
0.0940679
0.0940677
0.0940679
0.0940683
0.0940679
0.0940686
0.0940683
0.0940675
0.0940686
0.0940674
0.0940683
0.0940705
0.0940669
0.0940664
0.0940706
0.0940699
0.0940671
0.0940661
0.094068
0.0940715
0.0940693
0.0940651
0.0940679
0.0940715
0.0940682
0.0940665
0.0940688
0.0940693
0.094068
0.0940672
0.0940696
0.094071
0.0940667
0.0940669
0.094072
0.094069
0.0940634
0.0940711
0.0940735
0.0940613
0.0940739
0.0940705
0.0940587
0.0940821
0.0940601
0.0940654
0.0940912
0.0940391
0.0940694
0.0941136
0.0940218
0.0940582
0.094138
0.094013
0.0940436
0.0941593
0.0940137
0.0940167
0.0941749
0.0940372
0.093992
0.0941523
0.0940707
0.0940119
0.0941189
0.0940505
0.0940411
0.0941415
0.0940294
0.0940141
0.0941543
0.0940567
0.0940125
0.0941312
0.0940474
0.0940237
0.0941464
0.0940493
0.0940106
0.0941344
0.0940476
0.0940138
0.0941404
0.0940535
0.0940146
0.0941407
0.0940552
0.0940132
0.0941399
0.0940566
0.0940123
0.0941394
0.0940578
0.0940112
0.0941392
0.0940594
0.0940098
0.0941386
0.0940612
0.0940088
0.0941377
0.0940629
0.0940081
0.0941369
0.0940641
0.0940072
0.0941364
0.0940653
0.0940066
0.0941351
0.0940674
0.0940054
0.0941341
0.0940704
0.0940015
0.094137
0.0940674
0.0940052
0.0941333
0.094068
0.0940104
0.0941193
0.0940902
0.0939877
0.0941351
0.0940761
0.0940034
0.09412
0.0940711
0.0940577
0.0940371
0.094118
0.0940414
0.0940867
0.0940478
0.0940661
0.0940844
0.0940812
0.0940564
0.0940251
0.0941096
0.0940825
0.0940718
0.0940086
0.0941121
0.0940556
0.0940965
0.0940183
0.094096
0.09403
0.0941069
0.0940274
0.0940972
0.0940831
0.0939277
0.0949766
0.0989361
0.0981802
0.0940675
0.0940675
0.0940675
)
;

boundaryField
{
    inlet
    {
        type            calculated;
        value           uniform 0;
    }
    outlet
    {
        type            calculated;
        value           uniform 0;
    }
    sideWall
    {
        type            empty;
    }
}


// ************************************************************************* //
