/*--------------------------------*- C++ -*----------------------------------*\
| =========                 |                                                 |
| \\      /  F ield         | foam-extend: Open Source CFD                    |
|  \\    /   O peration     | Version:     3.2                                |
|   \\  /    A nd           | Web:         http://www.foam-extend.org         |
|    \\/     M anipulation  | For copyright notice see file Copyright         |
\*---------------------------------------------------------------------------*/
FoamFile
{
    version     2.0;
    format      ascii;
    class       areaScalarField;
    location    "50";
    object      thetaSS2init;
}
// * * * * * * * * * * * * * * * * * * * * * * * * * * * * * * * * * * * * * //

dimensions      [0 0 0 0 0 0 0];

internalField   nonuniform List<scalar> 
300
(
15.8434
10.127
7.50833
7.533
7.30019
7.29979
7.18718
7.18185
7.14169
7.1569
7.16055
7.18671
7.21311
7.25501
7.29436
7.34424
7.39499
7.45208
7.5087
7.57101
7.63668
7.7046
7.77443
7.84552
7.91737
7.9905
8.05869
8.11862
8.16915
8.21171
8.24709
8.2767
8.30121
8.32167
8.3386
8.35275
8.36451
8.37437
8.38263
8.38958
8.39547
8.40043
8.40472
8.40833
8.41156
8.41402
8.41648
8.41805
8.42015
8.42094
8.42314
8.42261
8.42657
8.42217
8.43166
8.41737
8.44319
8.40221
8.484
8.22079
7.59021
7.56401
7.64338
7.58924
7.61277
7.59966
7.60599
7.60288
7.60468
7.60429
7.60502
7.60535
7.60565
7.60524
7.60505
7.60544
7.60559
7.60526
7.60567
7.60574
7.60492
7.6053
7.60585
7.60589
7.60619
7.60621
7.60604
7.60597
7.60553
7.60557
7.60599
7.60572
7.60618
7.60657
7.60558
7.60555
7.60593
7.60555
7.60548
7.6061
7.6063
7.60539
7.60556
7.60579
7.60482
7.60497
7.60569
7.60529
7.60548
7.60604
7.606
7.60586
7.60584
7.60592
7.60559
7.60564
7.60643
7.60636
7.60598
7.60592
7.60595
7.60576
7.60569
7.60616
7.60623
7.60582
7.60593
7.60597
7.60543
7.60518
7.60571
7.6059
7.60588
7.60595
7.60584
7.60576
7.60536
7.60577
7.60582
7.60553
7.60597
7.60572
7.6061
7.60626
7.60567
7.60577
7.60544
7.60594
7.60654
7.60628
7.60611
7.60579
7.60612
7.60626
7.60626
7.60624
7.60547
7.60563
7.60599
7.60544
7.60576
7.60635
7.60631
7.60579
7.60526
7.60575
7.60598
7.60535
7.60563
7.60571
7.60561
7.60598
7.60597
7.60588
7.60549
7.60565
7.60609
7.606
7.60554
7.60567
7.60608
7.6057
7.60605
7.60657
7.60617
7.6064
7.60649
7.6057
7.60563
7.60593
7.60566
7.60609
7.60631
7.60565
7.60596
7.60618
7.60574
7.60582
7.6058
7.60579
7.60604
7.60602
7.60589
7.606
7.60595
7.60555
7.60574
7.60593
7.60565
7.60556
7.60559
7.60575
7.60578
7.6057
7.6056
7.60563
7.60562
7.60561
7.60555
7.60527
7.60543
7.60554
7.60532
7.60529
7.60526
7.60519
7.60516
7.60521
7.60519
7.60509
7.60509
7.60512
7.60505
7.60493
7.60496
7.60496
7.60487
7.60486
7.60484
7.6048
7.60478
7.60475
7.60473
7.60472
7.60469
7.60466
7.60465
7.60464
7.60464
7.60464
7.60464
7.60466
7.60468
7.60472
7.60479
7.60487
7.60491
7.605
7.60509
7.60517
7.6053
7.60532
7.6054
7.6056
7.60563
7.60547
7.60556
7.60599
7.60605
7.60583
7.60591
7.60587
7.60551
7.60593
7.60598
7.60538
7.60587
7.60603
7.60546
7.60581
7.60598
7.60581
7.60544
7.60554
7.60507
7.60567
7.60409
7.60616
7.60152
7.60913
7.59649
7.61849
7.57804
7.65564
7.53134
7.57692
8.38847
8.47271
8.37338
8.43388
)
;

boundaryField
{
    inlet
    {
        type            calculated;
        value           uniform 0;
    }
    outlet
    {
        type            calculated;
        value           uniform 0;
    }
    sideWall
    {
        type            empty;
    }
}


// ************************************************************************* //
