/*--------------------------------*- C++ -*----------------------------------*\
| =========                 |                                                 |
| \\      /  F ield         | foam-extend: Open Source CFD                    |
|  \\    /   O peration     | Version:     3.2                                |
|   \\  /    A nd           | Web:         http://www.foam-extend.org         |
|    \\/     M anipulation  | For copyright notice see file Copyright         |
\*---------------------------------------------------------------------------*/
FoamFile
{
    version     2.0;
    format      ascii;
    class       areaScalarField;
    location    "50";
    object      thetaSS2;
}
// * * * * * * * * * * * * * * * * * * * * * * * * * * * * * * * * * * * * * //

dimensions      [0 0 0 0 0 0 0];

internalField   nonuniform List<scalar> 
300
(
15.8434
10.127
7.50837
7.533
7.30021
7.29979
7.18717
7.18184
7.14169
7.1569
7.16055
7.1867
7.21311
7.25501
7.29438
7.34421
7.39504
7.45204
7.50875
7.57099
7.63674
7.70458
7.77452
7.84553
7.91749
7.99051
8.05884
8.11869
8.16935
8.21181
8.24733
8.27679
8.30145
8.32174
8.33887
8.35282
8.3648
8.37439
8.38294
8.38952
8.3958
8.40026
8.40509
8.40806
8.41193
8.4137
8.41688
8.41757
8.42123
8.41967
8.42582
8.41883
8.43223
8.41265
8.446
8.39355
8.4803
8.35014
8.61002
8.08865
5.97997
5.87182
6.06328
6.108
6.24508
6.26532
6.30837
6.33613
6.3366
6.34574
6.37772
6.31875
6.29984
6.37478
6.40202
6.30007
6.16782
6.40749
6.44388
6.232
6.36695
6.21389
6.1169
6.2717
6.27945
6.25611
6.45491
6.30494
6.08033
6.47838
6.61272
5.96591
6.09066
6.81447
6.42981
5.69944
6.37284
6.98308
6.22529
5.80627
6.41797
6.74526
6.36407
6.04884
6.13296
6.46674
6.51159
6.25035
6.1733
6.27795
6.3744
6.38852
6.37626
6.35616
6.32218
6.29964
6.29122
6.29636
6.30656
6.30455
6.29844
6.3031
6.3104
6.31087
6.30807
6.30712
6.30749
6.30809
6.3087
6.30944
6.30974
6.31002
6.31041
6.31039
6.31056
6.3108
6.31032
6.31033
6.31053
6.31057
6.31061
6.31046
6.31068
6.31074
6.31082
6.31121
6.31102
6.31105
6.31107
6.31056
6.31164
6.31183
6.31057
6.31155
6.31262
6.31244
6.31187
6.3114
6.3125
6.31363
6.31244
6.31153
6.31332
6.31381
6.31257
6.31281
6.31349
6.31355
6.31323
6.3131
6.3146
6.31446
6.31299
6.31431
6.31592
6.31387
6.31258
6.31725
6.3148
6.31283
6.31971
6.31171
6.31534
6.32021
6.30796
6.32302
6.32032
6.29959
6.33002
6.32561
6.29055
6.3335
6.33233
6.28381
6.33405
6.34142
6.2795
6.32686
6.35436
6.2844
6.31321
6.35123
6.29953
6.31656
6.33653
6.29743
6.32926
6.34389
6.28981
6.32216
6.35203
6.29726
6.32078
6.34432
6.29589
6.32471
6.35157
6.29683
6.32102
6.34778
6.29542
6.32037
6.34942
6.29668
6.32088
6.351
6.29799
6.32106
6.35218
6.29925
6.32136
6.35338
6.30039
6.32159
6.35475
6.30167
6.3217
6.35598
6.30311
6.32191
6.35706
6.30456
6.32229
6.35818
6.30581
6.32274
6.35928
6.3072
6.32318
6.36013
6.30912
6.32268
6.36242
6.30948
6.32333
6.36366
6.30921
6.32716
6.35982
6.31665
6.32171
6.36542
6.31709
6.31905
6.37053
6.31034
6.33416
6.34497
6.34222
6.32093
6.34081
6.34237
6.33244
6.34471
6.32529
6.34228
6.33832
6.35342
6.31869
6.33783
6.34342
6.35742
6.31973
6.33919
6.33692
6.35059
6.3293
6.34156
6.32817
6.34337
6.33074
6.34013
6.3279
6.35035
6.17162
7.38235
9.78384
9.09709
8.22301
8.40885
)
;

boundaryField
{
    inlet
    {
        type            calculated;
        value           uniform 0;
    }
    outlet
    {
        type            calculated;
        value           uniform 0;
    }
    sideWall
    {
        type            empty;
    }
}


// ************************************************************************* //
