/*--------------------------------*- C++ -*----------------------------------*\
| =========                 |                                                 |
| \\      /  F ield         | foam-extend: Open Source CFD                    |
|  \\    /   O peration     | Version:     3.2                                |
|   \\  /    A nd           | Web:         http://www.foam-extend.org         |
|    \\/     M anipulation  | For copyright notice see file Copyright         |
\*---------------------------------------------------------------------------*/
FoamFile
{
    version     2.0;
    format      ascii;
    class       areaScalarField;
    location    "50";
    object      thetaCSS2;
}
// * * * * * * * * * * * * * * * * * * * * * * * * * * * * * * * * * * * * * //

dimensions      [0 0 0 0 0 0 0];

internalField   nonuniform List<scalar> 
300
(
0.0933366
0.0933366
0.0933366
0.0933366
0.0933366
0.0933366
0.0933366
0.0933366
0.0933366
0.0933366
0.0933366
0.0933366
0.0933366
0.0933366
0.0933366
0.0933366
0.0933366
0.0933366
0.0933366
0.0933366
0.0933366
0.0933366
0.0933366
0.0933366
0.0933366
0.0933366
0.0933366
0.0933366
0.0933366
0.0933366
0.0933366
0.0933366
0.0933366
0.0933366
0.0933366
0.0933366
0.0933366
0.0933366
0.0933366
0.0933366
0.0933366
0.0933366
0.0933366
0.0933366
0.0933366
0.0933366
0.0933366
0.0933366
0.0933366
0.0933366
0.0933366
0.0933366
0.0933366
0.0933366
0.0933366
0.0933366
0.0933366
0.0933366
0.0933366
0.0905068
0.0894764
0.0916386
0.0924326
0.0929549
0.093099
0.093274
0.0932428
0.0933572
0.0932418
0.093404
0.0932708
0.0932464
0.0933677
0.0935227
0.0932812
0.0930509
0.093315
0.0938537
0.0931743
0.0931533
0.0933159
0.0929117
0.0932853
0.0936021
0.0934573
0.0935831
0.093573
0.0928491
0.0934142
0.0940974
0.0929225
0.0923663
0.094305
0.0941756
0.0919616
0.0926789
0.0950313
0.0937816
0.0917691
0.0929213
0.0946816
0.0938107
0.0923704
0.0926483
0.0938481
0.0940203
0.0932465
0.0927778
0.0931531
0.0936358
0.0936536
0.0934282
0.0932992
0.0932303
0.0932033
0.0932292
0.093297
0.0933516
0.0933531
0.0933259
0.0933307
0.0933545
0.093355
0.0933384
0.0933314
0.0933342
0.0933384
0.0933397
0.0933404
0.0933402
0.0933392
0.0933392
0.0933386
0.0933374
0.0933375
0.0933372
0.0933368
0.0933369
0.0933368
0.0933369
0.0933368
0.093337
0.0933374
0.093337
0.0933377
0.0933374
0.0933366
0.0933376
0.0933365
0.0933374
0.0933395
0.093336
0.0933354
0.0933397
0.0933389
0.0933362
0.0933352
0.0933371
0.0933405
0.0933383
0.0933341
0.093337
0.0933405
0.0933373
0.0933356
0.0933379
0.0933384
0.0933371
0.0933363
0.0933387
0.09334
0.0933358
0.093336
0.093341
0.093338
0.0933325
0.0933402
0.0933426
0.0933304
0.0933429
0.0933395
0.0933278
0.0933511
0.0933292
0.0933344
0.0933601
0.0933084
0.0933384
0.0933823
0.0932912
0.0933274
0.0934065
0.0932825
0.0933128
0.0934277
0.0932831
0.0932861
0.0934432
0.0933065
0.0932617
0.0934207
0.0933398
0.0932814
0.0933875
0.0933197
0.0933104
0.09341
0.0932988
0.0932835
0.0934227
0.0933258
0.093282
0.0933998
0.0933166
0.0932931
0.0934148
0.0933185
0.0932801
0.093403
0.0933168
0.0932833
0.0934089
0.0933227
0.0932841
0.0934092
0.0933244
0.0932827
0.0934084
0.0933258
0.0932818
0.0934079
0.0933269
0.0932807
0.0934077
0.0933285
0.0932793
0.0934071
0.0933303
0.0932783
0.0934062
0.093332
0.0932776
0.0934054
0.0933332
0.0932768
0.0934049
0.0933344
0.0932762
0.0934037
0.0933364
0.093275
0.0934027
0.0933395
0.093271
0.0934055
0.0933365
0.0932747
0.0934018
0.0933371
0.0932799
0.093388
0.0933591
0.0932574
0.0934036
0.0933451
0.093273
0.0933886
0.0933402
0.0933268
0.0933064
0.0933866
0.0933106
0.0933556
0.0933171
0.0933352
0.0933534
0.0933501
0.0933255
0.0932945
0.0933784
0.0933514
0.0933408
0.0932781
0.0933808
0.0933248
0.0933653
0.0932877
0.0933648
0.0932993
0.0933756
0.0932967
0.0933661
0.093352
0.0931979
0.0942386
0.0981673
0.0974173
0.0933366
0.0933366
0.0933366
)
;

boundaryField
{
    inlet
    {
        type            calculated;
        value           uniform 0;
    }
    outlet
    {
        type            calculated;
        value           uniform 0;
    }
    sideWall
    {
        type            empty;
    }
}


// ************************************************************************* //
