/*--------------------------------*- C++ -*----------------------------------*\
| =========                 |                                                 |
| \\      /  F ield         | foam-extend: Open Source CFD                    |
|  \\    /   O peration     | Version:     3.2                                |
|   \\  /    A nd           | Web:         http://www.foam-extend.org         |
|    \\/     M anipulation  | For copyright notice see file Copyright         |
\*---------------------------------------------------------------------------*/
FoamFile
{
    version     2.0;
    format      ascii;
    class       areaScalarField;
    location    "50";
    object      thetaSS1init;
}
// * * * * * * * * * * * * * * * * * * * * * * * * * * * * * * * * * * * * * //

dimensions      [0 0 0 0 0 0 0];

internalField   nonuniform List<scalar> 
300
(
23.9078
15.2818
11.3301
11.3674
11.0161
11.0155
10.8455
10.8375
10.7769
10.7998
10.8053
10.8448
10.8846
10.9479
11.0073
11.0825
11.1591
11.2453
11.3307
11.4247
11.5238
11.6263
11.7317
11.839
11.9474
12.0577
12.1606
12.2511
12.3273
12.3916
12.4449
12.4896
12.5266
12.5575
12.583
12.6044
12.6221
12.637
12.6495
12.66
12.6688
12.6763
12.6828
12.6882
12.6931
12.6968
12.7005
12.7029
12.7061
12.7073
12.7106
12.7098
12.7158
12.7091
12.7235
12.7019
12.7408
12.679
12.8024
12.4052
11.4537
11.4142
11.5339
11.4522
11.4877
11.468
11.4775
11.4728
11.4755
11.4749
11.476
11.4765
11.477
11.4764
11.4761
11.4767
11.4769
11.4764
11.477
11.4771
11.4759
11.4765
11.4773
11.4774
11.4778
11.4778
11.4776
11.4775
11.4768
11.4769
11.4775
11.4771
11.4778
11.4784
11.4769
11.4768
11.4774
11.4768
11.4767
11.4777
11.478
11.4766
11.4769
11.4772
11.4757
11.476
11.477
11.4765
11.4767
11.4776
11.4775
11.4773
11.4773
11.4774
11.4769
11.477
11.4782
11.4781
11.4775
11.4774
11.4774
11.4772
11.4771
11.4778
11.4779
11.4772
11.4774
11.4775
11.4767
11.4763
11.4771
11.4774
11.4773
11.4775
11.4773
11.4772
11.4766
11.4772
11.4772
11.4768
11.4775
11.4771
11.4777
11.4779
11.477
11.4772
11.4767
11.4774
11.4783
11.478
11.4777
11.4772
11.4777
11.4779
11.4779
11.4779
11.4767
11.477
11.4775
11.4767
11.4772
11.478
11.478
11.4772
11.4764
11.4771
11.4775
11.4765
11.477
11.4771
11.4769
11.4775
11.4775
11.4773
11.4768
11.477
11.4777
11.4775
11.4768
11.477
11.4776
11.4771
11.4776
11.4784
11.4778
11.4781
11.4783
11.4771
11.477
11.4774
11.477
11.4777
11.478
11.477
11.4775
11.4778
11.4771
11.4772
11.4772
11.4772
11.4776
11.4776
11.4774
11.4775
11.4775
11.4768
11.4771
11.4774
11.477
11.4769
11.4769
11.4771
11.4772
11.4771
11.4769
11.477
11.4769
11.4769
11.4768
11.4764
11.4767
11.4768
11.4765
11.4765
11.4764
11.4763
11.4763
11.4763
11.4763
11.4761
11.4761
11.4762
11.4761
11.4759
11.4759
11.4759
11.4758
11.4758
11.4758
11.4757
11.4757
11.4756
11.4756
11.4756
11.4755
11.4755
11.4755
11.4755
11.4755
11.4755
11.4755
11.4755
11.4755
11.4756
11.4757
11.4758
11.4759
11.476
11.4761
11.4763
11.4765
11.4765
11.4766
11.4769
11.477
11.4767
11.4769
11.4775
11.4776
11.4773
11.4774
11.4773
11.4768
11.4774
11.4775
11.4766
11.4773
11.4776
11.4767
11.4772
11.4775
11.4772
11.4767
11.4768
11.4761
11.477
11.4746
11.4778
11.4708
11.4822
11.4632
11.4964
11.4353
11.5524
11.3649
11.4336
12.6583
12.7854
12.6355
12.7268
)
;

boundaryField
{
    inlet
    {
        type            calculated;
        value           uniform 0;
    }
    outlet
    {
        type            calculated;
        value           uniform 0;
    }
    sideWall
    {
        type            empty;
    }
}


// ************************************************************************* //
