/*--------------------------------*- C++ -*----------------------------------*\
| =========                 |                                                 |
| \\      /  F ield         | foam-extend: Open Source CFD                    |
|  \\    /   O peration     | Version:     3.2                                |
|   \\  /    A nd           | Web:         http://www.foam-extend.org         |
|    \\/     M anipulation  | For copyright notice see file Copyright         |
\*---------------------------------------------------------------------------*/
FoamFile
{
    version     2.0;
    format      ascii;
    class       areaScalarField;
    location    "50";
    object      thetaB;
}
// * * * * * * * * * * * * * * * * * * * * * * * * * * * * * * * * * * * * * //

dimensions      [0 0 0 0 0 0 0];

internalField   nonuniform List<scalar> 
300
(
0.683963
0.437183
0.324137
0.3252
0.315151
0.315133
0.310271
0.310041
0.308307
0.308964
0.309122
0.310251
0.311391
0.313199
0.314899
0.31705
0.319245
0.321705
0.324153
0.32684
0.329679
0.332608
0.335627
0.338692
0.341799
0.344951
0.347901
0.350485
0.352672
0.354505
0.356038
0.35731
0.358375
0.359251
0.35999
0.360592
0.361109
0.361523
0.361892
0.362176
0.362448
0.36264
0.362849
0.362977
0.363144
0.36322
0.363358
0.363387
0.363546
0.363478
0.363744
0.363442
0.36402
0.363175
0.364614
0.36235
0.366095
0.360476
0.371695
0.349188
0.258156
0.253487
0.261753
0.263683
0.269601
0.270475
0.272333
0.273531
0.273552
0.273946
0.275327
0.272781
0.271965
0.2752
0.276376
0.271974
0.266265
0.276612
0.278183
0.269036
0.274862
0.268254
0.264067
0.27075
0.271085
0.270077
0.278659
0.272185
0.262489
0.279672
0.285472
0.257549
0.262934
0.294181
0.277575
0.246046
0.275116
0.30146
0.268747
0.250657
0.277064
0.291194
0.274737
0.261129
0.26476
0.27917
0.281106
0.269828
0.266502
0.27102
0.275184
0.275793
0.275264
0.274396
0.272929
0.271956
0.271593
0.271814
0.272255
0.272168
0.271904
0.272105
0.272421
0.272441
0.27232
0.272279
0.272295
0.272321
0.272347
0.272379
0.272392
0.272404
0.272421
0.27242
0.272428
0.272438
0.272417
0.272418
0.272426
0.272428
0.27243
0.272423
0.272433
0.272435
0.272439
0.272456
0.272447
0.272449
0.272449
0.272428
0.272474
0.272482
0.272428
0.27247
0.272516
0.272509
0.272484
0.272464
0.272511
0.27256
0.272509
0.272469
0.272547
0.272568
0.272514
0.272525
0.272554
0.272556
0.272543
0.272537
0.272602
0.272596
0.272532
0.272589
0.272659
0.272571
0.272515
0.272716
0.272611
0.272525
0.272822
0.272477
0.272634
0.272844
0.272315
0.272965
0.272849
0.271954
0.273268
0.273077
0.271564
0.273418
0.273367
0.271273
0.273442
0.27376
0.271087
0.273131
0.274318
0.271298
0.272542
0.274183
0.271951
0.272686
0.273549
0.271861
0.273235
0.273866
0.271532
0.272928
0.274218
0.271853
0.272869
0.273885
0.271794
0.273038
0.274198
0.271835
0.272879
0.274034
0.271774
0.272851
0.274105
0.271828
0.272873
0.274173
0.271885
0.272881
0.274224
0.271939
0.272894
0.274276
0.271989
0.272904
0.274335
0.272044
0.272908
0.274388
0.272106
0.272917
0.274435
0.272168
0.272934
0.274483
0.272223
0.272953
0.274531
0.272282
0.272972
0.274568
0.272366
0.272951
0.274666
0.272381
0.272979
0.27472
0.272369
0.273144
0.274554
0.27269
0.272909
0.274796
0.272709
0.272794
0.275016
0.272418
0.273446
0.273913
0.273794
0.272875
0.273734
0.273801
0.273372
0.273902
0.273063
0.273797
0.273626
0.274278
0.272778
0.273605
0.273846
0.27445
0.272823
0.273663
0.273566
0.274156
0.273237
0.273766
0.273188
0.273844
0.273299
0.273704
0.273176
0.274145
0.266429
0.318697
0.42237
0.392722
0.354988
0.363011
)
;

boundaryField
{
    inlet
    {
        type            calculated;
        value           uniform 0;
    }
    outlet
    {
        type            calculated;
        value           uniform 0;
    }
    sideWall
    {
        type            empty;
    }
}


// ************************************************************************* //
