/*--------------------------------*- C++ -*----------------------------------*\
| =========                 |                                                 |
| \\      /  F ield         | foam-extend: Open Source CFD                    |
|  \\    /   O peration     | Version:     3.2                                |
|   \\  /    A nd           | Web:         http://www.foam-extend.org         |
|    \\/     M anipulation  | For copyright notice see file Copyright         |
\*---------------------------------------------------------------------------*/
FoamFile
{
    version     2.0;
    format      ascii;
    class       areaScalarField;
    location    "50";
    object      thetaCB;
}
// * * * * * * * * * * * * * * * * * * * * * * * * * * * * * * * * * * * * * //

dimensions      [0 0 0 0 0 0 0];

internalField   nonuniform List<scalar> 
300
(
0.0317025
0.0317025
0.0317025
0.0317025
0.0317025
0.0317025
0.0317025
0.0317025
0.0317025
0.0317025
0.0317025
0.0317025
0.0317025
0.0317025
0.0317025
0.0317025
0.0317025
0.0317025
0.0317025
0.0317025
0.0317025
0.0317025
0.0317025
0.0317025
0.0317025
0.0317025
0.0317025
0.0317025
0.0317025
0.0317025
0.0317025
0.0317025
0.0317025
0.0317025
0.0317025
0.0317025
0.0317025
0.0317025
0.0317025
0.0317025
0.0317025
0.0317025
0.0317025
0.0317025
0.0317025
0.0317025
0.0317025
0.0317025
0.0317025
0.0317025
0.0317025
0.0317025
0.0317025
0.0317025
0.0317025
0.0317025
0.0317025
0.0317025
0.0317025
0.0307413
0.0303913
0.0311257
0.0313954
0.0315728
0.0316217
0.0316812
0.0316706
0.0317095
0.0316703
0.0317253
0.0316801
0.0316718
0.031713
0.0317657
0.0316837
0.0316054
0.0316951
0.0318781
0.0316473
0.0316402
0.0316954
0.0315581
0.0316851
0.0317927
0.0317435
0.0317862
0.0317828
0.0315369
0.0317288
0.0319609
0.0315618
0.0313729
0.0320314
0.0319874
0.0312354
0.0314791
0.0322781
0.0318536
0.03117
0.0315614
0.0321593
0.0318635
0.0313743
0.0314687
0.0318762
0.0319347
0.0316719
0.0315127
0.0316401
0.0318041
0.0318101
0.0317336
0.0316898
0.0316664
0.0316572
0.031666
0.031689
0.0317076
0.0317081
0.0316988
0.0317005
0.0317086
0.0317087
0.0317031
0.0317007
0.0317016
0.0317031
0.0317035
0.0317037
0.0317037
0.0317034
0.0317033
0.0317031
0.0317028
0.0317028
0.0317027
0.0317025
0.0317026
0.0317025
0.0317026
0.0317025
0.0317026
0.0317027
0.0317026
0.0317028
0.0317027
0.0317025
0.0317028
0.0317024
0.0317027
0.0317035
0.0317023
0.0317021
0.0317035
0.0317033
0.0317023
0.031702
0.0317026
0.0317038
0.0317031
0.0317016
0.0317026
0.0317038
0.0317027
0.0317021
0.0317029
0.0317031
0.0317026
0.0317024
0.0317032
0.0317036
0.0317022
0.0317023
0.031704
0.031703
0.0317011
0.0317037
0.0317045
0.0317004
0.0317046
0.0317035
0.0316995
0.0317074
0.0317
0.0317017
0.0317104
0.0316929
0.0317031
0.031718
0.031687
0.0316993
0.0317262
0.0316841
0.0316944
0.0317334
0.0316843
0.0316853
0.0317387
0.0316923
0.031677
0.031731
0.0317035
0.0316837
0.0317198
0.0316967
0.0316936
0.0317274
0.0316896
0.0316844
0.0317317
0.0316988
0.0316839
0.0317239
0.0316957
0.0316877
0.031729
0.0316963
0.0316833
0.031725
0.0316958
0.0316843
0.031727
0.0316977
0.0316846
0.0317271
0.0316983
0.0316842
0.0317269
0.0316988
0.0316839
0.0317267
0.0316992
0.0316835
0.0317266
0.0316997
0.031683
0.0317264
0.0317003
0.0316827
0.0317261
0.0317009
0.0316824
0.0317258
0.0317013
0.0316821
0.0317257
0.0317017
0.0316819
0.0317252
0.0317024
0.0316815
0.0317249
0.0317034
0.0316802
0.0317259
0.0317024
0.0316815
0.0317246
0.0317026
0.0316832
0.0317199
0.0317101
0.0316756
0.0317252
0.0317054
0.0316808
0.0317201
0.0317037
0.0316992
0.0316922
0.0317195
0.0316936
0.0317089
0.0316958
0.031702
0.0317082
0.0317071
0.0316987
0.0316882
0.0317167
0.0317075
0.0317039
0.0316826
0.0317175
0.0316985
0.0317122
0.0316859
0.031712
0.0316898
0.0317157
0.0316889
0.0317125
0.0317077
0.0316553
0.0320088
0.0333433
0.0330885
0.0317025
0.0317025
0.0317025
)
;

boundaryField
{
    inlet
    {
        type            calculated;
        value           uniform 0;
    }
    outlet
    {
        type            calculated;
        value           uniform 0;
    }
    sideWall
    {
        type            empty;
    }
}


// ************************************************************************* //
