/*--------------------------------*- C++ -*----------------------------------*\
| =========                 |                                                 |
| \\      /  F ield         | foam-extend: Open Source CFD                    |
|  \\    /   O peration     | Version:     3.2                                |
|   \\  /    A nd           | Web:         http://www.foam-extend.org         |
|    \\/     M anipulation  | For copyright notice see file Copyright         |
\*---------------------------------------------------------------------------*/
FoamFile
{
    version     2.0;
    format      ascii;
    class       areaScalarField;
    location    "50";
    object      thetaBinit;
}
// * * * * * * * * * * * * * * * * * * * * * * * * * * * * * * * * * * * * * //

dimensions      [0 0 0 0 0 0 0];

internalField   nonuniform List<scalar> 
300
(
0.683961
0.437184
0.324136
0.3252
0.31515
0.315133
0.310271
0.310041
0.308308
0.308964
0.309122
0.310251
0.311391
0.3132
0.314898
0.317052
0.319243
0.321707
0.324151
0.326841
0.329676
0.332608
0.335623
0.338692
0.341794
0.344951
0.347895
0.350482
0.352663
0.354501
0.356028
0.357306
0.358364
0.359247
0.359978
0.360589
0.361097
0.361523
0.361879
0.362179
0.362433
0.362647
0.362833
0.362988
0.363128
0.363234
0.36334
0.363408
0.363499
0.363533
0.363628
0.363605
0.363776
0.363586
0.363996
0.363379
0.364493
0.362724
0.366255
0.354892
0.32767
0.326539
0.329966
0.327628
0.328644
0.328078
0.328352
0.328217
0.328295
0.328278
0.32831
0.328324
0.328337
0.328319
0.328311
0.328327
0.328334
0.32832
0.328338
0.32834
0.328305
0.328322
0.328346
0.328347
0.32836
0.328361
0.328353
0.328351
0.328332
0.328333
0.328351
0.32834
0.32836
0.328376
0.328334
0.328333
0.328349
0.328332
0.328329
0.328356
0.328365
0.328326
0.328333
0.328343
0.328301
0.328307
0.328338
0.328321
0.32833
0.328354
0.328352
0.328346
0.328345
0.328348
0.328334
0.328336
0.32837
0.328368
0.328351
0.328348
0.32835
0.328341
0.328339
0.328359
0.328362
0.328344
0.328349
0.32835
0.328327
0.328316
0.328339
0.328348
0.328347
0.32835
0.328345
0.328342
0.328324
0.328342
0.328344
0.328332
0.32835
0.32834
0.328356
0.328363
0.328338
0.328342
0.328328
0.328349
0.328375
0.328364
0.328357
0.328343
0.328357
0.328363
0.328363
0.328362
0.328329
0.328336
0.328351
0.328327
0.328341
0.328367
0.328365
0.328343
0.32832
0.328341
0.328351
0.328324
0.328336
0.328339
0.328335
0.328351
0.32835
0.328346
0.32833
0.328337
0.328356
0.328352
0.328332
0.328338
0.328355
0.328339
0.328354
0.328376
0.328359
0.328369
0.328373
0.328339
0.328336
0.328349
0.328337
0.328356
0.328365
0.328337
0.32835
0.328359
0.328341
0.328344
0.328343
0.328343
0.328353
0.328353
0.328347
0.328352
0.32835
0.328332
0.32834
0.328349
0.328337
0.328333
0.328334
0.328341
0.328342
0.328339
0.328334
0.328336
0.328335
0.328335
0.328332
0.32832
0.328327
0.328332
0.328322
0.328321
0.32832
0.328317
0.328316
0.328318
0.328317
0.328313
0.328312
0.328314
0.328311
0.328306
0.328307
0.328307
0.328303
0.328303
0.328302
0.3283
0.328299
0.328298
0.328297
0.328296
0.328295
0.328294
0.328293
0.328293
0.328293
0.328293
0.328293
0.328294
0.328295
0.328297
0.3283
0.328303
0.328305
0.328308
0.328312
0.328316
0.328322
0.328323
0.328326
0.328334
0.328336
0.328329
0.328333
0.328351
0.328354
0.328345
0.328348
0.328346
0.328331
0.328349
0.328351
0.328325
0.328346
0.328353
0.328329
0.328344
0.328351
0.328344
0.328327
0.328332
0.328312
0.328337
0.328269
0.328359
0.328158
0.328487
0.327941
0.328891
0.327145
0.330495
0.325129
0.327096
0.362131
0.365768
0.36148
0.364092
)
;

boundaryField
{
    inlet
    {
        type            calculated;
        value           uniform 0;
    }
    outlet
    {
        type            calculated;
        value           uniform 0;
    }
    sideWall
    {
        type            empty;
    }
}


// ************************************************************************* //
