/*--------------------------------*- C++ -*----------------------------------*\
| =========                 |                                                 |
| \\      /  F ield         | foam-extend: Open Source CFD                    |
|  \\    /   O peration     | Version:     3.2                                |
|   \\  /    A nd           | Web:         http://www.foam-extend.org         |
|    \\/     M anipulation  | For copyright notice see file Copyright         |
\*---------------------------------------------------------------------------*/
FoamFile
{
    version     2.0;
    format      ascii;
    class       areaScalarField;
    location    "50";
    object      thetaSS1;
}
// * * * * * * * * * * * * * * * * * * * * * * * * * * * * * * * * * * * * * //

dimensions      [0 0 0 0 0 0 0];

internalField   nonuniform List<scalar> 
300
(
23.9079
15.2817
11.3302
11.3674
11.0161
11.0154
10.8455
10.8375
10.7769
10.7998
10.8053
10.8448
10.8846
10.9479
11.0073
11.0825
11.1592
11.2452
11.3308
11.4247
11.5239
11.6263
11.7318
11.839
11.9476
12.0577
12.1609
12.2512
12.3276
12.3917
12.4453
12.4897
12.527
12.5576
12.5834
12.6045
12.6226
12.637
12.6499
12.6599
12.6693
12.6761
12.6834
12.6878
12.6937
12.6964
12.7011
12.7022
12.7077
12.7054
12.7146
12.7041
12.7243
12.6948
12.7451
12.6659
12.7969
12.6004
12.9926
12.2058
9.02383
8.86062
9.14955
9.21703
9.42388
9.45443
9.51939
9.56128
9.56199
9.57577
9.62404
9.53505
9.50652
9.61961
9.66071
9.50686
9.30729
9.66896
9.72388
9.40415
9.60779
9.37681
9.23046
9.46406
9.47575
9.44053
9.74052
9.51421
9.17528
9.77593
9.97865
9.00261
9.19086
10.2831
9.70264
8.60051
9.61667
10.5375
9.39402
8.76172
9.68477
10.1787
9.60344
9.12776
9.25469
9.75837
9.82605
9.43183
9.31557
9.47348
9.61903
9.64033
9.62183
9.5915
9.54023
9.50622
9.49351
9.50126
9.51665
9.51363
9.5044
9.51143
9.52245
9.52316
9.51893
9.51751
9.51807
9.51897
9.51989
9.521
9.52145
9.52188
9.52246
9.52244
9.52269
9.52305
9.52233
9.52235
9.52265
9.52271
9.52276
9.52254
9.52287
9.52297
9.52308
9.52368
9.52338
9.52343
9.52346
9.5227
9.52432
9.52461
9.5227
9.52419
9.5258
9.52553
9.52467
9.52396
9.52561
9.52733
9.52552
9.52416
9.52685
9.52759
9.52573
9.52608
9.52712
9.5272
9.52672
9.52652
9.52879
9.52858
9.52636
9.52834
9.53078
9.52769
9.52574
9.53279
9.52909
9.52611
9.53649
9.52443
9.52991
9.53725
9.51876
9.54149
9.53742
9.50614
9.55205
9.54541
9.4925
9.55732
9.55554
9.48232
9.55814
9.56926
9.47582
9.54729
9.58879
9.48322
9.52669
9.58407
9.50605
9.53174
9.56189
9.50288
9.55091
9.57299
9.49138
9.5402
9.58527
9.50262
9.53811
9.57364
9.50055
9.54404
9.58458
9.50197
9.53848
9.57885
9.49984
9.53749
9.58134
9.50175
9.53827
9.58371
9.50373
9.53854
9.5855
9.50563
9.53899
9.58731
9.50735
9.53933
9.58937
9.50928
9.5395
9.59123
9.51144
9.53982
9.59286
9.51363
9.54039
9.59455
9.51553
9.54107
9.59622
9.51762
9.54174
9.5975
9.52052
9.54098
9.60095
9.52106
9.54197
9.60282
9.52066
9.54775
9.59702
9.53188
9.53952
9.60548
9.53254
9.5355
9.61318
9.52237
9.5583
9.57462
9.57046
9.53834
9.56835
9.5707
9.55571
9.57423
9.54492
9.57055
9.56458
9.58737
9.53496
9.56385
9.57229
9.5934
9.53653
9.56589
9.56247
9.5831
9.55098
9.56947
9.54927
9.5722
9.55315
9.56731
9.54886
9.58274
9.31303
11.14
14.7639
13.7276
12.4086
12.689
)
;

boundaryField
{
    inlet
    {
        type            calculated;
        value           uniform 0;
    }
    outlet
    {
        type            calculated;
        value           uniform 0;
    }
    sideWall
    {
        type            empty;
    }
}


// ************************************************************************* //
