/*--------------------------------*- C++ -*----------------------------------*\
| =========                 |                                                 |
| \\      /  F ield         | foam-extend: Open Source CFD                    |
|  \\    /   O peration     | Version:     3.2                                |
|   \\  /    A nd           | Web:         http://www.foam-extend.org         |
|    \\/     M anipulation  | For copyright notice see file Copyright         |
\*---------------------------------------------------------------------------*/
FoamFile
{
    version     2.0;
    format      ascii;
    class       areaScalarField;
    location    "50";
    object      totH1;
}
// * * * * * * * * * * * * * * * * * * * * * * * * * * * * * * * * * * * * * //

dimensions      [0 0 0 0 0 0 0];

internalField   nonuniform List<scalar> 
300
(
0
0
0
0
0
0
0
0
0
0
0
0
0
0
0
0
0
0
0
0
0
0
0
0
0
0
0
0
0
0
0
0
0
0
0
0
0
0
0
0
0
0
0
0
0
0
0
0
0
0
0
0
0
0
0
0
0
0
0
-0.000485667
-0.00163222
-0.00258466
-0.00303166
-0.0032528
-0.00335942
-0.00341112
-0.00343807
-0.00345068
-0.00346344
-0.00346819
-0.00346804
-0.0034949
-0.00350479
-0.00346728
-0.00344523
-0.00350417
-0.0035564
-0.0034706
-0.00340999
-0.0034699
-0.00350514
-0.00358188
-0.00366333
-0.00362588
-0.00355918
-0.00349585
-0.00341316
-0.00345678
-0.00352635
-0.00338142
-0.00332309
-0.00356104
-0.00355847
-0.0032473
-0.00334114
-0.00368887
-0.00350643
-0.00313876
-0.00333373
-0.00367236
-0.00350905
-0.00319634
-0.00328298
-0.00356693
-0.00359508
-0.00338851
-0.00328749
-0.00340002
-0.00352709
-0.0035062
-0.00339984
-0.0033298
-0.00332087
-0.00334586
-0.00338718
-0.00342854
-0.00345372
-0.00345784
-0.00345238
-0.00345141
-0.00345427
-0.00345216
-0.0034459
-0.00344245
-0.00344305
-0.00344436
-0.00344446
-0.00344361
-0.00344243
-0.00344116
-0.0034401
-0.0034392
-0.00343842
-0.00343793
-0.00343764
-0.00343739
-0.00343725
-0.00343716
-0.00343707
-0.00343698
-0.00343689
-0.0034368
-0.0034366
-0.00343641
-0.00343617
-0.00343585
-0.00343572
-0.00343555
-0.0034354
-0.00343528
-0.00343465
-0.00343426
-0.00343457
-0.00343425
-0.00343332
-0.00343301
-0.00343333
-0.00343348
-0.00343272
-0.00343176
-0.00343189
-0.00343224
-0.0034315
-0.00343072
-0.00343079
-0.00343074
-0.00343021
-0.00342982
-0.00342979
-0.00342948
-0.00342854
-0.00342811
-0.00342836
-0.00342771
-0.00342672
-0.00342719
-0.00342728
-0.00342564
-0.00342569
-0.00342567
-0.0034241
-0.00342511
-0.00342414
-0.00342292
-0.00342456
-0.00342089
-0.00342173
-0.00342623
-0.00341804
-0.00341806
-0.00342742
-0.00341694
-0.00341432
-0.00342769
-0.00341604
-0.00340967
-0.00342754
-0.00341778
-0.00340473
-0.00342284
-0.00342113
-0.00340614
-0.00341516
-0.00341585
-0.00341001
-0.00341742
-0.00340927
-0.00340324
-0.00341887
-0.00341308
-0.00340019
-0.00341149
-0.00340995
-0.00340255
-0.00341348
-0.00340743
-0.00339715
-0.00341002
-0.00340824
-0.00340027
-0.00341287
-0.00340954
-0.00339955
-0.00341102
-0.00340748
-0.00339714
-0.00340855
-0.00340539
-0.00339494
-0.00340627
-0.00340335
-0.00339279
-0.00340411
-0.0034014
-0.0033906
-0.00340188
-0.00339952
-0.00338851
-0.00339965
-0.00339763
-0.00338648
-0.00339746
-0.00339569
-0.00338448
-0.0033954
-0.00339386
-0.00338252
-0.00339334
-0.00339212
-0.00338066
-0.00339134
-0.0033905
-0.00337869
-0.00338952
-0.00338887
-0.00337708
-0.00338779
-0.00338714
-0.00337587
-0.0033856
-0.00338644
-0.00337377
-0.00338358
-0.0033856
-0.00337264
-0.00338219
-0.00338412
-0.00337455
-0.00337569
-0.00338257
-0.00337912
-0.00337499
-0.00337622
-0.00337633
-0.00337993
-0.00337726
-0.00337207
-0.00337171
-0.00338086
-0.00338084
-0.00337109
-0.00336789
-0.00337725
-0.00337964
-0.00337404
-0.00337117
-0.00337466
-0.00337822
-0.00337978
-0.00337948
-0.00337962
-0.00338142
-0.00337369
-0.00339491
-0.00326303
-0.00226442
-0.00071079
0
0
0
)
;

boundaryField
{
    inlet
    {
        type            calculated;
        value           uniform 0;
    }
    outlet
    {
        type            calculated;
        value           uniform 0;
    }
    sideWall
    {
        type            empty;
    }
}


// ************************************************************************* //
