/*--------------------------------*- C++ -*----------------------------------*\
| =========                 |                                                 |
| \\      /  F ield         | foam-extend: Open Source CFD                    |
|  \\    /   O peration     | Version:     3.2                                |
|   \\  /    A nd           | Web:         http://www.foam-extend.org         |
|    \\/     M anipulation  | For copyright notice see file Copyright         |
\*---------------------------------------------------------------------------*/
FoamFile
{
    version     2.0;
    format      ascii;
    class       areaScalarField;
    location    "50";
    object      tVolA;
}
// * * * * * * * * * * * * * * * * * * * * * * * * * * * * * * * * * * * * * //

dimensions      [0 3 0 0 0 0 0];

internalField   nonuniform List<scalar> 
300
(
0
0
0
0
0
0
0
0
0
0
0
0
0
0
0
0
0
0
0
0
0
0
0
0
0
0
0
0
0
0
0
0
0
0
0
0
0
0
0
0
0
0
0
0
0
0
0
0
0
0
0
0
0
0
0
0
0
0
0
0
1.33531e-06
1.28803e-06
1.29484e-06
1.28045e-06
1.27926e-06
1.28136e-06
1.2704e-06
1.28606e-06
1.26273e-06
1.27796e-06
1.27168e-06
1.2589e-06
1.24084e-06
1.2857e-06
1.29385e-06
1.2542e-06
1.1865e-06
1.28954e-06
1.32362e-06
1.25706e-06
1.25754e-06
1.18353e-06
1.11896e-06
1.15914e-06
1.20848e-06
1.23575e-06
1.32893e-06
1.26822e-06
1.20001e-06
1.34461e-06
1.41427e-06
1.1489e-06
1.12198e-06
1.49617e-06
1.38761e-06
9.81924e-07
1.14873e-06
1.59331e-06
1.36415e-06
1.02096e-06
1.1949e-06
1.51866e-06
1.40963e-06
1.15896e-06
1.17167e-06
1.34031e-06
1.40786e-06
1.30406e-06
1.20564e-06
1.23536e-06
1.3178e-06
1.36194e-06
1.36721e-06
1.34798e-06
1.31698e-06
1.28701e-06
1.26983e-06
1.26796e-06
1.27291e-06
1.27289e-06
1.27012e-06
1.27218e-06
1.27715e-06
1.2792e-06
1.27843e-06
1.27733e-06
1.27729e-06
1.2778e-06
1.27854e-06
1.27935e-06
1.27997e-06
1.28049e-06
1.28096e-06
1.28113e-06
1.28125e-06
1.28134e-06
1.28132e-06
1.28124e-06
1.28119e-06
1.28114e-06
1.28108e-06
1.28099e-06
1.28106e-06
1.28104e-06
1.28111e-06
1.28123e-06
1.2811e-06
1.28114e-06
1.28112e-06
1.28093e-06
1.28138e-06
1.28149e-06
1.28092e-06
1.28112e-06
1.28173e-06
1.28169e-06
1.28126e-06
1.28092e-06
1.2814e-06
1.282e-06
1.28156e-06
1.28099e-06
1.28154e-06
1.28191e-06
1.28149e-06
1.28135e-06
1.28158e-06
1.28162e-06
1.28139e-06
1.28136e-06
1.28196e-06
1.28198e-06
1.28135e-06
1.28172e-06
1.28237e-06
1.28151e-06
1.281e-06
1.28257e-06
1.28176e-06
1.28126e-06
1.28321e-06
1.28072e-06
1.28205e-06
1.28307e-06
1.27971e-06
1.28445e-06
1.28286e-06
1.2766e-06
1.28644e-06
1.28515e-06
1.27335e-06
1.28692e-06
1.28758e-06
1.27113e-06
1.28656e-06
1.29121e-06
1.26918e-06
1.28366e-06
1.29479e-06
1.27216e-06
1.27854e-06
1.29246e-06
1.27816e-06
1.28122e-06
1.28691e-06
1.27514e-06
1.28594e-06
1.29119e-06
1.27184e-06
1.28144e-06
1.29283e-06
1.2767e-06
1.28205e-06
1.28918e-06
1.27383e-06
1.28295e-06
1.29224e-06
1.27506e-06
1.2807e-06
1.28852e-06
1.27172e-06
1.27851e-06
1.28792e-06
1.27179e-06
1.27857e-06
1.28837e-06
1.27223e-06
1.27861e-06
1.28862e-06
1.27253e-06
1.27862e-06
1.28884e-06
1.27273e-06
1.27856e-06
1.28911e-06
1.27299e-06
1.27844e-06
1.28932e-06
1.2733e-06
1.27836e-06
1.28948e-06
1.2736e-06
1.27835e-06
1.28966e-06
1.27382e-06
1.27832e-06
1.28983e-06
1.2741e-06
1.27826e-06
1.28993e-06
1.27453e-06
1.27793e-06
1.29052e-06
1.27449e-06
1.27807e-06
1.29064e-06
1.27432e-06
1.27903e-06
1.28917e-06
1.27679e-06
1.27633e-06
1.29178e-06
1.27619e-06
1.27632e-06
1.29219e-06
1.27439e-06
1.2807e-06
1.28332e-06
1.2867e-06
1.27392e-06
1.28411e-06
1.28171e-06
1.28345e-06
1.28211e-06
1.27805e-06
1.28252e-06
1.28285e-06
1.28886e-06
1.27245e-06
1.2819e-06
1.28079e-06
1.29394e-06
1.27223e-06
1.28447e-06
1.27578e-06
1.29183e-06
1.27237e-06
1.28474e-06
1.26949e-06
1.28585e-06
1.26982e-06
1.28204e-06
1.2817e-06
1.24922e-06
1.394e-06
1.40126e-06
0
0
0
0
)
;

boundaryField
{
    inlet
    {
        type            calculated;
        value           uniform 0;
    }
    outlet
    {
        type            calculated;
        value           uniform 0;
    }
    sideWall
    {
        type            empty;
    }
}


// ************************************************************************* //
