/*--------------------------------*- C++ -*----------------------------------*\
| =========                 |                                                 |
| \\      /  F ield         | foam-extend: Open Source CFD                    |
|  \\    /   O peration     | Version:     3.2                                |
|   \\  /    A nd           | Web:         http://www.foam-extend.org         |
|    \\/     M anipulation  | For copyright notice see file Copyright         |
\*---------------------------------------------------------------------------*/
FoamFile
{
    version     2.0;
    format      ascii;
    class       areaScalarField;
    location    "50";
    object      tVol;
}
// * * * * * * * * * * * * * * * * * * * * * * * * * * * * * * * * * * * * * //

dimensions      [0 3 0 0 0 0 0];

internalField   nonuniform List<scalar> 
300
(
5.64007e-06
5.64007e-06
5.64007e-06
5.64007e-06
5.64007e-06
5.64007e-06
5.64007e-06
5.64007e-06
5.64007e-06
5.64007e-06
5.64007e-06
5.64007e-06
5.64007e-06
5.64007e-06
5.64007e-06
5.64007e-06
5.64007e-06
5.64007e-06
5.64007e-06
5.64007e-06
5.64007e-06
5.64007e-06
5.64007e-06
5.64007e-06
5.64007e-06
5.64007e-06
5.64007e-06
5.64007e-06
5.64007e-06
5.64007e-06
5.64007e-06
5.64007e-06
5.64007e-06
5.64007e-06
5.64007e-06
5.64007e-06
5.64007e-06
5.64007e-06
5.64007e-06
5.64007e-06
5.64007e-06
5.64007e-06
5.64007e-06
5.64007e-06
5.64007e-06
5.64007e-06
5.64007e-06
5.64007e-06
5.64007e-06
5.64007e-06
5.64007e-06
5.64007e-06
5.64007e-06
5.64007e-06
5.64007e-06
5.64007e-06
5.64007e-06
5.64007e-06
5.64007e-06
5.1571e-06
4.01363e-06
3.06123e-06
2.61424e-06
2.39309e-06
2.28648e-06
2.23478e-06
2.20785e-06
2.19523e-06
2.18248e-06
2.17775e-06
2.17803e-06
2.15118e-06
2.14099e-06
2.1784e-06
2.20094e-06
2.14225e-06
2.08932e-06
2.17471e-06
2.23596e-06
2.17647e-06
2.14135e-06
2.06472e-06
1.98275e-06
2.01966e-06
2.0862e-06
2.14946e-06
2.23267e-06
2.18962e-06
2.11908e-06
2.26367e-06
2.32373e-06
2.0858e-06
2.08604e-06
2.39792e-06
2.30681e-06
1.95746e-06
2.13725e-06
2.50684e-06
2.31478e-06
1.97406e-06
2.13487e-06
2.4489e-06
2.36474e-06
2.08029e-06
2.05002e-06
2.25611e-06
2.35856e-06
2.24698e-06
2.11922e-06
2.13915e-06
2.24533e-06
2.31575e-06
2.3251e-06
2.30035e-06
2.2591e-06
2.21765e-06
2.19232e-06
2.18808e-06
2.19351e-06
2.19451e-06
2.19165e-06
2.19372e-06
2.19998e-06
2.20346e-06
2.20287e-06
2.20156e-06
2.20145e-06
2.2023e-06
2.20348e-06
2.20474e-06
2.20581e-06
2.20671e-06
2.2075e-06
2.20798e-06
2.20828e-06
2.20853e-06
2.20867e-06
2.20876e-06
2.20884e-06
2.20894e-06
2.20902e-06
2.20912e-06
2.20931e-06
2.2095e-06
2.20975e-06
2.21007e-06
2.21019e-06
2.21037e-06
2.21052e-06
2.21063e-06
2.21127e-06
2.21166e-06
2.21135e-06
2.21167e-06
2.21259e-06
2.21292e-06
2.2126e-06
2.21244e-06
2.21319e-06
2.21416e-06
2.21404e-06
2.21368e-06
2.21442e-06
2.2152e-06
2.21514e-06
2.21518e-06
2.21571e-06
2.2161e-06
2.21614e-06
2.21644e-06
2.21738e-06
2.21782e-06
2.21757e-06
2.21821e-06
2.21921e-06
2.21875e-06
2.21865e-06
2.22028e-06
2.22025e-06
2.22026e-06
2.22184e-06
2.22082e-06
2.22179e-06
2.22301e-06
2.22137e-06
2.22504e-06
2.22424e-06
2.21969e-06
2.22787e-06
2.22793e-06
2.21851e-06
2.22895e-06
2.23168e-06
2.21826e-06
2.22984e-06
2.23633e-06
2.21843e-06
2.22808e-06
2.24126e-06
2.22318e-06
2.22475e-06
2.23979e-06
2.23084e-06
2.2301e-06
2.23596e-06
2.22853e-06
2.23664e-06
2.24277e-06
2.22713e-06
2.23281e-06
2.24579e-06
2.23453e-06
2.23599e-06
2.24344e-06
2.23251e-06
2.23849e-06
2.24885e-06
2.23601e-06
2.23771e-06
2.24574e-06
2.23315e-06
2.2364e-06
2.24645e-06
2.23501e-06
2.23846e-06
2.24887e-06
2.23749e-06
2.24057e-06
2.25107e-06
2.23978e-06
2.24261e-06
2.25323e-06
2.24195e-06
2.24457e-06
2.25543e-06
2.24418e-06
2.24646e-06
2.25753e-06
2.24642e-06
2.24836e-06
2.25956e-06
2.24862e-06
2.2503e-06
2.26157e-06
2.25069e-06
2.25215e-06
2.26354e-06
2.25276e-06
2.25389e-06
2.26541e-06
2.25477e-06
2.25552e-06
2.26739e-06
2.2566e-06
2.25717e-06
2.26901e-06
2.25834e-06
2.25891e-06
2.27023e-06
2.26055e-06
2.25962e-06
2.27234e-06
2.26258e-06
2.26047e-06
2.27347e-06
2.26398e-06
2.26197e-06
2.27155e-06
2.27048e-06
2.26359e-06
2.26699e-06
2.27114e-06
2.26993e-06
2.26984e-06
2.26622e-06
2.26886e-06
2.27407e-06
2.27449e-06
2.26533e-06
2.26527e-06
2.27502e-06
2.27831e-06
2.26897e-06
2.26651e-06
2.27209e-06
2.275e-06
2.27152e-06
2.26796e-06
2.2664e-06
2.2667e-06
2.26656e-06
2.26477e-06
2.2725e-06
2.25128e-06
2.383e-06
3.38134e-06
4.93198e-06
5.64007e-06
5.64007e-06
5.64007e-06
)
;

boundaryField
{
    inlet
    {
        type            calculated;
        value           uniform 0;
    }
    outlet
    {
        type            calculated;
        value           uniform 0;
    }
    sideWall
    {
        type            empty;
    }
}


// ************************************************************************* //
