/*--------------------------------*- C++ -*----------------------------------*\
| =========                 |                                                 |
| \\      /  F ield         | foam-extend: Open Source CFD                    |
|  \\    /   O peration     | Version:     3.2                                |
|   \\  /    A nd           | Web:         http://www.foam-extend.org         |
|    \\/     M anipulation  | For copyright notice see file Copyright         |
\*---------------------------------------------------------------------------*/
FoamFile
{
    version     2.0;
    format      ascii;
    class       areaScalarField;
    location    "50";
    object      tVolC;
}
// * * * * * * * * * * * * * * * * * * * * * * * * * * * * * * * * * * * * * //

dimensions      [0 3 0 0 0 0 0];

internalField   nonuniform List<scalar> 
300
(
0
0
0
0
0
0
0
0
0
0
0
0
0
0
0
0
0
0
0
0
0
0
0
0
0
0
0
0
0
0
0
0
0
0
0
0
0
0
0
0
0
0
0
0
0
0
0
0
0
0
0
0
0
0
0
0
0
0
0
0
2.68327e-06
1.77879e-06
1.32516e-06
1.11847e-06
1.01309e-06
9.59294e-07
9.43321e-07
9.15057e-07
9.25636e-07
9.05682e-07
9.12373e-07
8.98501e-07
9.0585e-07
8.98114e-07
9.13226e-07
8.94896e-07
9.08446e-07
8.8986e-07
9.18609e-07
9.25821e-07
8.90038e-07
8.88158e-07
8.69777e-07
8.65789e-07
8.83311e-07
9.18722e-07
9.09284e-07
9.28587e-07
9.24432e-07
9.2275e-07
9.17047e-07
9.44992e-07
9.67078e-07
9.05636e-07
9.29252e-07
9.82371e-07
9.89739e-07
9.18737e-07
9.61366e-07
9.59345e-07
9.42196e-07
9.35144e-07
9.64015e-07
9.2886e-07
8.82851e-07
9.19619e-07
9.57044e-07
9.50458e-07
9.19818e-07
9.08855e-07
9.32541e-07
9.5937e-07
9.63864e-07
9.58587e-07
9.484e-07
9.36821e-07
9.28493e-07
9.25962e-07
9.26451e-07
9.27537e-07
9.27426e-07
9.27379e-07
9.28666e-07
9.30146e-07
9.30343e-07
9.3013e-07
9.30049e-07
9.30374e-07
9.30816e-07
9.31271e-07
9.31723e-07
9.32107e-07
9.32418e-07
9.3274e-07
9.32912e-07
9.33074e-07
9.33243e-07
9.33402e-07
9.33545e-07
9.33687e-07
9.33835e-07
9.34015e-07
9.34143e-07
9.34358e-07
9.34531e-07
9.34724e-07
9.34986e-07
9.35122e-07
9.35298e-07
9.35592e-07
9.35773e-07
9.36062e-07
9.36322e-07
9.3643e-07
9.36748e-07
9.3712e-07
9.3724e-07
9.37415e-07
9.3768e-07
9.38052e-07
9.38383e-07
9.38581e-07
9.38758e-07
9.3919e-07
9.39546e-07
9.39723e-07
9.40026e-07
9.40381e-07
9.40652e-07
9.40972e-07
9.41318e-07
9.41751e-07
9.42124e-07
9.42382e-07
9.42737e-07
9.43149e-07
9.43541e-07
9.43603e-07
9.44407e-07
9.44887e-07
9.44536e-07
9.46025e-07
9.45624e-07
9.45874e-07
9.47566e-07
9.46463e-07
9.47365e-07
9.48976e-07
9.47245e-07
9.48818e-07
9.51073e-07
9.47794e-07
9.50169e-07
9.53067e-07
9.48991e-07
9.51213e-07
9.55256e-07
9.50073e-07
9.52498e-07
9.57124e-07
9.5192e-07
9.53268e-07
9.58742e-07
9.54704e-07
9.55024e-07
9.59348e-07
9.56463e-07
9.57646e-07
9.61332e-07
9.57096e-07
9.5894e-07
9.63891e-07
9.59741e-07
9.60272e-07
9.64717e-07
9.61293e-07
9.62626e-07
9.67033e-07
9.62805e-07
9.63246e-07
9.67514e-07
9.63676e-07
9.64554e-07
9.693e-07
9.65679e-07
9.66521e-07
9.7135e-07
9.67753e-07
9.6848e-07
9.73352e-07
9.69799e-07
9.70423e-07
9.75333e-07
9.71821e-07
9.72351e-07
9.77314e-07
9.73834e-07
9.74248e-07
9.79259e-07
9.7583e-07
9.76125e-07
9.81164e-07
9.77798e-07
9.77964e-07
9.8303e-07
9.79681e-07
9.79764e-07
9.84834e-07
9.81495e-07
9.81544e-07
9.86423e-07
9.83468e-07
9.8294e-07
9.8832e-07
9.84981e-07
9.84455e-07
9.90229e-07
9.8578e-07
9.87133e-07
9.89971e-07
9.89209e-07
9.86633e-07
9.92646e-07
9.90073e-07
9.87374e-07
9.95824e-07
9.87264e-07
9.94271e-07
9.89965e-07
9.95793e-07
9.88909e-07
9.95551e-07
9.92595e-07
9.9387e-07
9.9431e-07
9.92406e-07
9.97296e-07
9.91826e-07
9.99092e-07
9.89422e-07
1.00028e-06
9.90578e-07
1.00297e-06
9.88135e-07
1.0024e-06
9.89331e-07
1.0053e-06
9.89367e-07
1.00307e-06
9.87007e-07
1.0029e-06
9.88887e-07
9.96952e-07
1.00823e-06
9.95131e-07
1.98576e-06
0
0
0
0
)
;

boundaryField
{
    inlet
    {
        type            calculated;
        value           uniform 0;
    }
    outlet
    {
        type            calculated;
        value           uniform 0;
    }
    sideWall
    {
        type            empty;
    }
}


// ************************************************************************* //
