/*--------------------------------*- C++ -*----------------------------------*\
| =========                 |                                                 |
| \\      /  F ield         | foam-extend: Open Source CFD                    |
|  \\    /   O peration     | Version:     3.2                                |
|   \\  /    A nd           | Web:         http://www.foam-extend.org         |
|    \\/     M anipulation  | For copyright notice see file Copyright         |
\*---------------------------------------------------------------------------*/
FoamFile
{
    version     2.0;
    format      ascii;
    class       volVectorField;
    location    "50";
    object      U;
}
// * * * * * * * * * * * * * * * * * * * * * * * * * * * * * * * * * * * * * //

dimensions      [0 1 -1 0 0 0 0];

internalField   nonuniform List<vector> 
5400
(
(0.346281 -5.71962e-26 0.0080615)
(0.224627 7.12255e-26 2.72938e-05)
(0.191999 2.84716e-26 -0.00102783)
(0.196804 0 -0.00105337)
(0.192997 -3.49297e-27 -0.00101314)
(0.193428 -2.87194e-27 -0.000979502)
(0.191558 -3.68636e-27 -0.000975808)
(0.191637 -1.15044e-27 -0.00096187)
(0.190929 0 -0.00096486)
(0.191179 -2.98144e-28 -0.000958932)
(0.191132 0 -0.000963033)
(0.191464 1.60286e-29 -0.000961431)
(0.191738 -2.11742e-28 -0.000965533)
(0.192288 -2.70658e-28 -0.000966798)
(0.192737 0 -0.000969629)
(0.19337 0 -0.000972628)
(0.19399 -5.74935e-28 -0.000976049)
(0.194702 6.15708e-28 -0.000979206)
(0.19539 0 -0.000983195)
(0.196172 0 -0.000987344)
(0.196997 0 -0.000991499)
(0.197845 8.60206e-28 -0.000995638)
(0.198721 0 -0.00100008)
(0.199609 0 -0.00100438)
(0.200509 0 -0.0010088)
(0.20143 9.97098e-28 -0.00101292)
(0.202293 -9.30996e-28 -0.00101649)
(0.203045 0 -0.00101915)
(0.20368 0 -0.0010215)
(0.204211 6.11568e-28 -0.00102342)
(0.204654 -5.21396e-28 -0.00102515)
(0.205022 0 -0.00102654)
(0.20533 0 -0.00102781)
(0.205582 0 -0.0010288)
(0.205796 -2.62442e-28 -0.00102971)
(0.205969 0 -0.00103041)
(0.206119 0 -0.00103108)
(0.206237 -1.55176e-28 -0.00103155)
(0.206344 0 -0.00103206)
(0.206425 0 -0.00103237)
(0.206504 0 -0.00103277)
(0.206558 -2.86115e-43 -0.00103296)
(0.20662 0 -0.0010333)
(0.206654 1.14121e-28 -0.00103338)
(0.206705 0 -0.00103368)
(0.206723 0 -0.00103368)
(0.206769 1.98489e-31 -0.001034)
(0.206772 0 -0.00103389)
(0.206828 2.9694e-29 -0.00103437)
(0.206791 1.52039e-29 -0.00103375)
(0.206897 0 -0.00103509)
(0.206763 -1.54547e-37 -0.00103287)
(0.207003 0 -0.00103664)
(0.206642 1.02421e-35 -0.00103063)
(0.207246 0 -0.00104043)
(0.206287 0 -0.00102462)
(0.207863 -4.5394e-32 -0.0010508)
(0.20547 4.27666e-28 -0.00100909)
(0.210012 -1.45887e-26 -0.00106911)
(0.201058 0 -0.00468312)
(0.162286 0 -0.00505825)
(0.167657 0 -0.00292093)
(0.173497 0 -0.00194925)
(0.174688 0 -0.00136431)
(0.177746 0 -0.00116082)
(0.178022 0 -0.000980534)
(0.178908 -8.93265e-28 -0.00099431)
(0.179381 0 -0.000882606)
(0.179401 0 -0.000998667)
(0.179558 -1.69834e-27 -0.000829072)
(0.180316 0 -0.000969379)
(0.179073 -2.06036e-31 -0.00100448)
(0.178814 -1.54469e-27 -0.000855512)
(0.180261 2.48138e-27 -0.000681799)
(0.180809 0 -0.000964164)
(0.179026 0 -0.00123346)
(0.176202 3.56417e-27 -0.000902496)
(0.181018 -3.23203e-27 -0.000299775)
(0.181782 1.97346e-30 -0.00107359)
(0.177339 -2.22824e-27 -0.00111944)
(0.18056 -4.31781e-28 -0.000942632)
(0.17762 0 -0.00137315)
(0.17574 0 -0.000954159)
(0.178948 -2.63777e-27 -0.00057345)
(0.17883 -4.69822e-28 -0.000731182)
(0.178045 -1.8324e-31 -0.000601097)
(0.182119 5.45926e-28 -0.000637193)
(0.179303 0 -0.0014428)
(0.174264 -6.59494e-27 -0.000794068)
(0.182386 -5.79503e-28 -9.3866e-06)
(0.185531 0 -0.00140521)
(0.17194 8.13684e-27 -0.00192438)
(0.174495 0 0.000169043)
(0.188819 0 9.7558e-05)
(0.181885 0 -0.00249907)
(0.166448 -1.52485e-26 -0.00157122)
(0.180177 0 0.00104741)
(0.192004 0 -0.00034921)
(0.177342 1.11704e-29 -0.00268067)
(0.168833 0 -0.00135656)
(0.181355 -2.13497e-26 0.000677717)
(0.187223 4.67255e-27 -0.000302597)
(0.180077 0 -0.00204243)
(0.174101 -2.86924e-28 -0.00169416)
(0.175623 0 -0.000284114)
(0.182466 0 -5.8708e-05)
(0.182819 9.02717e-27 -0.00100294)
(0.177682 0 -0.00155986)
(0.176716 -7.8883e-27 -0.00111804)
(0.178728 0 -0.000532257)
(0.18042 0 -0.000497073)
(0.180419 0 -0.000794629)
(0.180127 1.13326e-27 -0.000950618)
(0.179845 9.88043e-28 -0.00103049)
(0.179263 0 -0.0010595)
(0.178946 3.16847e-28 -0.00102724)
(0.17885 -7.69751e-28 -0.000942232)
(0.178956 0 -0.00087595)
(0.179153 0 -0.000875487)
(0.179108 0 -0.000907367)
(0.178983 0 -0.000901929)
(0.179064 -1.99276e-28 -0.000874116)
(0.179208 -1.18132e-28 -0.000872815)
(0.1792 -1.48668e-28 -0.000894011)
(0.179145 0 -0.000902122)
(0.179133 -1.72968e-29 -0.000898817)
(0.179138 0 -0.000893493)
(0.179149 -6.62703e-30 -0.000891916)
(0.17916 -5.48844e-30 -0.000891198)
(0.179173 -1.73321e-33 -0.000891454)
(0.179176 0 -0.000892637)
(0.17918 -2.13816e-29 -0.000892747)
(0.179184 1.18149e-33 -0.000893481)
(0.17918 0 -0.000894887)
(0.179183 0 -0.000894904)
(0.179187 1.13356e-29 -0.000895074)
(0.179172 -1.14254e-29 -0.00089549)
(0.179172 0 -0.000895601)
(0.17918 0 -0.000895658)
(0.179181 0 -0.000895501)
(0.179184 -1.3123e-29 -0.000895751)
(0.17918 0 -0.000895449)
(0.179183 0 -0.000894994)
(0.179184 0 -0.000895507)
(0.179184 1.62256e-29 -0.000894614)
(0.17919 -6.7754e-30 -0.000895045)
(0.179185 0 -0.000895876)
(0.179186 1.41638e-30 -0.000894692)
(0.179187 0 -0.000896001)
(0.179175 1.07013e-29 -0.000894988)
(0.179198 -4.86162e-29 -0.000892555)
(0.179202 -2.99303e-29 -0.000896588)
(0.179169 0 -0.000897208)
(0.17919 1.00049e-32 -0.000892459)
(0.179211 0 -0.000893188)
(0.179204 0 -0.000896498)
(0.179194 2.7126e-29 -0.000897639)
(0.179185 -2.47707e-29 -0.000895333)
(0.179204 -3.94953e-29 -0.000891374)
(0.179226 0 -0.000894009)
(0.179202 4.19999e-29 -0.000898809)
(0.179182 0 -0.000895501)
(0.179217 3.90713e-29 -0.000891522)
(0.179226 2.29596e-29 -0.000895154)
(0.179198 0 -0.000897135)
(0.179203 5.76575e-30 -0.000894582)
(0.179216 6.06442e-30 -0.000893875)
(0.179216 -1.21865e-29 -0.000895445)
(0.179209 -3.39345e-29 -0.000896339)
(0.179205 0 -0.00089357)
(0.179234 0 -0.000892153)
(0.179231 5.54832e-29 -0.000896948)
(0.179199 1.19516e-29 -0.000896711)
(0.179223 -1.52607e-32 -0.000891036)
(0.179257 -3.17564e-29 -0.000894501)
(0.179215 0 -0.000900673)
(0.179182 0 -0.00089189)
(0.179282 0 -0.000889545)
(0.179229 0 -0.000902833)
(0.179185 3.13735e-32 -0.000888982)
(0.179332 4.90651e-29 -0.000893284)
(0.179155 3.5983e-29 -0.000905201)
(0.179233 0 -0.000880132)
(0.179338 0 -0.000904389)
(0.179069 0 -0.000897687)
(0.179389 0 -0.000870879)
(0.17934 0 -0.000927572)
(0.178887 3.73209e-28 -0.00089279)
(0.179533 3.73751e-28 -0.000846212)
(0.179442 0 -0.000946974)
(0.178696 0 -0.000905031)
(0.179602 0 -0.000820219)
(0.179578 0 -0.000955664)
(0.178546 0 -0.000921231)
(0.179597 1.17391e-27 -0.000795009)
(0.179768 -1.4351e-27 -0.000956717)
(0.178466 -7.62926e-29 -0.000951199)
(0.179424 1.43308e-27 -0.000777917)
(0.180051 2.58699e-27 -0.000929992)
(0.178546 -2.98305e-28 -0.000978403)
(0.179149 0 -0.000803537)
(0.179956 0 -0.00089243)
(0.178854 0 -0.00095639)
(0.179224 -1.46288e-27 -0.000841135)
(0.179656 0 -0.000915315)
(0.17881 0 -0.000923674)
(0.179462 1.87817e-27 -0.000815159)
(0.179821 -1.04963e-27 -0.000939554)
(0.178637 -6.76419e-29 -0.000954259)
(0.179309 0 -0.000800864)
(0.179964 0 -0.000908122)
(0.178789 0 -0.000955945)
(0.179284 0 -0.000828009)
(0.179822 -6.94907e-28 -0.000918579)
(0.178747 0 -0.000942985)
(0.179349 -1.01531e-27 -0.000810283)
(0.179949 0 -0.000916987)
(0.17877 0 -0.000958188)
(0.179281 0 -0.000824481)
(0.17988 0 -0.000918739)
(0.178746 1.78625e-28 -0.000954307)
(0.179268 9.77004e-28 -0.000817269)
(0.179909 0 -0.000911915)
(0.178771 4.03434e-28 -0.000953239)
(0.179272 -9.73242e-28 -0.000816785)
(0.179933 -7.55484e-28 -0.000910218)
(0.178793 2.19033e-28 -0.000954835)
(0.17927 0 -0.000817727)
(0.179949 -7.40463e-28 -0.000908813)
(0.178813 0 -0.000955868)
(0.17927 0 -0.000818317)
(0.179966 -7.31876e-28 -0.000907668)
(0.178831 -3.09929e-31 -0.000957143)
(0.179269 9.67807e-28 -0.000818488)
(0.179986 -7.81694e-32 -0.000906061)
(0.178851 2.44539e-28 -0.000958747)
(0.179266 9.6566e-28 -0.000819175)
(0.180004 0 -0.000904161)
(0.178874 0 -0.000959946)
(0.179266 -1.91745e-27 -0.000820214)
(0.180019 0 -0.000902453)
(0.178898 2.562e-28 -0.000960749)
(0.179268 9.53481e-28 -0.000821153)
(0.180036 6.90712e-28 -0.000901254)
(0.178917 -2.60931e-28 -0.000961726)
(0.179272 0 -0.000821736)
(0.180052 0 -0.000900039)
(0.178939 -2.6507e-28 -0.000962491)
(0.179277 0 -0.000823177)
(0.180063 -6.81465e-28 -0.000898055)
(0.178972 0 -0.000963908)
(0.179262 -9.43032e-28 -0.00082417)
(0.180107 -8.79668e-34 -0.000895133)
(0.178972 -2.84123e-28 -0.000967923)
(0.179271 3.94292e-31 -0.000821347)
(0.180129 1.30866e-27 -0.000897847)
(0.178961 2.82683e-28 -0.000964107)
(0.179345 0 -0.000825838)
(0.180034 3.17813e-32 -0.000897088)
(0.179115 -3.00396e-31 -0.000959053)
(0.179228 -6.20574e-28 -0.000840348)
(0.180148 7.3364e-28 -0.000874)
(0.179125 3.33358e-28 -0.000982568)
(0.179164 8.37943e-28 -0.000824588)
(0.18026 0 -0.000888333)
(0.178965 0 -0.000965519)
(0.179488 3.37211e-31 -0.0008424)
(0.179691 2.69403e-28 -0.000890298)
(0.179664 0 -0.000912323)
(0.179198 -1.19257e-28 -0.000929)
(0.179616 -7.49245e-28 -0.000842583)
(0.179642 1.56666e-27 -0.000924768)
(0.179431 9.8853e-28 -0.000878103)
(0.179704 0 -0.000919361)
(0.179289 -1.48934e-28 -0.000899526)
(0.179644 1.37859e-28 -0.000878532)
(0.179535 0 -0.000881315)
(0.179886 3.61395e-28 -0.000913423)
(0.179147 -3.45376e-28 -0.0009422)
(0.179557 -2.30159e-31 -0.000852723)
(0.179641 1.46989e-30 -0.000876927)
(0.179946 -1.18011e-31 -0.00089774)
(0.179163 -3.73821e-28 -0.000960169)
(0.179589 -4.99221e-28 -0.000852709)
(0.179523 0 -0.000904929)
(0.179799 0 -0.000869738)
(0.179348 0 -0.000948977)
(0.179631 3.46168e-28 -0.000871887)
(0.179361 0 -0.000934921)
(0.17968 -3.72503e-28 -0.00085848)
(0.17941 0 -0.00093781)
(0.179616 -1.57885e-31 -0.000869499)
(0.179359 -3.37407e-28 -0.000870408)
(0.179871 0 -0.00108201)
(0.176547 9.16022e-27 0.000134287)
(0.199275 0 0.00551363)
(0.233056 0 0.00549715)
(0.21677 4.70658e-26 -0.000734737)
(0.202709 -6.47835e-27 -0.00109608)
(0.20745 0 -0.00104045)
(0.551294 -2.56413e-25 0.013327)
(0.455461 1.73405e-25 0.00215455)
(0.391809 7.3645e-26 -0.00116437)
(0.390136 0 -0.001824)
(0.379153 1.59826e-26 -0.00181384)
(0.377091 9.53314e-27 -0.00178831)
(0.371857 1.80335e-33 -0.00181129)
(0.371121 4.52781e-27 -0.00181555)
(0.36901 3.1541e-27 -0.0018352)
(0.369029 0 -0.00184174)
(0.36863 0 -0.00185388)
(0.368932 0 -0.00185745)
(0.3693 2.157e-28 -0.00187247)
(0.370065 1.15117e-28 -0.00187756)
(0.370815 4.83299e-28 -0.00188717)
(0.371872 0 -0.00189594)
(0.372941 0 -0.00190522)
(0.374215 1.15198e-27 -0.00191291)
(0.375454 1.26777e-27 -0.00192175)
(0.37685 0 -0.00193266)
(0.37835 0 -0.0019426)
(0.379906 0 -0.00195186)
(0.381526 0 -0.0019615)
(0.383176 0 -0.00197036)
(0.384858 0 -0.00198019)
(0.386601 0 -0.00198781)
(0.388235 -2.21745e-27 -0.00199112)
(0.389677 0 -0.00199131)
(0.390914 0 -0.00199098)
(0.391964 0 -0.00199031)
(0.392854 -1.32089e-27 -0.00198986)
(0.393598 0 -0.00198928)
(0.394229 -9.55146e-28 -0.00198894)
(0.394748 0 -0.00198851)
(0.395193 -6.79592e-28 -0.00198831)
(0.395552 0 -0.00198803)
(0.395868 -4.7994e-28 -0.00198794)
(0.396115 -4.0484e-28 -0.00198775)
(0.396344 0 -0.00198776)
(0.396511 0 -0.00198763)
(0.396682 0 -0.00198772)
(0.396791 -1.04365e-41 -0.00198759)
(0.396926 0 -0.0019878)
(0.396995 7.31977e-41 -0.00198759)
(0.397105 0 -0.00198789)
(0.397143 0 -0.00198752)
(0.397233 -1.89825e-28 -0.0019879)
(0.397248 0 -0.00198762)
(0.397342 -6.63336e-29 -0.00198817)
(0.397307 5.47015e-29 -0.00198721)
(0.397451 -3.82721e-29 -0.00198886)
(0.397294 -9.76615e-29 -0.00198572)
(0.397603 1.25132e-29 -0.00199094)
(0.397158 -1.28704e-28 -0.00198251)
(0.397922 0 -0.00199621)
(0.396729 0 -0.00197442)
(0.39872 1.51959e-29 -0.00201421)
(0.395784 1.4804e-27 -0.00197624)
(0.402305 -1.69393e-29 -0.00200144)
(0.392878 0 -0.00800899)
(0.329648 0 -0.00928793)
(0.326367 1.45082e-25 -0.00582492)
(0.333198 0 -0.00386619)
(0.335253 -3.62251e-26 -0.00275848)
(0.340504 0 -0.00231723)
(0.341714 0 -0.00194173)
(0.343484 0 -0.00194597)
(0.34475 0 -0.00172866)
(0.344945 -3.64755e-28 -0.00192447)
(0.345521 -4.06025e-27 -0.00162475)
(0.346488 0 -0.00185083)
(0.345053 4.18195e-31 -0.00191234)
(0.344443 4.54644e-27 -0.00167986)
(0.347012 0 -0.00136417)
(0.347908 0 -0.00180568)
(0.344718 -1.6737e-26 -0.00227894)
(0.340586 1.04875e-26 -0.0018092)
(0.3482 -3.67602e-27 -0.000707715)
(0.349235 -3.46565e-30 -0.00197928)
(0.343539 0 -0.00212115)
(0.346717 0 -0.00179631)
(0.34221 2.08326e-26 -0.00253929)
(0.339393 0 -0.00189594)
(0.344059 -6.83395e-27 -0.00118429)
(0.344938 -1.46595e-27 -0.00141845)
(0.344294 -4.51285e-27 -0.00122412)
(0.349835 3.46569e-27 -0.00122437)
(0.345327 0 -0.00261292)
(0.338593 0 -0.00165533)
(0.350296 6.20528e-31 -0.000253155)
(0.354779 -6.80071e-26 -0.00241746)
(0.335019 0 -0.00358904)
(0.338905 0 -7.45064e-07)
(0.359289 0 0.000112229)
(0.34888 -1.85306e-25 -0.00430299)
(0.326238 1.0632e-29 -0.00310605)
(0.346604 0 0.00147623)
(0.364852 -1.9589e-26 -0.00051131)
(0.343135 -2.16842e-29 -0.00466716)
(0.32868 0 -0.00278685)
(0.347462 0 0.000883374)
(0.358709 1.26659e-26 -0.000508663)
(0.348336 0 -0.00362958)
(0.336731 -4.93597e-27 -0.003165)
(0.338759 0 -0.000805644)
(0.350645 -9.56199e-28 -0.000323417)
(0.352113 2.24278e-26 -0.00178606)
(0.343502 0 -0.00283555)
(0.340817 0 -0.00219572)
(0.343918 0 -0.00113785)
(0.347717 -2.1011e-27 -0.00104094)
(0.34806 0 -0.00149152)
(0.347422 0 -0.00180416)
(0.346649 -2.23507e-31 -0.00195425)
(0.345482 0 -0.00201665)
(0.344707 -2.05103e-31 -0.0019663)
(0.344558 -2.19375e-27 -0.0018215)
(0.344771 0 -0.00169921)
(0.345207 0 -0.00169134)
(0.345157 0 -0.00174574)
(0.344979 0 -0.00173842)
(0.345093 -5.06885e-28 -0.00169073)
(0.34537 -2.52618e-28 -0.00168761)
(0.345382 -3.80045e-28 -0.00171941)
(0.34528 -1.92601e-28 -0.00173654)
(0.345237 -4.41641e-29 -0.00173175)
(0.345249 0 -0.00172274)
(0.345274 4.809e-33 -0.00171969)
(0.345293 6.3168e-33 -0.00171828)
(0.345321 6.15515e-33 -0.0017186)
(0.34533 0 -0.00172058)
(0.345338 -4.04764e-29 -0.00172083)
(0.345348 2.01357e-30 -0.00172193)
(0.34534 0 -0.00172463)
(0.345342 -3.51689e-30 -0.00172487)
(0.345351 0 -0.00172506)
(0.345335 2.38441e-29 -0.00172576)
(0.345335 0 -0.00172621)
(0.345341 0 -0.00172646)
(0.34535 -2.70206e-30 -0.00172618)
(0.345352 -5.59711e-29 -0.0017263)
(0.345343 0 -0.00172577)
(0.345349 -5.95826e-31 -0.00172514)
(0.34535 0 -0.00172587)
(0.34535 4.63881e-29 -0.00172439)
(0.345359 -3.03284e-29 -0.00172498)
(0.345349 0 -0.00172664)
(0.345356 -6.75418e-30 -0.0017246)
(0.34536 4.66856e-29 -0.00172665)
(0.34534 3.47627e-29 -0.0017253)
(0.345376 2.1787e-32 -0.00172085)
(0.345383 0 -0.0017274)
(0.345339 0 -0.00172918)
(0.345365 4.38313e-29 -0.00172102)
(0.3454 9.769e-30 -0.00172176)
(0.345396 0 -0.00172752)
(0.345376 6.50513e-29 -0.00172963)
(0.345362 0 -0.00172613)
(0.345397 2.11532e-32 -0.00171907)
(0.345432 -6.26496e-29 -0.00172283)
(0.345394 0 -0.00173138)
(0.345366 0 -0.0017266)
(0.34542 0 -0.00171933)
(0.345436 0 -0.00172477)
(0.345398 0 -0.00172884)
(0.345401 1.03975e-29 -0.00172461)
(0.345425 -6.88958e-33 -0.00172332)
(0.345427 -2.84116e-29 -0.00172565)
(0.345416 -6.11149e-29 -0.00172747)
(0.345412 0 -0.00172303)
(0.345458 0 -0.00171993)
(0.345453 -1.50884e-32 -0.00172813)
(0.345409 1.60403e-32 -0.00172851)
(0.345449 2.95446e-32 -0.00171873)
(0.345497 0 -0.00172364)
(0.345436 0 -0.00173479)
(0.345402 0 -0.0017207)
(0.345531 0 -0.0017152)
(0.345464 0 -0.00173843)
(0.345412 3.09843e-28 -0.00171568)
(0.345597 0 -0.00172032)
(0.345371 7.79797e-29 -0.00174382)
(0.345479 0 -0.00170026)
(0.345612 0 -0.00173969)
(0.345278 0 -0.0017332)
(0.345695 0 -0.00168193)
(0.345618 0 -0.00177785)
(0.345039 8.39455e-28 -0.00172873)
(0.345891 -5.30359e-31 -0.00163775)
(0.345765 -1.60998e-27 -0.00180845)
(0.344786 1.0421e-27 -0.0017537)
(0.345979 -1.13204e-27 -0.00158917)
(0.345959 0 -0.00182377)
(0.344595 0 -0.001784)
(0.345991 2.84561e-27 -0.00155264)
(0.346215 -3.5086e-27 -0.00181765)
(0.344477 5.47697e-28 -0.00183416)
(0.345787 3.17837e-27 -0.00152825)
(0.346556 5.96913e-27 -0.00177046)
(0.344669 0 -0.00187517)
(0.345405 0 -0.00157584)
(0.346455 0 -0.00170954)
(0.345094 0 -0.00183365)
(0.345503 -1.53993e-27 -0.00163628)
(0.346054 1.38464e-27 -0.00175425)
(0.344988 2.95217e-28 -0.00178151)
(0.345875 4.20249e-27 -0.00158888)
(0.346273 -2.55901e-27 -0.00179168)
(0.344779 0 -0.0018354)
(0.345662 0 -0.00156858)
(0.346479 1.95976e-27 -0.00173677)
(0.345037 0 -0.00183415)
(0.345621 0 -0.00161361)
(0.346245 -1.65084e-27 -0.00175899)
(0.344974 0 -0.00181405)
(0.345746 0 -0.00158317)
(0.346464 -2.02969e-27 -0.00175288)
(0.345017 0 -0.00183897)
(0.345627 1.98148e-27 -0.0016083)
(0.346333 0 -0.00175843)
(0.34497 0 -0.00183306)
(0.345615 4.23674e-27 -0.00159598)
(0.346389 -1.71078e-27 -0.00174563)
(0.345015 3.16883e-28 -0.0018305)
(0.345637 -2.09201e-27 -0.00159525)
(0.346439 0 -0.00174226)
(0.345054 -3.66704e-28 -0.00183306)
(0.345643 0 -0.00159717)
(0.346473 0 -0.00173979)
(0.345088 0 -0.00183477)
(0.345652 -2.05458e-27 -0.00159844)
(0.346508 0 -0.00173767)
(0.345118 -4.18556e-28 -0.00183695)
(0.34566 0 -0.00159907)
(0.346549 -3.16449e-27 -0.00173461)
(0.345152 4.50611e-28 -0.00183967)
(0.345663 0 -0.00160062)
(0.346585 0 -0.00173109)
(0.345188 0 -0.00184171)
(0.345669 -1.99972e-27 -0.00160271)
(0.346617 0 -0.00172795)
(0.345225 4.88275e-28 -0.00184311)
(0.34568 1.97268e-27 -0.00160458)
(0.34665 0 -0.00172566)
(0.345257 -5.02389e-28 -0.00184485)
(0.345693 1.96074e-27 -0.00160585)
(0.346683 -1.42511e-27 -0.00172335)
(0.345292 0 -0.00184618)
(0.345705 0 -0.00160872)
(0.346713 0 -0.00171925)
(0.345338 0 -0.0018488)
(0.34569 -1.90114e-27 -0.00161109)
(0.346782 -2.68987e-27 -0.00171309)
(0.345338 -5.65623e-28 -0.00185625)
(0.345706 1.99494e-27 -0.001606)
(0.346794 1.33585e-27 -0.00171991)
(0.345348 1.178e-27 -0.00184889)
(0.345815 0 -0.00161339)
(0.346708 -4.03703e-32 -0.00171782)
(0.345545 5.72518e-31 -0.00184311)
(0.345659 0 -0.00163721)
(0.346886 8.69421e-28 -0.00167658)
(0.345537 1.38069e-27 -0.00188454)
(0.34557 0 -0.00160787)
(0.346954 -9.77745e-28 -0.00170404)
(0.345391 0 -0.00185158)
(0.346 1.61229e-27 -0.00163917)
(0.346295 0 -0.00171608)
(0.346331 5.81916e-28 -0.00174925)
(0.345531 0 -0.00178805)
(0.346197 1.59511e-27 -0.00163839)
(0.346238 1.89247e-27 -0.00177458)
(0.345977 1.14155e-27 -0.00169619)
(0.34627 0 -0.00176699)
(0.345801 2.84798e-28 -0.00173426)
(0.34619 4.7328e-28 -0.00169865)
(0.346123 0 -0.00170241)
(0.346533 8.29344e-28 -0.00175092)
(0.345527 -1.84386e-28 -0.00181128)
(0.346107 -2.34551e-27 -0.00165864)
(0.346266 0 -0.00169477)
(0.346741 2.17917e-31 -0.00171984)
(0.345509 5.90414e-28 -0.00184113)
(0.346134 0 -0.00165462)
(0.346001 0 -0.00174667)
(0.346579 0 -0.00167757)
(0.345781 -6.83361e-28 -0.00182017)
(0.346273 0 -0.00168492)
(0.345721 0 -0.00179769)
(0.346323 5.8167e-28 -0.00166176)
(0.345829 0 -0.00179985)
(0.346169 -2.45223e-27 -0.00168202)
(0.345814 -3.11325e-28 -0.00167492)
(0.34637 0 -0.00199427)
(0.339149 0 -9.09734e-05)
(0.371964 0 0.00881866)
(0.434772 -8.89874e-27 0.00957824)
(0.421418 1.32432e-25 -0.00114738)
(0.397886 -8.62342e-31 -0.00187521)
(0.400751 0 -0.00196694)
(0.642532 0 0.0172211)
(0.58366 0 0.00382163)
(0.512274 0 -0.000665066)
(0.50265 0 -0.00200186)
(0.482321 5.28592e-26 -0.00205802)
(0.47774 1.57448e-26 -0.00211599)
(0.469721 2.2867e-26 -0.00218658)
(0.467849 7.63996e-27 -0.00222594)
(0.464427 1.14673e-26 -0.00227056)
(0.463973 0 -0.00229934)
(0.462984 0 -0.00232304)
(0.463091 0 -0.00233608)
(0.463321 1.31685e-27 -0.00236243)
(0.463991 -8.15576e-28 -0.00237268)
(0.464783 -2.86882e-28 -0.00239031)
(0.465929 -8.43382e-29 -0.00240456)
(0.467133 0 -0.0024197)
(0.468609 7.32278e-28 -0.00243135)
(0.470066 0 -0.00244402)
(0.471708 -1.16569e-27 -0.0024608)
(0.473488 2.86176e-27 -0.00247542)
(0.475352 1.63498e-27 -0.00248848)
(0.477302 0 -0.00250175)
(0.479298 0 -0.00251349)
(0.481345 0 -0.00252705)
(0.48347 0 -0.00253562)
(0.485457 0 -0.00253523)
(0.487219 2.20197e-27 -0.00252962)
(0.488746 0 -0.00252355)
(0.49005 0 -0.00251762)
(0.491165 0 -0.00251261)
(0.492099 0 -0.00250804)
(0.492898 -1.108e-27 -0.00250435)
(0.493557 0 -0.00250104)
(0.494125 0 -0.00249845)
(0.494584 0 -0.00249615)
(0.494989 -5.65866e-28 -0.0024944)
(0.495306 -4.78113e-28 -0.00249284)
(0.4956 -4.00459e-28 -0.0024917)
(0.495816 0 -0.00249065)
(0.496035 0 -0.00248993)
(0.496177 2.41769e-28 -0.00248918)
(0.496349 0 -0.00248888)
(0.496439 1.8182e-41 -0.00248821)
(0.496579 0 -0.0024882)
(0.49663 1.22734e-28 -0.0024873)
(0.496742 -1.08418e-28 -0.0024876)
(0.496766 0 -0.00248703)
(0.496878 -7.10374e-29 -0.0024875)
(0.496851 0 -0.00248614)
(0.497002 -2.76708e-29 -0.00248782)
(0.496854 -1.79482e-28 -0.00248406)
(0.497169 -3.89223e-29 -0.0024901)
(0.496731 -1.4271e-31 -0.00248017)
(0.497499 0 -0.00249622)
(0.496314 0 -0.00247091)
(0.49831 5.30595e-28 -0.00252056)
(0.495383 0 -0.00249853)
(0.502233 5.07122e-26 -0.00255434)
(0.493331 0 -0.00922347)
(0.426182 0 -0.0111177)
(0.413596 8.16842e-26 -0.00723272)
(0.418147 0 -0.00490022)
(0.419841 -3.79574e-26 -0.00356238)
(0.42544 0 -0.00296493)
(0.427056 0 -0.0024905)
(0.429464 0 -0.00246819)
(0.431092 0 -0.00220032)
(0.431556 8.01082e-28 -0.00240958)
(0.432361 -4.66456e-27 -0.00206433)
(0.433464 0 -0.00230589)
(0.432106 2.0345e-27 -0.00237563)
(0.431428 1.0971e-26 -0.00212379)
(0.434228 0 -0.00175817)
(0.435319 0 -0.0022285)
(0.43195 -1.65896e-26 -0.00276768)
(0.427633 1.10594e-26 -0.00230394)
(0.435303 0 -0.00100404)
(0.436835 -1.91651e-26 -0.00241342)
(0.431014 0 -0.00263039)
(0.433774 0 -0.00222221)
(0.429103 2.21812e-26 -0.00308381)
(0.425997 0 -0.0023998)
(0.430343 9.34363e-27 -0.0015515)
(0.432051 -8.88591e-28 -0.00179356)
(0.431601 0 -0.00159165)
(0.437265 0 -0.00155311)
(0.432879 0 -0.00313707)
(0.426234 0 -0.00212891)
(0.437337 1.62017e-27 -0.000506897)
(0.441778 -6.81948e-26 -0.0028633)
(0.423176 0 -0.00433129)
(0.425523 -8.06553e-27 -0.000261617)
(0.446546 0 3.98603e-05)
(0.43711 -4.70869e-25 -0.00501906)
(0.413168 9.39114e-26 -0.00390432)
(0.432308 0 0.00138787)
(0.452623 -1.72324e-26 -0.000609398)
(0.432455 3.06257e-29 -0.00545383)
(0.415003 6.2402e-26 -0.00353329)
(0.432551 -4.00268e-26 0.000747244)
(0.447283 -1.0024e-26 -0.000688214)
(0.43754 0 -0.00429039)
(0.423325 0 -0.00383978)
(0.425128 1.23919e-26 -0.00115358)
(0.437671 -7.73691e-28 -0.000583215)
(0.440259 4.06314e-26 -0.00216098)
(0.431682 0 -0.00342827)
(0.427458 0 -0.00273239)
(0.430513 6.71549e-27 -0.00150785)
(0.435165 -1.56211e-27 -0.00135386)
(0.435988 5.08544e-27 -0.00188674)
(0.435326 3.86967e-27 -0.00224325)
(0.434374 -3.0653e-27 -0.00241997)
(0.432959 1.92398e-27 -0.00249737)
(0.431942 3.78373e-31 -0.00244757)
(0.43169 2.41213e-27 -0.00228206)
(0.431911 0 -0.00213735)
(0.432426 0 -0.00212657)
(0.432407 0 -0.00218324)
(0.432223 0 -0.00217696)
(0.432339 0 -0.00212337)
(0.432653 -1.47009e-28 -0.00211739)
(0.432693 0 -0.00215432)
(0.43259 -4.03156e-28 -0.00217374)
(0.432532 0 -0.00216913)
(0.432541 -1.12752e-28 -0.00215868)
(0.432571 5.20275e-29 -0.00215513)
(0.432595 -1.24777e-32 -0.00215341)
(0.432627 -1.22604e-32 -0.00215366)
(0.43264 0 -0.00215591)
(0.432652 -1.63023e-29 -0.00215624)
(0.432667 0 -0.00215758)
(0.432667 0 -0.00216064)
(0.432668 -1.54971e-29 -0.00216109)
(0.432671 -2.0929e-29 -0.00216114)
(0.432658 1.90762e-29 -0.00216205)
(0.432659 0 -0.00216276)
(0.432663 0 -0.00216308)
(0.432663 -1.3281e-29 -0.00216266)
(0.432664 1.03695e-33 -0.00216268)
(0.43266 -5.74905e-30 -0.00216212)
(0.432666 -5.25101e-33 -0.0021614)
(0.432666 0 -0.00216229)
(0.432669 0 -0.00216052)
(0.432682 -5.13484e-29 -0.00216122)
(0.432674 0 -0.00216315)
(0.432679 -1.92767e-29 -0.00216084)
(0.432685 4.71174e-29 -0.00216307)
(0.432665 0 -0.00216173)
(0.432702 1.18336e-28 -0.00215655)
(0.432712 0 -0.00216383)
(0.432671 0 -0.00216622)
(0.432692 0 -0.0021569)
(0.432733 9.39811e-30 -0.00215771)
(0.432732 0 -0.00216397)
(0.43271 7.06095e-29 -0.00216653)
(0.432694 0 -0.00216284)
(0.43273 9.75731e-29 -0.00215466)
(0.432771 -5.37229e-29 -0.00215845)
(0.432735 0 -0.00216845)
(0.432705 -7.14872e-29 -0.0021635)
(0.432756 8.75325e-29 -0.00215494)
(0.432778 -2.52856e-29 -0.00216078)
(0.432746 0 -0.00216552)
(0.432746 0 -0.0021611)
(0.432768 1.07288e-32 -0.00215935)
(0.432773 0 -0.00216202)
(0.432764 -3.24502e-29 -0.00216416)
(0.432761 0 -0.00215924)
(0.432809 -5.46388e-29 -0.00215561)
(0.432809 1.8435e-32 -0.00216444)
(0.432764 -3.05745e-29 -0.00216561)
(0.432803 1.11915e-28 -0.00215443)
(0.432854 0 -0.00215932)
(0.432796 1.75196e-28 -0.0021725)
(0.432763 2.08221e-28 -0.00215686)
(0.432886 0 -0.00214966)
(0.432832 0 -0.00217678)
(0.432774 0 -0.002151)
(0.432947 4.84806e-29 -0.00215578)
(0.432757 0 -0.00218273)
(0.432842 0 -0.00213337)
(0.432985 0 -0.00217743)
(0.432677 0 -0.00217161)
(0.433043 -4.31521e-28 -0.00211125)
(0.433005 0 -0.0022209)
(0.432461 6.09876e-28 -0.00216747)
(0.433213 6.83168e-31 -0.0020619)
(0.43317 6.25017e-31 -0.0022534)
(0.432224 6.28649e-28 -0.00219743)
(0.433288 -2.6697e-27 -0.00201246)
(0.433373 0 -0.00226405)
(0.432044 0 -0.00223368)
(0.433301 0 -0.00196548)
(0.433634 0 -0.00225997)
(0.431913 7.47556e-29 -0.00229433)
(0.433111 0 -0.00193746)
(0.433918 6.09198e-27 -0.00220636)
(0.432168 0 -0.00233875)
(0.432745 0 -0.00199162)
(0.433802 1.2432e-27 -0.00214067)
(0.432609 -1.52761e-27 -0.00228686)
(0.432878 0 -0.00205939)
(0.433465 1.53929e-27 -0.00219154)
(0.432432 5.34187e-29 -0.00223098)
(0.433258 5.22603e-27 -0.00200537)
(0.433708 0 -0.00223179)
(0.432233 -2.57374e-28 -0.00229475)
(0.433027 0 -0.00198291)
(0.43387 1.92559e-27 -0.00216993)
(0.432556 -1.16844e-27 -0.00228977)
(0.433009 0 -0.00203343)
(0.433672 0 -0.00219595)
(0.432441 0 -0.00226913)
(0.43314 0 -0.00199948)
(0.433875 -2.06621e-27 -0.00218847)
(0.432535 0 -0.00229626)
(0.433017 2.64029e-27 -0.00202778)
(0.433743 0 -0.00219568)
(0.432459 0 -0.00229036)
(0.433001 2.72937e-27 -0.00201408)
(0.433794 2.42654e-31 -0.00218077)
(0.432521 0 -0.00228662)
(0.433034 0 -0.0020132)
(0.433849 0 -0.00217701)
(0.432575 -9.55339e-28 -0.00228917)
(0.43305 2.66913e-27 -0.00201541)
(0.433887 -1.59965e-27 -0.00217441)
(0.432621 0 -0.00229089)
(0.433067 -2.64656e-27 -0.00201696)
(0.433925 0 -0.00217221)
(0.432662 -1.06176e-27 -0.00229316)
(0.433082 0 -0.00201781)
(0.433967 -2.91757e-27 -0.00216897)
(0.432708 1.15034e-27 -0.002296)
(0.433093 0 -0.00201964)
(0.434005 0 -0.00216525)
(0.432756 0 -0.00229808)
(0.433107 -2.62539e-27 -0.00202204)
(0.434039 1.2727e-27 -0.00216194)
(0.432804 1.30773e-27 -0.00229945)
(0.433125 0 -0.0020242)
(0.434075 1.20187e-27 -0.00215956)
(0.432845 0 -0.00230124)
(0.433145 2.58945e-27 -0.00202572)
(0.43411 -2.27875e-27 -0.00215716)
(0.43289 0 -0.00230249)
(0.433164 0 -0.00202918)
(0.434139 1.03127e-27 -0.00215296)
(0.432948 -1.4696e-27 -0.00230484)
(0.433156 -2.49956e-27 -0.00203214)
(0.434202 -1.76773e-27 -0.00214627)
(0.432966 1.59562e-27 -0.00231292)
(0.433176 0 -0.00202605)
(0.434238 1.03609e-27 -0.00215327)
(0.432966 1.48504e-27 -0.00230585)
(0.43329 0 -0.00203471)
(0.434155 -2.01606e-27 -0.00215189)
(0.433161 -7.23767e-31 -0.00229099)
(0.433149 0 -0.00206949)
(0.434344 -3.19663e-28 -0.00210271)
(0.433147 -1.12228e-30 -0.00233655)
(0.433059 -3.94172e-27 -0.00203718)
(0.434408 -6.93314e-32 -0.00213599)
(0.433033 0 -0.00230729)
(0.43348 0 -0.00206532)
(0.433826 0 -0.00215135)
(0.43387 5.2342e-28 -0.00218615)
(0.433069 0 -0.00223551)
(0.433696 1.78596e-27 -0.00206395)
(0.433782 0 -0.00221787)
(0.43351 0 -0.00212829)
(0.433799 0 -0.00220982)
(0.433334 6.06852e-28 -0.00217328)
(0.433709 0 -0.00213141)
(0.433667 2.70572e-28 -0.00213625)
(0.434033 0 -0.00218887)
(0.43311 0 -0.0022632)
(0.433594 5.76299e-31 -0.00208753)
(0.433805 0 -0.00212851)
(0.434292 -2.72458e-31 -0.00215038)
(0.433102 1.07582e-27 -0.00229495)
(0.433616 0 -0.00208344)
(0.43352 0 -0.00218813)
(0.434141 -1.19882e-28 -0.00210519)
(0.433349 -8.08199e-28 -0.00227207)
(0.433804 0 -0.00211526)
(0.433225 0 -0.00224593)
(0.433832 -7.803e-31 -0.00209026)
(0.433344 5.91775e-28 -0.00224574)
(0.433667 -1.16441e-27 -0.00211406)
(0.433323 0 -0.00209343)
(0.433882 1.14126e-26 -0.00239717)
(0.425126 0 -0.000332785)
(0.457496 0 0.00961694)
(0.531561 3.93707e-25 0.0106222)
(0.525374 0 -0.000763263)
(0.502461 2.84715e-26 -0.00214074)
(0.502758 0 -0.00242484)
(0.678356 0 0.0170687)
(0.660851 0 0.00573793)
(0.604232 0 0.000174282)
(0.586456 0 -0.00170087)
(0.557912 5.31612e-26 -0.00193914)
(0.549727 2.07272e-26 -0.00219593)
(0.538611 3.05038e-26 -0.00234056)
(0.535181 1.05974e-26 -0.00244737)
(0.530494 1.63572e-26 -0.00252741)
(0.529281 5.91512e-27 -0.00258768)
(0.527579 0 -0.00262512)
(0.527311 0 -0.0026566)
(0.527245 2.26302e-27 -0.00269477)
(0.527689 -1.89819e-27 -0.00271233)
(0.528371 0 -0.00274051)
(0.529437 8.06058e-28 -0.00276099)
(0.530631 0 -0.00278313)
(0.532147 0 -0.00279944)
(0.533674 0 -0.00281593)
(0.535405 -4.69575e-28 -0.00283882)
(0.537302 1.55635e-27 -0.00285829)
(0.539305 1.0245e-27 -0.00287514)
(0.541414 0 -0.00289182)
(0.543585 1.43163e-27 -0.00290625)
(0.545828 1.67743e-27 -0.0029233)
(0.54815 1.90711e-27 -0.00293163)
(0.550298 -1.97021e-27 -0.00292567)
(0.552206 1.88952e-27 -0.0029127)
(0.553868 1.72856e-27 -0.00289944)
(0.555295 1.54412e-27 -0.00288689)
(0.556522 0 -0.00287604)
(0.557556 0 -0.00286634)
(0.558443 1.01596e-27 -0.00285825)
(0.559177 0 -0.00285117)
(0.559812 0 -0.0028454)
(0.560327 0 -0.00284043)
(0.560782 0 -0.00283641)
(0.561139 -4.47837e-28 -0.00283302)
(0.561469 -3.75779e-28 -0.00283028)
(0.561714 0 -0.00282798)
(0.56196 0 -0.00282612)
(0.562122 2.2556e-28 -0.00282454)
(0.562314 1.90767e-28 -0.00282348)
(0.562418 -5.56653e-41 -0.00282221)
(0.562573 0 -0.00282169)
(0.562633 1.15377e-28 -0.00282018)
(0.562757 -9.83513e-29 -0.00282028)
(0.562788 0 -0.00281935)
(0.562908 -6.45305e-29 -0.00281959)
(0.562888 -7.24227e-29 -0.00281785)
(0.563039 -2.54827e-29 -0.00281927)
(0.562903 1.13158e-36 -0.00281531)
(0.563209 0 -0.00282137)