/*--------------------------------*- C++ -*----------------------------------*\
| =========                 |                                                 |
| \\      /  F ield         | foam-extend: Open Source CFD                    |
|  \\    /   O peration     | Version:     3.2                                |
|   \\  /    A nd           | Web:         http://www.foam-extend.org         |
|    \\/     M anipulation  | For copyright notice see file Copyright         |
\*---------------------------------------------------------------------------*/
FoamFile
{
    version     2.0;
    format      ascii;
    class       areaVectorField;
    location    "50";
    object      Ub2;
}
// * * * * * * * * * * * * * * * * * * * * * * * * * * * * * * * * * * * * * //

dimensions      [0 1 -1 0 0 0 0];

internalField   nonuniform List<vector> 
300
(
(0.823508 -1.3604e-25 -0.00411754)
(0.629333 1.99556e-25 -0.00314666)
(0.521588 7.73464e-26 -0.00260794)
(0.522683 0 -0.00261341)
(0.512267 -5.4137e-23 -0.00256133)
(0.512248 -1.38738e-23 -0.00256124)
(0.507149 -2.02124e-23 -0.00253574)
(0.506906 -4.13149e-24 -0.00253453)
(0.505078 0 -0.00252539)
(0.505772 -3.40457e-24 -0.00252886)
(0.505938 0 -0.00252969)
(0.507128 4.61242e-24 -0.00253564)
(0.508327 -5.61359e-28 -0.00254163)
(0.510225 6.02008e-24 -0.00255112)
(0.512004 0 -0.00256002)
(0.514248 0 -0.00257124)
(0.516529 6.87741e-24 -0.00258265)
(0.519079 -6.43034e-24 -0.00259539)
(0.521605 7.05766e-24 -0.00260803)
(0.524367 0 -0.00262184)
(0.527272 0 -0.00263636)
(0.530257 -7.27549e-24 -0.00265129)
(0.533321 0 -0.0026666)
(0.536417 0 -0.00268208)
(0.53954 0 -0.0026977)
(0.542695 -6.57743e-24 -0.00271347)
(0.545634 -2.51113e-27 -0.00272817)
(0.548198 0 -0.00274099)
(0.550361 0 -0.00275181)
(0.552169 -2.70328e-24 -0.00276085)
(0.553678 -1.4106e-27 -0.00276839)
(0.554927 0 -0.00277463)
(0.555971 0 -0.00277985)
(0.556828 0 -0.00278414)
(0.557551 -7.11018e-28 -0.00278776)
(0.558139 0 -0.0027907)
(0.558645 0 -0.00279322)
(0.559048 -4.20638e-28 -0.00279524)
(0.559408 0 -0.00279704)
(0.559685 0 -0.00279843)
(0.55995 0 -0.00279975)
(0.560137 -1.93186e-25 -0.00280068)
(0.56034 0 -0.0028017)
(0.560465 -1.21246e-25 -0.00280232)
(0.560627 1.3841e-28 -0.00280314)
(0.560702 0 -0.00280351)
(0.560835 -1.82794e-25 -0.00280418)
(0.560864 0 -0.00280432)
(0.561018 -2.59881e-25 -0.00280509)
(0.560952 0 -0.00280476)
(0.561211 6.97768e-29 -0.00280605)
(0.560917 1.08818e-24 -0.00280459)
(0.56148 -9.70612e-29 -0.0028074)
(0.560658 2.96337e-24 -0.00280329)
(0.562057 0 -0.00281029)
(0.559855 0 -0.00279927)
(0.563494 -1.31868e-23 -0.00281747)
(0.558026 0 -0.00279013)
(0.5689 0 -0.0028445)
(0.549005 5.45451e-25 -0.0133832)
(0.452635 0 -0.0142034)
(0.445699 -5.82115e-22 -0.00742281)
(0.454648 0 -0.00509886)
(0.456461 0 -0.00348154)
(0.463069 0 -0.003073)
(0.463921 -1.50906e-23 -0.00251964)
(0.466037 0 -0.00263141)
(0.467294 0 -0.00227002)
(0.467406 0 -0.00264209)
(0.467722 0 -0.00212157)
(0.469382 0 -0.00255959)
(0.466541 -2.10478e-27 -0.00262256)
(0.465519 2.67492e-24 -0.0022278)
(0.469022 -1.41202e-23 -0.0017437)
(0.470546 0 -0.00253219)
(0.465823 -1.87766e-26 -0.00324543)
(0.459098 -1.16517e-23 -0.0023639)
(0.470299 0 -0.000674509)
(0.472667 0 -0.00289154)
(0.462402 1.75023e-23 -0.00289559)
(0.468817 0 -0.00241084)
(0.461732 0 -0.00365884)
(0.456639 1.17058e-26 -0.00244442)
(0.463942 0 -0.00147068)
(0.464463 0 -0.00193618)
(0.463198 1.39811e-23 -0.00152896)
(0.472843 0 -0.00159372)
(0.466248 1.21792e-22 -0.00389518)
(0.454697 7.36617e-24 -0.00203029)
(0.47348 4.17769e-24 0.000118189)
(0.481005 0 -0.00377596)
(0.449926 2.08083e-22 -0.00525055)
(0.454382 0 0.000765687)
(0.489309 0 0.00038652)
(0.473114 0 -0.00683353)
(0.436191 -7.59265e-23 -0.00415444)
(0.467467 1.38352e-25 0.00314026)
(0.497557 7.25501e-25 -0.00096132)
(0.463379 5.01818e-22 -0.00730357)
(0.441364 2.48858e-23 -0.00346839)
(0.46998 -1.08103e-22 0.00201736)
(0.486445 0 -0.000841953)
(0.469601 0 -0.00546685)
(0.453792 -2.57939e-23 -0.00441739)
(0.456852 0 -0.000672732)
(0.473051 0 -0.000134094)
(0.475849 1.64687e-23 -0.00267441)
(0.463615 0 -0.00410059)
(0.459523 0 -0.00287835)
(0.464207 2.6405e-24 -0.00136369)
(0.468906 -4.88834e-24 -0.00132)
(0.46977 -9.70026e-24 -0.00205235)
(0.469281 -2.94804e-27 -0.00246732)
(0.468373 -6.4961e-26 -0.00268485)
(0.466746 0 -0.00276212)
(0.465627 6.92526e-25 -0.00267268)
(0.465163 0 -0.00245287)
(0.465366 0 -0.00227865)
(0.465863 0 -0.00227624)
(0.46579 1.44602e-24 -0.00236346)
(0.465487 4.38737e-25 -0.00234623)
(0.465692 5.39514e-28 -0.002271)
(0.466049 -3.86113e-25 -0.00227112)
(0.466085 3.94891e-28 -0.00232469)
(0.465955 3.91441e-26 -0.00234647)
(0.465906 -1.55891e-25 -0.00233728)
(0.465921 0 -0.00232387)
(0.465949 8.24273e-29 -0.00231974)
(0.465978 -1.64398e-26 -0.00231783)
(0.466013 -4.86259e-29 -0.00231857)
(0.466028 0 -0.00232168)
(0.466042 5.21168e-26 -0.00232195)
(0.466062 4.73636e-26 -0.00232392)
(0.466062 2.84299e-27 -0.00232764)
(0.466069 0 -0.00232755)
(0.466082 0 -0.00232846)
(0.466058 0 -0.00232962)
(0.466058 0 -0.00232939)
(0.466069 0 -0.0023296)
(0.466072 0 -0.00232931)
(0.466073 0 -0.00232985)
(0.466066 0 -0.00232913)
(0.466076 4.28845e-27 -0.00232794)
(0.466079 -1.56808e-26 -0.00232927)
(0.466083 0 -0.00232695)
(0.466102 -8.93107e-26 -0.00232806)
(0.466094 0 -0.00233053)
(0.466095 0 -0.00232722)
(0.466096 1.00234e-25 -0.00233082)
(0.466071 0 -0.00232796)
(0.466121 0 -0.0023212)
(0.466134 1.83008e-25 -0.00233274)
(0.466072 -1.10162e-25 -0.00233411)
(0.466116 1.20509e-28 -0.0023208)
(0.466169 3.71339e-26 -0.00232339)
(0.466163 -5.22218e-26 -0.00233226)
(0.466136 9.03627e-26 -0.00233515)
(0.466111 0 -0.00232901)
(0.466161 -1.73399e-25 -0.00231831)
(0.466219 0 -0.00232556)
(0.466164 0 -0.00233872)
(0.466118 1.07018e-28 -0.00232932)
(0.466201 2.47919e-25 -0.00231854)
(0.466228 0 -0.00232899)
(0.46617 0 -0.00233417)
(0.466179 5.67033e-29 -0.00232678)
(0.466212 -2.48603e-26 -0.00232534)
(0.466216 7.91295e-27 -0.00232948)
(0.466201 0 -0.00233195)
(0.466192 0 -0.00232433)
(0.466265 0 -0.00232039)
(0.466261 2.58355e-25 -0.00233402)
(0.466189 1.32967e-25 -0.00233301)
(0.466249 1.34952e-28 -0.0023172)
(0.46633 0 -0.00232707)
(0.466236 1.69141e-28 -0.00234442)
(0.466165 0 -0.00231941)
(0.466391 0 -0.00231285)
(0.466282 0 -0.00235123)
(0.466175 8.19386e-25 -0.00231076)
(0.466513 0 -0.00232326)
(0.466135 -4.79477e-29 -0.00235892)
(0.466291 1.95658e-24 -0.00228504)
(0.466545 0 -0.00235642)
(0.465946 0 -0.00233666)
(0.466656 -3.52339e-24 -0.00225775)
(0.46657 4.30099e-24 -0.00242352)
(0.465535 0 -0.00232183)
(0.466976 0 -0.00218785)
(0.466843 -6.70451e-24 -0.00248028)
(0.465106 0 -0.00235512)
(0.467123 5.21969e-28 -0.00211068)
(0.467177 -9.51685e-24 -0.00251011)
(0.46479 -1.41783e-27 -0.00240005)
(0.467129 0 -0.00204256)
(0.467618 -8.1677e-24 -0.00251028)
(0.464605 5.96055e-28 -0.00248462)
(0.466762 -3.70558e-27 -0.00199116)
(0.468229 0 -0.00243813)
(0.464865 8.18658e-24 -0.00256426)
(0.466119 0 -0.00206049)
(0.468041 2.19241e-27 -0.00232998)
(0.465586 0 -0.00250489)
(0.466315 0 -0.00216802)
(0.467347 3.72924e-24 -0.00239126)
(0.465456 3.66198e-24 -0.00241135)
(0.466912 9.56996e-24 -0.00209854)
(0.467728 3.01307e-27 -0.00246045)
(0.465107 -5.67892e-24 -0.00249551)
(0.466553 0 -0.00205604)
(0.468095 -4.50407e-24 -0.00237529)
(0.465475 0 -0.00250247)
(0.466508 -2.33439e-27 -0.00212947)
(0.467732 0 -0.00240308)
(0.465393 -1.79425e-29 -0.00246637)
(0.466685 0 -0.00208191)
(0.46808 0 -0.00239884)
(0.465454 0 -0.00250828)
(0.466516 0 -0.00211925)
(0.467897 -4.73728e-24 -0.0024032)
(0.465381 -6.43235e-24 -0.00249793)
(0.466479 -1.09731e-23 -0.00210019)
(0.467972 0 -0.00238474)
(0.465443 0 -0.00249566)
(0.466504 -1.09272e-23 -0.00209909)
(0.468046 0 -0.00237967)
(0.465509 -3.36337e-28 -0.00250038)
(0.466514 0 -0.00210174)
(0.468102 0 -0.0023755)
(0.465571 0 -0.00250351)
(0.466529 -1.07741e-23 -0.00210347)
(0.468159 -3.60022e-24 -0.00237205)
(0.465628 0 -0.00250734)
(0.46654 -1.07268e-23 -0.00210405)
(0.468223 0 -0.00236725)
(0.465691 7.36809e-24 -0.00251214)
(0.466546 0 -0.00210603)
(0.46828 0 -0.00236162)
(0.465762 0 -0.00251583)
(0.466558 0 -0.00210901)
(0.468331 2.68597e-24 -0.00235652)
(0.465833 4.6061e-28 -0.00251841)
(0.466577 1.04195e-23 -0.00211171)
(0.468384 -2.43076e-24 -0.00235285)
(0.465895 7.89423e-24 -0.00252146)
(0.4666 -2.61291e-27 -0.00211339)
(0.468436 -2.20769e-24 -0.00234921)
(0.465962 8.00902e-24 -0.00252383)
(0.466622 0 -0.00211756)
(0.468476 0 -0.00234298)
(0.466057 -8.25273e-24 -0.00252819)
(0.466599 0 -0.00212069)
(0.468584 2.09493e-27 -0.00233366)
(0.466077 9.14274e-24 -0.00254086)
(0.466629 1.06375e-23 -0.00211173)
(0.468646 2.22493e-24 -0.00234364)
(0.466062 0 -0.00252893)
(0.466817 0 -0.00212432)
(0.468459 2.03964e-27 -0.00234083)
(0.466418 1.42425e-28 -0.00251426)
(0.466565 7.79754e-24 -0.00216771)
(0.468712 0 -0.00227102)
(0.466459 1.23599e-23 -0.00258677)
(0.466423 0 -0.00211683)
(0.46897 -1.68531e-24 -0.00231742)
(0.466119 -8.87275e-24 -0.00253495)
(0.467168 9.62957e-24 -0.00216838)
(0.467735 0 -0.00232725)
(0.467623 -5.92498e-28 -0.00236959)
(0.466597 0 -0.00243022)
(0.467495 6.94827e-24 -0.00217635)
(0.467635 -5.85785e-24 -0.00242182)
(0.467119 -1.30968e-27 -0.00227452)
(0.467743 -1.14735e-27 -0.00240168)
(0.466789 -1.24203e-24 -0.00233857)
(0.467593 -9.29414e-25 -0.00228402)
(0.467406 3.54351e-28 -0.00229355)
(0.468162 0 -0.00237651)
(0.466503 0 -0.00246779)
(0.467357 0 -0.00220229)
(0.467651 0 -0.00229048)
(0.468343 -9.83764e-28 -0.00232806)
(0.466567 8.95652e-24 -0.00252074)
(0.467423 -1.38116e-27 -0.00219472)
(0.467359 7.85827e-24 -0.00237488)
(0.467992 0 -0.00224747)
(0.46702 -9.05431e-24 -0.00249236)
(0.467554 0 -0.00224694)
(0.466957 6.53939e-28 -0.00245464)
(0.467633 9.52143e-28 -0.00221245)
(0.467083 0 -0.00246367)
(0.467484 0 -0.00224252)
(0.466903 8.17702e-24 -0.00228493)
(0.468107 -8.74006e-27 -0.00278775)
(0.458596 0 0.000562105)
(0.512052 0 0.0146715)
(0.612776 -1.99536e-22 0.0143235)
(0.588848 0 -0.00294424)
(0.552645 1.76434e-26 -0.00276323)
(0.560498 -4.77743e-27 -0.00280249)
)
;

boundaryField
{
    inlet
    {
        type            calculated;
        value           uniform (0 0 0);
    }
    outlet
    {
        type            calculated;
        value           uniform (0 0 0);
    }
    sideWall
    {
        type            empty;
    }
}


// ************************************************************************* //
