/*--------------------------------*- C++ -*----------------------------------*\
| =========                 |                                                 |
| \\      /  F ield         | foam-extend: Open Source CFD                    |
|  \\    /   O peration     | Version:     3.2                                |
|   \\  /    A nd           | Web:         http://www.foam-extend.org         |
|    \\/     M anipulation  | For copyright notice see file Copyright         |
\*---------------------------------------------------------------------------*/
FoamFile
{
    version     2.0;
    format      ascii;
    class       areaScalarField;
    location    "50";
    object      Uf;
}
// * * * * * * * * * * * * * * * * * * * * * * * * * * * * * * * * * * * * * //

dimensions      [0 1 -1 0 0 0 0];

internalField   nonuniform List<scalar> 
300
(
0.0970037
0.0775539
0.0667784
0.0668879
0.0658463
0.0658444
0.0653345
0.0653102
0.0651274
0.0651968
0.0652134
0.0653324
0.0654523
0.0656421
0.06582
0.0660444
0.0662725
0.0665275
0.0667801
0.0670563
0.0673469
0.0676454
0.0679517
0.0682613
0.0685736
0.0688891
0.0691831
0.0694395
0.0696558
0.0698366
0.0699874
0.0701123
0.0702167
0.0703025
0.0703748
0.0704336
0.0704841
0.0705245
0.0705605
0.0705882
0.0706146
0.0706334
0.0706537
0.0706662
0.0706824
0.0706899
0.0707032
0.0707061
0.0707215
0.0707149
0.0707407
0.0707114
0.0707677
0.0706854
0.0708254
0.0706051
0.0709691
0.0704223
0.0715097
0.0693129
0.0596004
0.0590639
0.0600177
0.0602385
0.0609102
0.0610087
0.0612179
0.0613524
0.0613547
0.0613987
0.061555
0.0612687
0.0611755
0.0615375
0.0616722
0.0611832
0.0605288
0.0616894
0.061877
0.060848
0.0615016
0.0607636
0.0602813
0.0610349
0.0610769
0.060959
0.0619237
0.0612116
0.0600957
0.0620256
0.0626943
0.0595426
0.0601291
0.0636147
0.0618367
0.0581909
0.0614916
0.0644124
0.06085
0.0587243
0.061717
0.0633026
0.0615146
0.0599491
0.0603414
0.0619787
0.0622005
0.0609418
0.0605599
0.0610637
0.0615361
0.0616055
0.0615468
0.061451
0.0612861
0.061176
0.0611347
0.0611591
0.061209
0.0611997
0.0611698
0.0611919
0.0612277
0.0612301
0.0612165
0.0612119
0.0612136
0.0612166
0.0612195
0.061223
0.0612245
0.0612259
0.0612278
0.0612277
0.0612284
0.0612297
0.0612273
0.0612272
0.0612283
0.0612286
0.0612288
0.0612281
0.0612291
0.0612294
0.0612298
0.0612317
0.0612308
0.061231
0.0612311
0.0612286
0.0612338
0.0612348
0.0612286
0.0612333
0.0612385
0.0612377
0.0612349
0.0612326
0.0612379
0.0612434
0.0612377
0.0612332
0.0612419
0.0612443
0.0612384
0.0612395
0.0612428
0.0612431
0.0612415
0.0612408
0.0612482
0.0612475
0.0612403
0.0612466
0.0612546
0.0612447
0.0612382
0.0612611
0.0612492
0.0612394
0.061273
0.0612343
0.0612516
0.0612754
0.0612159
0.0612888
0.0612764
0.061175
0.0613224
0.0613024
0.0611313
0.0613389
0.0613353
0.0610986
0.061341
0.0613795
0.0610782
0.0613053
0.0614424
0.0611025
0.0612393
0.0614259
0.0611761
0.0612566
0.0613549
0.0611651
0.0613179
0.0613917
0.0611281
0.0612829
0.0614304
0.0611649
0.0612767
0.0613934
0.0611575
0.0612955
0.0614284
0.0611627
0.0612778
0.0614099
0.0611556
0.0612746
0.0614178
0.0611619
0.0612771
0.0614253
0.0611684
0.061278
0.061431
0.0611746
0.0612795
0.0614367
0.0611802
0.0612806
0.0614433
0.0611864
0.0612812
0.0614492
0.0611934
0.0612822
0.0614544
0.0612005
0.0612841
0.0614597
0.0612066
0.0612864
0.061465
0.0612133
0.0612885
0.0614691
0.0612226
0.0612862
0.0614802
0.0612244
0.0612893
0.0614862
0.0612231
0.0613079
0.0614675
0.0612591
0.0612817
0.0614944
0.0612616
0.0612687
0.0615192
0.0612288
0.061342
0.0613952
0.0613833
0.0612789
0.0613747
0.0613831
0.0613349
0.0613943
0.0613004
0.061382
0.0613631
0.061437
0.0612687
0.0613603
0.0613876
0.0614563
0.0612739
0.0613671
0.0613564
0.061423
0.0613198
0.0613791
0.0613143
0.0613879
0.0613268
0.0613722
0.061313
0.0614216
0.060551
0.0662197
0.0762296
0.0735046
0.0698842
0.0706695
)
;

boundaryField
{
    inlet
    {
        type            calculated;
        value           uniform 0;
    }
    outlet
    {
        type            calculated;
        value           uniform 0;
    }
    sideWall
    {
        type            empty;
    }
}


// ************************************************************************* //
