/*--------------------------------*- C++ -*----------------------------------*\
| =========                 |                                                 |
| \\      /  F ield         | foam-extend: Open Source CFD                    |
|  \\    /   O peration     | Version:     3.2                                |
|   \\  /    A nd           | Web:         http://www.foam-extend.org         |
|    \\/     M anipulation  | For copyright notice see file Copyright         |
\*---------------------------------------------------------------------------*/
FoamFile
{
    version     2.0;
    format      ascii;
    class       areaScalarField;
    location    "50";
    object      Uf2;
}
// * * * * * * * * * * * * * * * * * * * * * * * * * * * * * * * * * * * * * //

dimensions      [0 1 -1 0 0 0 0];

internalField   nonuniform List<scalar> 
300
(
0.0346375
0.0224627
0.0192001
0.0196806
0.0193
0.019343
0.019156
0.0191639
0.0190932
0.0191181
0.0191135
0.0191466
0.019174
0.019229
0.0192739
0.0193372
0.0193992
0.0194704
0.0195393
0.0196175
0.0196999
0.0197848
0.0198723
0.0199612
0.0200512
0.0201433
0.0202295
0.0203048
0.0203682
0.0204213
0.0204657
0.0205024
0.0205332
0.0205585
0.0205798
0.0205972
0.0206121
0.020624
0.0206347
0.0206427
0.0206507
0.020656
0.0206623
0.0206657
0.0206708
0.0206726
0.0206771
0.0206775
0.0206831
0.0206794
0.0206899
0.0206766
0.0207006
0.0206644
0.0207249
0.0206289
0.0207865
0.0205472
0.021001
0.0201238
0.0162714
0.0168183
0.0174034
0.0175228
0.0178293
0.0178568
0.0179455
0.0179929
0.017995
0.0180116
0.018086
0.0179624
0.0179376
0.0180835
0.0181356
0.0179535
0.0176775
0.0181636
0.0182303
0.0177885
0.0181117
0.0178128
0.0176296
0.0179542
0.0179395
0.0178628
0.0182691
0.0179787
0.0174846
0.0183038
0.0185989
0.017241
0.0175188
0.0189446
0.0182241
0.0166937
0.018093
0.0192544
0.0177666
0.0169388
0.0182088
0.0187784
0.0180466
0.0174609
0.0176282
0.0183083
0.0183359
0.0178182
0.0177259
0.0179331
0.0180998
0.0180978
0.0180681
0.0180393
0.017981
0.0179492
0.0179405
0.0179519
0.0179715
0.0179664
0.017954
0.0179628
0.0179769
0.017976
0.0179702
0.017969
0.0179699
0.0179709
0.0179717
0.0179726
0.017973
0.0179733
0.017974
0.0179737
0.0179737
0.0179744
0.0179731
0.0179728
0.0179737
0.0179741
0.0179741
0.0179738
0.0179741
0.0179742
0.0179742
0.017975
0.0179748
0.0179749
0.0179747
0.0179736
0.0179759
0.0179762
0.0179733
0.0179751
0.0179771
0.0179767
0.0179754
0.0179746
0.0179765
0.0179787
0.0179763
0.0179744
0.0179779
0.0179788
0.0179763
0.0179768
0.017978
0.017978
0.0179771
0.0179767
0.0179799
0.0179793
0.0179762
0.0179787
0.017982
0.0179778
0.0179747
0.0179849
0.0179792
0.0179747
0.0179897
0.0179722
0.0179799
0.01799
0.0179634
0.0179959
0.0179902
0.0179454
0.0180106
0.0180003
0.0179262
0.0180178
0.0180137
0.0179112
0.0180175
0.0180324
0.0179028
0.0180007
0.0180612
0.0179108
0.0179728
0.0180524
0.0179418
0.0179798
0.018022
0.017938
0.018004
0.0180379
0.017921
0.0179892
0.0180532
0.0179356
0.0179863
0.0180389
0.0179319
0.0179931
0.0180517
0.0179339
0.0179862
0.0180449
0.0179317
0.0179851
0.0180479
0.0179342
0.0179855
0.0180504
0.0179364
0.0179854
0.0180521
0.0179385
0.0179854
0.0180539
0.0179404
0.0179854
0.0180561
0.0179425
0.0179852
0.018058
0.0179449
0.0179852
0.0180596
0.0179473
0.0179855
0.0180613
0.0179493
0.0179859
0.018063
0.0179516
0.0179864
0.0180642
0.017955
0.017985
0.0180687
0.017955
0.0179859
0.0180709
0.017954
0.0179934
0.0180616
0.0179694
0.0179817
0.0180731
0.0179703
0.0179755
0.0180844
0.0179545
0.0180077
0.0180276
0.0180244
0.0179785
0.0180204
0.0180223
0.0180012
0.0180286
0.0179873
0.0180232
0.0180119
0.0180468
0.0179731
0.0180147
0.0180226
0.0180527
0.0179746
0.018018
0.0180113
0.0180385
0.0179935
0.0180219
0.0179949
0.0180269
0.0179998
0.0180205
0.0179945
0.0180454
0.0177111
0.0199802
0.0233287
0.0216766
0.0202711
0.0207452
)
;

boundaryField
{
    inlet
    {
        type            calculated;
        value           uniform 0;
    }
    outlet
    {
        type            calculated;
        value           uniform 0;
    }
    sideWall
    {
        type            empty;
    }
}


// ************************************************************************* //
