/*--------------------------------*- C++ -*----------------------------------*\
| =========                 |                                                 |
| \\      /  F ield         | foam-extend: Open Source CFD                    |
|  \\    /   O peration     | Version:     3.2                                |
|   \\  /    A nd           | Web:         http://www.foam-extend.org         |
|    \\/     M anipulation  | For copyright notice see file Copyright         |
\*---------------------------------------------------------------------------*/
FoamFile
{
    version     2.0;
    format      ascii;
    class       areaVectorField;
    location    "50";
    object      uNormal;
}
// * * * * * * * * * * * * * * * * * * * * * * * * * * * * * * * * * * * * * //

dimensions      [0 0 0 0 0 0 0];

internalField   nonuniform List<vector> 
300
(
(0.00499994 -0 0.999988)
(0.00499994 -0 0.999988)
(0.00499994 -0 0.999988)
(0.00499994 -0 0.999988)
(0.00499994 -4.23511e-19 0.999988)
(0.00499994 -4.23511e-19 0.999988)
(0.00499994 -4.23511e-19 0.999988)
(0.00499994 -4.23511e-19 0.999988)
(0.00499994 -0 0.999988)
(0.00499994 -4.23511e-19 0.999988)
(0.00499994 -0 0.999988)
(0.00499994 4.23511e-19 0.999988)
(0.00499994 -0 0.999988)
(0.00499994 4.23511e-19 0.999988)
(0.00499994 -0 0.999988)
(0.00499994 -0 0.999988)
(0.00499994 4.23511e-19 0.999988)
(0.00499994 -4.23511e-19 0.999988)
(0.00499994 4.23511e-19 0.999988)
(0.00499994 -0 0.999988)
(0.00499994 -0 0.999988)
(0.00499994 -4.23511e-19 0.999988)
(0.00499994 -0 0.999988)
(0.00499994 -0 0.999988)
(0.00499994 -0 0.999988)
(0.00499994 -4.23511e-19 0.999988)
(0.00499994 -0 0.999988)
(0.00499994 -0 0.999988)
(0.00499994 -0 0.999988)
(0.00499994 -4.23511e-19 0.999988)
(0.00499994 -0 0.999988)
(0.00499994 -0 0.999988)
(0.00499994 -0 0.999988)
(0.00499994 -0 0.999988)
(0.00499994 -0 0.999988)
(0.00499994 -0 0.999988)
(0.00499994 -0 0.999988)
(0.00499994 -0 0.999988)
(0.00499994 -0 0.999988)
(0.00499994 -0 0.999988)
(0.00499994 -0 0.999988)
(0.00499994 -4.23511e-19 0.999988)
(0.00499994 -0 0.999988)
(0.00499994 -4.23511e-19 0.999988)
(0.00499994 -0 0.999988)
(0.00499994 -0 0.999988)
(0.00499994 -4.23511e-19 0.999988)
(0.00499994 -0 0.999988)
(0.00499994 -4.23511e-19 0.999988)
(0.00499994 -0 0.999988)
(0.00499994 -0 0.999988)
(0.00499994 -4.23511e-19 0.999988)
(0.00499994 -0 0.999988)
(0.00499994 -4.23511e-19 0.999988)
(0.00499994 -0 0.999988)
(0.00499994 -0 0.999988)
(0.00499994 -4.23511e-19 0.999988)
(0.00499994 -0 0.999988)
(0.00499994 -0 0.999988)
(0.02437 -0 0.999703)
(0.031364 -0 0.999508)
(0.016652 -1.69383e-18 0.999861)
(0.0112143 -0 0.999937)
(0.00762704 -0 0.999971)
(0.00663601 -0 0.999978)
(0.00543111 -4.2351e-19 0.999985)
(0.00564628 -0 0.999984)
(0.00485775 -0 0.999988)
(0.00565259 -0 0.999984)
(0.00453593 -0 0.99999)
(0.00545301 -0 0.999985)
(0.00562119 -0 0.999984)
(0.00478557 -4.23512e-19 0.999989)
(0.00371771 -4.23514e-19 0.999993)
(0.0053813 -0 0.999986)
(0.00696692 -0 0.999976)
(0.00514894 4.23511e-19 0.999987)
(0.00143421 -0 0.999999)
(0.00611737 -0 0.999981)
(0.00626194 8.47016e-19 0.99998)
(0.00514233 -0 0.999987)
(0.00792392 -0 0.999969)
(0.00535299 -0 0.999986)
(0.00316995 -0 0.999995)
(0.0041686 -0 0.999991)
(0.00330085 4.23514e-19 0.999995)
(0.00337048 -0 0.999994)
(0.00835401 -8.47003e-19 0.999965)
(0.00446511 4.23512e-19 0.99999)
(-0.000249618 2.64698e-20 1)
(0.00784991 -0 0.999969)
(0.011669 -8.46975e-19 0.999932)
(-0.00168511 -0 0.999999)
(-0.000789929 -0 1)
(0.0144422 -0 0.999896)
(0.00952394 8.46995e-19 0.999955)
(-0.00671746 -0 0.999977)
(0.00193208 2.11758e-19 0.999998)
(0.0157596 -1.69386e-18 0.999876)
(0.0078581 8.47007e-19 0.999969)
(-0.0042924 -4.23513e-19 0.999991)
(0.00173083 -0 0.999999)
(0.0116407 -0 0.999932)
(0.00973393 8.46993e-19 0.999953)
(0.00147254 -0 0.999999)
(0.000283467 -0 1)
(0.0056202 -4.2351e-19 0.999984)
(0.00884446 -0 0.999961)
(0.00626365 -0 0.99998)
(0.00293766 2.11757e-19 0.999996)
(0.00281504 2.11757e-19 0.999996)
(0.0043688 -4.23512e-19 0.99999)
(0.00525759 -0 0.999986)
(0.0057322 -4.2351e-19 0.999984)
(0.00591773 -0 0.999982)
(0.00573986 -4.23509e-19 0.999984)
(0.00527307 -0 0.999986)
(0.00489641 -0 0.999988)
(0.004886 -0 0.999988)
(0.00507403 -4.23511e-19 0.999987)
(0.0050403 -4.23511e-19 0.999987)
(0.00487656 -0 0.999988)
(0.00487308 4.23511e-19 0.999988)
(0.00498762 -0 0.999988)
(0.00503577 -4.23511e-19 0.999987)
(0.00501657 -4.23511e-19 0.999987)
(0.00498764 -0 0.999988)
(0.00497846 -0 0.999988)
(0.00497406 4.23511e-19 0.999988)
(0.00497527 -0 0.999988)
(0.00498178 -0 0.999988)
(0.00498221 4.23511e-19 0.999988)
(0.00498624 4.23511e-19 0.999988)
(0.0049942 -4.23511e-19 0.999988)
(0.00499393 -0 0.999988)
(0.00499575 -0 0.999988)
(0.00499849 -0 0.999988)
(0.00499801 -0 0.999988)
(0.00499833 -0 0.999988)
(0.00499769 -0 0.999988)
(0.00499883 -0 0.999988)
(0.00499736 -0 0.999988)
(0.0049947 -4.23511e-19 0.999988)
(0.00499753 -4.23511e-19 0.999988)
(0.00499252 -0 0.999988)
(0.00499468 -4.23511e-19 0.999988)
(0.00500006 -0 0.999987)
(0.00499295 -0 0.999988)
(0.00500067 -4.23511e-19 0.999987)
(0.0049948 -0 0.999988)
(0.00497977 -0 0.999988)
(0.00500438 -4.23511e-19 0.999987)
(0.00500798 4.23511e-19 0.999987)
(0.00497896 -0 0.999988)
(0.00498395 4.23511e-19 0.999988)
(0.00500303 4.23511e-19 0.999987)
(0.00500952 -4.23511e-19 0.999987)
(0.00499663 -0 0.999988)
(0.00497314 -4.23511e-19 0.999988)
(0.00498806 -0 0.999988)
(0.00501689 -0 0.999987)
(0.00499721 -0 0.999988)
(0.00497319 4.23511e-19 0.999988)
(0.00499532 -0 0.999988)
(0.00500706 -0 0.999987)
(0.0049911 -0 0.999988)
(0.00498766 4.23511e-19 0.999988)
(0.0049965 -4.23511e-19 0.999988)
(0.00500198 -0 0.999987)
(0.00498571 -0 0.999988)
(0.00497649 -0 0.999988)
(0.00500576 -4.23511e-19 0.999987)
(0.00500436 -4.23511e-19 0.999987)
(0.00496981 -0 0.999988)
(0.00499011 -0 0.999988)
(0.00502834 -0 0.999987)
(0.00497546 -0 0.999988)
(0.00495897 -0 0.999988)
(0.00504245 -0 0.999987)
(0.0049568 4.23511e-19 0.999988)
(0.00498 -0 0.999988)
(0.00506053 -0 0.999987)
(0.00490041 4.23511e-19 0.999988)
(0.00505073 -0 0.999987)
(0.00501482 -0 0.999987)
(0.0048381 -4.23512e-19 0.999988)
(0.00519426 -4.23511e-19 0.999987)
(0.00498738 -0 0.999988)
(0.0046851 -0 0.999989)
(0.00531281 4.2351e-19 0.999986)
(0.00506356 -0 0.999987)
(0.00451842 -0 0.99999)
(0.00537286 4.2351e-19 0.999986)
(0.00516367 -0 0.999987)
(0.00437254 -0 0.99999)
(0.00536815 4.2351e-19 0.999986)
(0.00534774 -0 0.999986)
(0.00426586 -0 0.999991)
(0.00520707 -0 0.999986)
(0.00551605 -4.2351e-19 0.999985)
(0.00442047 -0 0.99999)
(0.00497809 -0 0.999988)
(0.00538 -0 0.999986)
(0.00464921 -0 0.999989)
(0.0051166 -4.23511e-19 0.999987)
(0.00518055 -4.23511e-19 0.999987)
(0.00449447 4.23512e-19 0.99999)
(0.00526036 -0 0.999986)
(0.00536537 4.2351e-19 0.999986)
(0.00440684 -0 0.99999)
(0.00507431 4.23511e-19 0.999987)
(0.00537609 -0 0.999986)
(0.00456466 -0 0.99999)
(0.00513766 -0 0.999987)
(0.00529946 -0 0.999986)
(0.00446102 -0 0.99999)
(0.00512478 -0 0.999987)
(0.00538882 -0 0.999985)
(0.00454266 -0 0.99999)
(0.00513611 4.23511e-19 0.999987)
(0.00536741 4.2351e-19 0.999986)
(0.00450217 -4.23512e-19 0.99999)
(0.00509584 -0 0.999987)
(0.00536182 -0 0.999986)
(0.00449956 -4.23512e-19 0.99999)
(0.00508419 -0 0.999987)
(0.0053712 -0 0.999986)
(0.00450516 -0 0.99999)
(0.00507469 -0 0.999987)
(0.00537722 -0 0.999986)
(0.00450871 -4.23512e-19 0.99999)
(0.0050667 4.23511e-19 0.999987)
(0.00538477 -0 0.999986)
(0.00450985 -4.23512e-19 0.99999)
(0.00505576 -0 0.999987)
(0.00539434 -4.2351e-19 0.999985)
(0.00451404 -0 0.99999)
(0.0050431 -0 0.999987)
(0.00540147 -0 0.999985)
(0.00452033 -0 0.99999)
(0.00503168 -4.23511e-19 0.999987)
(0.00540618 -0 0.999985)
(0.00452592 4.23512e-19 0.99999)
(0.00502328 4.23511e-19 0.999987)
(0.005412 -4.2351e-19 0.999985)
(0.00452929 -0 0.99999)
(0.00501495 4.23511e-19 0.999987)
(0.0054163 -4.2351e-19 0.999985)
(0.00453801 -0 0.99999)
(0.00500122 -0 0.999987)
(0.00542456 4.2351e-19 0.999985)
(0.00454494 -0 0.99999)
(0.00498017 -0 0.999988)
(0.0054515 -4.2351e-19 0.999985)
(0.00452546 4.23512e-19 0.99999)
(0.00500082 -4.23511e-19 0.999987)
(0.00542609 -0 0.999985)
(0.0045506 -0 0.99999)
(0.00499681 -0 0.999988)
(0.00539049 -0 0.999985)
(0.00464604 4.23512e-19 0.999989)
(0.00484518 -0 0.999988)
(0.00554546 -4.2351e-19 0.999985)
(0.00453839 -0 0.99999)
(0.00494144 4.23511e-19 0.999988)
(0.00543834 4.2351e-19 0.999985)
(0.0046415 4.23512e-19 0.999989)
(0.00497551 -0 0.999988)
(0.00506725 -0 0.999987)
(0.00520833 -0 0.999986)
(0.00465528 4.23512e-19 0.999989)
(0.00517881 4.23511e-19 0.999987)
(0.0048692 -0 0.999988)
(0.00513455 -0 0.999987)
(0.00500984 -4.23511e-19 0.999987)
(0.00488458 -4.23511e-19 0.999988)
(0.00490692 -0 0.999988)
(0.00507619 -0 0.999987)
(0.0052899 -0 0.999986)
(0.00471217 -0 0.999989)
(0.00489779 -0 0.999988)
(0.00497078 -0 0.999988)
(0.00540267 -4.2351e-19 0.999985)
(0.00469531 -0 0.999989)
(0.00508143 -4.23511e-19 0.999987)
(0.00480232 -0 0.999988)
(0.00533666 4.2351e-19 0.999986)
(0.00480568 -0 0.999988)
(0.0052566 -0 0.999986)
(0.00473111 -0 0.999989)
(0.00527451 -0 0.999986)
(0.00479693 -0 0.999988)
(0.00489374 -4.23511e-19 0.999988)
(0.00595526 -0 0.999982)
(-0.00122571 -0 0.999999)
(-0.0286406 -0 0.99959)
(-0.0233684 1.6936e-18 0.999727)
(0.00499994 -0 0.999988)
(0.00499994 -0 0.999988)
(0.00499994 -0 0.999988)
)
;

boundaryField
{
    inlet
    {
        type            calculated;
        value           uniform (0 0 0);
    }
    outlet
    {
        type            calculated;
        value           uniform (0 0 0);
    }
    sideWall
    {
        type            empty;
    }
}


// ************************************************************************* //
