/*--------------------------------*- C++ -*----------------------------------*\
| =========                 |                                                 |
| \\      /  F ield         | foam-extend: Open Source CFD                    |
|  \\    /   O peration     | Version:     3.2                                |
|   \\  /    A nd           | Web:         http://www.foam-extend.org         |
|    \\/     M anipulation  | For copyright notice see file Copyright         |
\*---------------------------------------------------------------------------*/
FoamFile
{
    version     2.0;
    format      ascii;
    class       areaVectorField;
    location    "50";
    object      Utau;
}
// * * * * * * * * * * * * * * * * * * * * * * * * * * * * * * * * * * * * * //

dimensions      [0 1 -1 0 0 0 0];

internalField   nonuniform List<vector> 
300
(
(0.969637 -1.6018e-25 -0.00484818)
(0.775519 2.45911e-25 -0.00387759)
(0.667776 9.90246e-26 -0.00333888)
(0.66887 0 -0.00334435)
(0.658454 -6.95863e-23 -0.00329227)
(0.658435 -1.78332e-23 -0.00329218)
(0.653336 -2.60387e-23 -0.00326668)
(0.653094 -5.32298e-24 -0.00326547)
(0.651266 0 -0.00325633)
(0.651959 -4.38862e-24 -0.0032598)
(0.652126 0 -0.00326063)
(0.653315 5.94202e-24 -0.00326658)
(0.654515 -7.22798e-28 -0.00327257)
(0.656413 7.74493e-24 -0.00328206)
(0.658192 0 -0.00329096)
(0.660436 0 -0.00330218)
(0.662717 8.82384e-24 -0.00331359)
(0.665267 -8.24132e-24 -0.00332633)
(0.667793 9.03568e-24 -0.00333897)
(0.670555 0 -0.00335277)
(0.67346 0 -0.0033673)
(0.676445 -9.28129e-24 -0.00338223)
(0.679508 0 -0.00339754)
(0.682605 0 -0.00341302)
(0.685728 0 -0.00342864)
(0.688883 -8.34922e-24 -0.00344441)
(0.691822 -3.18392e-27 -0.00345911)
(0.694386 0 -0.00347193)
(0.696549 0 -0.00348275)
(0.698357 -3.41898e-24 -0.00349179)
(0.699866 -1.78304e-27 -0.00349933)
(0.701114 0 -0.00350557)
(0.702158 0 -0.00351079)
(0.703016 0 -0.00351508)
(0.703739 -8.97444e-28 -0.00351869)
(0.704327 0 -0.00352164)
(0.704832 0 -0.00352416)
(0.705236 -5.30632e-28 -0.00352618)
(0.705596 0 -0.00352798)
(0.705873 0 -0.00352937)
(0.706137 0 -0.00353069)
(0.706325 -2.43605e-25 -0.00353162)
(0.706528 0 -0.00353264)
(0.706653 -1.52871e-25 -0.00353326)
(0.706815 1.74502e-28 -0.00353408)
(0.70689 0 -0.00353445)
(0.707023 -2.30441e-25 -0.00353512)
(0.707052 0 -0.00353526)
(0.707206 -3.276e-25 -0.00353603)
(0.70714 0 -0.0035357)
(0.707399 8.79526e-29 -0.00353699)
(0.707105 1.37179e-24 -0.00353553)
(0.707668 -1.22332e-28 -0.00353834)
(0.706845 3.73605e-24 -0.00353423)
(0.708245 0 -0.00354122)
(0.706043 0 -0.00353021)
(0.709682 -1.66079e-23 -0.00354841)
(0.704214 0 -0.00352107)
(0.715088 0 -0.00357544)
(0.692923 6.88437e-25 -0.0168915)
(0.595711 0 -0.0186931)
(0.590556 -7.7131e-22 -0.00983532)
(0.60014 0 -0.00673054)
(0.602367 0 -0.00459441)
(0.609088 0 -0.00404201)
(0.610078 -1.98448e-23 -0.00331345)
(0.612169 0 -0.00345653)
(0.613517 0 -0.00298035)
(0.613538 0 -0.00346813)
(0.613981 0 -0.002785)
(0.61554 0 -0.0033566)
(0.612677 -2.76406e-27 -0.00344403)
(0.611748 3.51516e-24 -0.0029276)
(0.61537 -1.85261e-23 -0.00228779)
(0.616713 0 -0.00331876)
(0.611817 -2.46614e-26 -0.00426258)
(0.60528 -1.53617e-23 -0.00311659)
(0.616894 0 -0.000884757)
(0.618758 0 -0.00378524)
(0.608468 2.3031e-23 -0.00381026)
(0.615007 0 -0.00316261)
(0.607616 0 -0.00481485)
(0.602805 1.54527e-26 -0.00322685)
(0.610346 0 -0.00193478)
(0.610764 0 -0.00254605)
(0.609587 1.83997e-23 -0.00201217)
(0.619234 0 -0.00208712)
(0.612094 1.59889e-22 -0.00511362)
(0.600951 9.73552e-24 -0.00268334)
(0.620256 5.47275e-24 0.000154827)
(0.626924 0 -0.00492145)
(0.595386 2.75356e-22 -0.00694804)
(0.60129 0 0.00101324)
(0.636147 0 0.000502511)
(0.618303 0 -0.0089306)
(0.581883 -1.01287e-22 -0.00554207)
(0.614901 1.81987e-25 0.00413067)
(0.644123 9.39211e-25 -0.0012445)
(0.608424 6.58894e-22 -0.00958969)
(0.587225 3.31101e-23 -0.00461462)
(0.617164 -1.41958e-22 0.00264914)
(0.633025 0 -0.00109566)
(0.615105 0 -0.00716073)
(0.599462 -3.40739e-23 -0.0058354)
(0.603414 0 -0.000888549)
(0.619787 0 -0.000175689)
(0.621995 2.15266e-23 -0.00349579)
(0.609394 0 -0.00538997)
(0.605587 0 -0.00379326)
(0.610634 3.4734e-24 -0.00179384)
(0.615359 -6.41511e-24 -0.00173227)
(0.616049 -1.27208e-23 -0.00269142)
(0.615459 -3.86634e-27 -0.00323588)
(0.6145 -8.52281e-26 -0.0035225)
(0.61285 0 -0.00362675)
(0.61175 9.09855e-25 -0.00351142)
(0.611338 0 -0.00322367)
(0.611583 0 -0.0029946)
(0.612083 0 -0.00299067)
(0.611989 1.89989e-24 -0.00310529)
(0.61169 5.76538e-25 -0.00308314)
(0.611911 7.08913e-28 -0.00298406)
(0.61227 -5.07255e-25 -0.00298368)
(0.612294 5.18766e-28 -0.00305393)
(0.612157 5.14263e-26 -0.00308272)
(0.612111 -2.04811e-25 -0.00307074)
(0.612129 0 -0.00305311)
(0.612158 1.08292e-28 -0.00304764)
(0.612187 -2.1598e-26 -0.00304509)
(0.612223 -6.3882e-29 -0.00304601)
(0.612237 0 -0.00305007)
(0.612251 6.84671e-26 -0.0030504)
(0.61227 6.2222e-26 -0.00305296)
(0.612269 3.73486e-27 -0.00305783)
(0.612277 0 -0.00305771)
(0.612289 0 -0.00305888)
(0.612265 0 -0.00306044)
(0.612265 0 -0.00306014)
(0.612276 0 -0.00306039)
(0.612279 0 -0.00306002)
(0.61228 0 -0.00306072)
(0.612273 0 -0.00305979)
(0.612283 5.63373e-27 -0.00305821)
(0.612286 -2.05997e-26 -0.00305996)
(0.61229 0 -0.00305691)
(0.612309 -1.17326e-25 -0.00305833)
(0.612301 0 -0.00306158)
(0.612303 0 -0.00305723)
(0.612303 1.31675e-25 -0.00306196)
(0.612278 0 -0.00305824)
(0.612331 0 -0.0030493)
(0.612341 2.4041e-25 -0.00306443)
(0.612278 -1.44719e-25 -0.00306632)
(0.612325 1.5831e-28 -0.00304878)
(0.612377 4.87806e-26 -0.0030521)
(0.612369 -6.86005e-26 -0.00306374)
(0.612341 1.18705e-25 -0.00306758)
(0.612318 0 -0.00305956)
(0.612371 -2.27785e-25 -0.00304544)
(0.612427 0 -0.00305486)
(0.612369 0 -0.00307223)
(0.612325 1.40586e-28 -0.00305995)
(0.612411 3.25671e-25 -0.00304567)
(0.612436 0 -0.00305935)
(0.612376 0 -0.00306624)
(0.612387 7.44871e-29 -0.00305652)
(0.61242 -3.26567e-26 -0.00305458)
(0.612423 1.03945e-26 -0.00306001)
(0.612407 0 -0.00306329)
(0.612401 0 -0.00305329)
(0.612474 0 -0.00304801)
(0.612468 3.39368e-25 -0.0030659)
(0.612396 1.74668e-25 -0.00306469)
(0.612459 1.77271e-28 -0.00304384)
(0.612538 0 -0.00305667)
(0.61244 2.22181e-28 -0.00307959)
(0.612374 0 -0.00304688)
(0.612603 0 -0.00303792)
(0.612485 0 -0.00308846)
(0.612387 1.07638e-24 -0.00303551)
(0.612722 0 -0.0030514)
(0.612335 -6.29863e-29 -0.00309878)
(0.612508 2.57012e-24 -0.00300158)
(0.612747 0 -0.00309485)
(0.612151 0 -0.00306986)
(0.612881 -4.62744e-24 -0.00296521)
(0.612756 5.64858e-24 -0.00318286)
(0.611743 0 -0.00305103)
(0.613218 0 -0.00287302)
(0.613016 -8.80376e-24 -0.00325689)
(0.611305 0 -0.00309542)
(0.613383 6.85402e-28 -0.00277155)
(0.613344 -1.24944e-23 -0.00329545)
(0.610978 -1.86377e-27 -0.00315493)
(0.613404 0 -0.00268216)
(0.613786 -1.07208e-23 -0.00329494)
(0.610773 7.83579e-28 -0.0032663)
(0.613048 -4.86693e-27 -0.0026152)
(0.614416 0 -0.00319935)
(0.611015 1.07604e-23 -0.00337044)
(0.612387 0 -0.00270707)
(0.614252 2.8773e-27 -0.00305784)
(0.611752 0 -0.00329128)
(0.61256 0 -0.00284795)
(0.613541 4.89582e-24 -0.00313929)
(0.611643 4.81211e-24 -0.00316869)
(0.613173 1.25678e-23 -0.00275592)
(0.613909 3.95476e-27 -0.00322943)
(0.611272 -7.46359e-24 -0.00327975)
(0.612823 0 -0.00270064)
(0.614296 -5.91083e-24 -0.00311717)
(0.611641 0 -0.00328828)
(0.612761 -3.06624e-27 -0.00279707)
(0.613926 0 -0.00315418)
(0.611566 -2.3578e-29 -0.00324102)
(0.612949 0 -0.00273441)
(0.614276 0 -0.00314807)
(0.611618 0 -0.00329595)
(0.612772 0 -0.00278365)
(0.614091 -6.21744e-24 -0.00315408)
(0.611548 -8.45261e-24 -0.00328248)
(0.612739 -1.44136e-23 -0.00275869)
(0.61417 0 -0.00312975)
(0.611611 0 -0.00327939)
(0.612765 -1.43531e-23 -0.0027572)
(0.614245 0 -0.00312298)
(0.611675 -4.41944e-28 -0.00328548)
(0.612774 0 -0.00276067)
(0.614302 0 -0.00311743)
(0.611737 0 -0.00328949)
(0.612788 -1.41518e-23 -0.00276291)
(0.61436 -4.72453e-24 -0.00311282)
(0.611793 0 -0.00329441)
(0.6128 -1.40896e-23 -0.00276366)
(0.614425 0 -0.00310642)
(0.611855 9.68067e-24 -0.00330061)
(0.612806 0 -0.00276626)
(0.614484 0 -0.00309894)
(0.611925 0 -0.00330534)
(0.612816 0 -0.00277016)
(0.614536 3.52448e-24 -0.00309219)
(0.611996 6.05134e-28 -0.00330861)
(0.612835 1.36857e-23 -0.00277367)
(0.61459 -3.18952e-24 -0.0030873)
(0.612057 1.03708e-23 -0.0033125)
(0.612857 -3.43194e-27 -0.00277584)
(0.614643 -2.89674e-24 -0.00308244)
(0.612124 1.05213e-23 -0.0033155)
(0.612879 0 -0.00278128)
(0.614684 0 -0.00307421)
(0.612217 -1.08409e-23 -0.00332106)
(0.612855 0 -0.00278542)
(0.614794 2.74861e-27 -0.00306182)
(0.612235 1.20098e-23 -0.00333765)
(0.612887 1.39717e-23 -0.00277363)
(0.614854 2.91907e-24 -0.00307481)
(0.612222 0 -0.00332202)
(0.613073 0 -0.00278987)
(0.614667 2.67622e-27 -0.00307142)
(0.612582 1.87057e-28 -0.00330217)
(0.612811 1.02417e-23 -0.00284717)
(0.614937 0 -0.00297952)
(0.612606 1.62325e-23 -0.00339723)
(0.61268 0 -0.00278061)
(0.615185 -2.21076e-24 -0.00303994)
(0.612279 -1.1655e-23 -0.00332983)
(0.613414 1.26441e-23 -0.00284719)
(0.613945 0 -0.00305472)
(0.613825 -7.77743e-28 -0.00311045)
(0.612781 0 -0.0031916)
(0.613741 9.12188e-24 -0.00285717)
(0.613822 -7.68907e-24 -0.00317891)
(0.613341 -1.71965e-27 -0.00298652)
(0.613935 -1.50595e-27 -0.00315232)
(0.612996 -1.63106e-24 -0.00307105)
(0.613813 -1.22005e-24 -0.00299825)
(0.613624 4.65202e-28 -0.00301104)
(0.614362 0 -0.00311866)
(0.612678 0 -0.00324105)
(0.613596 0 -0.0028914)
(0.613869 0 -0.00300663)
(0.614556 -1.29088e-27 -0.00305486)
(0.61273 1.17624e-23 -0.00331042)
(0.613664 -1.81328e-27 -0.00288138)
(0.613556 1.03165e-23 -0.00311778)
(0.614223 0 -0.00294973)
(0.613189 -1.18882e-23 -0.00327242)
(0.613784 0 -0.00294968)
(0.613135 8.58651e-28 -0.00322305)
(0.613872 1.2499e-27 -0.00290433)
(0.613259 0 -0.00323469)
(0.613715 0 -0.00294398)
(0.613123 1.07378e-23 -0.0030005)
(0.614205 -1.14679e-26 -0.00365781)
(0.60551 0 0.000742179)
(0.661925 0 0.0189657)
(0.762088 -2.48157e-22 0.0178137)
(0.735035 0 -0.00367518)
(0.698833 2.23105e-26 -0.00349416)
(0.706686 -6.02347e-27 -0.00353343)
)
;

boundaryField
{
    inlet
    {
        type            calculated;
        value           uniform (0 0 0);
    }
    outlet
    {
        type            calculated;
        value           uniform (0 0 0);
    }
    sideWall
    {
        type            empty;
    }
}


// ************************************************************************* //
