/*--------------------------------*- C++ -*----------------------------------*\
| =========                 |                                                 |
| \\      /  F ield         | foam-extend: Open Source CFD                    |
|  \\    /   O peration     | Version:     3.2                                |
|   \\  /    A nd           | Web:         http://www.foam-extend.org         |
|    \\/     M anipulation  | For copyright notice see file Copyright         |
\*---------------------------------------------------------------------------*/
FoamFile
{
    version     2.0;
    format      ascii;
    class       areaScalarField;
    location    "50";
    object      volA;
}
// * * * * * * * * * * * * * * * * * * * * * * * * * * * * * * * * * * * * * //

dimensions      [0 3 0 0 0 0 0];

internalField   nonuniform List<scalar> 
300
(
1.25335e-06
1.25335e-06
1.25335e-06
1.25335e-06
1.25335e-06
1.25335e-06
1.25335e-06
1.25335e-06
1.25335e-06
1.25335e-06
1.25335e-06
1.25335e-06
1.25335e-06
1.25335e-06
1.25335e-06
1.25335e-06
1.25335e-06
1.25335e-06
1.25335e-06
1.25335e-06
1.25335e-06
1.25335e-06
1.25335e-06
1.25335e-06
1.25335e-06
1.25335e-06
1.25335e-06
1.25335e-06
1.25335e-06
1.25335e-06
1.25335e-06
1.25335e-06
1.25335e-06
1.25335e-06
1.25335e-06
1.25335e-06
1.25335e-06
1.25335e-06
1.25335e-06
1.25335e-06
1.25335e-06
1.25335e-06
1.25335e-06
1.25335e-06
1.25335e-06
1.25335e-06
1.25335e-06
1.25335e-06
1.25335e-06
1.25335e-06
1.25335e-06
1.25335e-06
1.25335e-06
1.25335e-06
1.25335e-06
1.25335e-06
1.25335e-06
1.25335e-06
1.25335e-06
1.14602e-06
1.33531e-06
1.28803e-06
1.29484e-06
1.28045e-06
1.27926e-06
1.28136e-06
1.2704e-06
1.28606e-06
1.26273e-06
1.27796e-06
1.27155e-06
1.25857e-06
1.24104e-06
1.28617e-06
1.2936e-06
1.25326e-06
1.18678e-06
1.29074e-06
1.32324e-06
1.25655e-06
1.2572e-06
1.18248e-06
1.1189e-06
1.15979e-06
1.20881e-06
1.23664e-06
1.32927e-06
1.26694e-06
1.20055e-06
1.34678e-06
1.41256e-06
1.14675e-06
1.12484e-06
1.49811e-06
1.38348e-06
9.81029e-07
1.15338e-06
1.59386e-06
1.35933e-06
1.02064e-06
1.19855e-06
1.51955e-06
1.40661e-06
1.15734e-06
1.17308e-06
1.34236e-06
1.40738e-06
1.30242e-06
1.20531e-06
1.23619e-06
1.31867e-06
1.36225e-06
1.3671e-06
1.34763e-06
1.31658e-06
1.28672e-06
1.26971e-06
1.268e-06
1.27295e-06
1.27286e-06
1.27011e-06
1.27223e-06
1.2772e-06
1.2792e-06
1.27842e-06
1.27732e-06
1.27729e-06
1.27781e-06
1.27855e-06
1.27936e-06
1.27998e-06
1.28049e-06
1.28097e-06
1.28113e-06
1.28125e-06
1.28135e-06
1.28132e-06
1.28124e-06
1.28119e-06
1.28114e-06
1.28108e-06
1.28099e-06
1.28106e-06
1.28104e-06
1.28111e-06
1.28123e-06
1.2811e-06
1.28114e-06
1.28112e-06
1.28093e-06
1.28138e-06
1.28149e-06
1.28092e-06
1.28113e-06
1.28174e-06
1.28169e-06
1.28125e-06
1.28092e-06
1.28141e-06
1.28201e-06
1.28155e-06
1.281e-06
1.28156e-06
1.28191e-06
1.28149e-06
1.28136e-06
1.28158e-06
1.28162e-06
1.28139e-06
1.28137e-06
1.28197e-06
1.28198e-06
1.28135e-06
1.28173e-06
1.28238e-06
1.2815e-06
1.28101e-06
1.28259e-06
1.28175e-06
1.28128e-06
1.28321e-06
1.28071e-06
1.28208e-06
1.28305e-06
1.27972e-06
1.28449e-06
1.28278e-06
1.27663e-06
1.28654e-06
1.28503e-06
1.27336e-06
1.28707e-06
1.28743e-06
1.27111e-06
1.28677e-06
1.29104e-06
1.2691e-06
1.28393e-06
1.29469e-06
1.27199e-06
1.27876e-06
1.29245e-06
1.27804e-06
1.28133e-06
1.28687e-06
1.27512e-06
1.28611e-06
1.29107e-06
1.27174e-06
1.28165e-06
1.29279e-06
1.27658e-06
1.2822e-06
1.28912e-06
1.27375e-06
1.28315e-06
1.29217e-06
1.27493e-06
1.28086e-06
1.28845e-06
1.2716e-06
1.27869e-06
1.28786e-06
1.27168e-06
1.27875e-06
1.28833e-06
1.27212e-06
1.27879e-06
1.28857e-06
1.27241e-06
1.2788e-06
1.2888e-06
1.27261e-06
1.27874e-06
1.28908e-06
1.27287e-06
1.27862e-06
1.28929e-06
1.27317e-06
1.27854e-06
1.28945e-06
1.27347e-06
1.27852e-06
1.28963e-06
1.27369e-06
1.27849e-06
1.28981e-06
1.27397e-06
1.27844e-06
1.28991e-06
1.2744e-06
1.2781e-06
1.2905e-06
1.27434e-06
1.27824e-06
1.29062e-06
1.27418e-06
1.2792e-06
1.28916e-06
1.27665e-06
1.27649e-06
1.29179e-06
1.27602e-06
1.27648e-06
1.29219e-06
1.27426e-06
1.28081e-06
1.28338e-06
1.28662e-06
1.2739e-06
1.28419e-06
1.2817e-06
1.28345e-06
1.28209e-06
1.27804e-06
1.28258e-06
1.2829e-06
1.28879e-06
1.27238e-06
1.28199e-06
1.28088e-06
1.29387e-06
1.27215e-06
1.28452e-06
1.27584e-06
1.29181e-06
1.27237e-06
1.28474e-06
1.26949e-06
1.28585e-06
1.26982e-06
1.28204e-06
1.2817e-06
1.24922e-06
1.394e-06
1.40126e-06
1.09599e-06
1.25335e-06
1.25335e-06
1.25335e-06
)
;

boundaryField
{
    inlet
    {
        type            calculated;
        value           uniform 0;
    }
    outlet
    {
        type            calculated;
        value           uniform 0;
    }
    sideWall
    {
        type            empty;
    }
}


// ************************************************************************* //
