/*--------------------------------*- C++ -*----------------------------------*\
| =========                 |                                                 |
| \\      /  F ield         | foam-extend: Open Source CFD                    |
|  \\    /   O peration     | Version:     3.2                                |
|   \\  /    A nd           | Web:         http://www.foam-extend.org         |
|    \\/     M anipulation  | For copyright notice see file Copyright         |
\*---------------------------------------------------------------------------*/
FoamFile
{
    version     2.0;
    format      ascii;
    class       areaVectorField;
    location    "50";
    object      Wt;
}
// * * * * * * * * * * * * * * * * * * * * * * * * * * * * * * * * * * * * * //

dimensions      [1 1 -2 0 0 0 0];

internalField   nonuniform List<vector> 
300
(
(5.16563e-08 0 -2.58282e-10)
(5.16563e-08 0 -2.58282e-10)
(5.16563e-08 0 -2.58282e-10)
(5.16563e-08 0 -2.58282e-10)
(5.16563e-08 -4.37546e-24 -2.58282e-10)
(5.16563e-08 -4.37546e-24 -2.58282e-10)
(5.16563e-08 -4.37546e-24 -2.58282e-10)
(5.16563e-08 -4.37546e-24 -2.58282e-10)
(5.16563e-08 0 -2.58282e-10)
(5.16563e-08 -4.37546e-24 -2.58282e-10)
(5.16563e-08 0 -2.58282e-10)
(5.16563e-08 4.37546e-24 -2.58282e-10)
(5.16563e-08 0 -2.58282e-10)
(5.16563e-08 4.37546e-24 -2.58282e-10)
(5.16563e-08 0 -2.58282e-10)
(5.16563e-08 0 -2.58282e-10)
(5.16563e-08 4.37546e-24 -2.58282e-10)
(5.16563e-08 -4.37546e-24 -2.58282e-10)
(5.16563e-08 4.37546e-24 -2.58282e-10)
(5.16563e-08 0 -2.58282e-10)
(5.16563e-08 0 -2.58282e-10)
(5.16563e-08 -4.37546e-24 -2.58282e-10)
(5.16563e-08 0 -2.58282e-10)
(5.16563e-08 0 -2.58282e-10)
(5.16563e-08 0 -2.58282e-10)
(5.16563e-08 -4.37546e-24 -2.58282e-10)
(5.16563e-08 0 -2.58282e-10)
(5.16563e-08 0 -2.58282e-10)
(5.16563e-08 0 -2.58282e-10)
(5.16563e-08 -4.37546e-24 -2.58282e-10)
(5.16563e-08 0 -2.58282e-10)
(5.16563e-08 0 -2.58282e-10)
(5.16563e-08 0 -2.58282e-10)
(5.16563e-08 0 -2.58282e-10)
(5.16563e-08 0 -2.58282e-10)
(5.16563e-08 0 -2.58282e-10)
(5.16563e-08 0 -2.58282e-10)
(5.16563e-08 0 -2.58282e-10)
(5.16563e-08 0 -2.58282e-10)
(5.16563e-08 0 -2.58282e-10)
(5.16563e-08 0 -2.58282e-10)
(5.16563e-08 -4.37546e-24 -2.58282e-10)
(5.16563e-08 0 -2.58282e-10)
(5.16563e-08 -4.37546e-24 -2.58282e-10)
(5.16563e-08 0 -2.58282e-10)
(5.16563e-08 0 -2.58282e-10)
(5.16563e-08 -4.37546e-24 -2.58282e-10)
(5.16563e-08 0 -2.58282e-10)
(5.16563e-08 -4.37546e-24 -2.58282e-10)
(5.16563e-08 0 -2.58282e-10)
(5.16563e-08 0 -2.58282e-10)
(5.16563e-08 -4.37546e-24 -2.58282e-10)
(5.16563e-08 0 -2.58282e-10)
(5.16563e-08 -4.37546e-24 -2.58282e-10)
(5.16563e-08 0 -2.58282e-10)
(5.16563e-08 0 -2.58282e-10)
(5.16563e-08 -4.37546e-24 -2.58282e-10)
(5.16563e-08 0 -2.58282e-10)
(5.16563e-08 0 -2.58282e-10)
(2.51704e-07 0 -6.13586e-09)
(3.23879e-07 0 -1.01631e-08)
(1.72017e-07 -1.74974e-23 -2.86482e-09)
(1.15853e-07 0 -1.29929e-09)
(7.87966e-08 0 -6.01003e-10)
(6.85586e-08 0 -4.54966e-10)
(5.61109e-08 -4.37544e-24 -3.04749e-10)
(5.83337e-08 0 -3.29373e-10)
(5.01874e-08 0 -2.43801e-10)
(5.83989e-08 0 -3.3011e-10)
(4.68626e-08 0 -2.12567e-10)
(5.63371e-08 0 -3.07212e-10)
(5.80746e-08 0 -3.26454e-10)
(4.94417e-08 -4.37547e-24 -2.3661e-10)
(3.84094e-08 -4.37551e-24 -1.42796e-10)
(5.55962e-08 0 -2.99184e-10)
(7.19771e-08 0 -5.01471e-10)
(5.31957e-08 4.37545e-24 -2.73906e-10)
(1.48176e-08 0 -2.12516e-11)
(6.32006e-08 0 -3.86629e-10)
(6.46941e-08 8.7508e-24 -4.05118e-10)
(5.31274e-08 0 -2.73202e-10)
(8.18635e-08 0 -6.487e-10)
(5.53038e-08 0 -2.96045e-10)
(3.27503e-08 0 -1.03817e-10)
(4.30676e-08 0 -1.79533e-10)
(3.41027e-08 4.37552e-24 -1.12569e-10)
(3.48219e-08 0 -1.17367e-10)
(8.63066e-08 -8.75053e-24 -7.21031e-10)
(4.61309e-08 4.37548e-24 -2.05981e-10)
(-2.57894e-09 2.73473e-25 -6.4375e-13)
(8.1099e-08 0 -6.36639e-10)
(1.2055e-07 -8.74995e-24 -1.4068e-09)
(-1.74098e-08 0 -2.93375e-11)
(-8.16117e-09 0 -6.44675e-12)
(1.49195e-07 0 -2.15493e-09)
(9.83923e-08 8.75035e-24 -9.37125e-10)
(-6.94e-08 0 -4.66202e-10)
(1.99612e-08 2.18778e-24 -3.85667e-11)
(1.628e-07 -1.74979e-23 -2.56598e-09)
(8.11837e-08 8.7506e-24 -6.3797e-10)
(-4.43466e-08 -4.37549e-24 -1.90355e-10)
(1.7882e-08 0 -3.09507e-11)
(1.20258e-07 0 -1.39998e-09)
(1.00562e-07 8.75031e-24 -9.78905e-10)
(1.52135e-08 0 -2.24025e-11)
(2.92864e-09 0 -8.30174e-13)
(5.80643e-08 -4.37543e-24 -3.26338e-10)
(9.13732e-08 0 -8.08178e-10)
(6.47118e-08 0 -4.0534e-10)
(3.03503e-08 2.18777e-24 -8.91593e-11)
(2.90836e-08 2.18777e-24 -8.18719e-11)
(4.51359e-08 -4.37549e-24 -1.97191e-10)
(5.43182e-08 0 -2.85587e-10)
(5.92214e-08 -4.37543e-24 -3.39475e-10)
(6.11381e-08 0 -3.61805e-10)
(5.93005e-08 -4.37543e-24 -3.40382e-10)
(5.44781e-08 0 -2.8727e-10)
(5.05868e-08 0 -2.47697e-10)
(5.04792e-08 0 -2.46644e-10)
(5.24218e-08 -4.37546e-24 -2.65993e-10)
(5.20733e-08 -4.37546e-24 -2.62469e-10)
(5.03817e-08 0 -2.45692e-10)
(5.03458e-08 4.37547e-24 -2.45342e-10)
(5.15291e-08 0 -2.57011e-10)
(5.20265e-08 -4.37546e-24 -2.61997e-10)
(5.18282e-08 -4.37546e-24 -2.60003e-10)
(5.15292e-08 0 -2.57012e-10)
(5.14344e-08 0 -2.56068e-10)
(5.1389e-08 4.37546e-24 -2.55615e-10)
(5.14015e-08 0 -2.5574e-10)
(5.14688e-08 0 -2.5641e-10)
(5.14732e-08 4.37546e-24 -2.56453e-10)
(5.15148e-08 4.37546e-24 -2.56868e-10)
(5.15971e-08 -4.37546e-24 -2.57689e-10)
(5.15943e-08 0 -2.57661e-10)
(5.16131e-08 0 -2.57849e-10)
(5.16414e-08 0 -2.58132e-10)
(5.16364e-08 0 -2.58082e-10)
(5.16397e-08 0 -2.58116e-10)
(5.16331e-08 0 -2.5805e-10)
(5.16448e-08 0 -2.58167e-10)
(5.16297e-08 0 -2.58016e-10)
(5.16022e-08 -4.37546e-24 -2.57741e-10)
(5.16314e-08 -4.37546e-24 -2.58033e-10)
(5.15797e-08 0 -2.57515e-10)
(5.1602e-08 -4.37546e-24 -2.57739e-10)
(5.16576e-08 0 -2.58294e-10)
(5.15842e-08 0 -2.5756e-10)
(5.16639e-08 -4.37546e-24 -2.58357e-10)
(5.16032e-08 0 -2.57751e-10)
(5.14479e-08 0 -2.56202e-10)
(5.17022e-08 -4.37546e-24 -2.58741e-10)
(5.17394e-08 4.37546e-24 -2.59113e-10)
(5.14396e-08 0 -2.56119e-10)
(5.14911e-08 4.37546e-24 -2.56632e-10)
(5.16883e-08 4.37546e-24 -2.58602e-10)
(5.17553e-08 -4.37546e-24 -2.59273e-10)
(5.16221e-08 0 -2.5794e-10)
(5.13795e-08 -4.37546e-24 -2.5552e-10)
(5.15337e-08 0 -2.57056e-10)
(5.18314e-08 0 -2.60036e-10)
(5.16281e-08 0 -2.58e-10)
(5.138e-08 4.37546e-24 -2.55526e-10)
(5.16086e-08 0 -2.57805e-10)
(5.17299e-08 0 -2.59018e-10)
(5.1565e-08 0 -2.57369e-10)
(5.15295e-08 4.37546e-24 -2.57015e-10)
(5.16208e-08 -4.37546e-24 -2.57926e-10)
(5.16774e-08 0 -2.58492e-10)
(5.15094e-08 0 -2.56814e-10)
(5.1414e-08 0 -2.55864e-10)
(5.17165e-08 -4.37546e-24 -2.58883e-10)
(5.1702e-08 -4.37546e-24 -2.58739e-10)
(5.13451e-08 0 -2.55178e-10)
(5.15548e-08 0 -2.57267e-10)
(5.19497e-08 0 -2.61224e-10)
(5.14034e-08 0 -2.55758e-10)
(5.12331e-08 0 -2.54066e-10)
(5.20955e-08 0 -2.62692e-10)
(5.12106e-08 4.37546e-24 -2.53844e-10)
(5.14504e-08 0 -2.56226e-10)
(5.22823e-08 0 -2.6458e-10)
(5.06281e-08 4.37547e-24 -2.48101e-10)
(5.2181e-08 0 -2.63555e-10)
(5.18101e-08 0 -2.59821e-10)
(4.99844e-08 -4.37547e-24 -2.41832e-10)
(5.36639e-08 -4.37545e-24 -2.78748e-10)
(5.15266e-08 0 -2.56986e-10)
(4.84036e-08 0 -2.26778e-10)
(5.48887e-08 4.37545e-24 -2.91618e-10)
(5.23136e-08 0 -2.64896e-10)
(4.66817e-08 0 -2.1093e-10)
(5.5509e-08 4.37544e-24 -2.98246e-10)
(5.33479e-08 0 -2.75475e-10)
(4.51746e-08 0 -1.9753e-10)
(5.54603e-08 4.37544e-24 -2.97724e-10)
(5.52495e-08 0 -2.95464e-10)
(4.40724e-08 0 -1.88009e-10)
(5.37962e-08 0 -2.80124e-10)
(5.69883e-08 -4.37544e-24 -3.14355e-10)
(4.56698e-08 0 -2.01884e-10)
(5.14306e-08 0 -2.56029e-10)
(5.55828e-08 0 -2.9904e-10)
(4.80329e-08 0 -2.23318e-10)
(5.28616e-08 -4.37546e-24 -2.70475e-10)
(5.35223e-08 -4.37545e-24 -2.77279e-10)
(4.64343e-08 4.37548e-24 -2.08699e-10)
(5.43468e-08 0 -2.85888e-10)
(5.54317e-08 4.37544e-24 -2.97416e-10)
(4.55289e-08 0 -2.00641e-10)
(5.24247e-08 4.37546e-24 -2.66022e-10)
(5.55424e-08 0 -2.98605e-10)
(4.71594e-08 0 -2.15269e-10)
(5.30791e-08 0 -2.72706e-10)
(5.47507e-08 0 -2.90154e-10)
(4.60887e-08 0 -2.05605e-10)
(5.29461e-08 0 -2.71341e-10)
(5.56739e-08 0 -3.00021e-10)
(4.69321e-08 0 -2.13199e-10)
(5.30631e-08 4.37545e-24 -2.72542e-10)
(5.54528e-08 4.37544e-24 -2.97642e-10)
(4.65138e-08 -4.37548e-24 -2.09415e-10)
(5.26471e-08 0 -2.68285e-10)
(5.5395e-08 0 -2.97022e-10)
(4.64869e-08 -4.37548e-24 -2.09173e-10)
(5.25268e-08 0 -2.6706e-10)
(5.54919e-08 0 -2.98062e-10)
(4.65447e-08 0 -2.09693e-10)
(5.24286e-08 0 -2.66062e-10)
(5.5554e-08 0 -2.9873e-10)
(4.65814e-08 -4.37548e-24 -2.10024e-10)
(5.23461e-08 4.37546e-24 -2.65225e-10)
(5.56321e-08 0 -2.99571e-10)
(4.65931e-08 -4.37548e-24 -2.1013e-10)
(5.2233e-08 0 -2.64081e-10)
(5.5731e-08 -4.37544e-24 -3.00636e-10)
(4.66365e-08 0 -2.10521e-10)
(5.21023e-08 0 -2.6276e-10)
(5.58046e-08 0 -3.01431e-10)
(4.67014e-08 0 -2.11108e-10)
(5.19842e-08 -4.37546e-24 -2.61571e-10)
(5.58532e-08 0 -3.01957e-10)
(4.67592e-08 4.37548e-24 -2.11631e-10)
(5.18975e-08 4.37546e-24 -2.60699e-10)
(5.59134e-08 -4.37544e-24 -3.02608e-10)
(4.6794e-08 0 -2.11945e-10)
(5.18114e-08 4.37546e-24 -2.59835e-10)
(5.59578e-08 -4.37544e-24 -3.03089e-10)
(4.68841e-08 0 -2.12763e-10)
(5.16696e-08 0 -2.58414e-10)
(5.60432e-08 4.37544e-24 -3.04014e-10)
(4.69557e-08 0 -2.13413e-10)
(5.14521e-08 0 -2.56244e-10)
(5.63215e-08 -4.37544e-24 -3.07041e-10)
(4.67545e-08 4.37548e-24 -2.11588e-10)
(5.16654e-08 -4.37546e-24 -2.58373e-10)
(5.60589e-08 0 -3.04185e-10)
(4.70141e-08 0 -2.13944e-10)
(5.1624e-08 0 -2.57959e-10)
(5.56911e-08 0 -3.00207e-10)
(4.80002e-08 4.37548e-24 -2.23013e-10)
(5.00575e-08 0 -2.42541e-10)
(5.72921e-08 -4.37544e-24 -3.17716e-10)
(4.6888e-08 0 -2.12798e-10)
(5.1052e-08 4.37546e-24 -2.52273e-10)
(5.61855e-08 4.37544e-24 -3.0556e-10)
(4.79532e-08 4.37548e-24 -2.22577e-10)
(5.14039e-08 0 -2.55764e-10)
(5.23517e-08 0 -2.65283e-10)
(5.38092e-08 0 -2.8026e-10)
(4.80956e-08 4.37548e-24 -2.23901e-10)
(5.35042e-08 4.37545e-24 -2.77092e-10)
(5.03057e-08 0 -2.44952e-10)
(5.3047e-08 0 -2.72376e-10)
(5.17586e-08 -4.37546e-24 -2.59306e-10)
(5.04646e-08 -4.37547e-24 -2.46501e-10)
(5.06953e-08 0 -2.48761e-10)
(5.24441e-08 0 -2.6622e-10)
(5.4652e-08 0 -2.89107e-10)
(4.86833e-08 0 -2.29407e-10)
(5.0601e-08 0 -2.47836e-10)
(5.13551e-08 0 -2.55278e-10)
(5.5817e-08 -4.37544e-24 -3.01565e-10)
(4.85092e-08 0 -2.27768e-10)
(5.24982e-08 -4.37546e-24 -2.6677e-10)
(4.96147e-08 0 -2.38268e-10)
(5.5135e-08 4.37545e-24 -2.94241e-10)
(4.96494e-08 0 -2.38602e-10)
(5.4308e-08 0 -2.85479e-10)
(4.8879e-08 0 -2.31254e-10)
(5.4493e-08 0 -2.87428e-10)
(4.95591e-08 0 -2.37734e-10)
(5.05591e-08 -4.37547e-24 -2.47426e-10)
(6.15258e-08 0 -3.66409e-10)
(-1.26634e-08 0 -1.55217e-11)
(-2.95779e-07 0 -8.47477e-09)
(-2.41366e-07 1.74927e-23 -5.64187e-09)
(5.16563e-08 0 -2.58282e-10)
(5.16563e-08 0 -2.58282e-10)
(5.16563e-08 0 -2.58282e-10)
)
;

boundaryField
{
    inlet
    {
        type            calculated;
        value           uniform (0 0 0);
    }
    outlet
    {
        type            calculated;
        value           uniform (0 0 0);
    }
    sideWall
    {
        type            empty;
    }
}


// ************************************************************************* //
