/*--------------------------------*- C++ -*----------------------------------*\
| =========                 |                                                 |
| \\      /  F ield         | foam-extend: Open Source CFD                    |
|  \\    /   O peration     | Version:     3.2                                |
|   \\  /    A nd           | Web:         http://www.foam-extend.org         |
|    \\/     M anipulation  | For copyright notice see file Copyright         |
\*---------------------------------------------------------------------------*/
FoamFile
{
    version     2.0;
    format      ascii;
    class       areaScalarField;
    location    "50";
    object      zCo;
}
// * * * * * * * * * * * * * * * * * * * * * * * * * * * * * * * * * * * * * //

dimensions      [0 1 0 0 0 0 0];

internalField   nonuniform List<scalar> 
300
(
-0.000125
-0.000375
-0.000625
-0.000875
-0.001125
-0.001375
-0.001625
-0.001875
-0.002125
-0.002375
-0.002625
-0.002875
-0.003125
-0.003375
-0.003625
-0.003875
-0.004125
-0.004375
-0.004625
-0.004875
-0.005125
-0.005375
-0.005625
-0.005875
-0.006125
-0.006375
-0.006625
-0.006875
-0.007125
-0.007375
-0.007625
-0.007875
-0.008125
-0.008375
-0.008625
-0.008875
-0.009125
-0.009375
-0.009625
-0.009875
-0.010125
-0.010375
-0.010625
-0.010875
-0.011125
-0.011375
-0.011625
-0.011875
-0.012125
-0.012375
-0.012625
-0.012875
-0.013125
-0.013375
-0.013625
-0.013875
-0.014125
-0.014375
-0.014625
-0.0153594
-0.0167533
-0.0179542
-0.0186509
-0.019122
-0.0194786
-0.0197802
-0.0200572
-0.0203198
-0.0205826
-0.0208373
-0.021087
-0.0213639
-0.021624
-0.0218366
-0.0220641
-0.0223728
-0.0226757
-0.0228403
-0.0230291
-0.0233386
-0.0236237
-0.0239503
-0.0242823
-0.0244954
-0.0246788
-0.0248656
-0.0250323
-0.0253255
-0.0256459
-0.0257513
-0.0259413
-0.0264293
-0.026679
-0.0266171
-0.0269584
-0.0275576
-0.0276278
-0.0275082
-0.0279505
-0.028541
-0.0286301
-0.0285661
-0.0289004
-0.0294348
-0.029715
-0.0297589
-0.0299065
-0.0302681
-0.0306458
-0.0308759
-0.0310197
-0.0311993
-0.0314399
-0.0317147
-0.0320059
-0.0322974
-0.0325727
-0.032827
-0.0330715
-0.0333205
-0.0335734
-0.0338213
-0.034065
-0.0343116
-0.0345622
-0.0348135
-0.0350636
-0.0353127
-0.0355615
-0.0358103
-0.0360592
-0.0363083
-0.0365575
-0.036807
-0.0370568
-0.0373065
-0.0375564
-0.0378063
-0.0380562
-0.0383061
-0.038556
-0.0388059
-0.0390557
-0.0393055
-0.0395553
-0.039805
-0.0400548
-0.0403047
-0.0405545
-0.0408044
-0.0410538
-0.0413034
-0.0415537
-0.0418034
-0.0420524
-0.0423021
-0.0425524
-0.0428026
-0.0430518
-0.0433009
-0.043551
-0.0438013
-0.0440506
-0.0442998
-0.0445499
-0.0447998
-0.0450493
-0.0452989
-0.0455489
-0.0457986
-0.0460476
-0.0462972
-0.0465475
-0.0467968
-0.0470458
-0.0472963
-0.0475464
-0.0477947
-0.0480448
-0.0482948
-0.0485432
-0.0487942
-0.0490432
-0.049292
-0.0495437
-0.04979
-0.0500408
-0.0502953
-0.0505372
-0.0507871
-0.0510465
-0.0512861
-0.0515334
-0.0517968
-0.0520352
-0.0522787
-0.0525466
-0.0527869
-0.0530238
-0.0532919
-0.0535403
-0.0537752
-0.0540342
-0.0542849
-0.0545291
-0.0547865
-0.0550284
-0.0552723
-0.0555379
-0.0557822
-0.0560192
-0.0562805
-0.056529
-0.0567716
-0.0570325
-0.0572765
-0.0575162
-0.057779
-0.0580273
-0.0582693
-0.0585319
-0.0587786
-0.0590186
-0.05928
-0.0595266
-0.0597662
-0.0600275
-0.0602745
-0.060514
-0.0607753
-0.0610224
-0.0612618
-0.0615231
-0.0617705
-0.0620096
-0.0622709
-0.0625186
-0.0627575
-0.0630186
-0.0632667
-0.0635055
-0.0637664
-0.0640147
-0.0642535
-0.0645143
-0.0647629
-0.0650015
-0.0652623
-0.0655111
-0.0657496
-0.0660103
-0.0662595
-0.0664976
-0.0667584
-0.0670079
-0.067246
-0.0675067
-0.0677561
-0.0679948
-0.0682545
-0.0685054
-0.0687427
-0.0690025
-0.0692546
-0.0694916
-0.0697511
-0.0700031
-0.0702435
-0.0704946
-0.0707514
-0.070998
-0.0712439
-0.0714951
-0.0717452
-0.0719988
-0.0722462
-0.072491
-0.0727405
-0.0729997
-0.0732498
-0.07349
-0.0737367
-0.0739961
-0.0742485
-0.0744929
-0.07474
-0.0749935
-0.0752471
-0.0754986
-0.0757483
-0.0759985
-0.0762503
-0.0764925
-0.0767638
-0.076882
-0.076135
-0.0748344
-0.074375
-0.074625
-0.074875
)
;

boundaryField
{
    inlet
    {
        type            calculated;
        value           uniform 0;
    }
    outlet
    {
        type            calculated;
        value           uniform 0;
    }
    sideWall
    {
        type            empty;
    }
}


// ************************************************************************* //
