/*--------------------------------*- C++ -*----------------------------------*\
| =========                 |                                                 |
| \\      /  F ield         | foam-extend: Open Source CFD                    |
|  \\    /   O peration     | Version:     3.2                                |
|   \\  /    A nd           | Web:         http://www.foam-extend.org         |
|    \\/     M anipulation  | For copyright notice see file Copyright         |
\*---------------------------------------------------------------------------*/
FoamFile
{
    version     2.0;
    format      ascii;
    class       areaScalarField;
    location    "50";
    object      zDimA;
}
// * * * * * * * * * * * * * * * * * * * * * * * * * * * * * * * * * * * * * //

dimensions      [0 1 0 0 0 0 0];

internalField   nonuniform List<scalar> 
300
(
0.00191667
0.00191667
0.00191667
0.00191667
0.00191667
0.00191667
0.00191667
0.00191667
0.00191667
0.00191667
0.00191667
0.00191667
0.00191667
0.00191667
0.00191667
0.00191667
0.00191667
0.00191667
0.00191667
0.00191667
0.00191667
0.00191667
0.00191667
0.00191667
0.00191667
0.00191667
0.00191667
0.00191667
0.00191667
0.00191667
0.00191667
0.00191667
0.00191667
0.00191667
0.00191667
0.00191667
0.00191667
0.00191667
0.00191667
0.00191667
0.00191667
0.00191667
0.00191667
0.00191667
0.00191667
0.00191667
0.00191667
0.0019167
0.0019167
0.0019167
0.0019167
0.0019167
0.0019167
0.0019167
0.0019167
0.0019167
0.0019167
0.00191669
0.00191678
0.00288453
0.00323602
0.00250118
0.00222817
0.00204868
0.00199894
0.00193872
0.00194937
0.00191003
0.00194965
0.00189396
0.00193966
0.00194814
0.00190641
0.00185303
0.00193603
0.00201534
0.00192466
0.00173905
0.00197261
0.0019802
0.00192429
0.0020631
0.00193494
0.00182573
0.00187543
0.00183218
0.0018356
0.00208445
0.00189062
0.001679
0.00205903
0.00225035
0.00175124
0.00170558
0.00238827
0.00214374
0.00200234
0.00176306
0.00245429
0.00206066
0.00188125
0.00175317
0.00224852
0.00215401
0.00174128
0.0016813
0.00194772
0.00210913
0.00198047
0.00181418
0.00180782
0.0018854
0.0019299
0.00195366
0.00196296
0.00195409
0.00193077
0.00191193
0.00191138
0.00192077
0.0019191
0.00191092
0.00191073
0.00191645
0.00191887
0.00191791
0.00191646
0.001916
0.00191578
0.00191584
0.00191617
0.00191619
0.00191639
0.00191679
0.00191678
0.00191687
0.001917
0.00191698
0.001917
0.00191696
0.00191702
0.00191695
0.00191682
0.00191696
0.00191671
0.00191681
0.00191708
0.00191673
0.00191711
0.00191682
0.00191607
0.0019173
0.00191748
0.00191603
0.00191628
0.00191723
0.00191756
0.00191691
0.00191574
0.00191648
0.00191792
0.00191694
0.00191574
0.00191684
0.00191743
0.00191664
0.00191646
0.0019169
0.00191718
0.00191637
0.0019159
0.00191737
0.0019173
0.00191557
0.00191658
0.00191849
0.00191586
0.00191503
0.0019192
0.00191493
0.00191608
0.0019201
0.00191211
0.0019196
0.00191782
0.001909
0.00192677
0.00191646
0.00190135
0.00193267
0.00192028
0.00189304
0.00193566
0.00192528
0.00188576
0.00193541
0.00193447
0.00188045
0.00192736
0.00194286
0.00188818
0.00191594
0.00193605
0.00189959
0.00192287
0.0019261
0.00189185
0.00193004
0.00193534
0.00188749
0.00192074
0.00193586
0.00189537
0.00192392
0.00193204
0.00189019
0.00192327
0.0019365
0.00189427
0.00192384
0.00193543
0.00189225
0.00192182
0.00193515
0.00189212
0.00192124
0.00193562
0.0018924
0.00192077
0.00193592
0.00189257
0.00192037
0.0019363
0.00189263
0.00191982
0.00193677
0.00189284
0.00191919
0.00193713
0.00189316
0.00191862
0.00193736
0.00189344
0.0019182
0.00193765
0.0018936
0.00191779
0.00193786
0.00189404
0.0019171
0.00193828
0.00189439
0.00191605
0.00193962
0.00189342
0.00191708
0.00193835
0.00189467
0.00191688
0.00193657
0.00189943
0.00190932
0.0019443
0.00189407
0.00191411
0.00193896
0.00189921
0.00191582
0.00192043
0.00192748
0.00189988
0.00192597
0.00191056
0.00192378
0.00191758
0.00191131
0.00191242
0.00192087
0.00193155
0.00190272
0.00191195
0.00191561
0.00193718
0.00190189
0.00192111
0.00190721
0.00193387
0.0019074
0.00192987
0.00190367
0.00193076
0.00190696
0.00191176
0.00196475
0.00173047
0.00309972
0.00283379
0.00191504
0.00191682
0.00191669
)
;

boundaryField
{
    inlet
    {
        type            calculated;
        value           uniform 0;
    }
    outlet
    {
        type            calculated;
        value           uniform 0;
    }
    sideWall
    {
        type            empty;
    }
}


// ************************************************************************* //
