/*--------------------------------*- C++ -*----------------------------------*\
| =========                 |                                                 |
| \\      /  F ield         | foam-extend: Open Source CFD                    |
|  \\    /   O peration     | Version:     3.2                                |
|   \\  /    A nd           | Web:         http://www.foam-extend.org         |
|    \\/     M anipulation  | For copyright notice see file Copyright         |
\*---------------------------------------------------------------------------*/
FoamFile
{
    version     2.0;
    format      ascii;
    class       volScalarField;
    location    "50";
    object      zDim;
}
// * * * * * * * * * * * * * * * * * * * * * * * * * * * * * * * * * * * * * //

dimensions      [0 1 0 0 0 0 0];

internalField   nonuniform List<scalar> 
5400
(
0.00191667
0.00191667
0.00191667
0.00191667
0.00191667
0.00191667
0.00191667
0.00191667
0.00191667
0.00191667
0.00191667
0.00191667
0.00191667
0.00191667
0.00191667
0.00191667
0.00191667
0.00191667
0.00191667
0.00191667
0.00191667
0.00191667
0.00191667
0.00191667
0.00191667
0.00191667
0.00191667
0.00191667
0.00191667
0.00191667
0.00191667
0.00191667
0.00191667
0.00191667
0.00191667
0.00191667
0.00191667
0.00191667
0.00191667
0.00191667
0.00191667
0.00191667
0.00191667
0.00191667
0.00191667
0.00191667
0.00191667
0.0019167
0.0019167
0.0019167
0.0019167
0.0019167
0.0019167
0.0019167
0.0019167
0.0019167
0.0019167
0.00191669
0.00191678
0.00288453
0.00323602
0.00250118
0.00222817
0.00204868
0.00199894
0.00193872
0.00194937
0.00191003
0.00194965
0.00189396
0.00193966
0.00194814
0.00190641
0.00185303
0.00193603
0.00201534
0.00192466
0.00173905
0.00197261
0.0019802
0.00192429
0.0020631
0.00193494
0.00182573
0.00187543
0.00183218
0.0018356
0.00208445
0.00189062
0.001679
0.00205903
0.00225035
0.00175124
0.00170558
0.00238827
0.00214374
0.00200234
0.00176306
0.00245429
0.00206066
0.00188125
0.00175317
0.00224852
0.00215401
0.00174128
0.0016813
0.00194772
0.00210913
0.00198047
0.00181418
0.00180782
0.0018854
0.0019299
0.00195366
0.00196296
0.00195409
0.00193077
0.00191193
0.00191138
0.00192077
0.0019191
0.00191092
0.00191073
0.00191645
0.00191887
0.00191791
0.00191646
0.001916
0.00191578
0.00191584
0.00191617
0.00191619
0.00191639
0.00191679
0.00191678
0.00191687
0.001917
0.00191698
0.001917
0.00191696
0.00191702
0.00191695
0.00191682
0.00191696
0.00191671
0.00191681
0.00191708
0.00191673
0.00191711
0.00191682
0.00191607
0.0019173
0.00191748
0.00191603
0.00191628
0.00191723
0.00191756
0.00191691
0.00191574
0.00191648
0.00191792
0.00191694
0.00191574
0.00191684
0.00191743
0.00191664
0.00191646
0.0019169
0.00191718
0.00191637
0.0019159
0.00191737
0.0019173
0.00191557
0.00191658
0.00191849
0.00191586
0.00191503
0.0019192
0.00191493
0.00191608
0.0019201
0.00191211
0.0019196
0.00191782
0.001909
0.00192677
0.00191646
0.00190135
0.00193267
0.00192028
0.00189304
0.00193566
0.00192528
0.00188576
0.00193541
0.00193447
0.00188045
0.00192736
0.00194286
0.00188818
0.00191594
0.00193605
0.00189959
0.00192287
0.0019261
0.00189185
0.00193004
0.00193534
0.00188749
0.00192074
0.00193586
0.00189537
0.00192392
0.00193204
0.00189019
0.00192327
0.0019365
0.00189427
0.00192384
0.00193543
0.00189225
0.00192182
0.00193515
0.00189212
0.00192124
0.00193562
0.0018924
0.00192077
0.00193592
0.00189257
0.00192037
0.0019363
0.00189263
0.00191982
0.00193677
0.00189284
0.00191919
0.00193713
0.00189316
0.00191862
0.00193736
0.00189344
0.0019182
0.00193765
0.0018936
0.00191779
0.00193786
0.00189404
0.0019171
0.00193828
0.00189439
0.00191605
0.00193962
0.00189342
0.00191708
0.00193835
0.00189467
0.00191688
0.00193657
0.00189943
0.00190932
0.0019443
0.00189407
0.00191411
0.00193896
0.00189921
0.00191582
0.00192043
0.00192748
0.00189988
0.00192597
0.00191056
0.00192378
0.00191758
0.00191131
0.00191242
0.00192087
0.00193155
0.00190272
0.00191195
0.00191561
0.00193718
0.00190189
0.00192111
0.00190721
0.00193387
0.0019074
0.00192987
0.00190367
0.00193076
0.00190696
0.00191176
0.00196475
0.00173047
0.00309972
0.00283379
0.00191504
0.00191682
0.00191669
0.00191666
0.00191666
0.00191666
0.00191666
0.00191666
0.00191666
0.00191666
0.00191666
0.00191666
0.00191666
0.00191666
0.00191666
0.00191666
0.00191666
0.00191666
0.00191666
0.00191666
0.00191666
0.00191666
0.00191666
0.00191666
0.00191666
0.00191666
0.00191666
0.00191666
0.00191666
0.00191666
0.00191666
0.00191666
0.00191666
0.00191666
0.00191666
0.00191666
0.00191666
0.00191666
0.00191666
0.00191666
0.00191666
0.00191666
0.00191666
0.00191666
0.00191666
0.00191666
0.00191666
0.00191666
0.00191666
0.00191663
0.00191663
0.00191663
0.00191663
0.00191663
0.00191663
0.00191663
0.00191663
0.0019166
0.0019166
0.00191661
0.0019165
0.00191788
0.00288197
0.00323507
0.00250511
0.00223098
0.00205179
0.00200177
0.00194178
0.00195217
0.00191313
0.00195237
0.00189714
0.00194247
0.00195102
0.00190942
0.00185625
0.00193883
0.00201795
0.00192762
0.00174289
0.00197483
0.00198305
0.00192762
0.00206549
0.00193824
0.00182917
0.00187824
0.00183529
0.0018389
0.00208638
0.00189381
0.00168042
0.00206099
0.00225179
0.00175302
0.00170643
0.00238859
0.00214633
0.00200279
0.00176553
0.0024546
0.002064
0.00188242
0.00175579
0.00224979
0.0021567
0.00174537
0.00168474
0.00195003
0.00211138
0.00198357
0.0018176
0.00181085
0.00188811
0.00193265
0.00195645
0.00196579
0.00195698
0.00193373
0.00191491
0.00191432
0.00192367
0.00192202
0.00191387
0.00191367
0.00191936
0.00192178
0.00192083
0.00191939
0.00191893
0.00191871
0.00191876
0.00191909
0.00191911
0.00191931
0.00191971
0.00191969
0.00191979
0.00191992
0.0019199
0.00191991
0.00191988
0.00191994
0.00191987
0.00191973
0.00191987
0.00191962
0.00191973
0.00192
0.00191965
0.00192003
0.00191974
0.00191899
0.00192021
0.00192039
0.00191895
0.00191919
0.00192014
0.00192047
0.00191983
0.00191866
0.0019194
0.00192083
0.00191986
0.00191866
0.00191975
0.00192034
0.00191955
0.00191938
0.00191981
0.00192009
0.00191928
0.00191882
0.00192027
0.00192021
0.00191849
0.00191949
0.00192139
0.00191877
0.00191795
0.00192209
0.00191785
0.00191899
0.00192298
0.00191505
0.00192249
0.00192072
0.00191196
0.0019296
0.00191938
0.00190435
0.00193547
0.00192318
0.00189608
0.00193842
0.00192816
0.00188885
0.00193816
0.0019373
0.00188358
0.00193014
0.00194564
0.00189129
0.00191878
0.00193884
0.00190264
0.0019257
0.00192894
0.00189491
0.00193283
0.00193816
0.00189058
0.00192356
0.00193866
0.00189843
0.00192673
0.00193485
0.00189326
0.00192608
0.0019393
0.00189734
0.00192666
0.00193823
0.00189532
0.00192465
0.00193795
0.00189518
0.00192406
0.00193841
0.00189546
0.00192359
0.0019387
0.00189564
0.00192319
0.00193908
0.00189569
0.00192265
0.00193955
0.0018959
0.00192202
0.0019399
0.00189621
0.00192145
0.00194013
0.00189649
0.00192103
0.00194041
0.00189666
0.00192062
0.00194062
0.00189709
0.00191994
0.00194103
0.00189743
0.00191889
0.00194236
0.00189647
0.00191991
0.0019411
0.00189771
0.00191971
0.00193934
0.00190243
0.00191221
0.001947
0.00189713
0.00191696
0.0019417
0.00190223
0.00191864
0.00192331
0.00193029
0.00190288
0.00192874
0.0019135
0.0019266
0.00192046
0.0019142
0.00191529
0.00192374
0.00193435
0.0019057
0.00191479
0.0019185
0.00193993
0.0019049
0.0019239
0.00191017
0.00193661
0.00191039
0.00193263
0.00190667
0.00193351
0.0019099
0.00191471
0.00196712
0.00173651
0.00309862
0.00283003
0.00191157
0.001917
0.00191657
0.00191667
0.00191667
0.00191667
0.00191667
0.00191667
0.00191667
0.00191667
0.00191667
0.00191667
0.00191667
0.00191667
0.00191667
0.00191667
0.00191667
0.00191667
0.00191667
0.00191667
0.00191667
0.00191667
0.00191667
0.00191667
0.00191667
0.00191667
0.00191667
0.00191667
0.00191667
0.00191667
0.00191667
0.00191667
0.00191667
0.00191667
0.00191667
0.00191667
0.00191667
0.00191667
0.00191667
0.00191667
0.00191667
0.00191667
0.00191667
0.00191667
0.00191667
0.00191667
0.00191667
0.00191667
0.00191667
0.00191667
0.00191667
0.00191667
0.00191667
0.00191667
0.00191667
0.00191667
0.0019167
0.0019167
0.0019167
0.00191672
0.00191641
0.00192034
0.00287822
0.00323296
0.00251134
0.00223634
0.00205795
0.00200765
0.00194813
0.00195811
0.0019196
0.00195821
0.00190372
0.00194849
0.00195709
0.0019157
0.00186295
0.00194487
0.00202358
0.00193376
0.0017507
0.00197996
0.00198903
0.00193448
0.00207077
0.00194493
0.00183627
0.00188431
0.00184181
0.00184584
0.00209089
0.00190022
0.00168406
0.0020658
0.00225519
0.00175693
0.00170935
0.00239051
0.00215137
0.00200449
0.00177158
0.00245633
0.0020703
0.00188536
0.00176192
0.00225324
0.0021621
0.00175335
0.001692
0.00195537
0.00211634
0.00198986
0.00182458
0.00181731
0.00189399
0.00193854
0.00196236
0.00197175
0.00196305
0.00193993
0.00192117
0.00192054
0.00192981
0.0019282
0.0019201
0.00191987
0.00192552
0.00192794
0.00192701
0.00192557
0.0019251
0.00192488
0.00192494
0.00192526
0.00192528
0.00192548
0.00192587
0.00192586
0.00192595
0.00192608
0.00192606
0.00192608
0.00192605
0.0019261
0.00192603
0.0019259
0.00192603
0.00192579
0.00192589
0.00192616
0.00192581
0.00192619
0.0019259
0.00192516
0.00192636
0.00192655
0.00192512
0.00192535
0.0019263
0.00192662
0.00192598
0.00192482
0.00192555
0.00192698
0.00192601
0.00192482
0.00192591
0.00192649
0.00192571
0.00192553
0.00192597
0.00192624
0.00192543
0.00192498
0.00192641
0.00192635
0.00192465
0.00192564
0.00192753
0.00192493
0.00192411
0.0019282
0.00192402
0.00192514
0.00192909
0.00192126
0.00192859
0.00192685
0.00191819
0.00193563
0.00192552
0.00191065
0.00194143
0.0019293
0.00190247
0.00194433
0.00193423
0.00189531
0.00194406
0.00194329
0.0018901
0.0019361
0.00195155
0.00189775
0.00192484
0.00194477
0.001909
0.00193173
0.00193496
0.0019013
0.00193879
0.00194412
0.00189702
0.00192957
0.00194459
0.00190482
0.00193274
0.00194082
0.00189966
0.00193207
0.00194523
0.00190373
0.00193267
0.00194417
0.00190172
0.00193066
0.00194388
0.00190158
0.00193008
0.00194433
0.00190186
0.00192961
0.00194462
0.00190203
0.00192922
0.00194498
0.00190208
0.00192868
0.00194545
0.00190228
0.00192805
0.00194579
0.00190259
0.00192749
0.00194601
0.00190286
0.00192707
0.00194629
0.00190302
0.00192666
0.0019465
0.00190345
0.00192598
0.00194689
0.00190379
0.00192495
0.0019482
0.00190284
0.00192595
0.00194696
0.00190406
0.00192575
0.00194522
0.00190871
0.00191835
0.00195276
0.0019035
0.00192301
0.00194755
0.00190854
0.00192465
0.00192939
0.00193625
0.00190916
0.00193464
0.00191969
0.00193259
0.00192655
0.00192031
0.00192138
0.0019298
0.00194029
0.00191194
0.00192082
0.00192462
0.00194579
0.0019112
0.00192983
0.00191638
0.00194247
0.00191665
0.00193851
0.00191295
0.00193939
0.00191609
0.00192097
0.00197228
0.00174628
0.00309586
0.00282417
0.00190692
0.0019175
0.00191664
0.00191667
0.00191667
0.00191667
0.00191667
0.00191667
0.00191667
0.00191667
0.00191667
0.00191667
0.00191667
0.00191667
0.00191667
0.00191667
0.00191667
0.00191667
0.00191667
0.00191667
0.00191667
0.00191667
0.00191667
0.00191667
0.00191667
0.00191667
0.00191667
0.00191667
0.00191667
0.00191667
0.00191667
0.00191667
0.00191667
0.00191667
0.00191667
0.00191667
0.00191667
0.00191667
0.00191667
0.00191667
0.00191667
0.00191667
0.00191667
0.00191667
0.00191667
0.00191667
0.00191667
0.00191667
0.00191667
0.00191667
0.00191667
0.00191667
0.00191667
0.00191667
0.00191667
0.00191667
0.00191667
0.00191667
0.00191667
0.00191672
0.00191611
0.00192355
0.0028722
0.00322847
0.00251893
0.0022437
0.00206676
0.00201625
0.00195743
0.0019669
0.00192917
0.00196691
0.00191345
0.00195747
0.00196612
0.00192502
0.00187292
0.00195391
0.00203195
0.00194283
0.00176223
0.00198778
0.00199785
0.00194458
0.00207865
0.00195476
0.00184682
0.00189348
0.00185155
0.00185618
0.00209774
0.00190964
0.00168964
0.00207319
0.00226026
0.00176262
0.00171409
0.00239372
0.00215855
0.00200707
0.00178105
0.00245912
0.0020792
0.00188971
0.00177142
0.00225852
0.00216984
0.001765
0.00170294
0.0019635
0.00212368
0.00199903
0.00183491
0.00182702
0.00190283
0.0019473
0.00197113
0.00198057
0.00197202
0.00194911
0.00193047
0.00192979
0.00193895
0.00193737
0.00192935
0.00192909
0.00193468
0.0019371
0.00193618
0.00193475
0.00193428
0.00193406
0.00193411
0.00193443
0.00193445
0.00193464
0.00193503
0.00193502
0.00193511
0.00193525
0.00193522
0.00193524
0.00193521
0.00193526
0.00193519
0.00193506
0.00193519
0.00193495
0.00193505
0.00193531
0.00193497
0.00193534
0.00193505
0.00193432
0.00193551
0.00193569
0.00193428
0.00193451
0.00193545
0.00193577
0.00193514
0.00193398
0.00193471
0.00193611
0.00193516
0.00193398
0.00193505
0.00193563
0.00193486
0.00193468
0.00193511
0.00193538
0.00193458
0.00193413
0.00193555
0.00193549
0.00193381
0.00193478
0.00193664
0.00193408
0.00193327
0.00193729
0.00193318
0.00193429
0.00193816
0.00193047
0.00193767
0.00193595
0.00192745
0.00194461
0.00193465
0.00192001
0.0019503
0.00193838
0.00191195
0.00195314
0.00194324
0.0019049
0.00195287
0.00195217
0.00189976
0.00194499
0.00196032
0.00190733
0.00193387
0.00195359
0.00191844
0.00194071
0.0019439
0.00191078
0.00194768
0.00195298
0.00190657
0.00193853
0.00195341
0.00191429
0.0019417
0.00194968
0.00190916
0.00194102
0.00195405
0.00191321
0.00194163
0.001953
0.00191121
0.00193963
0.0019527
0.00191107
0.00193906
0.00195314
0.00191133
0.00193859
0.00195342
0.0019115
0.0019382
0.00195377
0.00191154
0.00193766
0.00195422
0.00191174
0.00193704
0.00195455
0.00191204
0.00193648
0.00195476
0.0019123
0.00193606
0.00195503
0.00191246
0.00193565
0.00195523
0.00191287
0.00193498
0.00195562
0.0019132
0.00193397
0.0019569
0.00191227
0.00193494
0.00195568
0.00191347
0.00193474
0.00195398
0.00191802
0.00192748
0.00196136
0.00191293
0.00193203
0.00195625
0.0019179
0.00193359
0.00193842
0.0019451
0.00191848
0.00194344
0.00192886
0.0019415
0.00193559
0.00192938
0.00193043
0.00193881
0.00194911
0.00192119
0.0019298
0.00193371
0.00195451
0.00192053
0.00193867
0.00192561
0.0019512
0.00192593
0.00194728
0.00192225
0.00194816
0.00192526
0.00193025
0.00198004
0.00175893
0.00309012
0.00281495
0.0019013
0.00191799
0.0019166
0.00191666
0.00191666
0.00191666
0.00191666
0.00191666
0.00191666
0.00191666
0.00191666
0.00191666
0.00191666
0.00191666
0.00191666
0.00191666
0.00191666
0.00191666
0.00191666
0.00191666
0.00191666
0.00191666
0.00191666
0.00191666
0.00191666
0.00191666
0.00191666
0.00191666
0.00191666
0.00191666
0.00191666
0.00191666
0.00191666
0.00191666
0.00191666
0.00191666
0.00191666
0.00191666
0.00191666
0.00191666
0.00191666
0.00191666
0.00191666
0.00191666
0.00191666
0.00191666
0.00191666
0.00191666
0.00191666
0.00191666
0.00191666
0.00191666
0.00191666
0.00191666
0.00191666
0.00191666
0.00191666
0.00191666
0.00191665
0.00191673
0.00191577
0.00192732
0.00286332
0.00322087
0.00252741
0.00225301
0.00207829
0.00202774
0.0019699
0.00197875
0.00194192
0.00197862
0.00192643
0.00196953
0.00197819
0.00193753
0.00188626
0.00196601
0.00204312
0.00195497
0.00177761
0.00199841
0.00200957
0.00195793
0.0020892
0.0019678
0.00186094
0.00190588
0.00186467
0.00186998
0.00210702
0.0019222
0.00169927
0.00208317
0.0022671
0.00177013
0.0017207
0.00239819
0.00216798
0.00201051
0.00179406
0.00246292
0.00209077
0.00189545
0.00178445
0.00226561
0.00217992
0.00178046
0.00171776
0.00197451
0.00213341
0.00201114
0.00184872
0.00184013
0.00191474
0.00195901
0.0019828
0.00199231
0.00198396
0.00196135
0.00194289
0.00194216
0.00195116
0.00194964
0.00194172
0.00194143
0.00194693
0.00194934
0.00194845
0.00194703
0.00194656
0.00194633
0.00194638
0.00194669
0.00194671
0.0019469
0.00194728
0.00194728
0.00194736
0.00194749
0.00194747
0.00194749
0.00194746
0.00194751
0.00194744
0.00194731
0.00194744
0.0019472
0.0019473
0.00194755
0.00194722
0.00194758
0.00194729
0.00194658
0.00194775
0.00194792
0.00194654
0.00194675
0.00194768
0.001948
0.00194737
0.00194624
0.00194694
0.00194833
0.0019474
0.00194623
0.00194728
0.00194785
0.00194709
0.00194691
0.00194734
0.0019476
0.00194681
0.00194637
0.00194776
0.0019477
0.00194604
0.00194701
0.00194883
0.00194631
0.00194552
0.00194945
0.00194544
0.00194651
0.00195029
0.00194279
0.00194981
0.00194812
0.00193982
0.00195662
0.00194685
0.00193251
0.00196219
0.00195052
0.00192461
0.00196495
0.00195529
0.00191768
0.00196467
0.00196405
0.00191264
0.0019569
0.00197206
0.0019201
0.00194597
0.0019654
0.00193102
0.00195274
0.00195586
0.00192344
0.00195957
0.00196482
0.0019193
0.00195054
0.00196521
0.00192691
0.00195369
0.00196153
0.00192184
0.001953
0.00196584
0.00192585
0.00195362
0.00196482
0.00192387
0.00195164
0.0019645
0.00192372
0.00195107
0.00196492
0.00192398
0.00195061
0.00196519
0.00192413
0.00195022
0.00196552
0.00192417
0.00194968
0.00196596
0.00192436
0.00194906
0.00196628
0.00192464
0.00194851
0.00196648
0.0019249
0.0019481
0.00196673
0.00192504
0.00194769
0.00196692
0.00192544
0.00194703
0.0019673
0.00192576
0.00194603
0.00196854
0.00192485
0.00194697
0.00196734
0.00192602
0.00194676
0.00196569
0.00193044
0.00193968
0.00197287
0.00192551
0.0019441
0.00196789
0.00193037
0.00194557
0.00195048
0.00195694
0.00193092
0.00195522
0.00194111
0.00195342
0.00194766
0.0019415
0.00194252
0.00195084
0.00196091
0.00193354
0.00194182
0.00194584
0.00196617
0.00193296
0.00195052
0.00193791
0.00196289
0.0019383
0.00195903
0.00193466
0.00195991
0.00193751
0.00194265
0.00199054
0.00177396
0.00308047
0.00280136
0.00189516
0.00191843
0.00191645
0.00191667
0.00191667
0.00191667
0.00191667
0.00191667
0.00191667
0.00191667
0.00191667
0.00191667
0.00191667
0.00191667
0.00191667
0.00191667
0.00191667
0.00191667
0.00191667
0.00191667
0.00191667
0.00191667
0.00191667
0.00191667
0.00191667
0.00191667
0.00191667
0.00191667
0.00191667
0.00191667
0.00191667
0.00191667
0.00191667
0.00191667
0.00191667
0.00191667
0.00191667
0.00191667
0.00191667
0.00191667
0.00191667
0.00191667
0.00191667
0.00191667
0.00191667
0.00191667
0.00191667
0.00191667
0.00191667
0.00191667
0.00191667
0.00191667
0.00191667
0.00191667
0.00191667
0.00191667
0.00191667
0.00191667
0.00191666
0.00191678
0.00191542
0.00193133
0.00285077
0.00320926
0.00253615
0.00226408
0.0020925
0.00204216
0.00198558
0.00199383
0.00195814
0.0019936
0.00194293
0.00198493
0.00199358
0.00195352
0.00190333
0.00198156
0.00205744
0.00197061
0.00179725
0.00201228
0.00202457
0.00197487
0.00210278
0.00198444
0.00187907
0.001922
0.00188163
0.00188765
0.0021191
0.00193835
0.00171738
0.00209606
0.00227606
0.0017798
0.00172952
0.00240419
0.00218004
0.00201506
0.00181106
0.00246796
0.00210536
0.00190284
0.00180148
0.00227476
0.00219262
0.0018002
0.00173697
0.0019888
0.00214586
0.00202655
0.00186646
0.00185711
0.00193018
0.00197408
0.00199776
0.00200732
0.00199925
0.00197705
0.00195884
0.00195805
0.00196687
0.0019654
0.00195761
0.00195729
0.00196268
0.00196507
0.00196421
0.00196281
0.00196233
0.00196211
0.00196215
0.00196245
0.00196247
0.00196265
0.00196303
0.00196302
0.0019631
0.00196323
0.00196321
0.00196323
0.0019632
0.00196325
0.00196317
0.00196305
0.00196317
0.00196294
0.00196304
0.00196328
0.00196296
0.00196331
0.00196303
0.00196233
0.00196347
0.00196364
0.00196228
0.00196249
0.00196339
0.00196371
0.00196309
0.00196198
0.00196267
0.00196403
0.00196312
0.00196197
0.00196299
0.00196356
0.00196281
0.00196263
0.00196305
0.0019633
0.00196253
0.00196209
0.00196345
0.00196339
0.00196177
0.00196271
0.00196449
0.00196203
0.00196126
0.00196508
0.00196118
0.00196222
0.00196589
0.0019586
0.00196542
0.00196376
0.00195571
0.00197206
0.00196252
0.00194855
0.00197748
0.00196611
0.00194084
0.00198015
0.00197077
0.00193408
0.00197987
0.00197933
0.00192916
0.00197225
0.00198715
0.00193647
0.00196154
0.00198059
0.00194715
0.0019682
0.00197124
0.00193967
0.00197488
0.00198006
0.00193564
0.00196599
0.0019804
0.0019431
0.00196912
0.00197679
0.00193809
0.00196841
0.00198101
0.00194206
0.00196905
0.00198001
0.00194011
0.0019671
0.00197968
0.00193995
0.00196653
0.00198008
0.00194019
0.00196607
0.00198033
0.00194033
0.00196568
0.00198065
0.00194036
0.00196515
0.00198107
0.00194053
0.00196454
0.00198137
0.00194081
0.00196399
0.00198155
0.00194104
0.00196358
0.00198179
0.00194118
0.00196317
0.00198197
0.00194156
0.00196252
0.00198233
0.00194186
0.00196155
0.00198352
0.00194098
0.00196245
0.00198236
0.00194211
0.00196223
0.00198076
0.00194638
0.00195537
0.0019877
0.00194162
0.00195961
0.00198288
0.00194637
0.00196098
0.00196597
0.00197218
0.00194687
0.00197039
0.00195683
0.00196874
0.00196317
0.00195709
0.00195807
0.00196631
0.00197608
0.00194939
0.00195729
0.00196142
0.00198119
0.00194891
0.00196577
0.0019537
0.00197794
0.00195416
0.00197416
0.00195057
0.00197503
0.00195323
0.00195853
0.00200421
0.0017912
0.00306617
0.0027826
0.00188925
0.00191907
0.00191651
0.0019167
0.0019167
0.0019167
0.0019167
0.0019167
0.0019167
0.0019167
0.00191667
0.00191667
0.00191667
0.00191667
0.00191667
0.00191667
0.00191667
0.00191667
0.00191667
0.00191667
0.00191667
0.00191667
0.00191667
0.00191667
0.00191667
0.00191667
0.00191667
0.00191667
0.00191667
0.00191667
0.00191667
0.00191667
0.00191667
0.00191667
0.00191667
0.00191667
0.00191667
0.00191667
0.00191667
0.00191667
0.00191667
0.00191667
0.00191667
0.00191667
0.00191667
0.00191667
0.00191667
0.00191667
0.00191667
0.00191667
0.00191667
0.00191667
0.00191667
0.00191667
0.00191667
0.00191667
0.00191667
0.00191667
0.00191666
0.00191681
0.00191506
0.00193527
0.0028337
0.00319262
0.00254452
0.00227672
0.00210933
0.00205957
0.00200459
0.00201218
0.00197781
0.0020119
0.00196297
0.00200369
0.00201229
0.00197303
0.00192407
0.00200038
0.00207472
0.00198962
0.00182106
0.00202923
0.00204263
0.00199518
0.00211918
0.00200451
0.00190112
0.00194176
0.00190234
0.00190901
0.00213383
0.001958
0.00174293
0.00211163
0.00228698
0.00179138
0.00174031
0.00241141
0.00219457
0.00202039
0.00183196
0.00247388
0.00212276
0.00191155
0.00182247
0.00228568
0.00220769
0.00182418
0.00176056
0.0020062
0.00216076
0.00204509
0.00188807
0.00187792
0.00194902
0.00199233
0.00201582
0.00202544
0.00201771
0.00199605
0.00197819
0.00197735
0.00198593
0.00198452
0.00197691
0.00197654
0.00198179
0.00198416
0.00198332
0.00198196
0.00198148
0.00198125
0.00198128
0.00198157
0.00198158
0.00198176
0.00198213
0.00198212
0.0019822
0.00198233
0.00198231
0.00198232
0.00198229
0.00198234
0.00198227
0.00198215
0.00198226
0.00198204
0.00198213
0.00198237
0.00198206
0.00198239
0.00198211
0.00198143
0.00198254
0.00198271
0.00198139
0.00198158
0.00198246
0.00198278
0.00198217
0.00198108
0.00198175
0.00198307
0.00198219
0.00198107
0.00198205
0.00198261
0.00198189
0.0019817
0.00198211
0.00198235
0.0019816
0.00198117
0.00198249
0.00198243
0.00198086
0.00198177
0.0019835
0.00198111
0.00198035
0.00198405
0.00198027
0.00198128
0.00198482
0.00197778
0.00198436
0.00198274
0.00197498
0.0019908
0.00198154
0.00196801
0.00199605
0.00198504
0.00196052
0.00199861
0.00198956
0.00195395
0.00199832
0.00199787
0.00194917
0.00199087
0.00200547
0.00195631
0.00198045
0.00199902
0.00196669
0.00198698
0.00198992
0.00195934
0.00199346
0.00199854
0.00195543
0.00198475
0.00199882
0.00196272
0.00198784
0.00199531
0.00195779
0.00198711
0.00199942
0.00196169
0.00198777
0.00199846
0.00195978
0.00198585
0.00199811
0.00195961
0.00198529
0.00199849
0.00195983
0.00198483
0.00199872
0.00195996
0.00198444
0.00199902
0.00195998
0.00198392
0.00199941
0.00196014
0.00198332
0.00199968
0.00196039
0.00198277
0.00199985
0.00196061
0.00198237
0.00200007
0.00196073
0.00198196
0.00200024
0.00196109
0.00198133
0.00200057
0.00196137
0.00198037
0.00200171
0.00196052
0.00198122
0.00200058
0.0019616
0.00198101
0.00199904
0.0019657
0.00197438
0.00200571
0.00196114
0.00197845
0.00200107
0.00196574
0.00197969
0.00198475
0.00199067
0.0019662
0.00198882
0.00197587
0.00198733
0.00198198
0.001976
0.00197693
0.00198504
0.00199449
0.0019686
0.00197608
0.0019803
0.00199941
0.00196821
0.00198431
0.00197282
0.00199621
0.00197335
0.00199253
0.00196984
0.0019934
0.00197228
0.00197774
0.00202097
0.00180992
0.00304577
0.00275726
0.00188365
0.00191958
0.00191647
0.0019166
0.0019166
0.0019166
0.0019166
0.0019166
0.0019166
0.00191663
0.00191663
0.00191663
0.00191663
0.00191663
0.00191663
0.00191663
0.00191663
0.00191666
0.00191666
0.00191666
0.00191666
0.00191666
0.00191666
0.00191666
0.00191666
0.00191666
0.00191666
0.00191666
0.00191666
0.00191666
0.00191666
0.00191666
0.00191666
0.00191666
0.00191666
0.00191666
0.00191666
0.00191666
0.00191666
0.00191666
0.00191666
0.00191666
0.00191666
0.00191666
0.00191666
0.00191666
0.00191666
0.00191666
0.00191666
0.00191666
0.00191666
0.00191666
0.00191666
0.00191666
0.00191666
0.00191666
0.00191666
0.00191666
0.00191665
0.00191683
0.00191473
0.00193888
0.00281125
0.00316988
0.0025519
0.00229075
0.00212881
0.00208006
0.00202704
0.002034
0.00200113
0.00203369
0.00198677
0.002026
0.00203453
0.00199629
0.00194882
0.00202277
0.00209522
0.00201238
0.00184942
0.00204959
0.00206404
0.00201912
0.00213867
0.00202835
0.00192747
0.00196556
0.00192723
0.00193437
0.00215134
0.00198143
0.00177328
0.00212997
0.00229993
0.00180493
0.00175385
0.00241976
0.00221169
0.00202638
0.00185699
0.00248054
0.0021431
0.00192151
0.00184769
0.0022983
0.00222514
0.00185268
0.00178889
0.00202688
0.00217816
0.00206687
0.0019138
0.0019028
0.00197148
0.00201392
0.00203711
0.00204678
0.00203949
0.00201852
0.00200111
0.00200022
0.00200852
0.00200718
0.00199978
0.00199936
0.00200445
0.00200677
0.00200597
0.00200464
0.00200416
0.00200393
0.00200396
0.00200422
0.00200424
0.00200441
0.00200476
0.00200475
0.00200483
0.00200495
0.00200493
0.00200494
0.00200492
0.00200496
0.00200489
0.00200477
0.00200488
0.00200466
0.00200475
0.00200498
0.00200468
0.002005
0.00200473
0.00200407
0.00200513
0.0020053
0.00200402
0.00200419
0.00200506
0.00200537
0.00200477
0.00200371
0.00200435
0.00200564
0.00200478
0.0020037
0.00200464
0.00200518
0.00200448
0.0020043
0.00200469
0.00200492
0.00200419
0.00200377
0.00200505
0.00200499
0.00200346
0.00200434
0.00200601
0.0020037
0.00200297
0.00200652
0.00200289
0.00200386
0.00200725
0.0020005
0.00200681
0.00200524
0.00199779
0.00201301
0.00200408
0.00199104
0.00201805
0.00200746
0.00198383
0.00202049
0.00201182
0.00197748
0.00202019
0.00201984
0.00197286
0.00201295
0.00202717
0.00197979
0.00200286
0.00202088
0.00198981
0.00200923
0.00201206
0.00198263
0.00201548
0.00202044
0.00197887
0.00200699
0.00202066
0.00198593
0.00201002
0.00201725
0.00198111
0.00200928
0.00202124
0.00198492
0.00200996
0.00202031
0.00198306
0.00200808
0.00201995
0.00198288
0.00200752
0.0020203
0.00198308
0.00200707
0.0020205
0.00198319
0.00200668
0.00202078
0.00198319
0.00200616
0.00202114
0.00198334
0.00200557
0.00202139
0.00198357
0.00200503
0.00202154
0.00198377
0.00200463
0.00202174
0.00198387
0.00200422
0.00202188
0.00198421
0.0020036
0.00202219
0.00198446
0.00200267
0.00202327
0.00198364
0.00200347
0.00202218
0.00198467
0.00200325
0.00202071
0.00198857
0.0019969
0.00202707
0.00198424
0.00200076
0.00202262
0.00198867
0.00200189
0.00200696
0.00201258
0.00198907
0.00201068
0.0019984
0.00200936
0.00200425
0.0019984
0.00199928
0.00200722
0.00201629
0.00199135
0.00199835
0.00200263
0.00202099
0.00199105
0.00200629
0.00199544
0.00201786
0.00199605
0.00201431
0.00199263
0.00201518
0.00199485
0.00200044
0.00204099
0.00182971
0.00301803
0.00272415
0.00187871
0.00191991
0.00191633
0.0019167
0.0019167
0.0019167
0.0019167
0.0019167
0.0019167
0.0019167
0.0019167
0.0019167
0.0019167
0.0019167
0.0019167
0.0019167
0.00191667
0.00191667
0.00191667
0.00191667
0.00191667
0.00191667
0.00191667
0.00191667
0.00191667
0.00191667
0.00191667
0.00191667
0.00191667
0.00191667
0.00191667
0.00191667
0.00191667
0.00191667
0.00191667
0.00191667
0.00191667
0.00191667
0.00191667
0.00191667
0.00191667
0.00191667
0.00191667
0.00191667
0.00191667
0.00191667
0.00191667
0.00191667
0.00191667
0.00191667
0.00191667
0.00191667
0.00191667
0.00191667
0.00191667
0.00191667
0.00191667
0.00191667
0.00191665
0.00191686
0.00191445
0.00194198
0.00278257
0.00313991
0.00255765
0.00230598
0.00215094
0.00210377
0.00205312
0.00205947
0.00202832
0.00205921
0.00201455
0.00205207
0.0020605
0.00202354
0.00197781
0.00204891
0.00211907
0.0020391
0.00188264
0.00207356
0.00208893
0.00204685
0.00216134
0.00205613
0.00195841
0.00199368
0.00195658
0.00196404
0.00217193
0.00200905
0.00180895
0.00215132
0.00231514
0.00182063
0.00178088
0.00242945
0.00223181
0.00203319
0.00188674
0.00248809
0.00216677
0.00193293
0.00187777
0.00231289
0.00224528
0.00188635
0.00182264
0.00205131
0.00219841
0.00209236
0.00194422
0.00193238
0.00199809
0.00203935
0.00206209
0.00207179
0.00206504
0.00204494
0.00202812
0.00202717
0.00203514
0.00203388
0.00202674
0.00202628
0.00203115
0.00203341
0.00203266
0.00203137
0.0020309
0.00203066
0.00203068
0.00203093
0.00203094
0.0020311
0.00203143
0.00203142
0.0020315
0.00203161
0.0020316
0.0020316
0.00203158
0.00203162
0.00203155
0.00203143
0.00203154
0.00203132
0.00203141
0.00203162
0.00203134
0.00203164
0.00203138
0.00203074
0.00203176
0.00203193
0.00203069
0.00203085
0.00203168
0.00203198
0.00203141
0.00203038
0.00203099
0.00203223
0.00203141
0.00203036
0.00203125
0.00203178
0.00203111
0.00203093
0.0020313
0.00203152
0.00203081
0.00203041
0.00203163
0.00203157
0.0020301
0.00203094
0.00203254
0.00203033
0.00202962
0.002033
0.00202955
0.00203047
0.00203369
0.00202726
0.00203326
0.00203175
0.00202466
0.00203919
0.00203065
0.00201817
0.00204399
0.00203389
0.00201127
0.00204628
0.00203806
0.00200518
0.00204597
0.00204574
0.00200076
0.00203899
0.00205276
0.00200743
0.0020293
0.00204664
0.00201703
0.00203546
0.00203817
0.00201006
0.00204143
0.00204626
0.00200647
0.00203322
0.0020464
0.00201325
0.00203617
0.00204313
0.00200858
0.00203541
0.00204695
0.00201227
0.0020361
0.00204608
0.00201048
0.00203428
0.00204571
0.00201028
0.00203373
0.00204602
0.00201046
0.00203328
0.00204619
0.00201054
0.00203289
0.00204644
0.00201053
0.00203237
0.00204676
0.00201065
0.00203179
0.00204699
0.00201086
0.00203126
0.00204711
0.00201103
0.00203086
0.00204728
0.00201112
0.00203046
0.0020474
0.00201142
0.00202985
0.00204768
0.00201165
0.00202895
0.00204869
0.00201086
0.00202969
0.00204765
0.00201183
0.00202946
0.00204624
0.00201551
0.00202342
0.00205226
0.00201142
0.00202705
0.00204803
0.00201565
0.00202806
0.00203312
0.00203841
0.002016
0.00203647
0.00202492