/*--------------------------------*- C++ -*----------------------------------*\
| =========                 |                                                 |
| \\      /  F ield         | foam-extend: Open Source CFD                    |
|  \\    /   O peration     | Version:     3.2                                |
|   \\  /    A nd           | Web:         http://www.foam-extend.org         |
|    \\/     M anipulation  | For copyright notice see file Copyright         |
\*---------------------------------------------------------------------------*/
FoamFile
{
    version     2.0;
    format      ascii;
    class       volScalarField;
    location    "20";
    object      nut;
}
// * * * * * * * * * * * * * * * * * * * * * * * * * * * * * * * * * * * * * //

dimensions      [0 2 -1 0 0 0 0];

internalField   nonuniform List<scalar> 
33000
(
6.25877e-06
7.60675e-06
8.99806e-06
1.0401e-05
1.17807e-05
1.31029e-05
1.43383e-05
1.5463e-05
1.64608e-05
1.73219e-05
1.80448e-05
1.8633e-05
1.90949e-05
1.94416e-05
1.96856e-05
1.98397e-05
1.99173e-05
1.99311e-05
1.98176e-05
1.90657e-05
1.83484e-05
1.76724e-05
1.70397e-05
1.64554e-05
1.59182e-05
1.54309e-05
1.49918e-05
1.46003e-05
1.42437e-05
1.39186e-05
1.36225e-05
1.33533e-05
1.31092e-05
1.28879e-05
1.26883e-05
1.25092e-05
1.23494e-05
1.22069e-05
1.20812e-05
1.19706e-05
1.18745e-05
1.17903e-05
1.17179e-05
1.16554e-05
1.16033e-05
1.1559e-05
1.1524e-05
1.14975e-05
1.14788e-05
1.14675e-05
1.14626e-05
1.14639e-05
1.14703e-05
1.14818e-05
1.14973e-05
1.15164e-05
1.15386e-05
1.15635e-05
1.15907e-05
1.16201e-05
1.16513e-05
1.16842e-05
1.17186e-05
1.17543e-05
1.17911e-05
1.18287e-05
1.18669e-05
1.19054e-05
1.19441e-05
1.19827e-05
1.20213e-05
1.20597e-05
1.20977e-05
1.21355e-05
1.2173e-05
1.22101e-05
1.22466e-05
1.22825e-05
1.23177e-05
1.23522e-05
1.23855e-05
1.24178e-05
1.24488e-05
1.24788e-05
1.25077e-05
1.25355e-05
1.25623e-05
1.25881e-05
1.26127e-05
1.26365e-05
1.26589e-05
1.26804e-05
1.27003e-05
1.27196e-05
1.27376e-05
1.2755e-05
1.27713e-05
1.2788e-05
1.28048e-05
1.28222e-05
1.28396e-05
1.28569e-05
1.28742e-05
1.28915e-05
1.29087e-05
1.29257e-05
1.29426e-05
1.29593e-05
1.29758e-05
1.2992e-05
1.3008e-05
1.30235e-05
1.30387e-05
1.30534e-05
1.30675e-05
1.30813e-05
1.30942e-05
1.31062e-05
1.3118e-05
1.31289e-05
1.3139e-05
1.31485e-05
1.31572e-05
1.31652e-05
1.31724e-05
1.31789e-05
1.31846e-05
1.31896e-05
1.31939e-05
1.31975e-05
1.32004e-05
1.32026e-05
1.32042e-05
1.32051e-05
1.32055e-05
1.32053e-05
1.32046e-05
1.32033e-05
1.32015e-05
1.31992e-05
1.31965e-05
1.31933e-05
1.31897e-05
1.31857e-05
1.31813e-05
1.31766e-05
1.31716e-05
1.31663e-05
1.31608e-05
1.3155e-05
1.31491e-05
1.3143e-05
1.31368e-05
1.31305e-05
1.31241e-05
1.31176e-05
1.31111e-05
1.31045e-05
1.30978e-05
1.30912e-05
1.30846e-05
1.3078e-05
1.30714e-05
1.3065e-05
1.30585e-05
1.30522e-05
1.30458e-05
1.30396e-05
1.30334e-05
1.30273e-05
1.30213e-05
1.30155e-05
1.30098e-05
1.30042e-05
1.29989e-05
1.29937e-05
1.29887e-05
1.29839e-05
1.29794e-05
1.29751e-05
1.2971e-05
1.29672e-05
1.29636e-05
1.29604e-05
1.29574e-05
1.29547e-05
1.29524e-05
1.29503e-05
1.29485e-05
1.2947e-05
1.29458e-05
1.2945e-05
1.29444e-05
1.29442e-05
1.29443e-05
1.29447e-05
1.29454e-05
1.29465e-05
1.29478e-05
1.29493e-05
1.29512e-05
1.29534e-05
1.29559e-05
1.29587e-05
1.29618e-05
1.29653e-05
1.2969e-05
1.29729e-05
1.29771e-05
1.29815e-05
1.2986e-05
1.29907e-05
1.29956e-05
1.30007e-05
1.30059e-05
1.30113e-05
1.30168e-05
1.30224e-05
1.30281e-05
1.30339e-05
1.30397e-05
1.30456e-05
1.30515e-05
1.30574e-05
1.30631e-05
1.30682e-05
1.30728e-05
1.30769e-05
1.30805e-05
1.30836e-05
1.30862e-05
1.30884e-05
1.30902e-05
1.30917e-05
1.30928e-05
1.30936e-05
1.30941e-05
1.30944e-05
1.30945e-05
1.30944e-05
1.30941e-05
1.30938e-05
1.30932e-05
1.30926e-05
1.30918e-05
1.30909e-05
1.30898e-05
1.30887e-05
1.30874e-05
1.30862e-05
1.30848e-05
1.30834e-05
1.30821e-05
1.30807e-05
1.30792e-05
1.30778e-05
1.30764e-05
1.3075e-05
1.30736e-05
1.30722e-05
1.30709e-05
1.30695e-05
1.30682e-05
1.30668e-05
1.30654e-05
1.30639e-05
1.30624e-05
1.30609e-05
1.30594e-05
1.30578e-05
1.30564e-05
1.30549e-05
1.30535e-05
1.30522e-05
1.3051e-05
1.30498e-05
1.30486e-05
1.30475e-05
1.30464e-05
1.30454e-05
1.30444e-05
1.30434e-05
1.30425e-05
1.30416e-05
1.30409e-05
1.30403e-05
1.30399e-05
1.30395e-05
1.30393e-05
1.30392e-05
1.30393e-05
1.30394e-05
1.30396e-05
1.30399e-05
1.30403e-05
1.30408e-05
1.30414e-05
1.30421e-05
1.30431e-05
1.30442e-05
1.30454e-05
1.30468e-05
1.30482e-05
1.30497e-05
1.30512e-05
1.30527e-05
1.30542e-05
1.30556e-05
1.30571e-05
1.30586e-05
1.306e-05
1.30615e-05
1.3063e-05
1.30644e-05
1.30657e-05
1.3067e-05
1.30681e-05
1.30692e-05
1.30701e-05
1.30709e-05
1.30717e-05
1.30724e-05
1.30731e-05
1.30739e-05
1.30746e-05
1.30753e-05
1.30759e-05
1.30765e-05
1.30771e-05
1.30776e-05
1.30779e-05
1.30781e-05
1.30782e-05
1.30782e-05
1.3078e-05
1.30776e-05
1.3077e-05
1.30762e-05
1.30752e-05
1.30739e-05
1.30723e-05
1.30705e-05
1.30684e-05
1.30661e-05
1.30636e-05
1.30608e-05
1.30578e-05
1.30546e-05
1.30512e-05
1.30475e-05
1.30437e-05
1.30397e-05
1.30354e-05
1.30311e-05
1.30265e-05
1.30218e-05
1.30169e-05
1.30118e-05
1.30065e-05
1.3001e-05
1.29954e-05
1.29897e-05
1.29838e-05
1.29777e-05
1.29716e-05
1.29652e-05
1.29588e-05
1.29522e-05
1.29454e-05
1.29386e-05
1.29316e-05
1.29246e-05
1.29174e-05
1.29102e-05
1.29028e-05
1.28954e-05
1.28879e-05
1.28804e-05
1.28728e-05
1.28651e-05
1.28574e-05
1.28497e-05
1.2842e-05
1.28342e-05
1.28264e-05
1.28186e-05
1.28108e-05
1.28031e-05
1.27953e-05
1.27876e-05
1.27798e-05
1.27721e-05
1.27644e-05
1.27567e-05
1.27491e-05
1.27414e-05
1.27339e-05
1.27265e-05
1.27191e-05
1.27119e-05
1.27047e-05
1.26977e-05
1.26908e-05
1.2684e-05
1.26773e-05
1.26707e-05
1.26642e-05
1.26579e-05
1.26516e-05
1.26455e-05
1.26394e-05
1.26335e-05
1.26277e-05
1.2622e-05
1.26163e-05
1.26107e-05
1.26052e-05
1.25998e-05
1.25945e-05
1.25892e-05
1.2584e-05
1.25789e-05
1.25739e-05
1.25691e-05
1.25643e-05
1.25597e-05
1.25552e-05
1.25508e-05
1.25465e-05
1.25423e-05
1.25381e-05
1.2534e-05
1.253e-05
1.2526e-05
1.25221e-05
1.25182e-05
1.25145e-05
1.25109e-05
1.25074e-05
1.25039e-05
1.25006e-05
1.24972e-05
1.24939e-05
1.24906e-05
1.24872e-05
1.24839e-05
1.24805e-05
1.24771e-05
1.24737e-05
1.24702e-05
1.24668e-05
1.24633e-05
1.24598e-05
1.24562e-05
1.24525e-05
1.24488e-05
1.24451e-05
1.24414e-05
1.24377e-05
1.24339e-05
1.24303e-05
1.24266e-05
1.24229e-05
1.24192e-05
1.24155e-05
1.24116e-05
1.24078e-05
1.24038e-05
1.23998e-05
1.23956e-05
1.23915e-05
1.23872e-05
1.23829e-05
1.23783e-05
1.23738e-05
1.23691e-05
1.23644e-05
1.23594e-05
1.23545e-05
1.23491e-05
1.23439e-05
1.23381e-05
1.23326e-05
1.23265e-05
1.23208e-05
1.23145e-05
1.23089e-05
1.23024e-05
1.22967e-05
1.22899e-05
1.22841e-05
1.22769e-05
1.22708e-05
1.22632e-05
1.22569e-05
1.22487e-05
1.22421e-05
1.22332e-05
1.22263e-05
1.22168e-05
1.22097e-05
1.21995e-05
1.21924e-05
1.21818e-05
1.21749e-05
1.21638e-05
1.21573e-05
1.21457e-05
1.21397e-05
1.21275e-05
1.21221e-05
1.21094e-05
1.21047e-05
1.20913e-05
1.20874e-05
1.20734e-05
1.20702e-05
1.20552e-05
1.20527e-05
1.20366e-05
1.20349e-05
1.20177e-05
1.20168e-05
1.19984e-05
1.19978e-05
1.19772e-05
1.1976e-05
1.19518e-05
1.1948e-05
1.19163e-05
1.19064e-05
1.18578e-05
1.18357e-05
1.17515e-05
1.17045e-05
1.15469e-05
1.14507e-05
1.11475e-05
1.09494e-05
1.03494e-05
9.97531e-06
8.9039e-06
8.23624e-06
6.9227e-06
6.47715e-06
4.93904e-06
6.44666e-06
3.97987e-06
4.3279e-06
2.57353e-05
5.13872e-05
3.08233e-05
2.21956e-05
1.77186e-05
1.50747e-05
1.34819e-05
1.24726e-05
1.1833e-05
1.14405e-05
1.12302e-05
1.11484e-05
1.11578e-05
1.12312e-05
1.13514e-05
1.15115e-05
1.17108e-05
1.19482e-05
1.22343e-05
1.25766e-05
1.29729e-05
1.34379e-05
1.39754e-05
1.4551e-05
1.51783e-05
1.58707e-05
1.66387e-05
1.74853e-05
1.82215e-05
1.86596e-05
1.91009e-05
1.95395e-05
1.99739e-05
2.04026e-05
2.08245e-05
2.12386e-05
2.16447e-05
2.20419e-05
2.24301e-05
2.28092e-05
2.31797e-05
2.3541e-05
2.38936e-05
2.42375e-05
2.45742e-05
2.4903e-05
2.52256e-05
2.5543e-05
2.58556e-05
2.61629e-05
2.64653e-05
2.67618e-05
2.70525e-05
2.73366e-05
2.76145e-05
2.78847e-05
2.81479e-05
2.84032e-05
2.86517e-05
2.88922e-05
2.9127e-05
2.93542e-05
2.95764e-05
2.97936e-05
3.00058e-05
3.02129e-05
3.04147e-05
3.0611e-05
3.08019e-05
3.09871e-05
3.11665e-05
3.13401e-05
3.15078e-05
3.16696e-05
3.18257e-05
3.19763e-05
3.21216e-05
3.22615e-05
3.23962e-05
3.2526e-05
3.26507e-05
3.277e-05
3.28841e-05
3.29932e-05
3.30974e-05
3.31968e-05
3.32918e-05
3.33825e-05
3.34691e-05
3.35519e-05
3.3631e-05
3.37065e-05
3.37784e-05
3.38466e-05
3.39124e-05
3.39749e-05
3.40356e-05
3.40956e-05
3.41548e-05
3.42124e-05
3.42688e-05
3.43224e-05
3.43735e-05
3.44224e-05
3.44687e-05
3.45124e-05
3.45536e-05
3.45922e-05
3.46284e-05
3.46621e-05
3.46933e-05
3.47221e-05
3.47486e-05
3.47728e-05
3.47947e-05
3.48144e-05
3.48322e-05
3.48471e-05
3.48598e-05
3.48714e-05
3.48807e-05
3.48876e-05
3.4893e-05
3.48965e-05
3.48985e-05
3.48988e-05
3.48977e-05
3.48952e-05
3.48913e-05
3.48862e-05
3.488e-05
3.48727e-05
3.48645e-05
3.48554e-05
3.48455e-05
3.4835e-05
3.48238e-05
3.48121e-05
3.48e-05
3.47874e-05
3.47744e-05
3.47612e-05
3.47478e-05
3.47343e-05
3.47207e-05
3.47071e-05
3.46936e-05
3.46802e-05
3.4667e-05
3.46541e-05
3.46415e-05
3.46293e-05
3.46176e-05
3.46064e-05
3.45957e-05
3.45856e-05
3.4576e-05
3.45671e-05
3.45587e-05
3.4551e-05
3.4544e-05
3.45377e-05
3.45322e-05
3.45274e-05
3.45234e-05
3.45203e-05
3.45179e-05
3.45163e-05
3.45155e-05
3.45155e-05
3.45163e-05
3.45178e-05
3.45203e-05
3.45235e-05
3.45277e-05
3.45328e-05
3.45387e-05
3.45456e-05
3.45535e-05
3.45623e-05
3.4572e-05
3.45828e-05
3.45945e-05
3.46072e-05
3.46209e-05
3.46356e-05
3.46513e-05
3.4668e-05
3.46856e-05
3.47041e-05
3.47234e-05
3.47436e-05
3.47645e-05
3.47861e-05
3.48085e-05
3.48317e-05
3.48555e-05
3.488e-05
3.4905e-05
3.49307e-05
3.49568e-05
3.49833e-05
3.50104e-05
3.50378e-05
3.50658e-05
3.50942e-05
3.5123e-05
3.51521e-05
3.51816e-05
3.52114e-05
3.52412e-05
3.52711e-05
3.53011e-05
3.5331e-05
3.53609e-05
3.53906e-05
3.54202e-05
3.54495e-05
3.54787e-05
3.55075e-05
3.5536e-05
3.55641e-05
3.55918e-05
3.56189e-05
3.56455e-05
3.56629e-05
3.56725e-05
3.56807e-05
3.56878e-05
3.5694e-05
3.56995e-05
3.57043e-05
3.57087e-05
3.57126e-05
3.57162e-05
3.57194e-05
3.57223e-05
3.57249e-05
3.57271e-05
3.57291e-05
3.57309e-05
3.57325e-05
3.57339e-05
3.57353e-05
3.57365e-05
3.57377e-05
3.57388e-05
3.57398e-05
3.57409e-05
3.57418e-05
3.57428e-05
3.57437e-05
3.57445e-05
3.57453e-05
3.57461e-05
3.5747e-05
3.57478e-05
3.57486e-05
3.57494e-05
3.57502e-05
3.5751e-05
3.57518e-05
3.57527e-05
3.57536e-05
3.57546e-05
3.57556e-05
3.57567e-05
3.57577e-05
3.57587e-05
3.57597e-05
3.57608e-05
3.57619e-05
3.57631e-05
3.57645e-05
3.57661e-05
3.5768e-05
3.57703e-05
3.5773e-05
3.57761e-05
3.57795e-05
3.57834e-05
3.57877e-05
3.57923e-05
3.57972e-05
3.58024e-05
3.58078e-05
3.58136e-05
3.58197e-05
3.58261e-05
3.58329e-05
3.584e-05
3.58475e-05
3.58553e-05
3.58633e-05
3.58716e-05
3.58799e-05
3.58883e-05
3.58967e-05
3.59051e-05
3.59135e-05
3.5922e-05
3.59305e-05
3.59392e-05
3.59479e-05
3.59566e-05
3.59652e-05
3.59736e-05
3.59816e-05
3.59891e-05
3.59961e-05
3.60025e-05
3.60083e-05
3.60134e-05
3.60178e-05
3.60217e-05
3.60249e-05
3.60274e-05
3.60292e-05
3.60302e-05
3.60305e-05
3.603e-05
3.60286e-05
3.60265e-05
3.60237e-05
3.60203e-05
3.60164e-05
3.6012e-05
3.60073e-05
3.60022e-05
3.59968e-05
3.59911e-05
3.59849e-05
3.59784e-05
3.59713e-05
3.59636e-05
3.59553e-05
3.59464e-05
3.59368e-05
3.59265e-05
3.59156e-05
3.59039e-05
3.58916e-05
3.58785e-05
3.58646e-05
3.585e-05
3.58348e-05
3.58189e-05
3.58023e-05
3.57853e-05
3.57677e-05
3.57496e-05
3.57311e-05
3.57122e-05
3.56929e-05
3.56733e-05
3.56534e-05
3.56332e-05
3.56129e-05
3.55923e-05
3.55716e-05
3.55507e-05
3.55296e-05
3.55084e-05
3.54871e-05
3.54657e-05
3.54443e-05
3.54228e-05
3.54012e-05
3.53796e-05
3.53581e-05
3.53364e-05
3.53148e-05
3.52932e-05
3.52717e-05
3.52501e-05
3.52286e-05
3.52071e-05
3.51857e-05
3.51644e-05
3.51432e-05
3.51221e-05
3.51011e-05
3.50804e-05
3.50598e-05
3.50394e-05
3.50193e-05
3.49995e-05
3.49801e-05
3.4961e-05
3.49424e-05
3.49241e-05
3.49063e-05
3.48888e-05
3.48717e-05
3.4855e-05
3.48386e-05
3.48225e-05
3.48066e-05
3.4791e-05
3.47757e-05
3.47607e-05
3.47459e-05
3.47315e-05
3.47173e-05
3.47034e-05
3.46898e-05
3.46765e-05
3.46634e-05
3.46505e-05
3.46379e-05
3.46253e-05
3.4613e-05
3.46009e-05
3.45889e-05
3.45773e-05
3.45659e-05
3.45548e-05
3.45439e-05
3.45335e-05
3.45233e-05
3.45136e-05
3.45042e-05
3.44952e-05
3.44866e-05
3.44784e-05
3.44705e-05
3.44629e-05
3.44556e-05
3.44486e-05
3.44418e-05
3.44352e-05
3.44287e-05
3.44222e-05
3.44158e-05
3.44094e-05
3.4403e-05
3.43965e-05
3.43901e-05
3.43836e-05
3.43772e-05
3.43708e-05
3.43644e-05
3.43579e-05
3.43512e-05
3.43443e-05
3.4337e-05
3.43293e-05
3.43211e-05
3.43124e-05
3.43031e-05
3.42933e-05
3.4283e-05
3.42722e-05
3.42609e-05
3.42492e-05
3.4237e-05
3.42245e-05
3.42117e-05
3.41986e-05
3.41853e-05
3.41718e-05
3.41583e-05
3.41447e-05
3.4131e-05
3.41173e-05
3.41034e-05
3.40893e-05
3.4075e-05
3.40603e-05
3.40452e-05
3.40297e-05
3.40137e-05
3.39972e-05
3.39803e-05
3.39629e-05
3.3945e-05
3.39267e-05
3.39081e-05
3.38892e-05
3.387e-05
3.38506e-05
3.38311e-05
3.38113e-05
3.37914e-05
3.37714e-05
3.37512e-05
3.37311e-05
3.37109e-05
3.36908e-05
3.36706e-05
3.36505e-05
3.36303e-05
3.36099e-05
3.3589e-05
3.35679e-05
3.35462e-05
3.35242e-05
3.35015e-05
3.34785e-05
3.34548e-05
3.34308e-05
3.34061e-05
3.33812e-05
3.33556e-05
3.33303e-05
3.33043e-05
3.3279e-05
3.32533e-05
3.32284e-05
3.32032e-05
3.3179e-05
3.31543e-05
3.31309e-05
3.31067e-05
3.30841e-05
3.30605e-05
3.30386e-05
3.30154e-05
3.29939e-05
3.29705e-05
3.29488e-05
3.29248e-05
3.29026e-05
3.28776e-05
3.28548e-05
3.28287e-05
3.28047e-05
3.27764e-05
3.27488e-05
3.27147e-05
3.26785e-05
3.26299e-05
3.25749e-05
3.24961e-05
3.24019e-05
3.22609e-05
3.20863e-05
3.18175e-05
3.14823e-05
3.0961e-05
3.00445e-05
2.92795e-05
2.72571e-05
2.58921e-05
2.31154e-05
2.16697e-05
1.78085e-05
1.43365e-05
1.61028e-05
1.31787e-05
2.23126e-05
0.00014767
0.000101782
7.18983e-05
6.68249e-05
5.39168e-05
4.4254e-05
3.656e-05
3.08123e-05
2.65703e-05
2.34061e-05
2.0975e-05
1.90742e-05
1.75648e-05
1.63535e-05
1.53726e-05
1.4578e-05
1.39333e-05
1.34136e-05
1.30021e-05
1.26858e-05
1.24542e-05
1.23005e-05
1.22199e-05
1.22088e-05
1.22652e-05
1.23889e-05
1.25814e-05
1.28398e-05
1.3158e-05
1.35343e-05
1.3967e-05
1.44565e-05
1.50051e-05
1.55821e-05
1.61748e-05
1.67825e-05
1.74045e-05
1.80405e-05
1.86904e-05
1.93544e-05
2.00329e-05
2.0726e-05
2.14349e-05
2.21614e-05
2.29078e-05
2.36763e-05
2.42994e-05
2.49137e-05
2.55289e-05
2.61449e-05
2.67623e-05
2.73806e-05
2.79996e-05
2.8618e-05
2.92352e-05
2.98492e-05
3.04587e-05
3.10614e-05
3.16584e-05
3.2247e-05
3.28277e-05
3.34008e-05
3.39662e-05
3.45232e-05
3.50718e-05
3.56118e-05
3.61435e-05
3.66667e-05
3.71815e-05
3.76874e-05
3.81841e-05
3.86709e-05
3.91477e-05
3.96139e-05
4.00697e-05
4.05142e-05
4.09483e-05
4.13716e-05
4.17855e-05
4.21892e-05
4.25843e-05
4.29706e-05
4.33502e-05
4.37219e-05
4.40879e-05
4.44468e-05
4.48011e-05
4.51489e-05
4.54935e-05
4.5832e-05
4.61686e-05
4.64988e-05
4.68294e-05
4.71546e-05
4.748e-05
4.7799e-05
4.81114e-05
4.83505e-05
4.85807e-05
4.88029e-05
4.90177e-05
4.92249e-05
4.94246e-05
4.9617e-05
4.98022e-05
4.99805e-05
5.0152e-05
5.0317e-05
5.04756e-05
5.06281e-05
5.07747e-05
5.09155e-05
5.10507e-05
5.11806e-05
5.13053e-05
5.14251e-05
5.15401e-05
5.16502e-05
5.17556e-05
5.1857e-05
5.19542e-05
5.20474e-05
5.2137e-05
5.22229e-05
5.23056e-05
5.2385e-05
5.24615e-05
5.25352e-05
5.26062e-05
5.26747e-05
5.27409e-05
5.28048e-05
5.28666e-05
5.29264e-05
5.29844e-05
5.30406e-05
5.30953e-05
5.31485e-05
5.32003e-05
5.3251e-05
5.33005e-05
5.33491e-05
5.33968e-05
5.34439e-05
5.34903e-05
5.35363e-05
5.35819e-05
5.36272e-05
5.36723e-05
5.37174e-05
5.37625e-05
5.38078e-05
5.38534e-05
5.38994e-05
5.39458e-05
5.39929e-05
5.40406e-05
5.4089e-05
5.41382e-05
5.41881e-05
5.4239e-05
5.42907e-05
5.43434e-05
5.43972e-05
5.44521e-05
5.45082e-05
5.45656e-05
5.46243e-05
5.46843e-05
5.47456e-05
5.48081e-05
5.48719e-05
5.4937e-05
5.50033e-05
5.50711e-05
5.51403e-05
5.52109e-05
5.5283e-05
5.53566e-05
5.54317e-05
5.55083e-05
5.55864e-05
5.5666e-05
5.57469e-05
5.58293e-05
5.59129e-05
5.59978e-05
5.60838e-05
5.61708e-05
5.62588e-05
5.63474e-05
5.64365e-05
5.6526e-05
5.66156e-05
5.67054e-05
5.67952e-05
5.68849e-05
5.69746e-05
5.70641e-05
5.71534e-05
5.72424e-05
5.7331e-05
5.7419e-05
5.75065e-05
5.75933e-05
5.76796e-05
5.77653e-05
5.78503e-05
5.79348e-05
5.80186e-05
5.81016e-05
5.81836e-05
5.82646e-05
5.83444e-05
5.84228e-05
5.84999e-05
5.85756e-05
5.86498e-05
5.87225e-05
5.87937e-05
5.88634e-05
5.89315e-05
5.8998e-05
5.90629e-05
5.91262e-05
5.91878e-05
5.92476e-05
5.93055e-05
5.93617e-05
5.94162e-05
5.9469e-05
5.95202e-05
5.95699e-05
5.96182e-05
5.96651e-05
5.97106e-05
5.97547e-05
5.97975e-05
5.98391e-05
5.98794e-05
5.99187e-05
5.9957e-05
5.99945e-05
6.00312e-05
6.00672e-05
6.01026e-05
6.01374e-05
6.01718e-05
6.02056e-05
6.02389e-05
6.02718e-05
6.03042e-05
6.03363e-05
6.0368e-05
6.03994e-05
6.04306e-05
6.04615e-05
6.04921e-05
6.05224e-05
6.05525e-05
6.05824e-05
6.06121e-05
6.06418e-05
6.06713e-05
6.07008e-05
6.07301e-05
6.07592e-05
6.07882e-05
6.0817e-05
6.08458e-05
6.08746e-05
6.09035e-05
6.09327e-05
6.09624e-05
6.09927e-05
6.10239e-05
6.1056e-05
6.10891e-05
6.11233e-05
6.11587e-05
6.11951e-05
6.12326e-05
6.12709e-05
6.13102e-05
6.13503e-05
6.13911e-05
6.14327e-05
6.14751e-05
6.15182e-05
6.15621e-05
6.16066e-05
6.16518e-05
6.16974e-05
6.17433e-05
6.17893e-05
6.18352e-05
6.1881e-05
6.19266e-05
6.1972e-05
6.20173e-05
6.20626e-05
6.21078e-05
6.21529e-05
6.21978e-05
6.22423e-05
6.22861e-05
6.23289e-05
6.23705e-05
6.24104e-05
6.24487e-05
6.24851e-05
6.25196e-05
6.25522e-05
6.25827e-05
6.26111e-05
6.26374e-05
6.26616e-05
6.26834e-05
6.27029e-05
6.27199e-05
6.27346e-05
6.27469e-05
6.27572e-05
6.27655e-05
6.27722e-05
6.27774e-05
6.27814e-05
6.27843e-05
6.27862e-05
6.2787e-05
6.27868e-05
6.27853e-05
6.27825e-05
6.27781e-05
6.27721e-05
6.27643e-05
6.27548e-05
6.27433e-05
6.27299e-05
6.27145e-05
6.26971e-05
6.26776e-05
6.26559e-05
6.26322e-05
6.26064e-05
6.25787e-05
6.25492e-05
6.25179e-05
6.24851e-05
6.24507e-05
6.24149e-05
6.23777e-05
6.23392e-05
6.22997e-05
6.22591e-05
6.22176e-05
6.21755e-05
6.21326e-05
6.2089e-05
6.20448e-05
6.20001e-05
6.19548e-05
6.19091e-05
6.18629e-05
6.18163e-05
6.17694e-05
6.17221e-05
6.16745e-05
6.16266e-05
6.15785e-05
6.15301e-05
6.14815e-05
6.14327e-05
6.13838e-05
6.13349e-05
6.12859e-05
6.12368e-05
6.11879e-05
6.11391e-05
6.10905e-05
6.10422e-05
6.09942e-05
6.09466e-05
6.08996e-05
6.08532e-05
6.08076e-05
6.07629e-05
6.07191e-05
6.06763e-05
6.06346e-05
6.05938e-05
6.05541e-05
6.05153e-05
6.04773e-05
6.04402e-05
6.04037e-05
6.0368e-05
6.03329e-05
6.02985e-05
6.02648e-05
6.02319e-05
6.01998e-05
6.01685e-05
6.0138e-05
6.01084e-05
6.00797e-05
6.00518e-05
6.00247e-05
5.99983e-05
5.99727e-05
5.99478e-05
5.99236e-05
5.99003e-05
5.98779e-05
5.98563e-05
5.98358e-05
5.98162e-05
5.97977e-05
5.97804e-05
5.97642e-05
5.97491e-05
5.97353e-05
5.97225e-05
5.97108e-05
5.96999e-05
5.96899e-05
5.96805e-05
5.96717e-05
5.96633e-05
5.96553e-05
5.96475e-05
5.96398e-05
5.9632e-05
5.96242e-05
5.96163e-05
5.96082e-05
5.96001e-05
5.95919e-05
5.95836e-05
5.95752e-05
5.95666e-05
5.95576e-05
5.95482e-05
5.9538e-05
5.95269e-05
5.95146e-05
5.95011e-05
5.94861e-05
5.94697e-05
5.94519e-05
5.94326e-05
5.94119e-05
5.939e-05
5.93668e-05
5.93426e-05
5.93174e-05
5.92914e-05
5.92647e-05
5.92375e-05
5.92098e-05
5.91818e-05
5.91535e-05
5.91249e-05
5.90961e-05
5.90667e-05
5.90368e-05
5.90061e-05
5.89743e-05
5.89415e-05
5.89074e-05
5.88721e-05
5.88355e-05
5.87975e-05
5.87583e-05
5.8718e-05
5.86765e-05
5.86341e-05
5.85909e-05
5.85472e-05
5.85029e-05
5.84583e-05
5.84132e-05
5.83679e-05
5.83222e-05
5.82763e-05
5.82302e-05
5.81841e-05
5.81379e-05
5.80917e-05
5.80453e-05
5.79986e-05
5.79512e-05
5.7903e-05
5.78535e-05
5.78029e-05
5.77507e-05
5.76971e-05
5.76419e-05
5.75852e-05
5.75269e-05
5.74671e-05
5.74059e-05
5.73437e-05
5.72806e-05
5.72172e-05
5.71536e-05
5.70904e-05
5.70276e-05
5.69657e-05
5.69043e-05
5.6844e-05
5.67845e-05
5.67261e-05
5.66685e-05
5.66119e-05
5.6556e-05
5.65009e-05
5.6446e-05
5.63913e-05
5.63362e-05
5.62805e-05
5.62244e-05
5.61673e-05
5.61099e-05
5.60512e-05
5.59917e-05
5.59297e-05
5.58642e-05
5.57926e-05
5.57116e-05
5.5616e-05
5.55003e-05
5.53534e-05
5.51645e-05
5.49109e-05
5.457e-05
5.40954e-05
5.34428e-05
5.2516e-05
5.1248e-05
4.94746e-05
4.7054e-05
4.3483e-05
3.81231e-05
3.20589e-05
2.66623e-05
2.01037e-05
1.9048e-05
2.16696e-05
3.15812e-05
0.000182519
9.64311e-05
6.93897e-05
6.95847e-05
7.49067e-05
8.45556e-05
9.14569e-05
7.96784e-05
7.03953e-05
6.28243e-05
5.65448e-05
5.13083e-05
4.68734e-05
4.31095e-05
3.99058e-05
3.71548e-05
3.47559e-05
3.26384e-05
3.07423e-05
2.90142e-05
2.7423e-05
2.59568e-05
2.46162e-05
2.34037e-05
2.2317e-05
2.13497e-05
2.04934e-05
1.97378e-05
1.9074e-05
1.84939e-05
1.79904e-05
1.75573e-05
1.71896e-05
1.68848e-05
1.66409e-05
1.64567e-05
1.63299e-05
1.62617e-05
1.6262e-05
1.6331e-05
1.646e-05
1.66444e-05
1.68826e-05
1.7175e-05
1.75235e-05
1.7932e-05
1.83904e-05
1.88803e-05
1.94018e-05
1.99547e-05
2.05385e-05
2.11521e-05
2.17942e-05
2.24631e-05
2.31568e-05
2.3873e-05
2.46091e-05
2.53626e-05
2.61317e-05
2.69153e-05
2.7712e-05
2.83598e-05
2.90006e-05
2.96458e-05
3.02965e-05
3.09535e-05
3.16176e-05
3.22889e-05
3.29682e-05
3.36553e-05
3.43505e-05
3.50532e-05
3.5764e-05
3.64825e-05
3.72084e-05
3.79409e-05
3.86799e-05
3.94256e-05
4.0179e-05
4.09384e-05
4.17055e-05
4.24818e-05
4.32685e-05
4.40643e-05
4.48701e-05
4.56839e-05
4.65064e-05
4.73351e-05
4.81709e-05
4.9011e-05
4.98563e-05
5.07037e-05
5.15567e-05
5.2402e-05
5.32488e-05
5.3939e-05
5.45457e-05
5.5142e-05
5.57278e-05
5.63032e-05
5.68677e-05
5.74203e-05
5.7961e-05
5.84897e-05
5.90065e-05
5.95114e-05
6.00046e-05
6.04858e-05
6.09549e-05
6.14119e-05
6.18568e-05
6.22896e-05
6.27104e-05
6.31193e-05
6.35165e-05
6.39025e-05
6.42773e-05
6.46408e-05
6.49936e-05
6.53366e-05
6.56699e-05
6.59939e-05
6.63088e-05
6.66151e-05
6.69131e-05
6.7203e-05
6.74852e-05
6.77599e-05
6.80273e-05
6.82877e-05
6.85411e-05
6.87879e-05
6.90282e-05
6.92621e-05
6.949e-05
6.97121e-05
6.99286e-05
7.01397e-05
7.03458e-05
7.05471e-05
7.07439e-05
7.09365e-05
7.11251e-05
7.13102e-05
7.14918e-05
7.16704e-05
7.18462e-05
7.20193e-05
7.21901e-05
7.23587e-05
7.25255e-05
7.26907e-05
7.28546e-05
7.30174e-05
7.31795e-05
7.3341e-05
7.35022e-05
7.36633e-05
7.38245e-05
7.39859e-05
7.41478e-05
7.43103e-05
7.44735e-05
7.46378e-05
7.48033e-05
7.49703e-05
7.51388e-05
7.53091e-05
7.5481e-05
7.56548e-05
7.58303e-05
7.60074e-05
7.61863e-05
7.6367e-05
7.65494e-05
7.67336e-05
7.69197e-05
7.71076e-05
7.72973e-05
7.7489e-05
7.76825e-05
7.78777e-05
7.80747e-05
7.82732e-05
7.84732e-05
7.86745e-05
7.88769e-05
7.90803e-05
7.92845e-05
7.9489e-05
7.96938e-05
7.98983e-05
8.01023e-05
8.03055e-05
8.05077e-05
8.07088e-05
8.09087e-05
8.11072e-05
8.13044e-05
8.15001e-05
8.16942e-05
8.18865e-05
8.20769e-05
8.22653e-05
8.24517e-05
8.26361e-05
8.28187e-05
8.29994e-05
8.31783e-05
8.33553e-05
8.35303e-05
8.3703e-05
8.38733e-05
8.40411e-05
8.42061e-05
8.43682e-05
8.45273e-05
8.46834e-05
8.48365e-05
8.49864e-05
8.51332e-05
8.52768e-05
8.54173e-05
8.55546e-05
8.56885e-05
8.58192e-05
8.59466e-05
8.60707e-05
8.61915e-05
8.63092e-05
8.64238e-05
8.65355e-05
8.66444e-05
8.67507e-05
8.68543e-05
8.69554e-05
8.7054e-05
8.71501e-05
8.72439e-05
8.73355e-05
8.74252e-05
8.7513e-05
8.75992e-05
8.7684e-05
8.77675e-05
8.78498e-05
8.79311e-05
8.80115e-05
8.80909e-05
8.81694e-05
8.8247e-05
8.83239e-05
8.84001e-05
8.84756e-05
8.85506e-05
8.8625e-05
8.86989e-05
8.87723e-05
8.88451e-05
8.89174e-05
8.89893e-05
8.90609e-05
8.91322e-05
8.92032e-05
8.92741e-05
8.93447e-05
8.9415e-05
8.94851e-05
8.95551e-05
8.9625e-05
8.96951e-05
8.97655e-05
8.98364e-05
8.99084e-05
8.99816e-05
9.00566e-05
9.01335e-05
9.02126e-05
9.02941e-05
9.03779e-05
9.04642e-05
9.05528e-05
9.06435e-05
9.07362e-05
9.08306e-05
9.09266e-05
9.1024e-05
9.11227e-05
9.12226e-05
9.13235e-05
9.14252e-05
9.15275e-05
9.16301e-05
9.17326e-05
9.18349e-05
9.19365e-05
9.20373e-05
9.21371e-05
9.2236e-05
9.2334e-05
9.24313e-05
9.25279e-05
9.26239e-05
9.2719e-05
9.2813e-05
9.29053e-05
9.29955e-05
9.30831e-05
9.31676e-05
9.32487e-05
9.33261e-05
9.33995e-05
9.34688e-05
9.3534e-05
9.35949e-05
9.36514e-05
9.37033e-05
9.37506e-05
9.3793e-05
9.38307e-05
9.38635e-05
9.38917e-05
9.39157e-05
9.39359e-05
9.39527e-05
9.39665e-05
9.39779e-05
9.39872e-05
9.39945e-05
9.4e-05
9.40036e-05
9.40051e-05
9.40043e-05
9.4001e-05
9.39947e-05
9.39855e-05
9.3973e-05
9.39573e-05
9.39382e-05
9.39156e-05
9.38894e-05
9.38595e-05
9.38259e-05
9.37885e-05
9.37475e-05
9.37029e-05
9.36551e-05
9.36041e-05
9.35501e-05
9.34933e-05
9.34338e-05
9.33718e-05
9.33074e-05
9.32409e-05
9.31725e-05
9.31025e-05
9.30311e-05
9.29584e-05
9.28846e-05
9.28098e-05
9.27339e-05
9.2657e-05
9.25793e-05
9.25008e-05
9.24214e-05
9.23413e-05
9.22603e-05
9.21787e-05
9.20963e-05
9.20132e-05
9.19295e-05
9.18453e-05
9.17607e-05
9.16757e-05
9.15904e-05
9.15049e-05
9.14193e-05
9.13337e-05
9.12483e-05
9.11632e-05
9.10785e-05
9.09945e-05
9.09113e-05
9.08291e-05
9.07482e-05
9.06688e-05
9.05912e-05
9.05153e-05
9.04414e-05
9.03695e-05
9.02993e-05
9.0231e-05
9.01643e-05
9.00991e-05
9.00352e-05
8.99726e-05
8.9911e-05
8.98505e-05
8.97912e-05
8.97332e-05
8.96766e-05
8.96214e-05
8.95678e-05
8.95159e-05
8.94657e-05
8.94172e-05
8.93705e-05
8.93255e-05
8.92822e-05
8.92405e-05
8.92005e-05
8.91622e-05
8.91257e-05
8.9091e-05
8.90583e-05
8.90277e-05
8.89992e-05
8.89729e-05
8.89488e-05
8.8927e-05
8.89076e-05
8.88904e-05
8.88752e-05
8.88618e-05
8.88498e-05
8.8839e-05
8.88291e-05
8.88197e-05
8.88107e-05
8.88018e-05
8.87928e-05
8.87834e-05
8.87736e-05
8.87633e-05
8.87524e-05
8.87409e-05
8.87288e-05
8.87162e-05
8.87031e-05
8.86893e-05
8.86748e-05
8.86593e-05
8.86425e-05
8.86241e-05
8.86038e-05
8.85811e-05
8.85557e-05
8.85276e-05
8.84967e-05
8.84628e-05
8.84262e-05
8.83869e-05
8.83451e-05
8.83011e-05
8.82552e-05
8.82076e-05
8.81586e-05
8.81084e-05
8.80573e-05
8.80053e-05
8.79526e-05
8.78993e-05
8.78454e-05
8.77907e-05
8.7735e-05
8.7678e-05
8.76194e-05
8.75588e-05
8.74961e-05
8.74309e-05
8.73634e-05
8.72935e-05
8.72212e-05
8.71467e-05
8.70701e-05
8.69916e-05
8.69117e-05
8.68306e-05
8.67488e-05
8.66665e-05
8.65839e-05
8.6501e-05
8.64179e-05
8.63345e-05
8.62511e-05
8.61674e-05
8.60838e-05
8.60001e-05
8.59164e-05
8.58324e-05
8.57478e-05
8.5662e-05
8.55747e-05
8.54851e-05
8.53932e-05
8.52984e-05
8.52009e-05
8.51002e-05
8.49966e-05
8.48897e-05
8.47801e-05
8.46676e-05
8.45533e-05
8.44369e-05
8.432e-05
8.42025e-05
8.4086e-05
8.39698e-05
8.38556e-05
8.37423e-05
8.36314e-05
8.35217e-05
8.34145e-05
8.33083e-05
8.32046e-05
8.31016e-05
8.30006e-05
8.28996e-05
8.27995e-05
8.26982e-05
8.25969e-05
8.24939e-05
8.23905e-05
8.22858e-05
8.21803e-05
8.20731e-05
8.19635e-05
8.18491e-05
8.17274e-05
8.15928e-05
8.14396e-05
8.12591e-05
8.10383e-05
8.07605e-05
8.03994e-05
7.99199e-05
7.92672e-05
7.83705e-05
7.7112e-05
7.53596e-05
7.28465e-05
6.68573e-05
5.97828e-05
5.14473e-05
4.13653e-05
3.60344e-05
2.65965e-05
2.21785e-05
2.60578e-05
3.5303e-05
0.000167906
8.87755e-05
6.59216e-05
6.50516e-05
7.01882e-05
7.77408e-05
9.16126e-05
0.000104656
0.000123321
0.000115586
0.000107502
0.000100338
9.38462e-05
8.79971e-05
8.27468e-05
7.80224e-05
7.37343e-05
6.9814e-05
6.61992e-05
6.28274e-05
5.9661e-05
5.66894e-05
5.39132e-05
5.13319e-05
4.89422e-05
4.67383e-05
4.471e-05
4.28433e-05
4.11249e-05
3.95436e-05
3.80876e-05
3.67452e-05
3.55059e-05
3.43596e-05
3.32992e-05
3.23196e-05
3.14166e-05
3.05694e-05
2.97027e-05
2.87961e-05
2.78937e-05
2.7034e-05
2.62379e-05
2.55141e-05
2.48651e-05
2.42905e-05
2.37899e-05
2.33631e-05
2.30084e-05
2.2724e-05
2.25075e-05
2.23565e-05
2.22692e-05
2.2244e-05
2.22796e-05
2.23749e-05
2.2529e-05
2.27427e-05
2.30159e-05
2.33476e-05
2.37373e-05
2.41819e-05
2.46801e-05
2.5231e-05
2.58338e-05
2.64824e-05
2.71667e-05
2.78872e-05
2.86444e-05
2.94388e-05
3.02702e-05
3.11385e-05
3.20429e-05
3.29828e-05
3.39569e-05
3.49638e-05
3.60024e-05
3.70711e-05
3.81688e-05
3.92945e-05
4.04472e-05
4.16259e-05
4.28303e-05
4.40593e-05
4.53118e-05
4.65861e-05
4.78793e-05
4.91879e-05
5.05073e-05
5.18319e-05
5.31555e-05
5.44723e-05
5.57771e-05
5.70643e-05
5.83287e-05
5.95655e-05
6.07716e-05
6.19459e-05
6.30881e-05
6.41989e-05
6.52778e-05
6.63269e-05
6.73475e-05
6.83409e-05
6.93081e-05
7.02498e-05
7.1166e-05
7.20559e-05
7.29197e-05
7.37578e-05
7.45709e-05
7.53598e-05
7.61253e-05
7.6868e-05
7.75889e-05
7.82889e-05
7.89683e-05
7.96278e-05
8.02693e-05
8.0894e-05
8.15024e-05
8.20953e-05
8.26733e-05
8.32371e-05
8.3787e-05
8.43234e-05
8.48465e-05
8.53564e-05
8.58534e-05
8.63376e-05
8.68094e-05
8.72689e-05
8.77164e-05
8.81522e-05
8.85766e-05
8.89902e-05
8.93933e-05
8.97865e-05
9.01703e-05
9.05451e-05
9.09115e-05
9.12699e-05
9.16208e-05
9.19647e-05
9.23021e-05
9.26334e-05
9.29591e-05
9.32796e-05
9.35952e-05
9.39064e-05
9.42137e-05
9.45175e-05
9.48183e-05
9.51166e-05
9.54129e-05
9.57076e-05
9.60012e-05
9.6294e-05
9.65865e-05
9.68791e-05
9.71719e-05
9.74655e-05
9.77602e-05
9.80563e-05
9.83544e-05
9.86546e-05
9.89574e-05
9.92628e-05
9.9571e-05
9.9882e-05
0.000100196
0.000100512
0.00010083
0.000101151
0.000101474
0.0001018
0.000102127
0.000102456
0.000102788
0.000103121
0.000103455
0.000103791
0.000104129
0.000104467
0.000104806
0.000105146
0.000105485
0.000105824
0.000106163
0.0001065
0.000106836
0.000107169
0.0001075
0.000107828
0.000108153
0.000108474
0.000108792
0.000109106
0.000109416
0.000109722
0.000110025
0.000110323
0.000110617
0.000110906
0.000111192
0.000111473
0.000111751
0.000112024
0.000112294
0.000112561
0.000112824
0.000113083
0.000113337
0.000113588
0.000113834
0.000114075
0.000114312
0.000114544
0.000114771
0.000114993
0.00011521
0.000115422
0.000115629
0.000115831
0.000116028
0.00011622
0.000116408
0.00011659
0.000116767
0.00011694
0.000117108
0.000117272
0.000117433
0.000117589
0.000117742
0.000117891
0.000118037
0.000118179
0.000118319
0.000118456
0.00011859
0.000118723
0.000118853
0.000118982
0.000119109
0.000119235
0.000119359
0.000119483
0.000119606