/*--------------------------------*- C++ -*----------------------------------*\
| =========                 |                                                 |
| \\      /  F ield         | foam-extend: Open Source CFD                    |
|  \\    /   O peration     | Version:     3.2                                |
|   \\  /    A nd           | Web:         http://www.foam-extend.org         |
|    \\/     M anipulation  | For copyright notice see file Copyright         |
\*---------------------------------------------------------------------------*/
FoamFile
{
    version     2.0;
    format      ascii;
    class       volScalarField;
    location    "20";
    object      omega;
}
// * * * * * * * * * * * * * * * * * * * * * * * * * * * * * * * * * * * * * //

dimensions      [0 0 -1 0 0 0 0];

internalField   nonuniform List<scalar> 
33000
(
26.1281
29.6584
33.4469
37.3823
41.3401
45.1969
48.8459
52.1987
55.194
57.7928
59.9827
61.7698
63.1763
64.2338
64.9786
65.4494
65.6866
65.7289
65.6131
65.3818
65.0582
64.6628
64.2126
63.723
63.2076
62.6784
62.1453
61.6181
61.1042
60.6045
60.1201
59.653
59.2047
58.7764
58.3684
57.981
57.614
57.2672
56.9402
56.6322
56.3427
56.0707
55.8155
55.5761
55.3517
55.1413
54.9441
54.7594
54.5864
54.4244
54.2727
54.1305
53.9971
53.8719
53.7541
53.6431
53.5383
53.4392
53.3453
53.2561
53.1714
53.0906
53.0136
52.9401
52.8697
52.8023
52.7376
52.6753
52.6151
52.557
52.5006
52.4458
52.3925
52.3405
52.2896
52.2396
52.1906
52.1425
52.0952
52.0487
52.003
51.9581
51.9138
51.87
51.8269
51.7842
51.742
51.7003
51.659
51.6182
51.5779
51.5381
51.4985
51.4593
51.4203
51.3816
51.3431
51.3048
51.2668
51.229
51.1915
51.1542
51.1169
51.0796
51.0423
51.0047
50.967
50.9289
50.8905
50.8518
50.8127
50.7733
50.7335
50.6932
50.6526
50.6116
50.5702
50.5283
50.4859
50.4431
50.3998
50.3561
50.312
50.2674
50.2224
50.1771
50.1314
50.0853
50.039
49.9923
49.9454
49.8983
49.851
49.8035
49.7559
49.7082
49.6605
49.6127
49.565
49.5173
49.4696
49.422
49.3746
49.3273
49.2801
49.2332
49.1864
49.1399
49.0937
49.0477
49.002
48.9567
48.9117
48.8671
48.8229
48.7791
48.7357
48.6928
48.6503
48.6083
48.5668
48.5257
48.4851
48.4449
48.4053
48.3662
48.3275
48.2893
48.2517
48.2145
48.1778
48.1416
48.1059
48.0707
48.036
48.0019
47.9683
47.9352
47.9028
47.8709
47.8396
47.8089
47.7788
47.7493
47.7205
47.6923
47.6647
47.6377
47.6113
47.5855
47.5604
47.5358
47.5118
47.4883
47.4653
47.4429
47.4209
47.3995
47.3785
47.358
47.3379
47.3182
47.299
47.2802
47.2617
47.2437
47.226
47.2087
47.1917
47.175
47.1586
47.1425
47.1266
47.111
47.0955
47.0802
47.0651
47.0502
47.0354
47.0208
47.0063
46.9919
46.9776
46.9634
46.9492
46.935
46.9207
46.9062
46.8916
46.8768
46.8619
46.8469
46.8318
46.8165
46.8012
46.7859
46.7704
46.755
46.7395
46.7239
46.7084
46.6929
46.6774
46.6619
46.6464
46.631
46.6157
46.6003
46.585
46.5698
46.5546
46.5395
46.5244
46.5095
46.4946
46.4798
46.4651
46.4504
46.4359
46.4214
46.407
46.3928
46.3786
46.3645
46.3505
46.3366
46.3228
46.3091
46.2955
46.2819
46.2685
46.2552
46.2421
46.2291
46.2163
46.2036
46.1912
46.1789
46.1668
46.155
46.1433
46.1318
46.1205
46.1094
46.0985
46.0878
46.0773
46.0671
46.057
46.0472
46.0376
46.0283
46.0191
46.0102
46.0015
45.993
45.9846
45.9765
45.9685
45.9608
45.9532
45.9459
45.9387
45.9317
45.9248
45.918
45.9114
45.9048
45.8982
45.8916
45.885
45.8785
45.8718
45.8652
45.8585
45.8517
45.8448
45.8379
45.8308
45.8236
45.8163
45.8089
45.8014
45.7938
45.7861
45.7784
45.7706
45.7627
45.7548
45.7468
45.7388
45.7306
45.7224
45.714
45.7055
45.6968
45.6879
45.6788
45.6695
45.66
45.6502
45.6402
45.6299
45.6193
45.6085
45.5974
45.586
45.5744
45.5625
45.5504
45.538
45.5254
45.5125
45.4994
45.486
45.4724
45.4586
45.4446
45.4304
45.4159
45.4012
45.3864
45.3713
45.3559
45.3404
45.3247
45.3088
45.2927
45.2765
45.26
45.2434
45.2267
45.2097
45.1927
45.1755
45.1582
45.1407
45.1231
45.1055
45.0877
45.0698
45.0519
45.0339
45.0158
44.9977
44.9796
44.9614
44.9433
44.9252
44.9072
44.8892
44.8713
44.8535
44.8357
44.818
44.8004
44.7829
44.7656
44.7483
44.7312
44.7143
44.6975
44.6809
44.6645
44.6483
44.6323
44.6164
44.6008
44.5853
44.57
44.5549
44.54
44.5252
44.5106
44.4962
44.482
44.4679
44.454
44.4402
44.4266
44.4131
44.3998
44.3867
44.3737
44.3608
44.3481
44.3355
44.3231
44.3107
44.2985
44.2864
44.2744
44.2624
44.2505
44.2387
44.2269
44.2151
44.2034
44.1917
44.1801
44.1685
44.157
44.1455
44.134
44.1225
44.1109
44.0993
44.0875
44.0757
44.0638
44.0518
44.0397
44.0275
44.0152
44.0027
43.9902
43.9776
43.965
43.9522
43.9394
43.9266
43.9137
43.9008
43.8879
43.875
43.8621
43.8491
43.836
43.8228
43.8096
43.7962
43.7828
43.7692
43.7555
43.7417
43.7277
43.7136
43.6994
43.685
43.6705
43.6559
43.641
43.6261
43.6109
43.5956
43.5802
43.5647
43.549
43.5332
43.5174
43.5014
43.4853
43.469
43.4525
43.4358
43.4189
43.4016
43.3841
43.3663
43.3482
43.3298
43.3112
43.2923
43.2733
43.254
43.2346
43.2151
43.1956
43.176
43.1564
43.1368
43.1173
43.0978
43.0783
43.0589
43.0395
43.0201
43.0008
42.9814
42.962
42.9424
42.9228
42.9029
42.883
42.8625
42.8418
42.8202
42.7978
42.7736
42.7476
42.7175
42.6831
42.6403
42.588
42.5181
42.4278
42.3006
42.1287
41.8785
41.526
41.0097
40.2604
39.1575
37.5977
35.369
32.2045
26.6107
20.586
21.3907
6.32302
2.20766
3.80637
5.56014
7.40551
9.38383
11.392
13.3697
15.2928
17.1343
18.8599
20.4372
21.8453
23.0738
24.1247
25.0129
25.7584
26.3782
26.901
27.3454
27.7183
28.0316
28.2758
28.3974
28.4158
28.3471
28.2091
28.0265
27.834
27.6673
27.5489
27.4839
27.4566
27.4545
27.4675
27.4877
27.5089
27.5265
27.5373
27.539
27.5304
27.5109
27.4806
27.4399
27.3894
27.3302
27.2632
27.1906
27.1131
27.0313
26.9454
26.8554
26.7614
26.6632
26.5606
26.4538
26.3429
26.228
26.1104
25.9913
25.8713
25.7511
25.631
25.5111
25.3917
25.2731
25.1555
25.0392
24.9244
24.8114
24.7003
24.5911
24.4841
24.3794
24.2768
24.1764
24.0781
23.9818
23.8874
23.7948
23.7041
23.6153
23.5285
23.4437
23.3608
23.2799
23.2007
23.1232
23.0474
22.9731
22.9003
22.8289
22.759
22.6905
22.6232
22.557
22.4917
22.4271
22.3633
22.3003
22.2378
22.1759
22.1148
22.0544
21.9947
21.9356
21.8772
21.8194
21.7621
21.7053
21.6491
21.5934
21.5382
21.4835
21.4295
21.3759
21.323
21.2708
21.2194
21.1686
21.1185
21.0691
21.0205
20.9726
20.9254
20.879
20.8334
20.7884
20.7442
20.7008
20.658
20.616
20.5746
20.5339
20.494
20.4546
20.4159
20.3779
20.3405
20.3038
20.2676
20.2321
20.1971
20.1628
20.129
20.0958
20.0632
20.0311
19.9996
19.9686
19.9381
19.908
19.8784
19.8493
19.8206
19.7923
19.7645
19.737
19.7101
19.6835
19.6573
19.6316
19.6063
19.5813
19.5567
19.5324
19.5085
19.4849
19.4617
19.4387
19.4161
19.3938
19.3718
19.35
19.3285
19.3073
19.2863
19.2654
19.2448
19.2244
19.2042
19.1843
19.1645
19.1449
19.1256
19.1064
19.0874
19.0687
19.0501
19.0318
19.0137
18.9958
18.9781
18.9606
18.9433
18.9263
18.9094
18.8927
18.8762
18.8599
18.8437
18.8278
18.8119
18.7963
18.7808
18.7654
18.7502
18.735
18.7201
18.7052
18.6904
18.6758
18.6614
18.647
18.6328
18.6187
18.6047
18.5907
18.5769
18.5632
18.5496
18.5361
18.5226
18.5093
18.4961
18.483
18.47
18.457
18.4441
18.4313
18.4187
18.4061
18.3937
18.3814
18.3693
18.3574
18.3455
18.3339
18.3224
18.311
18.2997
18.2886
18.2776
18.2668
18.256
18.2454
18.235
18.2247
18.2145
18.2044
18.1945
18.1846
18.1749
18.1652
18.1556
18.1461
18.1367
18.1273
18.118
18.1088
18.0996
18.0905
18.0814
18.0724
18.0634
18.0545
18.0457
18.0369
18.0283
18.0196
18.0111
18.0026
17.9942
17.9859
17.9775
17.9693
17.961
17.9529
17.9448
17.9368
17.9288
17.921
17.9132
17.9055
17.8979
17.8904
17.8829
17.8755
17.8681
17.8607
17.8534
17.846
17.8388
17.8315
17.8244
17.8173
17.8102
17.8032
17.7962
17.7893
17.7823
17.7754
17.7684
17.7615
17.7546
17.7478
17.7411
17.7344
17.7278
17.7213
17.7149
17.7086
17.7023
17.696
17.6898
17.6836
17.6775
17.6714
17.6654
17.6594
17.6535
17.6476
17.6418
17.6359
17.63
17.6241
17.6182
17.6123
17.6063
17.6004
17.5944
17.5884
17.5825
17.5766
17.5707
17.5649
17.5592
17.5535
17.5479
17.5423
17.5368
17.5314
17.5261
17.5208
17.5157
17.5105
17.5055
17.5005
17.4956
17.4907
17.4858
17.481
17.4762
17.4715
17.4668
17.462
17.4573
17.4526
17.4479
17.4433
17.4386
17.434
17.4294
17.4248
17.4201
17.4155
17.4109
17.4062
17.4016
17.3969
17.3923
17.3876
17.3829
17.3782
17.3734
17.3687
17.3639
17.3591
17.3543
17.3495
17.3446
17.3397
17.3347
17.3297
17.3246
17.3195
17.3143
17.3091
17.3039
17.2985
17.2932
17.2878
17.2824
17.277
17.2715
17.2661
17.2606
17.2551
17.2496
17.2441
17.2386
17.233
17.2274
17.2219
17.2163
17.2108
17.2052
17.1997
17.1943
17.1888
17.1835
17.1781
17.1728
17.1676
17.1625
17.1574
17.1523
17.1474
17.1425
17.1376
17.1329
17.1281
17.1234
17.1188
17.1142
17.1096
17.105
17.1004
17.0958
17.0913
17.0867
17.0822
17.0778
17.0733
17.0689
17.0645
17.06
17.0556
17.0511
17.0465
17.042
17.0374
17.0328
17.0282
17.0235
17.0189
17.0144
17.0098
17.0052
17.0006
16.996
16.9914
16.9868
16.9821
16.9774
16.9727
16.968
16.9633
16.9585
16.9537
16.9488
16.9439
16.9389
16.9339
16.9288
16.9237
16.9186
16.9135
16.9084
16.9033
16.8982
16.8931
16.888
16.8829
16.8779
16.8728
16.8678
16.8628
16.8579
16.853
16.8481
16.8433
16.8386
16.8339
16.8292
16.8245
16.8199
16.8152
16.8105
16.8057
16.8009
16.7961
16.7913
16.7866
16.7819
16.7773
16.7727
16.7681
16.7637
16.7591
16.7547
16.7502
16.7458
16.7413
16.7369
16.7322
16.7276
16.7227
16.718
16.7129
16.7081
16.703
16.6982
16.6929
16.6881
16.6828
16.6779
16.6726
16.6679
16.6627
16.6583
16.6533
16.6492
16.6445
16.6408
16.6365
16.6337
16.6307
16.63
16.6303
16.6346
16.642
16.6566
16.6789
16.7153
16.7684
16.8504
16.9687
17.1479
17.4042
17.7816
18.3039
19.0633
19.9777
21.1973
22.3266
23.9264
24.6148
20.4922
12.3667
6.94699
0.753879
0.999567
1.32357
1.71649
2.15554
2.66179
3.26663
3.93076
4.624
5.32323
6.02527
6.71567
7.38557
8.02727
8.63553
9.20793
9.74432
10.2454
10.7104
11.1399
11.5366
11.9045
12.2421
12.5503
12.8308
13.0872
13.325
13.5506
13.7718
13.9983
14.2359
14.4865
14.7507
15.0062
15.2451
15.4674
15.6726
15.8602
16.0295
16.1798
16.3106
16.4206
16.5095
16.5769
16.6228
16.6472
16.6509
16.6363
16.6059
16.5626
16.5096
16.4504
16.388
16.3255
16.2649
16.2078
16.1553
16.1061
16.0587
16.0123
15.9662
15.9204
15.8747
15.8286
15.782
15.735
15.6874
15.6392
15.5904
15.5411
15.4911
15.4404
15.3889
15.3365
15.283
15.2282
15.172
15.1143
15.055
14.9943
14.9322
14.8689
14.8047
14.74
14.6747
14.6091
14.5433
14.4773
14.4111
14.3448
14.2782
14.2116
14.1448
14.0778
14.0106
13.9437
13.877
13.8106
13.7446
13.6789
13.6136
13.549
13.485
13.4216
13.359
13.2971
13.236
13.1757
13.1162
13.0576
12.9999
12.9431
12.8873
12.8323
12.7783
12.7252
12.6732
12.6222
12.5723
12.5233
12.4754
12.4286
12.3829
12.3382
12.2945
12.2519
12.2104
12.1698
12.1302
12.0916
12.054
12.0174
11.9816
11.9468
11.9128
11.8797
11.8474
11.8159
11.7852
11.7553
11.7261
11.6977
11.6699
11.6429
11.6165
11.5907
11.5656
11.5411
11.5171
11.4937
11.4709
11.4485
11.4267
11.4053
11.3843
11.3638
11.3437
11.3241
11.3048
11.2859
11.2675
11.2494
11.2316
11.2142
11.1971
11.1804
11.1639
11.1477
11.1318
11.1161
11.1008
11.0857
11.0708
11.0562
11.0417
11.0275
11.0134
10.9996
10.9859
10.9724
10.959
10.9458
10.9328
10.9199
10.9072
10.8946
10.8821
10.8698
10.8577
10.8457
10.8338
10.8221
10.8106
10.7992
10.7879
10.7768
10.7659
10.7551
10.7444
10.7338
10.7233
10.713
10.7028
10.6928
10.6828
10.673
10.6632
10.6536
10.644
10.6345
10.6251
10.6158
10.6066
10.5976
10.5886
10.5797
10.5709
10.5622
10.5535
10.5449
10.5364
10.528
10.5197
10.5114
10.5032
10.495
10.4869
10.4787
10.4706
10.4626
10.4545
10.4466
10.4386
10.4307
10.4229
10.4152
10.4075
10.3999
10.3924
10.385
10.3777
10.3705
10.3633
10.3563
10.3493
10.3424
10.3356
10.3289
10.3223
10.3157
10.3093
10.303
10.2967
10.2905
10.2843
10.2782
10.2722
10.2662
10.2603
10.2544
10.2485
10.2427
10.2369
10.2311
10.2253
10.2196
10.214
10.2083
10.2028
10.1973
10.1918
10.1864
10.181
10.1757
10.1703
10.165
10.1597
10.1544
10.1492
10.144
10.1388
10.1337
10.1286
10.1236
10.1186
10.1136
10.1087
10.1037
10.0988
10.0939
10.0889
10.084
10.079
10.0741
10.0692
10.0643
10.0594
10.0546
10.0497
10.0449
10.04
10.0351
10.0302
10.0253
10.0204
10.0155
10.0106
10.0058
10.001
9.99631
9.99165
9.98702
9.98242
9.97785
9.9733
9.96877
9.96426
9.9598
9.95538
9.95102
9.9467
9.94243
9.93818
9.93395
9.92973
9.92549
9.92125
9.91698
9.9127
9.9084
9.90411
9.89983
9.89557
9.89135
9.88717
9.88302
9.87892
9.87486
9.87086
9.8669
9.86301
9.8592
9.85546
9.8518
9.84822
9.84471
9.84127
9.8379
9.83459
9.83134
9.82816
9.82503
9.82196
9.81894
9.81596
9.81302
9.81012
9.80727
9.80445
9.80169
9.79898
9.7963
9.79367
9.79107
9.78849
9.78595
9.78343
9.78094
9.77847
9.77603
9.7736
9.7712
9.76882
9.76646
9.76412
9.7618
9.7595
9.7572
9.75491
9.75262
9.75033
9.74804
9.74574
9.74343
9.74111
9.73877
9.7364
9.73402
9.73161
9.72919
9.72674
9.72429
9.72182
9.71935
9.71687
9.71439
9.71191
9.70942
9.70691
9.70439
9.70186
9.69932
9.69676
9.69419
9.69161
9.68903
9.68644
9.68387
9.6813
9.67875
9.67621
9.67369
9.67118
9.66869
9.66621
9.66376
9.66134
9.65894
9.65657
9.65422
9.6519
9.64959
9.64731
9.64504
9.64278
9.64053
9.63828
9.63602
9.63375
9.63148
9.6292
9.62693
9.62467
9.62243
9.62019
9.61794
9.61569
9.61342
9.61113
9.6088
9.60645
9.60406
9.60165
9.59924
9.59682
9.59441
9.592
9.5896
9.58721
9.58481
9.5824
9.57998
9.57755
9.5751
9.57265
9.57018
9.56769
9.5652
9.56268
9.56014
9.55757
9.55495
9.55228
9.54957
9.54682
9.54405
9.54127
9.53847
9.53568
9.53289
9.5301
9.52732
9.52455
9.5218
9.51907
9.51636
9.51368
9.51101
9.50836
9.50574
9.50317
9.50065
9.49819
9.49578
9.49341
9.49107
9.48874
9.48641
9.48407
9.48171
9.47937
9.47704
9.47476
9.47252
9.47034
9.46821
9.46614
9.46411
9.46215
9.46024
9.4584
9.45661
9.45488
9.45316
9.45146
9.44973
9.44798
9.4462
9.44442
9.4426
9.4408
9.43897
9.43715
9.4353
9.43346
9.43158
9.42974
9.42791
9.42618
9.42451
9.42299
9.42156
9.42029
9.41913
9.41822
9.4176
9.41752
9.41825
9.42022
9.42409
9.43079
9.44139
9.45806
9.48303
9.5209
9.57682
9.66078
9.78465
9.97147
10.246
10.66
11.2788
12.1727
13.4996
15.3076
17.8629
20.5284
20.2175
14.236
7.6992
0.609015
0.651198
0.718341
0.812462
0.930713
1.07688
1.25561
1.44512
1.63809
1.83667
2.04045
2.24715
2.45664
2.66632
2.87376
3.07812
3.28061
3.48226
3.68475
3.89076
4.10251
4.32012
4.54154
4.76407
4.98546
5.20443
5.4207
5.63481
5.84762
6.06041
6.27501
6.49322
6.71668
6.94468
7.17594
7.40937
7.64367
7.87622
8.0997
8.31249
8.51867
8.72214
8.92457
9.12628
9.32677
9.52578
9.71776
9.89489
10.0572
10.2051
10.3392
10.4604
10.57
10.6691
10.7586
10.8396
10.9127
10.9777
11.0346
11.0831
11.1231
11.1546
11.1776
11.1922
11.1983
11.1964
11.1866
11.1696
11.1458
11.1161
11.081
11.0416
10.9986
10.9531
10.9056
10.857
10.8076
10.758
10.7083
10.6586
10.6091
10.5598
10.5105
10.4611
10.4114
10.3613
10.3106
10.2593
10.2071
10.1537
10.099
10.0428
9.98508
9.9259
9.86534
9.80364
9.74112
9.67808
9.61479
9.5516
9.48863
9.42612
9.36424
9.30314
9.24297
9.18384
9.12585
9.06904
9.01347
8.95916
8.90611
8.85432
8.80378
8.75448
8.70639
8.65949
8.61381
8.56934
8.52603
8.48386
8.44285
8.403
8.36427
8.32666
8.29013
8.25468
8.22026
8.18686
8.15447
8.12305
8.09259
8.06307
8.03446
8.00673
7.97986
7.95383
7.9286
7.90415
7.88046
7.8575
7.83525
7.81368
7.79278
7.7725
7.75285
7.73379
7.71531
7.69738
7.67998
7.6631
7.6467
7.63077
7.61527
7.6002
7.58552
7.57124
7.55733
7.54379
7.5306
7.51776
7.50525
7.49306
7.48118
7.46958
7.45825
7.44718
7.43635
7.42576
7.4154
7.40527
7.39535
7.38564
7.37613
7.36681
7.35766
7.34867
7.33984
7.33116
7.32262
7.31422
7.30596
7.29782
7.28982
7.28195
7.2742
7.26657
7.25905
7.25164
7.24435
7.23716
7.2301
7.22315
7.21633
7.20962
7.20303
7.19655
7.19017
7.18388
7.17769
7.17158
7.16557
7.15966
7.15384
7.14812
7.14248
7.13692
7.13142
7.12598
7.1206
7.11527
7.11
7.10479
7.09965
7.09457
7.08955
7.08459
7.07969
7.07484
7.07003
7.06526
7.06054
7.05586
7.05121
7.04662
7.04208
7.03757
7.0331
7.02866
7.02423
7.01983
7.01543
7.01104
7.00667
7.0023
6.99795
6.99363
6.98933
6.98507
6.98085
6.97667
6.97252
6.9684
6.96433
6.96028
6.95628
6.95231
6.94838
6.94449
6.94065
6.93685
6.93311
6.92941
6.92576
6.92214
6.91856
6.91502
6.91151
6.90803
6.90458
6.90115
6.89773
6.89433
6.89093
6.88753
6.88415
6.88078
6.87743
6.8741
6.8708
6.86753
6.86429
6.86108
6.85788
6.8547
6.85153
6.84837
6.8452
6.84204
6.83889
6.83574
6.83261
6.8295
6.82641
6.82335
6.82031
6.81729
6.81429
6.81128
6.80828
6.80526
6.80223
6.79918
6.79612
6.79306
6.79
6.78695
6.78392
6.78089
6.77786
6.77483
6.77178
6.7687
6.76559
6.76246
6.75932
6.75617
6.75303
6.74991
6.74681
6.74374
6.74069
6.73766
6.73464
6.73162
6.72861
6.7256
6.72259
6.7196
6.71662
6.71367
6.71075
6.70785
6.70498
6.70211
6.69924
6.69637
6.69348
6.69057
6.68763
6.68468
6.68171
6.67873
6.67576
6.6728
6.66986
6.66693
6.66402
6.66113
6.65826
6.65541
6.65259
6.64981
6.64707
6.64438
6.64174
6.63914
6.63659
6.63408
6.63161
6.62918
6.6268
6.62446
6.62215
6.61988
6.61765
6.61544
6.61326
6.61111
6.609
6.60692
6.60488
6.60288
6.60091
6.59896
6.59705
6.59516
6.5933
6.59145
6.58964
6.58784
6.58607
6.58433
6.5826
6.5809
6.57922
6.57756
6.57593
6.57431
6.5727
6.57111
6.56953
6.56795
6.56638
6.56482
6.56325
6.56168
6.56011
6.55852
6.55693
6.55534
6.55374
6.55214
6.55054
6.54894
6.54734
6.54575
6.54417
6.54259
6.54102
6.53944
6.53787
6.53629
6.53471
6.53313
6.53155
6.52997
6.52839
6.52681
6.52525
6.52369
6.52215
6.52062
6.5191
6.51759
6.51609
6.5146
6.51313
6.51167
6.51023
6.50881
6.5074
6.50601
6.50463
6.50326
6.50191
6.50056
6.49922
6.49788
6.49654
6.49519
6.49383
6.49248
6.49113
6.48979
6.48845
6.48711
6.48577
6.48443
6.48306
6.48168
6.48027
6.47884
6.47739
6.47593
6.47446
6.47299
6.47153
6.47006
6.4686
6.46713
6.46565
6.46416
6.46265
6.46114
6.45961
6.45807
6.45652
6.45495
6.45337
6.45176
6.45013
6.44847
6.44677
6.44503
6.44326
6.44146
6.43964
6.43781
6.43596
6.43411
6.43226
6.43041
6.42856
6.42672
6.42489
6.42307
6.42126
6.41944
6.41764
6.41585
6.41408
6.41233
6.41062
6.40895
6.40731
6.4057
6.40411
6.40251
6.40092
6.39931
6.39772
6.39613
6.39458
6.39305
6.39157
6.39011
6.38871
6.38733
6.38601
6.38472
6.3835
6.38231
6.3812
6.38009
6.37904
6.37796
6.37691
6.37583
6.37478
6.3737
6.37267
6.37159
6.37057
6.3695
6.36848
6.3674
6.36639
6.36534
6.36442
6.36349
6.36274
6.36199
6.36143
6.3609
6.36059
6.36041
6.36063
6.36132
6.36285
6.36557
6.37013
6.37723
6.38826
6.40478
6.42961
6.46654
6.52164
6.60399
6.72799
6.91531
7.20341
7.65306
8.3359
9.41866
11.0821
13.5644
16.6822
18.5135
15.3631
8.5797
0.589099
0.598248
0.616042
0.641571
0.676157
0.721226
0.779447
0.845712
0.919656
0.99412
1.06817
1.14291
1.21962
1.2976
1.37611
1.45483
1.53404
1.61399
1.69515
1.77832
1.86405
1.95224
2.04242
2.13399
2.22631
2.3188
2.41104
2.50289
2.59427
2.68513
2.77553
2.86556
2.95554
3.04576
3.13641
3.22757
3.31933
3.41375
3.52007
3.64263
3.77757
3.92059
4.0689
4.22107
4.37648
4.53495
4.69588
4.858
5.02031
5.18199
5.34226
5.50055
5.65643
5.80957
5.95972
6.10666
6.25021
6.39042
6.52712
6.6598
6.78795
6.91038
7.0265
7.13577
7.23768
7.33069
7.41255
7.48345
7.54366
7.59358
7.63366
7.66449
7.6867
7.70093
7.70779
7.70786
7.70164
7.68958
7.67199
7.64913
7.62123
7.58857
7.55131
7.50966
7.46395
7.4146
7.36213
7.30718
7.25047
7.19277
7.13487
7.07753
7.02162
6.96768
6.916
6.86641
6.81875
6.77288
6.72861
6.6857
6.64374
6.60286
6.56309
6.52444
6.48689
6.45043
6.41501
6.38054
6.34696
6.31419
6.28221
6.25096
6.22043
6.19057
6.16137
6.1328
6.10485
6.07754
6.0509
6.02488
5.9995
5.97475
5.95066
5.9272
5.90438
5.8822
5.86064
5.8397
5.81937
5.79966
5.78054
5.76202
5.74407
5.7267
5.70988
5.69361
5.67787
5.66264
5.64792
5.63369
5.61994
5.60666
5.59382
5.58142
5.56945
5.55788
5.54672
5.53595
5.52555
5.51552
5.50583
5.49647
5.48742
5.47867
5.47022
5.46204
5.45413
5.44648
5.43909
5.43194
5.42504
5.41837
5.41192
5.40568
5.39963
5.39377
5.38809
5.38257
5.37722
5.37202
5.36698
5.36209
5.35734
5.35273
5.34823
5.34385
5.33958
5.33542
5.33135
5.32738
5.32351
5.31972
5.31603
5.31242
5.3089
5.30545
5.30209
5.29879
5.29557
5.29241
5.28934
5.28634
5.28342
5.28057
5.27779
5.27509
5.27244
5.26984
5.2673
5.2648
5.26236
5.25997
5.25763
5.25534
5.2531
5.25089
5.24872
5.24657
5.24445
5.24234
5.24026
5.23819
5.23616
5.23415
5.23216
5.2302
5.22826
5.22633
5.22442
5.22252
5.22062
5.21874
5.21686
5.215
5.21315
5.21132
5.20949
5.20768
5.20587
5.20406
5.20225
5.20043
5.1986
5.19676
5.19491
5.19306
5.19121
5.18936
5.18751
5.18567
5.18384
5.18201
5.18019
5.17837
5.17655
5.17474
5.17293
5.17113
5.16934
5.16757
5.16582
5.16408
5.16236
5.16065
5.15896
5.15728
5.15562
5.15397
5.15233
5.15069
5.14906
5.14742
5.14577
5.14412
5.14247
5.14081
5.13916
5.13751
5.13587
5.13424
5.13263
5.13103
5.12943
5.12785
5.12626
5.12466
5.12307
5.12146
5.11985
5.11824
5.11663
5.11503
5.11343
5.11185
5.11028
5.10873
5.10717
5.10562
5.10406
5.10248
5.10089
5.09928
5.09766
5.09601
5.09436
5.09271
5.09105
5.08939
5.08773
5.08605
5.08434
5.08261
5.08084
5.07904
5.07721
5.07536
5.0735
5.07163
5.06976
5.0679
5.06603
5.06416
5.06228
5.06039
5.05848
5.05656
5.05462
5.05266
5.0507
5.04874
5.04679
5.04483
5.04288
5.04092
5.03895
5.03697
5.03496
5.03293
5.03086
5.02877
5.02666
5.02453
5.02239
5.02025
5.0181
5.01596
5.01382
5.01168
5.00954
5.0074
5.00526
5.00315
5.00104
4.99896
4.99691
4.99487
4.99286
4.99087
4.98889
4.98694
4.98501
4.98311
4.98122
4.97936
4.97751
4.97568
4.97387
4.97207
4.9703
4.96855
4.96682
4.96512
4.96343
4.96177
4.96013
4.95851
4.95691
4.95532
4.95375
4.9522
4.95067
4.94915
4.94765
4.94617
4.94471
4.94327
4.94184
4.94044
4.93904
4.93765
4.93628
4.93492
4.93357
4.93222
4.93088
4.92954
4.9282
4.92687
4.92553
4.9242
4.92287
4.92154
4.92022
4.91891
4.91761
4.91632
4.91504
4.91377
4.91252
4.91127
4.91003
4.90879
4.90756
4.90634
4.90512
4.90391
4.90271
4.90152
4.90034
4.89918
4.89803
4.89689
4.89577
4.89466
4.89356
4.89248
4.89141
4.89036
4.88932
4.8883
4.88729
4.88629
4.88531
4.88434
4.88338
4.88244
4.8815
4.88057
4.87963
4.8787
4.87776
4.87681
4.87587
4.87493
4.87399
4.87305
4.8721
4.87115
4.87018
4.8692
4.86819
4.86716
4.86611
4.86505
4.86398
4.8629
4.86181
4.86072
4.85962
4.85851
4.8574
4.85626
4.85511
4.85395
4.85277
4.85158
4.85037
4.84914
4.84789
4.84663
4.84534
4.84403
4.84268
4.8413
4.8399
4.83847
4.83703
4.83556
4.83408
4.8326
4.8311
4.8296
4.8281
4.8266
4.82509
4.82359
4.82209
4.82059
4.81908
4.81757
4.81607
4.81458
4.81311
4.81166
4.81023
4.80882
4.80743
4.80603
4.80464
4.80324
4.80185
4.80046
4.7991
4.79775
4.79643
4.79513
4.79386
4.79261
4.79139
4.7902
4.78906
4.78794
4.78687
4.78581
4.78478
4.78375
4.78273
4.7817
4.7807
4.77968
4.7787
4.7777
4.77674
4.77575
4.7748
4.77382
4.77289
4.77194
4.77109
4.77024
4.76953
4.76883
4.76827
4.76774
4.76738
4.7671
4.76711
4.76743
4.76834
4.77006
4.77304
4.77778
4.78517
4.79641
4.81326
4.8386
4.87627
4.93323
5.01876
5.15015
5.35533
5.67801
6.18881
7.01454
8.39468
10.5681
13.5314
16.3691
15.5603
9.47258
0.586323
0.590947
0.600185
0.611709
0.624851
0.640353
0.659444
0.683068
0.712469
0.744687
0.77927
0.814809
0.850443
0.886185
0.92199
0.958482
0.995582
1.03322
1.07134
1.11
1.14932
1.18934
1.23006
1.2715
1.31364
1.35643
1.39984
1.44384
1.48839
1.53342
1.57885
1.62466
1.6708
1.71722
1.76403
1.81134
1.85926
1.90853
1.962
2.02093
2.0843
2.15095
2.22
2.29093
2.36344
2.43733
2.5125
2.58884
2.66618
2.7444
2.82339
2.90302
2.98317
3.06372
3.14457
3.22563
3.30683
3.38811
3.46935
3.55044
3.63123
3.71152
3.79105
3.86954
3.94672
4.02225
4.09573
4.1668
4.23519
4.30066
4.36302
4.42214
4.47791
4.53024
4.57901
4.62411
4.66542
4.70284
4.73623
4.76545
4.79048
4.81129
4.82782
4.84006
4.84809
4.85204
4.85216
4.84879
4.84235
4.83335
4.8223
4.81034
4.79792
4.78534
4.77293
4.76091
4.74938
4.73835
4.72778
4.71762
4.70814
4.69911
4.69035
4.68173
4.67319
4.66468
4.65581
4.64616
4.6359
4.62514
4.614
4.60252
4.59077
4.5788
4.56665
4.55434
4.54189
4.52949
4.51719
4.50491
4.49275
4.48076
4.46896
4.45738
4.44602
4.43488
4.42396
4.41327
4.40281
4.39261
4.38265
4.37296
4.36354
4.35438
4.3455
4.33689
4.32857
4.32052
4.31275
4.30526
4.29804
4.2911
4.28442
4.27801
4.27186
4.26597
4.26033
4.25494
4.24979
4.24488
4.2402
4.23574
4.23149
4.22744
4.22359
4.21993
4.21646
4.21317
4.21005
4.20712
4.20435
4.20174
4.19929
4.19699
4.19483
4.1928
4.19089
4.1891
4.18742
4.18585
4.18438
4.18302
4.18174
4.18055
4.17944
4.1784
4.17743
4.17651
4.17566
4.17485
4.1741
4.17339
4.17273
4.17211
4.17154
4.171
4.17049
4.17002
4.16957
4.16915
4.16876
4.1684
4.16808
4.16778
4.16751
4.16727
4.16704
4.16682
4.16662
4.16642
4.16624
4.16607
4.16592
4.16577
4.16564
4.16552
4.1654
4.16527
4.16514
4.16501
4.16487
4.16472
4.16458
4.16443
4.16429
4.16414
4.16399
4.16384
4.16368
4.16351
4.16333
4.16314
4.16294
4.16273
4.16252
4.1623
4.16208
4.16185
4.16161
4.16137
4.16111
4.16083
4.16054
4.16023
4.1599
4.15956
4.1592
4.15884
4.15846
4.15807
4.15768
4.15728
4.15687
4.15644
4.15601
4.15557
4.15512
4.15467
4.15421
4.15375
4.15329
4.15283
4.15237
4.15191
4.15146
4.151
4.15055
4.1501
4.14965
4.14921
4.14875
4.14829
4.14782
4.14733
4.14684
4.14634
4.14583
4.14532
4.14481
4.14431
4.1438
4.1433
4.1428
4.1423
4.1418
4.14129
4.14076
4.14023
4.13969
4.13914
4.13859
4.13804
4.13749
4.13694
4.13639
4.13585
4.1353
4.13474
4.13416
4.13357
4.13295
4.13231
4.13164
4.13094
4.13022
4.12948
4.12872
4.12794
4.12714
4.12631
4.12544
4.12453
4.12358
4.12258
4.12154
4.12047
4.11936
4.11823
4.11708
4.11591
4.11472
4.11351
4.11227
4.11101
4.10971
4.10838
4.10701
4.10562
4.1042
4.10277
4.10131
4.09985
4.09836
4.09686
4.09534
4.0938
4.09223
4.09063
4.08901
4.08735
4.08566
4.08396
4.08224
4.08051
4.07877
4.07703
4.07528
4.07352
4.07175
4.06998
4.0682
4.06642
4.06465
4.06288
4.06113
4.05938
4.05763
4.0559
4.05417
4.05246
4.05075
4.04906
4.04737
4.0457
4.04404
4.04238
4.04074
4.03911
4.03749
4.03588
4.0343
4.03273
4.03117
4.02964
4.02811
4.0266
4.02511
4.02363
4.02216
4.02071
4.01927
4.01785
4.01644
4.01504
4.01366
4.01229
4.01094
4.0096
4.00828
4.00696
4.00566
4.00437
4.00309
4.00182
4.00055
3.99929
3.99804
3.9968
3.99557
3.99434
3.99312
3.99192
3.99072
3.98954
3.98837
3.98722
3.98609
3.98496
3.98385
3.98276
3.98167
3.9806
3.97954
3.97849
3.97745
3.97642
3.9754
3.9744
3.97342
3.97246
3.97151
3.97058
3.96967
3.96877
3.96789
3.96702
3.96617
3.96534
3.96452
3.96371
3.96291
3.96212
3.96135
3.96058
3.95982
3.95907
3.95832
3.95757
3.95682
3.95606
3.95529
3.95451
3.95373
3.95293
3.95213
3.95131
3.95048
3.94964
3.94878
3.94789
3.94698
3.94605
3.94509
3.94411
3.94312
3.9421
3.94108
3.94004
3.939
3.93793
3.93685
3.93575
3.93463
3.93349
3.93233
3.93116
3.92997
3.92876
3.92753
3.92629
3.92502
3.92373
3.92242
3.92108
3.91972
3.91834
3.91694
3.91553
3.9141
3.91267
3.91122
3.90977
3.90831
3.90685
3.90539
3.90392
3.90245
3.90097
3.89949
3.898
3.89651
3.89503
3.89356
3.8921
3.89066
3.88924
3.88782
3.88641
3.885
3.88359
3.88219
3.88079
3.87941
3.87804
3.8767
3.87536
3.87405
3.87275
3.87147
3.8702
3.86897
3.86775
3.86656
3.86538
3.86422
3.86306
3.8619
3.86074
3.8596
3.85845
3.85733
3.8562
3.8551
3.85399
3.85292
3.85183
3.85079
3.84974
3.84877
3.84782
3.84697
3.84614
3.84542
3.84473
3.84417
3.84367
3.84338
3.84332
3.84368
3.84463
3.84647
3.8496
3.85458
3.86235
3.87407
3.89196
3.91854
3.9592
4.02031
4.11505
4.2642
4.49637
4.88043
5.50672
6.60616
8.44732
11.0997
14.2047
15.1124
10.3521
0.586349
0.591271
0.599929
0.609832
0.618941
0.627817
0.636352
0.645684
0.656584
0.669458
0.684669
0.70165
0.719762
0.738842
0.75865
0.77864
0.798889
0.81945
0.840388
0.8618
0.884098
0.907433
0.931875
0.95751
0.984509
1.01314
1.04351
1.07558
1.10923
1.14433
1.18071
1.21828
1.25691
1.29656
1.33758
1.38073
1.42638
1.47448
1.52497
1.57781
1.63285
1.68991
1.74879
1.80928
1.87121
1.93442
1.99869
2.06388
2.12983
2.19637
2.26329
2.33038
2.39744
2.46426
2.53063
2.5963
2.66103
2.72454
2.78656
2.84676
2.90477
2.96025
3.01281
3.06222
3.10845
3.15194
3.19345
3.23365
3.27277
3.31085
3.34792
3.38398
3.41909
3.45325
3.48642
3.51849
3.54934
3.57885
3.6069
3.63343
3.65833
3.68139
3.70252
3.72147
3.73816
3.75259
3.76479
3.77482
3.78273
3.78863
3.79264
3.79496
3.7958
3.79537
3.79388
3.7915
3.7884
3.78471
3.78056
3.77606
3.77132
3.76638
3.7613
3.75609
3.75076
3.74537
3.73988
3.73424
3.72841
3.72237
3.71612
3.70951
3.70256
3.69536
3.68791
3.6803
3.67256
3.66487
3.65734
3.65005
3.64299
3.63615
3.62953
3.62313
3.61673
3.61035
3.60404
3.59783
3.59174
3.58578
3.57998
3.57432
3.56882
3.5635
3.55837
3.55345
3.54875
3.54426
3.53998
3.53591
3.53204
3.52838
3.52492
3.52167
3.51862
3.51577
3.51312
3.51067
3.50842
3.50635
3.50447
3.50277
3.50124
3.49988
3.49869
3.49764
3.49676
3.49602
3.49543
3.49498
3.49466
3.49448
3.49443
3.49449
3.49466
3.49493
3.49529
3.49573
3.49626
3.49685
3.49752
3.49825
3.49903
3.49986
3.50073
3.50163
3.50256
3.50351
3.50448
3.50546
3.50646
3.50746
3.50846
3.50947
3.51048
3.51149
3.5125
3.51349
3.51448
3.51546
3.51643
3.5174
3.51835
3.5193
3.52025
3.52118
3.5221
3.523
3.52389
3.52476
3.52562
3.52647
3.5273
3.52813
3.52895
3.52976
3.53055
3.53133
3.5321
3.53284
3.53358
3.53429
3.535
3.5357
3.53639
3.53708
3.53775
3.53841
3.53906
3.5397
3.54033
3.54094
3.54154
3.54213
3.54272
3.54329
3.54385
3.5444
3.54495
3.54548
3.546
3.54651
3.54701
3.54748
3.54794
3.54839
3.54882
3.54924
3.54965
3.55005
3.55044
3.55082
3.55119
3.55155
3.5519
3.55224
3.55257
3.55289
3.55321
3.55351
3.55381
3.55411
3.55441
3.5547
3.55499
3.55528
3.55557
3.55586
3.55615
3.55643
3.55671
3.55699
3.55725
3.55751
3.55776
3.558
3.55823
3.55846
3.55869
3.55891
3.55913
3.55935
3.55957
3.55978
3.55999
3.56019
3.56037
3.56055
3.56071
3.56086
3.561
3.56113
3.56125
3.56136
3.56146
3.56155
3.56163
3.56168
3.5617
3.56169
3.56164
3.56155
3.56141
3.56124
3.56102
3.56076
3.56046
3.56012
3.55973
3.5593
3.55881
3.55827
3.55767
3.55702
3.55631
3.55555
3.55475
3.55391
3.55302
3.5521
3.55115
3.55016
3.54913
3.54806
3.54695
3.5458
3.5446
3.54337
3.54211
3.54081
3.53949
3.53814
3.53677
3.53537
3.53396
3.53251
3.53105
3.52955
3.52803
3.52648
3.52492
3.52333
3.52173
3.52012
3.51851
3.51688
3.51525
3.51361
3.51197
3.51031
3.50864
3.50698
3.50531
3.50364
3.50198
3.50032
3.49866
3.49701
3.49536
3.49372
3.49208
3.49045
3.48883
3.48721
3.48561
3.48401
3.48242
3.48084
3.47928
3.47772
3.47618
3.47466
3.47315
3.47166
3.47018
3.46872
3.46727
3.46583
3.4644
3.46299
3.46159
3.4602
3.45883
3.45747
3.45612
3.45479
3.45347
3.45216
3.45086
3.44958
3.44831
3.44706
3.44582
3.44459
3.44338
3.44217
3.44098
3.4398
3.43864