/*--------------------------------*- C++ -*----------------------------------*\
| =========                 |                                                 |
| \\      /  F ield         | foam-extend: Open Source CFD                    |
|  \\    /   O peration     | Version:     3.2                                |
|   \\  /    A nd           | Web:         http://www.foam-extend.org         |
|    \\/     M anipulation  | For copyright notice see file Copyright         |
\*---------------------------------------------------------------------------*/
FoamFile
{
    version     2.0;
    format      ascii;
    class       surfaceScalarField;
    location    "20";
    object      phi;
}
// * * * * * * * * * * * * * * * * * * * * * * * * * * * * * * * * * * * * * //

dimensions      [0 3 -1 0 0 0 0];

internalField   nonuniform List<scalar> 
65390
(
3.7377e-05
6.23017e-07
3.67761e-05
6.00856e-07
3.60653e-05
7.1086e-07
3.53606e-05
7.04656e-07
3.46399e-05
7.2075e-07
3.39626e-05
6.77242e-07
3.33065e-05
6.5614e-07
3.26887e-05
6.17771e-07
3.20897e-05
5.99027e-07
3.15165e-05
5.73144e-07
3.09656e-05
5.50978e-07
3.04389e-05
5.26643e-07
2.99348e-05
5.04104e-07
2.94506e-05
4.84239e-07
2.89836e-05
4.67019e-07
2.85354e-05
4.48164e-07
2.8108e-05
4.27387e-07
2.77e-05
4.08028e-07
2.73083e-05
3.9172e-07
2.69316e-05
3.76685e-07
2.657e-05
3.61564e-07
2.62233e-05
3.46687e-07
2.58917e-05
3.31578e-07
2.5576e-05
3.15785e-07
2.52765e-05
2.99472e-07
2.49936e-05
2.8289e-07
2.4727e-05
2.66578e-07
2.44753e-05
2.51729e-07
2.42369e-05
2.38425e-07
2.40109e-05
2.25987e-07
2.37967e-05
2.14148e-07
2.35941e-05
2.02676e-07
2.34024e-05
1.91684e-07
2.32211e-05
1.81304e-07
2.30495e-05
1.71521e-07
2.28874e-05
1.6211e-07
2.27344e-05
1.53044e-07
2.259e-05
1.44388e-07
2.24539e-05
1.36104e-07
2.23256e-05
1.28285e-07
2.22047e-05
1.20865e-07
2.20909e-05
1.13868e-07
2.19835e-05
1.07335e-07
2.18823e-05
1.01196e-07
2.17869e-05
9.54322e-08
2.1697e-05
8.99492e-08
2.16122e-05
8.47326e-08
2.15324e-05
7.98227e-08
2.14572e-05
7.52093e-08
2.13863e-05
7.08659e-08
2.13195e-05
6.68035e-08
2.12565e-05
6.30161e-08
2.11971e-05
5.94633e-08
2.11408e-05
5.62155e-08
2.10876e-05
5.32676e-08
2.1037e-05
5.05232e-08
2.09891e-05
4.79246e-08
2.09436e-05
4.55251e-08
2.09003e-05
4.33271e-08
2.0859e-05
4.12751e-08
2.08197e-05
3.93313e-08
2.07822e-05
3.74521e-08
2.07465e-05
3.56733e-08
2.07125e-05
3.39921e-08
2.06801e-05
3.2415e-08
2.06492e-05
3.09509e-08
2.06196e-05
2.95846e-08
2.05913e-05
2.83065e-08
2.05642e-05
2.71169e-08
2.05382e-05
2.60148e-08
2.05131e-05
2.50088e-08
2.0489e-05
2.41356e-08
2.04656e-05
2.34087e-08
2.04428e-05
2.2771e-08
2.04207e-05
2.21755e-08
2.03991e-05
2.16065e-08
2.0378e-05
2.10589e-08
2.03575e-05
2.0508e-08
2.03376e-05
1.98945e-08
2.03183e-05
1.92596e-08
2.02996e-05
1.87333e-08
2.02813e-05
1.82896e-08
2.02634e-05
1.78789e-08
2.02459e-05
1.75058e-08
2.02288e-05
1.71543e-08
2.02119e-05
1.68216e-08
2.01954e-05
1.65002e-08
2.01793e-05
1.61849e-08
2.01634e-05
1.58773e-08
2.01478e-05
1.55773e-08
2.01325e-05
1.5307e-08
2.01174e-05
1.51422e-08
2.01023e-05
1.50385e-08
2.00874e-05
1.4885e-08
2.00727e-05
1.46948e-08
2.00583e-05
1.44623e-08
2.00441e-05
1.42004e-08
2.00301e-05
1.39469e-08
2.00164e-05
1.36816e-08
2.00031e-05
1.331e-08
1.99901e-05
1.30374e-08
1.99771e-05
1.29567e-08
1.99642e-05
1.29024e-08
1.99513e-05
1.28949e-08
1.99384e-05
1.29073e-08
1.99255e-05
1.29491e-08
1.99125e-05
1.30046e-08
1.98994e-05
1.30762e-08
1.98863e-05
1.31552e-08
1.9873e-05
1.32416e-08
1.98597e-05
1.33282e-08
1.98463e-05
1.34221e-08
1.98328e-05
1.35115e-08
1.98191e-05
1.36086e-08
1.98055e-05
1.36909e-08
1.97917e-05
1.37545e-08
1.97778e-05
1.39331e-08
1.97636e-05
1.41852e-08
1.97493e-05
1.43077e-08
1.97349e-05
1.44071e-08
1.97203e-05
1.4581e-08
1.97055e-05
1.47505e-08
1.96906e-05
1.49365e-08
1.96755e-05
1.5118e-08
1.96602e-05
1.52993e-08
1.96447e-05
1.54741e-08
1.96291e-05
1.56431e-08
1.96133e-05
1.58059e-08
1.95973e-05
1.59623e-08
1.95812e-05
1.61113e-08
1.95649e-05
1.62521e-08
1.95485e-05
1.63836e-08
1.9532e-05
1.6505e-08
1.95154e-05
1.66162e-08
1.94987e-05
1.67166e-08
1.94819e-05
1.68063e-08
1.9465e-05
1.68848e-08
1.94481e-05
1.69524e-08
1.94311e-05
1.701e-08
1.9414e-05
1.70577e-08
1.93969e-05
1.70972e-08
1.93798e-05
1.71287e-08
1.93626e-05
1.71533e-08
1.93454e-05
1.71725e-08
1.93283e-05
1.71874e-08
1.93111e-05
1.71992e-08
1.92939e-05
1.72075e-08
1.92766e-05
1.7211e-08
1.92594e-05
1.72076e-08
1.92422e-05
1.71955e-08
1.92251e-05
1.7173e-08
1.92079e-05
1.71408e-08
1.91908e-05
1.70993e-08
1.91738e-05
1.70513e-08
1.91568e-05
1.69983e-08
1.91398e-05
1.69425e-08
1.91229e-05
1.68851e-08
1.91061e-05
1.68268e-08
1.90894e-05
1.67676e-08
1.90726e-05
1.67066e-08
1.9056e-05
1.66424e-08
1.90394e-05
1.65722e-08
1.90229e-05
1.64935e-08
1.90065e-05
1.64034e-08
1.89902e-05
1.63007e-08
1.89741e-05
1.6185e-08
1.8958e-05
1.6057e-08
1.89421e-05
1.59175e-08
1.89263e-05
1.57669e-08
1.89107e-05
1.56049e-08
1.88953e-05
1.54309e-08
1.888e-05
1.5244e-08
1.8865e-05
1.50427e-08
1.88502e-05
1.48265e-08
1.88356e-05
1.45953e-08
1.88212e-05
1.43504e-08
1.88071e-05
1.40937e-08
1.87933e-05
1.38277e-08
1.87797e-05
1.35547e-08
1.87665e-05
1.32779e-08
1.87535e-05
1.29999e-08
1.87407e-05
1.27238e-08
1.87283e-05
1.2452e-08
1.87161e-05
1.21865e-08
1.87042e-05
1.19288e-08
1.86925e-05
1.16803e-08
1.8681e-05
1.14415e-08
1.86698e-05
1.12144e-08
1.86588e-05
1.09986e-08
1.8648e-05
1.07975e-08
1.86374e-05
1.06106e-08
1.8627e-05
1.04398e-08
1.86167e-05
1.02838e-08
1.86066e-05
1.01432e-08
1.85965e-05
1.00132e-08
1.85867e-05
9.89456e-09
1.85769e-05
9.78147e-09
1.85672e-05
9.66971e-09
1.85576e-05
9.55857e-09
1.85482e-05
9.44728e-09
1.85389e-05
9.3373e-09
1.85296e-05
9.22773e-09
1.85205e-05
9.12061e-09
1.85115e-05
9.01391e-09
1.85026e-05
8.90699e-09
1.84938e-05
8.79731e-09
1.84851e-05
8.6837e-09
1.84765e-05
8.5658e-09
1.84681e-05
8.44325e-09
1.84598e-05
8.31795e-09
1.84516e-05
8.19151e-09
1.84435e-05
8.06522e-09
1.84356e-05
7.93993e-09
1.84278e-05
7.81581e-09
1.84201e-05
7.69239e-09
1.84125e-05
7.56886e-09
1.84051e-05
7.44484e-09
1.83977e-05
7.32085e-09
1.83905e-05
7.19777e-09
1.83835e-05
7.07736e-09
1.83765e-05
6.96102e-09
1.83697e-05
6.85132e-09
1.83629e-05
6.74849e-09
1.83562e-05
6.67646e-09
1.83496e-05
6.65564e-09
1.83429e-05
6.65862e-09
1.83363e-05
6.66227e-09
1.83296e-05
6.66364e-09
1.83229e-05
6.66092e-09
1.83163e-05
6.65407e-09
1.83096e-05
6.64349e-09
1.8303e-05
6.63021e-09
1.82964e-05
6.61426e-09
1.82898e-05
6.59642e-09
1.82832e-05
6.57675e-09
1.82767e-05
6.5568e-09
1.82701e-05
6.53721e-09
1.82636e-05
6.51919e-09
1.82571e-05
6.50259e-09
1.82506e-05
6.48781e-09
1.82441e-05
6.47475e-09
1.82377e-05
6.46448e-09
1.82312e-05
6.45781e-09
1.82248e-05
6.45531e-09
1.82183e-05
6.45615e-09
1.82118e-05
6.45823e-09
1.82054e-05
6.46015e-09
1.81989e-05
6.45993e-09
1.81925e-05
6.45676e-09
1.8186e-05
6.44965e-09
1.81796e-05
6.43831e-09
1.81732e-05
6.42268e-09
1.81668e-05
6.40283e-09
1.81604e-05
6.37915e-09
1.8154e-05
6.35155e-09
1.81477e-05
6.32033e-09
1.81414e-05
6.28491e-09
1.81352e-05
6.24498e-09
1.8129e-05
6.19923e-09
1.81228e-05
6.14768e-09
1.81167e-05
6.08967e-09
1.81107e-05
6.02596e-09
1.81048e-05
5.95661e-09
1.80989e-05
5.88315e-09
1.80931e-05
5.80648e-09
1.80873e-05
5.72838e-09
1.80817e-05
5.64902e-09
1.80761e-05
5.56866e-09
1.80706e-05
5.4881e-09
1.80652e-05
5.40903e-09
1.80599e-05
5.3322e-09
1.80546e-05
5.25834e-09
1.80494e-05
5.1863e-09
1.80443e-05
5.11497e-09
1.80393e-05
5.04475e-09
1.80343e-05
4.97406e-09
1.80294e-05
4.90808e-09
1.80246e-05
4.84326e-09
1.80198e-05
4.78092e-09
1.80151e-05
4.72223e-09
1.80104e-05
4.66861e-09
1.80058e-05
4.61946e-09
1.80012e-05
4.57451e-09
1.79967e-05
4.53169e-09
1.79922e-05
4.48946e-09
1.79877e-05
4.44484e-09
1.79833e-05
4.3953e-09
1.7979e-05
4.3389e-09
1.79747e-05
4.27425e-09
1.79705e-05
4.20113e-09
1.79664e-05
4.11976e-09
1.79624e-05
4.03156e-09
1.79584e-05
3.93774e-09
1.79546e-05
3.84072e-09
1.79508e-05
3.74182e-09
1.79472e-05
3.64347e-09
1.79437e-05
3.5457e-09
1.79402e-05
3.44947e-09
1.79369e-05
3.35333e-09
1.79336e-05
3.25586e-09
1.79304e-05
3.15689e-09
1.79274e-05
3.05784e-09
1.79244e-05
2.96303e-09
1.79215e-05
2.87586e-09
1.79187e-05
2.80091e-09
1.7916e-05
2.74135e-09
1.79133e-05
2.69982e-09
1.79106e-05
2.67637e-09
1.7908e-05
2.66821e-09
1.79053e-05
2.67523e-09
1.79026e-05
2.6937e-09
1.78999e-05
2.72444e-09
1.78971e-05
2.76146e-09
1.78943e-05
2.80569e-09
1.78914e-05
2.85151e-09
1.78885e-05
2.90095e-09
1.78856e-05
2.94902e-09
1.78826e-05
2.99909e-09
1.78796e-05
3.04755e-09
1.78765e-05
3.09712e-09
1.78733e-05
3.14378e-09
1.78701e-05
3.18682e-09
1.78669e-05
3.22272e-09
1.78636e-05
3.25206e-09
1.78604e-05
3.27366e-09
1.78571e-05
3.28752e-09
1.78538e-05
3.29108e-09
1.78505e-05
3.28645e-09
1.78472e-05
3.27381e-09
1.7844e-05
3.25953e-09
1.78407e-05
3.24736e-09
1.78375e-05
3.24355e-09
1.78342e-05
3.25201e-09
1.7831e-05
3.27654e-09
1.78276e-05
3.3176e-09
1.78243e-05
3.37454e-09
1.78208e-05
3.44622e-09
1.78173e-05
3.53107e-09
1.78137e-05
3.62849e-09
1.78099e-05
3.73855e-09
1.78061e-05
3.86151e-09
1.78021e-05
3.9983e-09
1.77979e-05
4.14872e-09
1.77936e-05
4.30951e-09
1.77891e-05
4.47948e-09
1.77845e-05
4.65694e-09
1.77796e-05
4.84179e-09
1.77746e-05
5.03057e-09
1.77694e-05
5.22027e-09
1.7764e-05
5.40637e-09
1.77584e-05
5.58705e-09
1.77526e-05
5.75981e-09
1.77467e-05
5.92426e-09
1.77406e-05
6.0793e-09
1.77344e-05
6.22472e-09
1.7728e-05
6.36178e-09
1.77215e-05
6.49268e-09
1.77149e-05
6.62076e-09
1.77082e-05
6.74801e-09
1.77013e-05
6.87232e-09
1.76943e-05
6.99269e-09
1.76872e-05
7.10577e-09
1.768e-05
7.21169e-09
1.76727e-05
7.30903e-09
1.76653e-05
7.39916e-09
1.76578e-05
7.48151e-09
1.76502e-05
7.55747e-09
1.76426e-05
7.62578e-09
1.76349e-05
7.688e-09
1.76272e-05
7.74353e-09
1.76194e-05
7.7932e-09
1.76116e-05
7.83681e-09
1.76037e-05
7.87265e-09
1.75958e-05
7.90206e-09
1.75879e-05
7.92486e-09
1.75799e-05
7.94031e-09
1.7572e-05
7.94543e-09
1.7564e-05
7.93764e-09
1.75561e-05
7.91438e-09
1.75482e-05
7.8753e-09
1.75404e-05
7.8236e-09
1.75327e-05
7.75967e-09
1.7525e-05
7.68236e-09
1.75174e-05
7.59069e-09
1.75099e-05
7.48464e-09
1.75025e-05
7.36329e-09
1.74953e-05
7.22786e-09
1.74882e-05
7.07931e-09
1.74813e-05
6.91964e-09
1.74746e-05
6.75187e-09
1.7468e-05
6.57913e-09
1.74616e-05
6.40475e-09
1.74553e-05
6.22878e-09
1.74493e-05
6.05357e-09
1.74434e-05
5.87952e-09
1.74377e-05
5.70833e-09
1.74322e-05
5.53894e-09
1.74268e-05
5.37314e-09
1.74216e-05
5.21246e-09
1.74165e-05
5.06174e-09
1.74116e-05
4.92341e-09
1.74068e-05
4.79932e-09
1.74021e-05
4.68881e-09
1.73975e-05
4.59159e-09
1.7393e-05
4.50818e-09
1.73886e-05
4.44182e-09
1.73842e-05
4.39467e-09
1.73798e-05
4.36726e-09
1.73754e-05
4.35927e-09
1.73711e-05
4.36899e-09
1.73667e-05
4.39407e-09
1.73622e-05
4.43205e-09
1.73578e-05
4.48021e-09
1.73532e-05
4.53578e-09
1.73486e-05
4.59652e-09
1.7344e-05
4.6616e-09
1.73392e-05
4.72865e-09
1.73344e-05
4.7963e-09
1.73296e-05
4.86073e-09
1.73247e-05
4.92161e-09
1.73197e-05
4.97703e-09
1.73147e-05
5.02825e-09
1.73096e-05
5.07387e-09
1.73045e-05
5.11507e-09
1.72993e-05
5.14896e-09
1.72941e-05
5.18046e-09
1.72889e-05
5.20928e-09
1.72837e-05
5.24011e-09
1.72784e-05
5.27069e-09
1.72731e-05
5.30317e-09
1.72678e-05
5.33482e-09
1.72624e-05
5.36696e-09
1.7257e-05
5.39776e-09
1.72516e-05
5.42583e-09
1.72461e-05
5.44919e-09
1.72407e-05
5.46707e-09
1.72352e-05
5.48067e-09
1.72297e-05
5.48895e-09
1.72242e-05
5.49375e-09
1.72187e-05
5.49309e-09
1.72132e-05
5.4896e-09
1.72077e-05
5.48605e-09
1.72023e-05
5.48613e-09
1.71968e-05
5.49361e-09
1.71913e-05
5.51014e-09
1.71857e-05
5.53597e-09
1.71802e-05
5.57e-09
1.71745e-05
5.61255e-09
1.71689e-05
5.65887e-09
1.71632e-05
5.70789e-09
1.71574e-05
5.75457e-09
1.71516e-05
5.80039e-09
1.71458e-05
5.84321e-09
1.71399e-05
5.88822e-09
1.7134e-05
5.93164e-09
1.7128e-05
5.97442e-09
1.7122e-05
6.01335e-09
1.71159e-05
6.04862e-09
1.71098e-05
6.07346e-09
1.71038e-05
6.08513e-09
1.70977e-05
6.07965e-09
1.70916e-05
6.05726e-09
1.70856e-05
6.02168e-09
1.70796e-05
5.97875e-09
1.70737e-05
5.93503e-09
1.70678e-05
5.89156e-09
1.70619e-05
5.85153e-09
1.70561e-05
5.81356e-09
1.70503e-05
5.78175e-09
1.70446e-05
5.75889e-09
1.70388e-05
5.74882e-09
1.70331e-05
5.75316e-09
1.70273e-05
5.774e-09
1.70215e-05
5.81439e-09
1.70156e-05
5.8744e-09
1.70097e-05
5.95275e-09
1.70036e-05
6.04465e-09
1.69975e-05
6.14618e-09
1.69912e-05
6.25286e-09
1.69849e-05
6.36326e-09
1.69784e-05
6.47354e-09
1.69718e-05
6.58065e-09
1.69651e-05
6.68353e-09
1.69583e-05
6.77885e-09
1.69515e-05
6.86709e-09
1.69445e-05
6.94035e-09
1.69375e-05
7.00107e-09
1.69305e-05
7.03968e-09
1.69234e-05
7.06648e-09
1.69164e-05
7.07952e-09
1.69093e-05
7.09965e-09
1.69021e-05
7.12355e-09
1.6895e-05
7.16661e-09
1.68877e-05
7.21599e-09
1.68805e-05
7.28014e-09
1.68731e-05
7.33708e-09
1.68657e-05
7.39652e-09
1.68583e-05
7.44095e-09
1.68508e-05
7.4945e-09
1.68433e-05
7.53758e-09
1.68357e-05
7.59834e-09
1.6828e-05
7.64615e-09
1.68203e-05
7.70732e-09
1.68126e-05
7.73146e-09
1.68048e-05
7.75244e-09
1.67971e-05
7.7156e-09
1.67894e-05
7.68706e-09
1.67818e-05
7.61004e-09
1.67742e-05
7.57513e-09
1.67667e-05
7.49641e-09
1.67593e-05
7.47739e-09
1.67519e-05
7.40223e-09
1.67445e-05
7.39844e-09
1.67371e-05
7.32189e-09
1.67298e-05
7.33669e-09
1.67225e-05
7.26496e-09
1.67152e-05
7.3253e-09
1.67079e-05
7.29461e-09
1.67005e-05
7.44628e-09
1.6693e-05
7.48323e-09
1.66852e-05
7.75313e-09
1.66774e-05
7.86907e-09
1.66691e-05
8.29845e-09
1.66605e-05
8.54851e-09
1.66513e-05
9.25564e-09
1.66414e-05
9.84061e-09
1.66303e-05
1.10724e-08
1.66178e-05
1.25329e-08
1.66028e-05
1.50382e-08
1.65844e-05
1.8401e-08
1.65604e-05
2.40122e-08
1.65294e-05
3.09874e-08
1.64864e-05
4.29528e-08
1.64287e-05
5.76937e-08
1.63459e-05
8.28185e-08
1.62317e-05
1.14184e-07
1.6064e-05
1.67718e-07
1.58296e-05
2.34368e-07
1.54799e-05
3.49692e-07
1.49925e-05
4.8745e-07
1.42724e-05
7.20133e-07
1.327e-05
1.00232e-06
1.19016e-05
1.36844e-06
1.01164e-05
1.78516e-06
7.81358e-06
2.30286e-06
4.1673e-06
3.64628e-06
8.88543e-07
3.27876e-06
-9.20699e-07
1.80924e-06
-2.32417e-06
1.40348e-06
-2.32417e-06
3.77842e-05
8.38839e-07
3.7473e-05
9.12039e-07
3.70034e-05
1.1805e-06
3.65508e-05
1.15723e-06
3.6102e-05
1.16948e-06
3.57016e-05
1.07772e-06
3.53227e-05
1.035e-06
3.49761e-05
9.64409e-07
3.46765e-05
8.98638e-07
3.44279e-05
8.21747e-07
3.41985e-05
7.80293e-07
3.39827e-05
7.42485e-07
3.37727e-05
7.14152e-07
3.3566e-05
6.90898e-07
3.33604e-05
6.7266e-07
3.31536e-05
6.54878e-07
3.29391e-05
6.41919e-07
3.27169e-05
6.30204e-07
3.24942e-05
6.14413e-07
3.22735e-05
5.97411e-07
3.20549e-05
5.80201e-07
3.18378e-05
5.63795e-07
3.16219e-05
5.47397e-07
3.14079e-05
5.2986e-07
3.11959e-05
5.11399e-07
3.09862e-05
4.92607e-07
3.07789e-05
4.7392e-07
3.05753e-05
4.55268e-07
3.03771e-05
4.36709e-07
3.01837e-05
4.19322e-07
2.99953e-05
4.02581e-07
2.9812e-05
3.85935e-07
2.96341e-05
3.69599e-07
2.94614e-05
3.54044e-07
2.92936e-05
3.39345e-07
2.91306e-05
3.25094e-07
2.89725e-05
3.11071e-07
2.88194e-05
2.97547e-07
2.8671e-05
2.84472e-07
2.85273e-05
2.72019e-07
2.83884e-05
2.59797e-07
2.82543e-05
2.47968e-07
2.81248e-05
2.36817e-07
2.79997e-05
2.26274e-07
2.78789e-05
2.16181e-07
2.77623e-05
2.06552e-07
2.76493e-05
1.97777e-07
2.75397e-05
1.89408e-07
2.74334e-05
1.81494e-07
2.73304e-05
1.739e-07
2.72305e-05
1.66649e-07
2.71338e-05
1.5979e-07
2.704e-05
1.53256e-07
2.69491e-05
1.4711e-07
2.6861e-05
1.41365e-07
2.67756e-05
1.35916e-07
2.66929e-05
1.30633e-07
2.66128e-05
1.25649e-07
2.65351e-05
1.21032e-07
2.64597e-05
1.16681e-07
2.63865e-05
1.12476e-07
2.63156e-05
1.08397e-07
2.62468e-05
1.04487e-07
2.618e-05
1.0073e-07
2.61153e-05
9.71153e-08
2.60526e-05
9.36683e-08
2.59918e-05
9.0371e-08
2.59329e-05
8.7211e-08
2.58758e-05
8.42045e-08
2.58205e-05
8.13679e-08
2.57667e-05
7.87253e-08
2.57145e-05
7.63534e-08
2.56636e-05
7.43031e-08
2.56139e-05
7.24702e-08
2.55654e-05
7.07269e-08
2.5518e-05
6.90211e-08
2.54717e-05
6.73357e-08
2.54266e-05
6.56284e-08
2.53827e-05
6.37898e-08
2.53401e-05
6.18122e-08
2.52988e-05
6.00155e-08
2.52587e-05
5.84199e-08
2.52197e-05
5.6909e-08
2.51817e-05
5.54965e-08
2.51447e-05
5.41677e-08
2.51086e-05
5.28928e-08
2.50734e-05
5.16675e-08
2.50392e-05
5.04532e-08
2.50058e-05
4.92623e-08
2.49733e-05
4.80818e-08
2.49416e-05
4.69466e-08
2.49108e-05
4.60001e-08
2.48805e-05
4.52763e-08
2.48509e-05
4.44934e-08
2.4822e-05
4.36568e-08
2.47936e-05
4.28004e-08
2.47658e-05
4.20502e-08
2.47382e-05
4.15317e-08
2.47108e-05
4.10604e-08
2.46838e-05
4.03459e-08
2.46572e-05
3.96666e-08
2.46307e-05
3.94318e-08
2.46043e-05
3.92773e-08
2.4578e-05
3.92017e-08
2.45517e-05
3.91752e-08
2.45255e-05
3.92086e-08
2.44992e-05
3.92677e-08
2.44729e-05
3.93579e-08
2.44466e-05
3.94527e-08
2.44203e-05
3.95553e-08
2.4394e-05
3.96465e-08
2.43677e-05
3.97343e-08
2.43414e-05
3.9804e-08
2.43151e-05
3.98655e-08
2.42889e-05
3.99069e-08
2.42628e-05
3.98641e-08
2.42368e-05
3.998e-08
2.42106e-05
4.03449e-08
2.41844e-05
4.04692e-08
2.41584e-05
4.04453e-08
2.41324e-05
4.06013e-08
2.41064e-05
4.0761e-08
2.40804e-05
4.09424e-08
2.40544e-05
4.1121e-08
2.40284e-05
4.12894e-08
2.40024e-05
4.14441e-08
2.39765e-05
4.1583e-08
2.39506e-05
4.1711e-08
2.39247e-05
4.18281e-08
2.38989e-05
4.19344e-08
2.38731e-05
4.2028e-08
2.38474e-05
4.21063e-08
2.38217e-05
4.21669e-08
2.37961e-05
4.22088e-08
2.37706e-05
4.22311e-08
2.37452e-05
4.22332e-08
2.37198e-05
4.22142e-08
2.36946e-05
4.21748e-08
2.36695e-05
4.21183e-08
2.36445e-05
4.20457e-08
2.36197e-05
4.19608e-08
2.35949e-05
4.18642e-08
2.35703e-05
4.17571e-08
2.35459e-05
4.1643e-08
2.35215e-05
4.15243e-08
2.34973e-05
4.14046e-08
2.34732e-05
4.12841e-08
2.34493e-05
4.11612e-08
2.34255e-05
4.10313e-08
2.34018e-05
4.08912e-08
2.33782e-05
4.07354e-08
2.33548e-05
4.05641e-08
2.33315e-05
4.03754e-08
2.33084e-05
4.01739e-08
2.32854e-05
3.99637e-08
2.32626e-05
3.97503e-08
2.324e-05
3.95376e-08
2.32175e-05
3.93271e-08
2.31951e-05
3.91201e-08
2.31729e-05
3.89143e-08
2.31508e-05
3.87077e-08
2.31289e-05
3.84937e-08
2.31071e-05
3.82654e-08
2.30855e-05
3.8015e-08
2.30641e-05
3.7738e-08
2.30428e-05
3.74343e-08
2.30218e-05
3.71058e-08
2.3001e-05
3.67572e-08
2.29803e-05
3.63915e-08
2.29599e-05
3.60102e-08
2.29397e-05
3.56118e-08
2.29198e-05
3.51922e-08
2.29001e-05
3.47467e-08
2.28806e-05
3.42721e-08
2.28615e-05
3.37694e-08
2.28426e-05
3.32404e-08
2.2824e-05
3.26901e-08
2.28057e-05
3.21226e-08
2.27877e-05
3.15417e-08
2.277e-05
3.09548e-08
2.27527e-05
3.03662e-08
2.27356e-05
2.97849e-08
2.27188e-05
2.92158e-08
2.27024e-05
2.86617e-08
2.26862e-05
2.81259e-08
2.26702e-05
2.76082e-08
2.26546e-05
2.71084e-08
2.26392e-05
2.663e-08
2.2624e-05
2.61768e-08
2.2609e-05
2.57569e-08
2.25943e-05
2.53696e-08
2.25797e-05
2.50221e-08
2.25652e-05
2.47087e-08
2.2551e-05
2.44301e-08
2.25368e-05
2.41722e-08
2.25228e-05
2.39369e-08
2.25088e-05
2.37129e-08
2.2495e-05
2.34884e-08
2.24813e-05
2.32656e-08
2.24677e-05
2.30464e-08
2.24542e-05
2.28355e-08
2.24408e-05
2.2631e-08
2.24275e-05
2.24367e-08
2.24143e-05
2.22451e-08
2.24011e-05
2.2052e-08
2.23881e-05
2.18493e-08
2.23751e-05
2.16326e-08
2.23623e-05
2.14012e-08
2.23496e-05
2.11555e-08
2.2337e-05
2.09025e-08
2.23245e-05
2.06491e-08
2.23122e-05
2.03984e-08
2.23e-05
2.01532e-08
2.22879e-05
1.9912e-08
2.22759e-05
1.96716e-08
2.2264e-05
1.94305e-08
2.22523e-05
1.91846e-08
2.22407e-05
1.89375e-08
2.22292e-05
1.86874e-08
2.22178e-05
1.8438e-08
2.22066e-05
1.81923e-08
2.21955e-05
1.79531e-08
2.21845e-05
1.77284e-08
2.21737e-05
1.7535e-08
2.21629e-05
1.73794e-08
2.21523e-05
1.72435e-08
2.21419e-05
1.71169e-08
2.21316e-05
1.69925e-08
2.21214e-05
1.68663e-08
2.21113e-05
1.67377e-08
2.21013e-05
1.66076e-08
2.20915e-05
1.64782e-08
2.20817e-05
1.63498e-08
2.20721e-05
1.62243e-08
2.20626e-05
1.61032e-08
2.20531e-05
1.59907e-08
2.20438e-05
1.58878e-08
2.20345e-05
1.57957e-08
2.20253e-05
1.57123e-08
2.20162e-05
1.56358e-08
2.20071e-05
1.55646e-08
2.1998e-05
1.54994e-08
2.1989e-05
1.54419e-08
2.19801e-05
1.53931e-08
2.19712e-05
1.53521e-08
2.19624e-05
1.53149e-08
2.19535e-05
1.52798e-08
2.19448e-05
1.5244e-08
2.1936e-05
1.52065e-08
2.19273e-05
1.51663e-08
2.19186e-05
1.5122e-08
2.191e-05
1.50725e-08
2.19013e-05
1.50154e-08
2.18928e-05
1.49502e-08
2.18842e-05
1.48765e-08
2.18758e-05
1.47968e-08
2.18673e-05
1.4712e-08
2.1859e-05
1.46219e-08
2.18506e-05
1.45221e-08
2.18424e-05
1.44097e-08
2.18342e-05
1.42802e-08
2.18261e-05
1.41344e-08
2.18181e-05
1.39725e-08
2.18101e-05
1.37996e-08
2.18023e-05
1.36199e-08
2.17946e-05
1.34374e-08
2.1787e-05
1.32552e-08
2.17795e-05
1.30746e-08
2.17721e-05
1.28971e-08
2.17648e-05
1.27256e-08
2.17576e-05
1.25612e-08
2.17504e-05
1.2404e-08
2.17433e-05
1.22524e-08
2.17364e-05
1.20999e-08
2.17295e-05
1.19443e-08
2.17226e-05
1.17879e-08
2.17159e-05
1.16329e-08
2.17093e-05
1.1479e-08
2.17027e-05
1.13294e-08
2.16963e-05
1.11877e-08
2.16899e-05
1.10581e-08
2.16836e-05
1.09409e-08
2.16773e-05
1.08371e-08
2.16711e-05
1.07434e-08
2.16649e-05
1.06557e-08
2.16588e-05
1.05662e-08
2.16527e-05
1.04677e-08
2.16467e-05
1.03542e-08
2.16408e-05
1.02216e-08
2.16349e-05
1.00682e-08
2.16291e-05
9.89423e-09
2.16235e-05
9.70411e-09
2.16179e-05
9.50202e-09
2.16124e-05
9.29562e-09
2.16071e-05
9.08977e-09
2.16018e-05
8.89168e-09
2.15967e-05
8.70184e-09
2.15916e-05
8.52113e-09
2.15866e-05
8.34259e-09
2.15817e-05
8.15843e-09
2.15769e-05
7.96362e-09
2.15722e-05
7.75972e-09
2.15676e-05
7.55561e-09
2.15631e-05
7.36089e-09
2.15587e-05
7.1888e-09
2.15544e-05
7.04901e-09
2.15502e-05
6.95007e-09
2.1546e-05
6.89304e-09
2.15418e-05
6.87255e-09
2.15376e-05
6.88636e-09
2.15333e-05
6.92515e-09
2.15291e-05
6.98754e-09
2.15248e-05
7.05967e-09
2.15204e-05
7.14193e-09
2.15161e-05
7.22238e-09
2.15117e-05
7.30648e-09
2.15072e-05
7.38583e-09
2.15027e-05
7.47122e-09
2.14982e-05
7.55824e-09
2.14937e-05
7.65496e-09
2.14891e-05
7.7535e-09
2.14844e-05
7.85112e-09
2.14797e-05
7.93644e-09
2.14749e-05
8.00719e-09
2.14701e-05
8.05944e-09
2.14653e-05
8.09213e-09
2.14605e-05
8.09894e-09
2.14557e-05
8.08426e-09
2.1451e-05
8.04771e-09
2.14462e-05
8.00343e-09
2.14415e-05
7.95981e-09
2.14368e-05
7.93176e-09
2.14321e-05
7.92937e-09
2.14275e-05
7.96038e-09
2.14227e-05
8.02433e-09
2.1418e-05
8.11802e-09
2.14132e-05
8.23746e-09
2.14084e-05
8.37974e-09
2.14034e-05
8.54401e-09
2.13985e-05
8.73262e-09
2.13934e-05
8.94898e-09
2.13882e-05
9.19595e-09
2.13828e-05
9.47369e-09
2.13774e-05
9.77656e-09
2.13718e-05
1.01011e-08
2.1366e-05
1.04411e-08
2.136e-05
1.07955e-08
2.13539e-05
1.11561e-08
2.13476e-05
1.15193e-08
2.13411e-05
1.18773e-08
2.13345e-05
1.2228e-08
2.13277e-05
1.25663e-08
2.13207e-05
1.28893e-08
2.13136e-05
1.31934e-08
2.13063e-05
1.34755e-08
2.1299e-05
1.37391e-08
2.12915e-05
1.39888e-08
2.12839e-05
1.42329e-08
2.12761e-05
1.4477e-08
2.12683e-05
1.47173e-08
2.12603e-05
1.49522e-08
2.12523e-05
1.51737e-08
2.12441e-05
1.53815e-08
2.12358e-05
1.55713e-08
2.12275e-05
1.57468e-08
2.12191e-05
1.59062e-08
2.12106e-05
1.60529e-08
2.1202e-05
1.61856e-08
2.11934e-05
1.63074e-08
2.11847e-05
1.64164e-08
2.1176e-05
1.65126e-08
2.11672e-05
1.65961e-08
2.11584e-05
1.66653e-08
2.11496e-05
1.67236e-08
2.11408e-05
1.67707e-08
2.11319e-05
1.68049e-08
2.1123e-05
1.68197e-08
2.11142e-05
1.68073e-08
2.11053e-05
1.67629e-08
2.10965e-05
1.66876e-08
2.10877e-05
1.65874e-08
2.1079e-05
1.64633e-08
2.10704e-05
1.63127e-08
2.10619e-05
1.61331e-08
2.10534e-05
1.59233e-08
2.10451e-05
1.56819e-08
2.10369e-05
1.54124e-08
2.10289e-05
1.51147e-08
2.1021e-05
1.47926e-08
2.10133e-05
1.44515e-08
2.10058e-05
1.40988e-08
2.09984e-05
1.37411e-08
2.09913e-05
1.33801e-08
2.09843e-05
1.30227e-08
2.09775e-05
1.26698e-08
2.09709e-05
1.23274e-08
2.09645e-05
1.19917e-08
2.09582e-05
1.16647e-08
2.0952e-05
1.13468e-08
2.09461e-05
1.10481e-08
2.09402e-05
1.07732e-08
2.09345e-05
1.05265e-08
2.09289e-05
1.03063e-08
2.09233e-05
1.01127e-08
2.09179e-05
9.94466e-09
2.09125e-05
9.8087e-09
2.09072e-05
9.71156e-09
2.09019e-05
9.65412e-09
2.08967e-05
9.63792e-09
2.08914e-05
9.65776e-09
2.08861e-05
9.70863e-09
2.08807e-05
9.78293e-09
2.08753e-05
9.87515e-09
2.08699e-05
9.97998e-09
2.08644e-05
1.00935e-08
2.08588e-05
1.02164e-08
2.08532e-05
1.03442e-08
2.08475e-05
1.04754e-08
2.08418e-05
1.06017e-08
2.0836e-05
1.07214e-08
2.08301e-05
1.08299e-08
2.08242e-05
1.09323e-08
2.08183e-05
1.10263e-08
2.08123e-05
1.11166e-08
2.08062e-05
1.11961e-08
2.08001e-05
1.1271e-08
2.0794e-05
1.1338e-08
2.07878e-05
1.14054e-08
2.07816e-05
1.14686e-08
2.07754e-05
1.15337e-08
2.07691e-05
1.1596e-08
2.07629e-05
1.16619e-08
2.07565e-05
1.17298e-08
2.07501e-05
1.17979e-08
2.07437e-05
1.18621e-08
2.07373e-05
1.19172e-08
2.07308e-05
1.19637e-08
2.07243e-05
1.19986e-08
2.07178e-05
1.20239e-08
2.07112e-05
1.20345e-08
2.07047e-05
1.20346e-08
2.06981e-05
1.20303e-08
2.06916e-05
1.20302e-08
2.0685e-05
1.20447e-08
2.06785e-05
1.20787e-08
2.06719e-05
1.21344e-08
2.06652e-05
1.22102e-08
2.06585e-05
1.23058e-08
2.06518e-05
1.24099e-08
2.0645e-05
1.25205e-08
2.06381e-05
1.26219e-08
2.06312e-05
1.27194e-08
2.06242e-05
1.28094e-08
2.06172e-05
1.29045e-08
2.06101e-05
1.2995e-08
2.0603e-05
1.30858e-08
2.05959e-05
1.31702e-08
2.05887e-05
1.32507e-08
2.05814e-05
1.33123e-08
2.05742e-05
1.33504e-08
2.05669e-05
1.33505e-08
2.05596e-05
1.33117e-08
2.05524e-05
1.32392e-08
2.05453e-05
1.3147e-08
2.05381e-05
1.30471e-08
2.05311e-05
1.29503e-08
2.05241e-05
1.28609e-08
2.05171e-05
1.27812e-08
2.05102e-05
1.2712e-08
2.05033e-05
1.26625e-08
2.04964e-05
1.26344e-08
2.04895e-05
1.26367e-08
2.04826e-05
1.26683e-08
2.04757e-05
1.27454e-08
2.04687e-05
1.28584e-08
2.04616e-05
1.30141e-08
2.04545e-05
1.31864e-08
2.04473e-05
1.33768e-08
2.04399e-05
1.35629e-08
2.04325e-05
1.37638e-08
2.04251e-05
1.39573e-08
2.04175e-05
1.41606e-08
2.04098e-05
1.43499e-08
2.0402e-05
1.45466e-08
2.03942e-05
1.47214e-08
2.03862e-05
1.48869e-08
2.03782e-05
1.50054e-08
2.03702e-05
1.50936e-08
2.03621e-05
1.51257e-08
2.03541e-05
1.51503e-08
2.0346e-05
1.51565e-08
2.03379e-05
1.52005e-08
2.03298e-05
1.52489e-08
2.03217e-05
1.53477e-08
2.03136e-05
1.54373e-08
2.03053e-05
1.55558e-08
2.02971e-05
1.5635e-08
2.02888e-05
1.57324e-08
2.02805e-05
1.57966e-08
2.02721e-05
1.59017e-08
2.02638e-05
1.59849e-08
2.02553e-05
1.6121e-08
2.02468e-05
1.62108e-08
2.02382e-05
1.63222e-08
2.02296e-05
1.63293e-08
2.0221e-05
1.63285e-08
2.02125e-05
1.62169e-08
2.02039e-05
1.6136e-08
2.01955e-05
1.59948e-08
2.01871e-05
1.59158e-08
2.01788e-05
1.57957e-08
2.01704e-05
1.57347e-08
2.01622e-05
1.56406e-08
2.01539e-05
1.5588e-08
2.01458e-05
1.55141e-08
2.01376e-05
1.5465e-08
2.01294e-05
1.54489e-08
2.01213e-05
1.54813e-08
2.01131e-05
1.56434e-08
2.01047e-05
1.58366e-08
2.00962e-05
1.62579e-08
2.00875e-05
1.66039e-08
2.00784e-05
1.73334e-08
2.00691e-05
1.79174e-08
2.00592e-05
1.91011e-08
2.00488e-05
2.02747e-08
2.00375e-05
2.239e-08
2.00249e-05
2.51392e-08
2.00105e-05
2.94246e-08
1.99931e-05
3.57496e-08
1.99718e-05
4.53268e-08
1.99442e-05
5.85496e-08
1.99082e-05
7.90203e-08
1.98587e-05
1.07164e-07
1.97912e-05
1.50277e-07
1.96951e-05
2.10333e-07
1.9561e-05
3.01813e-07
1.9366e-05
4.29339e-07
1.90905e-05
6.25225e-07
1.8686e-05
8.91985e-07
1.81186e-05
1.2875e-06
1.72844e-05
1.83656e-06
1.61125e-05
2.54025e-06
1.43265e-05
3.57117e-06
1.19342e-05
4.69517e-06
8.45192e-06
7.12859e-06
4.10165e-06
7.62903e-06
5.17022e-07
5.39387e-06
-1.37578e-06
3.29628e-06
-3.69996e-06
3.778e-05
1.05882e-06
3.74789e-05
1.21317e-06
3.70274e-05
1.632e-06
3.66008e-05
1.58379e-06
3.6188e-05
1.58231e-06
3.58348e-05
1.43089e-06
3.55328e-05
1.337e-06
3.52849e-05
1.21239e-06
3.50754e-05
1.10806e-06
3.48991e-05
9.98109e-07
3.4752e-05
9.27383e-07
3.46258e-05
8.68642e-07
3.45056e-05
8.3441e-07
3.4397e-05
7.99443e-07
3.43067e-05
7.62971e-07
3.42286e-05
7.33005e-07
3.41536e-05
7.16934e-07
3.40798e-05
7.03969e-07
3.40065e-05
6.87754e-07
3.39329e-05
6.70941e-07
3.38578e-05
6.55358e-07
3.37806e-05
6.41016e-07
3.37009e-05
6.27058e-07
3.36183e-05
6.1246e-07
3.35322e-05
5.97461e-07
3.34423e-05
5.82538e-07
3.33482e-05
5.68028e-07
3.32482e-05
5.55231e-07
3.3142e-05
5.42911e-07
3.30318e-05
5.29555e-07
3.29185e-05
5.15834e-07
3.28025e-05
5.01947e-07
3.2684e-05
4.88117e-07
3.25631e-05
4.74957e-07
3.24398e-05
4.62597e-07
3.23146e-05
4.5035e-07
3.21878e-05
4.37842e-07
3.20599e-05
4.25458e-07
3.19312e-05
4.13203e-07
3.1802e-05
4.01178e-07
3.1673e-05
3.88839e-07
3.15444e-05
3.76521e-07
3.14165e-05
3.64765e-07
3.12894e-05
3.53308e-07
3.11636e-05
3.42053e-07
3.10392e-05
3.30967e-07
3.09167e-05
3.20282e-07
3.07962e-05
3.09836e-07
3.06779e-05
2.99787e-07
3.05619e-05
2.89936e-07
3.04482e-05
2.80352e-07
3.03368e-05
2.71152e-07
3.02278e-05
2.62271e-07
3.01212e-05
2.53754e-07
3.00169e-05
2.45658e-07
2.99149e-05
2.37859e-07
2.98154e-05
2.30195e-07
2.97182e-05
2.22802e-07
2.96233e-05
2.15931e-07
2.95306e-05
2.0936e-07
2.94401e-05
2.03033e-07
2.93513e-05
1.97173e-07
2.92643e-05
1.91468e-07
2.91792e-05
1.85873e-07
2.90959e-05
1.8036e-07
2.90146e-05
1.74971e-07
2.89353e-05
1.69691e-07
2.8858e-05
1.64517e-07
2.87827e-05
1.59491e-07
2.87094e-05
1.54654e-07
2.86381e-05
1.50055e-07
2.85686e-05
1.45829e-07
2.85009e-05
1.42077e-07
2.84347e-05
1.38664e-07
2.837e-05
1.35387e-07
2.83069e-05
1.32165e-07
2.82452e-05
1.28971e-07
2.81851e-05
1.25749e-07
2.81266e-05
1.22327e-07
2.80697e-05
1.18654e-07
2.80145e-05
1.15228e-07
2.79608e-05
1.12132e-07
2.79085e-05
1.09175e-07
2.78576e-05
1.06396e-07
2.7808e-05
1.0378e-07
2.77596e-05
1.01288e-07
2.77124e-05
9.89092e-08
2.76663e-05
9.65849e-08
2.76212e-05
9.4324e-08
2.75772e-05
9.21044e-08
2.75341e-05
8.99751e-08
2.7492e-05
8.81403e-08
2.74506e-05
8.67189e-08
2.74098e-05
8.52468e-08
2.73697e-05
8.37716e-08
2.73299e-05
8.25826e-08
2.72904e-05
8.16054e-08
2.72511e-05
8.0774e-08
2.72122e-05
8.00149e-08
2.71737e-05
7.88422e-08
2.71357e-05
7.76483e-08
2.7098e-05
7.71445e-08
2.70605e-05
7.67724e-08
2.70232e-05
7.65088e-08
2.6986e-05
7.63263e-08
2.6949e-05
7.62331e-08
2.69121e-05
7.61758e-08
2.68753e-05
7.61619e-08
2.68386e-05
7.61462e-08
2.6802e-05
7.61352e-08
2.67656e-05
7.60967e-08
2.67292e-05
7.60403e-08
2.66931e-05
7.59479e-08
2.66571e-05
7.58264e-08
2.66214e-05
7.56734e-08
2.65859e-05
7.53599e-08
2.65506e-05
7.52354e-08
2.65154e-05
7.55428e-08
2.64804e-05
7.54947e-08
2.64457e-05
7.5157e-08
2.64112e-05
7.50988e-08
2.63769e-05
7.50537e-08
2.63428e-05
7.5033e-08
2.63089e-05
7.50117e-08
2.62752e-05
7.49716e-08
2.62418e-05