/*--------------------------------*- C++ -*----------------------------------*\
| =========                 |                                                 |
| \\      /  F ield         | foam-extend: Open Source CFD                    |
|  \\    /   O peration     | Version:     3.2                                |
|   \\  /    A nd           | Web:         http://www.foam-extend.org         |
|    \\/     M anipulation  | For copyright notice see file Copyright         |
\*---------------------------------------------------------------------------*/
FoamFile
{
    version     2.0;
    format      ascii;
    class       volVectorField;
    location    "20";
    object      U;
}
// * * * * * * * * * * * * * * * * * * * * * * * * * * * * * * * * * * * * * //

dimensions      [0 1 -1 0 0 0 0];

internalField   nonuniform List<vector> 
33000
(
(0.376532 0 0.000577123)
(0.371124 0 0.000564066)
(0.364337 -3.35755e-30 0.000648627)
(0.357116 0 0.000670543)
(0.349985 4.71791e-29 0.000706978)
(0.342905 0 0.00068757)
(0.336276 -1.04207e-28 0.00066703)
(0.32989 1.3735e-28 0.000612582)
(0.323842 1.66898e-28 0.000603788)
(0.317963 -8.12463e-29 0.000592073)
(0.312352 8.99856e-29 0.000567679)
(0.306959 0 0.000529458)
(0.301812 -3.43016e-38 0.000493035)
(0.296879 8.51223e-29 0.000457624)
(0.292126 0 0.000416578)
(0.287543 8.79712e-29 0.000369288)
(0.283164 -9.37783e-29 0.000311951)
(0.278993 8.90405e-29 0.000252685)
(0.275004 5.80492e-29 0.000197376)
(0.27116 0 0.000144402)
(0.267469 2.40925e-29 9.93295e-05)
(0.263929 -1.9754e-29 5.91544e-05)
(0.260536 0 2.21062e-05)
(0.257297 1.99694e-29 -1.31781e-05)
(0.25422 0 -4.76035e-05)
(0.251308 0 -8.13666e-05)
(0.248563 2.75758e-29 -0.000113537)
(0.245977 0 -0.000137533)
(0.243528 0 -0.00015255)
(0.241208 0 -0.000165763)
(0.239009 -1.77952e-29 -0.000178537)
(0.236925 1.79993e-29 -0.000190215)
(0.234955 -1.75568e-29 -0.000200842)
(0.233092 -1.72396e-29 -0.000210893)
(0.231329 1.76846e-29 -0.000220372)
(0.229662 -1.82033e-29 -0.000229477)
(0.228087 0 -0.000238203)
(0.226601 0 -0.000246611)
(0.225199 0 -0.00025487)
(0.223878 1.96209e-29 -0.000262702)
(0.222634 -2.00788e-29 -0.000270597)
(0.221461 0 -0.000278992)
(0.220356 0 -0.000287182)
(0.219315 0 -0.000294964)
(0.218332 -2.14322e-29 -0.000302271)
(0.217406 0 -0.000309908)
(0.216533 0 -0.000318419)
(0.215711 -2.36939e-29 -0.000326699)
(0.214937 2.39444e-29 -0.000334552)
(0.214207 -2.4079e-29 -0.000341891)
(0.21352 0 -0.000348694)
(0.212871 0 -0.000355033)
(0.212259 -2.42069e-29 -0.000360829)
(0.211682 2.40448e-29 -0.000365947)
(0.211135 -2.3763e-29 -0.000370375)
(0.210616 -2.36529e-29 -0.00037441)
(0.210125 -2.34071e-29 -0.00037794)
(0.209658 0 -0.000380644)
(0.209214 0 -0.000382763)
(0.208791 0 -0.000384692)
(0.208389 -2.18177e-29 -0.000386276)
(0.208005 -2.12066e-29 -0.000387224)
(0.207639 0 -0.000387819)
(0.207291 0 -0.000388218)
(0.20696 0 -0.000388465)
(0.206643 -1.96943e-29 -0.000388598)
(0.206341 1.93817e-29 -0.000388674)
(0.206051 0 -0.000388718)
(0.205774 0 -0.000388766)
(0.205509 0 -0.000388896)
(0.205254 0 -0.000389131)
(0.205009 0 -0.000389327)
(0.204771 1.6949e-29 -0.000389462)
(0.204541 0 -0.000389606)
(0.204316 -1.63589e-29 -0.00038979)
(0.204097 -1.61012e-29 -0.00039)
(0.203884 1.58423e-29 -0.000390224)
(0.203676 0 -0.00039053)
(0.203474 -1.54036e-29 -0.000390933)
(0.203278 1.49894e-29 -0.000391268)
(0.203088 1.44905e-29 -0.0003914)
(0.202903 0 -0.000391487)
(0.202723 0 -0.000391526)
(0.202546 0 -0.000391517)
(0.202373 -2.64543e-29 -0.000391491)
(0.202203 0 -0.000391433)
(0.202036 0 -0.000391357)
(0.201873 0 -0.00039125)
(0.201712 -1.20579e-29 -0.000391129)
(0.201555 -1.17258e-29 -0.000390961)
(0.201401 1.13818e-29 -0.00039073)
(0.201249 -1.09779e-29 -0.000390313)
(0.201098 2.1671e-46 -0.000389716)
(0.200948 -1.02958e-29 -0.00038915)
(0.2008 2.0101e-46 -0.000388673)
(0.200654 9.51275e-30 -0.000388018)
(0.200511 0 -0.000387474)
(0.20037 0 -0.000387325)
(0.200232 -1.85094e-29 -0.000387275)
(0.200097 -9.24364e-30 -0.000387447)
(0.199966 0 -0.000387562)
(0.199836 8.86059e-30 -0.000387405)
(0.199707 -8.73523e-30 -0.000387135)
(0.199578 0 -0.000386766)
(0.199449 -8.59228e-30 -0.000386385)
(0.19932 0 -0.000385987)
(0.19919 -1.71607e-29 -0.000385585)
(0.19906 1.71753e-29 -0.00038517)
(0.198929 -8.60491e-30 -0.00038475)
(0.198797 0 -0.000384311)
(0.198664 -8.63301e-30 -0.000383867)
(0.19853 -1.72971e-29 -0.000383408)
(0.198395 1.73126e-29 -0.000382935)
(0.19826 8.65083e-30 -0.000382434)
(0.198123 -1.73971e-29 -0.000381978)
(0.197986 -8.60503e-30 -0.000381441)
(0.197848 -1.68547e-29 -0.000380672)
(0.197707 8.56368e-30 -0.000379965)
(0.197564 -8.72118e-30 -0.000379441)
(0.197421 -8.59682e-30 -0.000378813)
(0.197276 -8.55278e-30 -0.000378118)
(0.19713 1.71166e-29 -0.000377429)
(0.196981 -1.70918e-29 -0.000376717)
(0.196831 8.54707e-30 -0.000376006)
(0.196679 -5.631e-40 -0.000375286)
(0.196525 -8.52504e-30 -0.000374571)
(0.196369 -8.50887e-30 -0.000373858)
(0.196212 -1.6983e-29 -0.000373151)
(0.196053 -8.47293e-30 -0.000372454)
(0.195893 7.26411e-40 -0.000371769)
(0.195731 -8.43393e-30 -0.000371097)
(0.195568 7.92907e-40 -0.000370441)
(0.195403 -1.67727e-29 -0.000369799)
(0.195238 -8.35772e-30 -0.000369174)
(0.195071 8.32705e-30 -0.000368566)
(0.194903 -1.65856e-29 -0.000367974)
(0.194735 -2.47655e-29 -0.0003674)
(0.194566 0 -0.000366844)
(0.194396 -2.45062e-29 -0.000366306)
(0.194225 -1.62413e-29 -0.000365785)
(0.194055 8.06966e-30 -0.000365282)
(0.193883 -8.01548e-30 -0.000364793)
(0.193712 1.09094e-39 -0.000364319)
(0.19354 -1.57906e-29 -0.000363855)
(0.193369 -7.83105e-30 -0.000363402)
(0.193197 1.12316e-39 -0.000362959)
(0.193025 -7.70201e-30 -0.000362526)
(0.192852 -1.52766e-29 -0.000362106)
(0.19268 -7.57418e-30 -0.000361702)
(0.192508 -7.51031e-30 -0.000361315)
(0.192336 1.48917e-29 -0.000360947)
(0.192165 7.37751e-30 -0.000360596)
(0.191994 -1.46127e-29 -0.000360264)
(0.191823 -1.00298e-39 -0.000359948)
(0.191653 -7.17078e-30 -0.000359643)
(0.191483 -7.10783e-30 -0.000359345)
(0.191314 -7.0513e-30 -0.000359053)
(0.191145 7.00148e-30 -0.000358767)
(0.190977 -1.39197e-29 -0.000358487)
(0.19081 6.92667e-30 -0.000358214)
(0.190643 -6.90315e-30 -0.00035795)
(0.190477 6.88896e-30 -0.000357699)
(0.190312 1.37631e-29 -0.000357464)
(0.190147 -1.37579e-29 -0.000357249)
(0.189984 -6.87568e-30 -0.000357053)
(0.189821 -6.87305e-30 -0.000356879)
(0.18966 -2.58403e-46 -0.000356726)
(0.1895 1.37467e-29 -0.000356596)
(0.189342 -6.87794e-30 -0.000356491)
(0.189185 -2.46481e-46 -0.000356411)
(0.189029 -6.89189e-30 -0.000356358)
(0.188876 -2.63266e-46 -0.000356332)
(0.188725 0 -0.000356334)
(0.188575 0 -0.000356366)
(0.188428 6.85771e-30 -0.000356428)
(0.188283 -6.82281e-30 -0.000356518)
(0.188141 6.77689e-30 -0.000356636)
(0.188001 6.71871e-30 -0.000356776)
(0.187864 1.3298e-29 -0.000356936)
(0.18773 -6.56887e-30 -0.000357111)
(0.187599 -5.02349e-46 -0.000357296)
(0.18747 -6.3799e-30 -0.000357488)
(0.187344 -5.66306e-46 -0.000357682)
(0.187221 -6.16195e-30 -0.000357875)
(0.187101 1.20883e-29 -0.000358063)
(0.186983 0 -0.000358242)
(0.186867 5.79374e-30 -0.000358411)
(0.186754 -5.66287e-30 -0.000358566)
(0.186643 -7.02175e-46 -0.00035871)
(0.186534 1.08367e-29 -0.00035884)
(0.186427 -5.31111e-30 -0.000358959)
(0.186322 0 -0.000359062)
(0.186218 0 -0.000359147)
(0.186116 0 -0.000359212)
(0.186015 -4.97819e-30 -0.000359261)
(0.185916 2.4019e-45 -0.000359292)
(0.185817 2.28797e-45 -0.000359316)
(0.18572 9.64617e-30 -0.000359336)
(0.185624 -4.78749e-30 -0.000359356)
(0.185529 -4.76149e-30 -0.000359381)
(0.185435 4.74524e-30 -0.000359407)
(0.185342 -4.73885e-30 -0.000359437)
(0.18525 -4.73996e-30 -0.000359466)
(0.18516 4.74837e-30 -0.000359493)
(0.18507 -4.76063e-30 -0.00035952)
(0.184982 4.77605e-30 -0.000359547)
(0.184894 4.79093e-30 -0.000359575)
(0.184808 -4.80393e-30 -0.000359605)
(0.184723 -4.81582e-30 -0.00035964)
(0.184639 0 -0.000359676)
(0.184557 0 -0.000359715)
(0.184475 0 -0.000359757)
(0.184395 4.83126e-30 -0.000359796)
(0.184316 7.8807e-46 -0.000359836)
(0.184239 9.63743e-30 -0.000359875)
(0.184163 4.80683e-30 -0.000359916)
(0.184088 0 -0.000359957)
(0.184014 4.76469e-30 -0.000359998)
(0.183941 4.73423e-30 -0.000360035)
(0.18387 0 -0.000360067)
(0.1838 0 -0.000360091)
(0.183731 -4.60508e-30 -0.000360103)
(0.183663 4.55723e-30 -0.000360108)
(0.183596 0 -0.000360023)
(0.183529 0 -0.000359785)
(0.183462 0 -0.000359485)
(0.183396 -4.06748e-30 -0.0003592)
(0.183329 0 -0.00035893)
(0.183263 0 -0.000358676)
(0.183196 0 -0.000358437)
(0.183129 0 -0.000358211)
(0.183063 0 -0.000357997)
(0.182997 0 -0.000357797)
(0.182931 0 -0.000357608)
(0.182865 3.57914e-30 -0.000357433)
(0.182799 -3.5271e-30 -0.000357268)
(0.182734 0 -0.000357112)
(0.182669 0 -0.000356962)
(0.182603 3.39342e-30 -0.000356816)
(0.182538 3.35051e-30 -0.000356671)
(0.182474 -3.30751e-30 -0.000356524)
(0.182409 0 -0.000356373)
(0.182344 0 -0.000356217)
(0.18228 -3.18809e-30 -0.000356056)
(0.182215 3.15603e-30 -0.00035589)
(0.182151 0 -0.000355725)
(0.182086 0 -0.000355563)
(0.182022 0 -0.000355408)
(0.181957 0 -0.000355261)
(0.181892 0 -0.000355125)
(0.181828 0 -0.000354998)
(0.181764 0 -0.00035488)
(0.181699 0 -0.000354768)
(0.181636 0 -0.000354661)
(0.181572 0 -0.000354559)
(0.181509 0 -0.000354464)
(0.181446 0 -0.000354379)
(0.181383 0 -0.000354306)
(0.181321 0 -0.000354243)
(0.181259 0 -0.000354188)
(0.181198 -3.05485e-30 -0.00035414)
(0.181137 0 -0.000354096)
(0.181077 0 -0.000354058)
(0.181018 3.0114e-30 -0.000354024)
(0.180959 0 -0.000353997)
(0.180902 0 -0.000353975)
(0.180845 0 -0.00035396)
(0.180789 0 -0.00035395)
(0.180734 0 -0.000353946)
(0.180679 0 -0.000353943)
(0.180625 0 -0.000353941)
(0.180572 0 -0.000353938)
(0.18052 0 -0.000353936)
(0.180469 0 -0.000353932)
(0.180418 0 -0.000353924)
(0.180368 0 -0.000353918)
(0.180318 2.46791e-30 -0.000353903)
(0.18027 0 -0.000353888)
(0.180222 0 -0.000353872)
(0.180174 0 -0.000353855)
(0.180127 0 -0.000353833)
(0.180081 0 -0.000353809)
(0.180035 0 -0.000353782)
(0.179989 0 -0.000353757)
(0.179944 2.14987e-30 -0.000353735)
(0.179899 0 -0.000353718)
(0.179855 0 -0.00035371)
(0.179811 0 -0.000353711)
(0.179768 0 -0.000353723)
(0.179726 0 -0.000353747)
(0.179684 2.09225e-30 -0.000353781)
(0.179644 0 -0.000353825)
(0.179604 0 -0.000353879)
(0.179565 0 -0.000353942)
(0.179527 0 -0.000354013)
(0.17949 2.02219e-30 -0.00035409)
(0.179454 -2.00589e-30 -0.000354173)
(0.179419 0 -0.000354261)
(0.179385 0 -0.000354351)
(0.179352 0 -0.000354441)
(0.17932 -1.88008e-30 -0.000354528)
(0.179289 1.82416e-30 -0.000354611)
(0.179259 0 -0.000354683)
(0.17923 1.6896e-30 -0.000354743)
(0.179201 0 -0.000354786)
(0.179174 0 -0.000354808)
(0.179146 0 -0.000354813)
(0.17912 0 -0.000354798)
(0.179093 -1.41303e-30 -0.000354762)
(0.179066 1.37746e-30 -0.000354704)
(0.179039 0 -0.000354625)
(0.179012 0 -0.000354525)
(0.178985 0 -0.00035441)
(0.178957 0 -0.00035428)
(0.178929 1.27495e-30 -0.000354144)
(0.1789 -1.27183e-30 -0.000354)
(0.178871 0 -0.000353855)
(0.178841 -1.29247e-30 -0.000353708)
(0.178811 0 -0.000353565)
(0.17878 0 -0.000353426)
(0.178749 1.38814e-30 -0.000353295)
(0.178717 0 -0.000353173)
(0.178685 0 -0.000353061)
(0.178653 0 -0.000352958)
(0.17862 0 -0.000352862)
(0.178587 0 -0.000352776)
(0.178554 0 -0.000352702)
(0.178522 0 -0.000352638)
(0.178489 1.57983e-30 -0.000352582)
(0.178456 -1.56353e-30 -0.000352527)
(0.178424 0 -0.000352468)
(0.178391 1.50696e-30 -0.000352398)
(0.178359 0 -0.000352308)
(0.178326 0 -0.000352193)
(0.178293 0 -0.000352052)
(0.17826 0 -0.000351883)
(0.178226 0 -0.000351689)
(0.178191 0 -0.00035147)
(0.178155 0 -0.000351229)
(0.178118 1.23475e-30 -0.000350967)
(0.17808 0 -0.000350684)
(0.178041 0 -0.000350381)
(0.178 0 -0.000350057)
(0.177958 0 -0.000349716)
(0.177914 0 -0.00034936)
(0.177868 1.24607e-30 -0.000348987)
(0.177821 0 -0.000348599)
(0.177772 0 -0.0003482)
(0.17772 0 -0.000347795)
(0.177667 0 -0.000347393)
(0.177612 1.50237e-30 -0.000346998)
(0.177555 -1.58045e-30 -0.000346613)
(0.177497 0 -0.000346238)
(0.177437 0 -0.000345874)
(0.177375 0 -0.000345519)
(0.177312 -1.91143e-30 -0.000345173)
(0.177248 1.98771e-30 -0.000344832)
(0.177183 0 -0.000344495)
(0.177116 2.13945e-30 -0.00034416)
(0.177048 0 -0.000343829)
(0.176978 0 -0.000343504)
(0.176908 0 -0.000343188)
(0.176836 0 -0.00034288)
(0.176764 -2.50826e-30 -0.000342583)
(0.17669 2.57527e-30 -0.000342295)
(0.176616 0 -0.000342018)
(0.17654 0 -0.00034175)
(0.176464 0 -0.000341493)
(0.176388 -2.80981e-30 -0.000341246)
(0.176311 2.86541e-30 -0.000341008)
(0.176233 0 -0.000340778)
(0.176155 0 -0.000340556)
(0.176076 -3.03042e-30 -0.000340346)
(0.175997 0 -0.000340147)
(0.175918 0 -0.000339959)
(0.175839 3.20622e-30 -0.000339784)
(0.175759 0 -0.000339625)
(0.17568 0 -0.000339482)
(0.175601 0 -0.00033936)
(0.175522 0 -0.000339263)
(0.175443 0 -0.000339188)
(0.175365 0 -0.000339133)
(0.175288 0 -0.0003391)
(0.175212 3.60167e-30 -0.00033909)
(0.175136 -3.62449e-30 -0.000339103)
(0.175062 0 -0.000339139)
(0.174989 3.63526e-30 -0.0003392)
(0.174917 0 -0.00033928)
(0.174847 0 -0.000339379)
(0.174779 0 -0.00033949)
(0.174712 0 -0.000339611)
(0.174647 0 -0.000339738)
(0.174584 -3.40637e-30 -0.000339872)
(0.174523 0 -0.000340013)
(0.174463 3.25782e-30 -0.00034016)
(0.174405 0 -0.000340313)
(0.174349 0 -0.00034047)
(0.174294 0 -0.000340627)
(0.174241 0 -0.000340779)
(0.17419 0 -0.000340919)
(0.17414 2.59413e-30 -0.000341042)
(0.174092 -2.45896e-30 -0.000341146)
(0.174044 0 -0.000341232)
(0.173998 0 -0.000341301)
(0.173952 0 -0.000341349)
(0.173908 1.93131e-30 -0.000341371)
(0.173864 0 -0.000341365)
(0.17382 0 -0.00034133)
(0.173776 0 -0.000341268)
(0.173733 0 -0.000341177)
(0.173689 -1.44178e-30 -0.000341062)
(0.173645 1.38425e-30 -0.000340922)
(0.1736 0 -0.000340762)
(0.173555 9.15978e-45 -0.000340587)
(0.173509 0 -0.000340401)
(0.173463 0 -0.000340206)
(0.173416 0 -0.000340005)
(0.173369 0 -0.000339803)
(0.17332 0 -0.000339604)
(0.173271 7.23748e-45 -0.000339409)
(0.173222 0 -0.000339221)
(0.173172 0 -0.00033904)
(0.173121 0 -0.000338867)
(0.17307 0 -0.000338704)
(0.173019 -2.57157e-47 -0.000338552)
(0.172967 0 -0.000338402)
(0.172915 0 -0.000338251)
(0.172863 -1.61618e-30 -0.000338095)
(0.172811 0 -0.000337934)
(0.172758 0 -0.00033777)
(0.172705 3.93056e-45 -0.000337605)
(0.172651 0 -0.000337443)
(0.172597 0 -0.000337287)
(0.172543 0 -0.000337139)
(0.172489 0 -0.000337003)
(0.172434 -1.86739e-30 -0.000336875)
(0.172379 0 -0.000336754)
(0.172325 0 -0.000336639)
(0.17227 4.39994e-45 -0.000336527)
(0.172215 0 -0.000336419)
(0.17216 0 -0.000336312)
(0.172105 0 -0.000336202)
(0.17205 0 -0.000336086)
(0.171995 0 -0.000335959)
(0.17194 0 -0.000335821)
(0.171885 0 -0.000335671)
(0.171829 0 -0.000335511)
(0.171774 0 -0.000335339)
(0.171717 0 -0.000335161)
(0.17166 0 -0.000334977)
(0.171603 0 -0.000334792)
(0.171545 0 -0.000334606)
(0.171487 -2.11192e-30 -0.000334422)
(0.171428 0 -0.000334236)
(0.171369 0 -0.000334051)
(0.17131 0 -0.000333867)
(0.17125 0 -0.000333691)
(0.171189 0 -0.000333522)
(0.171129 0 -0.000333371)
(0.171068 0 -0.00033324)
(0.171007 -2.3505e-30 -0.00033313)
(0.170946 0 -0.00033304)
(0.170886 0 -0.000332966)
(0.170826 -5.40348e-46 -0.000332901)
(0.170766 0 -0.000332836)
(0.170707 0 -0.000332775)
(0.170649 -2.3747e-30 -0.000332712)
(0.17059 0 -0.000332651)
(0.170532 0 -0.00033258)
(0.170475 0 -0.000332498)
(0.170417 0 -0.000332392)
(0.17036 0 -0.000332266)
(0.170302 0 -0.000332115)
(0.170244 0 -0.000331939)
(0.170186 1.61739e-48 -0.000331731)
(0.170127 0 -0.000331498)
(0.170067 0 -0.000331232)
(0.170006 3.86257e-48 -0.000330947)
(0.169944 0 -0.000330642)
(0.169881 -1.99525e-30 -0.000330338)
(0.169817 0 -0.00033003)
(0.169751 0 -0.000329737)
(0.169685 0 -0.000329445)
(0.169618 0 -0.000329179)
(0.169549 0 -0.000328914)
(0.16948 -2.31005e-30 -0.000328681)
(0.16941 0 -0.000328447)
(0.16934 0 -0.000328251)
(0.16927 -3.08349e-45 -0.000328048)
(0.169199 0 -0.000327878)
(0.169128 0 -0.000327677)
(0.169057 0 -0.000327493)
(0.168986 0 -0.000327259)
(0.168914 -2.63593e-30 -0.000327042)
(0.168841 0 -0.000326778)
(0.168768 0 -0.000326551)
(0.168694 2.71696e-30 -0.000326292)
(0.16862 0 -0.000326082)
(0.168545 0 -0.000325829)
(0.16847 0 -0.000325629)
(0.168395 0 -0.000325372)
(0.168319 0 -0.000325182)
(0.168242 0 -0.000324932)
(0.168165 0 -0.000324791)
(0.168087 -2.96778e-30 -0.000324595)
(0.16801 0 -0.00032454)
(0.167932 0 -0.000324403)
(0.167856 0 -0.000324403)
(0.16778 0 -0.00032427)
(0.167705 0 -0.000324275)
(0.16763 -2.91695e-30 -0.000324119)
(0.167556 0 -0.000324124)
(0.167481 -2.83423e-30 -0.000323954)
(0.167408 0 -0.000323961)
(0.167334 0 -0.000323755)
(0.167262 0 -0.000323729)
(0.167188 0 -0.000323438)
(0.167116 0 -0.000323343)
(0.167042 -2.49273e-30 -0.000322939)
(0.166968 0 -0.000322758)
(0.166891 0 -0.000322218)
(0.166814 0 -0.000321889)
(0.166732 0 -0.000321085)
(0.16665 0 -0.000320473)
(0.16656 0 -0.000319129)
(0.166466 0 -0.000317919)
(0.166361 0 -0.000315507)
(0.166247 0 -0.000312561)
(0.166107 0 -0.000307638)
(0.16595 1.7504e-47 -0.000301314)
(0.165734 0 -0.000290787)
(0.165478 0 -0.000278372)
(0.165101 6.58169e-47 -0.000257944)
(0.164636 0 -0.000233562)
(0.163923 0 -0.000191574)
(0.163014 0 -0.000139684)
(0.161589 0 -4.44895e-05)
(0.159725 3.12636e-29 7.00128e-05)
(0.156807 0 0.000275338)
(0.152851 0 0.000513992)
(0.146898 0 0.000930272)
(0.138633 0 0.00139614)
(0.126613 0 0.00194393)
(0.111464 6.47295e-29 0.00240842)
(0.0906141 0 0.00287544)
(0.0659088 3.61532e-28 0.0053173)
(0.0170064 0 0.00314351)
(0.00110529 0 0.00173901)
(-0.0200319 0 0.00176943)
(-0.0260504 0 -0.00447396)
(0.379148 0 0.00130223)
(0.37663 0 0.00131282)
(0.372692 -3.49042e-28 0.00185608)
(0.367559 0 0.00181479)
(0.363324 0 0.00188337)
(0.358833 0 0.00168945)
(0.355128 -3.05622e-28 0.00161493)
(0.351411 2.934e-28 0.00147523)
(0.34811 2.15001e-28 0.00137442)
(0.345457 -2.54837e-28 0.00125082)
(0.343087 1.59813e-28 0.00117518)
(0.34088 0 0.00109881)
(0.33876 -1.39415e-28 0.00102678)
(0.336682 9.65092e-29 0.00096923)
(0.334623 0 0.000934368)
(0.332569 0 0.000895959)
(0.330492 0 0.000858252)
(0.328284 -1.83921e-29 0.000825331)
(0.326053 0 0.000796413)
(0.323832 0 0.000772685)
(0.321638 -1.96144e-29 0.000744022)
(0.319459 0 0.000712099)
(0.317296 0 0.00067588)
(0.315143 0 0.000634275)
(0.313014 0 0.000588782)
(0.310904 0 0.000540906)
(0.30882 -5.64215e-29 0.000492421)
(0.306758 0 0.000441817)
(0.304749 0 0.000389749)
(0.302792 0 0.000341762)
(0.300883 -5.21803e-29 0.000296525)
(0.299023 5.39793e-29 0.000251631)
(0.297217 -5.44889e-29 0.000207956)
(0.295465 -5.3982e-29 0.000166964)
(0.293763 5.38628e-29 0.000128635)
(0.292109 -5.43023e-29 9.17194e-05)
(0.290503 0 5.60764e-05)
(0.288948 -5.41401e-29 2.21762e-05)
(0.28744 -5.36698e-29 -9.98857e-06)
(0.285981 -1.4695e-45 -4.03014e-05)
(0.284565 -5.12766e-29 -6.83931e-05)
(0.283202 0 -9.36533e-05)
(0.281883 -4.808e-29 -0.00011689)
(0.280612 0 -0.00013861)
(0.279382 -4.57224e-29 -0.000158919)
(0.278198 0 -0.000177275)
(0.27705 0 -0.000193217)
(0.275937 -4.07854e-29 -0.000208111)
(0.274858 3.97073e-29 -0.000221991)
(0.273811 -3.86448e-29 -0.000235071)
(0.272797 -3.7473e-29 -0.000247288)
(0.271814 0 -0.000258576)
(0.270862 -3.52716e-29 -0.000269278)
(0.269938 3.40563e-29 -0.000279143)
(0.269044 -3.29091e-29 -0.00028821)
(0.268176 0 -0.000296632)
(0.267336 -3.15149e-29 -0.000304932)
(0.266522 -3.09492e-29 -0.000313163)
(0.265733 0 -0.000320928)
(0.264968 0 -0.000328085)
(0.264225 0 -0.000335147)
(0.263505 0 -0.000342676)
(0.262806 2.84532e-29 -0.000350018)
(0.262129 0 -0.000357061)
(0.261472 0 -0.00036374)
(0.260835 0 -0.000369966)
(0.260217 2.56166e-29 -0.000375761)
(0.259619 0 -0.000381156)
(0.259039 0 -0.00038611)
(0.258477 -2.3643e-29 -0.000390561)
(0.257932 2.2903e-29 -0.000394444)
(0.257403 2.20341e-29 -0.000397664)
(0.256888 2.12167e-29 -0.00040015)
(0.256385 2.05936e-29 -0.000402146)
(0.255894 -2.008e-29 -0.000403892)
(0.255414 1.95832e-29 -0.000405495)
(0.254946 1.91001e-29 -0.000406998)
(0.254488 -1.87725e-29 -0.000408468)
(0.254043 0 -0.00041024)
(0.25361 0 -0.00041226)
(0.253192 1.71748e-29 -0.00041392)
(0.252785 0 -0.000415165)
(0.252389 0 -0.000416319)
(0.252004 0 -0.000417337)
(0.25163 -1.51417e-29 -0.000418276)
(0.251264 0 -0.000419172)
(0.250908 0 -0.000420047)
(0.250561 0 -0.00042095)
(0.250223 -1.36548e-29 -0.000421849)
(0.249893 0 -0.000422781)
(0.249573 2.36934e-46 -0.000423627)
(0.24926 -1.21601e-29 -0.000424109)
(0.248956 2.41306e-29 -0.00042449)
(0.248655 -1.20959e-29 -0.00042511)
(0.248363 2.45866e-29 -0.000425869)
(0.248076 1.25563e-29 -0.000427145)
(0.247797 0 -0.000428388)
(0.247519 0 -0.000429082)
(0.247245 -1.23148e-29 -0.000429829)
(0.246972 -1.21668e-29 -0.000430906)
(0.246704 0 -0.000431497)
(0.246439 0 -0.000431338)
(0.246175 -1.09494e-29 -0.000431153)
(0.245911 0 -0.000430804)
(0.245649 -1.07104e-29 -0.000430337)
(0.245386 0 -0.000429721)
(0.245123 -1.05405e-29 -0.000429026)
(0.244861 -3.48587e-46 -0.000428252)
(0.244598 0 -0.000427439)
(0.244335 1.03931e-29 -0.000426604)
(0.244072 1.03557e-29 -0.000425771)
(0.243808 -5.33595e-40 -0.000424911)
(0.243545 -3.08762e-40 -0.000424092)
(0.243283 -1.03056e-29 -0.00042326)
(0.24302 -1.03909e-29 -0.000422459)
(0.242758 -1.02916e-29 -0.000421868)
(0.242498 -6.56817e-40 -0.000420871)
(0.242237 -3.74352e-40 -0.000419342)
(0.241975 -1.02832e-29 -0.000418366)
(0.241714 -1.02111e-29 -0.000417668)
(0.241454 1.00793e-29 -0.000416594)
(0.241194 2.00782e-29 -0.000415528)
(0.240934 -9.11065e-40 -0.000414395)
(0.240674 -9.95795e-30 -0.000413279)
(0.240414 -5.83624e-40 -0.000412174)
(0.240154 9.89389e-30 -0.000411097)
(0.239894 9.86425e-30 -0.000410048)
(0.239635 -1.19639e-39 -0.000409026)
(0.239376 9.80126e-30 -0.000408027)
(0.239118 -1.9533e-29 -0.000407055)
(0.23886 9.73105e-30 -0.000406113)
(0.238602 8.21653e-40 -0.000405207)
(0.238345 -1.93061e-29 -0.000404339)
(0.238089 9.60933e-30 -0.000403513)
(0.237833 -9.56631e-30 -0.000402729)
(0.237579 8.57164e-40 -0.000401989)
(0.237325 -9.47006e-30 -0.000401294)
(0.237072 0 -0.000400643)
(0.23682 -9.35862e-30 -0.000400031)
(0.23657 9.59344e-40 -0.000399457)
(0.236321 -9.22275e-30 -0.000398914)
(0.236073 9.145e-30 -0.000398402)
(0.235826 1.13032e-39 -0.000397918)
(0.235581 -1.79255e-29 -0.000397453)
(0.235337 8.85999e-30 -0.000397005)
(0.235094 -1.75085e-29 -0.000396566)
(0.234852 8.64656e-30 -0.000396139)
(0.234612 -2.03465e-39 -0.000395727)
(0.234373 8.43128e-30 -0.00039534)
(0.234136 8.32436e-30 -0.000394986)
(0.2339 1.64377e-29 -0.000394675)
(0.233665 -8.10788e-30 -0.000394404)
(0.233431 -1.87591e-39 -0.00039417)
(0.233199 -1.03887e-39 -0.000393961)
(0.232969 7.802e-30 -0.000393773)
(0.23274 -7.72009e-30 -0.000393596)
(0.232512 -7.65331e-30 -0.000393426)
(0.232287 0 -0.00039326)
(0.232062 -1.42793e-39 -0.000393095)
(0.23184 7.56094e-30 -0.000392938)
(0.231618 -1.25112e-39 -0.000392792)
(0.231398 -7.61917e-30 -0.000392671)
(0.23118 -6.19633e-40 -0.000392586)
(0.230963 -1.01019e-39 -0.000392549)
(0.230748 7.87755e-30 -0.00039257)
(0.230534 7.98968e-30 -0.000392648)
(0.230323 1.62281e-29 -0.00039278)
(0.230113 8.24914e-30 -0.000392959)
(0.229906 8.39537e-30 -0.000393184)
(0.229701 1.70967e-29 -0.000393452)
(0.229498 8.70415e-30 -0.000393769)
(0.229297 1.77118e-29 -0.000394139)
(0.229099 0 -0.00039457)
(0.228903 9.12026e-30 -0.000395065)
(0.22871 9.22254e-30 -0.000395623)
(0.22852 9.29902e-30 -0.000396239)
(0.228332 0 -0.000396906)
(0.228148 9.36881e-30 -0.000397613)
(0.227966 9.35997e-30 -0.000398352)
(0.227788 0 -0.000399109)
(0.227613 9.25388e-30 -0.000399874)
(0.227441 0 -0.000400632)
(0.227271 9.03586e-30 -0.000401376)
(0.227105 0 -0.000402096)
(0.226942 6.41887e-46 -0.000402788)
(0.226781 1.70546e-29 -0.000403449)
(0.226623 0 -0.000404076)
(0.226468 8.09968e-30 -0.000404661)
(0.226315 1.57608e-29 -0.000405202)
(0.226164 7.0225e-46 -0.000405681)
(0.226016 0 -0.000406099)
(0.225869 1.44604e-29 -0.000406448)
(0.225724 0 -0.000406738)
(0.225581 1.37525e-29 -0.000406968)
(0.225438 6.73273e-30 -0.00040716)
(0.225298 -6.60571e-30 -0.000407311)
(0.225158 6.51099e-30 -0.000407444)
(0.225019 6.43557e-30 -0.000407577)
(0.224881 0 -0.00040771)
(0.224745 0 -0.000407844)
(0.224609 0 -0.000407972)
(0.224475 6.36444e-30 -0.000408099)
(0.224341 6.39516e-30 -0.000408215)
(0.224208 0 -0.000408334)
(0.224077 0 -0.00040846)
(0.223946 0 -0.000408605)
(0.223816 -6.65984e-30 -0.000408775)
(0.223687 6.73878e-30 -0.000408972)
(0.223559 6.81728e-30 -0.000409197)
(0.223432 6.89389e-30 -0.000409441)
(0.223307 0 -0.000409694)
(0.223183 0 -0.000409949)
(0.223061 0 -0.000410205)
(0.222939 7.14801e-30 -0.00041046)
(0.222819 7.18457e-30 -0.000410716)
(0.222699 1.44236e-29 -0.000410976)
(0.222581 1.44488e-29 -0.000411244)
(0.222465 0 -0.000411518)
(0.222349 7.20785e-30 -0.000411795)
(0.222235 7.17435e-30 -0.000412069)
(0.222122 0 -0.000412333)
(0.22201 -7.05746e-30 -0.000412577)
(0.2219 1.39374e-29 -0.000412793)
(0.221791 0 -0.00041294)
(0.221683 0 -0.000412973)
(0.221576 0 -0.000412933)
(0.221471 3.52291e-46 -0.000412869)
(0.221367 0 -0.000412805)
(0.221264 5.97015e-30 -0.000412749)
(0.221163 5.87767e-30 -0.000412704)
(0.221063 0 -0.000412668)
(0.220964 0 -0.000412637)
(0.220866 5.59099e-30 -0.00041261)
(0.220769 5.49403e-30 -0.000412582)
(0.220673 0 -0.000412553)
(0.220578 4.97024e-46 -0.000412516)
(0.220484 0 -0.00041247)
(0.220391 5.12272e-30 -0.000412409)
(0.220299 0 -0.000412337)
(0.220207 9.88554e-30 -0.000412257)
(0.220116 5.18345e-46 -0.00041217)
(0.220025 0 -0.000412072)
(0.219935 0 -0.000411961)
(0.219846 5.2461e-46 -0.000411833)
(0.219757 9.04794e-30 -0.00041169)
(0.219668 0 -0.00041154)
(0.219579 4.4135e-30 -0.000411389)
(0.219491 0 -0.000411243)
(0.219404 -4.35112e-30 -0.000411106)
(0.219316 0 -0.000410981)
(0.219229 -4.33453e-30 -0.00041087)
(0.219143 -4.34172e-30 -0.000410775)
(0.219056 0 -0.000410699)
(0.21897 0 -0.000410641)
(0.218885 -4.39793e-30 -0.000410602)
(0.2188 0 -0.000410577)
(0.218715 4.46757e-30 -0.000410566)
(0.218631 -4.51154e-30 -0.000410572)
(0.218548 0 -0.0004106)
(0.218465 -4.60462e-30 -0.000410655)
(0.218383 -4.64442e-30 -0.000410744)
(0.218301 -4.67661e-30 -0.000410863)
(0.21822 0 -0.000411013)
(0.218141 -4.71589e-30 -0.000411184)
(0.218062 -4.72247e-30 -0.000411371)
(0.217985 0 -0.000411565)
(0.217908 -4.70244e-30 -0.000411763)
(0.217832 -4.67443e-30 -0.000411963)
(0.217758 0 -0.000412163)
(0.217684 -4.58724e-30 -0.000412356)
(0.217612 4.5314e-30 -0.000412538)
(0.21754 0 -0.000412709)
(0.217469 -4.37995e-30 -0.00041287)
(0.217398 0 -0.000413031)
(0.217329 0 -0.000413195)
(0.21726 0 -0.00041336)
(0.217193 0 -0.000413513)
(0.217126 -3.80191e-30 -0.000413662)
(0.21706 0 -0.0004138)
(0.216995 3.57208e-30 -0.000413923)
(0.216931 0 -0.000414023)
(0.216867 0 -0.000414104)
(0.216804 -3.30977e-30 -0.000414165)
(0.216742 -3.25847e-30 -0.000414215)
(0.21668 0 -0.000414259)
(0.216619 -3.21071e-30 -0.000414313)
(0.216558 -3.20649e-30 -0.000414389)
(0.216497 -3.20991e-30 -0.000414495)
(0.216437 -3.21811e-30 -0.000414639)
(0.216378 0 -0.000414822)
(0.21632 -3.23523e-30 -0.000415044)
(0.216263 0 -0.000415298)
(0.216206 -3.25454e-30 -0.000415578)
(0.216151 0 -0.000415871)
(0.216097 0 -0.000416171)
(0.216044 -3.28173e-30 -0.000416464)
(0.215992 -3.2769e-30 -0.000416752)
(0.215941 0 -0.00041703)
(0.215891 -3.22618e-30 -0.000417309)
(0.215841 -3.16937e-30 -0.000417599)
(0.215793 -6.17329e-30 -0.000417905)
(0.215745 -2.97962e-30 -0.000418222)
(0.215699 0 -0.000418529)
(0.215653 2.69915e-30 -0.000418811)
(0.215609 0 -0.000419044)
(0.215566 2.37611e-30 -0.000419214)
(0.215523 2.22263e-30 -0.000419302)
(0.215481 0 -0.000419309)
(0.215439 -1.95795e-30 -0.000419252)
(0.215397 1.84798e-30 -0.000419134)
(0.215354 1.74802e-30 -0.000418972)
(0.215312 0 -0.000418762)
(0.215269 1.57323e-30 -0.000418529)
(0.215226 0 -0.00041827)
(0.215182 1.45845e-30 -0.000418007)
(0.215139 -1.42957e-30 -0.00041773)
(0.215094 1.42559e-30 -0.000417459)
(0.21505 1.44254e-30 -0.000417177)
(0.215005 0 -0.000416898)
(0.21496 0 -0.000416607)
(0.214914 1.61211e-30 -0.000416321)
(0.214867 1.69482e-30 -0.000416043)
(0.214821 0 -0.000415794)
(0.214773 1.86347e-30 -0.000415572)
(0.214725 0 -0.000415384)
(0.214677 0 -0.00041523)
(0.214629 0 -0.000415123)
(0.214581 2.0529e-30 -0.000415051)
(0.214533 0 -0.000415017)
(0.214486 -4.02546e-30 -0.000414992)
(0.214439 0 -0.00041496)
(0.214392 -1.84943e-30 -0.000414894)
(0.214345 1.74305e-30 -0.000414778)
(0.214298 0 -0.000414598)
(0.214251 0 -0.000414352)
(0.214204 0 -0.000414042)
(0.214156 -1.2343e-30 -0.000413673)
(0.214108 0 -0.000413253)
(0.214059 0 -0.000412781)
(0.21401 0 -0.000412257)
(0.213959 0 -0.000411676)
(0.213908 0 -0.000411033)
(0.213855 0 -0.000410329)
(0.213801 0 -0.000409578)
(0.213746 0 -0.000408784)
(0.213689 -3.76504e-31 -0.000407958)
(0.21363 0 -0.000407098)
(0.21357 0 -0.000406222)
(0.213508 0 -0.000405337)
(0.213444 5.28479e-31 -0.000404463)
(0.213378 -6.3875e-31 -0.000403605)
(0.213311 -7.72296e-31 -0.000402774)
(0.213242 0 -0.000401972)
(0.213172 -1.07062e-30 -0.000401205)
(0.2131 1.22665e-30 -0.000400478)
(0.213027 -2.75784e-30 -0.000399784)
(0.212952 0 -0.000399113)
(0.212877 0 -0.000398449)
(0.2128 0 -0.000397783)
(0.212722 0 -0.000397124)
(0.212643 0 -0.000396476)
(0.212563 0 -0.000395857)
(0.212482 0 -0.000395263)
(0.2124 -2.53172e-30 -0.000394705)
(0.212317 0 -0.000394172)
(0.212233 0 -0.00039367)
(0.212148 0 -0.000393192)
(0.212063 -3.03883e-30 -0.000392742)
(0.211977 -3.16225e-30 -0.000392314)
(0.211891 -3.28943e-30 -0.000391913)
(0.211804 0 -0.000391534)
(0.211716 3.56204e-30 -0.00039118)
(0.211628 -3.70645e-30 -0.000390857)
(0.21154 0 -0.000390557)
(0.211452 0 -0.000390281)
(0.211363 0 -0.000390033)
(0.211275 4.37501e-30 -0.000389826)
(0.211186 0 -0.000389677)
(0.211097 0 -0.000389594)
(0.211009 0 -0.000389576)
(0.210921 0 -0.000389608)
(0.210834 0 -0.000389691)
(0.210747 5.49797e-30 -0.000389829)
(0.210661 0 -0.000390029)
(0.210576 -1.16353e-29 -0.000390291)
(0.210492 0 -0.000390621)
(0.21041 0 -0.000391011)
(0.210329 0 -0.000391459)
(0.210249 0 -0.000391958)
(0.210171 0 -0.000392497)
(0.210095 0 -0.000393061)
(0.210021 0 -0.000393635)
(0.209948 -6.0705e-30 -0.000394217)
(0.209878 0 -0.000394794)