/*--------------------------------*- C++ -*----------------------------------*\
| =========                 |                                                 |
| \\      /  F ield         | foam-extend: Open Source CFD                    |
|  \\    /   O peration     | Version:     3.2                                |
|   \\  /    A nd           | Web:         http://www.foam-extend.org         |
|    \\/     M anipulation  | For copyright notice see file Copyright         |
\*---------------------------------------------------------------------------*/
FoamFile
{
    version     2.0;
    format      ascii;
    class       areaScalarField;
    location    "160";
    object      a;
}
// * * * * * * * * * * * * * * * * * * * * * * * * * * * * * * * * * * * * * //

dimensions      [1 -1 0 0 0 0 0];

internalField   nonuniform List<scalar> 
300
(
0.00216728
0.00216728
0.00216728
0.00216728
0.00216728
0.00216728
0.00216728
0.00216728
0.00216728
0.00216728
0.00216728
0.00216728
0.00216728
0.00216728
0.00216728
0.00216728
0.00216728
0.00216728
0.00216728
0.00216728
0.00216728
0.00216728
0.00216728
0.00216728
0.00216728
0.00216728
0.00216728
0.00216728
0.00216728
0.00216728
0.00216728
0.00216728
0.00216728
0.00216728
0.00216728
0.00216728
0.00216728
0.00216728
0.00216728
0.00216728
0.00216728
0.00216728
0.00216728
0.00216728
0.00216728
0.00216728
0.00216728
0.00216728
0.00216728
0.00216728
0.00216728
0.00216728
0.00216728
0.00216728
0.00216728
0.00216728
0.00216728
0.00216728
0.00216728
0.00216728
0.00216728
0.00216728
0.00216728
0.00216728
0.00216728
0.00216728
0.00216728
0.00216728
0.00216728
0.00216728
0.00216728
0.00216728
0.00216728
0.00216728
0.00216728
0.00216728
0.00216728
0.00216728
0.00216728
0.00216728
0.00216728
0.00216728
0.00216728
0.00216728
0.00216728
0.00216728
0.00216728
0.00216728
0.00216728
0.00216728
0.00216728
0.00216728
0.00216728
0.00216728
0.00216728
0.00216728
0.00216728
0.00216728
0.00216728
0.00205215
0.00182681
0.00165268
0.00154343
0.00145831
0.00139106
0.00133737
0.00129205
0.00125556
0.001224
0.00216728
0.00216728
0.00115264
0.00113763
0.00112168
0.00216728
0.00216728
0.00216728
0.00107552
0.00106773
0.0010542
0.00216728
0.00216728
0.00216728
0.00102695
0.0010306
0.00102303
0.00216728
0.00216728
0.00216728
0.00101659
0.0010155
0.00216728
0.00216728
0.00100557
0.00101391
0.00101058
0.00216728
0.00216728
0.00216728
0.00100349
0.00100499
0.00100855
0.00216728
0.00216728
0.00216728
0.00100833
0.00100912
0.00100694
0.00216728
0.00216728
0.00216728
0.00101282
0.00102706
0.0010427
0.00216728
0.00216728
0.00216728
0.00107588
0.00108517
0.00110182
0.00216728
0.00216728
0.00216728
0.00216728
0.00113785
0.00113061
0.0011321
0.00216728
0.00216728
0.0011281
0.00113257
0.00113382
0.00216728
0.00216728
0.00113712
0.00114408
0.0011378
0.00216728
0.00216728
0.00216728
0.00216728
0.00110826
0.00110456
0.00216728
0.00216728
0.00216728
0.00108868
0.00108595
0.0010915
0.00216728
0.00216728
0.0011149
0.00111705
0.00216728
0.00216728
0.00110507
0.0011096
0.00111476
0.00216728
0.00216728
0.00216728
0.00216728
0.00111455
0.00111187
0.00216728
0.00216728
0.00216728
0.00111922
0.00111094
0.00110359
0.00216728
0.00216728
0.00216728
0.00112832
0.00112223
0.00111732
0.00111643
0.00216728
0.00216728
0.00110542
0.00110649
0.00216728
0.00216728
0.00216728
0.00112912
0.00114204
0.00114696
0.00216728
0.00216728
0.00216728
0.00216728
0.00114085
0.0011292
0.00112767
0.00113777
0.00216728
0.00216728
0.00112865
0.00111616
0.00216728
0.00216728
0.00216728
0.00109269
0.00109703
0.00111483
0.00216728
0.00216728
0.00216728
0.00112643
0.00112024
0.00112063
0.00216728
0.00216728
0.00216728
0.00110648
0.00110986
0.0011189
0.00216728
0.00216728
0.00216728
0.00117567
0.00116746
0.00216728
0.00216728
0.00115044
0.00114781
0.0011618
0.00216728
0.00216728
0.00115856
0.00115348
0.00115346
0.00216728
0.00216728
0.00118334
0.00118684
0.00117631
0.00216728
0.00216728
0.00114453
0.00114853
0.0011595
0.00216728
0.00118558
0.00120693
0.00122904
0.00124134
0.00124586
0.00126582
0.00129391
0.00132927
0.00137618
0.0014359
0.00151793
0.00162885
0.00181956
0.00206813
0.00216728
0.00216728
0.00216728
)
;

boundaryField
{
    inlet
    {
        type            calculated;
        value           uniform 0;
    }
    outlet
    {
        type            calculated;
        value           uniform 0;
    }
    sideWall
    {
        type            empty;
    }
}


// ************************************************************************* //
