/*--------------------------------*- C++ -*----------------------------------*\
| =========                 |                                                 |
| \\      /  F ield         | foam-extend: Open Source CFD                    |
|  \\    /   O peration     | Version:     3.2                                |
|   \\  /    A nd           | Web:         http://www.foam-extend.org         |
|    \\/     M anipulation  | For copyright notice see file Copyright         |
\*---------------------------------------------------------------------------*/
FoamFile
{
    version     2.0;
    format      ascii;
    class       surfaceScalarField;
    location    "160";
    object      AdSS2;
}
// * * * * * * * * * * * * * * * * * * * * * * * * * * * * * * * * * * * * * //

dimensions      [0 3 -1 0 0 0 0];

internalField   nonuniform List<scalar> 
191380
(
6.20161e-05
-1.62919e-06
4.34317e-05
-2.22786e-05
3.68831e-05
-3.43144e-05
3.4861e-05
-3.8841e-05
3.39661e-05
-3.99682e-05
3.33299e-05
-4.02268e-05
3.27754e-05
-4.03086e-05
3.22528e-05
-4.03404e-05
3.17611e-05
-4.03713e-05
3.13152e-05
-4.04172e-05
3.09158e-05
-4.04637e-05
3.05513e-05
-4.04985e-05
3.0221e-05
-4.05327e-05
2.99227e-05
-4.05648e-05
2.96509e-05
-4.05912e-05
2.94013e-05
-4.06135e-05
2.91694e-05
-4.06311e-05
2.89547e-05
-4.06484e-05
2.87583e-05
-4.06667e-05
2.85779e-05
-4.06827e-05
2.84077e-05
-4.06928e-05
2.82465e-05
-4.07019e-05
2.80941e-05
-4.07106e-05
2.79505e-05
-4.07195e-05
2.78145e-05
-4.0727e-05
2.76852e-05
-4.07337e-05
2.75619e-05
-4.07398e-05
2.74442e-05
-4.07453e-05
2.73324e-05
-4.07513e-05
2.72255e-05
-4.07561e-05
2.71233e-05
-4.07608e-05
2.7025e-05
-4.07647e-05
2.69306e-05
-4.07687e-05
2.68399e-05
-4.07724e-05
2.6753e-05
-4.07761e-05
2.66692e-05
-4.07792e-05
2.65883e-05
-4.07821e-05
2.65102e-05
-4.0785e-05
2.64346e-05
-4.07874e-05
2.63618e-05
-4.07903e-05
2.62913e-05
-4.07925e-05
2.62231e-05
-4.07949e-05
2.6157e-05
-4.07969e-05
2.60927e-05
-4.07988e-05
2.60305e-05
-4.08008e-05
2.597e-05
-4.08026e-05
2.59115e-05
-4.08045e-05
2.58543e-05
-4.08059e-05
2.57989e-05
-4.08076e-05
2.57448e-05
-4.0809e-05
2.56921e-05
-4.08104e-05
2.56409e-05
-4.08119e-05
2.55911e-05
-4.08132e-05
2.55425e-05
-4.08145e-05
2.54951e-05
-4.08156e-05
2.54488e-05
-4.08167e-05
2.54037e-05
-4.0818e-05
2.53591e-05
-4.08185e-05
2.53157e-05
-4.08196e-05
2.52732e-05
-4.08205e-05
2.52318e-05
-4.08217e-05
2.51914e-05
-4.08227e-05
2.5152e-05
-4.08237e-05
2.51136e-05
-4.08246e-05
2.50762e-05
-4.08256e-05
2.50398e-05
-4.08266e-05
2.50042e-05
-4.08275e-05
2.49697e-05
-4.08286e-05
2.4936e-05
-4.08293e-05
2.49036e-05
-4.08307e-05
2.48718e-05
-4.08313e-05
2.48417e-05
-4.08329e-05
2.4812e-05
-4.08334e-05
2.47842e-05
-4.08353e-05
2.47569e-05
-4.08358e-05
2.47321e-05
-4.08382e-05
2.47074e-05
-4.08384e-05
2.46861e-05
-4.08417e-05
2.46649e-05
-4.08419e-05
2.46478e-05
-4.0846e-05
2.46309e-05
-4.08461e-05
2.46196e-05
-4.08518e-05
2.46082e-05
-4.08517e-05
2.4605e-05
-4.08598e-05
2.46014e-05
-4.08594e-05
2.46076e-05
-4.08693e-05
2.46158e-05
-4.08713e-05
2.46351e-05
-4.08823e-05
2.46593e-05
-4.08872e-05
2.47035e-05
-4.09073e-05
2.47527e-05
-4.09122e-05
2.48308e-05
-4.09412e-05
2.49192e-05
-4.09514e-05
2.50598e-05
-4.10037e-05
2.52358e-05
-4.1039e-05
2.55291e-05
-4.11564e-05
2.58146e-05
-4.11486e-05
2.6945e-05
-4.19935e-05
2.76812e-05
-4.15992e-05
2.10143e-05
-3.42561e-05
1.7164e-05
-3.7203e-05
1.86134e-05
-4.26244e-05
1.92942e-05
-4.1947e-05
1.96141e-05
-4.16473e-05
2.00311e-05
-4.18018e-05
2.00884e-05
-4.14783e-05
2.03369e-05
-4.17017e-05
2.05588e-05
-4.17202e-05
2.05007e-05
-4.11076e-05
2.07101e-05
-4.06863e-05
2.09479e-05
-4.10292e-05
2.09544e-05
-4.25547e-05
2.11545e-05
-4.33599e-05
2.03837e-05
-4.05822e-05
2.13597e-05
-4.022e-05
2.19034e-05
-3.90414e-05
2.05939e-05
-3.87324e-05
2.20722e-05
-4.41563e-05
2.05307e-05
-4.15875e-05
2.06836e-05
-4.13098e-05
2.08187e-05
-3.91698e-05
2.21899e-05
-3.97247e-05
2.06851e-05
-3.86403e-05
2.18111e-05
-4.43282e-05
2.15798e-05
-4.32982e-05
1.98285e-05
-3.91943e-05
2.14826e-05
-4.05554e-05
2.16343e-05
-3.87461e-05
2.23034e-05
-4.08826e-05
2.09468e-05
-4.15125e-05
2.18871e-05
-4.375e-05
2.06358e-05
-3.80136e-05
2.07332e-05
-3.89783e-05
2.2474e-05
-4.46284e-05
2.18345e-05
-4.31785e-05
2.0304e-05
-3.96155e-05
2.24447e-05
-4.10529e-05
2.18773e-05
-3.74281e-05
2.06861e-05
-3.83988e-05
2.12512e-05
-4.36466e-05
2.14513e-05
-4.47181e-05
2.19775e-05
-4.23579e-05
2.05219e-05
-3.67855e-05
2.15772e-05
-3.89164e-05
2.16839e-05
-4.04903e-05
2.21376e-05
-4.33726e-05
2.0428e-05
-4.17997e-05
2.12203e-05
-4.27418e-05
2.21909e-05
-4.0173e-05
2.14909e-05
-3.70583e-05
2.10477e-05
-3.90776e-05
1.97412e-05
-4.16424e-05
2.32708e-05
-4.76522e-05
2.10013e-05
-3.94131e-05
2.26651e-05
-4.05232e-05
2.30488e-05
-3.84104e-05
2.10721e-05
-3.75532e-05
2.20245e-05
-4.36532e-05
2.11968e-05
-4.35471e-05
2.3406e-05
-4.46023e-05
2.21132e-05
-3.77895e-05
2.35188e-05
-3.94734e-05
2.21296e-05
-3.78333e-05
2.27836e-05
-4.11901e-05
2.13024e-05
-4.08037e-05
2.12851e-05
-4.33549e-05
2.20755e-05
-4.23818e-05
2.13732e-05
-3.8037e-05
2.23568e-05
-3.98377e-05
2.08061e-05
-4.04921e-05
2.28419e-05
-4.52962e-05
2.04529e-05
-3.87474e-05
2.30484e-05
-4.14542e-05
2.14655e-05
-3.76137e-05
2.22008e-05
-4.30592e-05
2.2293e-05
-4.34375e-05
2.04826e-05
-3.96176e-05
2.10909e-05
-4.05255e-05
2.00086e-05
-3.76484e-05
2.24561e-05
-4.10661e-05
2.08114e-05
-3.87054e-05
2.18883e-05
-4.35032e-05
2.02164e-05
-4.07343e-05
2.14948e-05
-4.12616e-05
2.17805e-05
-3.87674e-05
2.06011e-05
-3.85814e-05
2.09952e-05
-4.2723e-05
2.02484e-05
-4.27862e-05
2.19802e-05
-4.39511e-05
2.17423e-05
-3.95307e-05
2.28939e-05
-4.05005e-05
2.14417e-05
-4.05537e-05
2.22247e-05
-4.33503e-05
2.08861e-05
-3.78554e-05
2.05683e-05
-3.82722e-05
2.19443e-05
-4.37298e-05
2.13516e-05
-4.35491e-05
2.2302e-05
-4.23907e-05
2.01202e-05
-3.61586e-05
2.23394e-05
-4.07015e-05
2.22426e-05
-3.97326e-05
2.13741e-05
-3.9524e-05
2.02887e-05
-4.11286e-05
2.10584e-05
-4.40907e-05
2.33079e-05
-4.283e-05
2.19337e-05
-3.67888e-05
2.21476e-05
-3.96338e-05
2.04685e-05
-4.0296e-05
2.1036e-05
-4.33326e-05
1.97904e-05
-3.99831e-05
2.1793e-05
-4.14862e-05
2.25507e-05
-3.99245e-05
2.21042e-05
-4.0069e-05
2.23202e-05
-4.24813e-05
2.02165e-05
-4.05386e-05
2.14757e-05
-4.33641e-05
2.07459e-05
-4.04861e-05
2.22647e-05
-4.06481e-05
2.03428e-05
-3.66965e-05
2.12655e-05
-4.24257e-05
2.03201e-05
-4.15572e-05
2.08026e-05
-4.04884e-05
2.18972e-05
-3.99188e-05
2.13539e-05
-4.02222e-05
2.31902e-05
-4.53956e-05
2.18404e-05
-4.26936e-05
2.23899e-05
-4.24878e-05
2.03483e-05
-3.79028e-05
2.16689e-05
-3.99698e-05
2.07763e-05
-3.76747e-05
2.26371e-05
-4.22614e-05
2.12279e-05
-4.058e-05
1.93533e-05
-4.05855e-05
2.17585e-05
-4.53366e-05
2.19454e-05
-4.24756e-05
2.23981e-05
-3.988e-05
2.08598e-05
-3.69254e-05
2.15842e-05
-4.17172e-05
1.95028e-05
-3.97262e-05
2.08049e-05
-4.1043e-05
2.05904e-05
-3.84056e-05
2.06785e-05
-4.00453e-05
2.01186e-05
-4.20027e-05
2.10751e-05
-4.50494e-05
2.26785e-05
-4.4163e-05
2.16176e-05
-3.83901e-05
2.26549e-05
-3.92196e-05
2.10428e-05
-3.8077e-05
2.16395e-05
-4.25326e-05
1.97778e-05
-4.1014e-05
2.19337e-05
-4.37909e-05
2.0583e-05
-3.77409e-05
2.1039e-05
-3.85893e-05
2.0607e-05
-3.94043e-05
1.98988e-05
-4.15817e-05
2.10009e-05
-4.44982e-05
2.07477e-05
-4.19829e-05
2.27831e-05
-4.17828e-05
2.1504e-05
-3.75919e-05
2.40239e-05
-4.29473e-05
2.09567e-05
-3.90511e-05
2.13196e-05
-4.21416e-05
2.03998e-05
-3.85503e-05
2.14935e-05
-4.00799e-05
2.00472e-05
-4.02751e-05
2.12839e-05
-4.47959e-05
2.19168e-05
-4.26185e-05
2.10642e-05
-3.83575e-05
2.18884e-05
-3.96773e-05
2.00107e-05
-3.92705e-05
2.07077e-05
-4.33182e-05
1.9814e-05
-4.08845e-05
2.28291e-05
-4.28419e-05
2.08369e-05
-3.74756e-05
2.27823e-05
-4.36686e-05
2.03198e-05
-4.03631e-05
2.07702e-05
-4.15876e-05
1.97534e-05
-3.79705e-05
2.02786e-05
-3.95679e-05
1.91365e-05
-4.03946e-05
2.12054e-05
-4.48262e-05
1.93851e-05
-3.94249e-05
2.04552e-05
-4.13793e-05
2.2181e-05
-4.35166e-05
2.10315e-05
-4.18914e-05
2.24061e-05
-4.37097e-05
1.97302e-05
-3.89543e-05
2.05139e-05
-4.23442e-05
2.06115e-05
-4.15808e-05
2.13822e-05
-4.22258e-05
2.12371e-05
-4.12727e-05
2.20614e-05
-4.21982e-05
2.19158e-05
-4.11801e-05
2.30088e-05
-4.23535e-05
2.37502e-05
-4.1915e-05
2.94921e-05
-4.67778e-05
2.73758e-05
-3.87894e-05
2.24784e-05
-3.59656e-05
2.14502e-05
-3.98348e-05
-4.02349e-05
8.94816e-05
1.01392e-05
7.65994e-05
-9.39643e-06
6.80419e-05
-2.57569e-05
6.32813e-05
-3.40803e-05
6.03139e-05
-3.70008e-05
5.82033e-05
-3.81161e-05
5.65594e-05
-3.86648e-05
5.5187e-05
-3.89679e-05
5.40281e-05
-3.92125e-05
5.30422e-05
-3.94313e-05
5.21841e-05
-3.96056e-05
5.14251e-05
-3.97395e-05
5.07532e-05
-3.98609e-05
5.01583e-05
-3.99699e-05
4.96219e-05
-4.00548e-05
4.91338e-05
-4.01255e-05
4.86864e-05
-4.01837e-05
4.82767e-05
-4.02387e-05
4.78994e-05
-4.02893e-05
4.75473e-05
-4.03305e-05
4.72174e-05
-4.0363e-05
4.69083e-05
-4.03928e-05
4.66185e-05
-4.04209e-05
4.6347e-05
-4.04479e-05
4.60908e-05
-4.04709e-05
4.58485e-05
-4.04913e-05
4.56189e-05
-4.05102e-05
4.54008e-05
-4.05272e-05
4.51944e-05
-4.05449e-05
4.49976e-05
-4.05593e-05
4.48099e-05
-4.05731e-05
4.46302e-05
-4.05851e-05
4.44583e-05
-4.05968e-05
4.42938e-05
-4.06079e-05
4.41363e-05
-4.06186e-05
4.39849e-05
-4.06278e-05
4.38391e-05
-4.06363e-05
4.36988e-05
-4.06448e-05
4.35634e-05
-4.06519e-05
4.34331e-05
-4.066e-05
4.33072e-05
-4.06667e-05
4.31856e-05
-4.06732e-05
4.3068e-05
-4.06792e-05
4.29539e-05
-4.06847e-05
4.28436e-05
-4.06905e-05
4.27366e-05
-4.06956e-05
4.26331e-05
-4.0701e-05
4.25323e-05
-4.07051e-05
4.24346e-05
-4.07099e-05
4.23395e-05
-4.07138e-05
4.2247e-05
-4.07179e-05
4.21571e-05
-4.0722e-05
4.20697e-05
-4.07258e-05
4.19846e-05
-4.07293e-05
4.19017e-05
-4.07327e-05
4.18208e-05
-4.07358e-05
4.1742e-05
-4.07392e-05
4.16652e-05
-4.07417e-05
4.15907e-05
-4.07452e-05
4.1518e-05
-4.07477e-05
4.14472e-05
-4.07509e-05
4.1378e-05
-4.07535e-05
4.13107e-05
-4.07564e-05
4.1245e-05
-4.07589e-05
4.11811e-05
-4.07617e-05
4.11187e-05
-4.07642e-05
4.1058e-05
-4.07668e-05
4.09989e-05
-4.07695e-05
4.09413e-05
-4.07718e-05
4.08856e-05
-4.07749e-05
4.08314e-05
-4.07771e-05
4.07792e-05
-4.07807e-05
4.07285e-05
-4.07827e-05
4.06801e-05
-4.07869e-05
4.06332e-05
-4.07889e-05
4.05894e-05
-4.07943e-05
4.05469e-05
-4.0796e-05
4.05083e-05
-4.08031e-05
4.04713e-05
-4.08048e-05
4.04392e-05
-4.08139e-05
4.04088e-05
-4.08157e-05
4.03852e-05
-4.08282e-05
4.03634e-05
-4.08298e-05
4.03513e-05
-4.08478e-05
4.03414e-05
-4.08495e-05
4.0345e-05
-4.08728e-05
4.03524e-05
-4.08787e-05
4.03737e-05
-4.09036e-05
4.04052e-05
-4.09187e-05
4.04635e-05
-4.09656e-05
4.05307e-05
-4.09794e-05
4.0641e-05
-4.10515e-05
4.07708e-05
-4.10812e-05
4.0971e-05
-4.12038e-05
4.12216e-05
-4.12897e-05
4.1622e-05
-4.15567e-05
4.2104e-05
-4.16306e-05
4.34524e-05
-4.33419e-05
4.4634e-05
-4.27808e-05
3.81277e-05
-2.77497e-05
3.21493e-05
-3.12245e-05
3.19422e-05
-4.24174e-05
3.22364e-05
-4.22412e-05
3.24421e-05
-4.1853e-05
3.28007e-05
-4.21604e-05
3.29012e-05
-4.15788e-05
3.3179e-05
-4.19794e-05
3.35009e-05
-4.20422e-05
3.34895e-05
-4.10962e-05
3.37417e-05
-4.09385e-05
3.40199e-05
-4.13074e-05
3.4199e-05
-4.27338e-05
3.44952e-05
-4.36561e-05
3.39848e-05
-4.00718e-05
3.47843e-05
-4.10194e-05
3.50901e-05
-3.93472e-05
3.42788e-05
-3.79212e-05
3.54997e-05
-4.53772e-05
3.44265e-05
-4.05144e-05
3.41035e-05
-4.09868e-05
3.42022e-05
-3.92685e-05
3.54855e-05
-4.10081e-05
3.44592e-05
-3.7614e-05
3.54672e-05
-4.53362e-05
3.53028e-05
-4.31337e-05
3.37586e-05
-3.76502e-05
3.47919e-05
-4.15887e-05
3.52445e-05
-3.91986e-05
3.59607e-05
-4.15988e-05
3.4952e-05
-4.05038e-05
3.55582e-05
-4.43562e-05
3.44453e-05
-3.69007e-05
3.44457e-05
-3.89787e-05
3.61551e-05
-4.63379e-05
3.5784e-05
-4.28074e-05
3.44373e-05
-3.82689e-05
3.60222e-05
-4.26378e-05
3.57657e-05
-3.71716e-05
3.48167e-05
-3.74498e-05
3.49708e-05
-4.38007e-05
3.53592e-05
-4.51065e-05
3.57512e-05
-4.27499e-05
3.44304e-05
-3.54647e-05
3.50741e-05
-3.95601e-05
3.54159e-05
-4.08321e-05
3.59227e-05
-4.38794e-05
3.46781e-05
-4.05551e-05
3.51258e-05
-4.31895e-05
3.58038e-05
-4.08511e-05
3.54096e-05
-3.66641e-05
3.43377e-05
-3.80056e-05
3.35024e-05
-4.08072e-05
3.67736e-05
-5.09234e-05
3.53502e-05
-3.79896e-05
3.67628e-05
-4.19358e-05
3.71487e-05
-3.87963e-05
3.57711e-05
-3.61756e-05
3.60173e-05
-4.38994e-05
3.54131e-05
-4.29428e-05
3.74776e-05
-4.66669e-05
3.6842e-05
-3.71539e-05
3.78498e-05
-4.04811e-05
3.68824e-05
-3.68659e-05
3.72346e-05
-4.15424e-05
3.60212e-05
-3.95902e-05
3.57835e-05
-4.31171e-05
3.59795e-05
-4.25779e-05
3.56674e-05
-3.77248e-05
3.61238e-05
-4.02942e-05
3.49549e-05
-3.93232e-05
3.66489e-05
-4.69902e-05
3.49034e-05
-3.70018e-05
3.67984e-05
-4.33493e-05
3.58071e-05
-3.66224e-05
3.64975e-05
-4.37495e-05
3.64945e-05
-4.34345e-05
3.50366e-05
-3.81597e-05
3.47785e-05
-4.02674e-05
3.36329e-05
-3.65028e-05
3.56967e-05
-4.31299e-05
3.47782e-05
-3.77869e-05
3.54828e-05
-4.42079e-05
3.41641e-05
-3.94155e-05
3.50645e-05
-4.2162e-05
3.53774e-05
-3.90803e-05
3.45716e-05
-3.77755e-05
3.44643e-05
-4.26157e-05
3.38758e-05
-4.21977e-05
3.53749e-05
-4.54503e-05
3.55603e-05
-3.97161e-05
3.67169e-05
-4.1657e-05
3.5768e-05
-3.96049e-05
3.62224e-05
-4.38046e-05
3.49558e-05
-3.65889e-05
3.45578e-05
-3.78741e-05
3.54918e-05
-4.46639e-05
3.54326e-05
-4.34898e-05
3.61209e-05
-4.3079e-05
3.42205e-05
-3.42583e-05
3.58712e-05
-4.23521e-05
3.62166e-05
-4.0078e-05
3.55518e-05
-3.88592e-05
3.4176e-05
-3.97528e-05
3.49334e-05
-4.48481e-05
3.70469e-05
-4.49436e-05
3.63152e-05
-3.60571e-05
3.61721e-05
-3.94907e-05
3.4585e-05
-3.8709e-05
3.46599e-05
-4.34074e-05
3.35239e-05
-3.88471e-05
3.51716e-05
-4.31339e-05
3.6316e-05
-4.10689e-05
3.65139e-05
-4.02669e-05
3.62773e-05
-4.22447e-05
3.43516e-05
-3.86129e-05
3.50344e-05
-4.40469e-05
3.45872e-05
-4.00389e-05
3.57721e-05
-4.1833e-05
3.42588e-05
-3.51831e-05
3.48161e-05
-4.2983e-05
3.40786e-05
-4.08196e-05
3.4333e-05
-4.07428e-05
3.51026e-05
-4.06884e-05
3.52881e-05
-4.04077e-05
3.69979e-05
-4.71055e-05
3.63099e-05
-4.20056e-05
3.65272e-05
-4.27051e-05
3.46071e-05
-3.59827e-05
3.53201e-05
-4.06827e-05
3.47211e-05
-3.70757e-05
3.62016e-05
-4.3742e-05
3.51635e-05
-3.95419e-05
3.36294e-05
-3.90513e-05
3.52005e-05
-4.69078e-05
3.58239e-05
-4.3099e-05
3.63301e-05
-4.03862e-05
3.50836e-05
-3.56788e-05
3.52763e-05
-4.19099e-05
3.32873e-05
-3.77373e-05
3.40473e-05
-4.18029e-05
3.39145e-05
-3.82728e-05
3.39474e-05
-4.00783e-05
3.34786e-05
-4.15339e-05
3.45778e-05
-4.61486e-05
3.61211e-05
-4.57063e-05
3.57144e-05
-3.79834e-05
3.64488e-05
-3.9954e-05
3.52075e-05
-3.68356e-05
3.53308e-05
-4.2656e-05
3.3623e-05
-3.93061e-05
3.52613e-05
-4.54292e-05
3.4302e-05
-3.67816e-05
3.43841e-05
-3.86714e-05
3.39619e-05
-3.89821e-05
3.34972e-05
-4.11169e-05
3.40999e-05
-4.51009e-05
3.44252e-05
-4.23083e-05
3.61314e-05
-4.34889e-05
3.55349e-05
-3.69954e-05
3.78592e-05
-4.52715e-05
3.5595e-05
-3.67869e-05
3.53434e-05
-4.189e-05
3.43275e-05
-3.75344e-05
3.49713e-05
-4.07237e-05
3.39232e-05
-3.92269e-05
3.4909e-05
-4.57817e-05
3.55053e-05
-4.32148e-05
3.51913e-05
-3.80436e-05
3.54484e-05
-3.99343e-05
3.38519e-05
-3.7674e-05
3.38042e-05
-4.32706e-05
3.31533e-05
-4.02336e-05
3.59853e-05
-4.56739e-05
3.48195e-05
-3.63098e-05
3.63349e-05
-4.5184e-05
3.4554e-05
-3.85822e-05
3.43852e-05
-4.14188e-05
3.33483e-05
-3.69336e-05
3.33058e-05
-3.95253e-05
3.22248e-05
-3.93137e-05
3.39626e-05
-4.6564e-05
3.28299e-05
-3.82922e-05
3.37297e-05
-4.22792e-05
3.5197e-05
-4.49839e-05
3.49629e-05
-4.16573e-05
3.60162e-05
-4.47629e-05
3.37308e-05
-3.66688e-05
3.39362e-05
-4.25496e-05
3.40767e-05
-4.17213e-05
3.4703e-05
-4.28521e-05
3.48127e-05
-4.13824e-05
3.56258e-05
-4.30112e-05
3.59398e-05
-4.14942e-05
3.67864e-05
-4.32e-05
3.86917e-05
-4.38203e-05
4.5148e-05
-5.32341e-05
4.43816e-05
-3.8023e-05
3.99147e-05
-3.14987e-05
3.74405e-05
-3.73607e-05
-3.87166e-05
9.94287e-05
1.19605e-05
9.34365e-05
-3.40428e-06
8.60996e-05
-1.842e-05
8.00867e-05
-2.80673e-05
7.57094e-05
-3.26236e-05
7.24369e-05
-3.48436e-05
6.99182e-05
-3.61461e-05
6.79141e-05
-3.69639e-05
6.62808e-05
-3.75791e-05
6.49103e-05
-3.80607e-05
6.37256e-05
-3.84209e-05
6.2691e-05
-3.87049e-05
6.17843e-05
-3.89542e-05
6.0986e-05
-3.91715e-05
6.02684e-05
-3.93372e-05
5.96186e-05
-3.94756e-05
5.9027e-05
-3.95921e-05
5.84879e-05
-3.96996e-05
5.79938e-05
-3.97952e-05
5.7535e-05
-3.98718e-05
5.71075e-05
-3.99354e-05
5.67087e-05
-3.9994e-05
5.63363e-05
-4.00484e-05
5.59877e-05
-4.00993e-05
5.56594e-05
-4.01427e-05
5.53495e-05
-4.01814e-05
5.50567e-05
-4.02174e-05
5.47792e-05
-4.02497e-05
5.45168e-05
-4.02824e-05
5.42669e-05
-4.03095e-05
5.4029e-05
-4.03352e-05
5.38017e-05
-4.03578e-05
5.35845e-05
-4.03797e-05
5.3377e-05
-4.04004e-05
5.31784e-05
-4.042e-05
5.29877e-05
-4.04372e-05
5.28043e-05
-4.04529e-05
5.26281e-05
-4.04686e-05
5.24582e-05
-4.04821e-05
5.22949e-05
-4.04967e-05
5.21373e-05
-4.05091e-05
5.19851e-05
-4.0521e-05
5.1838e-05
-4.05322e-05
5.16955e-05
-4.05422e-05
5.15578e-05
-4.05528e-05
5.14244e-05
-4.05622e-05
5.12954e-05
-4.05719e-05
5.11699e-05
-4.05797e-05
5.10482e-05
-4.05882e-05
5.093e-05
-4.05956e-05
5.08151e-05
-4.0603e-05
5.07035e-05
-4.06104e-05
5.05949e-05
-4.06173e-05
5.04893e-05
-4.06237e-05
5.03865e-05
-4.06299e-05
5.02862e-05
-4.06355e-05
5.01886e-05
-4.06417e-05
5.00935e-05
-4.06466e-05
5.00013e-05
-4.06529e-05
4.99112e-05
-4.06576e-05
4.98235e-05
-4.06633e-05
4.97379e-05
-4.06679e-05
4.96547e-05
-4.06731e-05
4.95733e-05
-4.06775e-05
4.94943e-05
-4.06827e-05
4.9417e-05
-4.0687e-05
4.9342e-05
-4.06917e-05
4.92688e-05
-4.06963e-05
4.91976e-05
-4.07007e-05
4.91285e-05
-4.07058e-05
4.90614e-05
-4.071e-05
4.89966e-05
-4.07158e-05
4.89338e-05
-4.07199e-05
4.88735e-05
-4.07266e-05
4.88153e-05
-4.07307e-05
4.87603e-05
-4.07393e-05
4.87073e-05
-4.0743e-05
4.86584e-05
-4.07543e-05
4.86118e-05
-4.07582e-05
4.85704e-05
-4.07725e-05
4.85314e-05
-4.07767e-05
4.84997e-05
-4.07966e-05
4.84707e-05
-4.08007e-05
4.84519e-05
-4.08291e-05
4.84363e-05
-4.08339e-05
4.84356e-05
-4.08721e-05
4.84402e-05
-4.08833e-05
4.84592e-05
-4.09226e-05
4.84906e-05
-4.09502e-05
4.85505e-05
-4.10255e-05
4.8622e-05
-4.10509e-05
4.87397e-05
-4.11692e-05
4.88811e-05
-4.12226e-05
4.90968e-05
-4.14195e-05
4.93676e-05
-4.15605e-05
4.9797e-05
-4.19862e-05
5.03215e-05
-4.2155e-05
5.16918e-05
-4.47122e-05
5.2594e-05
-4.36831e-05
4.75426e-05
-2.26983e-05
4.1597e-05
-2.52789e-05
3.98202e-05
-4.06406e-05
3.95172e-05
-4.19382e-05
3.94717e-05
-4.18075e-05
3.96303e-05
-4.2319e-05
3.96902e-05
-4.16387e-05
3.99172e-05
-4.22064e-05
4.02206e-05
-4.23456e-05
4.02349e-05
-4.11104e-05
4.04828e-05
-4.11864e-05
4.07264e-05
-4.15511e-05
4.09814e-05
-4.29888e-05
4.12663e-05
-4.39409e-05
4.09659e-05
-3.97715e-05
4.15289e-05
-4.15824e-05
4.17911e-05
-3.96095e-05
4.14848e-05
-3.76148e-05
4.22062e-05
-4.60985e-05
4.15353e-05
-3.98435e-05
4.10475e-05
-4.04989e-05
4.11915e-05
-3.94125e-05
4.21522e-05
-4.19687e-05
4.15695e-05
-3.70314e-05
4.22003e-05
-4.5967e-05
4.22087e-05
-4.31421e-05
4.12183e-05
-3.66598e-05
4.1646e-05
-4.20164e-05
4.22124e-05
-3.9765e-05
4.27957e-05
-4.21821e-05
4.2213e-05
-3.99211e-05
4.24979e-05
-4.46412e-05
4.17001e-05
-3.61029e-05
4.15775e-05
-3.88561e-05
4.28317e-05
-4.75921e-05
4.28041e-05
-4.27799e-05
4.19707e-05
-3.74355e-05
4.29045e-05
-4.35716e-05
4.28756e-05
-3.71427e-05
4.21674e-05
-3.67416e-05
4.20767e-05
-4.371e-05
4.24036e-05
-4.54335e-05
4.26536e-05
-4.29999e-05
4.17811e-05
-3.45921e-05
4.20607e-05
-3.98398e-05
4.24846e-05
-4.1256e-05
4.28721e-05
-4.4267e-05
4.19789e-05
-3.96619e-05
4.21746e-05
-4.33852e-05
4.27166e-05
-4.1393e-05
4.25648e-05
-3.65123e-05
4.1462e-05
-3.69028e-05
4.10376e-05
-4.03827e-05
4.33988e-05
-5.32846e-05
4.27103e-05
-3.73011e-05
4.36837e-05
-4.29093e-05
4.42681e-05
-3.93807e-05
4.35079e-05
-3.54154e-05
4.31313e-05
-4.35228e-05
4.2907e-05
-4.27186e-05
4.44963e-05
-4.82562e-05
4.43704e-05
-3.70281e-05
4.50196e-05
-4.11303e-05
4.44619e-05
-3.63082e-05
4.45623e-05
-4.16428e-05
4.36347e-05
-3.86626e-05
4.32063e-05
-4.26888e-05
4.32514e-05
-4.2623e-05
4.31331e-05
-3.76065e-05
4.31758e-05
-4.03369e-05
4.25542e-05
-3.87016e-05
4.34921e-05
-4.7928e-05
4.25706e-05
-3.60803e-05
4.37524e-05
-4.45311e-05
4.32266e-05
-3.60966e-05
4.35723e-05
-4.40952e-05
4.36759e-05
-4.35381e-05
4.27712e-05
-3.7255e-05
4.19722e-05
-3.94685e-05
4.10944e-05
-3.56249e-05
4.24249e-05
-4.44603e-05
4.20353e-05
-3.73973e-05
4.23709e-05
-4.45435e-05
4.1454e-05
-3.84986e-05
4.19916e-05
-4.26997e-05
4.23583e-05
-3.94469e-05
4.18282e-05
-3.72455e-05
4.13967e-05
-4.21842e-05
4.10824e-05
-4.18834e-05
4.21682e-05
-4.65361e-05
4.26655e-05
-4.02134e-05
4.35869e-05
-4.25785e-05
4.30854e-05
-3.91033e-05
4.32988e-05
-4.40181e-05
4.24139e-05
-3.57039e-05
4.19265e-05
-3.73867e-05
4.23471e-05
-4.50845e-05
4.26043e-05
-4.3747e-05
4.29784e-05
-4.34531e-05
4.17236e-05
-3.30036e-05
4.28101e-05
-4.34386e-05
4.32932e-05
-4.05612e-05
4.27561e-05
-3.83221e-05
4.16265e-05
-3.86232e-05
4.21632e-05
-4.53848e-05
4.37423e-05
-4.65227e-05
4.36189e-05
-3.59336e-05
4.3245e-05
-3.91169e-05
4.19518e-05
-3.74157e-05
4.16828e-05
-4.31384e-05
4.08176e-05
-3.79819e-05
4.20774e-05
-4.43936e-05
4.32362e-05
-4.22278e-05
4.35963e-05
-4.06269e-05
4.32676e-05
-4.1916e-05
4.18719e-05
-3.72172e-05
4.20101e-05
-4.41851e-05
4.18466e-05
-3.98754e-05
4.25607e-05
-4.25471e-05
4.1584e-05
-3.42065e-05
4.17734e-05
-4.31725e-05
4.12978e-05
-4.03439e-05
4.14178e-05
-4.08629e-05
4.1874e-05
-4.11446e-05
4.2378e-05
-4.09117e-05
4.37272e-05
-4.84546e-05
4.36052e-05
-4.18836e-05
4.35644e-05
-4.26642e-05
4.21222e-05
-3.45405e-05
4.23423e-05
-4.09029e-05
4.20025e-05
-3.67358e-05
4.29996e-05
-4.47391e-05
4.24032e-05
-3.89455e-05
4.12712e-05
-3.79193e-05
4.20472e-05
-4.76838e-05
4.27964e-05
-4.38481e-05
4.33066e-05
-4.08965e-05
4.25534e-05
-3.49256e-05
4.22143e-05
-4.15708e-05
4.06231e-05
-3.61461e-05
4.09398e-05
-4.21196e-05
4.08732e-05
-3.82062e-05
4.08242e-05
-4.00293e-05
4.05285e-05
-4.12382e-05
4.14373e-05
-4.70575e-05
4.27217e-05
-4.69907e-05
4.28565e-05
-3.81182e-05
4.33256e-05
-4.04232e-05
4.25443e-05
-3.60543e-05
4.22422e-05
-4.2354e-05
4.10147e-05
-3.80786e-05
4.20027e-05
-4.64172e-05
4.14412e-05
-3.62202e-05
4.13573e-05
-3.85875e-05
4.10051e-05
-3.86299e-05
4.06164e-05
-4.07283e-05
4.08329e-05
-4.53174e-05
4.13349e-05
-4.28103e-05
4.26935e-05
-4.48475e-05
4.28861e-05
-3.71881e-05
4.45035e-05
-4.6889e-05
4.30996e-05
-3.53829e-05
4.2477e-05
-4.12675e-05
4.16368e-05
-3.66942e-05
4.18837e-05
-4.09706e-05
4.11339e-05
-3.84771e-05
4.17853e-05
-4.64332e-05
4.2435e-05
-4.38645e-05
4.24165e-05
-3.80251e-05
4.23278e-05
-3.98457e-05
4.11295e-05
-3.64756e-05
4.0608e-05
-4.27491e-05
4.03901e-05
-4.00157e-05
4.2479e-05
-4.77628e-05
4.2149e-05
-3.59798e-05
4.30002e-05
-4.60351e-05
4.18882e-05
-3.74702e-05
4.13582e-05
-4.08888e-05
4.04945e-05
-3.60699e-05
4.01183e-05
-3.91491e-05
3.92546e-05
-3.84499e-05
4.04168e-05
-4.77262e-05
3.99396e-05
-3.78149e-05
4.06216e-05
-4.29612e-05
4.1672e-05
-4.60343e-05
4.19164e-05
-4.19017e-05
4.26527e-05
-4.54993e-05
4.10893e-05
-3.51054e-05
4.0895e-05
-4.23553e-05
4.10523e-05
-4.18786e-05
4.1491e-05
-4.32908e-05
4.18615e-05
-4.17529e-05
4.25088e-05
-4.36585e-05
4.31066e-05
-4.20921e-05
4.37652e-05
-4.38586e-05
4.60444e-05
-4.60996e-05
5.17942e-05
-5.89839e-05
5.2267e-05
-3.84957e-05
4.91453e-05
-2.83771e-05
4.61619e-05
-3.43773e-05
-3.67928e-05
0.000102569
1.06419e-05
0.00010099
-1.82525e-06
9.72211e-05
-1.46516e-05
9.20747e-05
-2.29209e-05
8.73721e-05
-2.7921e-05
8.34179e-05
-3.08894e-05
8.01889e-05
-3.29171e-05
7.75791e-05
-3.43541e-05
7.54535e-05
-3.54536e-05
7.36819e-05
-3.6289e-05
7.2183e-05
-3.6922e-05
7.08943e-05
-3.74162e-05
6.97719e-05
-3.78317e-05
6.87849e-05
-3.81845e-05
6.78983e-05
-3.84506e-05
6.70986e-05
-3.86759e-05
6.63751e-05
-3.88686e-05
6.57183e-05
-3.90429e-05
6.51175e-05
-3.91943e-05
6.45613e-05
-3.93156e-05
6.40455e-05
-3.94196e-05
6.35664e-05
-3.9515e-05
6.31205e-05
-3.96025e-05
6.27036e-05
-3.96824e-05
6.23117e-05
-3.97508e-05
6.19425e-05
-3.98123e-05
6.15946e-05
-3.98694e-05
6.12657e-05
-3.99208e-05
6.09549e-05
-3.99717e-05
6.06594e-05
-4.0014e-05
6.03783e-05
-4.00541e-05
6.01104e-05
-4.00899e-05
5.9855e-05
-4.01242e-05
5.96111e-05
-4.01565e-05
5.93779e-05
-4.01867e-05
5.91542e-05
-4.02135e-05
5.89394e-05
-4.02381e-05
5.87333e-05
-4.02625e-05
5.85349e-05
-4.02837e-05
5.83443e-05
-4.03061e-05
5.81605e-05
-4.03253e-05
5.79831e-05
-4.03436e-05
5.78119e-05
-4.0361e-05
5.76462e-05
-4.03765e-05
5.74863e-05
-4.03929e-05
5.73315e-05
-4.04073e-05
5.71817e-05
-4.04222e-05
5.70363e-05
-4.04343e-05
5.68954e-05
-4.04473e-05
5.67585e-05
-4.04587e-05
5.66257e-05
-4.04702e-05
5.64966e-05
-4.04814e-05
5.63713e-05
-4.04919e-05
5.62493e-05
-4.05017e-05
5.61307e-05
-4.05113e-05
5.6015e-05
-4.05199e-05
5.59026e-05
-4.05293e-05
5.5793e-05
-4.05369e-05
5.56866e-05
-4.05465e-05
5.55827e-05
-4.05537e-05
5.54816e-05
-4.05622e-05
5.5383e-05
-4.05692e-05
5.52871e-05
-4.05772e-05
5.51933e-05
-4.05838e-05
5.51023e-05
-4.05916e-05
5.50133e-05
-4.0598e-05
5.49269e-05
-4.06053e-05
5.48426e-05
-4.0612e-05
5.47607e-05
-4.06188e-05
5.4681e-05
-4.06261e-05
5.46037e-05
-4.06327e-05
5.45289e-05
-4.0641e-05
5.44564e-05
-4.06475e-05
5.43867e-05
-4.06568e-05
5.43193e-05
-4.06633e-05
5.42554e-05
-4.06754e-05
5.41938e-05
-4.06814e-05
5.41366e-05
-4.0697e-05
5.4082e-05
-4.07035e-05
5.40328e-05
-4.07233e-05
5.39865e-05
-4.07304e-05
5.39476e-05
-4.07577e-05
5.39119e-05
-4.0765e-05
5.38867e-05
-4.08038e-05
5.38653e-05
-4.08125e-05
5.38589e-05
-4.08657e-05
5.38592e-05
-4.08837e-05
5.38746e-05
-4.0938e-05
5.39024e-05
-4.0978e-05
5.3959e-05
-4.10821e-05
5.40292e-05
-4.11211e-05
5.41456e-05
-4.12857e-05
5.42874e-05
-4.13645e-05
5.45041e-05
-4.16361e-05
5.4776e-05
-4.18324e-05
5.52051e-05
-4.24153e-05
5.5732e-05
-4.26819e-05
5.70424e-05
-4.60226e-05
5.7623e-05
-4.42636e-05
5.38331e-05
-1.89084e-05
4.84737e-05
-1.99195e-05
4.58007e-05
-3.79676e-05
4.49305e-05
-4.10679e-05
4.45623e-05
-4.14393e-05
4.44862e-05
-4.22429e-05
4.44552e-05
-4.16077e-05
4.45919e-05
-4.23431e-05
4.48217e-05
-4.25755e-05
4.48279e-05
-4.11166e-05
4.50644e-05
-4.14229e-05
4.52453e-05
-4.17319e-05
4.5506e-05
-4.32495e-05
4.57701e-05
-4.4205e-05
4.56151e-05
-3.96164e-05
4.60604e-05
-4.20278e-05
4.62993e-05
-3.98484e-05
4.62803e-05
-3.75958e-05
4.65913e-05
-4.64096e-05
4.6235e-05
-3.94872e-05
4.57338e-05
-3.99978e-05
4.59284e-05
-3.9607e-05
4.6551e-05
-4.25913e-05
4.63053e-05
-3.67857e-05
4.67148e-05
-4.63765e-05
4.67361e-05
-4.31633e-05
4.61313e-05
-3.6055e-05
4.62709e-05
-4.2156e-05
4.68676e-05
-4.03617e-05
4.72656e-05
-4.25801e-05
4.70302e-05
-3.96857e-05
4.70814e-05
-4.46924e-05
4.6542e-05
-3.55634e-05
4.64058e-05
-3.87199e-05
4.73127e-05
-4.84989e-05
4.73902e-05
-4.28574e-05
4.69325e-05
-3.69778e-05
4.75037e-05
-4.41429e-05
4.75509e-05
-3.71899e-05
4.70301e-05
-3.62207e-05
4.68463e-05
-4.35263e-05
4.71177e-05
-4.57049e-05
4.72185e-05
-4.31007e-05
4.67149e-05
-3.40886e-05
4.67718e-05
-3.98966e-05
4.72161e-05
-4.17003e-05
4.74518e-05
-4.45026e-05
4.68213e-05
-3.90314e-05
4.68919e-05
-4.34558e-05
4.72974e-05
-4.17985e-05
4.7285e-05
-3.64999e-05
4.64372e-05
-3.6055e-05
4.63077e-05
-4.02532e-05
4.76753e-05
-5.46522e-05
4.75509e-05
-3.71767e-05
4.82761e-05
-4.36344e-05
4.88443e-05
-3.9949e-05
4.84666e-05
-3.50376e-05
4.80068e-05
-4.30629e-05
4.80846e-05
-4.27965e-05
4.90632e-05
-4.92347e-05
4.93207e-05
-3.72856e-05
4.96965e-05
-4.15062e-05
4.94724e-05
-3.60841e-05
4.94002e-05
-4.15705e-05
4.86787e-05
-3.79411e-05
4.82069e-05
-4.2217e-05
4.81396e-05
-4.25556e-05
4.81181e-05
-3.7585e-05
4.79734e-05
-4.01922e-05
4.77595e-05
-3.84877e-05
4.80047e-05
-4.81732e-05
4.7689e-05
-3.57646e-05
4.83508e-05
-4.51928e-05
4.81617e-05
-3.59075e-05
4.83238e-05
-4.42573e-05
4.83717e-05
-4.3586e-05
4.77777e-05
-3.6661e-05
4.69105e-05
-3.86013e-05
4.63446e-05
-3.50591e-05
4.69589e-05
-4.50746e-05
4.69329e-05
-3.73712e-05
4.69626e-05
-4.45732e-05
4.6371e-05
-3.79071e-05
4.6676e-05
-4.30046e-05
4.69808e-05
-3.97517e-05
4.66364e-05
-3.69011e-05
4.61541e-05
-4.17018e-05
4.60214e-05
-4.17508e-05
4.66818e-05
-4.71965e-05
4.73777e-05
-4.09092e-05
4.808e-05
-4.32808e-05
4.79038e-05
-3.89271e-05
4.79427e-05
-4.4057e-05
4.73043e-05
-3.50656e-05
4.6883e-05
-3.69654e-05
4.70482e-05
-4.52497e-05
4.73561e-05
-4.40548e-05
4.74456e-05
-4.35427e-05
4.67792e-05
-3.23372e-05
4.7432e-05
-4.40913e-05
4.79457e-05
-4.10749e-05
4.75303e-05
-3.79067e-05
4.66668e-05
-3.77597e-05
4.70606e-05
-4.57786e-05
4.81484e-05
-4.76105e-05
4.83474e-05
-3.61327e-05
4.78848e-05
-3.86542e-05
4.6919e-05
-3.645e-05
4.64144e-05
-4.26338e-05
4.5835e-05
-3.74026e-05
4.67357e-05
-4.52942e-05
4.77706e-05
-4.32627e-05
4.81588e-05
-4.1015e-05
4.78214e-05
-4.15786e-05
4.69454e-05
-3.63412e-05
4.67583e-05
-4.39981e-05
4.67672e-05
-3.98843e-05
4.70516e-05
-4.28314e-05
4.64951e-05
-3.365e-05
4.64298e-05
-4.31072e-05
4.61016e-05
-4.00157e-05
4.61852e-05
-4.09464e-05
4.65308e-05
-4.14902e-05
4.71518e-05
-4.15327e-05
4.80934e-05
-4.93962e-05
4.82696e-05
-4.20598e-05
4.80881e-05
-4.24827e-05
4.72195e-05
-3.36719e-05
4.70539e-05
-4.07373e-05
4.69179e-05
-3.65998e-05
4.75519e-05
-4.53731e-05
4.71533e-05
-3.85469e-05
4.63453e-05
-3.71114e-05
4.6674e-05
-4.80125e-05
4.74248e-05
-4.45989e-05
4.78336e-05
-4.13053e-05
4.74574e-05
-3.45494e-05
4.68531e-05
-4.09665e-05
4.56497e-05
-3.49427e-05
4.56247e-05
-4.20946e-05
4.55962e-05
-3.81776e-05
4.54826e-05
-3.99157e-05
4.52966e-05
-4.10521e-05
4.60557e-05
-4.78166e-05
4.7075e-05
-4.801e-05
4.74692e-05
-3.85124e-05
4.77339e-05
-4.06879e-05
4.73854e-05
-3.57058e-05
4.6836e-05
-4.18046e-05
4.60511e-05
-3.72937e-05
4.65193e-05
-4.68854e-05
4.62225e-05
-3.59233e-05
4.6043e-05
-3.84081e-05
4.57322e-05
-3.83191e-05
4.54268e-05
-4.04228e-05
4.54466e-05
-4.53372e-05
4.60499e-05
-4.34137e-05
4.70304e-05
-4.58281e-05
4.76785e-05
-3.78362e-05
4.87005e-05
-4.79109e-05
4.79513e-05
-3.46337e-05
4.71727e-05
-4.04889e-05
4.6577e-05
-3.60985e-05
4.65208e-05
-4.09144e-05
4.60005e-05
-3.79567e-05
4.64179e-05
-4.68507e-05
4.69786e-05
-4.44252e-05
4.70916e-05
-3.8138e-05
4.68448e-05
-3.95988e-05
4.60513e-05
-3.56821e-05
4.5416e-05
-4.21139e-05
4.54614e-05
-4.0061e-05
4.67401e-05
-4.90415e-05
4.69551e-05
-3.61948e-05
4.73526e-05
-4.64326e-05
4.6722e-05
-3.68396e-05
4.59977e-05