/*--------------------------------*- C++ -*----------------------------------*\
| =========                 |                                                 |
| \\      /  F ield         | foam-extend: Open Source CFD                    |
|  \\    /   O peration     | Version:     3.2                                |
|   \\  /    A nd           | Web:         http://www.foam-extend.org         |
|    \\/     M anipulation  | For copyright notice see file Copyright         |
\*---------------------------------------------------------------------------*/
FoamFile
{
    version     2.0;
    format      ascii;
    class       areaVectorField;
    location    "160";
    object      aMeshCentreN;
}
// * * * * * * * * * * * * * * * * * * * * * * * * * * * * * * * * * * * * * //

dimensions      [0 0 0 0 0 0 0];

internalField   nonuniform List<vector> 
300
(
(0.025 0.01 0)
(0.075 0.01 0)
(0.125 0.01 0)
(0.175 0.01 0)
(0.225 0.01 0)
(0.275 0.01 0)
(0.325 0.01 0)
(0.375 0.01 0)
(0.425 0.01 0)
(0.475 0.01 0)
(0.525 0.01 0)
(0.575 0.01 0)
(0.625 0.01 0)
(0.675 0.01 0)
(0.725 0.01 0)
(0.775 0.01 0)
(0.825 0.01 0)
(0.875 0.01 0)
(0.925 0.01 0)
(0.975 0.01 0)
(1.025 0.01 0)
(1.075 0.01 0)
(1.125 0.01 0)
(1.175 0.01 0)
(1.225 0.01 0)
(1.275 0.01 0)
(1.325 0.01 0)
(1.375 0.01 0)
(1.425 0.01 0)
(1.475 0.01 0)
(1.525 0.01 0)
(1.575 0.01 0)
(1.625 0.01 0)
(1.675 0.01 0)
(1.725 0.01 0)
(1.775 0.01 0)
(1.825 0.01 0)
(1.875 0.01 0)
(1.925 0.01 0)
(1.975 0.01 0)
(2.025 0.01 0)
(2.075 0.01 0)
(2.125 0.01 0)
(2.175 0.01 0)
(2.225 0.01 0)
(2.275 0.01 0)
(2.325 0.01 0)
(2.375 0.01 0)
(2.425 0.01 0)
(2.475 0.01 0)
(2.525 0.01 0)
(2.575 0.01 0)
(2.625 0.01 0)
(2.675 0.01 0)
(2.725 0.01 0)
(2.775 0.01 0)
(2.825 0.01 0)
(2.875 0.01 0)
(2.925 0.01 0)
(2.975 0.01 0)
(3.025 0.01 0)
(3.075 0.01 0)
(3.125 0.01 0)
(3.175 0.01 0)
(3.225 0.01 0)
(3.275 0.01 0)
(3.325 0.01 0)
(3.375 0.01 0)
(3.425 0.01 0)
(3.475 0.01 0)
(3.525 0.01 0)
(3.575 0.01 0)
(3.625 0.01 0)
(3.675 0.01 0)
(3.725 0.01 0)
(3.775 0.01 0)
(3.825 0.01 0)
(3.875 0.01 0)
(3.925 0.01 0)
(3.975 0.01 0)
(4.025 0.01 0)
(4.075 0.01 0)
(4.125 0.01 0)
(4.175 0.01 0)
(4.225 0.01 0)
(4.275 0.01 0)
(4.325 0.01 0)
(4.375 0.01 0)
(4.425 0.01 0)
(4.475 0.01 0)
(4.525 0.01 0)
(4.575 0.01 0)
(4.625 0.01 0)
(4.675 0.01 0)
(4.725 0.01 0)
(4.775 0.01 0)
(4.825 0.01 0)
(4.875 0.01 0)
(4.925 0.01 0)
(4.975 0.01 -0.00187018)
(5.025 0.01 -0.0062125)
(5.075 0.01 -0.0103793)
(5.125 0.01 -0.0134733)
(5.175 0.01 -0.0162054)
(5.225 0.01 -0.0186001)
(5.275 0.01 -0.0206853)
(5.325 0.01 -0.02258)
(5.375 0.01 -0.0242052)
(5.425 0.01 -0.0256886)
(5.475 0.01 -0.0270964)
(5.525 0.01 -0.028302)
(5.575 0.01 -0.0293425)
(5.625 0.01 -0.0301696)
(5.675 0.01 -0.0310725)
(5.725 0.01 -0.031986)
(5.775 0.01 -0.0324479)
(5.825 0.01 -0.0332884)
(5.875 0.01 -0.0338367)
(5.925 0.01 -0.0343267)
(5.975 0.01 -0.0351954)
(6.025 0.01 -0.0358453)
(6.075 0.01 -0.0361062)
(6.125 0.01 -0.0365481)
(6.175 0.01 -0.0370138)
(6.225 0.01 -0.0367645)
(6.275 0.01 -0.037283)
(6.325 0.01 -0.0377152)
(6.375 0.01 -0.0376801)
(6.425 0.01 -0.0376011)
(6.475 0.01 -0.0377308)
(6.525 0.01 -0.0378066)
(6.575 0.01 -0.037932)
(6.625 0.01 -0.0386294)
(6.675 0.01 -0.0385091)
(6.725 0.01 -0.0379183)
(6.775 0.01 -0.0381531)
(6.825 0.01 -0.038177)
(6.875 0.01 -0.0378469)
(6.925 0.01 -0.0383307)
(6.975 0.01 -0.0386583)
(7.025 0.01 -0.0385506)
(7.075 0.01 -0.0382968)
(7.125 0.01 -0.0385463)
(7.175 0.01 -0.0388485)
(7.225 0.01 -0.038661)
(7.275 0.01 -0.0383127)
(7.325 0.01 -0.0382567)
(7.375 0.01 -0.0384114)
(7.425 0.01 -0.0379239)
(7.475 0.01 -0.0377421)
(7.525 0.01 -0.037802)
(7.575 0.01 -0.0379953)
(7.625 0.01 -0.0370064)
(7.675 0.01 -0.0359509)
(7.725 0.01 -0.0356053)
(7.775 0.01 -0.0344152)
(7.825 0.01 -0.0340886)
(7.875 0.01 -0.0338143)
(7.925 0.01 -0.0332395)
(7.975 0.01 -0.0322335)
(8.025 0.01 -0.0313242)
(8.075 0.01 -0.0307284)
(8.125 0.01 -0.0302934)
(8.175 0.01 -0.0302201)
(8.225 0.01 -0.0301572)
(8.275 0.01 -0.0305641)
(8.325 0.01 -0.0304797)
(8.375 0.01 -0.0305462)
(8.425 0.01 -0.0305621)
(8.475 0.01 -0.0307059)
(8.525 0.01 -0.0304531)
(8.575 0.01 -0.0303828)
(8.625 0.01 -0.03026)
(8.675 0.01 -0.0299161)
(8.725 0.01 -0.0301979)
(8.775 0.01 -0.0298116)
(8.825 0.01 -0.0301599)
(8.875 0.01 -0.0307917)
(8.925 0.01 -0.0314584)
(8.975 0.01 -0.0316045)
(9.025 0.01 -0.0316494)
(9.075 0.01 -0.0318523)
(9.125 0.01 -0.0320708)
(9.175 0.01 -0.0325131)
(9.225 0.01 -0.0322993)
(9.275 0.01 -0.032649)
(9.325 0.01 -0.0330247)
(9.375 0.01 -0.0331917)
(9.425 0.01 -0.0328532)
(9.475 0.01 -0.0322784)
(9.525 0.01 -0.0317518)
(9.575 0.01 -0.031464)
(9.625 0.01 -0.0313396)
(9.675 0.01 -0.0312753)
(9.725 0.01 -0.0319908)
(9.775 0.01 -0.0320409)
(9.825 0.01 -0.0317736)
(9.875 0.01 -0.0314724)
(9.925 0.01 -0.0317374)
(9.975 0.01 -0.0318555)
(10.025 0.01 -0.0311448)
(10.075 0.01 -0.0311102)
(10.125 0.01 -0.0314848)
(10.175 0.01 -0.0316409)
(10.225 0.01 -0.03087)
(10.275 0.01 -0.0304832)
(10.325 0.01 -0.0307027)
(10.375 0.01 -0.0312143)
(10.425 0.01 -0.0316955)
(10.475 0.01 -0.0321286)
(10.525 0.01 -0.0322271)
(10.575 0.01 -0.0313244)
(10.625 0.01 -0.0308915)
(10.675 0.01 -0.0306934)
(10.725 0.01 -0.0310413)
(10.775 0.01 -0.0313241)
(10.825 0.01 -0.0313754)
(10.875 0.01 -0.0313223)
(10.925 0.01 -0.0315848)
(10.975 0.01 -0.0320197)
(11.025 0.01 -0.0319567)
(11.075 0.01 -0.0321634)
(11.125 0.01 -0.0318202)
(11.175 0.01 -0.03145)
(11.225 0.01 -0.030648)
(11.275 0.01 -0.0299243)
(11.325 0.01 -0.029653)
(11.375 0.01 -0.0298982)
(11.425 0.01 -0.0302483)
(11.475 0.01 -0.0304136)
(11.525 0.01 -0.0303863)
(11.575 0.01 -0.0299904)
(11.625 0.01 -0.0306436)
(11.675 0.01 -0.0307306)
(11.725 0.01 -0.0301617)
(11.775 0.01 -0.0298459)
(11.825 0.01 -0.0301742)
(11.875 0.01 -0.030675)
(11.925 0.01 -0.031391)
(11.975 0.01 -0.0320861)
(12.025 0.01 -0.0322711)
(12.075 0.01 -0.0326501)
(12.125 0.01 -0.0327811)
(12.175 0.01 -0.0325199)
(12.225 0.01 -0.0314681)
(12.275 0.01 -0.0308293)
(12.325 0.01 -0.0305287)
(12.375 0.01 -0.03058)
(12.425 0.01 -0.0308012)
(12.475 0.01 -0.0311551)
(12.525 0.01 -0.0311331)
(12.575 0.01 -0.0309419)
(12.625 0.01 -0.0314649)
(12.675 0.01 -0.0316223)
(12.725 0.01 -0.0319575)
(12.775 0.01 -0.0317586)
(12.825 0.01 -0.0312325)
(12.875 0.01 -0.0302721)
(12.925 0.01 -0.0294934)
(12.975 0.01 -0.0285859)
(13.025 0.01 -0.0281149)
(13.075 0.01 -0.028547)
(13.125 0.01 -0.028919)
(13.175 0.01 -0.0292207)
(13.225 0.01 -0.0294625)
(13.275 0.01 -0.0296064)
(13.325 0.01 -0.0288482)
(13.375 0.01 -0.0286405)
(13.425 0.01 -0.0286658)
(13.475 0.01 -0.0290225)
(13.525 0.01 -0.0292971)
(13.575 0.01 -0.0292982)
(13.625 0.01 -0.0286305)
(13.675 0.01 -0.0280689)
(13.725 0.01 -0.0277166)
(13.775 0.01 -0.0275368)
(13.825 0.01 -0.0280812)
(13.875 0.01 -0.028661)
(13.925 0.01 -0.0292667)
(13.975 0.01 -0.0297865)
(14.025 0.01 -0.0295668)
(14.075 0.01 -0.0289718)
(14.125 0.01 -0.0288223)
(14.175 0.01 -0.0276013)
(14.225 0.01 -0.0265236)
(14.275 0.01 -0.0254464)
(14.325 0.01 -0.0248643)
(14.375 0.01 -0.0246531)
(14.425 0.01 -0.0237387)
(14.475 0.01 -0.0224997)
(14.525 0.01 -0.0210143)
(14.575 0.01 -0.019162)
(14.625 0.01 -0.0169785)
(14.675 0.01 -0.0142596)
(14.725 0.01 -0.0110187)
(14.775 0.01 -0.00637005)
(14.825 0.01 -0.00159808)
(14.875 0.01 0)
(14.925 0.01 0)
(14.975 0.01 0)
)
;

boundaryField
{
    inlet
    {
        type            calculated;
        value           uniform (0 0 0);
    }
    outlet
    {
        type            calculated;
        value           uniform (0 0 0);
    }
    sideWall
    {
        type            empty;
    }
}


// ************************************************************************* //
