/*--------------------------------*- C++ -*----------------------------------*\
| =========                 |                                                 |
| \\      /  F ield         | foam-extend: Open Source CFD                    |
|  \\    /   O peration     | Version:     3.2                                |
|   \\  /    A nd           | Web:         http://www.foam-extend.org         |
|    \\/     M anipulation  | For copyright notice see file Copyright         |
\*---------------------------------------------------------------------------*/
FoamFile
{
    version     2.0;
    format      ascii;
    class       areaVectorField;
    location    "160";
    object      aUf;
}
// * * * * * * * * * * * * * * * * * * * * * * * * * * * * * * * * * * * * * //

dimensions      [0 1 -1 0 0 0 0];

internalField   nonuniform List<vector> 
300
(
(2.31223 0 0.0560184)
(2.06385 0 0.0276193)
(1.71914 0 0.00543647)
(1.55785 0 -0.00117482)
(1.49252 0 -0.00120525)
(1.4571 0 -0.000527341)
(1.43089 0 -0.000296708)
(1.40756 0 -0.000136743)
(1.38574 0 -3.07715e-05)
(1.36563 0 1.01753e-05)
(1.34743 0 2.3003e-05)
(1.33095 0 4.61377e-05)
(1.31586 0 5.79231e-05)
(1.30226 0 6.51598e-05)
(1.28989 0 6.69647e-05)
(1.27854 0 6.66115e-05)
(1.26807 0 6.89628e-05)
(1.25833 0 6.84624e-05)
(1.24935 0 7.10742e-05)
(1.2411 0 7.16923e-05)
(1.23338 0 7.08905e-05)
(1.2261 0 6.94235e-05)
(1.21921 0 6.76462e-05)
(1.21272 0 6.4418e-05)
(1.20659 0 6.20784e-05)
(1.20076 0 5.99355e-05)
(1.19522 0 5.81679e-05)
(1.18994 0 5.64791e-05)
(1.18491 0 5.38071e-05)
(1.18013 0 5.22015e-05)
(1.17554 0 5.02578e-05)
(1.17115 0 4.90921e-05)
(1.16692 0 4.74523e-05)
(1.16289 0 4.60125e-05)
(1.15899 0 4.4223e-05)
(1.15527 0 4.30534e-05)
(1.15165 0 4.1875e-05)
(1.14819 0 4.05771e-05)
(1.14482 3.0782e-39 3.98438e-05)
(1.14158 2.9478e-39 3.81526e-05)
(1.13845 0 3.74172e-05)
(1.13542 0 3.61773e-05)
(1.13248 0 3.5432e-05)
(1.12964 0 3.45455e-05)
(1.12687 -1.96733e-38 3.35773e-05)
(1.1242 0 3.27299e-05)
(1.12159 0 3.1716e-05)
(1.11908 0 3.12476e-05)
(1.1166 0 3.02757e-05)
(1.11423 0 2.97676e-05)
(1.11189 0 2.90227e-05)
(1.10964 -6.30664e-38 2.82379e-05)
(1.10742 0 2.7589e-05)
(1.10528 0 2.69435e-05)
(1.10317 0 2.64248e-05)
(1.10114 0 2.58786e-05)
(1.09913 -2.18167e-37 2.51025e-05)
(1.09721 2.09264e-37 2.58638e-05)
(1.09526 0 2.54939e-05)
(1.09342 0 2.5076e-05)
(1.09156 0 2.43909e-05)
(1.08981 -7.43021e-37 2.37602e-05)
(1.08803 0 2.33055e-05)
(1.08638 0 2.25667e-05)
(1.08467 0 2.21304e-05)
(1.08311 0 2.13337e-05)
(1.08148 0 2.10906e-05)
(1.08001 0 2.00457e-05)
(1.07844 -2.45371e-36 2.00484e-05)
(1.07707 -4.71682e-36 1.86367e-05)
(1.07557 0 1.88819e-05)
(1.07429 0 1.70635e-05)
(1.07287 0 1.75808e-05)
(1.07169 0 1.53723e-05)
(1.07035 0 1.6065e-05)
(1.06929 1.45622e-35 1.31519e-05)
(1.06805 0 1.43616e-05)
(1.06711 2.53502e-35 1.03865e-05)
(1.06599 -2.56336e-35 1.20584e-05)
(1.06521 0 7.01828e-06)
(1.06425 4.28256e-35 9.15206e-06)
(1.06364 2.9242e-35 2.2293e-06)
(1.0629 0 6.09904e-06)
(1.06251 0 -3.45153e-06)
(1.0621 -3.15633e-35 9.38846e-07)
(1.06196 0 -1.0065e-05)
(1.06198 2.62753e-35 -9.49675e-06)
(1.06227 -2.4082e-34 -2.2606e-05)
(1.06275 0 -2.2015e-05)
(1.06373 0 -4.25599e-05)
(1.06516 0 -4.20035e-05)
(1.06699 0 -6.78916e-05)
(1.06984 0 -6.91612e-05)
(1.07301 0 -0.000118797)
(1.07872 0 -0.000149676)
(1.08456 0 -0.000251477)
(1.09765 0 -0.00022913)
(1.10301 0 -0.00112622)
(1.17148 0 0.000977163)
(1.12838 2.65369e-23 -0.0754208)
(0.880284 2.66455e-23 -0.0832437)
(0.856038 0 -0.0627235)
(0.878311 -3.26731e-24 -0.0511312)
(0.876366 8.8983e-24 -0.0477188)
(0.886974 0 -0.0389169)
(0.890998 -3.38996e-24 -0.0372521)
(0.890304 0 -0.032)
(0.900881 -3.45604e-24 -0.0281362)
(0.902887 -2.48187e-24 -0.0265088)
(0.898986 3.19512e-29 -0.0241984)
(0.909783 -1.77391e-24 -0.0196019)
(0.907692 2.23567e-24 -0.0208694)
(0.924183 1.09817e-23 -0.0147837)
(0.92082 -4.01103e-24 -0.0203125)
(0.895844 0 -0.0110223)
(0.959195 0 -0.00351216)
(0.894738 2.75954e-27 -0.0217962)
(0.934698 4.19509e-25 0.00138252)
(0.930544 0 -0.0242026)
(0.909113 1.66547e-24 -0.00852698)
(0.90102 3.02375e-24 -0.0126317)
(0.934664 7.0466e-24 0.00650202)
(0.924811 0 -0.0191376)
(0.897857 0 -0.000583172)
(0.972145 3.30562e-24 0.000997442)
(0.892272 0 -0.0181178)
(0.91259 0 0.00674866)
(0.924348 -4.25005e-28 -0.00348406)
(0.946333 2.23692e-24 0.00774995)
(0.926833 0 -0.013903)
(0.931891 2.41103e-24 0.00705777)
(0.942086 -1.37823e-24 -0.0105558)
(0.885531 2.56341e-24 -0.00765661)
(0.927683 0 0.00832242)
(0.978298 3.31076e-24 0.00445981)
(0.90897 4.76202e-24 -0.0120418)
(0.925345 4.18352e-24 0.0138566)
(0.973855 0 0.00181991)
(0.901693 0 -0.0113646)
(0.922069 1.31132e-24 -0.00146426)
(0.921972 0 -0.00454239)
(0.965051 0 0.00686422)
(0.920804 4.15749e-24 -0.0111046)
(0.911495 0 0.00823629)
(0.927556 0 0.000158433)
(0.943733 0 0.00890991)
(0.939905 0 -0.0105666)
(0.894994 0 0.00169499)
(0.967751 0 0.0144357)
(0.917616 0 -0.00122891)
(0.949039 -9.44274e-25 0.00646673)
(0.854121 1.71543e-24 -0.011108)
(0.950396 0 0.0393556)
(0.974406 -1.79993e-27 -0.00540532)
(0.910282 -5.64824e-24 0.0212495)
(1.01271 -6.60549e-24 0.0268229)
(0.919504 0 -0.0047845)
(0.949881 3.21425e-24 0.0164874)
(0.919211 -5.24704e-25 -0.00197806)
(0.983836 -1.14085e-26 0.0339374)
(0.978052 0 0.00153102)
(0.974991 0 0.0265142)
(0.982435 0 -0.00486894)
(0.955287 2.33343e-24 0.00988901)
(0.974463 1.13974e-27 -0.00855118)
(0.907885 0 -0.00958625)
(0.979557 -1.43562e-24 0.00786173)
(0.917556 -1.45786e-24 -0.00622184)
(0.974391 -1.87503e-24 0.0123386)
(0.904788 -9.23698e-25 -0.015063)
(0.971918 1.98213e-23 0.0208936)
(0.935699 2.0555e-23 -0.019443)
(0.936889 1.17692e-23 0.0271148)
(0.975985 2.10341e-24 -0.0109376)
(0.912788 1.74096e-25 0.000537027)
(0.997746 0 0.00694337)
(0.915163 6.03743e-24 -0.0187053)
(0.944816 0 -0.000213987)
(0.880732 4.86506e-24 -0.0171529)
(0.931783 2.78429e-27 0.0189945)
(0.929503 1.03385e-24 -0.017785)
(0.922689 8.23602e-25 0.00766506)
(0.93231 0 -0.0192967)
(0.891909 3.96675e-25 0.00340275)
(0.960281 0 0.00605132)
(0.895597 -3.54704e-24 -0.0125165)
(0.921595 -3.04917e-25 -0.000425006)
(0.889054 -3.36182e-24 -0.0105349)
(0.932271 -3.94423e-27 0.0168987)
(0.938613 1.04302e-27 0.00141405)
(0.957403 -1.07582e-23 0.0197788)
(0.952681 1.35687e-24 -0.00875511)
(0.938557 -2.87434e-24 0.00992209)
(0.963061 0 -0.00622147)
(0.877497 -4.63965e-24 -0.0107083)
(0.942998 0 0.00894566)
(0.922385 1.5958e-24 -0.00715322)
(0.972229 0 0.0135623)
(0.919043 0 -0.0162606)
(0.904592 0 0.019314)
(0.973148 -1.82995e-24 0.00820483)
(0.930118 0 -0.00379332)
(0.923441 -3.47782e-24 -0.00889641)
(0.883467 0 -0.00157494)
(0.982862 0 0.0231998)
(0.958448 0 -0.00548354)
(0.951104 0 0.00395034)
(0.919172 -3.77073e-24 -0.0202911)
(0.914975 -2.40147e-28 0.00112321)
(0.90635 0 -0.0166475)
(0.887666 0 0.0140051)
(0.972886 -6.72915e-24 0.0187826)
(0.929526 -2.50806e-25 -0.00126469)
(0.979031 0 0.00605388)
(0.908865 0 -0.0192765)
(0.925587 -2.17517e-24 0.0073123)
(0.915173 -3.38151e-24 -0.0108466)
(0.943014 0 0.0147683)
(0.922503 0 -0.0177294)
(0.89331 8.93772e-25 0.0051775)
(0.931152 0 -0.00619167)
(0.876421 1.01313e-25 -0.00104585)
(0.947525 -5.78468e-24 0.0153281)
(0.898587 0 -0.000792731)
(0.968846 -9.70757e-24 0.0244941)
(0.957569 -1.87979e-24 -0.00516893)
(0.973939 0 0.0123143)
(0.929562 6.12102e-24 -0.017088)
(0.9165 0 0.0104285)
(0.924109 0 -0.0110262)
(0.911132 0 0.0131141)
(0.98222 0 -0.00127049)
(0.863002 -4.99234e-24 -0.0194823)
(0.916777 4.17722e-24 0.0118812)
(0.939357 -5.27122e-25 0.000776793)
(0.978634 -1.10111e-24 0.0107969)
(0.918641 0 -0.0154016)
(0.935096 -1.18442e-25 0.00122885)
(0.900925 1.12595e-23 -0.0255001)
(0.879795 0 0.0033011)
(0.911214 2.17152e-24 -0.0071522)
(0.88474 0 -0.00269542)
(0.901526 0 -0.00301333)
(0.872107 -2.78086e-24 0.00427893)
(0.975655 0 0.0249312)
(0.936503 0 -0.000317382)
(0.965253 6.64569e-24 0.0169186)
(0.920632 -3.27004e-24 -0.0125903)
(0.939311 0 0.00665916)
(0.894911 0 -0.0199844)
(0.913734 -2.05921e-24 0.0181322)
(0.941333 2.93698e-27 -0.0109939)
(0.883683 0 -0.000701708)
(0.925689 0 -0.000219888)
(0.85794 -1.25831e-24 -0.0102655)
(0.922483 5.41412e-24 0.01253)
(0.883028 4.47982e-25 0.000276409)
(0.967989 0 0.0326498)
(0.91912 1.62717e-24 9.15694e-05)
(0.978898 -1.58325e-26 0.0368096)
(0.965704 -4.79932e-24 -0.0181214)
(0.919534 7.71868e-25 0.00248249)
(0.915013 1.18528e-24 -0.0136489)
(0.90631 0 0.00794173)
(0.914771 2.30461e-24 -0.0147481)
(0.87836 2.10599e-24 0.00438117)
(0.96961 0 0.0156761)
(0.904738 0 -0.00500911)
(0.954246 0 0.00956093)
(0.885288 6.81742e-25 -0.0172376)
(0.919045 4.50371e-24 0.00774578)
(0.860117 3.69459e-24 -0.00972293)
(0.946769 -5.93568e-24 0.0331755)
(0.921758 0 -0.00972286)
(0.937569 0 0.0240532)
(0.939028 0 -0.0198265)
(0.902178 0 0.000439207)
(0.888861 6.99846e-27 -0.0170189)
(0.885894 -1.29068e-25 0.00186917)
(0.852483 5.44803e-25 -0.0172164)
(0.878749 0 0.020698)
(0.911903 0 -0.00237375)
(0.831471 0 0.00887891)
(0.95019 0 0.0312548)
(0.903626 -2.23279e-24 0.00415628)
(0.955385 -5.80712e-24 0.0301786)
(0.917832 4.13193e-24 -0.00829323)
(0.878437 -4.32332e-25 0.0161884)
(0.895579 1.32369e-27 0.0127532)
(0.916787 2.83452e-24 0.0296437)
(0.910092 -2.98353e-24 0.0226521)
(0.945978 -3.18624e-24 0.044898)
(0.925505 0 0.0350552)
(0.983207 8.30741e-25 0.0674148)
(0.946035 4.42218e-24 0.0547239)
(1.07946 -5.79424e-23 0.129057)
(1.2269 2.75853e-23 0.0833459)
(1.08073 0 0.00734243)
(0.984202 6.94587e-28 -0.00067871)
(0.948105 0 0.000304484)
)
;

boundaryField
{
    inlet
    {
        type            calculated;
        value           uniform (0 0 0);
    }
    outlet
    {
        type            calculated;
        value           uniform (0 0 0);
    }
    sideWall
    {
        type            empty;
    }
}


// ************************************************************************* //
