/*--------------------------------*- C++ -*----------------------------------*\
| =========                 |                                                 |
| \\      /  F ield         | foam-extend: Open Source CFD                    |
|  \\    /   O peration     | Version:     3.2                                |
|   \\  /    A nd           | Web:         http://www.foam-extend.org         |
|    \\/     M anipulation  | For copyright notice see file Copyright         |
\*---------------------------------------------------------------------------*/
FoamFile
{
    version     2.0;
    format      ascii;
    class       volScalarField;
    location    "160";
    object      C;
}
// * * * * * * * * * * * * * * * * * * * * * * * * * * * * * * * * * * * * * //

dimensions      [1 -3 0 0 0 0 0];

internalField   nonuniform List<scalar> 
96000
(
0.06
0.06
0.06
0.06
0.06
0.06
0.06
0.06
0.06
0.06
0.06
0.06
0.06
0.06
0.06
0.06
0.06
0.06
0.06
0.06
0.06
0.06
0.06
0.06
0.06
0.06
0.06
0.06
0.06
0.06
0.06
0.06
0.06
0.06
0.06
0.06
0.06
0.06
0.06
0.06
0.06
0.06
0.06
0.06
0.06
0.06
0.06
0.06
0.06
0.06
0.06
0.06
0.06
0.06
0.06
0.06
0.06
0.06
0.06
0.06
0.06
0.06
0.06
0.06
0.06
0.06
0.06
0.06
0.06
0.06
0.06
0.06
0.06
0.06
0.06
0.06
0.06
0.06
0.06
0.06
0.06
0.06
0.06
0.06
0.06
0.06
0.06
0.06
0.06
0.06
0.06
0.06
0.06
0.06
0.06
0.06
0.06
0.06
0.0600001
0.0600001
0.0602357
0.0600141
0.0604134
0.0601962
0.0604065
0.0604994
0.0601342
0.0608326
0.0602423
0.0586452
0.0609429
0.0587342
0.0639813
0.0593964
0.0611569
0.0598649
0.0592467
0.0588769
0.0612683
0.0589844
0.0601782
0.0574852
0.0590699
0.0575689
0.0668464
0.0588539
0.061585
0.0583239
0.0610176
0.0584011
0.062967
0.0591586
0.0589833
0.0584299
0.0653877
0.0598292
0.0604973
0.059941
0.0603085
0.0590759
0.0672719
0.062859
0.0615253
0.0577979
0.0633177
0.0601085
0.0639017
0.0602197
0.0624433
0.058473
0.0639362
0.057242
0.0579957
0.059294
0.0589805
0.055921
0.059685
0.0583422
0.0614158
0.0569823
0.0603989
0.0568095
0.05893
0.0597073
0.060316
0.0617874
0.062749
0.0589406
0.0586186
0.0579667
0.0589356
0.0578031
0.0571443
0.0573361
0.060176
0.0631424
0.0594351
0.0628857
0.0595577
0.0564413
0.0566651
0.0590587
0.0589523
0.0611956
0.0596944
0.0596561
0.0589726
0.0623969
0.0575816
0.0658816
0.058111
0.0622105
0.0614418
0.0611079
0.0580888
0.0583211
0.0632079
0.0608968
0.0592359
0.0566955
0.0585917
0.0632945
0.0594533
0.0635832
0.0585022
0.0604322
0.0626321
0.0595433
0.0646339
0.0590161
0.0587558
0.0567761
0.0623108
0.061337
0.0616383
0.062309
0.0601964
0.061905
0.0569438
0.06063
0.0614476
0.0618015
0.0579934
0.0617045
0.0580059
0.0660948
0.0618801
0.0609646
0.0621745
0.0574852
0.0589422
0.0614731
0.0597358
0.0593833
0.0619042
0.0611078
0.0591127
0.0620775
0.0600431
0.0616518
0.0587959
0.0616501
0.0604613
0.061331
0.0576088
0.0618911
0.05939
0.0597475
0.0601878
0.0599248
0.058018
0.0602218
0.058755
0.0618258
0.0576101
0.0598004
0.0589653
0.0586127
0.0578831
0.0584246
0.0583412
0.0662242
0.0605668
0.0593159
0.0594868
0.0599923
0.0593256
0.0616402
0.0586367
0.0592383
0.0602153
0.0590755
0.0578404
0.0580176
0.0588077
0.0604752
0.0662342
0.0602077
0.0625789
0.0583666
0.059061
0.0596305
0.0598016
0.0553967
0.060499
0.0579902
0.0612222
0.0605309
0.0605207
0.0602808
0.0604033
0.0600645
0.0602879
0.0599689
0.0601332
0.0599186
0.0599197
0.0599465
0.0599626
0.0599727
0.06
0.06
0.06
0.06
0.06
0.06
0.06
0.06
0.06
0.06
0.06
0.06
0.06
0.06
0.06
0.06
0.06
0.06
0.06
0.06
0.06
0.06
0.06
0.06
0.06
0.06
0.06
0.06
0.06
0.06
0.06
0.06
0.06
0.06
0.06
0.06
0.06
0.06
0.06
0.06
0.06
0.06
0.06
0.06
0.06
0.06
0.06
0.06
0.06
0.06
0.06
0.06
0.06
0.06
0.06
0.06
0.06
0.06
0.06
0.06
0.06
0.06
0.06
0.06
0.06
0.06
0.06
0.06
0.06
0.06
0.06
0.06
0.06
0.06
0.06
0.06
0.06
0.06
0.06
0.06
0.06
0.06
0.06
0.06
0.06
0.06
0.06
0.06
0.06
0.06
0.06
0.06
0.06
0.06
0.06
0.06
0.06
0.06
0.0600001
0.06
0.0600339
0.0599713
0.0600259
0.0599862
0.0600022
0.0600231
0.0599341
0.0600446
0.0599525
0.0600088
0.0604597
0.0599325
0.0606321
0.0599161
0.0602303
0.0604248
0.0601942
0.0598784
0.0600152
0.0594482
0.0597922
0.0596487
0.0598538
0.0594077
0.0610724
0.0600488
0.0603056
0.0600626
0.0605956
0.0599183
0.0604015
0.0597184
0.0603433
0.0597958
0.0609423
0.0603597
0.0602141
0.0605986
0.0605141
0.0600968
0.0612864
0.0609925
0.0608711
0.0602718
0.0613946
0.0607754
0.0610889
0.0603001
0.0608056
0.060449
0.0616569
0.0601798
0.0596019
0.0593746
0.0595316
0.0590508
0.0597572
0.0596515
0.0596677
0.0590497
0.0593333
0.059238
0.0597434
0.059818
0.0600646
0.0600992
0.060338
0.0597466
0.0600342
0.0595558
0.0593421
0.0590587
0.0588338
0.0591437
0.0598075
0.0600625
0.0598632
0.060452
0.0600378
0.0595408
0.0592934
0.059715
0.0591496
0.0598605
0.0602436
0.0601441
0.0599253
0.0601536
0.0593327
0.0609096
0.0601821
0.060861
0.0602094
0.0603773
0.0601849
0.0597329
0.0601775
0.0601918
0.0598115
0.0594044
0.059884
0.0610118
0.060456
0.0607202
0.0598325
0.0605519
0.0610268
0.0605675
0.0610046
0.0601222
0.0597396
0.0594233
0.0604103
0.0609044
0.0605114
0.0604711
0.0600145
0.0604907
0.0597357
0.0603311
0.0598648
0.0604554
0.0600414
0.0607105
0.0599266
0.0609252
0.0606391
0.0604652
0.0606234
0.0599498
0.0599798
0.0604201
0.0599587
0.0596342
0.0598359
0.0599421
0.0603301
0.0607204
0.0602297
0.0605827
0.0604495
0.0608476
0.0607822
0.0603507
0.0594016
0.0599888
0.0603565
0.0601403
0.0604236
0.0598956
0.0594404
0.0596467
0.060043
0.0607226
0.0598248
0.0596458
0.059346
0.0594309
0.059627
0.0596812
0.0595428
0.0609457
0.0603293
0.0605585
0.0603338
0.0597945
0.059723
0.060002
0.0601162
0.059954
0.0595923
0.059553
0.059196
0.0595546
0.0596057
0.0595586
0.0611294
0.0604259
0.0615074
0.0604117
0.0597244
0.0597573
0.0597513
0.0588855
0.0594081
0.0591771
0.0597028
0.0598322
0.0598771
0.0598879
0.0599152
0.0598891
0.0599254
0.0599025
0.0599346
0.0599348
0.0599483
0.0599585
0.0599683
0.0599758
0.06
0.06
0.06
0.06
0.06
0.06
0.06
0.06
0.06
0.06
0.06
0.06
0.06
0.06
0.06
0.06
0.06
0.06
0.06
0.06
0.06
0.06
0.06
0.06
0.06
0.06
0.06
0.06
0.06
0.06
0.06
0.06
0.06
0.06
0.06
0.06
0.06
0.06
0.06
0.06
0.06
0.06
0.06
0.06
0.06
0.06
0.06
0.06
0.06
0.06
0.06
0.06
0.06
0.06
0.06
0.06
0.06
0.06
0.06
0.06
0.06
0.06
0.06
0.06
0.06
0.06
0.06
0.06
0.06
0.06
0.06
0.06
0.06
0.06
0.06
0.06
0.06
0.06
0.06
0.06
0.06
0.06
0.06
0.06
0.06
0.06
0.06
0.06
0.06
0.06
0.06
0.06
0.06
0.06
0.06
0.06
0.06
0.06
0.0600001
0.06
0.0600143
0.0599953
0.060013
0.0600026
0.0600073
0.0600177
0.0599858
0.0600212
0.0599952
0.0600158
0.0601695
0.0600133
0.0602508
0.0600643
0.0601314
0.060209
0.0601354
0.0599812
0.06
0.0598037
0.0598668
0.0598156
0.0598703
0.0597037
0.0603253
0.0601496
0.0601821
0.0600698
0.0602323
0.0600278
0.0601734
0.0599816
0.0601659
0.0599363
0.060412
0.0603384
0.060235
0.0603178
0.0602788
0.0601091
0.0605165
0.0605993
0.0605976
0.0603507
0.0606659
0.0605504
0.0606789
0.0604362
0.0605503
0.0604355
0.0608417
0.0604061
0.06006
0.0598743
0.0598521
0.0596248
0.059781
0.0597806
0.0598187
0.0595845
0.0596131
0.0595762
0.0597144
0.0597621
0.0598805
0.0599971
0.0601143
0.0599716
0.0600106
0.0598088
0.0597036
0.0595549
0.0594121
0.0594634
0.0596792
0.0598775
0.0599098
0.0601463
0.06007
0.0598809
0.0597091
0.059777
0.0595761
0.0598308
0.0599842
0.0600154
0.059939
0.0600181
0.0597516
0.0602611
0.060138
0.0603393
0.0601784
0.0602571
0.060184
0.0599273
0.0600569
0.0601164
0.0599814
0.059754
0.0599081
0.0603356
0.060311
0.0603924
0.0601025
0.0602606
0.060478
0.0604099
0.0605555
0.0602916
0.0600386
0.0598294
0.0601086
0.0604315
0.0603616
0.0603109
0.0601523
0.0602886
0.060034
0.0601445
0.0600024
0.0602605
0.0601118
0.0603236
0.0600823
0.0603851
0.0603995
0.0603296
0.0603677
0.0601307
0.0600467
0.0601816
0.0600639
0.0598814
0.0599049
0.059985
0.0601858
0.0603464
0.0602897
0.0604542
0.0603743
0.0604871
0.0605052
0.0603243
0.0599292
0.0600503
0.0601754
0.0601003
0.0602265
0.0600423
0.0598532
0.0598204
0.0599988
0.0602448
0.0600147
0.0598752
0.0597522
0.0597367
0.0597988
0.0598279
0.059783
0.0603068
0.0602296
0.0603499
0.0602514
0.0600277
0.0599356
0.0599784
0.0600553
0.0599696
0.0598387
0.0597931
0.059626
0.059717
0.059722
0.0597328
0.0603661
0.0602759
0.0607207
0.0603966
0.0600637
0.0599887
0.0599176
0.0595549
0.0596402
0.0595706
0.0597356
0.0598372
0.0598907
0.0599144
0.059936
0.0599338
0.0599486
0.0599444
0.0599558
0.0599606
0.0599651
0.0599694
0.0599749
0.05998
0.06
0.06
0.06
0.06
0.06
0.06
0.06
0.06
0.06
0.06
0.06
0.06
0.06
0.06
0.06
0.06
0.06
0.06
0.06
0.06
0.06
0.06
0.06
0.06
0.06
0.06
0.06
0.06
0.06
0.06
0.06
0.06
0.06
0.06
0.06
0.06
0.06
0.06
0.06
0.06
0.06
0.06
0.06
0.06
0.06
0.06
0.06
0.06
0.06
0.06
0.06
0.06
0.06
0.06
0.06
0.06
0.06
0.06
0.06
0.06
0.06
0.06
0.06
0.06
0.06
0.06
0.06
0.06
0.06
0.06
0.06
0.06
0.06
0.06
0.06
0.06
0.06
0.06
0.06
0.06
0.06
0.06
0.06
0.06
0.06
0.06
0.06
0.06
0.06
0.06
0.06
0.06
0.06
0.06
0.06
0.06
0.06
0.06
0.0600001
0.0599999
0.0600062
0.0599999
0.0600064
0.0600035
0.0600051
0.0600105
0.0599972
0.0600099
0.0600017
0.0600112
0.060078
0.0600235
0.0601199
0.06007
0.060085
0.0601218
0.0600981
0.0600147
0.0600038
0.0599179
0.0599147
0.0598876
0.0599058
0.0598273
0.0600941
0.0601055
0.0601155
0.060057
0.0601162
0.060042
0.0600924
0.0600359
0.0600991
0.0599865
0.0602036
0.0602387
0.0601901
0.0602008
0.0601845
0.0600956
0.0602471
0.0603521
0.0604029
0.0603045
0.0604055
0.0603944
0.0604704
0.0603878
0.0604157
0.0603772
0.0605487
0.0603982
0.0601962
0.0600643
0.0600071
0.0598716
0.0598865
0.0598808
0.0598981
0.0597893
0.0597637
0.0597433
0.0597813
0.0598088
0.059873
0.0599592
0.0600368
0.0600112
0.0600123
0.0599175
0.0598532
0.0597655
0.0596746
0.0596558
0.0597256
0.0598416
0.0599015
0.0600287
0.0600432
0.0599726
0.0598666
0.0598557
0.0597635
0.0598499
0.0599231
0.0599705
0.0599464
0.0599795
0.0598737
0.0600679
0.0600685
0.060154
0.0601181
0.0601646
0.0601414
0.0599997
0.0600248
0.0600618
0.0600215
0.0598944
0.059935
0.0601325
0.0601995
0.0602423
0.0601328
0.0601685
0.0602819
0.0602879
0.060357
0.0602696
0.0601234
0.0599839
0.0600676
0.0602364
0.0602531
0.0602304
0.0601591
0.060203
0.060107
0.0601135
0.0600549
0.0601694
0.060118
0.0602006
0.0601034
0.0602113
0.0602528
0.060235
0.060251
0.0601554
0.0600801
0.0601227
0.0600855
0.05998
0.0599524
0.0599974
0.0601173
0.0602218
0.0602527
0.060342
0.0603062
0.0603495
0.0603643
0.0602773
0.0600836
0.060082
0.0601194
0.0600925
0.0601479
0.0600774
0.0599804
0.0599242
0.0599995
0.0601084
0.0600476
0.0599657
0.0598963
0.0598704
0.059888
0.0599004
0.0598872
0.0601171
0.0601491
0.0602227
0.0601878
0.0600779
0.0600001
0.0599941
0.0600275
0.0599882
0.0599312
0.0598897
0.0598034
0.0598172
0.0598117
0.0598229
0.0601099
0.0601555
0.0603844
0.0603002
0.0601388
0.0600655
0.0600036
0.059816
0.0597924
0.0597522
0.0598049
0.0598631
0.0599041
0.0599274
0.0599452
0.0599506
0.0599597
0.0599611
0.0599673
0.0599728
0.0599758
0.0599779
0.059981
0.0599844
0.06
0.06
0.06
0.06
0.06
0.06
0.06
0.06
0.06
0.06
0.06
0.06
0.06
0.06
0.06
0.06
0.06
0.06
0.06
0.06
0.06
0.06
0.06
0.06
0.06
0.06
0.06
0.06
0.06
0.06
0.06
0.06
0.06
0.06
0.06
0.06
0.06
0.06
0.06
0.06
0.06
0.06
0.06
0.06
0.06
0.06
0.06
0.06
0.06
0.06
0.06
0.06
0.06
0.06
0.06
0.06
0.06
0.06
0.06
0.06
0.06
0.06
0.06
0.06
0.06
0.06
0.06
0.06
0.06
0.06
0.06
0.06
0.06
0.06
0.06
0.06
0.06
0.06
0.06
0.06
0.06
0.06
0.06
0.06
0.06
0.06
0.06
0.06
0.06
0.06
0.06
0.06
0.06
0.06
0.06
0.06
0.06
0.06
0.0600001
0.0599999
0.0600028
0.0600007
0.0600033
0.0600026
0.0600032
0.0600062
0.0600004
0.060005
0.0600028
0.0600083
0.0600401
0.0600176
0.060063
0.0600575
0.0600611
0.0600791
0.0600707
0.0600197
0.0600058
0.0599663
0.059948
0.059927
0.059931
0.0598847
0.060011
0.0600645
0.0600779
0.0600433
0.060065
0.0600335
0.0600549
0.0600471
0.0600695
0.0599987
0.0601067
0.0601635
0.060144
0.0601384
0.0601304
0.0600745
0.0601292
0.0602117
0.0602764
0.0602422
0.060274
0.060285
0.0603424
0.0603202
0.0603296
0.0603191
0.060404
0.0603451
0.060227
0.0601425
0.060088
0.0599941
0.0599673
0.0599504
0.0599508
0.0598929
0.0598621
0.0598449
0.0598485
0.0598606
0.059897
0.0599522
0.0600089
0.0600206
0.0600175
0.0599645
0.0599246
0.059874
0.0598146
0.0597772
0.0597869
0.059849
0.059903
0.0599825
0.0600201
0.0599997
0.0599337
0.0599071
0.0598601
0.059886
0.0599184
0.0599546
0.0599498
0.0599669
0.0599214
0.0600041
0.0600242
0.0600672
0.0600693
0.0601087
0.0601045
0.0600197
0.0600114
0.0600347
0.0600315
0.0599585
0.0599553
0.0600561
0.0601273
0.0601581
0.060117
0.060126
0.060187
0.0602053
0.0602475
0.0602246
0.0601426
0.0600473
0.0600613
0.0601447
0.0601798
0.060178
0.0601433
0.0601592
0.0601209
0.0601034
0.0600746
0.0601314
0.0601134
0.0601455
0.0600963
0.060138
0.0601737
0.0601769
0.0601901
0.0601472
0.060089
0.0600996
0.0600884
0.0600248
0.0599888
0.060012
0.0600855
0.0601577
0.0602075
0.0602666
0.060252
0.0602708
0.0602786
0.0602324
0.0601299
0.0601003
0.0601021
0.0600864
0.0601102
0.0600822
0.0600283
0.0599837
0.0600118
0.0600613
0.0600481
0.0600037
0.059962
0.0599402
0.0599392
0.059939
0.059936
0.0600516
0.0601009
0.0601489
0.0601375
0.0600788
0.0600239
0.0600093
0.0600187
0.0599977
0.0599715
0.0599423
0.0598923
0.0598822
0.0598702
0.0598771
0.0600229
0.0600874
0.0602217
0.0602147
0.0601393
0.0600922
0.0600479
0.0599355
0.0598873
0.0598545
0.0598663
0.0598955
0.0599224
0.0599407
0.0599547
0.0599617
0.0599685
0.0599715
0.059976
0.059981
0.0599834
0.0599845
0.0599863
0.0599884
0.06
0.06
0.06
0.06
0.06
0.06
0.06
0.06
0.06
0.06
0.06
0.06
0.06
0.06
0.06
0.06
0.06
0.06
0.06
0.06
0.06
0.06
0.06
0.06
0.06
0.06
0.06
0.06
0.06
0.06
0.06
0.06
0.06
0.06
0.06
0.06
0.06
0.06
0.06
0.06
0.06
0.06
0.06
0.06
0.06
0.06
0.06
0.06
0.06
0.06
0.06
0.06
0.06
0.06
0.06
0.06
0.06
0.06
0.06
0.06
0.06
0.06
0.06
0.06
0.06
0.06
0.06
0.06
0.06
0.06
0.06
0.06
0.06
0.06
0.06
0.06
0.06
0.06
0.06
0.06
0.06
0.06
0.06
0.06
0.06
0.06
0.06
0.06
0.06
0.06
0.06
0.06
0.06
0.06
0.06
0.06
0.06
0.06
0.0600001
0.0599998
0.0600011
0.0600004
0.0600014
0.0600014
0.0600016
0.0600033
0.0600007
0.0600023
0.0600024
0.0600064
0.0600222
0.0600099
0.0600335
0.0600439
0.0600465
0.0600561
0.0600522
0.0600162
0.0600047
0.0599883
0.05997
0.0599522
0.0599497
0.0599153
0.0599783
0.060037
0.0600547
0.060033
0.0600395
0.0600225
0.0600334
0.0600463
0.0600544
0.0599993
0.0600559
0.0601117
0.0601065
0.0601
0.0600964
0.0600553
0.0600682
0.0601282
0.0601931
0.0601883
0.0601951
0.060208
0.060255
0.0602581
0.0602664
0.0602694
0.0603183
0.0602918
0.0602196
0.0601696
0.0601282
0.0600595
0.0600224
0.0599983
0.0599875
0.0599528
0.0599289
0.0599135
0.0599032
0.059905
0.0599249
0.0599579
0.0600004
0.0600248
0.0600232
0.0599875
0.0599617
0.059934
0.0598958
0.0598571
0.0598397
0.059869
0.0599117
0.0599656
0.0600068
0.0600084
0.0599654
0.0599389
0.0599144
0.0599194
0.0599307
0.0599538
0.0599541
0.0599634
0.0599434
0.0599823
0.0600007
0.0600224
0.0600349
0.0600733
0.0600777
0.0600214
0.0600026
0.0600195
0.060033
0.0599902
0.0599702
0.0600249
0.060083
0.0601057
0.0600934
0.0600998
0.0601344
0.0601502
0.0601792
0.0601825
0.0601383
0.0600727
0.0600602
0.0600976
0.0601307
0.0601399
0.0601232
0.0601315
0.0601179
0.0600964
0.0600805
0.0601136
0.0601078
0.0601177
0.0600852
0.0601002
0.0601283
0.0601398
0.0601544
0.0601343
0.0600888
0.0600875
0.060086
0.0600457
0.0600131
0.0600256
0.0600716
0.0601205
0.0601694
0.0602142
0.0602101
0.0602193
0.060222
0.0601939
0.0601373
0.0601077
0.0600967
0.0600827
0.0600905
0.0600781
0.0600464
0.0600167
0.0600252
0.0600456
0.060044
0.0600196
0.0599939
0.0599793
0.0599713
0.059963
0.0599618
0.0600266
0.0600727
0.060106
0.0601016
0.0600671
0.0600305
0.0600187
0.060018
0.0600037
0.0599912
0.0599719
0.0599414
0.0599258
0.0599099
0.0599125
0.0599943
0.0600514
0.0601372
0.0601526
0.0601196
0.0600963
0.0600684
0.0599946
0.0599451
0.0599165
0.0599128
0.059925
0.059941
0.0599537
0.0599641
0.0599704
0.0599758
0.0599789
0.0599826
0.059987
0.059989
0.0599897
0.0599907
0.0599921
0.06
0.06
0.06
0.06
0.06
0.06
0.06
0.06
0.06
0.06
0.06
0.06
0.06
0.06
0.06
0.06
0.06
0.06
0.06
0.06
0.06
0.06
0.06
0.06
0.06
0.06
0.06
0.06
0.06
0.06
0.06
0.06
0.06
0.06
0.06
0.06
0.06
0.06
0.06
0.06
0.06
0.06
0.06
0.06
0.06
0.06
0.06
0.06
0.06
0.06
0.06
0.06
0.06
0.06
0.06
0.06
0.06
0.06
0.06
0.06
0.06
0.06
0.06
0.06
0.06
0.06
0.06
0.06
0.06
0.06
0.06
0.06
0.06
0.06
0.06
0.06
0.06
0.06
0.06
0.06
0.06
0.06
0.06
0.06
0.06
0.06
0.06
0.06
0.06
0.06
0.06
0.06
0.06
0.06
0.06
0.06
0.06
0.06
0.0600001
0.0599998
0.0600003
0.0599999
0.0600003
0.0600004
0.0600004
0.0600015
0.0600003
0.0600007
0.0600018
0.060005
0.0600126
0.0600034
0.0600169
0.0600336
0.0600372
0.0600422
0.0600388
0.0600104
0.0600025
0.0599996
0.0599849
0.0599691
0.0599627
0.059933
0.0599659
0.060021
0.0600406
0.0600251
0.0600244
0.0600127
0.0600202
0.0600429
0.0600453
0.0599964
0.0600273
0.0600776
0.0600788
0.0600737
0.0600721
0.060039
0.0600333
0.0600776
0.0601378
0.0601453
0.0601416
0.0601519
0.0601925
0.0602073
0.0602178
0.0602273
0.0602595
0.0602458
0.0601997
0.0601738
0.060146
0.060094
0.0600568
0.06003
0.0600137
0.0599915
0.0599758
0.0599617
0.0599444
0.0599394
0.0599496
0.0599684
0.0600015
0.0600292
0.0600281
0.0599999
0.0599827
0.05997
0.0599458
0.0599105
0.0598806
0.0598911
0.0599244
0.0599631
0.0600013
0.0600116
0.0599809
0.0599581
0.0599475
0.0599466
0.0599466
0.0599592
0.0599594
0.0599645
0.0599566
0.0599765
0.0599888
0.0599979
0.0600126
0.0600506
0.0600586
0.0600169
0.0599959
0.0600108
0.0600325
0.0600067
0.0599801
0.0600108
0.0600558
0.0600723
0.0600724
0.0600804
0.060101
0.0601122
0.060134
0.060149
0.0601265
0.0600802
0.0600577
0.0600704
0.0600972
0.0601121
0.0601052
0.0601118
0.0601092
0.060089
0.0600803
0.0601038
0.0601024
0.0601011
0.0600746
0.0600781
0.0601013
0.0601164
0.060132
0.0601219
0.0600845
0.0600789
0.0600821
0.0600559
0.0600295
0.0600369
0.0600657
0.0600974
0.0601404
0.0601771
0.0601775
0.0601821
0.0601816
0.0601628
0.0601316
0.0601086
0.0600937
0.0600792
0.0600788
0.0600725
0.0600534
0.0600353
0.0600357
0.0600407
0.0600404
0.0600268
0.0600111
0.0600025
0.0599919
0.0599781
0.0599766
0.0600172
0.0600566
0.0600803
0.0600765
0.0600542
0.0600308
0.0600239
0.0600192
0.0600075
0.0600022
0.0599901
0.0599708
0.0599551
0.0599368
0.0599372
0.059988
0.0600337
0.0600911
0.0601094
0.0600975
0.0600911
0.0600762
0.0600246
0.0599803
0.0599559
0.059947
0.0599496
0.059958
0.059966
0.0599731
0.0599781
0.0599823
0.059985
0.0599881
0.0599918
0.0599935
0.0599939
0.0599944
0.0599953
0.06
0.06
0.06
0.06
0.06
0.06
0.06
0.06
0.06
0.06
0.06
0.06
0.06
0.06
0.06
0.06
0.06
0.06
0.06
0.06
0.06
0.06
0.06
0.06
0.06
0.06
0.06
0.06
0.06
0.06
0.06
0.06
0.06
0.06
0.06
0.06
0.06
0.06
0.06
0.06
0.06
0.06
0.06
0.06
0.06
0.06
0.06
0.06
0.06
0.06
0.06
0.06
0.06
0.06
0.06
0.06
0.06
0.06
0.06
0.06
0.06
0.06
0.06
0.06
0.06
0.06
0.06
0.06
0.06
0.06
0.06
0.06
0.06
0.06
0.06
0.06
0.06
0.06
0.06
0.06
0.06
0.06
0.06
0.06
0.06
0.06
0.06
0.06
0.06
0.06
0.06
0.06
0.06
0.06
0.06
0.06
0.06
0.06
0.0600001
0.0599997
0.0599997
0.0599995
0.0599995
0.0599995
0.0599995
0.0600001
0.0599997
0.0599996
0.0600015
0.0600044
0.0600067
0.0599976
0.0600065
0.0600266
0.0600319
0.0600337
0.0600285
0.0600036
0.0599995
0.0600062
0.0599962
0.0599813
0.0599713
0.0599432
0.0599614
0.0600128
0.0600331
0.0600199
0.060014
0.0600039
0.0600117
0.0600403
0.0600392
0.0599917
0.0600095
0.0600557
0.06006
0.0600555
0.0600536
0.0600245
0.0600111
0.0600464
0.0601015
0.0601127
0.0601025
0.0601091
0.0601458
0.0601671
0.0601803
0.0601925
0.0602149
0.0602062
0.0601761
0.0601677
0.0601519
0.0601114
0.0600763
0.0600491
0.0600317
0.0600182
0.0600099
0.059997
0.0599754
0.0599651
0.0599689
0.0599794
0.060007
0.0600352
0.0600327
0.0600065
0.0599949
0.0599933
0.0599792
0.0599468
0.0599106
0.0599109
0.0599383
0.0599677
0.0600014
0.060014
0.0599888
0.0599691
0.0599684
0.0599685
0.0599625
0.0599664
0.0599644
0.0599676
0.0599666
0.0599781
0.0599837
0.0599835
0.0599984
0.0600371
0.0600454
0.0600099
0.0599899
0.0600062
0.0600326
0.0600161
0.0599869
0.0600037
0.0600379
0.0600505
0.0600568
0.0600658
0.0600775
0.0600841
0.0601023
0.0601235
0.0601141
0.0600798
0.0600532
0.0600522
0.0600733
0.0600909
0.0600905
0.0600977
0.0600993
0.0600803
0.060077
0.0600982
0.0600981
0.0600893
0.0600643
0.0600632
0.0600844
0.0601015
0.0601178
0.0601118
0.0600785
0.0600712
0.0600772
0.0600603
0.0600407
0.0600467
0.0600634
0.0600816
0.0601189
0.0601512
0.0601527
0.0601535
0.0601506
0.0601373
0.0601219
0.0601069
0.0600912
0.0600752
0.0600699
0.0600669
0.0600561
0.0600466
0.0600437
0.0600393
0.0600371
0.0600296
0.0600213
0.0600179
0.0600057
0.0599876
0.0599848
0.0600141
0.0600485
0.0600647
0.0600584
0.0600425
0.0600291
0.0600272
0.0600206
0.0600092
0.0600082
0.0600023
0.0599904
0.0599749
0.0599546
0.0599543
0.0599903
0.0600267
0.0600651
0.0600791
0.0600777
0.0600832
0.0600774
0.0600392
0.0600011
0.0599811
0.0599714
0.0599692
0.0599726
0.0599768
0.0599814
0.0599849
0.0599879
0.0599901
0.0599928
0.0599958
0.0599973
0.0599974
0.0599976
0.0599981
0.06
0.06
0.06
0.06
0.06
0.06
0.06
0.06
0.06
0.06
0.06
0.06
0.06
0.06
0.06
0.06
0.06
0.06
0.06
0.06
0.06
0.06
0.06
0.06
0.06
0.06
0.06
0.06
0.06
0.06
0.06
0.06
0.06
0.06
0.06
0.06
0.06
0.06
0.06
0.06
0.06
0.06
0.06
0.06
0.06
0.06
0.06
0.06
0.06
0.06
0.06
0.06
0.06
0.06
0.06
0.06
0.06
0.06
0.06
0.06
0.06
0.06
0.06
0.06
0.06
0.06
0.06
0.06
0.06
0.06
0.06
0.06
0.06
0.06
0.06
0.06
0.06
0.06
0.06
0.06
0.06
0.06
0.06
0.06
0.06
0.06
0.06
0.06
0.06
0.06
0.06
0.06
0.06
0.06
0.06
0.06
0.06
0.06
0.0600001
0.0599996
0.0599993
0.0599989
0.0599985
0.0599984
0.0599983
0.0599986
0.0599984
0.0599982
0.0600007
0.0600039
0.0600032
0.0599928
0.0599985
0.0600204
0.0600283
0.0600295
0.0600223
0.0599979
0.0599953
0.0600084
0.0600041
0.0599916
0.0599792
0.0599499
0.0599591
0.0600071
0.0600289
0.060018
0.0600086
0.059997
0.0600045
0.0600374
0.0600356
0.0599879
0.0599971
0.0600397
0.0600467
0.060044
0.0600413
0.0600129
0.0599946
0.0600245
0.0600767
0.0600899
0.0600754
0.0600768
0.0601086
0.0601331
0.0601501
0.060165
0.0601817
0.0601729
0.0601513
0.0601549
0.0601504
0.0601202
0.0600883
0.0600602
0.0600419
0.0600346
0.060034
0.060024
0.0600006
0.0599859
0.0599841
0.0599884
0.0600124
0.0600412
0.060038
0.0600112
0.0600018
0.0600075
0.0600017
0.0599733
0.0599336
0.059927
0.05995
0.0599742
0.0600048
0.0600176
0.0599948
0.059976
0.059981
0.0599846
0.0599773
0.0599756
0.05997
0.0599704
0.0599733
0.0599822
0.0599836
0.0599762
0.0599892
0.0600284
0.060037
0.0600038
0.0599841
0.0600019
0.0600325
0.0600228
0.0599933
0.0600013
0.0600262
0.0600349
0.0600445
0.0600555
0.060062
0.0600636
0.0600781
0.0601023
0.0601022
0.060077
0.0600493
0.0600396
0.0600549
0.0600731
0.0600771
0.0600866
0.0600907
0.0600724
0.0600718
0.0600932
0.0600948
0.0600817
0.0600555
0.0600509
0.060071
0.0600902
0.0601085
0.0601051
0.0600741
0.0600651
0.0600715
0.06006
0.0600464
0.0600539
0.0600641
0.0600719
0.0601026
0.0601319
0.0601344
0.0601327
0.0601267
0.0601153
0.0601097
0.0601029
0.0600896
0.0600727
0.0600634
0.0600605
0.0600551
0.0600529
0.0600505
0.0600409
0.060035
0.0600295
0.0600261
0.0600278
0.0600165
0.0599954
0.05999
0.0600125
0.0600438
0.0600558
0.0600461
0.0600322
0.0600254
0.0600288
0.0600227
0.0600108
0.0600112
0.0600095
0.0600034
0.0599896
0.0599676
0.0599657
0.059994
0.0600246
0.0600512
0.0600589
0.060061
0.0600737
0.0600747
0.0600452
0.0600125
0.0599963
0.0599879
0.0599836
0.059984
0.0599856
0.0599881
0.0599904
0.0599925
0.0599941
0.0599964
0.059999
0.0600003
0.0600004
0.0600003
0.0600006
0.06
0.06
0.06
0.06
0.06
0.06
0.06
0.06
0.06
0.06
0.06
0.06
0.06
0.06
0.06
0.06
0.06
0.06
0.06
0.06
0.06
0.06
0.06
0.06
0.06
0.06
0.06
0.06
0.06
0.06
0.06
0.06
0.06
0.06
0.06
0.06
0.06
0.06
0.06
0.06
0.06
0.06
0.06
0.06
0.06
0.06
0.06
0.06
0.06
0.06
0.06
0.06
0.06
0.06
0.06
0.06
0.06
0.06
0.06
0.06
0.06
0.06
0.06
0.06
0.06
0.06
0.06
0.06
0.06
0.06
0.06
0.06
0.06
0.06
0.06
0.06
0.06
0.06
0.06
0.06
0.06
0.06
0.06
0.06
0.06
0.06
0.06
0.06
0.06
0.06
0.06
0.06
0.06
0.06
0.06
0.06
0.06
0.06
0.0600001
0.0599996
0.0599989
0.0599983
0.0599977
0.0599975
0.0599972
0.0599972
0.0599972
0.0599969
0.0599997
0.0600033
0.0600012
0.0599893
0.0599924
0.0600148
0.0600258
0.0600276
0.0600188
0.0599934
0.0599909
0.0600082
0.0600096
0.0600003
0.0599862
0.0599548
0.0599578
0.0600031
0.0600265
0.060018
0.0600062
0.0599919
0.0599984
0.0600341
0.0600337
0.0599858
0.0599883
0.0600274
0.0600374
0.0600369
0.0600333
0.0600039
0.059982
0.0600084
0.0600591
0.0600738
0.0600562
0.0600523
0.0600788
0.0601046
0.0601252
0.0601429
0.060156
0.0601452
0.0601277
0.0601393
0.0601445
0.0601234
0.0600949
0.0600662
0.0600468
0.0600441
0.0600508
0.0600445
0.0600203
0.0600022
0.059996
0.0599957
0.0600173
0.0600468
0.0600435
0.0600155
0.0600058
0.060016
0.0600172
0.0599931
0.0599516
0.0599398
0.0599596
0.0599813
0.0600098
0.060022
0.0599996
0.0599807
0.0599886
0.0599959
0.0599902
0.0599853
0.0599758
0.0599732
0.0599781
0.059987
0.0599863
0.0599736
0.0599834
0.0600223
0.0600321
0.0599998
0.0599789
0.0599979
0.0600324
0.0600279
0.0599987
0.0600009
0.0600186
0.0600234
0.0600347
0.060048
0.0600516
0.0600485
0.0600592
0.0600848
0.0600914
0.0600733
0.0600458
0.0600303
0.0600403
0.0600583
0.0600655
0.0600774
0.0600836
0.0600656
0.0600657
0.0600879
0.060092
0.0600766
0.0600482
0.0600405
0.0600601
0.0600816
0.0601018
0.0601004
0.0600708
0.0600599
0.0600657
0.0600577
0.060049
0.0600587
0.0600659
0.0600664
0.0600901
0.0601168
0.0601205
0.0601174
0.0601083
0.0600967
0.0600971
0.0600977
0.0600881
0.060071
0.0600584
0.0600542
0.0600523
0.0600562
0.0600559
0.0600436
0.0600339
0.060028
0.0600279
0.0600342
0.0600249
0.0600021
0.0599936
0.0600113
0.0600408
0.060051
0.0600384
0.0600239
0.0600209
0.0600292
0.0600251
0.0600125
0.0600125
0.0600135
0.0600122
0.0600008
0.0599775
0.0599736
0.0599973
0.0600248
0.0600443
0.0600459
0.0600477
0.0600642
0.0600706
0.0600472
0.0600182
0.0600052
0.059999
0.0599943
0.059993
0.0599929
0.0599939
0.0599951
0.0599964
0.0599975
0.0599994
0.0600017
0.0600029
0.0600029
0.0600027
0.0600027
0.06
0.06
0.06
0.06
0.06
0.06
0.06
0.06
0.06
0.06
0.06
0.06
0.06
0.06
0.06
0.06
0.06
0.06
0.06
0.06
0.06
0.06
0.06
0.06
0.06
0.06
0.06
0.06
0.06
0.06
0.06
0.06
0.06
0.06
0.06
0.06
0.06
0.06
0.06
0.06
0.06
0.06
0.06
0.06
0.06
0.06
0.06
0.06
0.06
0.06
0.06
0.06
0.06
0.06
0.06
0.06
0.06
0.06
0.06
0.06
0.06
0.06
0.06
0.06
0.06
0.06
0.06
0.06
0.06
0.06
0.06
0.06
0.06
0.06
0.06
0.06
0.06
0.06
0.06
0.06
0.06
0.06
0.06
0.06
0.06
0.06
0.06
0.06
0.06
0.06
0.06
0.06
0.06
0.06
0.06
0.06
0.06
0.06
0.0600001
0.0599995
0.0599987
0.059998
0.0599973
0.0599969
0.0599966
0.0599965
0.0599965
0.0599964
0.0599994
0.0600029
0.0599995
0.0599866
0.0599885
0.0600118
0.0600247
0.0600261
0.060015
0.0599891
0.0599877
0.0600089
0.0600145
0.0600065
0.0599901
0.0599576
0.0599582
0.0600022
0.0600263
0.0600179
0.0600031
0.0599873
0.0599945
0.0600323
0.0600321
0.0599836
0.0599822
0.06002
0.0600319
0.0600314
0.0600257
0.0599958
0.0599735
0.0599988
0.0600478
0.0600612
0.0600403
0.0600323
0.0600559
0.0600831
0.0601058
0.0601237
0.0601333
0.0601209
0.0601073
0.0601251
0.0601373
0.0601218
0.0600953
0.0600671
0.0600493
0.0600514
0.0600636
0.0600593
0.0600336
0.060013
0.0600043
0.0600021
0.0600233
0.0600527
0.060048
0.0600182
0.0600087
0.0600229
0.0600289
0.0600069
0.0599643
0.0599502
0.0599692
0.0599897
0.0600158
0.0600258
0.0600025
0.0599834
0.059994
0.0600052
0.0600007
0.0599928
0.0599805
0.0599769
0.0599838
0.0599927
0.0599892
0.0599724
0.0599805
0.0600194
0.0600291
0.0599963
0.0599751
0.0599961
0.0600334
0.0600315
0.0600019
0.06
0.0600132
0.0600161
0.0600284
0.0600421
0.0600426
0.0600361
0.0600453
0.0600723
0.0600829
0.0600684
0.0600406
0.0600218
0.060029
0.0600476
0.0600573
0.0600703
0.0600764
0.0600585
0.0600598
0.0600835
0.0600889
0.060071
0.0600408
0.0600324
0.0600528
0.0600762
0.0600969
0.0600956
0.0600664
0.0600544
0.0600604
0.0600559
0.0600513
0.0600626
0.060067
0.0600619
0.0600808
0.0601059
0.0601097
0.0601043
0.0600926
0.060082
0.0600873
0.0600932
0.0600856
0.0600676
0.0600531
0.0600493
0.0600507
0.0600586
0.0600591
0.0600445
0.0600323
0.0600271
0.0600301
0.0600392
0.0600304
0.0600057
0.0599953
0.0600112
0.0600399
0.0600482
0.0600326
0.0600176
0.060018
0.0600297
0.0600264
0.060013
0.0600132
0.0600172
0.0600191
0.0600084
0.059984
0.0599794
0.0600016
0.060027
0.0600405
0.0600366
0.0600377
0.0600568
0.0600666
0.060047
0.0600209
0.0600109
0.0600072
0.0600027
0.0600004
0.0599992
0.0599991
0.0599994
0.0600001
0.0600008
0.0600023
0.0600042
0.0600052
0.0600051
0.0600047
0.0600045
0.06
0.06
0.06
0.06
0.06
0.06
0.06
0.06
0.06
0.06
0.06
0.06
0.06
0.06
0.06
0.06
0.06
0.06
0.06
0.06
0.06
0.06
0.06
0.06
0.06
0.06
0.06
0.06
0.06
0.06
0.06
0.06
0.06
0.06
0.06
0.06
0.06
0.06
0.06
0.06
0.06
0.06
0.06
0.06
0.06
0.06
0.06
0.06
0.06
0.06
0.06
0.06
0.06
0.06
0.06
0.06
0.06
0.06
0.06
0.06
0.06
0.06
0.06
0.06
0.06
0.06
0.06
0.06
0.06
0.06
0.06
0.06
0.06
0.06
0.06
0.06
0.06
0.06
0.06
0.06
0.06
0.06
0.06
0.06
0.06
0.06
0.06
0.06
0.06
0.06
0.06
0.06
0.06
0.06
0.06
0.06
0.06
0.06
0.06
0.0599995
0.0599985
0.0599977
0.059997
0.0599965
0.0599961
0.059996
0.0599959
0.059996
0.0599995
0.0600028
0.0599976
0.0599835
0.0599857
0.0600108
0.0600253
0.0600251
0.0600108
0.0599844
0.0599852
0.0600105
0.0600194
0.0600111
0.0599918
0.0599585
0.0599591
0.0600035
0.060028
0.0600181
0.0599995
0.0599825
0.0599924
0.0600324
0.0600306
0.0599802
0.0599776
0.0600164
0.0600297
0.0600275
0.0600184
0.0599881
0.0599673
0.0599936
0.0600411
0.0600517
0.0600266
0.0600153
0.0600379
0.0600673
0.0600913
0.0601074
0.0601127
0.060099
0.0600896
0.060113
0.0601301
0.0601176
0.0600915
0.0600641
0.0600495
0.0600572
0.0600736
0.0600701
0.0600429
0.0600198
0.0600094
0.0600072
0.0600296
0.060059
0.0600515
0.0600191
0.0600105
0.0600292
0.0600385
0.0600163
0.0599724
0.0599582
0.0599782
0.0599985
0.0600222
0.0600297
0.0600042
0.0599843
0.059998
0.0600136
0.0600097
0.0599981
0.0599836
0.0599807
0.0599903
0.0599992
0.0599919
0.0599713
0.0599795
0.0600196
0.0600273
0.0599921
0.059972
0.0599964
0.0600356
0.0600345
0.0600041
0.0599987
0.0600085
0.0600117
0.0600255
0.0600379
0.0600343
0.0600252
0.0600349
0.0600638
0.0600768
0.0600633
0.0600345
0.0600137
0.0600197
0.0600391
0.0600514
0.0600653
0.0600696
0.0600507
0.0600543
0.0600808
0.0600862
0.0600647
0.0600331
0.0600255
0.0600477
0.0600728