/*--------------------------------*- C++ -*----------------------------------*\
| =========                 |                                                 |
| \\      /  F ield         | foam-extend: Open Source CFD                    |
|  \\    /   O peration     | Version:     3.2                                |
|   \\  /    A nd           | Web:         http://www.foam-extend.org         |
|    \\/     M anipulation  | For copyright notice see file Copyright         |
\*---------------------------------------------------------------------------*/
FoamFile
{
    version     2.0;
    format      ascii;
    class       areaScalarField;
    location    "160";
    object      Ce2;
}
// * * * * * * * * * * * * * * * * * * * * * * * * * * * * * * * * * * * * * //

dimensions      [1 -3 0 0 0 0 0];

internalField   nonuniform List<scalar> 
300
(
4.59557
3.263
1.88168
1.39819
1.2287
1.14278
1.08186
1.02948
0.982029
0.939627
0.9023
0.869372
0.839925
0.81395
0.790798
0.769956
0.751048
0.733744
0.718006
0.703764
0.690614
0.678347
0.666883
0.656191
0.646203
0.636809
0.62796
0.619598
0.611697
0.604255
0.597164
0.59045
0.584017
0.577916
0.572071
0.566524
0.561171
0.556073
0.551147
0.546439
0.541905
0.537552
0.533345
0.529301
0.525375
0.521613
0.517952
0.514445
0.511008
0.507722
0.50449
0.501402
0.498368
0.495464
0.492603
0.489861
0.487153
0.484568
0.481965
0.479517
0.477041
0.474735
0.472384
0.470212
0.467975
0.465939
0.463807
0.461901
0.459871
0.458093
0.456166
0.454521
0.452701
0.451196
0.449486
0.448134
0.446557
0.445371
0.443957
0.442965
0.441751
0.440992
0.440053
0.43957
0.439047
0.438878
0.438895
0.439258
0.439867
0.441095
0.442892
0.445211
0.448828
0.452864
0.460206
0.467807
0.485129
0.492207
0.590693
0.253956
0.0909124
0.0814876
0.0848703
0.0785755
0.081661
0.0788946
0.0783281
0.0809808
0.0790922
0.190638
0.209712
0.0798219
0.0905804
0.077701
0.219781
0.296853
0.185926
0.0907131
0.072863
0.0799288
0.213622
0.262798
0.213488
0.075143
0.0994122
0.0601938
0.239771
0.262997
0.258586
0.0748346
0.0747105
0.245328
0.21597
0.067382
0.0929644
0.068069
0.217492
0.323356
0.214209
0.0821827
0.0866967
0.0859466
0.222448
0.240789
0.288512
0.0741672
0.0805633
0.0730329
0.256028
0.254172
0.284411
0.0593283
0.0465654
0.0969219
0.183837
0.252466
0.243032
0.0732522
0.0960105
0.0672938
0.329393
0.216646
0.304373
0.254385
0.110369
0.0915709
0.106129
0.237328
0.270878
0.0788342
0.0784628
0.0819091
0.183579
0.274378
0.0936638
0.113106
0.0772659
0.303876
0.181681
0.208358
0.222839
0.0800631
0.0798627
0.236237
0.300242
0.206886
0.0941076
0.0778282
0.069893
0.301737
0.222238
0.100038
0.0843153
0.277102
0.196924
0.0838667
0.0973085
0.0915937
0.205332
0.184918
0.297252
0.271609
0.0903609
0.0841882
0.220934
0.273386
0.295652
0.0769301
0.0926646
0.073727
0.186574
0.242884
0.28759
0.106626
0.0749855
0.0847235
0.0843766
0.230734
0.207666
0.0780507
0.0961151
0.238539
0.234839
0.26124
0.0720828
0.114243
0.0982097
0.217326
0.231251
0.229987
0.199798
0.125384
0.0640095
0.0727199
0.107825
0.284406
0.211325
0.103272
0.066707
0.229232
0.235326
0.237959
0.0911125
0.0679921
0.0752133
0.281634
0.244561
0.223434
0.0926972
0.070846
0.0667399
0.243978
0.236646
0.278044
0.0702022
0.0738429
0.0871035
0.186564
0.263178
0.180606
0.0976398
0.0995413
0.216228
0.232801
0.0839735
0.0747093
0.0932188
0.234867
0.267918
0.0723466
0.0861344
0.0745342
0.168384
0.229804
0.0720395
0.09022
0.101691
0.188532
0.249713
0.0643784
0.0567229
0.0968624
0.165581
0.0697599
0.0963134
0.0750971
0.100849
0.0726471
0.0874315
0.0732383
0.0851529
0.0740885
0.084353
0.0773588
0.0858037
0.0857305
0.26055
0.463575
0.348885
0.311457
)
;

boundaryField
{
    inlet
    {
        type            calculated;
        value           uniform 0;
    }
    outlet
    {
        type            calculated;
        value           uniform 0;
    }
    sideWall
    {
        type            empty;
    }
}


// ************************************************************************* //
