/*--------------------------------*- C++ -*----------------------------------*\
| =========                 |                                                 |
| \\      /  F ield         | foam-extend: Open Source CFD                    |
|  \\    /   O peration     | Version:     3.2                                |
|   \\  /    A nd           | Web:         http://www.foam-extend.org         |
|    \\/     M anipulation  | For copyright notice see file Copyright         |
\*---------------------------------------------------------------------------*/
FoamFile
{
    version     2.0;
    format      ascii;
    class       areaScalarField;
    location    "160";
    object      Cpre;
}
// * * * * * * * * * * * * * * * * * * * * * * * * * * * * * * * * * * * * * //

dimensions      [1 -3 0 0 0 0 0];

internalField   nonuniform List<scalar> 
300
(
0.06
0.06
0.06
0.06
0.06
0.06
0.06
0.06
0.06
0.06
0.06
0.06
0.06
0.06
0.06
0.06
0.06
0.06
0.06
0.06
0.06
0.06
0.06
0.06
0.06
0.06
0.06
0.06
0.06
0.06
0.06
0.06
0.06
0.06
0.06
0.06
0.06
0.06
0.06
0.06
0.06
0.06
0.06
0.06
0.06
0.06
0.06
0.06
0.06
0.06
0.06
0.06
0.06
0.06
0.06
0.06
0.06
0.06
0.06
0.06
0.06
0.06
0.06
0.06
0.06
0.06
0.06
0.06
0.06
0.06
0.06
0.06
0.06
0.06
0.06
0.06
0.06
0.06
0.06
0.06
0.06
0.06
0.06
0.06
0.06
0.06
0.06
0.06
0.06
0.06
0.06
0.06
0.06
0.06
0.06
0.06
0.06
0.06
0.0600001
0.0600001
0.0600533
0.0597479
0.0599443
0.0597242
0.0597693
0.0597945
0.0594399
0.0598677
0.0594266
0.0596037
0.062072
0.0598056
0.0624807
0.0584378
0.0601083
0.0609233
0.0605295
0.0601998
0.0604056
0.0574291
0.0592514
0.0588016
0.0604112
0.0590463
0.0645893
0.05821
0.0601494
0.0596444
0.0626452
0.0597462
0.0616377
0.0578483
0.0604967
0.0599144
0.0631984
0.0589009
0.0594264
0.061229
0.0618232
0.0606163
0.0648655
0.0606724
0.0606501
0.0592054
0.0651719
0.0614934
0.0625365
0.0583765
0.0610541
0.0598323
0.0656109
0.0588463
0.0579741
0.0573528
0.0583231
0.0570779
0.0611274
0.0597421
0.0597194
0.0567411
0.0580912
0.0579536
0.0601193
0.0610194
0.0616902
0.0605542
0.0614814
0.0579168
0.0598686
0.0592671
0.0583799
0.0570594
0.0568425
0.0583281
0.0616389
0.061353
0.0587241
0.0610639
0.0591473
0.0577009
0.0577208
0.0604695
0.0581258
0.0592936
0.0610053
0.0609886
0.0604255
0.0611117
0.0570014
0.063223
0.0593332
0.0635551
0.0602847
0.0597305
0.0594236
0.0596979
0.0612783
0.0595398
0.0586756
0.0579589
0.0596882
0.0646775
0.0607853
0.0621476
0.0578937
0.061538
0.0640315
0.0607365
0.0629467
0.0582826
0.0581927
0.0578856
0.0635736
0.0626234
0.0608491
0.0612484
0.0586802
0.060734
0.0580775
0.062077
0.0598984
0.0600405
0.059274
0.0632424
0.0591471
0.0638092
0.0602908
0.0602104
0.0609447
0.0586636
0.0602783
0.0624891
0.0594202
0.0589354
0.0592384
0.0591345
0.0602655
0.0634114
0.0596216
0.0597946
0.0601319
0.0631471
0.0619663
0.0604737
0.0569684
0.0593579
0.0606021
0.0609374
0.0614436
0.0593977
0.0572864
0.0591341
0.0599542
0.0634133
0.0590149
0.0591599
0.0572357
0.0582115
0.0590013
0.0594722
0.0592809
0.0641839
0.0598866
0.0604834
0.0608103
0.0590395
0.058359
0.0601062
0.059806
0.060415
0.0591034
0.0580794
0.0575578
0.0589906
0.059867
0.0594154
0.063178
0.0598054
0.0635915
0.0598203
0.0584851
0.0583236
0.0590142
0.0564324
0.0589053
0.0576825
0.0597265
0.0595557
0.0594833
0.0595231
0.0595685
0.0595208
0.0596685
0.0596233
0.0597769
0.0598086
0.0599197
0.0599465
0.0599626
0.0599727
)
;

boundaryField
{
    inlet
    {
        type            calculated;
        value           uniform 0;
    }
    outlet
    {
        type            calculated;
        value           uniform 0;
    }
    sideWall
    {
        type            empty;
    }
}


// ************************************************************************* //
