/*--------------------------------*- C++ -*----------------------------------*\
| =========                 |                                                 |
| \\      /  F ield         | foam-extend: Open Source CFD                    |
|  \\    /   O peration     | Version:     3.2                                |
|   \\  /    A nd           | Web:         http://www.foam-extend.org         |
|    \\/     M anipulation  | For copyright notice see file Copyright         |
\*---------------------------------------------------------------------------*/
FoamFile
{
    version     2.0;
    format      ascii;
    class       areaScalarField;
    location    "160";
    object      Cs;
}
// * * * * * * * * * * * * * * * * * * * * * * * * * * * * * * * * * * * * * //

dimensions      [0 0 0 0 0 0 0];

internalField   nonuniform List<scalar> 
300
(
0.321737
0.321737
0.321737
0.321737
0.321737
0.321737
0.321737
0.321737
0.321737
0.321737
0.321737
0.321737
0.321737
0.321737
0.321737
0.321737
0.321737
0.321737
0.321737
0.321737
0.321737
0.321737
0.321737
0.321737
0.321737
0.321737
0.321737
0.321737
0.321737
0.321737
0.321737
0.321737
0.321737
0.321737
0.321737
0.321737
0.321737
0.321737
0.321737
0.321737
0.321737
0.321737
0.321737
0.321737
0.321737
0.321737
0.321737
0.321737
0.321737
0.321737
0.321737
0.321737
0.321737
0.321737
0.321737
0.321737
0.321737
0.321737
0.321737
0.321737
0.321737
0.321737
0.321737
0.321737
0.321737
0.321737
0.321737
0.321737
0.321737
0.321737
0.321737
0.321737
0.321737
0.321737
0.321737
0.321737
0.321737
0.321737
0.321737
0.321737
0.321737
0.321737
0.321737
0.321737
0.321737
0.321737
0.321737
0.321737
0.321737
0.321737
0.321737
0.321737
0.321737
0.321737
0.321737
0.321737
0.321737
0.321737
0.321737
0.304644
0.271193
0.245342
0.229125
0.216488
0.206506
0.198534
0.191807
0.186389
0.181705
0.321737
0.321737
0.171111
0.168883
0.166515
0.321737
0.321737
0.321737
0.159663
0.158506
0.156497
0.321737
0.321737
0.321737
0.152452
0.152994
0.151871
0.321737
0.321737
0.321737
0.150914
0.150753
0.321737
0.321737
0.149279
0.150517
0.150022
0.321737
0.321737
0.321737
0.14897
0.149193
0.149721
0.321737
0.321737
0.321737
0.149688
0.149805
0.149482
0.321737
0.321737
0.321737
0.150354
0.152468
0.154791
0.321737
0.321737
0.321737
0.159716
0.161095
0.163567
0.321737
0.321737
0.321737
0.321737
0.168916
0.16784
0.168062
0.321737
0.321737
0.167468
0.168132
0.168318
0.321737
0.321737
0.168808
0.16984
0.168909
0.321737
0.321737
0.321737
0.321737
0.164523
0.163974
0.321737
0.321737
0.321737
0.161616
0.161211
0.162035
0.321737
0.321737
0.165509
0.165828
0.321737
0.321737
0.164049
0.164722
0.165488
0.321737
0.321737
0.321737
0.321737
0.165456
0.165059
0.321737
0.321737
0.321737
0.16615
0.16492
0.163829
0.321737
0.321737
0.321737
0.167501
0.166596
0.165867
0.165736
0.321737
0.321737
0.164102
0.16426
0.321737
0.321737
0.321737
0.16762
0.169538
0.170268
0.321737
0.321737
0.321737
0.321737
0.169361
0.167632
0.167404
0.168904
0.321737
0.321737
0.167549
0.165696
0.321737
0.321737
0.321737
0.162212
0.162855
0.165499
0.321737
0.321737
0.321737
0.16722
0.166302
0.166359
0.321737
0.321737
0.321737
0.164258
0.16476
0.166103
0.321737
0.321737
0.321737
0.17453
0.173311
0.321737
0.321737
0.170784
0.170394
0.172472
0.321737
0.321737
0.17199
0.171235
0.171233
0.321737
0.321737
0.175669
0.176188
0.174626
0.321737
0.321737
0.169908
0.170501
0.17213
0.321737
0.176001
0.17917
0.182453
0.184278
0.184949
0.187913
0.192083
0.197332
0.204295
0.213162
0.225339
0.241805
0.270117
0.307017
0.321737
0.321737
0.321737
)
;

boundaryField
{
    inlet
    {
        type            calculated;
        value           uniform 0;
    }
    outlet
    {
        type            calculated;
        value           uniform 0;
    }
    sideWall
    {
        type            empty;
    }
}


// ************************************************************************* //
