/*--------------------------------*- C++ -*----------------------------------*\
| =========                 |                                                 |
| \\      /  F ield         | foam-extend: Open Source CFD                    |
|  \\    /   O peration     | Version:     3.2                                |
|   \\  /    A nd           | Web:         http://www.foam-extend.org         |
|    \\/     M anipulation  | For copyright notice see file Copyright         |
\*---------------------------------------------------------------------------*/
FoamFile
{
    version     2.0;
    format      ascii;
    class       areaScalarField;
    location    "160";
    object      Dbed;
}
// * * * * * * * * * * * * * * * * * * * * * * * * * * * * * * * * * * * * * //

dimensions      [0 0 0 0 0 0 0];

internalField   nonuniform List<scalar> 
300
(
0.002175
0.002175
0.002175
0.002175
0.002175
0.002175
0.002175
0.002175
0.002175
0.002175
0.002175
0.002175
0.002175
0.002175
0.002175
0.002175
0.002175
0.002175
0.002175
0.002175
0.002175
0.002175
0.002175
0.002175
0.002175
0.002175
0.002175
0.002175
0.002175
0.002175
0.002175
0.002175
0.002175
0.002175
0.002175
0.002175
0.002175
0.002175
0.002175
0.002175
0.002175
0.002175
0.002175
0.002175
0.002175
0.002175
0.002175
0.002175
0.002175
0.002175
0.002175
0.002175
0.002175
0.002175
0.002175
0.002175
0.002175
0.002175
0.002175
0.002175
0.002175
0.002175
0.002175
0.002175
0.002175
0.002175
0.002175
0.002175
0.002175
0.002175
0.002175
0.002175
0.002175
0.002175
0.002175
0.002175
0.002175
0.002175
0.002175
0.002175
0.002175
0.002175
0.002175
0.002175
0.002175
0.002175
0.002175
0.002175
0.002175
0.002175
0.002175
0.002175
0.002175
0.002175
0.002175
0.002175
0.002175
0.002175
0.002175
0.002175
0.00232194
0.00237536
0.00247702
0.00250806
0.00261525
0.00262022
0.0027331
0.00272099
0.00282707
0.00281191
0.00288496
0.00290728
0.00293879
0.00296137
0.00298755
0.00299942
0.0029581
0.00302918
0.00296984
0.0030114
0.00298883
0.00302098
0.00303107
0.0029657
0.00308644
0.0029514
0.00301415
0.00294974
0.00308117
0.00300593
0.00300164
0.00304764
0.00289711
0.0030137
0.00304778
0.00302884
0.00297643
0.00305047
0.00295425
0.00300548
0.00296482
0.00299899
0.00302192
0.00290475
0.00304122
0.00291901
0.00306756
0.00294976
0.00305748
0.00293958
0.00299147
0.00302418
0.00294298
0.00313742
0.00290845
0.00321619
0.00305149
0.00314873
0.00315733
0.00314745
0.00320759
0.00312566
0.00322218
0.00312408
0.00326953
0.00310757
0.00322658
0.00312248
0.00316927
0.00309172
0.00310943
0.00309782
0.00308464
0.00313252
0.0030695
0.00314957
0.00301769
0.00320173
0.00297807
0.00309259
0.00299482
0.00305722
0.00308127
0.00291443
0.00313834
0.00294091
0.00309573
0.00295058
0.00308045
0.00300774
0.00307587
0.00308497
0.00303174
0.00315746
0.00295997
0.00313094
0.00304111
0.00307486
0.003059
0.00296548
0.00310536
0.00298442
0.0030927
0.00298551
0.00315616
0.00302302
0.00308895
0.0029901
0.00301922
0.00303004
0.00299113
0.00309849
0.00297937
0.00314104
0.00295033
0.00305494
0.0029366
0.00299696
0.00305334
0.00288706
0.00312094
0.00295033
0.00309792
0.00301938
0.00306919
0.00305956
0.00303194
0.00302889
0.0030021
0.00308105
0.00299021
0.00310156
0.00297874
0.00308214
0.0030046
0.00308311
0.00297479
0.00301192
0.00297173
0.00288367
0.0030354
0.00289895
0.00304063
0.00290201
0.00307996
0.00295949
0.00307382
0.00297326
0.00300812
0.00301627
0.00289816
0.00308767
0.00284597
0.00314034
0.00295464
0.00305309
0.0030302
0.00301589
0.0030383
0.00300826
0.00306306
0.0029032
0.00307432
0.00290287
0.00311334
0.00292717
0.0031425
0.00293283
0.00312622
0.00288987
0.00303107
0.00290629
0.00296588
0.00294115
0.00286868
0.00298624
0.00273052
0.00301824
0.00266969
0.00309084
0.00263696
0.00313176
0.00273085
0.00307759
0.00297091
0.00302475
0.00294684
0.00262543
0.00287253
0.00258617
0.00276163
0.00252236
0.00261875
0.00242971
0.00243925
0.00229921
0.002175
0.002175
0.002175
0.002175
)
;

boundaryField
{
    inlet
    {
        type            calculated;
        value           uniform 0;
    }
    outlet
    {
        type            calculated;
        value           uniform 0;
    }
    sideWall
    {
        type            empty;
    }
}


// ************************************************************************* //
