/*--------------------------------*- C++ -*----------------------------------*\
| =========                 |                                                 |
| \\      /  F ield         | foam-extend: Open Source CFD                    |
|  \\    /   O peration     | Version:     3.2                                |
|   \\  /    A nd           | Web:         http://www.foam-extend.org         |
|    \\/     M anipulation  | For copyright notice see file Copyright         |
\*---------------------------------------------------------------------------*/
FoamFile
{
    version     2.0;
    format      ascii;
    class       areaScalarField;
    location    "160";
    object      dd;
}
// * * * * * * * * * * * * * * * * * * * * * * * * * * * * * * * * * * * * * //

dimensions      [0 1 0 0 0 0 0];

internalField   nonuniform List<scalar> 
300
(
0.1
0.1
0.1
0.1
0.1
0.1
0.1
0.1
0.1
0.1
0.1
0.1
0.1
0.1
0.1
0.1
0.1
0.1
0.1
0.1
0.1
0.1
0.1
0.1
0.1
0.1
0.1
0.1
0.1
0.1
0.1
0.1
0.1
0.1
0.1
0.1
0.1
0.1
0.1
0.1
0.1
0.1
0.1
0.1
0.1
0.1
0.1
0.1
0.1
0.1
0.1
0.1
0.1
0.1
0.1
0.1
0.1
0.1
0.1
0.1
0.1
0.1
0.1
0.1
0.1
0.1
0.1
0.1
0.1
0.1
0.1
0.1
0.1
0.1
0.1
0.1
0.1
0.1
0.1
0.1
0.1
0.1
0.1
0.1
0.1
0.1
0.1
0.1
0.1
0.1
0.1
0.1
0.1
0.1
0.1
0.1
0.1
0.1
0.1
0.0981298
0.0937875
0.0896207
0.0865267
0.0837946
0.0813999
0.0793147
0.07742
0.0757948
0.0743114
0.0729036
0.071698
0.0706575
0.0698304
0.0689275
0.068014
0.0675521
0.0667116
0.0661633
0.0656733
0.0648046
0.0641547
0.0638938
0.0634519
0.0629862
0.0632355
0.062717
0.0622848
0.0623199
0.0623989
0.0622692
0.0621934
0.062068
0.0613706
0.0614909
0.0620817
0.0618469
0.061823
0.0621531
0.0616693
0.0613417
0.0614494
0.0617032
0.0614537
0.0611515
0.061339
0.0616873
0.0617433
0.0615886
0.0620761
0.0622579
0.062198
0.0620047
0.0629936
0.0640491
0.0643947
0.0655848
0.0659114
0.0661857
0.0667605
0.0677665
0.0686758
0.0692716
0.0697066
0.0697799
0.0698428
0.0694359
0.0695203
0.0694538
0.0694379
0.0692941
0.0695469
0.0696172
0.06974
0.0700839
0.0698021
0.0701884
0.0698401
0.0692083
0.0685416
0.0683955
0.0683506
0.0681477
0.0679292
0.0674869
0.0677007
0.067351
0.0669753
0.0668083
0.0671468
0.0677216
0.0682482
0.068536
0.0686604
0.0687247
0.0680092
0.0679591
0.0682264
0.0685276
0.0682626
0.0681445
0.0688552
0.0688898
0.0685152
0.0683591
0.06913
0.0695168
0.0692973
0.0687857
0.0683045
0.0678714
0.0677729
0.0686756
0.0691085
0.0693066
0.0689587
0.0686759
0.0686246
0.0686777
0.0684152
0.0679803
0.0680433
0.0678366
0.0681798
0.06855
0.069352
0.0700757
0.070347
0.0701018
0.0697517
0.0695864
0.0696137
0.0700096
0.0693564
0.0692694
0.0698383
0.0701541
0.0698258
0.069325
0.068609
0.0679139
0.0677289
0.0673499
0.0672189
0.0674801
0.0685319
0.0691707
0.0694713
0.06942
0.0691988
0.0688449
0.0688669
0.0690581
0.0685351
0.0683777
0.0680425
0.0682414
0.0687675
0.0697279
0.0705066
0.0714141
0.0718851
0.071453
0.071081
0.0707793
0.0705375
0.0703936
0.0711518
0.0713595
0.0713342
0.0709775
0.0707029
0.0707018
0.0713695
0.0719311
0.0722834
0.0724632
0.0719188
0.071339
0.0707333
0.0702135
0.0704332
0.0710282
0.0711777
0.0723987
0.0734764
0.0745536
0.0751357
0.0753469
0.0762613
0.0775003
0.0789857
0.080838
0.0830215
0.0857404
0.0889813
0.0936299
0.0984019
0.1
0.1
0.1
)
;

boundaryField
{
    inlet
    {
        type            calculated;
        value           uniform 0;
    }
    outlet
    {
        type            calculated;
        value           uniform 0;
    }
    sideWall
    {
        type            empty;
    }
}


// ************************************************************************* //
