/*--------------------------------*- C++ -*----------------------------------*\
| =========                 |                                                 |
| \\      /  F ield         | foam-extend: Open Source CFD                    |
|  \\    /   O peration     | Version:     3.2                                |
|   \\  /    A nd           | Web:         http://www.foam-extend.org         |
|    \\/     M anipulation  | For copyright notice see file Copyright         |
\*---------------------------------------------------------------------------*/
FoamFile
{
    version     2.0;
    format      ascii;
    class       areaScalarField;
    location    "160";
    object      deltaHb;
}
// * * * * * * * * * * * * * * * * * * * * * * * * * * * * * * * * * * * * * //

dimensions      [0 1 -1 0 0 0 0];

internalField   nonuniform List<scalar> 
300
(
0
0
0
0
0
0
0
0
0
0
0
0
0
0
0
0
0
0
0
0
0
0
0
0
0
0
0
0
0
0
0
0
0
0
0
0
0
0
0
0
0
0
0
0
0
0
0
0
0
0
0
0
0
0
0
0
0
0
0
0
0
0
0
0
0
0
0
0
0
0
0
0
0
0
0
0
0
0
0
0
0
0
0
0
0
0
0
0
0
0
0
0
0
0
0
0
0
0
0
0
0
0
0
0
0
0
0
0
0
0
2.22878e-05
2.28528e-05
-1.20846e-06
-1.99534e-05
-3.4984e-05
-3.82707e-07
3.63258e-05
2.17207e-05
3.73457e-06
-2.25563e-05
-3.37226e-05
-5.73045e-06
3.79444e-05
2.45803e-05
-1.07431e-06
-2.00341e-05
-3.49908e-05
-7.53024e-06
3.17958e-05
3.61636e-05
-3.57728e-05
-2.37467e-05
3.66074e-05
1.54218e-05
3.03194e-07
-2.32324e-05
-4.52672e-05
3.98806e-06
4.46763e-05
2.82155e-05
-6.63355e-06
-3.28489e-05
-2.29864e-05
-3.97195e-07
2.72263e-05
2.86465e-05
6.43093e-06
-3.82154e-05
-3.59825e-05
4.44996e-06
3.87546e-05
3.64799e-05
-1.84356e-05
-2.75945e-05
-4.15693e-05
-4.03323e-06
4.95309e-05
3.07163e-05
-6.89106e-06
-4.61985e-05
-3.3967e-05
-1.42514e-06
4.74154e-06
3.38828e-05
3.99118e-05
6.15757e-07
-3.09722e-05
-3.07474e-05
3.02055e-05
3.33221e-05
-6.24595e-06
-2.26736e-05
-3.842e-05
3.20989e-05
2.81084e-05
-2.61952e-06
-1.85746e-05
-1.9838e-05
4.47128e-06
-1.11303e-05
2.97293e-05
2.82545e-05
-2.24297e-05
-3.25969e-05
-1.86699e-06
3.71676e-05
2.88141e-05
-6.16999e-07
-3.81464e-05
-3.57475e-05
2.64601e-05
3.41375e-05
-3.29294e-05
-1.76902e-05
3.57991e-05
1.92206e-05
-5.79649e-06
-2.89989e-05
-1.49934e-05
-1.13733e-05
-7.48088e-06
3.88703e-05
3.68492e-05
-4.04776e-05
-4.57172e-05
7.38079e-06
3.70887e-05
3.56248e-05
2.69063e-06
-2.08363e-05
-4.0398e-05
-1.062e-05
2.88717e-05
3.12282e-05
9.91925e-06
-2.85569e-07
-3.09792e-05
-2.90699e-05
3.77739e-05
2.62208e-05
-2.40783e-05
-3.04852e-05
-4.66147e-06
2.64701e-05
1.48763e-05
-3.23064e-06
-2.35136e-05
-1.62283e-05
1.93495e-06
1.73471e-06
1.67319e-05
3.1843e-05
1.36225e-05
-1.07626e-05
-4.29555e-05
-2.49891e-05
3.84923e-05
2.91943e-05
-1.54476e-05
-2.54819e-05
-1.29228e-06
2.84245e-05
2.82292e-05
-1.09829e-05
-4.10874e-05
-2.92156e-05
3.32424e-06
3.42104e-05
3.06187e-05
5.19769e-06
-3.42274e-05
-2.24758e-05
4.58385e-06
2.94325e-05
2.91956e-05
-3.09752e-06
-3.87595e-05
-3.29854e-05
-2.49527e-06
1.50933e-05
3.91397e-05
-1.44915e-05
-2.28124e-05
2.47908e-05
3.06602e-05
-7.64116e-06
-3.17562e-05
-2.48973e-05
2.8108e-05
3.30801e-05
4.19897e-06
-3.01043e-05
-3.46599e-05
2.76044e-05
1.97769e-05
4.12872e-06
-1.25373e-05
-2.04836e-05
2.53925e-05
2.72313e-05
-6.9721e-06
-1.61111e-05
-4.24873e-06
8.63746e-06
-2.70332e-06
-4.90534e-06
0
0
0
0
0
0
0
0
0
0
0
0
0
0
)
;

boundaryField
{
    inlet
    {
        type            zeroGradient;
    }
    outlet
    {
        type            zeroGradient;
    }
    sideWall
    {
        type            empty;
    }
}


// ************************************************************************* //
