/*--------------------------------*- C++ -*----------------------------------*\
| =========                 |                                                 |
| \\      /  F ield         | foam-extend: Open Source CFD                    |
|  \\    /   O peration     | Version:     3.2                                |
|   \\  /    A nd           | Web:         http://www.foam-extend.org         |
|    \\/     M anipulation  | For copyright notice see file Copyright         |
\*---------------------------------------------------------------------------*/
FoamFile
{
    version     2.0;
    format      ascii;
    class       areaScalarField;
    location    "160";
    object      deltaHs1;
}
// * * * * * * * * * * * * * * * * * * * * * * * * * * * * * * * * * * * * * //

dimensions      [0 1 -1 0 0 0 0];

internalField   nonuniform List<scalar> 
300
(
-0.000738682
-0.000520019
-0.000293344
-0.000213996
-0.000186178
-0.000172077
-0.000162078
-0.000153481
-0.000145692
-0.000138732
-0.000132605
-0.0001272
-0.000122367
-0.000118103
-0.000114303
-0.000110882
-0.000107778
-0.000104937
-0.000102354
-0.000100016
-9.78573e-05
-9.58436e-05
-9.39615e-05
-9.22063e-05
-9.05667e-05
-8.90245e-05
-8.75719e-05
-8.6199e-05
-8.4902e-05
-8.36804e-05
-8.25162e-05
-8.14139e-05
-8.03578e-05
-7.93562e-05
-7.83967e-05
-7.7486e-05
-7.66072e-05
-7.57702e-05
-7.49614e-05
-7.41885e-05
-7.34442e-05
-7.27296e-05
-7.20389e-05
-7.13748e-05
-7.07304e-05
-7.01127e-05
-6.95117e-05
-6.89359e-05
-6.83715e-05
-6.78322e-05
-6.73015e-05
-6.67945e-05
-6.62963e-05
-6.58195e-05
-6.53497e-05
-6.48996e-05
-6.4455e-05
-6.40306e-05
-6.36032e-05
-6.32012e-05
-6.27948e-05
-6.24162e-05
-6.20301e-05
-6.16736e-05
-6.13063e-05
-6.0972e-05
-6.0622e-05
-6.0309e-05
-5.99757e-05
-5.96837e-05
-5.93673e-05
-5.90972e-05
-5.87984e-05
-5.85513e-05
-5.82705e-05
-5.80486e-05
-5.77896e-05
-5.75948e-05
-5.73627e-05
-5.71998e-05
-5.70005e-05
-5.68758e-05
-5.67217e-05
-5.66424e-05
-5.65565e-05
-5.65288e-05
-5.65316e-05
-5.65912e-05
-5.66912e-05
-5.68929e-05
-5.71879e-05
-5.75686e-05
-5.81625e-05
-5.88252e-05
-6.00307e-05
-6.12786e-05
-6.41226e-05
-6.52848e-05
-8.14537e-05
-2.60976e-05
1.78103e-06
3.49731e-06
3.77429e-06
4.79608e-06
5.11738e-06
5.53152e-06
6.21783e-06
5.99951e-06
6.75386e-06
-6.4784e-06
-6.8124e-06
6.79664e-06
7.25105e-06
7.5409e-06
-6.00588e-06
-1.3742e-05
-3.56974e-06
6.57714e-06
8.57385e-06
7.5288e-06
-5.62225e-06
-1.05347e-05
-5.15205e-06
7.34282e-06
8.28774e-06
9.1352e-06
-7.36694e-06
-1.18733e-05
-7.91856e-06
7.84415e-06
9.01939e-06
-7.85826e-06
-7.79293e-06
8.62808e-06
8.20229e-06
9.01156e-06
-6.14641e-06
-1.4982e-05
-6.25437e-06
7.28854e-06
8.69032e-06
7.86278e-06
-5.54302e-06
-1.06129e-05
-1.10308e-05
7.82431e-06
9.12483e-06
8.15256e-06
-7.80882e-06
-1.11381e-05
-1.16388e-05
9.15469e-06
1.02872e-05
6.95984e-06
-4.17459e-06
-5.84331e-06
-7.43023e-06
8.85512e-06
7.74761e-06
9.01353e-06
-1.11388e-05
-4.34993e-06
-9.10714e-06
-6.96796e-06
7.27118e-06
7.84896e-06
7.84709e-06
-5.69053e-06
-7.69328e-06
7.89886e-06
8.30458e-06
7.62008e-06
-1.96521e-06
-9.15965e-06
6.94353e-06
6.66411e-06
7.95407e-06
-8.56102e-06
-2.7588e-06
-4.2885e-06
-7.34387e-06
7.84074e-06
7.9947e-06
-9.05768e-06
-1.06774e-05
-5.89975e-06
6.79178e-06
8.23475e-06
8.55061e-06
-1.24539e-05
-5.42342e-06
7.0121e-06
7.88513e-06
-7.84317e-06
-4.97076e-06
7.80447e-06
7.16579e-06
7.37067e-06
-3.85081e-06
-4.02369e-06
-1.1515e-05
-1.0691e-05
7.23898e-06
8.12856e-06
-3.72707e-06
-1.07421e-05
-1.07219e-05
7.83961e-06
7.81321e-06
8.26319e-06
-3.26412e-06
-7.22638e-06
-1.26678e-05
6.67643e-06
8.33421e-06
8.23323e-06
6.89299e-06
-6.72243e-06
-4.76479e-06
7.3443e-06
7.45856e-06
-8.4454e-06
-6.19337e-06
-9.32296e-06
8.39545e-06
6.47803e-06
6.66533e-06
-5.06562e-06
-6.60944e-06
-6.20657e-06
-4.54461e-06
4.66254e-06
9.11663e-06
8.7692e-06
5.49683e-06
-1.02236e-05
-5.91116e-06
6.05267e-06
8.89001e-06
-8.77443e-06
-7.24638e-06
-9.42261e-06
7.03531e-06
8.69871e-06
8.06685e-06
-1.26353e-05
-7.19686e-06
-6.99609e-06
6.5688e-06
8.69795e-06
7.95298e-06
-6.64615e-06
-1.10579e-05
-8.1396e-06
7.79469e-06
8.59638e-06
6.95299e-06
-2.91151e-06
-1.00936e-05
-2.49186e-06
6.05173e-06
6.6113e-06
-4.25558e-06
-9.40158e-06
7.97745e-06
7.7861e-06
7.3353e-06
-8.43907e-06
-8.39849e-06
7.62118e-06
7.38441e-06
7.43788e-06
-2.03352e-06
-8.69539e-06
7.42018e-06
6.7309e-06
4.95437e-06
-2.65567e-06
-1.50702e-05
9.31851e-06
8.099e-06
7.00544e-06
-4.41526e-06
7.98065e-06
5.99844e-06
7.83602e-06
5.53274e-06
6.37024e-06
6.2025e-06
6.00484e-06
5.65823e-06
5.46515e-06
4.75885e-06
4.43106e-06
3.31502e-06
2.34355e-06
-2.72061e-05
-6.05978e-05
-4.17613e-05
-3.56121e-05
)
;

boundaryField
{
    inlet
    {
        type            zeroGradient;
    }
    outlet
    {
        type            zeroGradient;
    }
    sideWall
    {
        type            empty;
    }
}


// ************************************************************************* //
