/*--------------------------------*- C++ -*----------------------------------*\
| =========                 |                                                 |
| \\      /  F ield         | foam-extend: Open Source CFD                    |
|  \\    /   O peration     | Version:     3.2                                |
|   \\  /    A nd           | Web:         http://www.foam-extend.org         |
|    \\/     M anipulation  | For copyright notice see file Copyright         |
\*---------------------------------------------------------------------------*/
FoamFile
{
    version     2.0;
    format      ascii;
    class       volScalarField;
    location    "160";
    object      deltaHF;
}
// * * * * * * * * * * * * * * * * * * * * * * * * * * * * * * * * * * * * * //

dimensions      [0 1 0 0 0 0 0];

internalField   uniform 0;

boundaryField
{
    inlet
    {
        type            calculated;
        value           uniform 0;
    }
    outlet
    {
        type            calculated;
        value           uniform 0;
    }
    sideWall
    {
        type            empty;
    }
    bed
    {
        type            calculated;
        value           nonuniform List<scalar> 
300
(
0
0
0
0
0
0
0
0
0
0
0
0
0
0
0
0
0
0
0
0
0
0
0
0
0
0
0
0
0
0
0
0
0
0
0
0
0
0
0
0
0
0
0
0
0
0
0
0
0
0
0
0
0
0
0
0
0
0
0
0
0
0
0
0
0
0
0
0
0
0
0
0
0
0
0
0
0
0
0
0
0
0
0
0
0
0
0
0
0
0
0
0
0
0
0
0
0
0
0
0
1.78103e-06
3.49731e-06
3.77429e-06
4.79608e-06
5.11738e-06
5.53152e-06
6.21783e-06
5.99951e-06
6.75386e-06
-6.4784e-06
1.54754e-05
2.96494e-05
6.0426e-06
-1.24125e-05
-4.09899e-05
-1.41247e-05
3.2756e-05
2.82978e-05
1.23084e-05
-1.50275e-05
-3.93448e-05
-1.62651e-05
3.27923e-05
3.19231e-05
7.21343e-06
-1.08989e-05
-4.23578e-05
-1.94035e-05
2.38772e-05
4.40077e-05
-2.67534e-05
-3.1605e-05
2.88144e-05
2.40498e-05
8.50548e-06
-1.42209e-05
-5.14136e-05
-1.0994e-05
3.84219e-05
3.55041e-05
2.05677e-06
-2.49862e-05
-2.85294e-05
-1.10101e-05
1.61955e-05
3.64708e-05
1.55558e-05
-3.00628e-05
-4.37914e-05
-6.68813e-06
2.71158e-05
4.56346e-05
-8.14843e-06
-2.06346e-05
-4.57439e-05
-9.87654e-06
4.21007e-05
3.95715e-05
8.56554e-07
-3.71849e-05
-4.51058e-05
-5.77506e-06
-4.36561e-06
2.69148e-05
4.71829e-05
8.46472e-06
-2.31251e-05
-3.64379e-05
2.25122e-05
4.1221e-05
2.05863e-06
-1.50535e-05
-4.03852e-05
2.29392e-05
3.5052e-05
4.04458e-06
-1.06206e-05
-2.83991e-05
1.71248e-06
-1.54187e-05
2.23855e-05
3.60953e-05
-1.4435e-05
-4.16546e-05
-1.25444e-05
3.12678e-05
3.56059e-05
7.61775e-06
-2.95958e-05
-4.82014e-05
2.10367e-05
4.11496e-05
-2.50443e-05
-2.55333e-05
3.08283e-05
2.70251e-05
1.3693e-06
-2.16282e-05
-1.88442e-05
-1.5397e-05
-1.89959e-05
2.81793e-05
4.40881e-05
-3.23491e-05
-4.94443e-05
-3.36134e-06
2.63668e-05
4.34644e-05
1.05038e-05
-1.25731e-05
-4.36621e-05
-1.78464e-05
1.62039e-05
3.79046e-05
1.82535e-05
7.94766e-06
-2.40862e-05
-3.57924e-05
3.30091e-05
3.35651e-05
-1.66197e-05
-3.89306e-05
-1.08548e-05
1.71471e-05
2.32718e-05
3.24739e-06
-1.68483e-05
-2.12939e-05
-4.67449e-06
-4.47186e-06
1.21873e-05
3.65055e-05
2.27391e-05
-1.99337e-06
-3.74586e-05
-3.52127e-05
3.25811e-05
3.5247e-05
-6.55763e-06
-3.42564e-05
-8.53865e-06
1.90019e-05
3.52645e-05
-2.28418e-06
-3.30205e-05
-4.18509e-05
-3.87261e-06
2.72143e-05
3.71875e-05
1.38956e-05
-2.62744e-05
-2.91219e-05
-6.474e-06
2.12929e-05
3.69903e-05
5.49886e-06
-3.18065e-05
-3.58969e-05
-1.25889e-05
1.26014e-05
4.51914e-05
-7.88017e-06
-2.7068e-05
1.53892e-05
3.86376e-05
1.4495e-07
-2.44209e-05
-3.33364e-05
1.97095e-05
4.07013e-05
1.15834e-05
-2.26664e-05
-3.66934e-05
1.8909e-05
2.71971e-05
1.08596e-05
-7.58294e-06
-2.31393e-05
1.03223e-05
3.65498e-05
1.1269e-06
-9.10569e-06
-8.66399e-06
1.66181e-05
3.29512e-06
2.93068e-06
5.53274e-06
6.37024e-06
6.2025e-06
6.00484e-06
5.65823e-06
5.46515e-06
4.75885e-06
4.43106e-06
3.31502e-06
2.34355e-06
0
0
0
0
)
;
    }
    topWall
    {
        type            calculated;
        value           uniform 0;
    }
}


// ************************************************************************* //
