/*--------------------------------*- C++ -*----------------------------------*\
| =========                 |                                                 |
| \\      /  F ield         | foam-extend: Open Source CFD                    |
|  \\    /   O peration     | Version:     3.2                                |
|   \\  /    A nd           | Web:         http://www.foam-extend.org         |
|    \\/     M anipulation  | For copyright notice see file Copyright         |
\*---------------------------------------------------------------------------*/
FoamFile
{
    version     2.0;
    format      ascii;
    class       volScalarField;
    location    "160";
    object      DiSS;
}
// * * * * * * * * * * * * * * * * * * * * * * * * * * * * * * * * * * * * * //

dimensions      [0 2 -1 0 0 0 0];

internalField   nonuniform List<scalar> 
96000
(
0.000134293
0.000107227
8.92923e-05
7.99944e-05
7.69941e-05
7.58668e-05
7.5095e-05
7.43396e-05
7.35384e-05
7.27134e-05
7.19296e-05
7.11954e-05
7.05099e-05
6.98752e-05
6.92899e-05
6.87496e-05
6.82455e-05
6.77745e-05
6.7346e-05
6.7083e-05
6.68372e-05
6.6595e-05
6.63572e-05
6.61253e-05
6.59044e-05
6.56895e-05
6.54829e-05
6.52792e-05
6.50849e-05
6.48953e-05
6.47149e-05
6.45367e-05
6.43662e-05
6.41977e-05
6.40373e-05
6.388e-05
6.37286e-05
6.358e-05
6.34362e-05
6.32948e-05
6.31597e-05
6.30257e-05
6.28981e-05
6.27699e-05
6.26488e-05
6.25265e-05
6.2412e-05
6.22956e-05
6.21863e-05
6.20752e-05
6.19706e-05
6.18642e-05
6.17649e-05
6.16631e-05
6.15686e-05
6.14704e-05
6.13801e-05
6.12864e-05
6.11925e-05
6.10997e-05
6.10092e-05
6.09205e-05
6.08342e-05
6.07493e-05
6.0667e-05
6.05863e-05
6.05077e-05
6.0431e-05
6.03562e-05
6.02836e-05
6.02128e-05
6.01447e-05
6.00784e-05
6.00152e-05
5.99534e-05
5.98964e-05
5.984e-05
5.979e-05
5.97406e-05
5.96993e-05
5.96583e-05
5.96281e-05
5.95993e-05
5.9583e-05
5.95748e-05
5.95703e-05
5.95796e-05
5.96121e-05
5.96478e-05
5.97218e-05
5.9805e-05
5.99509e-05
6.00794e-05
6.03091e-05
6.06127e-05
6.10264e-05
6.19149e-05
6.15512e-05
6.83154e-05
6.003e-05
5.17914e-05
5.00505e-05
5.00012e-05
4.99891e-05
5.15615e-05
5.17886e-05
5.17337e-05
5.25649e-05
5.22895e-05
5.19961e-05
5.27756e-05
5.23484e-05
5.33146e-05
5.25278e-05
5.00161e-05
5.61095e-05
4.97968e-05
5.38268e-05
5.24313e-05
5.0211e-05
5.12826e-05
5.44575e-05
5.24324e-05
4.97681e-05
5.67404e-05
4.98804e-05
5.13889e-05
5.33341e-05
5.43115e-05
5.14361e-05
5.2186e-05
5.36497e-05
4.91488e-05
5.29146e-05
5.70906e-05
5.05685e-05
5.17403e-05
5.69135e-05
4.94405e-05
5.1297e-05
5.14437e-05
5.54968e-05
5.09397e-05
5.05895e-05
5.30797e-05
5.34863e-05
5.25879e-05
4.99746e-05
5.65532e-05
5.02353e-05
5.52212e-05
4.90585e-05
5.52218e-05
5.6432e-05
5.0519e-05
5.91721e-05
5.0557e-05
5.19365e-05
5.13163e-05
5.68258e-05
5.49934e-05
5.42686e-05
5.52196e-05
5.18415e-05
5.44908e-05
5.04805e-05
5.72111e-05
5.11553e-05
5.58131e-05
5.08852e-05
5.58973e-05
5.16334e-05
5.20658e-05
5.65337e-05
5.06065e-05
5.82382e-05
5.10635e-05
5.2083e-05
4.97922e-05
5.41362e-05
5.26506e-05
5.12312e-05
5.25009e-05
4.97855e-05
5.61505e-05
4.92717e-05
5.15206e-05
4.98734e-05
5.34361e-05
5.42646e-05
5.49978e-05
5.33962e-05
5.14744e-05
5.51523e-05
4.89513e-05
5.44869e-05
5.14109e-05
5.56389e-05
5.07576e-05
4.9805e-05
5.68771e-05
5.04025e-05
5.09404e-05
5.00623e-05
5.74055e-05
5.41084e-05
5.22203e-05
5.04102e-05
5.02426e-05
5.04194e-05
4.94647e-05
5.68843e-05
5.05997e-05
5.61895e-05
5.05051e-05
5.15707e-05
5.12843e-05
5.3931e-05
5.16577e-05
4.93347e-05
5.31618e-05
4.90136e-05
5.54617e-05
4.9712e-05
5.6219e-05
5.39956e-05
5.42718e-05
5.12905e-05
5.01717e-05
5.19248e-05
4.99832e-05
5.73884e-05
4.86995e-05
5.12849e-05
5.44572e-05
5.6467e-05
5.05262e-05
5.17357e-05
4.98415e-05
4.88151e-05
5.23823e-05
4.88763e-05
5.11504e-05
4.91207e-05
5.69661e-05
5.27687e-05
5.50942e-05
5.07264e-05
5.21255e-05
4.98396e-05
5.14188e-05
5.44274e-05
4.89132e-05
5.42005e-05
4.80126e-05
5.39599e-05
4.98128e-05
5.65978e-05
5.181e-05
5.71012e-05
5.3928e-05
5.04296e-05
5.04474e-05
4.99505e-05
5.13202e-05
4.91731e-05
5.66309e-05
5.0097e-05
5.46249e-05
4.9332e-05
5.13916e-05
4.93225e-05
5.53858e-05
5.20109e-05
5.29974e-05
5.27783e-05
4.96114e-05
4.92345e-05
4.85391e-05
4.76323e-05
5.01011e-05
5.31969e-05
4.69527e-05
5.56063e-05
5.01453e-05
5.4997e-05
5.06779e-05
4.87072e-05
5.04315e-05
5.213e-05
5.17865e-05
5.50854e-05
5.18936e-05
5.76347e-05
5.38054e-05
6.33623e-05
7.15338e-05
5.8924e-05
5.38743e-05
5.24984e-05
9.29619e-05
0.00013719
0.000149935
0.000162679
0.000172817
0.000179851
0.000184419
0.000186981
0.000188203
0.000188552
0.000188557
0.000188286
0.000187855
0.000187314
0.00018672
0.000186108
0.000185462
0.000184819
0.000184174
0.000183567
0.000182962
0.000182359
0.000181769
0.000181194
0.000180636
0.000180091
0.00017956
0.000179041
0.000178544
0.000178055
0.000177586
0.000177121
0.000176676
0.000176238
0.000175818
0.000175404
0.000175005
0.000174611
0.000174232
0.000173859
0.0001735
0.000173145
0.000172803
0.000172463
0.000172139
0.000171815
0.000171507
0.000171196
0.000170902
0.000170605
0.000170323
0.000170039
0.000169771
0.000169498
0.000169241
0.000168978
0.000168732
0.000168478
0.000168217
0.000167969
0.000167719
0.000167481
0.00016724
0.000167013
0.000166782
0.000166565
0.000166343
0.000166136
0.000165921
0.000165725
0.000165519
0.000165334
0.000165136
0.000164961
0.000164772
0.000164609
0.00016443
0.000164281
0.000164114
0.000163979
0.000163826
0.000163709
0.000163574
0.00016348
0.000163366
0.000163289
0.000163212
0.000163155
0.000163118
0.000163114
0.000163125
0.000163184
0.00016317
0.00016334
0.000163424
0.000163793
0.000164145
0.00016439
0.00016549
0.000149153
0.000142594
0.000155955
0.000156327
0.00015525
0.000153411
0.000151508
0.000150797
0.000149759
0.000148526
0.000148458
0.000147878
0.000147594
0.000147147
0.000144615
0.000145797
0.0001442
0.000143989
0.000146607
0.000141652
0.000142946
0.000144973
0.000145512
0.000141126
0.000143684
0.000141728
0.000137858
0.000145205
0.000144581
0.000145001
0.000142647
0.00014443
0.000140305
0.000142213
0.000146723
0.000141412
0.000138582
0.000145649
0.000141049
0.000138913
0.000144378
0.000144794
0.00014399
0.000140983
0.000144442
0.000144731
0.000145415
0.000141075
0.000140044
0.000143139
0.000141098
0.00014039
0.000140515
0.000147295
0.000138535
0.000140728
0.000142062
0.000136858
0.00014334
0.000144795
0.000147731
0.000143753
0.00014624
0.000143946
0.000145081
0.000143741
0.00014119
0.000144932
0.000142472
0.0001447
0.000143032
0.000146076
0.00014116
0.000145935
0.000141417
0.000142559
0.000143739
0.00013838
0.000143961
0.000143082
0.000146191
0.000141094
0.000144022
0.00014022
0.000142374
0.000142305
0.000139416
0.000142998
0.000143196
0.000146028
0.000143748
0.000145755
0.000142299
0.000143335
0.000140343
0.000139266
0.000144278
0.000143678
0.000143852
0.000139095
0.00014363
0.000142816
0.000140236
0.0001421
0.000142665
0.000146092
0.000141913
0.000142802
0.000141027
0.000142367
0.00014081
0.000143975
0.000144289
0.000141182
0.000142865
0.000139484
0.000144097
0.000143221
0.000144483
0.000139023
0.000141569
0.000140458
0.00013984
0.000142645
0.000143152
0.000145775
0.000142534
0.000142829
0.000139397
0.000142405
0.000141536
0.000143883
0.000138131
0.00013325
0.000144838
0.000144586
0.000143493
0.000140221
0.000142736
0.000138175
0.000141344
0.000140817
0.000142187
0.000141355
0.000142041
0.000143753
0.000141692
0.000142757
0.000140463
0.000141912
0.000139495
0.000143818
0.00013825
0.000140124
0.000139386
0.000137402
0.000141642
0.00014205
0.000143063
0.000141728
0.000144978
0.000137052
0.000138065
0.000140115
0.000142365
0.000139503
0.000139758
0.0001419
0.000138443
0.000141361
0.000138424
0.000140302
0.000140964
0.000143819
0.000138754
0.000143224
0.000136534
0.000137507
0.000138391
0.000139929
0.000139134
0.00014261
0.000135013
0.00013509
0.000140621
0.000139209
0.000141379
0.000135259
0.000137724
0.000141945
0.00014284
0.000143186
0.000143748
0.000144298
0.000145196
0.00014803
0.000152361
0.000146078
0.000137282
0.000140147
0.00014781
7.27215e-05
0.00010317
0.000145052
0.000172421
0.000199423
0.000222697
0.00024177
0.000253407
0.000261135
0.000266909
0.000271188
0.000274374
0.000276787
0.000278667
0.000280086
0.000281127
0.000281892
0.000282457
0.000282871
0.000283118
0.000283227
0.000283241
0.000283192
0.000283093
0.000282937
0.000282737
0.000282503
0.000282249
0.00028198
0.000281691
0.000281383
0.000281064
0.000280735
0.000280407
0.000280072
0.000279732
0.000279386
0.00027904
0.000278692
0.00027835
0.000278006
0.000277664
0.00027732
0.00027698
0.000276642
0.00027631
0.000275978
0.000275651
0.000275323
0.000275002
0.000274682
0.00027437
0.000274057
0.000273752
0.000273445
0.000273147
0.000272848
0.000272557
0.000272266
0.000271983
0.000271699
0.000271424
0.000271147
0.00027088
0.000270611
0.000270352
0.000270089
0.000269839
0.000269583
0.000269343
0.000269095
0.000268865
0.000268625
0.000268405
0.000268175
0.000267968
0.000267748
0.000267556
0.00026735
0.000267174
0.000266984
0.000266831
0.00026666
0.000266539
0.000266393
0.000266293
0.000266176
0.000266099
0.000266039
0.000266025
0.000266008
0.000266081
0.000266176
0.00026641
0.000266708
0.000267301
0.000267699
0.000271232
0.000268814
0.000233182
0.00021657
0.000247025
0.000255091
0.000258335
0.000259078
0.000257841
0.000257789
0.000256563
0.000254173
0.000253942
0.000252604
0.000252311
0.000250915
0.000245675
0.000250394
0.000245317
0.000244581
0.000246936
0.000238187
0.000240279
0.000243231
0.000244188
0.000236431
0.000244323
0.000238478
0.000235492
0.000241434
0.000241965
0.000241841
0.000237278
0.000241099
0.000232833
0.000239871
0.000244448
0.000236336
0.000234851
0.000242189
0.000235014
0.000234743
0.000238376
0.000242063
0.00023851
0.000232686
0.000238561
0.000240272
0.000241261
0.000233901
0.000240768
0.000238799
0.000237104
0.000231684
0.000225904
0.000244849
0.000230591
0.000240387
0.000235394
0.000229494
0.00023491
0.000237787
0.000243675
0.000236182
0.000240819
0.000234759
0.000239773
0.000234122
0.000240788
0.000238703
0.000235021
0.000237188
0.000231282
0.000240769
0.000232615
0.000242555
0.000233518
0.000241947
0.000237685
0.000232155
0.000234207
0.00023225
0.000241648
0.000234396
0.000239742
0.00023235
0.000240473
0.000237211
0.000235887
0.00023618
0.000238986
0.000243145
0.000240695
0.000242298
0.00023562
0.000239939
0.000230978
0.000234616
0.000239008
0.000240775
0.000237201
0.000228902
0.00024027
0.000237687
0.000235124
0.000233091
0.000236732
0.000243039
0.000234698
0.000235386
0.000231008
0.000235603
0.000232137
0.000242522
0.000241314
0.000240816
0.000235619
0.000231645
0.000237208
0.000236893
0.000238348
0.000229411
0.00023691
0.000232831
0.00023919
0.000238553
0.000241717
0.00024311
0.000237109
0.000235523
0.000228111
0.000235175
0.000232589
0.000240867
0.00022988
0.000226247
0.000239316
0.000240973
0.000236984
0.000232616
0.000233661
0.000226795
0.000235137
0.000233401
0.000236364
0.000235399
0.000242599
0.000242171
0.000236878
0.000235233
0.000231364
0.000232246
0.000229709
0.000238239
0.000229356
0.000234537
0.000231755
0.000235805
0.000236708
0.000240886
0.000239566
0.000237173
0.00024049
0.000225452
0.000231053
0.000228726
0.000234501
0.000229872
0.000239486
0.000236981
0.000235834
0.000232576
0.000229861
0.000230964
0.000228023
0.000239843
0.000230946
0.000237186
0.000225875
0.000230841
0.000227647
0.000231064
0.000230782
0.000238543
0.000227424
0.000233298
0.000237891
0.000236412
0.000235532
0.000223325
0.000231252
0.000235252
0.000237367
0.000239629
0.000240031
0.000242819
0.000241665
0.000247935
0.000259438
0.000237033
0.00022081
0.000221798
0.000231507
6.07194e-05
7.73585e-05
0.000105338
0.00014281
0.000173465
0.00020321
0.000231766
0.000258217
0.000280133
0.000299142
0.00031215
0.000321772
0.000329785
0.000336578
0.000342283
0.000347066
0.000351122
0.000354604
0.000357613
0.000360173
0.000362356
0.000364236
0.000365872
0.000367293
0.000368512
0.000369561
0.000370466
0.000371255
0.000371941
0.000372525
0.000373018
0.000373435
0.000373788
0.000374089
0.000374336
0.000374533
0.000374684
0.000374799
0.000374882
0.00037494
0.000374967
0.00037497
0.000374948
0.000374908
0.000374852
0.000374783
0.000374698
0.000374599
0.000374486
0.000374365
0.000374234
0.000374099
0.000373952
0.000373801
0.000373641
0.000373478
0.000373308
0.000373137
0.000372959
0.000372782
0.000372597
0.000372414
0.000372224
0.000372039
0.000371847
0.00037166
0.000371465
0.000371277
0.000371081
0.000370895
0.000370701
0.000370519
0.000370327
0.00037015
0.000369962
0.000369793
0.000369613
0.000369456
0.000369286
0.000369145
0.000368989
0.000368871
0.000368734
0.000368652
0.000368541
0.000368491
0.000368401
0.000368372
0.000368356
0.000368403
0.000368423
0.000368592
0.000368742
0.000369117
0.000369532
0.000370411
0.000371004
0.000375782
0.000372908
0.00032427
0.0002945
0.00032383
0.000343737
0.000352288
0.000357572
0.000359502
0.000361736
0.000361988
0.000360043
0.000360362
0.000359083
0.000359329
0.000357704
0.000351064
0.000355432
0.000350951
0.00034799
0.000350843
0.000340135
0.000340451
0.000344331
0.000345983
0.000336669
0.000345486
0.000340407
0.000333748
0.000340737
0.00034254
0.000342501
0.000336505
0.000340411
0.000330009
0.000336509
0.000344135
0.000336386
0.000331721
0.000340543
0.00033311
0.000330162
0.00033472
0.000339784
0.000336557
0.000328277
0.00033448
0.000337838
0.000339418
0.000330693
0.000337679
0.000337346
0.000333691
0.000326612
0.000305293
0.000343638
0.000328074
0.000338089
0.000333863
0.00032669
0.000329408
0.000318552
0.000341291
0.000332954
0.000337154
0.000329651
0.000334257
0.000327388
0.000333702
0.00033388
0.000332951
0.00033257
0.000320207
0.000337541
0.000327842
0.000339114
0.00032933
0.000338117
0.000335024
0.000328945
0.000326901
0.000315402
0.000337049
0.000330248
0.00033596
0.000327632
0.000336584
0.000334543
0.000331167
0.000332016
0.000331085
0.00034183
0.000340777
0.000342088
0.000333797
0.000337628
0.000326119
0.000331035
0.000335618
0.000338093
0.000334353
0.000323126
0.000336296
0.000335233
0.000330908
0.000327515
0.000329556
0.000342443
0.000332198
0.000330188
0.000324486
0.000329143
0.000325683
0.000338789
0.000340012
0.000338959
0.000332916
0.000325891
0.000332333
0.000332302
0.000334477
0.000323612
0.000331672
0.000327871
0.000334912
0.000336171
0.00033681
0.000343551
0.000336442
0.000332564
0.000321758
0.000328737
0.000326385
0.000336619
0.00032562
0.000324564
0.000335134
0.000339132
0.000334658
0.000326997
0.000327075
0.000318728
0.000328154
0.000327511
0.000331249
0.000331361
0.000340108
0.000343706
0.00033669
0.000333391
0.000326652
0.000326553
0.000323252
0.000334023
0.000324268
0.000328912
0.000326306
0.000330623
0.000333497
0.000331036
0.000339977
0.000336866
0.000340575
0.000321012
0.000324449
0.000320955
0.000327466
0.00032299
0.000334836
0.000334694
0.000332256
0.000328231
0.000323602
0.00032513
0.000305928
0.000337936
0.000327776
0.000334619
0.000320851
0.000323832
0.000320092
0.000323065
0.000323691
0.000335138
0.000324004
0.000335162
0.000338275
0.000336758
0.000335335
0.000318163
0.000325424
0.000331202
0.000334771
0.000338946
0.000339595
0.00034322
0.000342316
0.000333929
0.0003701
0.000343036
0.000312041
0.000304502
0.000313533
5.44164e-05
6.12925e-05
7.52523e-05
9.9501e-05
0.000133542
0.000165556
0.000192909
0.000222566
0.000251138
0.000279282
0.00030381
0.000325654
0.000344586
0.000361079
0.000373936
0.000383773
0.000392404
0.000400055
0.00040686
0.000412853
0.000418157
0.000422892
0.000427145
0.000430965
0.000434386
0.000437462
0.000440239
0.000442761
0.000445052
0.000447122
0.000448998
0.000450703
0.000452257
0.000453682
0.000454977
0.000456153
0.000457224
0.000458203
0.000459098
0.00045992
0.000460666
0.000461345
0.000461962
0.000462525
0.000463041
0.000463512
0.000463938
0.000464322
0.000464668
0.000464982
0.000465266
0.000465523
0.000465751
0.000465954
0.000466132
0.000466291
0.000466429
0.000466551
0.000466654
0.000466742
0.000466813
0.000466873
0.000466917
0.000466954
0.000466975
0.000466991
0.000466993
0.000466991
0.000466976
0.000466961
0.000466934
0.00046691
0.000466873
0.000466841
0.000466797
0.000466765
0.000466719
0.00046669
0.000466648
0.000466627
0.000466593
0.000466592
0.000466573
0.000466609
0.000466613
0.000466693
0.000466714
0.000466805
0.000466909
0.000467094
0.000467233
0.000467573
0.000467869
0.000468462
0.00046909
0.000470322
0.000471262
0.000477141
0.000473899
0.000418135
0.000385364
0.0003911
0.000420005
0.000437446
0.000446739
0.000452475
0.000457636
0.000460372
0.000460164
0.000461765
0.000461464
0.000462849
0.000461667
0.000454932
0.000459184
0.000455097
0.000451003
0.00045404
0.000442677
0.000441201
0.000445025
0.000447199
0.000437709
0.000446766
0.000442297
0.000433761
0.00044053
0.000443126
0.000443324
0.000436959
0.000440286
0.000428615
0.000433804
0.000443341
0.000436629
0.000430244
0.000439331
0.000431821
0.00042711
0.000431635
0.000437398
0.000434722
0.000425016
0.000430765
0.000435183
0.000437244
0.000428175
0.000434998
0.000435502
0.000430934
0.000422546
0.00040133
0.000442209
0.000426973
0.000436647
0.000432892
0.000423392
0.000425706
0.000409208
0.000439408
0.000431231
0.000434553
0.000426278
0.000429829
0.000421812
0.000427143
0.000428388
0.000428562
0.00042757
0.000421693
0.000433776
0.000424019
0.00043536
0.000425759
0.000434307
0.000431867
0.000423899
0.000420191
0.000407472
0.000431257
0.000425649
0.000431283
0.000422973
0.000432079
0.000430943
0.000426733
0.00042767
0.00042687
0.000439658
0.000440258
0.000441648
0.000433155
0.000436164
0.000422939
0.000425835
0.000431872
0.000434418
0.000431892
0.000419121
0.000432757
0.000432854
0.000427732
0.000423236
0.000424239
0.000441088
0.000430743
0.000426443
0.000419328
0.000423287
0.000419665
0.00043417
0.000437533
0.000437024
0.000430973
0.000421613
0.000427774
0.00042785
0.000430582
0.000418984
0.000426693
0.000423187
0.000430185
0.000432999
0.000431843
0.000443602
0.000436635
0.000431633
0.000417999
0.000423667
0.000421343
0.000432436
0.000421776
0.000418757
0.000430765
0.000436704
0.000432588
0.000422925
0.000421999
0.00041208
0.000421265
0.000421385
0.000425654
0.000426856
0.000434507
0.000443809
0.000437002
0.000433175
0.000424164
0.000423087
0.000418544
0.000429935
0.00042016
0.000423965
0.000421144
0.000424924
0.000429614
0.000422081
0.000439914
0.000437471
0.000441672
0.000420096
0.000420616
0.000415508
0.000421518
0.000417187
0.000430124
0.000431849
0.000428984
0.000425062
0.000418357
0.000420152
0.000394598
0.000436034
0.000426264
0.000432867
0.000418162
0.000418529
0.000414135
0.000415674
0.00041667
0.000430429
0.000420781
0.000432924
0.000437787
0.000437361
0.000436319
0.000416484
0.000422045
0.000428288
0.000432836
0.000437153
0.000439692
0.00043732
0.000444275
0.000421714
0.00048253
0.000455631
0.000411679
0.000399473
0.000392204
5.48767e-05
5.26072e-05
5.78097e-05
6.93613e-05
9.02021e-05
0.000120235
0.000156716
0.000180574
0.000207509
0.000235907
0.000263758
0.000292289
0.000318163
0.000342433
0.00036455
0.000383958
0.000401398
0.000416986
0.000430835
0.000441015
0.0004502
0.000458546
0.000466161
0.000473104
0.000479415
0.000485176
0.000490457
0.000495319
0.000499796
0.000503909
0.000507698
0.000511198
0.00051444
0.000517452
0.000520239
0.000522821
0.000525219
0.000527452
0.000529533
0.000531477
0.000533284
0.000534969
0.000536542
0.000538013
0.000539393
0.000540684
0.00054189
0.000543017
0.000544072
0.000545063
0.000545993
0.000546867
0.000547684
0.000548451
0.000549169
0.000549844
0.000550478
0.000551075
0.000551633
0.000552158
0.000552648
0.00055311
0.000553542
0.000553951
0.000554332
0.000554692
0.000555026
0.000555343
0.000555637
0.000555919
0.00055618
0.000556432
0.000556664
0.00055689
0.000557098
0.000557308
0.000557499
0.000557698
0.00055788
0.000558076
0.000558254
0.000558461
0.000558646
0.000558885
0.000559087
0.000559374
0.000559595
0.000559882
0.000560182
0.000560579
0.00056092
0.000561498
0.000562016
0.000562888
0.000563799
0.000565421
0.000566792
0.000573536
0.000569918
0.000511257
0.00048011
0.000461645
0.000484919
0.000510656
0.00052812
0.000537095
0.000544966
0.000550416
0.000552563
0.00055586
0.000557164
0.000560108
0.000559896
0.000554046
0.000558589
0.000554924
0.000550826
0.000553778
0.000542755
0.000539935
0.000543379
0.000545847
0.000536998
0.000545984
0.000541907
0.000532819
0.000538895
0.000541966
0.000542351
0.00053631
0.000538816
0.000526553
0.000530475
0.000540932
0.000535135
0.000528202
0.00053696
0.000529421
0.000523706
0.000527776
0.000533851
0.000531467
0.000521228
0.00052618
0.000531208
0.000533523
0.00052466
0.000531217
0.000532017
0.000527139
0.000517863
0.000511473
0.000539056
0.000525061
0.000534215
0.000530671
0.000520379
0.00052205
0.000515086
0.000536818
0.000529293
0.000531544
0.000523031
0.000525328
0.00051634
0.000520476
0.000521863
0.000521675
0.000521241
0.000521759
0.000528146
0.000519441
0.00053022
0.000521255
0.000529242
0.00052706
0.000518263
0.000513061
0.000503336
0.000523803
0.000519565
0.000524824
0.000517036
0.000525956
0.000525389
0.000521069
0.000521939
0.000526264
0.000535479
0.000537596
0.000539362
0.000531564
0.000533796
0.000519591
0.000520811
0.000527216
0.000531117
0.000528225
0.00051524
0.000528571
0.000529446
0.000524041
0.000518889
0.000520759
0.000538135
0.000528425
0.000522507
0.000514158
0.000517012
0.000513324
0.000525413
0.000533179
0.00053361
0.000527781
0.00051738
0.000522667
0.000522992
0.000525694
0.000514113
0.000521056
0.000517792
0.000524654
0.000528378
0.000532883
0.000541835
0.000535828
0.000530281
0.000515044
0.00051895
0.000516571
0.000527706
0.000517282
0.000513225
0.000525631
0.000533002
0.000529249
0.000518811
0.000516855
0.000505763
0.000514097
0.000514596
0.000519042
0.000521163
0.000526738
0.000541513
0.000535949
0.000532025
0.000522017
0.000519899
0.000514383
0.000525403
0.000515875
0.00051874
0.000515479
0.000518811
0.000524469
0.000519092
0.000538127
0.000537219
0.000541774
0.000519997
0.000517677
0.000511205
0.000516059
0.000511754
0.000522615
0.000527809
0.000525213
0.000521363
0.000513413
0.000515075
0.000500733
0.000533152
0.000524627
0.000530504
0.000515862
0.000513765
0.000508692
0.000508377
0.000509259
0.000524211
0.00051642
0.000526408
0.000535387
0.000536631
0.000536162
0.000515676
0.000519549
0.000525559
0.000530643
0.000534765
0.000539192
0.000535566
0.000546175
0.000514823
0.000593611
0.000568904
0.000517744
0.000494582
0.000476967
6.84576e-05
5.0982e-05
4.93926e-05
5.29879e-05
6.25063e-05
7.97796e-05
0.000106067
0.000138379
0.000171186
0.000193403
0.000218599
0.000245747
0.000272225
0.000300169
0.000326638
0.000351801
0.00037581
0.000397787
0.000418155
0.000436659
0.000453356
0.000468462
0.000482391
0.000494375
0.000504054
0.000512985
0.000521259
0.000528947
0.000536087
0.000542699
0.000548844
0.000554568
0.000559916
0.000564922
0.000569593
0.00057396
0.000578049
0.00058189
0.000585499
0.000588894
0.00059208
0.00059508
0.000597905
0.000600571
0.000603091
0.00060547
0.000607714
0.000609835
0.000611842
0.000613744
0.000615547
0.000617256
0.000618874
0.00062041
0.000621866
0.000623251
0.000624567
0.00062582
0.000627009
0.00062814
0.000629214
0.00063024
0.000631216
0.000632148
0.000633034
0.000633881
0.000634686
0.000635457
0.000636192
0.000636898
0.000637571
0.00063822
0.000638838
0.000639436
0.000640008
0.000640567
0.000641101
0.000641631
0.000642136
0.000642645
0.000643131
0.000643637
0.000644116
0.000644642
0.000645129
0.000645699
0.000646208
0.000646767
0.000647335
0.000648015
0.000648634
0.000649513
0.000650317
0.000651518
0.000652761
0.000654787
0.000656629
0.000663976
0.000659969
0.000601229
0.000562855
0.000537405
0.00055199
0.000566887
0.000603485
0.000614599
0.000624679
0.000632585
0.000637137
0.000642228
0.000645458
0.000650107
0.0006512
0.000646844
0.000652
0.000648952
0.000645668
0.000648468
0.000638457
0.000634841
0.000638033
0.000640631
0.000632921
0.000641698
0.000637898
0.000629086
0.000634378
0.000637848
0.000638333
0.000633004
0.000634657
0.000622338
0.000625301
0.000636053
0.00063094
0.000624123
0.000632259
0.000624777
0.000618627
0.000622144
0.000628277
0.000625953
0.000615751
0.00061984
0.000625171
0.000627546
0.00061914
0.000625359
0.000626161
0.00062132
0.00061147
0.000616952
0.000633127
0.000621047
0.000629112
0.000626214
0.000616086
0.000617043
0.000623939
0.000632248
0.000625892
0.000627081
0.000618737
0.000619815
0.000610097
0.000613036
0.000614022
0.000613631
0.000613192
0.000613765
0.0006203
0.000613213
0.000623117
0.000614998
0.000622222
0.000620077
0.000611054
0.00060466
0.000599744
0.000614413
0.000611575
0.000616273
0.000609222
0.000616747
0.000617498
0.000613435
0.000614178
0.000619314
0.000628775
0.000632249
0.000634513
0.000627854
0.000629434
0.000614855
0.000614916
0.000621146
0.000625314
0.000622741
0.00061034
0.000622976
0.000624362
0.000618965
0.00061354
0.000616863
0.000633164
0.000624346
0.000617271
0.000608114
0.000609739
0.000606114
0.000613974
0.000626802
0.000628144
0.000622546
0.000612108
0.000616356
0.000617115
0.000619369
0.000608228
0.000614236
0.000611161
0.000617816
0.000622031
0.000630424
0.000637609
0.000633064
0.000627165
0.00061147
0.000613673
0.0006113
0.000621984
0.000611661
0.000607142
0.000619342
0.000627715
0.000624176
0.00061369
0.000610704
0.000599059
0.000606293
0.000606915
0.000611247
0.000614052
0.000617154
0.000636687
0.000632823
0.000628883
0.00061884
0.00061571
0.000609825
0.000619904
0.000610745
0.000612616
0.000608861
0.000611847
0.000617887
0.00062003
0.00063409
0.000635026
0.000639831
0.000619019
0.000614286
0.000606943
0.000610449
0.000606123
0.000611994
0.000622426
0.000620317
0.000616348
0.000607962
0.000609106
0.000608889
0.000628474
0.000621848
0.000626819
0.000612818
0.000608693
0.000602932
0.000600733
0.00059764
0.000616588
0.000610564
0.000614715
0.000630871
0.00063379
0.0006339
0.000614082
0.000616375
0.000622196
0.000627494
0.000634584
0.000637438
0.000637821
0.000647059
0.000605859
0.00070206
0.000679546
0.000626072
0.000594044
0.000571622
0.000108646
6.01573e-05
4.93499e-05
4.66602e-05
4.87461e-05
5.60383e-05
7.00203e-05
9.15699e-05
0.000119681
0.000152092
0.000182939
0.000204174
0.00022768
0.000253074
0.000278147
0.000304674
0.000331381
0.000356616
0.000381329
0.00040498
0.000427058
0.000447734
0.000467101
0.00048498
0.000501343
0.000516431
0.00053032
0.000543215
0.00055465
0.000564085
0.000572915
0.000581199
0.000588988
0.000596321
0.000603197
0.000609662
0.00061575
0.000621499
0.000626931
0.000632065
0.000636911
0.000641497
0.000645838
0.000649957
0.000653869
0.000657579
0.0006611
0.000664446
0.000667627
0.000670657
0.000673545
0.000676296
0.000678915
0.000681414
0.000683798
0.000686076
0.000688253
0.000690335
0.000692323
0.000694226
0.000696045
0.000697789
0.000699461
0.000701063
0.000702599
0.000704072
0.000705484
0.000706842
0.000708147
0.000709404
0.000710612
0.000711777
0.000712898
0.000713982
0.000715027
0.000716045
0.000717026
0.000717988
0.000718917
0.000719836
0.000720724
0.00072162
0.000722482
0.000723382
0.000724237
0.000725167
0.000726042
0.000726954
0.000727859
0.000728889
0.00072986
0.000731094
0.00073224
0.000733813
0.000735425
0.000737858
0.000740182
0.00074788
0.000743504
0.000686515
0.000643805
0.000615011
0.000624932
0.000623731
0.000658717
0.000678497
0.000697933
0.000707854
0.000714499
0.000721252
0.000726446
0.000732807
0.00073535
0.000732729
0.000738671
0.000736474
0.000734512
0.000737237
0.000728672
0.000724751
0.000727958
0.000730641
0.000724395
0.000732934
0.000729388
0.000721348
0.000725914
0.000729814
0.000730397
0.000726007
0.000726872
0.000714885
0.000717242
0.000727945
0.000723351
0.000717005
0.000724371
0.000717052
0.0007109
0.000713902
0.000719948
0.000717558
0.000707753
0.000710996
0.00071647
0.000718794
0.000710943
0.000716687
0.00071739
0.000712816
0.00070265
0.000708739
0.000724052
0.00071417
0.000717791
0.000718881
0.000709506
0.000709841
0.000716948
0.000724965
0.000720208
0.00072038
0.000712494
0.000712483
0.000702306
0.00070417
0.000704514
0.000703977
0.000703214
0.000704141
0.000710168
0.000704825
0.00071369
0.000706501
0.000711944
0.00071062
0.000701692
0.000694358
0.00069307
0.000702855
0.000701391
0.00070546
0.000699211
0.000703094
0.000707073
0.000703462
0.000704005
0.000709538
0.000719335
0.000724031
0.000726757
0.000721421
0.000722456
0.000707932
0.000707333
0.00071318
0.000717629
0.000715098
0.000703712
0.000715444
0.000717138
0.000711939
0.000706532
0.000710282
0.000725872
0.000718029
0.000710085
0.000700569
0.000700875
0.000697518
0.000700248
0.000718314
0.000720421
0.000714968
0.000705094
0.000708349
0.000709637
0.000711256
0.000700824
0.000705881
0.000702938
0.000707652
0.000713758
0.000722683
0.000730759
0.000727896
0.000721649
0.000706324
0.000707058
0.000704837
0.000714836
0.000704563
0.000699941
0.000711583
0.000720515
0.000717149
0.000707039
0.000703037
0.000691376
0.000697457
0.000698065
0.000702105
0.000705389
0.000705616
0.000729365
0.000727171
0.000723319
0.00071384
0.00070976
0.000704067
0.000712938
0.000704246
0.000705168
0.000700945
0.000703688
0.000709733
0.000716783
0.00072762
0.000730511
0.000735385
0.000716222
0.000709571
0.000701815
0.000703991
0.00069974
0.000699627
0.000715578
0.000713966
0.000709644
0.000701408
0.000701814
0.000707336
0.000721698
0.000717376
0.000721425
0.000708364
0.000702626
0.000696254
0.000692348
0.000684185
0.000707603
0.00070312
0.000699507
0.00072429
0.000728781
0.000729254
0.000710815
0.000711813
0.000717551
0.000722882
0.000730389
0.000734014
0.000739149
0.000746298
0.000698792
0.000807356
0.000786884
0.000733848
0.000695603
0.000675132
0.00011449
8.83522e-05
6.1248e-05
5.02565e-05
4.58093e-05
4.59544e-05
5.08533e-05
6.13753e-05
7.82059e-05
0.00010164
0.000130382
0.000162164
0.00019362
0.000213635
0.000235438
0.000258984
0.000283024
0.000307547
0.000333551
0.000358588
0.000383288
0.00040759
0.000430702
0.000452702
0.000473842
0.000493731
0.000512314
0.000529809
0.000546245
0.000561363
0.00057539
0.00058856
0.000600822
0.000612336
0.000621646
0.000630442
0.000638769
0.000646668
0.000654166
0.000661276
0.000668013
0.000674412
0.000680494
0.000686287
0.000691809
0.000697064
0.000702069
0.000706842
0.000711398
0.000715752