/*--------------------------------*- C++ -*----------------------------------*\
| =========                 |                                                 |
| \\      /  F ield         | foam-extend: Open Source CFD                    |
|  \\    /   O peration     | Version:     3.2                                |
|   \\  /    A nd           | Web:         http://www.foam-extend.org         |
|    \\/     M anipulation  | For copyright notice see file Copyright         |
\*---------------------------------------------------------------------------*/
FoamFile
{
    version     2.0;
    format      ascii;
    class       areaScalarField;
    location    "160";
    object      Fi1;
}
// * * * * * * * * * * * * * * * * * * * * * * * * * * * * * * * * * * * * * //

dimensions      [0 1 -1 0 0 0 0];

internalField   nonuniform List<scalar> 
300
(
-0.000738682
-0.000520019
-0.000293344
-0.000213996
-0.000186178
-0.000172077
-0.000162078
-0.000153481
-0.000145692
-0.000138732
-0.000132605
-0.000127201
-0.000122367
-0.000118103
-0.000114303
-0.000110882
-0.000107778
-0.000104937
-0.000102354
-0.000100016
-9.78573e-05
-9.58436e-05
-9.39615e-05
-9.22063e-05
-9.05667e-05
-8.90245e-05
-8.75719e-05
-8.6199e-05
-8.4902e-05
-8.36804e-05
-8.25162e-05
-8.1414e-05
-8.03578e-05
-7.93562e-05
-7.83967e-05
-7.7486e-05
-7.66072e-05
-7.57702e-05
-7.49614e-05
-7.41885e-05
-7.34442e-05
-7.27296e-05
-7.20389e-05
-7.13748e-05
-7.07304e-05
-7.01127e-05
-6.95117e-05
-6.89359e-05
-6.83715e-05
-6.78322e-05
-6.73015e-05
-6.67945e-05
-6.62963e-05
-6.58195e-05
-6.53497e-05
-6.48996e-05
-6.4455e-05
-6.40306e-05
-6.36032e-05
-6.32012e-05
-6.27948e-05
-6.24162e-05
-6.20301e-05
-6.16736e-05
-6.13063e-05
-6.0972e-05
-6.0622e-05
-6.0309e-05
-5.99757e-05
-5.96837e-05
-5.93674e-05
-5.90972e-05
-5.87984e-05
-5.85513e-05
-5.82706e-05
-5.80487e-05
-5.77897e-05
-5.75949e-05
-5.73628e-05
-5.72e-05
-5.70007e-05
-5.6876e-05
-5.6722e-05
-5.66427e-05
-5.65568e-05
-5.65292e-05
-5.65321e-05
-5.65918e-05
-5.66919e-05
-5.68937e-05
-5.71889e-05
-5.75698e-05
-5.81641e-05
-5.88272e-05
-6.00333e-05
-6.12822e-05
-6.41275e-05
-6.52927e-05
-8.14662e-05
-2.97034e-05
-2.40142e-06
-2.80594e-06
-4.46618e-06
-4.38586e-06
-5.33734e-06
-5.80857e-06
-5.36409e-06
-7.06867e-06
-5.90745e-06
6.77443e-06
7.80345e-06
-1.95143e-05
-3.61803e-05
8.24227e-09
1.65702e-05
3.16124e-05
1.48156e-05
-2.83951e-05
-3.06154e-05
-1.02098e-06
2.09024e-05
3.23485e-05
1.47815e-05
-3.31939e-05
-4.19516e-05
1.04452e-05
1.77663e-05
3.24916e-05
7.99903e-06
-2.25134e-05
-4.3212e-05
3.10734e-05
4.49958e-05
-4.17836e-05
-4.24141e-05
8.41364e-06
1.42721e-05
4.1074e-05
1.82772e-05
-2.67038e-05
-5.36091e-05
-1.22752e-05
3.94178e-05
3.83223e-05
4.0142e-06
-2.71741e-05
-3.18996e-05
-1.48774e-05
1.81943e-05
4.49158e-05
1.61626e-05
-2.35487e-05
-5.25204e-05
-1.83634e-06
2.33891e-05
3.52078e-05
1.96503e-05
-2.11807e-05
-5.08022e-05
-1.76689e-05
2.49317e-05
3.90263e-05
8.83247e-06
8.93214e-06
-1.36154e-05
-3.85753e-05
-9.59656e-06
2.86339e-05
3.72803e-05
-2.28425e-05
-3.87852e-05
4.51581e-06
1.88185e-05
3.80195e-05
-2.8199e-05
-4.00512e-05
9.01785e-06
-5.76777e-07
2.99776e-05
2.59235e-05
7.95371e-06
-2.13138e-05
-2.78533e-05
1.52891e-05
3.24654e-05
1.5035e-05
-1.84481e-05
-3.6767e-05
-1.48154e-05
1.21448e-05
3.4303e-05
-2.01753e-05
-3.96621e-05
3.1328e-05
4.3768e-05
-2.79422e-05
-4.75135e-05
-8.17416e-06
4.07756e-05
2.75324e-05
-6.07739e-07
1.50343e-05
-1.06398e-05
-4.77954e-05
7.92319e-06
4.32533e-05
1.35668e-05
-1.26612e-05
-3.27288e-05
2.0414e-06
1.40281e-05
2.50793e-05
3.6661e-06
-1.85101e-05
-2.27335e-05
-7.19741e-06
-1.25458e-05
1.81792e-05
4.55362e-05
-1.9451e-05
-3.22267e-05
1.83243e-05
2.98676e-05
3.49433e-06
-3.29582e-05
-4.54339e-05
-3.38768e-06
9.20505e-06
2.17256e-05
3.58979e-05
-1.6926e-06
-1.40124e-05
-1.5328e-05
-1.92132e-05
-2.89786e-05
2.0143e-05
4.61268e-05
-1.64094e-05
-1.84925e-05
1.56025e-05
3.21643e-05
9.7907e-06
-1.5511e-05
-4.67567e-05
-2.01668e-05
1.92258e-05
3.81881e-05
1.16304e-05
-1.44918e-05
-2.55611e-05
-1.48908e-05
2.44594e-05
3.68269e-05
1.10745e-05
-1.79044e-05
-3.23434e-05
-1.87338e-05
1.48968e-05
3.35695e-05
-2.3739e-06
-1.14035e-05
-2.50255e-05
2.48327e-05
3.10837e-05
-1.19276e-05
-4.15641e-05
-1.27862e-05
2.22315e-05
3.44401e-05
-1.07162e-05
-2.44184e-05
-1.07692e-05
9.35324e-06
3.35159e-05
-2.05943e-05
-2.67373e-05
-4.43362e-06
2.46412e-05
3.01833e-05
-1.21978e-05
-3.27392e-05
1.89892e-06
1.36454e-05
-7.041e-06
-3.66711e-05
-6.71504e-06
-8.76948e-06
-6.42852e-06
-6.27381e-06
-5.829e-06
-5.74874e-06
-4.85961e-06
-4.96513e-06
-3.71703e-06
-3.49692e-06
-1.70845e-06
-3.02895e-05
-6.04829e-05
-4.16796e-05
-3.55425e-05
)
;

boundaryField
{
    inlet
    {
        type            calculated;
        value           uniform -0.000738682;
    }
    outlet
    {
        type            calculated;
        value           uniform -3.85012e-05;
    }
    sideWall
    {
        type            empty;
    }
}


// ************************************************************************* //
