/*--------------------------------*- C++ -*----------------------------------*\
| =========                 |                                                 |
| \\      /  F ield         | foam-extend: Open Source CFD                    |
|  \\    /   O peration     | Version:     3.2                                |
|   \\  /    A nd           | Web:         http://www.foam-extend.org         |
|    \\/     M anipulation  | For copyright notice see file Copyright         |
\*---------------------------------------------------------------------------*/
FoamFile
{
    version     2.0;
    format      ascii;
    class       areaScalarField;
    location    "160";
    object      He;
}
// * * * * * * * * * * * * * * * * * * * * * * * * * * * * * * * * * * * * * //

dimensions      [0 0 0 0 0 0 0];

internalField   nonuniform List<scalar> 
300
(
0
0
0
0
0
0
0
0
0
0
0
0
0
0
0
0
0
0
0
0
0
0
0
0
0
0
0
0
0
0
0
0
0
0
0
0
0
0
0
0
0
0
0
0
0
0
0
0
0
0
0
0
0
0
0
0
0
0
0
0
0
0
0
0
0
0
0
0
0
0
0
0
0
0
0
0
0
0
0
0
0
0
0
0
0
0
0
0
0
0
0
0
0
0
0
0
0
0
0
5.99819e-07
1.90177e-06
3.12011e-06
4.03117e-06
4.64386e-06
5.21733e-06
5.57963e-06
5.90137e-06
6.35225e-06
3.0272e-06
0
0
2.58265e-05
2.29677e-05
4.89887e-06
0
0
0
2.76136e-05
2.26607e-05
2.93807e-06
0
0
0
3.61301e-05
2.66648e-05
8.25281e-07
0
0
0
2.7501e-05
1.94668e-05
0
0
4.78517e-05
2.95503e-05
2.82937e-06
0
0
0
3.39301e-05
3.65495e-05
9.68649e-06
0
0
0
3.12923e-05
2.64626e-05
1.08652e-05
0
0
0
2.77089e-05
3.25955e-05
8.19458e-06
0
0
0
2.22342e-05
3.5117e-05
1.53014e-05
0
0
0
0
2.29712e-05
2.50908e-05
7.28387e-06
0
0
2.99386e-05
2.39736e-05
2.73371e-06
0
0
3.72269e-05
2.48222e-05
5.64975e-06
0
0
0
0
3.109e-05
1.54315e-05
0
0
0
2.03027e-05
2.66998e-05
1.3563e-05
0
0
3.11349e-05
1.70427e-05
0
0
3.58268e-05
3.27865e-05
5.77331e-06
0
0
0
0
1.66098e-05
2.4579e-05
0
0
0
1.24375e-05
1.90208e-05
3.65524e-06
0
0
0
2.62569e-05
1.77932e-05
1.24182e-05
3.52747e-06
0
0
2.13451e-05
1.63949e-05
0
0
0
4.28312e-05
3.18046e-05
1.07517e-05
0
0
0
0
2.16152e-05
1.59704e-05
2.06835e-05
1.42573e-05
0
0
1.28593e-05
9.44599e-06
0
0
0
2.59741e-05
3.22986e-05
1.69654e-05
0
0
0
1.28785e-05
2.01259e-05
7.72026e-06
0
0
0
1.94206e-05
2.53308e-05
1.37306e-05
0
0
0
1.38683e-05
9.1569e-06
0
0
2.23252e-05
2.6961e-05
1.12261e-05
0
0
1.31447e-05
1.75808e-05
9.15233e-06
0
0
2.38931e-05
1.96251e-05
2.74116e-06
0
0
1.81293e-05
1.89422e-05
3.82246e-06
0
2.85199e-05
2.17787e-05
1.47198e-05
7.67079e-06
6.97512e-06
6.20131e-06
5.92016e-06
5.54661e-06
5.10836e-06
4.62697e-06
3.97425e-06
3.10602e-06
1.72856e-06
4.26015e-07
0
0
0
)
;

boundaryField
{
    inlet
    {
        type            calculated;
        value           uniform 0;
    }
    outlet
    {
        type            calculated;
        value           uniform 0;
    }
    sideWall
    {
        type            empty;
    }
}


// ************************************************************************* //
