/*--------------------------------*- C++ -*----------------------------------*\
| =========                 |                                                 |
| \\      /  F ield         | foam-extend: Open Source CFD                    |
|  \\    /   O peration     | Version:     3.2                                |
|   \\  /    A nd           | Web:         http://www.foam-extend.org         |
|    \\/     M anipulation  | For copyright notice see file Copyright         |
\*---------------------------------------------------------------------------*/
FoamFile
{
    version     2.0;
    format      ascii;
    class       volScalarField;
    location    "160";
    object      k;
}
// * * * * * * * * * * * * * * * * * * * * * * * * * * * * * * * * * * * * * //

dimensions      [0 2 -2 0 0 0 0];

internalField   nonuniform List<scalar> 
96000
(
0.178319
0.142008
0.0985162
0.0808966
0.0742543
0.070771
0.0682484
0.0660412
0.0640089
0.0621652
0.0605191
0.059048
0.0577166
0.0565292
0.0554602
0.0544889
0.0536001
0.0527802
0.0520288
0.0513442
0.0507079
0.0501107
0.0495492
0.0490228
0.0485283
0.048061
0.0476187
0.0471988
0.0468003
0.0464234
0.0460628
0.0457201
0.0453905
0.0450767
0.0447752
0.044488
0.04421
0.0439444
0.043687
0.0434403
0.043202
0.0429727
0.0427504
0.0425361
0.0423276
0.0421274
0.041932
0.0417444
0.0415602
0.0413837
0.0412096
0.041043
0.040879
0.0407217
0.0405664
0.0404173
0.0402698
0.0401287
0.0399864
0.0398523
0.0397165
0.0395898
0.0394603
0.0393406
0.0392171
0.0391045
0.0389864
0.0388807
0.0387679
0.038669
0.0385617
0.0384699
0.0383683
0.0382842
0.0381884
0.0381127
0.0380242
0.0379576
0.0378781
0.0378223
0.0377539
0.0377112
0.0376582
0.037631
0.0376014
0.0375919
0.0375929
0.0376134
0.0376477
0.037717
0.0378182
0.0379486
0.0381516
0.0383774
0.0387865
0.0392077
0.0401593
0.0405515
0.0457409
0.0426241
0.0260568
0.0245563
0.0258013
0.0256784
0.0262774
0.0265143
0.0264632
0.0270895
0.0272051
0.026956
0.0276186
0.0275159
0.0285305
0.0283099
0.026709
0.0306323
0.0267166
0.0291511
0.0289488
0.0275891
0.027017
0.0290711
0.0285315
0.0269021
0.0315735
0.0266171
0.0277184
0.0284103
0.0298725
0.0286947
0.0289588
0.0295697
0.0261386
0.0287002
0.0319809
0.0276032
0.0284826
0.0315605
0.0271203
0.0283675
0.0283597
0.0310756
0.028265
0.0276498
0.0286489
0.0297477
0.0295283
0.0266975
0.0311803
0.0280349
0.0300483
0.0243516
0.0301895
0.0316661
0.027595
0.0341492
0.0282085
0.0301642
0.0282204
0.0322887
0.0318407
0.0316632
0.0321246
0.0304147
0.0317232
0.0275381
0.0319844
0.0280297
0.0316541
0.0273251
0.0315471
0.0292145
0.0292364
0.0317431
0.0278057
0.0332457
0.0279831
0.0297517
0.025849
0.0289196
0.0288061
0.0284272
0.0290167
0.0264769
0.0306891
0.0267584
0.0283564
0.0263911
0.0289691
0.0293118
0.0305741
0.0303051
0.0293771
0.0309143
0.0256793
0.0296671
0.0283898
0.0315546
0.0281787
0.0272445
0.0315101
0.0288673
0.0284861
0.0260003
0.0321485
0.0305906
0.030177
0.0282236
0.0279595
0.027409
0.0262248
0.0314919
0.0287752
0.0320015
0.0276244
0.0286053
0.0279091
0.0296227
0.0283987
0.0266409
0.0289202
0.0255744
0.0298865
0.0269026
0.0313343
0.0306173
0.0316676
0.0288113
0.0279815
0.028431
0.0276512
0.0322157
0.0249074
0.0280421
0.0293823
0.0318883
0.028163
0.0292017
0.0271129
0.0257848
0.0276382
0.0261004
0.0271297
0.0253828
0.0317451
0.0291852
0.0310349
0.0282684
0.0294643
0.0267663
0.0278402
0.0295122
0.0260004
0.0285657
0.0245707
0.0284088
0.0259832
0.0312325
0.0281102
0.0319756
0.0311598
0.0282111
0.0278896
0.0273747
0.0279368
0.0257248
0.0313501
0.0272655
0.0303521
0.0261801
0.0282072
0.0246485
0.029866
0.0283134
0.0293531
0.0294531
0.0271504
0.0263222
0.0261503
0.0242505
0.0257642
0.027721
0.0230419
0.0301173
0.0272253
0.0304816
0.0281099
0.0257546
0.0267662
0.0280711
0.0276525
0.0299249
0.0286218
0.0324072
0.029964
0.0394349
0.0504533
0.0389704
0.0323166
0.0299883
0.0457228
0.0704375
0.0777443
0.0777712
0.0757619
0.0733601
0.0710259
0.0688371
0.0668365
0.0650513
0.0634259
0.0619603
0.0606351
0.0594488
0.058373
0.0573819
0.0564723
0.0556345
0.0548663
0.0541468
0.0534707
0.0528371
0.0522442
0.0516893
0.0511659
0.050671
0.050202
0.0497586
0.0493378
0.0489389
0.0485569
0.0481935
0.0478447
0.0475131
0.0471944
0.0468898
0.0465957
0.046314
0.0460419
0.0457811
0.0455288
0.0452862
0.0450506
0.044824
0.0446034
0.0443918
0.044185
0.0439865
0.0437916
0.0436046
0.0434208
0.0432446
0.0430711
0.0429046
0.0427401
0.0425825
0.0424263
0.0422768
0.0421272
0.0419854
0.041843
0.0417085
0.0415726
0.0414453
0.0413155
0.041195
0.041071
0.040957
0.0408385
0.040731
0.0406179
0.0405169
0.0404093
0.040315
0.0402131
0.0401257
0.0400303
0.0399504
0.0398625
0.0397911
0.0397122
0.0396506
0.0395832
0.0395336
0.0394811
0.0394448
0.0394157
0.0393962
0.039391
0.0394014
0.0394375
0.0394835
0.0395825
0.0396924
0.0398955
0.0401199
0.0405159
0.0411083
0.0418974
0.0406238
0.0382127
0.0349626
0.0331354
0.0320554
0.0312503
0.0307418
0.0304472
0.0302907
0.0301849
0.0301016
0.0301029
0.030071
0.0302279
0.0301235
0.0306292
0.0298122
0.0304002
0.0303943
0.0300421
0.0301915
0.0299644
0.0300737
0.0298433
0.0301615
0.0297632
0.0302113
0.0302028
0.0301426
0.0304311
0.0304441
0.0306075
0.0301549
0.0304378
0.0303613
0.0301216
0.0306096
0.0308126
0.0302676
0.0306994
0.0305367
0.0307422
0.0305779
0.0303787
0.03044
0.0303638
0.0307035
0.0304011
0.0307999
0.0301295
0.0306764
0.0298383
0.0298835
0.0304453
0.0302872
0.0308907
0.030727
0.0313905
0.0312742
0.0311609
0.0318605
0.0320326
0.0325043
0.0323905
0.0325643
0.0321862
0.0323968
0.031381
0.0318717
0.0312384
0.0313249
0.0312179
0.0310447
0.0314611
0.0311769
0.0315735
0.0311728
0.0316074
0.0312194
0.0305153
0.0303946
0.0301202
0.0304712
0.0300507
0.0303074
0.0299203
0.0303463
0.0299438
0.0299076
0.030256
0.0302626
0.030903
0.0309068
0.0311776
0.0306849
0.030941
0.0302378
0.0306568
0.0306828
0.0302343
0.0305055
0.0304162
0.03086
0.0305132
0.0309736
0.0307706
0.0310056
0.0312722
0.0305173
0.0304258
0.0298024
0.0300913
0.030218
0.0311093
0.0307666
0.0305938
0.0304695
0.0303557
0.0303829
0.0298615
0.0299274
0.0296574
0.0301619
0.0294913
0.0301509
0.0306076
0.0308856
0.0312557
0.0305996
0.0305786
0.0302252
0.0305084
0.0296304
0.0302903
0.0301913
0.0302844
0.0307055
0.0307641
0.0305478
0.0295229
0.0294405
0.0291403
0.0292233
0.0290227
0.0297125
0.0295897
0.0302482
0.030459
0.0303395
0.0302111
0.0296789
0.0297999
0.0294452
0.029563
0.0289479
0.0294503
0.0288667
0.0294328
0.0295452
0.0301109
0.0307316
0.0304606
0.0305814
0.0300199
0.0299785
0.0294888
0.0298391
0.0295406
0.0303824
0.0299106
0.0296767
0.0291066
0.02894
0.0293583
0.0295201
0.0299766
0.0294894
0.0297783
0.0289267
0.0289411
0.0281774
0.0281611
0.0277423
0.0287904
0.0282469
0.0290715
0.0293874
0.0290552
0.0291111
0.0290916
0.0293182
0.0295257
0.0299552
0.0304671
0.0310092
0.0317113
0.0339952
0.0362844
0.0375476
0.0370991
0.0349771
0.0150988
0.0289288
0.0427708
0.051652
0.0566798
0.0589914
0.0597321
0.0594858
0.058841
0.0580294
0.0571556
0.0562923
0.0554562
0.0546683
0.0539161
0.0531955
0.052518
0.0518832
0.0512899
0.0507257
0.0501891
0.0496818
0.0492039
0.0487524
0.0483212
0.0479101
0.0475179
0.0471454
0.0467903
0.0464508
0.046124
0.0458114
0.0455107
0.0452237
0.044947
0.0446809
0.0444235
0.0441758
0.0439365
0.0437064
0.0434832
0.0432678
0.0430583
0.0428562
0.0426596
0.0424702
0.0422852
0.0421065
0.0419316
0.0417628
0.0415975
0.041438
0.0412814
0.0411303
0.0409814
0.0408378
0.0406962
0.0405599
0.0404246
0.0402947
0.0401653
0.0400415
0.0399178
0.0398001
0.0396819
0.0395699
0.0394568
0.0393501
0.0392419
0.0391407
0.0390373
0.0389414
0.0388428
0.0387522
0.0386586
0.0385734
0.0384852
0.0384059
0.0383238
0.0382508
0.0381756
0.03811
0.0380432
0.0379868
0.0379302
0.0378836
0.0378409
0.0378079
0.0377844
0.0377682
0.0377671
0.0377775
0.0378141
0.037866
0.0379606
0.0380816
0.0382472
0.03868
0.0385542
0.0366379
0.0386246
0.0370951
0.0353041
0.0339815
0.0329002
0.0320976
0.0316568
0.031192
0.0308431
0.0307184
0.0304498
0.0303993
0.0301741
0.0299781
0.0304853
0.0293611
0.0305149
0.0299003
0.0294819
0.0295806
0.0299272
0.0294435
0.0292684
0.0297407
0.0287416
0.0298044
0.029689
0.0296871
0.0294138
0.0296245
0.0297064
0.0292858
0.0301727
0.0297094
0.0287897
0.0299026
0.029981
0.029205
0.0299613
0.0297679
0.0301132
0.0291873
0.0295568
0.0297479
0.0297446
0.0296915
0.02946
0.0300585
0.0291553
0.0298165
0.0288499
0.0304832
0.0295492
0.0290265
0.0299114
0.0289173
0.0303065
0.0297173
0.0308001
0.030374
0.030416
0.0307289
0.030708
0.0310761
0.030746
0.0314834
0.0302368
0.0313748
0.0297889
0.0312272
0.0300021
0.0302119
0.0304884
0.0300265
0.0307933
0.0296627
0.0308032
0.029846
0.0306843
0.0299237
0.0295862
0.0297336
0.0293578
0.0298585
0.0290623
0.0298347
0.0291561
0.0299086
0.0295205
0.0295483
0.0296521
0.0296636
0.0299556
0.0294347
0.030536
0.029487
0.0301283
0.0289876
0.0293863
0.0298222
0.0293597
0.0296644
0.0296357
0.0308146
0.0294608
0.0296549
0.029639
0.0296608
0.0295696
0.029358
0.0297874
0.0292943
0.0299378
0.0289702
0.0299184
0.029631
0.029902
0.0292683
0.0290939
0.0293702
0.0289453
0.0298137
0.0289103
0.0299268
0.0292606
0.0296113
0.0291784
0.0294851
0.0296247
0.0294324
0.0297322
0.0285406
0.0299661
0.0295064
0.0295697
0.0289357
0.0297996
0.0292282
0.028979
0.0291074
0.028695
0.0288797
0.0286807
0.0297256
0.0284734
0.0292423
0.0286193
0.029359
0.0287324
0.0291887
0.0291044
0.0285842
0.0290308
0.0284665
0.0293819
0.0283834
0.0293934
0.0281996
0.0294995
0.0290078
0.028806
0.0291813
0.0290728
0.0291398
0.0288083
0.0293903
0.0285037
0.0295982
0.0283698
0.0293338
0.0282043
0.0295011
0.0284739
0.0287654
0.0287711
0.0284119
0.0287162
0.0284381
0.028304
0.0283815
0.028077
0.0274125
0.0288339
0.0276437
0.0285175
0.0278247
0.0279735
0.0284344
0.028622
0.0285028
0.0290182
0.0289081
0.0296886
0.0294357
0.0308695
0.0305863
0.0303397
0.0328934
0.0342265
0.0336292
0.00552738
0.0118406
0.0195543
0.0283668
0.0361684
0.0420775
0.0462296
0.0486715
0.0500083
0.0506173
0.0507637
0.0506555
0.0504098
0.0500931
0.0497267
0.0493359
0.0489384
0.0485431
0.0481532
0.0477654
0.0473854
0.0470182
0.0466657
0.0463256
0.045994
0.0456731
0.0453632
0.0450661
0.0447801
0.0445031
0.0442342
0.0439747
0.0437239
0.0434832
0.0432495
0.0430229
0.0428029
0.04259
0.0423838
0.0421846
0.0419906
0.0418024
0.041619
0.0414412
0.0412683
0.0411008
0.040937
0.040778
0.0406224
0.0404714
0.0403238
0.0401808
0.0400403
0.039904
0.0397699
0.03964
0.0395121
0.0393885
0.039266
0.0391474
0.0390299
0.0389164
0.0388037
0.0386954
0.0385875
0.0384839
0.0383803
0.0382812
0.0381819
0.0380874
0.0379924
0.0379022
0.0378114
0.0377256
0.0376389
0.0375575
0.0374755
0.0373987
0.0373216
0.0372499
0.0371782
0.0371123
0.0370469
0.0369882
0.03693
0.0368795
0.0368285
0.0367889
0.0367552
0.0367248
0.0367017
0.0366914
0.0366911
0.036707
0.0367399
0.0367961
0.0368427
0.0371241
0.0367169
0.0348093
0.0371872
0.0372836
0.0362991
0.035132
0.0340777
0.033207
0.0326786
0.0320755
0.0315854
0.0313985
0.0309882
0.0308952
0.0304887
0.0302091
0.0305325
0.0296607
0.0304787
0.0298874
0.0294445
0.0294182
0.0299537
0.0293559
0.0291396
0.0295532
0.0287193
0.0293788
0.0294477
0.0295263
0.0290923
0.0292176
0.0292709
0.0289289
0.0297553
0.0294599
0.0285551
0.0292818
0.0294802
0.0288379
0.0293472
0.0293262
0.0296525
0.0287684
0.0290531
0.0292997
0.0293974
0.0292005
0.0290109
0.0295159
0.0288724
0.0292088
0.0285127
0.0302537
0.0292416
0.0285981
0.0292888
0.0284387
0.0292794
0.0289553
0.0302658
0.0296477
0.0295736
0.02973
0.0297415
0.0300846
0.0298735
0.0305379
0.029778
0.0305836
0.0293805
0.0306651
0.0296191
0.0297238
0.0299252
0.0295026
0.0301696
0.0292694
0.0299309
0.0291535
0.0302902
0.0297467
0.0294074
0.0293995
0.0290817
0.0295237
0.0288583
0.0293129
0.028873
0.0297166
0.0292517
0.0292842
0.0290949
0.029058
0.0292723
0.0288204
0.0297941
0.0292147
0.0297061
0.0284653
0.0288457
0.0293168
0.0288793
0.029011
0.0291361
0.0302301
0.0291049
0.0290092
0.0287592
0.0291106
0.0290583
0.0290674
0.0294972
0.0289465
0.0292276
0.0283451
0.0292437
0.0291729
0.0294836
0.0288321
0.0286882
0.0289769
0.0286269
0.0293064
0.0287417
0.0296655
0.0288214
0.0289781
0.028297
0.0287674
0.0289839
0.0289437
0.0292074
0.0282403
0.0293156
0.0291367
0.0292086
0.0283708
0.028973
0.0284929
0.0286307
0.0288299
0.0285006
0.028679
0.0285559
0.0294522
0.028341
0.0287208
0.027963
0.0286128
0.02804
0.0287449
0.0287463
0.0282464
0.0286466
0.0282343
0.0289879
0.0283017
0.0292176
0.0280233
0.0290332
0.0283103
0.0280366
0.0283233
0.0284687
0.0285966
0.0284257
0.0289886
0.0282424
0.0288512
0.0278516
0.0287779
0.0280032
0.0294499
0.0283427
0.0283765
0.0282763
0.0279552
0.0280769
0.0281365
0.0279482
0.0283435
0.0281614
0.0274997
0.0285665
0.0276671
0.0282963
0.0274224
0.0274608
0.0279627
0.0283228
0.0281737
0.0287453
0.0284109
0.0292459
0.0287
0.0302369
0.0293497
0.0283037
0.0297755
0.0314247
0.0319528
0.00217496
0.00492546
0.00829336
0.0131586
0.0193435
0.0257944
0.0314845
0.0360825
0.0395227
0.0418796
0.0434072
0.0443526
0.0449216
0.0452394
0.0453645
0.045368
0.0452961
0.0451751
0.0450174
0.0448354
0.0446369
0.0444299
0.0442188
0.0440034
0.043784
0.0435646
0.0433471
0.043134
0.0429242
0.0427162
0.0425111
0.0423105
0.0421144
0.0419242
0.0417371
0.0415536
0.041374
0.0411989
0.0410285
0.0408625
0.0406997
0.0405407
0.040385
0.0402333
0.0400854
0.0399413
0.0397998
0.0396617
0.0395262
0.0393942
0.039265
0.0391391
0.0390154
0.0388946
0.0387759
0.0386602
0.0385464
0.0384359
0.0383265
0.03822
0.0381145
0.0380121
0.0379106
0.0378124
0.0377149
0.0376205
0.0375265
0.0374358
0.0373454
0.0372584
0.0371717
0.0370884
0.0370051
0.0369252
0.0368455
0.0367692
0.0366933
0.0366208
0.0365489
0.0364803
0.0364127
0.0363487
0.0362858
0.0362276
0.0361698
0.0361185
0.0360642
0.0360204
0.0359814
0.035944
0.0359078
0.0358849
0.0358631
0.0358559
0.0358526
0.0358668
0.0358488
0.0360196
0.0355151
0.0338046
0.035655
0.0365884
0.0363978
0.0356819
0.034807
0.0340187
0.0334535
0.0328141
0.0322639
0.0320135
0.0315401
0.0313981
0.0309131
0.0305666
0.0307417
0.0300458
0.0305141
0.0300656
0.0296131
0.0294935
0.0299722
0.0294607
0.0292144
0.0295364
0.0288677
0.0292392
0.0293588
0.0294692
0.0290383
0.0290651
0.0290782
0.0287909
0.029444
0.0293166
0.0285634
0.0289749
0.029185
0.0286691
0.0290054
0.0290605
0.0293284
0.0286415
0.0287662
0.0290045
0.0291582
0.0289364
0.0287717
0.0291932
0.0287344
0.028879
0.028389
0.0297479
0.0291035
0.0284692
0.0289605
0.0282628
0.0287016
0.028571
0.0296791
0.0292137
0.0290885
0.029142
0.0291418
0.0294234
0.029282
0.0298461
0.0294255
0.0299193
0.0291858
0.0300666
0.0294235
0.0294472
0.029581
0.0292179
0.0297511
0.029072
0.0293979
0.0287929
0.029786
0.0295628
0.0292958
0.0292178
0.0289476
0.029305
0.0287775
0.0290222
0.0287436
0.0294457
0.0291377
0.0291697
0.0288395
0.0287525
0.028887
0.0284883
0.0292484
0.0289843
0.0293257
0.0283458
0.0285312
0.0289712
0.0286106
0.0286509
0.0288205
0.0297017
0.0289218
0.0286933
0.0283314
0.0287182
0.0287226
0.0288194
0.0292421
0.0287582
0.0288398
0.0281597
0.0287507
0.0288267
0.0290789
0.0286181
0.0284681
0.0287158
0.0284465
0.028966
0.0286249
0.0293513
0.0286627
0.0286406
0.02801
0.0283004
0.0285383
0.0285961
0.0288421
0.028086
0.0288408
0.0288583
0.0289553
0.0281836
0.028467
0.0280797
0.0283411
0.0285826
0.0283627
0.0285383
0.0284849
0.0291988
0.0283536
0.0284537
0.0278043
0.0281518
0.027727
0.0283806
0.0284693
0.0280653
0.0283962
0.0280924
0.0286484
0.0282628
0.0289841
0.0280632
0.0287291
0.0280561
0.0277107
0.0278785
0.0280699
0.0282276
0.0281678
0.0286923
0.0281193
0.0284157
0.0277028
0.0283438
0.0279127
0.0291174
0.028342
0.0282238
0.0280678
0.0277622
0.027734
0.0279461
0.0277497
0.0282473
0.028213
0.0276539
0.0284102
0.0277736
0.0281557
0.0274209
0.0272935
0.0277134
0.0281053
0.0280195
0.0285582
0.02817
0.028912
0.0283453
0.029715
0.0289843
0.027606
0.0280244
0.0293626
0.0303734
0.000945267
0.00212322
0.00355461
0.00559599
0.00881314
0.0133281
0.0185137
0.0234862
0.0279092
0.0316383
0.0345924
0.0368081
0.0384135
0.0395639
0.0403621
0.0409099
0.0412765
0.0415172
0.04166
0.0417234
0.0417358
0.0417128
0.0416621
0.0415889
0.0414992
0.0413969
0.0412851
0.0411674
0.0410436
0.0409143
0.0407818
0.040648
0.0405136
0.04038
0.0402452
0.0401102
0.039976
0.0398434
0.0397126
0.0395836
0.0394554
0.0393289
0.0392039
0.0390812
0.0389608
0.0388424
0.0387253
0.0386102
0.0384968
0.0383856
0.0382765
0.0381695
0.0380638
0.0379602
0.0378579
0.0377579
0.0376593
0.0375631
0.0374677
0.0373743
0.0372818
0.0371914
0.0371019
0.0370148
0.0369283
0.0368441
0.0367604
0.0366789
0.036598
0.0365195
0.0364416
0.036366
0.0362908
0.0362178
0.0361455
0.0360754
0.0360062
0.0359391
0.0358729
0.0358089
0.0357461
0.0356856
0.0356263
0.0355704
0.0355146
0.0354643
0.0354106
0.0353642
0.0353226
0.0352824
0.0352393
0.0352085
0.0351739
0.0351514
0.0351258
0.0351118
0.0350576
0.0351459
0.0346187
0.0331307
0.0344141
0.0356046
0.0359386
0.0357344
0.0351251
0.0345093
0.0339651
0.0333558
0.0328079
0.0325018
0.0320205
0.0318352
0.031321
0.0309325
0.0309985
0.0304012
0.030625
0.0302699
0.0298357
0.0296645
0.0299972
0.0296096
0.0293593
0.0295978
0.029042
0.0292394
0.0293483
0.0294441
0.0290793
0.0290397
0.0290074
0.028751
0.0292476
0.0292103
0.0286097
0.0288316
0.0290059
0.0285759
0.0288061
0.0288852
0.0290927
0.0285776
0.0286065
0.0288021
0.0289666
0.0287698
0.0286247
0.0289757
0.0286327
0.028678
0.0283317
0.0292821
0.0289522
0.0284128
0.0287653
0.0281767
0.0283869
0.0283479
0.029159
0.0288931
0.0287684
0.0287602
0.028738
0.0289547
0.0288475
0.0293185
0.0290966
0.0294235
0.0289972
0.0295765
0.0292185
0.0292404
0.02933
0.0290209
0.02944
0.0289138
0.0290569
0.0285895
0.0293524
0.0293199
0.029159
0.0290725
0.028848
0.0291329
0.02871
0.0288396
0.0286653
0.0291906
0.0290311
0.0290625
0.0287104
0.0285877
0.0286524
0.0282877
0.0288731
0.0287716
0.0289933
0.0282931
0.0283625
0.0287284
0.0284272
0.0284234
0.0285966
0.0292813
0.0287597
0.0285022
0.0281347
0.0284178
0.0284671
0.0285983
0.0289993
0.0286047
0.0285939
0.0280797
0.0284288
0.0285476
0.0287475
0.0284496
0.0283167
0.0285194
0.0283118
0.0287182
0.0285081
0.0290395
0.0285566
0.0284278
0.0279139
0.0280259
0.0282267
0.0283298
0.0285589
0.0279607
0.0285145
0.0286211
0.028735
0.0280799
0.0281651
0.0278686
0.0280876
0.0283507
0.0282266
0.0284082
0.028411
0.0289774
0.0283518
0.028295
0.0277742
0.0279049
0.0276037
0.0280936
0.0282323
0.0279282
0.0282076
0.0279787
0.0283934
0.0281912
0.0287277
0.0280945
0.0284934
0.0279614
0.0275846
0.0276567
0.0278064
0.0279647
0.0279718
0.0284492
0.0280158
0.0281497
0.0276513
0.0280526
0.0278518
0.0287301
0.0282915
0.0281465
0.0279649
0.0276781
0.0275595
0.027814
0.0276306
0.0281349
0.0282063
0.0277716
0.0283332
0.0278653
0.028062
0.0275049
0.0272889
0.0275995
0.0279382
0.0279322
0.0283757
0.0280453
0.0286378
0.0281549
0.0292887
0.0288185
0.0273649
0.027157
0.0279959
0.0290881
0.000496873
0.000983901
0.00159441
0.00241849
0.00373159
0.00589046
0.00914963
0.0131641
0.0173652
0.0213351
0.0249341
0.028064
0.0306656
0.0327748
0.0343983
0.03564
0.0365818
0.0372994
0.0378398
0.0382362
0.0385286
0.038743
0.0388958
0.0389974
0.0390584
0.0390895
0.0390974
0.0390869
0.0390601
0.0390207
0.038971
0.0389129
0.0388482
0.0387781
0.038702
0.038622
0.038539
0.038454
0.0383678
0.03828
0.0381905
0.0381003
0.0380096
0.0379193
0.0378294
0.0377396
0.0376495
0.03756
0.037471
0.037383
0.0372959
0.0372097
0.0371239
0.0370391
0.0369549
0.0368722
0.0367902
0.0367097
0.0366295
0.0365505
0.036472
0.036395
0.0363185
0.0362436
0.0361691
0.036096
0.0360233
0.0359521
0.0358816
0.0358125
0.0357441
0.0356771
0.0356107
0.0355456
0.0354813
0.0354184
0.0353565
0.0352957
0.0352361
0.0351777
0.0351204
0.0350647
0.0350099
0.0349577
0.0349053
0.0348573
0.0348063
0.0347595
0.034717
0.0346763
0.0346307
0.0345956
0.0345532
0.0345208
0.0344809
0.0344476
0.0343731
0.0343985
0.0338785
0.0325951
0.033452
0.0346078
0.035203
0.0354073
0.0351071
0.0346959
0.034234
0.0336944
0.033192
0.0328469
0.032394
0.0321768
0.0316632
0.0312548
0.0312424
0.0307007
0.0307654
0.0304559
0.0300501
0.0298582
0.0300469
0.0297494
0.0295133
0.0296862
0.0292033
0.029296
0.0293749
0.0294356
0.0291423
0.0290646
0.0289948
0.0287552
0.0291304
0.0291296
0.028647
0.0287618
0.0288916
0.0285164
0.0286803
0.0287577
0.0289123
0.0285239
0.0285064
0.0286556
0.0288004
0.0286431
0.0285161
0.0288105
0.0285392
0.0285352
0.0282836
0.0289418
0.0287835
0.0283574
0.0286261
0.0281169
0.0282004
0.0281925
0.0287603
0.02863
0.0285275
0.0284871
0.0284447
0.0286048
0.02851
0.0289013
0.0287898
0.0290315
0.028789
0.0291922
0.0289968
0.0290453
0.0291148
0.0288519
0.0291837
0.0287598
0.0288071
0.0284541
0.0290087
0.0290617
0.0289907
0.0289252
0.028745
0.0289761
0.02863
0.0286999
0.0285945
0.028974
0.0289071
0.0289295
0.0286237
0.0284818
0.0284929
0.0281505
0.0286036
0.0285786
0.0287171
0.0282289
0.0282519
0.0285456
0.0282815
0.0282579
0.0284199
0.0289513
0.0285942
0.0283531
0.0280272
0.0281908
0.0282573
0.0283992
0.0287703
0.0284544
0.0284066
0.0280097
0.0282115
0.0283224
0.0284829
0.0282894
0.0281863
0.0283547
0.028191
0.0285187
0.028385
0.0287636
0.0284409
0.0282705
0.0278574
0.0278599
0.0280057
0.0281179
0.0283263
0.0278399
0.0282683
0.0284097
0.0285279
0.0279861
0.027966
0.0277417
0.0278871
0.0281441
0.0280872
0.0282758
0.0283203
0.0287763
0.0283111
0.0281836
0.0277615
0.0277675
0.0275468
0.0278881
0.0280341
0.0278062
0.0280498
0.0278729
0.0281924
0.028094
0.028486
0.028075
0.0283053
0.0279012
0.0275327
0.0275386
0.0276354
0.0277731
0.0278133
0.0282415
0.0279096
0.027964
0.0276087
0.0278594
0.0277877
0.0284105
0.0281861
0.0280755
0.0278964
0.0276339
0.027485
0.0277084
0.0275487
0.0280192
0.0281552
0.0278332
0.0282784
0.0279233
0.0280051
0.0275822
0.0273395
0.027557
0.0278233
0.0278647
0.0282069
0.0279601
0.0284122
0.0280313
0.0289502
0.028674
0.0272691
0.0267506
0.0271522
0.0281233
0.000341821
0.000534352
0.000789555
0.00112399
0.0016322
0.00248551
0.0039322
0.00618718
0.00918273
0.012617
0.0161043
0.0193696
0.0223779
0.0250852
0.0274197
0.0293893
0.031005
0.0323057
0.0333506
0.0341797
0.0348378
0.0353612
0.0357783
0.0361079
0.0363651
0.0365667
0.0367242
0.0368458
0.0369354
0.0369988
0.0370422
0.0370687
0.0370815
0.037082
0.0370723
0.0370541
0.0370285
0.0369969
0.03696
0.0369182
0.0368719
0.0368224
0.03677
0.0367156
0.0366594
0.0366012
0.0365412
0.0364801
0.0364181
0.0363557
0.0362929
0.0362297
0.0361657
0.0361017
0.0360375
0.0359737
0.03591
0.0358467
0.0357831
0.0357199
0.0356568
0.0355942
0.035532
0.0354704
0.0354089
0.0353481
0.0352874
0.0352276
0.0351682
0.0351096
0.0350515
0.0349941
0.0349371
0.0348809
0.0348253
0.0347705
0.0347166
0.0346632
0.0346107
0.0345589
0.034508
0.034458
0.0344088
0.0343613
0.0343134
0.0342688
0.0342219
0.034177
0.0341343
0.0340948
0.03405
0.0340127
0.0339661
0.0339275
0.0338788
0.0338321
0.0337468
0.0337237
0.0332219
0.0321159
0.0326933
0.0337063
0.0343726
0.0348346
0.0348176
0.0346149
0.034291
0.0338424
0.0334111
0.033053
0.032647
0.0324115
0.0319211
0.0315098
0.0314427
0.0309361
0.0308988
0.0306085
0.0302312
0.030035
0.0301112
0.0298658
0.0296497
0.0297733
0.0293383
0.0293666
0.0294128
0.0294353
0.0291976
0.0291009
0.0290047
0.0287756
0.0290606
0.0290672
0.0286669
0.028721
0.0288106
0.0284713
0.0285919
0.0286572
0.0287653
0.028467
0.0284308
0.028541
0.0286502
0.0285324
0.0284208
0.0286704
0.0284449
0.0284174
0.0282269
0.0286951
0.028619
0.0282875
0.0285064
0.0280596
0.0280742
0.0280703
0.0284638
0.0284044
0.0283267
0.0282727
0.0282153
0.0283297
0.0282359
0.0285606
0.0285077
0.0287033
0.0285704
0.0288763
0.0287698
0.0288454
0.0289098
0.0286863
0.0289544
0.028601
0.0285993
0.02834
0.0287326
0.028814
0.0288031
0.0287668
0.0286268
0.0288203
0.0285322
0.0285728
0.0285118
0.0287892
0.0287704
0.0287799
0.0285378
0.0283921
0.0283669
0.0280421
0.028397
0.0284035
0.0284895
0.0281432
0.0281572
0.0283936
0.0281521
0.0281206
0.0282669
0.0286838
0.0284261
0.028215
0.0279401
0.0280158
0.028077
0.0282174
0.0285545
0.0283003
0.0282418
0.0279282
0.0280466
0.0281347
0.0282635
0.0281342
0.0280605
0.0282047
0.0280718
0.0283438
0.0282562
0.0285298
0.028308
0.0281349
0.0277975
0.0277438
0.0278405
0.0279428
0.0281277
0.0277192
0.0280661
0.0282162
0.0283292
0.0278837
0.027815
0.0276396
0.0277313
0.0279647
0.0279481
0.0281398
0.0282127
0.0285869
0.0282348
0.0280866
0.027736
0.0276778
0.0275037
0.0277405
0.027869
0.0276914
0.0279085
0.0277681
0.0280229
0.027982
0.0282736
0.0280096
0.0281494
0.0278342
0.0274976
0.0274639
0.0275177
0.0276279
0.0276796
0.0280594
0.027798
0.027815
0.0275541
0.0277188
0.0277109
0.0281661
0.0280575
0.0279922
0.0278323
0.0275976
0.0274582
0.0276193
0.0274858
0.0279074
0.0280748
0.027844
0.0282202
0.0279454
0.0279651
0.0276318
0.0273954
0.0275454
0.0277451
0.0278036
0.0280618
0.0278866
0.0282283
0.0279449
0.0286696
0.0285125
0.0272088
0.0265647
0.0266539
0.027432
0.000285607
0.00036589
0.000469266
0.000604525
0.000799959
0.00111715
0.00166665
0.00261186
0.00411131
0.00626654
0.0089516
0.0118791
0.014834
0.0175884
0.0201645
0.0225384
0.0246524
0.0264935
0.0280842
0.029407
0.0305044
0.0314144
0.0321683
0.0327903
0.0333014
0.0337231
0.0340719
0.0343607
0.0345981
0.034792
0.034951
0.0350809
0.0351871
0.0352718
0.0353372
0.035388
0.0354259
0.0354532
0.0354705
0.0354797
0.0354815
0.0354772
0.0354671
0.0354525
0.0354334
0.0354102
0.0353834
0.0353537
0.0353215
0.0352873
0.0352512
0.0352131
0.0351732
0.0351321
0.0350898
0.0350468
0.035003
0.0349586
0.0349131
0.0348672
0.0348208
0.0347742
0.0347273
0.0346804
0.034633
0.0345856
0.034538
0.0344906
0.0344433
0.0343962
0.0343492
0.0343023
0.0342556
0.0342091
0.0341631
0.0341173
0.0340721
0.0340269
0.0339823
0.0339379
0.0338942
0.0338508
0.0338079
0.0337661
0.0337237
0.0336835
0.0336414
0.0336006
0.0335588
0.0335214
0.0334794
0.0334419
0.0333937
0.0333516
0.0332978
0.033242
0.0331522
0.033091
0.0326119
0.0316567
0.0320608
0.0329175
0.0335561
0.0341286
0.0343371
0.0343186
0.0341594
0.0338191
0.0334717
0.0331326
0.0327792
0.0325387
0.0320873
0.0316873
0.0315833
0.0311038
0.0310026
0.0307208
0.030369
0.030174
0.0301728
0.0299539
0.0297568
0.0298434
0.0294423
0.0294296
0.0294461
0.0294345
0.0292351
0.0291307
0.0290177
0.0287965
0.0290146
0.0290155
0.0286701
0.0286877
0.0287439
0.0284292
0.0285201
0.028571
0.0286395
0.0284035
0.028362
0.0284421
0.0285145
0.0284258
0.0283276
0.0285406
0.0283459
0.0283078
0.0281577
0.0285052
0.0284647
0.0282023
0.0283901
0.0279944
0.0279732
0.027964
0.0282398
0.0282075
0.0281475
0.0280896
0.0280223
0.0281015
0.0280041
0.0282737
0.0282498
0.0284165
0.0283499
0.0285987
0.028543
0.0286379
0.0287041
0.0285143
0.0287366
0.0284349
0.0284091
0.028222
0.0285007
0.0285833
0.0286063
0.0285974
0.0284918
0.0286591
0.0284164
0.0284443
0.0284116
0.0286206
0.0286245
0.0286238
0.0284366
0.0282985
0.0282517
0.0279433
0.0282256
0.028242
0.028295
0.0280415
0.028061
0.0282545
0.0280277
0.0279945
0.0281249
0.0284568
0.0282577
0.0280763
0.0278485
0.0278701
0.0279169
0.028048
0.02835
0.0281417
0.0280841
0.0278319
0.0279048
0.0279702
0.0280722
0.0279823
0.0279327
0.0280606
0.02795
0.0281809
0.0281219
0.0283259
0.0281643
0.0280042
0.0277244
0.0276461
0.0277061
0.0277912
0.027952
0.0275984
0.0278891
0.0280357
0.0281371
0.0277694
0.0276844
0.0275439
0.0276021
0.0278067
0.0278109
0.0280009
0.0280918
0.0284044
0.0281315
0.0279863
0.0276908
0.0276034
0.0274581
0.0276241
0.0277275
0.0275803
0.0277755
0.0276617
0.0278712
0.0278621
0.0280865
0.0279138
0.0280064
0.0277535
0.0274566
0.0274037
0.0274264
0.0275103
0.0275615
0.0278958
0.0276823
0.0276818
0.0274851
0.0276024
0.0276246
0.0279714
0.0279222
0.0278943
0.0277606
0.0275548
0.0274398
0.0275441
0.0274337
0.0277993
0.0279762
0.0278145
0.0281478
0.0279341
0.0279245
0.0276527
0.0274366
0.0275411
0.0276862
0.0277442
0.0279395
0.0278173
0.0280752
0.0278788
0.0284281
0.028337
0.0271478
0.0264764
0.0263683
0.0269445
0.000263423
0.00029915
0.000345477
0.000400441
0.000476537
0.000593313
0.000789331
0.00113481
0.00173123
0.00270789
0.00418145
0.00616555
0.00855404
0.0110673
0.0136065
0.0160033
0.0182437
0.0203375
0.0222625
0.0239827
0.0255047
0.0268329
0.0279651
0.0289299
0.0297514
0.0304476
0.031037
0.0315382
0.0319638
0.0323237
0.0326291
0.032889
0.033111
0.0333001
0.0334588
0.0335938
0.0337081
0.0338052
0.0338865
0.0339539
0.0340091
0.0340545
0.0340907
0.0341195
0.0341408
0.0341562
0.0341659
0.0341709
0.0341712
0.0341679
0.0341608
0.0341503
0.0341367
0.0341208
0.0341023
0.0340821
0.03406
0.0340361
0.0340104
0.0339834
0.0339551
0.0339259
0.0338957
0.0338647
0.0338326
0.0337998
0.0337664
0.0337325
0.0336983
0.0336637
0.0336287
0.0335933
0.0335578
0.033522
0.0334863
0.0334503
0.0334146
0.0333784
0.0333426
0.0333064
0.0332705
0.0332347
0.0331989
0.0331636
0.0331274
0.0330927
0.0330562
0.0330205
0.0329815
0.0329468
0.0329089
0.0328725
0.0328246
0.0327813
0.0327249
0.0326632
0.0325731
0.0324813
0.0320273
0.0312003
0.0315042
0.0322236
0.0327982
0.033382
0.0337332
0.0338614
0.0338612
0.0336454
0.0333897
0.033097
0.0327977
0.032563
0.0321601
0.0317837
0.0316572
0.0312033
0.0310635
0.0307876
0.0304589
0.0302679
0.0302156
0.0300105
0.0298289
0.0298877
0.0295127
0.0294736
0.0294652
0.0294261
0.0292515
0.0291448
0.0290226
0.0288082
0.0289764
0.0289667
0.0286573
0.0286511
0.0286803
0.0283834
0.0284531
0.0284899
0.0285261
0.0283321
0.0282914
0.0283492
0.0283903
0.0283179
0.0282307
0.0284139
0.0282407
0.0281985
0.0280761
0.0283436
0.0283178
0.0281036
0.0282699
0.0279174
0.0278792
0.027863
0.0280572
0.0280309
0.0279804
0.027923
0.0278497
0.0279022
0.0277997
0.0280242
0.0280129
0.0281583
0.0281318
0.0283438
0.0283185
0.0284236
0.0284941
0.0283327
0.0285223
0.0282606
0.0282242
0.02809
0.0282941
0.028367
0.0284056
0.0284188
0.0283413
0.02849
0.0282843
0.0283081
0.0282939
0.0284569
0.0284706
0.0284641
0.0283174
0.0281924
0.0281354
0.0278434
0.0280722
0.0280888
0.0281203
0.0279284
0.027957
0.0281186
0.0279025
0.0278706
0.0279863
0.0282542
0.0280899
0.0279337
0.0277459
0.0277372
0.0277691
0.0278869
0.028155
0.0279795
0.027927
0.0277212
0.0277703
0.0278178
0.0278975
0.0278319
0.0278006
0.0279174
0.0278235
0.0280232
0.0279825
0.0281389
0.0280136
0.0278704
0.0276361
0.0275509
0.0275864
0.0276531
0.0277909
0.0274769
0.0277265
0.0278641
0.027951
0.027645
0.0275606
0.0274469
0.0274854
0.0276628