/*--------------------------------*- C++ -*----------------------------------*\
| =========                 |                                                 |
| \\      /  F ield         | foam-extend: Open Source CFD                    |
|  \\    /   O peration     | Version:     3.2                                |
|   \\  /    A nd           | Web:         http://www.foam-extend.org         |
|    \\/     M anipulation  | For copyright notice see file Copyright         |
\*---------------------------------------------------------------------------*/
FoamFile
{
    version     2.0;
    format      ascii;
    class       areaScalarField;
    location    "160";
    object      kTempA;
}
// * * * * * * * * * * * * * * * * * * * * * * * * * * * * * * * * * * * * * //

dimensions      [0 2 -2 0 0 0 0];

internalField   nonuniform List<scalar> 
300
(
0.178319
0.142008
0.0985162
0.0808966
0.0742543
0.070771
0.0682484
0.0660412
0.0640089
0.0621652
0.0605191
0.059048
0.0577166
0.0565292
0.0554602
0.0544889
0.0536001
0.0527802
0.0520288
0.0513442
0.0507079
0.0501107
0.0495492
0.0490228
0.0485283
0.048061
0.0476187
0.0471988
0.0468003
0.0464234
0.0460628
0.0457201
0.0453905
0.0450768
0.0447752
0.044488
0.04421
0.0439444
0.043687
0.0434403
0.043202
0.0429727
0.0427504
0.0425361
0.0423276
0.0421274
0.041932
0.0417444
0.0415602
0.0413837
0.0412096
0.041043
0.040879
0.0407217
0.0405664
0.0404173
0.0402698
0.0401287
0.0399864
0.0398523
0.0397165
0.0395898
0.0394603
0.0393406
0.0392171
0.0391045
0.0389864
0.0388807
0.0387679
0.038669
0.0385617
0.03847
0.0383683
0.0382842
0.0381885
0.0381127
0.0380242
0.0379576
0.0378782
0.0378224
0.037754
0.0377112
0.0376583
0.0376311
0.0376016
0.0375921
0.0375931
0.0376136
0.037648
0.0377173
0.0378186
0.0379491
0.0381522
0.0383782
0.0387876
0.0392091
0.0401612
0.0405545
0.0457454
0.0426307
0.026061
0.0245579
0.0258015
0.0256765
0.0262746
0.0265088
0.0264555
0.0270793
0.0271969
0.0269587
0.027603
0.027478
0.0284777
0.0282774
0.0267553
0.0306689
0.0267011
0.0291221
0.0288832
0.027552
0.0270666
0.0291213
0.0285214
0.0268716
0.0315022
0.0265493
0.0277622
0.028481
0.0298536
0.0286404
0.028949
0.0295879
0.0261408
0.0286888
0.0319029
0.0275457
0.0285485
0.0316132
0.027106
0.0283404
0.0283351
0.0310457
0.0282668
0.0276964
0.0286787
0.0296904
0.0294511
0.0267006
0.031225
0.0280674
0.0300239
0.0243215
0.03016
0.0316499
0.0276355
0.0342098
0.0281837
0.0300849
0.0281651
0.0323029
0.0318862
0.0317103
0.0321734
0.0304224
0.031655
0.0274782
0.0319865
0.0280649
0.031653
0.0272956
0.0315021
0.029197
0.0292832
0.0317555
0.0277727
0.0331848
0.0279291
0.0297559
0.0258661
0.0289527
0.0288097
0.0283804
0.0289858
0.0265171
0.0307392
0.0267417
0.0283113
0.0263509
0.0289805
0.0293666
0.030567
0.0302559
0.0293662
0.0309175
0.0256705
0.0296442
0.0283615
0.0315138
0.0281635
0.0272886
0.0315695
0.0288378
0.0284274
0.0260172
0.0322185
0.0306218
0.0301538
0.0281763
0.027906
0.0273916
0.0262715
0.031562
0.0288007
0.0319513
0.0275469
0.0285588
0.027922
0.0296498
0.0283775
0.026601
0.0289027
0.0256038
0.0299346
0.0269153
0.0313088
0.0305655
0.0316236
0.0288126
0.0280027
0.02847
0.0276778
0.0321586
0.0248384
0.0280207
0.0294131
0.031928
0.028138
0.0291469
0.0270772
0.0258016
0.0276787
0.0260924
0.027092
0.025353
0.0317508
0.0292346
0.0310666
0.0282574
0.0294116
0.0267089
0.0278413
0.0295409
0.0260299
0.0285633
0.0245389
0.0283711
0.0259913
0.0312689
0.0281594
0.0319866
0.0310971
0.0281849
0.0279145
0.027382
0.0279008
0.0257178
0.0313463
0.0272859
0.0303559
0.0261344
0.0281568
0.0246632
0.0299158
0.0283244
0.0293205
0.0294056
0.0271309
0.0263455
0.0261604
0.0242341
0.0257543
0.0277191
0.0230474
0.030128
0.0272186
0.0304557
0.0280828
0.0257305
0.0267408
0.0280459
0.027626
0.0298963
0.028593
0.0323747
0.0299326
0.0393962
0.0504081
0.0389343
0.0322885
0.0299634
)
;

boundaryField
{
    inlet
    {
        type            calculated;
        value           uniform 0;
    }
    outlet
    {
        type            calculated;
        value           uniform 0;
    }
    sideWall
    {
        type            empty;
    }
}


// ************************************************************************* //
