/*--------------------------------*- C++ -*----------------------------------*\
| =========                 |                                                 |
| \\      /  F ield         | foam-extend: Open Source CFD                    |
|  \\    /   O peration     | Version:     3.2                                |
|   \\  /    A nd           | Web:         http://www.foam-extend.org         |
|    \\/     M anipulation  | For copyright notice see file Copyright         |
\*---------------------------------------------------------------------------*/
FoamFile
{
    version     2.0;
    format      ascii;
    class       volScalarField;
    location    "160";
    object      Ktemp;
}
// * * * * * * * * * * * * * * * * * * * * * * * * * * * * * * * * * * * * * //

dimensions      [0 2 -2 0 0 0 0];

internalField   nonuniform List<scalar> 
96000
(
0.178319
0.142008
0.0985162
0.0808966
0.0742543
0.070771
0.0682484
0.0660412
0.0640089
0.0621652
0.0605191
0.059048
0.0577166
0.0565292
0.0554602
0.0544889
0.0536001
0.0527802
0.0520288
0.0513442
0.0507079
0.0501107
0.0495492
0.0490228
0.0485283
0.048061
0.0476187
0.0471988
0.0468003
0.0464234
0.0460628
0.0457201
0.0453905
0.0450768
0.0447752
0.044488
0.04421
0.0439444
0.043687
0.0434403
0.043202
0.0429727
0.0427504
0.0425361
0.0423276
0.0421274
0.041932
0.0417444
0.0415602
0.0413837
0.0412096
0.041043
0.040879
0.0407217
0.0405664
0.0404173
0.0402698
0.0401287
0.0399864
0.0398523
0.0397165
0.0395898
0.0394603
0.0393406
0.0392171
0.0391045
0.0389864
0.0388807
0.0387679
0.038669
0.0385617
0.03847
0.0383683
0.0382842
0.0381885
0.0381127
0.0380242
0.0379576
0.0378782
0.0378224
0.037754
0.0377112
0.0376583
0.0376311
0.0376016
0.0375921
0.0375931
0.0376136
0.037648
0.0377173
0.0378186
0.0379491
0.0381522
0.0383782
0.0387876
0.0392091
0.0401612
0.0405545
0.0457454
0.0426307
0.026061
0.0245579
0.0258015
0.0256765
0.0262746
0.0265088
0.0264555
0.0270793
0.0271969
0.0269587
0.027603
0.027478
0.0284777
0.0282774
0.0267553
0.0306689
0.0267011
0.0291221
0.0288832
0.027552
0.0270666
0.0291213
0.0285214
0.0268716
0.0315022
0.0265493
0.0277622
0.028481
0.0298536
0.0286404
0.028949
0.0295879
0.0261408
0.0286888
0.0319029
0.0275457
0.0285485
0.0316132
0.027106
0.0283404
0.0283351
0.0310457
0.0282668
0.0276964
0.0286787
0.0296904
0.0294511
0.0267006
0.031225
0.0280674
0.0300239
0.0243215
0.03016
0.0316499
0.0276355
0.0342098
0.0281837
0.0300849
0.0281651
0.0323029
0.0318862
0.0317103
0.0321734
0.0304224
0.031655
0.0274782
0.0319865
0.0280649
0.031653
0.0272956
0.0315021
0.029197
0.0292832
0.0317555
0.0277727
0.0331848
0.0279291
0.0297559
0.0258661
0.0289527
0.0288097
0.0283804
0.0289858
0.0265171
0.0307392
0.0267417
0.0283113
0.0263509
0.0289805
0.0293666
0.030567
0.0302559
0.0293662
0.0309175
0.0256705
0.0296442
0.0283615
0.0315138
0.0281635
0.0272886
0.0315695
0.0288378
0.0284274
0.0260172
0.0322185
0.0306218
0.0301538
0.0281763
0.027906
0.0273916
0.0262715
0.031562
0.0288007
0.0319513
0.0275469
0.0285588
0.027922
0.0296498
0.0283775
0.026601
0.0289027
0.0256038
0.0299346
0.0269153
0.0313088
0.0305655
0.0316236
0.0288126
0.0280027
0.02847
0.0276778
0.0321586
0.0248384
0.0280207
0.0294131
0.031928
0.028138
0.0291469
0.0270772
0.0258016
0.0276787
0.0260924
0.027092
0.025353
0.0317508
0.0292346
0.0310666
0.0282574
0.0294116
0.0267089
0.0278413
0.0295409
0.0260299
0.0285633
0.0245389
0.0283711
0.0259913
0.0312689
0.0281594
0.0319866
0.0310971
0.0281849
0.0279145
0.027382
0.0279008
0.0257178
0.0313463
0.0272859
0.0303559
0.0261344
0.0281568
0.0246632
0.0299158
0.0283244
0.0293205
0.0294056
0.0271309
0.0263455
0.0261604
0.0242341
0.0257543
0.0277191
0.0230474
0.030128
0.0272186
0.0304557
0.0280828
0.0257305
0.0267408
0.0280459
0.027626
0.0298963
0.028593
0.0323747
0.0299326
0.0393962
0.0504081
0.0389343
0.0322885
0.0299634
0.0457228
0.0704375
0.0777443
0.0777712
0.0757619
0.0733601
0.0710259
0.0688371
0.0668365
0.0650513
0.0634259
0.0619603
0.0606351
0.0594488
0.058373
0.0573819
0.0564723
0.0556345
0.0548663
0.0541468
0.0534707
0.0528371
0.0522442
0.0516893
0.0511659
0.050671
0.050202
0.0497586
0.0493378
0.0489389
0.0485569
0.0481935
0.0478447
0.0475131
0.0471944
0.0468898
0.0465957
0.046314
0.0460419
0.0457811
0.0455288
0.0452862
0.0450506
0.044824
0.0446034
0.0443919
0.044185
0.0439865
0.0437916
0.0436046
0.0434208
0.0432446
0.0430711
0.0429046
0.0427401
0.0425825
0.0424263
0.0422768
0.0421272
0.0419854
0.041843
0.0417085
0.0415726
0.0414453
0.0413155
0.041195
0.041071
0.040957
0.0408385
0.040731
0.0406179
0.0405169
0.0404093
0.040315
0.0402131
0.0401257
0.0400303
0.0399504
0.0398625
0.0397911
0.0397122
0.0396506
0.0395832
0.0395336
0.0394811
0.0394448
0.0394157
0.0393961
0.039391
0.0394013
0.0394374
0.0394835
0.0395824
0.0396923
0.0398954
0.0401198
0.0405157
0.041108
0.041897
0.0406241
0.0382133
0.0349642
0.0331377
0.0320583
0.031254
0.0307457
0.0304515
0.0302963
0.030188
0.0301011
0.0301083
0.0300887
0.0302445
0.0301263
0.0306071
0.029795
0.0304021
0.0304158
0.0300577
0.0301894
0.0299422
0.0300571
0.029852
0.0301935
0.0297757
0.0302173
0.0301747
0.0301228
0.0304395
0.0304663
0.0306129
0.0301313
0.0304282
0.0303875
0.0301368
0.0306147
0.0307808
0.0302422
0.0306963
0.0305629
0.0307687
0.0305747
0.0303559
0.0304153
0.0303702
0.030727
0.0304204
0.030802
0.0301043
0.0306456
0.0298447
0.0299093
0.0304704
0.0302804
0.0308606
0.0307072
0.0313884
0.0313053
0.0311811
0.0318539
0.0320064
0.0324714
0.0323858
0.0325718
0.0322167
0.0324268
0.0313711
0.0318453
0.0312368
0.0313436
0.0312341
0.0310431
0.0314357
0.0311756
0.0315955
0.0311877
0.0316111
0.0311906
0.0304926
0.0303815
0.0301263
0.030494
0.0300558
0.0302876
0.0298995
0.0303404
0.0299612
0.0299275
0.0302546
0.0302489
0.0309015
0.0309274
0.0311868
0.0306669
0.0309286
0.0302596
0.0306796
0.0306787
0.0302143
0.030482
0.0303988
0.0308561
0.030537
0.0309969
0.0307515
0.0309928
0.0312721
0.0305354
0.0304471
0.0297996
0.0300686
0.0302043
0.0311069
0.0307912
0.0306196
0.0304763
0.0303491
0.0303648
0.0298573
0.0299434
0.0296591
0.0301508
0.0294769
0.0301556
0.030636
0.0309076
0.0312556
0.0305798
0.0305543
0.0302147
0.0305107
0.0296502
0.0303151
0.0302055
0.0302778
0.0306893
0.0307535
0.0305578
0.0295211
0.029419
0.0291206
0.0292201
0.0290415
0.0297383
0.0295865
0.0302266
0.030447
0.0303366
0.0302284
0.0296956
0.0297978
0.0294246
0.0295351
0.0289532
0.0294671
0.028885
0.0294375
0.0295292
0.0300994
0.030739
0.0304804
0.0305869
0.0300054
0.0299696
0.0295075
0.0298585
0.0295434
0.0303658
0.029907
0.029682
0.0291175
0.0289412
0.0293458
0.0295241
0.0299931
0.0295012
0.0297764
0.0289089
0.0289309
0.0281884
0.0281739
0.0277397
0.0287862
0.0282541
0.0290893
0.0293983
0.0290614
0.0291198
0.0290972
0.029324
0.0295314
0.029961
0.0304749
0.0310149
0.0317184
0.0340033
0.036289
0.0375509
0.0371019
0.0349807
0.0150988
0.0289288
0.0427708
0.051652
0.0566798
0.0589914
0.0597321
0.0594858
0.058841
0.0580294
0.0571556
0.0562923
0.0554562
0.0546683
0.0539161
0.0531955
0.052518
0.0518832
0.0512899
0.0507257
0.0501891
0.0496818
0.0492039
0.0487524
0.0483212
0.0479101
0.0475179
0.0471454
0.0467903
0.0464508
0.046124
0.0458114
0.0455107
0.0452237
0.044947
0.0446809
0.0444235
0.0441758
0.0439365
0.0437064
0.0434832
0.0432678
0.0430583
0.0428562
0.0426596
0.0424702
0.0422852
0.0421065
0.0419316
0.0417628
0.0415975
0.041438
0.0412814
0.0411303
0.0409814
0.0408378
0.0406962
0.0405599
0.0404246
0.0402947
0.0401653
0.0400415
0.0399178
0.0398001
0.0396819
0.0395699
0.0394568
0.0393501
0.0392419
0.0391406
0.0390373
0.0389414
0.0388428
0.0387522
0.0386586
0.0385734
0.0384852
0.0384059
0.0383238
0.0382507
0.0381756
0.03811
0.0380432
0.0379868
0.0379302
0.0378835
0.0378409
0.0378079
0.0377844
0.0377682
0.037767
0.0377774
0.037814
0.0378659
0.0379604
0.0380813
0.0382469
0.0386794
0.0385536
0.0366368
0.0386234
0.0370946
0.0353041
0.0339819
0.0329009
0.0320986
0.0316583
0.0311942
0.0308454
0.0307173
0.03045
0.0304044
0.0301865
0.0299903
0.0304741
0.0293557
0.0305223
0.0299041
0.0294895
0.0295878
0.0299165
0.0294274
0.0292703
0.0297522
0.0287528
0.0298235
0.0296817
0.0296686
0.0294118
0.0296355
0.0297088
0.0292779
0.0301708
0.029712
0.0287972
0.0299237
0.0299693
0.0291937
0.029962
0.0297733
0.0301145
0.029191
0.0295564
0.0297418
0.0297392
0.0296992
0.0294761
0.0300599
0.0291491
0.0298065
0.0288595
0.0304917
0.0295603
0.0290294
0.0298976
0.0289039
0.0303001
0.029733
0.0308166
0.0303761
0.0304089
0.0307163
0.0307006
0.031075
0.0307606
0.0314964
0.0302403
0.0313603
0.0297864
0.0312314
0.0300105
0.0302216
0.0304826
0.0300238
0.0307996
0.0296683
0.0308141
0.0298395
0.0306792
0.0299166
0.0295835
0.0297408
0.0293646
0.0298479
0.0290493
0.029833
0.0291631
0.0299185
0.0295243
0.02954
0.0296507
0.0296722
0.0299604
0.0294282
0.0305371
0.0294939
0.0301281
0.0289896
0.0293889
0.0298188
0.0293472
0.0296653
0.0296509
0.0308259
0.0294525
0.0296463
0.029643
0.0296684
0.0295791
0.0293637
0.0297775
0.0292841
0.0299279
0.0289767
0.02994
0.0296463
0.0298982
0.0292574
0.0290947
0.0293788
0.0289503
0.0298125
0.0289039
0.0299281
0.0292673
0.0296213
0.0291853
0.0294803
0.0296163
0.0294263
0.029729
0.0285527
0.0299873
0.0295152
0.029566
0.0289249
0.0298018
0.0292342
0.0289839
0.0291014
0.028683
0.0288764
0.0286889
0.0297397
0.0284788
0.0292337
0.0286112
0.0293587
0.0287399
0.029206
0.0291076
0.0285772
0.0290183
0.0284646
0.0293887
0.0283934
0.0293941
0.0281983
0.0294935
0.0290021
0.0288162
0.029188
0.0290663
0.0291354
0.0288157
0.0293974
0.0285084
0.0295909
0.028366
0.0293357
0.0282157
0.0295082
0.0284673
0.0287625
0.0287766
0.0284185
0.0287182
0.028431
0.0283
0.0283869
0.0280809
0.0274128
0.0288309
0.0276409
0.0285193
0.0278287
0.0279788
0.02844
0.0286276
0.0285081
0.0290238
0.0289132
0.0296943
0.0294411
0.0308777
0.0305918
0.0303455
0.0329017
0.0342331
0.033634
0.00552738
0.0118406
0.0195543
0.0283668
0.0361684
0.0420775
0.0462296
0.0486715
0.0500083
0.0506173
0.0507637
0.0506555
0.0504098
0.0500931
0.0497267
0.0493359
0.0489384
0.0485431
0.0481532
0.0477654
0.0473854
0.0470182
0.0466657
0.0463256
0.045994
0.0456731
0.0453632
0.0450661
0.0447801
0.0445031
0.0442342
0.0439747
0.0437239
0.0434832
0.0432495
0.0430229
0.0428029
0.04259
0.0423838
0.0421846
0.0419906
0.0418024
0.041619
0.0414412
0.0412683
0.0411008
0.040937
0.040778
0.0406224
0.0404714
0.0403238
0.0401808
0.0400403
0.039904
0.0397699
0.03964
0.0395121
0.0393885
0.039266
0.0391474
0.0390299
0.0389164
0.0388037
0.0386954
0.0385875
0.0384839
0.0383803
0.0382812
0.0381819
0.0380874
0.0379924
0.0379022
0.0378114
0.0377256
0.0376389
0.0375575
0.0374755
0.0373987
0.0373216
0.0372499
0.0371782
0.0371123
0.0370469
0.0369882
0.03693
0.0368795
0.0368284
0.0367888
0.0367552
0.0367248
0.0367016
0.0366914
0.036691
0.0367069
0.0367398
0.0367958
0.0368424
0.0371237
0.0367164
0.0348082
0.0371859
0.0372825
0.0362987
0.0351316
0.0340775
0.033207
0.0326792
0.0320763
0.031587
0.031397
0.0309873
0.0308962
0.0304974
0.0302211
0.0305283
0.0296588
0.0304832
0.0298865
0.0294483
0.0294284
0.0299469
0.0293432
0.0291374
0.0295577
0.0287271
0.029397
0.0294494
0.0295109
0.0290871
0.0292223
0.0292731
0.0289266
0.0297533
0.0294553
0.0285591
0.0292998
0.0294785
0.0288311
0.0293475
0.0293289
0.0296509
0.0287687
0.0290577
0.0292987
0.0293899
0.0292034
0.0290231
0.029522
0.0288708
0.0292045
0.0285194
0.0302607
0.0292463
0.0286018
0.0292807
0.0284296
0.0292764
0.0289658
0.0302816
0.0296506
0.0295699
0.0297229
0.029735
0.0300808
0.0298818
0.0305463
0.0297824
0.0305746
0.0293763
0.0306683
0.0296256
0.0297335
0.0299251
0.0295003
0.0301705
0.029273
0.0299371
0.029153
0.0302896
0.0297417
0.0294024
0.0294015
0.0290876
0.029517
0.0288496
0.0293098
0.0288772
0.029728
0.0292534
0.0292768
0.0290909
0.0290618
0.0292767
0.0288193
0.0297989
0.0292176
0.0297037
0.0284637
0.0288537
0.0293196
0.0288716
0.0290134
0.0291478
0.0302389
0.029099
0.0290019
0.0287616
0.0291147
0.0290667
0.0290753
0.029492
0.0289386
0.0292161
0.028345
0.02926
0.029189
0.0294794
0.028823
0.0286896
0.0289825
0.0286325
0.0293084
0.0287374
0.0296598
0.0288224
0.0289804
0.0283041
0.0287686
0.0289815
0.0289402
0.0292024
0.0282469
0.0293356
0.0291444
0.0292051
0.0283608
0.0289748
0.0284973
0.0286359
0.0288292
0.0284931
0.0286748
0.0285605
0.0294623
0.0283454
0.0287151
0.0279546
0.0286139
0.0280455
0.0287603
0.0287517
0.0282443
0.0286382
0.0282306
0.0289936
0.0283073
0.0292236
0.0280235
0.0290282
0.028304
0.0280409
0.0283319
0.0284651
0.0285926
0.0284293
0.0289947
0.0282458
0.0288468
0.0278467
0.028783
0.0280142
0.0294579
0.0283388
0.0283719
0.0282772
0.0279589
0.0280806
0.028134
0.0279461
0.0283477
0.0281624
0.0275003
0.0285641
0.0276626
0.0282928
0.0274232
0.0274646
0.0279675
0.0283283
0.0281785
0.0287501
0.0284148
0.0292509
0.0287041
0.0302435
0.0293537
0.0283082
0.0297807
0.031431
0.0319568
0.00217496
0.00492546
0.00829336
0.0131586
0.0193435
0.0257944
0.0314845
0.0360825
0.0395227
0.0418796
0.0434072
0.0443526
0.0449216
0.0452394
0.0453645
0.045368
0.0452961
0.0451751
0.0450174
0.0448354
0.0446369
0.0444299
0.0442188
0.0440034
0.043784
0.0435646
0.0433471
0.043134
0.0429242
0.0427162
0.0425111
0.0423105
0.0421144
0.0419242
0.0417371
0.0415536
0.041374
0.0411989
0.0410285
0.0408625
0.0406997
0.0405407
0.040385
0.0402333
0.0400854
0.0399413
0.0397998
0.0396617
0.0395262
0.0393942
0.039265
0.0391391
0.0390154
0.0388946
0.0387759
0.0386602
0.0385464
0.0384359
0.0383265
0.03822
0.0381145
0.0380121
0.0379106
0.0378124
0.0377149
0.0376205
0.0375265
0.0374358
0.0373454
0.0372584
0.0371717
0.0370884
0.0370051
0.0369252
0.0368455
0.0367692
0.0366933
0.0366208
0.0365489
0.0364803
0.0364127
0.0363487
0.0362858
0.0362276
0.0361698
0.0361185
0.0360642
0.0360204
0.0359814
0.0359439
0.0359078
0.0358848
0.035863
0.0358558
0.0358525
0.0358667
0.0358486
0.0360192
0.0355147
0.0338037
0.0356538
0.0365872
0.036397
0.0356813
0.0348065
0.0340184
0.0334537
0.0328144
0.0322651
0.0320122
0.0315391
0.0313978
0.0309191
0.030577
0.0307412
0.0300436
0.0305165
0.0300632
0.0296154
0.0295042
0.0299683
0.0294498
0.0292103
0.0295377
0.0288736
0.0292552
0.029364
0.0294565
0.0290327
0.0290674
0.0290806
0.0287907
0.0294426
0.0293097
0.0285651
0.0289899
0.0291869
0.028664
0.0290053
0.029063
0.0293272
0.0286395
0.0287713
0.0290049
0.0291507
0.0289377
0.0287817
0.0292008
0.0287346
0.028875
0.028393
0.0297551
0.0291062
0.0284728
0.0289546
0.028255
0.0286978
0.0285787
0.029694
0.0292162
0.0290858
0.0291363
0.029136
0.0294191
0.0292875
0.0298527
0.0294292
0.0299135
0.029181
0.0300691
0.0294277
0.0294565
0.0295827
0.0292158
0.0297501
0.0290742
0.0294029
0.0287945
0.029787
0.0295591
0.0292905
0.0292179
0.0289524
0.0292999
0.0287701
0.0290187
0.0287472
0.0294559
0.029139
0.0291617
0.0288348
0.0287542
0.0288908
0.0284896
0.0292524
0.0289851
0.0293232
0.0283421
0.0285395
0.0289759
0.0286058
0.0286543
0.0288306
0.0297111
0.0289169
0.0286867
0.0283299
0.0287219
0.0287304
0.0288271
0.029239
0.0287515
0.0288301
0.028157
0.0287615
0.0288391
0.029077
0.0286124
0.0284678
0.0287195
0.0284519
0.0289694
0.0286215
0.0293447
0.0286616
0.0286399
0.0280143
0.0283033
0.0285383
0.0285939
0.028837
0.0280896
0.0288558
0.028867
0.0289532
0.0281751
0.0284655
0.0280836
0.0283461
0.0285841
0.0283579
0.0285345
0.0284882
0.029207
0.0283574
0.0284484
0.0277979
0.0281508
0.0277315
0.0283927
0.0284754
0.0280655
0.02839
0.0280882
0.0286512
0.0282675
0.0289903
0.0280633
0.028722
0.0280512
0.0277118
0.0278868
0.0280673
0.0282242
0.0281697
0.0286975
0.0281219
0.0284133
0.0276976
0.0283476
0.0279245
0.029126
0.0283391
0.0282186
0.0280659
0.0277642
0.0277379
0.0279456
0.0277485
0.0282491
0.0282141
0.0276548
0.0284081
0.027769
0.0281503
0.0274198
0.0272959
0.0277173
0.0281102
0.0280236
0.0285629
0.0281731
0.028917
0.0283483
0.0297201
0.0289875
0.0276091
0.0280278
0.0293663
0.0303776
0.000945267
0.00212322
0.00355461
0.00559599
0.00881314
0.0133281
0.0185137
0.0234862
0.0279092
0.0316383
0.0345924
0.0368081
0.0384135
0.0395639
0.0403621
0.0409099
0.0412765
0.0415172
0.04166
0.0417234
0.0417358
0.0417128
0.0416621
0.0415889
0.0414992
0.0413969
0.0412851
0.0411674
0.0410436
0.0409143
0.0407818
0.040648
0.0405136
0.04038
0.0402452
0.0401102
0.039976
0.0398434
0.0397126
0.0395836
0.0394554
0.0393289
0.0392039
0.0390812
0.0389608
0.0388424
0.0387253
0.0386102
0.0384968
0.0383856
0.0382765
0.0381695
0.0380638
0.0379602
0.0378579
0.0377579
0.0376593
0.0375631
0.0374677
0.0373743
0.0372818
0.0371914
0.0371019
0.0370148
0.0369283
0.0368441
0.0367603
0.0366789
0.036598
0.0365195
0.0364416
0.036366
0.0362908
0.0362178
0.0361455
0.0360754
0.0360062
0.0359391
0.0358729
0.0358089
0.0357461
0.0356856
0.0356263
0.0355704
0.0355146
0.0354643
0.0354105
0.0353641
0.0353226
0.0352823
0.0352393
0.0352085
0.0351738
0.0351514
0.0351257
0.0351116
0.0350574
0.0351456
0.0346184
0.03313
0.0344134
0.0356035
0.0359376
0.0357337
0.0351244
0.0345088
0.033965
0.0333556
0.0328086
0.0325009
0.0320202
0.0318339
0.0313247
0.0309409
0.0309995
0.0303994
0.0306253
0.0302671
0.0298368
0.0296749
0.0299955
0.0296009
0.0293551
0.0295973
0.0290459
0.0292528
0.029355
0.0294341
0.029075
0.0290405
0.0290094
0.0287517
0.0292457
0.0292035
0.02861
0.0288434
0.0290096
0.0285724
0.0288062
0.0288866
0.0290918
0.028576
0.0286107
0.0288032
0.0289597
0.0287706
0.0286325
0.0289831
0.0286338
0.0286747
0.0283339
0.0292866
0.0289543
0.0284162
0.028761
0.0281704
0.0283831
0.0283528
0.0291711
0.028896
0.0287669
0.0287559
0.0287332
0.0289506
0.0288511
0.0293233
0.0290998
0.0294201
0.0289937
0.0295778
0.0292223
0.0292479
0.0293325
0.0290194
0.0294382
0.0289147
0.0290607
0.0285919
0.0293536
0.0293175
0.0291542
0.0290715
0.0288517
0.0291289
0.028704
0.0288363
0.0286682
0.0291968
0.0290333
0.0290545
0.0287067
0.0285882
0.0286554
0.0282901
0.0288762
0.0287716
0.0289898
0.0282899
0.0283693
0.0287338
0.0284245
0.0284274
0.0286055
0.0292908
0.0287558
0.0284963
0.0281316
0.0284201
0.0284732
0.0286052
0.0289985
0.0285997
0.028586
0.0280763
0.0284358
0.0285567
0.0287473
0.0284458
0.0283158
0.0285216
0.0283165
0.0287219
0.0285059
0.0290338
0.0285542
0.0284251
0.0279157
0.0280288
0.0282277
0.0283285
0.0285543
0.0279623
0.0285254
0.0286291
0.0287338
0.0280727
0.0281619
0.0278709
0.0280926
0.0283534
0.028224
0.0284052
0.0284134
0.0289841
0.0283549
0.0282912
0.0277688
0.0279024
0.0276066
0.0281026
0.0282382
0.0279296
0.0282033
0.0279749
0.0283946
0.0281947
0.0287334
0.0280948
0.0284881
0.0279567
0.0275838
0.0276623
0.0278057
0.0279622
0.027973
0.0284535
0.0280177
0.0281487
0.0276473
0.0280544
0.0278617
0.0287381
0.0282901
0.0281415
0.027962
0.0276786
0.0275632
0.0278142
0.0276296
0.0281355
0.028207
0.0277725
0.0283319
0.0278614
0.028056
0.0275028
0.0272901
0.0276022
0.027942
0.0279353
0.0283795
0.0280475
0.0286415
0.0281567
0.0292923
0.0288209
0.0273669
0.0271592
0.0279983
0.0290916
0.000496873
0.000983901
0.00159441
0.00241849
0.00373159
0.00589046
0.00914963
0.0131641
0.0173652
0.0213351
0.0249341
0.028064
0.0306656
0.0327748
0.0343983
0.03564
0.0365818
0.0372994
0.0378398
0.0382362
0.0385286
0.038743
0.0388958
0.0389974
0.0390584
0.0390895
0.0390974
0.0390869
0.0390601
0.0390207
0.038971
0.0389129
0.0388482
0.0387781
0.038702
0.038622
0.038539
0.038454
0.0383678
0.03828
0.0381905
0.0381003
0.0380096
0.0379193
0.0378294
0.0377396
0.0376495
0.03756
0.037471
0.037383
0.0372959
0.0372097
0.0371239
0.0370391
0.0369549
0.0368722
0.0367902
0.0367097
0.0366295
0.0365505
0.036472
0.036395
0.0363185
0.0362436
0.0361691
0.036096
0.0360233
0.0359521
0.0358816
0.0358125
0.0357441
0.0356771
0.0356107
0.0355456
0.0354813
0.0354184
0.0353565
0.0352957
0.0352361
0.0351776
0.0351204
0.0350647
0.0350099
0.0349577
0.0349053
0.0348573
0.0348063
0.0347594
0.034717
0.0346763
0.0346307
0.0345955
0.0345532
0.0345208
0.0344809
0.0344475
0.0343729
0.0343982
0.0338782
0.0325945
0.0334513
0.0346067
0.0352019
0.0354066
0.0351063
0.0346952
0.0342337
0.0336941
0.0331923
0.0328459
0.0323941
0.0321754
0.0316653
0.0312615
0.031244
0.0306991
0.0307641
0.0304527
0.0300505
0.0298671
0.030047
0.0297429
0.0295096
0.0296848
0.0292059
0.0293072
0.0293818
0.0294282
0.029139
0.0290642
0.0289962
0.0287562
0.0291285
0.0291234
0.0286463
0.0287711
0.0288956
0.0285141
0.0286804
0.0287583
0.0289118
0.0285231
0.0285098
0.0286568
0.0287944
0.0286434
0.0285221
0.0288172
0.0285406
0.0285324
0.0282844
0.0289439
0.028785
0.0283606
0.0286231
0.0281116
0.0281966
0.0281956
0.0287684
0.0286339
0.0285272
0.0284838
0.0284407
0.0286008
0.0285124
0.0289049
0.0287926
0.0290298
0.0287862
0.0291925
0.0290002
0.0290516
0.0291174
0.0288506
0.0291809
0.0287599
0.0288101
0.0284569
0.0290099
0.02906
0.0289864
0.0289238
0.0287479
0.0289732
0.0286251
0.0286967
0.0285963
0.0289784
0.0289097
0.0289228
0.0286205
0.0284813
0.0284952
0.0281533
0.028606
0.0285781
0.0287136
0.0282271
0.0282577
0.0285507
0.0282799
0.0282619
0.0284276
0.02896
0.0285915
0.0283479
0.0280238
0.0281914
0.0282617
0.0284055
0.0287708
0.0284506
0.0283999
0.0280061
0.0282163
0.0283293
0.0284838
0.0282871
0.0281854
0.0283559
0.0281948
0.0285224
0.0283836
0.0287602
0.0284377
0.0282673
0.0278584
0.0278621
0.028007
0.0281171
0.0283223
0.0278403
0.0282762
0.0284166
0.0285273
0.0279802
0.0279621
0.0277428
0.0278919
0.0281476
0.0280861
0.0282736
0.0283222
0.0287821
0.0283136
0.0281812
0.0277566
0.0277642
0.027548
0.027895
0.0280394
0.0278082
0.0280468
0.0278694
0.0281925
0.0280965
0.0284907
0.0280757
0.0283016
0.0278962
0.0275308
0.0275421
0.0276357
0.0277714
0.0278142
0.0282449
0.027911
0.0279635
0.0276055
0.02786
0.0277949
0.0284179
0.0281858
0.0280712
0.027893
0.0276336
0.0274887
0.0277086
0.0275479
0.028019
0.0281554
0.0278341
0.0282776
0.0279201
0.0279995
0.0275798
0.0273397
0.0275588
0.027826
0.027867
0.0282091
0.0279614
0.0284146
0.0280323
0.0289527
0.0286756
0.0272704
0.0267521
0.0271539
0.028126
0.000341821
0.000534352
0.000789555
0.00112399
0.0016322
0.00248551
0.0039322
0.00618718
0.00918273
0.012617
0.0161043
0.0193696
0.0223779
0.0250852
0.0274197
0.0293893
0.031005
0.0323057
0.0333506
0.0341797
0.0348378
0.0353612
0.0357783
0.0361079
0.0363651
0.0365667
0.0367242
0.0368458
0.0369354
0.0369988
0.0370422
0.0370687
0.0370815
0.037082
0.0370723
0.0370541
0.0370285
0.0369969
0.03696
0.0369182
0.0368719
0.0368224
0.03677
0.0367156
0.0366594
0.0366012
0.0365412
0.0364801
0.0364181
0.0363557
0.0362929
0.0362297
0.0361657
0.0361017
0.0360375
0.0359737
0.03591
0.0358467
0.0357831
0.0357199
0.0356568
0.0355942
0.035532
0.0354704
0.0354089
0.0353481
0.0352874
0.0352276
0.0351682
0.0351096
0.0350515
0.0349941
0.0349371
0.0348809
0.0348253
0.0347705
0.0347166
0.0346632
0.0346107
0.0345589
0.034508
0.034458
0.0344088
0.0343612
0.0343134
0.0342688
0.0342218
0.034177
0.0341343
0.0340948
0.0340499
0.0340127
0.0339661
0.0339275
0.0338788
0.033832
0.0337467
0.0337235
0.0332216
0.0321154
0.0326926
0.0337053
0.0343715
0.0348339
0.0348167
0.0346141
0.0342906
0.033842
0.0334112
0.033052
0.032647
0.0324102
0.0319221
0.0315156
0.0314445
0.0309343
0.0308962
0.0306049
0.0302313
0.0300422
0.0301129
0.0298609
0.0296463
0.0297711
0.0293402
0.0293764
0.0294196
0.0294305
0.0291939
0.0290997
0.029006
0.0287769
0.0290586
0.0290614
0.0286657
0.0287287
0.0288147
0.0284695
0.0285915
0.0286571
0.0287652
0.0284674
0.028434
0.0285419
0.0286451
0.0285316
0.0284257
0.0286767
0.0284466
0.0284147
0.0282263
0.028696
0.0286202
0.0282909
0.0285048
0.0280548
0.02807
0.028072
0.02847
0.0284089
0.0283274
0.0282702
0.0282116
0.0283255
0.0282373
0.0285634
0.0285107
0.0287029
0.028568
0.0288759
0.0287728
0.0288512
0.0289122
0.0286848
0.0289507
0.0286006
0.0286018
0.0283427
0.0287335
0.0288128
0.0287989
0.0287652
0.0286295
0.0288187
0.028528
0.0285693
0.0285123
0.0287928
0.0287735
0.0287753
0.0285343
0.0283908
0.0283688
0.0280449
0.0283986
0.0284026
0.028487
0.0281428
0.0281625
0.0283982
0.0281508
0.0281242
0.0282736
0.0286921
0.0284248
0.0282103
0.0279361
0.0280151
0.0280803
0.0282233
0.0285557
0.0282973
0.0282357
0.0279246
0.02805
0.0281403
0.0282653
0.0281331
0.0280593
0.0282052
0.0280753
0.0283479
0.0282552
0.0285264
0.0283045
0.0281321
0.0277983
0.0277457
0.0278419
0.0279422
0.0281239
0.0277187
0.0280719
0.0282223
0.0283293
0.0278788
0.0278108
0.02764
0.0277362
0.0279689
0.0279478
0.0281378
0.0282141
0.0285921
0.0282374
0.0280852
0.0277315
0.0276738
0.0275038
0.0277458
0.0278739
0.0276938
0.0279061
0.0277647
0.0280222
0.027984
0.0282775
0.0280107
0.0281463
0.027829
0.027495
0.0274664
0.0275186
0.0276264
0.0276799
0.0280623
0.0277995
0.0278149
0.0275513
0.0277185
0.0277165
0.0281725
0.0280579
0.0279885
0.0278287
0.027597
0.0274613
0.0276201
0.027485
0.0279066
0.0280749
0.027845
0.0282197
0.0279425
0.0279604
0.0276293
0.0273951
0.0275464
0.0277469
0.0278053
0.0280633
0.0278874
0.0282299
0.0279455
0.0286714
0.0285135
0.0272096
0.0265657
0.026655
0.0274341
0.000285607
0.00036589
0.000469266
0.000604525
0.000799959
0.00111715
0.00166665
0.00261186
0.00411131
0.00626654
0.0089516
0.0118791
0.014834
0.0175884
0.0201645
0.0225384
0.0246524
0.0264935
0.0280842
0.029407
0.0305044
0.0314144
0.0321683
0.0327903
0.0333014
0.0337231
0.0340719
0.0343607
0.0345981
0.034792
0.034951
0.0350809
0.0351871
0.0352718
0.0353372
0.035388
0.0354259
0.0354532
0.0354705
0.0354797
0.0354815
0.0354772
0.0354671
0.0354525
0.0354334
0.0354102
0.0353834
0.0353537
0.0353215
0.0352873
0.0352512
0.0352131
0.0351732
0.0351321
0.0350898
0.0350468
0.035003
0.0349586
0.0349131
0.0348672
0.0348208
0.0347742
0.0347273
0.0346804
0.034633
0.0345856
0.034538
0.0344906
0.0344433
0.0343962
0.0343492
0.0343023
0.0342556
0.0342091
0.0341631
0.0341173
0.0340721
0.0340269
0.0339823
0.0339379
0.0338942
0.0338508
0.0338079
0.0337661
0.0337236
0.0336835
0.0336414
0.0336006
0.0335588
0.0335214
0.0334794
0.0334419
0.0333936
0.0333516
0.0332977
0.0332419
0.0331521
0.0330908
0.0326117
0.0316562
0.0320601
0.0329165
0.0335548
0.0341277
0.034336
0.0343175
0.0341587
0.0338184
0.0334715
0.0331317
0.0327787
0.0325372
0.0320874
0.0316922
0.0315855
0.0311025
0.0309994
0.0307164
0.0303684
0.0301797
0.0301755
0.0299509
0.0297539
0.0298406
0.0294431
0.0294381
0.029453
0.0294322
0.0292315
0.0291287
0.0290186
0.028798
0.0290128
0.0290099
0.0286679
0.0286941
0.0287483
0.0284283
0.0285196
0.0285701
0.0286388
0.0284044
0.0283656
0.0284434
0.0285104
0.0284239
0.028331
0.0285467
0.028348
0.0283059
0.0281564
0.0285045
0.0284649
0.0282056
0.02839
0.0279908
0.0279691
0.0279643
0.0282442
0.028212
0.0281494
0.0280884
0.0280195
0.0280972
0.0280043
0.0282754
0.0282526
0.0284172
0.028348
0.0285976
0.0285452
0.028643
0.0287066
0.0285128
0.0287325
0.0284336
0.028411
0.0282246
0.0285023
0.0285828
0.0286025
0.0285955
0.0284941
0.0286587
0.0284132
0.0284408
0.0284108
0.0286231
0.0286277
0.0286215
0.0284331
0.0282965
0.0282532
0.027946
0.0282268
0.0282406
0.0282928
0.028042
0.0280663
0.0282591
0.0280269
0.0279976
0.0281304
0.0284642
0.0282574
0.0280726
0.0278444
0.0278683
0.0279191
0.0280533
0.0283519
0.0281397
0.0280787
0.027828
0.0279067
0.0279745
0.0280745
0.0279823
0.0279317
0.0280605
0.027953
0.0281855
0.0281215
0.0283227
0.0281602
0.0280013
0.0277249
0.0276479
0.0277079
0.027791
0.0279484
0.0275971
0.027893
0.0280405
0.0281378
0.0277658
0.0276806
0.0275438
0.0276067
0.0278114
0.0278116
0.0279993
0.0280924
0.0284084
0.028134
0.027986
0.0276873
0.0275994
0.0274571
0.0276277
0.0277317
0.027583
0.027774
0.0276585
0.0278697
0.0278632
0.0280898
0.0279154
0.028004
0.0277485
0.0274535
0.0274053
0.0274275
0.0275091
0.0275613
0.0278978
0.0276836
0.0276823
0.0274827
0.0276015
0.0276285
0.0279768
0.027923
0.0278912
0.027757
0.0275537
0.0274423
0.0275456
0.0274331
0.0277981
0.0279759
0.0278156
0.0281476
0.0279314
0.0279203
0.0276501
0.0274356
0.0275413
0.0276872
0.0277451
0.0279402
0.0278177
0.0280758
0.0278791
0.0284295
0.0283375
0.0271482
0.026477
0.026369
0.0269455
0.000263423
0.00029915
0.000345477
0.000400441
0.000476537
0.000593313
0.000789331
0.00113481
0.00173123
0.00270789
0.00418145
0.00616555
0.00855404
0.0110673
0.0136065
0.0160033
0.0182437
0.0203375
0.0222625
0.0239827
0.0255047
0.0268329
0.0279651
0.0289299
0.0297514
0.0304476
0.031037
0.0315382
0.0319638
0.0323237
0.0326291
0.032889
0.033111
0.0333001
0.0334588
0.0335938
0.0337081
0.0338052
0.0338865
0.0339539
0.0340091
0.0340545
0.0340907
0.0341195
0.0341408
0.0341562
0.0341659
0.0341709
0.0341712
0.0341679
0.0341608
0.0341503
0.0341367
0.0341208
0.0341023
0.0340821
0.03406
0.0340361
0.0340104
0.0339834
0.0339551
0.0339259
0.0338957
0.0338647
0.0338326
0.0337998
0.0337664
0.0337325
0.0336983
0.0336637
0.0336287
0.0335933
0.0335578
0.033522
0.0334863
0.0334503
0.0334146
0.0333784
0.0333426
0.0333064
0.0332705
0.0332346
0.0331989
0.0331636
0.0331274
0.0330927
0.0330562
0.0330205
0.0329815
0.0329468
0.0329089
0.0328725
0.0328246
0.0327813
0.0327249
0.0326632
0.032573
0.0324811
0.032027
0.0311999
0.0315034
0.0322226
0.0327969
0.0333809
0.0337319
0.0338601
0.0338602
0.0336445
0.033389
0.0330964
0.0327968
0.0325612
0.0321594
0.0317877
0.0316598
0.0312028
0.0310602
0.0307825
0.0304574
0.0302724
0.0302192
0.0300093
0.0298268
0.0298841
0.0295122
0.0294806
0.0294721
0.0294259
0.0292484
0.0291421
0.0290228
0.02881
0.0289751
0.0289613
0.0286543
0.0286563
0.028685
0.0283837
0.0284529
0.0284882
0.0285246
0.0283331
0.0282954
0.0283512
0.0283871
0.0283152
0.0282325
0.0284192
0.0282432
0.0281977
0.0280746
0.0283415
0.0283169
0.0281064
0.0282708
0.027915
0.0278753
0.027862
0.0280599
0.0280351
0.0279834
0.0279233
0.0278478
0.027898
0.0277989
0.0280247
0.0280154
0.02816
0.0281309
0.0283423
0.0283196
0.0284279
0.0284968
0.0283316
0.0285179
0.0282583
0.0282253
0.0280926
0.0282962
0.0283673
0.0284025
0.0284165
0.028343
0.0284903
0.0282822
0.0283049
0.028292
0.028458
0.0284734
0.0284635
0.0283147
0.0281901
0.0281361
0.027846
0.0280734
0.0280871
0.028118
0.0279294
0.0279625
0.0281236
0.0279022
0.0278732
0.0279904
0.0282604
0.0280904
0.0279312
0.0277421
0.0277344
0.0277699
0.0278914
0.0281574
0.0279787
0.0279223
0.0277171
0.0277708
0.0278208
0.0278999
0.0278329
0.0278002
0.0279168
0.0278259
0.0280281
0.027983
0.0281361
0.028009
0.0278672
0.0276363
0.0275528
0.0275886
0.0276535
0.0277877
0.027475
0.0277287
0.0278677
0.027952
0.0276426
0.0275576
0.0274465
0.0274895
0.0276677
0.0276773
0.0278586