/*--------------------------------*- C++ -*----------------------------------*\
| =========                 |                                                 |
| \\      /  F ield         | foam-extend: Open Source CFD                    |
|  \\    /   O peration     | Version:     3.2                                |
|   \\  /    A nd           | Web:         http://www.foam-extend.org         |
|    \\/     M anipulation  | For copyright notice see file Copyright         |
\*---------------------------------------------------------------------------*/
FoamFile
{
    version     2.0;
    format      ascii;
    class       volVectorField;
    location    "160";
    object      meshCentreN;
}
// * * * * * * * * * * * * * * * * * * * * * * * * * * * * * * * * * * * * * //

dimensions      [0 1 0 0 0 0 0];

internalField   nonuniform List<vector> 
96000
(
(0.025 0.01 0.00140625)
(0.075 0.01 0.00140625)
(0.125 0.01 0.00140625)
(0.175 0.01 0.00140625)
(0.225 0.01 0.00140625)
(0.275 0.01 0.00140625)
(0.325 0.01 0.00140625)
(0.375 0.01 0.00140625)
(0.425 0.01 0.00140625)
(0.475 0.01 0.00140625)
(0.525 0.01 0.00140625)
(0.575 0.01 0.00140625)
(0.625 0.01 0.00140625)
(0.675 0.01 0.00140625)
(0.725 0.01 0.00140625)
(0.775 0.01 0.00140625)
(0.825 0.01 0.00140625)
(0.875 0.01 0.00140625)
(0.925 0.01 0.00140625)
(0.975 0.01 0.00140625)
(1.025 0.01 0.00140625)
(1.075 0.01 0.00140625)
(1.125 0.01 0.00140625)
(1.175 0.01 0.00140625)
(1.225 0.01 0.00140625)
(1.275 0.01 0.00140625)
(1.325 0.01 0.00140625)
(1.375 0.01 0.00140625)
(1.425 0.01 0.00140625)
(1.475 0.01 0.00140625)
(1.525 0.01 0.00140625)
(1.575 0.01 0.00140625)
(1.625 0.01 0.00140625)
(1.675 0.01 0.00140625)
(1.725 0.01 0.00140625)
(1.775 0.01 0.00140625)
(1.825 0.01 0.00140625)
(1.875 0.01 0.00140625)
(1.925 0.01 0.00140625)
(1.975 0.01 0.00140625)
(2.025 0.01 0.00140625)
(2.075 0.01 0.00140625)
(2.125 0.01 0.00140625)
(2.175 0.01 0.00140625)
(2.225 0.01 0.00140625)
(2.275 0.01 0.00140625)
(2.325 0.01 0.00140625)
(2.375 0.01 0.00140625)
(2.425 0.01 0.00140625)
(2.475 0.01 0.00140625)
(2.525 0.01 0.00140625)
(2.575 0.01 0.00140625)
(2.625 0.01 0.00140625)
(2.675 0.01 0.00140625)
(2.725 0.01 0.00140625)
(2.775 0.01 0.00140625)
(2.825 0.01 0.00140625)
(2.875 0.01 0.00140625)
(2.925 0.01 0.00140625)
(2.975 0.01 0.00140625)
(3.025 0.01 0.00140625)
(3.075 0.01 0.00140625)
(3.125 0.01 0.00140625)
(3.175 0.01 0.00140625)
(3.225 0.01 0.00140625)
(3.275 0.01 0.00140625)
(3.325 0.01 0.00140625)
(3.375 0.01 0.00140625)
(3.425 0.01 0.00140625)
(3.475 0.01 0.00140625)
(3.525 0.01 0.00140625)
(3.575 0.01 0.00140625)
(3.625 0.01 0.00140625)
(3.675 0.01 0.00140625)
(3.725 0.01 0.00140625)
(3.775 0.01 0.00140625)
(3.825 0.01 0.00140625)
(3.875 0.01 0.00140625)
(3.925 0.01 0.00140625)
(3.975 0.01 0.00140625)
(4.025 0.01 0.00140625)
(4.075 0.01 0.00140625)
(4.125 0.01 0.00140625)
(4.175 0.01 0.00140625)
(4.225 0.01 0.00140625)
(4.275 0.01 0.00140625)
(4.325 0.01 0.00140625)
(4.375 0.01 0.00140625)
(4.425 0.01 0.00140625)
(4.475 0.01 0.00140625)
(4.525 0.01 0.00140625)
(4.575 0.01 0.00140625)
(4.625 0.01 0.00140625)
(4.675 0.01 0.00140625)
(4.725 0.01 0.00140625)
(4.775 0.01 0.00140625)
(4.825 0.01 0.00140623)
(4.875 0.01 0.00140641)
(4.92498 0.01 0.00140394)
(4.97503 0.01 -0.000466489)
(5.02501 0.01 -0.0048016)
(5.07499 0.01 -0.00896634)
(5.125 0.01 -0.012064)
(5.175 0.01 -0.0147968)
(5.225 0.01 -0.0171918)
(5.275 0.01 -0.0192777)
(5.325 0.01 -0.0211723)
(5.375 0.01 -0.022798)
(5.425 0.01 -0.0242818)
(5.475 0.01 -0.0256896)
(5.525 0.01 -0.0268956)
(5.575 0.01 -0.0279364)
(5.62499 0.01 -0.0287642)
(5.67501 0.01 -0.0296674)
(5.725 0.01 -0.03058)
(5.77499 0.01 -0.0310436)
(5.82502 0.01 -0.0318832)
(5.87498 0.01 -0.0324317)
(5.92502 0.01 -0.0329229)
(5.97499 0.01 -0.0337901)
(6.02501 0.01 -0.03444)
(6.07498 0.01 -0.0347018)
(6.12502 0.01 -0.0351438)
(6.17499 0.01 -0.0356076)
(6.22499 0.01 -0.0353613)
(6.27502 0.01 -0.0358783)
(6.32498 0.01 -0.0363097)
(6.37501 0.01 -0.0362754)
(6.42499 0.01 -0.0361969)
(6.47502 0.01 -0.0363262)
(6.52498 0.01 -0.0364021)
(6.57501 0.01 -0.0365286)
(6.62501 0.01 -0.0372232)
(6.67499 0.01 -0.0371038)
(6.725 0.01 -0.0365153)
(6.77502 0.01 -0.0367482)
(6.82498 0.01 -0.0367718)
(6.875 0.01 -0.0364439)
(6.92501 0.01 -0.0369259)
(6.97499 0.01 -0.037253)
(7.025 0.01 -0.0371458)
(7.07499 0.01 -0.0368932)
(7.12502 0.01 -0.037142)
(7.17499 0.01 -0.0374429)
(7.22501 0.01 -0.037256)
(7.27499 0.01 -0.0369085)
(7.32501 0.01 -0.0368524)
(7.375 0.01 -0.0370053)
(7.42499 0.01 -0.0365197)
(7.47501 0.01 -0.0363376)
(7.52499 0.01 -0.0363975)
(7.57503 0.01 -0.036588)
(7.62496 0.01 -0.0356024)
(7.67503 0.01 -0.0345472)
(7.72499 0.01 -0.0341985)
(7.77499 0.01 -0.033012)
(7.82502 0.01 -0.0326837)
(7.87498 0.01 -0.0324091)
(7.92502 0.01 -0.0318334)
(7.97497 0.01 -0.0308291)
(8.02502 0.01 -0.0299195)
(8.07498 0.01 -0.029324)
(8.12502 0.01 -0.0288891)
(8.17499 0.01 -0.0288152)
(8.22501 0.01 -0.0287532)
(8.275 0.01 -0.0291581)
(8.32499 0.01 -0.0290752)
(8.37502 0.01 -0.0291412)
(8.42498 0.01 -0.0291576)
(8.47503 0.01 -0.0293004)
(8.52497 0.01 -0.0290489)
(8.57503 0.01 -0.0289781)
(8.62497 0.01 -0.028855)
(8.67502 0.01 -0.0285124)
(8.72499 0.01 -0.0287914)
(8.77499 0.01 -0.0284079)
(8.82502 0.01 -0.0287555)
(8.87498 0.01 -0.0293865)
(8.92502 0.01 -0.0300527)
(8.97497 0.01 -0.0301996)
(9.02502 0.01 -0.0302451)
(9.07498 0.01 -0.0304474)
(9.12502 0.01 -0.0306666)
(9.17499 0.01 -0.0311068)
(9.22499 0.01 -0.0308955)
(9.27501 0.01 -0.0312441)
(9.32499 0.01 -0.0316194)
(9.37502 0.01 -0.0317859)
(9.42498 0.01 -0.0314481)
(9.47501 0.01 -0.0308733)
(9.52498 0.01 -0.0303475)
(9.57502 0.01 -0.0300594)
(9.62498 0.01 -0.0299347)
(9.67501 0.01 -0.0298718)
(9.72501 0.01 -0.0305846)
(9.77498 0.01 -0.0306355)
(9.82501 0.01 -0.0303686)
(9.87498 0.01 -0.0300686)
(9.92503 0.01 -0.0303326)
(9.97498 0.01 -0.0304491)
(10.025 0.01 -0.0297411)
(10.075 0.01 -0.0297059)
(10.125 0.01 -0.0300795)
(10.175 0.01 -0.030234)
(10.225 0.01 -0.0294659)
(10.275 0.01 -0.0290792)
(10.325 0.01 -0.029298)
(10.375 0.01 -0.0298093)
(10.425 0.01 -0.0302903)
(10.475 0.01 -0.0307233)
(10.525 0.01 -0.0308201)
(10.575 0.01 -0.0299203)
(10.625 0.01 -0.0294868)
(10.675 0.01 -0.0292894)
(10.725 0.01 -0.0296363)
(10.775 0.01 -0.0299187)
(10.825 0.01 -0.0299702)
(10.875 0.01 -0.0299179)
(10.925 0.01 -0.0301804)
(10.975 0.01 -0.0306137)
(11.025 0.01 -0.0305523)
(11.075 0.01 -0.0307572)
(11.125 0.01 -0.0304153)
(11.175 0.01 -0.0300439)
(11.225 0.01 -0.0292434)
(11.275 0.01 -0.0285198)
(11.325 0.01 -0.0282489)
(11.375 0.01 -0.0284936)
(11.425 0.01 -0.0288429)
(11.475 0.01 -0.0290084)
(11.525 0.01 -0.0289806)
(11.575 0.01 -0.0285872)
(11.625 0.01 -0.0292376)
(11.675 0.01 -0.0293245)
(11.725 0.01 -0.028757)
(11.775 0.01 -0.028442)
(11.825 0.01 -0.0287696)
(11.875 0.01 -0.0292701)
(11.925 0.01 -0.0299863)
(11.975 0.01 -0.0306799)
(12.025 0.01 -0.0308665)
(12.075 0.01 -0.0312445)
(12.125 0.01 -0.0313754)
(12.175 0.01 -0.031113)
(12.225 0.01 -0.0300639)
(12.275 0.01 -0.0294246)
(12.325 0.01 -0.0291244)
(12.375 0.01 -0.0291753)
(12.425 0.01 -0.0293964)
(12.475 0.01 -0.0297496)
(12.525 0.01 -0.029728)
(12.575 0.01 -0.0295383)
(12.625 0.01 -0.0300589)
(12.675 0.01 -0.0302177)
(12.725 0.01 -0.0305514)
(12.775 0.01 -0.0303532)
(12.825 0.01 -0.0298263)
(12.875 0.01 -0.0288679)
(12.925 0.01 -0.0280876)
(12.975 0.01 -0.0271822)
(13.025 0.01 -0.0267115)
(13.075 0.01 -0.0271416)
(13.125 0.01 -0.027514)
(13.175 0.01 -0.0278155)
(13.225 0.01 -0.0280575)
(13.275 0.01 -0.0281995)
(13.325 0.01 -0.0274442)
(13.375 0.01 -0.0272357)
(13.425 0.01 -0.0272612)
(13.475 0.01 -0.0276174)
(13.525 0.01 -0.0278917)
(13.575 0.01 -0.0278918)
(13.625 0.01 -0.0272262)
(13.675 0.01 -0.026664)
(13.725 0.01 -0.0263119)
(13.775 0.01 -0.0261329)
(13.825 0.01 -0.0266756)
(13.875 0.01 -0.0272558)
(13.925 0.01 -0.027861)
(13.975 0.01 -0.0283798)
(14.025 0.01 -0.0281609)
(14.075 0.01 -0.027567)
(14.125 0.01 -0.0274141)
(14.175 0.01 -0.0261959)
(14.225 0.01 -0.0251168)
(14.275 0.01 -0.0240415)
(14.325 0.01 -0.0234587)
(14.375 0.01 -0.0232456)
(14.425 0.01 -0.0223315)
(14.475 0.01 -0.0210928)
(14.525 0.01 -0.0196063)
(14.575 0.01 -0.0177546)
(14.625 0.01 -0.0155689)
(14.675 0.01 -0.0128511)
(14.725 0.01 -0.00960272)
(14.775 0.01 -0.00496063)
(14.825 0.01 -0.000194387)
(14.875 0.01 0.0014042)
(14.925 0.01 0.00140639)
(14.975 0.01 0.00140624)
(0.025 0.01 0.00421875)
(0.075 0.01 0.00421875)
(0.125 0.01 0.00421875)
(0.175 0.01 0.00421875)
(0.225 0.01 0.00421875)
(0.275 0.01 0.00421875)
(0.325 0.01 0.00421875)
(0.375 0.01 0.00421875)
(0.425 0.01 0.00421875)
(0.475 0.01 0.00421875)
(0.525 0.01 0.00421875)
(0.575 0.01 0.00421875)
(0.625 0.01 0.00421875)
(0.675 0.01 0.00421875)
(0.725 0.01 0.00421875)
(0.775 0.01 0.00421875)
(0.825 0.01 0.00421875)
(0.875 0.01 0.00421875)
(0.925 0.01 0.00421875)
(0.975 0.01 0.00421875)
(1.025 0.01 0.00421875)
(1.075 0.01 0.00421875)
(1.125 0.01 0.00421875)
(1.175 0.01 0.00421875)
(1.225 0.01 0.00421875)
(1.275 0.01 0.00421875)
(1.325 0.01 0.00421875)
(1.375 0.01 0.00421875)
(1.425 0.01 0.00421875)
(1.475 0.01 0.00421875)
(1.525 0.01 0.00421875)
(1.575 0.01 0.00421875)
(1.625 0.01 0.00421875)
(1.675 0.01 0.00421875)
(1.725 0.01 0.00421875)
(1.775 0.01 0.00421875)
(1.825 0.01 0.00421875)
(1.875 0.01 0.00421875)
(1.925 0.01 0.00421875)
(1.975 0.01 0.00421875)
(2.025 0.01 0.00421875)
(2.075 0.01 0.00421875)
(2.125 0.01 0.00421875)
(2.175 0.01 0.00421875)
(2.225 0.01 0.00421875)
(2.275 0.01 0.00421875)
(2.325 0.01 0.00421875)
(2.375 0.01 0.00421875)
(2.425 0.01 0.00421875)
(2.475 0.01 0.00421875)
(2.525 0.01 0.00421875)
(2.575 0.01 0.00421875)
(2.625 0.01 0.00421875)
(2.675 0.01 0.00421875)
(2.725 0.01 0.00421875)
(2.775 0.01 0.00421875)
(2.825 0.01 0.00421875)
(2.875 0.01 0.00421875)
(2.925 0.01 0.00421875)
(2.975 0.01 0.00421875)
(3.025 0.01 0.00421875)
(3.075 0.01 0.00421875)
(3.125 0.01 0.00421875)
(3.175 0.01 0.00421875)
(3.225 0.01 0.00421875)
(3.275 0.01 0.00421875)
(3.325 0.01 0.00421875)
(3.375 0.01 0.00421875)
(3.425 0.01 0.00421875)
(3.475 0.01 0.00421875)
(3.525 0.01 0.00421875)
(3.575 0.01 0.00421875)
(3.625 0.01 0.00421875)
(3.675 0.01 0.00421875)
(3.725 0.01 0.00421875)
(3.775 0.01 0.00421875)
(3.825 0.01 0.00421875)
(3.875 0.01 0.00421875)
(3.925 0.01 0.00421875)
(3.975 0.01 0.00421875)
(4.025 0.01 0.00421875)
(4.075 0.01 0.00421875)
(4.125 0.01 0.00421875)
(4.175 0.01 0.00421875)
(4.225 0.01 0.00421875)
(4.275 0.01 0.00421875)
(4.325 0.01 0.00421875)
(4.375 0.01 0.00421875)
(4.425 0.01 0.00421875)
(4.475 0.01 0.00421875)
(4.525 0.01 0.00421875)
(4.575 0.01 0.00421875)
(4.625 0.01 0.00421875)
(4.675 0.01 0.00421874)
(4.725 0.01 0.00421874)
(4.775 0.01 0.00421873)
(4.825 0.01 0.00421865)
(4.875 0.01 0.00421935)
(4.92497 0.01 0.00420902)
(4.97504 0.01 0.00234002)
(5.02503 0.01 -0.00197805)
(5.07498 0.01 -0.00614028)
(5.12499 0.01 -0.00924528)
(5.175 0.01 -0.011979)
(5.22499 0.01 -0.0143748)
(5.275 0.01 -0.0164621)
(5.325 0.01 -0.0183567)
(5.375 0.01 -0.0199835)
(5.425 0.01 -0.021468)
(5.475 0.01 -0.0228758)
(5.525 0.01 -0.0240826)
(5.575 0.01 -0.0251238)
(5.62499 0.01 -0.0259536)
(5.67501 0.01 -0.026857)
(5.725 0.01 -0.0277671)
(5.77498 0.01 -0.0282357)
(5.82503 0.01 -0.0290715)
(5.87496 0.01 -0.0296212)
(5.92503 0.01 -0.0301152)
(5.97498 0.01 -0.030979)
(6.02502 0.01 -0.0316284)
(6.07497 0.01 -0.0318932)
(6.12503 0.01 -0.0323345)
(6.17498 0.01 -0.0327937)
(6.22499 0.01 -0.0325559)
(6.27503 0.01 -0.0330681)
(6.32497 0.01 -0.0334977)
(6.37502 0.01 -0.0334659)
(6.42498 0.01 -0.0333886)
(6.47503 0.01 -0.0335164)
(6.52497 0.01 -0.0335926)
(6.57502 0.01 -0.0337225)
(6.62501 0.01 -0.0344095)
(6.67498 0.01 -0.0342919)
(6.72499 0.01 -0.0337104)
(6.77503 0.01 -0.0339375)
(6.82497 0.01 -0.0339604)
(6.875 0.01 -0.033639)
(6.92502 0.01 -0.0341157)
(6.97499 0.01 -0.0344415)
(7.02501 0.01 -0.0343357)
(7.07498 0.01 -0.0340865)
(7.12503 0.01 -0.0343328)
(7.17498 0.01 -0.0346309)
(7.22501 0.01 -0.0344457)
(7.27498 0.01 -0.0341002)
(7.32502 0.01 -0.0340438)
(7.375 0.01 -0.0341917)
(7.42498 0.01 -0.0337117)
(7.47502 0.01 -0.0335288)
(7.52498 0.01 -0.0335887)
(7.57505 0.01 -0.0337709)
(7.62493 0.01 -0.0327918)
(7.67505 0.01 -0.0317404)
(7.72498 0.01 -0.0313832)
(7.77498 0.01 -0.0302066)
(7.82504 0.01 -0.0298735)
(7.87497 0.01 -0.0295976)
(7.92504 0.01 -0.0290203)
(7.97495 0.01 -0.0280192)
(8.02504 0.01 -0.0271104)
(8.07496 0.01 -0.0265147)
(8.12503 0.01 -0.026081)
(8.17498 0.01 -0.026005)
(8.22501 0.01 -0.0259457)
(8.27501 0.01 -0.0263451)
(8.32498 0.01 -0.0262661)
(8.37503 0.01 -0.0263308)
(8.42497 0.01 -0.0263485)
(8.47505 0.01 -0.026488)
(8.52494 0.01 -0.0262398)
(8.57506 0.01 -0.0261673)
(8.62494 0.01 -0.0260432)
(8.67504 0.01 -0.0257057)
(8.72499 0.01 -0.0259771)
(8.77498 0.01 -0.0256017)
(8.82503 0.01 -0.0259464)
(8.87497 0.01 -0.0265762)
(8.92504 0.01 -0.0272397)
(8.97495 0.01 -0.0273888)
(9.02505 0.01 -0.0274357)
(9.07496 0.01 -0.027637)
(9.12504 0.01 -0.0278579)
(9.17498 0.01 -0.0282928)
(9.22499 0.01 -0.0280885)
(9.27502 0.01 -0.0284339)
(9.32498 0.01 -0.0288082)
(9.37503 0.01 -0.0289731)
(9.42497 0.01 -0.0286368)
(9.47503 0.01 -0.0280631)
(9.52497 0.01 -0.0275385)
(9.57503 0.01 -0.0272499)
(9.62497 0.01 -0.0271246)
(9.67501 0.01 -0.027066)
(9.72502 0.01 -0.0277706)
(9.77497 0.01 -0.027824)
(9.82502 0.01 -0.027558)
(9.87496 0.01 -0.0272614)
(9.92505 0.01 -0.0275216)
(9.97496 0.01 -0.0276342)
(10.025 0.01 -0.0269346)
(10.075 0.01 -0.0268978)
(10.125 0.01 -0.0272683)
(10.175 0.01 -0.0274184)
(10.225 0.01 -0.0266576)
(10.275 0.01 -0.0262717)
(10.325 0.01 -0.026489)
(10.375 0.01 -0.0269988)
(10.425 0.01 -0.0274795)
(10.475 0.01 -0.0279114)
(10.525 0.01 -0.0280041)
(10.575 0.01 -0.0271126)
(10.625 0.01 -0.0266773)
(10.675 0.01 -0.026482)
(10.725 0.01 -0.0268256)
(10.775 0.01 -0.0271071)
(10.825 0.01 -0.0271593)
(10.875 0.01 -0.027109)
(10.925 0.01 -0.0273709)
(10.975 0.01 -0.0278004)
(11.025 0.01 -0.0277439)
(11.075 0.01 -0.0279439)
(11.125 0.01 -0.0276053)
(11.175 0.01 -0.0272309)
(11.225 0.01 -0.0264334)
(11.275 0.01 -0.0257113)
(11.325 0.01 -0.0254411)
(11.375 0.01 -0.0256837)
(11.425 0.01 -0.0260315)
(11.475 0.01 -0.0261973)
(11.525 0.01 -0.026168)
(11.575 0.01 -0.0257826)
(11.625 0.01 -0.026424)
(11.675 0.01 -0.0265107)
(11.725 0.01 -0.0259479)
(11.775 0.01 -0.0256348)
(11.825 0.01 -0.0259598)
(11.875 0.01 -0.0264604)
(11.925 0.01 -0.0271758)
(11.975 0.01 -0.0278663)
(12.025 0.01 -0.0280574)
(12.075 0.01 -0.0284327)
(12.125 0.01 -0.0285632)
(12.175 0.01 -0.0282979)
(12.225 0.01 -0.0272556)
(12.275 0.01 -0.0266155)
(12.325 0.01 -0.0263157)
(12.375 0.01 -0.0263657)
(12.425 0.01 -0.0265866)
(12.475 0.01 -0.0269371)
(12.5249 0.01 -0.0269164)
(12.575 0.01 -0.0267319)
(12.625 0.01 -0.0272462)
(12.675 0.01 -0.0274086)
(12.725 0.01 -0.0277382)
(12.775 0.01 -0.0275415)
(12.825 0.01 -0.0270132)
(12.875 0.01 -0.0260587)
(12.9251 0.01 -0.0252755)
(12.9749 0.01 -0.0243737)
(13.0251 0.01 -0.0239054)
(13.075 0.01 -0.0243304)
(13.125 0.01 -0.0247034)
(13.175 0.01 -0.0250047)
(13.225 0.01 -0.025247)
(13.275 0.01 -0.0253839)
(13.325 0.01 -0.0246369)
(13.375 0.01 -0.0244261)
(13.425 0.01 -0.0244524)
(13.475 0.01 -0.0248065)
(13.525 0.01 -0.0250801)
(13.575 0.01 -0.0250774)
(13.6249 0.01 -0.0244161)
(13.6751 0.01 -0.0238537)
(13.7249 0.01 -0.0235016)
(13.775 0.01 -0.0233257)
(13.825 0.01 -0.0238643)
(13.875 0.01 -0.0244448)
(13.925 0.01 -0.0250493)
(13.975 0.01 -0.0255646)
(14.0249 0.01 -0.0253474)
(14.075 0.01 -0.0247581)
(14.125 0.01 -0.0245958)
(14.175 0.01 -0.0233846)
(14.225 0.01 -0.0223033)
(14.275 0.01 -0.0212313)
(14.325 0.01 -0.0206478)
(14.375 0.01 -0.0204291)
(14.425 0.01 -0.0195167)
(14.475 0.01 -0.0182783)
(14.525 0.01 -0.01679)
(14.575 0.01 -0.0149387)
(14.625 0.01 -0.0127497)
(14.675 0.01 -0.0100324)
(14.7251 0.01 -0.00677185)
(14.7749 0.01 -0.00213615)
(14.825 0.01 0.00261036)
(14.875 0.01 0.00421028)
(14.925 0.01 0.00421927)
(14.975 0.01 0.00421868)
(0.025 0.01 0.00703125)
(0.075 0.01 0.00703125)
(0.125 0.01 0.00703125)
(0.175 0.01 0.00703125)
(0.225 0.01 0.00703125)
(0.275 0.01 0.00703125)
(0.325 0.01 0.00703125)
(0.375 0.01 0.00703125)
(0.425 0.01 0.00703125)
(0.475 0.01 0.00703125)
(0.525 0.01 0.00703125)
(0.575 0.01 0.00703125)
(0.625 0.01 0.00703125)
(0.675 0.01 0.00703125)
(0.725 0.01 0.00703125)
(0.775 0.01 0.00703125)
(0.825 0.01 0.00703125)
(0.875 0.01 0.00703125)
(0.925 0.01 0.00703125)
(0.975 0.01 0.00703125)
(1.025 0.01 0.00703125)
(1.075 0.01 0.00703125)
(1.125 0.01 0.00703125)
(1.175 0.01 0.00703125)
(1.225 0.01 0.00703125)
(1.275 0.01 0.00703125)
(1.325 0.01 0.00703125)
(1.375 0.01 0.00703125)
(1.425 0.01 0.00703125)
(1.475 0.01 0.00703125)
(1.525 0.01 0.00703125)
(1.575 0.01 0.00703125)
(1.625 0.01 0.00703125)
(1.675 0.01 0.00703125)
(1.725 0.01 0.00703125)
(1.775 0.01 0.00703125)
(1.825 0.01 0.00703125)
(1.875 0.01 0.00703125)
(1.925 0.01 0.00703125)
(1.975 0.01 0.00703125)
(2.025 0.01 0.00703125)
(2.075 0.01 0.00703125)
(2.125 0.01 0.00703125)
(2.175 0.01 0.00703125)
(2.225 0.01 0.00703125)
(2.275 0.01 0.00703125)
(2.325 0.01 0.00703125)
(2.375 0.01 0.00703125)
(2.425 0.01 0.00703125)
(2.475 0.01 0.00703125)
(2.525 0.01 0.00703125)
(2.575 0.01 0.00703125)
(2.625 0.01 0.00703125)
(2.675 0.01 0.00703125)
(2.725 0.01 0.00703125)
(2.775 0.01 0.00703125)
(2.825 0.01 0.00703125)
(2.875 0.01 0.00703125)
(2.925 0.01 0.00703125)
(2.975 0.01 0.00703125)
(3.025 0.01 0.00703125)
(3.075 0.01 0.00703125)
(3.125 0.01 0.00703125)
(3.175 0.01 0.00703125)
(3.225 0.01 0.00703125)
(3.275 0.01 0.00703125)
(3.325 0.01 0.00703125)
(3.375 0.01 0.00703125)
(3.425 0.01 0.00703125)
(3.475 0.01 0.00703125)
(3.525 0.01 0.00703125)
(3.575 0.01 0.00703125)
(3.625 0.01 0.00703125)
(3.675 0.01 0.00703125)
(3.725 0.01 0.00703125)
(3.775 0.01 0.00703125)
(3.825 0.01 0.00703125)
(3.875 0.01 0.00703125)
(3.925 0.01 0.00703125)
(3.975 0.01 0.00703125)
(4.025 0.01 0.00703125)
(4.075 0.01 0.00703125)
(4.125 0.01 0.00703125)
(4.175 0.01 0.00703125)
(4.225 0.01 0.00703125)
(4.275 0.01 0.00703125)
(4.325 0.01 0.00703125)
(4.375 0.01 0.00703125)
(4.425 0.01 0.00703125)
(4.475 0.01 0.00703124)
(4.525 0.01 0.00703124)
(4.575 0.01 0.00703124)
(4.625 0.01 0.00703123)
(4.675 0.01 0.00703122)
(4.725 0.01 0.0070312)
(4.775 0.01 0.00703118)
(4.825 0.01 0.00703095)
(4.875 0.01 0.00703235)
(4.92495 0.01 0.00700877)
(4.97505 0.01 0.00513955)
(5.02504 0.01 0.0008463)
(5.07498 0.01 -0.00331119)
(5.12499 0.01 -0.00642553)
(5.17501 0.01 -0.00916017)
(5.22499 0.01 -0.0115568)
(5.275 0.01 -0.0136459)
(5.325 0.01 -0.0155401)
(5.375 0.01 -0.0171684)
(5.425 0.01 -0.0186539)
(5.475 0.01 -0.0200614)
(5.52499 0.01 -0.0212693)
(5.57501 0.01 -0.0223105)
(5.62498 0.01 -0.023143)
(5.67502 0.01 -0.0240463)
(5.725 0.01 -0.0249526)
(5.77498 0.01 -0.0254286)
(5.82505 0.01 -0.0262583)
(5.87495 0.01 -0.0268099)
(5.92504 0.01 -0.027308)
(5.97498 0.01 -0.0281669)
(6.02503 0.01 -0.0288155)
(6.07496 0.01 -0.0290848)
(6.12505 0.01 -0.0295248)
(6.17498 0.01 -0.029977)
(6.22498 0.01 -0.0297523)
(6.27505 0.01 -0.030257)
(6.32496 0.01 -0.030684)
(6.37503 0.01 -0.0306558)
(6.42497 0.01 -0.0305803)
(6.47504 0.01 -0.0307057)
(6.52496 0.01 -0.0307827)
(6.57502 0.01 -0.0309177)
(6.62501 0.01 -0.031593)
(6.67498 0.01 -0.0314783)
(6.72499 0.01 -0.0309074)
(6.77504 0.01 -0.0311255)
(6.82496 0.01 -0.0311472)
(6.875 0.01 -0.0308361)
(6.92502 0.01 -0.0313046)
(6.97498 0.01 -0.0316286)
(7.02501 0.01 -0.0315248)
(7.07497 0.01 -0.0312806)
(7.12504 0.01 -0.0315232)
(7.17497 0.01 -0.031817)
(7.22502 0.01 -0.0316344)
(7.27497 0.01 -0.0312922)
(7.32503 0.01 -0.0312352)
(7.37499 0.01 -0.0313758)
(7.42498 0.01 -0.0309043)
(7.47503 0.01 -0.0307202)
(7.52497 0.01 -0.0307797)
(7.57507 0.01 -0.0309495)
(7.6249 0.01 -0.0299799)
(7.67507 0.01 -0.0289353)
(7.72497 0.01 -0.0285649)
(7.77497 0.01 -0.0274037)
(7.82505 0.01 -0.027063)
(7.87496 0.01 -0.0267845)
(7.92505 0.01 -0.0262051)
(7.97494 0.01 -0.0252088)
(8.02506 0.01 -0.0243017)
(8.07495 0.01 -0.0237055)
(8.12505 0.01 -0.0232737)
(8.17497 0.01 -0.0231944)
(8.22502 0.01 -0.0231393)
(8.27501 0.01 -0.02353)
(8.32497 0.01 -0.0234571)
(8.37504 0.01 -0.0235198)
(8.42496 0.01 -0.0235396)
(8.47506 0.01 -0.0236741)
(8.52492 0.01 -0.0234307)
(8.57509 0.01 -0.0233556)
(8.62492 0.01 -0.0232299)
(8.67505 0.01 -0.0229004)
(8.72499 0.01 -0.0231603)
(8.77497 0.01 -0.0227974)
(8.82505 0.01 -0.0231376)
(8.87496 0.01 -0.0237657)
(8.92506 0.01 -0.0244247)
(8.97493 0.01 -0.0245772)
(9.02506 0.01 -0.0246263)
(9.07494 0.01 -0.0248262)
(9.12505 0.01 -0.0250496)
(9.17498 0.01 -0.0254764)
(9.22499 0.01 -0.0252829)
(9.27503 0.01 -0.0256232)
(9.32497 0.01 -0.0259961)
(9.37504 0.01 -0.0261583)
(9.42496 0.01 -0.0258243)
(9.47504 0.01 -0.0252526)
(9.52496 0.01 -0.0247297)
(9.57504 0.01 -0.0244406)
(9.62496 0.01 -0.0243143)
(9.67502 0.01 -0.0242623)
(9.72503 0.01 -0.0249544)
(9.77496 0.01 -0.0250111)
(9.82503 0.01 -0.0247468)
(9.87495 0.01 -0.0244552)
(9.92507 0.01 -0.0247098)
(9.97495 0.01 -0.0248166)
(10.025 0.01 -0.0241301)
(10.075 0.01 -0.0240904)
(10.125 0.01 -0.024456)
(10.175 0.01 -0.0245993)
(10.225 0.01 -0.0238498)
(10.275 0.01 -0.0234656)
(10.325 0.01 -0.0236807)
(10.375 0.01 -0.024188)
(10.425 0.01 -0.0246683)
(10.4751 0.01 -0.0250981)
(10.525 0.01 -0.0251844)
(10.575 0.01 -0.024306)
(10.625 0.01 -0.0238681)
(10.675 0.01 -0.0236759)
(10.7251 0.01 -0.0240143)
(10.775 0.01 -0.0242945)
(10.825 0.01 -0.0243475)
(10.8749 0.01 -0.0243004)
(10.9251 0.01 -0.0245615)
(10.975 0.01 -0.0249852)
(11.025 0.01 -0.0249361)
(11.075 0.01 -0.0251285)
(11.125 0.01 -0.024795)
(11.175 0.01 -0.0244162)
(11.2249 0.01 -0.023623)
(11.275 0.01 -0.0229036)
(11.325 0.01 -0.0226342)
(11.3751 0.01 -0.0228736)
(11.4249 0.01 -0.0232191)
(11.4751 0.01 -0.0233854)
(11.525 0.01 -0.0233538)
(11.575 0.01 -0.0229809)
(11.625 0.01 -0.0236082)
(11.675 0.01 -0.0236947)
(11.725 0.01 -0.0231393)
(11.775 0.01 -0.0228291)
(11.825 0.01 -0.0231501)
(11.875 0.01 -0.0236509)
(11.9251 0.01 -0.0243647)
(11.975 0.01 -0.0250509)
(12.025 0.01 -0.0252486)
(12.075 0.01 -0.0256198)
(12.125 0.01 -0.0257496)
(12.175 0.01 -0.02548)
(12.225 0.01 -0.0244482)
(12.275 0.01 -0.023807)
(12.325 0.01 -0.0235078)
(12.3751 0.01 -0.0235561)
(12.4249 0.01 -0.0237769)
(12.4751 0.01 -0.0241231)
(12.5249 0.01 -0.0241039)
(12.575 0.01 -0.0239273)
(12.625 0.01 -0.0244321)
(12.675 0.01 -0.0245999)
(12.725 0.01 -0.0249229)
(12.775 0.01 -0.0247286)
(12.825 0.01 -0.0241984)
(12.8749 0.01 -0.0232496)
(12.9251 0.01 -0.0224626)
(12.9749 0.01 -0.0215658)
(13.0251 0.01 -0.0211015)
(13.075 0.01 -0.0215187)
(13.125 0.01 -0.0218922)
(13.175 0.01 -0.0221934)
(13.225 0.01 -0.0224359)
(13.275 0.01 -0.0225652)
(13.325 0.01 -0.0218308)
(13.375 0.01 -0.0216167)
(13.425 0.01 -0.0216444)
(13.4751 0.01 -0.0219952)
(13.525 0.01 -0.0222675)
(13.5751 0.01 -0.0222607)
(13.6249 0.01 -0.0216058)
(13.6751 0.01 -0.0210434)
(13.7249 0.01 -0.0206911)
(13.7751 0.01 -0.0205203)
(13.825 0.01 -0.0210528)
(13.875 0.01 -0.0216337)
(13.925 0.01 -0.0222372)
(13.9751 0.01 -0.0227468)
(14.0249 0.01 -0.0225324)
(14.075 0.01 -0.0219504)
(14.125 0.01 -0.0217741)
(14.175 0.01 -0.0205736)
(14.225 0.01 -0.0194894)
(14.2749 0.01 -0.0184221)
(14.3251 0.01 -0.0178376)
(14.375 0.01 -0.0176103)
(14.425 0.01 -0.0167009)
(14.475 0.01 -0.015463)
(14.525 0.01 -0.0139726)
(14.575 0.01 -0.0121216)
(14.625 0.01 -0.00992885)
(14.675 0.01 -0.00721199)
(14.7251 0.01 -0.0039372)
(14.7749 0.01 0.000689629)
(14.825 0.01 0.00540582)
(14.875 0.01 0.00701192)
(14.925 0.01 0.00703218)
(14.975 0.01 0.00703105)
(0.025 0.01 0.00984375)
(0.075 0.01 0.00984375)
(0.125 0.01 0.00984375)
(0.175 0.01 0.00984375)
(0.225 0.01 0.00984375)
(0.275 0.01 0.00984375)
(0.325 0.01 0.00984375)
(0.375 0.01 0.00984375)
(0.425 0.01 0.00984375)
(0.475 0.01 0.00984375)
(0.525 0.01 0.00984375)
(0.575 0.01 0.00984375)
(0.625 0.01 0.00984375)
(0.675 0.01 0.00984375)
(0.725 0.01 0.00984375)
(0.775 0.01 0.00984375)
(0.825 0.01 0.00984375)
(0.875 0.01 0.00984375)
(0.925 0.01 0.00984375)
(0.975 0.01 0.00984375)
(1.025 0.01 0.00984375)
(1.075 0.01 0.00984375)
(1.125 0.01 0.00984375)
(1.175 0.01 0.00984375)
(1.225 0.01 0.00984375)
(1.275 0.01 0.00984375)
(1.325 0.01 0.00984375)
(1.375 0.01 0.00984375)
(1.425 0.01 0.00984375)
(1.475 0.01 0.00984375)
(1.525 0.01 0.00984375)
(1.575 0.01 0.00984375)
(1.625 0.01 0.00984375)
(1.675 0.01 0.00984375)
(1.725 0.01 0.00984375)
(1.775 0.01 0.00984375)
(1.825 0.01 0.00984375)
(1.875 0.01 0.00984375)
(1.925 0.01 0.00984375)
(1.975 0.01 0.00984375)
(2.025 0.01 0.00984375)
(2.075 0.01 0.00984375)
(2.125 0.01 0.00984375)
(2.175 0.01 0.00984375)
(2.225 0.01 0.00984375)
(2.275 0.01 0.00984375)
(2.325 0.01 0.00984375)
(2.375 0.01 0.00984375)
(2.425 0.01 0.00984375)
(2.475 0.01 0.00984375)
(2.525 0.01 0.00984375)
(2.575 0.01 0.00984375)
(2.625 0.01 0.00984375)
(2.675 0.01 0.00984375)
(2.725 0.01 0.00984375)
(2.775 0.01 0.00984375)
(2.825 0.01 0.00984375)
(2.875 0.01 0.00984375)
(2.925 0.01 0.00984375)
(2.975 0.01 0.00984375)
(3.025 0.01 0.00984375)
(3.075 0.01 0.00984375)
(3.125 0.01 0.00984375)
(3.175 0.01 0.00984375)
(3.225 0.01 0.00984375)
(3.275 0.01 0.00984375)
(3.325 0.01 0.00984375)
(3.375 0.01 0.00984375)
(3.425 0.01 0.00984375)
(3.475 0.01 0.00984375)
(3.525 0.01 0.00984375)
(3.575 0.01 0.00984375)
(3.625 0.01 0.00984375)
(3.675 0.01 0.00984375)
(3.725 0.01 0.00984375)
(3.775 0.01 0.00984375)
(3.825 0.01 0.00984375)
(3.875 0.01 0.00984375)
(3.925 0.01 0.00984375)
(3.975 0.01 0.00984375)
(4.025 0.01 0.00984375)
(4.075 0.01 0.00984375)
(4.125 0.01 0.00984375)
(4.175 0.01 0.00984375)
(4.225 0.01 0.00984375)
(4.275 0.01 0.00984375)
(4.325 0.01 0.00984374)
(4.375 0.01 0.00984374)
(4.425 0.01 0.00984374)
(4.475 0.01 0.00984373)
(4.525 0.01 0.00984373)
(4.575 0.01 0.00984372)
(4.625 0.01 0.0098437)
(4.675 0.01 0.00984368)
(4.725 0.01 0.00984363)
(4.775 0.01 0.00984355)
(4.825 0.01 0.00984309)
(4.875 0.01 0.00984509)
(4.92494 0.01 0.0098038)
(4.97506 0.01 0.0079331)
(5.02505 0.01 0.00367107)
(5.07498 0.01 -0.000479559)
(5.12499 0.01 -0.00360464)
(5.17501 0.01 -0.00634015)
(5.22499 0.01 -0.00873787)
(5.275 0.01 -0.0108289)
(5.325 0.01 -0.0127226)
(5.375 0.01 -0.0143527)
(5.425 0.01 -0.0158395)
(5.475 0.01 -0.0172463)
(5.52499 0.01 -0.0184555)
(5.57501 0.01 -0.0194969)
(5.62498 0.01 -0.0203323)
(5.67502 0.01 -0.021235)
(5.725 0.01 -0.0221363)
(5.77497 0.01 -0.0226217)
(5.82505 0.01 -0.0234434)
(5.87494 0.01 -0.0239973)
(5.92504 0.01 -0.0245009)
(5.97497 0.01 -0.0253538)
(6.02503 0.01 -0.0260011)
(6.07495 0.01 -0.0262762)
(6.12506 0.01 -0.0267142)
(6.17497 0.01 -0.0271576)
(6.22497 0.01 -0.0269495)
(6.27506 0.01 -0.0274448)
(6.32496 0.01 -0.0278684)
(6.37503 0.01 -0.027845)
(6.42496 0.01 -0.0277717)
(6.47505 0.01 -0.0278939)
(6.52495 0.01 -0.0279718)
(6.57503 0.01 -0.0281137)
(6.62502 0.01 -0.0287742)
(6.67497 0.01 -0.0286629)
(6.72499 0.01 -0.0281054)
(6.77505 0.01 -0.0283117)
(6.82495 0.01 -0.0283321)
(6.875 0.01 -0.0280345)
(6.92503 0.01 -0.0284927)
(6.97498 0.01 -0.0288141)
(7.02501 0.01 -0.0287126)
(7.07497 0.01 -0.0284749)
(7.12505 0.01 -0.0287127)
(7.17497 0.01 -0.0290011)
(7.22502 0.01 -0.0288218)
(7.27497 0.01 -0.0284837)
(7.32504 0.01 -0.0284262)
(7.37499 0.01 -0.0285578)
(7.42497 0.01 -0.028097)
(7.47503 0.01 -0.0279114)
(7.52497 0.01 -0.02797)
(7.57508 0.01 -0.028124)
(7.62488 0.01 -0.0271664)
(7.67508 0.01 -0.0261312)
(7.72497 0.01 -0.0257444)
(7.77497 0.01 -0.0246024)
(7.82506 0.01 -0.0242519)
(7.87495 0.01 -0.0239694)
(7.92506 0.01 -0.0233875)
(7.97492 0.01 -0.0223973)
(8.02506 0.01 -0.0214933)
(8.07494 0.01 -0.0208965)
(8.12505 0.01 -0.020467)
(8.17496 0.01 -0.0203832)
(8.22502 0.01 -0.0203331)
(8.27501 0.01 -0.0207127)
(8.32496 0.01 -0.0206474)
(8.37504 0.01 -0.0207079)
(8.42495 0.01 -0.0207306)
(8.47507 0.01 -0.0208588)
(8.52491 0.01 -0.0206212)
(8.5751 0.01 -0.0205428)
(8.62491 0.01 -0.020415)
(8.67506 0.01 -0.0200957)
(8.72498 0.01 -0.0203414)
(8.77496 0.01 -0.0199945)
(8.82505 0.01 -0.0203289)
(8.87495 0.01 -0.0209545)
(8.92507 0.01 -0.0216075)
(8.97492 0.01 -0.0217645)
(9.02507 0.01 -0.0218164)
(9.07493 0.01 -0.0220147)
(9.12506 0.01 -0.0222412)
(9.17497 0.01 -0.0226578)
(9.22498 0.01 -0.0224779)
(9.27504 0.01 -0.0228118)
(9.32497 0.01 -0.0231827)
(9.37504 0.01 -0.0233416)
(9.42495 0.01 -0.0230103)
(9.47504 0.01 -0.0224414)
(9.52495 0.01 -0.0219208)
(9.57505 0.01 -0.0216311)
(9.62495 0.01 -0.0215036)
(9.67502 0.01 -0.0214601)
(9.72503 0.01 -0.022136)
(9.77495 0.01 -0.0221967)
(9.82504 0.01 -0.0219344)
(9.87494 0.01 -0.0216494)
(9.92508 0.01 -0.0218968)
(9.97494 0.01 -0.0219966)
(10.025 0.01 -0.021327)
(10.075 0.01 -0.0212834)
(10.125 0.01 -0.0216421)
(10.175 0.01 -0.021777)
(10.2249 0.01 -0.0210419)
(10.275 0.01 -0.0206604)
(10.325 0.01 -0.020873)
(10.3751 0.01 -0.0213769)
(10.425 0.01 -0.0218562)
(10.4751 0.01 -0.0222828)
(10.525 0.01 -0.0223614)
(10.575 0.01 -0.0214998)
(10.625 0.01 -0.0210591)
(10.675 0.01 -0.0208708)
(10.7251 0.01 -0.0212024)
(10.7749 0.01 -0.0214807)
(10.8251 0.01 -0.0215346)
(10.8749 0.01 -0.0214917)
(10.9251 0.01 -0.0217517)
(10.975 0.01 -0.0221682)
(11.025 0.01 -0.0221285)
(11.075 0.01 -0.0223114)
(11.125 0.01 -0.021984)
(11.175 0.01 -0.0215998)
(11.2249 0.01 -0.020812)
(11.2751 0.01 -0.0200963)
(11.3249 0.01 -0.0198279)
(11.3751 0.01 -0.020063)
(11.4249 0.01 -0.0204058)
(11.4751 0.01 -0.0205726)
(11.5249 0.01 -0.0205383)
(11.575 0.01 -0.020181)
(11.6251 0.01 -0.0207903)
(11.6749 0.01 -0.0208764)
(11.725 0.01 -0.0203306)
(11.775 0.01 -0.0200244)
(11.8251 0.01 -0.0203402)
(11.8749 0.01 -0.0208415)
(11.9251 0.01 -0.021553)
(11.975 0.01 -0.0222338)
(12.025 0.01 -0.0224397)
(12.075 0.01 -0.0228057)
(12.125 0.01 -0.0229343)
(12.175 0.01 -0.0226596)
(12.225 0.01 -0.0216411)
(12.2751 0.01 -0.0209988)
(12.3249 0.01 -0.0207002)
(12.3751 0.01 -0.0207463)
(12.4249 0.01 -0.0209668)
(12.4751 0.01 -0.0213074)
(12.5249 0.01 -0.0212904)
(12.5751 0.01 -0.0211239)
(12.625 0.01 -0.0216167)
(12.675 0.01 -0.021791)
(12.725 0.01 -0.0221057)
(12.775 0.01 -0.0219141)
(12.825 0.01 -0.021382)
(12.8749 0.01 -0.0204402)
(12.9251 0.01 -0.019649)
(12.9749 0.01 -0.0187582)
(13.0251 0.01 -0.0182991)
(13.0749 0.01 -0.0187063)
(13.1251 0.01 -0.0190805)
(13.1749 0.01 -0.0193815)
(13.2251 0.01 -0.019624)
(13.275 0.01 -0.0197437)
(13.325 0.01 -0.0190255)