/*--------------------------------*- C++ -*----------------------------------*\
| =========                 |                                                 |
| \\      /  F ield         | foam-extend: Open Source CFD                    |
|  \\    /   O peration     | Version:     3.2                                |
|   \\  /    A nd           | Web:         http://www.foam-extend.org         |
|    \\/     M anipulation  | For copyright notice see file Copyright         |
\*---------------------------------------------------------------------------*/
FoamFile
{
    version     2.0;
    format      ascii;
    class       surfaceScalarField;
    location    "160";
    object      meshPhi;
}
// * * * * * * * * * * * * * * * * * * * * * * * * * * * * * * * * * * * * * //

dimensions      [0 3 -1 0 0 0 0];

internalField   nonuniform List<scalar> 
191380
(
0
0
0
0
0
0
0
0
0
0
0
0
0
0
0
0
0
0
0
0
0
0
0
0
0
0
0
0
0
0
0
0
0
0
0
0
0
0
0
0
0
0
0
0
0
0
0
0
0
0
0
0
0
0
0
0
0
0
0
0
0
0
0
0
0
0
0
0
0
0
0
0
0
0
0
0
0
0
0
0
0
0
0
0
0
0
0
0
0
0
0
0
0
0
0
0
0
0
0
0
0
0
0
0
0
0
0
0
0
0
0
0
0
0
0
0
0
0
0
0
0
0
0
0
-1.66533e-18
-2.89121e-20
-1.66533e-18
-4.33681e-20
8.32667e-19
-2.89121e-20
1.28395e-34
-7.22801e-20
-8.32667e-19
-2.89121e-20
-8.32667e-19
-5.78241e-20
0
-8.67362e-20
2.56791e-34
-8.67362e-20
-8.32667e-19
-1.30104e-19
8.32667e-19
-1.4456e-19
8.32667e-19
-1.59016e-19
-7.70372e-34
-2.1684e-19
0
-2.74665e-19
-8.32667e-19
-3.46945e-19
8.32667e-19
-4.62593e-19
-8.32667e-19
-5.49329e-19
8.32667e-19
-7.80626e-19
0
-9.54098e-19
0
-1.24322e-18
0
-1.66244e-18
0
-2.18286e-18
1.66533e-18
-2.93457e-18
0
-4.11997e-18
0
-6.04262e-18
0
-9.30968e-18
0
-1.50632e-17
-2.04405e-31
-2.66425e-17
0
-3.41451e-17
1.66533e-18
-1.67748e-16
0
4.30096e-16
1.66533e-18
-3.76989e-15
0
1.75241e-14
0
-7.93232e-14
0
2.24398e-13
-1.66529e-18
3.59041e-14
0
-6.23844e-12
-1.65943e-18
6.46583e-11
0
4.43686e-08
0
1.75834e-07
-1.66938e-18
3.13183e-07
0
3.95866e-07
-1.66844e-18
4.61979e-07
0
5.14028e-07
5.38004e-25
5.59959e-07
-1.66667e-18
5.99259e-07
1.66607e-18
6.23396e-07
0
3.26688e-07
0
2.35654e-07
0
1.35036e-06
2.16449e-23
2.01401e-06
0
7.32096e-07
1.6654e-18
-1.48907e-06
0
-2.7023e-06
0
-9.1035e-07
7.45982e-23
1.98125e-06
-1.65981e-18
2.53474e-06
1.66603e-18
9.47065e-07
0
-1.4226e-06
-1.66661e-18
-2.73852e-06
3.45817e-23
-9.73443e-07
-8.71668e-23
2.02064e-06
0
2.58802e-06
1.66028e-18
8.85618e-07
-1.66779e-18
-1.41933e-06
1.66136e-18
-2.86568e-06
-1.66556e-18
-1.42648e-06
6.64157e-18
1.79983e-06
0
2.1172e-06
-1.66024e-18
-1.01896e-06
1.66411e-18
-1.51964e-06
-1.66646e-18
1.24254e-06
0
2.12691e-06
0
6.68407e-07
-3.33512e-18
-1.77925e-06
-1.66121e-18
-3.18767e-06
-1.66191e-18
-8.7221e-07
-1.66565e-18
2.5211e-06
-1.66273e-18
2.77795e-06
3.3291e-18
3.66849e-07
1.6601e-18
-1.90539e-06
3.33359e-18
-2.32108e-06
4.99677e-24
-8.56234e-07
0
1.4428e-06
0
2.60854e-06
0
9.34197e-07
-3.3296e-18
-2.20083e-06
1.66129e-18
-3.09773e-06
0
-7.49717e-07
-1.66105e-18
2.32069e-06
0
2.74539e-06
0
2.14139e-07
4.80721e-23
-2.37471e-06
0
-3.03738e-06
0
-5.78754e-07
1.05342e-22
2.83619e-06
0
3.04044e-06
-1.63447e-23
1.01011e-07
0
-2.95859e-06
0
-3.32332e-06
-3.31922e-18
-1.52537e-06
0
3.11987e-07
-3.32248e-18
2.41303e-06
-6.65683e-18
3.23443e-06
0
1.0233e-06
-3.32211e-18
-1.84636e-06
7.09106e-23
-1.82729e-06
0
1.24026e-06
0
2.66414e-06
3.3154e-18
7.54492e-07
0
-1.7015e-06
-3.31719e-18
-1.81003e-06
0
1.00721e-06
0
2.41548e-06
0
8.12613e-07
-3.33461e-18
-1.1338e-06
3.32143e-18
-1.63896e-06
0
-1.01031e-06
-3.31769e-18
-1.65335e-07
3.33712e-18
1.62967e-06
0
1.99189e-06
0
-8.54692e-07
0
-2.74281e-06
0
-8.83844e-07
3.33293e-18
2.13018e-06
3.32403e-18
2.74315e-06
3.33602e-18
5.28793e-07
-3.32206e-18
-2.48606e-06
0
-2.61107e-06
0
8.69623e-07
6.66816e-18
1.94461e-06
3.32194e-18
-8.53514e-07
3.32679e-18
-1.12388e-06
-3.33534e-18
1.56831e-06
0
2.14665e-06
0
2.04929e-07
0
-1.51377e-06
3.34036e-18
-1.86757e-06
0
-1.7134e-06
0
-6.24031e-07
0
2.02752e-06
-6.10245e-23
2.08657e-06
0
-1.74233e-06
0
-3.34993e-06
0
-7.44981e-07
1.12096e-22
2.31275e-06
-3.33539e-18
3.08717e-06
0
1.29547e-06
0
-1.45195e-06
3.32838e-18
-2.93286e-06
-3.6644e-24
-1.57245e-06
-3.33097e-18
1.30712e-06
0
2.75029e-06
0
2.05675e-06
0
2.50253e-07
0
-1.89075e-06
-3.31826e-18
-1.55602e-06
3.33737e-18
1.58223e-06
-6.64756e-18
2.07388e-06
3.32905e-18
-9.5923e-07
3.33206e-18
-2.62155e-06
0
-1.08434e-06
3.33702e-18
1.16186e-06
0
1.66688e-06
3.33344e-18
3.22259e-07
0
-1.2894e-06
0
-1.60004e-06
3.32085e-18
-8.78364e-07
-3.33705e-18
-3.36986e-08
3.32321e-18
1.41077e-06
-3.32313e-18
2.69322e-06
0
1.99472e-06
0
-4.68665e-07
0
-2.79235e-06
0
-1.87372e-06
3.3354e-18
1.61749e-06
0
2.40118e-06
3.33755e-18
-2.95873e-07
0
-2.07882e-06
0
-8.06058e-07
0
1.61116e-06
0
2.1714e-06
-5.63911e-23
-6.10427e-08
0
-2.7484e-06
-6.66791e-18
-3.0063e-06
-3.31978e-18
-5.58049e-07
3.33562e-18
2.18604e-06
0
2.87907e-06
0
9.67056e-07
-3.31836e-18
-1.68783e-06
-4.221e-23
-2.26879e-06
3.32807e-18
-5.18459e-07
0
1.82189e-06
0
2.50933e-06
-3.32323e-18
4.00857e-07
-3.33766e-18
-2.34312e-06
0
-2.89681e-06
0
-1.2072e-06
-3.31433e-18
1.44313e-06
-3.336e-18
2.36841e-06
-3.32183e-18
6.24674e-08
3.33561e-18
-1.15382e-06
0
1.05556e-06
-3.33528e-18
2.30933e-06
3.32978e-18
3.60256e-07
0
-2.04334e-06
6.41867e-23
-1.7761e-06
-3.32032e-18
1.16556e-06
-3.33738e-18
2.80574e-06
-3.3212e-18
1.0262e-06
0
-1.75024e-06
-6.63161e-18
-1.91635e-06
1.82964e-22
7.02765e-07
-3.31658e-18
2.0951e-06
1.60751e-23
1.03274e-06
-9.36668e-23
-6.81507e-07
3.33605e-18
-1.08095e-06
1.45101e-22
8.48714e-07
3.34276e-18
2.10386e-06
0
7.41144e-07
-3.33407e-18
-6.37982e-07
6.67314e-18
-2.42986e-07
4.65411e-23
6.93668e-07
0
6.53221e-07
0
3.69135e-07
3.33978e-18
5.09039e-07
-3.32877e-18
6.11673e-07
6.67313e-18
6.19544e-07
0
5.96837e-07
-3.47031e-25
5.69688e-07
3.33034e-18
5.33655e-07
0
4.85254e-07
3.33272e-18
4.23161e-07
6.72769e-18
3.34536e-07
-7.85945e-24
1.99151e-07
-3.32018e-18
5.82235e-08
-3.33142e-18
1.06479e-10
-2.74966e-26
-9.51469e-12
1.16094e-12
0
0
0
0
0
0
0
0
0
0
0
0
0
0
0
0
0
0
0
0
0
0
0
0
0
0
0
0
0
0
0
0
0
0
0
0
0
0
0
0
0
0
0
0
0
0
0
0
0
0
0
0
0
0
0
0
0
0
0
0
0
0
0
0
0
0
0
0
0
0
0
0
0
0
0
0
0
0
0
0
0
0
0
0
0
0
0
0
0
0
0
0
0
0
0
0
0
0
0
0
0
0
0
0
0
0
0
0
0
-5.78241e-20
2.56791e-34
-5.78241e-20
8.32667e-19
-8.67362e-20
1.66533e-18
-5.78241e-20
8.32667e-19
-8.67362e-20
5.13581e-34
-1.15648e-19
8.32667e-19
-2.02384e-19
-5.13581e-34
-1.15648e-19
0
-2.31296e-19
-6.41977e-34
-2.02384e-19
8.32667e-19
-2.89121e-19
-1.66533e-18
-3.75857e-19
-8.32667e-19
-4.62593e-19
8.32667e-19
-5.78241e-19
-8.32667e-19
-6.93889e-19
8.32667e-19
-8.3845e-19
8.32667e-19
-1.09866e-18
8.32667e-19
-1.38778e-18
8.32667e-19
-1.73472e-18
8.32667e-19
-2.13949e-18
0
-2.80447e-18
0
-3.49836e-18
0
-4.56811e-18
1.75902e-32
-5.84024e-18
-1.66533e-18
-7.51714e-18
-1.66533e-18
-9.71445e-18
1.66533e-18
-1.25189e-17
-1.66533e-18
-1.62775e-17
0
-2.15395e-17
-1.66533e-18
-2.92301e-17
0
-4.11419e-17
-1.66533e-18
-6.03684e-17
0
-9.3357e-17
0
-1.50227e-16
1.66533e-18
-2.5619e-16
-3.43586e-30
-4.70139e-16
1.66533e-18
-5.81711e-16
0
-3.18715e-15
1.66533e-18
6.1212e-15
0
-4.65598e-14
0
1.43534e-13
0
-6.0859e-13
3.3304e-18
2.48145e-12
0
-1.87046e-11
-1.65242e-18
1.9931e-10
0
4.43281e-08
1.67795e-18
1.748e-07
0
3.1179e-07
0
3.94854e-07
1.66951e-18
4.60903e-07
0
5.1298e-07
-1.66778e-18
5.58821e-07
-1.66713e-18
5.98218e-07
1.6662e-18
6.20643e-07
0
3.2751e-07
0
2.4209e-07
1.66491e-18
1.3439e-06
-1.66629e-18
1.99892e-06
1.66198e-18
7.27343e-07
1.66668e-18
-1.47902e-06
-1.66559e-18
-2.67916e-06
1.65899e-18
-9.03734e-07
1.51655e-22
1.9613e-06
1.6567e-18
2.51828e-06
-1.66811e-18
9.43375e-07
0
-1.41268e-06
-1.64997e-22
-2.71462e-06
6.08157e-23
-9.64645e-07
-1.77496e-22
2.00051e-06
-1.66345e-18
2.56936e-06
-1.65758e-18
8.81711e-07
0
-1.41051e-06
-3.3202e-18
-2.84333e-06
1.66755e-18
-1.41352e-06
1.65794e-18
1.78013e-06
0
2.09293e-06
1.65748e-18
-1.00184e-06
2.02689e-23
-1.49933e-06
1.66879e-18
1.22637e-06
-4.31836e-23
2.10881e-06
1.65836e-18
6.61456e-07
-1.67135e-18
-1.7697e-06
-1.89833e-22
-3.15878e-06
1.66071e-18
-8.64924e-07
-1.66784e-18
2.49636e-06
-1.6625e-18
2.75681e-06
-1.66587e-18
3.66722e-07
1.65747e-18
-1.89198e-06
1.66978e-18
-2.30653e-06
0
-8.49543e-07
1.66706e-18
1.43396e-06
0
2.58756e-06
1.66754e-18
9.24446e-07
-1.66583e-18
-2.18347e-06
0
-3.07347e-06
-1.66699e-18
-7.44295e-07
-3.31846e-18
2.30187e-06
9.60905e-23
2.72182e-06
1.65114e-18
2.09058e-07
1.67177e-18
-2.36225e-06
3.32896e-18
-3.01171e-06
-1.65642e-18
-5.68418e-07
2.112e-22
2.81245e-06
-8.55289e-23
3.01538e-06
-1.67362e-18
9.78771e-08
0
-2.94087e-06
0
-3.30582e-06
0
-1.522e-06
3.33839e-18
3.14421e-07
3.3184e-18
2.40257e-06
-3.32958e-18
3.21179e-06
0
1.01828e-06
3.31761e-18
-1.82683e-06
0
-1.80571e-06
0
1.2298e-06
0
2.64021e-06
0
7.48958e-07
-3.35547e-18
-1.68372e-06
-3.30792e-18
-1.78717e-06
0
9.9548e-07
-3.33052e-18
2.39177e-06
0
8.09499e-07
-3.34035e-18
-1.12195e-06
3.31617e-18
-1.62805e-06
3.34982e-18
-1.0074e-06
0
-1.58452e-07
0
1.61735e-06
0
1.96822e-06
0
-8.45253e-07
3.06048e-22
-2.71425e-06
0
-8.75818e-07
0
2.11135e-06
-3.32129e-18
2.72218e-06
3.34313e-18
5.22521e-07
0
-2.46756e-06
0
-2.58459e-06
0
8.56093e-07
9.7772e-23
1.91822e-06
-3.31669e-18
-8.37195e-07
6.65219e-18
-1.1055e-06
-3.34187e-18
1.55061e-06
0
2.12703e-06
-3.33855e-18
2.0585e-07
1.36404e-22
-1.5031e-06
0
-1.8619e-06
0
-1.70507e-06
3.32372e-18
-6.12318e-07
0
2.00872e-06
-3.33325e-18
2.05899e-06
0
-1.72554e-06
3.31209e-18
-3.31955e-06
0
-7.42514e-07
3.31615e-18
2.29588e-06
0
3.06855e-06
-3.31623e-18
1.2894e-06
0
-1.44073e-06
0
-2.91031e-06
3.31999e-18
-1.56025e-06
3.33356e-18
1.29596e-06
1.47967e-22
2.73332e-06
0
2.04819e-06
-8.22109e-24
2.47593e-07
-3.34347e-18
-1.87147e-06
4.13787e-23
-1.53465e-06
3.34513e-18
1.56141e-06
0
2.04789e-06
-3.33005e-18
-9.48389e-07
3.3358e-18
-2.5976e-06
0
-1.07805e-06
0
1.14874e-06
0
1.65149e-06
-3.33829e-18
3.19034e-07
0
-1.27993e-06
-3.34521e-18
-1.59092e-06
3.31496e-18
-8.76111e-07
0
-2.95175e-08
-1.46088e-22
1.40864e-06
3.31928e-18
2.67805e-06
-3.3482e-18
1.98149e-06
-8.6398e-23
-4.69235e-07
-3.33349e-18
-2.76937e-06
0
-1.85476e-06
-3.34107e-18
1.59665e-06
6.62551e-18
2.37745e-06
0
-2.85366e-07
6.64143e-18
-2.05569e-06
0
-7.98992e-07
2.84164e-22
1.59688e-06
-3.33351e-18
2.15024e-06
-8.80888e-23
-6.64886e-08
-3.3139e-18
-2.7329e-06
-3.33906e-18
-2.98598e-06
3.31274e-18
-5.54273e-07
3.34235e-18
2.17046e-06
1.9703e-22
2.85993e-06
0
9.62877e-07
-3.30966e-18
-1.67294e-06
3.33508e-18
-2.25257e-06
-3.32851e-18
-5.14386e-07
0
1.80969e-06
0
2.48789e-06
3.31968e-18
3.94158e-07
-2.81437e-22
-2.3273e-06
3.3098e-18
-2.87935e-06
-8.00968e-23
-1.19824e-06
0
1.43448e-06
-2.27095e-22
2.34679e-06
-3.83421e-22
6.90677e-08
-6.68353e-18
-1.13039e-06
3.29751e-22
1.04888e-06
3.34148e-18
2.28659e-06
-3.33128e-18
3.55363e-07
3.31636e-18
-2.02648e-06
-6.67619e-18
-1.75745e-06
3.31345e-18
1.15724e-06
3.3449e-18
2.78161e-06
4.84375e-23
1.01813e-06
-3.35356e-18
-1.73059e-06
3.30438e-18
-1.89447e-06
3.38355e-22
6.92745e-07
0
2.07642e-06
1.00259e-17
1.02888e-06
-3.31705e-18
-6.72029e-07
-6.68359e-18
-1.06467e-06
-3.31777e-18
8.43769e-07
-3.35344e-18
2.08401e-06
1.13566e-22
7.38369e-07
-3.33806e-18
-6.26921e-07
3.34139e-18
-2.38796e-07
-3.31744e-18
6.86581e-07
3.34634e-18
6.50133e-07
-1.65765e-23
3.70359e-07
-6.69449e-18
5.07405e-07
-3.32691e-18
6.1005e-07
1.32388e-23
6.18296e-07
0
5.95769e-07
3.34412e-18
5.68625e-07
6.65526e-18
5.32609e-07
0
4.84243e-07
1.23982e-23
4.2212e-07
-3.37762e-18
3.33221e-07
0
1.97984e-07
3.30867e-18
5.81257e-08
3.33197e-18
3.73876e-10
-2.94383e-26
-1.85486e-11
2.40386e-12
0
0
0
0
0
0
0
0
0
0
0
0
0
0
0
0
0
0
0
0
0
0
0
0
0
0
0
0
0
0
0
0
0
0
0
0
0
0
0
0
0
0
0
0
0
0
0
0
0
0
0
0
0
0
0
0
0
0
0
0
0
0
0
0
0
0
0
0
0
0
0
0
0
0
0
0
0
0
0
0
0
0
0
0
0
0
0
0
0
0
0
0
0
0
0
0
0
0
0
0
0
0
0
0
-8.32667e-19
-5.78241e-20
-5.13581e-34
-1.73472e-19
0
-2.31296e-19
2.56791e-34
-1.73472e-19
-7.70372e-34
-2.89121e-19
0
-3.46945e-19
-8.32667e-19
-3.46945e-19
0
-4.62593e-19
-8.32667e-19
-4.62593e-19
8.32667e-19
-6.36065e-19
8.32667e-19
-7.51714e-19
8.32667e-19
-9.25186e-19
-8.32667e-19
-1.15648e-18
3.33828e-33
-1.4456e-18
8.32667e-19
-1.73472e-18
0
-2.13949e-18
-5.90619e-33
-2.60209e-18
0
-3.06468e-18
1.66533e-18
-3.87422e-18
-8.32667e-19
-4.85723e-18
8.32667e-19
-6.07153e-18
2.498e-18
-7.74843e-18
1.66533e-18
-9.8301e-18
2.97877e-32
-1.25478e-17
1.66533e-18
-1.60173e-17
4.87902e-32
-2.05276e-17
0
-2.64256e-17
0
-3.38849e-17
0
-4.37729e-17
0
-5.71302e-17
0
-7.54605e-17
-1.66533e-18
-1.02349e-16
0
-1.43982e-16
0
-2.10942e-16
-1.66533e-18
-3.25723e-16
0
-5.33948e-16
1.66533e-18
-8.43018e-16
0
-1.87113e-15
0
-1.436e-15
1.66532e-18
-1.09809e-14
0
8.54351e-15
1.66531e-18
-7.39391e-14
0
9.05243e-14
-6.91432e-28
-5.65418e-13
0
3.0623e-12
0
-3.88538e-11
1.64639e-18
3.92014e-10
-1.66581e-18
4.42685e-08
-1.6804e-18
1.73258e-07
-1.67131e-18
3.0948e-07
1.66847e-18
3.92781e-07
-1.67052e-18
4.58543e-07
0
5.1049e-07
0
5.56135e-07
0
5.95535e-07
-4.64315e-23
6.15563e-07
-3.33288e-18
3.27919e-07
0
2.50004e-07
-1.6646e-18
1.33212e-06
1.06838e-22
1.97455e-06
1.47962e-23
7.1957e-07
0
-1.4631e-06
-1.66679e-18
-2.64423e-06
0
-8.93705e-07
-1.67512e-18
1.93179e-06
1.65444e-18
2.49259e-06
-1.66989e-18
9.37269e-07
1.66086e-18
-1.39667e-06
1.67124e-18
-2.67856e-06
9.29229e-23
-9.52135e-07
1.67322e-18
1.97014e-06
0
2.54051e-06
-3.75433e-24
8.75715e-07
-1.67444e-18
-1.39594e-06
-3.31832e-18
-2.80923e-06
0
-1.39502e-06
-3.42771e-22
1.74983e-06
0
2.05754e-06
-3.88008e-22
-9.75524e-07
3.33084e-18
-1.46884e-06
-2.6464e-22
1.20175e-06
0
2.08039e-06
3.95934e-23
6.52042e-07
1.67439e-18
-1.75323e-06
-2.77923e-22
-3.1155e-06
-3.31975e-18
-8.54149e-07
-2.85077e-22
2.4596e-06
3.32479e-18
2.72425e-06
-9.29464e-23
3.66086e-07
-1.65572e-18
-1.87026e-06
-1.67223e-18
-2.28295e-06
0
-8.40084e-07
0
1.41867e-06
1.65693e-18
2.55515e-06
0
9.10559e-07
2.79338e-22
-2.15641e-06
1.60495e-22
-3.03633e-06
3.33667e-18
-7.36152e-07
2.80134e-22
2.27281e-06
1.3617e-22
2.68666e-06
3.29292e-18
2.0386e-07
-1.67487e-18
-2.34072e-06
3.32919e-18
-2.97376e-06
-3.30733e-18
-5.55582e-07
3.34978e-18
2.77616e-06
-1.28078e-22
2.97816e-06
-3.35493e-18
9.46543e-08
0
-2.91138e-06
0
-3.27708e-06
-3.30593e-18
-1.51549e-06
-3.34211e-18
3.16933e-07
0
2.38422e-06
0
3.17579e-06
0
1.01e-06
-5.52772e-22
-1.79698e-06
3.34453e-18
-1.77388e-06
0
1.21271e-06
0
2.60398e-06
0
7.41977e-07
-3.36556e-18
-1.65673e-06
0
-1.7549e-06
0
9.77117e-07
0
2.35624e-06
0
8.05246e-07
-3.345e-18
-1.10355e-06
0
-1.61035e-06
0
-1.00017e-06
0
-1.48024e-07
-3.35149e-18
1.59826e-06
-3.30601e-18
1.93388e-06
0
-8.30834e-07
3.32781e-18
-2.67212e-06
0
-8.6451e-07
-3.34184e-18
2.08283e-06
-3.31964e-18
2.69022e-06
-3.34911e-18
5.13655e-07
3.31414e-18
-2.43868e-06
0
-2.54676e-06
0
8.33943e-07
3.34412e-18
1.87962e-06
-3.3126e-18
-8.11949e-07
-3.32557e-18
-1.07777e-06
0
1.52424e-06
-3.31666e-18
2.09697e-06
0
2.07217e-07
2.36369e-22
-1.48525e-06
0
-1.85026e-06
0
-1.69095e-06
0
-5.95935e-07
7.64294e-22
1.98039e-06
-3.33636e-18
2.01914e-06
-3.34522e-18
-1.70031e-06
0
-3.2744e-06
0
-7.38788e-07
0
2.26965e-06
0
3.03948e-06
-6.6253e-18
1.28027e-06
-3.3532e-18
-1.42304e-06
0
-2.87664e-06
-3.31719e-18
-1.54364e-06
0
1.27738e-06
2.48656e-22
2.70594e-06
0
2.03358e-06
5.57813e-24
2.43715e-07
-3.34942e-18
-1.84286e-06
0
-1.50373e-06
-3.35072e-18
1.53172e-06
0
2.01113e-06
3.33168e-18
-9.31065e-07
0
-2.56156e-06
0
-1.06983e-06
3.61695e-22
1.1275e-06
0
1.62737e-06
3.34226e-18
3.14422e-07
3.30509e-18
-1.26459e-06
-3.3515e-18
-1.57555e-06
-3.16987e-23
-8.70513e-07
3.35073e-18
-2.37193e-08
3.31639e-18
1.40221e-06
-3.31599e-18
2.65292e-06
3.35563e-18
1.96075e-06
3.31691e-18
-4.69342e-07
0
-2.73451e-06
-8.78479e-24
-1.82668e-06
0
1.56673e-06
3.30738e-18
2.34296e-06
3.35196e-18
-2.69826e-07
-3.31838e-18
-2.02104e-06
-8.86996e-23
-7.88562e-07
4.33861e-22
1.57482e-06
-3.33631e-18
2.11848e-06
-3.34108e-18
-7.31153e-08
3.30828e-18
-2.70721e-06
3.34329e-18
-2.95451e-06
-3.30702e-18
-5.49286e-07
6.69485e-18
2.1463e-06
-3.30721e-18
2.83052e-06
3.36007e-18
9.56336e-07
3.30376e-18
-1.64952e-06
6.6755e-18
-2.22654e-06
3.32901e-18
-5.08026e-07
3.32308e-18
1.79038e-06
0
2.45585e-06
0
3.85555e-07
-4.28588e-22
-2.30252e-06
-3.30283e-18
-2.85251e-06
-3.36002e-18
-1.18635e-06
3.29097e-18
1.41853e-06
0
2.31444e-06
-5.67652e-22
7.97898e-08
3.34698e-18
-1.09665e-06
5.07739e-22
1.03722e-06
-3.34646e-18
2.25212e-06
6.66582e-18
3.49174e-07
-3.31262e-18
-1.9998e-06
0
-1.72998e-06
-3.3081e-18
1.14343e-06
0
2.74538e-06
9.01425e-23
1.00716e-06
-3.36312e-18
-1.70177e-06
0
-1.86401e-06
4.99575e-22
6.77106e-07
-3.29681e-18
2.04813e-06
2.69107e-23
1.02282e-06
-3.31287e-18
-6.57029e-07
-3.34631e-18
-1.04051e-06
3.31455e-18
8.35448e-07
0
2.05438e-06
0
7.34938e-07
3.34128e-18
-6.10579e-07
-3.34559e-18
-2.34203e-07
1.9051e-22
6.74371e-07
0
6.44184e-07
3.30187e-18
3.70583e-07
3.35326e-18
5.03278e-07
3.32581e-18
6.06181e-07
3.3442e-18
6.15225e-07
-3.32547e-18
5.92996e-07
3.3484e-18
5.65952e-07
6.65179e-18
5.30054e-07
-3.35618e-18
4.81867e-07
2.52509e-23
4.19876e-07
3.38866e-18
3.30916e-07
-1.19332e-23
1.96241e-07
3.29855e-18
5.79497e-08
-3.33193e-18
6.46338e-10
-4.61677e-26
-7.19931e-11
4.35312e-12
0
0
0
0
0
0
0
0
0
0
0
0
0
0
0
0
0
0
0
0
0
0
0
0
0
0
0
0
0
0
0
0
0
0
0
0
0
0
0
0
0
0
0
0
0
0
0
0
0
0
0
0
0
0
0
0
0
0
0
0
0
0
0
0
0
0
0
0
0
0
0
0
0
0
0
0
0
0
0
0
0
0
0
0
0
0
0
0
0
0
0
0
0
0
0
0
0
-1.73472e-19
-8.32667e-19
-1.73472e-19
0
-1.73472e-19
0
-2.31296e-19
0
-1.15648e-19
-8.32667e-19
-2.31296e-19
0
-3.46945e-19
-8.32667e-19
-5.20417e-19
-8.32667e-19
-5.20417e-19
0
-7.51714e-19
-2.05433e-33
-8.67362e-19
1.66533e-18
-1.15648e-18
-8.32667e-19
-1.32995e-18
8.32667e-19
-1.56125e-18
0
-1.85037e-18
8.32667e-19
-2.31296e-18
0
-2.89121e-18
6.16298e-33
-3.3538e-18
8.32667e-19
-4.04769e-18
0
-4.97287e-18
8.32667e-19
-6.30283e-18
-8.32667e-19
-7.57496e-18
-8.32667e-19
-9.30968e-18
-2.25976e-32
-1.16805e-17
0
-1.46295e-17
-8.32667e-19
-1.84459e-17
-8.32667e-19
-2.35344e-17
8.32667e-19
-3.00107e-17
1.66533e-18
-3.83952e-17
-9.55261e-32
-4.9324e-17
8.32667e-19
-6.32018e-17
0
-8.11851e-17
4.08811e-31
-1.05066e-16
0
-1.36928e-16
0
-1.81105e-16
-1.66533e-18
-2.45521e-16
0
-3.45557e-16
1.66533e-18
-5.04573e-16
1.66533e-18
-7.91265e-16
0
-1.22148e-15
-1.66533e-18
-2.34141e-15
1.66533e-18
-2.94504e-15
1.66532e-18
-9.99588e-15
0
-2.39993e-15
1.66531e-18
-5.08821e-14
-1.66529e-18
-2.39984e-14
0
1.01285e-13
1.78334e-26
-2.18709e-12
0
1.1886e-11
-1.66578e-18
-8.80913e-11
0
5.77318e-10
-1.66398e-18
4.412e-08
-1.68222e-18
1.70963e-07
-1.67232e-18
3.05586e-07
0
3.8858e-07
1.67136e-18
4.53652e-07
3.12628e-23
5.05166e-07
0
5.50262e-07
1.66814e-18
5.89774e-07
-7.33655e-23
6.06839e-07
1.66655e-18
3.25429e-07
1.66779e-18
2.57613e-07
2.39505e-22
1.3158e-06
1.77683e-22
1.93932e-06
1.66131e-18
7.03306e-07
0
-1.44481e-06
0
-2.59529e-06
0
-8.73496e-07
-1.67791e-18
1.89739e-06
1.6533e-18
2.45421e-06
3.34232e-18
9.2169e-07
-1.66075e-18
-1.37785e-06
-1.67339e-18
-2.62788e-06
7.53038e-23
-9.29062e-07
1.67567e-18
1.93452e-06
0
2.49783e-06
0
8.59492e-07
0
-1.37928e-06
-3.4991e-22
-2.76023e-06
0
-1.3637e-06
0
1.71471e-06
-1.46928e-22
2.00823e-06
-3.30932e-18
-9.4924e-07
1.66611e-18
-1.42883e-06
-3.11029e-22
1.17681e-06
1.66175e-18
2.04173e-06
1.65619e-18
6.32537e-07
3.35451e-18
-1.734e-06
-1.65862e-18
-3.05478e-06
0
-8.31801e-07
1.67037e-18
2.41601e-06
0
2.67687e-06
-1.66816e-18
3.56272e-07
-1.65484e-18
-1.84512e-06
3.34905e-18
-2.24674e-06
-1.66151e-18
-8.20124e-07
-1.66978e-18
1.40132e-06
1.65624e-18
2.50832e-06
-1.67078e-18
8.85316e-07
3.66389e-22
-2.12411e-06
2.59887e-22
-2.98345e-06
1.6697e-18
-7.17367e-07
0
2.23864e-06
-1.68982e-18
2.63731e-06
1.64353e-18
1.90882e-07
0
-2.31429e-06
3.32981e-18
-2.92007e-06
3.30424e-18
-5.32809e-07
1.67747e-18
2.73193e-06
1.65715e-18
2.92553e-06
0
8.32469e-08
0
-2.87403e-06
3.35157e-18
-3.23184e-06
3.30199e-18
-1.49724e-06
0
3.23309e-07
0
2.35761e-06
0
3.12289e-06
0
9.91105e-07
3.31313e-18
-1.76215e-06
3.51545e-22
-1.72875e-06
3.30503e-18
1.19674e-06
0
2.55596e-06
-3.29139e-18
7.26538e-07
0
-1.62573e-06
-3.29686e-18
-1.71052e-06
0
9.60002e-07
0
2.30887e-06
0
7.91914e-07
0
-1.08185e-06
3.3109e-18
-1.5824e-06
3.3644e-18
-9.84527e-07
2.3504e-22
-1.30486e-07
-3.35629e-18
1.57626e-06
0
1.88685e-06
-3.34945e-18
-8.18503e-07
3.3288e-18
-2.6172e-06
-3.31458e-18
-8.43265e-07
0
2.0494e-06
3.31984e-18
2.6447e-06
0
4.95396e-07
3.31273e-18
-2.40438e-06
3.34676e-18
-2.49519e-06
3.3062e-18
8.11379e-07
0
1.82942e-06
0
-7.86208e-07
3.32568e-18
-1.04156e-06
-3.35218e-18
1.49658e-06
0
2.05701e-06
3.34649e-18
2.01446e-07
3.29951e-18
-1.46428e-06
0
-1.8279e-06
0
-1.66408e-06
-1.27807e-22
-5.71426e-07
0
1.94481e-06
3.33953e-18
1.96536e-06
0
-1.67388e-06
-3.30237e-18
-3.21537e-06
0
-7.26393e-07
-3.30821e-18
2.2386e-06
-3.35034e-18
2.99725e-06
0
1.26151e-06
0
-1.4028e-06
-3.33138e-18
-2.8293e-06
0
-1.5161e-06
3.33692e-18
1.25522e-06
3.3056e-18
2.66414e-06
3.35538e-18
2.0059e-06
-3.3105e-18
2.35062e-07
-3.35417e-18
-1.80716e-06
0
-1.46092e-06
8.91909e-22
1.50119e-06
-3.3174e-18
1.96443e-06
-3.33261e-18
-9.14063e-07
0
-2.51427e-06
3.31701e-18
-1.05342e-06
-3.35506e-18
1.10257e-06
-3.30386e-18
1.59138e-06
4.80318e-23
3.00557e-07
0
-1.24655e-06
0
-1.55092e-06
-1.05353e-22
-8.57441e-07
0
-1.24994e-08
-3.31509e-18
1.39312e-06
0
2.61413e-06
-3.36185e-18
1.92694e-06
3.31583e-18
-4.72348e-07
-3.3366e-18
-2.69056e-06
8.70022e-23
-1.78692e-06
-3.34928e-18
1.53568e-06
-2.33833e-22
2.29837e-06
-5.68788e-22
-2.55683e-07
-5.06346e-22
-1.97565e-06
-4.31507e-23
-7.69005e-07
0
1.54921e-06
0
2.07454e-06
-3.34416e-18
-8.71146e-08
-3.30493e-18
-2.67541e-06
0
-2.90886e-06
3.30377e-18
-5.35952e-07
0
2.11759e-06
-3.30424e-18
2.788e-06
-3.36628e-18
9.41021e-07
-3.29922e-18
-1.62118e-06
-6.67971e-18
-2.18796e-06
3.33e-18
-4.92834e-07
5.2542e-22
1.76797e-06
3.35174e-18
2.41102e-06
-3.31652e-18
3.69042e-07
-3.35709e-18
-2.27282e-06
-3.29905e-18
-2.81364e-06
3.36581e-18
-1.1648e-06
0
1.3993e-06
-4.80125e-22
2.2687e-06
-9.93163e-18
8.72707e-08
-3.35057e-18
-1.05407e-06
6.03626e-22
1.02655e-06
0
2.20747e-06
0
3.35741e-07
-3.31018e-18
-1.96836e-06
3.08308e-22
-1.69125e-06
6.11751e-22
1.13062e-06
3.35586e-18
2.69799e-06
3.3098e-18
9.87772e-07
3.37009e-18
-1.66887e-06
0
-1.82336e-06
-3.36557e-18
6.62241e-07
3.29094e-18
2.01054e-06
3.3496e-18
1.00861e-06
-4.15999e-22
-6.40871e-07
0
-1.00713e-06
-6.62459e-18
8.29635e-07
0
2.0163e-06
1.48075e-22
7.24731e-07
3.34415e-18
-5.93369e-07
3.34884e-18
-2.26938e-07
2.84192e-22
6.58679e-07
-3.35551e-18
6.31191e-07
-3.29655e-18
3.65287e-07
6.71529e-18
4.94793e-07
-3.32568e-18
5.98505e-07
0
6.08572e-07
7.15739e-23
5.86814e-07
-3.35173e-18
5.60031e-07
3.32529e-18
5.24472e-07
3.36046e-18
4.76738e-07
6.65334e-18
4.15226e-07
3.39646e-18
3.2661e-07
-3.3039e-18
1.93185e-07
-3.29016e-18
5.73312e-08
-6.6625e-18
9.32132e-10
-3.33005e-18
-1.10713e-10
1.58622e-11
0
0
0
0
0
0
0
0
0
0
0
0
0
0
0
0
0
0
0
0
0
0
0
0
0
0
0
0
0
0
0
0
0
0
0
0
0
0
0
0
0
0
0
0
0
0
0
0
0
0
0
0
0
0
0
0
0
0
0
0
0
0
0
0
0
0
0
0
0
0
0
0
0
0
0
0
0
0
0
0
0
0
0
0
0
0
0
0
0
0
0
0
8.32667e-19
-5.78241e-20
0
-2.31296e-19
0
-1.15648e-19
0
-2.89121e-19
0
-2.31296e-19
0
-4.04769e-19
-8.32667e-19
-4.62593e-19
8.32667e-19
-6.36065e-19
8.32667e-19
-7.51714e-19
0
-9.25186e-19
-8.32667e-19
-1.04083e-18
8.32667e-19
-1.38778e-18
-8.32667e-19
-1.6769e-18
-8.32667e-19
-2.08167e-18
-8.32667e-19
-2.54426e-18
0
-3.00685e-18
6.16298e-33
-3.75857e-18
-7.19014e-33
-4.62593e-18
-8.32667e-19
-5.49329e-18
0
-6.64977e-18
-1.28395e-32
-8.1532e-18
8.32667e-19
-9.77228e-18
8.32667e-19
-1.19696e-17
1.66533e-18
-1.47451e-17
2.97877e-32
-1.82724e-17
-8.32667e-19
-2.27827e-17
4.67359e-32
-2.87964e-17
1.66533e-18
-3.62557e-17
0
-4.61436e-17
8.32667e-19
-5.89228e-17
-8.32667e-19
-7.54026e-17
0
-9.66819e-17
1.66533e-18
-1.24033e-16
0
-1.59479e-16
1.66533e-18
-2.06085e-16
0
-2.68477e-16
0
-3.55271e-16
1.66533e-18
-4.826e-16
1.66533e-18
-6.76253e-16
1.66533e-18
-1.00001e-15
1.66533e-18
-1.51112e-15
0
-2.58225e-15
-1.66532e-18
-3.79887e-15
1.66532e-18
-9.09729e-15
1.66531e-18
-6.54604e-15
0
-5.1717e-14
0
4.73285e-14
0
-4.15857e-13
0
7.97305e-13
3.76191e-26
-4.11924e-12
-1.66475e-18
1.62123e-11
0
-1.13269e-10
0
6.54442e-10
0
4.34349e-08
0
1.67648e-07
0
3.00381e-07
0
3.82982e-07
0
4.47251e-07
0
4.98281e-07
0
5.42767e-07
0
5.82082e-07
-1.66688e-18
5.97259e-07
-1.66679e-18
3.24254e-07
0
2.63215e-07
-1.66511e-18
1.28945e-06
1.97874e-22
1.89546e-06
5.29632e-23
6.9107e-07
0
-1.41227e-06
0
-2.53469e-06
-1.65652e-18
-8.57477e-07
-1.67972e-18
1.84674e-06
-1.75228e-22
2.40527e-06
1.67238e-18
9.10602e-07
-1.66096e-18
-1.34369e-06
-1.67449e-18
-2.56492e-06
1.65272e-18
-9.10788e-07
1.67701e-18
1.88097e-06
1.66495e-18
2.44399e-06
-1.65413e-18
8.48722e-07
1.67845e-18
-1.34721e-06
-1.65909e-18
-2.6987e-06
-6.73373e-23
-1.33618e-06
1.65517e-18
1.66225e-06
0
1.9527e-06
0
-9.08742e-07
1.6667e-18
-1.38188e-06
1.67457e-18
1.13806e-06
-1.6506e-22
1.99134e-06
-1.65613e-18
6.17822e-07
0
-1.69835e-06
1.65783e-18
-2.98024e-06
-2.45232e-22
-8.14393e-07
0
2.35272e-06
0
2.6165e-06
-1.66916e-18
3.52928e-07
-1.65459e-18
-1.80209e-06
2.22444e-22
-2.19937e-06
3.32401e-18
-8.05359e-07
-3.50237e-22
1.36773e-06
-1.65571e-18
2.44909e-06
1.67209e-18
8.64263e-07
4.95489e-22
-2.07367e-06
1.65667e-18
-2.91665e-06
1.67066e-18
-7.03504e-07
0
2.18579e-06
1.69346e-18
2.5763e-06
3.28414e-18
1.85733e-07
-3.35721e-18
-2.26976e-06
3.33004e-18
-2.85474e-06
0
-5.16686e-07
5.37499e-22
2.66776e-06
3.31588e-18
2.86053e-06
1.68336e-18
8.02196e-08
0
-2.8159e-06
0
-3.17263e-06
-3.29948e-18
-1.47873e-06
0
3.2028e-07
0
2.31417e-06
0
3.05703e-06
0
9.77165e-07
0
-1.71032e-06
0
-1.67733e-06
0
1.16728e-06
0
2.49539e-06
3.28866e-18
7.16096e-07
-3.37829e-18
-1.58003e-06
3.29513e-18
-1.66139e-06
0
9.2931e-07
-3.33383e-18
2.24921e-06
0
7.82039e-07
0
-1.0484e-06
-3.31016e-18
-1.5429e-06
0
-9.6334e-07
0
-1.17687e-07
0
1.54118e-06
0
1.83403e-06
0
-7.9436e-07
0
-2.54862e-06
0
-8.24802e-07
-3.34801e-18
1.99997e-06
-3.3202e-18
2.58747e-06
0
4.82081e-07
3.31232e-18
-2.35357e-06
0
-2.43751e-06
0
7.75155e-07
0
1.77136e-06
3.30942e-18
-7.48637e-07
0
-9.99431e-07
-3.35477e-18
1.45597e-06
-3.31591e-18
2.00546e-06
0
2.01066e-07
3.29785e-18
-1.42831e-06
0
-1.79514e-06
3.31615e-18
-1.63406e-06
0
-5.51939e-07
3.32739e-18
1.89451e-06
0
1.90531e-06
0
-1.63281e-06
3.30106e-18
-3.14146e-06
-3.34179e-18
-7.17875e-07
0
2.19104e-06
3.35193e-18
2.9434e-06
0
1.24671e-06
0
-1.36805e-06
0
-2.77061e-06
-3.31489e-18
-1.49191e-06
0
1.21785e-06
3.30353e-18
2.6091e-06
0
1.97453e-06
1.4873e-22
2.33342e-07
0
-1.75713e-06
-3.29771e-18
-1.4136e-06
1.11123e-21
1.45784e-06
3.31749e-18
1.91065e-06
8.36514e-22
-8.85605e-07
-5.69034e-22
-2.45493e-06
3.31704e-18
-1.04077e-06
6.80637e-22
1.06245e-06
0
1.54535e-06
1.82815e-22
2.90984e-07
-3.29967e-18
-1.21634e-06
-3.35949e-18
-1.51526e-06
-3.30759e-18
-8.40085e-07
3.35882e-18
-7.05929e-09
0
1.37114e-06
3.31399e-18
2.56313e-06
3.36578e-18
1.88874e-06
-3.71583e-22
-4.67095e-07
-3.33836e-18
-2.62997e-06
-5.37513e-24
-1.74225e-06
6.7042e-18
1.49173e-06
-3.30256e-18
2.24598e-06
-1.5305e-21
-2.32039e-07
3.31728e-18
-1.91841e-06
-1.72085e-22
-7.51341e-07
-3.33183e-18
1.50927e-06
-6.68392e-18
2.01962e-06
-3.35445e-22
-9.5208e-08
0
-2.62571e-06
5.15163e-22
-2.85157e-06
-3.30161e-18
-5.28125e-07
3.35423e-18
2.07315e-06
3.3036e-18
2.73439e-06
0
9.29699e-07
7.64595e-22
-1.57713e-06
3.34087e-18
-2.13825e-06
6.66146e-18
-4.81812e-07
7.26982e-22
1.73087e-06
3.35475e-18
2.35554e-06
-3.31689e-18
3.57191e-07
-3.35989e-18
-2.22751e-06
4.07189e-22
-2.76407e-06
-3.36931e-18
-1.14759e-06
0
1.36548e-06
3.35347e-18
2.21589e-06
-8.51132e-22
1.04241e-07
0
-1.00449e-06
6.61851e-18
1.00583e-06
3.35478e-18
2.15122e-06
3.3366e-18
3.26603e-07
3.3079e-18
-1.922e-06
-3.34587e-18
-1.64692e-06
8.31244e-22
1.10623e-06
-3.35824e-18
2.63823e-06
6.61864e-18
9.70863e-07
3.37464e-18
-1.62304e-06
0
-1.77762e-06
7.85131e-22
6.36754e-07
0
1.96179e-06
6.70235e-18
9.96294e-07
0
-6.13124e-07
-6.70442e-18
-9.68113e-07
6.62411e-18
8.14602e-07
0
1.9683e-06
2.54659e-22
7.17078e-07
-3.34657e-18
-5.69848e-07
3.35132e-18
-2.21718e-07
3.50124e-22
6.36348e-07
-6.71499e-18
6.15346e-07
-1.19096e-22
3.59196e-07
3.36029e-18
4.84904e-07
-3.32604e-18
5.89323e-07
-3.34867e-18
6.00346e-07
-9.97482e-18
5.79196e-07
3.35397e-18
5.52802e-07
0
5.17736e-07
3.36349e-18
4.70642e-07
0
4.09867e-07
-3.40133e-18
3.22041e-07
-1.88474e-23
1.90302e-07
-1.09268e-23
5.69968e-08
0
1.3779e-09
3.32979e-18
-1.13866e-10
2.82851e-11
0
0
0
0
0
0
0
0
0
0
0
0
0
0
0
0
0
0
0
0
0
0
0
0
0
0
0
0
0
0
0
0
0
0
0
0
0
0
0
0
0
0
0
0
0
0
0
0
0
0
0
0
0
0
0
0
0
0
0
0
0
0
0
0
0
0
0
0
0
0
0
0
0
0
0
0
0
0
0
0
0
0
0
0
0
0
0
0
0
0
0
0
-8.32667e-19
-1.15648e-19
-8.32667e-19
-3.46945e-19
-8.32667e-19
-3.46945e-19
0
-3.46945e-19
-8.32667e-19
-4.62593e-19
0
-5.78241e-19
1.54074e-33
-8.09538e-19
-8.32667e-19
-1.04083e-18
0
-1.15648e-18
2.05433e-33
-1.38778e-18
0
-1.96602e-18
-8.32667e-19
-2.54426e-18
8.32667e-19
-2.89121e-18
0
-3.46945e-18
0
-4.39463e-18
-8.32667e-19
-5.43547e-18
8.32667e-19
-6.4763e-18
-8.32667e-19
-7.86408e-18
-1.28395e-32
-9.48316e-18
1.54074e-32
-1.15648e-17
0
-1.37621e-17
0
-1.68846e-17
8.32667e-19
-2.08167e-17
8.32667e-19
-2.55583e-17
4.36544e-32
-3.14563e-17
-8.32667e-19
-3.95517e-17
-8.32667e-19
-4.98444e-17
-8.8336e-32
-6.30283e-17
-8.32667e-19
-7.99129e-17
8.32667e-19
-1.02117e-16
8.32667e-19
-1.30683e-16
0
-1.67459e-16
-8.32667e-19
-2.15221e-16
0
-2.76515e-16
0
-3.57237e-16
1.66533e-18
-4.65368e-16
0
-6.15711e-16
-1.66533e-18
-8.35558e-16
-1.66533e-18
-1.17186e-15
1.66533e-18
-1.7279e-15
0
-2.63516e-15
1.66532e-18
-4.37451e-15
0
-7.07686e-15
1.66531e-18
-1.32075e-14
1.80265e-28
-2.3705e-14
0
-3.36829e-14
0
-1.44371e-13
0
7.60385e-14
1.66515e-18
-9.61179e-13
1.665e-18
-1.37543e-12
0
1.38404e-11
0
-1.39718e-10
0
7.17261e-10
-1.66061e-18
4.22921e-08
0
1.62742e-07
0
2.92172e-07
0
3.73201e-07
-7.34284e-23
4.35797e-07
-1.66842e-18
4.8559e-07
-1.66998e-18
5.29006e-07
-1.66909e-18
5.67594e-07
1.66702e-18
5.80609e-07
1.66749e-18
3.18646e-07
1.66788e-18
2.65946e-07
0
1.2534e-06
3.14572e-22
1.83395e-06
-1.66141e-18
6.65289e-07
0
-1.37611e-06
0
-2.45491e-06
-3.31356e-18
-8.26429e-07
-1.6816e-18
1.79135e-06
-3.30694e-18
2.3377e-06
1.67332e-18
8.84832e-07