/*--------------------------------*- C++ -*----------------------------------*\
| =========                 |                                                 |
| \\      /  F ield         | foam-extend: Open Source CFD                    |
|  \\    /   O peration     | Version:     3.2                                |
|   \\  /    A nd           | Web:         http://www.foam-extend.org         |
|    \\/     M anipulation  | For copyright notice see file Copyright         |
\*---------------------------------------------------------------------------*/
FoamFile
{
    version     2.0;
    format      ascii;
    class       pointVectorField;
    location    "160";
    object      newMeshPoints;
}
// * * * * * * * * * * * * * * * * * * * * * * * * * * * * * * * * * * * * * //

dimensions      [0 1 0 0 0 0 0];

internalField   nonuniform List<vector> 
193242
(
(0 0 0)
(0.05 0 0)
(0.1 0 0)
(0.15 0 0)
(0.2 0 0)
(0.25 0 0)
(0.3 0 0)
(0.35 0 0)
(0.4 0 0)
(0.45 0 0)
(0.5 0 0)
(0.55 0 0)
(0.6 0 0)
(0.65 0 0)
(0.7 0 0)
(0.75 0 0)
(0.8 0 0)
(0.85 0 0)
(0.9 0 0)
(0.95 0 0)
(1 0 0)
(1.05 0 0)
(1.1 0 0)
(1.15 0 0)
(1.2 0 0)
(1.25 0 0)
(1.3 0 0)
(1.35 0 0)
(1.4 0 0)
(1.45 0 0)
(1.5 0 0)
(1.55 0 0)
(1.6 0 0)
(1.65 0 0)
(1.7 0 0)
(1.75 0 0)
(1.8 0 0)
(1.85 0 0)
(1.9 0 0)
(1.95 0 0)
(2 0 0)
(2.05 0 0)
(2.1 0 0)
(2.15 0 0)
(2.2 0 0)
(2.25 0 0)
(2.3 0 0)
(2.35 0 0)
(2.4 0 0)
(2.45 0 0)
(2.5 0 0)
(2.55 0 0)
(2.6 0 0)
(2.65 0 0)
(2.7 0 0)
(2.75 0 0)
(2.8 0 0)
(2.85 0 0)
(2.9 0 0)
(2.95 0 0)
(3 0 0)
(3.05 0 0)
(3.1 0 0)
(3.15 0 0)
(3.2 0 0)
(3.25 0 0)
(3.3 0 0)
(3.35 0 0)
(3.4 0 0)
(3.45 0 0)
(3.5 0 0)
(3.55 0 0)
(3.6 0 0)
(3.65 0 0)
(3.7 0 0)
(3.75 0 0)
(3.8 0 0)
(3.85 0 0)
(3.9 0 0)
(3.95 0 0)
(4 0 0)
(4.05 0 0)
(4.1 0 0)
(4.15 0 0)
(4.2 0 0)
(4.25 0 0)
(4.3 0 0)
(4.35 0 0)
(4.4 0 0)
(4.45 0 0)
(4.5 0 0)
(4.55 0 0)
(4.6 0 0)
(4.65 0 0)
(4.7 0 0)
(4.75 0 0)
(4.8 0 0)
(4.85 0 0)
(4.9 0 0)
(4.95 0 0)
(5 0 -0.00374037)
(5.05 0 -0.00868464)
(5.1 0 -0.012074)
(5.15 0 -0.0148726)
(5.2 0 -0.0175382)
(5.25 0 -0.019662)
(5.3 0 -0.0217086)
(5.35 0 -0.0234514)
(5.4 0 -0.024959)
(5.45 0 -0.0264182)
(5.5 0 -0.0277746)
(5.55 0 -0.0288294)
(5.6 0 -0.0298557)
(5.65 0 -0.0304835)
(5.7 0 -0.0316615)
(5.75 0 -0.0323105)
(5.8 0 -0.0325853)
(5.85 0 -0.0339915)
(5.9 0 -0.0336819)
(5.95 0 -0.0349715)
(6 0 -0.0354194)
(6.05 0 -0.0362712)
(6.1 0 -0.0359411)
(6.15 0 -0.0371551)
(6.2 0 -0.0368724)
(6.25 0 -0.0366567)
(6.3 0 -0.0379094)
(6.35 0 -0.0375211)
(6.4 0 -0.037839)
(6.45 0 -0.0373632)
(6.5 0 -0.0380985)
(6.55 0 -0.0375147)
(6.6 0 -0.0383492)
(6.65 0 -0.0389096)
(6.7 0 -0.0381087)
(6.75 0 -0.0377279)
(6.8 0 -0.0385783)
(6.85 0 -0.0377756)
(6.9 0 -0.0379181)
(6.95 0 -0.0387434)
(7 0 -0.0385732)
(7.05 0 -0.0385281)
(7.1 0 -0.0380656)
(7.15 0 -0.039027)
(7.2 0 -0.0386699)
(7.25 0 -0.0386522)
(7.3 0 -0.0379732)
(7.35 0 -0.0385403)
(7.4 0 -0.0382825)
(7.45 0 -0.0375653)
(7.5 0 -0.0379189)
(7.55 0 -0.037685)
(7.6 0 -0.0383055)
(7.65 0 -0.0357073)
(7.7 0 -0.0361946)
(7.75 0 -0.0350159)
(7.8 0 -0.0338146)
(7.85 0 -0.0343627)
(7.9 0 -0.0332659)
(7.95 0 -0.0332131)
(8 0 -0.0312539)
(8.05 0 -0.0313946)
(8.1 0 -0.0300621)
(8.15 0 -0.0305246)
(8.2 0 -0.0299157)
(8.25 0 -0.0303986)
(8.3 0 -0.0307296)
(8.35 0 -0.0302297)
(8.4 0 -0.0308626)
(8.45 0 -0.0302617)
(8.5 0 -0.0311501)
(8.55 0 -0.029756)
(8.6 0 -0.0310097)
(8.65 0 -0.0295104)
(8.7 0 -0.0303218)
(8.75 0 -0.0300741)
(8.8 0 -0.029549)
(8.85 0 -0.0307707)
(8.9 0 -0.0308126)
(8.95 0 -0.0321042)
(9 0 -0.0311048)
(9.05 0 -0.0321941)
(9.1 0 -0.0315105)
(9.15 0 -0.0326311)
(9.2 0 -0.0323951)
(9.25 0 -0.0322035)
(9.3 0 -0.0330944)
(9.35 0 -0.032955)
(9.4 0 -0.0334284)
(9.45 0 -0.0322781)
(9.5 0 -0.0322787)
(9.55 0 -0.031225)
(9.6 0 -0.0317031)
(9.65 0 -0.0309761)
(9.7 0 -0.0315744)
(9.75 0 -0.0324072)
(9.8 0 -0.0316745)
(9.85 0 -0.0318727)
(9.9 0 -0.0310721)
(9.95 0 -0.0324027)
(10 0 -0.0313083)
(10.05 0 -0.0309813)
(10.1 0 -0.0312391)
(10.15 0 -0.0317305)
(10.2 0 -0.0315513)
(10.25 0 -0.0301886)
(10.3 0 -0.0307778)
(10.35 0 -0.0306276)
(10.4 0 -0.0318009)
(10.45 0 -0.03159)
(10.5 0 -0.0326671)
(10.55 0 -0.0317871)
(10.6 0 -0.0308618)
(10.65 0 -0.0309213)
(10.7 0 -0.0304656)
(10.75 0 -0.031617)
(10.8 0 -0.0310312)
(10.85 0 -0.0317196)
(10.9 0 -0.030925)
(10.95 0 -0.0322446)
(11 0 -0.0317949)
(11.05 0 -0.0321185)
(11.1 0 -0.0322083)
(11.15 0 -0.031432)
(11.2 0 -0.0314679)
(11.25 0 -0.029828)
(11.3 0 -0.0300205)
(11.35 0 -0.0292855)
(11.4 0 -0.0305109)
(11.45 0 -0.0299856)
(11.5 0 -0.0308415)
(11.55 0 -0.029931)
(11.6 0 -0.0300497)
(11.65 0 -0.0312374)
(11.7 0 -0.0302237)
(11.75 0 -0.0300997)
(11.8 0 -0.0295921)
(11.85 0 -0.0307564)
(11.9 0 -0.0305936)
(11.95 0 -0.0321885)
(12 0 -0.0319837)
(12.05 0 -0.0325586)
(12.1 0 -0.0327416)
(12.15 0 -0.0328206)
(12.2 0 -0.0322192)
(12.25 0 -0.0307169)
(12.3 0 -0.0309417)
(12.35 0 -0.0301157)
(12.4 0 -0.0310442)
(12.45 0 -0.0305582)
(12.5 0 -0.0317519)
(12.55 0 -0.0305143)
(12.6 0 -0.0313695)
(12.65 0 -0.0315603)
(12.7 0 -0.0316844)
(12.75 0 -0.0322305)
(12.8 0 -0.0312867)
(12.85 0 -0.0311783)
(12.9 0 -0.029366)
(12.95 0 -0.0296208)
(13 0 -0.0275511)
(13.05 0 -0.0286787)
(13.1 0 -0.0284153)
(13.15 0 -0.0294228)
(13.2 0 -0.0290186)
(13.25 0 -0.0299065)
(13.3 0 -0.0293064)
(13.35 0 -0.02839)
(13.4 0 -0.0288909)
(13.45 0 -0.0284407)
(13.5 0 -0.0296043)
(13.55 0 -0.02899)
(13.6 0 -0.0296064)
(13.65 0 -0.0276546)
(13.7 0 -0.0284832)
(13.75 0 -0.0269499)
(13.8 0 -0.0281236)
(13.85 0 -0.0280388)
(13.9 0 -0.0292832)
(13.95 0 -0.0292502)
(14 0 -0.0303227)
(14.05 0 -0.0288109)
(14.1 0 -0.0291327)
(14.15 0 -0.028512)
(14.2 0 -0.0266906)
(14.25 0 -0.0263565)
(14.3 0 -0.0245363)
(14.35 0 -0.0251922)
(14.4 0 -0.0241139)
(14.45 0 -0.0233635)
(14.5 0 -0.0216359)
(14.55 0 -0.0203928)
(14.6 0 -0.0179313)
(14.65 0 -0.0160257)
(14.7 0 -0.0124935)
(14.75 0 -0.00954395)
(14.8 0 -0.00319616)
(14.85 0 0)
(14.9 0 0)
(14.95 0 0)
(15 0 0)
(0 0.02 0)
(0.05 0.02 0)
(0.1 0.02 0)
(0.15 0.02 0)
(0.2 0.02 0)
(0.25 0.02 0)
(0.3 0.02 0)
(0.35 0.02 0)
(0.4 0.02 0)
(0.45 0.02 0)
(0.5 0.02 0)
(0.55 0.02 0)
(0.6 0.02 0)
(0.65 0.02 0)
(0.7 0.02 0)
(0.75 0.02 0)
(0.8 0.02 0)
(0.85 0.02 0)
(0.9 0.02 0)
(0.95 0.02 0)
(1 0.02 0)
(1.05 0.02 0)
(1.1 0.02 0)
(1.15 0.02 0)
(1.2 0.02 0)
(1.25 0.02 0)
(1.3 0.02 0)
(1.35 0.02 0)
(1.4 0.02 0)
(1.45 0.02 0)
(1.5 0.02 0)
(1.55 0.02 0)
(1.6 0.02 0)
(1.65 0.02 0)
(1.7 0.02 0)
(1.75 0.02 0)
(1.8 0.02 0)
(1.85 0.02 0)
(1.9 0.02 0)
(1.95 0.02 0)
(2 0.02 0)
(2.05 0.02 0)
(2.1 0.02 0)
(2.15 0.02 0)
(2.2 0.02 0)
(2.25 0.02 0)
(2.3 0.02 0)
(2.35 0.02 0)
(2.4 0.02 0)
(2.45 0.02 0)
(2.5 0.02 0)
(2.55 0.02 0)
(2.6 0.02 0)
(2.65 0.02 0)
(2.7 0.02 0)
(2.75 0.02 0)
(2.8 0.02 0)
(2.85 0.02 0)
(2.9 0.02 0)
(2.95 0.02 0)
(3 0.02 0)
(3.05 0.02 0)
(3.1 0.02 0)
(3.15 0.02 0)
(3.2 0.02 0)
(3.25 0.02 0)
(3.3 0.02 0)
(3.35 0.02 0)
(3.4 0.02 0)
(3.45 0.02 0)
(3.5 0.02 0)
(3.55 0.02 0)
(3.6 0.02 0)
(3.65 0.02 0)
(3.7 0.02 0)
(3.75 0.02 0)
(3.8 0.02 0)
(3.85 0.02 0)
(3.9 0.02 0)
(3.95 0.02 0)
(4 0.02 0)
(4.05 0.02 0)
(4.1 0.02 0)
(4.15 0.02 0)
(4.2 0.02 0)
(4.25 0.02 0)
(4.3 0.02 0)
(4.35 0.02 0)
(4.4 0.02 0)
(4.45 0.02 0)
(4.5 0.02 0)
(4.55 0.02 0)
(4.6 0.02 0)
(4.65 0.02 0)
(4.7 0.02 0)
(4.75 0.02 0)
(4.8 0.02 0)
(4.85 0.02 0)
(4.9 0.02 0)
(4.95 0.02 0)
(5 0.02 -0.00374037)
(5.05 0.02 -0.00868464)
(5.1 0.02 -0.012074)
(5.15 0.02 -0.0148726)
(5.2 0.02 -0.0175382)
(5.25 0.02 -0.019662)
(5.3 0.02 -0.0217086)
(5.35 0.02 -0.0234514)
(5.4 0.02 -0.024959)
(5.45 0.02 -0.0264182)
(5.5 0.02 -0.0277746)
(5.55 0.02 -0.0288294)
(5.6 0.02 -0.0298557)
(5.65 0.02 -0.0304835)
(5.7 0.02 -0.0316615)
(5.75 0.02 -0.0323105)
(5.8 0.02 -0.0325853)
(5.85 0.02 -0.0339915)
(5.9 0.02 -0.0336819)
(5.95 0.02 -0.0349715)
(6 0.02 -0.0354194)
(6.05 0.02 -0.0362712)
(6.1 0.02 -0.0359411)
(6.15 0.02 -0.0371551)
(6.2 0.02 -0.0368724)
(6.25 0.02 -0.0366567)
(6.3 0.02 -0.0379094)
(6.35 0.02 -0.0375211)
(6.4 0.02 -0.037839)
(6.45 0.02 -0.0373632)
(6.5 0.02 -0.0380985)
(6.55 0.02 -0.0375147)
(6.6 0.02 -0.0383492)
(6.65 0.02 -0.0389096)
(6.7 0.02 -0.0381087)
(6.75 0.02 -0.0377279)
(6.8 0.02 -0.0385783)
(6.85 0.02 -0.0377756)
(6.9 0.02 -0.0379181)
(6.95 0.02 -0.0387434)
(7 0.02 -0.0385732)
(7.05 0.02 -0.0385281)
(7.1 0.02 -0.0380656)
(7.15 0.02 -0.039027)
(7.2 0.02 -0.0386699)
(7.25 0.02 -0.0386522)
(7.3 0.02 -0.0379732)
(7.35 0.02 -0.0385403)
(7.4 0.02 -0.0382825)
(7.45 0.02 -0.0375653)
(7.5 0.02 -0.0379189)
(7.55 0.02 -0.037685)
(7.6 0.02 -0.0383055)
(7.65 0.02 -0.0357073)
(7.7 0.02 -0.0361946)
(7.75 0.02 -0.0350159)
(7.8 0.02 -0.0338146)
(7.85 0.02 -0.0343627)
(7.9 0.02 -0.0332659)
(7.95 0.02 -0.0332131)
(8 0.02 -0.0312539)
(8.05 0.02 -0.0313946)
(8.1 0.02 -0.0300621)
(8.15 0.02 -0.0305246)
(8.2 0.02 -0.0299157)
(8.25 0.02 -0.0303986)
(8.3 0.02 -0.0307296)
(8.35 0.02 -0.0302297)
(8.4 0.02 -0.0308626)
(8.45 0.02 -0.0302617)
(8.5 0.02 -0.0311501)
(8.55 0.02 -0.029756)
(8.6 0.02 -0.0310097)
(8.65 0.02 -0.0295104)
(8.7 0.02 -0.0303218)
(8.75 0.02 -0.0300741)
(8.8 0.02 -0.029549)
(8.85 0.02 -0.0307707)
(8.9 0.02 -0.0308126)
(8.95 0.02 -0.0321042)
(9 0.02 -0.0311048)
(9.05 0.02 -0.0321941)
(9.1 0.02 -0.0315105)
(9.15 0.02 -0.0326311)
(9.2 0.02 -0.0323951)
(9.25 0.02 -0.0322035)
(9.3 0.02 -0.0330944)
(9.35 0.02 -0.032955)
(9.4 0.02 -0.0334284)
(9.45 0.02 -0.0322781)
(9.5 0.02 -0.0322787)
(9.55 0.02 -0.031225)
(9.6 0.02 -0.0317031)
(9.65 0.02 -0.0309761)
(9.7 0.02 -0.0315744)
(9.75 0.02 -0.0324072)
(9.8 0.02 -0.0316745)
(9.85 0.02 -0.0318727)
(9.9 0.02 -0.0310721)
(9.95 0.02 -0.0324027)
(10 0.02 -0.0313083)
(10.05 0.02 -0.0309813)
(10.1 0.02 -0.0312391)
(10.15 0.02 -0.0317305)
(10.2 0.02 -0.0315513)
(10.25 0.02 -0.0301886)
(10.3 0.02 -0.0307778)
(10.35 0.02 -0.0306276)
(10.4 0.02 -0.0318009)
(10.45 0.02 -0.03159)
(10.5 0.02 -0.0326671)
(10.55 0.02 -0.0317871)
(10.6 0.02 -0.0308618)
(10.65 0.02 -0.0309213)
(10.7 0.02 -0.0304656)
(10.75 0.02 -0.031617)
(10.8 0.02 -0.0310312)
(10.85 0.02 -0.0317196)
(10.9 0.02 -0.030925)
(10.95 0.02 -0.0322446)
(11 0.02 -0.0317949)
(11.05 0.02 -0.0321185)
(11.1 0.02 -0.0322083)
(11.15 0.02 -0.031432)
(11.2 0.02 -0.0314679)
(11.25 0.02 -0.029828)
(11.3 0.02 -0.0300205)
(11.35 0.02 -0.0292855)
(11.4 0.02 -0.0305109)
(11.45 0.02 -0.0299856)
(11.5 0.02 -0.0308415)
(11.55 0.02 -0.029931)
(11.6 0.02 -0.0300497)
(11.65 0.02 -0.0312374)
(11.7 0.02 -0.0302237)
(11.75 0.02 -0.0300997)
(11.8 0.02 -0.0295921)
(11.85 0.02 -0.0307564)
(11.9 0.02 -0.0305936)
(11.95 0.02 -0.0321885)
(12 0.02 -0.0319837)
(12.05 0.02 -0.0325586)
(12.1 0.02 -0.0327416)
(12.15 0.02 -0.0328206)
(12.2 0.02 -0.0322192)
(12.25 0.02 -0.0307169)
(12.3 0.02 -0.0309417)
(12.35 0.02 -0.0301157)
(12.4 0.02 -0.0310442)
(12.45 0.02 -0.0305582)
(12.5 0.02 -0.0317519)
(12.55 0.02 -0.0305143)
(12.6 0.02 -0.0313695)
(12.65 0.02 -0.0315603)
(12.7 0.02 -0.0316844)
(12.75 0.02 -0.0322305)
(12.8 0.02 -0.0312867)
(12.85 0.02 -0.0311783)
(12.9 0.02 -0.029366)
(12.95 0.02 -0.0296208)
(13 0.02 -0.0275511)
(13.05 0.02 -0.0286787)
(13.1 0.02 -0.0284153)
(13.15 0.02 -0.0294228)
(13.2 0.02 -0.0290186)
(13.25 0.02 -0.0299065)
(13.3 0.02 -0.0293064)
(13.35 0.02 -0.02839)
(13.4 0.02 -0.0288909)
(13.45 0.02 -0.0284407)
(13.5 0.02 -0.0296043)
(13.55 0.02 -0.02899)
(13.6 0.02 -0.0296064)
(13.65 0.02 -0.0276546)
(13.7 0.02 -0.0284832)
(13.75 0.02 -0.0269499)
(13.8 0.02 -0.0281236)
(13.85 0.02 -0.0280388)
(13.9 0.02 -0.0292832)
(13.95 0.02 -0.0292502)
(14 0.02 -0.0303227)
(14.05 0.02 -0.0288109)
(14.1 0.02 -0.0291327)
(14.15 0.02 -0.028512)
(14.2 0.02 -0.0266906)
(14.25 0.02 -0.0263565)
(14.3 0.02 -0.0245363)
(14.35 0.02 -0.0251922)
(14.4 0.02 -0.0241139)
(14.45 0.02 -0.0233635)
(14.5 0.02 -0.0216359)
(14.55 0.02 -0.0203928)
(14.6 0.02 -0.0179313)
(14.65 0.02 -0.0160257)
(14.7 0.02 -0.0124935)
(14.75 0.02 -0.00954395)
(14.8 0.02 -0.00319616)
(14.85 0.02 0)
(14.9 0.02 0)
(14.95 0.02 0)
(15 0.02 0)
(0 0 0.0028125)
(0.05 0 0.0028125)
(0.1 0 0.0028125)
(0.15 0 0.0028125)
(0.2 0 0.0028125)
(0.25 0 0.0028125)
(0.3 0 0.0028125)
(0.35 0 0.0028125)
(0.4 0 0.0028125)
(0.45 0 0.0028125)
(0.5 0 0.0028125)
(0.55 0 0.0028125)
(0.6 0 0.0028125)
(0.65 0 0.0028125)
(0.7 0 0.0028125)
(0.75 0 0.0028125)
(0.8 0 0.0028125)
(0.85 0 0.0028125)
(0.9 0 0.0028125)
(0.95 0 0.0028125)
(1 0 0.0028125)
(1.05 0 0.0028125)
(1.1 0 0.0028125)
(1.15 0 0.0028125)
(1.2 0 0.0028125)
(1.25 0 0.0028125)
(1.3 0 0.0028125)
(1.35 0 0.0028125)
(1.4 0 0.0028125)
(1.45 0 0.0028125)
(1.5 0 0.0028125)
(1.55 0 0.0028125)
(1.6 0 0.0028125)
(1.65 0 0.0028125)
(1.7 0 0.0028125)
(1.75 0 0.0028125)
(1.8 0 0.0028125)
(1.85 0 0.0028125)
(1.9 0 0.0028125)
(1.95 0 0.0028125)
(2 0 0.0028125)
(2.05 0 0.0028125)
(2.1 0 0.0028125)
(2.15 0 0.0028125)
(2.2 0 0.0028125)
(2.25 0 0.0028125)
(2.3 0 0.0028125)
(2.35 0 0.0028125)
(2.4 0 0.0028125)
(2.45 0 0.0028125)
(2.5 0 0.0028125)
(2.55 0 0.0028125)
(2.6 0 0.0028125)
(2.65 0 0.0028125)
(2.7 0 0.0028125)
(2.75 0 0.0028125)
(2.8 0 0.0028125)
(2.85 0 0.0028125)
(2.9 0 0.0028125)
(2.95 0 0.0028125)
(3 0 0.0028125)
(3.05 0 0.0028125)
(3.1 0 0.0028125)
(3.15 0 0.0028125)
(3.2 0 0.0028125)
(3.25 0 0.0028125)
(3.3 0 0.0028125)
(3.35 0 0.0028125)
(3.4 0 0.0028125)
(3.45 0 0.0028125)
(3.5 0 0.0028125)
(3.55 0 0.0028125)
(3.6 0 0.0028125)
(3.65 0 0.0028125)
(3.7 0 0.0028125)
(3.75 0 0.0028125)
(3.8 0 0.0028125)
(3.85 0 0.0028125)
(3.9 0 0.0028125)
(3.95 0 0.0028125)
(4 0 0.0028125)
(4.05 0 0.0028125)
(4.1 0 0.0028125)
(4.15 0 0.0028125)
(4.2 0 0.0028125)
(4.25 0 0.0028125)
(4.3 0 0.0028125)
(4.35 0 0.0028125)
(4.4 0 0.0028125)
(4.45 0 0.0028125)
(4.5 0 0.0028125)
(4.55 0 0.0028125)
(4.6 0 0.0028125)
(4.65 0 0.0028125)
(4.7 0 0.0028125)
(4.75 0 0.0028125)
(4.8 0 0.0028125)
(4.85 0 0.00281243)
(4.9 0 0.00281322)
(4.95 0 0.00280253)
(5 0 -0.000920401)
(5.05 0 -0.00585588)
(5.1 0 -0.00925464)
(5.15 0 -0.0120556)
(5.2 0 -0.0147205)
(5.25 0 -0.016847)
(5.3 0 -0.018893)
(5.35 0 -0.0206366)
(5.4 0 -0.0221453)
(5.45 0 -0.0236046)
(5.5 0 -0.0249609)
(5.55 0 -0.0260175)
(5.6 0 -0.0270429)
(5.65 0 -0.0276751)
(5.7 0 -0.028849)
(5.75 0 -0.029499)
(5.8 0 -0.0297799)
(5.85 0 -0.0311742)
(5.9 0 -0.0308787)
(5.95 0 -0.0321578)
(6 0 -0.0326119)
(6.05 0 -0.0334567)
(6.1 0 -0.0331379)
(6.15 0 -0.0343393)
(6.2 0 -0.0340633)
(6.25 0 -0.0338527)
(6.3 0 -0.0350928)
(6.35 0 -0.0347152)
(6.4 0 -0.0350261)
(6.45 0 -0.0345589)
(6.5 0 -0.0352834)
(6.55 0 -0.034711)
(6.6 0 -0.0355387)
(6.65 0 -0.0360952)
(6.7 0 -0.0353009)
(6.75 0 -0.0349235)
(6.8 0 -0.0357621)
(6.85 0 -0.0349703)
(6.9 0 -0.0351114)
(6.95 0 -0.0359302)
(7 0 -0.0357651)
(7.05 0 -0.0357169)
(7.1 0 -0.0352619)
(7.15 0 -0.0362121)
(7.2 0 -0.0358625)
(7.25 0 -0.0358397)
(7.3 0 -0.0351684)
(7.35 0 -0.0357272)
(7.4 0 -0.0354709)
(7.45 0 -0.0347597)
(7.5 0 -0.0351064)
(7.55 0 -0.0348796)
(7.6 0 -0.0354805)
(7.65 0 -0.0329083)
(7.7 0 -0.0333774)
(7.75 0 -0.0322052)
(7.8 0 -0.0310113)
(7.85 0 -0.0315455)
(7.9 0 -0.0304608)
(7.95 0 -0.030394)
(8 0 -0.0284517)
(8.05 0 -0.0285777)
(8.1 0 -0.0272593)
(8.15 0 -0.0277098)
(8.2 0 -0.0271101)
(8.25 0 -0.027588)
(8.3 0 -0.0279163)
(8.35 0 -0.0274246)
(8.4 0 -0.0280472)
(8.45 0 -0.0274582)
(8.5 0 -0.0283297)
(8.55 0 -0.0269564)
(8.6 0 -0.0281868)
(8.65 0 -0.0267092)
(8.7 0 -0.027507)
(8.75 0 -0.0272628)
(8.8 0 -0.0267454)
(8.85 0 -0.0279549)
(8.9 0 -0.0280079)
(8.95 0 -0.0292839)
(9 0 -0.0283033)
(9.05 0 -0.029376)
(9.1 0 -0.0287078)
(9.15 0 -0.0298152)
(9.2 0 -0.0295855)
(9.25 0 -0.0293976)
(9.3 0 -0.0302799)
(9.35 0 -0.0301482)
(9.4 0 -0.0306113)
(9.45 0 -0.0294729)
(9.5 0 -0.0294637)
(9.55 0 -0.0284211)
(9.6 0 -0.0288877)
(9.65 0 -0.0281712)
(9.7 0 -0.0287652)
(9.75 0 -0.0295908)
(9.8 0 -0.0288687)
(9.85 0 -0.029058)
(9.9 0 -0.0282704)
(9.95 0 -0.0295821)
(10 0 -0.0285014)
(10.05 0 -0.0281732)
(10.1 0 -0.02843)
(10.15 0 -0.0289182)
(10.2 0 -0.0287359)
(10.25 0 -0.0273857)
(10.3 0 -0.0279639)
(10.35 0 -0.0278227)
(10.4 0 -0.0289844)
(10.45 0 -0.0287853)
(10.5 0 -0.0298488)
(10.55 0 -0.0289766)
(10.6 0 -0.0280553)
(10.65 0 -0.0281086)
(10.7 0 -0.0276617)
(10.75 0 -0.0287991)
(10.8 0 -0.0282266)
(10.85 0 -0.0289026)
(10.9 0 -0.028123)
(10.95 0 -0.0294264)
(11 0 -0.0289882)
(11.05 0 -0.0293075)
(11.1 0 -0.0293946)
(11.15 0 -0.0286256)
(11.2 0 -0.0286501)
(11.25 0 -0.0270248)
(11.3 0 -0.0272057)
(11.35 0 -0.0264829)
(11.4 0 -0.0276927)
(11.45 0 -0.0271814)
(11.5 0 -0.0280237)
(11.55 0 -0.0271247)
(11.6 0 -0.0272435)
(11.65 0 -0.0284178)
(11.7 0 -0.0274174)
(11.75 0 -0.0272874)
(11.8 0 -0.0267882)
(11.85 0 -0.0279399)
(11.9 0 -0.0277902)
(11.95 0 -0.02937)
(12 0 -0.029177)
(12.05 0 -0.0297464)
(12.1 0 -0.0299313)
(12.15 0 -0.030008)
(12.2 0 -0.0294045)
(12.25 0 -0.0279131)
(12.3 0 -0.0281265)
(12.35 0 -0.0273124)
(12.4 0 -0.0282275)
(12.45 0 -0.027755)
(12.5 0 -0.0289307)
(12.55 0 -0.0277122)
(12.6 0 -0.028556)
(12.65 0 -0.0287499)
(12.7 0 -0.0288761)
(12.75 0 -0.0294141)
(12.8 0 -0.0284805)
(12.85 0 -0.02836)
(12.9 0 -0.0265639)
(12.95 0 -0.0267992)
(13 0 -0.0247523)
(13.05 0 -0.0258617)
(13.1 0 -0.0256104)
(13.15 0 -0.0266062)
(13.2 0 -0.0262138)
(13.25 0 -0.0270901)
(13.3 0 -0.0264947)
(13.35 0 -0.0255851)
(13.4 0 -0.0260761)
(13.45 0 -0.0256368)
(13.5 0 -0.026786)
(13.55 0 -0.0261855)
(13.6 0 -0.026784)
(13.65 0 -0.0248546)
(13.7 0 -0.0256614)
(13.75 0 -0.0241493)
(13.8 0 -0.0253066)
(13.85 0 -0.0252333)
(13.9 0 -0.0264662)
(13.95 0 -0.0264442)
(14 0 -0.0274999)
(14.05 0 -0.0260067)
(14.1 0 -0.0263173)
(14.15 0 -0.0256945)
(14.2 0 -0.0238841)
(14.25 0 -0.0235366)
(14.3 0 -0.021733)
(14.35 0 -0.022372)
(14.4 0 -0.021303)
(14.45 0 -0.0205461)
(14.5 0 -0.0188246)
(14.55 0 -0.0175732)
(14.6 0 -0.0151191)
(14.65 0 -0.0132021)
(14.7 0 -0.00967922)
(14.75 0 -0.00670343)
(14.8 0 -0.00038046)
(14.85 0 0.00280364)
(14.9 0 0.00281314)
(14.95 0 0.00281244)
(15 0 0.0028125)
(0 0.02 0.0028125)
(0.05 0.02 0.0028125)
(0.1 0.02 0.0028125)
(0.15 0.02 0.0028125)
(0.2 0.02 0.0028125)
(0.25 0.02 0.0028125)
(0.3 0.02 0.0028125)
(0.35 0.02 0.0028125)
(0.4 0.02 0.0028125)
(0.45 0.02 0.0028125)
(0.5 0.02 0.0028125)
(0.55 0.02 0.0028125)
(0.6 0.02 0.0028125)
(0.65 0.02 0.0028125)
(0.7 0.02 0.0028125)
(0.75 0.02 0.0028125)
(0.8 0.02 0.0028125)
(0.85 0.02 0.0028125)
(0.9 0.02 0.0028125)
(0.95 0.02 0.0028125)
(1 0.02 0.0028125)
(1.05 0.02 0.0028125)
(1.1 0.02 0.0028125)
(1.15 0.02 0.0028125)
(1.2 0.02 0.0028125)
(1.25 0.02 0.0028125)
(1.3 0.02 0.0028125)
(1.35 0.02 0.0028125)
(1.4 0.02 0.0028125)
(1.45 0.02 0.0028125)
(1.5 0.02 0.0028125)
(1.55 0.02 0.0028125)
(1.6 0.02 0.0028125)
(1.65 0.02 0.0028125)
(1.7 0.02 0.0028125)
(1.75 0.02 0.0028125)
(1.8 0.02 0.0028125)
(1.85 0.02 0.0028125)
(1.9 0.02 0.0028125)
(1.95 0.02 0.0028125)
(2 0.02 0.0028125)
(2.05 0.02 0.0028125)
(2.1 0.02 0.0028125)
(2.15 0.02 0.0028125)
(2.2 0.02 0.0028125)
(2.25 0.02 0.0028125)
(2.3 0.02 0.0028125)
(2.35 0.02 0.0028125)
(2.4 0.02 0.0028125)
(2.45 0.02 0.0028125)
(2.5 0.02 0.0028125)
(2.55 0.02 0.0028125)
(2.6 0.02 0.0028125)
(2.65 0.02 0.0028125)
(2.7 0.02 0.0028125)
(2.75 0.02 0.0028125)
(2.8 0.02 0.0028125)
(2.85 0.02 0.0028125)
(2.9 0.02 0.0028125)
(2.95 0.02 0.0028125)
(3 0.02 0.0028125)
(3.05 0.02 0.0028125)
(3.1 0.02 0.0028125)
(3.15 0.02 0.0028125)
(3.2 0.02 0.0028125)
(3.25 0.02 0.0028125)
(3.3 0.02 0.0028125)
(3.35 0.02 0.0028125)
(3.4 0.02 0.0028125)
(3.45 0.02 0.0028125)
(3.5 0.02 0.0028125)
(3.55 0.02 0.0028125)
(3.6 0.02 0.0028125)
(3.65 0.02 0.0028125)
(3.7 0.02 0.0028125)
(3.75 0.02 0.0028125)
(3.8 0.02 0.0028125)
(3.85 0.02 0.0028125)
(3.9 0.02 0.0028125)
(3.95 0.02 0.0028125)
(4 0.02 0.0028125)
(4.05 0.02 0.0028125)
(4.1 0.02 0.0028125)
(4.15 0.02 0.0028125)
(4.2 0.02 0.0028125)
(4.25 0.02 0.0028125)
(4.3 0.02 0.0028125)
(4.35 0.02 0.0028125)
(4.4 0.02 0.0028125)
(4.45 0.02 0.0028125)
(4.5 0.02 0.0028125)
(4.55 0.02 0.0028125)
(4.6 0.02 0.0028125)
(4.65 0.02 0.0028125)
(4.7 0.02 0.0028125)
(4.75 0.02 0.0028125)
(4.8 0.02 0.0028125)
(4.85 0.02 0.00281243)
(4.9 0.02 0.00281322)
(4.95 0.02 0.00280253)
(5 0.02 -0.000920401)
(5.05 0.02 -0.00585588)
(5.1 0.02 -0.00925464)
(5.15 0.02 -0.0120556)
(5.2 0.02 -0.0147205)
(5.25 0.02 -0.016847)
(5.3 0.02 -0.018893)
(5.35 0.02 -0.0206366)
(5.4 0.02 -0.0221453)
(5.45 0.02 -0.0236046)
(5.5 0.02 -0.0249609)
(5.55 0.02 -0.0260175)
(5.6 0.02 -0.0270429)
(5.65 0.02 -0.0276751)
(5.7 0.02 -0.028849)
(5.75 0.02 -0.029499)
(5.8 0.02 -0.0297799)
(5.85 0.02 -0.0311742)
(5.9 0.02 -0.0308787)
(5.95 0.02 -0.0321578)
(6 0.02 -0.0326119)
(6.05 0.02 -0.0334567)
(6.1 0.02 -0.0331379)
(6.15 0.02 -0.0343393)
(6.2 0.02 -0.0340633)
(6.25 0.02 -0.0338527)
(6.3 0.02 -0.0350928)
(6.35 0.02 -0.0347152)
(6.4 0.02 -0.0350261)
(6.45 0.02 -0.0345589)
(6.5 0.02 -0.0352834)
(6.55 0.02 -0.034711)
(6.6 0.02 -0.0355387)
(6.65 0.02 -0.0360952)
(6.7 0.02 -0.0353009)
(6.75 0.02 -0.0349235)
(6.8 0.02 -0.0357621)
(6.85 0.02 -0.0349703)
(6.9 0.02 -0.0351114)
(6.95 0.02 -0.0359302)
(7 0.02 -0.0357651)
(7.05 0.02 -0.0357169)
(7.1 0.02 -0.0352619)
(7.15 0.02 -0.0362121)
(7.2 0.02 -0.0358625)
(7.25 0.02 -0.0358397)
(7.3 0.02 -0.0351684)
(7.35 0.02 -0.0357272)
(7.4 0.02 -0.0354709)
(7.45 0.02 -0.0347597)
(7.5 0.02 -0.0351064)
(7.55 0.02 -0.0348796)
(7.6 0.02 -0.0354805)
(7.65 0.02 -0.0329083)
(7.7 0.02 -0.0333774)
(7.75 0.02 -0.0322052)
(7.8 0.02 -0.0310113)
(7.85 0.02 -0.0315455)
(7.9 0.02 -0.0304608)
(7.95 0.02 -0.030394)
(8 0.02 -0.0284517)
(8.05 0.02 -0.0285777)
(8.1 0.02 -0.0272593)
(8.15 0.02 -0.0277098)
(8.2 0.02 -0.0271101)
(8.25 0.02 -0.027588)
(8.3 0.02 -0.0279163)
(8.35 0.02 -0.0274246)
(8.4 0.02 -0.0280472)
(8.45 0.02 -0.0274582)
(8.5 0.02 -0.0283297)
(8.55 0.02 -0.0269564)
(8.6 0.02 -0.0281868)
(8.65 0.02 -0.0267092)
(8.7 0.02 -0.027507)
(8.75 0.02 -0.0272628)
(8.8 0.02 -0.0267454)
(8.85 0.02 -0.0279549)
(8.9 0.02 -0.0280079)
(8.95 0.02 -0.0292839)
(9 0.02 -0.0283033)
(9.05 0.02 -0.029376)
(9.1 0.02 -0.0287078)
(9.15 0.02 -0.0298152)
(9.2 0.02 -0.0295855)
(9.25 0.02 -0.0293976)
(9.3 0.02 -0.0302799)
(9.35 0.02 -0.0301482)
(9.4 0.02 -0.0306113)
(9.45 0.02 -0.0294729)
(9.5 0.02 -0.0294637)
(9.55 0.02 -0.0284211)
(9.6 0.02 -0.0288877)
(9.65 0.02 -0.0281712)
(9.7 0.02 -0.0287652)
(9.75 0.02 -0.0295908)
(9.8 0.02 -0.0288687)
(9.85 0.02 -0.029058)
(9.9 0.02 -0.0282704)
(9.95 0.02 -0.0295821)
(10 0.02 -0.0285014)
(10.05 0.02 -0.0281732)
(10.1 0.02 -0.02843)
(10.15 0.02 -0.0289182)
(10.2 0.02 -0.0287359)
(10.25 0.02 -0.0273857)
(10.3 0.02 -0.0279639)
(10.35 0.02 -0.0278227)
(10.4 0.02 -0.0289844)
(10.45 0.02 -0.0287853)
(10.5 0.02 -0.0298488)
(10.55 0.02 -0.0289766)
(10.6 0.02 -0.0280553)
(10.65 0.02 -0.0281086)
(10.7 0.02 -0.0276617)
(10.75 0.02 -0.0287991)
(10.8 0.02 -0.0282266)
(10.85 0.02 -0.0289026)
(10.9 0.02 -0.028123)
(10.95 0.02 -0.0294264)
(11 0.02 -0.0289882)
(11.05 0.02 -0.0293075)
(11.1 0.02 -0.0293946)
(11.15 0.02 -0.0286256)
(11.2 0.02 -0.0286501)
(11.25 0.02 -0.0270248)
(11.3 0.02 -0.0272057)
(11.35 0.02 -0.0264829)
(11.4 0.02 -0.0276927)
(11.45 0.02 -0.0271814)
(11.5 0.02 -0.0280237)
(11.55 0.02 -0.0271247)
(11.6 0.02 -0.0272435)
(11.65 0.02 -0.0284178)
(11.7 0.02 -0.0274174)
(11.75 0.02 -0.0272874)
(11.8 0.02 -0.0267882)
(11.85 0.02 -0.0279399)
(11.9 0.02 -0.0277902)
(11.95 0.02 -0.02937)
(12 0.02 -0.029177)
(12.05 0.02 -0.0297464)
(12.1 0.02 -0.0299313)
(12.15 0.02 -0.030008)
(12.2 0.02 -0.0294045)
(12.25 0.02 -0.0279131)
(12.3 0.02 -0.0281265)
(12.35 0.02 -0.0273124)
(12.4 0.02 -0.0282275)
(12.45 0.02 -0.027755)
(12.5 0.02 -0.0289307)
(12.55 0.02 -0.0277122)
(12.6 0.02 -0.028556)
(12.65 0.02 -0.0287499)
(12.7 0.02 -0.0288761)
(12.75 0.02 -0.0294141)
(12.8 0.02 -0.0284805)
(12.85 0.02 -0.02836)
(12.9 0.02 -0.0265639)
(12.95 0.02 -0.0267992)
(13 0.02 -0.0247523)
(13.05 0.02 -0.0258617)
(13.1 0.02 -0.0256104)
(13.15 0.02 -0.0266062)
(13.2 0.02 -0.0262138)
(13.25 0.02 -0.0270901)
(13.3 0.02 -0.0264947)
(13.35 0.02 -0.0255851)
(13.4 0.02 -0.0260761)
(13.45 0.02 -0.0256368)
(13.5 0.02 -0.026786)
(13.55 0.02 -0.0261855)
(13.6 0.02 -0.026784)
(13.65 0.02 -0.0248546)
(13.7 0.02 -0.0256614)
(13.75 0.02 -0.0241493)
(13.8 0.02 -0.0253066)
(13.85 0.02 -0.0252333)
(13.9 0.02 -0.0264662)
(13.95 0.02 -0.0264442)
(14 0.02 -0.0274999)
(14.05 0.02 -0.0260067)
(14.1 0.02 -0.0263173)
(14.15 0.02 -0.0256945)
(14.2 0.02 -0.0238841)
(14.25 0.02 -0.0235366)
(14.3 0.02 -0.021733)
(14.35 0.02 -0.022372)
(14.4 0.02 -0.021303)
(14.45 0.02 -0.0205461)
(14.5 0.02 -0.0188246)
(14.55 0.02 -0.0175732)
(14.6 0.02 -0.0151191)
(14.65 0.02 -0.0132021)
(14.7 0.02 -0.00967922)
(14.75 0.02 -0.00670343)
(14.8 0.02 -0.00038046)
(14.85 0.02 0.00280364)
(14.9 0.02 0.00281314)
(14.95 0.02 0.00281244)
(15 0.02 0.0028125)
(0 0 0.005625)
(0.05 0 0.005625)
(0.1 0 0.005625)
(0.15 0 0.005625)
(0.2 0 0.005625)
(0.25 0 0.005625)
(0.3 0 0.005625)
(0.35 0 0.005625)
(0.4 0 0.005625)
(0.45 0 0.005625)
(0.5 0 0.005625)
(0.55 0 0.005625)
(0.6 0 0.005625)
(0.65 0 0.005625)
(0.7 0 0.005625)
(0.75 0 0.005625)
(0.8 0 0.005625)
(0.85 0 0.005625)
(0.9 0 0.005625)
(0.95 0 0.005625)
(1 0 0.005625)
(1.05 0 0.005625)
(1.1 0 0.005625)
(1.15 0 0.005625)
(1.2 0 0.005625)
(1.25 0 0.005625)
(1.3 0 0.005625)
(1.35 0 0.005625)
(1.4 0 0.005625)
(1.45 0 0.005625)
(1.5 0 0.005625)
(1.55 0 0.005625)
(1.6 0 0.005625)
(1.65 0 0.005625)
(1.7 0 0.005625)
(1.75 0 0.005625)
(1.8 0 0.005625)
(1.85 0 0.005625)
(1.9 0 0.005625)
(1.95 0 0.005625)
(2 0 0.005625)
(2.05 0 0.005625)
(2.1 0 0.005625)
(2.15 0 0.005625)
(2.2 0 0.005625)
(2.25 0 0.005625)
(2.3 0 0.005625)
(2.35 0 0.005625)
(2.4 0 0.005625)
(2.45 0 0.005625)
(2.5 0 0.005625)
(2.55 0 0.005625)
(2.6 0 0.005625)
(2.65 0 0.005625)
(2.7 0 0.005625)
(2.75 0 0.005625)
(2.8 0 0.005625)
(2.85 0 0.005625)
(2.9 0 0.005625)
(2.95 0 0.005625)
(3 0 0.005625)
(3.05 0 0.005625)
(3.1 0 0.005625)
(3.15 0 0.005625)
(3.2 0 0.005625)
(3.25 0 0.005625)
(3.3 0 0.005625)
(3.35 0 0.005625)
(3.4 0 0.005625)
(3.45 0 0.005625)
(3.5 0 0.005625)
(3.55 0 0.005625)
(3.6 0 0.005625)
(3.65 0 0.005625)
(3.7 0 0.005625)
(3.75 0 0.005625)
(3.8 0 0.005625)
(3.85 0 0.005625)
(3.9 0 0.005625)
(3.95 0 0.005625)
(4 0 0.005625)
(4.05 0 0.005625)
(4.1 0 0.005625)
(4.15 0 0.005625)
(4.2 0 0.005625)
(4.25 0 0.005625)
(4.3 0 0.005625)
(4.35 0 0.005625)
(4.4 0 0.005625)
(4.45 0 0.005625)
(4.5 0 0.005625)
(4.55 0 0.005625)
(4.6 0 0.00562499)
(4.65 0 0.00562499)
(4.7 0 0.00562498)
(4.75 0 0.00562497)
(4.8 0 0.00562497)
(4.85 0 0.00562471)
(4.9 0 0.00562704)
(4.95 0 0.00559322)
(5 0 0.00189616)
(5.05 0 -0.00302207)
(5.1 0 -0.00643368)
(5.15 0 -0.00923838)
(5.2 0 -0.0119009)
(5.25 0 -0.0140319)
(5.3 0 -0.0160763)
(5.35 0 -0.0178211)
(5.4 0 -0.0193313)
(5.45 0 -0.0207909)
(5.5 0 -0.0221466)
(5.55 0 -0.0232058)
(5.6 0 -0.0242287)
(5.65 0 -0.0248682)
(5.7 0 -0.0260344)
(5.75 0 -0.0266861)
(5.8 0 -0.0269781)
(5.85 0 -0.0283504)
(5.9 0 -0.0280807)
(5.95 0 -0.0293407)
(6 0 -0.0298061)
(6.05 0 -0.0306377)
(6.1 0 -0.0303398)
(6.15 0 -0.0315179)
(6.2 0 -0.031254)
(6.25 0 -0.0310533)
(6.3 0 -0.0322702)
(6.35 0 -0.0319118)
(6.4 0 -0.0322098)
(6.45 0 -0.0317585)
(6.5 0 -0.032463)
(6.55 0 -0.0319118)
(6.6 0 -0.0327272)
(6.65 0 -0.0332763)
(6.7 0 -0.0324941)
(6.75 0 -0.0321228)
(6.8 0 -0.0329397)
(6.85 0 -0.0321677)
(6.9 0 -0.0323065)
(6.95 0 -0.0331134)
(7 0 -0.0329574)
(7.05 0 -0.0329036)
(7.1 0 -0.0324627)
(7.15 0 -0.0333922)
(7.2 0 -0.0330563)
(7.25 0 -0.0330242)
(7.3 0 -0.0323675)
(7.35 0 -0.032911)
(7.4 0 -0.0326576)
(7.45 0 -0.0319576)
(7.5 0 -0.0322911)
(7.55 0 -0.0320773)
(7.6 0 -0.0326438)
(7.65 0 -0.0301198)
(7.7 0 -0.030554)
(7.75 0 -0.0293943)
(7.8 0 -0.0282137)
(7.85 0 -0.0287221)
(7.9 0 -0.0276592)
(7.95 0 -0.0275675)
(8 0 -0.0256566)
(8.05 0 -0.0257551)
(8.1 0 -0.0244626)
(8.15 0 -0.0248909)
(8.2 0 -0.024308)
(8.25 0 -0.0247764)
(8.3 0 -0.0250997)
(8.35 0 -0.0246231)
(8.4 0 -0.025227)
(8.45 0 -0.0246602)
(8.5 0 -0.0255008)
(8.55 0 -0.024166)
(8.6 0 -0.0253537)
(8.65 0 -0.023916)
(8.7 0 -0.0246881)
(8.75 0 -0.0244503)
(8.8 0 -0.0239475)
(8.85 0 -0.0251345)
(8.9 0 -0.0252077)
(8.95 0 -0.0264552)
(9 0 -0.0255089)
(9.05 0 -0.0265509)
(9.1 0 -0.0259112)
(9.15 0 -0.0269944)
(9.2 0 -0.0267758)
(9.25 0 -0.026595)
(9.3 0 -0.0274613)
(9.35 0 -0.0273434)
(9.4 0 -0.0277883)
(9.45 0 -0.0266716)
(9.5 0 -0.0266444)
(9.55 0 -0.0256223)
(9.6 0 -0.0260676)
(9.65 0 -0.0253705)
(9.7 0 -0.0259565)
(9.75 0 -0.0267688)
(9.8 0 -0.0260661)
(9.85 0 -0.026239)
(9.9 0 -0.0254759)
(9.95 0 -0.0267528)
(10 0 -0.0256973)
(10.05 0 -0.0253666)
(10.1 0 -0.0256212)
(10.15 0 -0.0261035)
(10.2 0 -0.0259159)
(10.25 0 -0.0245891)
(10.3 0 -0.0251468)
(10.35 0 -0.0250225)
(10.4 0 -0.0261628)
(10.45 0 -0.0259851)
(10.5 0 -0.0270234)
(10.55 0 -0.0261659)
(10.6 0 -0.0252518)
(10.65 0 -0.0252934)
(10.7 0 -0.0248633)
(10.75 0 -0.0259748)
(10.8 0 -0.0254264)
(10.85 0 -0.0260797)
(10.9 0 -0.0253281)
(10.95 0 -0.0266017)
(11 0 -0.0261841)
(11.05 0 -0.0264955)
(11.1 0 -0.0265778)
(11.15 0 -0.0258221)
(11.2 0 -0.0258259)
(11.25 0 -0.0242276)
(11.3 0 -0.0243868)
(11.35 0 -0.0236869)
(11.4 0 -0.024868)
(11.45 0 -0.0243822)
(11.5 0 -0.0251995)
(11.55 0 -0.0243217)
(11.6 0 -0.0244406)
(11.65 0 -0.0255905)
(11.7 0 -0.0246143)
(11.75 0 -0.0244729)
(11.8 0 -0.0239898)
(11.85 0 -0.0251182)
(11.9 0 -0.0249928)
(11.95 0 -0.0265449)
(12 0 -0.026373)
(12.05 0 -0.0269326)
(12.1 0 -0.0271205)
(12.15 0 -0.0271931)
(12.2 0 -0.0265863)
(12.25 0 -0.025115)
(12.3 0 -0.0253069)
(12.35 0 -0.024515)
(12.4 0 -0.0254051)
(12.45 0 -0.0249577)
(12.5 0 -0.0261006)
(12.55 0 -0.0249172)
(12.6 0 -0.0257398)
(12.65 0 -0.0259392)
(12.7 0 -0.0260692)
(12.75 0 -0.0265923)
(12.8 0 -0.0256773)
(12.85 0 -0.0255353)
(12.9 0 -0.0237692)
(12.95 0 -0.0239688)
(13 0 -0.0219643)
(13.05 0 -0.023039)
(13.1 0 -0.02281)
(13.15 0 -0.0237843)
(13.2 0 -0.0234134)
(13.25 0 -0.0242685)
(13.3 0 -0.0236817)
(13.35 0 -0.0227847)
(13.4 0 -0.0232574)
(13.45 0 -0.0228385)
(13.5 0 -0.0239613)
(13.55 0 -0.0233857)
(13.6 0 -0.0239522)
(13.65 0 -0.0220643)
(13.7 0 -0.0228305)
(13.75 0 -0.021358)
(13.8 0 -0.0224846)
(13.85 0 -0.0224325)
(13.9 0 -0.0236444)
(13.95 0 -0.0236423)
(14 0 -0.024668)
(14.05 0 -0.0232089)
(14.1 0 -0.0234987)
(14.15 0 -0.0228729)
(14.2 0 -0.0210826)
(14.25 0 -0.0207109)
(14.3 0 -0.0189382)
(14.35 0 -0.0195455)
(14.4 0 -0.0184937)
(14.45 0 -0.0177251)
(14.5 0 -0.0160152)
(14.55 0 -0.0147493)
(14.6 0 -0.0123091)
(14.65 0 -0.0103728)
(14.7 0 -0.00686793)
(14.75 0 -0.00385126)
(14.8 0 0.00242512)
(14.85 0 0.00559756)
(14.9 0 0.00562673)