/*--------------------------------*- C++ -*----------------------------------*\
| =========                 |                                                 |
| \\      /  F ield         | foam-extend: Open Source CFD                    |
|  \\    /   O peration     | Version:     3.2                                |
|   \\  /    A nd           | Web:         http://www.foam-extend.org         |
|    \\/     M anipulation  | For copyright notice see file Copyright         |
\*---------------------------------------------------------------------------*/
FoamFile
{
    version     2.0;
    format      ascii;
    class       pointVectorField;
    location    "160";
    object      newPoints;
}
// * * * * * * * * * * * * * * * * * * * * * * * * * * * * * * * * * * * * * //

dimensions      [0 1 0 0 0 0 0];

internalField   nonuniform List<vector> 
602
(
(0 0 0)
(0.05 0 0)
(0.1 0 0)
(0.15 0 0)
(0.2 0 0)
(0.25 0 0)
(0.3 0 0)
(0.35 0 0)
(0.4 0 0)
(0.45 0 0)
(0.5 0 0)
(0.55 0 0)
(0.6 0 0)
(0.65 0 0)
(0.7 0 0)
(0.75 0 0)
(0.8 0 0)
(0.85 0 0)
(0.9 0 0)
(0.95 0 0)
(1 0 0)
(1.05 0 0)
(1.1 0 0)
(1.15 0 0)
(1.2 0 0)
(1.25 0 0)
(1.3 0 0)
(1.35 0 0)
(1.4 0 0)
(1.45 0 0)
(1.5 0 0)
(1.55 0 0)
(1.6 0 0)
(1.65 0 0)
(1.7 0 0)
(1.75 0 0)
(1.8 0 0)
(1.85 0 0)
(1.9 0 0)
(1.95 0 0)
(2 0 0)
(2.05 0 0)
(2.1 0 0)
(2.15 0 0)
(2.2 0 0)
(2.25 0 0)
(2.3 0 0)
(2.35 0 0)
(2.4 0 0)
(2.45 0 0)
(2.5 0 0)
(2.55 0 0)
(2.6 0 0)
(2.65 0 0)
(2.7 0 0)
(2.75 0 0)
(2.8 0 0)
(2.85 0 0)
(2.9 0 0)
(2.95 0 0)
(3 0 0)
(3.05 0 0)
(3.1 0 0)
(3.15 0 0)
(3.2 0 0)
(3.25 0 0)
(3.3 0 0)
(3.35 0 0)
(3.4 0 0)
(3.45 0 0)
(3.5 0 0)
(3.55 0 0)
(3.6 0 0)
(3.65 0 0)
(3.7 0 0)
(3.75 0 0)
(3.8 0 0)
(3.85 0 0)
(3.9 0 0)
(3.95 0 0)
(4 0 0)
(4.05 0 0)
(4.1 0 0)
(4.15 0 0)
(4.2 0 0)
(4.25 0 0)
(4.3 0 0)
(4.35 0 0)
(4.4 0 0)
(4.45 0 0)
(4.5 0 0)
(4.55 0 0)
(4.6 0 0)
(4.65 0 0)
(4.7 0 0)
(4.75 0 0)
(4.8 0 0)
(4.85 0 0)
(4.9 0 0)
(4.95 0 0)
(5 0 -0.00374037)
(5.05 0 -0.00868464)
(5.1 0 -0.012074)
(5.15 0 -0.0148726)
(5.2 0 -0.0175382)
(5.25 0 -0.019662)
(5.3 0 -0.0217086)
(5.35 0 -0.0234514)
(5.4 0 -0.024959)
(5.45 0 -0.0264182)
(5.5 0 -0.0277746)
(5.55 0 -0.0288294)
(5.6 0 -0.0298557)
(5.65 0 -0.0304835)
(5.7 0 -0.0316615)
(5.75 0 -0.0323105)
(5.8 0 -0.0325853)
(5.85 0 -0.0339915)
(5.9 0 -0.0336819)
(5.95 0 -0.0349715)
(6 0 -0.0354194)
(6.05 0 -0.0362712)
(6.1 0 -0.0359411)
(6.15 0 -0.0371551)
(6.2 0 -0.0368724)
(6.25 0 -0.0366567)
(6.3 0 -0.0379094)
(6.35 0 -0.0375211)
(6.4 0 -0.037839)
(6.45 0 -0.0373632)
(6.5 0 -0.0380985)
(6.55 0 -0.0375147)
(6.6 0 -0.0383492)
(6.65 0 -0.0389096)
(6.7 0 -0.0381087)
(6.75 0 -0.0377279)
(6.8 0 -0.0385783)
(6.85 0 -0.0377756)
(6.9 0 -0.0379181)
(6.95 0 -0.0387434)
(7 0 -0.0385732)
(7.05 0 -0.0385281)
(7.1 0 -0.0380656)
(7.15 0 -0.039027)
(7.2 0 -0.0386699)
(7.25 0 -0.0386522)
(7.3 0 -0.0379732)
(7.35 0 -0.0385403)
(7.4 0 -0.0382825)
(7.45 0 -0.0375653)
(7.5 0 -0.0379189)
(7.55 0 -0.037685)
(7.6 0 -0.0383055)
(7.65 0 -0.0357073)
(7.7 0 -0.0361946)
(7.75 0 -0.0350159)
(7.8 0 -0.0338146)
(7.85 0 -0.0343627)
(7.9 0 -0.0332659)
(7.95 0 -0.0332131)
(8 0 -0.0312539)
(8.05 0 -0.0313946)
(8.1 0 -0.0300621)
(8.15 0 -0.0305246)
(8.2 0 -0.0299157)
(8.25 0 -0.0303986)
(8.3 0 -0.0307296)
(8.35 0 -0.0302297)
(8.4 0 -0.0308626)
(8.45 0 -0.0302617)
(8.5 0 -0.0311501)
(8.55 0 -0.029756)
(8.6 0 -0.0310097)
(8.65 0 -0.0295104)
(8.7 0 -0.0303218)
(8.75 0 -0.0300741)
(8.8 0 -0.029549)
(8.85 0 -0.0307707)
(8.9 0 -0.0308126)
(8.95 0 -0.0321042)
(9 0 -0.0311048)
(9.05 0 -0.0321941)
(9.1 0 -0.0315105)
(9.15 0 -0.0326311)
(9.2 0 -0.0323951)
(9.25 0 -0.0322035)
(9.3 0 -0.0330944)
(9.35 0 -0.032955)
(9.4 0 -0.0334284)
(9.45 0 -0.0322781)
(9.5 0 -0.0322787)
(9.55 0 -0.031225)
(9.6 0 -0.0317031)
(9.65 0 -0.0309761)
(9.7 0 -0.0315744)
(9.75 0 -0.0324072)
(9.8 0 -0.0316745)
(9.85 0 -0.0318727)
(9.9 0 -0.0310721)
(9.95 0 -0.0324027)
(10 0 -0.0313083)
(10.05 0 -0.0309813)
(10.1 0 -0.0312391)
(10.15 0 -0.0317305)
(10.2 0 -0.0315513)
(10.25 0 -0.0301886)
(10.3 0 -0.0307778)
(10.35 0 -0.0306276)
(10.4 0 -0.0318009)
(10.45 0 -0.03159)
(10.5 0 -0.0326671)
(10.55 0 -0.0317871)
(10.6 0 -0.0308618)
(10.65 0 -0.0309213)
(10.7 0 -0.0304656)
(10.75 0 -0.031617)
(10.8 0 -0.0310312)
(10.85 0 -0.0317196)
(10.9 0 -0.030925)
(10.95 0 -0.0322446)
(11 0 -0.0317949)
(11.05 0 -0.0321185)
(11.1 0 -0.0322083)
(11.15 0 -0.031432)
(11.2 0 -0.0314679)
(11.25 0 -0.029828)
(11.3 0 -0.0300205)
(11.35 0 -0.0292855)
(11.4 0 -0.0305109)
(11.45 0 -0.0299856)
(11.5 0 -0.0308415)
(11.55 0 -0.029931)
(11.6 0 -0.0300497)
(11.65 0 -0.0312374)
(11.7 0 -0.0302237)
(11.75 0 -0.0300997)
(11.8 0 -0.0295921)
(11.85 0 -0.0307564)
(11.9 0 -0.0305936)
(11.95 0 -0.0321885)
(12 0 -0.0319837)
(12.05 0 -0.0325586)
(12.1 0 -0.0327416)
(12.15 0 -0.0328206)
(12.2 0 -0.0322192)
(12.25 0 -0.0307169)
(12.3 0 -0.0309417)
(12.35 0 -0.0301157)
(12.4 0 -0.0310442)
(12.45 0 -0.0305582)
(12.5 0 -0.0317519)
(12.55 0 -0.0305143)
(12.6 0 -0.0313695)
(12.65 0 -0.0315603)
(12.7 0 -0.0316844)
(12.75 0 -0.0322305)
(12.8 0 -0.0312867)
(12.85 0 -0.0311783)
(12.9 0 -0.029366)
(12.95 0 -0.0296208)
(13 0 -0.0275511)
(13.05 0 -0.0286787)
(13.1 0 -0.0284153)
(13.15 0 -0.0294228)
(13.2 0 -0.0290186)
(13.25 0 -0.0299065)
(13.3 0 -0.0293064)
(13.35 0 -0.02839)
(13.4 0 -0.0288909)
(13.45 0 -0.0284407)
(13.5 0 -0.0296043)
(13.55 0 -0.02899)
(13.6 0 -0.0296064)
(13.65 0 -0.0276546)
(13.7 0 -0.0284832)
(13.75 0 -0.0269499)
(13.8 0 -0.0281236)
(13.85 0 -0.0280388)
(13.9 0 -0.0292832)
(13.95 0 -0.0292502)
(14 0 -0.0303227)
(14.05 0 -0.0288109)
(14.1 0 -0.0291327)
(14.15 0 -0.028512)
(14.2 0 -0.0266906)
(14.25 0 -0.0263565)
(14.3 0 -0.0245363)
(14.35 0 -0.0251922)
(14.4 0 -0.0241139)
(14.45 0 -0.0233635)
(14.5 0 -0.0216359)
(14.55 0 -0.0203928)
(14.6 0 -0.0179313)
(14.65 0 -0.0160257)
(14.7 0 -0.0124935)
(14.75 0 -0.00954395)
(14.8 0 -0.00319616)
(14.85 0 0)
(14.9 0 0)
(14.95 0 0)
(15 0 0)
(0 0.02 0)
(0.05 0.02 0)
(0.1 0.02 0)
(0.15 0.02 0)
(0.2 0.02 0)
(0.25 0.02 0)
(0.3 0.02 0)
(0.35 0.02 0)
(0.4 0.02 0)
(0.45 0.02 0)
(0.5 0.02 0)
(0.55 0.02 0)
(0.6 0.02 0)
(0.65 0.02 0)
(0.7 0.02 0)
(0.75 0.02 0)
(0.8 0.02 0)
(0.85 0.02 0)
(0.9 0.02 0)
(0.95 0.02 0)
(1 0.02 0)
(1.05 0.02 0)
(1.1 0.02 0)
(1.15 0.02 0)
(1.2 0.02 0)
(1.25 0.02 0)
(1.3 0.02 0)
(1.35 0.02 0)
(1.4 0.02 0)
(1.45 0.02 0)
(1.5 0.02 0)
(1.55 0.02 0)
(1.6 0.02 0)
(1.65 0.02 0)
(1.7 0.02 0)
(1.75 0.02 0)
(1.8 0.02 0)
(1.85 0.02 0)
(1.9 0.02 0)
(1.95 0.02 0)
(2 0.02 0)
(2.05 0.02 0)
(2.1 0.02 0)
(2.15 0.02 0)
(2.2 0.02 0)
(2.25 0.02 0)
(2.3 0.02 0)
(2.35 0.02 0)
(2.4 0.02 0)
(2.45 0.02 0)
(2.5 0.02 0)
(2.55 0.02 0)
(2.6 0.02 0)
(2.65 0.02 0)
(2.7 0.02 0)
(2.75 0.02 0)
(2.8 0.02 0)
(2.85 0.02 0)
(2.9 0.02 0)
(2.95 0.02 0)
(3 0.02 0)
(3.05 0.02 0)
(3.1 0.02 0)
(3.15 0.02 0)
(3.2 0.02 0)
(3.25 0.02 0)
(3.3 0.02 0)
(3.35 0.02 0)
(3.4 0.02 0)
(3.45 0.02 0)
(3.5 0.02 0)
(3.55 0.02 0)
(3.6 0.02 0)
(3.65 0.02 0)
(3.7 0.02 0)
(3.75 0.02 0)
(3.8 0.02 0)
(3.85 0.02 0)
(3.9 0.02 0)
(3.95 0.02 0)
(4 0.02 0)
(4.05 0.02 0)
(4.1 0.02 0)
(4.15 0.02 0)
(4.2 0.02 0)
(4.25 0.02 0)
(4.3 0.02 0)
(4.35 0.02 0)
(4.4 0.02 0)
(4.45 0.02 0)
(4.5 0.02 0)
(4.55 0.02 0)
(4.6 0.02 0)
(4.65 0.02 0)
(4.7 0.02 0)
(4.75 0.02 0)
(4.8 0.02 0)
(4.85 0.02 0)
(4.9 0.02 0)
(4.95 0.02 0)
(5 0.02 -0.00374037)
(5.05 0.02 -0.00868464)
(5.1 0.02 -0.012074)
(5.15 0.02 -0.0148726)
(5.2 0.02 -0.0175382)
(5.25 0.02 -0.019662)
(5.3 0.02 -0.0217086)
(5.35 0.02 -0.0234514)
(5.4 0.02 -0.024959)
(5.45 0.02 -0.0264182)
(5.5 0.02 -0.0277746)
(5.55 0.02 -0.0288294)
(5.6 0.02 -0.0298557)
(5.65 0.02 -0.0304835)
(5.7 0.02 -0.0316615)
(5.75 0.02 -0.0323105)
(5.8 0.02 -0.0325853)
(5.85 0.02 -0.0339915)
(5.9 0.02 -0.0336819)
(5.95 0.02 -0.0349715)
(6 0.02 -0.0354194)
(6.05 0.02 -0.0362712)
(6.1 0.02 -0.0359411)
(6.15 0.02 -0.0371551)
(6.2 0.02 -0.0368724)
(6.25 0.02 -0.0366567)
(6.3 0.02 -0.0379094)
(6.35 0.02 -0.0375211)
(6.4 0.02 -0.037839)
(6.45 0.02 -0.0373632)
(6.5 0.02 -0.0380985)
(6.55 0.02 -0.0375147)
(6.6 0.02 -0.0383492)
(6.65 0.02 -0.0389096)
(6.7 0.02 -0.0381087)
(6.75 0.02 -0.0377279)
(6.8 0.02 -0.0385783)
(6.85 0.02 -0.0377756)
(6.9 0.02 -0.0379181)
(6.95 0.02 -0.0387434)
(7 0.02 -0.0385732)
(7.05 0.02 -0.0385281)
(7.1 0.02 -0.0380656)
(7.15 0.02 -0.039027)
(7.2 0.02 -0.0386699)
(7.25 0.02 -0.0386522)
(7.3 0.02 -0.0379732)
(7.35 0.02 -0.0385403)
(7.4 0.02 -0.0382825)
(7.45 0.02 -0.0375653)
(7.5 0.02 -0.0379189)
(7.55 0.02 -0.037685)
(7.6 0.02 -0.0383055)
(7.65 0.02 -0.0357073)
(7.7 0.02 -0.0361946)
(7.75 0.02 -0.0350159)
(7.8 0.02 -0.0338146)
(7.85 0.02 -0.0343627)
(7.9 0.02 -0.0332659)
(7.95 0.02 -0.0332131)
(8 0.02 -0.0312539)
(8.05 0.02 -0.0313946)
(8.1 0.02 -0.0300621)
(8.15 0.02 -0.0305246)
(8.2 0.02 -0.0299157)
(8.25 0.02 -0.0303986)
(8.3 0.02 -0.0307296)
(8.35 0.02 -0.0302297)
(8.4 0.02 -0.0308626)
(8.45 0.02 -0.0302617)
(8.5 0.02 -0.0311501)
(8.55 0.02 -0.029756)
(8.6 0.02 -0.0310097)
(8.65 0.02 -0.0295104)
(8.7 0.02 -0.0303218)
(8.75 0.02 -0.0300741)
(8.8 0.02 -0.029549)
(8.85 0.02 -0.0307707)
(8.9 0.02 -0.0308126)
(8.95 0.02 -0.0321042)
(9 0.02 -0.0311048)
(9.05 0.02 -0.0321941)
(9.1 0.02 -0.0315105)
(9.15 0.02 -0.0326311)
(9.2 0.02 -0.0323951)
(9.25 0.02 -0.0322035)
(9.3 0.02 -0.0330944)
(9.35 0.02 -0.032955)
(9.4 0.02 -0.0334284)
(9.45 0.02 -0.0322781)
(9.5 0.02 -0.0322787)
(9.55 0.02 -0.031225)
(9.6 0.02 -0.0317031)
(9.65 0.02 -0.0309761)
(9.7 0.02 -0.0315744)
(9.75 0.02 -0.0324072)
(9.8 0.02 -0.0316745)
(9.85 0.02 -0.0318727)
(9.9 0.02 -0.0310721)
(9.95 0.02 -0.0324027)
(10 0.02 -0.0313083)
(10.05 0.02 -0.0309813)
(10.1 0.02 -0.0312391)
(10.15 0.02 -0.0317305)
(10.2 0.02 -0.0315513)
(10.25 0.02 -0.0301886)
(10.3 0.02 -0.0307778)
(10.35 0.02 -0.0306276)
(10.4 0.02 -0.0318009)
(10.45 0.02 -0.03159)
(10.5 0.02 -0.0326671)
(10.55 0.02 -0.0317871)
(10.6 0.02 -0.0308618)
(10.65 0.02 -0.0309213)
(10.7 0.02 -0.0304656)
(10.75 0.02 -0.031617)
(10.8 0.02 -0.0310312)
(10.85 0.02 -0.0317196)
(10.9 0.02 -0.030925)
(10.95 0.02 -0.0322446)
(11 0.02 -0.0317949)
(11.05 0.02 -0.0321185)
(11.1 0.02 -0.0322083)
(11.15 0.02 -0.031432)
(11.2 0.02 -0.0314679)
(11.25 0.02 -0.029828)
(11.3 0.02 -0.0300205)
(11.35 0.02 -0.0292855)
(11.4 0.02 -0.0305109)
(11.45 0.02 -0.0299856)
(11.5 0.02 -0.0308415)
(11.55 0.02 -0.029931)
(11.6 0.02 -0.0300497)
(11.65 0.02 -0.0312374)
(11.7 0.02 -0.0302237)
(11.75 0.02 -0.0300997)
(11.8 0.02 -0.0295921)
(11.85 0.02 -0.0307564)
(11.9 0.02 -0.0305936)
(11.95 0.02 -0.0321885)
(12 0.02 -0.0319837)
(12.05 0.02 -0.0325586)
(12.1 0.02 -0.0327416)
(12.15 0.02 -0.0328206)
(12.2 0.02 -0.0322192)
(12.25 0.02 -0.0307169)
(12.3 0.02 -0.0309417)
(12.35 0.02 -0.0301157)
(12.4 0.02 -0.0310442)
(12.45 0.02 -0.0305582)
(12.5 0.02 -0.0317519)
(12.55 0.02 -0.0305143)
(12.6 0.02 -0.0313695)
(12.65 0.02 -0.0315603)
(12.7 0.02 -0.0316844)
(12.75 0.02 -0.0322305)
(12.8 0.02 -0.0312867)
(12.85 0.02 -0.0311783)
(12.9 0.02 -0.029366)
(12.95 0.02 -0.0296208)
(13 0.02 -0.0275511)
(13.05 0.02 -0.0286787)
(13.1 0.02 -0.0284153)
(13.15 0.02 -0.0294228)
(13.2 0.02 -0.0290186)
(13.25 0.02 -0.0299065)
(13.3 0.02 -0.0293064)
(13.35 0.02 -0.02839)
(13.4 0.02 -0.0288909)
(13.45 0.02 -0.0284407)
(13.5 0.02 -0.0296043)
(13.55 0.02 -0.02899)
(13.6 0.02 -0.0296064)
(13.65 0.02 -0.0276546)
(13.7 0.02 -0.0284832)
(13.75 0.02 -0.0269499)
(13.8 0.02 -0.0281236)
(13.85 0.02 -0.0280388)
(13.9 0.02 -0.0292832)
(13.95 0.02 -0.0292502)
(14 0.02 -0.0303227)
(14.05 0.02 -0.0288109)
(14.1 0.02 -0.0291327)
(14.15 0.02 -0.028512)
(14.2 0.02 -0.0266906)
(14.25 0.02 -0.0263565)
(14.3 0.02 -0.0245363)
(14.35 0.02 -0.0251922)
(14.4 0.02 -0.0241139)
(14.45 0.02 -0.0233635)
(14.5 0.02 -0.0216359)
(14.55 0.02 -0.0203928)
(14.6 0.02 -0.0179313)
(14.65 0.02 -0.0160257)
(14.7 0.02 -0.0124935)
(14.75 0.02 -0.00954395)
(14.8 0.02 -0.00319616)
(14.85 0.02 0)
(14.9 0.02 0)
(14.95 0.02 0)
(15 0.02 0)
)
;

boundaryField
{
    inlet
    {
        type            zeroGradient;
    }
    outlet
    {
        type            zeroGradient;
    }
    sideWall
    {
        type            empty;
    }
    bed
    {
        type            zeroGradient;
    }
    topWall
    {
        type            zeroGradient;
    }
}


// ************************************************************************* //
