/*--------------------------------*- C++ -*----------------------------------*\
| =========                 |                                                 |
| \\      /  F ield         | foam-extend: Open Source CFD                    |
|  \\    /   O peration     | Version:     3.2                                |
|   \\  /    A nd           | Web:         http://www.foam-extend.org         |
|    \\/     M anipulation  | For copyright notice see file Copyright         |
\*---------------------------------------------------------------------------*/
FoamFile
{
    version     2.0;
    format      ascii;
    class       volScalarField;
    location    "160";
    object      nut;
}
// * * * * * * * * * * * * * * * * * * * * * * * * * * * * * * * * * * * * * //

dimensions      [0 2 -1 0 0 0 0];

internalField   nonuniform List<scalar> 
96000
(
0.000133293
0.000106227
8.82923e-05
7.89944e-05
7.59941e-05
7.48668e-05
7.4095e-05
7.33396e-05
7.25384e-05
7.17134e-05
7.09296e-05
7.01954e-05
6.95099e-05
6.88752e-05
6.82899e-05
6.77496e-05
6.72455e-05
6.67745e-05
6.6346e-05
6.6083e-05
6.58372e-05
6.5595e-05
6.53572e-05
6.51253e-05
6.49044e-05
6.46895e-05
6.44829e-05
6.42792e-05
6.40849e-05
6.38953e-05
6.37149e-05
6.35367e-05
6.33662e-05
6.31977e-05
6.30373e-05
6.288e-05
6.27286e-05
6.258e-05
6.24362e-05
6.22948e-05
6.21597e-05
6.20257e-05
6.18981e-05
6.17699e-05
6.16488e-05
6.15265e-05
6.1412e-05
6.12956e-05
6.11863e-05
6.10752e-05
6.09706e-05
6.08642e-05
6.07649e-05
6.06631e-05
6.05686e-05
6.04704e-05
6.03801e-05
6.02864e-05
6.01925e-05
6.00997e-05
6.00092e-05
5.99205e-05
5.98342e-05
5.97493e-05
5.9667e-05
5.95863e-05
5.95077e-05
5.9431e-05
5.93562e-05
5.92836e-05
5.92128e-05
5.91447e-05
5.90784e-05
5.90152e-05
5.89534e-05
5.88964e-05
5.88399e-05
5.87899e-05
5.87405e-05
5.86992e-05
5.86582e-05
5.86279e-05
5.85991e-05
5.85828e-05
5.85744e-05
5.85699e-05
5.8579e-05
5.86115e-05
5.86471e-05
5.8721e-05
5.88041e-05
5.89498e-05
5.9078e-05
5.93075e-05
5.96106e-05
6.00237e-05
6.09119e-05
6.05466e-05
6.73051e-05
5.90911e-05
5.07798e-05
4.90987e-05
4.90222e-05
4.90912e-05
5.06911e-05
5.09359e-05
5.08939e-05
5.1749e-05
5.13955e-05
5.09508e-05
5.19134e-05
5.18935e-05
5.28958e-05
5.15567e-05
4.8945e-05
5.50107e-05
4.91047e-05
5.34579e-05
5.20826e-05
4.88799e-05
4.96335e-05
5.28076e-05
5.14763e-05
4.85262e-05
5.59117e-05
4.82847e-05
4.97454e-05
5.16484e-05
5.34145e-05
5.1058e-05
5.14044e-05
5.22266e-05
4.84219e-05
5.24421e-05
5.62676e-05
4.8972e-05
5.00101e-05
5.57827e-05
4.88667e-05
5.09248e-05
5.10643e-05
5.45405e-05
4.9698e-05
4.93375e-05
5.20468e-05
5.32219e-05
5.22603e-05
4.83494e-05
5.54962e-05
4.97439e-05
5.42274e-05
4.78592e-05
5.46659e-05
5.53666e-05
4.95669e-05
5.80359e-05
4.99272e-05
5.1682e-05
5.05309e-05
5.57294e-05
5.32728e-05
5.25957e-05
5.38661e-05
5.11922e-05
5.41981e-05
4.88851e-05
5.62218e-05
5.03002e-05
5.45898e-05
4.97272e-05
5.55231e-05
5.04497e-05
5.04682e-05
5.5298e-05
4.94403e-05
5.73852e-05
4.95038e-05
5.07558e-05
4.88092e-05
5.26392e-05
5.16848e-05
5.07679e-05
5.17493e-05
4.87236e-05
5.50376e-05
4.86313e-05
5.11003e-05
4.8655e-05
5.23534e-05
5.26532e-05
5.38071e-05
5.28712e-05
5.0627e-05
5.38427e-05
4.81916e-05
5.40032e-05
5.09463e-05
5.46548e-05
4.95535e-05
4.90396e-05
5.576e-05
4.9623e-05
5.04704e-05
4.8564e-05
5.63325e-05
5.26116e-05
5.12788e-05
4.98761e-05
4.95486e-05
4.93904e-05
4.84764e-05
5.5745e-05
5.00433e-05
5.58855e-05
4.90664e-05
5.08715e-05
5.01219e-05
5.24128e-05
5.0517e-05
4.80716e-05
5.23725e-05
4.80066e-05
5.43477e-05
4.91036e-05
5.57085e-05
5.36245e-05
5.33531e-05
5.00087e-05
4.9244e-05
5.04855e-05
4.92471e-05
5.64601e-05
4.72435e-05
5.05856e-05
5.32869e-05
5.48927e-05
4.96224e-05
5.1127e-05
4.85865e-05
4.77556e-05
5.08494e-05
4.7919e-05
5.0678e-05
4.74668e-05
5.60288e-05
5.12081e-05
5.35094e-05
4.97697e-05
5.17105e-05
4.82962e-05
5.03734e-05
5.28678e-05
4.83061e-05
5.3162e-05
4.68493e-05
5.30783e-05
4.82565e-05
5.55508e-05
5.02921e-05
5.61415e-05
5.35179e-05
4.91023e-05
4.91312e-05
4.87689e-05
5.07279e-05
4.76195e-05
5.56824e-05
4.9214e-05
5.33943e-05
4.82423e-05
5.08764e-05
4.79225e-05
5.43162e-05
5.08388e-05
5.24144e-05
5.23108e-05
4.82294e-05
4.79776e-05
4.75618e-05
4.66459e-05
4.94933e-05
5.22216e-05
4.60313e-05
5.46006e-05
4.91928e-05
5.43341e-05
4.98643e-05
4.73468e-05
4.96192e-05
5.13126e-05
5.096e-05
5.42588e-05
5.10448e-05
5.67236e-05
5.29341e-05
6.24587e-05
7.06348e-05
5.74755e-05
5.24522e-05
5.10802e-05
9.19619e-05
0.00013619
0.000148935
0.000161679
0.000171817
0.000178851
0.000183419
0.000185981
0.000187203
0.000187552
0.000187557
0.000187286
0.000186855
0.000186314
0.00018572
0.000185108
0.000184462
0.000183819
0.000183174
0.000182567
0.000181962
0.000181359
0.000180769
0.000180194
0.000179636
0.000179091
0.00017856
0.000178041
0.000177544
0.000177055
0.000176586
0.000176121
0.000175676
0.000175238
0.000174818
0.000174404
0.000174005
0.000173611
0.000173232
0.000172859
0.0001725
0.000172145
0.000171803
0.000171463
0.000171139
0.000170815
0.000170507
0.000170196
0.000169902
0.000169605
0.000169323
0.000169039
0.000168771
0.000168498
0.000168241
0.000167978
0.000167732
0.000167478
0.000167217
0.000166969
0.000166719
0.000166481
0.00016624
0.000166013
0.000165782
0.000165565
0.000165343
0.000165136
0.000164921
0.000164725
0.000164519
0.000164334
0.000164136
0.000163961
0.000163772
0.000163609
0.00016343
0.000163281
0.000163114
0.000162979
0.000162826
0.000162709
0.000162573
0.00016248
0.000162366
0.000162289
0.000162212
0.000162154
0.000162118
0.000162113
0.000162123
0.000162184
0.000162166
0.000162336
0.000162419
0.000162786
0.000163137
0.000163378
0.000164483
0.000148149
0.000141613
0.000154963
0.000155337
0.000154265
0.000152429
0.00015053
0.000149821
0.000148791
0.000147518
0.000147435
0.000146911
0.000146723
0.000146274
0.000143475
0.000143898
0.000143122
0.000142814
0.000145777
0.000140782
0.000142157
0.000143759
0.00014441
0.00014024
0.000143929
0.000140922
0.00013713
0.000143387
0.000143555
0.000144085
0.00014183
0.000144069
0.000139148
0.000140632
0.000145892
0.000140603
0.000137773
0.000143303
0.000140002
0.000137685
0.000143752
0.000145139
0.000142986
0.000139508
0.000142184
0.000143809
0.00014463
0.000140144
0.000139326
0.000141997
0.000138852
0.000139493
0.000140385
0.000146399
0.000137394
0.000138634
0.000141023
0.000135848
0.000143461
0.000144093
0.000146794
0.000142518
0.000143858
0.000142934
0.000144161
0.00014296
0.000141327
0.00014388
0.00014064
0.000143673
0.000142721
0.000145197
0.000139982
0.000143818
0.000140479
0.000142312
0.000142871
0.000137674
0.000142424
0.000141542
0.000145092
0.000140231
0.000144027
0.000139161
0.000140605
0.000141267
0.000138252
0.000142147
0.000142743
0.000144954
0.000142601
0.000144771
0.000141461
0.000142888
0.000139181
0.000137749
0.000143411
0.000143907
0.000142852
0.000137896
0.000141451
0.000141865
0.00013938
0.000141191
0.000142294
0.000144985
0.00014085
0.000141712
0.000140227
0.000142499
0.000139669
0.000141915
0.000143198
0.00014004
0.000142034
0.000139562
0.000143293
0.000142082
0.000143387
0.000138081
0.000141246
0.000139422
0.000138423
0.000141551
0.000142057
0.000144939
0.000141657
0.000142103
0.000138268
0.000140632
0.000140446
0.000142769
0.000137344
0.000133073
0.000144136
0.000143505
0.000142403
0.000138798
0.000142262
0.000137138
0.000139666
0.000139743
0.00014095
0.000140532
0.000142145
0.000142698
0.000139817
0.000141663
0.00013944
0.000141232
0.000138573
0.000142977
0.000137076
0.000137973
0.000138493
0.000137158
0.000140705
0.000141141
0.000141924
0.000140077
0.000144048
0.000136228
0.00013756
0.000138973
0.000140903
0.000138637
0.000139724
0.000140833
0.000136649
0.000140359
0.000137915
0.000139369
0.000139776
0.000142715
0.000137789
0.000142499
0.000135624
0.000136685
0.000137237
0.000138467
0.000138251
0.000141682
0.000133937
0.00013385
0.000139661
0.000138941
0.00014044
0.00013428
0.000137112
0.000140969
0.000141869
0.000142214
0.000142779
0.000143653
0.000144225
0.000147332
0.000151672
0.000145095
0.000136344
0.000139188
0.000146897
7.17215e-05
0.00010217
0.000144052
0.000171421
0.000198423
0.000221697
0.00024077
0.000252407
0.000260135
0.000265909
0.000270188
0.000273374
0.000275787
0.000277667
0.000279086
0.000280127
0.000280892
0.000281457
0.000281871
0.000282118
0.000282227
0.000282241
0.000282192
0.000282093
0.000281937
0.000281737
0.000281503
0.000281249
0.00028098
0.000280691
0.000280383
0.000280064
0.000279735
0.000279407
0.000279072
0.000278732
0.000278386
0.00027804
0.000277692
0.00027735
0.000277006
0.000276664
0.00027632
0.00027598
0.000275642
0.00027531
0.000274978
0.000274651
0.000274323
0.000274002
0.000273682
0.00027337
0.000273057
0.000272752
0.000272445
0.000272147
0.000271848
0.000271557
0.000271266
0.000270983
0.000270699
0.000270424
0.000270147
0.00026988
0.00026961
0.000269352
0.000269089
0.000268839
0.000268583
0.000268343
0.000268095
0.000267865
0.000267625
0.000267405
0.000267175
0.000266968
0.000266748
0.000266556
0.00026635
0.000266174
0.000265984
0.000265831
0.00026566
0.000265539
0.000265393
0.000265293
0.000265175
0.000265098
0.000265039
0.000265025
0.000265007
0.000265081
0.000265175
0.000265408
0.000265706
0.000266298
0.000266695
0.000270226
0.000267803
0.000232172
0.000215503
0.000246028
0.000254098
0.000257343
0.000258089
0.000256856
0.000256806
0.000255593
0.000253153
0.000252919
0.000251648
0.000251453
0.000250047
0.000244472
0.000249217
0.000244235
0.000243677
0.000246144
0.00023735
0.00023914
0.000241954
0.000243112
0.00023561
0.000243545
0.000237723
0.000234268
0.000240156
0.000240976
0.000241011
0.000236505
0.000240088
0.000231644
0.00023884
0.000243677
0.000235618
0.000233591
0.000240942
0.000233966
0.00023388
0.000237539
0.000241256
0.000237512
0.000231373
0.000237372
0.000239383
0.000240498
0.000232948
0.00023968
0.000237632
0.000236009
0.000230827
0.000225222
0.000243925
0.000229392
0.000239183
0.000234392
0.000227687
0.00023411
0.000237762
0.000242553
0.000234917
0.00023967
0.000233773
0.000238912
0.000233392
0.000239894
0.00023761
0.000233204
0.000236213
0.000230526
0.000239875
0.000231355
0.00024137
0.000232628
0.000241136
0.000236851
0.000232489
0.000233172
0.00023107
0.00024057
0.000233603
0.00023893
0.000231242
0.000239291
0.000236183
0.000235065
0.000235337
0.000238024
0.000242004
0.000239518
0.000241397
0.000234831
0.000238957
0.000229804
0.0002329
0.000238148
0.000240068
0.000236245
0.000227654
0.000239056
0.00023672
0.000234382
0.000232169
0.0002371
0.000241909
0.000233666
0.000234445
0.000230243
0.000234696
0.000230927
0.000241284
0.000240211
0.000240075
0.000234816
0.000230781
0.00023619
0.000235704
0.000237278
0.000228529
0.000236012
0.000231744
0.000238534
0.00023745
0.000240942
0.000242314
0.000236279
0.000234523
0.000226954
0.00023405
0.000231479
0.000239938
0.000229151
0.000226398
0.000238271
0.000239855
0.000235943
0.000231749
0.000232829
0.000225744
0.000233978
0.000232326
0.000235428
0.00023459
0.000243422
0.000241073
0.000235636
0.000234195
0.000230535
0.000231415
0.000228712
0.00023714
0.000228143
0.000233457
0.000230913
0.000235335
0.000235762
0.000239954
0.000238397
0.000235927
0.000239642
0.000224692
0.000230073
0.000227558
0.000233492
0.000229026
0.000238573
0.000235903
0.000234015
0.000231631
0.000229044
0.000229984
0.000227619
0.000238708
0.000230035
0.000236348
0.000224985
0.000229853
0.00022645
0.000230018
0.000229884
0.000237591
0.000226319
0.000231899
0.000236943
0.000235567
0.000234615
0.00022235
0.00023028
0.000234267
0.000236388
0.000238656
0.00023906
0.000241853
0.000240699
0.000247972
0.000258482
0.000236054
0.000220487
0.000221276
0.000230519
5.97194e-05
7.63585e-05
0.000104338
0.00014181
0.000172465
0.00020221
0.000230766
0.000257217
0.000279133
0.000298142
0.00031115
0.000320772
0.000328785
0.000335578
0.000341283
0.000346066
0.000350122
0.000353604
0.000356613
0.000359173
0.000361356
0.000363236
0.000364872
0.000366293
0.000367512
0.000368561
0.000369466
0.000370255
0.000370941
0.000371525
0.000372018
0.000372435
0.000372788
0.000373089
0.000373336
0.000373533
0.000373684
0.000373799
0.000373882
0.00037394
0.000373967
0.00037397
0.000373948
0.000373908
0.000373852
0.000373783
0.000373698
0.000373599
0.000373486
0.000373365
0.000373234
0.000373099
0.000372952
0.000372801
0.000372641
0.000372478
0.000372308
0.000372137
0.000371959
0.000371782
0.000371597
0.000371414
0.000371224
0.000371039
0.000370847
0.00037066
0.000370465
0.000370277
0.000370081
0.000369895
0.000369701
0.000369519
0.000369327
0.00036915
0.000368962
0.000368793
0.000368613
0.000368456
0.000368286
0.000368144
0.000367989
0.00036787
0.000367734
0.000367652
0.000367541
0.000367491
0.000367401
0.000367372
0.000367356
0.000367402
0.000367422
0.000367591
0.000367741
0.000368116
0.00036853
0.000369407
0.000369999
0.000374775
0.000371894
0.000323254
0.000293344
0.000322683
0.000342737
0.000351288
0.000356575
0.00035851
0.000360745
0.000361013
0.000359021
0.000359337
0.000358115
0.000358463
0.000356844
0.000349874
0.000354232
0.000349889
0.000347105
0.000350059
0.000339337
0.00033926
0.00034303
0.000344912
0.000335851
0.000344714
0.000339652
0.000332505
0.00033942
0.000341518
0.000341688
0.000335749
0.000339376
0.000328827
0.00033546
0.000343376
0.000335729
0.000330444
0.000339275
0.000332065
0.000329321
0.000333846
0.00033894
0.000335581
0.000326957
0.000333289
0.000336944
0.000338671
0.000329748
0.000336545
0.000336178
0.000332644
0.000325767
0.00030464
0.000342696
0.000326873
0.000336878
0.000332864
0.000325975
0.000328615
0.000320445
0.000340133
0.000331704
0.000336044
0.000328658
0.000333421
0.000326676
0.000332801
0.000332778
0.00033117
0.000331613
0.000319568
0.000336648
0.000326559
0.000337923
0.000328434
0.000337319
0.000334214
0.000327871
0.000325786
0.000314449
0.000335981
0.000329459
0.000335158
0.000326528
0.000335381
0.00033351
0.000330377
0.000331138
0.000332756
0.000340651
0.000339606
0.000341232
0.000333017
0.000336626
0.000324961
0.000329983
0.000334739
0.000337634
0.000333442
0.000321871
0.000335064
0.000334223
0.000330183
0.000326579
0.000331081
0.000341303
0.000331183
0.00032937
0.000323747
0.00032822
0.000324455
0.00033751
0.000338887
0.000338163
0.000332147
0.000325054
0.000331306
0.000331101
0.000333421
0.000322757
0.000330777
0.000326778
0.00033376
0.000335065
0.00033371
0.000342758
0.00033566
0.000331591
0.000320606
0.000327612
0.000325252
0.000335698
0.000324913
0.00032363
0.000334033
0.000337989
0.000333653
0.000326199
0.00032627
0.000317689
0.000326982
0.000326423
0.000330332
0.000330542
0.000341858
0.000342583
0.000335459
0.000332381
0.000325881
0.000325739
0.000322257
0.000332891
0.000323047
0.000327861
0.000325478
0.000329842
0.000332533
0.000332428
0.000338801
0.000334899
0.000339755
0.000320301
0.000323408
0.000319776
0.000326474
0.000322136
0.000333884
0.000333604
0.000331076
0.000327286
0.000322839
0.000324105
0.000306226
0.000336776
0.000326876
0.000333809
0.000319993
0.000322754
0.000318883
0.000322083
0.000322784
0.000334168
0.000322895
0.000333594
0.000337309
0.000335919
0.000334435
0.000317197
0.000324452
0.000330218
0.000333792
0.000337958
0.000338627
0.0003427
0.000341357
0.000334672
0.000369147
0.000342068
0.000311079
0.000304644
0.000312545
5.34164e-05
6.02925e-05
7.42523e-05
9.8501e-05
0.000132542
0.000164556
0.000191909
0.000221566
0.000250138
0.000278282
0.00030281
0.000324654
0.000343586
0.000360079
0.000372936
0.000382773
0.000391404
0.000399055
0.00040586
0.000411853
0.000417157
0.000421892
0.000426145
0.000429965
0.000433386
0.000436462
0.000439239
0.000441761
0.000444052
0.000446122
0.000447998
0.000449703
0.000451257
0.000452682
0.000453977
0.000455153
0.000456224
0.000457203
0.000458098
0.00045892
0.000459666
0.000460345
0.000460962
0.000461525
0.000462041
0.000462512
0.000462938
0.000463322
0.000463668
0.000463982
0.000464266
0.000464523
0.000464751
0.000464954
0.000465132
0.000465291
0.000465429
0.000465551
0.000465654
0.000465742
0.000465813
0.000465873
0.000465917
0.000465954
0.000465975
0.000465991
0.000465993
0.000465991
0.000465976
0.000465961
0.000465934
0.00046591
0.000465872
0.000465841
0.000465797
0.000465764
0.000465719
0.00046569
0.000465647
0.000465627
0.000465593
0.000465592
0.000465572
0.000465609
0.000465613
0.000465693
0.000465713
0.000465804
0.000465908
0.000466093
0.000466232
0.000466572
0.000466867
0.00046746
0.000468087
0.000469318
0.000470257
0.000476132
0.000472883
0.000417114
0.000384061
0.000389878
0.000418847
0.00043644
0.000445736
0.000451475
0.000456638
0.000459391
0.000459142
0.00046074
0.000460473
0.000461967
0.000460815
0.000453779
0.000457993
0.000454043
0.00045012
0.000453243
0.000441909
0.000440032
0.000443717
0.000446121
0.000436859
0.000445978
0.000441538
0.000432543
0.000439206
0.000442075
0.000442495
0.000436194
0.000439268
0.000427457
0.000432738
0.000442559
0.000436009
0.000429007
0.000438068
0.000430769
0.000426256
0.000430734
0.000436536
0.000433751
0.000423727
0.000429562
0.000434265
0.000436491
0.000427247
0.000433873
0.000434348
0.000429907
0.000421703
0.000401397
0.000441263
0.00042579
0.000435439
0.000431887
0.000422704
0.000424917
0.000412817
0.000438237
0.000429998
0.00043345
0.000425267
0.000428985
0.000421102
0.000426235
0.000427292
0.000427409
0.000426606
0.000421416
0.000432872
0.000422759
0.000434175
0.000424839
0.000433498
0.000431077
0.000422845
0.000419086
0.000406818
0.000430183
0.00042484
0.000430476
0.000421888
0.000430876
0.000429897
0.000425938
0.000426791
0.000429739
0.000438467
0.000439188
0.000440797
0.000432365
0.000435175
0.000421805
0.000424797
0.000430967
0.000434602
0.000430998
0.000417892
0.000431514
0.000431814
0.000426991
0.00042229
0.000427325
0.000439955
0.000429742
0.000425679
0.000418615
0.000422345
0.000418434
0.000432843
0.000436375
0.000436171
0.000430216
0.0004208
0.00042676
0.000426644
0.000429532
0.000418131
0.000425793
0.000422105
0.000429018
0.000431875
0.000427525
0.000442791
0.00043589
0.000430705
0.000416869
0.000422555
0.000420193
0.000431498
0.000421072
0.000417829
0.000429644
0.000435557
0.000431599
0.000422153
0.000421126
0.000411057
0.000420097
0.000420281
0.000424724
0.000426021
0.000437204
0.000442687
0.000435788
0.000432185
0.000423415
0.000422229
0.000417558
0.000428806
0.000418945
0.00042289
0.000420307
0.000424152
0.000428646
0.000424725
0.000438739
0.000433469
0.000440857
0.000419411
0.000419557
0.000414323
0.000420517
0.000416313
0.000429151
0.000430756
0.000427815
0.000424108
0.000417608
0.000419191
0.000395611
0.000434863
0.000425355
0.000432056
0.000417331
0.00041743
0.000412928
0.000414684
0.000415764
0.000429451
0.000419673
0.000431809
0.000436793
0.000436575
0.000435422
0.000415526
0.000421075
0.000427308
0.00043186
0.000437463
0.000438729
0.000439058
0.000443326
0.000423184
0.000481587
0.000454664
0.000410715
0.000398529
0.000392901
5.38767e-05
5.16072e-05
5.68097e-05
6.83613e-05
8.92021e-05
0.000119235
0.000155716
0.000179574
0.000206509
0.000234907
0.000262758
0.000291289
0.000317163
0.000341433
0.00036355
0.000382958
0.000400398
0.000415986
0.000429835
0.000440015
0.0004492
0.000457546
0.000465161
0.000472104
0.000478415
0.000484176
0.000489457
0.000494319
0.000498796
0.000502909
0.000506698
0.000510198
0.00051344
0.000516452
0.000519239
0.000521821
0.000524219
0.000526452
0.000528533
0.000530477
0.000532284
0.000533969
0.000535542
0.000537013
0.000538393
0.000539684
0.00054089
0.000542017
0.000543072
0.000544063
0.000544993
0.000545867
0.000546684
0.000547451
0.000548169
0.000548844
0.000549478
0.000550075
0.000550633
0.000551158
0.000551648
0.00055211
0.000552542
0.000552951
0.000553332
0.000553692
0.000554026
0.000554343
0.000554637
0.000554919
0.00055518
0.000555432
0.000555664
0.00055589
0.000556098
0.000556307
0.000556499
0.000556698
0.00055688
0.000557076
0.000557254
0.000557461
0.000557646
0.000557884
0.000558087
0.000558374
0.000558595
0.000558881
0.000559181
0.000559578
0.000559919
0.000560497
0.000561014
0.000561886
0.000562796
0.000564416
0.000565786
0.000572527
0.000568901
0.000510233
0.000479093
0.000460323
0.000483679
0.000509489
0.000527106
0.00053608
0.000543954
0.000549421
0.000551536
0.000554831
0.000556153
0.000559191
0.000559027
0.000552929
0.000557435
0.000553894
0.000549939
0.000552948
0.000541986
0.000538807
0.000542095
0.000544775
0.00053611
0.000545156
0.000541116
0.000531634
0.000537596
0.000540903
0.000541513
0.00053552
0.000537813
0.000525427
0.000529386
0.000540111
0.000534488
0.000527006
0.000535728
0.000528377
0.000522833
0.000526841
0.00053295
0.000530494
0.000519982
0.000524991
0.000530267
0.000532751
0.000523731
0.000530108
0.000530898
0.000526141
0.000517026
0.00051147
0.000538087
0.000523895
0.00053302
0.000529679
0.000519679
0.000521214
0.000520325
0.00053566
0.000528094
0.000530462
0.000522014
0.000524464
0.00051561
0.000519541
0.000520808
0.000520523
0.000520256
0.000520936
0.00052722
0.000518206
0.000529059
0.000520321
0.000528434
0.000526268
0.000517245
0.000511989
0.00050268
0.000522736
0.000518734
0.000523996
0.000515963
0.000524749
0.000524343
0.000520261
0.000521077
0.000525798
0.00053428
0.000536528
0.000538506
0.000530752
0.000532817
0.000518487
0.000519779
0.000526279
0.00053033
0.000527335
0.000514047
0.000527347
0.000528403
0.000523277
0.000517927
0.000525525
0.000537025
0.00052745
0.000521756
0.000513451
0.000516141
0.000512106
0.000524162
0.000532012
0.000532703
0.000527009
0.000516563
0.00052165
0.00052178
0.00052466
0.00051326
0.000520145
0.000516719
0.00052349
0.000527254
0.000527666
0.000540986
0.000535074
0.000529402
0.000513964
0.000517873
0.000515424
0.000526754
0.000516562
0.000512295
0.000524489
0.000531857
0.00052828
0.000518047
0.000516061
0.000504757
0.000512946
0.000513492
0.000518118
0.000520306
0.000530457
0.000540394
0.000534747
0.000531063
0.000521274
0.000519045
0.000513398
0.000524284
0.000514681
0.00051765
0.000514636
0.000518027
0.000523487
0.000523083
0.000536965
0.000536011
0.000540956
0.000519311
0.000516627
0.000510026
0.000515048
0.000510853
0.000523812
0.000526712
0.000524065
0.000520456
0.000512669
0.000514109
0.000502381
0.000531982
0.000523704
0.000529678
0.000515037
0.000512672
0.000507495
0.000507376
0.00050825
0.000523216
0.000515308
0.000524578
0.000534365
0.00053573
0.000535235
0.00051471
0.000518578
0.000524574
0.00052966
0.000536199
0.000538228
0.000538054
0.000545225
0.000516976
0.000592673
0.000567951
0.000516783
0.000493632
0.000478437
6.74576e-05
4.9982e-05
4.83926e-05
5.19879e-05
6.15063e-05
7.87796e-05
0.000105067
0.000137379
0.000170186
0.000192403
0.000217599
0.000244747
0.000271225
0.000299169
0.000325638
0.000350801
0.00037481
0.000396787
0.000417155
0.000435659
0.000452356
0.000467462
0.000481391
0.000493375
0.000503054
0.000511985
0.000520259
0.000527947
0.000535087
0.000541699
0.000547844
0.000553568
0.000558916
0.000563922
0.000568593
0.00057296
0.000577049
0.00058089
0.000584499
0.000587894
0.00059108
0.00059408
0.000596905
0.000599571
0.000602091
0.00060447
0.000606714
0.000608835
0.000610842
0.000612744
0.000614547
0.000616256
0.000617874
0.00061941
0.000620866
0.000622251
0.000623567
0.00062482
0.000626009
0.00062714
0.000628214
0.00062924
0.000630216
0.000631148
0.000632034
0.000632881
0.000633686
0.000634457
0.000635192
0.000635898
0.000636571
0.00063722
0.000637838
0.000638436
0.000639008
0.000639567
0.000640101
0.000640631
0.000641136
0.000641645
0.000642131
0.000642637
0.000643116
0.000643642
0.000644129
0.000644698
0.000645208
0.000645767
0.000646335
0.000647014
0.000647633
0.000648512
0.000649315
0.000650516
0.000651758
0.000653782
0.000655623
0.000662966
0.000658951
0.000600203
0.000561836
0.000535967
0.000550657
0.000565685
0.000602365
0.000613575
0.000623654
0.000631577
0.000636101
0.000641189
0.000644428
0.00064915
0.000650308
0.000645766
0.000650899
0.000647951
0.000644762
0.000647594
0.000637669
0.000633758
0.000636799
0.000639566
0.000631989
0.000640817
0.000637064
0.00062794
0.000633125
0.000636782
0.00063748
0.000632177
0.000633667
0.000621245
0.00062419
0.000635185
0.000630255
0.00062297
0.000631074
0.000623747
0.000617725
0.000621155
0.000627338
0.000624992
0.000614561
0.000618669
0.000624201
0.000626741
0.000618202
0.000624276
0.000625089
0.000620355
0.000610633
0.000616483
0.000632135
0.000619904
0.000628425
0.000625234
0.000615353
0.000616168
0.000623379
0.000631112
0.000624739
0.000626027
0.000617715
0.000618912
0.000609329
0.000612073
0.000612978
0.000612503
0.000612214
0.000612934
0.000619359
0.000612007
0.000621989
0.000614053
0.000621411
0.000619271
0.000610075
0.000603636
0.000598834
0.00061336
0.000610713
0.000615411
0.000608156
0.000616411
0.000616454
0.000612603
0.000613326
0.000618279
0.000627572
0.000631178
0.000633646
0.000627009
0.000628465
0.000613783
0.000613884
0.000620175
0.000624479
0.000621859
0.000609193
0.000621788
0.000623322
0.000618171
0.000612558
0.000622754
0.000632088
0.000623402
0.000616524
0.000607391
0.000608863
0.000604915
0.000612444
0.000625638
0.000627194
0.000621785
0.000611273
0.000615337
0.000615904
0.00061835
0.000607371
0.00061331
0.000610096
0.000616649
0.000620914
0.000628668
0.000636712
0.000632337
0.000626282
0.000610443
0.000612693
0.000610168
0.000621013
0.000610906
0.000606196
0.000618189
0.00062658
0.000623229
0.000612924
0.000609937
0.000598063
0.000605193
0.000605823
0.000610336
0.000613167
0.000621965
0.000635583
0.000631612
0.00062794
0.000618086
0.000614947
0.000608847
0.000618806
0.000609586
0.000611543
0.000608007
0.000611039
0.000616889
0.000624695
0.000632955
0.000633949
0.000639005
0.000618312
0.000613245
0.000605783
0.000609415
0.000605189
0.000615335
0.000621332
0.000619197
0.000615465
0.000607199
0.000608115
0.000611422
0.000627312
0.000620911
0.000625968
0.000611984
0.000607621
0.000601746
0.000599726
0.000596025
0.000615569
0.000609446
0.000612711
0.000629823
0.000632828
0.000632942
0.0006131
0.000615393
0.000621199
0.0006265
0.000633637
0.000636466
0.000640742
0.000646103
0.000608477
0.000701121
0.000678595
0.000625114
0.000593095
0.000574049
0.000107646
5.91573e-05
4.83499e-05
4.56602e-05
4.77461e-05
5.50383e-05
6.90203e-05
9.05699e-05
0.000118681
0.000151092
0.000181939
0.000203174
0.00022668
0.000252074
0.000277147
0.000303674
0.000330381
0.000355616
0.000380329
0.00040398
0.000426058
0.000446734
0.000466101
0.00048398
0.000500343
0.000515431
0.00052932
0.000542215
0.00055365
0.000563085
0.000571915
0.000580199
0.000587988
0.000595321
0.000602197
0.000608662
0.00061475
0.000620499
0.000625931
0.000631065
0.000635911
0.000640497
0.000644838
0.000648957
0.000652869
0.000656579
0.0006601
0.000663446
0.000666627
0.000669657
0.000672545
0.000675296
0.000677915
0.000680414
0.000682798
0.000685076
0.000687253
0.000689335
0.000691323
0.000693226
0.000695045
0.000696789
0.000698461
0.000700063
0.000701599
0.000703072
0.000704484
0.000705842
0.000707147
0.000708404
0.000709612
0.000710777
0.000711898
0.000712982
0.000714027
0.000715044
0.000716026
0.000716988
0.000717917
0.000718836
0.000719724
0.00072062
0.000721482
0.000722382
0.000723236
0.000724167
0.000725042
0.000725954
0.000726859
0.000727888
0.000728859
0.000730092
0.000731238
0.000732811
0.000734422
0.000736853
0.000739175
0.000746869
0.000742484
0.000685486
0.000642781
0.000613454
0.000623488
0.000622493
0.00065756
0.00067751
0.000696893
0.000706832
0.000713455
0.000720195
0.000725379
0.000731797
0.000734438
0.00073171
0.000737644
0.000735494
0.000733558
0.000736296
0.000727857
0.000723727
0.000726816
0.00072958
0.000723395
0.000731976
0.000728519
0.000720267
0.000724739
0.000728755
0.000729486
0.000725124
0.000725911
0.000713841
0.000716098
0.000727003
0.000722628
0.000715919
0.000723262
0.000716031
0.000709937
0.00071283
0.000718976
0.000716642
0.000706642
0.000709876
0.000715454
0.000717919
0.000709996
0.000715691
0.00071639
0.000711879
0.00070178
0.000707858
0.000723053
0.00071308
0.000717121
0.000717906
0.000708705
0.0007089
0.000715918
0.000723882
0.000719069
0.000719352
0.000711454
0.000711509
0.000701473
0.000703184
0.000703471
0.000702889
0.000702255
0.000703263
0.000709216
0.000703674
0.000712608
0.000705531
0.000710106
0.000709795
0.000700766
0.000693396
0.000692104
0.000701812
0.000700481
0.000704551
0.000698163
0.000702477
0.000706031
0.000702578
0.000703099
0.000708475
0.000718161
0.000722975
0.000725853
0.000720523
0.000721508
0.000706902
0.000706284
0.000712149
0.000716756
0.00071425
0.00070263
0.0007143
0.000716094
0.000711093
0.000705519
0.00071721
0.000724855
0.000717113
0.000709312
0.000699805
0.000699986
0.000696362
0.000698548
0.000717154
0.000719413
0.000714145
0.000704223
0.000707343
0.000708462
0.000710265
0.000699948
0.000704919
0.000701891
0.000708157
0.000712646
0.000721607
0.000729802
0.00072708
0.000720783
0.00070536
0.000706083
0.000703707
0.00071382
0.000703746
0.000698968
0.000710434
0.000719498
0.000716233
0.000706249
0.000702235
0.000690398
0.000696454
0.000696989
0.000701164
0.000704459
0.000711383
0.00072831
0.00072603
0.000722383
0.000713048
0.000708972
0.000703095
0.000711889
0.000703144
0.00070412
0.000700059
0.000702834
0.000708725
0.000719795
0.000726532
0.000729456
0.000734513
0.000715469
0.000708548
0.000700693
0.000702975
0.00069876
0.000703623
0.000714517
0.000712886
0.000708757
0.000700599
0.000700804
0.000708624
0.000720557
0.000716418
0.000720524
0.000707513
0.000701583
0.000695103
0.000691328
0.000682452
0.000706566
0.000702006
0.000697364
0.000723202
0.000727765
0.000728263
0.000709813
0.000710812
0.000716539
0.000721874
0.000729402
0.000733028
0.000742379
0.000745336
0.000702224
0.000806413
0.000785932
0.000732892
0.000694656
0.000678283
0.00011349
8.73522e-05
6.0248e-05
4.92565e-05
4.48093e-05
4.49544e-05
4.98533e-05
6.03753e-05
7.72059e-05
0.00010064
0.000129382
0.000161164
0.00019262
0.000212635
0.000234438
0.000257984
0.000282024
0.000306547
0.000332551
0.000357588
0.000382288
0.00040659
0.000429702
0.000451702
0.000472842
0.000492731
0.000511314
0.000528809
0.000545245
0.000560363
0.00057439
0.00058756
0.000599822
0.000611336
0.000620646
0.000629442
0.000637769
0.000645668
0.000653166
0.000660276
0.000667013
0.000673412
0.000679494
0.000685287
0.000690809
0.000696064
0.000701069
0.000705842
0.000710398