/*--------------------------------*- C++ -*----------------------------------*\
| =========                 |                                                 |
| \\      /  F ield         | foam-extend: Open Source CFD                    |
|  \\    /   O peration     | Version:     3.2                                |
|   \\  /    A nd           | Web:         http://www.foam-extend.org         |
|    \\/     M anipulation  | For copyright notice see file Copyright         |
\*---------------------------------------------------------------------------*/
FoamFile
{
    version     2.0;
    format      ascii;
    class       volScalarField;
    location    "160";
    object      omega;
}
// * * * * * * * * * * * * * * * * * * * * * * * * * * * * * * * * * * * * * //

dimensions      [0 0 -1 0 0 0 0];

internalField   nonuniform List<scalar> 
96000
(
1337.8
1193.99
994.732
901.562
863.834
843.375
828.243
814.772
802.17
790.562
780.053
770.539
761.827
753.972
746.83
740.281
734.237
728.616
723.428
718.667
714.214
710.009
706.034
702.285
698.747
695.385
692.189
689.141
686.236
683.476
680.826
678.298
675.857
673.526
671.277
669.129
667.042
665.043
663.1
661.232
659.423
657.676
655.98
654.34
652.741
651.2
649.695
648.246
646.819
645.449
644.096
642.798
641.517
640.287
639.07
637.899
636.738
635.626
634.503
633.442
632.366
631.361
630.332
629.379
628.394
627.496
626.551
625.705
624.801
624.006
623.143
622.405
621.586
620.907
620.133
619.521
618.804
618.264
617.62
617.167
616.611
616.263
615.833
615.611
615.37
615.293
615.301
615.468
615.749
616.313
617.136
618.195
619.841
621.666
624.959
628.331
635.891
638.902
679.605
657.193
513.133
496.978
510.029
508.871
514.637
517.076
516.459
522.568
523.791
521.477
527.727
526.627
536.316
534.559
519.661
556.843
519.456
542.364
540.659
527.555
522.876
542.601
537.053
520.693
564.704
518.124
529.404
536.527
549.438
538.046
540.91
547.31
513.637
538.235
568.371
527.601
536.937
565.776
523.48
534.99
535.113
560.444
534.626
528.804
538.276
547.961
545.688
519.036
561.846
532.719
550.9
495.074
552.254
565.717
527.817
588.415
533.63
551.151
533.048
571.367
567.488
566.077
570.202
554.311
565.781
526.587
568.456
532.473
565.505
524.936
564.204
542.991
543.71
566.743
529.196
579.343
531.435
548.169
511.057
540.74
539.648
535.457
541.39
517.17
557.603
519.928
534.704
515.754
540.973
544.592
555.854
552.902
544.644
559.363
508.984
547.05
535.247
564.528
533.398
524.544
565.102
540.028
535.827
512.106
570.692
556.451
551.997
533.585
530.897
525.941
514.557
564.928
539.483
568.36
527.574
536.931
531.03
547.393
535.627
518.106
540.575
508.316
549.912
521.159
562.468
555.786
565.385
539.589
531.721
536.188
528.544
570.592
500.783
531.628
545.177
568.165
533.316
542.644
523.191
510.217
528.983
513.35
522.994
505.658
566.586
543.498
560.317
534.405
545.095
519.295
530.217
546.747
512.603
537.332
497.765
535.223
512.145
562.233
533.039
568.755
560.958
533.453
531.025
525.912
530.941
509.183
563.015
525.134
553.852
513.935
533.148
498.79
549.854
534.85
544.25
545.393
523.374
515.943
513.953
494.404
509.834
529.278
481.794
551.593
523.862
554.641
532.384
509.118
519.145
531.81
527.486
549.016
536.333
571.318
547.392
631.375
714.283
627.054
570.383
549.633
497.193
517.199
492.029
452.319
418.384
393.181
374.395
360.151
348.937
339.83
332.099
325.489
319.733
314.713
310.278
306.293
302.711
299.456
296.5
293.795
291.305
288.999
286.855
284.857
282.986
281.229
279.574
278.014
276.536
275.142
273.812
272.554
271.348
270.203
269.104
268.059
267.051
266.088
265.16
264.27
263.411
262.586
261.786
261.019
260.271
259.555
258.855
258.186
257.527
256.898
256.278
255.685
255.1
254.54
253.987
253.458
252.932
252.432
251.931
251.457
250.98
250.53
250.076
249.65
249.216
248.814
248.399
248.02
247.624
247.266
246.889
246.553
246.194
245.882
245.543
245.253
244.938
244.673
244.385
244.149
243.894
243.691
243.479
243.314
243.161
243.053
242.99
242.955
242.977
243.048
243.245
243.449
243.902
244.328
245.187
245.971
247.774
248.498
254.721
274.209
258.238
225.619
213.313
207.794
205.015
204.224
203.224
203.578
204.618
204.168
204.905
204.951
206.653
209.957
208.122
208.3
211.489
208.499
213.394
210.88
208.435
208.252
212.802
207.68
211.204
215.859
209.711
209.972
211.203
214.652
212.224
216.712
211.816
208.109
214.23
218.071
212.216
216.194
217.356
212.426
211.735
213.853
217.393
211.952
211.14
212.29
216.927
213.222
212.184
215.966
213.906
211.152
207.961
220.44
214.449
217.887
223.933
217.998
216.256
217.042
224.762
222.253
226.611
222.426
225.142
220.967
218.105
220.656
217.428
218.603
215.004
221.776
215.083
221.932
216.366
218.188
223.301
218.464
214.913
209.484
214.79
211.391
215.942
210.268
211.8
214.613
210.653
209.521
208.728
212.219
213.461
218.483
215.715
220.468
216.236
210.848
213.032
214.787
219.254
210.951
214.403
217.565
216.113
211.859
212.233
220.132
218.586
217.627
212.827
213.378
207.286
211.022
215.85
216.614
218.913
212.637
213.648
211.894
216.261
209.635
212.716
210.141
208.344
210.03
211.177
218.031
218.953
221.306
214.195
215.209
210.244
215.739
218.137
209.463
211.034
215.624
219.027
214.73
215.28
207.61
208.529
206.217
206.521
204.413
207.359
215.285
215.01
217.323
213.911
214.175
208.153
214.81
209.728
209.02
208.389
205.157
206.331
208.176
214.093
213.342
223.6
217.602
216.012
210.77
212.705
207.69
209.756
215.302
213.101
214.157
208.845
207.045
205.712
214.241
210.363
217.435
213.013
210.779
207.053
203.813
198.763
207.129
203.604
202.254
208.375
209.253
216.377
208.654
206.369
206.657
207.615
209.801
211.27
215.006
213.81
220.661
250.073
266.642
254.421
237.292
210.519
283.144
296.912
287.41
274.511
260.432
247.127
235.674
226.195
218.23
211.54
205.917
201.083
196.885
193.188
189.898
186.969
184.338
181.963
179.803
177.832
176.026
174.363
172.824
171.39
170.053
168.801
167.629
166.525
165.487
164.503
163.575
162.692
161.856
161.059
160.301
159.575
158.883
158.22
157.585
156.976
156.391
155.828
155.288
154.765
154.263
153.776
153.309
152.855
152.418
151.992
151.582
151.182
150.797
150.421
150.058
149.702
149.361
149.022
148.698
148.376
148.069
147.764
147.473
147.182
146.908
146.631
146.37
146.107
145.861
145.61
145.377
145.139
144.919
144.694
144.487
144.276
144.082
143.885
143.706
143.526
143.362
143.203
143.055
142.921
142.799
142.701
142.618
142.562
142.508
142.514
142.513
142.6
142.671
142.867
143.004
143.412
143.139
143.965
157.805
167.732
150.776
138.939
132.048
127.476
124.964
123.271
122.038
121.836
121.456
121.001
120.895
120.674
122.624
122.324
120.216
125.227
121.475
124.213
123.696
123.69
121.111
124.224
122.116
120.903
127.224
123.624
123.196
122.044
125.259
123.732
126.426
126.33
121.921
122.188
128.013
124.433
124.826
128.105
125.318
124.819
122.888
127.745
125.322
124.255
123.458
126.466
125.411
122.691
126.336
124.985
129.791
121.14
126.537
125.056
123.372
131.062
126.937
129.542
125.227
129.476
128.213
131.358
130.073
131.735
131.239
127.254
131.42
126.11
131.95
125.074
130.587
126.314
129.075
127.701
125.238
131.818
128
131.306
124.387
126.651
124.445
126.957
124.779
123.05
126.921
123.891
125.654
121.984
123.366
122.835
126.319
125.36
128.086
129.373
123.818
125.499
122.702
129.084
124.75
124.027
126.564
127.647
127.269
121.785
126.911
126.422
128.824
125.991
127.131
123.454
121.953
124.702
123.374
129.64
125.454
126.862
123.35
127.309
124.444
124.902
124.987
121.753
124.207
120.755
125.323
124.416
129.917
126.574
127.149
123.916
124.549
130.176
123.836
123.282
122.638
128.586
125.535
128.371
124.402
123.512
122.669
122.259
121.801
118.111
124.099
122.203
127.351
124.16
127.622
122.731
125.29
124.352
123.278
124.765
120.39
122.496
118.288
124.961
121.047
128.202
126.835
127.76
124.8
125.786
123.192
120.828
125.894
122.478
127.875
122.636
126.624
119.283
125.048
121.732
126.284
124.933
125.583
123.051
123.46
118.173
121.123
121.292
116.668
121.059
118.598
125.808
123.477
122.177
120.577
121.59
120.924
122.755
122.293
124.147
118.331
128.529
148.679
151.333
145.884
92.5558
155.066
187.413
200.034
199.201
194.735
189.413
182.689
175.77
169.119
163.149
157.917
153.322
149.274
145.705
142.562
139.776
137.281
135.03
132.987
131.132
129.443
127.896
126.471
125.15
123.923
122.78
121.717
120.72
119.785
118.903
118.073
117.289
116.549
115.846
115.179
114.543
113.938
113.362
112.811
112.284
111.78
111.296
110.833
110.387
109.959
109.546
109.149
108.765
108.396
108.039
107.695
107.36
107.038
106.725
106.422
106.128
105.844
105.565
105.297
105.033
104.779
104.529
104.289
104.052
103.825
103.6
103.385
103.172
102.968
102.765
102.572
102.379
102.196
102.013
101.839
101.666
101.501
101.339
101.183
101.031
100.884
100.744
100.607
100.478
100.355
100.241
100.141
100.053
99.9581
99.8897
99.816
99.7744
99.7159
99.6932
99.6083
99.5752
99.0571
98.7296
107.684
119.265
113.292
105.91
100.009
95.5694
92.6251
90.5865
88.8484
87.9765
87.3789
86.5314
86.1881
85.44
86.3428
86.1935
84.7718
87.8081
85.3782
86.7707
86.7127
87.3208
85.1112
86.7636
85.7326
84.5552
88.3558
86.7588
86.4561
85.1429
87.0219
86.2491
87.9762
88.7001
85.7948
85.054
88.6133
86.8917
86.8441
89.1144
87.8434
87.4861
85.7274
88.8592
87.9106
87.247
86.2206
87.9792
87.7026
85.8843
87.8081
87.5246
91.7409
85.328
87.4898
86.9417
85.4365
89.8209
88.1133
90.9228
87.1651
89.1567
88.4705
90.4939
90.2302
91.4471
91.7602
89.483
91.7014
88.5988
92.4405
87.9825
91.0212
88.5563
89.8281
89.4392
87.577
91.2887
89.4865
92.9722
88.537
89.2594
87.7184
89.0634
88.0305
86.5291
88.7255
87.1934
88.8067
85.87
86.2299
85.2644
87.2566
86.958
88.689
90.2899
87.2762
87.983
85.368
89.6189
87.4961
86.4073
87.8633
89.2163
89.3671
85.2758
87.5928
87.3157
89.9177
88.533
89.5883
87.3964
85.4164
86.4304
85.3391
89.9657
88.0543
89.0471
86.4735
88.8849
87.6023
87.6037
87.8066
85.7795
87.3531
84.0868
86.3316
85.3373
89.7285
88.4703
88.9887
87.0048
86.9166
90.5839
87.2267
86.4188
85.0309
88.8198
87.3292
90.1216
88.1695
87.3118
86.8186
86.3911
86.0218
82.7272
85.6165
84.1295
87.8014
86.0811
89.1987
86.3535
87.4375
87.3742
86.7473
87.8843
85.1093
86.4286
82.7132
86.4658
83.3255
87.532
87.5776
89.0269
87.5924
88.2415
86.8223
84.6586
87.1436
85.0986
89.14
86.4015
89.9468
84.1589
86.8114
84.7082
87.3619
86.9916
88.2345
86.7733
87.8095
84.2731
85.1661
85.2439
82.0231
84.2355
81.9962
86.5734
86.1844
85.7699
84.4051
85.0558
83.9002
85.3396
84.0761
85.9465
79.5068
82.7429
95.7168
101.644
102.234
40.7171
81.6928
111.692
133.589
145.942
150.942
150.632
148.6
145.712
141.813
137.459
133.086
128.946
125.123
121.641
118.525
115.727
113.205
110.919
108.863
107.002
105.311
103.765
102.342
101.028
99.8132
98.6868
97.6411
96.6648
95.7501
94.8914
94.0856
93.327
92.6129
91.9367
91.2959
90.6881
90.1109
89.5626
89.0406
88.542
88.0659
87.6102
87.1747
86.7571
86.3573
85.9722
85.6028
85.2467
84.9044
84.5743
84.2566
83.949
83.6526
83.3652
83.0883
82.8192
82.56
82.3069
82.0626
81.8238
81.5934
81.3679
81.1506
80.9375
80.7321
80.5303
80.3359
80.1446
79.9604
79.779
79.6042
79.4319
79.2657
79.1021
78.9438
78.7886
78.6378
78.4905
78.3467
78.2072
78.0698
77.9381
77.807
77.6821
77.5587
77.4387
77.3295
77.2286
77.1177
77.0171
76.9118
76.8165
76.7037
76.5939
76.4233
76.2324
75.6504
75.1035
81.044
90.2015
89.5585
85.8193
81.7566
78.0888
75.35
73.2604
71.4295
70.2701
69.4829
68.495
67.9661
67.0836
67.3602
67.1228
66.1738
67.791
66.3345
67.0117
67.0258
67.5479
66.0376
66.8737
66.2283
65.3799
67.5984
66.8451
66.6611
65.6239
66.6335
66.1969
67.3539
68.0412
66.2433
65.511
67.5393
66.622
66.5533
68.0469
67.4673
67.1844
66.032
67.8885
67.5212
67.1437
66.2932
67.342
67.2851
66.1554
67.1749
67.3199
69.6833
65.955
66.862
66.5087
65.4401
67.8998
67.2391
68.9581
66.6618
67.6479
67.2327
68.5259
68.5884
69.5365
70.0226
68.8652
70.0016
68.414
70.3863
67.9728
69.6549
68.1315
68.774
68.6303
67.4403
69.5241
68.7041
71.1116
68.7214
68.9572
67.8732
68.6143
68.0126
66.9404
68.1371
67.3481
68.3142
66.4536
66.4173
65.4259
66.5005
66.3802
67.5391
68.8527
67.2541
67.477
65.7679
68.274
67.1385
66.2567
67.0994
68.248
68.3325
65.7382
66.7688
66.5558
68.6029
68.0074
68.8745
67.5582
65.9024
66.1204
65.4549
68.324
67.5477
68.1573
66.6262
68.0841
67.4407
67.3919
67.517
66.2806
67.0261
64.7318
65.706
65.0328
67.888
67.5375
68.0547
66.8417
66.7012
69.0253
67.1679
66.4788
65.3005
67.4329
66.6776
68.9467
68.0381
67.4851
67.1926
66.8627
66.4468
64.0489
65.2925
64.3344
66.4874
65.6682
67.968
66.392
66.9905
67.148
66.8378
67.5426
65.9349
66.4999
63.9635
65.8408
63.6399
66.0704
66.4473
67.7488
67.126
67.66
66.8584
65.2788
66.4205
65.3203
67.8716
66.5871
68.6811
65.1746
66.3535
64.9632
66.5232
66.4399
67.6779
66.9178
67.9406
65.6956
65.894
65.7895
63.5852
64.4921
62.9754
65.6842
65.816
65.773
64.881
65.2814
64.2082
65.107
63.9379
65.0032
60.185
60.7173
68.2332
73.6775
76.416
17.545
41.142
62.5704
81.8591
98.7997
111.78
118.894
121.865
121.903
120.719
118.878
116.384
113.454
110.385
107.334
104.437
101.727
99.2259
96.9208
94.8227
92.9113
91.1664
89.5649
88.0927
86.7431
85.4997
84.3488
83.281
82.2853
81.3553
80.4854
79.671
78.9063
78.1874
77.508
76.8658
76.2583
75.6828
75.1374
74.6189
74.1247
73.6538
73.2042
72.7751
72.3649
71.9725
71.5956
71.2343
70.887
70.5536
70.2329
69.9245
69.6266
69.3398
69.0625
68.7953
68.5365
68.2872
68.0448
67.8106
67.5826
67.3623
67.1477
66.9405
66.7381
66.5425
66.3513
66.1664
65.9856
65.8105
65.6393
65.4732
65.3107
65.1529
64.9985
64.848
64.7013
64.5575
64.4178
64.2801
64.1468
64.0145
63.8869
63.7594
63.6363
63.5135
63.3922
63.2767
63.1685
63.0518
62.9365
62.8166
62.6969
62.5597
62.413
62.209
61.9625
61.3873
60.8519
64.9325
71.8319
73.0818
71.672
69.3975
66.6376
64.3734
62.4412
60.7107
59.4845
58.5797
57.575
56.9307
56.0278
55.9429
55.6091
54.8863
55.688
54.7428
55.0489
55.0558
55.3357
54.3521
54.7635
54.2924
53.6706
54.9992
54.5918
54.4351
53.7
54.2271
53.9359
54.7193
55.2481
54.082
53.5273
54.7082
54.1431
54.0824
55.0961
54.8271
54.588
53.8698
55.0144
54.8621
54.6263
54.0024
54.6554
54.66
53.9326
54.5063
54.7975
55.9617
53.8058
54.2339
53.9666
53.1958
54.6239
54.3883
55.2169
53.9392
54.4759
54.2173
55.0522
55.2083
55.9482
56.4315
55.8682
56.5267
55.7364
56.7758
55.4198
56.4261
55.438
55.7751
55.7118
54.9411
56.1761
55.84
57.3828
56.0893
56.2119
55.4822
55.911
55.5177
54.7542
55.4329
55.0116
55.5168
54.3368
54.1678
53.3149
53.8627
53.7753
54.5581
55.5489
54.6699
54.6703
53.653
55.175
54.4772
53.7983
54.3181
55.2136
55.1952
53.5537
54.0378
53.9231
55.3466
55.1538
55.8446
55.041
53.7671
53.6771
53.2813
55.0346
54.7256
55.0951
54.2247
55.1702
54.8297
54.7915
54.859
54.069
54.3008
52.7862
53.1287
52.7272
54.529
54.5049
54.964
54.2167
54.1286
55.6603
54.5695
54.0277
53.1533
54.3678
54.0025
55.6458
55.2703
54.97
54.8295
54.6044
54.1802
52.465
52.9128
52.2992
53.5321
53.1817
54.7208
53.8492
54.2631
54.4916
54.3661
54.8107
53.8527
53.9424
52.3209
53.1582
51.6888
53.1177
53.5331
54.5195
54.2953
54.7551
54.3119
53.1901
53.7142
53.1291
54.7188
54.1749
55.174
53.1813
53.745
52.796
53.7399
53.7565
54.8065
54.4578
55.345
53.9096
53.8933
53.7337
52.1466
52.3808
51.3885
53.018
53.2216
53.2588
52.7361
52.92
52.1068
52.5205
51.639
52.0499
48.6246
48.1817
52.5501
56.7141
59.6873
7.3657
19.6851
32.9474
46.5201
60.67
74.7714
87.0839
95.8234
100.422
102.355
102.539
101.754
100.51
98.8749
96.8217
94.5898
92.302
90.063
87.9105
85.8714
83.9681
82.2017
80.5613
79.0422
77.6426
76.3489
75.1498
74.0357
72.9977
72.0339
71.1352
70.2946
69.5062
68.765
68.0664
67.4078
66.7863
66.1985
65.6421
65.1138
64.6113
64.1333
63.6779
63.2441
62.83
62.4342
62.0547
61.6916
61.3432
61.0092
60.6884
60.3802
60.0832
59.7973
59.5216
59.2561
58.9996
58.7525
58.5128
58.2813
58.0567
57.8396
57.6287
57.4249
57.2264
57.0344
56.8473
56.666
56.4893
56.318
56.151
55.9887
55.8303
55.676
55.5257
55.3787
55.2357
55.0953
54.9588
54.8242
54.6935
54.5637
54.438
54.3123
54.19
54.0676
53.9459
53.8267
53.7136
53.5944
53.4728
53.3461
53.2148
53.0668
52.9045
52.6896
52.4282
51.8858
51.4128
54.3068
59.5406
61.2519
61.019
60.085
58.2577
56.5471
54.8926
53.3497
52.1804
51.2281
50.2678
49.5675
48.6895
48.3995
47.9989
47.3812
47.7159
47.0292
47.125
47.1129
47.1843
46.515
46.6991
46.3256
45.8404
46.6542
46.3966
46.2256
45.7149
45.9753
45.7571
46.2863
46.6692
45.86
45.4531
46.1689
45.7816
45.718
46.4289
46.2972
46.0874
45.6388
46.3849
46.3182
46.1397
45.7016
46.1274
46.1502
45.6562
45.9982
46.3185
46.9149
45.5338
45.7449
45.5521
44.9702
45.828
45.7545
46.1361
45.3644
45.663
45.5046
46.0483
46.2179
46.7892
47.2188
46.9671
47.3982
47.0244
47.6269
46.8174
47.4591
46.8092
46.986
46.9636
46.4414
47.2189
47.1378
48.124
47.3811
47.4703
47.0014
47.2658
47.0017
46.443
46.8491
46.622
46.8623
46.0618
45.8342
45.173
45.4249
45.3373
45.8639
46.5944
46.0815
45.9857
45.3943
46.3759
45.9089
45.3723
45.712
46.3954
46.3226
45.2376
45.4813
45.4601
46.413
46.4099
46.9474
46.445
45.4806
45.2915
45.0471
46.1521
46.0275
46.2457
45.7498
46.4071
46.2323
46.2074
46.2479
45.7149
45.7041
44.6684
44.708
44.4806
45.6388
45.7091
46.0822
45.613
45.5714
46.6323
45.9563
45.5296
44.905
45.6271
45.4829
46.629
46.5042
46.3621
46.3283
46.1868
45.7912
44.5435
44.6217
44.2104
44.9249
44.7954
45.8048
45.3035
45.6148
45.8673
45.843
46.1385
45.5414
45.411
44.3555
44.6492
43.6635
44.5288
44.9063
45.6193
45.5733
45.9581
45.7192
44.919
45.1617
44.8582
45.8818
45.6947
46.1456
44.9315
45.2165
44.5652
45.1546
45.2339
46.0467
45.9354
46.6686
45.7384
45.6698
45.5222
44.3352
44.2539
43.5778
44.5922
44.7796
44.7897
44.4767
44.5158
43.9302
44.0421
43.3851
43.3908
40.8974
40.1846
42.7932
45.7805
48.3545
3.17541
9.03273
16.33
24.6164
34.1849
45.1597
56.9716
68.3138
77.3733
83.5054
86.8035
88.167
88.3917
87.8905
87.046
85.8887
84.4569
82.8318
81.1169
79.3706
77.6519
75.992
74.4082
72.9097
71.4998
70.1794
68.9456
67.7921
66.7125
65.7072
64.7688
63.8896
63.065
62.289
61.5617
60.878
60.2334
59.6244
59.048
58.5015
57.9827
57.4903
57.022
56.5763
56.1513
55.7454
55.357
54.9859
54.6304
54.29
53.9636
53.65
53.3484
53.0584
52.7792
52.5106
52.2515
52.0019
51.7603
51.5272
51.3014
51.0832
50.8718
50.6674
50.4689
50.2766
50.0897
49.9086
49.7325
49.5616
49.3953
49.2336
49.0761
48.9225
48.7731
48.6271
48.4851
48.3455
48.21
48.0762
47.9462
47.8172
47.6918
47.5666
47.4442
47.3217
47.1999
47.0788
46.9614
46.8407
46.7168
46.5869
46.4502
46.2978
46.1299
45.9143
45.6547
45.1535
44.7442
46.8513
50.8623
52.5663
52.8325
52.6692
51.6765
50.5023
49.2056
47.8791
46.8299
45.8945
45.0068
44.2902
43.4632
43.0632
42.6258
42.0616
42.1219
41.571
41.5345
41.5004
41.4289
40.9357
40.9869
40.6752
40.2712
40.7718
40.584
40.3913
40.0248
40.1323
39.9563
40.311
40.5819
39.9823
39.6704
40.1177
39.8342
39.7627
40.2738
40.2021
40.0087
39.7228
40.2337
40.2056
40.0447
39.7433
40.0296
40.0597
39.7059
39.9188
40.2219
40.5379
39.5808
39.6695
39.5393
39.0853
39.6134
39.5969
39.7585
39.239
39.3936
39.303
39.6586
39.8163
40.2523
40.6161
40.5243
40.8362
40.6838
41.0604
40.5656
40.9926
40.569
40.6592
40.6656
40.2947
40.8115
40.8712
41.5149
41.0566
41.119
40.8299
41.0031
40.8297
40.4121
40.6685
40.5517
40.6355
40.0612
39.8076
39.3162
39.4049
39.3161
39.669
40.2062
39.8842
39.7479
39.4024
40.0739
39.7502
39.3135
39.5456
40.0654
39.972
39.2162
39.3452
39.3904
40.0338
40.1107
40.5212
40.1976
39.462
39.2568
39.1073
39.8263
39.7752
39.8941
39.6109
40.0894
40.0113
39.9946
40.0248
39.6497
39.5364
38.7886
38.6957
38.5657
39.3328
39.4295
39.708
39.4045
39.388
40.1536
39.7168
39.3735
38.931
39.3841
39.3596
40.1672
40.1529
40.0983
40.133
40.0488
39.6976
38.7675
38.6851
38.3952
38.8161
38.7938
39.4548
39.148
39.3823
39.6361
39.6654
39.8712
39.4822
39.2801
38.5525
38.5896
37.8948
38.433
38.7608
39.2722
39.3014
39.6124
39.4838
38.9046
39.0174
38.8767
39.5644
39.5416
39.7477
38.9386
39.0725
38.6278
39.0065
39.1374
39.7341
39.7579
40.3378
39.7342
39.6634
39.5468
38.6412
38.4261
37.9421
38.5953
38.752
38.7209
38.5158
38.4724
38.043
37.9992
37.4931
37.2264
35.3572
34.6198
36.2464
38.3699
40.4433
1.45758
4.18868
7.78891
12.273
17.8525
24.8508
33.431
43.2604
53.2512
62.2671
69.1876
73.708
76.2153
77.2705
77.5409
77.2711
76.6767
75.8548
74.8653
73.6727
72.3682
71.012
69.6459
68.2961
66.9787
65.7113
64.5025
63.3544
62.2664
61.2397
60.273
59.3623
58.5052
57.6963
56.9362
56.2212
55.5466
54.9093
54.3055
53.7347
53.1947
52.6828
52.1964
51.7338
51.2927
50.8721
50.4706
50.0873
49.7207
49.37
49.0338
48.7113
48.4014
48.1039
47.8178
47.5428
47.2779
47.0227
46.7761
46.5384
46.3085
46.0866
45.8719
45.6643
45.463
45.268
45.0789
44.8956
44.7176
44.545
44.3771
44.2139
44.0552
43.9005
43.7501
43.6031
43.4603
43.32
43.1837
43.0493
42.9186
42.7891
42.663
42.5374
42.4143
42.2911
42.1687
42.0467
41.9256
41.8036
41.679
41.5476
41.4084
41.2549
41.086
40.8742
40.624
40.1642
39.809
41.374
44.4936
46.0467
46.495
46.6784
46.2719
45.5596
44.6588
43.5718
42.6718
41.8048
41.0032
40.3003
39.5367
39.0846
38.6322
38.1019
37.9984
37.5255
37.4015
37.3415
37.1815
36.7864
36.7533
36.4853
36.1318
36.4309
36.2747
36.0644
35.7868
35.8032
35.654
35.8852
36.0732
35.6054
35.3505
35.6312
35.4124
35.332
35.7059
35.6613
35.4783
35.2871
35.6478
35.64
35.4856
35.2756
35.472
35.5032
35.2374
35.3728
35.6437
35.8085
35.1144
35.1233
35.038
34.6757
35.0064
35.0089
35.0435
34.6702
34.7329
34.6842
34.9161
35.0564
35.387
35.688
35.6756
35.9135
35.8881
36.1341
35.8303
36.1197
35.8497
35.8922
35.9206
35.6494
36.0084
36.1427
36.5722
36.2759
36.3111
36.1419
36.2605
36.1518
35.8343
36.0057
35.9534
35.9503
35.5183
35.2583
34.8925
34.8938
34.8098
35.0441
35.4411
35.2243
35.0737
34.8666
35.3458
35.1186
34.7556
34.9206
35.3185
35.2206
34.6673
34.7345
34.821
35.2689
35.3753
35.6829
35.4653
34.8948
34.7039
34.617
35.1012
35.0789
35.1326
34.9717
35.3301
35.3107
35.2986
35.3233
35.0507
34.8958
34.3359
34.1895
34.1154
34.6374
34.7393
34.935
34.732
34.7256
35.2954
35.0037
34.7184
34.4031
34.704
34.7465
35.3289
35.3657
35.3512
35.4252
35.3788
35.0751
34.3643
34.2143
34.0064
34.258
34.2878
34.7233
34.524
34.6937
34.9355
34.9921
35.1419
34.8787
34.661
34.1343
34.0522
33.5447
33.8849
34.1692
34.5367
34.5977
34.8408
34.7711
34.3412
34.3901
34.3459
34.83
34.8836
34.9659
34.3985
34.4374
34.1414
34.3915
34.5569
34.9917
35.0879
35.5283
35.1398
35.0776
34.9919
34.2931
34.0333
33.6752
34.1074
34.238
34.1747
34.0245
33.9344
33.6104
33.489
33.0903
32.6496
31.2
30.5141
31.5755
33.1096
34.7386
0.724566
2.00411
3.78194
5.97786
8.86971
12.7119
17.8198
24.4365
32.3844
41.0586
49.5113
56.7614
62.222
65.7149
67.7271
68.6822
68.9584
68.8291
68.4239
67.8509
67.1198
66.2651
65.2866
64.2377
63.1542
62.0601
60.9733
59.9094
58.8774
57.8822
56.9283
56.0182
55.1531
54.3307
53.5497
52.8107
52.1104
51.4472
50.8176
50.2214
49.6567
49.1214
48.6124
48.1286
47.6669
47.2284
46.8106
46.4122
46.0313
45.6671
45.3181
44.9838
44.6631
44.3556
44.0602
43.7763
43.5031
43.2401
42.9863
42.7419
42.5059
42.2782
42.0581
41.8454
41.6394
41.44
41.2468
41.0597
40.8782
40.7022
40.5312
40.365
40.2036
40.0463
39.8936
39.7444
39.5994
39.4573
39.319
39.183
39.0506
38.9197
38.7921
38.6652
38.5408
38.4164
38.293
38.17
38.0462
37.9226
37.7977
37.6654
37.5252
37.3722
37.2046
36.9984
36.7603
36.3386
36.0268
37.2063
39.6707
41.0408
41.5405
41.8411
41.7726
41.3979
40.8453
40.0324
39.2992
38.5302
37.8205
37.1535
36.4574
35.9895
35.54
35.0388
34.8364
34.4144
34.2326
34.1463
33.935
33.5951
33.5047
33.2692
32.9491
33.1129
32.9699
32.7487
32.5242
32.4833
32.3525
32.4943
32.6203
32.2408
32.02
32.1906
32.014
31.9249
32.2004
32.1668
31.9924
31.8542
32.1133
32.1166
31.968
31.8152
31.9503
31.9785
31.7708
31.8565
32.0923
32.1719
31.6525
31.6059
31.551
31.2555
31.4638
31.4716
31.433
31.1489
31.1479
31.1259
31.2738
31.3961
31.6456
31.892
31.9177
32.1023
32.1468
32.3127
32.1301
32.3258
32.161
32.1766
32.2198
32.0199
32.2779
32.4474
32.7423
32.547
32.5563
32.465
32.5489
32.4857
32.2411
32.3626
32.3495
32.3029
31.964
31.7099
31.4308
31.3856
31.3118
31.4645
31.7601
31.6052
31.4527
31.3234
31.6746
31.5152
31.2084
31.329
31.6363
31.5403
31.1188
31.1484
31.2575
31.5803
31.6946
31.9214
31.7682
31.3165
31.1479
31.1031
31.4393
31.434
31.4421
31.3515
31.6243
31.642
31.6315
31.6529
31.4481
31.2806
30.8493
30.6852
30.6455
31.0086
31.1102
31.2402
31.0994
31.094
31.5275
31.3271
31.0825
30.8557
31.0664
31.1478
31.5786
31.6394
31.6407
31.7344
31.7119
31.4517
30.8961
30.7264
30.5729
30.7244
30.7801
31.0684
30.9326
31.0489
31.2719
31.3403
31.4531
31.2692
31.0543
30.6593
30.5231
30.1444
30.3605
30.6098
30.8755
30.9514
31.1348
31.0967
30.7675
30.7821
30.7955
31.1512
31.2402
31.2569
30.8444
30.8247
30.632
30.8004
30.9834
31.3074
31.4415
31.7637
31.514
31.4614
31.4013
30.8572
30.5947
30.3254
30.6174
30.7293
30.6461
30.5249
30.4097
30.1559
29.9961
29.673
29.1473
27.9792
27.358
28.079
29.2161
30.4831
0.395629
0.978303
1.89152
3.02524
4.41866
6.32124
8.95207
12.6109
17.538
23.7837
31.0539
38.6642
45.8649
51.8053
56.239
59.1128
60.8136
61.6825
61.9658
61.9336
61.686
61.2783
60.7501
60.1218
59.4029
58.5971
57.741
56.8609
55.9712
55.0826
54.2058
53.3497
52.5197
51.7193
50.9481
50.2092
49.5025
48.8285
48.1854
47.5724
46.9882
46.4327
45.9031
45.3991
44.9175
44.4595
44.0229
43.6067
43.2086
42.8282
42.4635
42.1153
41.7818
41.4623
41.1555
40.8608
40.5772
40.3046
40.042
39.7892
39.5455
39.3104
39.0834
38.864
38.6518
38.4467
38.2481
38.0558
37.8696
37.6889
37.5136
37.3433
37.1781
37.0172
36.861
36.7087
36.5606
36.4156
36.2746
36.1361
36.0012
35.8682
35.7383
35.6096
35.4832
35.3572
35.2323
35.108
34.9825
34.8566
34.7311
34.5982
34.458
34.306
34.1404
33.9404
33.7148
33.3268
33.0493
33.9469
35.9224
37.1149
37.6129
37.9338
38.0287
37.8685
37.5694
37.0201
36.4639
35.821
35.2022
34.5829
33.9558
33.4976
33.067
32.5952
32.3353
31.9487
31.7289
31.6194
31.3801
31.0749
30.9436
30.7303
30.433
30.5044
30.3675
30.1428
29.9482
29.8689
29.7494
29.8269
29.9067
29.588
29.3868
29.4817
29.3344
29.2383
29.4399
29.4075
29.2401
29.133
29.3197
29.328
29.1861
29.0673
29.1573
29.1824
29.0147
29.0669
29.2681
29.2971
28.8977
28.8122
28.7778
28.5336
28.6622
28.6683
28.5876
28.3623
28.3232
28.3136
28.4019
28.5054
28.692
28.8921
28.935
29.0797
29.1603
29.273
29.167
29.2975
29.2062
29.2059
29.2573
29.1083
29.2999
29.4832
29.6945
29.5652
29.5513
29.5101
29.5694
29.5381
29.3492
29.4395
29.4494
29.3825
29.1095
28.8688
28.6503
28.5801
28.5169
28.6145
28.8375
28.7201
28.5702
28.489
28.7487
28.6387
28.3753
28.4638
28.702
28.6097
28.2798
28.2853
28.4042
28.6429
28.7555
28.9208
28.8097
28.4446
28.2971
28.2792
28.5179
28.5248
28.5028
28.4538
28.6646
28.7034
28.6935
28.7135
28.5555
28.3883
28.047
27.8804
27.8636
28.1216
28.2215
28.3027
28.2014
28.1918
28.5262
28.3849
28.171
28.0066
28.1605
28.2635
28.5896
28.6634
28.6697
28.7707
28.7608
28.5374
28.0948
27.9262
27.8124
27.903
27.9707
28.1607
28.066
28.141
28.3443
28.4143
28.5
28.3668
28.1627
27.8584
27.6999
27.4124
27.5471
27.7685
27.9633
28.0453
28.18
28.1581
27.8985
27.8944
27.9416
28.2112
28.3147
28.2955
27.9892
27.9365
27.8121
27.9258
28.115
28.3653
28.5195
28.7481
28.5844
28.5394
28.4997
28.072
27.8242
27.6202
27.8212
27.9207
27.8279
27.7236
27.5962
27.3898
27.2129
26.9421
26.3879
25.4188
24.857
25.3623
26.2286
27.2152
0.270364
0.517578
0.9649
1.58993
2.35524
3.282
4.53323
6.31032
8.84055
12.3724
17.0868
22.9149
29.5112
36.1921
42.3563
47.3744
51.0941
53.5573
55.0432
55.8405
56.1887
56.2135
56.0667
55.7846
55.4079
54.9413
54.4078
53.8005
53.1318
52.4284
51.7027
50.9662
50.2286
49.4998
48.7823
48.0813
47.3997
46.7411
46.106
45.4947
44.9069
44.3436
43.8037
43.2875
42.793
42.3198
41.8671
41.4345
41.0203
40.6241
40.244
39.8807
39.5328
39.1994
38.8791
38.5718
38.2759
37.9922
37.7194
37.457
37.2041
36.9603
36.7249
36.4976
36.2781
36.0661
35.861
35.6626
35.4704
35.2841
35.1035
34.9282
34.7582
34.5929
34.4325
34.2761
34.1241
33.9755
33.831
33.6893
33.5514
33.4155
33.2829
33.1517
33.023
32.8948
32.7681
32.6418
32.515
32.3867
32.2601
32.1267
31.9866
31.8358
31.6725
31.4783
31.2637
30.9059
30.6549
31.3418
32.9459
33.9787
34.4511
34.76
34.9197
34.8821
34.7405
34.3971
34.0078
33.5183
32.9929
32.4255
31.8674
31.4355
31.0367
30.5943
30.3039
29.9445
29.7004
29.5722
29.3198
29.0392
28.8788
28.681
28.3994
28.4065
28.2737
28.0499
27.872
27.7655
27.6512
27.6834
27.7294
27.4537
27.2628
27.3033
27.1769
27.0755
27.2204
27.1841
27.0225
26.9326
27.0662
27.0762
26.9412
26.8419
26.8966
26.9185
26.7793
26.8082
26.9772
26.9725
26.6586
26.5465
26.5262
26.3222
26.3971
26.3994
26.2936
26.1088
26.0464
26.0427
26.0883
26.1756
26.3113
26.4721
26.5205
26.6347
26.732
26.8079
26.7484
26.8322
26.7933
26.7827
26.837
26.7239
26.8709
27.0562
27.2144
27.1303
27.0997
27.0886
27.1292
27.1203
26.9745
27.0443
27.0671
26.9924
26.7682
26.5449
26.3701
26.2862
26.2315
26.2934
26.465
26.3708
26.2249
26.1737
26.3665
26.2937
26.0643
26.1285
26.3126
26.224
25.9606
25.9508
26.0711
26.2512
26.3577
26.4764
26.3943
26.0936
25.964
25.9626
26.1348
26.1506
26.1116
26.0897
26.2516
26.3032
26.2906
26.3096
26.1855
26.0248
25.7478
25.5851
25.5836
25.7706
25.8682
25.9147
25.8399
25.8239
26.0845
25.9819
25.7917
25.672
25.7886
25.9018
26.1532
26.2348
26.2423
26.3434
26.3386
26.1456
25.7866
25.6275
25.5444
25.5969
25.6689
25.7924
25.726
25.7704
25.9557
26.0212
26.0859
25.9855
25.7953
25.5553
25.3905
25.1691
25.2485
25.4469
25.5928
25.6767
25.7727
25.7587
25.5482
25.5337
25.6003
25.8091
25.9162
25.8758
25.6463
25.5755
25.4971
25.5727
25.7609
25.9619
26.1264
26.2868
26.1753
26.1335
26.1092
25.7693
25.5423
25.3875
25.528
25.6199
25.5248
25.4316
25.3001
25.1266
24.9446
24.7101
24.1575
23.3382
22.8276
23.1892
23.8663
24.6421
0.227938
0.324153
0.527215
0.85522
1.30235
1.83275
2.48417
3.31426
4.49821
6.19855
8.63918
12.0288
16.4853
21.8694
27.8149
33.7231
39.0743
43.4184
46.6312
48.8103
50.1636
50.9254
51.2982
51.3934
51.3057
51.1213
50.8489
50.5092
50.1036
49.6541
49.1416
48.5821
47.996
47.3931
46.7782
46.1601
45.5447
44.9369
44.3401
43.7573
43.1894
42.6385
42.1051
41.5909
41.0952
40.6175
40.1576
39.716
39.2916
38.8844
38.493
38.1172
37.7562
37.4099
37.0769
36.7571
36.4492
36.1536
35.8694
35.596
35.3325
35.0787
34.8334
34.5973
34.3695
34.1497
33.9371
33.7315
33.5325
33.3397
33.1529
32.9719
32.7964
32.6259
32.4604
32.2993
32.1428
31.9899
31.8413
31.6959
31.5542
31.415
31.2791
31.1449
31.0133
30.8826
30.7536
30.625
30.4967
30.3662
30.2377
30.1036
29.9638
29.8141