/*--------------------------------*- C++ -*----------------------------------*\
| =========                 |                                                 |
| \\      /  F ield         | foam-extend: Open Source CFD                    |
|  \\    /   O peration     | Version:     3.2                                |
|   \\  /    A nd           | Web:         http://www.foam-extend.org         |
|    \\/     M anipulation  | For copyright notice see file Copyright         |
\*---------------------------------------------------------------------------*/
FoamFile
{
    version     2.0;
    format      ascii;
    class       volScalarField;
    location    "160";
    object      p;
}
// * * * * * * * * * * * * * * * * * * * * * * * * * * * * * * * * * * * * * //

dimensions      [1 -1 -2 0 0 0 0];

internalField   nonuniform List<scalar> 
96000
(
2648.99
2511.14
2497.52
2496.24
2494.93
2493.09
2490.97
2488.86
2486.56
2484.55
2482.78
2481.03
2479.49
2478
2476.61
2475.3
2473.99
2472.76
2471.55
2470.4
2469.23
2468.1
2466.98
2465.89
2464.8
2463.73
2462.66
2461.61
2460.57
2459.54
2458.52
2457.5
2456.49
2455.49
2454.5
2453.51
2452.53
2451.56
2450.58
2449.62
2448.66
2447.71
2446.76
2445.82
2444.88
2443.94
2443.02
2442.08
2441.17
2440.25
2439.33
2438.42
2437.52
2436.62
2435.72
2434.82
2433.93
2433.03
2432.14
2431.26
2430.37
2429.49
2428.61
2427.73
2426.84
2425.97
2425.08
2424.21
2423.31
2422.44
2421.52
2420.65
2419.71
2418.83
2417.85
2416.96
2415.93
2415.02
2413.93
2412.98
2411.79
2410.78
2409.46
2408.35
2406.86
2405.59
2403.86
2402.37
2400.25
2398.43
2395.74
2393.34
2389.81
2386.42
2381.77
2376.04
2370.13
2357.8
2366.89
2294.39
2459.49
2563.87
2617.23
2669.9
2711.44
2738.78
2767.47
2781.28
2786.37
2796.56
2827.42
2835.79
2816.83
2736.15
2703.03
2738.73
2732.78
2845.61
2723.5
2737.35
2638.37
2717.83
2700.05
2798.52
2741.56
2613.8
2642.45
2585.42
2697.8
2642.73
2680.3
2579.06
2646.57
2684.37
2633.49
2511.31
2522.42
2491.8
2549.72
2627.02
2560.01
2518.51
2394.98
2479
2479.43
2550.77
2462.81
2425.85
2379.5
2334.19
2456.97
2405.27
2493.66
2243.66
2292.66
2275.11
2260.48
2381.68
2234.68
2255.24
2052.62
2160.27
2086.63
2242.31
2207.96
2203.14
2179.08
2070.55
2195.7
2111.03
2221.22
1991.58
2124.99
2004.8
2117.94
2081.47
1945.27
2000.62
1888.78
2018.71
1926.83
2064.8
1906.4
1949.77
1936.25
1954.29
2048.67
1960.63
1972.4
1846.17
1939.36
1856.79
1896.13
1807.54
1838.7
1918.38
1804.49
1805.53
1633.51
1733.95
1682.27
1746.38
1755.9
1710.97
1710.49
1622.17
1756.54
1710.49
1781.12
1640.44
1677.95
1657.29
1671.11
1766.37
1673.86
1733.33
1563.78
1640.87
1543.9
1659.01
1556.21
1536.99
1580.11
1560.43
1670.78
1521.78
1554.89
1391.76
1491.87
1407.8
1546.13
1522.42
1490.23
1528.16
1367.29
1397.6
1322.61
1427.08
1294.76
1361.99
1303.87
1389.44
1407.04
1368.62
1324.53
1177
1276.56
1214.63
1356.03
1214.62
1276.83
1109
1191.53
1231.68
1234.58
1275.06
1114.03
1167.49
1023.47
1208.92
1046.03
1161.25
1034.64
1156.72
1102.82
1147.64
1077.21
981.623
1089.53
1015.04
1123.5
946.879
1064.14
903.757
1091.07
900.14
998.175
870.093
1004.52
950.75
1051.68
916.803
956.514
983.404
890.19
955.631
799.017
887.467
774.982
792.533
681.041
685.048
549.104
553.438
370.373
365.871
92.0979
1.97644
36.232
-18.4599
2618.51
2484.85
2470.78
2469.09
2467.64
2465.76
2463.61
2461.47
2459.15
2457.13
2455.35
2453.6
2452.05
2450.55
2449.16
2447.85
2446.53
2445.3
2444.09
2442.94
2441.77
2440.64
2439.51
2438.42
2437.33
2436.26
2435.2
2434.14
2433.11
2432.07
2431.05
2430.03
2429.02
2428.02
2427.03
2426.04
2425.06
2424.08
2423.11
2422.15
2421.19
2420.24
2419.29
2418.34
2417.4
2416.47
2415.54
2414.61
2413.69
2412.77
2411.86
2410.95
2410.04
2409.14
2408.24
2407.34
2406.45
2405.56
2404.67
2403.78
2402.89
2402.02
2401.13
2400.26
2399.37
2398.5
2397.6
2396.74
2395.83
2394.97
2394.04
2393.18
2392.23
2391.35
2390.37
2389.49
2388.46
2387.55
2386.45
2385.5
2384.31
2383.3
2381.98
2380.87
2379.38
2378.11
2376.38
2374.89
2372.77
2370.94
2368.25
2365.85
2362.32
2358.92
2354.28
2348.53
2342.62
2330.25
2340.11
2268.67
2431.82
2535.56
2589.12
2641.76
2683.3
2710.71
2739.28
2753.17
2758.61
2768.91
2799.02
2806.62
2788.34
2709.61
2677.26
2712.37
2704.52
2816.09
2695.39
2710.59
2612.85
2691.34
2672.07
2768.4
2713.05
2587.4
2616.89
2559.3
2669.45
2613.87
2652.51
2553.46
2618.78
2654.67
2605.02
2484.97
2496.92
2465.87
2521.43
2597.35
2531.15
2491.77
2370.02
2452.52
2451.19
2521.27
2434.52
2398.98
2354.02
2308.15
2428.84
2375.68
2464.11
2218.33
2266.84
2248.81
2232.15
2352.17
2206.09
2228.3
2027.67
2134.18
2060.22
2213.16
2178.85
2174.37
2152.34
2044.69
2168.18
2081.92
2192.56
1965.43
2098.31
1978.03
2088.33
2052.99
1918.63
1974.41
1862.67
1991.81
1899.13
2035.18
1879.78
1923.62
1909.9
1926.15
2019.42
1932.12
1945.33
1820.29
1911.61
1828.42
1868.26
1781.73
1811.03
1889.18
1775.9
1778.71
1608.54
1707.53
1655.59
1718.09
1727.32
1683.28
1684.46
1596.1
1728.35
1681.57
1752.37
1614.14
1651.8
1630.85
1643.01
1737.17
1645.06
1705.32
1537.33
1614.59
1516.79
1629.84
1529.19
1510.94
1553.57
1532.13
1641.37
1493.31
1527.81
1366.07
1465.15
1381.59
1517.32
1493.64
1461.39
1499.85
1340.89
1371.43
1295.25
1398.61
1267.91
1335.57
1277.72
1361.19
1377.9
1339.75
1297.71
1151.51
1250.07
1186.65
1326.91
1186.37
1249.54
1084.07
1165.01
1203.59
1205.4
1246.45
1087.12
1141.56
997.1
1180.67
1017.81
1133.37
1008.68
1128.81
1074.36
1118.67
1050.4
955.596
1062.08
986.334
1095.07
919.979
1037.55
876.37
1061.94
872.512
970.94
843.967
977.098
921.97
1022.73
890.118
928.822
954.95
861.671
927.336
771.505
858.872
746.841
764.311
652.877
656.71
520.898
525.009
341.63
336.239
66.2657
-24.4161
8.92402
-45.7887
2585.34
2458.86
2444.46
2442.38
2440.63
2438.6
2436.36
2434.17
2431.81
2429.77
2427.98
2426.21
2424.65
2423.15
2421.75
2420.43
2419.11
2417.87
2416.65
2415.5
2414.33
2413.2
2412.07
2410.97
2409.88
2408.81
2407.74
2406.68
2405.65
2404.61
2403.59
2402.57
2401.56
2400.56
2399.57
2398.58
2397.59
2396.62
2395.64
2394.68
2393.72
2392.77
2391.82
2390.87
2389.93
2389
2388.07
2387.14
2386.22
2385.3
2384.39
2383.48
2382.57
2381.67
2380.77
2379.87
2378.98
2378.08
2377.2
2376.31
2375.42
2374.54
2373.65
2372.78
2371.89
2371.02
2370.13
2369.26
2368.35
2367.49
2366.57
2365.7
2364.75
2363.88
2362.9
2362.01
2360.98
2360.07
2358.97
2358.02
2356.83
2355.82
2354.5
2353.39
2351.9
2350.63
2348.9
2347.41
2345.28
2343.46
2340.77
2338.36
2334.83
2331.43
2326.78
2321.02
2315.14
2302.68
2312.95
2243.98
2404.34
2507.33
2560.95
2613.42
2655
2682.52
2710.88
2724.9
2730.76
2741.18
2770.54
2777.18
2759.53
2683.03
2651.69
2686.13
2676.33
2786.22
2667.29
2683.67
2587.37
2665.05
2644.43
2737.9
2684.16
2561.19
2591.35
2533.44
2641.2
2585.04
2624.26
2527.97
2591.06
2624.86
2576.24
2458.78
2471.4
2440.31
2493.43
2567.29
2501.94
2464.94
2345.3
2426.24
2423.06
2491.53
2406.07
2371.96
2328.59
2282.62
2400.62
2345.69
2434.25
2193.17
2241.05
2222.61
2204.36
2322.33
2176.99
2200.97
2003.45
2108.29
2034.32
2183.93
2149.69
2145.4
2125.23
2019.01
2140.74
2052.69
2163.67
1939.67
2071.21
1951.71
2058.53
2024.09
1892.22
1948.12
1836.6
1964.88
1871.93
2005.29
1853.21
1897.35
1883.72
1898.35
1989.87
1903.22
1918.05
1794.57
1883.88
1800.37
1840.09
1756.05
1783.66
1859.61
1747.12
1751.87
1583.81
1681.09
1629.12
1690.06
1698.53
1655.35
1658.34
1570.46
1700.48
1652.61
1723.31
1587.71
1625.54
1604.54
1615.32
1707.83
1616.15
1677
1510.65
1588.34
1490.16
1600.47
1502.08
1485.01
1527.04
1503.95
1611.61
1464.74
1500.73
1340.37
1438.42
1355.8
1488.38
1464.67
1432.61
1471.05
1314.37
1345.39
1268.34
1370.17
1240.95
1308.99
1251.85
1333.02
1348.52
1310.53
1270.56
1126.33
1223.97
1158.88
1297.68
1157.97
1221.8
1059.49
1138.69
1175.51
1176.15
1217.35
1060.18
1115.57
971.042
1152.28
990.094
1105.45
982.645
1100.82
1045.98
1089.26
1023.27
929.973
1034.72
957.747
1066.2
892.803
1010.88
849.429
1032.4
845.118
943.578
817.969
949.683
893.2
993.215
863.37
901.103
926.077
833.113
898.842
744
829.9
718.497
735.892
624.492
628.146
492.498
496.315
312.622
306.376
41.0823
-50.2194
-18.1432
-73.0909
2552.4
2433.21
2418.3
2415.45
2413.48
2411.37
2409.09
2406.86
2404.48
2402.42
2400.61
2398.82
2397.26
2395.74
2394.34
2393.01
2391.68
2390.44
2389.22
2388.06
2386.89
2385.75
2384.62
2383.53
2382.43
2381.36
2380.29
2379.23
2378.19
2377.15
2376.13
2375.11
2374.1
2373.1
2372.1
2371.11
2370.13
2369.16
2368.18
2367.22
2366.25
2365.3
2364.35
2363.41
2362.47
2361.53
2360.6
2359.67
2358.75
2357.83
2356.92
2356.01
2355.1
2354.2
2353.3
2352.4
2351.51
2350.61
2349.72
2348.84
2347.95
2347.07
2346.18
2345.31
2344.42
2343.55
2342.65
2341.79
2340.88
2340.02
2339.09
2338.23
2337.28
2336.4
2335.42
2334.53
2333.5
2332.59
2331.49
2330.55
2329.35
2328.34
2327.02
2325.92
2324.42
2323.15
2321.42
2319.93
2317.8
2315.98
2313.29
2310.87
2307.35
2303.94
2299.29
2293.53
2287.7
2275.16
2285.41
2219.83
2377.06
2479.01
2532.74
2585.1
2626.6
2654.27
2682.38
2696.57
2702.85
2713.37
2742.01
2747.73
2730.56
2656.49
2626.1
2659.68
2648.52
2756.07
2639.29
2656.62
2561.89
2638.59
2617
2707.32
2654.99
2535.51
2565.42
2507.62
2612.81
2556.58
2595.82
2502.43
2563.42
2594.92
2547.24
2433.05
2445.54
2414.78
2465.67
2537.06
2472.77
2437.8
2320.77
2399.87
2395
2461.66
2377.81
2344.84
2302.94
2257.39
2372.16
2316.02
2404.05
2168.12
2215.07
2196.22
2177.26
2291.97
2148.08
2173.44
1979.5
2082.07
2008.62
2154.63
2120.68
2116.47
2097.77
1993.69
2112.76
2024.03
2134.13
1914.32
2043.81
1925.57
2028.74
1994.88
1866.36
1921.49
1810.89
1937.65
1844.87
1975.33
1826.81
1870.91
1857.44
1870.9
1960.02
1874.47
1890.51
1768.76
1856.01
1772.61
1811.8
1730.35
1756.51
1829.63
1718.59
1724.62
1559.43
1654.54
1602.81
1662.09
1669.8
1627.55
1631.75
1545.25
1672.56
1623.76
1694.2
1561.31
1599.12
1578.26
1587.79
1678.23
1587.65
1648.13
1484.24
1561.61
1463.97
1571.08
1475.05
1459.11
1500.26
1475.89
1581.43
1436.56
1473.4
1314.83
1411.55
1330.15
1459.35
1435.74
1404.2
1441.75
1287.89
1319.07
1241.98
1341.62
1214.06
1282.2
1226.02
1304.83
1319.15
1281.36
1243.05
1101.5
1197.57
1131.67
1268.24
1129.91
1193.57
1035
1112.3
1147.47
1147.11
1187.9
1033.37
1089.08
945.432
1123.41
963.042
1077.44
956.557
1072.69
1017.77
1059.75
995.917
904.709
1007.03
929.688
1036.86
865.78
983.605
823.324
1002.45
817.909
916.062
792.102
922.024
864.777
963.219
836.637
873.292
896.917
804.639
869.773
716.873
800.712
690.034
707.284
596.056
599.451
463.976
467.385
283.605
276.508
15.2391
-75.0009
-45.2277
-100.382
2520.09
2406.45
2392.36
2388.52
2386.25
2384.05
2381.76
2379.54
2377.15
2375.07
2373.24
2371.45
2369.87
2368.35
2366.93
2365.6
2364.27
2363.02
2361.79
2360.63
2359.46
2358.32
2357.18
2356.08
2354.99
2353.91
2352.84
2351.78
2350.74
2349.7
2348.68
2347.65
2346.65
2345.64
2344.65
2343.65
2342.67
2341.69
2340.71
2339.76
2338.79
2337.84
2336.89
2335.94
2335
2334.06
2333.14
2332.2
2331.29
2330.36
2329.45
2328.54
2327.63
2326.73
2325.83
2324.93
2324.04
2323.14
2322.25
2321.36
2320.48
2319.6
2318.71
2317.84
2316.95
2316.08
2315.18
2314.32
2313.41
2312.54
2311.62
2310.75
2309.8
2308.93
2307.95
2307.06
2306.03
2305.12
2304.02
2303.07
2301.88
2300.87
2299.55
2298.44
2296.94
2295.67
2293.94
2292.45
2290.33
2288.5
2285.81
2283.39
2279.86
2276.46
2271.82
2266.04
2260.29
2247.69
2258.05
2195.83
2349.84
2450.56
2504.49
2556.78
2598.13
2625.97
2653.81
2668.18
2674.9
2685.49
2713.38
2718.26
2701.56
2629.94
2600.48
2633.19
2620.95
2725.59
2611.38
2629.5
2536.53
2612
2589.56
2676.68
2625.85
2509.79
2539.42
2481.81
2584.38
2528.21
2567.35
2476.85
2535.84
2564.77
2518.28
2407.32
2419.62
2389.27
2437.89
2506.79
2443.68
2410.48
2296.41
2373.37
2366.95
2431.8
2349.62
2317.68
2277.28
2232.15
2343.57
2286.91
2373.32
2143.17
2188.97
2169.86
2150.1
2261.34
2119.63
2145.69
1955.59
2055.76
1983.03
2125.26
2091.73
2087.54
2070.23
1968.56
2084.43
1995.85
2104.03
1889.17
2016.18
1899.49
1998.94
1965.74
1840.53
1894.73
1785.53
1910.03
1817.93
1945.32
1800.54
1844.36
1831.13
1843.42
1930.11
1845.97
1862.67
1742.9
1828.15
1744.95
1783.49
1704.63
1729.28
1799.6
1690.26
1696.99
1535.35
1627.88
1576.56
1634.16
1641.12
1599.85
1605.08
1520.16
1644.34
1595.1
1664.93
1535.04
1572.55
1551.94
1560.31
1648.38
1559.35
1618.97
1458.38
1534.54
1437.82
1541.66
1448.11
1433.15
1473.36
1448.03
1551.1
1408.5
1445.57
1289.68
1384.59
1304.55
1430.23
1406.88
1375.78
1412.32
1261.49
1292.61
1215.7
1312.99
1187.39
1255.3
1200.18
1276.6
1289.78
1252.22
1215.52
1076.8
1170.82
1104.8
1238.54
1101.99
1165.27
1010.58
1085.85
1119.42
1118.18
1158.28
1006.76
1062.42
919.978
1094.4
936.081
1049.23
930.569
1044.43
989.627
1030.2
968.56
879.452
979.052
901.836
1007.41
839.122
955.987
797.309
972.25
790.871
888.514
766.179
894.227
836.362
933.124
809.912
845.341
867.615
776.38
840.236
689.906
771.353
661.604
678.453
567.578
570.545
435.51
438.096
254.79
246.78
-11.2424
-99.0532
-72.3202
-127.68
2488.33
2379.85
2365.79
2361.64
2358.99
2356.71
2354.39
2352.15
2349.78
2347.71
2345.87
2344.07
2342.49
2340.96
2339.53
2338.19
2336.85
2335.61
2334.37
2333.2
2332.03
2330.88
2329.75
2328.65
2327.55
2326.47
2325.4
2324.33
2323.29
2322.25
2321.23
2320.2
2319.19
2318.18
2317.19
2316.2
2315.21
2314.23
2313.25
2312.3
2311.33
2310.38
2309.42
2308.48
2307.54
2306.6
2305.67
2304.74
2303.82
2302.9
2301.98
2301.07
2300.16
2299.26
2298.36
2297.46
2296.57
2295.67
2294.78
2293.89
2293.01
2292.13
2291.24
2290.37
2289.48
2288.61
2287.71
2286.84
2285.94
2285.07
2284.15
2283.28
2282.33
2281.46
2280.48
2279.59
2278.56
2277.64
2276.55
2275.6
2274.4
2273.39
2272.07
2270.96
2269.47
2268.2
2266.46
2264.98
2262.85
2261.02
2258.33
2255.91
2252.39
2248.98
2244.35
2238.56
2232.91
2220.26
2230.74
2171.98
2322.61
2422.01
2476.2
2528.39
2569.66
2597.63
2625.2
2639.75
2646.9
2657.55
2684.67
2688.76
2672.54
2603.4
2574.84
2606.65
2593.39
2695.02
2583.52
2602.34
2511.32
2585.2
2562.13
2646
2596.72
2484.08
2513.33
2456.01
2555.94
2499.86
2538.85
2451.22
2508.17
2534.6
2489.36
2381.6
2393.63
2363.75
2410.12
2476.47
2414.64
2383.15
2272.03
2346.77
2338.9
2401.95
2321.47
2290.49
2251.57
2206.89
2314.89
2258
2342.32
2118.3
2162.81
2143.47
2122.97
2230.56
2091.5
2117.69
1931.74
2029.41
1957.5
2095.83
2062.82
2058.61
2042.62
1943.38
2056.03
1967.77
2073.81
1864.08
1988.4
1873.44
1969.13
1936.6
1814.75
1867.88
1760.2
1882.36
1791.07
1915.3
1774.33
1817.74
1804.76
1815.96
1900.12
1817.53
1834.71
1717.08
1800.21
1717.36
1755.17
1678.89
1702
1769.52
1662.06
1669.28
1511.29
1601.15
1550.35
1606.24
1612.46
1572.21
1578.3
1495.09
1615.88
1566.67
1635.45
1508.94
1545.87
1525.58
1532.84
1618.47
1531.1
1589.74
1432.62
1507.31
1411.67
1512.23
1421.21
1407.15
1446.36
1420.32
1520.57
1380.61
1417.47
1264.67
1357.54
1278.96
1401.03
1378.02
1347.34
1382.82
1235.16
1266.12
1189.42
1284.02
1161.12
1228.32
1174.31
1248.33
1260.41
1223.11
1187.95
1052.25
1143.96
1077.92
1208.51
1074.38
1136.92
986.178
1059.33
1091.34
1089.24
1128.64
980.326
1035.55
894.875
1065.07
909.219
1020.77
904.78
1016.06
961.52
1000.64
941.174
854.17
950.964
874.079
977.802
812.807
928.03
771.307
942.01
763.947
860.927
740.203
866.276
807.971
902.971
783.168
817.276
838.212
748.235
810.5
662.887
741.861
633.318
649.302
539.242
541.327
407.218
408.423
226.177
216.839
-37.4743
-123.138
-99.4487
-154.986
2456.45
2353.76
2339.03
2334.54
2331.78
2329.35
2327
2324.76
2322.38
2320.3
2318.48
2316.68
2315.1
2313.56
2312.13
2310.78
2309.44
2308.19
2306.95
2305.78
2304.6
2303.45
2302.31
2301.21
2300.11
2299.02
2297.95
2296.89
2295.85
2294.8
2293.78
2292.75
2291.74
2290.73
2289.73
2288.74
2287.75
2286.78
2285.8
2284.84
2283.87
2282.92
2281.96
2281.02
2280.08
2279.14
2278.21
2277.27
2276.35
2275.43
2274.52
2273.61
2272.7
2271.79
2270.89
2269.99
2269.1
2268.2
2267.31
2266.43
2265.54
2264.66
2263.77
2262.9
2262.01
2261.14
2260.24
2259.37
2258.46
2257.6
2256.67
2255.81
2254.86
2253.98
2253
2252.11
2251.08
2250.17
2249.07
2248.12
2246.93
2245.92
2244.6
2243.49
2241.99
2240.72
2238.99
2237.5
2235.38
2233.55
2230.86
2228.44
2224.92
2221.51
2216.89
2211.09
2205.57
2192.87
2203.47
2148.23
2295.36
2393.39
2447.85
2499.95
2541.13
2569.19
2596.59
2611.28
2618.85
2629.58
2655.85
2659.26
2643.48
2576.83
2549.17
2580.05
2565.83
2664.41
2555.69
2575.08
2486.23
2558.29
2534.7
2615.3
2567.58
2458.38
2487.18
2430.29
2527.42
2471.56
2510.3
2425.54
2480.42
2504.42
2460.44
2355.9
2367.57
2338.22
2382.35
2446.14
2385.61
2355.78
2247.63
2320.09
2310.91
2372.04
2293.33
2263.29
2225.81
2181.61
2286.18
2229.06
2311.28
2093.48
2136.59
2117.05
2095.87
2199.76
2063.42
2089.6
1907.94
2003.03
1932.02
2066.38
2033.92
2029.68
2014.94
1918.14
2027.56
1939.69
2043.55
1839.02
1960.49
1847.4
1939.33
1907.48
1789
1840.92
1734.96
1854.61
1764.27
1885.27
1748.18
1791.06
1778.33
1788.49
1870.05
1789.12
1806.71
1691.39
1772.08
1689.82
1726.84
1653.11
1674.67
1739.41
1633.91
1641.56
1487.24
1574.39
1524.17
1578.34
1583.83
1544.58
1551.45
1470.02
1587.33
1538.36
1605.85
1482.93
1519.11
1499.17
1505.38
1588.56
1502.85
1560.44
1406.83
1480.02
1385.55
1482.81
1394.35
1381.1
1419.28
1392.67
1489.91
1352.76
1389.34
1239.67
1330.44
1253.36
1371.78
1349.17
1318.89
1353.25
1208.85
1239.58
1163.16
1254.93
1135.03
1201.27
1148.42
1220.02
1231.03
1194.03
1160.36
1027.76
1117.03
1051.06
1178.35
1046.92
1108.51
961.782
1032.77
1063.24
1060.33
1098.98
953.963
1008.55
869.959
1035.54
882.445
992.224
879.008
987.613
933.434
971.06
913.757
828.858
922.834
846.355
948.068
786.583
899.924
745.334
911.737
737.093
833.167
714.31
838.199
779.622
872.749
756.378
789.111
808.728
720.091
780.655
635.833
712.263
605.002
620.011
511.005
511.857
379.042
378.483
197.67
186.759
-63.4601
-147.339
-126.592
-182.287
2424.82
2327.34
2312.38
2307.43
2304.46
2302.03
2299.6
2297.35
2294.98
2292.89
2291.06
2289.26
2287.69
2286.15
2284.72
2283.37
2282.03
2280.77
2279.53
2278.35
2277.17
2276.02
2274.88
2273.77
2272.67
2271.58
2270.51
2269.44
2268.4
2267.35
2266.33
2265.3
2264.29
2263.28
2262.28
2261.29
2260.3
2259.32
2258.34
2257.38
2256.41
2255.46
2254.5
2253.55
2252.61
2251.67
2250.74
2249.81
2248.89
2247.97
2247.05
2246.14
2245.23
2244.33
2243.42
2242.53
2241.63
2240.74
2239.85
2238.96
2238.07
2237.19
2236.3
2235.43
2234.54
2233.67
2232.77
2231.9
2230.99
2230.13
2229.2
2228.34
2227.39
2226.51
2225.53
2224.64
2223.61
2222.7
2221.6
2220.65
2219.46
2218.45
2217.13
2216.02
2214.52
2213.25
2211.51
2210.03
2207.9
2206.08
2203.39
2200.97
2197.45
2194.04
2189.44
2183.64
2178.26
2165.53
2176.24
2124.53
2268.1
2364.72
2419.43
2471.47
2512.57
2540.68
2567.98
2582.76
2590.77
2601.61
2626.92
2629.74
2614.37
2550.25
2523.46
2553.38
2538.28
2633.78
2527.88
2547.69
2461.23
2531.34
2507.26
2584.59
2538.43
2432.68
2460.96
2404.69
2498.78
2443.3
2481.73
2399.79
2452.61
2474.24
2431.54
2330.19
2341.47
2312.65
2354.57
2415.8
2356.61
2328.37
2223.21
2293.34
2283.03
2342
2265.21
2236.07
2200.01
2156.31
2257.42
2200.15
2280.21
2068.67
2110.32
2090.6
2068.78
2168.95
2035.33
2061.5
1884.15
1976.64
1906.56
2036.9
2005.03
2000.75
1987.19
1892.86
1999.03
1911.67
2013.27
1813.97
1932.47
1821.34
1909.55
1878.38
1763.26
1813.85
1709.83
1826.78
1737.51
1855.25
1722.05
1764.32
1751.86
1761.03
1839.94
1760.74
1778.64
1665.82
1743.78
1662.33
1698.51
1627.27
1647.31
1709.29
1605.8
1613.82
1463.2
1547.6
1498.02
1550.45
1555.23
1516.96
1524.54
1444.94
1558.78
1510.08
1576.23
1456.9
1492.27
1472.72
1477.93
1558.64
1474.61
1531.1
1381.03
1452.66
1359.44
1453.41
1367.51
1355.02
1392.13
1365.01
1459.25
1324.93
1361.2
1214.68
1303.3
1227.75
1342.5
1320.31
1290.45
1323.64
1182.56
1212.98
1136.91
1225.9
1108.96
1174.16
1122.48
1191.69
1201.65
1164.98
1132.74
1003.24
1090.07
1024.24
1148.22
1019.47
1080.07
937.371
1006.18
1035.12
1031.44
1069.3
927.595
981.474
845.04
1006.01
855.737
963.672
853.186
959.094
905.357
941.488
886.312
803.502
894.663
818.658
918.322
760.325
871.718
719.367
881.446
710.286
805.149
688.602
810.012
751.305
842.482
729.528
760.855
779.179
691.916
750.743
608.732
682.577
576.614
590.651
482.749
482.314
350.827
348.542
169.107
156.611
-89.2787
-171.624
-153.739
-209.577
2393.36
2300.83
2285.62
2280.38
2277.14
2274.63
2272.22
2269.94
2267.54
2265.48
2263.64
2261.84
2260.26
2258.72
2257.29
2255.95
2254.6
2253.35
2252.1
2250.92
2249.74
2248.59
2247.44
2246.33
2245.23
2244.14
2243.07
2242
2240.95
2239.9
2238.88
2237.85
2236.84
2235.82
2234.83
2233.83
2232.84
2231.86
2230.88
2229.92
2228.95
2228
2227.04
2226.09
2225.15
2224.21
2223.28
2222.35
2221.43
2220.5
2219.59
2218.68
2217.77
2216.86
2215.96
2215.06
2214.16
2213.27
2212.38
2211.49
2210.6
2209.72
2208.83
2207.96
2207.07
2206.2
2205.3
2204.43
2203.52
2202.66
2201.73
2200.87
2199.92
2199.04
2198.06
2197.17
2196.14
2195.23
2194.13
2193.18
2191.99
2190.97
2189.66
2188.54
2187.05
2185.78
2184.04
2182.56
2180.43
2178.61
2175.92
2173.5
2169.99
2166.58
2162
2156.2
2150.98
2138.23
2149.06
2100.83
2240.83
2336.02
2390.96
2442.93
2483.96
2512.14
2539.35
2554.21
2562.63
2573.64
2597.91
2600.24
2585.22
2523.64
2497.71
2526.66
2510.73
2603.14
2500.09
2520.26
2436.2
2504.32
2479.81
2553.89
2509.27
2406.95
2434.68
2379.17
2470.04
2415.07
2453.14
2373.96
2424.74
2444.07
2402.64
2304.45
2315.31
2287.04
2326.79
2385.47
2327.63
2300.94
2198.73
2266.54
2255.2
2311.89
2237.1
2208.83
2174.16
2130.96
2228.64
2171.26
2249.14
2043.84
2084.01
2064.11
2041.69
2138.15
2007.27
2033.37
1860.36
1950.23
1881.12
2007.43
1976.14
1971.83
1959.38
1867.5
1970.43
1883.7
1982.97
1788.91
1904.36
1795.26
1879.8
1849.3
1737.51
1786.71
1684.74
1798.9
1710.77
1825.25
1695.93
1737.54
1725.33
1733.55
1809.83
1732.36
1750.51
1640.27
1715.38
1634.89
1670.18
1601.38
1619.91
1679.17
1577.73
1586.06
1439.15
1520.8
1471.89
1522.58
1526.65
1489.35
1497.58
1419.82
1530.22
1481.82
1546.61
1430.84
1465.35
1446.21
1450.46
1528.72
1446.38
1501.72
1355.21
1425.22
1333.32
1424.05
1340.68
1328.88
1364.91
1337.33
1428.59
1297.12
1333.02
1189.69
1276.11
1202.11
1313.19
1291.44
1261.99
1293.98
1156.27
1186.33
1110.66
1196.9
1082.9
1147
1096.51
1163.34
1172.27
1135.95
1105.1
978.694
1063.06
997.429
1118.1
992.042
1051.61
912.926
979.541
1007
1002.58
1039.62
901.214
954.343
820.106
976.479
829.079
935.105
827.32
930.519
877.28
911.926
858.832
778.092
866.448
790.986
888.566
734.045
843.418
693.389
851.153
683.508
777.003
662.948
781.708
723.022
812.182
702.61
732.516
749.573
663.714
720.766
581.573
652.814
548.17
561.215
454.428
452.767
322.504
318.656
140.494
126.417
-114.985
-195.974
-180.89
-236.853
2362.09
2274.22
2258.83
2253.27
2249.87
2247.23
2244.82
2242.5
2240.14
2238.05
2236.21
2234.41
2232.83
2231.29
2229.86
2228.5
2227.16
2225.91
2224.67
2223.49
2222.3
2221.15
2220.01
2218.9
2217.79
2216.7
2215.62
2214.55
2213.51
2212.46
2211.43
2210.4
2209.39
2208.37
2207.37
2206.38
2205.39
2204.41
2203.43
2202.46
2201.49
2200.54
2199.58
2198.63
2197.69
2196.75
2195.82
2194.89
2193.96
2193.04
2192.12
2191.21
2190.3
2189.4
2188.49
2187.59
2186.7
2185.8
2184.91
2184.02
2183.13
2182.25
2181.36
2180.49
2179.6
2178.73
2177.83
2176.96
2176.05
2175.19
2174.26
2173.4
2172.45
2171.57
2170.59
2169.7
2168.67
2167.76
2166.66
2165.71
2164.52
2163.5
2162.18
2161.07
2159.58
2158.31
2156.57
2155.09
2152.95
2151.15
2148.46
2146.04
2142.53
2139.13
2134.57
2128.77
2123.72
2110.98
2121.91
2077.13
2213.56
2307.3
2362.45
2414.32
2455.29
2483.55
2510.69
2525.64
2534.44
2545.64
2568.83
2570.75
2556.08
2496.99
2471.9
2499.87
2483.17
2572.49
2472.3
2492.8
2411.13
2477.23
2452.35
2523.21
2480.13
2381.18
2408.34
2353.65
2441.25
2386.88
2424.53
2348.04
2396.81
2413.92
2373.77
2278.7
2289.1
2261.39
2299
2355.15
2298.66
2273.47
2174.2
2239.67
2227.36
2281.81
2209
2181.58
2148.25
2105.58
2199.82
2142.41
2218.08
2018.98
2057.64
2037.59
2014.59
2107.36
1979.26
2005.22
1836.55
1923.8
1855.68
1977.95
1947.25
1942.9
1931.52
1842.08
1941.78
1855.75
1952.67
1763.82
1876.18
1769.15
1850.09
1820.24
1711.74
1759.54
1659.65
1770.97
1684.07
1795.29
1669.82
1710.7
1698.74
1706.05
1779.72
1704
1722.32
1614.65
1686.95
1607.48
1641.86
1575.42
1592.47
1649.06
1549.7
1558.29
1415.07
1493.98
1445.76
1494.71
1498.1
1461.76
1470.58
1394.67
1501.66
1453.6
1517
1404.75
1438.37
1419.65
1422.98
1498.79
1418.15
1472.31
1329.36
1397.73
1307.2
1394.72
1313.85
1302.7
1337.62
1309.64
1397.93
1269.32
1304.82
1164.67
1248.89
1176.43
1283.88
1262.57
1233.53
1264.31
1129.97
1159.61
1084.4
1167.95
1056.86
1119.81
1070.48
1134.96
1142.91
1106.94
1077.44
954.106
1036.02
970.633
1088
964.645
1023.13
888.434
952.867
978.863
973.731
1009.93
874.82
927.149
795.145
946.955
802.459
906.528
801.402
901.892
849.199
882.382
831.318
752.62
838.193
763.332
858.801
707.738
815.035
667.39
820.868
656.746
748.827
637.231
753.286
694.779
781.857
675.616
704.097
719.912
635.479
690.728
554.347
622.981
519.668
531.705
426.05
423.165
294.121
288.705
111.953
96.1832
-140.63
-220.379
-208.04
-264.123
2330.96
2247.52
2231.99
2226.16
2222.58
2219.87
2217.41
2215.05
2212.69
2210.63
2208.79
2206.97
2205.39
2203.85
2202.42
2201.06
2199.72
2198.47
2197.22
2196.04
2194.86
2193.71
2192.56
2191.45
2190.35
2189.26
2188.18
2187.11
2186.06
2185.01
2183.98
2182.95
2181.94
2180.92
2179.92
2178.92
2177.93
2176.95
2175.97
2175.01
2174.03
2173.08
2172.12
2171.17
2170.23
2169.29
2168.36
2167.42
2166.5
2165.58
2164.66
2163.75
2162.84
2161.93
2161.03
2160.13
2159.23
2158.34
2157.45
2156.56
2155.67
2154.79
2153.9
2153.02
2152.13
2151.26
2150.36
2149.49
2148.59
2147.72
2146.79
2145.93
2144.98
2144.1
2143.12
2142.23
2141.2
2140.29
2139.19
2138.24
2137.05
2136.03
2134.71
2133.6
2132.11
2130.84
2129.1
2127.62
2125.48
2123.69
2121
2118.58
2115.08
2111.68
2107.15
2101.36
2096.5
2083.76
2094.8
2053.42
2186.28
2278.57
2333.89
2385.66
2426.57
2454.91
2482
2497.05
2506.22
2517.59
2539.69
2541.27
2526.94
2470.3
2446.04
2473.01
2455.61
2541.87
2444.53
2465.3
2386
2450.08
2424.86
2492.58
2451
2355.39
2381.94
2328.1
2412.46
2358.73
2395.91
2322.04
2368.83
2383.79
2344.9
2252.91
2262.85
2235.69
2271.19
2324.85
2269.72
2245.97
2149.6
2212.76
2199.52
2251.75
2180.91
2154.31
2122.28
2080.13
2170.97
2113.61
2187.06
1994.09
2031.22
2011.03
1987.48
2076.61
1951.28
1977.06
1812.71
1897.34
1830.23
1948.47
1918.37
1914
1903.62
1816.58
1913.08
1827.83
1922.38
1738.7
1847.94
1743
1820.42
1791.2
1685.95
1732.35
1634.54
1743.01
1657.38
1765.38
1643.7
1683.82
1672.1
1678.54
1749.63
1675.64
1694.1
1588.96
1658.51
1580.11
1613.55
1549.38
1564.99
1618.97
1521.71
1530.51
1390.97
1467.15
1419.63
1466.85
1469.58
1434.2
1443.53
1369.47
1473.09
1425.41
1487.4
1378.63
1411.34
1393.05
1395.5
1468.88
1389.91
1442.88
1303.48
1370.19
1281.06
1365.43
1287.02
1276.46
1310.27
1281.94
1367.3
1241.55
1276.61
1139.62
1221.64
1150.72
1254.56
1233.69
1205.05
1234.62
1103.67
1132.83
1058.13
1139.03
1030.84
1092.58
1044.41
1106.57
1113.56
1077.96
1049.77
929.471
1008.93
943.848
1057.93
937.273
994.656
863.887
926.155
950.716
944.913
980.26
848.414
899.902
770.154
917.449
775.874
877.951
775.43
873.225
821.115
852.867
803.773
727.083
809.905
735.693
829.038
681.401
786.585
641.367
790.604
629.997
720.627
611.455
724.764
666.573
751.517
648.545
675.606
690.206
607.21
660.641
527.054
593.09
491.113
502.13
397.619
393.501
265.688
258.692
83.4942
65.916
-166.239
-244.84
-235.189
-291.39
2299.98
2220.72
2205.12
2199.03
2195.28
2192.5
2190
2187.63
2185.25
2183.2
2181.33
2179.54
2177.96
2176.4
2174.97
2173.62
2172.28
2171.02
2169.77
2168.6
2167.41
2166.26
2165.12
2164.01
2162.9
2161.81
2160.73
2159.66
2158.61
2157.56
2156.53
2155.5
2154.48
2153.47
2152.47
2151.47
2150.48
2149.5
2148.51
2147.55
2146.58
2145.62
2144.66
2143.72
2142.77
2141.83
2140.9
2139.96
2139.04
2138.11
2137.2
2136.28
2135.37
2134.47
2133.56
2132.66
2131.77
2130.87
2129.98
2129.09
2128.2
2127.32
2126.43
2125.55
2124.66
2123.79
2122.89
2122.03
2121.12
2120.25
2119.32
2118.46
2117.51
2116.63
2115.65
2114.76
2113.73
2112.82
2111.72
2110.77
2109.58
2108.56
2107.25
2106.13
2104.64
2103.37
2101.64
2100.15
2098.01
2096.22
2093.54
2091.12
2087.63
2084.24
2079.74
2073.96
2069.3
2056.59
2067.72
2029.66
2159.01
2249.83
2305.31
2356.96
2397.81
2426.23
2453.26
2468.42
2477.98
2489.49
2510.54
2511.77
2497.8
2443.58
2420.12
2446.09
2428.06
2511.29
2416.77
2437.76
2360.82
2422.87
2397.37
2462
2421.88
2329.56
2355.5
2302.5
2383.67
2330.62
2367.29
2295.96
2340.79
2353.71
2316.05
2227.09
2236.56
2209.93
2243.39
2294.59
2240.81
2218.44
2124.94
2185.8
2171.69
2221.72
2152.84
2127.03
2096.25
2054.64
2142.11
2084.85
2156.08
1969.15
2004.76
1984.43
1960.36
2045.89
1923.34
1948.9
1788.83
1870.86
1804.76
1919.02
1889.5
1885.1
1875.67
1791.01
1884.34
1799.95
1892.11
1713.54
1819.65
1716.81
1790.8
1762.21
1660.13
1705.14
1609.42
1715.03
1630.71
1735.51
1617.57
1656.9
1645.41
1651.02
1719.56
1647.3
1665.84
1563.21
1630.05
1552.77
1585.25
1523.29
1537.48
1588.92
1493.75
1502.72
1366.82
1440.32
1393.5
1439.01
1441.1
1406.65
1416.44
1344.22
1444.52
1397.25
1457.83
1352.46
1384.27
1366.39
1367.99
1438.98
1361.68
1413.45
1277.57
1342.59
1254.91
1336.2
1260.2
1250.18
1282.87
1254.23
1336.69
1213.79
1248.37
1114.54
1194.37
1124.97
1225.26
1204.8
1176.57
1204.94
1077.36
1105.99
1031.86
1110.16
1004.82
1065.32
1018.29
1078.17
1084.23
1049.02
1022.08
904.785
981.816
917.071
1027.9
909.923
966.182
839.281
899.412
922.568
916.121
950.604
821.991
872.607
745.129
887.968
749.312
849.375
749.403
844.524
793.027
823.381
776.198
701.478
781.591
708.068
799.283
655.034
758.077
615.314
760.365
603.252
692.398
585.618
696.173
638.38
721.165
621.394
647.05
660.459
578.903
630.508
499.688
563.145
462.506
472.495
369.133
363.784
237.208
228.643
55.0993
35.6386
-191.83
-269.354
-262.333
-318.652
2269.15
2193.84
2178.2
2171.89
2167.99
2165.13
2162.59
2160.21
2157.83
2155.77
2153.88
2152.1
2150.51
2148.97
2147.53
2146.16
2144.83
2143.57
2142.33
2141.15
2139.96
2138.81
2137.66
2136.55
2135.44
2134.36
2133.28
2132.21
2131.16
2130.11
2129.08
2128.04
2127.03
2126.01
2125.01
2124.01
2123.02
2122.04
2121.06
2120.09
2119.12
2118.16
2117.2
2116.26
2115.31
2114.37
2113.44
2112.5
2111.58
2110.65
2109.73
2108.82
2107.91
2107
2106.1
2105.2
2104.3
2103.4
2102.51
2101.62
2100.73
2099.85
2098.96
2098.09
2097.2
2096.32
2095.43
2094.56
2093.65
2092.78
2091.86
2090.99
2090.04
2089.16
2088.18
2087.29
2086.26
2085.35
2084.25
2083.3
2082.11
2081.09
2079.78
2078.67
2077.17
2075.91
2074.17
2072.69
2070.55
2068.76
2066.08
2063.68
2060.19
2056.81
2052.34
2046.56
2042.1