/*--------------------------------*- C++ -*----------------------------------*\
| =========                 |                                                 |
| \\      /  F ield         | foam-extend: Open Source CFD                    |
|  \\    /   O peration     | Version:     3.2                                |
|   \\  /    A nd           | Web:         http://www.foam-extend.org         |
|    \\/     M anipulation  | For copyright notice see file Copyright         |
\*---------------------------------------------------------------------------*/
FoamFile
{
    version     2.0;
    format      ascii;
    class       areaScalarField;
    location    "160";
    object      Pa;
}
// * * * * * * * * * * * * * * * * * * * * * * * * * * * * * * * * * * * * * //

dimensions      [0 0 0 0 0 0 0];

internalField   nonuniform List<scalar> 
300
(
0.5
0.5
0.5
0.5
0.5
0.5
0.5
0.5
0.5
0.5
0.5
0.5
0.5
0.5
0.5
0.5
0.5
0.5
0.5
0.5
0.5
0.5
0.5
0.5
0.5
0.5
0.5
0.5
0.5
0.5
0.5
0.5
0.5
0.5
0.5
0.5
0.5
0.5
0.5
0.5
0.5
0.5
0.5
0.5
0.5
0.5
0.5
0.5
0.5
0.5
0.5
0.5
0.5
0.5
0.5
0.5
0.5
0.5
0.5
0.5
0.5
0.5
0.5
0.5
0.5
0.5
0.5
0.5
0.5
0.5
0.5
0.5
0.5
0.5
0.5
0.5
0.5
0.5
0.5
0.5
0.5
0.5
0.5
0.5
0.5
0.5
0.5
0.5
0.5
0.5
0.5
0.5
0.5
0.5
0.5
0.5
0.5
0.5
0.5
0.5
0.5372
0.550723
0.57646
0.584318
0.611457
0.612713
0.641292
0.638226
0.665081
0.661244
0.679736
0.685386
0.693365
0.69908
0.70571
0.708715
0.698252
0.716248
0.701224
0.711746
0.706032
0.714172
0.716726
0.700178
0.730744
0.696556
0.712442
0.696137
0.72941
0.710362
0.709276
0.720921
0.682812
0.712329
0.720956
0.716161
0.702893
0.721637
0.69728
0.710247
0.699954
0.708606
0.714411
0.684746
0.719296
0.688356
0.725965
0.696142
0.723413
0.693566
0.7067
0.714982
0.694425
0.74365
0.685684
0.763592
0.721896
0.746514
0.748692
0.746189
0.761416
0.740673
0.76511
0.740273
0.777095
0.736094
0.766224
0.739869
0.751714
0.732081
0.736563
0.733626
0.730289
0.742409
0.726455
0.746727
0.71334
0.759931
0.70331
0.732302
0.707548
0.723347
0.729434
0.687197
0.743885
0.693901
0.733097
0.696349
0.729229
0.710821
0.728068
0.730372
0.716897
0.748725
0.698728
0.74201
0.719267
0.727813
0.723797
0.700121
0.735533
0.704915
0.732329
0.705191
0.748395
0.714688
0.73138
0.706355
0.713726
0.716466
0.706615
0.733796
0.703637
0.744568
0.696287
0.722769
0.692811
0.708091
0.722363
0.680269
0.739478
0.696286
0.733651
0.713767
0.726378
0.723939
0.716947
0.716174
0.709393
0.729379
0.706382
0.734573
0.703478
0.729655
0.710025
0.729901
0.702478
0.711878
0.701703
0.679409
0.717822
0.68328
0.719148
0.684053
0.729104
0.698604
0.727549
0.702091
0.710916
0.712979
0.683077
0.731055
0.669867
0.744391
0.697378
0.722302
0.716506
0.712883
0.718557
0.710951
0.724824
0.684354
0.727675
0.684271
0.737554
0.690422
0.744937
0.691856
0.740816
0.680979
0.716728
0.685138
0.700222
0.693963
0.675614
0.705378
0.640638
0.713478
0.625237
0.731857
0.616951
0.742218
0.640721
0.728503
0.701496
0.715128
0.695403
0.614032
0.67659
0.604094
0.648514
0.587939
0.612341
0.564484
0.566899
0.531445
0.5
0.5
0.5
0.5
)
;

boundaryField
{
    inlet
    {
        type            calculated;
        value           uniform 0;
    }
    outlet
    {
        type            calculated;
        value           uniform 0;
    }
    sideWall
    {
        type            empty;
    }
}


// ************************************************************************* //
