/*--------------------------------*- C++ -*----------------------------------*\
| =========                 |                                                 |
| \\      /  F ield         | foam-extend: Open Source CFD                    |
|  \\    /   O peration     | Version:     3.2                                |
|   \\  /    A nd           | Web:         http://www.foam-extend.org         |
|    \\/     M anipulation  | For copyright notice see file Copyright         |
\*---------------------------------------------------------------------------*/
FoamFile
{
    version     2.0;
    format      ascii;
    class       areaScalarField;
    location    "160";
    object      Pc;
}
// * * * * * * * * * * * * * * * * * * * * * * * * * * * * * * * * * * * * * //

dimensions      [0 0 0 0 0 0 0];

internalField   nonuniform List<scalar> 
300
(
0.5
0.5
0.5
0.5
0.5
0.5
0.5
0.5
0.5
0.5
0.5
0.5
0.5
0.5
0.5
0.5
0.5
0.5
0.5
0.5
0.5
0.5
0.5
0.5
0.5
0.5
0.5
0.5
0.5
0.5
0.5
0.5
0.5
0.5
0.5
0.5
0.5
0.5
0.5
0.5
0.5
0.5
0.5
0.5
0.5
0.5
0.5
0.5
0.5
0.5
0.5
0.5
0.5
0.5
0.5
0.5
0.5
0.5
0.5
0.5
0.5
0.5
0.5
0.5
0.5
0.5
0.5
0.5
0.5
0.5
0.5
0.5
0.5
0.5
0.5
0.5
0.5
0.5
0.5
0.5
0.5
0.5
0.5
0.5
0.5
0.5
0.5
0.5
0.5
0.5
0.5
0.5
0.5
0.5
0.5
0.5
0.5
0.5
0.5
0.5
0.4628
0.449277
0.42354
0.415682
0.388543
0.387287
0.358708
0.361774
0.334919
0.338756
0.320264
0.314614
0.306635
0.30092
0.29429
0.291285
0.301748
0.283752
0.298776
0.288254
0.293968
0.285828
0.283274
0.299822
0.269256
0.303444
0.287558
0.303863
0.27059
0.289638
0.290724
0.279079
0.317188
0.287671
0.279044
0.283839
0.297107
0.278363
0.30272
0.289753
0.300046
0.291394
0.285589
0.315254
0.280704
0.311644
0.274035
0.303858
0.276587
0.306434
0.2933
0.285018
0.305575
0.25635
0.314316
0.236408
0.278104
0.253486
0.251308
0.253811
0.238584
0.259327
0.23489
0.259727
0.222905
0.263906
0.233776
0.260131
0.248286
0.267919
0.263437
0.266374
0.269711
0.257591
0.273545
0.253273
0.28666
0.240069
0.29669
0.267698
0.292452
0.276653
0.270566
0.312803
0.256115
0.306099
0.266903
0.303651
0.270771
0.289179
0.271932
0.269628
0.283103
0.251275
0.301272
0.25799
0.280733
0.272187
0.276203
0.299879
0.264467
0.295085
0.267671
0.294809
0.251605
0.285312
0.26862
0.293645
0.286274
0.283534
0.293385
0.266204
0.296363
0.255432
0.303713
0.277231
0.307189
0.291909
0.277637
0.319731
0.260522
0.303714
0.266349
0.286233
0.273622
0.276061
0.283053
0.283826
0.290607
0.270621
0.293618
0.265427
0.296522
0.270345
0.289975
0.270099
0.297522
0.288122
0.298297
0.320591
0.282178
0.31672
0.280852
0.315947
0.270896
0.301396
0.272451
0.297909
0.289084
0.287021
0.316923
0.268945
0.330133
0.255609
0.302622
0.277698
0.283494
0.287117
0.281443
0.289049
0.275176
0.315646
0.272325
0.315729
0.262446
0.309578
0.255063
0.308144
0.259184
0.319021
0.283272
0.314862
0.299778
0.306037
0.324386
0.294622
0.359362
0.286522
0.374763
0.268143
0.383049
0.257782
0.359279
0.271497
0.298504
0.284872
0.304597
0.385968
0.32341
0.395906
0.351486
0.412061
0.387659
0.435516
0.433101
0.468555
0.5
0.5
0.5
0.5
)
;

boundaryField
{
    inlet
    {
        type            calculated;
        value           uniform 0;
    }
    outlet
    {
        type            calculated;
        value           uniform 0;
    }
    sideWall
    {
        type            empty;
    }
}


// ************************************************************************* //
