/*--------------------------------*- C++ -*----------------------------------*\
| =========                 |                                                 |
| \\      /  F ield         | foam-extend: Open Source CFD                    |
|  \\    /   O peration     | Version:     3.2                                |
|   \\  /    A nd           | Web:         http://www.foam-extend.org         |
|    \\/     M anipulation  | For copyright notice see file Copyright         |
\*---------------------------------------------------------------------------*/
FoamFile
{
    version     2.0;
    format      ascii;
    class       volScalarField;
    location    "160";
    object      pd;
}
// * * * * * * * * * * * * * * * * * * * * * * * * * * * * * * * * * * * * * //

dimensions      [1 -1 -2 0 0 0 0];

internalField   nonuniform List<scalar> 
96000
(
2662.73
2524.88
2511.26
2509.98
2508.67
2506.83
2504.71
2502.6
2500.3
2498.29
2496.52
2494.77
2493.23
2491.74
2490.35
2489.04
2487.73
2486.5
2485.29
2484.14
2482.97
2481.84
2480.72
2479.63
2478.54
2477.47
2476.4
2475.35
2474.31
2473.28
2472.26
2471.24
2470.23
2469.23
2468.24
2467.25
2466.27
2465.3
2464.32
2463.36
2462.4
2461.45
2460.5
2459.56
2458.62
2457.68
2456.76
2455.82
2454.91
2453.99
2453.07
2452.16
2451.26
2450.36
2449.46
2448.56
2447.67
2446.77
2445.88
2445
2444.11
2443.23
2442.35
2441.47
2440.58
2439.71
2438.82
2437.95
2437.05
2436.18
2435.26
2434.39
2433.45
2432.57
2431.59
2430.7
2429.67
2428.76
2427.67
2426.72
2425.53
2424.52
2423.2
2422.09
2420.6
2419.33
2417.6
2416.11
2413.99
2412.17
2409.48
2407.08
2403.55
2400.16
2395.51
2389.78
2383.87
2371.54
2380.61
2289.84
2412.6
2476.29
2499.4
2525.37
2543.52
2550.48
2560.66
2558.58
2549.15
2545.58
2564.76
2563.02
2535.85
2446.13
2403.98
2435.33
2421.45
2528.97
2401.91
2407.05
2301.6
2378.67
2356.86
2450.86
2396.14
2263.1
2287.39
2230.84
2344.3
2288
2324.52
2222
2282.99
2322.04
2276.77
2152.08
2162.82
2135.63
2189.17
2263.31
2197.11
2157.85
2031.85
2113.07
2115.55
2190.4
2102.82
2064.06
2022.37
1979.07
2101.57
2048.05
2145.82
1905.88
1958.22
1952.5
1941.41
2065.32
1923.65
1953.72
1759.96
1873.6
1804.39
1961
1927.34
1918.34
1894.81
1785.64
1910.93
1825
1937.46
1708.28
1842.87
1726.31
1836.87
1803.98
1664.2
1713.33
1595.04
1723.62
1631.48
1767.5
1606.68
1645.57
1634.29
1649.22
1739.99
1650.11
1664.88
1544.26
1642.93
1563.28
1603.56
1515.56
1540.02
1619.26
1507.79
1511.59
1336.95
1436.27
1391.61
1456.33
1462.2
1415.39
1422.26
1337.97
1470.5
1419.54
1485.29
1340.11
1376.53
1364.79
1383.13
1480.46
1384.49
1441.03
1270.76
1348.39
1249.17
1360.09
1257.6
1236.21
1282.82
1266.99
1385.21
1243.15
1278.76
1113.2
1209.97
1124.36
1263.11
1243.36
1204.75
1241.6
1086.04
1119.51
1041.67
1141.33
1001.74
1062.02
1002.2
1084.32
1100.7
1064.61
1030.52
889.205
991.933
929.778
1069.09
924.042
986.195
820.169
897.784
936.612
936.317
978.521
822.378
885.149
748.911
943.471
785.266
896.065
765.693
885.044
828.903
872.14
808.864
715.336
823.283
745.47
851.082
674.184
797.933
643.299
834.193
644.903
737.467
603.677
732.384
673.664
776.6
647.39
688.634
727.519
644.843
720.763
569.857
660.399
556.847
586.498
489.528
511.624
397.031
427.915
276.58
317.421
90.2043
15.6965
49.9736
-4.71995
2659.73
2526.07
2512
2510.31
2508.87
2506.98
2504.83
2502.69
2500.37
2498.35
2496.57
2494.82
2493.27
2491.77
2490.38
2489.07
2487.75
2486.52
2485.31
2484.16
2482.99
2481.86
2480.73
2479.64
2478.55
2477.48
2476.42
2475.36
2474.33
2473.29
2472.27
2471.25
2470.24
2469.24
2468.25
2467.26
2466.28
2465.31
2464.33
2463.37
2462.41
2461.46
2460.51
2459.56
2458.62
2457.69
2456.76
2455.83
2454.91
2453.99
2453.08
2452.17
2451.26
2450.36
2449.46
2448.56
2447.67
2446.78
2445.89
2445
2444.12
2443.24
2442.35
2441.48
2440.59
2439.72
2438.82
2437.96
2437.05
2436.19
2435.26
2434.4
2433.45
2432.57
2431.59
2430.71
2429.68
2428.77
2427.67
2426.72
2425.53
2424.52
2423.2
2422.09
2420.6
2419.33
2417.6
2416.11
2413.99
2412.16
2409.47
2407.07
2403.54
2400.14
2395.5
2389.75
2383.84
2371.47
2381.24
2291.54
2412.51
2475.59
2498.82
2524.76
2542.9
2549.92
2559.98
2557.97
2548.88
2545.42
2563.85
2561.33
2534.83
2447.05
2405.69
2436.4
2420.67
2526.92
2401.24
2407.76
2303.55
2379.63
2356.33
2448.23
2395.04
2264.16
2289.31
2232.17
2343.39
2286.59
2324.19
2223.82
2282.7
2319.81
2275.71
2153.2
2164.79
2137.11
2188.34
2261.1
2195.7
2158.54
2034.34
2114.07
2114.78
2188.34
2101.97
2064.69
2024.33
1980.47
2100.88
2045.98
2143.73
1907.98
1959.91
1953.61
1940.53
2063.28
1922.55
1954.25
1762.46
1874.97
1805.42
1959.31
1925.65
1917.06
1895.52
1787.24
1910.86
1823.37
1936.25
1709.6
1843.67
1726.97
1834.75
1802.92
1665
1714.58
1596.41
1724.19
1631.22
1765.34
1607.5
1646.91
1635.37
1648.54
1738.21
1649.08
1665.29
1545.84
1642.63
1562.36
1603.15
1517.17
1539.84
1617.53
1506.66
1512.2
1339.45
1437.36
1392.36
1455.48
1461.09
1415.22
1423.67
1339.34
1469.76
1418.07
1484
1341.28
1377.89
1365.79
1382.48
1478.69
1383.16
1440.49
1271.78
1349.57
1249.51
1358.41
1258.02
1237.65
1283.74
1266.18
1383.25
1242.12
1279.11
1114.96
1210.72
1125.62
1261.77
1241.98
1203.4
1240.78
1087.09
1120.78
1041.76
1140.3
1002.35
1063.1
1003.5
1083.54
1099.02
1063.25
1031.14
891.169
992.895
929.246
1067.42
923.265
986.382
822.654
898.742
935.969
934.619
977.382
822.948
886.665
750.022
942.665
784.464
895.653
767.2
884.594
827.902
870.682
809.476
716.763
823.271
744.228
850.118
674.784
798.8
643.37
832.515
644.702
737.701
605.018
732.43
672.389
775.139
648.151
688.479
726.532
643.814
719.926
569.81
659.324
556.208
585.776
488.881
510.8
396.372
427.027
275.497
315.386
91.7767
16.7216
50.1495
-4.56901
2654.04
2527.56
2513.16
2511.08
2509.33
2507.3
2505.06
2502.87
2500.51
2498.47
2496.68
2494.91
2493.35
2491.85
2490.45
2489.13
2487.81
2486.57
2485.35
2484.2
2483.03
2481.9
2480.77
2479.67
2478.58
2477.51
2476.44
2475.38
2474.35
2473.31
2472.29
2471.27
2470.26
2469.26
2468.27
2467.28
2466.29
2465.32
2464.34
2463.39
2462.42
2461.47
2460.52
2459.57
2458.64
2457.7
2456.77
2455.84
2454.92
2454
2453.09
2452.18
2451.27
2450.37
2449.47
2448.57
2447.68
2446.78
2445.9
2445.01
2444.12
2443.24
2442.36
2441.48
2440.59
2439.72
2438.83
2437.96
2437.06
2436.19
2435.27
2434.4
2433.45
2432.58
2431.6
2430.71
2429.68
2428.77
2427.67
2426.72
2425.53
2424.52
2423.2
2422.09
2420.6
2419.33
2417.6
2416.11
2413.99
2412.16
2409.47
2407.06
2403.53
2400.13
2395.48
2389.72
2383.84
2371.39
2381.43
2294.2
2412.62
2475.01
2498.21
2523.97
2542.13
2549.24
2559.1
2557.21
2548.53
2545.19
2562.86
2559.38
2533.47
2447.93
2407.62
2437.58
2419.96
2524.51
2400.56
2408.32
2305.56
2380.78
2356.14
2445.25
2393.55
2265.42
2291.26
2233.77
2342.58
2285.22
2323.39
2225.74
2282.49
2317.5
2274.31
2154.48
2166.76
2138.94
2187.8
2258.53
2193.96
2159.12
2037.07
2115.28
2114.11
2186.04
2100.97
2065.19
2026.33
1982.39
2100.1
2043.55
2141.34
1910.22
1961.66
1954.8
1940.2
2060.92
1920.95
1954.38
1765.68
1876.52
1806.95
1957.54
1923.91
1915.59
1895.86
1789.03
1910.86
1821.64
1934.81
1711.3
1844.07
1728.05
1832.47
1801.42
1666.04
1715.76
1597.86
1724.72
1631.47
1762.91
1608.37
1648.17
1636.61
1648.2
1736.13
1647.68
1665.49
1547.58
1642.33
1561.75
1602.44
1518.88
1539.99
1615.44
1505.34
1512.78
1342.2
1438.45
1393.29
1454.88
1459.78
1414.82
1424.99
1341.11
1469.33
1416.57
1482.41
1342.34
1379.19
1366.9
1382.24
1476.76
1381.71
1439.64
1272.58
1350.76
1250.33
1356.54
1258.34
1239.23
1284.67
1265.49
1380.96
1240.98
1279.45
1116.73
1211.46
1127.3
1260.33
1240.39
1202.13
1239.49
1088.01
1122.15
1042.3
1139.32
1002.86
1064.02
1005.07
1082.85
1097.13
1061.56
1031.42
893.433
994.231
928.926
1065.64
922.363
986.129
825.487
899.917
935.329
932.874
975.772
823.516
888.128
751.449
941.701
784.143
895.203
768.633
884.078
826.982
868.811
809.773
718.591
823.355
743.108
848.73
675.131
799.591
643.887
830.439
644.719
737.811
606.488
732.491
671.148
773.129
648.838
688.33
725.125
642.75
718.88
569.762
657.893
555.376
584.865
488.024
509.761
395.533
425.89
274.185
313.134
93.9069
18.2924
50.5665
-4.3922
2648.58
2529.39
2514.48
2511.63
2509.66
2507.55
2505.27
2503.04
2500.66
2498.6
2496.79
2495.01
2493.44
2491.92
2490.52
2489.19
2487.87
2486.63
2485.4
2484.24
2483.07
2481.94
2480.8
2479.71
2478.61
2477.54
2476.47
2475.41
2474.37
2473.33
2472.31
2471.29
2470.28
2469.28
2468.28
2467.29
2466.31
2465.34
2464.36
2463.4
2462.43
2461.48
2460.53
2459.59
2458.65
2457.71
2456.78
2455.85
2454.93
2454.01
2453.1
2452.19
2451.28
2450.38
2449.48
2448.58
2447.69
2446.79
2445.9
2445.02
2444.13
2443.25
2442.36
2441.49
2440.6
2439.73
2438.84
2437.97
2437.06
2436.2
2435.27
2434.41
2433.46
2432.58
2431.6
2430.71
2429.68
2428.77
2427.68
2426.73
2425.54
2424.52
2423.2
2422.1
2420.6
2419.33
2417.6
2416.11
2413.99
2412.16
2409.47
2407.06
2403.53
2400.12
2395.47
2389.7
2383.87
2371.36
2381.2
2297.34
2412.95
2474.35
2497.56
2523.2
2541.28
2548.51
2558.13
2556.39
2548.12
2544.89
2561.81
2557.43
2531.97
2448.86
2409.55
2438.56
2419.65
2521.84
2399.99
2408.76
2307.58
2381.76
2356.17
2442.22
2391.76
2267.22
2292.86
2235.42
2341.63
2284.24
2322.42
2227.6
2282.4
2315.06
2272.69
2156.25
2168.42
2140.78
2187.51
2255.78
2192.26
2159.4
2040
2116.42
2113.53
2183.6
2100.16
2065.6
2028.12
1984.61
2099.09
2041.49
2138.64
1912.57
1963.24
1955.78
1940.57
2058.06
1919.57
1954.32
1769.17
1877.75
1808.67
1955.71
1922.32
1914.19
1895.86
1791.19
1910.33
1820.47
1932.71
1713.44
1844.17
1729.31
1830.22
1799.6
1667.63
1716.59
1599.67
1724.98
1631.87
1760.41
1609.42
1649.26
1637.73
1648.21
1733.77
1646.45
1665.44
1549.24
1641.91
1561.44
1601.62
1520.56
1540.37
1612.96
1504.29
1512.95
1345.3
1439.46
1394.37
1454.33
1458.54
1414.61
1425.84
1343.31
1468.84
1415.18
1480.77
1343.45
1380.35
1368.04
1382.15
1474.57
1380.69
1438.27
1273.66
1351.47
1251.59
1354.67
1258.75
1240.86
1285.36
1264.96
1378.24
1240.23
1279.54
1118.65
1212.09
1129.14
1258.82
1238.82
1201.25
1237.73
1088.98
1123.24
1043.39
1138.21
1003.44
1064.77
1006.69
1082.16
1095.27
1059.95
1031.34
896.044
995.262
929.175
1063.66
921.813
985.383
828.39
901.043
934.733
931.362
973.816
824.224
889.091
753.332
940.263
784.47
894.67
770.021
883.416
826.245
866.87
809.83
720.779
823.092
742.52
846.876
675.654
799.785
645.24
827.944
644.908
737.768
608.095
732.313
670.275
770.652
649.533
688.118
723.43
641.772
717.253
570.087
656.267
554.435
583.775
487.127
508.602
394.587
424.535
272.894
310.885
95.3006
20.8457
50.9639
-4.20544
2643.75
2530.11
2516.02
2512.19
2509.91
2507.72
2505.42
2503.2
2500.81
2498.73
2496.9
2495.11
2493.54
2492.01
2490.6
2489.26
2487.93
2486.68
2485.46
2484.29
2483.12
2481.98
2480.84
2479.75
2478.65
2477.57
2476.5
2475.44
2474.4
2473.36
2472.34
2471.31
2470.31
2469.3
2468.31
2467.32
2466.33
2465.36
2464.38
2463.42
2462.45
2461.5
2460.55
2459.6
2458.66
2457.73
2456.8
2455.87
2454.95
2454.02
2453.11
2452.2
2451.29
2450.39
2449.49
2448.59
2447.7
2446.8
2445.91
2445.03
2444.14
2443.26
2442.37
2441.5
2440.61
2439.74
2438.84
2437.98
2437.07
2436.2
2435.28
2434.41
2433.47
2432.59
2431.61
2430.72
2429.69
2428.78
2427.68
2426.73
2425.54
2424.53
2423.21
2422.1
2420.6
2419.34
2417.6
2416.11
2413.99
2412.16
2409.47
2407.05
2403.52
2400.12
2395.47
2389.69
2383.94
2371.36
2381.11
2300.59
2413.32
2473.59
2496.88
2522.44
2540.36
2547.75
2557.09
2555.52
2547.67
2544.51
2560.68
2555.45
2530.44
2449.8
2411.47
2439.51
2419.59
2518.85
2399.51
2409.14
2309.73
2382.62
2356.2
2439.15
2390.01
2268.98
2294.38
2237.08
2340.64
2283.35
2321.43
2229.42
2282.37
2312.44
2271.11
2158.03
2170.02
2142.65
2187.21
2253.02
2190.66
2159.5
2043.12
2117.46
2112.97
2181.18
2099.41
2065.99
2029.89
1986.81
2097.96
2040.02
2135.41
1915.02
1964.73
1956.78
1940.88
2054.95
1918.68
1954.05
1772.71
1878.89
1810.5
1953.8
1920.79
1912.8
1895.78
1793.55
1909.45
1819.81
1930.07
1715.78
1844.07
1730.64
1827.97
1797.83
1669.24
1717.31
1601.86
1724.86
1632.38
1757.88
1610.59
1650.28
1638.83
1648.21
1731.35
1645.49
1665.12
1550.86
1641.49
1561.23
1600.78
1522.22
1540.69
1610.44
1503.45
1512.73
1348.72
1440.37
1395.5
1453.81
1457.36
1414.52
1426.61
1345.63
1468.04
1413.99
1478.98
1344.71
1381.4
1369.14
1382.11
1472.12
1379.86
1436.62
1275.29
1351.85
1252.89
1352.79
1259.24
1242.45
1285.93
1264.62
1375.38
1239.6
1279.13
1120.96
1212.62
1131.04
1257.21
1237.29
1200.38
1235.85
1090.03
1124.18
1044.57
1137.02
1004.26
1065.41
1008.3
1081.43
1093.42
1058.39
1031.24
898.781
995.94
929.758
1061.41
921.417
984.594
831.353
902.107
934.122
929.963
971.718
825.158
889.886
755.378
938.682
784.876
893.952
771.518
882.634
825.584
864.915
809.884
722.976
822.544
742.144
844.933
676.561
799.645
646.687
825.203
645.258
737.697
609.651
732.005
669.429
768.09
650.237
687.789
721.597
641.01
715.152
570.569
654.484
553.536
582.47
486.197
507.245
393.71
422.838
271.83
308.779
95.9927
24.092
51.3484
-4.0256
2639.47
2531
2516.93
2512.78
2510.13
2507.85
2505.53
2503.29
2500.92
2498.85
2497.01
2495.21
2493.63
2492.1
2490.67
2489.33
2488
2486.75
2485.51
2484.35
2483.17
2482.03
2480.89
2479.79
2478.69
2477.61
2476.54
2475.47
2474.43
2473.39
2472.37
2471.34
2470.33
2469.32
2468.33
2467.34
2466.35
2465.38
2464.4
2463.44
2462.47
2461.52
2460.56
2459.62
2458.68
2457.74
2456.81
2455.88
2454.96
2454.04
2453.12
2452.21
2451.31
2450.4
2449.5
2448.6
2447.71
2446.81
2445.92
2445.04
2444.15
2443.27
2442.38
2441.51
2440.62
2439.75
2438.85
2437.99
2437.08
2436.21
2435.29
2434.42
2433.47
2432.6
2431.62
2430.73
2429.7
2428.79
2427.69
2426.74
2425.55
2424.53
2423.21
2422.1
2420.61
2419.34
2417.6
2416.12
2413.99
2412.16
2409.47
2407.05
2403.53
2400.12
2395.48
2389.69
2384.03
2371.4
2381.03
2303.95
2413.69
2472.74
2496.18
2521.62
2539.44
2546.94
2556.02
2554.61
2547.18
2544.09
2559.46
2553.45
2528.89
2450.74
2413.39
2440.4
2419.57
2515.78
2399.09
2409.49
2312.06
2383.28
2356.26
2436.05
2388.26
2270.78
2295.85
2238.77
2339.66
2282.5
2320.41
2231.2
2282.27
2309.8
2269.56
2159.85
2171.58
2144.5
2186.93
2250.23
2189.12
2159.59
2046.23
2118.41
2112.43
2178.79
2098.72
2066.38
2031.63
1989.01
2096.76
2038.78
2131.93
1917.55
1966.16
1957.75
1941.23
2051.7
1918.13
1953.57
1776.32
1879.99
1812.39
1951.85
1919.29
1911.44
1895.65
1795.86
1908.49
1819.25
1927.31
1718.21
1843.82
1731.99
1825.73
1796.08
1670.91
1717.95
1604.09
1724.7
1632.99
1755.34
1611.84
1651.24
1639.87
1648.23
1728.88
1644.62
1664.69
1552.53
1641
1561.09
1599.93
1523.85
1540.98
1607.89
1502.76
1512.45
1352.17
1441.23
1396.67
1453.32
1456.22
1414.51
1427.29
1347.96
1467.01
1413.03
1477
1346.16
1382.37
1370.21
1382.09
1469.6
1379.09
1434.9
1277.05
1352.09
1254.21
1350.91
1259.79
1244.01
1286.42
1264.46
1372.32
1239.14
1278.45
1123.43
1213.09
1132.95
1255.55
1235.77
1199.5
1233.93
1091.15
1125.1
1045.75
1135.51
1005.48
1066
1009.89
1080.68
1091.59
1056.89
1031.11
901.672
996.517
930.329
1058.84
921.347
983.757
834.344
903.123
933.495
928.585
969.61
826.276
890.486
757.782
936.776
785.374
892.977
773.222
881.758
824.97
862.958
809.914
725.15
821.886
741.869
842.835
677.83
799.175
648.151
822.424
645.715
737.588
611.159
731.551
668.624
765.48
650.924
687.364
719.67
640.365
712.85
570.996
652.581
552.792
580.856
485.421
505.586
393.019
420.775
270.987
306.455
96.8817
27.2729
51.6895
-3.85649
2635.07
2532.38
2517.65
2513.16
2510.4
2507.97
2505.62
2503.38
2501.01
2498.92
2497.1
2495.3
2493.72
2492.18
2490.75
2489.4
2488.06
2486.81
2485.57
2484.4
2483.22
2482.07
2480.93
2479.83
2478.73
2477.65
2476.57
2475.51
2474.47
2473.42
2472.4
2471.37
2470.36
2469.35
2468.36
2467.36
2466.38
2465.4
2464.42
2463.46
2462.49
2461.54
2460.58
2459.64
2458.7
2457.76
2456.83
2455.9
2454.98
2454.05
2453.14
2452.23
2451.32
2450.41
2449.51
2448.61
2447.72
2446.83
2445.94
2445.05
2444.16
2443.28
2442.39
2441.52
2440.63
2439.76
2438.86
2437.99
2437.09
2436.22
2435.3
2434.43
2433.48
2432.61
2431.62
2430.74
2429.7
2428.79
2427.69
2426.74
2425.55
2424.54
2423.22
2422.11
2420.61
2419.35
2417.61
2416.12
2414
2412.17
2409.48
2407.06
2403.53
2400.12
2395.5
2389.7
2384.16
2371.47
2380.96
2307.37
2414.03
2471.84
2495.43
2520.77
2538.49
2546.05
2554.97
2553.67
2546.65
2543.64
2558.15
2551.45
2527.31
2451.68
2415.28
2441.25
2419.56
2512.7
2398.71
2409.76
2314.52
2383.84
2356.33
2432.96
2386.52
2272.61
2297.26
2240.56
2338.61
2281.7
2319.37
2232.93
2282.12
2307.18
2268.04
2161.7
2173.1
2146.34
2186.66
2247.44
2187.62
2159.67
2049.34
2119.31
2111.96
2176.34
2098.07
2066.78
2033.33
1991.2
2095.54
2037.54
2128.44
1920.14
1967.55
1958.7
1941.61
2048.47
1917.65
1953
1779.98
1881.07
1814.33
1949.87
1917.82
1910.09
1895.47
1798.14
1907.49
1818.71
1924.53
1720.68
1843.46
1733.37
1823.51
1794.34
1672.62
1718.49
1606.44
1724.47
1633.67
1752.8
1613.15
1652.15
1640.87
1648.26
1726.34
1643.78
1664.24
1554.35
1640.34
1561.02
1599.08
1525.45
1541.24
1605.33
1502.13
1512.16
1355.65
1442.08
1397.88
1452.85
1455.13
1414.55
1427.91
1350.29
1465.88
1412.19
1474.9
1347.72
1383.28
1371.24
1382.08
1467.09
1378.34
1433.13
1278.79
1352.27
1255.56
1349.05
1260.39
1245.55
1286.85
1264.38
1369.16
1238.73
1277.75
1125.92
1213.51
1134.88
1253.84
1234.26
1198.63
1231.95
1092.31
1125.96
1046.95
1133.88
1006.9
1066.52
1011.47
1079.91
1089.77
1055.43
1030.97
904.623
997.022
930.932
1056.16
921.436
982.875
837.341
904.103
932.862
927.247
967.499
827.485
890.96
760.382
934.681
785.957
891.933
774.951
880.805
824.391
861.012
809.92
727.297
821.191
741.634
840.628
679.208
798.569
649.65
819.612
646.24
737.309
612.757
730.982
667.878
762.816
651.576
686.855
717.669
639.723
710.436
571.39
650.584
552.029
579.111
484.753
503.689
392.458
418.464
270.266
303.986
97.9731
30.3064
52.0068
-3.68259
2630.92
2533.44
2518.48
2513.53
2510.56
2508.13
2505.7
2503.45
2501.08
2498.99
2497.17
2495.36
2493.79
2492.25
2490.82
2489.47
2488.13
2486.87
2485.63
2484.46
2483.27
2482.12
2480.98
2479.87
2478.77
2477.68
2476.61
2475.54
2474.5
2473.45
2472.43
2471.4
2470.39
2469.38
2468.38
2467.39
2466.4
2465.42
2464.44
2463.48
2462.51
2461.56
2460.6
2459.66
2458.72
2457.78
2456.85
2455.91
2454.99
2454.07
2453.15
2452.24
2451.33
2450.43
2449.53
2448.63
2447.73
2446.84
2445.95
2445.06
2444.17
2443.29
2442.4
2441.53
2440.64
2439.77
2438.87
2438
2437.1
2436.23
2435.31
2434.44
2433.49
2432.61
2431.63
2430.74
2429.71
2428.8
2427.7
2426.75
2425.56
2424.55
2423.23
2422.12
2420.62
2419.35
2417.62
2416.13
2414
2412.18
2409.49
2407.07
2403.55
2400.14
2395.53
2389.72
2384.31
2371.58
2380.91
2310.8
2414.35
2470.9
2494.62
2519.88
2537.51
2545.1
2553.92
2552.69
2546.08
2543.19
2556.73
2549.46
2525.69
2452.62
2417.16
2442.05
2419.58
2509.61
2398.37
2409.91
2317.08
2384.37
2356.41
2429.88
2384.79
2274.44
2298.63
2242.48
2337.45
2280.97
2318.32
2234.6
2281.93
2304.57
2266.55
2163.57
2174.58
2148.17
2186.39
2244.66
2186.15
2159.72
2052.43
2120.15
2111.62
2173.77
2097.44
2067.17
2035
1993.38
2094.3
2036.35
2124.94
1922.76
1968.91
1959.61
1942.01
2045.25
1917.19
1952.44
1783.67
1882.13
1816.3
1947.88
1916.37
1908.77
1895.24
1800.38
1906.43
1818.24
1921.73
1723.17
1843.01
1734.74
1821.32
1792.62
1674.34
1718.93
1608.91
1724.18
1634.4
1750.28
1614.5
1653.03
1641.83
1648.3
1723.78
1643
1663.73
1556.3
1639.51
1561
1598.24
1526.99
1541.47
1602.77
1501.55
1511.87
1359.16
1442.91
1399.11
1452.39
1454.09
1414.62
1428.49
1352.61
1464.74
1411.39
1472.8
1349.3
1384.13
1372.25
1382.08
1464.57
1377.6
1431.33
1280.53
1352.39
1256.94
1347.22
1261.02
1247.06
1287.23
1264.29
1366
1238.34
1277.04
1128.43
1213.91
1136.8
1252.1
1232.75
1197.77
1229.95
1093.49
1126.77
1048.16
1132.31
1008.34
1067
1013.02
1079.12
1087.97
1054.02
1030.81
907.557
997.495
931.572
1053.51
921.554
981.969
840.329
905.052
932.227
925.951
965.395
828.706
891.38
762.986
932.579
786.607
890.884
776.641
879.793
823.836
859.084
809.907
729.404
820.457
741.434
838.422
680.567
797.875
651.159
816.784
646.81
736.775
614.549
730.313
667.177
760.117
652.178
686.268
715.613
639.051
707.953
571.737
648.508
551.203
577.306
484.075
501.731
391.869
416.167
269.497
301.433
99.1896
33.2258
52.3094
-3.49896
2626.95
2534.41
2519.2
2513.96
2510.72
2508.21
2505.8
2503.52
2501.13
2499.06
2497.23
2495.42
2493.85
2492.3
2490.87
2489.53
2488.18
2486.93
2485.68
2484.51
2483.32
2482.17
2481.03
2479.92
2478.81
2477.73
2476.65
2475.58
2474.54
2473.49
2472.46
2471.43
2470.42
2469.41
2468.41
2467.41
2466.42
2465.45
2464.46
2463.5
2462.53
2461.58
2460.62
2459.68
2458.73
2457.79
2456.86
2455.93
2455.01
2454.08
2453.17
2452.26
2451.35
2450.44
2449.54
2448.64
2447.75
2446.85
2445.96
2445.07
2444.18
2443.3
2442.41
2441.54
2440.65
2439.78
2438.88
2438.01
2437.11
2436.24
2435.32
2434.45
2433.5
2432.62
2431.64
2430.75
2429.72
2428.81
2427.71
2426.76
2425.57
2424.56
2423.24
2422.13
2420.63
2419.36
2417.62
2416.14
2414.01
2412.19
2409.5
2407.08
2403.56
2400.15
2395.56
2389.76
2384.5
2371.71
2380.87
2314.21
2414.65
2469.94
2493.77
2518.94
2536.49
2544.12
2552.86
2551.68
2545.47
2542.75
2555.22
2547.47
2524.05
2453.54
2419.01
2442.81
2419.62
2506.52
2398.05
2410.04
2319.63
2384.85
2356.5
2426.83
2383.07
2276.26
2299.97
2244.5
2336.2
2280.29
2317.26
2236.22
2281.69
2301.99
2265.08
2165.43
2176.03
2149.97
2186.13
2241.91
2184.72
2159.76
2055.5
2120.96
2111.35
2171.16
2096.84
2067.57
2036.63
1995.53
2093.05
2035.21
2121.46
1925.37
1970.22
1960.51
1942.43
2042.05
1916.79
1951.87
1787.36
1883.19
1818.29
1945.89
1914.94
1907.46
1894.96
1802.56
1905.32
1817.82
1918.94
1725.66
1842.49
1736.11
1819.17
1790.93
1676.06
1719.32
1611.44
1723.86
1635.17
1747.8
1615.88
1653.87
1642.75
1648.34
1721.23
1642.25
1663.19
1558.29
1638.59
1561.04
1597.4
1528.49
1541.68
1600.23
1501.03
1511.58
1362.67
1443.74
1400.38
1451.95
1453.09
1414.73
1429.03
1354.91
1463.62
1410.62
1470.72
1350.86
1384.94
1373.21
1382.07
1462.05
1376.87
1429.51
1282.26
1352.45
1258.32
1345.44
1261.68
1248.54
1287.55
1264.21
1362.85
1237.97
1276.3
1130.94
1214.28
1138.71
1250.36
1231.24
1196.92
1227.92
1094.69
1127.54
1049.38
1130.8
1009.82
1067.45
1014.54
1078.33
1086.2
1052.65
1030.64
910.467
997.933
932.237
1050.89
921.712
981.055
843.295
905.973
931.594
924.693
963.305
829.932
891.756
765.582
930.483
787.308
889.826
778.297
878.735
823.297
857.183
809.872
731.462
819.686
741.267
836.221
681.919
797.1
652.665
813.955
647.41
736.115
616.401
729.538
666.524
757.398
652.725
685.607
713.509
638.354
705.404
572.029
646.361
550.332
575.436
483.343
499.778
391.181
413.94
268.684
298.821
100.484
36.044
52.5943
-3.30477
2623.15
2535.28
2519.89
2514.33
2510.93
2508.3
2505.88
2503.56
2501.2
2499.12
2497.27
2495.48
2493.89
2492.35
2490.92
2489.57
2488.23
2486.98
2485.73
2484.55
2483.37
2482.22
2481.07
2479.96
2478.85
2477.76
2476.69
2475.62
2474.57
2473.52
2472.49
2471.46
2470.45
2469.43
2468.44
2467.44
2466.45
2465.47
2464.49
2463.53
2462.55
2461.6
2460.64
2459.7
2458.75
2457.81
2456.88
2455.95
2455.03
2454.1
2453.19
2452.27
2451.36
2450.46
2449.56
2448.66
2447.76
2446.87
2445.97
2445.08
2444.2
2443.32
2442.43
2441.55
2440.66
2439.79
2438.89
2438.03
2437.12
2436.25
2435.33
2434.46
2433.51
2432.63
2431.65
2430.76
2429.73
2428.82
2427.72
2426.77
2425.58
2424.57
2423.25
2422.14
2420.64
2419.37
2417.63
2416.15
2414.01
2412.21
2409.51
2407.09
2403.58
2400.18
2395.61
2389.8
2384.7
2371.87
2380.84
2317.6
2414.94
2468.96
2492.9
2517.95
2535.42
2543.11
2551.78
2550.66
2544.81
2542.29
2553.64
2545.5
2522.42
2454.45
2420.82
2443.52
2419.67
2503.46
2397.76
2410.14
2322.15
2385.28
2356.59
2423.83
2381.38
2278.08
2301.27
2246.54
2334.93
2279.66
2316.2
2237.77
2281.41
2299.46
2263.65
2167.29
2177.46
2151.74
2185.87
2239.19
2183.33
2159.79
2058.53
2121.73
2111.09
2168.58
2096.28
2067.96
2038.23
1997.65
2091.79
2034.14
2118.01
1927.98
1971.5
1961.39
1942.85
2038.88
1916.44
1951.31
1791.04
1884.23
1820.28
1943.91
1913.52
1906.17
1894.66
1804.69
1904.17
1817.44
1916.15
1728.15
1841.91
1737.45
1817.07
1789.28
1677.77
1719.7
1613.98
1723.51
1635.98
1745.37
1617.28
1654.68
1643.63
1648.38
1718.71
1641.53
1662.62
1560.22
1637.66
1561.13
1596.58
1529.94
1541.86
1597.73
1500.57
1511.28
1366.17
1444.57
1401.66
1451.54
1452.14
1414.87
1429.54
1357.17
1462.48
1409.9
1468.66
1352.42
1385.7
1374.15
1382.06
1459.53
1376.15
1427.67
1283.99
1352.46
1259.71
1343.71
1262.36
1249.99
1287.83
1264.14
1359.73
1237.64
1275.55
1133.43
1214.62
1140.6
1248.62
1229.73
1196.07
1225.89
1095.89
1128.24
1050.61
1129.32
1011.32
1067.87
1016.04
1077.54
1084.46
1051.32
1030.47
913.347
998.34
932.922
1048.3
921.91
980.14
846.228
906.868
930.968
923.473
961.238
831.164
892.09
768.165
928.398
788.052
888.764
779.912
877.639
822.772
855.314
809.818
733.465
818.884
741.129
834.029
683.264
796.257
654.157
811.136
648.03
735.432
618.202
728.659
665.926
754.667
653.212
684.879
711.364
637.627
702.797
572.258
644.154
549.416
573.501
482.563
497.783
390.449
411.67
267.957
296.162
101.823
38.7851
52.8556
-3.11166
2619.5
2536.06
2520.54
2514.7
2511.12
2508.42
2505.95
2503.6
2501.23
2499.18
2497.33
2495.52
2493.94
2492.4
2490.96
2489.6
2488.27
2487.01
2485.76
2484.59
2483.41
2482.25
2481.11
2480
2478.89
2477.8
2476.72
2475.65
2474.6
2473.55
2472.53
2471.49
2470.48
2469.46
2468.46
2467.47
2466.48
2465.5
2464.51
2463.55
2462.58
2461.62
2460.66
2459.72
2458.77
2457.83
2456.9
2455.97
2455.04
2454.12
2453.2
2452.29
2451.38
2450.47
2449.57
2448.67
2447.77
2446.88
2445.99
2445.1
2444.21
2443.33
2442.44
2441.56
2440.67
2439.8
2438.9
2438.04
2437.13
2436.26
2435.34
2434.47
2433.52
2432.64
2431.66
2430.77
2429.74
2428.83
2427.73
2426.78
2425.59
2424.58
2423.26
2422.15
2420.65
2419.38
2417.64
2416.16
2414.02
2412.23
2409.53
2407.11
2403.61
2400.2
2395.66
2389.85
2384.93
2372.05
2380.83
2320.95
2415.22
2467.98
2492
2516.93
2534.32
2542.06
2550.68
2549.63
2544.14
2541.79
2552.03
2543.54
2520.8
2455.35
2422.6
2444.18
2419.74
2500.43
2397.5
2410.23
2324.64
2385.67
2356.69
2420.87
2379.72
2279.87
2302.53
2248.57
2333.67
2279.09
2315.14
2239.25
2281.1
2296.96
2262.26
2169.14
2178.85
2153.47
2185.62
2236.51
2181.99
2159.8
2061.51
2122.47
2110.85
2166.05
2095.73
2068.36
2039.78
1999.73
2090.53
2033.12
2114.6
1930.57
1972.74
1962.24
1943.27
2035.76
1916.15
1950.75
1794.71
1885.26
1822.28
1941.94
1912.13
1904.9
1894.32
1806.76
1902.99
1817.11
1913.39
1730.62
1841.27
1738.78
1815.02
1787.67
1679.47
1720.07
1616.52
1723.14
1636.83
1742.99
1618.69
1655.45
1644.47
1648.41
1716.22
1640.83
1662.03
1562.1
1636.73
1561.26
1595.78
1531.33
1542.02
1595.26
1500.15
1510.99
1369.65
1445.41
1402.96
1451.14
1451.24
1415.05
1430.03
1359.4
1461.35
1409.21
1466.63
1353.96
1386.43
1375.05
1382.04
1457.04
1375.44
1425.83
1285.69
1352.44
1261.09
1342.04
1263.06
1251.4
1288.07
1264.06
1356.63
1237.32
1274.79
1135.91
1214.95
1142.47
1246.88
1228.23
1195.22
1223.87
1097.1
1128.9
1051.83
1127.89
1012.85
1068.27
1017.5
1076.75
1082.75
1050.04
1030.3
916.186
998.717
933.623
1045.74
922.14
979.23
849.115
907.731
930.345
922.293
959.202
832.4
892.384
770.724
926.332
788.83
887.704
781.483
876.515
822.259
853.483
809.745
735.409
818.056
741.014
831.852
684.592
795.356
655.628
808.335
648.664
734.727
619.952
727.692
665.376
751.93
653.637
684.085
709.182
636.866
700.14
572.423
641.892
548.455
571.512
481.741
495.739
389.681
409.357
267.322
293.463
103.191
41.4642
53.1287
-2.90849
2616.01
2536.74
2521.14
2515.05
2511.31
2508.53
2506.02
2503.66
2501.27
2499.22
2497.36
2495.57
2493.99
2492.43
2491
2489.64
2488.3
2487.04
2485.8
2484.62
2483.43
2482.28
2481.14
2480.03
2478.92
2477.83
2476.75
2475.68
2474.64
2473.58
2472.56
2471.52
2470.51
2469.49
2468.49
2467.49
2466.5
2465.52
2464.54
2463.57
2462.6
2461.65
2460.69
2459.74
2458.79
2457.85
2456.92
2455.98
2455.06
2454.14
2453.22
2452.31
2451.4
2450.49
2449.59
2448.69
2447.79
2446.89
2446
2445.11
2444.22
2443.34
2442.45
2441.58
2440.69
2439.81
2438.92
2438.05
2437.14
2436.27
2435.35
2434.48
2433.53
2432.65
2431.67
2430.78
2429.75
2428.84
2427.74
2426.79
2425.6
2424.59
2423.27
2422.16
2420.66
2419.4
2417.66
2416.17
2414.03
2412.24
2409.55
2407.14
2403.64
2400.24
2395.72
2389.91
2385.18
2372.26
2380.83
2324.24
2415.48
2467
2491.08
2515.86
2533.17
2540.97
2549.53
2548.57
2543.43
2541.23
2550.42
2541.58
2519.21
2456.22
2424.32
2444.8
2419.81
2497.45
2397.27
2410.3
2327.1
2386.01
2356.78
2417.98
2378.09
2281.65
2303.75
2250.57
2332.43
2278.57
2314.09
2240.67
2280.75
2294.53
2260.9
2170.97
2180.21
2155.17
2185.38
2233.88
2180.68
2159.81
2064.45
2123.18
2110.63
2163.56
2095.21
2068.75
2041.3
2001.78
2089.27
2032.15
2111.26
1933.12
1973.94
1963.07
1943.69
2032.7
1915.91
1950.19
1798.35
1886.28
1824.27
1940
1910.75
1903.66
1893.96
1808.76
1901.78
1816.81
1910.66
1733.05
1840.59
1740.07
1813.01
1786.1
1681.14
1720.42
1619.06
1722.75
1637.7
1740.66
1620.1
1656.19
1645.28
1648.45
1713.76
1640.16
1661.41
1563.92
1635.78
1561.42
1594.99
1532.66
1542.16
1592.84
1499.78
1510.71
1373.1
1446.25
1404.27
1450.77
1450.38
1415.26
1430.48
1361.58
1460.22
1408.56
1464.63
1355.47
1387.12
1375.9
1382.02
1454.56
1374.74
1423.99
1287.37
1352.37
1262.47
1340.41
1263.78
1252.77
1288.27
1263.98
1353.57
1237.03
1274.01
1138.36
1215.26
1144.31
1245.15
1226.74
1194.36
1221.85
1098.31
1129.5
1053.04
1126.52
1014.39
1068.65
1018.92
1075.95
1081.08
1048.8
1030.12
918.977
999.063
934.335
1043.22
922.4
978.33
851.954
908.566
929.733
921.15
957.194
833.629
892.64
773.251
924.292
789.636
886.646
783.006
875.364
821.752
851.688
809.653
737.287
817.205
740.917
829.694
685.897
794.407
657.072
805.559
649.305
733.995
621.644
726.663
664.845
749.188
653.994
683.23
706.97
636.069
697.441
572.522
639.584
547.455
569.474
480.875
493.656
388.881
407.027
266.756
290.73
104.545
44.0605
53.3882
-2.70325
2612.65
2537.34
2521.7
2515.39
2511.49
2508.63
2506.09
2503.71
2501.33
2499.27
2497.38
2495.61
2494.01
2492.47
2491.03
2489.67
2488.33
2487.08
2485.83
2484.65
2483.46
2482.31
2481.17
2480.05
2478.95
2477.86
2476.78
2475.71
2474.66
2473.61
2472.58
2471.55
2470.53
2469.52
2468.52
2467.52
2466.53
2465.55
2464.56
2463.6
2462.62
2461.67
2460.71
2459.76
2458.81
2457.87
2456.94
2456
2455.08
2454.15
2453.24
2452.32
2451.41
2450.51
2449.6
2448.7
2447.8
2446.91
2446.02
2445.13
2444.24
2443.36
2442.47
2441.59
2440.7
2439.83
2438.93
2438.06
2437.15
2436.29
2435.36
2434.49
2433.54
2432.67
2431.68
2430.79
2429.76
2428.85
2427.75
2426.8
2425.61
2424.6
2423.28
2422.17
2420.68
2419.41
2417.67
2416.19
2414.05
2412.26
2409.58
2407.17
2403.68
2400.28
2395.79
2389.98
2385.42