/*--------------------------------*- C++ -*----------------------------------*\
| =========                 |                                                 |
| \\      /  F ield         | foam-extend: Open Source CFD                    |
|  \\    /   O peration     | Version:     3.2                                |
|   \\  /    A nd           | Web:         http://www.foam-extend.org         |
|    \\/     M anipulation  | For copyright notice see file Copyright         |
\*---------------------------------------------------------------------------*/
FoamFile
{
    version     2.0;
    format      ascii;
    class       areaScalarField;
    location    "160";
    object      Pef;
}
// * * * * * * * * * * * * * * * * * * * * * * * * * * * * * * * * * * * * * //

dimensions      [0 0 0 0 0 0 0];

internalField   nonuniform List<scalar> 
300
(
0.996918
0.992009
0.963813
0.922379
0.894485
0.875779
0.860155
0.844908
0.829478
0.814263
0.799663
0.785784
0.772534
0.760161
0.748571
0.737671
0.727391
0.717649
0.708508
0.7
0.691945
0.684255
0.676914
0.669932
0.66329
0.656938
0.65086
0.645032
0.639451
0.634126
0.628991
0.624074
0.619312
0.61475
0.610339
0.606113
0.602001
0.598052
0.594206
0.590504
0.586913
0.583442
0.580066
0.576799
0.57361
0.570535
0.567527
0.56463
0.561776
0.559034
0.556324
0.553723
0.551156
0.548688
0.546247
0.543897
0.541569
0.539337
0.53708
0.534951
0.532791
0.530771
0.528705
0.526791
0.524813
0.523008
0.521112
0.519411
0.517596
0.516001
0.514269
0.512786
0.511141
0.509779
0.508227
0.506997
0.50556
0.504477
0.503183
0.502275
0.501161
0.500463
0.4996
0.499155
0.498673
0.498517
0.498533
0.498868
0.499428
0.500558
0.502208
0.50433
0.507629
0.511289
0.517896
0.524664
0.539821
0.546016
0.624363
0.587404
0.301746
0.248531
0.253231
0.238276
0.23427
0.228584
0.216765
0.218585
0.213499
0.324225
0.333746
0.198019
0.208734
0.206029
0.317916
0.382687
0.319073
0.193332
0.202931
0.166868
0.324251
0.353224
0.349799
0.138544
0.222799
0.147352
0.330291
0.345607
0.364695
0.17666
0.168889
0.367285
0.305431
0.158406
0.222567
0.156933
0.342247
0.398176
0.323049
0.157869
0.160786
0.205018
0.344918
0.328373
0.347176
0.177545
0.187333
0.13016
0.388615
0.33786
0.368487
0.0979735
0.17452
0.236535
0.324157
0.436172
0.340381
0.202012
0.182398
0.242958
0.404207
0.393139
0.409223
0.374272
0.262124
0.186159
0.258841
0.34005
0.395152
0.186938
0.242126
0.226012
0.351209
0.403893
0.187137
0.282593
0.204125
0.366995
0.304909
0.347232
0.354757
0.185993
0.2134
0.309395
0.381879
0.317124
0.18408
0.155519
0.188271
0.360012
0.374601
0.231718
0.206072
0.388924
0.298408
0.207161
0.195634
0.242726
0.34504
0.318198
0.395702
0.350667
0.199469
0.151239
0.403169
0.383195
0.371194
0.20262
0.183276
0.184629
0.301935
0.392717
0.349419
0.256015
0.192237
0.193238
0.194102
0.360719
0.34797
0.155835
0.204869
0.294727
0.365181
0.316463
0.234814
0.242583
0.253842
0.356363
0.333345
0.347707
0.325577
0.268214
0.146587
0.183046
0.218943
0.401615
0.343099
0.209843
0.187136
0.296681
0.332695
0.302643
0.165863
0.130872
0.240935
0.358964
0.384201
0.343845
0.21076
0.177942
0.17579
0.366956
0.301818
0.345419
0.129096
0.184577
0.153258
0.384197
0.339495
0.39451
0.267697
0.202546
0.339325
0.322608
0.203119
0.15161
0.251411
0.325715
0.373804
0.176264
0.195283
0.145413
0.360241
0.344944
0.214789
0.241781
0.187865
0.313058
0.303045
0.138604
0.143605
0.197546
0.245961
0.227565
0.194672
0.244306
0.226142
0.170975
0.196012
0.217308
0.221078
0.261138
0.25324
0.322373
0.300059
0.468147
0.671381
0.520998
0.410402
0.370415
)
;

boundaryField
{
    inlet
    {
        type            calculated;
        value           uniform 0;
    }
    outlet
    {
        type            calculated;
        value           uniform 0;
    }
    sideWall
    {
        type            empty;
    }
}


// ************************************************************************* //
