/*--------------------------------*- C++ -*----------------------------------*\
| =========                 |                                                 |
| \\      /  F ield         | foam-extend: Open Source CFD                    |
|  \\    /   O peration     | Version:     3.2                                |
|   \\  /    A nd           | Web:         http://www.foam-extend.org         |
|    \\/     M anipulation  | For copyright notice see file Copyright         |
\*---------------------------------------------------------------------------*/
FoamFile
{
    version     2.0;
    format      ascii;
    class       surfaceScalarField;
    location    "160";
    object      phi;
}
// * * * * * * * * * * * * * * * * * * * * * * * * * * * * * * * * * * * * * //

dimensions      [0 3 -1 0 0 0 0];

internalField   nonuniform List<scalar> 
191380
(
6.20161e-05
3.92339e-05
4.34317e-05
1.85844e-05
3.68831e-05
6.54863e-06
3.4861e-05
2.02208e-06
3.39661e-05
8.94841e-07
3.33299e-05
6.36244e-07
3.27754e-05
5.54476e-07
3.22528e-05
5.22656e-07
3.17611e-05
4.91709e-07
3.13152e-05
4.45886e-07
3.09158e-05
3.99341e-07
3.05513e-05
3.64527e-07
3.0221e-05
3.303e-07
2.99227e-05
2.98258e-07
2.96509e-05
2.71863e-07
2.94013e-05
2.49537e-07
2.91694e-05
2.31986e-07
2.89547e-05
2.14691e-07
2.87583e-05
1.96383e-07
2.85779e-05
1.80398e-07
2.84077e-05
1.70209e-07
2.82465e-05
1.61132e-07
2.80941e-05
1.52473e-07
2.79505e-05
1.43552e-07
2.78145e-05
1.36012e-07
2.76852e-05
1.29326e-07
2.75619e-05
1.23261e-07
2.74442e-05
1.17762e-07
2.73324e-05
1.11733e-07
2.72255e-05
1.06911e-07
2.71233e-05
1.02232e-07
2.7025e-05
9.83309e-08
2.69306e-05
9.43898e-08
2.68399e-05
9.06662e-08
2.6753e-05
8.6921e-08
2.66692e-05
8.38002e-08
2.65883e-05
8.09136e-08
2.65102e-05
7.80158e-08
2.64346e-05
7.56572e-08
2.63618e-05
7.27433e-08
2.62913e-05
7.05136e-08
2.62231e-05
6.81907e-08
2.6157e-05
6.6162e-08
2.60927e-05
6.42734e-08
2.60305e-05
6.22537e-08
2.597e-05
6.04586e-08
2.59115e-05
5.85376e-08
2.58543e-05
5.71427e-08
2.57989e-05
5.54389e-08
2.57448e-05
5.40927e-08
2.56921e-05
5.26487e-08
2.56409e-05
5.11925e-08
2.55911e-05
4.98486e-08
2.55425e-05
4.85906e-08
2.54951e-05
4.74162e-08
2.54488e-05
4.63224e-08
2.54037e-05
4.50711e-08
2.53591e-05
4.45728e-08
2.53157e-05
4.3435e-08
2.52732e-05
4.25274e-08
2.52318e-05
4.13795e-08
2.51914e-05
4.03937e-08
2.5152e-05
3.94039e-08
2.51136e-05
3.84234e-08
2.50761e-05
3.74244e-08
2.50397e-05
3.64396e-08
2.50041e-05
3.55767e-08
2.49697e-05
3.4465e-08
2.49359e-05
3.37451e-08
2.49035e-05
3.24132e-08
2.48717e-05
3.17939e-08
2.48415e-05
3.01953e-08
2.48118e-05
2.96739e-08
2.4784e-05
2.78184e-08
2.47567e-05
2.73352e-08
2.47318e-05
2.49084e-08
2.47071e-05
2.46567e-08
2.46857e-05
2.14151e-08
2.46644e-05
2.12503e-08
2.46473e-05
1.71402e-08
2.46303e-05
1.7051e-08
2.46189e-05
1.13845e-08
2.46074e-05
1.15188e-08
2.4604e-05
3.37728e-09
2.46001e-05
3.83184e-09
2.46062e-05
-6.02369e-09
2.46141e-05
-7.93828e-09
2.4633e-05
-1.89363e-08
2.46568e-05
-2.37769e-08
2.47006e-05
-4.37457e-08
2.47491e-05
-4.85174e-08
2.48264e-05
-7.73526e-08
2.49137e-05
-8.7299e-08
2.50529e-05
-1.39196e-07
2.52269e-05
-1.74012e-07
2.55175e-05
-2.9055e-07
2.57987e-05
-2.8117e-07
2.69213e-05
-1.12264e-06
2.76432e-05
-7.21943e-07
2.09691e-05
6.67418e-06
1.7133e-05
3.83676e-06
1.86017e-05
-1.46807e-06
1.9302e-05
-7.0015e-07
1.96396e-05
-3.37396e-07
2.00758e-05
-4.36185e-07
2.01542e-05
-7.83876e-08
2.04277e-05
-2.73596e-07
2.06938e-05
-2.6531e-07
2.0596e-05
9.69138e-08
2.06903e-05
-9.81155e-08
2.09977e-05
-3.04695e-07
2.13088e-05
-3.0476e-07
2.16836e-05
-3.73869e-07
2.0653e-05
1.02536e-06
2.11741e-05
-5.31729e-07
2.15421e-05
-3.69945e-07
2.05118e-05
1.04104e-06
2.24268e-05
-1.90827e-06
2.10611e-05
1.36578e-06
2.09367e-05
1.19719e-07
2.06007e-05
3.25012e-07
2.17797e-05
-1.18272e-06
2.05711e-05
1.21886e-06
2.21977e-05
-1.61834e-06
2.21848e-05
1.35824e-08
2.01051e-05
2.07546e-06
2.12534e-05
-1.15811e-06
2.12317e-05
1.59903e-08
2.22253e-05
-9.84533e-07
2.12732e-05
9.63331e-07
2.2116e-05
-8.51494e-07
2.04786e-05
1.62835e-06
2.05838e-05
-9.58068e-08
2.27994e-05
-2.20706e-06
2.24347e-05
3.67298e-07
2.0558e-05
1.87223e-06
2.21654e-05
-1.62071e-06
2.14278e-05
7.35329e-07
2.05339e-05
9.06554e-07
2.16024e-05
-1.05933e-06
2.20358e-05
-4.34378e-07
2.23104e-05
-2.80366e-07
2.03323e-05
1.97285e-06
2.11408e-05
-8.11075e-07
2.1535e-05
-3.90764e-07
2.25014e-05
-9.5766e-07
2.09764e-05
1.5288e-06
2.14883e-05
-5.20079e-07
2.19781e-05
-5.00436e-07
2.10593e-05
9.17261e-07
2.08914e-05
1.76683e-07
2.00756e-05
8.27096e-07
2.38383e-05
-3.7587e-06
2.12333e-05
2.60053e-06
2.23878e-05
-1.16711e-06
2.26179e-05
-2.36087e-07
2.09818e-05
1.64748e-06
2.24199e-05
-1.42617e-06
2.17653e-05
6.56273e-07
2.36923e-05
-1.93365e-06
2.18943e-05
1.79185e-06
2.30841e-05
-1.19013e-06
2.17589e-05
1.32348e-06
2.2716e-05
-9.53963e-07
2.16404e-05
1.08482e-06
2.17684e-05
-1.26703e-07
2.22254e-05
-4.66177e-07
2.11171e-05
1.09839e-06
2.21848e-05
-1.06277e-06
2.10761e-05
1.11996e-06
2.33215e-05
-2.24272e-06
2.0597e-05
2.71523e-06
2.27876e-05
-2.2025e-06
2.13081e-05
1.48612e-06
2.2495e-05
-1.1751e-06
2.28034e-05
-3.0792e-07
2.07652e-05
2.03206e-06
2.11512e-05
-3.89836e-07
1.986e-05
1.2915e-06
2.21581e-05
-2.3013e-06
2.08087e-05
1.35599e-06
2.22424e-05
-1.42202e-06
2.04779e-05
1.75852e-06
2.13382e-05
-8.74805e-07
2.1406e-05
-7.08847e-08
2.04805e-05
9.35142e-07
2.13035e-05
-8.13715e-07
2.07054e-05
6.00627e-07
2.21486e-05
-1.45156e-06
2.15401e-05
5.95315e-07
2.28099e-05
-1.26401e-06
2.17027e-05
1.12003e-06
2.24395e-05
-7.45109e-07
2.07678e-05
1.66353e-06
2.0447e-05
3.31115e-07
2.22471e-05
-1.79062e-06
2.19208e-05
3.24804e-07
2.26639e-05
-7.47645e-07
2.00415e-05
2.62216e-06
2.20003e-05
-1.96127e-06
2.19446e-05
4.94728e-08
2.13884e-05
5.64979e-07
2.06067e-05
7.95314e-07
2.13002e-05
-7.02562e-07
2.31398e-05
-1.85441e-06
2.15598e-05
1.58019e-06
2.19952e-05
-4.27334e-07
2.07681e-05
1.23486e-06
2.15246e-05
-7.54568e-07
1.99974e-05
1.52154e-06
2.15473e-05
-1.56065e-06
2.20991e-05
-5.58091e-07
2.19216e-05
1.82136e-07
2.25651e-05
-6.3715e-07
2.06581e-05
1.90924e-06
2.18929e-05
-1.23344e-06
2.08827e-05
1.00051e-06
2.21138e-05
-1.24183e-06
2.02846e-05
1.84166e-06
2.15308e-05
-1.23216e-06
2.05577e-05
9.67172e-07
2.06415e-05
-9.56618e-08
2.1499e-05
-8.60441e-07
2.12019e-05
3.03003e-07
2.35008e-05
-2.29245e-06
2.23392e-05
1.1622e-06
2.27057e-05
-3.7066e-07
2.04067e-05
2.29632e-06
2.14863e-05
-1.07908e-06
2.04351e-05
1.04908e-06
2.24944e-05
-2.05982e-06
2.14682e-05
1.03154e-06
1.97713e-05
1.70192e-06
2.21733e-05
-2.40103e-06
2.21106e-05
5.18369e-08
2.22941e-05
-1.92525e-07
2.08326e-05
1.47384e-06
2.18739e-05
-1.02936e-06
1.97584e-05
2.1084e-06
2.07009e-05
-9.54099e-07
2.02782e-05
4.20503e-07
2.05642e-05
-2.78956e-07
2.04054e-05
1.68635e-07
2.15632e-05
-1.15474e-06
2.29395e-05
-1.38219e-06
2.14207e-05
1.51015e-06
2.22744e-05
-8.55311e-07
2.09342e-05
1.34779e-06
2.19601e-05
-1.0178e-06
2.02466e-05
1.71408e-06
2.21866e-05
-1.94654e-06
2.04241e-05
1.75654e-06
2.06775e-05
-2.54302e-07
2.0469e-05
2.14135e-07
2.01879e-05
2.91098e-07
2.14717e-05
-1.28016e-06
2.09771e-05
4.8744e-07
2.25976e-05
-1.62826e-06
2.11252e-05
1.46772e-06
2.39263e-05
-2.79911e-06
2.12507e-05
2.68483e-06
2.15151e-05
-2.67855e-07
2.02574e-05
1.24599e-06
2.13471e-05
-1.08656e-06
2.02446e-05
1.11329e-06
2.16928e-05
-1.44574e-06
2.20894e-05
-4.04133e-07
2.08555e-05
1.2254e-06
2.1726e-05
-8.66453e-07
2.02149e-05
1.52257e-06
2.10928e-05
-8.74127e-07
1.99415e-05
1.14066e-06
2.26313e-05
-2.7016e-06
2.0672e-05
1.96489e-06
2.29945e-05
-2.3136e-06
2.06987e-05
2.29636e-06
2.09577e-05
-2.63698e-07
1.95599e-05
1.39051e-06
2.00875e-05
-5.24919e-07
1.92435e-05
8.53839e-07
2.14646e-05
-2.21976e-06
1.94434e-05
2.01541e-06
2.03574e-05
-9.16546e-07
2.22465e-05
-1.88633e-06
2.1288e-05
9.58654e-07
2.26834e-05
-1.39727e-06
1.99651e-05
2.71846e-06
2.07663e-05
-8.00929e-07
2.08693e-05
-1.03127e-07
2.16579e-05
-7.88604e-07
2.15175e-05
1.40372e-07
2.23574e-05
-8.39882e-07
2.22164e-05
1.41031e-07
2.33248e-05
-1.10808e-06
2.40643e-05
-7.38937e-07
2.98289e-05
-5.76379e-06
2.76813e-05
2.14789e-06
2.27444e-05
4.93677e-06
2.17054e-05
1.03899e-06
6.2825e-07
8.94816e-05
5.10022e-05
7.65994e-05
3.14666e-05
6.80419e-05
1.51061e-05
6.32813e-05
6.78273e-06
6.03139e-05
3.86222e-06
5.82033e-05
2.74692e-06
5.65594e-05
2.19828e-06
5.5187e-05
1.8951e-06
5.40281e-05
1.65056e-06
5.30422e-05
1.4318e-06
5.21841e-05
1.25749e-06
5.14251e-05
1.12353e-06
5.07532e-05
1.00216e-06
5.01583e-05
8.93191e-07
4.96219e-05
8.08296e-07
4.91338e-05
7.37562e-07
4.86864e-05
6.79395e-07
4.82767e-05
6.2439e-07
4.78994e-05
5.73722e-07
4.75473e-05
5.32513e-07
4.72174e-05
5.0009e-07
4.69083e-05
4.70264e-07
4.66185e-05
4.42193e-07
4.6347e-05
4.15117e-07
4.60908e-05
3.92139e-07
4.58485e-05
3.71701e-07
4.56189e-05
3.52847e-07
4.54008e-05
3.35858e-07
4.51944e-05
3.18166e-07
4.49976e-05
3.03719e-07
4.48099e-05
2.89919e-07
4.46302e-05
2.77971e-07
4.44583e-05
2.66269e-07
4.42938e-05
2.55173e-07
4.41363e-05
2.44458e-07
4.39849e-05
2.35216e-07
4.38391e-05
2.26738e-07
4.36988e-05
2.18273e-07
4.35634e-05
2.11104e-07
4.34331e-05
2.03004e-07
4.33072e-05
1.9636e-07
4.31856e-05
1.8983e-07
4.3068e-05
1.83807e-07
4.29539e-05
1.78371e-07
4.28436e-05
1.72558e-07
4.27366e-05
1.67446e-07
4.26331e-05
1.62055e-07
4.25323e-05
1.57907e-07
4.24346e-05
1.53172e-07
4.23394e-05
1.49203e-07
4.2247e-05
1.45112e-07
4.21571e-05
1.41055e-07
4.20697e-05
1.37246e-07
4.19846e-05
1.3372e-07
4.19017e-05
1.30322e-07
4.18208e-05
1.27238e-07
4.1742e-05
1.23825e-07
4.16652e-05
1.21396e-07
4.15907e-05
1.17904e-07
4.15179e-05
1.15315e-07
4.14472e-05
1.12167e-07
4.1378e-05
1.09544e-07
4.13107e-05
1.06709e-07
4.12449e-05
1.0419e-07
4.1181e-05
1.01335e-07
4.11186e-05
9.885e-08
4.10579e-05
9.62801e-08
4.09988e-05
9.35858e-08
4.09412e-05
9.12852e-08
4.08855e-05
8.81824e-08
4.08312e-05
8.60323e-08
4.0779e-05
8.24079e-08
4.07283e-05
8.03814e-08
4.06799e-05
7.62281e-08
4.0633e-05
7.42391e-08
4.05891e-05
6.88149e-08
4.05466e-05
6.71937e-08
4.0508e-05
6.00265e-08
4.04708e-05
5.83827e-08
4.04387e-05
4.92843e-08
4.04081e-05
4.7588e-08
4.03845e-05
3.50178e-08
4.03625e-05
3.35409e-08
4.03503e-05
1.55424e-08
4.03403e-05
1.38527e-08
4.03436e-05
-9.32768e-09
4.03508e-05
-1.51231e-08
4.03717e-05
-3.98378e-08
4.04028e-05
-5.48801e-08
4.04606e-05
-1.01593e-07
4.05272e-05
-1.15092e-07
4.06367e-05
-1.8682e-07
4.07655e-05
-2.16086e-07
4.09642e-05
-3.37888e-07
4.12129e-05
-4.22706e-07
4.16103e-05
-6.88e-07
4.20878e-05
-7.58646e-07
4.34285e-05
-2.46335e-06
4.45939e-05
-1.88745e-06
3.80803e-05
1.31877e-05
3.21081e-05
9.80998e-06
3.19126e-05
-1.27112e-06
3.22201e-05
-1.00661e-06
3.24393e-05
-5.55556e-07
3.28139e-05
-8.09707e-07
3.29326e-05
-1.96003e-07
3.32336e-05
-5.73594e-07
3.36014e-05
-6.30307e-07
3.35698e-05
1.27708e-07
3.37163e-05
-2.51082e-07
3.40119e-05
-5.93788e-07
3.44386e-05
-7.16351e-07
3.49548e-05
-8.85389e-07
3.42999e-05
1.67019e-06
3.47349e-05
-9.89797e-07
3.48205e-05
-4.62219e-07
3.41422e-05
1.7393e-06
3.57168e-05
-3.46637e-06
3.48778e-05
2.20843e-06
3.44231e-05
5.64534e-07
3.4128e-05
5.96208e-07
3.51483e-05
-2.21188e-06
3.42954e-05
2.09196e-06
3.56991e-05
-3.00338e-06
3.58148e-05
-9.82941e-08
3.41006e-05
3.78088e-06
3.47135e-05
-1.7934e-06
3.49206e-05
-2.04002e-07
3.58118e-05
-1.85608e-06
3.51862e-05
1.61328e-06
3.57826e-05
-1.46511e-06
3.4366e-05
3.0247e-06
3.428e-05
6.30148e-09
3.63373e-05
-4.24616e-06
3.62923e-05
4.19166e-07
3.47715e-05
3.38346e-06
3.59113e-05
-2.78932e-06
3.54137e-05
1.22565e-06
3.46072e-05
1.73771e-06
3.51608e-05
-1.59177e-06
3.58539e-05
-1.12732e-06
3.61428e-05
-5.82688e-07
3.43846e-05
3.7165e-06
3.47329e-05
-1.16601e-06
3.52011e-05
-8.502e-07
3.61365e-05
-1.87207e-06
3.51401e-05
2.53494e-06
3.54647e-05
-8.62013e-07
3.57543e-05
-8.14315e-07
3.50635e-05
1.60264e-06
3.41444e-05
1.11458e-06
3.37048e-05
1.29027e-06
3.7247e-05
-7.29579e-06
3.56523e-05
4.18282e-06
3.66473e-05
-2.18783e-06
3.68103e-05
-4.09365e-07
3.56106e-05
2.87084e-06
3.6254e-05
-2.04446e-06
3.59111e-05
1.00226e-06
3.7845e-05
-3.88522e-06
3.67863e-05
2.83303e-06
3.75496e-05
-1.95679e-06
3.65351e-05
2.33559e-06
3.70774e-05
-1.48588e-06
3.62126e-05
1.97227e-06
3.61893e-05
-9.83529e-08
3.61878e-05
-4.84193e-07
3.55032e-05
1.76137e-06
3.59456e-05
-1.4947e-06
3.51144e-05
1.97517e-06
3.70478e-05
-4.17063e-06
3.511e-05
4.63527e-06
3.66551e-05
-3.77046e-06
3.56414e-05
2.51152e-06
3.66616e-05
-2.17161e-06
3.69088e-05
-5.51986e-07
3.53654e-05
3.56362e-06
3.49279e-05
3.67763e-08
3.3578e-05
2.63852e-06
3.547e-05
-4.20024e-06
3.47216e-05
2.11677e-06
3.57391e-05
-2.41586e-06
3.44341e-05
3.05403e-06
3.50188e-05
-1.48804e-06
3.50854e-05
-1.4549e-07
3.44014e-05
1.6379e-06
3.46428e-05
-1.03407e-06
3.42678e-05
9.81834e-07
3.56003e-05
-2.80257e-06
3.54638e-05
7.05378e-07
3.6611e-05
-2.39772e-06
3.59564e-05
1.80109e-06
3.64361e-05
-1.24116e-06
3.49127e-05
3.16857e-06
3.44377e-05
8.23796e-07
3.56686e-05
-3.00188e-06
3.59349e-05
5.75357e-08
3.65445e-05
-1.36791e-06
3.42815e-05
4.87953e-06
3.56642e-05
-3.35231e-06
3.59635e-05
-2.61542e-07
3.54965e-05
1.05077e-06
3.44035e-05
1.91586e-06
3.51954e-05
-1.51125e-06
3.7016e-05
-3.70534e-06
3.59869e-05
2.60676e-06
3.59905e-05
-4.14025e-07
3.47586e-05
2.48534e-06
3.50689e-05
-1.05878e-06
3.37935e-05
2.78574e-06
3.506e-05
-2.84975e-06
3.59552e-05
-1.4655e-06
3.62666e-05
-1.18116e-07
3.63768e-05
-7.30357e-07
3.46994e-05
3.59519e-06
3.54281e-05
-1.95944e-06
3.47946e-05
1.61473e-06
3.57137e-05
-2.18227e-06
3.42016e-05
3.37456e-06
3.50153e-05
-2.0199e-06
3.43214e-05
1.65029e-06
3.42758e-05
-7.40611e-08
3.47896e-05
-1.3805e-06
3.50701e-05
3.56475e-08
3.71472e-05
-4.35415e-06
3.67288e-05
1.58379e-06
3.68734e-05
-5.24763e-07
3.47503e-05
4.41034e-06
3.52389e-05
-1.5699e-06
3.44381e-05
1.84569e-06
3.60093e-05
-3.62895e-06
3.52789e-05
1.77715e-06
3.39546e-05
3.03947e-06
3.55816e-05
-4.02754e-06
3.6058e-05
-4.4746e-07
3.63186e-05
-4.72133e-07
3.50565e-05
2.75675e-06
3.55051e-05
-1.45419e-06
3.35539e-05
4.04912e-06
3.4041e-05
-1.46439e-06
3.36727e-05
7.8174e-07
3.37928e-05
-3.8473e-07
3.36502e-05
3.32423e-07
3.50029e-05
-2.50202e-06
3.64493e-05
-2.84417e-06
3.56417e-05
2.29747e-06
3.61518e-05
-1.3692e-06
3.50447e-05
2.47046e-06
3.55244e-05
-1.47829e-06
3.40368e-05
3.20583e-06
3.55676e-05
-3.49228e-06
3.42614e-05
3.04654e-06
3.41008e-05
-9.778e-08
3.37919e-05
5.35269e-07
3.36744e-05
4.30011e-07
3.44972e-05
-2.09629e-06
3.4712e-05
2.5685e-07
3.60845e-05
-3.01818e-06
3.52227e-05
2.32058e-06
3.76969e-05
-5.2647e-06
3.57954e-05
4.60794e-06
3.55421e-05
-2.10906e-08
3.42441e-05
2.52048e-06
3.48216e-05
-1.65733e-06
3.40336e-05
1.92404e-06
3.52532e-05
-2.66044e-06
3.57217e-05
-8.89522e-07
3.50655e-05
1.86296e-06
3.52917e-05
-1.08429e-06
3.39722e-05
2.86612e-06
3.4121e-05
-1.01485e-06
3.33278e-05
1.91429e-06
3.58744e-05
-5.27016e-06
3.46581e-05
3.1912e-06
3.64142e-05
-4.05096e-06
3.48719e-05
3.84254e-06
3.46073e-05
-8.61215e-09
3.32229e-05
2.75866e-06
3.3125e-05
-4.22095e-07
3.22537e-05
1.74503e-06
3.41525e-05
-4.11588e-06
3.28935e-05
3.2634e-06
3.36349e-05
-1.66214e-06
3.51941e-05
-3.43843e-06
3.51286e-05
1.02721e-06
3.62289e-05
-2.49879e-06
3.39302e-05
5.0188e-06
3.41473e-05
-1.01641e-06
3.42992e-05
-2.53749e-07
3.4942e-05
-1.43038e-06
3.50632e-05
2.02796e-08
3.58905e-05
-1.66616e-06
3.62162e-05
-1.83678e-07
3.70775e-05
-1.96827e-06
3.899e-05
-2.65012e-06
4.54692e-05
-1.22419e-05
4.46879e-05
2.92932e-06
4.01883e-05
9.43611e-06
3.77004e-05
3.52689e-06
2.14907e-06
9.94287e-05
5.28236e-05
9.34365e-05
3.74588e-05
8.60996e-05
2.2443e-05
8.00867e-05
1.27957e-05
7.57094e-05
8.23943e-06
7.24369e-05
6.01948e-06
6.99182e-05
4.71698e-06
6.79141e-05
3.89917e-06
6.62808e-05
3.2839e-06
6.49103e-05
2.80233e-06
6.37256e-05
2.44217e-06
6.2691e-05
2.1581e-06
6.17843e-05
1.90886e-06
6.0986e-05
1.69152e-06
6.02684e-05
1.52582e-06
5.96186e-05
1.38743e-06
5.9027e-05
1.27098e-06
5.84879e-05
1.16347e-06
5.79938e-05
1.06787e-06
5.7535e-05
9.91292e-07
5.71075e-05
9.27608e-07
5.67087e-05
8.69044e-07
5.63363e-05
8.14612e-07
5.59877e-05
7.63722e-07
5.56594e-05
7.20364e-07
5.53495e-05
6.81612e-07
5.50567e-05
6.45679e-07
5.47792e-05
6.1334e-07
5.45168e-05
5.80608e-07
5.42669e-05
5.53573e-07
5.4029e-05
5.27882e-07
5.38017e-05
5.05267e-07
5.35845e-05
4.83398e-07
5.3377e-05
4.62695e-07
5.31784e-05
4.43096e-07
5.29877e-05
4.25893e-07
5.28043e-05
4.10133e-07
5.26281e-05
3.94473e-07
5.24582e-05
3.80958e-07
5.22949e-05
3.66334e-07
5.21373e-05
3.5397e-07
5.19851e-05
3.42078e-07
5.1838e-05
3.30887e-07
5.16955e-05
3.20859e-07
5.15578e-05
3.1021e-07
5.14244e-05
3.00863e-07
5.12954e-05
2.91119e-07
5.11699e-05
2.83374e-07
5.10482e-05
2.7483e-07
5.093e-05
2.67464e-07
5.08151e-05
2.60007e-07
5.07034e-05
2.52683e-07
5.05949e-05
2.45764e-07
5.04893e-05
2.39368e-07
5.03865e-05
2.33135e-07
5.02862e-05
2.27531e-07
5.01886e-05
2.21381e-07
5.00935e-05
2.16502e-07
5.00013e-05
2.10141e-07
4.99112e-05
2.05434e-07
4.98235e-05
1.99804e-07
4.97379e-05
1.9515e-07
4.96546e-05
1.89975e-07
4.95733e-05
1.85573e-07
4.94942e-05
1.80387e-07
4.9417e-05
1.76092e-07
4.93419e-05
1.71345e-07
4.92687e-05
1.66793e-07
4.91976e-05
1.62428e-07
4.91284e-05
1.57314e-07
4.90613e-05
1.53128e-07
4.89965e-05
1.4727e-07
4.89336e-05
1.43202e-07
4.88733e-05
1.36547e-07
4.88151e-05
1.32503e-07
4.876e-05
1.23854e-07
4.8707e-05
1.20247e-07
4.86581e-05
1.08932e-07
4.86114e-05
1.05095e-07
4.85699e-05
9.07424e-08
4.85309e-05
8.66233e-08
4.84991e-05
6.68026e-08
4.84699e-05
6.27428e-08
4.8451e-05
3.44017e-08
4.84353e-05
2.96102e-08
4.84343e-05
-8.41533e-09
4.84387e-05
-1.95277e-08
4.84574e-05
-5.85264e-08
4.84885e-05
-8.58977e-08
4.85479e-05
-1.61042e-07
4.86188e-05
-1.86008e-07
4.87358e-05
-3.03802e-07
4.88762e-05
-3.56515e-07
4.90907e-05
-5.52316e-07
4.93596e-05
-6.91651e-07
4.97864e-05
-1.11476e-06
5.03065e-05
-1.27882e-06
5.16698e-05
-3.82663e-06
5.25586e-05
-2.77637e-06
4.74978e-05
1.82486e-05
4.15562e-05
1.57531e-05
3.97891e-05
4.98292e-07
3.94972e-05
-7.12656e-07
3.94628e-05
-5.18802e-07
3.96352e-05
-9.79625e-07
3.97113e-05
-2.69391e-07
3.99593e-05
-8.18882e-07
4.03016e-05
-9.67576e-07
4.03007e-05
1.28276e-07
4.04603e-05
-4.18628e-07
4.0714e-05
-8.35735e-07
4.11777e-05
-1.15567e-06
4.16529e-05
-1.35286e-06
4.12575e-05
2.04969e-06
4.15156e-05
-1.28282e-06
4.15748e-05
-5.31392e-07
4.13518e-05
1.99175e-06
4.23733e-05
-4.46219e-06
4.19251e-05
2.6628e-06
4.13459e-05
1.12764e-06
4.11522e-05
7.539e-07
4.18868e-05
-2.95903e-06
4.14076e-05
2.60161e-06
4.23798e-05
-3.94682e-06
4.26356e-05
-3.48069e-07
4.15339e-05
4.86807e-06
4.16155e-05
-1.90915e-06
4.19515e-05
-5.58502e-07
4.26468e-05
-2.52109e-06
4.23902e-05
1.90533e-06
4.27007e-05
-1.80191e-06
4.16381e-05
4.05674e-06
4.14331e-05
2.35994e-07
4.29866e-05
-5.7713e-06
4.3231e-05
1.84194e-07
4.22725e-05
4.32549e-06
4.28495e-05
-3.40963e-06
4.25857e-05
1.47868e-06
4.19739e-05
2.38636e-06
4.22111e-05
-1.79645e-06
4.28334e-05
-1.74899e-06
4.30086e-05
-7.79567e-07
4.17642e-05
4.93731e-06
4.17799e-05
-1.19113e-06
4.2292e-05
-1.34701e-06
4.30239e-05
-2.57162e-06
4.23759e-05
3.19682e-06
4.2484e-05
-9.97145e-07
4.27037e-05
-1.07114e-06
4.22948e-05
2.00335e-06
4.12771e-05
2.16133e-06
4.11977e-05
1.4049e-06
4.38027e-05
-9.89564e-06
4.29948e-05
4.96924e-06
4.36182e-05
-2.8492e-06
4.39915e-05
-7.95559e-07
4.33509e-05
3.5478e-06
4.33103e-05
-1.96665e-06
4.33447e-05
9.71091e-07
4.4818e-05
-5.38809e-06
4.43781e-05
3.24423e-06
4.47733e-05
-2.35853e-06
4.41536e-05
2.95283e-06
4.44021e-05
-1.71603e-06
4.37726e-05
2.63769e-06
4.35434e-05
1.39167e-07
4.34477e-05
-4.18331e-07
4.30151e-05
2.16212e-06
4.30231e-05
-1.48559e-06
4.26781e-05
2.35636e-06
4.38461e-05
-5.33166e-06
4.27543e-05
5.70008e-06
4.36493e-05
-4.69775e-06
4.30796e-05
3.09961e-06
4.37019e-05
-2.75835e-06
4.40279e-05
-8.7375e-07
4.30698e-05
4.50328e-06
4.21321e-05
9.56798e-07
4.10621e-05
3.70128e-06
4.2242e-05
-5.39056e-06
4.19742e-05
2.40371e-06
4.25796e-05
-2.98695e-06
4.16975e-05
3.92179e-06
4.19764e-05
-1.80908e-06
4.21196e-05
-2.99998e-07
4.16693e-05
2.11667e-06
4.15277e-05
-8.60473e-07
4.142e-05
1.09842e-06
4.23733e-05
-3.7848e-06
4.25957e-05
4.45126e-07
4.35083e-05
-3.28815e-06
4.32327e-05
2.11526e-06
4.34892e-05
-1.52292e-06
4.23871e-05
4.24294e-06
4.18274e-05
1.40991e-06
4.25012e-05
-3.64563e-06
4.30309e-05
-4.73547e-07
4.33677e-05
-1.72256e-06
4.18022e-05
6.43335e-06
4.26538e-05
-4.21794e-06
4.30753e-05
-6.99485e-07
4.26931e-05
1.46136e-06
4.18173e-05
2.83152e-06
4.23965e-05
-2.11569e-06
4.37302e-05
-5.08421e-06
4.33498e-05
2.9834e-06
4.30755e-05
-1.13484e-07
4.20852e-05
3.5047e-06
4.20345e-05
-9.98907e-07
4.10693e-05
3.7332e-06
4.20053e-05
-3.81932e-06
4.29325e-05
-2.40931e-06
4.33645e-05
-5.31547e-07
4.33264e-05
-6.64891e-07
4.21591e-05
4.77707e-06
4.23614e-05
-2.15788e-06
4.20383e-05
1.90923e-06
4.25328e-05
-2.70766e-06
4.15407e-05
4.39634e-06
4.194e-05
-2.3825e-06
4.15143e-05
2.05867e-06
4.13874e-05
1.68681e-08
4.16123e-05
-1.61371e-06
4.21755e-05
-5.06248e-07
4.38378e-05
-5.99233e-06
4.39537e-05
1.47245e-06
4.38825e-05
-4.68886e-07
4.22706e-05
6.00687e-06
4.22882e-05
-1.59307e-06
4.17619e-05
2.36613e-06
4.28191e-05
-4.6797e-06
4.24853e-05
2.13608e-06
4.15458e-05
3.99976e-06
4.23761e-05
-4.85775e-06
4.302e-05
-1.12623e-06
4.33208e-05
-8.01045e-07
4.25404e-05
3.56708e-06
4.24073e-05
-1.28655e-06
4.08661e-05
5.57477e-06
4.09543e-05
-1.58727e-06
4.06734e-05
1.05219e-06
4.06824e-05
-3.71611e-07
4.06668e-05
3.79757e-07
4.17963e-05
-3.62491e-06
4.3009e-05
-4.0825e-06
4.28347e-05
2.44033e-06
4.30774e-05
-1.61689e-06
4.23978e-05
3.17419e-06
4.24001e-05
-1.45124e-06
4.13712e-05
4.24132e-06
4.22818e-05
-4.42632e-06
4.14298e-05
3.87249e-06
4.11236e-05
2.02133e-07
4.08529e-05
8.2526e-07
4.07501e-05
5.64821e-07
4.11664e-05
-2.50399e-06
4.16051e-05
-2.06574e-07
4.26684e-05
-4.10837e-06
4.26336e-05
2.34353e-06
4.43606e-05
-6.97581e-06
4.32491e-05
5.75184e-06
4.26539e-05
5.63398e-07
4.15775e-05
3.56312e-06
4.17535e-05
-1.82166e-06
4.12188e-05
2.49323e-06
4.2073e-05
-3.50847e-06
4.26272e-05
-1.47036e-06
4.23328e-05
2.12989e-06
4.2196e-05
-9.33716e-07
4.12313e-05
3.86704e-06
4.08746e-05
-6.47146e-07
4.05527e-05
2.20737e-06
4.24013e-05
-7.1493e-06
4.19941e-05
3.61411e-06
4.30647e-05
-5.09327e-06
4.21574e-05
4.75592e-06
4.1552e-05
5.81705e-07
4.0422e-05
3.8645e-06
3.99562e-05
5.20297e-08
3.92635e-05
2.46739e-06
4.05659e-05
-5.41488e-06
3.9996e-05
3.81699e-06
4.05425e-05
-2.21319e-06
4.16577e-05
-4.54143e-06
4.20459e-05
6.44963e-07
4.28299e-05
-3.28301e-06
4.12592e-05
6.59357e-06
4.10795e-05
-8.32749e-07
4.12496e-05
-4.20814e-07
4.17017e-05
-1.8797e-06
4.20824e-05
-3.57799e-07
4.27419e-05
-2.32309e-06
4.33525e-05
-7.91912e-07
4.40249e-05
-2.63836e-06
4.63149e-05
-4.93781e-06
5.20814e-05
-1.80067e-05
5.2546e-05
2.46489e-06
4.94021e-05
1.25798e-05
4.64055e-05
6.52358e-06
4.07706e-06
0.000102569
5.1505e-05
0.00010099
3.90378e-05
9.72211e-05
2.62114e-05
9.20747e-05
1.79421e-05
8.73721e-05
1.2942e-05
8.34179e-05
9.97367e-06
8.01889e-05
7.94597e-06
7.75791e-05
6.50897e-06
7.54535e-05
5.40946e-06
7.36819e-05
4.57402e-06
7.2183e-05
3.941e-06
7.08943e-05
3.44681e-06
6.97719e-05
3.03132e-06
6.87849e-05
2.6785e-06
6.78983e-05
2.41241e-06
6.70986e-05
2.18715e-06
6.63751e-05
1.99448e-06
6.57183e-05
1.82019e-06
6.51175e-05
1.66874e-06
6.45613e-05
1.54749e-06
6.40455e-05
1.44343e-06
6.35664e-05
1.34806e-06
6.31205e-05
1.26053e-06
6.27036e-05
1.18063e-06
6.23117e-05
1.11229e-06
6.19425e-05
1.05078e-06
6.15946e-05
9.93627e-07
6.12657e-05
9.42217e-07
6.09549e-05
8.914e-07
6.06594e-05
8.49097e-07
6.03783e-05
8.0892e-07
6.01104e-05
7.73182e-07
5.9855e-05
7.38864e-07
5.96111e-05
7.06523e-07
5.93779e-05
6.76358e-07
5.91542e-05
6.4954e-07
5.89394e-05
6.24934e-07
5.87333e-05
6.00593e-07
5.85349e-05
5.7932e-07
5.83443e-05
5.5699e-07
5.81605e-05
5.37776e-07
5.79831e-05
5.19477e-07
5.78119e-05
5.0209e-07
5.76462e-05
4.86509e-07
5.74863e-05
4.70105e-07
5.73315e-05
4.55723e-07
5.71817e-05
4.4088e-07
5.70363e-05
4.28793e-07
5.68954e-05
4.15759e-07
5.67585e-05
4.04314e-07
5.66257e-05
3.92856e-07
5.64966e-05
3.81701e-07
5.63713e-05
3.71128e-07
5.62493e-05
3.6135e-07
5.61307e-05
3.51763e-07
5.6015e-05
3.43175e-07
5.59026e-05
3.33789e-07
5.5793e-05
3.26129e-07
5.56866e-05
3.1654e-07
5.55827e-05
3.09346e-07
5.54816e-05
3.00844e-07
5.5383e-05
2.9382e-07
5.5287e-05
2.85904e-07
5.51933e-05
2.79315e-07
5.51022e-05
2.71435e-07
5.50133e-05
2.65059e-07
5.49268e-05
2.57777e-07
5.48425e-05
2.51124e-07
5.47606e-05
2.44332e-07
5.46809e-05
2.36996e-07
5.46036e-05
2.3041e-07
5.45288e-05
2.22143e-07
5.44563e-05
2.15666e-07
5.43865e-05
2.06337e-07
5.43191e-05
1.99872e-07
5.42552e-05
1.87834e-07
5.41936e-05
1.81836e-07
5.41363e-05
1.6624e-07
5.40816e-05
1.59762e-07
5.40323e-05
1.40021e-07
5.3986e-05
1.32972e-07
5.3947e-05
1.05784e-07
5.39112e-05
9.85103e-08
5.38859e-05
5.97696e-08
5.38643e-05
5.11548e-08
5.38577e-05
-1.83297e-09
5.38579e-05
-1.96813e-08
5.3873e-05
-7.36581e-08
5.39005e-05
-1.13356e-07
5.39566e-05
-2.17184e-07
5.40263e-05
-2.55707e-07
5.41421e-05
-4.19617e-07
5.42831e-05
-4.97466e-07
5.44985e-05
-7.67746e-07
5.47688e-05
-9.61961e-07
5.51955e-05
-1.54139e-06
5.57185e-05
-1.80188e-06
5.70228e-05
-5.13086e-06
5.75918e-05
-3.34553e-06
5.37925e-05
2.20481e-05
4.84355e-05
2.11123e-05
4.57705e-05
3.16727e-06
4.49105e-05
1.51506e-07
4.45521e-05
-1.55538e-07
4.4488e-05
-9.10208e-07
4.44715e-05
-2.47011e-07
4.4627e-05
-9.68627e-07
4.48891e-05
-1.22091e-06
4.48821e-05
1.37795e-07
4.50452e-05
-5.89392e-07
4.52376e-05
-1.01183e-06
4.56751e-05
-1.55791e-06
4.6101e-05
-1.76253e-06
4.58752e-05
2.2572e-06
4.60611e-05
-1.51767e-06
4.61184e-05
-6.08862e-07
4.6166e-05
1.9786e-06
4.67287e-05
-4.98659e-06
4.65724e-05
2.83468e-06
4.59982e-05
1.68303e-06
4.59092e-05
7.92249e-07
4.63272e-05
-3.40009e-06
4.61613e-05
2.80314e-06
4.68641e-05
-4.60699e-06
4.71013e-05
-5.69032e-07
4.64124e-05
5.54036e-06
4.62565e-05
-1.80231e-06
4.6646e-05
-9.79278e-07
4.71476e-05
-2.98762e-06
4.71689e-05
1.93332e-06
4.72589e-05
-1.91821e-06
4.65021e-05
4.77351e-06
4.62862e-05
4.76917e-07
4.74334e-05
-6.87985e-06
4.77522e-05
-1.15153e-07
4.72049e-05
4.85362e-06
4.74684e-05
-3.73385e-06
4.73046e-05
1.62009e-06
4.68602e-05
2.87431e-06
4.69599e-05
-1.8487e-06
4.74815e-05
-2.26082e-06
4.75211e-05
-8.44289e-07
4.67224e-05
5.69978e-06
4.65355e-05
-1.0242e-06
4.70462e-05
-1.84039e-06
4.75785e-05
-3.05707e-06
4.71666e-05
3.63398e-06
4.71684e-05
-1.03124e-06
4.72963e-05
-1.25191e-06
4.70562e-05
2.22462e-06
4.62771e-05
2.97467e-06
4.64459e-05
1.28545e-06
4.80183e-05
-1.14551e-05
4.78065e-05
5.15469e-06
4.82318e-05
-3.3282e-06
4.86091e-05
-1.19563e-06
4.83277e-05
3.87345e-06
4.81589e-05
-1.74524e-06
4.84649e-05
6.76465e-07
4.9349e-05
-6.30957e-06
4.93395e-05
3.20854e-06
4.94872e-05
-2.52444e-06
4.92001e-05
3.23348e-06
4.92516e-05
-1.74086e-06
4.8789e-05
3.15313e-06
4.84948e-05
4.52293e-07
4.83174e-05
-2.75726e-07
4.80334e-05
2.40096e-06
4.78463e-05
-1.28246e-06
4.78645e-05
2.38609e-06
4.82881e-05
-5.73982e-06
4.78665e-05
6.09068e-06
4.82712e-05
-5.14679e-06
4.80347e-05
3.35317e-06
4.84317e-05
-3.10793e-06
4.86759e-05
-1.10458e-06
4.80495e-05
5.10794e-06
4.70588e-05
1.91956e-06
4.63237e-05
4.42075e-06
4.68069e-05
-5.89138e-06
4.68754e-05
2.35722e-06
4.71393e-05
-3.20374e-06
4.65865e-05
4.46216e-06
4.667e-05
-1.94749e-06
4.67778e-05
-4.28962e-07
4.64963e-05
2.43153e-06
4.62635e-05
-5.82077e-07
4.63118e-05
1.06829e-06
4.68607e-05
-4.36797e-06
4.73261e-05
-7.18543e-08
4.8012e-05
-3.95149e-06
4.80283e-05
2.14914e-06
4.81106e-05
-1.63093e-06
4.72887e-05
5.02868e-06
4.68012e-05
1.92506e-06
4.71802e-05
-3.9847e-06
4.77228e-05
-1.01035e-06
4.77779e-05
-1.79867e-06
4.68715e-05
7.31739e-06
4.7305e-05
-4.67831e-06
4.77576e-05
-1.17658e-06
4.74705e-05
1.78402e-06
4.68312e-05
3.52464e-06
4.72668e-05
-2.57769e-06
4.81374e-05
-6.0139e-06
4.81316e-05
2.97687e-06
4.77236e-05
3.25566e-07
4.7033e-05
4.23749e-06
4.67303e-05
-6.77473e-07
4.6049e-05
4.39429e-06
4.66807e-05
-4.49839e-06
4.75122e-05
-3.26834e-06
4.79568e-05
-9.54014e-07
4.78576e-05
-5.23799e-07
4.71879e-05
5.47446e-06
4.7053e-05
-2.01441e-06
4.69604e-05
1.9662e-06
4.70321e-05
-2.82219e-06
4.64576e-05
5.00138e-06
4.6574e-05
-2.45219e-06
4.62932e-05
2.32241e-06
4.61641e-05
9.87481e-08
4.63061e-05
-1.77212e-06
4.69739e-05
-1.14916e-06
4.81824e-05
-7.16482e-06
4.85754e-05
1.09328e-06
4.83697e-05
-2.81142e-07
4.73486e-05
7.0033e-06
4.70106e-05
-1.26815e-06
4.67106e-05
2.65494e-06
4.73906e-05
-5.35068e-06
4.72133e-05
2.35217e-06
4.65817e-05
4.6652e-06
4.69721e-05
-5.24514e-06
4.76325e-05
-1.83059e-06
4.7851e-05
-1.05928e-06
4.74488e-05
4.00031e-06
4.70211e-05
-8.14273e-07
4.58655e-05
6.71621e-06
4.56446e-05
-1.41172e-06
4.54274e-05
1.24978e-06
4.53593e-05
-2.77921e-07
4.54151e-05
3.67912e-07
4.63661e-05
-4.56192e-06
4.73257e-05
-5.07384e-06
4.74621e-05
2.25821e-06
4.75343e-05
-1.7024e-06
4.72607e-05
3.47651e-06
4.69577e-05
-1.10576e-06
4.63596e-05
4.85475e-06
4.67689e-05
-4.86391e-06
4.62224e-05
4.38041e-06
4.58457e-05
5.63619e-07
4.55968e-05
1.09656e-06
4.55379e-05
6.68544e-07
4.57351e-05
-2.68463e-06
4.62885e-05
-7.89715e-07
4.70124e-05
-4.87119e-06
4.74599e-05
1.8745e-06
4.85814e-05
-8.07806e-06
4.80702e-05
6.30876e-06
4.73319e-05
1.2942e-06
4.65281e-05
4.32441e-06
4.64094e-05
-1.69234e-06
4.60719e-05
2.8754e-06
4.66652e-05
-4.08838e-06
4.71498e-05
-1.98634e-06
4.70281e-05
2.21279e-06
4.67289e-05
-6.21678e-07
4.6135e-05
4.50829e-06
4.56485e-05
-1.41177e-07
4.56091e-05
2.21379e-06
4.66739e-05
-8.25468e-06
4.68349e-05
3.46793e-06
4.73955e-05
-5.61627e-06
4.69535e-05
5.21217e-06
4.61698e-05
1.34918e-06
4.52747e-05
4.7263e-06
4.4599e-05
7.33467e-07
4.41069e-05
2.99759e-06
4.49001e-05
-6.19782e-06
4.46963e-05
4.0035e-06
4.51391e-05
-2.66323e-06
4.60081e-05
-5.39472e-06
4.66057e-05
6.03264e-08
4.7027e-05
-3.69895e-06
4.61053e-05
7.52368e-06
4.57301e-05
-4.49843e-07
4.59309e-05
-6.14936e-07
4.6232e-05
-2.1746e-06
4.67447e-05
-8.64585e-07
4.72818e-05
-2.85463e-06
4.80637e-05
-1.56872e-06
4.86762e-05
-3.24619e-06
5.10347e-05
-7.29201e-06
5.58337e-05
-2.28026e-05
5.71288e-05
1.17041e-06
5.51693e-05
1.4539e-05
5.22346e-05
9.45834e-06
6.10267e-06
0.000103461
4.92937e-05
0.000103822
3.8677e-05
0.000102648
2.73854e-05
9.99308e-05
2.06594e-05
9.61977e-05
1.66751e-05
9.24624e-05
1.3709e-05
8.90193e-05