/*--------------------------------*- C++ -*----------------------------------*\
| =========                 |                                                 |
| \\      /  F ield         | foam-extend: Open Source CFD                    |
|  \\    /   O peration     | Version:     3.2                                |
|   \\  /    A nd           | Web:         http://www.foam-extend.org         |
|    \\/     M anipulation  | For copyright notice see file Copyright         |
\*---------------------------------------------------------------------------*/
FoamFile
{
    version     2.0;
    format      ascii;
    class       areaVectorField;
    location    "160";
    object      PointNormalVector;
}
// * * * * * * * * * * * * * * * * * * * * * * * * * * * * * * * * * * * * * //

dimensions      [0 0 0 0 0 0 0];

internalField   nonuniform List<vector> 
300
(
(-0 -0 0.001)
(-0 -0 0.001)
(-0 -0 0.001)
(-0 -0 0.001)
(-0 -0 0.001)
(-0 -0 0.001)
(-0 -0 0.001)
(-0 -0 0.001)
(-0 -0 0.001)
(-0 -0 0.001)
(-0 -0 0.001)
(-0 -0 0.001)
(-0 -0 0.001)
(-0 -0 0.001)
(-0 -0 0.001)
(-0 -0 0.001)
(-0 -0 0.001)
(-0 -0 0.001)
(-0 -0 0.001)
(-0 -0 0.001)
(-0 -0 0.001)
(-0 -0 0.001)
(-0 -0 0.001)
(-0 -0 0.001)
(-0 -0 0.001)
(-0 -0 0.001)
(-0 -0 0.001)
(-0 -0 0.001)
(-0 -0 0.001)
(-0 -0 0.001)
(-0 -0 0.001)
(-0 -0 0.001)
(-0 -0 0.001)
(-0 -0 0.001)
(-0 -0 0.001)
(-0 -0 0.001)
(-0 -0 0.001)
(-0 -0 0.001)
(-0 -0 0.001)
(-0 -0 0.001)
(-0 -0 0.001)
(-0 -0 0.001)
(-0 -0 0.001)
(-0 -0 0.001)
(-0 -0 0.001)
(-0 -0 0.001)
(-0 -0 0.001)
(-0 -0 0.001)
(-0 -0 0.001)
(-0 -0 0.001)
(-0 -0 0.001)
(-0 -0 0.001)
(-0 -0 0.001)
(-0 -0 0.001)
(-0 -0 0.001)
(-0 -0 0.001)
(-0 -0 0.001)
(-0 -0 0.001)
(-0 -0 0.001)
(-0 -0 0.001)
(-0 -0 0.001)
(-0 -0 0.001)
(-0 -0 0.001)
(-0 -0 0.001)
(-0 -0 0.001)
(-0 -0 0.001)
(-0 -0 0.001)
(-0 -0 0.001)
(-0 -0 0.001)
(-0 -0 0.001)
(-0 -0 0.001)
(-0 -0 0.001)
(-0 -0 0.001)
(-0 -0 0.001)
(-0 -0 0.001)
(-0 -0 0.001)
(-0 -0 0.001)
(-0 -0 0.001)
(-0 -0 0.001)
(-0 -0 0.001)
(-0 -0 0.001)
(-0 -0 0.001)
(-0 -0 0.001)
(-0 -0 0.001)
(-0 -0 0.001)
(-0 -0 0.001)
(-0 -0 0.001)
(-0 -0 0.001)
(-0 -0 0.001)
(-0 -0 0.001)
(-0 -0 0.001)
(-0 -0 0.001)
(-0 -0 0.001)
(-0 -0 0.001)
(-0 -0 0.001)
(-0 -0 0.001)
(-0 -0 0.001)
(-0 -0 0.001)
(-0 -0 0.001)
(7.48074e-05 6.77626e-21 0.001)
(9.88854e-05 -0 0.001)
(6.77869e-05 -0 0.001)
(5.59715e-05 -0 0.001)
(5.33138e-05 6.77626e-21 0.001)
(4.24754e-05 -0 0.001)
(4.09311e-05 -3.38813e-21 0.001)
(3.4856e-05 -0 0.001)
(3.01531e-05 -0 0.001)
(2.91835e-05 -0 0.001)
(2.71276e-05 3.38813e-21 0.001)
(2.10963e-05 -0 0.001)
(2.05256e-05 1.69407e-21 0.001)
(1.25558e-05 1.69407e-21 0.001)
(2.35613e-05 -1.69407e-21 0.001)
(1.29784e-05 -0 0.001)
(5.49599e-06 -0 0.001)
(2.81242e-05 -3.38813e-21 0.001)
(-6.19172e-06 -0 0.001)
(2.57925e-05 -0 0.001)
(8.95688e-06 -0 0.001)
(1.70374e-05 -1.69407e-21 0.001)
(-6.60206e-06 -8.47033e-22 0.001)
(2.42799e-05 -0 0.001)
(-5.65416e-06 -0 0.001)
(-4.31492e-06 4.23516e-22 0.001)
(2.50539e-05 -0 0.001)
(-7.76469e-06 -0 0.001)
(6.35727e-06 -8.47033e-22 0.001)
(-9.51531e-06 -8.47033e-22 0.001)
(1.47049e-05 -0 0.001)
(-1.16748e-05 -0 0.001)
(1.66891e-05 -1.69407e-21 0.001)
(1.12085e-05 -0 0.001)
(-1.6019e-05 -0 0.001)
(-7.61556e-06 -0 0.001)
(1.70081e-05 1.69407e-21 0.001)
(-1.60528e-05 -1.69407e-21 0.001)
(2.84925e-06 -0 0.001)
(1.65049e-05 -0 0.001)
(-3.40314e-06 4.23516e-22 0.001)
(-9.01995e-07 -0 0.001)
(-9.25052e-06 -0 0.001)
(1.92287e-05 -1.69407e-21 0.001)
(-7.14194e-06 -0 0.001)
(-3.55131e-07 -0 0.001)
(-1.35799e-05 -0 0.001)
(1.13423e-05 -0 0.001)
(-5.15507e-06 -0 0.001)
(-1.43452e-05 -0 0.001)
(7.07299e-06 -0 0.001)
(-4.67751e-06 4.23516e-22 0.001)
(1.241e-05 -0 0.001)
(-5.19653e-05 -0 0.001)
(9.7468e-06 -8.47033e-22 0.001)
(-2.35737e-05 1.69407e-21 0.001)
(-2.40271e-05 1.69407e-21 0.001)
(1.09618e-05 -0 0.001)
(-2.19355e-05 1.69407e-21 0.001)
(-1.05637e-06 -0 0.001)
(-3.9184e-05 3.38813e-21 0.001)
(2.81476e-06 -0 0.001)
(-2.66492e-05 -0 0.001)
(9.2491e-06 -0 0.001)
(-1.21784e-05 -0 0.001)
(9.65902e-06 -8.47033e-22 0.001)
(6.61905e-06 -0 0.001)
(-9.99679e-06 -8.47033e-22 0.001)
(1.26571e-05 1.69407e-21 0.001)
(-1.2018e-05 -0 0.001)
(1.7769e-05 -0 0.001)
(-2.78839e-05 3.38813e-21 0.001)
(2.50756e-05 3.38813e-21 0.001)
(-2.99875e-05 -0 0.001)
(1.62287e-05 -1.69407e-21 0.001)
(-4.95448e-06 -4.23516e-22 0.001)
(-1.05007e-05 -0 0.001)
(2.44331e-05 -0 0.001)
(8.39148e-07 -0 0.001)
(2.58302e-05 -0 0.001)
(-1.99871e-05 -1.69407e-21 0.001)
(2.1786e-05 -1.69407e-21 0.001)
(-1.36722e-05 -0 0.001)
(2.24124e-05 -0 0.001)
(-4.71969e-06 -4.23516e-22 0.001)
(-3.83202e-06 -0 0.001)
(1.78178e-05 1.69407e-21 0.001)
(-2.7873e-06 -2.11758e-22 0.001)
(9.4662e-06 -8.47033e-22 0.001)
(-2.3005e-05 1.69407e-21 0.001)
(1.18319e-08 -8.27181e-25 0.001)
(-2.10742e-05 1.69407e-21 0.001)
(9.56212e-06 8.47033e-22 0.001)
(-1.45399e-05 -1.69407e-21 0.001)
(1.19664e-05 -0 0.001)
(1.6656e-05 -0 0.001)
(-1.46539e-05 -0 0.001)
(3.96407e-06 -0 0.001)
(-1.60133e-05 -0 0.001)
(2.66135e-05 -0 0.001)
(-2.18893e-05 -0 0.001)
(-6.53875e-06 8.47033e-22 0.001)
(5.15604e-06 -0 0.001)
(9.82683e-06 -8.47033e-22 0.001)
(-3.58261e-06 -0 0.001)
(-2.72542e-05 -0 0.001)
(1.17826e-05 -0 0.001)
(-3.00337e-06 -0 0.001)
(2.34667e-05 -0 0.001)
(-4.21767e-06 4.23516e-22 0.001)
(2.1542e-05 -0 0.001)
(-1.76012e-05 -0 0.001)
(-1.85061e-05 -0 0.001)
(1.19037e-06 1.05879e-22 0.001)
(-9.11486e-06 -0 0.001)
(2.30292e-05 -0 0.001)
(-1.17167e-05 -8.47033e-22 0.001)
(1.37684e-05 -1.69407e-21 0.001)
(-1.58918e-05 -0 0.001)
(2.63912e-05 -0 0.001)
(-8.99389e-06 -0 0.001)
(6.47131e-06 -0 0.001)
(1.79741e-06 -2.11758e-22 0.001)
(-1.55255e-05 1.69407e-21 0.001)
(7.17272e-07 -0 0.001)
(-3.27975e-05 -3.38813e-21 0.001)
(3.84974e-06 -4.23516e-22 0.001)
(-1.46996e-05 -0 0.001)
(2.45074e-05 3.38813e-21 0.001)
(-1.0506e-05 -0 0.001)
(1.71187e-05 -0 0.001)
(-1.82113e-05 -0 0.001)
(2.37491e-06 -0 0.001)
(2.37532e-05 -1.69407e-21 0.001)
(-2.02732e-05 1.69407e-21 0.001)
(-2.47952e-06 -0 0.001)
(-1.01536e-05 8.47033e-22 0.001)
(2.3286e-05 -0 0.001)
(-3.25499e-06 4.23516e-22 0.001)
(3.18969e-05 3.38813e-21 0.001)
(-4.09499e-06 -0 0.001)
(1.14971e-05 -8.47033e-22 0.001)
(3.66105e-06 -0 0.001)
(1.57852e-06 -0 0.001)
(-1.20261e-05 -0 0.001)
(-3.00462e-05 -0 0.001)
(4.49629e-06 -0 0.001)
(-1.65203e-05 -1.69407e-21 0.001)
(1.85701e-05 -0 0.001)
(-9.71994e-06 -0 0.001)
(2.38735e-05 -0 0.001)
(-2.47519e-05 -0 0.001)
(1.71037e-05 1.69407e-21 0.001)
(3.81507e-06 -0 0.001)
(2.48245e-06 -0 0.001)
(1.09231e-05 -8.47033e-22 0.001)
(-1.88772e-05 -0 0.001)
(-2.16756e-06 2.11758e-22 0.001)
(-3.6246e-05 -0 0.001)
(5.09507e-06 -4.23516e-22 0.001)
(-4.13929e-05 -3.38813e-21 0.001)
(2.25512e-05 -0 0.001)
(-5.26775e-06 -0 0.001)
(2.015e-05 -0 0.001)
(-8.08368e-06 -0 0.001)
(1.77582e-05 -0 0.001)
(-1.20024e-05 8.47033e-22 0.001)
(-1.83273e-05 -0 0.001)
(1.00173e-05 -0 0.001)
(-9.00475e-06 -0 0.001)
(2.32726e-05 -0 0.001)
(-1.2286e-05 1.69407e-21 0.001)
(1.23285e-05 1.69407e-21 0.001)
(-3.90367e-05 -0 0.001)
(1.65728e-05 -0 0.001)
(-3.06661e-05 -0 0.001)
(2.34744e-05 -0 0.001)
(-1.69582e-06 -0 0.001)
(2.48866e-05 3.38813e-21 0.001)
(-6.58601e-07 -0 0.001)
(2.14496e-05 -0 0.001)
(-3.02365e-05 -0 0.001)
(6.43525e-06 -0 0.001)
(-1.24137e-05 -0 0.001)
(-3.64264e-05 -0 0.001)
(-6.68282e-06 -8.47033e-22 0.001)
(-3.64033e-05 -3.38813e-21 0.001)
(1.31177e-05 -0 0.001)
(-2.15661e-05 -1.69407e-21 0.001)
(-1.50075e-05 1.69407e-21 0.001)
(-3.4553e-05 -0 0.001)
(-2.48625e-05 -0 0.001)
(-4.92297e-05 -6.77626e-21 0.001)
(-3.81114e-05 -0 0.001)
(-7.06453e-05 6.77626e-21 0.001)
(-5.89901e-05 -6.77626e-21 0.001)
(-0.000126956 1.35525e-20 0.001)
(-6.39233e-05 6.77626e-21 0.001)
(-0 -0 0.001)
(-0 -0 0.001)
(-0 -0 0.001)
)
;

boundaryField
{
    inlet
    {
        type            calculated;
        value           uniform (0 0 0);
    }
    outlet
    {
        type            calculated;
        value           uniform (0 0 0);
    }
    sideWall
    {
        type            empty;
    }
}


// ************************************************************************* //
