/*--------------------------------*- C++ -*----------------------------------*\
| =========                 |                                                 |
| \\      /  F ield         | foam-extend: Open Source CFD                    |
|  \\    /   O peration     | Version:     3.2                                |
|   \\  /    A nd           | Web:         http://www.foam-extend.org         |
|    \\/     M anipulation  | For copyright notice see file Copyright         |
\*---------------------------------------------------------------------------*/
FoamFile
{
    version     2.0;
    format      ascii;
    class       areaScalarField;
    location    "160";
    object      Pvc;
}
// * * * * * * * * * * * * * * * * * * * * * * * * * * * * * * * * * * * * * //

dimensions      [0 0 0 0 0 0 0];

internalField   nonuniform List<scalar> 
300
(
0.536715
0.536715
0.536715
0.536715
0.536715
0.536715
0.536715
0.536715
0.536715
0.536715
0.536715
0.536715
0.536715
0.536715
0.536715
0.536715
0.536715
0.536715
0.536715
0.536715
0.536715
0.536715
0.536715
0.536715
0.536715
0.536715
0.536715
0.536715
0.536715
0.536715
0.536715
0.536715
0.536715
0.536715
0.536715
0.536715
0.536715
0.536715
0.536715
0.536715
0.536715
0.536715
0.536715
0.536715
0.536715
0.536715
0.536715
0.536715
0.536715
0.536715
0.536715
0.536715
0.536715
0.536715
0.536715
0.536715
0.536715
0.536715
0.536715
0.536715
0.536715
0.536715
0.536715
0.536715
0.536715
0.536715
0.536715
0.536715
0.536715
0.536715
0.536715
0.536715
0.536715
0.536715
0.536715
0.536715
0.536715
0.536715
0.536715
0.536715
0.536715
0.536715
0.536715
0.536715
0.536715
0.536715
0.536715
0.536715
0.536715
0.536715
0.536715
0.536715
0.536715
0.536715
0.536715
0.536715
0.536715
0.536715
0.536715
0.536715
0.499513
0.485887
0.459804
0.4518
0.424015
0.422723
0.393208
0.396386
0.368444
0.372451
0.353102
0.347168
0.338772
0.332745
0.325741
0.322561
0.333619
0.314578
0.330481
0.319351
0.3254
0.31678
0.314072
0.331586
0.299166
0.335408
0.318614
0.33585
0.300587
0.320818
0.321967
0.309617
0.349873
0.318734
0.30958
0.31467
0.328719
0.308856
0.334645
0.32094
0.331822
0.322677
0.316527
0.347841
0.311344
0.344045
0.304254
0.335845
0.306968
0.33856
0.324693
0.315921
0.337655
0.285386
0.346855
0.263987
0.308581
0.28232
0.279988
0.282669
0.266328
0.288569
0.262353
0.288997
0.249423
0.29346
0.261153
0.289428
0.276748
0.29774
0.292959
0.296093
0.299651
0.286713
0.303733
0.282092
0.317663
0.267925
0.328278
0.297505
0.323796
0.307039
0.300561
0.345265
0.285135
0.338207
0.296657
0.335626
0.30078
0.320331
0.302016
0.299562
0.31389
0.279952
0.333117
0.28714
0.311374
0.302287
0.30656
0.331646
0.294059
0.326581
0.297476
0.326289
0.280306
0.316233
0.298488
0.325059
0.317253
0.314348
0.324784
0.295912
0.327932
0.284403
0.335692
0.307653
0.339356
0.323222
0.308085
0.352542
0.289846
0.335693
0.296066
0.31721
0.303815
0.306409
0.313836
0.314657
0.321844
0.30062
0.32503
0.295083
0.3281
0.300326
0.321174
0.300063
0.329157
0.319212
0.329975
0.353445
0.312908
0.349381
0.311501
0.348569
0.300913
0.333248
0.302568
0.329566
0.320231
0.318045
0.349594
0.298834
0.363442
0.284594
0.334541
0.30815
0.314305
0.318147
0.312128
0.320194
0.305468
0.348253
0.302434
0.34834
0.291902
0.341871
0.284008
0.340361
0.288417
0.351797
0.31407
0.347429
0.331539
0.338142
0.357424
0.326091
0.393885
0.317516
0.40982
0.297979
0.418362
0.286918
0.3938
0.301552
0.330195
0.315767
0.336623
0.421366
0.356401
0.431576
0.385708
0.448106
0.423106
0.471966
0.469517
0.505295
0.536715
0.536715
0.536715
0.536715
)
;

boundaryField
{
    inlet
    {
        type            calculated;
        value           uniform 0;
    }
    outlet
    {
        type            calculated;
        value           uniform 0;
    }
    sideWall
    {
        type            empty;
    }
}


// ************************************************************************* //
