/*--------------------------------*- C++ -*----------------------------------*\
| =========                 |                                                 |
| \\      /  F ield         | foam-extend: Open Source CFD                    |
|  \\    /   O peration     | Version:     3.2                                |
|   \\  /    A nd           | Web:         http://www.foam-extend.org         |
|    \\/     M anipulation  | For copyright notice see file Copyright         |
\*---------------------------------------------------------------------------*/
FoamFile
{
    version     2.0;
    format      ascii;
    class       volVectorField;
    location    "160";
    object      q_b_slide;
}
// * * * * * * * * * * * * * * * * * * * * * * * * * * * * * * * * * * * * * //

dimensions      [0 2 -1 0 0 0 0];

internalField   uniform (0 0 0);

boundaryField
{
    inlet
    {
        type            calculated;
        value           uniform (0 0 0);
    }
    outlet
    {
        type            calculated;
        value           uniform (0 0 0);
    }
    sideWall
    {
        type            empty;
    }
    bed
    {
        type            calculated;
        value           nonuniform List<vector> 
300
(
(0.00422331 0 0)
(0.00366695 0 0)
(0.00284074 0 0)
(0.00239534 0 0)
(0.00219592 0 0)
(0.00208258 0 0)
(0.00199645 0 0)
(0.00191823 0 0)
(0.00184386 0 0)
(0.00177447 0 0)
(0.00171103 0 0)
(0.00165319 0 0)
(0.00159999 0 0)
(0.00155189 0 0)
(0.0015081 0 0)
(0.00146796 0 0)
(0.00143095 0 0)
(0.0013966 0 0)
(0.00136498 0 0)
(0.00133604 0 0)
(0.00130907 0 0)
(0.00128369 0 0)
(0.00125978 0 0)
(0.00123734 0 0)
(0.00121623 0 0)
(0.00119627 0 0)
(0.00117737 0 0)
(0.00115943 0 0)
(0.0011424 0 0)
(0.0011263 0 0)
(0.0011109 0 0)
(0.00109628 0 0)
(0.00108222 0 0)
(0.00106885 0 0)
(0.00105601 0 0)
(0.0010438 0 0)
(0.00103199 0 0)
(0.00102072 0 0)
(0.00100981 2.71518e-42 0)
(0.000999361 2.58055e-42 0)
(0.000989286 0 0)
(0.000979599 0 0)
(0.000970223 0 0)
(0.000961197 0 0)
(0.000952428 -1.66279e-41 0)
(0.000944014 0 0)
(0.000935819 0 0)
(0.000927961 0 0)
(0.000920251 0 0)
(0.000912877 0 0)
(0.000905617 0 0)
(0.000898675 -5.10764e-41 0)
(0.00089185 0 0)
(0.000885314 0 0)
(0.000878871 0 0)
(0.000872693 0 0)
(0.00086659 -1.7201e-40 0)
(0.00086076 1.64168e-40 0)
(0.000854886 0 0)
(0.000849361 0 0)
(0.000843771 0 0)
(0.000838563 -5.71722e-40 0)
(0.000833251 0 0)
(0.000828344 0 0)
(0.000823287 0 0)
(0.000818684 0 0)
(0.000813863 0 0)
(0.000809551 0 0)
(0.000804958 -1.83147e-39 0)
(0.000800935 -3.50755e-39 0)
(0.000796574 0 0)
(0.000792851 0 0)
(0.000788731 0 0)
(0.000785325 0 0)
(0.000781454 0 0)
(0.000778394 1.06006e-38 0)
(0.000774821 0 0)
(0.000772136 1.83428e-38 0)
(0.000768935 -1.84903e-38 0)
(0.000766689 0 0)
(0.00076394 3.07412e-38 0)
(0.00076222 2.09552e-38 0)
(0.000760095 0 0)
(0.000759001 0 0)
(0.000757816 -2.25208e-38 0)
(0.000757435 0 0)
(0.000757474 1.87414e-38 0)
(0.000758296 -1.71909e-37 0)
(0.000759676 0 0)
(0.000762458 0 0)
(0.000766528 0 0)
(0.000771778 0 0)
(0.000779971 0 0)
(0.000789109 0 0)
(0.000805727 0 0)
(0.000822921 0 0)
(0.000862045 0 0)
(0.000878293 0 0)
(0.0010972 0 0)
(0.000993667 -5.33555e-23 -7.43336e-05)
(0.00034012 1.02995e-26 -3.36329e-05)
(0.000250885 0 -1.70067e-05)
(0.000257781 -9.58822e-28 -1.44284e-05)
(0.000234882 1.80684e-24 -1.25225e-05)
(0.00022904 0 -9.72857e-06)
(0.000220856 -6.56937e-25 -9.03989e-06)
(0.000204328 0 -7.12206e-06)
(0.000207071 -7.94358e-28 -6.24383e-06)
(0.00020022 -5.50364e-28 -5.84311e-06)
(0.000383322 -2.72839e-25 -1.03986e-05)
(0.000401054 -7.81974e-28 -8.46075e-06)
(0.000180107 7.5254e-25 -3.69681e-06)
(0.000194549 1.13607e-24 -2.44272e-06)
(0.000190876 4.84669e-25 -4.4973e-06)
(0.000370997 0 -4.81494e-06)
(0.000497083 0 -2.73196e-06)
(0.000374194 4.76862e-24 -1.05239e-05)
(0.000175399 7.87248e-29 1.08603e-06)
(0.000187273 0 -4.83024e-06)
(0.000142481 2.6102e-28 -1.27618e-06)
(0.000382816 1.95809e-24 -6.52219e-06)
(0.000437439 1.34634e-25 2.888e-06)
(0.000432234 0 -1.04946e-05)
(0.000111018 0 6.27713e-07)
(0.000215344 3.00684e-25 9.29193e-07)
(0.000120012 0 -3.00677e-06)
(0.000393221 0 3.05324e-06)
(0.000423068 9.27414e-25 -2.68956e-06)
(0.000460109 -5.15596e-25 4.37808e-06)
(0.00015482 0 -2.27661e-06)
(0.000145945 3.77614e-28 1.70388e-06)
(0.000466086 4.32885e-24 -7.77855e-06)
(0.000348894 1.01e-27 -3.91057e-06)
(0.000133885 0 2.1447e-06)
(0.000215338 7.28764e-28 1.63992e-06)
(0.000131291 -8.35491e-25 -2.23301e-06)
(0.00041533 -7.56624e-25 6.6672e-06)
(0.000529215 0 -1.50787e-06)
(0.000381284 0 -6.29307e-06)
(0.000133024 2.81382e-25 4.527e-07)
(0.000136169 0 1.22823e-07)
(0.000191592 0 1.77233e-06)
(0.000422257 5.12899e-24 -8.11948e-06)
(0.000390041 0 2.78565e-06)
(0.000425926 0 1.51259e-07)
(0.000156765 0 2.12885e-06)
(0.000168242 0 -1.90826e-06)
(0.000102242 0 5.27062e-07)
(0.000507707 0 7.28316e-06)
(0.000408581 0 -2.88989e-06)
(0.000468055 -4.23962e-25 2.18933e-06)
(6.99794e-05 1.40546e-28 -8.68443e-07)
(0.000153266 0 7.9645e-06)
(0.000234309 8.3342e-25 -2.28377e-06)
(0.000381273 1.46019e-25 8.988e-06)
(0.000609738 -2.54261e-24 1.46502e-05)
(0.000413715 0 -4.53505e-06)
(0.000187144 1.4515e-24 4.1051e-06)
(0.000161186 -9.20085e-29 1.70272e-07)
(0.000243499 3.86324e-24 9.54126e-06)
(0.000541309 0 -1.52366e-06)
(0.000516766 0 1.37714e-05)
(0.000553109 0 -5.11576e-06)
(0.000478992 1.17004e-27 5.83337e-06)
(0.00027194 2.03546e-25 -2.62667e-06)
(0.000165277 0 -1.09398e-06)
(0.000266797 -4.45771e-25 2.66712e-06)
(0.000412586 -4.10748e-24 -5.22215e-06)
(0.000522091 -1.00466e-27 6.27449e-06)
(0.000166156 -1.69632e-28 -2.95243e-06)
(0.000242061 5.23972e-24 6.7496e-06)
(0.000218246 -3.1706e-24 -5.47266e-06)
(0.000432079 5.42795e-27 1.2957e-05)
(0.000542021 4.61156e-24 -8.79628e-06)
(0.000166768 -3.08344e-25 8.26249e-07)
(0.000303869 0 3.19084e-06)
(0.000188226 1.24187e-27 -4.59894e-06)
(0.000464517 0 -3.89798e-07)
(0.000348068 1.923e-27 -8.99066e-06)
(0.00042516 2.86576e-25 8.49772e-06)
(0.000441583 1.98367e-24 -9.62033e-06)
(0.000165794 1.48e-28 2.26677e-06)
(0.000201033 0 -4.50563e-06)
(0.000355034 -1.35852e-25 1.67565e-06)
(0.000494841 0 1.89624e-06)
(0.000370379 -2.41165e-24 -6.59933e-06)
(0.000163462 -1.12498e-25 4.55618e-07)
(0.000128707 -2.60283e-25 -1.21837e-06)
(0.000168902 1.39533e-24 3.88559e-06)
(0.000450634 5.66478e-28 -5.33186e-09)
(0.000479195 3.31684e-25 1.00986e-05)
(0.000226928 -7.12048e-26 -2.16991e-06)
(0.000191693 -1.28903e-24 2.7872e-06)
(0.000510094 0 -6.10401e-06)
(0.000336628 -1.78001e-27 -5.60689e-06)
(0.000193355 0 2.83341e-06)
(0.000177575 3.07214e-28 -7.03921e-07)
(0.000243011 0 3.89142e-06)
(0.000422695 0 -1.12494e-05)
(0.00037055 0 8.11107e-06)
(0.000523238 -8.39687e-25 3.42132e-06)
(0.000433174 0 -2.23346e-06)
(0.000182678 2.91488e-26 -1.79514e-06)
(0.000123699 0 4.43165e-07)
(0.000537045 0 1.46368e-05)
(0.000498521 0 -5.87386e-06)
(0.000473547 0 1.42224e-06)
(0.000186533 -7.6524e-28 -4.37731e-06)
(0.000162089 2.05261e-25 6.83639e-07)
(0.000163292 0 -3.51763e-06)
(0.000341368 0 6.00847e-06)
(0.000516299 -3.57103e-27 9.55469e-06)
(0.000430433 7.64087e-27 -5.12375e-07)
(0.000262905 0 2.39634e-06)
(0.000172898 0 -3.98172e-06)
(0.000174793 -5.65411e-25 2.04799e-06)
(0.000175362 5.68593e-25 -2.41445e-06)
(0.000451444 0 7.17427e-06)
(0.000428679 0 -1.13134e-05)
(0.000129332 1.29403e-28 1.1632e-06)
(0.000189829 0 -1.22844e-06)
(0.000329384 4.21734e-26 -5.92039e-07)
(0.00046054 -5.10976e-25 7.15012e-06)
(0.000368457 0 -2.64284e-07)
(0.0002317 -5.89754e-24 7.59917e-06)
(0.000242348 -1.5938e-25 -9.32976e-07)
(0.000259282 0 3.81135e-06)
(0.000444438 -9.21533e-24 -1.0892e-05)
(0.000399024 0 4.19217e-06)
(0.000427669 0 -7.32113e-06)
(0.000384344 0 6.99941e-06)
(0.00028146 0 -6.68443e-07)
(0.000117824 2.34359e-25 -2.7987e-06)
(0.000161795 2.00477e-24 3.2801e-06)
(0.000208628 -1.17072e-28 5.17297e-07)
(0.000535161 -3.99013e-25 5.4338e-06)
(0.000419146 0 -9.76026e-06)
(0.000196602 1.61578e-25 6.39937e-07)
(0.000166127 -2.01819e-24 -5.29892e-06)
(0.000332662 0 1.36225e-06)
(0.00039876 1.23301e-24 -4.5846e-06)
(0.000343759 0 -1.25852e-06)
(0.000141022 0 -2.22606e-07)
(0.000101846 -3.24779e-28 1.22481e-06)
(0.00024042 0 7.22372e-06)
(0.000448693 0 -2.01745e-06)
(0.000499037 8.54815e-25 8.24422e-06)
(0.000420495 -1.49371e-27 -7.80861e-06)
(0.000197998 0 1.92453e-06)
(0.000154739 0 -3.69417e-06)
(0.000152985 -3.44811e-28 3.78667e-06)
(0.000465271 -4.27486e-24 -7.95785e-06)
(0.000342214 0 -1.30557e-06)
(0.000422843 0 -1.04969e-06)
(9.94691e-05 -8.79438e-26 -1.08651e-06)
(0.000163962 9.62402e-28 3.09515e-06)
(0.000125894 4.95041e-26 2.72883e-07)
(0.000497287 0 1.80247e-05)
(0.000411402 9.05829e-25 -2.09612e-06)
(0.000518589 -6.64867e-24 2.14659e-05)
(0.000280257 -1.39293e-27 -6.32013e-06)
(0.000186397 1.56466e-28 9.81894e-07)
(0.000411442 5.33024e-28 -8.29054e-06)
(0.000379355 0 3.06658e-06)
(0.000187023 4.71186e-28 -3.3212e-06)
(0.000123867 7.36209e-25 1.4867e-06)
(0.000255519 0 4.68297e-06)
(0.000385568 0 -3.86236e-06)
(0.00047825 0 4.30652e-06)
(0.000152445 1.17405e-28 -3.5478e-06)
(0.000177111 1.15827e-24 2.17599e-06)
(0.00011636 -2.01375e-25 -1.43454e-06)
(0.000449095 -2.816e-27 1.75312e-05)
(0.000422355 0 -6.99961e-06)
(0.000203189 0 6.23101e-06)
(0.000240706 0 -5.65045e-06)
(0.000167142 0 2.83442e-07)
(0.000362721 -7.05047e-24 -9.02686e-06)
(0.000344248 -5.0154e-29 2.26722e-07)
(0.00010893 6.96166e-29 -2.33651e-06)
(0.00011531 0 3.48658e-06)
(0.000179692 0 -1.15636e-06)
(0.000248665 0 3.08686e-06)
(0.000220895 0 8.0464e-06)
(0.000175691 -3.10447e-25 1.17411e-06)
(0.000244699 -3.98923e-24 8.90787e-06)
(0.000217988 9.81398e-28 -2.85949e-06)
(0.00014581 -7.74771e-25 3.14455e-06)
(0.00017709 2.30161e-25 2.65768e-06)
(0.000205698 6.36027e-28 7.10748e-06)
(0.000210706 -6.90752e-28 5.23868e-06)
(0.000269462 -3.22097e-24 1.32655e-05)
(0.000257384 0 9.80927e-06)
(0.000370313 5.19224e-24 2.61609e-05)
(0.000332777 -2.57079e-24 1.96305e-05)
(0.00066229 6.53746e-23 8.40814e-05)
(0.00122466 -3.3094e-23 7.82842e-05)
(0.000813087 0 0)
(0.00055439 3.91253e-31 0)
(0.000471314 0 0)
)
;
    }
    topWall
    {
        type            calculated;
        value           uniform (0 0 0);
    }
}


// ************************************************************************* //
