/*--------------------------------*- C++ -*----------------------------------*\
| =========                 |                                                 |
| \\      /  F ield         | foam-extend: Open Source CFD                    |
|  \\    /   O peration     | Version:     3.2                                |
|   \\  /    A nd           | Web:         http://www.foam-extend.org         |
|    \\/     M anipulation  | For copyright notice see file Copyright         |
\*---------------------------------------------------------------------------*/
FoamFile
{
    version     2.0;
    format      ascii;
    class       edgeScalarField;
    location    "160";
    object      q_f;
}
// * * * * * * * * * * * * * * * * * * * * * * * * * * * * * * * * * * * * * //

dimensions      [0 3 -1 0 0 0 0];

internalField   nonuniform List<scalar> 
299
(
7.89026e-05
6.50769e-05
5.23607e-05
4.59126e-05
4.27851e-05
4.07904e-05
3.91469e-05
3.7621e-05
3.61833e-05
3.4855e-05
3.36422e-05
3.25318e-05
3.15188e-05
3.05999e-05
2.97606e-05
2.89891e-05
2.82755e-05
2.76158e-05
2.70102e-05
2.64511e-05
2.59276e-05
2.54347e-05
2.49712e-05
2.45357e-05
2.4125e-05
2.37364e-05
2.3368e-05
2.30183e-05
2.2687e-05
2.2372e-05
2.20718e-05
2.1785e-05
2.15107e-05
2.12487e-05
2.09981e-05
2.07579e-05
2.05271e-05
2.03052e-05
2.00917e-05
1.98865e-05
1.96888e-05
1.94982e-05
1.93142e-05
1.91363e-05
1.89644e-05
1.87983e-05
1.86378e-05
1.84821e-05
1.83313e-05
1.81849e-05
1.80429e-05
1.79053e-05
1.77716e-05
1.76419e-05
1.75156e-05
1.73928e-05
1.72735e-05
1.71565e-05
1.70425e-05
1.69313e-05
1.68233e-05
1.67181e-05
1.6616e-05
1.65163e-05
1.64197e-05
1.63255e-05
1.62341e-05
1.61451e-05
1.60589e-05
1.59751e-05
1.58943e-05
1.58158e-05
1.57406e-05
1.56678e-05
1.55985e-05
1.55322e-05
1.54696e-05
1.54107e-05
1.53562e-05
1.53063e-05
1.52616e-05
1.52231e-05
1.5191e-05
1.51682e-05
1.51525e-05
1.51491e-05
1.51577e-05
1.51797e-05
1.52213e-05
1.52899e-05
1.53831e-05
1.55175e-05
1.56908e-05
1.59484e-05
1.62865e-05
1.68497e-05
1.74034e-05
1.97549e-05
2.09378e-05
1.3389e-05
5.93123e-06
5.09647e-06
4.93398e-06
4.6446e-06
4.50287e-06
4.25491e-06
4.11617e-06
4.0747e-06
5.83773e-06
7.84607e-06
5.81287e-06
3.7471e-06
3.85494e-06
5.61975e-06
8.68123e-06
8.71456e-06
5.49708e-06
3.62736e-06
3.29815e-06
5.25345e-06
8.20323e-06
8.6981e-06
5.43336e-06
3.26366e-06
3.3541e-06
5.13321e-06
8.16309e-06
8.83206e-06
6.14976e-06
3.00792e-06
6.12095e-06
8.15063e-06
4.82825e-06
3.4925e-06
3.46659e-06
5.46696e-06
9.44608e-06
9.10563e-06
5.14345e-06
2.69194e-06
3.27768e-06
6.13919e-06
8.12383e-06
8.15977e-06
5.82718e-06
3.25033e-06
2.70494e-06
6.09984e-06
9.16346e-06
8.76652e-06
5.38058e-06
2.23404e-06
3.87846e-06
6.15682e-06
9.91291e-06
1.02363e-05
6.0095e-06
3.48372e-06
4.0484e-06
7.8511e-06
1.05827e-05
1.07009e-05
1.03216e-05
7.50977e-06
4.37232e-06
4.3209e-06
6.79428e-06
9.34749e-06
6.88327e-06
4.08329e-06
4.60469e-06
6.50574e-06
9.74383e-06
7.0884e-06
4.70653e-06
4.92182e-06
6.52841e-06
8.12721e-06
7.73435e-06
8.66932e-06
6.07477e-06
3.6689e-06
5.5614e-06
8.49883e-06
8.65292e-06
5.33884e-06
2.92176e-06
2.97655e-06
6.19619e-06
9.29932e-06
7.06217e-06
4.18653e-06
7.0185e-06
8.46811e-06
5.30048e-06
3.70951e-06
4.20615e-06
6.65867e-06
7.9348e-06
8.93904e-06
9.56428e-06
6.1587e-06
3.06385e-06
6.60869e-06
1.03579e-05
9.72104e-06
6.60172e-06
3.48672e-06
3.2542e-06
5.04757e-06
8.57807e-06
9.46814e-06
6.93352e-06
4.3587e-06
3.47749e-06
3.50183e-06
6.26875e-06
8.80332e-06
5.58119e-06
3.19171e-06
5.19219e-06
7.89972e-06
8.29047e-06
6.00318e-06
4.74177e-06
5.01659e-06
7.03863e-06
8.43612e-06
8.26777e-06
8.1214e-06
6.65861e-06
3.99341e-06
2.79687e-06
3.70461e-06
7.43809e-06
9.54461e-06
6.15833e-06
3.62822e-06
4.98917e-06
7.31449e-06
7.42547e-06
4.84783e-06
2.42877e-06
3.42356e-06
6.89272e-06
9.47799e-06
9.19674e-06
6.18561e-06
3.52796e-06
3.07815e-06
6.18396e-06
8.07547e-06
7.65061e-06
5.22328e-06
2.63463e-06
2.89883e-06
6.23386e-06
9.08993e-06
9.30395e-06
7.9929e-06
4.66717e-06
5.97904e-06
7.9089e-06
5.66431e-06
3.10925e-06
3.79431e-06
6.41157e-06
8.63857e-06
6.30793e-06
3.29614e-06
2.93494e-06
5.65692e-06
8.71842e-06
6.25734e-06
4.44061e-06
4.07905e-06
5.29945e-06
7.07078e-06
4.5323e-06
2.24317e-06
2.95073e-06
4.28378e-06
4.69733e-06
3.96722e-06
4.20535e-06
4.6286e-06
3.63855e-06
3.22955e-06
3.82923e-06
4.16593e-06
4.80533e-06
5.27356e-06
6.28707e-06
7.04577e-06
9.99915e-06
1.89643e-05
2.03982e-05
1.36748e-05
1.0257e-05
)
;

boundaryField
{
    inlet
    {
        type            calculated;
        value           uniform -8.44662e-05;
    }
    outlet
    {
        type            calculated;
        value           uniform 1.02097e-05;
    }
    sideWall
    {
        type            empty;
    }
}


// ************************************************************************* //
