/*--------------------------------*- C++ -*----------------------------------*\
| =========                 |                                                 |
| \\      /  F ield         | foam-extend: Open Source CFD                    |
|  \\    /   O peration     | Version:     3.2                                |
|   \\  /    A nd           | Web:         http://www.foam-extend.org         |
|    \\/     M anipulation  | For copyright notice see file Copyright         |
\*---------------------------------------------------------------------------*/
FoamFile
{
    version     2.0;
    format      ascii;
    class       areaScalarField;
    location    "160";
    object      SSd1;
}
// * * * * * * * * * * * * * * * * * * * * * * * * * * * * * * * * * * * * * //

dimensions      [0 1 -2 -1 0 0 0];

internalField   nonuniform List<scalar> 
300
(
0.000923367
0.000923367
0.000923367
0.000923367
0.000923367
0.000923367
0.000923367
0.000923367
0.000923367
0.000923367
0.000923367
0.000923367
0.000923367
0.000923367
0.000923367
0.000923367
0.000923367
0.000923367
0.000923367
0.000923367
0.000923367
0.000923367
0.000923367
0.000923367
0.000923367
0.000923367
0.000923367
0.000923367
0.000923367
0.000923367
0.000923367
0.000923367
0.000923367
0.000923367
0.000923367
0.000923367
0.000923367
0.000923367
0.000923367
0.000923367
0.000923367
0.000923367
0.000923367
0.000923367
0.000923367
0.000923367
0.000923367
0.000923367
0.000923367
0.000923367
0.000923367
0.000923367
0.000923367
0.000923367
0.000923367
0.000923367
0.000923367
0.000923367
0.000923367
0.000923367
0.000923367
0.000923367
0.000923367
0.000923367
0.000923367
0.000923367
0.000923367
0.000923367
0.000923367
0.000923367
0.000923367
0.000923367
0.000923367
0.000923367
0.000923367
0.000923367
0.000923367
0.000923367
0.000923367
0.000923367
0.000923367
0.000923367
0.000923367
0.000923367
0.000923367
0.000923367
0.000923367
0.000923367
0.000923367
0.000923367
0.000923367
0.000923367
0.000923367
0.000923367
0.000923367
0.000923367
0.000923368
0.000923367
0.000923368
0.000923369
0.000926995
0.000923585
0.000929729
0.000926386
0.000929623
0.000931053
0.000925432
0.00093618
0.000927096
0.000902518
0.000937878
0.000903888
0.000984637
0.000914079
0.000941172
0.000921288
0.000911774
0.000906083
0.000942886
0.000907738
0.000926109
0.000884666
0.000909054
0.000885954
0.00102873
0.000905729
0.00094776
0.000897574
0.000939028
0.000898761
0.000969029
0.000910419
0.000907721
0.000899204
0.00100628
0.00092074
0.00093102
0.000922459
0.000928115
0.000909146
0.00103528
0.000967365
0.000946841
0.000889479
0.000974426
0.000925037
0.000983412
0.000926748
0.000960969
0.000899868
0.000983943
0.000880924
0.000892522
0.000912503
0.000907679
0.000860594
0.00091852
0.000897855
0.000945156
0.000876926
0.000929506
0.000874268
0.0009069
0.000918862
0.00092823
0.000950874
0.000965673
0.000907064
0.000902108
0.000892076
0.000906986
0.000889559
0.000879421
0.000882372
0.000926077
0.000971728
0.000914675
0.000967776
0.000916561
0.000868602
0.000872045
0.000908881
0.000907244
0.000941767
0.000918664
0.000918075
0.000907557
0.000960255
0.000886149
0.00101388
0.000894297
0.000957385
0.000945555
0.000940417
0.000893956
0.000897531
0.000972735
0.000937169
0.000911609
0.000872513
0.000901695
0.000974068
0.000914953
0.00097851
0.000900316
0.000930019
0.000963874
0.00091634
0.00099468
0.000908225
0.000904219
0.000873753
0.00095893
0.000943943
0.000948579
0.000958902
0.00092639
0.000952684
0.000876335
0.000933063
0.000945646
0.000951091
0.000892487
0.000949599
0.000892679
0.00101716
0.000952302
0.000938212
0.000956831
0.000884666
0.000907089
0.000946038
0.000919302
0.000913876
0.000952672
0.000940416
0.000909712
0.000955339
0.000924031
0.000948789
0.000904836
0.000948761
0.000930467
0.00094385
0.000886569
0.000952471
0.00091398
0.000919481
0.000926258
0.000922211
0.000892866
0.000926782
0.000904208
0.000951465
0.000886588
0.000920296
0.000907444
0.000902017
0.00089079
0.000899122
0.000897839
0.00101915
0.000932091
0.000912839
0.00091547
0.00092325
0.000912989
0.000948609
0.000902388
0.000911645
0.000926681
0.000909141
0.000890132
0.000892859
0.000905018
0.000930681
0.00101931
0.000926564
0.000963056
0.000898231
0.000908916
0.000917682
0.000920315
0.000852525
0.000931046
0.000892437
0.000942177
0.000931538
0.000931381
0.000927689
0.000929575
0.000924359
0.000927799
0.000922888
0.000925418
0.000922115
0.000922132
0.000922544
0.000922792
0.000922948
)
;

boundaryField
{
    inlet
    {
        type            calculated;
        value           uniform 0;
    }
    outlet
    {
        type            calculated;
        value           uniform 0;
    }
    sideWall
    {
        type            empty;
    }
}


// ************************************************************************* //
