/*--------------------------------*- C++ -*----------------------------------*\
| =========                 |                                                 |
| \\      /  F ield         | foam-extend: Open Source CFD                    |
|  \\    /   O peration     | Version:     3.2                                |
|   \\  /    A nd           | Web:         http://www.foam-extend.org         |
|    \\/     M anipulation  | For copyright notice see file Copyright         |
\*---------------------------------------------------------------------------*/
FoamFile
{
    version     2.0;
    format      ascii;
    class       areaScalarField;
    location    "160";
    object      SSe1;
}
// * * * * * * * * * * * * * * * * * * * * * * * * * * * * * * * * * * * * * //

dimensions      [0 1 -2 -1 0 0 0];

internalField   nonuniform List<scalar> 
300
(
0.0445056
0.0316045
0.0182307
0.0135491
0.0119079
0.0110759
0.010486
0.00997875
0.0095192
0.00910857
0.00874709
0.0084282
0.00814302
0.00789146
0.00766723
0.00746539
0.00728226
0.00711467
0.00696225
0.00682431
0.00669695
0.00657814
0.0064671
0.00636354
0.0062668
0.00617581
0.00609011
0.00600911
0.00593259
0.00586051
0.00579183
0.00572679
0.00566447
0.00560538
0.00554877
0.00549504
0.00544319
0.00539381
0.00534609
0.00530049
0.00525657
0.00521441
0.00517366
0.00513448
0.00509646
0.00506002
0.00502456
0.00499059
0.00495729
0.00492546
0.00489415
0.00486424
0.00483485
0.00480672
0.004779
0.00475244
0.00472621
0.00470117
0.00467595
0.00465224
0.00462826
0.00460592
0.00458314
0.00456211
0.00454044
0.00452071
0.00450006
0.0044816
0.00446193
0.00444471
0.00442604
0.0044101
0.00439247
0.00437789
0.00436133
0.00434823
0.00433295
0.00432146
0.00430777
0.00429816
0.0042864
0.00427904
0.00426995
0.00426527
0.0042602
0.00425857
0.00425873
0.00426225
0.00426815
0.00428005
0.00429745
0.00431991
0.00435496
0.00439405
0.00446518
0.00453881
0.0047066
0.00477517
0.00572914
0.00246312
0.000821915
0.000717244
0.000707046
0.000643418
0.000627698
0.000604693
0.00055858
0.000582209
0.000528619
0.00128474
0.00133981
0.000502886
0.000556825
0.000469166
0.00129552
0.00173206
0.00112239
0.000518032
0.000437029
0.000463539
0.00125782
0.00150621
0.00121303
0.000452728
0.000539754
0.000366753
0.00138241
0.0015981
0.00140622
0.000435956
0.000436885
0.00137406
0.0013675
0.000390147
0.000522347
0.000389058
0.00129366
0.0018064
0.00129712
0.000479122
0.000522549
0.000503461
0.00127388
0.00151564
0.00162524
0.000463403
0.000445047
0.000445747
0.00142169
0.00155702
0.00167063
0.000340797
0.000285577
0.000501872
0.00115398
0.00120535
0.0013569
0.000375403
0.000488047
0.000345128
0.0015867
0.00113091
0.00144422
0.00132997
0.000499231
0.000487786
0.000502695
0.00124281
0.00135601
0.000426043
0.000417016
0.000439974
0.000995368
0.00142279
0.000516409
0.000578545
0.000445384
0.00147288
0.00107933
0.00112162
0.00130533
0.000446278
0.000435556
0.00147617
0.00154863
0.00126616
0.000506842
0.000474405
0.000381664
0.00174866
0.00121428
0.000543672
0.000480333
0.00140316
0.00118723
0.000437067
0.000549953
0.0005023
0.00113881
0.00110991
0.00158108
0.00160484
0.000487853
0.000498925
0.00112021
0.0015638
0.00159647
0.000453803
0.000533701
0.000420697
0.0010968
0.00130011
0.00170633
0.000550034
0.000456861
0.000473141
0.000519703
0.00134931
0.00115746
0.000499749
0.000505591
0.00144937
0.0012579
0.00149965
0.000397348
0.000634959
0.000559047
0.00123708
0.00134679
0.00125085
0.00117522
0.000670948
0.000381421
0.000396493
0.00062836
0.00154361
0.00125847
0.000598231
0.00039952
0.00146648
0.00133237
0.0015047
0.000515384
0.000430626
0.000410624
0.00169796
0.00133859
0.00133225
0.000538698
0.000409032
0.00042364
0.0013189
0.00155662
0.0014317
0.000426701
0.00041311
0.000497217
0.0010738
0.00148631
0.00104614
0.000540787
0.000629087
0.00118317
0.00146753
0.0004448
0.000463869
0.000480206
0.00144651
0.0013979
0.000461995
0.000491001
0.000470306
0.00101011
0.00140589
0.000467227
0.000533558
0.000727001
0.00108325
0.0018522
0.000348439
0.000431075
0.000504361
0.00118082
0.000381666
0.000577138
0.000430112
0.000615745
0.000555693
0.000565434
0.000573403
0.000595739
0.000601916
0.000647026
0.000661456
0.000729832
0.000783846
0.00252729
0.00449781
0.00338671
0.00302406
)
;

boundaryField
{
    inlet
    {
        type            calculated;
        value           uniform 0;
    }
    outlet
    {
        type            calculated;
        value           uniform 0;
    }
    sideWall
    {
        type            empty;
    }
}


// ************************************************************************* //
