/*--------------------------------*- C++ -*----------------------------------*\
| =========                 |                                                 |
| \\      /  F ield         | foam-extend: Open Source CFD                    |
|  \\    /   O peration     | Version:     3.2                                |
|   \\  /    A nd           | Web:         http://www.foam-extend.org         |
|    \\/     M anipulation  | For copyright notice see file Copyright         |
\*---------------------------------------------------------------------------*/
FoamFile
{
    version     2.0;
    format      ascii;
    class       areaScalarField;
    location    "160";
    object      tau;
}
// * * * * * * * * * * * * * * * * * * * * * * * * * * * * * * * * * * * * * //

dimensions      [1 1 2 0 0 0 0];

internalField   nonuniform List<scalar> 
300
(
53.2816
42.432
29.4366
24.1719
22.1872
21.1464
20.3926
19.7331
19.1259
18.5749
18.0831
17.6435
17.2457
16.8909
16.5715
16.2813
16.0157
15.7707
15.5462
15.3416
15.1515
14.9731
14.8053
14.648
14.5003
14.3606
14.2285
14.103
13.9839
13.8713
13.7636
13.6612
13.5627
13.4689
13.3788
13.293
13.21
13.1306
13.0537
12.98
12.9088
12.8402
12.7738
12.7098
12.6475
12.5877
12.5293
12.4732
12.4182
12.3654
12.3134
12.2637
12.2146
12.1676
12.1212
12.0767
12.0326
11.9905
11.9479
11.9079
11.8673
11.8294
11.7907
11.755
11.7181
11.6844
11.6491
11.6175
11.5838
11.5543
11.5222
11.4948
11.4644
11.4393
11.4107
11.3881
11.3616
11.3417
11.318
11.3013
11.2809
11.2681
11.2523
11.2441
11.2353
11.2325
11.2328
11.2389
11.2491
11.2698
11.3001
11.339
11.3997
11.4672
11.5894
11.7153
11.9996
12.1169
13.6672
12.7365
7.78592
7.33735
7.70961
7.67256
7.85213
7.9225
7.90739
8.09561
8.13009
8.05508
8.24351
8.21584
8.52464
8.46139
8.00599
9.15264
7.96269
8.70815
8.64158
8.24223
8.0976
8.69292
8.50617
8.03424
9.42816
7.93564
8.30349
8.50847
8.90276
8.55767
8.66403
8.83946
7.79988
8.58231
9.54633
8.23663
8.5426
9.43306
8.07923
8.47409
8.49257
9.29415
8.44324
8.26805
8.56314
8.86847
8.80944
8.00124
9.33703
8.37235
8.94849
7.26866
9.03593
9.47487
8.26271
10.2101
8.39957
8.98253
8.43265
9.68204
9.53849
9.46568
9.59966
9.07929
9.45213
8.22063
9.57664
8.38685
9.44133
8.15627
9.42968
8.73454
8.75323
9.47748
8.29892
9.93014
8.35167
8.90001
7.73011
8.64433
8.60197
8.48301
8.6728
7.93328
9.17702
7.97234
8.45802
7.88758
8.67885
8.78282
9.12118
9.04006
8.78776
9.23423
7.65737
8.86462
8.49846
9.4316
8.41452
8.15385
9.42852
8.60051
8.49323
7.79746
9.64307
9.13545
8.98844
8.41538
8.34876
8.19736
7.85846
9.42533
8.59537
9.53912
8.22979
8.54689
8.36202
8.86011
8.46585
7.9492
8.64912
7.65607
8.93567
8.03181
9.35994
9.14744
9.46064
8.6183
8.36709
8.49999
8.26529
9.59964
7.42111
8.39287
8.81517
9.54644
8.39505
8.70847
8.09849
7.71362
8.26538
7.78347
8.09462
7.59237
9.51134
8.74625
9.26917
8.42752
8.78514
7.9899
8.33851
8.83205
7.76875
8.52123
7.33151
8.49275
7.78738
9.34879
8.40861
9.54877
9.28669
8.42865
8.34326
8.17312
8.33322
7.70467
9.38087
8.15182
9.05822
7.80143
8.42031
7.38661
8.94528
8.45474
8.75788
8.7947
8.11547
7.87332
7.80812
7.23812
7.70563
8.28831
6.88478
9.00702
8.1421
9.10834
8.3981
7.69507
7.99727
8.38861
8.26339
8.94265
8.55333
9.68453
8.95474
11.7849
15.0781
11.647
9.65847
8.96262
)
;

boundaryField
{
    inlet
    {
        type            calculated;
        value           uniform 0;
    }
    outlet
    {
        type            calculated;
        value           uniform 0;
    }
    sideWall
    {
        type            empty;
    }
}


// ************************************************************************* //
