/*--------------------------------*- C++ -*----------------------------------*\
| =========                 |                                                 |
| \\      /  F ield         | foam-extend: Open Source CFD                    |
|  \\    /   O peration     | Version:     3.2                                |
|   \\  /    A nd           | Web:         http://www.foam-extend.org         |
|    \\/     M anipulation  | For copyright notice see file Copyright         |
\*---------------------------------------------------------------------------*/
FoamFile
{
    version     2.0;
    format      ascii;
    class       areaScalarField;
    location    "160";
    object      tauCSS1;
}
// * * * * * * * * * * * * * * * * * * * * * * * * * * * * * * * * * * * * * //

dimensions      [1 1 2 0 0 0 0];

internalField   nonuniform List<scalar> 
300
(
0.108551
0.108551
0.108551
0.108551
0.108551
0.108551
0.108551
0.108551
0.108551
0.108551
0.108551
0.108551
0.108551
0.108551
0.108551
0.108551
0.108551
0.108551
0.108551
0.108551
0.108551
0.108551
0.108551
0.108551
0.108551
0.108551
0.108551
0.108551
0.108551
0.108551
0.108551
0.108551
0.108551
0.108551
0.108551
0.108551
0.108551
0.108551
0.108551
0.108551
0.108551
0.108551
0.108551
0.108551
0.108551
0.108551
0.108551
0.108551
0.108551
0.108551
0.108551
0.108551
0.108551
0.108551
0.108551
0.108551
0.108551
0.108551
0.108551
0.108551
0.108551
0.108551
0.108551
0.108551
0.108551
0.108551
0.108551
0.108551
0.108551
0.108551
0.108551
0.108551
0.108551
0.108551
0.108551
0.108551
0.108551
0.108551
0.108551
0.108551
0.108551
0.108551
0.108551
0.108551
0.108551
0.108551
0.108551
0.108551
0.108551
0.108551
0.108551
0.108551
0.108551
0.108551
0.108551
0.108551
0.108551
0.108551
0.108551
0.101164
0.10866
0.127214
0.139083
0.147882
0.157928
0.164697
0.172214
0.178602
0.183498
0.103982
0.105004
0.197618
0.202788
0.20208
0.106374
0.107631
0.103813
0.22082
0.211523
0.220081
0.10569
0.109651
0.104465
0.231076
0.229788
0.22103
0.109844
0.107487
0.110135
0.226162
0.235813
0.105749
0.106672
0.239691
0.234744
0.226672
0.111217
0.108074
0.10578
0.235668
0.234416
0.236574
0.10532
0.10974
0.10861
0.238169
0.229051
0.235488
0.110935
0.107367
0.109331
0.22783
0.247042
0.222232
0.112456
0.112531
0.106714
0.225992
0.217148
0.226217
0.10808
0.112961
0.107001
0.110576
0.203676
0.20596
0.210994
0.106428
0.11055
0.202812
0.216548
0.199425
0.113507
0.105826
0.208465
0.208943
0.198935
0.10841
0.104202
0.111866
0.104887
0.216723
0.205594
0.109338
0.10919
0.105558
0.217022
0.213475
0.223107
0.108549
0.112045
0.2079
0.215297
0.106545
0.105754
0.217668
0.210727
0.216212
0.104069
0.112179
0.10964
0.107688
0.20788
0.212755
0.11306
0.106575
0.109052
0.202556
0.21314
0.206065
0.111473
0.111622
0.108352
0.211419
0.202156
0.214339
0.206242
0.11119
0.104107
0.215759
0.210497
0.10825
0.11113
0.108431
0.218752
0.204778
0.209732
0.104426
0.110299
0.105676
0.111573
0.205461
0.200672
0.215088
0.207561
0.110241
0.104633
0.209487
0.200331
0.109233
0.106623
0.107938
0.21478
0.218404
0.220682
0.107799
0.111294
0.105431
0.211968
0.202237
0.217864
0.105679
0.107913
0.108136
0.209035
0.21809
0.21096
0.114528
0.107698
0.115364
0.193115
0.203145
0.105164
0.109897
0.198878
0.208734
0.20817
0.106872
0.11005
0.195739
0.207797
0.200077
0.114982
0.105768
0.208092
0.191013
0.200519
0.104362
0.108661
0.198722
0.214266
0.200885
0.110615
0.209416
0.196925
0.202004
0.185681
0.195054
0.190126
0.191372
0.183697
0.183677
0.173322
0.171405
0.157268
0.153317
0.124687
0.108551
0.108551
0.108551
)
;

boundaryField
{
    inlet
    {
        type            calculated;
        value           uniform 0;
    }
    outlet
    {
        type            calculated;
        value           uniform 0;
    }
    sideWall
    {
        type            empty;
    }
}


// ************************************************************************* //
