/*--------------------------------*- C++ -*----------------------------------*\
| =========                 |                                                 |
| \\      /  F ield         | foam-extend: Open Source CFD                    |
|  \\    /   O peration     | Version:     3.2                                |
|   \\  /    A nd           | Web:         http://www.foam-extend.org         |
|    \\/     M anipulation  | For copyright notice see file Copyright         |
\*---------------------------------------------------------------------------*/
FoamFile
{
    version     2.0;
    format      ascii;
    class       areaScalarField;
    location    "160";
    object      tauCSS2;
}
// * * * * * * * * * * * * * * * * * * * * * * * * * * * * * * * * * * * * * //

dimensions      [1 1 2 0 0 0 0];

internalField   nonuniform List<scalar> 
300
(
0.126764
0.126764
0.126764
0.126764
0.126764
0.126764
0.126764
0.126764
0.126764
0.126764
0.126764
0.126764
0.126764
0.126764
0.126764
0.126764
0.126764
0.126764
0.126764
0.126764
0.126764
0.126764
0.126764
0.126764
0.126764
0.126764
0.126764
0.126764
0.126764
0.126764
0.126764
0.126764
0.126764
0.126764
0.126764
0.126764
0.126764
0.126764
0.126764
0.126764
0.126764
0.126764
0.126764
0.126764
0.126764
0.126764
0.126764
0.126764
0.126764
0.126764
0.126764
0.126764
0.126764
0.126764
0.126764
0.126764
0.126764
0.126764
0.126764
0.126764
0.126764
0.126764
0.126764
0.126764
0.126764
0.126764
0.126764
0.126764
0.126764
0.126764
0.126764
0.126764
0.126764
0.126764
0.126764
0.126764
0.126764
0.126764
0.126764
0.126764
0.126764
0.126764
0.126764
0.126764
0.126764
0.126764
0.126764
0.126764
0.126764
0.126764
0.126764
0.126764
0.126764
0.126764
0.126764
0.126764
0.126764
0.126764
0.126764
0.118138
0.126891
0.148558
0.162419
0.172694
0.184426
0.192331
0.201109
0.208568
0.214286
0.121428
0.122622
0.230775
0.236812
0.235986
0.124222
0.12569
0.121231
0.25787
0.247013
0.257007
0.123423
0.128048
0.121993
0.269846
0.268343
0.258115
0.128274
0.125521
0.128613
0.264108
0.275379
0.123492
0.12457
0.279907
0.27413
0.264704
0.129877
0.126207
0.123528
0.275209
0.273747
0.276268
0.122991
0.128153
0.126833
0.27813
0.267482
0.274999
0.129548
0.125381
0.127674
0.266057
0.288492
0.259518
0.131324
0.131411
0.124618
0.26391
0.253582
0.264173
0.126214
0.131914
0.124954
0.129129
0.237849
0.240516
0.246395
0.124285
0.129098
0.23684
0.252881
0.232886
0.132552
0.123582
0.243442
0.244
0.232313
0.1266
0.121686
0.130635
0.122486
0.253085
0.240089
0.127683
0.12751
0.123269
0.253435
0.249293
0.260541
0.126761
0.130844
0.242782
0.25142
0.124421
0.123498
0.25419
0.246084
0.252489
0.12153
0.131001
0.128036
0.125756
0.242759
0.248451
0.13203
0.124457
0.127349
0.236541
0.248901
0.240639
0.130176
0.13035
0.126531
0.246892
0.236075
0.250301
0.240846
0.129846
0.121574
0.25196
0.245815
0.126413
0.129776
0.126624
0.255455
0.239136
0.244922
0.121947
0.128805
0.123407
0.130294
0.239934
0.234341
0.251176
0.242386
0.128737
0.122189
0.244635
0.233943
0.127561
0.124513
0.126049
0.250816
0.255049
0.257709
0.125885
0.129968
0.123121
0.247533
0.236169
0.254418
0.12341
0.126019
0.126279
0.244108
0.254682
0.246356
0.133744
0.125768
0.134721
0.225517
0.237229
0.122809
0.128336
0.232246
0.243756
0.243097
0.124804
0.128514
0.228581
0.242661
0.233647
0.134274
0.123515
0.243006
0.223062
0.234163
0.121872
0.126892
0.232064
0.250216
0.23459
0.129175
0.244553
0.229965
0.235897
0.216835
0.22778
0.222026
0.223482
0.214518
0.214495
0.202403
0.200164
0.183655
0.179042
0.145608
0.126764
0.126764
0.126764
)
;

boundaryField
{
    inlet
    {
        type            calculated;
        value           uniform 0;
    }
    outlet
    {
        type            calculated;
        value           uniform 0;
    }
    sideWall
    {
        type            empty;
    }
}


// ************************************************************************* //
