/*--------------------------------*- C++ -*----------------------------------*\
| =========                 |                                                 |
| \\      /  F ield         | foam-extend: Open Source CFD                    |
|  \\    /   O peration     | Version:     3.2                                |
|   \\  /    A nd           | Web:         http://www.foam-extend.org         |
|    \\/     M anipulation  | For copyright notice see file Copyright         |
\*---------------------------------------------------------------------------*/
FoamFile
{
    version     2.0;
    format      ascii;
    class       areaScalarField;
    location    "160";
    object      tauCB;
}
// * * * * * * * * * * * * * * * * * * * * * * * * * * * * * * * * * * * * * //

dimensions      [1 1 2 0 0 0 0];

internalField   nonuniform List<scalar> 
300
(
2.35358
2.35358
2.35358
2.35358
2.35358
2.35358
2.35358
2.35358
2.35358
2.35358
2.35358
2.35358
2.35358
2.35358
2.35358
2.35358
2.35358
2.35358
2.35358
2.35358
2.35358
2.35358
2.35358
2.35358
2.35358
2.35358
2.35358
2.35358
2.35358
2.35358
2.35358
2.35358
2.35358
2.35358
2.35358
2.35358
2.35358
2.35358
2.35358
2.35358
2.35358
2.35358
2.35358
2.35358
2.35358
2.35358
2.35358
2.35358
2.35358
2.35358
2.35358
2.35358
2.35358
2.35358
2.35358
2.35358
2.35358
2.35358
2.35358
2.35358
2.35358
2.35358
2.35358
2.35358
2.35358
2.35358
2.35358
2.35358
2.35358
2.35358
2.35358
2.35358
2.35358
2.35358
2.35358
2.35358
2.35358
2.35358
2.35358
2.35358
2.35358
2.35358
2.35358
2.35358
2.35358
2.35358
2.35358
2.35358
2.35358
2.35358
2.35358
2.35358
2.35358
2.35358
2.35358
2.35358
2.35358
2.35358
2.35358
2.19344
2.35596
2.75823
3.01559
3.20636
3.42418
3.57095
3.73393
3.87243
3.97859
2.25453
2.27669
4.28474
4.39682
4.38148
2.3064
2.33365
2.25086
4.78779
4.58621
4.77178
2.29156
2.37744
2.265
5.01016
4.98224
4.79235
2.38163
2.33052
2.38793
4.90362
5.11288
2.29283
2.31285
5.19696
5.08969
4.91469
2.4114
2.34326
2.29351
5.10973
5.08259
5.12939
2.28354
2.37938
2.35487
5.16396
4.96627
5.10582
2.40528
2.32791
2.37049
4.9398
5.35634
4.8184
2.43826
2.43988
2.31375
4.89994
4.70818
4.90482
2.34338
2.44921
2.31999
2.3975
4.41608
4.4656
4.57474
2.30757
2.39693
4.39735
4.69518
4.32392
2.46106
2.29452
4.51992
4.53028
4.31329
2.35054
2.2593
2.42547
2.27416
4.69897
4.45767
2.37065
2.36744
2.2887
4.70545
4.62855
4.83739
2.35354
2.42935
4.50767
4.66805
2.31009
2.29296
4.71947
4.56897
4.6879
2.25642
2.43226
2.37721
2.33488
4.50724
4.61293
2.45136
2.31076
2.36445
4.3918
4.62127
4.46788
2.41694
2.42018
2.34927
4.58397
4.38313
4.64727
4.47172
2.41082
2.25724
4.67808
4.56397
2.34707
2.40951
2.35099
4.74296
4.43998
4.54739
2.26416
2.39149
2.29126
2.41912
4.45478
4.35095
4.66352
4.50032
2.39023
2.26865
4.54208
4.34356
2.36839
2.3118
2.34031
4.65683
4.73542
4.78481
2.33728
2.41307
2.28595
4.59588
4.38488
4.7237
2.29132
2.33975
2.34459
4.53228
4.72861
4.57402
2.4832
2.3351
2.50132
4.18711
4.40456
2.28016
2.38278
4.31205
4.52575
4.51352
2.3172
2.38609
4.244
4.50543
4.33805
2.49303
2.29326
4.51183
4.14153
4.34764
2.26277
2.35597
4.30867
4.64569
4.35556
2.39835
4.54054
4.2697
4.37983
4.02591
4.22913
4.12229
4.14932
3.9829
3.98247
3.75795
3.71638
3.40986
3.32422
2.70346
2.35358
2.35358
2.35358
)
;

boundaryField
{
    inlet
    {
        type            calculated;
        value           uniform 0;
    }
    outlet
    {
        type            calculated;
        value           uniform 0;
    }
    sideWall
    {
        type            empty;
    }
}


// ************************************************************************* //
