/*--------------------------------*- C++ -*----------------------------------*\
| =========                 |                                                 |
| \\      /  F ield         | foam-extend: Open Source CFD                    |
|  \\    /   O peration     | Version:     3.2                                |
|   \\  /    A nd           | Web:         http://www.foam-extend.org         |
|    \\/     M anipulation  | For copyright notice see file Copyright         |
\*---------------------------------------------------------------------------*/
FoamFile
{
    version     2.0;
    format      ascii;
    class       volScalarField;
    location    "160";
    object      testS;
}
// * * * * * * * * * * * * * * * * * * * * * * * * * * * * * * * * * * * * * //

dimensions      [0 0 0 0 0 0 0];

internalField   uniform 0;

boundaryField
{
    inlet
    {
        type            calculated;
        value           uniform 0;
    }
    outlet
    {
        type            calculated;
        value           uniform 0;
    }
    sideWall
    {
        type            empty;
    }
    bed
    {
        type            calculated;
        value           nonuniform List<scalar> 
300
(
5.38824
3.82632
2.20717
1.64038
1.44168
1.34095
1.26953
1.20812
1.15248
1.10276
1.059
1.02039
0.985867
0.95541
0.928263
0.903826
0.881655
0.861365
0.842912
0.826212
0.810792
0.796408
0.782965
0.770427
0.758715
0.747699
0.737323
0.727517
0.718252
0.709525
0.70121
0.693336
0.685792
0.678638
0.671784
0.665279
0.659001
0.653022
0.647245
0.641725
0.636408
0.631303
0.62637
0.621626
0.617023
0.612611
0.608318
0.604205
0.600174
0.596321
0.59253
0.588909
0.58535
0.581944
0.578589
0.575373
0.572198
0.569166
0.566113
0.563242
0.560338
0.557634
0.554876
0.55233
0.549706
0.547318
0.544818
0.542582
0.540201
0.538116
0.535856
0.533926
0.531792
0.530027
0.528021
0.526436
0.524586
0.523195
0.521537
0.520373
0.51895
0.518059
0.516958
0.516392
0.515778
0.51558
0.5156
0.516026
0.51674
0.518181
0.520288
0.523007
0.52725
0.531983
0.540595
0.549509
0.569823
0.578125
0.69362
0.298208
0.106919
0.0959197
0.0999198
0.0925387
0.0961937
0.0929515
0.0923082
0.0954415
0.0932281
0.224142
0.246558
0.0941253
0.106804
0.0916202
0.258433
0.348922
0.21861
0.107005
0.0859291
0.0943178
0.251176
0.308962
0.250968
0.0887193
0.117236
0.0710519
0.281935
0.309197
0.303991
0.0883
0.0881722
0.288374
0.253977
0.0795384
0.109638
0.0803405
0.255724
0.380044
0.251868
0.0970062
0.102329
0.101385
0.261514
0.283134
0.339199
0.0875226
0.0950487
0.0862435
0.300945
0.298836
0.334337
0.070096
0.0549576
0.114271
0.216186
0.296693
0.28573
0.0864037
0.113266
0.0793377
0.387127
0.254658
0.357704
0.299038
0.13006
0.108008
0.125079
0.279023
0.318387
0.0929807
0.0924959
0.0965553
0.215847
0.322456
0.110479
0.133267
0.0911057
0.357215
0.213643
0.244979
0.261955
0.0944472
0.0941647
0.277818
0.352918
0.243267
0.111018
0.091848
0.0824535
0.354718
0.261255
0.11793
0.0994356
0.325688
0.231587
0.098908
0.114768
0.107974
0.241385
0.217465
0.349379
0.319313
0.106565
0.0993595
0.259684
0.321331
0.347544
0.0907157
0.109312
0.0869632
0.219437
0.285492
0.338108
0.12567
0.0884342
0.0999324
0.0995123
0.27126
0.244125
0.0921124
0.113347
0.280552
0.276079
0.3072
0.0849841
0.134654
0.11575
0.255469
0.271913
0.270375
0.234949
0.147748
0.0755395
0.0857866
0.127129
0.334273
0.248437
0.121777
0.0786745
0.269607
0.276685
0.27985
0.10751
0.0802766
0.0886708
0.331082
0.287476
0.262676
0.10931
0.083569
0.0787425
0.286787
0.278307
0.326892
0.0828803
0.0871125
0.102795
0.219316
0.309424
0.212302
0.115037
0.11738
0.25421
0.273754
0.0990159
0.0881679
0.109869
0.276159
0.314943
0.0853339
0.101586
0.0879611
0.197975
0.270164
0.0849418
0.106321
0.119934
0.221687
0.293678
0.0759833
0.0669541
0.114225
0.194842
0.0822428
0.113576
0.0885099
0.118859
0.0856943
0.103091
0.0863336
0.100363
0.0872834
0.0993688
0.0910682
0.101006
0.1008
0.305977
0.544545
0.410026
0.36612
)
;
    }
    topWall
    {
        type            calculated;
        value           uniform 0;
    }
}


// ************************************************************************* //
