/*--------------------------------*- C++ -*----------------------------------*\
| =========                 |                                                 |
| \\      /  F ield         | foam-extend: Open Source CFD                    |
|  \\    /   O peration     | Version:     3.2                                |
|   \\  /    A nd           | Web:         http://www.foam-extend.org         |
|    \\/     M anipulation  | For copyright notice see file Copyright         |
\*---------------------------------------------------------------------------*/
FoamFile
{
    version     2.0;
    format      ascii;
    class       areaScalarField;
    location    "160";
    object      thetaSS2init;
}
// * * * * * * * * * * * * * * * * * * * * * * * * * * * * * * * * * * * * * //

dimensions      [0 0 0 0 0 0 0];

internalField   nonuniform List<scalar> 
300
(
13.5108
10.7597
7.46437
6.12937
5.62611
5.36218
5.17106
5.0038
4.84983
4.71012
4.58541
4.47393
4.37307
4.28309
4.20211
4.12851
4.06118
3.99903
3.94213
3.89023
3.84205
3.79677
3.75425
3.71434
3.6769
3.64146
3.60798
3.57613
3.54598
3.51738
3.4901
3.46409
3.43915
3.41534
3.39254
3.37073
3.34972
3.32954
3.31009
3.29134
3.27334
3.25591
3.23912
3.22282
3.20708
3.19183
3.1771
3.16281
3.14892
3.13546
3.12234
3.10962
3.09726
3.08523
3.07353
3.06211
3.051
3.04011
3.02945
3.01905
3.00888
2.99898
2.98931
2.97986
2.97063
2.96163
2.95283
2.94421
2.93578
2.92754
2.91948
2.91159
2.90388
2.89632
2.88891
2.88169
2.87461
2.86768
2.86092
2.8543
2.84785
2.84154
2.83541
2.82943
2.82365
2.81803
2.81268
2.80747
2.80261
2.79799
2.79377
2.79003
2.78679
2.78457
2.78318
2.78346
2.78863
2.79008
2.84828
2.7901
2.57001
2.58076
2.6646
2.67247
2.67621
2.67403
2.67185
2.6678
2.66315
2.6601
2.65695
2.65152
2.6466
2.64217
2.63762
2.63326
2.62888
2.62459
2.62032
2.61607
2.61188
2.60772
2.60362
2.59953
2.59549
2.59148
2.58752
2.58358
2.57967
2.57581
2.57198
2.56819
2.5644
2.56067
2.55694
2.55324
2.54957
2.54594
2.54234
2.53877
2.53525
2.53177
2.52835
2.52496
2.52162
2.51831
2.51506
2.51185
2.50866
2.50551
2.50238
2.49926
2.49615
2.49307
2.49
2.48696
2.48394
2.48095
2.47799
2.47505
2.47211
2.46921
2.46632
2.46346
2.46062
2.45781
2.45502
2.45225
2.4495
2.44678
2.44407
2.44139
2.43873
2.43608
2.43346
2.43085
2.42825
2.42568
2.42312
2.42058
2.41806
2.41554
2.41306
2.41059
2.40813
2.40569
2.40328
2.40088
2.39849
2.39611
2.39376
2.39142
2.38909
2.38679
2.38449
2.38222
2.37996
2.37771
2.37548
2.37327
2.37106
2.36886
2.36668
2.36451
2.36236
2.36022
2.35809
2.35597
2.35386
2.35178
2.34969
2.34762
2.34557
2.34353
2.34151
2.33949
2.33749
2.33549
2.33351
2.33154
2.32957
2.32762
2.32567
2.32375
2.32183
2.31992
2.31801
2.31613
2.31426
2.3124
2.31054
2.3087
2.30685
2.30501
2.30318
2.30137
2.29956
2.29776
2.29597
2.2942
2.29243
2.2907
2.28895
2.28722
2.28549
2.28377
2.28205
2.28034
2.27863
2.27693
2.27524
2.27356
2.27189
2.27023
2.26857
2.26693
2.26529
2.26366
2.26203
2.26041
2.2588
2.25719
2.25559
2.25399
2.2524
2.25081
2.24924
2.24765
2.2461
2.24451
2.24298
2.24139
2.23987
2.23827
2.23674
2.23511
2.23357
2.2319
2.23031
2.22858
2.22693
2.22511
2.22333
2.22141
2.21951
2.21722
2.21368
2.21155
2.20843
2.20542
2.20083
2.19611
2.18883
2.18265
2.1579
2.18897
2.27214
2.2708
2.24003
2.23778
)
;

boundaryField
{
    inlet
    {
        type            calculated;
        value           uniform 0;
    }
    outlet
    {
        type            calculated;
        value           uniform 0;
    }
    sideWall
    {
        type            empty;
    }
}


// ************************************************************************* //
