/*--------------------------------*- C++ -*----------------------------------*\
| =========                 |                                                 |
| \\      /  F ield         | foam-extend: Open Source CFD                    |
|  \\    /   O peration     | Version:     3.2                                |
|   \\  /    A nd           | Web:         http://www.foam-extend.org         |
|    \\/     M anipulation  | For copyright notice see file Copyright         |
\*---------------------------------------------------------------------------*/
FoamFile
{
    version     2.0;
    format      ascii;
    class       areaScalarField;
    location    "160";
    object      thetaCSS2;
}
// * * * * * * * * * * * * * * * * * * * * * * * * * * * * * * * * * * * * * //

dimensions      [0 0 0 0 0 0 0];

internalField   nonuniform List<scalar> 
300
(
0.032144
0.032144
0.032144
0.032144
0.032144
0.032144
0.032144
0.032144
0.032144
0.032144
0.032144
0.032144
0.032144
0.032144
0.032144
0.032144
0.032144
0.032144
0.032144
0.032144
0.032144
0.032144
0.032144
0.032144
0.032144
0.032144
0.032144
0.032144
0.032144
0.032144
0.032144
0.032144
0.032144
0.032144
0.032144
0.032144
0.032144
0.032144
0.032144
0.032144
0.032144
0.032144
0.032144
0.032144
0.032144
0.032144
0.032144
0.032144
0.032144
0.032144
0.032144
0.032144
0.032144
0.032144
0.032144
0.032144
0.032144
0.032144
0.032144
0.032144
0.032144
0.032144
0.032144
0.032144
0.032144
0.032144
0.032144
0.032144
0.032144
0.032144
0.032144
0.032144
0.032144
0.032144
0.032144
0.032144
0.032144
0.032144
0.032144
0.032144
0.032144
0.032144
0.032144
0.032144
0.032144
0.032144
0.032144
0.032144
0.032144
0.032144
0.032144
0.032144
0.032144
0.032144
0.032144
0.032144
0.032144
0.032144
0.032144
0.0299568
0.0321764
0.0376705
0.0411853
0.0437907
0.0467657
0.0487701
0.0509959
0.0528875
0.0543374
0.0307911
0.0310938
0.0585186
0.0600494
0.0598399
0.0314995
0.0318717
0.030741
0.0653891
0.062636
0.0651703
0.0312969
0.0324697
0.0309342
0.068426
0.0680448
0.0654514
0.032527
0.0318289
0.032613
0.066971
0.069829
0.0313143
0.0315877
0.0709773
0.0695123
0.0671222
0.0329336
0.0320029
0.0313235
0.0697859
0.0694152
0.0700544
0.0311873
0.0324963
0.0321615
0.0705265
0.0678266
0.0697326
0.03285
0.0317934
0.0323749
0.0674651
0.073154
0.0658072
0.0333005
0.0333225
0.0316
0.0669208
0.0643017
0.0669874
0.0320046
0.03345
0.0316852
0.0327438
0.0603125
0.0609887
0.0624794
0.0315155
0.0327359
0.0600566
0.0641242
0.0590538
0.0336118
0.0313373
0.0617306
0.0618721
0.0589086
0.0321025
0.0308563
0.0331258
0.0310592
0.0641759
0.0608804
0.032377
0.0323332
0.0312579
0.0642645
0.0632142
0.0660664
0.0321434
0.0331788
0.0615633
0.0637536
0.0315499
0.0313159
0.0644559
0.0624005
0.0640248
0.030817
0.0332185
0.0324666
0.0318886
0.0615574
0.0630008
0.0334793
0.0315591
0.0322923
0.0599808
0.0631149
0.0610199
0.0330093
0.0330535
0.0320851
0.0626054
0.0598624
0.0634699
0.0610723
0.0329257
0.0308281
0.0638906
0.0623322
0.032055
0.0329078
0.0321085
0.0647767
0.0606388
0.0621058
0.0309227
0.0326617
0.0312928
0.0330391
0.0608409
0.0594228
0.0636918
0.0614629
0.0326444
0.030984
0.0620332
0.0593219
0.0323462
0.0315733
0.0319627
0.0636005
0.0646738
0.0653483
0.0319213
0.0329564
0.0312202
0.062768
0.0598863
0.0645137
0.0312936
0.0319551
0.0320211
0.0618994
0.0645808
0.0624695
0.0339141
0.0318916
0.0341617
0.0571853
0.0601551
0.0311412
0.0325427
0.0588916
0.0618103
0.0616432
0.031647
0.0325879
0.0579623
0.0615327
0.0592467
0.0340485
0.0313201
0.0616201
0.0565627
0.0593776
0.0309037
0.0321765
0.0588455
0.0634484
0.0594859
0.0327553
0.0620123
0.0583133
0.0598173
0.0549837
0.0577592
0.0563
0.0566691
0.0543963
0.0543904
0.0513241
0.0507563
0.04657
0.0454003
0.0369224
0.032144
0.032144
0.032144
)
;

boundaryField
{
    inlet
    {
        type            calculated;
        value           uniform 0;
    }
    outlet
    {
        type            calculated;
        value           uniform 0;
    }
    sideWall
    {
        type            empty;
    }
}


// ************************************************************************* //
