/*--------------------------------*- C++ -*----------------------------------*\
| =========                 |                                                 |
| \\      /  F ield         | foam-extend: Open Source CFD                    |
|  \\    /   O peration     | Version:     3.2                                |
|   \\  /    A nd           | Web:         http://www.foam-extend.org         |
|    \\/     M anipulation  | For copyright notice see file Copyright         |
\*---------------------------------------------------------------------------*/
FoamFile
{
    version     2.0;
    format      ascii;
    class       areaScalarField;
    location    "160";
    object      thetaSS1init;
}
// * * * * * * * * * * * * * * * * * * * * * * * * * * * * * * * * * * * * * //

dimensions      [0 0 0 0 0 0 0];

internalField   nonuniform List<scalar> 
300
(
27.0486
21.5408
14.9436
12.271
11.2634
10.7351
10.3524
10.0176
9.70933
9.42962
9.17996
8.95678
8.75486
8.57472
8.41259
8.26524
8.13045
8.00603
7.89212
7.7882
7.69175
7.6011
7.51599
7.43607
7.36112
7.29017
7.22314
7.15939
7.09901
7.04177
6.98716
6.93508
6.88516
6.83749
6.79183
6.74818
6.70611
6.66571
6.62677
6.58924
6.55321
6.5183
6.48469
6.45205
6.42056
6.39002
6.36053
6.33192
6.3041
6.27716
6.2509
6.22544
6.20069
6.17662
6.15319
6.13032
6.10808
6.08628
6.06494
6.04411
6.02376
6.00394
5.98457
5.96565
5.94719
5.92916
5.91154
5.89429
5.87742
5.86091
5.84477
5.82898
5.81353
5.7984
5.78358
5.76912
5.75494
5.74108
5.72754
5.71428
5.70138
5.68873
5.67646
5.6645
5.65293
5.64168
5.63096
5.62054
5.6108
5.60155
5.5931
5.58563
5.57914
5.57469
5.57189
5.57247
5.58281
5.58572
5.70224
5.58576
5.14515
5.16666
5.3345
5.35027
5.35774
5.35338
5.34902
5.34091
5.3316
5.32549
5.3192
5.30833
5.29847
5.2896
5.28049
5.27176
5.263
5.2544
5.24586
5.23735
5.22896
5.22064
5.21242
5.20424
5.19615
5.18813
5.1802
5.1723
5.16448
5.15675
5.14909
5.14149
5.13391
5.12644
5.11897
5.11156
5.10422
5.09694
5.08974
5.0826
5.07555
5.06858
5.06173
5.05494
5.04826
5.04164
5.03513
5.0287
5.02232
5.01601
5.00974
5.0035
4.99728
4.9911
4.98497
4.97888
4.97284
4.96684
4.96092
4.95502
4.94914
4.94333
4.93756
4.93183
4.92614
4.92052
4.91493
4.90938
4.90388
4.89843
4.89301
4.88765
4.88231
4.87702
4.87176
4.86653
4.86135
4.85619
4.85107
4.84597
4.84093
4.8359
4.83093
4.82598
4.82106
4.81618
4.81134
4.80655
4.80176
4.797
4.79229
4.78761
4.78294
4.77832
4.77374
4.76919
4.76467
4.76017
4.7557
4.75126
4.74684
4.74245
4.73808
4.73374
4.72943
4.72514
4.72088
4.71664
4.71242
4.70824
4.70406
4.69992
4.69582
4.69174
4.68768
4.68365
4.67963
4.67564
4.67167
4.66773
4.66379
4.65988
4.65598
4.65213
4.64828
4.64446
4.64064
4.63688
4.63312
4.6294
4.62569
4.62199
4.61829
4.61462
4.61095
4.60732
4.60369
4.60009
4.59651
4.59297
4.58943
4.58595
4.58246
4.579
4.57554
4.57209
4.56865
4.56522
4.56181
4.5584
4.55501
4.55165
4.5483
4.54499
4.54166
4.53838
4.53509
4.53183
4.52856
4.52532
4.5221
4.51887
4.51568
4.51247
4.5093
4.5061
4.50296
4.49978
4.49667
4.49349
4.49042
4.48725
4.4842
4.48099
4.47794
4.47468
4.47158
4.46824
4.46506
4.46159
4.45829
4.45465
4.45109
4.44724
4.44345
4.43886
4.43176
4.4275
4.42125
4.41522
4.40604
4.3966
4.38203
4.36964
4.32009
4.38231
4.54881
4.54613
4.48452
4.48002
)
;

boundaryField
{
    inlet
    {
        type            calculated;
        value           uniform 0;
    }
    outlet
    {
        type            calculated;
        value           uniform 0;
    }
    sideWall
    {
        type            empty;
    }
}


// ************************************************************************* //
