/*--------------------------------*- C++ -*----------------------------------*\
| =========                 |                                                 |
| \\      /  F ield         | foam-extend: Open Source CFD                    |
|  \\    /   O peration     | Version:     3.2                                |
|   \\  /    A nd           | Web:         http://www.foam-extend.org         |
|    \\/     M anipulation  | For copyright notice see file Copyright         |
\*---------------------------------------------------------------------------*/
FoamFile
{
    version     2.0;
    format      ascii;
    class       areaScalarField;
    location    "160";
    object      thetaSS2;
}
// * * * * * * * * * * * * * * * * * * * * * * * * * * * * * * * * * * * * * //

dimensions      [0 0 0 0 0 0 0];

internalField   nonuniform List<scalar> 
300
(
13.5108
10.7597
7.46437
6.12937
5.62609
5.36218
5.17104
5.0038
4.84982
4.71013
4.5854
4.47394
4.37307
4.2831
4.20211
4.12851
4.06117
3.99905
3.94212
3.89024
3.84203
3.79678
3.75424
3.71435
3.67689
3.64148
3.60797
3.57615
3.54596
3.51741
3.49009
3.46412
3.43914
3.41537
3.39253
3.37077
3.3497
3.32958
3.31007
3.29138
3.27333
3.25595
3.23911
3.22287
3.20708
3.1919
3.1771
3.16289
3.14893
3.13556
3.12237
3.10975
3.09732
3.0854
3.07363
3.06234
3.05116
3.04047
3.02969
3.01953
3.00924
2.99963
2.98983
2.98076
2.9714
2.96287
2.95392
2.94591
2.93736
2.92987
2.92174
2.91479
2.90709
2.90071
2.89346
2.88772
2.88101
2.87597
2.86995
2.86572
2.86054
2.8573
2.85329
2.85122
2.84898
2.84826
2.84834
2.84989
2.85249
2.85774
2.86541
2.87529
2.89067
2.90778
2.93878
2.97069
3.04279
3.07252
3.46564
3.22965
1.97431
1.86056
1.95496
1.94556
1.9911
2.00894
2.00511
2.05284
2.06158
2.04256
2.09034
2.08332
2.16163
2.14559
2.03011
2.32087
2.01913
2.20816
2.19128
2.09002
2.05334
2.2043
2.15694
2.03727
2.39074
2.01227
2.10555
2.15753
2.25751
2.17
2.19697
2.24146
1.97785
2.17625
2.4207
2.0886
2.16618
2.39198
2.04868
2.14881
2.1535
2.35675
2.14099
2.09656
2.17139
2.24881
2.23385
2.02891
2.36763
2.12301
2.26911
1.84314
2.29128
2.40258
2.09521
2.58902
2.12991
2.27774
2.1383
2.45512
2.41872
2.40025
2.43422
2.30227
2.39682
2.08454
2.42839
2.12669
2.39408
2.06822
2.39112
2.21485
2.21959
2.40324
2.10439
2.51803
2.11777
2.25681
1.96015
2.19198
2.18124
2.15107
2.1992
2.01168
2.32705
2.02158
2.14474
2.00009
2.20073
2.2271
2.3129
2.29233
2.22835
2.34156
1.94171
2.24784
2.15499
2.39161
2.1337
2.06761
2.39083
2.18087
2.15366
1.97723
2.44523
2.31651
2.27924
2.13392
2.11703
2.07864
1.9927
2.39002
2.17956
2.41887
2.08686
2.16727
2.12039
2.24669
2.14672
2.01571
2.19319
1.94138
2.26585
2.03666
2.37344
2.31955
2.39897
2.18538
2.12168
2.15538
2.09586
2.43422
1.8818
2.12822
2.2353
2.42073
2.12877
2.20824
2.05357
1.95598
2.09589
1.97369
2.05259
1.92523
2.41183
2.21782
2.35042
2.137
2.22769
2.02603
2.11443
2.23958
1.96995
2.16076
1.85908
2.15354
1.97468
2.37061
2.13221
2.42132
2.35487
2.13729
2.11563
2.07249
2.11309
1.95371
2.37874
2.06709
2.29693
1.97824
2.13517
1.87305
2.26829
2.1439
2.22077
2.23011
2.05787
1.99647
1.97994
1.8354
1.95395
2.1017
1.7458
2.28395
2.06463
2.30964
2.12954
1.95127
2.0279
2.12714
2.09538
2.26762
2.1689
2.45575
2.27069
2.98836
3.82341
2.95339
2.44914
2.27269
)
;

boundaryField
{
    inlet
    {
        type            calculated;
        value           uniform 0;
    }
    outlet
    {
        type            calculated;
        value           uniform 0;
    }
    sideWall
    {
        type            empty;
    }
}


// ************************************************************************* //
