/*--------------------------------*- C++ -*----------------------------------*\
| =========                 |                                                 |
| \\      /  F ield         | foam-extend: Open Source CFD                    |
|  \\    /   O peration     | Version:     3.2                                |
|   \\  /    A nd           | Web:         http://www.foam-extend.org         |
|    \\/     M anipulation  | For copyright notice see file Copyright         |
\*---------------------------------------------------------------------------*/
FoamFile
{
    version     2.0;
    format      ascii;
    class       areaScalarField;
    location    "160";
    object      thetaSS1;
}
// * * * * * * * * * * * * * * * * * * * * * * * * * * * * * * * * * * * * * //

dimensions      [0 0 0 0 0 0 0];

internalField   nonuniform List<scalar> 
300
(
27.0486
21.5408
14.9436
12.2709
11.2634
10.735
10.3524
10.0176
9.70931
9.42964
9.17994
8.9568
8.75485
8.57474
8.41258
8.26525
8.13043
8.00606
7.89209
7.78823
7.69172
7.60113
7.51597
7.43611
7.36111
7.29022
7.22313
7.15943
7.09899
7.04182
6.98712
6.93513
6.88513
6.83755
6.79181
6.74825
6.70608
6.66579
6.62674
6.58932
6.55318
6.51839
6.48467
6.45217
6.42055
6.39016
6.36053
6.33208
6.30413
6.27736
6.25096
6.22569
6.20081
6.17694
6.15339
6.13077
6.1084
6.087
6.06541
6.04507
6.02447
6.00524
5.98561
5.96745
5.94871
5.93163
5.91372
5.89768
5.88058
5.86558
5.8493
5.83538
5.81996
5.8072
5.79268
5.78119
5.76777
5.75767
5.74561
5.73715
5.72678
5.72029
5.71226
5.70813
5.70364
5.7022
5.70235
5.70546
5.71067
5.72117
5.73652
5.7563
5.78709
5.82135
5.88341
5.9473
6.09164
6.15117
6.93819
6.46573
3.95255
3.72483
3.91381
3.895
3.98616
4.02188
4.01421
4.10976
4.12727
4.08919
4.18485
4.1708
4.32756
4.29545
4.06427
4.64637
4.04229
4.42072
4.38692
4.1842
4.11078
4.41299
4.31818
4.07861
4.78624
4.02855
4.2153
4.31935
4.51952
4.34433
4.39832
4.48738
3.95964
4.35684
4.84623
4.18136
4.33668
4.78872
4.10145
4.3019
4.31128
4.7182
4.28624
4.1973
4.34711
4.50211
4.47214
4.06186
4.73997
4.25025
4.54273
3.68996
4.58712
4.80995
4.19459
5.18319
4.26407
4.56001
4.28086
4.91512
4.84225
4.80528
4.8733
4.60913
4.79841
4.17323
4.86162
4.25761
4.79292
4.14056
4.78701
4.43412
4.44361
4.81128
4.21297
5.04107
4.23975
4.51812
3.92421
4.38833
4.36682
4.30643
4.40278
4.02736
4.65875
4.04718
4.29374
4.00415
4.40585
4.45863
4.6304
4.58922
4.46114
4.68779
3.88729
4.50016
4.31427
4.78798
4.27166
4.13933
4.78642
4.36608
4.31162
3.95841
4.89534
4.63764
4.56301
4.2721
4.23828
4.16142
3.98937
4.7848
4.36347
4.84256
4.17788
4.33886
4.24501
4.49786
4.29772
4.03544
4.39076
3.88663
4.53622
4.07738
4.75161
4.64373
4.80272
4.37511
4.24758
4.31505
4.1959
4.87329
3.76735
4.26067
4.47505
4.84628
4.26177
4.42088
4.11122
3.91585
4.19595
3.9513
4.10926
3.85429
4.82846
4.44006
4.70553
4.27826
4.45981
4.0561
4.23307
4.48362
3.94383
4.32583
3.72187
4.31137
3.95329
4.74595
4.26866
4.84746
4.71442
4.27883
4.23548
4.14911
4.23039
3.9113
4.76223
4.1383
4.59844
3.96042
4.2746
3.74984
4.5411
4.29208
4.44597
4.46466
4.11985
3.99692
3.96382
3.67446
3.91179
4.20759
3.49508
4.57244
4.13337
4.62388
4.26333
3.90643
4.05984
4.25851
4.19494
4.53977
4.34213
4.91638
4.54591
5.98267
7.65443
5.91265
4.90316
4.5499
)
;

boundaryField
{
    inlet
    {
        type            calculated;
        value           uniform 0;
    }
    outlet
    {
        type            calculated;
        value           uniform 0;
    }
    sideWall
    {
        type            empty;
    }
}


// ************************************************************************* //
