/*--------------------------------*- C++ -*----------------------------------*\
| =========                 |                                                 |
| \\      /  F ield         | foam-extend: Open Source CFD                    |
|  \\    /   O peration     | Version:     3.2                                |
|   \\  /    A nd           | Web:         http://www.foam-extend.org         |
|    \\/     M anipulation  | For copyright notice see file Copyright         |
\*---------------------------------------------------------------------------*/
FoamFile
{
    version     2.0;
    format      ascii;
    class       areaScalarField;
    location    "160";
    object      thetaC2SS1;
}
// * * * * * * * * * * * * * * * * * * * * * * * * * * * * * * * * * * * * * //

dimensions      [0 0 0 0 0 0 0];

internalField   nonuniform List<scalar> 
300
(
0.0551061
0.0551061
0.0551061
0.0551061
0.0551061
0.0551061
0.0551061
0.0551061
0.0551061
0.0551061
0.0551061
0.0551061
0.0551061
0.0551061
0.0551061
0.0551061
0.0551061
0.0551061
0.0551061
0.0551061
0.0551061
0.0551061
0.0551061
0.0551061
0.0551061
0.0551061
0.0551061
0.0551061
0.0551061
0.0551061
0.0551061
0.0551061
0.0551061
0.0551061
0.0551061
0.0551061
0.0551061
0.0551061
0.0551061
0.0551061
0.0551061
0.0551061
0.0551061
0.0551061
0.0551061
0.0551061
0.0551061
0.0551061
0.0551061
0.0551061
0.0551061
0.0551061
0.0551061
0.0551061
0.0551061
0.0551061
0.0551061
0.0551061
0.0551061
0.0551061
0.0551061
0.0551061
0.0551061
0.0551061
0.0551061
0.0551061
0.0551061
0.0551061
0.0551061
0.0551061
0.0551061
0.0551061
0.0551061
0.0551061
0.0551061
0.0551061
0.0551061
0.0551061
0.0551061
0.0551061
0.0551061
0.0551061
0.0551061
0.0551061
0.0551061
0.0551061
0.0551061
0.0551061
0.0551061
0.0551061
0.0551061
0.0551061
0.0551061
0.0551061
0.0551061
0.0551061
0.0551061
0.0551061
0.0551061
0.0581978
0.0653764
0.0722649
0.0773798
0.0818965
0.0858554
0.0893026
0.0924348
0.0951216
0.097574
0.0551061
0.0551061
0.103615
0.104982
0.106475
0.0551061
0.0551061
0.0551061
0.111044
0.111854
0.11329
0.0551061
0.0551061
0.0551061
0.116297
0.115884
0.116742
0.0551061
0.0551061
0.0551061
0.117482
0.117607
0.0551061
0.0551061
0.118769
0.117792
0.11818
0.0551061
0.0551061
0.0551061
0.119015
0.118837
0.118418
0.0551061
0.0551061
0.0551061
0.118444
0.118351
0.118607
0.0551061
0.0551061
0.0551061
0.117919
0.116284
0.114539
0.0551061
0.0551061
0.0551061
0.111007
0.110057
0.108394
0.0551061
0.0551061
0.0551061
0.0551061
0.104961
0.105634
0.105494
0.0551061
0.0551061
0.105869
0.10545
0.105334
0.0551061
0.0551061
0.105029
0.10439
0.104966
0.0551061
0.0551061
0.0551061
0.0551061
0.107764
0.108125
0.0551061
0.0551061
0.0551061
0.109702
0.109978
0.109418
0.0551061
0.0551061
0.107122
0.106916
0.0551061
0.0551061
0.108075
0.107634
0.107136
0.0551061
0.0551061
0.0551061
0.0551061
0.107156
0.107414
0.0551061
0.0551061
0.0551061
0.106709
0.107504
0.10822
0.0551061
0.0551061
0.0551061
0.105848
0.106423
0.10689
0.106975
0.0551061
0.0551061
0.10804
0.107936
0.0551061
0.0551061
0.0551061
0.105773
0.104576
0.104128
0.0551061
0.0551061
0.0551061
0.0551061
0.104686
0.105765
0.105909
0.104969
0.0551061
0.0551061
0.105817
0.107001
0.0551061
0.0551061
0.0551061
0.109299
0.108867
0.107129
0.0551061
0.0551061
0.0551061
0.106026
0.106611
0.106575
0.0551061
0.0551061
0.0551061
0.107938
0.107609
0.106739
0.0551061
0.0551061
0.0551061
0.101585
0.102299
0.0551061
0.0551061
0.103813
0.104051
0.102797
0.0551061
0.0551061
0.103085
0.10354
0.103541
0.0551061
0.0551061
0.100927
0.100629
0.101529
0.0551061
0.0551061
0.104349
0.103985
0.103002
0.0551061
0.100736
0.0989543
0.0971736
0.0962112
0.0958621
0.0943505
0.0923022
0.0898466
0.0867844
0.0831746
0.0786797
0.073322
0.0656369
0.057748
0.0551061
0.0551061
0.0551061
)
;

boundaryField
{
    inlet
    {
        type            calculated;
        value           uniform 0;
    }
    outlet
    {
        type            calculated;
        value           uniform 0;
    }
    sideWall
    {
        type            empty;
    }
}


// ************************************************************************* //
