/*--------------------------------*- C++ -*----------------------------------*\
| =========                 |                                                 |
| \\      /  F ield         | foam-extend: Open Source CFD                    |
|  \\    /   O peration     | Version:     3.2                                |
|   \\  /    A nd           | Web:         http://www.foam-extend.org         |
|    \\/     M anipulation  | For copyright notice see file Copyright         |
\*---------------------------------------------------------------------------*/
FoamFile
{
    version     2.0;
    format      ascii;
    class       areaScalarField;
    location    "160";
    object      thetaB;
}
// * * * * * * * * * * * * * * * * * * * * * * * * * * * * * * * * * * * * * //

dimensions      [0 0 0 0 0 0 0];

internalField   nonuniform List<scalar> 
300
(
0.990735
0.788995
0.547354
0.44946
0.412555
0.393202
0.379187
0.366923
0.355632
0.345388
0.336243
0.328069
0.320672
0.314075
0.308136
0.302739
0.297801
0.293246
0.289071
0.285267
0.281732
0.278414
0.275295
0.272369
0.269623
0.267026
0.264568
0.262235
0.260022
0.257927
0.255924
0.25402
0.252188
0.250446
0.24877
0.247175
0.24563
0.244154
0.242724
0.241353
0.24003
0.238755
0.23752
0.23633
0.235172
0.234059
0.232973
0.231931
0.230907
0.229927
0.22896
0.228034
0.227123
0.226249
0.225386
0.224558
0.223738
0.222954
0.222163
0.221419
0.220664
0.21996
0.219241
0.218576
0.217889
0.217264
0.216608
0.21602
0.215394
0.214844
0.214248
0.213738
0.213173
0.212706
0.212174
0.211753
0.211262
0.210892
0.21045
0.21014
0.20976
0.209522
0.209228
0.209077
0.208913
0.20886
0.208865
0.208979
0.20917
0.209555
0.210117
0.210842
0.211969
0.213224
0.215497
0.217838
0.223124
0.225305
0.254132
0.236826
0.144774
0.136433
0.143355
0.142666
0.146005
0.147313
0.147032
0.150532
0.151173
0.149779
0.153282
0.152768
0.15851
0.157334
0.148866
0.170187
0.148061
0.161922
0.160684
0.153259
0.150569
0.161639
0.158166
0.149391
0.17531
0.147558
0.154398
0.158209
0.165541
0.159124
0.161102
0.164364
0.145033
0.159582
0.177507
0.153155
0.158844
0.175401
0.150228
0.15757
0.157913
0.172818
0.156996
0.153739
0.159226
0.164903
0.163806
0.148778
0.173616
0.155678
0.166391
0.135156
0.168017
0.176179
0.153639
0.18985
0.156184
0.167024
0.156799
0.180031
0.177362
0.176008
0.178499
0.168823
0.175756
0.152857
0.178071
0.155948
0.175555
0.15166
0.175338
0.162413
0.16276
0.176227
0.154313
0.184644
0.155294
0.16549
0.143736
0.160735
0.159948
0.157736
0.161265
0.147514
0.17064
0.14824
0.157271
0.146664
0.161377
0.16331
0.169602
0.168094
0.163402
0.171704
0.142384
0.164832
0.158023
0.175374
0.156462
0.151615
0.175317
0.159921
0.157926
0.144988
0.179306
0.169867
0.167134
0.156478
0.15524
0.152424
0.146123
0.175258
0.159825
0.177373
0.153027
0.158924
0.155486
0.164748
0.157417
0.14781
0.160824
0.142359
0.166153
0.149346
0.174042
0.17009
0.175914
0.160251
0.15558
0.158052
0.153687
0.178499
0.13799
0.15606
0.163912
0.17751
0.1561
0.161928
0.150586
0.14343
0.153689
0.144728
0.150514
0.141175
0.176857
0.16263
0.172354
0.156704
0.163354
0.148567
0.155049
0.164226
0.144455
0.158446
0.136324
0.157917
0.144801
0.173834
0.156352
0.177553
0.17268
0.156725
0.155137
0.151973
0.154951
0.143263
0.174431
0.151578
0.168431
0.145062
0.15657
0.137349
0.166331
0.15721
0.162847
0.163531
0.150902
0.146399
0.145187
0.134588
0.143281
0.154115
0.128018
0.167479
0.151397
0.169363
0.156157
0.143085
0.148704
0.15598
0.153652
0.166282
0.159043
0.180077
0.166507
0.219133
0.280366
0.216569
0.179593
0.166654
)
;

boundaryField
{
    inlet
    {
        type            calculated;
        value           uniform 0;
    }
    outlet
    {
        type            calculated;
        value           uniform 0;
    }
    sideWall
    {
        type            empty;
    }
}


// ************************************************************************* //
