/*--------------------------------*- C++ -*----------------------------------*\
| =========                 |                                                 |
| \\      /  F ield         | foam-extend: Open Source CFD                    |
|  \\    /   O peration     | Version:     3.2                                |
|   \\  /    A nd           | Web:         http://www.foam-extend.org         |
|    \\/     M anipulation  | For copyright notice see file Copyright         |
\*---------------------------------------------------------------------------*/
FoamFile
{
    version     2.0;
    format      ascii;
    class       areaScalarField;
    location    "160";
    object      thetaC2B;
}
// * * * * * * * * * * * * * * * * * * * * * * * * * * * * * * * * * * * * * //

dimensions      [0 0 0 0 0 0 0];

internalField   nonuniform List<scalar> 
300
(
0.0497301
0.0497301
0.0497301
0.0497301
0.0497301
0.0497301
0.0497301
0.0497301
0.0497301
0.0497301
0.0497301
0.0497301
0.0497301
0.0497301
0.0497301
0.0497301
0.0497301
0.0497301
0.0497301
0.0497301
0.0497301
0.0497301
0.0497301
0.0497301
0.0497301
0.0497301
0.0497301
0.0497301
0.0497301
0.0497301
0.0497301
0.0497301
0.0497301
0.0497301
0.0497301
0.0497301
0.0497301
0.0497301
0.0497301
0.0497301
0.0497301
0.0497301
0.0497301
0.0497301
0.0497301
0.0497301
0.0497301
0.0497301
0.0497301
0.0497301
0.0497301
0.0497301
0.0497301
0.0497301
0.0497301
0.0497301
0.0497301
0.0497301
0.0497301
0.0497301
0.0497301
0.0497301
0.0497301
0.0497301
0.0497301
0.0497301
0.0497301
0.0497301
0.0497301
0.0497301
0.0497301
0.0497301
0.0497301
0.0497301
0.0497301
0.0497301
0.0497301
0.0497301
0.0497301
0.0497301
0.0497301
0.0497301
0.0497301
0.0497301
0.0497301
0.0497301
0.0497301
0.0497301
0.0497301
0.0497301
0.0497301
0.0497301
0.0497301
0.0497301
0.0497301
0.0497301
0.0497301
0.0497301
0.0497301
0.0525203
0.0589986
0.065215
0.0698309
0.073907
0.0774797
0.0805906
0.0834173
0.0858419
0.0880551
0.0497301
0.0497301
0.0935064
0.0947402
0.0960873
0.0497301
0.0497301
0.0497301
0.100211
0.100942
0.102238
0.0497301
0.0497301
0.0497301
0.104951
0.104579
0.105353
0.0497301
0.0497301
0.0497301
0.106021
0.106134
0.0497301
0.0497301
0.107182
0.106301
0.106651
0.0497301
0.0497301
0.0497301
0.107405
0.107244
0.106865
0.0497301
0.0497301
0.0497301
0.106889
0.106805
0.107036
0.0497301
0.0497301
0.0497301
0.106415
0.10494
0.103365
0.0497301
0.0497301
0.0497301
0.100178
0.0993202
0.0978193
0.0497301
0.0497301
0.0497301
0.0497301
0.0947217
0.0953288
0.0952028
0.0497301
0.0497301
0.0955404
0.0951631
0.0950584
0.0497301
0.0497301
0.0947825
0.0942061
0.0947257
0.0497301
0.0497301
0.0497301
0.0497301
0.0972507
0.0975767
0.0497301
0.0497301
0.0497301
0.0989998
0.0992489
0.098744
0.0497301
0.0497301
0.0966714
0.0964858
0.0497301
0.0497301
0.097532
0.0971333
0.0966839
0.0497301
0.0497301
0.0497301
0.0497301
0.0967024
0.0969353
0.0497301
0.0497301
0.0497301
0.0962988
0.0970167
0.0976629
0.0497301
0.0497301
0.0497301
0.0955218
0.0960407
0.0964627
0.0965392
0.0497301
0.0497301
0.0975005
0.0974064
0.0497301
0.0497301
0.0497301
0.0954539
0.0943743
0.0939696
0.0497301
0.0497301
0.0497301
0.0497301
0.0944728
0.0954473
0.0955771
0.0947285
0.0497301
0.0497301
0.0954943
0.0965625
0.0497301
0.0497301
0.0497301
0.0986363
0.0982467
0.0966775
0.0497301
0.0497301
0.0497301
0.0956826
0.0962105
0.0961777
0.0497301
0.0497301
0.0497301
0.0974076
0.0971109
0.096326
0.0497301
0.0497301
0.0497301
0.0916748
0.0923194
0.0497301
0.0497301
0.0936854
0.0939001
0.0927689
0.0497301
0.0497301
0.0930288
0.0934386
0.0934402
0.0497301
0.0497301
0.0910805
0.0908123
0.0916246
0.0497301
0.0497301
0.0941687
0.0938409
0.0929532
0.0497301
0.0909086
0.0893007
0.0876937
0.0868252
0.0865101
0.085146
0.0832975
0.0810815
0.078318
0.0750604
0.071004
0.066169
0.0592336
0.0521143
0.0497301
0.0497301
0.0497301
)
;

boundaryField
{
    inlet
    {
        type            calculated;
        value           uniform 0;
    }
    outlet
    {
        type            calculated;
        value           uniform 0;
    }
    sideWall
    {
        type            empty;
    }
}


// ************************************************************************* //
