/*--------------------------------*- C++ -*----------------------------------*\
| =========                 |                                                 |
| \\      /  F ield         | foam-extend: Open Source CFD                    |
|  \\    /   O peration     | Version:     3.2                                |
|   \\  /    A nd           | Web:         http://www.foam-extend.org         |
|    \\/     M anipulation  | For copyright notice see file Copyright         |
\*---------------------------------------------------------------------------*/
FoamFile
{
    version     2.0;
    format      ascii;
    class       areaScalarField;
    location    "160";
    object      thetaBinit;
}
// * * * * * * * * * * * * * * * * * * * * * * * * * * * * * * * * * * * * * //

dimensions      [0 0 0 0 0 0 0];

internalField   nonuniform List<scalar> 
300
(
0.990735
0.788995
0.547354
0.44946
0.412556
0.393203
0.379188
0.366923
0.355633
0.345388
0.336243
0.328069
0.320673
0.314075
0.308136
0.302739
0.297802
0.293245
0.289072
0.285266
0.281733
0.278413
0.275295
0.272368
0.269623
0.267024
0.264569
0.262234
0.260022
0.257926
0.255925
0.254018
0.252189
0.250443
0.248771
0.247172
0.245631
0.244152
0.242725
0.241351
0.240031
0.238752
0.237521
0.236326
0.235172
0.234054
0.232973
0.231925
0.230906
0.22992
0.228958
0.228025
0.227119
0.226237
0.225379
0.224541
0.223726
0.222928
0.222146
0.221384
0.220638
0.219912
0.219203
0.21851
0.217833
0.217173
0.216528
0.215896
0.215278
0.214673
0.214082
0.213504
0.212938
0.212384
0.211841
0.211311
0.210792
0.210284
0.209788
0.209302
0.20883
0.208367
0.207917
0.207479
0.207055
0.206643
0.206251
0.205869
0.205512
0.205173
0.204864
0.20459
0.204353
0.20419
0.204087
0.204108
0.204487
0.204593
0.208861
0.204595
0.188456
0.189244
0.195392
0.195969
0.196243
0.196083
0.195924
0.195627
0.195286
0.195062
0.194831
0.194433
0.194072
0.193747
0.193414
0.193094
0.192773
0.192458
0.192145
0.191834
0.191526
0.191221
0.19092
0.190621
0.190324
0.190031
0.18974
0.189451
0.189164
0.188881
0.188601
0.188322
0.188045
0.187771
0.187497
0.187226
0.186957
0.186691
0.186427
0.186165
0.185907
0.185652
0.185401
0.185152
0.184907
0.184665
0.184427
0.184191
0.183958
0.183726
0.183497
0.183268
0.18304
0.182814
0.182589
0.182366
0.182145
0.181925
0.181708
0.181492
0.181277
0.181064
0.180853
0.180643
0.180434
0.180229
0.180024
0.179821
0.179619
0.179419
0.179221
0.179025
0.178829
0.178635
0.178443
0.178251
0.178061
0.177872
0.177685
0.177498
0.177314
0.177129
0.176947
0.176766
0.176586
0.176407
0.17623
0.176054
0.175879
0.175704
0.175532
0.17536
0.175189
0.17502
0.174852
0.174686
0.17452
0.174355
0.174191
0.174029
0.173867
0.173706
0.173546
0.173387
0.173229
0.173072
0.172916
0.172761
0.172606
0.172453
0.1723
0.172149
0.171998
0.171849
0.1717
0.171552
0.171405
0.171259
0.171114
0.170969
0.170825
0.170682
0.170539
0.170398
0.170257
0.170117
0.169977
0.16984
0.169702
0.169566
0.16943
0.169294
0.169158
0.169024
0.16889
0.168757
0.168624
0.168492
0.168361
0.168231
0.168101
0.167974
0.167846
0.16772
0.167593
0.167466
0.16734
0.167215
0.16709
0.166965
0.166841
0.166718
0.166595
0.166474
0.166352
0.166232
0.166111
0.165992
0.165872
0.165753
0.165635
0.165517
0.1654
0.165282
0.165166
0.165049
0.164934
0.164818
0.164704
0.164587
0.164475
0.164359
0.164247
0.16413
0.164018
0.163898
0.163785
0.163663
0.163546
0.163419
0.163298
0.163165
0.163035
0.162893
0.162754
0.162586
0.162327
0.16217
0.161942
0.161721
0.161384
0.161039
0.160505
0.160051
0.158236
0.160515
0.166614
0.166516
0.164259
0.164094
)
;

boundaryField
{
    inlet
    {
        type            calculated;
        value           uniform 0;
    }
    outlet
    {
        type            calculated;
        value           uniform 0;
    }
    sideWall
    {
        type            empty;
    }
}


// ************************************************************************* //
