/*--------------------------------*- C++ -*----------------------------------*\
| =========                 |                                                 |
| \\      /  F ield         | foam-extend: Open Source CFD                    |
|  \\    /   O peration     | Version:     3.2                                |
|   \\  /    A nd           | Web:         http://www.foam-extend.org         |
|    \\/     M anipulation  | For copyright notice see file Copyright         |
\*---------------------------------------------------------------------------*/
FoamFile
{
    version     2.0;
    format      ascii;
    class       areaScalarField;
    location    "160";
    object      thetaC2SS2;
}
// * * * * * * * * * * * * * * * * * * * * * * * * * * * * * * * * * * * * * //

dimensions      [0 0 0 0 0 0 0];

internalField   nonuniform List<scalar> 
300
(
0.032144
0.032144
0.032144
0.032144
0.032144
0.032144
0.032144
0.032144
0.032144
0.032144
0.032144
0.032144
0.032144
0.032144
0.032144
0.032144
0.032144
0.032144
0.032144
0.032144
0.032144
0.032144
0.032144
0.032144
0.032144
0.032144
0.032144
0.032144
0.032144
0.032144
0.032144
0.032144
0.032144
0.032144
0.032144
0.032144
0.032144
0.032144
0.032144
0.032144
0.032144
0.032144
0.032144
0.032144
0.032144
0.032144
0.032144
0.032144
0.032144
0.032144
0.032144
0.032144
0.032144
0.032144
0.032144
0.032144
0.032144
0.032144
0.032144
0.032144
0.032144
0.032144
0.032144
0.032144
0.032144
0.032144
0.032144
0.032144
0.032144
0.032144
0.032144
0.032144
0.032144
0.032144
0.032144
0.032144
0.032144
0.032144
0.032144
0.032144
0.032144
0.032144
0.032144
0.032144
0.032144
0.032144
0.032144
0.032144
0.032144
0.032144
0.032144
0.032144
0.032144
0.032144
0.032144
0.032144
0.032144
0.032144
0.032144
0.0339474
0.0381348
0.0421529
0.0451365
0.0477711
0.0500804
0.0520912
0.0539183
0.0554855
0.056916
0.032144
0.032144
0.0604395
0.061237
0.0621078
0.032144
0.032144
0.032144
0.0647733
0.0652458
0.0660836
0.032144
0.032144
0.032144
0.067837
0.0675967
0.0680967
0.032144
0.032144
0.032144
0.0685285
0.0686016
0.032144
0.032144
0.069279
0.0687093
0.0689357
0.032144
0.032144
0.032144
0.0694229
0.0693191
0.0690743
0.032144
0.032144
0.032144
0.0690896
0.0690356
0.0691848
0.032144
0.032144
0.032144
0.0687835
0.0678299
0.0668121
0.032144
0.032144
0.032144
0.0647517
0.0641974
0.0632273
0.032144
0.032144
0.032144
0.032144
0.0612251
0.0616175
0.0615361
0.032144
0.032144
0.0617543
0.0615104
0.0614427
0.032144
0.032144
0.0612644
0.0608918
0.0612277
0.032144
0.032144
0.032144
0.032144
0.0628597
0.0630704
0.032144
0.032144
0.032144
0.0639903
0.0641513
0.063825
0.032144
0.032144
0.0624853
0.0623653
0.032144
0.032144
0.0630416
0.0627839
0.0624934
0.032144
0.032144
0.032144
0.032144
0.0625054
0.0626559
0.032144
0.032144
0.032144
0.0622445
0.0627085
0.0631262
0.032144
0.032144
0.032144
0.0617422
0.0620777
0.0623504
0.0623999
0.032144
0.032144
0.0630212
0.0629604
0.032144
0.032144
0.032144
0.0616984
0.0610005
0.0607389
0.032144
0.032144
0.032144
0.032144
0.0610642
0.0616941
0.061778
0.0612295
0.032144
0.032144
0.0617244
0.0624149
0.032144
0.032144
0.032144
0.0637554
0.0635035
0.0624892
0.032144
0.032144
0.032144
0.0618462
0.0621874
0.0621662
0.032144
0.032144
0.032144
0.0629611
0.0627694
0.062262
0.032144
0.032144
0.032144
0.0592557
0.0596723
0.032144
0.032144
0.0605553
0.060694
0.0599628
0.032144
0.032144
0.0601309
0.0603957
0.0603968
0.032144
0.032144
0.0588716
0.0586982
0.0592232
0.032144
0.032144
0.0608676
0.0606558
0.060082
0.032144
0.0587604
0.0577211
0.0566824
0.0561211
0.0559174
0.0550357
0.0538409
0.0524085
0.0506223
0.0485166
0.0458947
0.0427695
0.0382867
0.033685
0.032144
0.032144
0.032144
)
;

boundaryField
{
    inlet
    {
        type            calculated;
        value           uniform 0;
    }
    outlet
    {
        type            calculated;
        value           uniform 0;
    }
    sideWall
    {
        type            empty;
    }
}


// ************************************************************************* //
