/*--------------------------------*- C++ -*----------------------------------*\
| =========                 |                                                 |
| \\      /  F ield         | foam-extend: Open Source CFD                    |
|  \\    /   O peration     | Version:     3.2                                |
|   \\  /    A nd           | Web:         http://www.foam-extend.org         |
|    \\/     M anipulation  | For copyright notice see file Copyright         |
\*---------------------------------------------------------------------------*/
FoamFile
{
    version     2.0;
    format      ascii;
    class       areaScalarField;
    location    "160";
    object      thetaCSS1;
}
// * * * * * * * * * * * * * * * * * * * * * * * * * * * * * * * * * * * * * //

dimensions      [0 0 0 0 0 0 0];

internalField   nonuniform List<scalar> 
300
(
0.0551061
0.0551061
0.0551061
0.0551061
0.0551061
0.0551061
0.0551061
0.0551061
0.0551061
0.0551061
0.0551061
0.0551061
0.0551061
0.0551061
0.0551061
0.0551061
0.0551061
0.0551061
0.0551061
0.0551061
0.0551061
0.0551061
0.0551061
0.0551061
0.0551061
0.0551061
0.0551061
0.0551061
0.0551061
0.0551061
0.0551061
0.0551061
0.0551061
0.0551061
0.0551061
0.0551061
0.0551061
0.0551061
0.0551061
0.0551061
0.0551061
0.0551061
0.0551061
0.0551061
0.0551061
0.0551061
0.0551061
0.0551061
0.0551061
0.0551061
0.0551061
0.0551061
0.0551061
0.0551061
0.0551061
0.0551061
0.0551061
0.0551061
0.0551061
0.0551061
0.0551061
0.0551061
0.0551061
0.0551061
0.0551061
0.0551061
0.0551061
0.0551061
0.0551061
0.0551061
0.0551061
0.0551061
0.0551061
0.0551061
0.0551061
0.0551061
0.0551061
0.0551061
0.0551061
0.0551061
0.0551061
0.0551061
0.0551061
0.0551061
0.0551061
0.0551061
0.0551061
0.0551061
0.0551061
0.0551061
0.0551061
0.0551061
0.0551061
0.0551061
0.0551061
0.0551061
0.0551061
0.0551061
0.0551061
0.0513564
0.0551616
0.0645804
0.0706061
0.0750726
0.0801728
0.0836091
0.087425
0.0906678
0.0931535
0.0527868
0.0533057
0.100322
0.102946
0.102587
0.0540012
0.0546393
0.0527009
0.1121
0.10738
0.111725
0.0536539
0.0556646
0.053032
0.117306
0.116653
0.112207
0.0557627
0.054566
0.0559102
0.114812
0.119711
0.0536837
0.0541524
0.12168
0.119168
0.115071
0.0564597
0.0548643
0.0536995
0.119638
0.119002
0.120098
0.053466
0.0557101
0.0551362
0.120907
0.116279
0.119546
0.0563164
0.0545051
0.055502
0.115659
0.125412
0.112817
0.0570887
0.0571265
0.0541735
0.114726
0.110236
0.11484
0.0548672
0.057345
0.0543196
0.0561344
0.103397
0.104556
0.107112
0.0540287
0.0561209
0.102958
0.109931
0.101239
0.0576224
0.0537231
0.105828
0.106071
0.10099
0.0550349
0.0528986
0.0567892
0.0532464
0.11002
0.10437
0.0555056
0.0554305
0.053587
0.110172
0.108371
0.113261
0.0551051
0.0568801
0.105541
0.109296
0.0540877
0.0536865
0.1105
0.106976
0.109761
0.0528311
0.0569482
0.0556592
0.0546682
0.105531
0.108006
0.0573953
0.0541034
0.0553604
0.102828
0.108201
0.10461
0.0565895
0.0566653
0.0550051
0.107328
0.102625
0.10881
0.104699
0.0564462
0.0528502
0.109531
0.106859
0.0549536
0.0564155
0.0550452
0.11105
0.103956
0.106471
0.0530124
0.0559937
0.0536469
0.0566406
0.104303
0.101872
0.10919
0.105369
0.055964
0.0531175
0.106347
0.101699
0.0554528
0.0541278
0.0547953
0.109034
0.110874
0.11203
0.0547243
0.0564989
0.0535225
0.107607
0.102666
0.110599
0.0536482
0.0547822
0.0548954
0.106117
0.110714
0.107095
0.0581408
0.0546734
0.0585651
0.0980357
0.103127
0.0533869
0.0557896
0.100961
0.105965
0.105678
0.0542541
0.0558672
0.0993677
0.105489
0.10157
0.0583711
0.0536937
0.105638
0.0969684
0.101794
0.0529798
0.0551619
0.100882
0.108773
0.10198
0.0561541
0.106311
0.0999695
0.102548
0.0942615
0.0990196
0.096518
0.0971508
0.0932544
0.0932443
0.0879875
0.0870142
0.0798374
0.0778321
0.0632979
0.0551061
0.0551061
0.0551061
)
;

boundaryField
{
    inlet
    {
        type            calculated;
        value           uniform 0;
    }
    outlet
    {
        type            calculated;
        value           uniform 0;
    }
    sideWall
    {
        type            empty;
    }
}


// ************************************************************************* //
