/*--------------------------------*- C++ -*----------------------------------*\
| =========                 |                                                 |
| \\      /  F ield         | foam-extend: Open Source CFD                    |
|  \\    /   O peration     | Version:     3.2                                |
|   \\  /    A nd           | Web:         http://www.foam-extend.org         |
|    \\/     M anipulation  | For copyright notice see file Copyright         |
\*---------------------------------------------------------------------------*/
FoamFile
{
    version     2.0;
    format      ascii;
    class       areaScalarField;
    location    "160";
    object      thetaCB;
}
// * * * * * * * * * * * * * * * * * * * * * * * * * * * * * * * * * * * * * //

dimensions      [0 0 0 0 0 0 0];

internalField   nonuniform List<scalar> 
300
(
0.0497301
0.0497301
0.0497301
0.0497301
0.0497301
0.0497301
0.0497301
0.0497301
0.0497301
0.0497301
0.0497301
0.0497301
0.0497301
0.0497301
0.0497301
0.0497301
0.0497301
0.0497301
0.0497301
0.0497301
0.0497301
0.0497301
0.0497301
0.0497301
0.0497301
0.0497301
0.0497301
0.0497301
0.0497301
0.0497301
0.0497301
0.0497301
0.0497301
0.0497301
0.0497301
0.0497301
0.0497301
0.0497301
0.0497301
0.0497301
0.0497301
0.0497301
0.0497301
0.0497301
0.0497301
0.0497301
0.0497301
0.0497301
0.0497301
0.0497301
0.0497301
0.0497301
0.0497301
0.0497301
0.0497301
0.0497301
0.0497301
0.0497301
0.0497301
0.0497301
0.0497301
0.0497301
0.0497301
0.0497301
0.0497301
0.0497301
0.0497301
0.0497301
0.0497301
0.0497301
0.0497301
0.0497301
0.0497301
0.0497301
0.0497301
0.0497301
0.0497301
0.0497301
0.0497301
0.0497301
0.0497301
0.0497301
0.0497301
0.0497301
0.0497301
0.0497301
0.0497301
0.0497301
0.0497301
0.0497301
0.0497301
0.0497301
0.0497301
0.0497301
0.0497301
0.0497301
0.0497301
0.0497301
0.0497301
0.0463463
0.0497802
0.0582802
0.0637181
0.0677488
0.0723514
0.0754525
0.0788961
0.0818226
0.0840658
0.0476371
0.0481054
0.0905346
0.0929028
0.0925786
0.0487331
0.0493089
0.0475596
0.101164
0.0969045
0.100825
0.0484196
0.0502341
0.0478584
0.105862
0.105273
0.10126
0.0503227
0.0492427
0.0504558
0.103611
0.108033
0.0484465
0.0488695
0.109809
0.107543
0.103845
0.0509517
0.0495119
0.0484608
0.107966
0.107393
0.108382
0.04825
0.0502753
0.0497573
0.109112
0.104935
0.107884
0.0508224
0.0491877
0.0500874
0.104376
0.113177
0.101811
0.0515194
0.0515535
0.0488885
0.103534
0.0994816
0.103637
0.0495146
0.0517506
0.0490204
0.0506581
0.0933098
0.094356
0.0966622
0.0487578
0.0506459
0.0929139
0.0992069
0.0913625
0.052001
0.0484821
0.0955038
0.0957227
0.0911378
0.0496659
0.047738
0.0512491
0.0480519
0.099287
0.0941885
0.0500907
0.0500229
0.0483592
0.099424
0.0977991
0.102212
0.0497292
0.0513311
0.0952449
0.0986336
0.0488111
0.0484491
0.0997201
0.0965402
0.0990531
0.0476771
0.0513925
0.0502293
0.049335
0.0952359
0.097469
0.051796
0.0488253
0.0499597
0.0927966
0.0976454
0.0944043
0.0510688
0.0511372
0.049639
0.0968572
0.0926135
0.0981947
0.0944853
0.0509395
0.0476944
0.0988456
0.0964346
0.0495925
0.0509118
0.0496752
0.100216
0.0938146
0.0960843
0.0478407
0.0505311
0.0484133
0.051115
0.0941274
0.0919334
0.0985379
0.0950896
0.0505043
0.0479356
0.095972
0.0917773
0.050043
0.0488473
0.0494497
0.0983967
0.100057
0.101101
0.0493856
0.0509871
0.048301
0.0971088
0.0926504
0.0998096
0.0484145
0.0494379
0.04954
0.0957649
0.0999134
0.096647
0.0524688
0.0493397
0.0528517
0.0884717
0.0930663
0.0481787
0.0503469
0.0911115
0.0956271
0.0953685
0.0489613
0.050417
0.0896738
0.0951976
0.091661
0.0526766
0.0484555
0.0953328
0.0875086
0.0918635
0.0478113
0.0497805
0.0910402
0.0981613
0.092031
0.050676
0.0959395
0.0902168
0.0925437
0.0850657
0.0893596
0.0871021
0.0876732
0.0841568
0.0841478
0.0794038
0.0785254
0.0720488
0.0702391
0.0571228
0.0497301
0.0497301
0.0497301
)
;

boundaryField
{
    inlet
    {
        type            calculated;
        value           uniform 0;
    }
    outlet
    {
        type            calculated;
        value           uniform 0;
    }
    sideWall
    {
        type            empty;
    }
}


// ************************************************************************* //
