/*--------------------------------*- C++ -*----------------------------------*\
| =========                 |                                                 |
| \\      /  F ield         | foam-extend: Open Source CFD                    |
|  \\    /   O peration     | Version:     3.2                                |
|   \\  /    A nd           | Web:         http://www.foam-extend.org         |
|    \\/     M anipulation  | For copyright notice see file Copyright         |
\*---------------------------------------------------------------------------*/
FoamFile
{
    version     2.0;
    format      ascii;
    class       areaScalarField;
    location    "160";
    object      totH;
}
// * * * * * * * * * * * * * * * * * * * * * * * * * * * * * * * * * * * * * //

dimensions      [0 0 0 0 0 0 0];

internalField   nonuniform List<scalar> 
300
(
0
0
0
0
0
0
0
0
0
0
0
0
0
0
0
0
0
0
0
0
0
0
0
0
0
0
0
0
0
0
0
0
0
0
0
0
0
0
0
0
0
0
0
0
0
0
0
0
0
0
0
0
0
0
0
0
0
0
0
0
0
0
0
0
0
0
0
0
0
0
0
0
0
0
0
0
0
0
0
0
0
0
0
0
0
0
0
0
0
0
0
0
0
0
0
0
0
0
0
-0.00187018
-0.0062125
-0.0103793
-0.0134733
-0.0162054
-0.0186001
-0.0206853
-0.02258
-0.0242052
-0.0256886
-0.0270964
-0.028302
-0.0293425
-0.0301696
-0.0310725
-0.031986
-0.0324479
-0.0332884
-0.0338367
-0.0343267
-0.0351954
-0.0358453
-0.0361062
-0.0365481
-0.0370138
-0.0367645
-0.037283
-0.0377152
-0.0376801
-0.0376011
-0.0377308
-0.0378066
-0.037932
-0.0386294
-0.0385091
-0.0379183
-0.0381531
-0.038177
-0.0378469
-0.0383307
-0.0386583
-0.0385506
-0.0382968
-0.0385463
-0.0388485
-0.038661
-0.0383127
-0.0382567
-0.0384114
-0.0379239
-0.0377421
-0.037802
-0.0379953
-0.0370064
-0.0359509
-0.0356053
-0.0344152
-0.0340886
-0.0338143
-0.0332395
-0.0322335
-0.0313242
-0.0307284
-0.0302934
-0.0302201
-0.0301572
-0.0305641
-0.0304797
-0.0305462
-0.0305621
-0.0307059
-0.0304531
-0.0303828
-0.03026
-0.0299161
-0.0301979
-0.0298116
-0.0301599
-0.0307917
-0.0314584
-0.0316045
-0.0316494
-0.0318523
-0.0320708
-0.0325131
-0.0322993
-0.032649
-0.0330247
-0.0331917
-0.0328532
-0.0322784
-0.0317518
-0.031464
-0.0313396
-0.0312753
-0.0319908
-0.0320409
-0.0317736
-0.0314724
-0.0317374
-0.0318555
-0.0311448
-0.0311102
-0.0314848
-0.0316409
-0.03087
-0.0304832
-0.0307027
-0.0312143
-0.0316955
-0.0321286
-0.0322271
-0.0313244
-0.0308915
-0.0306934
-0.0310413
-0.0313241
-0.0313754
-0.0313223
-0.0315848
-0.0320197
-0.0319567
-0.0321634
-0.0318202
-0.03145
-0.030648
-0.0299243
-0.029653
-0.0298982
-0.0302483
-0.0304136
-0.0303863
-0.0299904
-0.0306436
-0.0307306
-0.0301617
-0.0298459
-0.0301742
-0.030675
-0.031391
-0.0320861
-0.0322711
-0.0326501
-0.0327811
-0.0325199
-0.0314681
-0.0308293
-0.0305287
-0.03058
-0.0308012
-0.0311551
-0.0311331
-0.0309419
-0.0314649
-0.0316223
-0.0319575
-0.0317586
-0.0312325
-0.0302721
-0.0294934
-0.0285859
-0.0281149
-0.028547
-0.028919
-0.0292207
-0.0294625
-0.0296064
-0.0288482
-0.0286405
-0.0286658
-0.0290225
-0.0292971
-0.0292982
-0.0286305
-0.0280689
-0.0277166
-0.0275368
-0.0280812
-0.028661
-0.0292667
-0.0297865
-0.0295668
-0.0289718
-0.0288223
-0.0276013
-0.0265236
-0.0254464
-0.0248643
-0.0246531
-0.0237387
-0.0224997
-0.0210143
-0.019162
-0.0169785
-0.0142596
-0.0110187
-0.00637005
-0.00159808
0
0
0
)
;

boundaryField
{
    inlet
    {
        type            calculated;
        value           uniform 0;
    }
    outlet
    {
        type            calculated;
        value           uniform 0;
    }
    sideWall
    {
        type            empty;
    }
}


// ************************************************************************* //
