/*--------------------------------*- C++ -*----------------------------------*\
| =========                 |                                                 |
| \\      /  F ield         | foam-extend: Open Source CFD                    |
|  \\    /   O peration     | Version:     3.2                                |
|   \\  /    A nd           | Web:         http://www.foam-extend.org         |
|    \\/     M anipulation  | For copyright notice see file Copyright         |
\*---------------------------------------------------------------------------*/
FoamFile
{
    version     2.0;
    format      ascii;
    class       areaScalarField;
    location    "160";
    object      totH1;
}
// * * * * * * * * * * * * * * * * * * * * * * * * * * * * * * * * * * * * * //

dimensions      [0 0 0 0 0 0 0];

internalField   nonuniform List<scalar> 
300
(
0
0
0
0
0
0
0
0
0
0
0
0
0
0
0
0
0
0
0
0
0
0
0
0
0
0
0
0
0
0
0
0
0
0
0
0
0
0
0
0
0
0
0
0
0
0
0
0
0
0
0
0
0
0
0
0
0
0
0
0
0
0
0
0
0
0
0
0
0
0
0
0
0
0
0
0
0
0
0
0
0
0
0
0
0
0
0
0
0
0
0
0
0
0
0
0
0
0
0
-0.00186958
-0.0062106
-0.0103762
-0.0134692
-0.0162008
-0.0185949
-0.0206797
-0.0225741
-0.0241988
-0.0256856
-0.0271003
-0.0283027
-0.0293257
-0.0301466
-0.0310676
-0.0320022
-0.0324715
-0.0332966
-0.0338185
-0.034304
-0.0351925
-0.0358636
-0.0361313
-0.0365553
-0.0369904
-0.0367379
-0.0372822
-0.0377349
-0.0377027
-0.0376076
-0.0377108
-0.0377871
-0.0379479
-0.0386492
-0.0384889
-0.0378887
-0.0381502
-0.0381965
-0.0378755
-0.0383435
-0.0386361
-0.0385141
-0.0382871
-0.0385725
-0.0388785
-0.0386658
-0.0382921
-0.0382303
-0.0384005
-0.0379405
-0.0377731
-0.0378154
-0.0379744
-0.0369738
-0.0359427
-0.0356253
-0.0344436
-0.0341019
-0.0337959
-0.0332044
-0.0322182
-0.031342
-0.0307563
-0.0303098
-0.0302234
-0.0301429
-0.030539
-0.0304724
-0.0305674
-0.0305822
-0.0306941
-0.0304291
-0.0303801
-0.0302801
-0.0299327
-0.0301833
-0.0297867
-0.0301542
-0.0308011
-0.0314797
-0.0316269
-0.0316546
-0.0318367
-0.0320554
-0.0325219
-0.0323231
-0.03266
-0.0330101
-0.033165
-0.0328397
-0.0322893
-0.031767
-0.0314526
-0.0313226
-0.031292
-0.0320136
-0.032026
-0.0317408
-0.0314666
-0.0317626
-0.0318793
-0.0311551
-0.0311149
-0.0314713
-0.0316163
-0.0308728
-0.0305102
-0.0307171
-0.0312031
-0.0316765
-0.0321249
-0.0322409
-0.0313414
-0.030895
-0.0306794
-0.0310235
-0.0313117
-0.0313719
-0.0313397
-0.0316072
-0.0320133
-0.0319403
-0.032172
-0.0318406
-0.031451
-0.030621
-0.0298925
-0.0296423
-0.0299074
-0.0302704
-0.0304365
-0.0303909
-0.0299791
-0.0306276
-0.0307099
-0.0301475
-0.0298603
-0.0301982
-0.0306737
-0.0313816
-0.0320973
-0.0322936
-0.0326592
-0.0327641
-0.0324876
-0.0314511
-0.0308435
-0.0305555
-0.0305917
-0.0307905
-0.031135
-0.0311254
-0.0309596
-0.0314922
-0.0316326
-0.0319432
-0.0317333
-0.0312188
-0.0302833
-0.0295133
-0.0285903
-0.0281023
-0.0285378
-0.028933
-0.0292395
-0.029454
-0.0295795
-0.028837
-0.028657
-0.0286859
-0.0290196
-0.0292796
-0.029289
-0.0286408
-0.0280828
-0.027708
-0.0275171
-0.0280785
-0.0286798
-0.0292849
-0.0297797
-0.0295479
-0.0289679
-0.0288278
-0.027592
-0.0265018
-0.0254317
-0.0248566
-0.0246461
-0.0237325
-0.0224938
-0.0210088
-0.0191569
-0.0169739
-0.0142556
-0.0110156
-0.00636833
-0.00159766
0
0
0
)
;

boundaryField
{
    inlet
    {
        type            calculated;
        value           uniform 0;
    }
    outlet
    {
        type            calculated;
        value           uniform 0;
    }
    sideWall
    {
        type            empty;
    }
}


// ************************************************************************* //
