/*--------------------------------*- C++ -*----------------------------------*\
| =========                 |                                                 |
| \\      /  F ield         | foam-extend: Open Source CFD                    |
|  \\    /   O peration     | Version:     3.2                                |
|   \\  /    A nd           | Web:         http://www.foam-extend.org         |
|    \\/     M anipulation  | For copyright notice see file Copyright         |
\*---------------------------------------------------------------------------*/
FoamFile
{
    version     2.0;
    format      ascii;
    class       areaScalarField;
    location    "160";
    object      tVolA;
}
// * * * * * * * * * * * * * * * * * * * * * * * * * * * * * * * * * * * * * //

dimensions      [0 3 0 0 0 0 0];

internalField   nonuniform List<scalar> 
300
(
0
0
0
0
0
0
0
0
0
0
0
0
0
0
0
0
0
0
0
0
0
0
0
0
0
0
0
0
0
0
0
0
0
0
0
0
0
0
0
0
0
0
0
0
0
0
0
0
0
0
0
0
0
0
0
0
0
0
0
0
0
0
0
0
0
0
0
0
0
0
0
0
0
0
0
0
0
0
0
0
0
0
0
0
0
0
0
0
0
0
0
0
0
0
0
0
0
0
0
0
4.71672e-05
4.61794e-05
4.68121e-05
4.5999e-05
4.69243e-05
4.58216e-05
4.70032e-05
4.57673e-05
4.6948e-05
4.57717e-05
4.63967e-05
4.61244e-05
4.61536e-05
4.6005e-05
4.58741e-05
4.57845e-05
4.44828e-05
4.53312e-05
4.39636e-05
4.41102e-05
4.32991e-05
4.36766e-05
4.35464e-05
4.20794e-05
4.42886e-05
4.17012e-05
4.24534e-05
4.14122e-05
4.36502e-05
4.22814e-05
4.21427e-05
4.28781e-05
3.99305e-05
4.18685e-05
4.28344e-05
4.23974e-05
4.15156e-05
4.29853e-05
4.10497e-05
4.16368e-05
4.10233e-05
4.17864e-05
4.20367e-05
3.99066e-05
4.22442e-05
4.045e-05
4.29382e-05
4.0895e-05
4.30377e-05
4.12106e-05
4.20141e-05
4.24033e-05
4.1745e-05
4.57712e-05
4.20861e-05
4.83111e-05
4.55887e-05
4.74964e-05
4.80318e-05
4.86357e-05
5.0404e-05
4.93273e-05
5.14276e-05
4.96237e-05
5.24147e-05
4.90331e-05
5.13604e-05
4.93763e-05
5.02517e-05
4.86541e-05
4.91642e-05
4.90226e-05
4.88775e-05
5.00236e-05
4.85819e-05
5.03629e-05
4.76749e-05
5.06653e-05
4.60764e-05
4.80753e-05
4.62353e-05
4.72134e-05
4.75048e-05
4.41966e-05
4.84204e-05
4.45895e-05
4.70938e-05
4.43632e-05
4.69524e-05
4.60365e-05
4.76706e-05
4.79932e-05
4.70864e-05
4.95112e-05
4.53896e-05
4.84306e-05
4.69501e-05
4.7813e-05
4.73811e-05
4.55739e-05
4.86083e-05
4.64024e-05
4.81284e-05
4.60223e-05
4.97766e-05
4.75662e-05
4.86226e-05
4.64306e-05
4.66127e-05
4.65484e-05
4.57779e-05
4.83796e-05
4.6448e-05
4.95844e-05
4.58069e-05
4.75458e-05
4.53324e-05
4.64977e-05
4.73855e-05
4.40035e-05
4.82994e-05
4.50766e-05
4.80209e-05
4.68077e-05
4.82848e-05
4.85727e-05
4.82724e-05
4.80645e-05
4.73199e-05
4.86996e-05
4.69938e-05
4.93413e-05
4.66034e-05
4.84625e-05
4.73885e-05
4.91201e-05
4.68858e-05
4.71847e-05
4.59807e-05
4.39206e-05
4.65611e-05
4.38258e-05
4.62696e-05
4.39314e-05
4.79173e-05
4.6133e-05
4.84847e-05
4.65574e-05
4.70316e-05
4.69451e-05
4.47955e-05
4.84454e-05
4.36503e-05
4.89259e-05
4.52703e-05
4.71989e-05
4.71408e-05
4.75855e-05
4.85233e-05
4.85877e-05
4.99313e-05
4.65537e-05
4.96111e-05
4.61458e-05
4.99469e-05
4.6304e-05
5.09435e-05
4.70886e-05
5.07868e-05
4.60134e-05
4.84842e-05
4.61344e-05
4.77503e-05
4.76369e-05
4.64562e-05
4.8829e-05
4.35884e-05
4.87196e-05
4.17632e-05
4.92941e-05
4.09663e-05
5.06514e-05
4.31595e-05
5.05953e-05
4.91914e-05
5.10412e-05
4.98417e-05
4.36047e-05
4.90832e-05
4.4076e-05
4.85317e-05
4.46653e-05
4.79265e-05
4.53847e-05
4.72832e-05
4.66902e-05
0
0
0
0
)
;

boundaryField
{
    inlet
    {
        type            calculated;
        value           uniform 0;
    }
    outlet
    {
        type            calculated;
        value           uniform 0;
    }
    sideWall
    {
        type            empty;
    }
}


// ************************************************************************* //
