/*--------------------------------*- C++ -*----------------------------------*\
| =========                 |                                                 |
| \\      /  F ield         | foam-extend: Open Source CFD                    |
|  \\    /   O peration     | Version:     3.2                                |
|   \\  /    A nd           | Web:         http://www.foam-extend.org         |
|    \\/     M anipulation  | For copyright notice see file Copyright         |
\*---------------------------------------------------------------------------*/
FoamFile
{
    version     2.0;
    format      ascii;
    class       areaScalarField;
    location    "160";
    object      tVolC;
}
// * * * * * * * * * * * * * * * * * * * * * * * * * * * * * * * * * * * * * //

dimensions      [0 3 0 0 0 0 0];

internalField   nonuniform List<scalar> 
300
(
0
0
0
0
0
0
0
0
0
0
0
0
0
0
0
0
0
0
0
0
0
0
0
0
0
0
0
0
0
0
0
0
0
0
0
0
0
0
0
0
0
0
0
0
0
0
0
0
0
0
0
0
0
0
0
0
0
0
0
0
0
0
0
0
0
0
0
0
0
0
0
0
0
0
0
0
0
0
0
0
0
0
0
0
0
0
0
0
0
0
0
0
0
0
0
0
0
0
0
0
4.70753e-05
4.36441e-05
3.98456e-05
3.79102e-05
3.45436e-05
3.35537e-05
3.04585e-05
3.00548e-05
2.73891e-05
2.71655e-05
2.53251e-05
2.45284e-05
2.36462e-05
2.29417e-05
2.21622e-05
2.18002e-05
2.227e-05
2.0805e-05
2.17009e-05
2.06959e-05
2.08858e-05
2.0251e-05
1.9939e-05
2.08747e-05
1.89055e-05
2.10459e-05
1.98511e-05
2.09415e-05
1.87596e-05
1.9972e-05
2.00117e-05
1.92296e-05
2.1489e-05
1.95884e-05
1.92067e-05
1.94669e-05
2.03297e-05
1.92091e-05
2.06462e-05
1.96785e-05
2.03725e-05
1.99071e-05
1.94678e-05
2.12849e-05
1.90988e-05
2.12158e-05
1.87772e-05
2.06795e-05
1.9063e-05
2.10938e-05
2.02008e-05
1.95827e-05
2.1281e-05
1.82791e-05
2.23499e-05
1.73278e-05
2.03463e-05
1.86841e-05
1.86779e-05
1.91652e-05
1.8297e-05
2.0008e-05
1.82909e-05
2.01702e-05
1.74178e-05
2.03658e-05
1.81539e-05
2.01118e-05
1.92285e-05
2.06281e-05
2.03709e-05
2.0621e-05
2.09127e-05
2.01075e-05
2.11929e-05
1.97894e-05
2.21951e-05
1.85425e-05
2.25181e-05
2.03598e-05
2.21395e-05
2.09194e-05
2.04136e-05
2.33064e-05
1.93132e-05
2.27873e-05
1.98633e-05
2.24113e-05
2.01973e-05
2.16972e-05
2.0627e-05
2.05257e-05
2.15416e-05
1.92498e-05
2.26727e-05
1.95078e-05
2.12293e-05
2.07152e-05
2.09465e-05
2.26144e-05
2.02477e-05
2.25033e-05
2.03795e-05
2.22894e-05
1.9387e-05
2.19987e-05
2.06886e-05
2.23614e-05
2.16597e-05
2.13408e-05
2.20195e-05
2.03328e-05
2.26641e-05
1.97066e-05
2.31474e-05
2.11276e-05
2.32861e-05
2.22068e-05
2.1099e-05
2.396e-05
1.97132e-05
2.27785e-05
2.0197e-05
2.17458e-05
2.10715e-05
2.14581e-05
2.20788e-05
2.20675e-05
2.24574e-05
2.09329e-05
2.26298e-05
2.06546e-05
2.27573e-05
2.08019e-05
2.2421e-05
2.10578e-05
2.30051e-05
2.21242e-05
2.26447e-05
2.40095e-05
2.12044e-05
2.35344e-05
2.09339e-05
2.35069e-05
2.06254e-05
2.30576e-05
2.10342e-05
2.28862e-05
2.2156e-05
2.18939e-05
2.40776e-05
2.06473e-05
2.49221e-05
1.94631e-05
2.27584e-05
2.10223e-05
2.16082e-05
2.2203e-05
2.20179e-05
2.28851e-05
2.19607e-05
2.48753e-05
2.15092e-05
2.46669e-05
2.05898e-05
2.4053e-05
2.02075e-05
2.42968e-05
2.05847e-05
2.49727e-05
2.21996e-05
2.4562e-05
2.36829e-05
2.43376e-05
2.58406e-05
2.36274e-05
2.8326e-05
2.26661e-05
2.90003e-05
2.09233e-05
2.94663e-05
2.03802e-05
2.80373e-05
2.18443e-05
2.425e-05
2.3555e-05
2.52917e-05
3.17533e-05
2.71804e-05
3.34647e-05
3.04726e-05
3.62657e-05
3.51503e-05
4.05657e-05
4.18492e-05
4.76896e-05
0
0
0
0
)
;

boundaryField
{
    inlet
    {
        type            calculated;
        value           uniform 0;
    }
    outlet
    {
        type            calculated;
        value           uniform 0;
    }
    sideWall
    {
        type            empty;
    }
}


// ************************************************************************* //
