/*--------------------------------*- C++ -*----------------------------------*\
| =========                 |                                                 |
| \\      /  F ield         | foam-extend: Open Source CFD                    |
|  \\    /   O peration     | Version:     3.2                                |
|   \\  /    A nd           | Web:         http://www.foam-extend.org         |
|    \\/     M anipulation  | For copyright notice see file Copyright         |
\*---------------------------------------------------------------------------*/
FoamFile
{
    version     2.0;
    format      ascii;
    class       areaScalarField;
    location    "160";
    object      tVol;
}
// * * * * * * * * * * * * * * * * * * * * * * * * * * * * * * * * * * * * * //

dimensions      [0 3 0 0 0 0 0];

internalField   nonuniform List<scalar> 
300
(
0.0001
0.0001
0.0001
0.0001
0.0001
0.0001
0.0001
0.0001
0.0001
0.0001
0.0001
0.0001
0.0001
0.0001
0.0001
0.0001
0.0001
0.0001
0.0001
0.0001
0.0001
0.0001
0.0001
0.0001
0.0001
0.0001
0.0001
0.0001
0.0001
0.0001
0.0001
0.0001
0.0001
0.0001
0.0001
0.0001
0.0001
0.0001
0.0001
0.0001
0.0001
0.0001
0.0001
0.0001
0.0001
0.0001
0.0001
0.0001
0.0001
0.0001
0.0001
0.0001
0.0001
0.0001
0.0001
0.0001
0.0001
0.0001
0.0001
0.0001
0.0001
0.0001
0.0001
0.0001
0.0001
0.0001
0.0001
0.0001
0.0001
0.0001
0.0001
0.0001
0.0001
0.0001
0.0001
0.0001
0.0001
0.0001
0.0001
0.0001
0.0001
0.0001
0.0001
0.0001
0.0001
0.0001
0.0001
0.0001
0.0001
0.0001
0.0001
0.0001
0.0001
0.0001
0.0001
0.0001
0.0001
0.0001
0.0001
9.8404e-05
9.42449e-05
8.98264e-05
8.66622e-05
8.39136e-05
8.14733e-05
7.93811e-05
7.7467e-05
7.58292e-05
7.4343e-05
7.29304e-05
7.1714e-05
7.06723e-05
6.98359e-05
6.89466e-05
6.80197e-05
6.75532e-05
6.6738e-05
6.61646e-05
6.56951e-05
6.48072e-05
6.4164e-05
6.38952e-05
6.34706e-05
6.29872e-05
6.32361e-05
6.27367e-05
6.22866e-05
6.23212e-05
6.24017e-05
6.22759e-05
6.21976e-05
6.20767e-05
6.13745e-05
6.14988e-05
6.20835e-05
6.18559e-05
6.1831e-05
6.21534e-05
6.16777e-05
6.13421e-05
6.14494e-05
6.17058e-05
6.14651e-05
6.11531e-05
6.1339e-05
6.1693e-05
6.17473e-05
6.15894e-05
6.20825e-05
6.22595e-05
6.21987e-05
6.20095e-05
6.30786e-05
6.40521e-05
6.44126e-05
6.56037e-05
6.59153e-05
6.62016e-05
6.67606e-05
6.78185e-05
6.8676e-05
6.92962e-05
6.97096e-05
6.9785e-05
6.98461e-05
6.94374e-05
6.95238e-05
6.94594e-05
6.94429e-05
6.9305e-05
6.9574e-05
6.9639e-05
6.97713e-05
7.00932e-05
6.98029e-05
7.01923e-05
6.9861e-05
6.92084e-05
6.85645e-05
6.84092e-05
6.83668e-05
6.81541e-05
6.79463e-05
6.74876e-05
6.77012e-05
6.73617e-05
6.69755e-05
6.68113e-05
6.71645e-05
6.77216e-05
6.82633e-05
6.85391e-05
6.86677e-05
6.87297e-05
6.80186e-05
6.79664e-05
6.82269e-05
6.85364e-05
6.82868e-05
6.81608e-05
6.88567e-05
6.88907e-05
6.85185e-05
6.83595e-05
6.91557e-05
6.95216e-05
6.92976e-05
6.88047e-05
6.83051e-05
6.78871e-05
6.77834e-05
6.86873e-05
6.91085e-05
6.93094e-05
6.8977e-05
6.86806e-05
6.86311e-05
6.86864e-05
6.8439e-05
6.7983e-05
6.80448e-05
6.78367e-05
6.8188e-05
6.855e-05
6.93893e-05
7.00762e-05
7.03546e-05
7.01228e-05
6.97556e-05
6.95966e-05
6.96253e-05
7.00098e-05
6.9376e-05
6.92837e-05
6.98385e-05
7.01577e-05
6.98447e-05
6.93254e-05
6.86438e-05
6.79145e-05
6.77333e-05
6.73504e-05
6.7219e-05
6.7485e-05
6.85628e-05
6.91714e-05
6.94807e-05
6.9432e-05
6.9202e-05
6.88645e-05
6.8888e-05
6.90682e-05
6.85356e-05
6.83779e-05
6.80466e-05
6.82535e-05
6.87677e-05
6.97736e-05
7.05075e-05
7.14752e-05
7.19034e-05
7.1454e-05
7.10954e-05
7.07816e-05
7.05486e-05
7.03986e-05
7.11637e-05
7.13631e-05
7.13371e-05
7.09968e-05
7.07082e-05
7.07072e-05
7.14239e-05
7.1941e-05
7.23174e-05
7.24832e-05
7.19189e-05
7.13611e-05
7.07333e-05
7.02297e-05
7.04654e-05
7.10297e-05
7.11832e-05
7.24467e-05
7.34781e-05
7.4603e-05
7.51422e-05
7.53645e-05
7.62699e-05
7.75465e-05
7.90101e-05
8.09359e-05
8.30818e-05
8.59541e-05
8.9136e-05
9.43815e-05
9.86028e-05
0.0001
0.0001
0.0001
)
;

boundaryField
{
    inlet
    {
        type            calculated;
        value           uniform 0;
    }
    outlet
    {
        type            calculated;
        value           uniform 0;
    }
    sideWall
    {
        type            empty;
    }
}


// ************************************************************************* //
