/*--------------------------------*- C++ -*----------------------------------*\
| =========                 |                                                 |
| \\      /  F ield         | foam-extend: Open Source CFD                    |
|  \\    /   O peration     | Version:     3.2                                |
|   \\  /    A nd           | Web:         http://www.foam-extend.org         |
|    \\/     M anipulation  | For copyright notice see file Copyright         |
\*---------------------------------------------------------------------------*/
FoamFile
{
    version     2.0;
    format      ascii;
    class       volVectorField;
    location    "160";
    object      U;
}
// * * * * * * * * * * * * * * * * * * * * * * * * * * * * * * * * * * * * * //

dimensions      [0 1 -1 0 0 0 0];

internalField   nonuniform List<vector> 
96000
(
(1.32717 0 0.0321533)
(0.866773 0 0.0115995)
(0.682512 0 0.00215831)
(0.62946 0 -0.000474694)
(0.610066 0 -0.000492642)
(0.597607 0 -0.000216281)
(0.587443 0 -0.000121811)
(0.577915 0 -5.61437e-05)
(0.568827 0 -1.26314e-05)
(0.560457 0 4.17603e-06)
(0.552982 0 9.44031e-06)
(0.546239 0 1.89355e-05)
(0.540037 0 2.37719e-05)
(0.534485 0 2.67435e-05)
(0.529436 0 2.74858e-05)
(0.524821 0 2.7343e-05)
(0.520557 0 2.831e-05)
(0.516579 0 2.81057e-05)
(0.512918 0 2.91794e-05)
(0.509603 0 2.94373e-05)
(0.506498 0 2.91117e-05)
(0.503555 0 2.8512e-05)
(0.500766 0 2.77842e-05)
(0.498136 0 2.64605e-05)
(0.495659 0 2.55014e-05)
(0.493301 0 2.4623e-05)
(0.491061 0 2.38984e-05)
(0.488918 0 2.32059e-05)
(0.486876 0 2.21092e-05)
(0.484942 0 2.14509e-05)
(0.483078 0 2.0653e-05)
(0.481304 0 2.01753e-05)
(0.479584 0 1.95019e-05)
(0.477947 0 1.89113e-05)
(0.476362 0 1.81762e-05)
(0.474855 0 1.76966e-05)
(0.473382 0 1.72125e-05)
(0.471979 0 1.668e-05)
(0.470606 1.26536e-39 1.63787e-05)
(0.469292 1.21179e-39 1.56843e-05)
(0.468017 0 1.53822e-05)
(0.466787 0 1.48733e-05)
(0.465591 0 1.45669e-05)
(0.464435 0 1.42033e-05)
(0.463306 -8.08828e-39 1.38051e-05)
(0.462221 0 1.34575e-05)
(0.461157 0 1.30404e-05)
(0.460138 0 1.28488e-05)
(0.459127 0 1.24488e-05)
(0.458166 0 1.2241e-05)
(0.457205 0 1.1934e-05)
(0.456293 -2.59302e-38 1.16126e-05)
(0.455385 0 1.13451e-05)
(0.45452 0 1.10808e-05)
(0.453657 0 1.08671e-05)
(0.452834 0 1.06433e-05)
(0.452011 -8.96839e-38 1.03243e-05)
(0.451231 8.60214e-38 1.06376e-05)
(0.450426 0 1.04859e-05)
(0.449687 0 1.03142e-05)
(0.448914 0 1.00334e-05)
(0.448216 -3.05268e-37 9.77376e-06)
(0.447476 0 9.58819e-06)
(0.446818 0 9.28398e-06)
(0.446107 0 9.10626e-06)
(0.445491 0 8.77827e-06)
(0.444806 0 8.68043e-06)
(0.444233 1.02925e-36 8.25035e-06)
(0.443573 -1.00523e-36 8.25428e-06)
(0.443042 -1.93053e-36 7.67329e-06)
(0.44241 -1.89036e-36 7.77767e-06)
(0.441924 -1.79432e-36 7.0297e-06)
(0.441322 0 7.24659e-06)
(0.440885 0 6.33885e-06)
(0.440314 6.50363e-36 6.62876e-06)
(0.439935 5.88765e-36 5.43183e-06)
(0.439404 5.88349e-36 5.93572e-06)
(0.439086 0 4.30275e-06)
(0.438611 0 4.99883e-06)
(0.438366 0 2.92786e-06)
(0.437962 0 3.81927e-06)
(0.437805 1.0916e-35 9.7234e-07)
(0.437508 0 2.5824e-06)
(0.43745 0 -1.33963e-06)
(0.437328 0 5.31183e-07)
(0.437376 0 -4.07777e-06)
(0.437477 0 -3.76455e-06)
(0.437734 -1.25944e-34 -9.14359e-06)
(0.438062 1.55118e-34 -8.8657e-06)
(0.438682 6.44163e-34 -1.72976e-05)
(0.439504 0 -1.70103e-05)
(0.440533 0 -2.76137e-05)
(0.442123 0 -2.80411e-05)
(0.443766 -8.17621e-33 -4.84032e-05)
(0.446997 -3.82537e-32 -6.1022e-05)
(0.449917 0 -0.000102908)
(0.457671 -2.25625e-30 -9.3314e-05)
(0.458325 -8.92883e-29 -0.000464262)
(0.504227 -1.34076e-26 0.000435628)
(0.467021 1.04655e-23 -0.0311644)
(0.289894 -4.89517e-24 -0.027236)
(0.314807 0 -0.0227777)
(0.342791 0 -0.0195764)
(0.342951 0 -0.0182499)
(0.354224 -1.76295e-24 -0.0150722)
(0.358241 0 -0.0144603)
(0.358314 -1.95996e-24 -0.0123525)
(0.367192 0 -0.0109091)
(0.367611 8.05443e-25 -0.0105293)
(0.363589 0 -0.00972018)
(0.373877 0 -0.00721374)
(0.373118 0 -0.00687156)
(0.386348 0 -0.00501419)
(0.380299 -2.43942e-24 -0.00917932)
(0.352764 0 -0.00637384)
(0.406128 -4.01923e-25 -0.00262931)
(0.353412 -2.21897e-24 -0.00778187)
(0.392537 -7.76838e-25 0.00257117)
(0.389248 -2.19667e-24 -0.00897939)
(0.371079 0 -0.0043254)
(0.360193 -2.9096e-24 -0.00714167)
(0.385687 -7.11558e-25 0.0015867)
(0.380704 0 -0.0069922)
(0.362565 -9.44591e-25 0.00198543)
(0.424361 0 0.00177585)
(0.355092 3.02384e-24 -0.00819118)
(0.370496 0 0.000497491)
(0.374807 -4.85244e-25 -0.00268827)
(0.396649 6.96138e-25 0.00421358)
(0.382764 -4.3e-24 -0.00409795)
(0.38432 -2.33206e-25 0.00289056)
(0.390018 2.54313e-24 -0.00570017)
(0.347374 0 -0.00289855)
(0.387058 3.26194e-24 0.00542594)
(0.424713 -7.57234e-25 0.00329221)
(0.364611 -1.63618e-24 -0.00594604)
(0.373953 -2.853e-24 0.00325623)
(0.410385 -5.81349e-30 -0.000503563)
(0.355916 -1.18734e-24 -0.00353958)
(0.38214 -4.19651e-25 0.0016179)
(0.378718 8.72102e-30 -0.000355382)
(0.410787 0 0.00221674)
(0.370606 0 -0.00660992)
(0.365381 7.00322e-25 0.00189309)
(0.380419 7.1437e-26 0.000853708)
(0.396958 -3.12048e-24 0.00589119)
(0.394787 0 -0.00322721)
(0.353409 -2.32531e-25 -0.000225711)
(0.410739 2.96642e-24 0.00400553)
(0.364261 4.6076e-28 -0.00174358)
(0.401586 2.60368e-25 0.00356313)
(0.326534 0 -0.00218808)
(0.408066 0 0.0180517)
(0.41354 0 -0.00336325)
(0.356447 -2.349e-24 0.00603123)
(0.437502 0 0.0106036)
(0.362264 0 -0.000766835)
(0.402697 -3.0899e-24 0.0090653)
(0.37452 -5.13136e-26 0.000386742)
(0.417203 1.99022e-24 0.0133259)
(0.401931 0 -0.00180612)
(0.399177 0 0.00914576)
(0.405128 0 -0.00226064)
(0.387305 -2.43328e-24 0.00536991)
(0.412291 0 -0.00146277)
(0.35952 0 -0.00244888)
(0.417759 -5.42338e-25 0.00253051)
(0.358555 0 -0.0041288)
(0.413623 1.15622e-25 0.00531639)
(0.357176 -2.46354e-24 -0.0041723)
(0.417077 3.47046e-24 0.0100205)
(0.380587 -3.84468e-24 -0.00896312)
(0.379136 0 0.00948285)
(0.411612 -9.18229e-25 -0.00440984)
(0.362809 1.51682e-24 0.00206587)
(0.435708 -7.5283e-25 0.00425869)
(0.362963 -2.28776e-24 -0.00804235)
(0.392262 0 -0.00143782)
(0.341134 0 -0.00803409)
(0.386311 -1.18489e-27 0.00698131)
(0.382448 -3.51802e-25 -0.00646219)
(0.381068 0 0.00475986)
(0.389017 0 -0.00818303)
(0.349937 -4.75261e-25 -0.00046699)
(0.405845 0 0.00146602)
(0.354492 9.75716e-25 -0.00414617)
(0.386121 3.39553e-25 0.00168327)
(0.35845 -7.8917e-25 -0.00313689)
(0.388358 6.60163e-25 0.00612747)
(0.38402 0 -0.000944689)
(0.400525 -9.41443e-25 0.00855142)
(0.398309 6.79272e-25 -0.002314)
(0.384398 0 0.00404267)
(0.404173 1.14012e-24 -0.00377428)
(0.337686 0 -0.00402533)
(0.40059 0 0.00546515)
(0.376926 8.58777e-25 -0.0016571)
(0.416475 0 0.00513215)
(0.370274 -7.17562e-24 -0.00852892)
(0.360241 0 0.00587211)
(0.411473 5.38496e-25 0.00290645)
(0.378208 3.21053e-25 -0.000470572)
(0.382839 8.29697e-25 -0.00234485)
(0.344711 0 -0.000739341)
(0.418869 -4.34821e-24 0.00824104)
(0.391706 -9.99947e-25 -0.00321256)
(0.393818 0 0.00234305)
(0.375734 3.00004e-28 -0.0063823)
(0.377651 4.74505e-25 0.00153765)
(0.370595 -1.64909e-24 -0.00770749)
(0.350015 3.15985e-28 0.00349515)
(0.412883 0 0.00689086)
(0.372025 -3.08259e-26 0.00031834)
(0.420996 1.33836e-24 0.00462068)
(0.366369 2.05558e-24 -0.00615527)
(0.385763 0 0.00346819)
(0.371022 -1.49671e-24 -0.00542716)
(0.391344 0 0.00482892)
(0.378805 6.4267e-28 -0.00711625)
(0.361365 0 0.00329376)
(0.391763 0 -0.00271474)
(0.340045 2.64993e-25 -0.0021262)
(0.399937 0 0.00541238)
(0.356256 -9.79187e-27 0.000483597)
(0.415908 -5.85619e-24 0.0124212)
(0.400474 0 -0.00085078)
(0.412018 5.78842e-25 0.00480358)
(0.375333 2.53504e-24 -0.00819937)
(0.370031 -5.29752e-25 0.00289264)
(0.377021 -3.62682e-24 -0.00522129)
(0.366161 0 0.00606892)
(0.428852 -8.10626e-31 0.00135124)
(0.331368 0 -0.00597873)
(0.383026 -1.13135e-24 0.00531924)
(0.388588 -1.94482e-25 -0.000639154)
(0.412139 9.52312e-25 0.00324085)
(0.368548 1.4915e-25 -0.00602058)
(0.392043 0 0.00168915)
(0.366358 0 -0.0105162)
(0.350071 -3.81577e-25 -0.00029867)
(0.375062 9.1996e-25 -0.00398387)
(0.355835 0 -0.000447543)
(0.375297 0 0.000485055)
(0.347642 0 0.00282993)
(0.423831 6.36259e-27 0.00991892)
(0.376793 -1.47268e-24 -0.0020423)
(0.404327 -1.41948e-24 0.00608276)
(0.371902 -7.68025e-25 -0.00429567)
(0.395702 0 0.00456126)
(0.362834 1.24245e-24 -0.00713071)
(0.376265 0 0.00673825)
(0.392964 0 -0.00636296)
(0.346193 0 -0.0014666)
(0.389637 0 0.000574799)
(0.335184 -1.29375e-24 -0.00226092)
(0.393744 0 0.00627345)
(0.350398 -2.40283e-28 -0.000640148)
(0.41466 -4.70029e-24 0.0122573)
(0.365333 4.15297e-25 -0.00104967)
(0.417291 -2.51595e-24 0.0165061)
(0.406854 1.20707e-24 -0.00605675)
(0.371995 0 0.00110433)
(0.371788 -2.01538e-28 -0.00665616)
(0.367427 0 0.00320235)
(0.38065 -1.43991e-24 -0.00466006)
(0.348037 7.55823e-29 0.00285836)
(0.41977 -1.00115e-24 0.00604464)
(0.356121 1.07793e-24 -0.00334812)
(0.404101 -2.87151e-28 0.00409723)
(0.352182 1.87485e-24 -0.00540786)
(0.388583 0 0.00420665)
(0.334062 -1.60988e-27 -0.0044635)
(0.401273 -2.19543e-27 0.0129138)
(0.375713 1.17641e-25 -0.00384255)
(0.393188 5.08444e-24 0.0116926)
(0.394905 -3.58399e-25 -0.00744751)
(0.364635 2.11349e-26 -0.000251317)
(0.358085 0 -0.00811038)
(0.358822 0 0.000630605)
(0.339368 1.92124e-24 -0.00556411)
(0.361893 4.26676e-24 0.00947321)
(0.384045 0 -0.00123578)
(0.314717 2.73366e-25 0.00308719)
(0.41376 -2.8612e-24 0.0143706)
(0.364782 0 0.00290748)
(0.409436 -4.6991e-24 0.013762)
(0.376487 -8.27145e-26 -0.00280194)
(0.352476 -1.92972e-28 0.00711592)
(0.370511 -8.8693e-25 0.00586116)
(0.383046 0 0.0129233)
(0.374994 -3.55817e-24 0.00986057)
(0.400942 0 0.0195022)
(0.379918 0 0.0148327)
(0.423201 7.55344e-27 0.0293899)
(0.386861 5.24049e-24 0.0226784)
(0.48249 0 0.0578701)
(0.557092 -2.26628e-26 0.0378816)
(0.43191 0 0.00292825)
(0.386413 2.57749e-28 -0.000257279)
(0.377808 0 0.000115934)
(1.70578 0 0.0462012)
(1.46484 0 0.0262864)
(1.26354 0 0.0112045)
(1.15627 0 0.00443929)
(1.09376 0 0.00223492)
(1.05073 0 0.00149981)
(1.01871 0 0.00123663)
(0.992303 0 0.00111526)
(0.969881 0 0.00100517)
(0.951122 0 0.000888218)
(0.934834 0 0.000786357)
(0.920593 0 0.000708083)
(0.907861 0 0.000635328)
(0.896696 0 0.000568565)
(0.886712 0 0.000515459)
(0.877624 0 0.00047121)
(0.869354 0 0.000435571)
(0.861722 0 0.000401394)
(0.854782 0 0.000366669)
(0.848311 0 0.000337346)
(0.842257 0 0.000317225)
(0.836585 0 0.000299198)
(0.831263 0 0.000282133)
(0.826287 0 0.000265186)
(0.821605 0 0.000250804)
(0.817181 0 0.000238053)
(0.812987 0 0.000226378)
(0.809017 0 0.000215848)
(0.805235 -9.71878e-39 0.000204611)
(0.801674 0 0.0001955)
(0.79824 -4.37479e-39 0.000186761)
(0.794998 0 0.000179311)
(0.791855 1.59015e-38 0.000171941)
(0.788886 7.58811e-39 0.000164944)
(0.786007 -1.44852e-38 0.000158062)
(0.783284 -2.77074e-38 0.000152212)
(0.780623 -5.32152e-38 0.000146836)
(0.778099 0 0.000141458)
(0.775635 5.21824e-38 0.000136979)
(0.773286 2.94643e-39 0.000131724)
(0.771001 0 0.000127519)
(0.768814 8.74742e-38 0.000123307)
(0.766674 0 0.000119495)
(0.764631 1.63158e-37 0.000116028)
(0.762618 -1.96699e-38 0.000112307)
(0.760709 0 0.000109021)
(0.758815 2.93852e-37 0.000105527)
(0.757027 -2.85232e-37 0.000102909)
(0.755233 0 9.98355e-05)
(0.75355 0 9.73201e-05)
(0.751853 -5.20394e-37 9.46891e-05)
(0.750262 9.46675e-37 9.2054e-05)
(0.748658 0 8.95956e-05)
(0.747155 0 8.73122e-05)
(0.745631 1.84922e-36 8.51406e-05)
(0.744207 1.80328e-36 8.31503e-05)
(0.742754 -2.18488e-37 8.09203e-05)
(0.741406 2.11028e-37 7.95066e-05)
(0.740023 -3.26295e-36 7.72965e-05)
(0.738758 0 7.56357e-05)
(0.737435 6.18656e-36 7.35824e-05)
(0.736242 -7.542e-37 7.18476e-05)
(0.734975 0 7.00306e-05)
(0.733851 1.14511e-35 6.83446e-05)
(0.732634 0 6.6503e-05)
(0.731582 0 6.48277e-05)
(0.73041 0 6.31919e-05)
(0.729429 2.55803e-36 6.13465e-05)
(0.728302 -2.4882e-36 5.99133e-05)
(0.727392 -4.81904e-36 5.77525e-05)
(0.726309 -4.68566e-36 5.64395e-05)
(0.725474 -4.50645e-36 5.3884e-05)
(0.72444 0 5.26754e-05)
(0.723685 1.33484e-34 4.97374e-05)
(0.722703 1.45999e-34 4.85518e-05)
(0.722036 1.36118e-34 4.47081e-05)
(0.721121 -2.2125e-34 4.38161e-05)
(0.720548 0 3.87048e-05)
(0.71972 0 3.78365e-05)
(0.719259 3.57086e-34 3.1351e-05)
(0.718543 0 3.04815e-05)
(0.718212 3.33356e-35 2.15294e-05)
(0.717659 0 2.06842e-05)
(0.717477 0 7.74836e-06)
(0.717175 4.21841e-34 6.81029e-06)
(0.717174 0 -8.55969e-06)
(0.717238 0 -1.25664e-05)
(0.717493 -1.65263e-34 -3.04855e-05)
(0.717906 2.74104e-34 -4.01929e-05)
(0.718688 1.18521e-33 -7.30852e-05)
(0.719865 2.04072e-32 -8.23757e-05)
(0.721165 -3.68677e-32 -0.000132127)
(0.723644 8.14265e-32 -0.000151482)
(0.725858 -1.58283e-32 -0.000238175)
(0.730646 -7.09643e-32 -0.000297555)
(0.734673 0 -0.000491294)
(0.745085 -2.19344e-30 -0.000509402)
(0.750321 -1.74259e-28 -0.00180414)
(0.797813 1.46972e-26 -0.00134651)
(0.78721 0 -0.0479629)
(0.576185 -2.14785e-23 -0.0499857)
(0.555931 0 -0.0392555)
(0.573469 0 -0.0327497)
(0.570636 0 -0.0305204)
(0.58003 -3.23111e-28 -0.0249066)
(0.584978 0 -0.0235468)
(0.58487 -3.86476e-24 -0.0203126)
(0.595297 0 -0.017851)
(0.598256 3.21052e-24 -0.017107)
(0.594101 0 -0.0159809)
(0.605687 2.36987e-24 -0.0117534)
(0.604129 0 -0.0111261)
(0.621301 -3.25413e-24 -0.0081327)
(0.619419 -2.07286e-24 -0.0149452)
(0.598169 -4.48669e-24 -0.0111597)
(0.641434 6.28262e-29 -0.00418551)
(0.594136 -3.61486e-24 -0.0129131)
(0.630079 -1.42474e-24 0.00295248)
(0.631159 -3.69396e-24 -0.0135902)
(0.616924 -7.6566e-25 -0.00707111)
(0.597215 0 -0.0121993)
(0.625364 -1.32486e-24 0.00196592)
(0.621974 0 -0.0108195)
(0.604172 0 0.00305669)
(0.663977 8.20217e-25 0.00348685)
(0.605135 0 -0.0140552)
(0.613295 0 0.000419378)
(0.614277 0 -0.00468573)
(0.640106 2.30344e-24 0.00685089)
(0.627483 -3.55402e-24 -0.00618495)
(0.629637 -6.7144e-25 0.00427429)
(0.636415 0 -0.0090878)
(0.593246 0 -0.00505246)
(0.625409 0 0.00842886)
(0.669127 0 0.00597299)
(0.617412 0 -0.0100871)
(0.622044 0 0.00460811)
(0.654236 1.02605e-24 -0.00080749)
(0.610733 2.13109e-27 -0.00590245)
(0.624766 0 0.0030691)
(0.620577 -1.85125e-25 -0.000423506)
(0.658757 8.67479e-25 0.00351882)
(0.619857 0 -0.010833)
(0.611265 2.66436e-24 0.00271504)
(0.620157 1.15251e-25 0.0014252)
(0.640301 0 0.00967065)
(0.640825 0 -0.00475334)
(0.609116 0 -0.000209863)
(0.651332 1.35052e-27 0.00587856)
(0.617272 -1.08658e-24 -0.00318029)
(0.642825 9.52415e-25 0.00616817)
(0.561352 0 -0.00323583)
(0.647371 0 0.0270086)
(0.662577 -2.64394e-24 -0.0050462)
(0.613982 -4.11869e-24 0.00976415)
(0.687451 5.82982e-24 0.0165024)
(0.622095 0 -0.00150432)
(0.65689 -1.16764e-23 0.0151368)
(0.617927 1.1037e-25 0.00111287)
(0.669379 0 0.0194787)
(0.662274 0 -0.00193406)
(0.661218 0 0.0148208)
(0.664794 0 -0.00324972)
(0.647677 -6.381e-24 0.00911096)
(0.667081 0 -0.00179377)
(0.622482 1.7002e-24 -0.00387413)
(0.665477 0 0.00392553)
(0.612175 0 -0.00768969)
(0.666086 1.16576e-25 0.0084695)
(0.600455 -4.46326e-24 -0.00651604)
(0.664475 1.34185e-23 0.0152638)
(0.63284 -3.76443e-24 -0.0135341)
(0.631461 0 0.0136916)
(0.66148 -2.10718e-24 -0.0066884)
(0.617652 1.60273e-28 0.00334177)
(0.684709 0 0.00726523)
(0.621668 -4.597e-24 -0.0138027)
(0.64759 -1.97406e-25 -0.00243719)
(0.581443 7.54111e-24 -0.0136536)
(0.625626 -1.36639e-24 0.008656)
(0.625119 2.94078e-26 -0.00923837)
(0.624973 0 0.00783578)
(0.633164 0 -0.0128319)
(0.59744 0 -0.00121479)
(0.645656 0 0.00215091)
(0.603975 -1.23035e-24 -0.00701694)
(0.627853 0 0.00322743)
(0.594797 0 -0.00469385)
(0.629378 1.78118e-24 0.00914758)
(0.626472 0 -0.00115968)
(0.647884 -7.85779e-25 0.0131636)
(0.647919 0 -0.00282831)
(0.637135 1.3307e-24 0.00661679)
(0.6541 0 -0.0058557)
(0.590984 0 -0.00739884)
(0.639897 0 0.00870923)
(0.619654 7.95205e-25 -0.00241256)
(0.667788 0 0.00780138)
(0.620434 7.48458e-27 -0.0139658)
(0.608452 -2.59467e-24 0.00860016)
(0.653126 0 0.00389566)
(0.635007 -4.59568e-25 0.00013846)
(0.628712 -1.56079e-24 -0.00321238)
(0.589133 0 -0.00159848)
(0.665028 0 0.0122894)
(0.644877 0 -0.00546135)
(0.650108 -1.94391e-25 0.00399572)
(0.62217 3.77276e-24 -0.00956934)
(0.623489 1.37823e-24 0.00208339)
(0.612333 0 -0.0125326)
(0.593227 3.21185e-24 0.00509923)
(0.650818 0 0.00984295)
(0.629576 -3.49885e-26 0.00127221)
(0.670318 0 0.00792179)
(0.614535 0 -0.00963785)
(0.630752 8.94232e-25 0.00554422)
(0.613564 3.12065e-27 -0.00903886)
(0.637446 0 0.00722288)
(0.623568 -8.1741e-28 -0.0115384)
(0.604724 -2.17252e-24 0.0050855)
(0.632251 0 -0.00413792)
(0.588616 -4.77152e-25 -0.00371986)
(0.633528 0 0.00795999)
(0.599026 4.53622e-26 0.00146154)
(0.659777 -2.22899e-23 0.01968)
(0.649086 0 -0.00121872)
(0.670441 1.00833e-24 0.00760639)
(0.628278 4.44107e-24 -0.0130732)
(0.6202 -1.82372e-24 0.00411245)
(0.622289 -3.63839e-24 -0.00864088)
(0.612287 3.48154e-24 0.00954397)
(0.666853 -4.64988e-25 0.00257348)
(0.587689 0 -0.00985647)
(0.624634 0 0.00817871)
(0.628729 -3.18404e-25 -0.00151459)
(0.665016 5.46292e-28 0.00517159)
(0.619962 1.74043e-24 -0.0101433)
(0.640858 0 0.00279695)
(0.609354 0 -0.0168002)
(0.591589 -6.13043e-25 -0.00114694)
(0.611725 0 -0.00662429)
(0.593269 0 -0.000681236)
(0.608527 5.45697e-25 0.00122046)
(0.584743 0 0.004427)
(0.662062 -1.00112e-26 0.0146942)
(0.625049 -1.40764e-24 -0.00343052)
(0.65684 3.02196e-24 0.00964337)
(0.619245 0 -0.00699356)
(0.643887 2.30082e-24 0.00744693)
(0.604288 -4.70143e-24 -0.0114895)
(0.617043 0 0.0103005)
(0.63599 0 -0.0100273)
(0.591841 0 -0.00258383)
(0.621387 0 0.000827588)
(0.579102 -2.19574e-24 -0.0036125)
(0.624632 0 0.00966262)
(0.588177 -1.8853e-25 -0.000668683)
(0.658628 -8.21667e-24 0.0188816)
(0.608943 0 -0.00181001)
(0.665118 -4.60408e-27 0.0250953)
(0.660306 0 -0.00880768)
(0.629334 0 0.00247852)
(0.618997 -3.75713e-24 -0.011345)
(0.611928 0 0.0047268)
(0.620516 -2.37074e-24 -0.00710281)
(0.593968 -1.08484e-28 0.00464254)
(0.656274 0 0.00910301)
(0.609125 2.14669e-24 -0.00584737)
(0.651637 -4.23852e-26 0.00646599)
(0.593247 0 -0.00894644)
(0.630128 0 0.00716868)
(0.56263 -1.24645e-24 -0.00718694)
(0.639524 4.52419e-24 0.0192884)
(0.618326 -8.0351e-25 -0.00651388)
(0.637078 9.5406e-24 0.0177449)
(0.640055 -3.28733e-25 -0.0105773)
(0.616582 0 -0.0002396)
(0.597672 0 -0.0135737)
(0.599491 -5.0744e-27 0.00104598)
(0.567173 6.64594e-24 -0.0089063)
(0.588727 0 0.0146796)
(0.61526 0 -0.00162005)
(0.558569 0 0.00552827)
(0.63839 0 0.0209318)
(0.606106 0 0.00603708)
(0.653708 -9.39662e-24 0.022023)
(0.622205 0 -0.00351881)
(0.59628 -6.14258e-24 0.012146)
(0.605684 0 0.00956918)
(0.621366 4.02596e-24 0.0208239)
(0.611557 -3.6826e-24 0.0158851)
(0.641059 4.11966e-24 0.0305505)
(0.62434 0 0.0245495)
(0.669369 7.93611e-24 0.0457968)
(0.633735 0 0.0366284)
(0.752028 0 0.0860264)
(0.851558 2.38234e-23 0.0575506)
(0.749051 0 0.00764051)
(0.688049 7.76284e-28 0.00228509)
(0.645881 1.01528e-28 0.00125229)
(1.79256 0 0.0536382)
(1.73299 0 0.036639)
(1.59333 0 0.0192325)
(1.46852 0 0.00965785)
(1.37903 0 0.00580163)
(1.31285 0 0.00415537)
(1.26267 0 0.00326437)
(1.22332 0 0.00273857)
(1.19139 0 0.00234265)
(1.16526 0 0.00201868)
(1.14266 0 0.00177254)
(1.12313 0 0.00157724)
(1.10589 0 0.00140068)
(1.09088 0 0.00124401)
(1.07751 0 0.00112343)
(1.06537 0 0.00102349)
(1.0544 0 0.000940656)
(1.04434 0 0.000863057)
(1.03523 0 0.000793047)
(1.02678 0 0.000736809)
(1.01891 0 0.000691081)
(1.01158 0 0.000648888)
(1.00473 0 0.000609337)
(0.998339 0 0.000571689)
(0.992333 0 0.000539676)
(0.98667 0 0.000511168)
(0.981314 2.55409e-38 0.000484802)
(0.976257 0 0.000461067)
(0.971449 -1.1435e-38 0.000436639)
(0.966924 1.08325e-38 0.000416581)
(0.962568 -4.62824e-38 0.000397485)
(0.958461 1.95808e-38 0.000380822)
(0.954488 1.86908e-38 0.00036461)
(0.950739 8.92346e-39 0.000349234)
(0.94711 -1.7041e-38 0.000334512)
(0.943676 9.76963e-38 0.000321713)
(0.940331 6.25258e-38 0.000309991)
(0.937156 0 0.000298309)
(0.934064 5.76812e-38 0.00028833)
(0.931119 0 0.000277276)
(0.928255 0 0.000268068)
(0.925517 1.02774e-37 0.000259125)
(0.922841 3.95816e-37 0.000250787)
(0.920288 1.91524e-37 0.000243301)
(0.917774 0 0.000235311)
(0.915393 0 0.000228292)
(0.913031 1.72642e-36 0.000220922)
(0.910803 1.00374e-36 0.00021517)
(0.908572 0 0.000208709)
(0.906476 0 0.00020322)
(0.904368 -6.10712e-37 0.000197613)
(0.90239 1.18537e-36 0.000192072)
(0.900399 4.59989e-36 0.000186854)
(0.898532 -4.4685e-36 0.000182028)
(0.896643 2.16959e-36 0.000177352)
(0.894876 1.05748e-35 0.000173129)
(0.893077 0 0.00016848)
(0.891407 0 0.000164965)
(0.889696 -3.8821e-36 0.000160149)
(0.888127 -1.51403e-35 0.000156597)
(0.886491 -2.2084e-35 0.000152312)
(0.885012 0 0.000148762)
(0.883446 0 0.000144865)
(0.882053 6.81896e-35 0.000141484)
(0.88055 0 0.000137564)
(0.879246 0 0.000134244)
(0.8778 0 0.000130686)
(0.876581 0 0.000127125)
(0.875192 0 0.000123896)
(0.874058 0 0.00011984)
(0.872726 0 0.00011678)
(0.871682 0 0.000112081)
(0.870409 0 0.000109148)
(0.86946 -1.62558e-34 0.000103782)
(0.868251 -4.72562e-34 0.000100884)
(0.867404 1.49594e-34 9.38847e-05)
(0.866276 2.89804e-34 9.14051e-05)
(0.865539 0 8.21925e-05)
(0.864514 0 7.96072e-05)
(0.863904 4.71562e-34 6.79101e-05)
(0.863011 0 6.51829e-05)
(0.862549 -1.53932e-33 4.90092e-05)
(0.861844 0 4.64996e-05)
(0.861551 0 2.33654e-05)
(0.86113 4.8269e-33 2.05329e-05)
(0.861037 0 -1.04889e-05)
(0.86105 2.90876e-34 -1.80434e-05)
(0.861248 0 -4.98261e-05)
(0.861653 3.28961e-33 -7.09198e-05)
(0.862426 -2.55939e-32 -0.000131677)
(0.863685 1.44338e-32 -0.000150208)
(0.865042 -2.71806e-32 -0.000244569)
(0.867752 5.98603e-32 -0.000284868)
(0.870134 0 -0.000443091)
(0.87533 0 -0.000554845)
(0.879683 3.29182e-30 -0.000897582)
(0.890791 0 -0.00102127)
(0.89716 0 -0.00308617)
(0.942939 -1.75024e-27 -0.00366318)
(0.936916 0 -0.0526103)
(0.760545 -4.56997e-26 -0.0614737)
(0.702995 -4.04102e-24 -0.0484031)
(0.705098 4.67553e-24 -0.0401864)
(0.696972 0 -0.0373013)
(0.701945 3.42997e-24 -0.0303666)
(0.705293 2.87977e-24 -0.0285225)
(0.704593 0 -0.0247223)
(0.714065 0 -0.021785)
(0.717598 1.65425e-24 -0.0205847)
(0.713803 1.07965e-24 -0.0193832)
(0.724812 2.14122e-24 -0.0144936)
(0.723467 0 -0.0137868)
(0.740344 1.33046e-27 -0.0103325)
(0.740715 -1.69569e-24 -0.0170829)
(0.723336 -7.88595e-24 -0.0132639)
(0.75548 -5.89711e-29 -0.00547685)
(0.723982 1.9433e-24 -0.0154941)
(0.750053 0 0.00221344)
(0.753815 2.86529e-24 -0.0156683)
(0.741195 -5.02863e-25 -0.00798767)
(0.722093 4.48528e-24 -0.0139519)
(0.745838 5.6928e-25 0.00107928)
(0.745808 0 -0.0124575)
(0.728168 -1.54211e-24 0.00256188)
(0.777877 1.68704e-24 0.00314282)
(0.739049 3.05945e-24 -0.0147421)
(0.737816 -1.82959e-24 0.000127511)
(0.738531 0 -0.00555507)
(0.761437 6.87051e-28 0.00669991)
(0.754029 -2.4476e-24 -0.00676215)
(0.754536 9.00185e-25 0.00479444)
(0.762346 -3.90607e-24 -0.00979406)
(0.724135 0 -0.00622683)
(0.74589 5.09641e-24 0.00849581)
(0.785871 0 0.00632529)
(0.751844 3.12402e-24 -0.0100293)
(0.748783 0 0.00491524)
(0.776889 4.76258e-25 -0.000942003)
(0.744196 1.54646e-24 -0.00681234)
(0.750078 -6.9052e-25 0.00289429)
(0.747753 -1.12599e-25 -0.000726086)
(0.777803 1.81037e-27 0.00388726)
(0.749941 6.0669e-24 -0.0115621)
(0.738629 1.20404e-24 0.00311074)
(0.745148 -8.45854e-26 0.00128097)
(0.763992 0 0.0100986)
(0.766381 9.74706e-25 -0.0047838)
(0.73856 0 0.000120508)
(0.770484 -7.93324e-24 0.00672489)
(0.748997 3.81039e-28 -0.00304739)
(0.763747 4.74733e-25 0.00747775)
(0.698318 0 -0.00396413)
(0.7663 1.02369e-23 0.0292252)
(0.787352 -2.37796e-24 -0.00440425)
(0.744259 -3.37251e-24 0.0116318)
(0.805342 2.27193e-24 0.0182713)
(0.764857 3.26606e-26 -0.000555293)
(0.781913 -5.58552e-24 0.0168759)
(0.749418 6.19154e-25 0.00202116)
(0.794719 0 0.0219853)
(0.793316 0 -0.0010537)
(0.792629 5.60226e-24 0.0167187)
(0.797479 0 -0.00326327)
(0.780783 -1.8822e-24 0.0100859)
(0.798319 -1.73766e-24 -0.001961)
(0.75929 1.48589e-24 -0.00435605)
(0.787512 2.00395e-25 0.0045913)
(0.753308 0 -0.00837608)
(0.785433 0 0.00895226)
(0.739655 -3.18318e-24 -0.00750664)
(0.785055 1.50286e-23 0.0160161)
(0.765113 6.12659e-27 -0.014324)
(0.760122 0 0.0156223)
(0.789513 0 -0.00743494)
(0.749235 -1.81837e-28 0.00322598)
(0.803051 0 0.00741668)
(0.762981 -2.64321e-24 -0.0147947)
(0.774191 -4.03787e-25 -0.00250232)
(0.716763 7.36726e-24 -0.0154926)
(0.748122 -8.16599e-25 0.00907119)
(0.750781 0 -0.0110111)
(0.749776 0 0.00821605)
(0.758844 1.87818e-24 -0.0140453)
(0.725382 -6.0693e-25 -0.00134565)
(0.765588 6.11376e-25 0.00210051)
(0.736838 -2.57533e-25 -0.0080246)
(0.748838 0 0.00303806)
(0.722433 0 -0.00527118)
(0.750797 5.5029e-25 0.0103814)
(0.750589 0 -0.000988501)
(0.771978 0 0.0141168)
(0.774669 0 -0.00299866)
(0.764727 -1.27317e-27 0.00769743)
(0.781755 1.75011e-24 -0.00598052)
(0.729365 6.26785e-25 -0.00851392)
(0.758855 0 0.00876402)
(0.748177 0 -0.00275831)
(0.786764 0 0.00861427)
(0.75177 2.50854e-23 -0.0149865)
(0.736455 -2.11037e-24 0.00973572)
(0.777112 1.0365e-24 0.00448385)
(0.764031 -3.08028e-25 -0.000125507)
(0.75611 -1.39821e-24 -0.00321044)
(0.724515 0 -0.00143049)
(0.781491 0 0.0126663)
(0.773849 -2.15976e-24 -0.0055258)
(0.778134 -1.3123e-25 0.00425741)
(0.751274 -3.13341e-24 -0.0109515)
(0.749795 8.77542e-25 0.00229135)
(0.738995 0 -0.0136745)
(0.719339 0 0.00585921)
(0.771855 0 0.0110255)
(0.759045 7.00739e-28 0.000897477)
(0.790046 0 0.00872619)
(0.748431 -2.7e-24 -0.0101471)
(0.755067 1.17723e-24 0.00574851)
(0.742132 2.07547e-24 -0.0101191)
(0.759699 0 0.00744745)
(0.751356 4.374e-24 -0.0125941)
(0.730931 -3.87506e-24 0.00534828)
(0.755963 0 -0.00421858)
(0.720145 -2.08113e-25 -0.00364595)
(0.75198 -1.65729e-24 0.00899047)
(0.726259 2.07978e-26 0.00125773)
(0.778351 2.14338e-27 0.0206888)
(0.776053 2.54476e-25 -0.000421666)
(0.795162 4.86208e-27 0.00910137)
(0.760038 0 -0.014017)
(0.748954 -7.10146e-25 0.00460083)
(0.749952 -3.70045e-24 -0.00972417)
(0.738701 3.14059e-24 0.0102473)
(0.785662 -4.14403e-25 0.00285845)
(0.728242 0 -0.0110398)
(0.747046 -3.0576e-24 0.00871831)
(0.752688 -5.16135e-25 -0.0015779)
(0.785352 -1.36099e-24 0.00545305)
(0.7547 1.75021e-24 -0.0112063)
(0.765564 0 0.00214979)
(0.737192 -2.14914e-24 -0.0185246)
(0.717695 2.17517e-25 -0.00141076)
(0.734768 -1.67316e-24 -0.00758968)
(0.716878 -3.55151e-25 -0.00119935)
(0.729832 1.81506e-29 0.00134023)
(0.711879 0 0.00501021)
(0.773458 9.19053e-25 0.0158048)
(0.753586 0 -0.00282236)
(0.778165 5.16083e-24 0.0107081)
(0.750977 -2.08404e-26 -0.00775658)
(0.766591 4.1904e-24 0.00779086)
(0.73366 -4.22968e-27 -0.0119247)
(0.739564 0 0.0108684)
(0.760048 -5.94913e-24 -0.0108703)
(0.719301 0 -0.00302641)
(0.743539 1.60897e-25 0.000875526)
(0.709555 0 -0.00441678)
(0.740766 0 0.0108458)
(0.714192 -1.74656e-25 -0.000396291)
(0.770529 0 0.0203478)
(0.740161 4.4546e-25 -0.000721351)
(0.786325 1.05923e-23 0.0264368)
(0.788105 3.19987e-26 -0.00874806)
(0.759597 2.68155e-25 0.00302083)
(0.747643 0 -0.0122218)
(0.738149 0 0.0049819)
(0.745438 0 -0.00809248)
(0.720068 -1.9675e-24 0.00509596)
(0.772446 4.97495e-25 0.0101371)
(0.743472 0 -0.00604737)
(0.770073 0 0.00692181)
(0.727094 0 -0.00975304)
(0.74657 0 0.00778528)
(0.69378 0 -0.00759059)
(0.755133 0 0.0199268)
(0.746109 -2.01822e-24 -0.00594736)
(0.758845 0 0.0192752)
(0.765166 1.2154e-25 -0.0117777)
(0.744389 0 -0.000154089)
(0.723347 0 -0.0148069)
(0.723178 3.69566e-27 0.000789676)
(0.691704 4.56218e-24 -0.00958305)
(0.704954 9.28929e-24 0.0156118)
(0.733772 0 -0.00111906)
(0.689426 0 0.00664938)
(0.749661 0 0.023292)
(0.729673 -1.0999e-24 0.00699119)
(0.769708 -5.64482e-24 0.0244309)
(0.749522 0 -0.00228283)
(0.722616 -3.18528e-24 0.0146582)
(0.728686 1.8487e-24 0.0115923)
(0.741314 8.13651e-24 0.0240653)
(0.734917 0 0.0192386)
(0.762498 8.42247e-24 0.0355836)
(0.749346 0 0.0291681)
(0.791928 -8.72987e-24 0.0534758)
(0.761642 0 0.042712)
(0.872533 -2.76223e-23 0.0935961)
(0.97548 0 0.0651752)
(0.91176 -2.94202e-25 0.0119702)
(0.851483 3.69219e-27 0.00491226)
(0.793018 9.68576e-29 0.00306566)
(1.81929 0 0.0517661)
(1.81904 0 0.0393092)
(1.77529 0 0.0256074)
(1.68193 0 0.0157438)
(1.59188 0 0.0106345)
(1.51468 0 0.00790673)
(1.45128 0 0.00619256)
(1.39989 0 0.00506981)
(1.35846 0 0.00423189)
(1.32434 0 0.00358883)
(1.29547 0 0.0031083)
(1.27103 0 0.00273337)
(1.24966 0 0.00241231)
(1.23111 0 0.00213675)
(1.21457 0 0.001929)
(1.19959 0 0.00175306)
(1.18613 0 0.00160231)
(1.17387 0 0.00146432)
(1.16278 0 0.00134294)
(1.15251 0 0.00124617)
(1.143 0 0.00116454)
(1.13417 0 0.00108959)
(1.12597 0 0.00102025)
(1.11832 0 0.000956023)
(1.11114 -1.46975e-38 0.000901247)
(1.10439 0 0.000852234)
(1.09801 2.52322e-52 0.000806727)
(1.09201 0 0.000765776)
(1.08632 0 0.000724735)
(1.08096 -7.72611e-38 0.000690704)
(1.07582 -4.19197e-38 0.000658401)
(1.07097 1.79453e-37 0.000629821)
(1.06629 0 0.000602285)
(1.06188 0 0.00057625)
(1.05762 -1.3877e-37 0.000551763)
(1.05359 1.32503e-37 0.000530145)
(1.04967 3.8149e-37 0.000510338)
(1.04595 0 0.000490696)
(1.04234 4.68598e-37 0.000473641)
(1.0389 0 0.000455443)
(1.03556 -8.65525e-37 0.000439916)
(1.03237 8.34449e-37 0.00042507)
(1.02925 4.01506e-37 0.000411023)
(1.02628 -1.55304e-36 0.000398451)
(1.02336 0 0.000385142)
(1.0206 0 0.000373464)
(1.01786 1.39937e-36 0.000361342)
(1.01527 4.0632e-36 0.000351601)
(1.01269 0 0.000340973)
(1.01026 0 0.000331727)
(1.00782 0 0.000322421)
(1.00553 0 0.000313311)
(1.00324 1.39491e-35 0.000304691)
(1.00108 4.51541e-36 0.000296723)
(0.998899 0 0.000288933)
(0.996858 2.56249e-35 0.000281945)
(0.994787 0 0.000274294)
(0.992861 3.24142e-35 0.000268102)
(0.990889 0 0.000260206)
(0.989078 -7.67341e-35 0.000254339)
(0.987195 -8.95936e-35 0.00024736)
(0.985486 0 0.0002416)
(0.983685 -1.13188e-34 0.000235144)
(0.982077 -5.53373e-35 0.000229719)
(0.98035 0 0.000223265)
(0.978842 0 0.000217992)
(0.977184 0 0.000212055)
(0.975773 0 0.000206509)
(0.97418 0 0.000201008)
(0.972867 3.77651e-34 0.000194832)
(0.97134 0 0.000189522)
(0.970127 -7.14044e-34 0.0001825)
(0.968669 -6.92961e-34 0.000177302)
(0.967561 -3.35344e-34 0.000169349)
(0.966176 -6.53709e-34 0.000164167)
(0.965179 1.24919e-33 0.000153859)
(0.963886 6.09368e-34 0.000149136)
(0.963007 0 0.000135705)
(0.961828 -2.23692e-33 0.000130633)
(0.961086 0 0.000113607)
(0.960051 0 0.000108119)
(0.959467 -1.79321e-33 8.46219e-05)
(0.958633 0 7.90774e-05)
(0.95823 0 4.55126e-05)