/*--------------------------------*- C++ -*----------------------------------*\
| =========                 |                                                 |
| \\      /  F ield         | foam-extend: Open Source CFD                    |
|  \\    /   O peration     | Version:     3.2                                |
|   \\  /    A nd           | Web:         http://www.foam-extend.org         |
|    \\/     M anipulation  | For copyright notice see file Copyright         |
\*---------------------------------------------------------------------------*/
FoamFile
{
    version     2.0;
    format      ascii;
    class       areaVectorField;
    location    "160";
    object      Ub2;
}
// * * * * * * * * * * * * * * * * * * * * * * * * * * * * * * * * * * * * * //

dimensions      [0 1 -1 0 0 0 0];

internalField   nonuniform List<vector> 
300
(
(1.94961 0 0)
(1.70115 0 0)
(1.35641 0 0)
(1.19512 0 0)
(1.12979 0 0)
(1.09436 0 0)
(1.06816 0 0)
(1.04483 0 0)
(1.023 0 0)
(1.0029 0 0)
(0.984698 0 0)
(0.96822 0 0)
(0.95313 0 0)
(0.939524 0 0)
(0.927152 0 0)
(0.915807 0 0)
(0.905337 0 0)
(0.8956 0 0)
(0.886612 0 0)
(0.878364 0 0)
(0.87065 0 0)
(0.863366 0 0)
(0.856478 0 0)
(0.849983 0 0)
(0.843852 0 0)
(0.838028 0 0)
(0.83249 0 0)
(0.827209 0 0)
(0.822175 0 0)
(0.817394 0 0)
(0.812802 0 0)
(0.808421 0 0)
(0.804191 0 0)
(0.800152 0 0)
(0.796255 0 0)
(0.792533 0 0)
(0.788917 0 0)
(0.785453 0 0)
(0.782085 2.10288e-39 0)
(0.778848 2.01114e-39 0)
(0.775713 0 0)
(0.772687 0 0)
(0.769746 0 0)
(0.766905 0 0)
(0.764133 -1.33405e-38 0)
(0.761464 0 0)
(0.758854 0 0)
(0.756343 0 0)
(0.75387 0 0)
(0.751497 0 0)
(0.749152 0 0)
(0.746902 -4.24504e-38 0)
(0.744682 0 0)
(0.742549 0 0)
(0.74044 0 0)
(0.738411 0 0)
(0.736399 -1.46168e-37 0)
(0.734472 1.40082e-37 0)
(0.732525 0 0)
(0.730687 0 0)
(0.728822 0 0)
(0.727079 -4.95714e-37 0)
(0.725296 0 0)
(0.723645 0 0)
(0.721938 0 0)
(0.720379 0 0)
(0.718743 0 0)
(0.717275 0 0)
(0.715708 -1.6284e-36 0)
(0.714332 -3.12829e-36 0)
(0.712836 0 0)
(0.711556 0 0)
(0.710136 0 0)
(0.708959 0 0)
(0.707618 0 0)
(0.706556 9.62225e-36 0)
(0.705314 0 0)
(0.704378 1.67332e-35 0)
(0.703261 -1.69111e-35 0)
(0.702475 0 0)
(0.701512 2.82291e-35 0)
(0.700909 1.92696e-35 0)
(0.700163 0 0)
(0.699778 0 0)
(0.699361 -2.07836e-35 0)
(0.699227 0 0)
(0.699241 1.73006e-35 0)
(0.699531 -1.58586e-34 0)
(0.700016 0 0)
(0.700994 0 0)
(0.702421 0 0)
(0.704256 0 0)
(0.707107 0 0)
(0.71027 0 0)
(0.715977 0 0)
(0.721821 0 0)
(0.734908 0 0)
(0.740265 0 0)
(0.808723 0 0)
(0.778497 -4.18018e-20 -0.0582373)
(0.518734 1.57083e-23 -0.0512952)
(0.464566 0 -0.0314915)
(0.468476 -1.74251e-24 -0.0262213)
(0.453652 3.48974e-21 -0.0241859)
(0.449933 0 -0.0191111)
(0.444649 -1.32261e-21 -0.0182)
(0.433803 0 -0.0151206)
(0.435965 -1.67244e-24 -0.0131457)
(0.431583 -1.18633e-24 -0.0125951)
(0.544089 -3.87269e-22 -0.0147598)
(0.553019 -1.07828e-24 -0.0116667)
(0.418579 1.74895e-21 -0.00859161)
(0.428931 2.50475e-21 -0.00538558)
(0.426361 1.0826e-21 -0.0100456)
(0.537046 0 -0.00696999)
(0.597776 0 -0.00328537)
(0.53971 6.87791e-21 -0.0151789)
(0.417521 1.87396e-25 0.00258517)
(0.424698 0 -0.010954)
(0.39295 7.1987e-25 -0.0035196)
(0.543329 2.77911e-21 -0.00925692)
(0.569928 1.75412e-22 0.0037627)
(0.568661 0 -0.013807)
(0.368773 0 0.00208511)
(0.444808 6.21084e-22 0.00191931)
(0.374819 0 -0.00939068)
(0.547889 0 0.00425419)
(0.563354 1.23494e-21 -0.00358139)
(0.580609 -6.50627e-22 0.00552467)
(0.403313 0 -0.00593068)
(0.397688 1.02896e-24 0.00464292)
(0.584005 5.42404e-21 -0.00974649)
(0.525695 1.52181e-24 -0.00589224)
(0.388966 0 0.00623084)
(0.445258 1.50688e-24 0.00339089)
(0.385012 -2.45009e-21 -0.00654834)
(0.558479 -1.0174e-21 0.00896514)
(0.611661 0 -0.00174278)
(0.543168 0 -0.00896495)
(0.387782 8.20265e-22 0.00131968)
(0.389747 0 0.00035155)
(0.43007 0 0.00397837)
(0.563397 6.84335e-21 -0.0108334)
(0.546633 0 0.00390402)
(0.564595 0 0.000200505)
(0.406346 0 0.00551812)
(0.413308 0 -0.00468788)
(0.361497 0 0.00186354)
(0.601238 0 0.00862489)
(0.556538 0 -0.00393639)
(0.584558 -5.2949e-22 0.00273428)
(0.328711 6.60183e-25 -0.0040793)
(0.404159 0 0.0210022)
(0.455876 1.62152e-21 -0.00444334)
(0.541295 2.07304e-22 0.0127603)
(0.643337 -2.68272e-21 0.0154575)
(0.559358 0 -0.00613154)
(0.426336 3.30668e-21 0.00935189)
(0.406688 -2.32146e-25 0.000429612)
(0.46123 7.31768e-21 0.0180729)
(0.616304 0 -0.00173475)
(0.604924 0 0.0161208)
(0.62202 0 -0.00575313)
(0.588971 1.43868e-24 0.00717274)
(0.477441 3.57363e-22 -0.00461161)
(0.408585 0 -0.00270444)
(0.474352 -7.9256e-22 0.004742)
(0.558375 -5.55887e-21 -0.00706741)
(0.608045 -1.17006e-24 0.00730748)
(0.409045 -4.17602e-25 -0.00726834)
(0.460084 9.9591e-21 0.0128289)
(0.444395 -6.45601e-21 -0.0111435)
(0.566175 7.11252e-24 0.0169782)
(0.617594 5.25454e-21 -0.0100227)
(0.410115 -7.58278e-22 0.00203191)
(0.494855 0 0.00519632)
(0.424362 2.79983e-24 -0.0103685)
(0.582499 0 -0.000488802)
(0.525349 2.90244e-24 -0.0135699)
(0.563489 3.79815e-22 0.0112625)
(0.572842 2.57331e-21 -0.0124799)
(0.410229 3.66202e-25 0.00560874)
(0.433538 0 -0.00971662)
(0.528092 -2.02072e-22 0.00249243)
(0.596338 0 0.00228518)
(0.537491 -3.49977e-21 -0.00957688)
(0.40866 -2.81249e-22 0.00113906)
(0.380866 -7.70223e-22 -0.00360535)
(0.412864 3.41072e-21 0.00949791)
(0.57605 7.24134e-25 -6.81577e-06)
(0.588703 4.07482e-22 0.0124064)
(0.450694 -1.41418e-22 -0.0043096)
(0.428095 -2.87871e-21 0.00622445)
(0.603586 0 -0.00722277)
(0.51915 -2.74514e-24 -0.00864698)
(0.429537 0 0.00629441)
(0.417725 7.22686e-25 -0.00165589)
(0.460747 0 0.00737809)
(0.563782 0 -0.0150042)
(0.535923 0 0.011731)
(0.608533 -9.76567e-22 0.00397904)
(0.568487 0 -0.00293115)
(0.421466 6.72508e-23 -0.00414168)
(0.376405 0 0.00134851)
(0.613023 0 0.0167075)
(0.598711 0 -0.00705434)
(0.587104 0 0.00176329)
(0.423669 -1.73808e-24 -0.00994213)
(0.407007 5.15411e-22 0.00171662)
(0.40702 0 -0.00876804)
(0.52031 0 0.00915807)
(0.605028 -4.18473e-24 0.0111967)
(0.566909 1.00635e-23 -0.000674831)
(0.472592 0 0.00430761)
(0.41391 0 -0.00953204)
(0.416278 -1.34655e-21 0.0048774)
(0.415774 1.34811e-21 -0.00572455)
(0.575954 0 0.00915296)
(0.566949 0 -0.0149625)
(0.381938 3.82147e-25 0.00343511)
(0.426422 0 -0.00275951)
(0.514322 6.58524e-23 -0.00092445)
(0.58038 -6.43941e-22 0.0090107)
(0.535817 0 -0.000384327)
(0.454104 -1.15585e-20 0.0148934)
(0.459762 -3.02363e-22 -0.00176996)
(0.47007 0 0.00690985)
(0.573947 -1.19007e-20 -0.014066)
(0.550882 0 0.0057876)
(0.566041 0 -0.00968987)
(0.543275 0 0.00989375)
(0.482935 0 -0.00114693)
(0.369906 7.35764e-22 -0.00878646)
(0.406778 5.0403e-21 0.0082467)
(0.438526 -2.46081e-25 0.00108733)
(0.613237 -4.57225e-22 0.00622654)
(0.56221 0 -0.0130917)
(0.431169 3.54357e-22 0.00140345)
(0.408541 -4.96316e-21 -0.0130312)
(0.51602 0 0.0021131)
(0.551593 1.70559e-21 -0.00634174)
(0.52273 0 -0.00191374)
(0.391283 0 -0.000617649)
(0.358136 -1.14207e-24 0.00430699)
(0.459224 0 0.0137979)
(0.575244 0 -0.00258646)
(0.597761 1.02392e-21 0.00987518)
(0.562796 -1.9992e-24 -0.0104512)
(0.432341 0 0.00420233)
(0.400198 0 -0.00955413)
(0.400505 -9.02695e-25 0.00991327)
(0.583505 -5.36118e-21 -0.00998009)
(0.521802 0 -0.00199071)
(0.563359 0 -0.00139851)
(0.354592 -3.13507e-22 -0.00387326)
(0.408808 2.39956e-24 0.00771716)
(0.378039 1.48652e-22 0.000819421)
(0.595671 0 0.0215907)
(0.557682 1.22791e-21 -0.00284143)
(0.60495 -7.75588e-21 0.0250406)
(0.481798 -2.39463e-24 -0.0108651)
(0.423515 3.55508e-25 0.00223097)
(0.558015 7.22909e-25 -0.011244)
(0.541158 0 0.00437455)
(0.423737 1.06756e-24 -0.00752482)
(0.375993 2.23474e-21 0.00451282)
(0.467727 0 0.00857216)
(0.544774 0 -0.00545718)
(0.588795 0 0.00530195)
(0.398018 3.06533e-25 -0.00926292)
(0.417383 2.72959e-21 0.00512797)
(0.36826 -6.37318e-22 -0.00454007)
(0.573718 -3.59743e-24 0.0223961)
(0.563484 0 -0.00933852)
(0.435353 0 0.0133506)
(0.458162 0 -0.0107551)
(0.409441 0 0.000694337)
(0.533213 -1.03644e-20 -0.0132698)
(0.522778 -7.61644e-26 0.000344302)
(0.361681 2.31149e-25 -0.00775793)
(0.369532 0 0.0111734)
(0.418616 0 -0.0026939)
(0.465267 0 0.0057757)
(0.446717 0 0.0162723)
(0.415336 -7.33901e-22 0.00277562)
(0.460948 -7.51464e-21 0.01678)
(0.443612 1.99718e-24 -0.00581915)
(0.39247 -2.08542e-21 0.00846407)
(0.41578 5.40384e-22 0.00623983)
(0.435621 1.34696e-24 0.015052)
(0.438617 -1.4379e-24 0.0109051)
(0.474876 -5.67635e-21 0.023378)
(0.467739 0 0.0178262)
(0.528645 7.41224e-21 0.0373463)
(0.510387 -3.94288e-21 0.0301078)
(0.651057 6.42658e-20 0.0826554)
(0.839459 -2.26847e-20 0.053661)
(0.718213 0 0)
(0.621669 4.38734e-28 0)
(0.585564 0 0)
)
;

boundaryField
{
    inlet
    {
        type            calculated;
        value           uniform (0 0 0);
    }
    outlet
    {
        type            calculated;
        value           uniform (0 0 0);
    }
    sideWall
    {
        type            empty;
    }
}


// ************************************************************************* //
