/*--------------------------------*- C++ -*----------------------------------*\
| =========                 |                                                 |
| \\      /  F ield         | foam-extend: Open Source CFD                    |
|  \\    /   O peration     | Version:     3.2                                |
|   \\  /    A nd           | Web:         http://www.foam-extend.org         |
|    \\/     M anipulation  | For copyright notice see file Copyright         |
\*---------------------------------------------------------------------------*/
FoamFile
{
    version     2.0;
    format      ascii;
    class       areaScalarField;
    location    "160";
    object      Uf;
}
// * * * * * * * * * * * * * * * * * * * * * * * * * * * * * * * * * * * * * //

dimensions      [0 1 -1 0 0 0 0];

internalField   nonuniform List<scalar> 
300
(
0.231291
0.206404
0.171915
0.155785
0.149252
0.14571
0.143089
0.140756
0.138574
0.136563
0.134743
0.133095
0.131586
0.130226
0.128989
0.127854
0.126807
0.125833
0.124935
0.12411
0.123338
0.12261
0.121921
0.121272
0.120659
0.120076
0.119522
0.118994
0.118491
0.118013
0.117554
0.117115
0.116692
0.116289
0.115899
0.115527
0.115165
0.114819
0.114482
0.114158
0.113845
0.113542
0.113248
0.112964
0.112687
0.11242
0.112159
0.111908
0.11166
0.111423
0.111189
0.110964
0.110742
0.110528
0.110317
0.110114
0.109913
0.109721
0.109526
0.109342
0.109156
0.108981
0.108803
0.108638
0.108467
0.108311
0.108148
0.108001
0.107844
0.107707
0.107557
0.107429
0.107287
0.107169
0.107035
0.106929
0.106805
0.106711
0.106599
0.106521
0.106425
0.106364
0.10629
0.106251
0.10621
0.106196
0.106198
0.106227
0.106275
0.106373
0.106516
0.106699
0.106984
0.107301
0.107872
0.108456
0.109765
0.110301
0.117148
0.113089
0.0884211
0.0858333
0.0879798
0.0877664
0.0887827
0.0891776
0.0890879
0.090132
0.0903276
0.0899312
0.0909994
0.0907932
0.0924301
0.0921044
0.0895912
0.0959202
0.0895004
0.0934699
0.0930858
0.0909153
0.0901109
0.0934687
0.0925009
0.0897857
0.0972145
0.0892456
0.0912615
0.0924354
0.0946365
0.0926937
0.0931918
0.0942145
0.0885564
0.0927721
0.0978308
0.090905
0.0925449
0.0973856
0.0901764
0.092207
0.0921983
0.0965076
0.0920871
0.0911532
0.0927556
0.0943775
0.0939965
0.0894996
0.0967859
0.0917617
0.0949061
0.0854193
0.095121
0.0974421
0.091053
0.101306
0.0919516
0.0950024
0.0919213
0.0984422
0.0978053
0.0975351
0.0982447
0.0955339
0.09745
0.0907936
0.0979589
0.0917577
0.0974469
0.0904914
0.0972143
0.0935901
0.0937282
0.0976046
0.0912788
0.099777
0.0915354
0.0944816
0.0880899
0.0931977
0.0929673
0.0922721
0.093251
0.0891916
0.09603
0.0895684
0.0921596
0.0889116
0.0932424
0.0938614
0.0957607
0.0952721
0.0938609
0.0963081
0.0877562
0.0943041
0.0922413
0.0972324
0.0919187
0.0904798
0.0973182
0.0930126
0.0923484
0.0883468
0.0983136
0.0958464
0.0951112
0.0919396
0.0914976
0.0906502
0.0887776
0.0973067
0.0929527
0.097905
0.0909069
0.0925616
0.0915237
0.0943129
0.0922673
0.0893325
0.0931172
0.0876421
0.0947649
0.0898587
0.0969156
0.0957583
0.0974017
0.0929719
0.0916559
0.0924175
0.0911226
0.0982221
0.0863222
0.0916854
0.0939357
0.0978694
0.091877
0.0935097
0.0901285
0.0879801
0.0911242
0.0884744
0.0901532
0.0872118
0.0975974
0.0936503
0.0965401
0.0920718
0.0939334
0.0895135
0.0913914
0.0941397
0.0883683
0.0925689
0.0858001
0.0922568
0.0883028
0.0968539
0.091912
0.097959
0.0965874
0.0919537
0.0915115
0.0906345
0.0914889
0.0878371
0.0969737
0.0904752
0.0954294
0.0885456
0.0919078
0.0860172
0.094735
0.0921809
0.0937878
0.0939238
0.0902178
0.0889024
0.0885896
0.0852657
0.0878992
0.0911906
0.0831518
0.0950704
0.0903635
0.0955862
0.0917869
0.0878586
0.089567
0.0917266
0.0910374
0.0947043
0.0926169
0.0985515
0.0947617
0.108715
0.122973
0.108075
0.0984202
0.0948105
)
;

boundaryField
{
    inlet
    {
        type            calculated;
        value           uniform 0;
    }
    outlet
    {
        type            calculated;
        value           uniform 0;
    }
    sideWall
    {
        type            empty;
    }
}


// ************************************************************************* //
