/*--------------------------------*- C++ -*----------------------------------*\
| =========                 |                                                 |
| \\      /  F ield         | foam-extend: Open Source CFD                    |
|  \\    /   O peration     | Version:     3.2                                |
|   \\  /    A nd           | Web:         http://www.foam-extend.org         |
|    \\/     M anipulation  | For copyright notice see file Copyright         |
\*---------------------------------------------------------------------------*/
FoamFile
{
    version     2.0;
    format      ascii;
    class       areaScalarField;
    location    "160";
    object      Uf2;
}
// * * * * * * * * * * * * * * * * * * * * * * * * * * * * * * * * * * * * * //

dimensions      [0 1 -1 0 0 0 0];

internalField   nonuniform List<scalar> 
300
(
0.132756
0.0866851
0.0682515
0.062946
0.0610066
0.0597607
0.0587443
0.0577915
0.0568827
0.0560457
0.0552982
0.0546239
0.0540037
0.0534485
0.0529436
0.0524821
0.0520557
0.0516579
0.0512918
0.0509603
0.0506498
0.0503555
0.0500766
0.0498136
0.0495659
0.0493301
0.0491061
0.0488918
0.0486876
0.0484942
0.0483078
0.0481304
0.0479584
0.0477947
0.0476362
0.0474855
0.0473382
0.0471979
0.0470606
0.0469292
0.0468017
0.0466787
0.0465591
0.0464435
0.0463306
0.0462221
0.0461157
0.0460138
0.0459127
0.0458166
0.0457205
0.0456293
0.0455385
0.0454521
0.0453658
0.0452835
0.0452011
0.0451232
0.0450427
0.0449687
0.0448915
0.0448217
0.0447477
0.0446819
0.0446108
0.0445492
0.0444807
0.0444234
0.0443575
0.0443044
0.0442412
0.0441926
0.0441325
0.0440889
0.0440318
0.0439939
0.043941
0.0439092
0.0438619
0.0438375
0.0437973
0.0437817
0.0437522
0.0437467
0.0437348
0.04374
0.0437505
0.0437768
0.0438102
0.0438731
0.0439562
0.0440605
0.0442212
0.0443878
0.0447139
0.0450104
0.0457923
0.0458702
0.0504802
0.0468791
0.0291839
0.0316001
0.0343385
0.0343155
0.0353921
0.0357545
0.0357088
0.0365169
0.0365963
0.0363999
0.0373663
0.0368193
0.0377324
0.0374106
0.0353969
0.0412213
0.0356287
0.0388226
0.0380412
0.0364941
0.0362208
0.0392539
0.0384091
0.0358265
0.0414322
0.0348089
0.037244
0.0381769
0.0399482
0.0377879
0.0379694
0.0392023
0.0350742
0.0383369
0.0414627
0.0357853
0.0376841
0.0418091
0.0359961
0.0378118
0.0369345
0.0403642
0.0371711
0.0371994
0.0384824
0.0392564
0.0385448
0.0347264
0.0412867
0.0371119
0.0405349
0.0322869
0.0399247
0.040771
0.0359032
0.0445432
0.036552
0.0397501
0.0364872
0.0411241
0.0403118
0.040571
0.0412549
0.0390713
0.0408051
0.0351263
0.0413175
0.0361627
0.041771
0.0354261
0.0408976
0.0376449
0.0382691
0.0415394
0.0359644
0.0427102
0.0356489
0.039038
0.0342625
0.0391286
0.0384514
0.0375956
0.0383177
0.0351015
0.0412258
0.0357867
0.0382401
0.0350588
0.0384148
0.0386801
0.0403072
0.0394125
0.0380026
0.0405407
0.0340614
0.0396769
0.0367785
0.0409115
0.0369284
0.0364655
0.0417758
0.0379695
0.0377692
0.0339626
0.0420841
0.0397916
0.0397332
0.0372452
0.0369771
0.0365512
0.0352204
0.0420392
0.0376906
0.0418633
0.0359555
0.0377846
0.0367159
0.0393594
0.0380476
0.0357369
0.0386713
0.034125
0.0406633
0.0360268
0.0412502
0.0392258
0.0405476
0.0373275
0.0372114
0.0382492
0.0370065
0.0426346
0.0324712
0.0375351
0.0384333
0.0413899
0.0369607
0.0387349
0.0361044
0.0350555
0.038033
0.0358824
0.0371789
0.0339651
0.0418261
0.0378464
0.0410546
0.0375103
0.0391796
0.0354847
0.0371025
0.0394144
0.0351666
0.0393127
0.0332013
0.0385928
0.0345187
0.0416637
0.0371332
0.0420684
0.0402804
0.0367794
0.0373525
0.0370559
0.0378294
0.0341522
0.0415653
0.0358501
0.0407609
0.034988
0.0381968
0.0330643
0.0404262
0.037895
0.0391146
0.0388593
0.036038
0.0360103
0.036234
0.0338596
0.0357927
0.0382188
0.0315846
0.0413667
0.0361475
0.0405114
0.0372135
0.0348166
0.0366012
0.0378494
0.0370171
0.0396253
0.0374906
0.0418678
0.0381912
0.0480147
0.0552816
0.042686
0.0381715
0.0373248
)
;

boundaryField
{
    inlet
    {
        type            calculated;
        value           uniform 0;
    }
    outlet
    {
        type            calculated;
        value           uniform 0;
    }
    sideWall
    {
        type            empty;
    }
}


// ************************************************************************* //
