/*--------------------------------*- C++ -*----------------------------------*\
| =========                 |                                                 |
| \\      /  F ield         | foam-extend: Open Source CFD                    |
|  \\    /   O peration     | Version:     3.2                                |
|   \\  /    A nd           | Web:         http://www.foam-extend.org         |
|    \\/     M anipulation  | For copyright notice see file Copyright         |
\*---------------------------------------------------------------------------*/
FoamFile
{
    version     2.0;
    format      ascii;
    class       areaVectorField;
    location    "160";
    object      uNormal;
}
// * * * * * * * * * * * * * * * * * * * * * * * * * * * * * * * * * * * * * //

dimensions      [0 0 0 0 0 0 0];

internalField   nonuniform List<vector> 
300
(
(-0 -0 1)
(-0 -0 1)
(-0 -0 1)
(-0 -0 1)
(-0 -0 1)
(-0 -0 1)
(-0 -0 1)
(-0 -0 1)
(-0 -0 1)
(-0 -0 1)
(-0 -0 1)
(-0 -0 1)
(-0 -0 1)
(-0 -0 1)
(-0 -0 1)
(-0 -0 1)
(-0 -0 1)
(-0 -0 1)
(-0 -0 1)
(-0 -0 1)
(-0 -0 1)
(-0 -0 1)
(-0 -0 1)
(-0 -0 1)
(-0 -0 1)
(-0 -0 1)
(-0 -0 1)
(-0 -0 1)
(-0 -0 1)
(-0 -0 1)
(-0 -0 1)
(-0 -0 1)
(-0 -0 1)
(-0 -0 1)
(-0 -0 1)
(-0 -0 1)
(-0 -0 1)
(-0 -0 1)
(-0 -0 1)
(-0 -0 1)
(-0 -0 1)
(-0 -0 1)
(-0 -0 1)
(-0 -0 1)
(-0 -0 1)
(-0 -0 1)
(-0 -0 1)
(-0 -0 1)
(-0 -0 1)
(-0 -0 1)
(-0 -0 1)
(-0 -0 1)
(-0 -0 1)
(-0 -0 1)
(-0 -0 1)
(-0 -0 1)
(-0 -0 1)
(-0 -0 1)
(-0 -0 1)
(-0 -0 1)
(-0 -0 1)
(-0 -0 1)
(-0 -0 1)
(-0 -0 1)
(-0 -0 1)
(-0 -0 1)
(-0 -0 1)
(-0 -0 1)
(-0 -0 1)
(-0 -0 1)
(-0 -0 1)
(-0 -0 1)
(-0 -0 1)
(-0 -0 1)
(-0 -0 1)
(-0 -0 1)
(-0 -0 1)
(-0 -0 1)
(-0 -0 1)
(-0 -0 1)
(-0 -0 1)
(-0 -0 1)
(-0 -0 1)
(-0 -0 1)
(-0 -0 1)
(-0 -0 1)
(-0 -0 1)
(-0 -0 1)
(-0 -0 1)
(-0 -0 1)
(-0 -0 1)
(-0 -0 1)
(-0 -0 1)
(-0 -0 1)
(-0 -0 1)
(-0 -0 1)
(-0 -0 1)
(-0 -0 1)
(-0 -0 1)
(0.0745989 6.75738e-18 0.997214)
(0.0984054 -0 0.995146)
(0.0676316 -0 0.99771)
(0.055884 -0 0.998437)
(0.0532382 6.76665e-18 0.998582)
(0.0424372 -0 0.999099)
(0.0408968 -3.3853e-18 0.999163)
(0.0348349 -0 0.999393)
(0.0301394 -0 0.999546)
(0.0291711 -0 0.999574)
(0.0271176 3.38689e-18 0.999632)
(0.0210916 -0 0.999778)
(0.0205213 1.69371e-18 0.999789)
(0.0125548 1.69393e-18 0.999921)
(0.0235548 -1.6936e-18 0.999723)
(0.0129773 -0 0.999916)
(0.00549591 -0 0.999985)
(0.0281131 -3.38679e-18 0.999605)
(-0.0061916 -0 0.999981)
(0.025784 -0 0.999668)
(0.00895652 -0 0.99996)
(0.0170349 -1.69382e-18 0.999855)
(-0.00660192 -8.47014e-19 0.999978)
(0.0242727 -0 0.999705)
(-0.00565407 -0 0.999984)
(-0.00431488 4.23513e-19 0.999991)
(0.0250461 -0 0.999686)
(-0.00776445 -0 0.99997)
(0.00635714 -8.47016e-19 0.99998)
(-0.00951488 -8.46995e-19 0.999955)
(0.0147033 -0 0.999892)
(-0.011674 -0 0.999932)
(0.0166867 -1.69383e-18 0.999861)
(0.0112078 -0 0.999937)
(-0.0160169 -0 0.999872)
(-0.00761534 -0 0.999971)
(0.0170057 1.69382e-18 0.999855)
(-0.0160507 -1.69385e-18 0.999871)
(0.00284924 -0 0.999996)
(0.0165027 -0 0.999864)
(-0.00340312 4.23514e-19 0.999994)
(-0.000901995 -0 1)
(-0.00925012 -0 0.999957)
(0.0192252 -1.69375e-18 0.999815)
(-0.00714176 -0 0.999974)
(-0.000355131 -0 1)
(-0.0135786 -0 0.999908)
(0.0113416 -0 0.999936)
(-0.005155 -0 0.999987)
(-0.0143437 -0 0.999897)
(0.00707281 -0 0.999975)
(-0.00467746 4.23512e-19 0.999989)
(0.012409 -0 0.999923)
(-0.0518953 -0 0.998653)
(0.00974634 -8.46993e-19 0.999953)
(-0.0235671 1.6936e-18 0.999722)
(-0.0240201 1.69358e-18 0.999711)
(0.0109611 -0 0.99994)
(-0.0219302 1.69366e-18 0.99976)
(-0.00105637 -0 0.999999)
(-0.039154 3.38553e-18 0.999233)
(0.00281475 -0 0.999996)
(-0.0266398 -0 0.999645)
(0.00924871 -0 0.999957)
(-0.0121775 -0 0.999926)
(0.00965857 -8.46993e-19 0.999953)
(0.00661891 -0 0.999978)
(-0.00999629 -8.46991e-19 0.99995)
(0.0126561 1.69393e-18 0.99992)
(-0.0120171 -0 0.999928)
(0.0177662 -0 0.999842)
(-0.0278731 3.38682e-18 0.999611)
(0.0250677 3.38707e-18 0.999686)
(-0.029974 -0 0.999551)
(0.0162265 -1.69384e-18 0.999868)
(-0.00495442 -4.23511e-19 0.999988)
(-0.0105001 -0 0.999945)
(0.0244258 -0 0.999702)
(0.000839147 -0 1)
(0.0258215 -0 0.999667)
(-0.0199831 -1.69373e-18 0.9998)
(0.0217808 -1.69366e-18 0.999763)
(-0.0136709 -0 0.999907)
(0.0224068 -0 0.999749)
(-0.00471964 -4.23512e-19 0.999989)
(-0.00383199 -0 0.999993)
(0.0178149 1.6938e-18 0.999841)
(-0.00278729 -2.11757e-19 0.999996)
(0.00946578 -8.46995e-19 0.999955)
(-0.0229989 1.69362e-18 0.999735)
(1.18319e-05 -8.27181e-22 1)
(-0.0210695 1.69369e-18 0.999778)
(0.00956169 8.46994e-19 0.999954)
(-0.0145383 -1.69389e-18 0.999894)
(0.0119656 -0 0.999928)
(0.0166537 -0 0.999861)
(-0.0146524 -0 0.999893)
(0.00396404 -0 0.999992)
(-0.0160113 -0 0.999872)
(0.0266041 -0 0.999646)
(-0.0218841 -0 0.999761)
(-0.00653861 8.47015e-19 0.999979)
(0.00515598 -0 0.999987)
(0.00982635 -8.46992e-19 0.999952)
(-0.00358258 -0 0.999994)
(-0.0272441 -0 0.999629)
(0.0117817 -0 0.999931)
(-0.00300336 -0 0.999995)
(0.0234603 -0 0.999725)
(-0.00421763 4.23513e-19 0.999991)
(0.021537 -0 0.999768)
(-0.0175984 -0 0.999845)
(-0.0185029 -0 0.999829)
(0.00119037 1.05879e-19 0.999999)
(-0.00911448 -0 0.999958)
(0.0230231 -0 0.999735)
(-0.0117159 -8.46975e-19 0.999931)
(0.0137671 -1.69391e-18 0.999905)
(-0.0158898 -0 0.999874)
(0.0263821 -0 0.999652)
(-0.00899353 -0 0.99996)
(0.00647118 -0 0.999979)
(0.00179741 -2.11758e-19 0.999998)
(-0.0155236 1.69386e-18 0.99988)
(0.000717272 -0 1)
(-0.0327798 -3.38631e-18 0.999463)
(0.00384971 -4.23513e-19 0.999993)
(-0.014698 -0 0.999892)
(0.0245001 3.38711e-18 0.9997)
(-0.0105055 -0 0.999945)
(0.0171162 -0 0.999854)
(-0.0182083 -0 0.999834)
(0.0023749 -0 0.999997)
(0.0237465 -1.69359e-18 0.999718)
(-0.0202691 1.69372e-18 0.999795)
(-0.00247951 -0 0.999997)
(-0.0101531 8.46989e-19 0.999948)
(0.0232797 -0 0.999729)
(-0.00325497 4.23514e-19 0.999995)
(0.0318806 3.38641e-18 0.999492)
(-0.00409496 -0 0.999992)
(0.0114964 -8.46977e-19 0.999934)
(0.00366102 -0 0.999993)
(0.00157852 -0 0.999999)
(-0.0120253 -0 0.999928)
(-0.0300326 -0 0.999549)
(0.00449624 -0 0.99999)
(-0.016518 -1.69383e-18 0.999864)
(0.0185669 -0 0.999828)
(-0.00971948 -0 0.999953)
(0.0238667 -0 0.999715)
(-0.0247443 -0 0.999694)
(0.0171012 1.69382e-18 0.999854)
(0.00381505 -0 0.999993)
(0.00248244 -0 0.999997)
(0.0109225 -8.46982e-19 0.99994)
(-0.0188739 -0 0.999822)
(-0.00216755 2.11758e-19 0.999998)
(-0.0362222 -0 0.999344)
(0.005095 -4.23511e-19 0.999987)
(-0.0413575 -3.38523e-18 0.999144)
(0.0225455 -0 0.999746)
(-0.00526768 -0 0.999986)
(0.0201459 -0 0.999797)
(-0.00808341 -0 0.999967)
(0.0177554 -0 0.999842)
(-0.0120016 8.46972e-19 0.999928)
(-0.0183242 -0 0.999832)
(0.0100168 -0 0.99995)
(-0.00900438 -0 0.999959)
(0.0232663 -0 0.999729)
(-0.0122851 1.69394e-18 0.999925)
(0.0123275 1.69394e-18 0.999924)
(-0.039007 -0 0.999239)
(0.0165705 -0 0.999863)
(-0.0306517 -0 0.99953)
(0.023468 -0 0.999725)
(-0.00169582 -0 0.999999)
(0.0248788 3.38708e-18 0.99969)
(-0.000658601 -0 1)
(0.0214447 -0 0.99977)
(-0.0302227 -0 0.999543)
(0.00643511 -0 0.999979)
(-0.0124128 -0 0.999923)
(-0.0364023 -0 0.999337)
(-0.00668267 -8.47014e-19 0.999978)
(-0.0363792 -3.38589e-18 0.999338)
(0.0131165 -0 0.999914)
(-0.0215611 -1.69367e-18 0.999768)
(-0.0150058 1.69388e-18 0.999887)
(-0.0345324 -0 0.999404)
(-0.0248548 -0 0.999691)
(-0.0491701 -6.76807e-18 0.99879)
(-0.0380837 -0 0.999275)
(-0.0704697 6.75942e-18 0.997514)
(-0.0588877 -6.7645e-18 0.998265)
(-0.125945 1.34446e-17 0.992037)
(-0.0637931 6.76246e-18 0.997963)
(-0 -0 1)
(-0 -0 1)
(-0 -0 1)
)
;

boundaryField
{
    inlet
    {
        type            calculated;
        value           uniform (0 0 0);
    }
    outlet
    {
        type            calculated;
        value           uniform (0 0 0);
    }
    sideWall
    {
        type            empty;
    }
}


// ************************************************************************* //
