/*--------------------------------*- C++ -*----------------------------------*\
| =========                 |                                                 |
| \\      /  F ield         | foam-extend: Open Source CFD                    |
|  \\    /   O peration     | Version:     3.2                                |
|   \\  /    A nd           | Web:         http://www.foam-extend.org         |
|    \\/     M anipulation  | For copyright notice see file Copyright         |
\*---------------------------------------------------------------------------*/
FoamFile
{
    version     2.0;
    format      ascii;
    class       areaVectorField;
    location    "160";
    object      Utau;
}
// * * * * * * * * * * * * * * * * * * * * * * * * * * * * * * * * * * * * * //

dimensions      [0 1 -1 0 0 0 0];

internalField   nonuniform List<vector> 
300
(
(2.31223 0 0)
(2.06385 0 0)
(1.71914 0 0)
(1.55785 0 0)
(1.49252 0 0)
(1.4571 0 0)
(1.43089 0 0)
(1.40756 0 0)
(1.38574 0 0)
(1.36563 0 0)
(1.34743 0 0)
(1.33095 0 0)
(1.31586 0 0)
(1.30226 0 0)
(1.28989 0 0)
(1.27854 0 0)
(1.26807 0 0)
(1.25833 0 0)
(1.24935 0 0)
(1.2411 0 0)
(1.23338 0 0)
(1.2261 0 0)
(1.21921 0 0)
(1.21272 0 0)
(1.20659 0 0)
(1.20076 0 0)
(1.19522 0 0)
(1.18994 0 0)
(1.18491 0 0)
(1.18013 0 0)
(1.17554 0 0)
(1.17115 0 0)
(1.16692 0 0)
(1.16289 0 0)
(1.15899 0 0)
(1.15527 0 0)
(1.15165 0 0)
(1.14819 0 0)
(1.14482 3.0782e-39 0)
(1.14158 2.9478e-39 0)
(1.13845 0 0)
(1.13542 0 0)
(1.13248 0 0)
(1.12964 0 0)
(1.12687 -1.96733e-38 0)
(1.1242 0 0)
(1.12159 0 0)
(1.11908 0 0)
(1.1166 0 0)
(1.11423 0 0)
(1.11189 0 0)
(1.10964 -6.30664e-38 0)
(1.10742 0 0)
(1.10528 0 0)
(1.10317 0 0)
(1.10114 0 0)
(1.09913 -2.18167e-37 0)
(1.09721 2.09264e-37 0)
(1.09526 0 0)
(1.09342 0 0)
(1.09156 0 0)
(1.08981 -7.43021e-37 0)
(1.08803 0 0)
(1.08638 0 0)
(1.08467 0 0)
(1.08311 0 0)
(1.08148 0 0)
(1.08001 0 0)
(1.07844 -2.45371e-36 0)
(1.07707 -4.71682e-36 0)
(1.07557 0 0)
(1.07429 0 0)
(1.07287 0 0)
(1.07169 0 0)
(1.07035 0 0)
(1.06929 1.45622e-35 0)
(1.06805 0 0)
(1.06711 2.53502e-35 0)
(1.06599 -2.56336e-35 0)
(1.06521 0 0)
(1.06425 4.28256e-35 0)
(1.06364 2.9242e-35 0)
(1.0629 0 0)
(1.06251 0 0)
(1.0621 -3.15633e-35 0)
(1.06196 0 0)
(1.06198 2.62753e-35 0)
(1.06227 -2.4082e-34 0)
(1.06275 0 0)
(1.06373 0 0)
(1.06516 0 0)
(1.06699 0 0)
(1.06984 0 0)
(1.07301 0 0)
(1.07872 0 0)
(1.08456 0 0)
(1.09765 0 0)
(1.10301 0 0)
(1.17148 0 0)
(1.12771 -6.05529e-20 -0.0843608)
(0.879911 2.66455e-23 -0.0870103)
(0.856355 0 -0.0580496)
(0.878421 -3.26731e-24 -0.0491665)
(0.876419 6.74188e-21 -0.0467252)
(0.887027 0 -0.0376768)
(0.89103 -2.65037e-21 -0.0364708)
(0.890338 0 -0.0310336)
(0.90091 -3.45604e-24 -0.0271653)
(0.902892 -2.48187e-24 -0.0263495)
(0.898981 -6.39873e-22 -0.0243872)
(0.909791 -1.77391e-24 -0.0191932)
(0.907738 3.79279e-21 -0.0186319)
(0.924223 5.39702e-21 -0.0116044)
(0.920787 2.33804e-21 -0.021695)
(0.895836 0 -0.0116265)
(0.959186 0 -0.00527167)
(0.894644 1.14011e-20 -0.0251612)
(0.93467 4.19509e-25 0.00578722)
(0.930549 0 -0.0240012)
(0.909117 1.66547e-24 -0.00814285)
(0.900974 4.60846e-21 -0.0153503)
(0.934666 2.8767e-22 0.00617072)
(0.924731 0 -0.0224523)
(0.897825 0 0.00507645)
(0.972131 1.35738e-21 0.00419467)
(0.892166 0 -0.0223523)
(0.912588 0 0.00708596)
(0.924332 2.02624e-21 -0.00587623)
(0.946321 -1.06044e-21 0.00900454)
(0.926837 0 -0.0136291)
(0.931847 2.41103e-24 0.0108791)
(0.942 8.74898e-21 -0.0157211)
(0.885506 2.56341e-24 -0.00992517)
(0.927578 0 0.0148589)
(0.978275 3.31076e-24 0.00745011)
(0.908912 -5.784e-21 -0.0154589)
(0.925329 -1.68571e-21 0.0148541)
(0.973842 0 -0.00277472)
(0.901634 0 -0.0148814)
(0.922053 1.95039e-21 0.00313788)
(0.921967 0 0.00083161)
(0.965032 0 0.00892704)
(0.920677 1.11831e-20 -0.0177035)
(0.911507 0 0.00650993)
(0.927556 0 0.000329404)
(0.94368 0 0.0128151)
(0.939904 0 -0.0106607)
(0.894979 0 0.00461368)
(0.967759 0 0.0138827)
(0.917579 0 -0.00649002)
(0.949049 -8.59643e-22 0.00443918)
(0.854127 1.71543e-24 -0.0105997)
(0.949876 0 0.0493606)
(0.974366 3.46574e-21 -0.00949696)
(0.910277 3.48615e-22 0.0214586)
(1.01277 -4.22324e-21 0.0243338)
(0.919446 0 -0.0100787)
(0.949786 7.36656e-21 0.020834)
(0.919208 -5.24704e-25 0.000971022)
(0.983656 1.56062e-20 0.0385436)
(0.97804 0 -0.00275295)
(0.975005 0 0.0259832)
(0.982396 0 -0.00908628)
(0.955266 2.33343e-24 0.0116336)
(0.974454 7.29376e-22 -0.00941227)
(0.907909 0 -0.00600949)
(0.979538 -1.63664e-21 0.00979223)
(0.917487 -9.134e-21 -0.0116127)
(0.974398 -1.87503e-24 0.0117103)
(0.90477 -9.23698e-25 -0.0160769)
(0.971746 2.10347e-20 0.0270961)
(0.935598 -1.3592e-20 -0.0234607)
(0.93686 1.17692e-23 0.0280941)
(0.975905 8.30308e-21 -0.0158376)
(0.912768 -1.68765e-21 0.00452229)
(0.997708 0 0.0104766)
(0.915074 6.03743e-24 -0.022358)
(0.944816 0 -0.00079284)
(0.880587 4.86506e-24 -0.0227457)
(0.931791 6.28065e-22 0.0186238)
(0.929449 4.17525e-21 -0.020249)
(0.922621 8.23602e-25 0.0126143)
(0.932274 0 -0.0208945)
(0.891906 -3.41283e-22 0.00420952)
(0.960291 0 0.00367985)
(0.895536 -5.83111e-21 -0.0159564)
(0.921587 -6.34256e-22 0.00256874)
(0.889074 -1.79797e-21 -0.00841615)
(0.932167 7.70075e-21 0.0214445)
(0.938613 1.1799e-24 -1.11056e-05)
(0.957394 6.62679e-22 0.0201763)
(0.952678 -2.98929e-22 -0.00910962)
(0.938503 -6.31092e-21 0.0136457)
(0.962997 0 -0.0115236)
(0.877432 -4.63965e-24 -0.0146145)
(0.942927 0 0.0138176)
(0.922399 1.5958e-24 -0.00365646)
(0.972197 0 0.0155681)
(0.918825 0 -0.0244531)
(0.904581 0 0.0198006)
(0.97316 -1.56172e-21 0.00636324)
(0.930113 0 -0.0047957)
(0.923439 1.47348e-22 -0.00907447)
(0.88345 0 0.00316505)
(0.982764 0 0.0267845)
(0.95838 0 -0.0112922)
(0.951107 0 0.00285653)
(0.919142 -3.77073e-24 -0.0215692)
(0.914964 1.15866e-21 0.00385901)
(0.906288 0 -0.0195233)
(0.887637 0 0.0156235)
(0.9729 -6.72915e-24 0.0180046)
(0.929526 1.65006e-23 -0.00110648)
(0.979005 0 0.00892349)
(0.908827 0 -0.0209296)
(0.925545 -2.99391e-21 0.0108443)
(0.915149 2.96728e-21 -0.0126001)
(0.94301 0 0.0149861)
(0.922328 0 -0.0243414)
(0.893284 8.93772e-25 0.0080341)
(0.931153 0 -0.00602578)
(0.87642 1.12214e-22 -0.00157529)
(0.947534 -1.0513e-21 0.014711)
(0.898587 0 -0.000644531)
(0.968607 -2.46543e-20 0.0317679)
(0.957575 -6.2975e-22 -0.00368641)
(0.97391 0 0.0143161)
(0.929422 -1.92714e-20 -0.0227777)
(0.916508 0 0.00962888)
(0.924027 0 -0.0158181)
(0.911069 0 0.0165917)
(0.982217 0 -0.00233268)
(0.862978 1.71651e-21 -0.0204985)
(0.916641 1.13579e-20 0.0185833)
(0.939353 -5.27122e-25 0.00232915)
(0.978643 -7.2967e-22 0.00993672)
(0.918502 0 -0.0213883)
(0.935091 7.68506e-22 0.00304371)
(0.900821 -1.09436e-20 -0.0287334)
(0.879793 0 0.00360275)
(0.911175 2.81746e-21 -0.0104759)
(0.884738 0 -0.00323907)
(0.901529 0 -0.00142308)
(0.872033 -2.78086e-24 0.0104872)
(0.975524 0 0.0293108)
(0.936486 0 -0.00421071)
(0.965269 1.65344e-21 0.0159465)
(0.920549 -3.27004e-24 -0.0170946)
(0.939287 0 0.00912981)
(0.894879 0 -0.0213639)
(0.913623 -2.05921e-24 0.0226139)
(0.941245 -8.64806e-21 -0.0160988)
(0.883673 0 -0.00337128)
(0.925684 0 -0.00229797)
(0.857949 -7.58541e-22 -0.00937149)
(0.922391 5.41412e-24 0.0174122)
(0.883025 3.47223e-22 0.00191401)
(0.967901 0 0.0350825)
(0.919096 2.02367e-21 -0.00468286)
(0.978745 -1.25482e-20 0.0405131)
(0.965622 -4.79932e-24 -0.0217759)
(0.919521 7.71868e-25 0.00484381)
(0.914917 1.18528e-24 -0.0184356)
(0.906315 0 0.00732636)
(0.914744 2.30461e-24 -0.0162442)
(0.878286 5.22015e-21 0.0105415)
(0.969572 0 0.0177696)
(0.904697 0 -0.00906265)
(0.954255 0 0.00859282)
(0.88521 6.81742e-25 -0.0206011)
(0.919001 6.01006e-21 0.0112908)
(0.860106 -1.48852e-21 -0.0106038)
(0.946622 -5.93568e-24 0.036953)
(0.921666 0 -0.0152746)
(0.937425 0 0.0287471)
(0.938976 0 -0.022042)
(0.902176 0 0.00152993)
(0.888734 -1.7275e-20 -0.0221175)
(0.885895 -1.29068e-25 0.000583451)
(0.85246 5.44803e-25 -0.0182849)
(0.878571 0 0.0265649)
(0.911881 0 -0.00586818)
(0.831453 0 0.0103214)
(0.950068 0 0.0346076)
(0.903613 -1.59669e-21 0.00603868)
(0.955218 -1.55725e-20 0.0347731)
(0.917782 4.13193e-24 -0.0120392)
(0.878378 -4.66733e-21 0.0189432)
(0.895569 1.16396e-21 0.0134403)
(0.916716 2.83452e-24 0.0316753)
(0.910093 -2.98353e-24 0.0226272)
(0.945896 -1.13066e-20 0.0465661)
(0.925497 0 0.035272)
(0.983063 1.37837e-20 0.0694488)
(0.945971 -7.30789e-21 0.055803)
(1.07846 1.06455e-19 0.136917)
(1.22722 -3.31632e-20 0.0784478)
(1.08073 0 0)
(0.984202 6.94587e-28 0)
(0.948105 0 0)
)
;

boundaryField
{
    inlet
    {
        type            calculated;
        value           uniform (0 0 0);
    }
    outlet
    {
        type            calculated;
        value           uniform (0 0 0);
    }
    sideWall
    {
        type            empty;
    }
}


// ************************************************************************* //
