/*--------------------------------*- C++ -*----------------------------------*\
| =========                 |                                                 |
| \\      /  F ield         | foam-extend: Open Source CFD                    |
|  \\    /   O peration     | Version:     3.2                                |
|   \\  /    A nd           | Web:         http://www.foam-extend.org         |
|    \\/     M anipulation  | For copyright notice see file Copyright         |
\*---------------------------------------------------------------------------*/
FoamFile
{
    version     2.0;
    format      ascii;
    class       areaScalarField;
    location    "160";
    object      volA;
}
// * * * * * * * * * * * * * * * * * * * * * * * * * * * * * * * * * * * * * //

dimensions      [0 3 0 0 0 0 0];

internalField   nonuniform List<scalar> 
300
(
4.63285e-05
4.63285e-05
4.63285e-05
4.63285e-05
4.63285e-05
4.63285e-05
4.63285e-05
4.63285e-05
4.63285e-05
4.63285e-05
4.63285e-05
4.63285e-05
4.63285e-05
4.63285e-05
4.63285e-05
4.63285e-05
4.63285e-05
4.63285e-05
4.63285e-05
4.63285e-05
4.63285e-05
4.63285e-05
4.63285e-05
4.63285e-05
4.63285e-05
4.63285e-05
4.63285e-05
4.63285e-05
4.63285e-05
4.63285e-05
4.63285e-05
4.63285e-05
4.63285e-05
4.63285e-05
4.63285e-05
4.63285e-05
4.63285e-05
4.63285e-05
4.63285e-05
4.63285e-05
4.63285e-05
4.63285e-05
4.63285e-05
4.63285e-05
4.63285e-05
4.63285e-05
4.63285e-05
4.63285e-05
4.63285e-05
4.63285e-05
4.63285e-05
4.63285e-05
4.63285e-05
4.63285e-05
4.63285e-05
4.63285e-05
4.63285e-05
4.63285e-05
4.63285e-05
4.63285e-05
4.63285e-05
4.63285e-05
4.63285e-05
4.63285e-05
4.63285e-05
4.63285e-05
4.63285e-05
4.63285e-05
4.63285e-05
4.63285e-05
4.63285e-05
4.63285e-05
4.63285e-05
4.63285e-05
4.63285e-05
4.63285e-05
4.63285e-05
4.63285e-05
4.63285e-05
4.63285e-05
4.63285e-05
4.63285e-05
4.63285e-05
4.63285e-05
4.63285e-05
4.63285e-05
4.63285e-05
4.63285e-05
4.63285e-05
4.63285e-05
4.63285e-05
4.63285e-05
4.63285e-05
4.63285e-05
4.63285e-05
4.63285e-05
4.63285e-05
4.63285e-05
4.63285e-05
4.55891e-05
4.71672e-05
4.61794e-05
4.68121e-05
4.5999e-05
4.69243e-05
4.58216e-05
4.70032e-05
4.57673e-05
4.6948e-05
4.57717e-05
4.63963e-05
4.61509e-05
4.6181e-05
4.59985e-05
4.58514e-05
4.57585e-05
4.44772e-05
4.53666e-05
4.39883e-05
4.41026e-05
4.32725e-05
4.36512e-05
4.35408e-05
4.21203e-05
4.4319e-05
4.16863e-05
4.24278e-05
4.13867e-05
4.36512e-05
4.2312e-05
4.21783e-05
4.2839e-05
3.98941e-05
4.19194e-05
4.2865e-05
4.23833e-05
4.14948e-05
4.29507e-05
4.10408e-05
4.16713e-05
4.10652e-05
4.17866e-05
4.19917e-05
3.98758e-05
4.22491e-05
4.04854e-05
4.29623e-05
4.09003e-05
4.30112e-05
4.1173e-05
4.20066e-05
4.24361e-05
4.17974e-05
4.57622e-05
4.20582e-05
4.82837e-05
4.55772e-05
4.75268e-05
4.80744e-05
4.86514e-05
5.03675e-05
4.92962e-05
5.14253e-05
4.96224e-05
5.2436e-05
4.90651e-05
5.13628e-05
4.93416e-05
5.02216e-05
4.86851e-05
4.91991e-05
4.9013e-05
4.88564e-05
4.99917e-05
4.86177e-05
5.03928e-05
4.7661e-05
5.06571e-05
4.60435e-05
4.80575e-05
4.62343e-05
4.7243e-05
4.75272e-05
4.41715e-05
4.83946e-05
4.45828e-05
4.71195e-05
4.43929e-05
4.69634e-05
4.60117e-05
4.76443e-05
4.80209e-05
4.71191e-05
4.94719e-05
4.53541e-05
4.84668e-05
4.69878e-05
4.78129e-05
4.73363e-05
4.55548e-05
4.86148e-05
4.63946e-05
4.81465e-05
4.60629e-05
4.97644e-05
4.75293e-05
4.86161e-05
4.64513e-05
4.66368e-05
4.65415e-05
4.57603e-05
4.83615e-05
4.64505e-05
4.961e-05
4.58243e-05
4.75469e-05
4.5336e-05
4.64724e-05
4.73479e-05
4.4031e-05
4.83234e-05
4.50496e-05
4.79988e-05
4.68116e-05
4.83264e-05
4.86065e-05
4.82663e-05
4.80502e-05
4.72913e-05
4.8671e-05
4.70039e-05
4.93603e-05
4.66166e-05
4.84788e-05
4.74042e-05
4.90888e-05
4.68474e-05
4.72078e-05
4.5996e-05
4.38955e-05
4.65366e-05
4.38236e-05
4.62924e-05
4.39731e-05
4.79328e-05
4.61007e-05
4.8454e-05
4.65533e-05
4.70531e-05
4.69671e-05
4.48053e-05
4.84142e-05
4.36196e-05
4.89227e-05
4.52962e-05
4.72271e-05
4.71509e-05
4.75675e-05
4.84955e-05
4.85987e-05
4.99489e-05
4.65681e-05
4.95818e-05
4.61211e-05
4.99671e-05
4.63401e-05
5.09502e-05
4.70577e-05
5.07588e-05
4.6032e-05
4.85021e-05
4.61394e-05
4.77387e-05
4.76094e-05
4.64846e-05
4.88486e-05
4.35779e-05
4.86922e-05
4.17379e-05
4.93159e-05
4.09948e-05
5.06426e-05
4.31413e-05
5.06105e-05
4.92196e-05
5.10455e-05
4.98417e-05
4.36047e-05
4.90832e-05
4.4076e-05
4.85317e-05
4.46653e-05
4.79265e-05
4.53847e-05
4.72832e-05
4.66902e-05
4.56811e-05
4.63285e-05
4.63285e-05
4.63285e-05
)
;

boundaryField
{
    inlet
    {
        type            calculated;
        value           uniform 0;
    }
    outlet
    {
        type            calculated;
        value           uniform 0;
    }
    sideWall
    {
        type            empty;
    }
}


// ************************************************************************* //
