/*--------------------------------*- C++ -*----------------------------------*\
| =========                 |                                                 |
| \\      /  F ield         | foam-extend: Open Source CFD                    |
|  \\    /   O peration     | Version:     3.2                                |
|   \\  /    A nd           | Web:         http://www.foam-extend.org         |
|    \\/     M anipulation  | For copyright notice see file Copyright         |
\*---------------------------------------------------------------------------*/
FoamFile
{
    version     2.0;
    format      ascii;
    class       areaScalarField;
    location    "160";
    object      volC;
}
// * * * * * * * * * * * * * * * * * * * * * * * * * * * * * * * * * * * * * //

dimensions      [0 3 0 0 0 0 0];

internalField   nonuniform List<scalar> 
300
(
5.36715e-05
5.36715e-05
5.36715e-05
5.36715e-05
5.36715e-05
5.36715e-05
5.36715e-05
5.36715e-05
5.36715e-05
5.36715e-05
5.36715e-05
5.36715e-05
5.36715e-05
5.36715e-05
5.36715e-05
5.36715e-05
5.36715e-05
5.36715e-05
5.36715e-05
5.36715e-05
5.36715e-05
5.36715e-05
5.36715e-05
5.36715e-05
5.36715e-05
5.36715e-05
5.36715e-05
5.36715e-05
5.36715e-05
5.36715e-05
5.36715e-05
5.36715e-05
5.36715e-05
5.36715e-05
5.36715e-05
5.36715e-05
5.36715e-05
5.36715e-05
5.36715e-05
5.36715e-05
5.36715e-05
5.36715e-05
5.36715e-05
5.36715e-05
5.36715e-05
5.36715e-05
5.36715e-05
5.36715e-05
5.36715e-05
5.36715e-05
5.36715e-05
5.36715e-05
5.36715e-05
5.36715e-05
5.36715e-05
5.36715e-05
5.36715e-05
5.36715e-05
5.36715e-05
5.36715e-05
5.36715e-05
5.36715e-05
5.36715e-05
5.36715e-05
5.36715e-05
5.36715e-05
5.36715e-05
5.36715e-05
5.36715e-05
5.36715e-05
5.36715e-05
5.36715e-05
5.36715e-05
5.36715e-05
5.36715e-05
5.36715e-05
5.36715e-05
5.36715e-05
5.36715e-05
5.36715e-05
5.36715e-05
5.36715e-05
5.36715e-05
5.36715e-05
5.36715e-05
5.36715e-05
5.36715e-05
5.36715e-05
5.36715e-05
5.36715e-05
5.36715e-05
5.36715e-05
5.36715e-05
5.36715e-05
5.36715e-05
5.36715e-05
5.36715e-05
5.36715e-05
5.36715e-05
5.28149e-05
4.70778e-05
4.36469e-05
3.985e-05
3.79146e-05
3.4549e-05
3.35596e-05
3.04639e-05
3.00619e-05
2.7395e-05
2.71588e-05
2.53177e-05
2.45214e-05
2.36549e-05
2.29481e-05
2.21684e-05
2.17947e-05
2.22609e-05
2.0798e-05
2.17069e-05
2.07045e-05
2.08915e-05
2.0244e-05
1.99298e-05
2.08669e-05
1.89171e-05
2.10503e-05
1.98588e-05
2.09345e-05
1.87505e-05
1.99639e-05
2.00193e-05
1.92377e-05
2.14803e-05
1.95794e-05
1.92185e-05
1.94726e-05
2.03362e-05
1.92027e-05
2.06369e-05
1.96708e-05
2.03841e-05
1.99192e-05
1.94734e-05
2.12773e-05
1.90899e-05
2.12076e-05
1.8785e-05
2.06891e-05
1.90713e-05
2.10865e-05
2.01921e-05
1.95734e-05
2.12812e-05
1.82899e-05
2.23544e-05
1.732e-05
2.03381e-05
1.86748e-05
1.86862e-05
1.91671e-05
1.83085e-05
2e-05
1.82843e-05
2.01627e-05
1.74102e-05
2.03723e-05
1.8161e-05
2.01177e-05
1.92213e-05
2.062e-05
2.03749e-05
2.06261e-05
2.09149e-05
2.01015e-05
2.11853e-05
1.97995e-05
2.21999e-05
1.85513e-05
2.25209e-05
2.03517e-05
2.21325e-05
2.0911e-05
2.04191e-05
2.33162e-05
1.93065e-05
2.27789e-05
1.9856e-05
2.24184e-05
2.02012e-05
2.17099e-05
2.0619e-05
2.05182e-05
2.15485e-05
1.92577e-05
2.26645e-05
1.94996e-05
2.12391e-05
2.07235e-05
2.09504e-05
2.26061e-05
2.02419e-05
2.24961e-05
2.0372e-05
2.22967e-05
1.93913e-05
2.19923e-05
2.06816e-05
2.23534e-05
2.16683e-05
2.13456e-05
2.2023e-05
2.03258e-05
2.2658e-05
1.96995e-05
2.31527e-05
2.11337e-05
2.32951e-05
2.2214e-05
2.10911e-05
2.3952e-05
1.97214e-05
2.27871e-05
2.01892e-05
2.17384e-05
2.10629e-05
2.14697e-05
2.20883e-05
2.20727e-05
2.24643e-05
2.09256e-05
2.26213e-05
2.06495e-05
2.27594e-05
2.08048e-05
2.24343e-05
2.10689e-05
2.29973e-05
2.21175e-05
2.26478e-05
2.4019e-05
2.11967e-05
2.35268e-05
2.09266e-05
2.35118e-05
2.063e-05
2.30706e-05
2.10268e-05
2.28787e-05
2.2149e-05
2.18975e-05
2.40826e-05
2.0654e-05
2.4916e-05
1.94552e-05
2.27504e-05
2.10264e-05
2.16167e-05
2.22062e-05
2.20121e-05
2.28765e-05
2.19545e-05
2.48859e-05
2.15136e-05
2.46605e-05
2.05815e-05
2.40585e-05
2.02136e-05
2.43054e-05
2.05783e-05
2.49648e-05
2.22061e-05
2.45678e-05
2.36852e-05
2.43316e-05
2.58328e-05
2.36346e-05
2.8341e-05
2.26689e-05
2.89954e-05
2.09138e-05
2.94706e-05
2.03871e-05
2.80419e-05
2.18362e-05
2.42585e-05
2.35574e-05
2.53004e-05
3.17598e-05
2.71867e-05
3.34705e-05
3.04784e-05
3.62705e-05
3.51552e-05
4.05694e-05
4.18527e-05
4.76913e-05
5.29216e-05
5.36715e-05
5.36715e-05
5.36715e-05
)
;

boundaryField
{
    inlet
    {
        type            calculated;
        value           uniform 0;
    }
    outlet
    {
        type            calculated;
        value           uniform 0;
    }
    sideWall
    {
        type            empty;
    }
}


// ************************************************************************* //
