/*--------------------------------*- C++ -*----------------------------------*\
| =========                 |                                                 |
| \\      /  F ield         | foam-extend: Open Source CFD                    |
|  \\    /   O peration     | Version:     3.2                                |
|   \\  /    A nd           | Web:         http://www.foam-extend.org         |
|    \\/     M anipulation  | For copyright notice see file Copyright         |
\*---------------------------------------------------------------------------*/
FoamFile
{
    version     2.0;
    format      ascii;
    class       areaVectorField;
    location    "160";
    object      Wt;
}
// * * * * * * * * * * * * * * * * * * * * * * * * * * * * * * * * * * * * * //

dimensions      [1 1 -2 0 0 0 0];

internalField   nonuniform List<vector> 
300
(
(-0 0 0)
(-0 0 0)
(-0 0 0)
(-0 0 0)
(-0 0 0)
(-0 0 0)
(-0 0 0)
(-0 0 0)
(-0 0 0)
(-0 0 0)
(-0 0 0)
(-0 0 0)
(-0 0 0)
(-0 0 0)
(-0 0 0)
(-0 0 0)
(-0 0 0)
(-0 0 0)
(-0 0 0)
(-0 0 0)
(-0 0 0)
(-0 0 0)
(-0 0 0)
(-0 0 0)
(-0 0 0)
(-0 0 0)
(-0 0 0)
(-0 0 0)
(-0 0 0)
(-0 0 0)
(-0 0 0)
(-0 0 0)
(-0 0 0)
(-0 0 0)
(-0 0 0)
(-0 0 0)
(-0 0 0)
(-0 0 0)
(-0 0 0)
(-0 0 0)
(-0 0 0)
(-0 0 0)
(-0 0 0)
(-0 0 0)
(-0 0 0)
(-0 0 0)
(-0 0 0)
(-0 0 0)
(-0 0 0)
(-0 0 0)
(-0 0 0)
(-0 0 0)
(-0 0 0)
(-0 0 0)
(-0 0 0)
(-0 0 0)
(-0 0 0)
(-0 0 0)
(-0 0 0)
(-0 0 0)
(-0 0 0)
(-0 0 0)
(-0 0 0)
(-0 0 0)
(-0 0 0)
(-0 0 0)
(-0 0 0)
(-0 0 0)
(-0 0 0)
(-0 0 0)
(-0 0 0)
(-0 0 0)
(-0 0 0)
(-0 0 0)
(-0 0 0)
(-0 0 0)
(-0 0 0)
(-0 0 0)
(-0 0 0)
(-0 0 0)
(-0 0 0)
(-0 0 0)
(-0 0 0)
(-0 0 0)
(-0 0 0)
(-0 0 0)
(-0 0 0)
(-0 0 0)
(-0 0 0)
(-0 0 0)
(-0 0 0)
(-0 0 0)
(-0 0 0)
(-0 0 0)
(-0 0 0)
(-0 0 0)
(-0 0 0)
(-0 0 0)
(-0 0 0)
(3.60774e-05 3.268e-21 -2.69886e-06)
(4.7492e-05 0 -4.69627e-06)
(3.27242e-05 0 -2.21827e-06)
(2.70597e-05 0 -1.51457e-06)
(2.57823e-05 3.27697e-21 -1.37455e-06)
(2.05622e-05 0 -8.73389e-07)
(1.98171e-05 -1.64039e-21 -8.11137e-07)
(1.68836e-05 0 -5.88495e-07)
(1.46101e-05 0 -4.40539e-07)
(1.41411e-05 0 -4.12686e-07)
(1.31464e-05 1.64193e-21 -3.5663e-07)
(1.02265e-05 0 -2.15742e-07)
(9.95012e-06 8.21225e-22 -2.04232e-07)
(6.08824e-06 8.21441e-22 -7.64428e-08)
(1.14202e-05 -8.21115e-22 -2.69075e-07)
(6.29306e-06 0 -8.16738e-08)
(2.66531e-06 0 -1.46485e-08)
(1.36286e-05 -1.64184e-21 -3.83295e-07)
(-3.00268e-06 0 -1.85918e-08)
(1.25003e-05 0 -3.22414e-07)
(4.34347e-06 0 -3.89039e-08)
(8.26024e-06 -8.21332e-22 -1.40733e-07)
(-3.20166e-06 -4.10768e-22 -2.11376e-08)
(1.17681e-05 0 -2.85727e-07)
(-2.74201e-06 0 -1.55038e-08)
(-2.09257e-06 2.05389e-22 -9.02927e-09)
(1.21428e-05 0 -3.04224e-07)
(-3.76541e-06 0 -2.92372e-08)
(3.08296e-06 -4.10769e-22 -1.95992e-08)
(-4.61422e-06 -4.10748e-22 -4.39057e-08)
(7.1299e-06 0 -1.04845e-07)
(-5.66115e-06 0 -6.60927e-08)
(8.09144e-06 -8.21342e-22 -1.35039e-07)
(5.43509e-06 0 -6.09191e-08)
(-7.76673e-06 0 -1.24415e-07)
(-3.6931e-06 0 -2.8125e-08)
(8.24604e-06 8.21333e-22 -1.4025e-07)
(-7.78311e-06 -8.21359e-22 -1.2494e-07)
(1.38179e-06 0 -3.93707e-09)
(8.00221e-06 0 -1.32076e-07)
(-1.6504e-06 2.0539e-22 -5.61656e-09)
(-4.3744e-07 0 -3.94569e-10)
(-4.48584e-06 0 -4.14963e-08)
(9.32191e-06 -8.21267e-22 -1.79249e-07)
(-3.46345e-06 0 -2.47358e-08)
(-1.72228e-07 0 -6.11634e-11)
(-6.58461e-06 0 -8.94182e-08)
(5.49998e-06 0 -6.23825e-08)
(-2.49998e-06 0 -1.28876e-08)
(-6.95556e-06 0 -9.97789e-08)
(3.43001e-06 0 -2.42604e-08)
(-2.2684e-06 2.05388e-22 -1.06105e-08)
(6.01754e-06 0 -7.46776e-08)
(-2.51337e-05 0 -1.30608e-06)
(4.72646e-06 -4.10746e-22 -4.60678e-08)
(-1.14262e-05 8.21115e-22 -2.69357e-07)
(-1.16457e-05 8.21097e-22 -2.79812e-07)
(5.31548e-06 0 -5.8267e-08)
(-1.06329e-05 8.21176e-22 -2.33238e-07)
(-5.12306e-07 0 -5.41184e-10)
(-1.89739e-05 1.64062e-21 -7.43475e-07)
(1.36507e-06 0 -3.84234e-09)
(-1.29149e-05 0 -3.44173e-07)
(4.48515e-06 0 -4.14836e-08)
(-5.90529e-06 0 -7.1917e-08)
(4.6839e-06 -4.10747e-22 -4.52419e-08)
(3.2099e-06 0 -2.12465e-08)
(-4.84766e-06 -4.10744e-22 -4.8461e-08)
(6.13733e-06 8.21439e-22 -7.76809e-08)
(-5.82752e-06 0 -7.00351e-08)
(8.61472e-06 0 -1.53075e-07)
(-1.35123e-05 1.64187e-21 -3.76777e-07)
(1.21533e-05 1.64211e-21 -3.04751e-07)
(-1.453e-05 0 -4.35717e-07)
(7.86834e-06 -8.21355e-22 -1.27693e-07)
(-2.40272e-06 -2.05388e-22 -1.19042e-08)
(-5.09196e-06 0 -5.34691e-08)
(1.18422e-05 0 -2.89342e-07)
(4.06961e-07 0 -3.415e-10)
(1.25185e-05 0 -3.23355e-07)
(-9.68926e-06 -8.21243e-22 -1.9366e-07)
(1.05605e-05 -8.21181e-22 -2.30072e-07)
(-6.62937e-06 0 -9.06382e-08)
(1.08639e-05 0 -2.43485e-07)
(-2.28886e-06 -2.05388e-22 -1.08027e-08)
(-1.85839e-06 0 -7.12138e-09)
(8.63834e-06 8.2131e-22 -1.53916e-07)
(-1.35175e-06 -1.02696e-22 -3.76773e-09)
(4.59041e-06 -4.10749e-22 -4.34537e-08)
(-1.11508e-05 8.21136e-22 -2.56524e-07)
(5.73812e-09 -4.01158e-25 -6.78928e-14)
(-1.02158e-05 8.21206e-22 -2.1529e-07)
(4.63692e-06 4.10748e-22 -4.43388e-08)
(-7.04991e-06 -8.21397e-22 -1.02505e-07)
(5.80253e-06 0 -6.94357e-08)
(8.07543e-06 0 -1.34505e-07)
(-7.10519e-06 0 -1.04119e-07)
(1.92243e-06 0 -7.62063e-09)
(-7.764e-06 0 -1.24327e-07)
(1.28976e-05 0 -3.4325e-07)
(-1.06106e-05 0 -2.32258e-07)
(-3.17096e-06 4.10768e-22 -2.07341e-08)
(2.50046e-06 0 -1.28925e-08)
(4.76525e-06 -4.10746e-22 -4.68273e-08)
(-1.73743e-06 0 -6.22454e-09)
(-1.32077e-05 0 -3.59965e-07)
(5.71339e-06 0 -6.73184e-08)
(-1.45653e-06 0 -4.37451e-09)
(1.13744e-05 0 -2.6692e-07)
(-2.0454e-06 2.05389e-22 -8.62684e-09)
(1.04424e-05 0 -2.2495e-07)
(-8.53339e-06 0 -1.50198e-07)
(-8.97183e-06 0 -1.66034e-07)
(5.77293e-07 5.13481e-23 -6.87192e-10)
(-4.42006e-06 0 -4.02882e-08)
(1.11626e-05 0 -2.57065e-07)
(-5.68146e-06 -4.10729e-22 -6.65678e-08)
(6.676e-06 -8.21415e-22 -9.19179e-08)
(-7.70511e-06 0 -1.22448e-07)
(1.279e-05 0 -3.37545e-07)
(-4.36141e-06 0 -3.92261e-08)
(3.13826e-06 0 -2.03087e-08)
(8.71689e-07 -1.02696e-22 -1.56679e-09)
(-7.52759e-06 8.21373e-22 -1.1687e-07)
(3.47855e-07 0 -2.49507e-10)
(-1.58887e-05 -1.64138e-21 -5.21109e-07)
(1.86698e-06 -2.0539e-22 -7.18739e-09)
(-7.12734e-06 0 -1.04769e-07)
(1.18782e-05 1.64216e-21 -2.91105e-07)
(-5.09455e-06 0 -5.35236e-08)
(8.29961e-06 0 -1.42078e-07)
(-8.829e-06 0 -1.60788e-07)
(1.15175e-06 0 -2.73531e-09)
(1.15131e-05 -8.21108e-22 -2.73473e-07)
(-9.82786e-06 8.21233e-22 -1.99242e-07)
(-1.20249e-06 0 -2.98159e-09)
(-4.92367e-06 4.10743e-22 -4.99928e-08)
(1.12869e-05 0 -2.62827e-07)
(-1.57856e-06 2.05391e-22 -5.13818e-09)
(1.54533e-05 1.64147e-21 -4.92911e-07)
(-1.98591e-06 0 -8.13231e-09)
(5.57503e-06 -4.10731e-22 -6.40968e-08)
(1.77547e-06 0 -6.50009e-09)
(7.65534e-07 0 -1.20841e-09)
(-5.83147e-06 0 -7.013e-08)
(-1.45584e-05 0 -4.37423e-07)
(2.18052e-06 0 -9.80423e-09)
(-8.00965e-06 -8.21347e-22 -1.32321e-07)
(9.00281e-06 0 -1.67183e-07)
(-4.71343e-06 0 -4.58143e-08)
(1.15713e-05 0 -2.76249e-07)
(-1.19966e-05 0 -2.96938e-07)
(8.29235e-06 8.21331e-22 -1.4183e-07)
(1.85017e-06 0 -7.05853e-09)
(1.20391e-06 0 -2.98864e-09)
(5.29676e-06 -4.10736e-22 -5.78572e-08)
(-9.15163e-06 0 -1.72758e-07)
(-1.0512e-06 1.02696e-22 -2.27853e-09)
(-1.75552e-05 0 -6.36305e-07)
(2.47089e-06 -2.05387e-22 -1.25894e-08)
(-2.004e-05 -1.64033e-21 -8.29514e-07)
(1.09311e-05 0 -2.4651e-07)
(-2.55463e-06 0 -1.34572e-08)
(9.76816e-06 0 -1.96828e-07)
(-3.92008e-06 0 -3.16887e-08)
(8.6095e-06 0 -1.5289e-07)
(-5.81997e-06 4.10726e-22 -6.98537e-08)
(-8.88518e-06 0 -1.62841e-07)
(4.85761e-06 0 -4.86603e-08)
(-4.36668e-06 0 -3.93208e-08)
(1.12804e-05 0 -2.62524e-07)
(-5.95743e-06 8.21447e-22 -7.31929e-08)
(5.97802e-06 8.21446e-22 -7.36997e-08)
(-1.89028e-05 0 -7.37904e-07)
(8.03511e-06 0 -1.33164e-07)
(-1.48581e-05 0 -4.55641e-07)
(1.13781e-05 0 -2.67095e-07)
(-8.22419e-07 0 -1.39467e-09)
(1.20618e-05 1.64212e-21 -3.00176e-07)
(-3.19401e-07 0 -2.10358e-10)
(1.03976e-05 0 -2.23025e-07)
(-1.46504e-05 0 -4.42977e-07)
(3.12077e-06 0 -2.00829e-08)
(-6.01936e-06 0 -7.47227e-08)
(-1.76423e-05 0 -6.42645e-07)
(-3.24082e-06 -4.10767e-22 -2.16578e-08)
(-1.76312e-05 -1.64097e-21 -6.41833e-07)
(6.36057e-06 0 -8.34358e-08)
(-1.04541e-05 -8.21189e-22 -2.25454e-07)
(-7.27656e-06 8.21386e-22 -1.09203e-07)
(-1.67372e-05 0 -5.78319e-07)
(-1.20501e-05 0 -2.99595e-07)
(-2.38172e-05 -3.27834e-21 -1.17251e-06)
(-1.84561e-05 0 -7.03386e-07)
(-3.40907e-05 3.26996e-21 -2.40835e-06)
(-2.85092e-05 -3.27489e-21 -1.68176e-06)
(-6.0593e-05 6.46831e-21 -7.69263e-06)
(-3.08747e-05 3.27291e-21 -1.97361e-06)
(-0 0 0)
(-0 0 0)
(-0 0 0)
)
;

boundaryField
{
    inlet
    {
        type            calculated;
        value           uniform (0 0 0);
    }
    outlet
    {
        type            calculated;
        value           uniform (0 0 0);
    }
    sideWall
    {
        type            empty;
    }
}


// ************************************************************************* //
