/*--------------------------------*- C++ -*----------------------------------*\
| =========                 |                                                 |
| \\      /  F ield         | foam-extend: Open Source CFD                    |
|  \\    /   O peration     | Version:     3.2                                |
|   \\  /    A nd           | Web:         http://www.foam-extend.org         |
|    \\/     M anipulation  | For copyright notice see file Copyright         |
\*---------------------------------------------------------------------------*/
FoamFile
{
    version     2.0;
    format      ascii;
    class       volScalarField;
    location    "160";
    object      zDim;
}
// * * * * * * * * * * * * * * * * * * * * * * * * * * * * * * * * * * * * * //

dimensions      [0 1 0 0 0 0 0];

internalField   nonuniform List<scalar> 
96000
(
0.0028125
0.0028125
0.0028125
0.0028125
0.0028125
0.0028125
0.0028125
0.0028125
0.0028125
0.0028125
0.0028125
0.0028125
0.0028125
0.0028125
0.0028125
0.0028125
0.0028125
0.0028125
0.0028125
0.0028125
0.0028125
0.0028125
0.0028125
0.0028125
0.0028125
0.0028125
0.0028125
0.0028125
0.0028125
0.0028125
0.0028125
0.0028125
0.0028125
0.0028125
0.0028125
0.0028125
0.0028125
0.0028125
0.0028125
0.0028125
0.0028125
0.0028125
0.0028125
0.0028125
0.0028125
0.0028125
0.0028125
0.0028125
0.0028125
0.0028125
0.0028125
0.0028125
0.0028125
0.0028125
0.0028125
0.0028125
0.0028125
0.0028125
0.0028125
0.0028125
0.0028125
0.0028125
0.0028125
0.0028125
0.0028125
0.0028125
0.0028125
0.0028125
0.0028125
0.0028125
0.0028125
0.0028125
0.0028125
0.0028125
0.0028125
0.0028125
0.0028125
0.0028125
0.0028125
0.0028125
0.0028125
0.0028125
0.0028125
0.0028125
0.0028125
0.0028125
0.0028125
0.0028125
0.0028125
0.0028125
0.0028125
0.0028125
0.0028125
0.0028125
0.0028125
0.0028125
0.0028125
0.00281322
0.00281322
0.0065429
0.00776423
0.0062181
0.00561791
0.0054826
0.00494151
0.00486152
0.0045584
0.00432241
0.00427294
0.00416994
0.00386846
0.00383814
0.00344057
0.00398648
0.00346144
0.00308623
0.00421159
0.00311276
0.0040928
0.00326151
0.0036593
0.00313334
0.00401723
0.00309177
0.0030197
0.00405665
0.00319414
0.00312376
0.00328006
0.00353954
0.00338742
0.00363814
0.00337086
0.00360868
0.00318517
0.00365479
0.00360802
0.00294785
0.00363197
0.00297828
0.00285625
0.00326619
0.0037651
0.00316452
0.00283026
0.00348371
0.00337183
0.00306935
0.0035228
0.00315919
0.00303927
0.0034259
0.00539719
0.00328627
0.00398938
0.00400463
0.00335136
0.0039019
0.0028719
0.00476136
0.00294289
0.00413531
0.0032653
0.0034145
0.00328853
0.00314158
0.00330497
0.00343799
0.00340436
0.00369192
0.00419379
0.00405338
0.00430049
0.00361255
0.00305901
0.00332863
0.00402525
0.00285769
0.00409622
0.00380089
0.00389084
0.00348634
0.00392335
0.00304561
0.0029975
0.00369678
0.00294626
0.0032802
0.00395548
0.00281501
0.00385764
0.00328203
0.00353192
0.00340325
0.00364207
0.00353851
0.00300402
0.0036023
0.00413231
0.00390132
0.00313505
0.00306591
0.00330053
0.00299454
0.00416564
0.00339205
0.00295506
0.00397823
0.00301559
0.0038818
0.00369051
0.00373177
0.00286598
0.0032596
0.00395531
0.00339047
0.00349306
0.00359661
0.00412159
0.00325639
0.00313026
0.00290085
0.00358269
0.00284228
0.00444313
0.00299575
0.00353759
0.00402798
0.0033295
0.00366013
0.00371681
0.00292499
0.00399386
0.00381998
0.00293637
0.00331156
0.00396819
0.00296618
0.00439828
0.00301149
0.0033816
0.00299518
0.00288927
0.00341604
0.00430614
0.00302865
0.00362937
0.00373186
0.00328925
0.00399693
0.0040397
0.00365729
0.00300422
0.00293445
0.00335441
0.00375008
0.00292667
0.00461438
0.00305683
0.00486844
0.00392636
0.00306826
0.00381238
0.00320903
0.00369275
0.00341184
0.00372131
0.00330581
0.00325413
0.00396752
0.0034188
0.00342092
0.00475179
0.00362859
0.00433391
0.00397433
0.00289033
0.00404986
0.00283898
0.00387853
0.00431603
0.00312597
0.00343818
0.00462789
0.00315406
0.00462346
0.00345918
0.0038892
0.00356785
0.00453892
0.00406271
0.0052737
0.00472919
0.0063465
0.00579003
0.00916349
0.0059998
0.00281314
0.00281314
0.0028125
0.0028125
0.0028125
0.0028125
0.0028125
0.0028125
0.0028125
0.0028125
0.0028125
0.0028125
0.0028125
0.0028125
0.0028125
0.0028125
0.0028125
0.0028125
0.0028125
0.0028125
0.0028125
0.0028125
0.0028125
0.0028125
0.0028125
0.0028125
0.0028125
0.0028125
0.0028125
0.0028125
0.0028125
0.0028125
0.0028125
0.0028125
0.0028125
0.0028125
0.0028125
0.0028125
0.0028125
0.0028125
0.0028125
0.0028125
0.0028125
0.0028125
0.0028125
0.0028125
0.0028125
0.0028125
0.0028125
0.0028125
0.0028125
0.0028125
0.0028125
0.0028125
0.0028125
0.0028125
0.0028125
0.0028125
0.0028125
0.0028125
0.0028125
0.0028125
0.0028125
0.0028125
0.0028125
0.0028125
0.0028125
0.0028125
0.0028125
0.0028125
0.0028125
0.0028125
0.0028125
0.0028125
0.0028125
0.0028125
0.0028125
0.0028125
0.0028125
0.0028125
0.0028125
0.0028125
0.0028125
0.0028125
0.0028125
0.0028125
0.0028125
0.0028125
0.0028125
0.0028125
0.0028125
0.0028125
0.0028125
0.0028125
0.0028125
0.00281249
0.00281249
0.00281249
0.00281248
0.00281254
0.00281461
0.00282451
0.00651362
0.00775204
0.00623257
0.00562196
0.00548213
0.00494611
0.00486109
0.0045603
0.00432418
0.00427339
0.00417006
0.00387094
0.00383714
0.00344637
0.00398077
0.00346459
0.00309378
0.00419612
0.00309351
0.00407713
0.00327127
0.00365063
0.00311693
0.0039995
0.00308525
0.00301005
0.0040395
0.00318096
0.00311427
0.00326757
0.00352483
0.00337155
0.00362694
0.00336805
0.00360109
0.00317815
0.00363932
0.00359442
0.00294372
0.00362364
0.0029728
0.00286143
0.00325427
0.0037494
0.00315578
0.00283825
0.00347218
0.00335978
0.00306965
0.00351334
0.00314881
0.00302909
0.00340322
0.00536069
0.00325759
0.00398307
0.0039915
0.00333175
0.00388633
0.00289327
0.00473734
0.00292108
0.00411509
0.00324722
0.00340189
0.00328004
0.00313987
0.00329314
0.00342406
0.00338704
0.00366956
0.00416375
0.00402087
0.00427089
0.00359108
0.00305673
0.00331532
0.00400749
0.00287346
0.00407618
0.00377497
0.00386704
0.00346476
0.00390405
0.00303948
0.00299046
0.00368483
0.00293643
0.00326791
0.00393977
0.0028285
0.00384142
0.00326543
0.00351722
0.00339468
0.00363428
0.00352473
0.00299199
0.00358211
0.00410612
0.00388472
0.00313483
0.00306336
0.00329702
0.00300229
0.00414688
0.00337485
0.00294144
0.00396198
0.00299938
0.0038637
0.00368287
0.00372481
0.00285671
0.0032452
0.00393575
0.00337267
0.00347616
0.0035745
0.00409834
0.0032423
0.00312334
0.00289915
0.00357258
0.00282798
0.00442245
0.00297812
0.00351877
0.0040058
0.00331056
0.00364153
0.00370206
0.00292188
0.00397715
0.00380352
0.00294455
0.00329755
0.00395008
0.0029471
0.00437721
0.00299702
0.00337347
0.00299867
0.00288752
0.00342166
0.00428951
0.00301147
0.00361146
0.00371244
0.00326979
0.00397302
0.00401344
0.0036388
0.00301012
0.00293689
0.00334487
0.00373677
0.00294512
0.00459085
0.00303001
0.00483484
0.00389734
0.00305162
0.00379613
0.00319274
0.00367668
0.00340846
0.00371001
0.00329141
0.00323755
0.0039475
0.00340031
0.00339828
0.00471966
0.00359705
0.00430334
0.00394862
0.00287417
0.00403372
0.00282385
0.00385759
0.00429106
0.00310848
0.00344446
0.00461183
0.00317322
0.00459841
0.00343384
0.00387834
0.00357792
0.00453081
0.00407531
0.00526406
0.00474628
0.00633417
0.00582796
0.00912855
0.00597802
0.00282309
0.00281429
0.00281256
0.0028125
0.0028125
0.0028125
0.0028125
0.0028125
0.0028125
0.0028125
0.0028125
0.0028125
0.0028125
0.0028125
0.0028125
0.0028125
0.0028125
0.0028125
0.0028125
0.0028125
0.0028125
0.0028125
0.0028125
0.0028125
0.0028125
0.0028125
0.0028125
0.0028125
0.0028125
0.0028125
0.0028125
0.0028125
0.0028125
0.0028125
0.0028125
0.0028125
0.0028125
0.0028125
0.0028125
0.0028125
0.0028125
0.0028125
0.0028125
0.0028125
0.0028125
0.0028125
0.0028125
0.0028125
0.0028125
0.0028125
0.0028125
0.0028125
0.0028125
0.0028125
0.0028125
0.0028125
0.0028125
0.0028125
0.0028125
0.0028125
0.0028125
0.0028125
0.0028125
0.0028125
0.0028125
0.0028125
0.0028125
0.0028125
0.0028125
0.0028125
0.0028125
0.0028125
0.0028125
0.0028125
0.0028125
0.0028125
0.0028125
0.0028125
0.0028125
0.0028125
0.0028125
0.0028125
0.0028125
0.0028125
0.0028125
0.0028125
0.0028125
0.0028125
0.0028125
0.0028125
0.0028125
0.0028125
0.0028125
0.00281249
0.00281249
0.00281249
0.00281248
0.00281247
0.00281244
0.00281266
0.00281618
0.00284767
0.00647756
0.00773154
0.00624958
0.0056273
0.00548036
0.00495219
0.00486
0.00456244
0.00432655
0.00427387
0.00417005
0.00387444
0.0038345
0.00345526
0.00397165
0.0034678
0.00310655
0.00417124
0.00306387
0.00405417
0.00328562
0.0036366
0.00309219
0.00397235
0.0030738
0.00299668
0.00401286
0.00316006
0.00309969
0.00324896
0.0035021
0.00334711
0.00361128
0.00336178
0.0035884
0.00316946
0.00361504
0.0035727
0.00293953
0.00361032
0.0029637
0.00286891
0.00323695
0.0037255
0.00314152
0.00285003
0.00345508
0.00334186
0.00306832
0.00349957
0.00313307
0.00301446
0.00336715
0.00530452
0.00321478
0.00397073
0.00397359
0.00330133
0.00386248
0.00292459
0.00470066
0.00288825
0.00408405
0.00321986
0.00338249
0.00326802
0.00313601
0.00327544
0.00340273
0.00336072
0.00363456
0.00411824
0.00397115
0.00422521
0.0035596
0.00305129
0.00329628
0.00398045
0.00289754
0.0040446
0.00373524
0.00383096
0.00343158
0.00387505
0.00302872
0.00298088
0.00366644
0.0029213
0.00324831
0.00391531
0.00285007
0.00381701
0.00324021
0.00349435
0.00338327
0.00362051
0.00350343
0.0029736
0.00355214
0.00406593
0.00385739
0.00313605
0.00305991
0.00329103
0.00301174
0.00411864
0.00334952
0.00292077
0.00393674
0.00297497
0.0038356
0.00366893
0.00371521
0.00284271
0.00322406
0.00390543
0.00334524
0.00345014
0.00354112
0.00406316
0.00321979
0.00311357
0.00289524
0.00355742
0.00282935
0.00439085
0.00295173
0.00349074
0.00397192
0.00328135
0.00361292
0.00367855
0.00291965
0.00395023
0.0037771
0.00295751
0.00327713
0.00392246
0.00291824
0.00434498
0.00297408
0.00336175
0.00300323
0.00288412
0.00342791
0.00426493
0.00298548
0.00358455
0.00368275
0.00324038
0.00393593
0.00397283
0.00361201
0.00301781
0.00294114
0.00332913
0.00371608
0.00297184
0.00455535
0.00298883
0.00478385
0.003854
0.00302591
0.00377125
0.00316785
0.00365203
0.00340109
0.00369385
0.00326956
0.00321271
0.00391665
0.00337195
0.00336281
0.00467073
0.0035491
0.00425641
0.00391051
0.00284934
0.00400909
0.00282571
0.0038246
0.00425212
0.00308281
0.00345095
0.00458776
0.00320209
0.00456089
0.00339556
0.00386026
0.00359252
0.00451798
0.00409344
0.00524866
0.0047704
0.00631441
0.00587813
0.00907324
0.00595782
0.00284274
0.00281554
0.00281274
0.0028125
0.0028125
0.0028125
0.0028125
0.0028125
0.0028125
0.0028125
0.0028125
0.0028125
0.0028125
0.0028125
0.0028125
0.0028125
0.0028125
0.0028125
0.0028125
0.0028125
0.0028125
0.0028125
0.0028125
0.0028125
0.0028125
0.0028125
0.0028125
0.0028125
0.0028125
0.0028125
0.0028125
0.0028125
0.0028125
0.0028125
0.0028125
0.0028125
0.0028125
0.0028125
0.0028125
0.0028125
0.0028125
0.0028125
0.0028125
0.0028125
0.0028125
0.0028125
0.0028125
0.0028125
0.0028125
0.0028125
0.0028125
0.0028125
0.0028125
0.0028125
0.0028125
0.0028125
0.0028125
0.0028125
0.0028125
0.0028125
0.0028125
0.0028125
0.0028125
0.0028125
0.0028125
0.0028125
0.0028125
0.0028125
0.0028125
0.0028125
0.0028125
0.0028125
0.0028125
0.0028125
0.0028125
0.0028125
0.0028125
0.0028125
0.0028125
0.0028125
0.0028125
0.0028125
0.0028125
0.0028125
0.0028125
0.0028125
0.0028125
0.0028125
0.0028125
0.0028125
0.0028125
0.00281249
0.00281249
0.00281249
0.00281248
0.00281248
0.00281247
0.00281246
0.00281242
0.00281288
0.00281736
0.00288041
0.00643655
0.00770379
0.00626802
0.0056338
0.00547763
0.00495937
0.00485846
0.00456472
0.00432954
0.00427428
0.00416917
0.00387951
0.00383033
0.00346566
0.00396124
0.00347133
0.00312362
0.00413966
0.00302691
0.00402642
0.00330302
0.0036189
0.00306202
0.00393837
0.00305865
0.0029808
0.00397932
0.00313378
0.00308197
0.00322643
0.00347377
0.00331636
0.00359272
0.0033528
0.00357231
0.00316043
0.00358443
0.00354468
0.00293591
0.00359333
0.00295255
0.00287858
0.00321615
0.00369574
0.0031234
0.00286483
0.00343425
0.00331994
0.00306578
0.00348294
0.00311366
0.00299743
0.00332123
0.00523352
0.00316205
0.00395387
0.00395275
0.00326287
0.00383325
0.00296316
0.00465436
0.0028478
0.00404528
0.00318598
0.0033587
0.00325365
0.00313063
0.00325345
0.00337639
0.00332816
0.00359042
0.00406197
0.00390898
0.00416766
0.00352114
0.00304346
0.00327342
0.00394675
0.00292775
0.00400466
0.00368552
0.00378624
0.00339007
0.00383918
0.00301468
0.00296971
0.00364342
0.00290272
0.00322359
0.00388459
0.00287728
0.00378676
0.00320898
0.0034656
0.00337019
0.00360211
0.00347688
0.00295099
0.00351528
0.0040156
0.00382192
0.00313869
0.0030558
0.00328304
0.00302223
0.00408311
0.00331868
0.00289534
0.00390494
0.00294524
0.00380017
0.00364997
0.00370358
0.00282559
0.00319848
0.00386727
0.00331121
0.00341784
0.00349958
0.00401932
0.00319119
0.00310214
0.00288981
0.00353891
0.00285734
0.00435137
0.00291939
0.00345631
0.00392961
0.00324484
0.00357715
0.00364854
0.00291861
0.00391563
0.00374336
0.00297413
0.00325246
0.00388805
0.0028825
0.00430461
0.00294496
0.00334775
0.00300866
0.00287962
0.00343442
0.00423454
0.00295334
0.00355143
0.00364572
0.00320416
0.00388932
0.00392158
0.00357956
0.00302676
0.00294698
0.00330894
0.00369022
0.00300456
0.00451129
0.00293741
0.00472023
0.00380046
0.00299391
0.0037403
0.00313698
0.00362114
0.00339069
0.00367428
0.00324247
0.00318206
0.00387791
0.00333692
0.00331824
0.0046096
0.00348937
0.00419736
0.00386364
0.00282851
0.00397847
0.00285342
0.00378269
0.00420282
0.00305137
0.00345741
0.00455777
0.00323804
0.00451428
0.00334763
0.00383693
0.00361033
0.00450173
0.00411559
0.00522912
0.00479962
0.00628946
0.00593664
0.00900167
0.00593925
0.00287035
0.00281637
0.00281308
0.0028125
0.0028125
0.0028125
0.0028125
0.0028125
0.0028125
0.0028125
0.0028125
0.0028125
0.0028125
0.0028125
0.0028125
0.0028125
0.0028125
0.0028125
0.0028125
0.0028125
0.0028125
0.0028125
0.0028125
0.0028125
0.0028125
0.0028125
0.0028125
0.0028125
0.0028125
0.0028125
0.0028125
0.0028125
0.0028125
0.0028125
0.0028125
0.0028125
0.0028125
0.0028125
0.0028125
0.0028125
0.0028125
0.0028125
0.0028125
0.0028125
0.0028125
0.0028125
0.0028125
0.0028125
0.0028125
0.0028125
0.0028125
0.0028125
0.0028125
0.0028125
0.0028125
0.0028125
0.0028125
0.0028125
0.0028125
0.0028125
0.0028125
0.0028125
0.0028125
0.0028125
0.0028125
0.0028125
0.0028125
0.0028125
0.0028125
0.0028125
0.0028125
0.0028125
0.0028125
0.0028125
0.0028125
0.0028125
0.0028125
0.0028125
0.0028125
0.0028125
0.0028125
0.0028125
0.0028125
0.0028125
0.0028125
0.0028125
0.0028125
0.0028125
0.0028125
0.00281249
0.00281249
0.00281249
0.00281249
0.00281248
0.00281248
0.00281247
0.00281247
0.00281247
0.00281242
0.00281321
0.00281763
0.00292018
0.00639209
0.00767004
0.00628691
0.00564115
0.00547411
0.00496713
0.0048565
0.00456695
0.00433267
0.00427499
0.00416747
0.00388364
0.00382715
0.00347854
0.00394861
0.00347475
0.00314263
0.00410337
0.00298405
0.00399546
0.00332266
0.00359849
0.00302768
0.00389901
0.00304055
0.00296318
0.00394111
0.00310335
0.00306182
0.00320126
0.00344143
0.003281
0.00357217
0.0033413
0.00355291
0.00315069
0.00354903
0.00351214
0.00293308
0.0035735
0.00293959
0.00288875
0.00319265
0.00366184
0.00310263
0.00288109
0.00341068
0.00329512
0.00306195
0.00346378
0.00309109
0.0029793
0.00326881
0.00515223
0.00310296
0.00393346
0.00392946
0.00321803
0.00380046
0.00300603
0.00460155
0.00283222
0.00400128
0.00314746
0.00333154
0.00323687
0.00312363
0.00322843
0.00334705
0.00329159
0.00354008
0.00399813
0.00383795
0.00410203
0.00347819
0.00303376
0.00324749
0.0039081
0.00296126
0.00395885
0.00362904
0.00373596
0.00334295
0.00379848
0.00299796
0.0029571
0.00361689
0.00288195
0.00319535
0.00384928
0.00290763
0.00375258
0.00317377
0.00343248
0.00335556
0.00357978
0.00344654
0.00292545
0.00347377
0.00395851
0.00378073
0.00314154
0.00305009
0.00327253
0.00303289
0.00404234
0.00328477
0.00286681
0.00386823
0.00291171
0.003759
0.0036273
0.00369031
0.00281906
0.00316982
0.00382331
0.0032725
0.00338103
0.00345262
0.00396986
0.00315844
0.00308937
0.00288278
0.00351804
0.00289277
0.00430624
0.00288306
0.00341749
0.00388135
0.00320364
0.00353674
0.00361374
0.00291805
0.00387521
0.00370423
0.00299226
0.00322475
0.00384894
0.00284236
0.0042587
0.00291148
0.00333202
0.00301393
0.00287397
0.00344045
0.00419972
0.00291698
0.00351408
0.00360345
0.00316358
0.0038364
0.00386283
0.00354328
0.00303594
0.00295338
0.00328531
0.00366079
0.00304054
0.00446133
0.00287915
0.00464791
0.00374003
0.00295781
0.00370519
0.00310209
0.00358565
0.00337778
0.00365186
0.00321172
0.00314761
0.00383371
0.00329746
0.00326739
0.00454013
0.00342212
0.00413014
0.00381086
0.00283966
0.00394364
0.00288655
0.00373483
0.00414615
0.00301575
0.00346361
0.00452355
0.00327809
0.00446143
0.00329292
0.0038102
0.00362989
0.00448318
0.00414016
0.00520687
0.00483194
0.00626142
0.00599969
0.00891774
0.0059216
0.00290398
0.00281631
0.0028136
0.0028125
0.0028125
0.0028125
0.0028125
0.0028125
0.0028125
0.0028125
0.0028125
0.0028125
0.0028125
0.0028125
0.0028125
0.0028125
0.0028125
0.0028125
0.0028125
0.0028125
0.0028125
0.0028125
0.0028125
0.0028125
0.0028125
0.0028125
0.0028125
0.0028125
0.0028125
0.0028125
0.0028125
0.0028125
0.0028125
0.0028125
0.0028125
0.0028125
0.0028125
0.0028125
0.0028125
0.0028125
0.0028125
0.0028125
0.0028125
0.0028125
0.0028125
0.0028125
0.0028125
0.0028125
0.0028125
0.0028125
0.0028125
0.0028125
0.0028125
0.0028125
0.0028125
0.0028125
0.0028125
0.0028125
0.0028125
0.0028125
0.0028125
0.0028125
0.0028125
0.0028125
0.0028125
0.0028125
0.0028125
0.0028125
0.0028125
0.0028125
0.0028125
0.0028125
0.0028125
0.0028125
0.0028125
0.0028125
0.0028125
0.0028125
0.0028125
0.0028125
0.0028125
0.0028125
0.0028125
0.0028125
0.0028125
0.0028125
0.0028125
0.0028125
0.0028125
0.00281249
0.00281249
0.00281249
0.00281249
0.00281248
0.00281248
0.00281247
0.00281247
0.00281249
0.00281249
0.00281364
0.00281656
0.00296487
0.00634519
0.0076314
0.00630584
0.00564963
0.00547056
0.00497566
0.00485474
0.00456957
0.00433655
0.00427557
0.00416787
0.00388778
0.00382027
0.00349101
0.00393502
0.00347969
0.00316305
0.00406408
0.00293929
0.00396377
0.00334354
0.00357736
0.00299194
0.0038568
0.00302088
0.00294427
0.00389998
0.00307146
0.00304138
0.00317509
0.0034069
0.0032429
0.00355082
0.00332864
0.00353227
0.00314163
0.00351073
0.00347631
0.00293096
0.00355196
0.00292653
0.00289988
0.00316822
0.00362562
0.00308068
0.00289835
0.0033859
0.00326872
0.00305754
0.00344355
0.0030672
0.00296168
0.00321269
0.00506442
0.00304055
0.00391123
0.00390548
0.00316972
0.00376666
0.00305124
0.00454448
0.00286259
0.0039544
0.00310695
0.00330356
0.00321915
0.00311594
0.00320156
0.00331611
0.00325301
0.00348687
0.00393107
0.00376263
0.00403199
0.00343258
0.00302282
0.00322
0.00386696
0.00299678
0.00391013
0.00356881
0.00368267
0.00329283
0.00375549
0.00298024
0.00294404
0.00358832
0.00286042
0.0031655
0.00381168
0.00293995
0.00371642
0.00313653
0.00339692
0.00334045
0.00355514
0.00341457
0.00289912
0.00342988
0.00389721
0.00373593
0.00314476
0.00304383
0.0032605
0.00304342
0.00399774
0.00324918
0.00283694
0.00382939
0.00287749
0.00371482
0.00360223
0.00367549
0.00283208
0.00314
0.00377655
0.00323212
0.00334244
0.00340267
0.00391696
0.00312343
0.00307645
0.00287526
0.00349637
0.00293043
0.00425801
0.00284526
0.0033768
0.00382989
0.00316011
0.0034938
0.00357606
0.00291821
0.00383129
0.00366224
0.00301131
0.00319588
0.00380713
0.00283239
0.00420976
0.00287588
0.00331596
0.00301913
0.00286758
0.00344594
0.00416236
0.00287884
0.00347491
0.00355848
0.00312118
0.00378015
0.00379975
0.00350534
0.00304533
0.00296037
0.00325978
0.00362971
0.00307835
0.00440846
0.00284695
0.00457075
0.00367585
0.00292005
0.00366822
0.00306552
0.00354757
0.00336346
0.00362775
0.00317927
0.00311152
0.00378668
0.00325649
0.00321381
0.00446613
0.00335082
0.00405823
0.00375537
0.00287639
0.00390678
0.00292137
0.00368384
0.00408545
0.00297815
0.00346993
0.00448692
0.00332063
0.00440546
0.0032345
0.00378224
0.00365063
0.00446377
0.00416642
0.00518359
0.0048663
0.00623244
0.00606481
0.00882519
0.00590463
0.00294222
0.00281504
0.00281434
0.0028125
0.0028125
0.0028125
0.0028125
0.0028125
0.0028125
0.0028125
0.0028125
0.0028125
0.0028125
0.0028125
0.0028125
0.0028125
0.0028125
0.0028125
0.0028125
0.0028125
0.0028125
0.0028125
0.0028125
0.0028125
0.0028125
0.0028125
0.0028125
0.0028125
0.0028125
0.0028125
0.0028125
0.0028125
0.0028125
0.0028125
0.0028125
0.0028125
0.0028125
0.0028125
0.0028125
0.0028125
0.0028125
0.0028125
0.0028125
0.0028125
0.0028125
0.0028125
0.0028125
0.0028125
0.0028125
0.0028125
0.0028125
0.0028125
0.0028125
0.0028125
0.0028125
0.0028125
0.0028125
0.0028125
0.0028125
0.0028125
0.0028125
0.0028125
0.0028125
0.0028125
0.0028125
0.0028125
0.0028125
0.0028125
0.0028125
0.0028125
0.0028125
0.0028125
0.0028125
0.0028125
0.0028125
0.0028125
0.0028125
0.0028125
0.0028125
0.0028125
0.0028125
0.0028125
0.0028125
0.0028125
0.0028125
0.0028125
0.0028125
0.0028125
0.00281249
0.00281249
0.00281249
0.00281249
0.00281249
0.00281248
0.00281248
0.00281248
0.00281249
0.00281254
0.00281262
0.00281419
0.00281387
0.00301294
0.00629667
0.00758839
0.00632388
0.0056587
0.00546677
0.0049843
0.00485294
0.004572
0.0043408
0.00427601
0.00416683
0.0038948
0.00381605
0.0035036
0.00392101
0.00348462
0.00318486
0.00402281
0.00289215
0.00393145
0.00336416
0.00355603
0.0029558
0.00381293
0.00300036
0.00292468
0.00385718
0.00303852
0.00302089
0.00314895
0.00337171
0.00320323
0.0035289
0.00331437
0.00351059
0.0031331
0.00347127
0.00343855
0.00292964
0.00352888
0.00291354
0.00291096
0.00314326
0.0035883
0.00305853
0.00291585
0.00336055
0.00324142
0.00305246
0.00342255
0.00304268
0.00294549
0.00315525
0.00497298
0.00297671
0.00388768
0.00388104
0.00311913
0.00373324
0.00309717
0.00448509
0.00291113
0.00390618
0.00306509
0.00327547
0.00320073
0.00310789
0.00317363
0.00328496
0.00321375
0.00343206
0.0038627
0.00368541
0.00395993
0.00338621
0.00301113
0.00319149
0.00382435
0.00303254
0.00386022
0.00350702
0.00362856
0.00324147
0.00371115
0.00296184
0.00293059
0.00355865
0.00283896
0.00313495
0.00377286
0.00297272
0.00367939
0.00309849
0.00335987
0.00332478
0.00352866
0.00338193
0.00287301
0.00338504
0.00383407
0.00368906
0.0031478
0.00303653
0.0032471
0.00305338
0.00395063
0.00321331
0.00282203
0.00378879
0.00284344
0.00366908
0.00357558
0.00365942
0.00285274
0.00310989
0.00372792
0.00319115
0.00330349
0.00335142
0.00386263
0.00308753
0.00306332
0.0028672
0.00347438
0.00296882
0.00420813
0.00282773
0.00333546
0.00377694
0.00311585
0.00344984
0.00353675
0.0029187
0.00378505
0.00361849
0.00303001
0.00316664
0.00376425
0.00286564
0.00415924
0.00284139
0.00329986
0.00302394
0.00286066
0.00345048
0.00412326
0.00284
0.00343514
0.00351228
0.00307852
0.00372251
0.00373431
0.00346677
0.00305429
0.0029674
0.00323316
0.00359789
0.00311625
0.0043542
0.00287708
0.00449125
0.00361007
0.002882
0.00363048
0.00302849
0.00350801
0.00334799
0.00360228
0.00314611
0.00307492
0.00373807
0.00321528
0.00315925
0.00438992
0.00327825
0.00398407
0.00369863
0.00291336
0.0038691
0.00295635
0.00363128
0.00402251
0.00293947
0.00347597
0.0044487
0.00336363
0.00434787
0.00317386
0.00375392
0.00367137
0.00444393
0.00419314
0.0051599
0.00490123
0.00620346
0.00612943
0.00872639
0.00588778
0.00298379
0.00281227
0.00281534
0.0028125
0.0028125
0.0028125
0.0028125
0.0028125
0.0028125
0.0028125
0.0028125
0.0028125
0.0028125
0.0028125
0.0028125
0.0028125
0.0028125
0.0028125
0.0028125
0.0028125
0.0028125
0.0028125
0.0028125
0.0028125
0.0028125
0.0028125
0.0028125
0.0028125
0.0028125
0.0028125
0.0028125
0.0028125
0.0028125
0.0028125
0.0028125
0.0028125
0.0028125
0.0028125
0.0028125
0.0028125
0.0028125
0.0028125
0.0028125
0.0028125
0.0028125
0.0028125
0.0028125
0.0028125
0.0028125
0.0028125
0.0028125
0.0028125
0.0028125
0.0028125
0.0028125
0.0028125
0.0028125
0.0028125
0.0028125
0.0028125
0.0028125
0.0028125
0.0028125
0.0028125
0.0028125
0.0028125
0.0028125
0.0028125
0.0028125
0.0028125
0.0028125
0.0028125
0.0028125
0.0028125
0.0028125
0.0028125
0.0028125
0.0028125
0.0028125
0.0028125
0.0028125
0.0028125
0.0028125
0.0028125
0.0028125
0.0028125
0.0028125
0.0028125
0.00281249
0.00281249
0.00281249
0.00281249
0.00281249
0.00281249
0.00281249
0.0028125
0.00281253
0.00281262
0.00281284
0.00281491
0.00281024
0.00306319
0.0062474
0.00754184
0.00634056
0.00566806
0.00546278
0.00499277
0.00485097
0.00457437
0.00434458
0.00427739
0.00416421
0.00389858
0.00381251
0.00351768
0.00390705
0.00348847
0.00320624
0.00398191
0.00284476
0.00389952
0.00338443
0.00353489
0.00291951
0.00376778
0.00297908
0.00290476
0.00381433
0.00300526
0.00300062
0.00312341
0.00333648
0.0031629
0.00350712
0.00329886
0.00348769
0.00312459
0.00343099
0.00339985
0.00292948
0.00350503
0.00290062
0.00292109
0.00311813
0.00355063
0.00303668
0.00293271
0.00333503
0.00321392
0.00304685
0.0034009
0.00301742
0.00293106
0.00309801
0.00488017
0.00291347
0.00386345
0.00385633
0.00306676
0.00370068
0.00314227
0.00442501
0.00295912
0.00385799
0.00302297
0.00324751
0.00318114
0.00309913
0.00314529
0.00325474
0.00317508
0.00337731
0.0037943
0.0036075
0.00388755
0.00334029
0.00299914
0.00316228
0.00378102
0.00306706
0.00381005
0.00344511
0.00357511
0.00319022
0.00366655
0.00294291
0.0029168
0.00352835
0.00283243
0.00310456
0.00373355
0.00300472
0.00364242
0.00306085
0.00332225
0.00330864
0.00350058
0.00334909
0.00284749
0.00334027
0.00377081
0.00364149
0.00315
0.00302744
0.00323166
0.00306235
0.00390222
0.00317871
0.00283717
0.00374739
0.0028341
0.00362197
0.003548
0.00364244
0.00287317
0.00308016
0.00367846
0.00315029
0.00326461
0.00330017
0.00380842
0.00305171
0.00305021
0.00285843
0.00345254
0.00300677
0.00415759
0.00284828
0.00329434
0.00372353
0.00307211
0.00340609
0.00349661
0.00291914
0.00373749
0.00357393
0.00304732
0.00313748
0.00372114
0.00291005
0.00410849
0.0028444
0.00328375
0.00302773
0.0028532
0.00345385
0.00408309
0.00282756
0.00339569
0.00346571
0.00303664
0.003665
0.00366799
0.00342841
0.00306232
0.00297384
0.00320586
0.00356603
0.00315302
0.00429969
0.00294039
0.00441123
0.00354426
0.00284466
0.00359273
0.0029918
0.00346767
0.00333161
0.00357579
0.00311291
0.00303876
0.0036891
0.00317472
0.00310482
0.00431324
0.00320638
0.00390961
0.00364206
0.00294913
0.00383122
0.00299039
0.00357861
0.00395866
0.00290034
0.00348164
0.00440975
0.00340572
0.00429001
0.00311233
0.00372607
0.00369145
0.00442411
0.00421954
0.00513637
0.00493578
0.00617524
0.00619172
0.00862324
0.00587066
0.00302777
0.00281085
0.00281664
0.0028125
0.0028125
0.0028125
0.0028125
0.0028125
0.0028125
0.0028125
0.0028125
0.0028125
0.0028125
0.0028125
0.0028125
0.0028125
0.0028125
0.0028125
0.0028125
0.0028125
0.0028125
0.0028125
0.0028125
0.0028125
0.0028125
0.0028125
0.0028125
0.0028125
0.0028125
0.0028125
0.0028125
0.0028125
0.0028125
0.0028125
0.0028125
0.0028125
0.0028125
0.0028125
0.0028125
0.0028125
0.0028125
0.0028125
0.0028125
0.0028125
0.0028125
0.0028125
0.0028125
0.0028125
0.0028125
0.0028125
0.0028125
0.0028125
0.0028125
0.0028125
0.0028125
0.0028125
0.0028125
0.0028125
0.0028125
0.0028125
0.0028125
0.0028125
0.0028125
0.0028125
0.0028125
0.0028125
0.0028125
0.0028125
0.0028125
0.0028125
0.0028125
0.0028125
0.0028125
0.0028125
0.0028125
0.0028125
0.0028125
0.0028125
0.0028125
0.0028125
0.0028125
0.0028125
0.0028125
0.0028125
0.0028125
0.0028125
0.0028125
0.0028125
0.0028125
0.00281249
0.00281249
0.00281249
0.00281249
0.0028125
0.00281251
0.00281253
0.00281259
0.00281275
0.00281315
0.00281584
0.00281051
0.00311452
0.00619789
0.00749267
0.00635612
0.00567826
0.00545939
0.00500165
0.00484954
0.00457728
0.00434895
0.00427886
0.00416477
0.00390074
0.00380362
0.00352989
0.00389341
0.00349412
0.00322673
0.00394136
0.00284796
0.00387012
0.00340464
0.00351521
0.002885
0.00372304
0.00295776
0.00288492
0.00377194
0.0029735
0.00298235
0.00309915
0.00330199
0.00312308
0.00348622
0.00328355
0.00346519
0.00311722
0.00339075
0.00336063
0.00293016
0.00348127
0.00288919
0.00293119
0.00309412
0.00351357
0.00301575
0.00294898
0.00331034
0.00318701
0.00304148
0.00337958
0.00299273
0.00291911
0.00304194
0.00478784
0.0028523
0.00383983
0.00383269
0.00301471
0.00367006
0.0031857
0.00436517
0.00300538
0.00381119
0.00298261
0.00322137
0.00316171
0.00309023
0.00311714
0.00322575
0.00313813
0.00332483
0.00372835
0.00353162
0.00381658
0.00329522
0.00298722
0.00313343
0.00373873
0.00310039
0.00376116
0.00338446
0.00352321
0.00314046
0.0036234
0.0029247
0.00290352
0.00349814
0.00284821
0.00307549
0.00369509
0.00303578
0.00360663
0.00302452
0.00328533
0.00329316
0.00347228
0.00331732
0.00283304
0.00329677
0.00370832
0.00359441
0.00315189
0.00301801
0.00321514
0.00307029
0.00385317
0.00314565
0.00286667
0.00370745
0.00285917
0.0035752
0.00352021
0.00362465
0.00289312
0.00305207
0.00363033
0.00311141
0.00322741
0.00325007
0.00375499
0.00301689
0.00303814
0.00285011
0.00343192
0.00304399
0.00410784
0.00288599
0.00325489
0.00367118
0.00303013
0.00336358
0.00345667
0.00291997
0.00369
0.0035302
0.00306349
0.00310956
0.00367873
0.00295343
0.00405886
0.002883
0.00326864
0.00303083
0.00284553
0.0034564
0.00404311
0.00285376
0.00335797
0.00342022
0.00299688
0.0036091
0.00360252
0.00339157
0.00306992
0.0029801
0.00317886
0.00353538
0.00318846
0.00424666
0.00300214
0.00433269
0.00348008
0.00283313
0.00355639
0.00295684
0.00342775
0.00331524
0.0035492
0.00308092
0.00300435
0.00364128
0.00313652
0.00305274
0.00423811
0.00313674
0.00383655
0.00358751
0.00298379
0.00379441
0.00302301
0.00352734
0.0038958
0.00286219
0.00348752
0.00437121
0.00344666
0.00423374
0.00305175
0.00370002
0.00371106
0.00440532
0.00424572
0.00511413
0.00496994
0.00614903
0.00625106
0.00851792
0.00585349
0.00307356
0.00281347
0.00281829
0.0028125
0.0028125
0.0028125
0.0028125
0.0028125
0.0028125
0.0028125
0.0028125
0.0028125
0.0028125
0.0028125
0.0028125
0.0028125
0.0028125
0.0028125
0.0028125
0.0028125
0.0028125
0.0028125
0.0028125
0.0028125
0.0028125
0.0028125
0.0028125
0.0028125
0.0028125
0.0028125
0.0028125
0.0028125
0.0028125
0.0028125
0.0028125
0.0028125
0.0028125
0.0028125
0.0028125
0.0028125
0.0028125
0.0028125
0.0028125
0.0028125