/*--------------------------------*- C++ -*----------------------------------*\
| =========                 |                                                 |
| \\      /  F ield         | foam-extend: Open Source CFD                    |
|  \\    /   O peration     | Version:     3.2                                |
|   \\  /    A nd           | Web:         http://www.foam-extend.org         |
|    \\/     M anipulation  | For copyright notice see file Copyright         |
\*---------------------------------------------------------------------------*/
FoamFile
{
    version     2.0;
    format      ascii;
    class       areaScalarField;
    location    "160";
    object      zDimA;
}
// * * * * * * * * * * * * * * * * * * * * * * * * * * * * * * * * * * * * * //

dimensions      [0 1 0 0 0 0 0];

internalField   nonuniform List<scalar> 
300
(
0.0028125
0.0028125
0.0028125
0.0028125
0.0028125
0.0028125
0.0028125
0.0028125
0.0028125
0.0028125
0.0028125
0.0028125
0.0028125
0.0028125
0.0028125
0.0028125
0.0028125
0.0028125
0.0028125
0.0028125
0.0028125
0.0028125
0.0028125
0.0028125
0.0028125
0.0028125
0.0028125
0.0028125
0.0028125
0.0028125
0.0028125
0.0028125
0.0028125
0.0028125
0.0028125
0.0028125
0.0028125
0.0028125
0.0028125
0.0028125
0.0028125
0.0028125
0.0028125
0.0028125
0.0028125
0.0028125
0.0028125
0.0028125
0.0028125
0.0028125
0.0028125
0.0028125
0.0028125
0.0028125
0.0028125
0.0028125
0.0028125
0.0028125
0.0028125
0.0028125
0.0028125
0.0028125
0.0028125
0.0028125
0.0028125
0.0028125
0.0028125
0.0028125
0.0028125
0.0028125
0.0028125
0.0028125
0.0028125
0.0028125
0.0028125
0.0028125
0.0028125
0.0028125
0.0028125
0.0028125
0.0028125
0.0028125
0.0028125
0.0028125
0.0028125
0.0028125
0.0028125
0.0028125
0.0028125
0.0028125
0.0028125
0.0028125
0.0028125
0.0028125
0.0028125
0.0028125
0.0028125
0.00281322
0.00281322
0.0065429
0.00776423
0.0062181
0.00561791
0.0054826
0.00494151
0.00486152
0.0045584
0.00432241
0.00427294
0.00416994
0.00386846
0.00383814
0.00344057
0.00398648
0.00346144
0.00308623
0.00421159
0.00311276
0.0040928
0.00326151
0.0036593
0.00313334
0.00401723
0.00309177
0.0030197
0.00405665
0.00319414
0.00312376
0.00328006
0.00353954
0.00338742
0.00363814
0.00337086
0.00360868
0.00318517
0.00365479
0.00360802
0.00294785
0.00363197
0.00297828
0.00285625
0.00326619
0.0037651
0.00316452
0.00283026
0.00348371
0.00337183
0.00306935
0.0035228
0.00315919
0.00303927
0.0034259
0.00539719
0.00328627
0.00398938
0.00400463
0.00335136
0.0039019
0.0028719
0.00476136
0.00294289
0.00413531
0.0032653
0.0034145
0.00328853
0.00314158
0.00330497
0.00343799
0.00340436
0.00369192
0.00419379
0.00405338
0.00430049
0.00361255
0.00305901
0.00332863
0.00402525
0.00285769
0.00409622
0.00380089
0.00389084
0.00348634
0.00392335
0.00304561
0.0029975
0.00369678
0.00294626
0.0032802
0.00395548
0.00281501
0.00385764
0.00328203
0.00353192
0.00340325
0.00364207
0.00353851
0.00300402
0.0036023
0.00413231
0.00390132
0.00313505
0.00306591
0.00330053
0.00299454
0.00416564
0.00339205
0.00295506
0.00397823
0.00301559
0.0038818
0.00369051
0.00373177
0.00286598
0.0032596
0.00395531
0.00339047
0.00349306
0.00359661
0.00412159
0.00325639
0.00313026
0.00290085
0.00358269
0.00284228
0.00444313
0.00299575
0.00353759
0.00402798
0.0033295
0.00366013
0.00371681
0.00292499
0.00399386
0.00381998
0.00293637
0.00331156
0.00396819
0.00296618
0.00439828
0.00301149
0.0033816
0.00299518
0.00288927
0.00341604
0.00430614
0.00302865
0.00362937
0.00373186
0.00328925
0.00399693
0.0040397
0.00365729
0.00300422
0.00293445
0.00335441
0.00375008
0.00292667
0.00461438
0.00305683
0.00486844
0.00392636
0.00306826
0.00381238
0.00320903
0.00369275
0.00341184
0.00372131
0.00330581
0.00325413
0.00396752
0.0034188
0.00342092
0.00475179
0.00362859
0.00433391
0.00397433
0.00289033
0.00404986
0.00283898
0.00387853
0.00431603
0.00312597
0.00343818
0.00462789
0.00315406
0.00462346
0.00345918
0.0038892
0.00356785
0.00453892
0.00406271
0.0052737
0.00472919
0.0063465
0.00579003
0.00916349
0.0059998
0.00281314
0.00281314
0.0028125
)
;

boundaryField
{
    inlet
    {
        type            calculated;
        value           uniform 0;
    }
    outlet
    {
        type            calculated;
        value           uniform 0;
    }
    sideWall
    {
        type            empty;
    }
}


// ************************************************************************* //
