/*--------------------------------*- C++ -*----------------------------------*\
| =========                 |                                                 |
| \\      /  F ield         | foam-extend: Open Source CFD                    |
|  \\    /   O peration     | Version:     3.2                                |
|   \\  /    A nd           | Web:         http://www.foam-extend.org         |
|    \\/     M anipulation  | For copyright notice see file Copyright         |
\*---------------------------------------------------------------------------*/
FoamFile
{
    version     2.0;
    format      ascii;
    class       areaVectorField;
    location    "1440";
    object      aMeshCentreN;
}
// * * * * * * * * * * * * * * * * * * * * * * * * * * * * * * * * * * * * * //

dimensions      [0 0 0 0 0 0 0];

internalField   nonuniform List<vector> 
550
(
(0.0090909 0.01 -1.81818e-05)
(0.0272727 0.01 -5.45454e-05)
(0.0454545 0.01 -9.09091e-05)
(0.0636364 0.01 -0.000127273)
(0.0818182 0.01 -0.000163636)
(0.1 0.01 -0.0002)
(0.118182 0.01 -0.000236364)
(0.136364 0.01 -0.000272727)
(0.154545 0.01 -0.000309091)
(0.172727 0.01 -0.000345454)
(0.190909 0.01 -0.000386115)
(0.209091 0.01 -0.000426777)
(0.227273 0.01 -0.000458843)
(0.245454 0.01 -0.000494361)
(0.263636 0.01 -0.000534177)
(0.281818 0.01 -0.000567089)
(0.3 0.01 -0.000602404)
(0.318182 0.01 -0.000643294)
(0.336364 0.01 -0.000681196)
(0.354545 0.01 -0.000716528)
(0.372727 0.01 -0.000750623)
(0.390909 0.01 -0.000784828)
(0.409091 0.01 -0.000820854)
(0.427273 0.01 -0.000855882)
(0.445454 0.01 -0.000890909)
(0.463636 0.01 -0.000927273)
(0.481818 0.01 -0.000964509)
(0.5 0.01 -0.00100174)
(0.518182 0.01 -0.00103724)
(0.536364 0.01 -0.00107273)
(0.554546 0.01 -0.00110909)
(0.572727 0.01 -0.00114613)
(0.590909 0.01 -0.00118382)
(0.609091 0.01 -0.00122078)
(0.627273 0.01 -0.00125705)
(0.645455 0.01 -0.00129274)
(0.663636 0.01 -0.00132843)
(0.681818 0.01 -0.00136531)
(0.7 0.01 -0.00140165)
(0.718182 0.01 -0.00143743)
(0.736364 0.01 -0.00147427)
(0.754545 0.01 -0.00151062)
(0.772727 0.01 -0.00154644)
(0.790909 0.01 -0.00158325)
(0.809091 0.01 -0.00162005)
(0.827273 0.01 -0.00165637)
(0.845455 0.01 -0.0016927)
(0.863636 0.01 -0.00172902)
(0.881818 0.01 -0.00176535)
(0.9 0.01 -0.00180127)
(0.918182 0.01 -0.00183678)
(0.936364 0.01 -0.00187312)
(0.954545 0.01 -0.00190988)
(0.972727 0.01 -0.00194623)
(0.990909 0.01 -0.00198259)
(1.00909 0.01 -0.00201893)
(1.02727 0.01 -0.00205529)
(1.04546 0.01 -0.00209197)
(1.06364 0.01 -0.0021273)
(1.08182 0.01 -0.00216505)
(1.1 0.01 -0.00220003)
(1.11818 0.01 -0.00223542)
(1.13636 0.01 -0.00227283)
(1.15455 0.01 -0.00230999)
(1.17273 0.01 -0.00234594)
(1.19091 0.01 -0.00238156)
(1.20909 0.01 -0.00241636)
(1.22727 0.01 -0.00245293)
(1.24546 0.01 -0.00249118)
(1.26364 0.01 -0.00252721)
(1.28182 0.01 -0.00255973)
(1.3 0.01 -0.00259576)
(1.31818 0.01 -0.00263857)
(1.33636 0.01 -0.00267543)
(1.35454 0.01 -0.00270853)
(1.37273 0.01 -0.00274145)
(1.39091 0.01 -0.00277611)
(1.40909 0.01 -0.0028132)
(1.42727 0.01 -0.00285029)
(1.44545 0.01 -0.00289469)
(1.46364 0.01 -0.00293099)
(1.48182 0.01 -0.00295413)
(1.5 0.01 -0.00298653)
(1.51818 0.01 -0.00302561)
(1.53636 0.01 -0.00306236)
(1.55454 0.01 -0.00310141)
(1.57273 0.01 -0.0031433)
(1.59091 0.01 -0.00317805)
(1.60909 0.01 -0.00320798)
(1.62727 0.01 -0.00324522)
(1.64546 0.01 -0.00329152)
(1.66364 0.01 -0.00332312)
(1.68182 0.01 -0.00334555)
(1.7 0.01 -0.00338762)
(1.71818 0.01 -0.00342888)
(1.73636 0.01 -0.00346413)
(1.75454 0.01 -0.00350675)
(1.77273 0.01 -0.00353921)
(1.79091 0.01 -0.00356698)
(1.80909 0.01 -0.00360898)
(1.82727 0.01 -0.00365321)
(1.84545 0.01 -0.0036888)
(1.86364 0.01 -0.00372145)
(1.88182 0.01 -0.00375281)
(1.9 0.01 -0.0037807)
(1.91818 0.01 -0.00381943)
(1.93636 0.01 -0.00387257)
(1.95455 0.01 -0.00390989)
(1.97273 0.01 -0.00393376)
(1.99091 0.01 -0.00397219)
(2.00909 0.01 -0.00400536)
(2.02727 0.01 -0.0040392)
(2.04546 0.01 -0.00409032)
(2.06364 0.01 -0.00412453)
(2.08182 0.01 -0.00413098)
(2.1 0.01 -0.00415427)
(2.11818 0.01 -0.0041802)
(2.13636 0.01 -0.00420717)
(2.15454 0.01 -0.00424455)
(2.17273 0.01 -0.00427266)
(2.19091 0.01 -0.00427064)
(2.20909 0.01 -0.00429334)
(2.22727 0.01 -0.00423714)
(2.24545 0.01 -0.00405104)
(2.26364 0.01 -0.00388927)
(2.28182 0.01 -0.00374142)
(2.3 0.01 -0.00360384)
(2.31818 0.01 -0.00347542)
(2.33636 0.01 -0.00335728)
(2.35454 0.01 -0.00325009)
(2.37273 0.01 -0.00315481)
(2.39091 0.01 -0.00307246)
(2.40909 0.01 -0.00300374)
(2.42727 0.01 -0.00294953)
(2.44545 0.01 -0.00291145)
(2.46364 0.01 -0.00288331)
(2.48182 0.01 -0.00287875)
(2.5 0.01 -0.00290278)
(2.51818 0.01 -0.00288766)
(2.53636 0.01 -0.00284563)
(2.55455 0.01 -0.00282806)
(2.57273 0.01 -0.00277104)
(2.59091 0.01 -0.00267703)
(2.60909 0.01 -0.00259668)
(2.62727 0.01 -0.00252326)
(2.64545 0.01 -0.00245392)
(2.66364 0.01 -0.00238883)
(2.68182 0.01 -0.00232942)
(2.7 0.01 -0.00227642)
(2.71818 0.01 -0.0022306)
(2.73636 0.01 -0.00219088)
(2.75455 0.01 -0.00215834)
(2.77273 0.01 -0.0021289)
(2.79091 0.01 -0.00210808)
(2.80909 0.01 -0.00208609)
(2.82727 0.01 -0.00207658)
(2.84545 0.01 -0.00205833)
(2.86364 0.01 -0.00205809)
(2.88182 0.01 -0.00205471)
(2.9 0.01 -0.0020771)
(2.91818 0.01 -0.00210969)
(2.93636 0.01 -0.00216063)
(2.95454 0.01 -0.00222523)
(2.97273 0.01 -0.00229806)
(2.99091 0.01 -0.00238227)
(3.00909 0.01 -0.00247691)
(3.02727 0.01 -0.00259645)
(3.04545 0.01 -0.0027601)
(3.06364 0.01 -0.0029893)
(3.08182 0.01 -0.00334644)
(3.1 0.01 -0.00363907)
(3.11818 0.01 -0.00366667)
(3.13636 0.01 -0.00370278)
(3.15455 0.01 -0.00375176)
(3.17273 0.01 -0.00379477)
(3.19091 0.01 -0.0038379)
(3.20909 0.01 -0.00387417)
(3.22727 0.01 -0.00390886)
(3.24545 0.01 -0.00393733)
(3.26364 0.01 -0.00396424)
(3.28182 0.01 -0.00398588)
(3.3 0.01 -0.00400624)
(3.31818 0.01 -0.0040223)
(3.33636 0.01 -0.00403747)
(3.35454 0.01 -0.00404899)
(3.37273 0.01 -0.00405996)
(3.39091 0.01 -0.00406796)
(3.40909 0.01 -0.00407567)
(3.42727 0.01 -0.00408091)
(3.44545 0.01 -0.0040858)
(3.46364 0.01 -0.00408859)
(3.48182 0.01 -0.00409115)
(3.5 0.01 -0.0040917)
(3.51818 0.01 -0.00409133)
(3.53636 0.01 -0.00408979)
(3.55455 0.01 -0.00408729)
(3.57273 0.01 -0.00408416)
(3.59091 0.01 -0.00408043)
(3.60909 0.01 -0.00407635)
(3.62727 0.01 -0.00407198)
(3.64546 0.01 -0.00406735)
(3.66364 0.01 -0.00406246)
(3.68182 0.01 -0.00405743)
(3.7 0.01 -0.00405245)
(3.71818 0.01 -0.00404745)
(3.73636 0.01 -0.00404241)
(3.75455 0.01 -0.00403743)
(3.77273 0.01 -0.00403247)
(3.79091 0.01 -0.00402745)
(3.80909 0.01 -0.00402245)
(3.82727 0.01 -0.00401756)
(3.84545 0.01 -0.00401287)
(3.86364 0.01 -0.00400828)
(3.88182 0.01 -0.00400393)
(3.9 0.01 -0.00399983)
(3.91818 0.01 -0.00399585)
(3.93636 0.01 -0.0039922)
(3.95454 0.01 -0.00398895)
(3.97273 0.01 -0.00398594)
(3.99091 0.01 -0.00398322)
(4.00909 0.01 -0.00398074)
(4.02727 0.01 -0.00397845)
(4.04546 0.01 -0.00397656)
(4.06364 0.01 -0.00397485)
(4.08182 0.01 -0.00397331)
(4.1 0.01 -0.00397167)
(4.11818 0.01 -0.00397039)
(4.13636 0.01 -0.0039689)
(4.15454 0.01 -0.0039678)
(4.17273 0.01 -0.00396638)
(4.19091 0.01 -0.00396556)
(4.20909 0.01 -0.00396456)
(4.22727 0.01 -0.00396417)
(4.24545 0.01 -0.00396373)
(4.26364 0.01 -0.00396402)
(4.28182 0.01 -0.00396421)
(4.3 0.01 -0.00396501)
(4.31818 0.01 -0.0039659)
(4.33636 0.01 -0.00396721)
(4.35454 0.01 -0.00396853)
(4.37273 0.01 -0.00397011)
(4.39091 0.01 -0.00397173)
(4.40909 0.01 -0.00397359)
(4.42727 0.01 -0.00397514)
(4.44545 0.01 -0.00397725)
(4.46364 0.01 -0.00397917)
(4.48182 0.01 -0.00398174)
(4.5 0.01 -0.00398406)
(4.51818 0.01 -0.00398718)
(4.53636 0.01 -0.00399)
(4.55454 0.01 -0.0039938)
(4.57273 0.01 -0.00399729)
(4.59091 0.01 -0.00400192)
(4.60909 0.01 -0.00400619)
(4.62727 0.01 -0.00401177)
(4.64546 0.01 -0.00401694)
(4.66364 0.01 -0.00402354)
(4.68182 0.01 -0.00402986)
(4.7 0.01 -0.00403787)
(4.71818 0.01 -0.00404568)
(4.73636 0.01 -0.00405494)
(4.75455 0.01 -0.00406369)
(4.77273 0.01 -0.00407413)
(4.79091 0.01 -0.00408424)
(4.80909 0.01 -0.00409612)
(4.82727 0.01 -0.00410755)
(4.84545 0.01 -0.0041207)
(4.86364 0.01 -0.00413344)
(4.88182 0.01 -0.00414801)
(4.9 0.01 -0.00416202)
(4.91818 0.01 -0.00417807)
(4.93636 0.01 -0.00419349)
(4.95454 0.01 -0.00421118)
(4.97273 0.01 -0.00422876)
(4.99091 0.01 -0.0042484)
(5.00909 0.01 -0.0042683)
(5.02727 0.01 -0.00429)
(5.04546 0.01 -0.00431276)
(5.06364 0.01 -0.00433643)
(5.08182 0.01 -0.00436187)
(5.1 0.01 -0.00438705)
(5.11818 0.01 -0.00441465)
(5.13636 0.01 -0.00444122)
(5.15455 0.01 -0.0044706)
(5.17273 0.01 -0.00449813)
(5.19091 0.01 -0.00452814)
(5.20909 0.01 -0.00455676)
(5.22727 0.01 -0.00458765)
(5.24545 0.01 -0.00461753)
(5.26364 0.01 -0.00464943)
(5.28182 0.01 -0.00468035)
(5.3 0.01 -0.00471305)
(5.31818 0.01 -0.004745)
(5.33636 0.01 -0.00477854)
(5.35454 0.01 -0.00481145)
(5.37273 0.01 -0.00484564)
(5.39091 0.01 -0.00487926)
(5.40909 0.01 -0.00491399)
(5.42727 0.01 -0.00494825)
(5.44545 0.01 -0.00498344)
(5.46364 0.01 -0.00501826)
(5.48182 0.01 -0.0050539)
(5.5 0.01 -0.00508919)
(5.51818 0.01 -0.00512501)
(5.53636 0.01 -0.00516049)
(5.55455 0.01 -0.00519641)
(5.57273 0.01 -0.005232)
(5.59091 0.01 -0.00526791)
(5.60909 0.01 -0.00530348)
(5.62727 0.01 -0.00533911)
(5.64546 0.01 -0.00537424)
(5.66364 0.01 -0.00540937)
(5.68182 0.01 -0.00544388)
(5.7 0.01 -0.00547829)
(5.71818 0.01 -0.00551193)
(5.73636 0.01 -0.00554522)
(5.75455 0.01 -0.00557775)
(5.77273 0.01 -0.00560984)
(5.79091 0.01 -0.00564112)
(5.80909 0.01 -0.00567188)
(5.82727 0.01 -0.00570193)
(5.84545 0.01 -0.00573144)
(5.86364 0.01 -0.00576013)
(5.88182 0.01 -0.00578826)
(5.9 0.01 -0.00581575)
(5.91818 0.01 -0.0058427)
(5.93636 0.01 -0.00586897)
(5.95454 0.01 -0.00589464)
(5.97273 0.01 -0.00591953)
(5.99091 0.01 -0.00594383)
(6.00909 0.01 -0.00596746)
(6.02727 0.01 -0.00599045)
(6.04546 0.01 -0.00601262)
(6.06364 0.01 -0.00603409)
(6.08182 0.01 -0.00605474)
(6.1 0.01 -0.00607454)
(6.11818 0.01 -0.00609345)
(6.13636 0.01 -0.00611149)
(6.15455 0.01 -0.00612854)
(6.17273 0.01 -0.00614463)
(6.19091 0.01 -0.00615967)
(6.20909 0.01 -0.00617365)
(6.22727 0.01 -0.00618651)
(6.24545 0.01 -0.00619824)
(6.26364 0.01 -0.00620876)
(6.28182 0.01 -0.00621808)
(6.3 0.01 -0.00622617)
(6.31818 0.01 -0.00623299)
(6.33636 0.01 -0.00623845)
(6.35454 0.01 -0.00624246)
(6.37273 0.01 -0.00624497)
(6.39091 0.01 -0.00624551)
(6.40909 0.01 -0.0062437)
(6.42727 0.01 -0.00624)
(6.44545 0.01 -0.0062348)
(6.46364 0.01 -0.00622832)
(6.48182 0.01 -0.00622067)
(6.5 0.01 -0.00621196)
(6.51818 0.01 -0.00620231)
(6.53636 0.01 -0.00619173)
(6.55455 0.01 -0.00618028)
(6.57273 0.01 -0.00616803)
(6.59091 0.01 -0.00615499)
(6.60909 0.01 -0.00614121)
(6.62727 0.01 -0.00612676)
(6.64546 0.01 -0.00611164)
(6.66364 0.01 -0.00609591)
(6.68182 0.01 -0.00607964)
(6.7 0.01 -0.00606283)
(6.71818 0.01 -0.00604552)
(6.73636 0.01 -0.00602779)
(6.75455 0.01 -0.00600973)
(6.77273 0.01 -0.00599138)
(6.79091 0.01 -0.00597283)
(6.80909 0.01 -0.00595414)
(6.82727 0.01 -0.00593531)
(6.84545 0.01 -0.0059164)
(6.86364 0.01 -0.00589747)
(6.88182 0.01 -0.00587852)
(6.9 0.01 -0.00585966)
(6.91818 0.01 -0.00584098)
(6.93636 0.01 -0.00582247)
(6.95454 0.01 -0.00580419)
(6.97273 0.01 -0.00578617)
(6.99091 0.01 -0.0057684)
(7.00909 0.01 -0.00575096)
(7.02727 0.01 -0.00573385)
(7.04545 0.01 -0.00571706)
(7.06364 0.01 -0.00570058)
(7.08182 0.01 -0.00568438)
(7.1 0.01 -0.00566854)
(7.11818 0.01 -0.00565304)
(7.13636 0.01 -0.00563785)
(7.15454 0.01 -0.00562294)
(7.17273 0.01 -0.00560833)
(7.19091 0.01 -0.00559399)
(7.20909 0.01 -0.00557999)
(7.22727 0.01 -0.0055663)
(7.24545 0.01 -0.00555294)
(7.26364 0.01 -0.0055399)
(7.28182 0.01 -0.0055272)
(7.3 0.01 -0.00551479)
(7.31818 0.01 -0.00550268)
(7.33636 0.01 -0.00549098)
(7.35454 0.01 -0.00547955)
(7.37273 0.01 -0.00546837)
(7.39091 0.01 -0.00545759)
(7.40909 0.01 -0.00544716)
(7.42727 0.01 -0.00543706)
(7.44546 0.01 -0.00542735)
(7.46364 0.01 -0.00541802)
(7.48182 0.01 -0.00540899)
(7.5 0.01 -0.00540026)
(7.51818 0.01 -0.00539197)
(7.53636 0.01 -0.00538413)
(7.55454 0.01 -0.00537654)
(7.57273 0.01 -0.00536919)
(7.59091 0.01 -0.00536222)
(7.60909 0.01 -0.0053556)
(7.62727 0.01 -0.00534934)
(7.64546 0.01 -0.00534336)
(7.66364 0.01 -0.00533768)
(7.68182 0.01 -0.00533245)
(7.7 0.01 -0.00532746)
(7.71818 0.01 -0.0053227)
(7.73636 0.01 -0.0053183)
(7.75455 0.01 -0.00531423)
(7.77273 0.01 -0.00531051)
(7.79091 0.01 -0.0053071)
(7.80909 0.01 -0.00530399)
(7.82727 0.01 -0.00530115)
(7.84545 0.01 -0.00529853)
(7.86364 0.01 -0.00529613)
(7.88182 0.01 -0.00529392)
(7.9 0.01 -0.00529184)
(7.91818 0.01 -0.00528987)
(7.93636 0.01 -0.00528796)
(7.95454 0.01 -0.0052861)
(7.97273 0.01 -0.00528423)
(7.99091 0.01 -0.00528231)
(8.00909 0.01 -0.00528048)
(8.02727 0.01 -0.00527872)
(8.04546 0.01 -0.0052768)
(8.06364 0.01 -0.00527472)
(8.08182 0.01 -0.0052726)
(8.1 0.01 -0.00527041)
(8.11818 0.01 -0.00526799)
(8.13636 0.01 -0.00526533)
(8.15454 0.01 -0.00526239)
(8.17273 0.01 -0.00525919)
(8.19091 0.01 -0.00525569)
(8.20909 0.01 -0.00525188)
(8.22727 0.01 -0.005248)
(8.24545 0.01 -0.00524403)
(8.26364 0.01 -0.00523982)
(8.28182 0.01 -0.00523541)
(8.3 0.01 -0.00523082)
(8.31818 0.01 -0.00522603)
(8.33636 0.01 -0.00522108)
(8.35454 0.01 -0.00521599)
(8.37273 0.01 -0.00521072)
(8.39091 0.01 -0.00520531)
(8.40909 0.01 -0.00519975)
(8.42727 0.01 -0.00519404)
(8.44545 0.01 -0.00518815)
(8.46364 0.01 -0.00518207)
(8.48182 0.01 -0.00517577)
(8.5 0.01 -0.00516923)
(8.51818 0.01 -0.00516241)
(8.53636 0.01 -0.0051553)
(8.55455 0.01 -0.00514786)
(8.57273 0.01 -0.0051401)
(8.59091 0.01 -0.00513202)
(8.60909 0.01 -0.00512361)
(8.62727 0.01 -0.00511489)
(8.64546 0.01 -0.00510591)
(8.66364 0.01 -0.00509643)
(8.68182 0.01 -0.00508652)
(8.7 0.01 -0.00507643)
(8.71818 0.01 -0.00506592)
(8.73636 0.01 -0.00505506)
(8.75455 0.01 -0.00504405)
(8.77273 0.01 -0.00503272)
(8.79091 0.01 -0.00502109)
(8.80909 0.01 -0.00500915)
(8.82727 0.01 -0.00499688)
(8.84546 0.01 -0.00498431)
(8.86364 0.01 -0.00497144)
(8.88182 0.01 -0.00495829)
(8.9 0.01 -0.00494484)
(8.91818 0.01 -0.00493107)
(8.93636 0.01 -0.00491698)
(8.95454 0.01 -0.00490253)
(8.97273 0.01 -0.00488772)
(8.99091 0.01 -0.00487252)
(9.00909 0.01 -0.00485696)
(9.02727 0.01 -0.00484099)
(9.04546 0.01 -0.00482442)
(9.06364 0.01 -0.00480752)
(9.08182 0.01 -0.0047903)
(9.1 0.01 -0.00477259)
(9.11818 0.01 -0.00475442)
(9.13636 0.01 -0.00473585)
(9.15454 0.01 -0.00471688)
(9.17273 0.01 -0.00469752)
(9.19091 0.01 -0.00467805)
(9.20909 0.01 -0.00465845)
(9.22727 0.01 -0.0046385)
(9.24545 0.01 -0.00461817)
(9.26364 0.01 -0.0045974)
(9.28182 0.01 -0.00457608)
(9.3 0.01 -0.0045545)
(9.31818 0.01 -0.00453246)
(9.33636 0.01 -0.00450998)
(9.35454 0.01 -0.00448705)
(9.37273 0.01 -0.00446342)
(9.39091 0.01 -0.00443996)
(9.40909 0.01 -0.00441455)
(9.42727 0.01 -0.0043906)
(9.44545 0.01 -0.00436149)
(9.46364 0.01 -0.00433812)
(9.48182 0.01 -0.00430066)
(9.5 0.01 -0.00427989)
(9.51818 0.01 -0.00423373)
(9.53636 0.01 -0.00422037)
(9.55455 0.01 -0.00418036)
(9.57273 0.01 -0.00419084)
(9.59091 0.01 -0.00418268)
(9.60909 0.01 -0.00424145)
(9.62727 0.01 -0.0043042)
(9.64545 0.01 -0.00444282)
(9.66364 0.01 -0.00462864)
(9.68182 0.01 -0.00488173)
(9.7 0.01 -0.00523751)
(9.71818 0.01 -0.00570625)
(9.73636 0.01 -0.00638717)
(9.75455 0.01 -0.0073825)
(9.77273 0.01 -0.00895123)
(9.79091 0.01 -0.0115811)
(9.80909 0.01 -0.0165058)
(9.82727 0.01 -0.0196545)
(9.84545 0.01 -0.0196909)
(9.86364 0.01 -0.0197273)
(9.88182 0.01 -0.0197636)
(9.9 0.01 -0.0198)
(9.91818 0.01 -0.0198363)
(9.93636 0.01 -0.0198727)
(9.95454 0.01 -0.0199091)
(9.97273 0.01 -0.0199454)
(9.99091 0.01 -0.0199818)
)
;

boundaryField
{
    inlet
    {
        type            calculated;
        value           uniform (0 0 0);
    }
    endWall
    {
        type            calculated;
        value           uniform (0 0 0);
    }
    sideWall
    {
        type            empty;
    }
}


// ************************************************************************* //
