/*--------------------------------*- C++ -*----------------------------------*\
| =========                 |                                                 |
| \\      /  F ield         | foam-extend: Open Source CFD                    |
|  \\    /   O peration     | Version:     3.2                                |
|   \\  /    A nd           | Web:         http://www.foam-extend.org         |
|    \\/     M anipulation  | For copyright notice see file Copyright         |
\*---------------------------------------------------------------------------*/
FoamFile
{
    version     2.0;
    format      ascii;
    class       areaScalarField;
    location    "1440";
    object      angBeta;
}
// * * * * * * * * * * * * * * * * * * * * * * * * * * * * * * * * * * * * * //

dimensions      [0 0 0 0 0 0 0];

internalField   nonuniform List<scalar> 
550
(
0.002
0.002
0.00199999
0.00200002
0.00199996
0.00200001
0.00199994
0.002
0.00200011
0.00199994
0.00247272
0.002
0.00152722
0.00237984
0.002
0.00162023
0.00226449
0.0022333
0.00193581
0.00195088
0.00179964
0.00196282
0.002
0.00185298
0.00200011
0.002
0.00209586
0.00199967
0.00190463
0.00199978
0.00199989
0.00207458
0.00207128
0.00199428
0.00199483
0.00193113
0.00199593
0.00206028
0.00193763
0.00199758
0.00205533
0.00194268
0.00199758
0.00205148
0.00199703
0.00199813
0.00199769
0.00199758
0.00199868
0.00195248
0.00195413
0.00204323
0.00199989
0.00199923
0.00199978
0.00199835
0.00200055
0.00203411
0.00185198
0.00230034
0.00154831
0.00234426
0.00177136
0.00231528
0.00163916
0.00227902
0.00154901
0.0024739
0.00173318
0.00222934
0.00134886
0.00261423
0.00209566
0.00195921
0.00168172
0.00193863
0.0018748
0.00220464
0.00187586
0.00300742
0.000983603
0.00156218
0.00200214
0.00229736
0.00174539
0.00254908
0.00205805
0.0017655
0.00152666
0.00256987
0.00252288
0.000951286
0.00151652
0.00311206
0.00142717
0.00245057
0.00223697
0.00133244
0.00172276
0.00289759
0.0019676
0.00194742
0.00164345
0.00180595
0.00126279
0.00299713
0.00284931
0.00125503
0.00137052
0.00285697
0.000792482
0.00293008
0.0026925
0.00106884
0.000359214
0.00292123
6.84764e-05
0.00303607
0.00107574
0.0020151
0.00223664
0.00473413
0.0109167
0.00955071
0.00823988
0.00802446
0.00711053
0.00701726
0.00597878
0.00581084
0.00466673
0.00439311
0.0031669
0.00279699
0.00139144
0.00170353
0.00120196
0.00144173
0.00310533
0.00151853
0.000414114
0.00585798
0.00448429
0.00435488
0.00372214
0.00390341
0.00325496
0.00328155
0.00254823
0.0024925
0.00187719
0.00170208
0.00153518
0.000755411
0.00166412
0.000618233
0.00262504
0.00260103
0.00297379
0.00543771
0.00185272
0.00745688
0.000350423
0.00836214
0.000901673
0.00951019
0.00363973
0.014355
0.0108494
0.0284323
0.00375211
0.000714802
0.00468679
0.000700699
0.0040313
0.000712687
0.00327768
0.000538731
0.00259224
0.000366825
0.00201347
0.000226611
0.00153997
0.000128558
0.00113836
6.74448e-05
0.000812358
3.5997e-05
0.000540705
2.41472e-06
0.000309328
2.78594e-05
8.77481e-05
0.000127493
4.22886e-05
0.000232612
0.000112155
0.000297709
0.00015075
0.000329858
0.000180041
0.00035795
0.000194608
0.00035342
0.000196468
0.00035797
0.000189942
0.000355814
0.000196583
0.000353049
0.000185653
0.000329602
0.00017499
0.000303498
0.000147764
0.000290678
0.000110484
0.000246493
8.45653e-05
0.000215446
5.6585e-05
0.000195197
1.3553e-05
0.000173706
3.42296e-06
0.000183236
4.25492e-05
0.000207001
8.66069e-05
0.000243455
0.000153104
0.00026244
0.000219406
0.0002681
0.000300375
0.000280009
0.000368496
0.000270202
0.000413852
0.00026823
0.000441455
0.000263268
0.000468366
0.000297505
0.000529335
0.00031894
0.00060138
0.000345888
0.000689026
0.000378245
0.000795975
0.000413298
0.00092311
0.000452854
0.00106616
0.000497229
0.00122342
0.00052794
0.00140972
0.000550647
0.00156935
0.000606456
0.00175541
0.000643438
0.00195024
0.000692347
0.00213674
0.000735627
0.00233787
0.000795727
0.00256072
0.000863694
0.00280725
0.000874002
0.0030346
0.000846149
0.00323398
0.00072979
0.00333451
0.000536749
0.00330712
0.000271105
0.0031944
3.76534e-05
0.00299159
0.000309445
0.00283846
0.0005597
0.0027262
0.000781931
0.00262
0.000976597
0.0025381
0.0011522
0.00246718
0.00129246
0.00240584
0.00141536
0.00235371
0.00151681
0.0023128
0.00160815
0.00227314
0.00166838
0.0022346
0.00171598
0.0021986
0.00175139
0.00216176
0.00175846
0.00210481
0.00175867
0.00203763
0.00174751
0.00195309
0.00170929
0.00186894
0.00165982
0.0017815
0.00160198
0.00170376
0.00154185
0.00161355
0.00148157
0.00154311
0.0014209
0.00146895
0.00135489
0.001382
0.00129152
0.00130859
0.0012196
0.00121865
0.00114304
0.0011287
0.00105007
0.0010303
0.000953383
0.000922514
0.000846524
0.000808077
0.000729954
0.000684895
0.000605214
0.000551556
0.000474153
0.000415468
0.000335002
0.000265426
0.000175601
0.000100141
3.97281e-05
0.000160351
0.000246145
0.000326109
0.000386168
0.000455672
0.00050275
0.000558562
0.000605338
0.000653767
0.000693322
0.000741368
0.000774758
0.000815128
0.000847714
0.000881735
0.000908623
0.000940945
0.00096352
0.000985907
0.00100069
0.00101771
0.00102251
0.00103368
0.00103809
0.00104137
0.00104146
0.0010428
0.00103145
0.00102421
0.00101221
0.000997594
0.000984343
0.000970777
0.000947846
0.000934635
0.000911722
0.000901065
0.000881177
0.000860611
0.000844499
0.000827323
0.000811813
0.000795533
0.000782109
0.000758282
0.000747153
0.000722729
0.000711531
0.00068522
0.000679446
0.000653108
0.000633728
0.00062385
0.000605364
0.000580637
0.000567584
0.000542544
0.000525417
0.000501474
0.000491447
0.00046925
0.000442509
0.000420058
0.000414927
0.00039326
0.000372856
0.000355786
0.000333265
0.000324636
0.000299706
0.000275042
0.000274533
0.000249423
0.000234781
0.000212404
0.000197044
0.000177441
0.000164669
0.000148153
0.000139524
0.000124688
0.000118821
0.000109854
0.000106709
0.000103148
0.000101393
0.000104423
0.000107297
9.35018e-05
0.000100691
0.000109659
0.000119481
0.000113672
0.00012745
0.000139085
0.000153562
0.000169506
0.000182682
0.000202147
0.000216629
0.00021084
0.000225161
0.000237802
0.000247272
0.000258167
0.000268413
0.000276079
0.000284401
0.00029444
0.000301493
0.000310049
0.000317609
0.000330031
0.000338619
0.000354374
0.000365849
0.000383864
0.000399052
0.000418869
0.000434484
0.000453975
0.000472061
0.000486781
0.000501286
0.000541084
0.00054886
0.000560978
0.000595472
0.000599395
0.00061094
0.000635492
0.00064444
0.000668888
0.000680206
0.000702747
0.000712417
0.000734536
0.000745183
0.000769024
0.000781705
0.000807742
0.000821185
0.000850939
0.000860899
0.000895184
0.000927203
0.000932148
0.000962362
0.000985955
0.0010124
0.00103024
0.00105689
0.00107168
0.00107082
0.00108544
0.00110871
0.0011278
0.00115611
0.00118903
0.00118507
0.00123974
0.0012328
0.00128973
0.00130917
0.00127192
0.00152254
0.00111299
0.00208833
0.00048077
0.00364038
0.001355
0.0064324
0.00496243
0.00935888
0.0105175
0.0114153
0.0178787
0.0109761
0.0262049
0.00578268
0.0336125
0.00551433
0.0460199
0.0288489
0.0804212
0.0916807
0.194869
0.331677
0.0019967
0.0020011
0.0020022
0.0019967
0.0020022
0.0019967
0.0020022
0.0020011
0.0019967
0.0020022
)
;

boundaryField
{
    inlet
    {
        type            calculated;
        value           uniform 0;
    }
    endWall
    {
        type            calculated;
        value           uniform 0;
    }
    sideWall
    {
        type            empty;
    }
}


// ************************************************************************* //
