/*--------------------------------*- C++ -*----------------------------------*\
| =========                 |                                                 |
| \\      /  F ield         | foam-extend: Open Source CFD                    |
|  \\    /   O peration     | Version:     3.2                                |
|   \\  /    A nd           | Web:         http://www.foam-extend.org         |
|    \\/     M anipulation  | For copyright notice see file Copyright         |
\*---------------------------------------------------------------------------*/
FoamFile
{
    version     2.0;
    format      ascii;
    class       areaScalarField;
    location    "1440";
    object      Cpost;
}
// * * * * * * * * * * * * * * * * * * * * * * * * * * * * * * * * * * * * * //

dimensions      [1 -3 0 0 0 0 0];

internalField   nonuniform List<scalar> 
550
(
0.0235
0.0235
0.0235
0.0235
0.0235
0.0235
0.0235
0.0235
0.0235
0.0235
0.0235
0.0235
0.0235
0.0235
0.0235
0.0235
0.0235
0.0235
0.0235
0.0235
0.0235
0.0235
0.0235
0.0235
0.0235
0.0235
0.0235
0.0235
0.0235
0.0235
0.0235
0.0235
0.0235
0.0235
0.0235
0.0235
0.0235
0.0235
0.0235
0.0235
0.0235
0.0235
0.0235
0.0235
0.0235
0.0235
0.0235
0.0235
0.0235
0.0235
0.0235
0.0235
0.0235
0.0235
0.0235
0.0235
0.0235
0.0235
0.0235
0.0234998
0.023508
0.0235305
0.0235503
0.0235677
0.0235823
0.0235984
0.0236129
0.0236226
0.0236345
0.0236444
0.023654
0.0236613
0.0236615
0.0236732
0.0236771
0.0236828
0.023684
0.0236892
0.0236935
0.0236899
0.0236963
0.0237008
0.0237013
0.0236951
0.0236983
0.0236899
0.0236797
0.023685
0.0236788
0.0236846
0.0236766
0.0236726
0.02368
0.0236594
0.0236579
0.0236527
0.023648
0.0236541
0.0236503
0.0236396
0.0236336
0.0236378
0.0236333
0.02363
0.0236307
0.0236245
0.0236083
0.023619
0.0236196
0.023609
0.0236094
0.0236117
0.0236012
0.0236038
0.0236094
0.0236044
0.0235948
0.0235912
0.0235865
0.0235815
0.0235803
0.0235813
0.0235688
0.023555
0.023546
0.023541
0.0235364
0.0235304
0.0235243
0.0235177
0.023512
0.0235064
0.0235017
0.0234969
0.0234929
0.0234884
0.0234846
0.0234804
0.0234756
0.0234717
0.0234679
0.0234615
0.0234562
0.0234508
0.0234458
0.0234404
0.0234355
0.0234302
0.0234254
0.0234203
0.0234156
0.0234107
0.0234059
0.0234014
0.0233961
0.023392
0.0233857
0.0233812
0.0233745
0.0233695
0.0233638
0.0233584
0.0233537
0.0233482
0.0233438
0.0233381
0.0233329
0.0233258
0.023319
0.0233098
0.0233157
0.0233188
0.0233196
0.0233192
0.0233171
0.0233143
0.0233103
0.023306
0.0233008
0.0232955
0.0232896
0.0232836
0.0232772
0.0232708
0.0232641
0.0232575
0.0232507
0.0232439
0.0232371
0.0232303
0.0232234
0.0232166
0.0232098
0.0232029
0.0231961
0.0231892
0.0231825
0.0231756
0.0231689
0.0231621
0.0231555
0.0231488
0.0231423
0.0231357
0.0231292
0.0231226
0.0231162
0.0231097
0.0231033
0.0230969
0.0230905
0.0230841
0.0230778
0.0230714
0.0230651
0.0230587
0.0230524
0.023046
0.0230398
0.0230333
0.0230271
0.0230206
0.0230143
0.0230079
0.0230016
0.022995
0.0229887
0.0229821
0.0229757
0.022969
0.0229626
0.0229559
0.0229493
0.0229426
0.022936
0.0229292
0.0229226
0.0229158
0.0229092
0.0229023
0.0228956
0.0228888
0.0228821
0.0228752
0.0228684
0.0228615
0.0228547
0.0228478
0.022841
0.022834
0.0228272
0.0228202
0.0228133
0.0228063
0.0227995
0.0227924
0.0227856
0.0227785
0.0227717
0.0227646
0.0227578
0.0227507
0.0227439
0.0227369
0.0227301
0.022723
0.0227162
0.0227092
0.0227024
0.0226954
0.0226887
0.0226817
0.0226749
0.022668
0.0226613
0.0226544
0.0226477
0.022641
0.0226343
0.0226278
0.0226211
0.0226147
0.0226081
0.0226018
0.0225951
0.0225888
0.0225821
0.0225758
0.0225692
0.0225629
0.0225563
0.02255
0.0225435
0.0225372
0.0225307
0.0225245
0.0225181
0.0225118
0.0225054
0.0224992
0.0224929
0.0224867
0.0224804
0.0224742
0.022468
0.0224619
0.0224557
0.0224496
0.0224434
0.0224373
0.0224312
0.0224251
0.0224191
0.022413
0.022407
0.022401
0.022395
0.0223891
0.0223831
0.0223772
0.0223713
0.0223654
0.0223595
0.0223537
0.0223478
0.022342
0.0223362
0.0223305
0.0223247
0.022319
0.0223133
0.0223076
0.022302
0.0222964
0.0222908
0.0222852
0.0222797
0.0222741
0.0222687
0.0222632
0.0222578
0.0222524
0.022247
0.0222416
0.0222363
0.022231
0.0222258
0.0222205
0.0222153
0.0222102
0.022205
0.0221999
0.0221947
0.0221895
0.0221843
0.0221791
0.0221739
0.0221688
0.0221637
0.0221586
0.0221536
0.0221486
0.0221437
0.0221388
0.022134
0.0221292
0.0221245
0.0221198
0.0221152
0.0221106
0.0221061
0.0221016
0.0220972
0.0220929
0.0220886
0.0220844
0.0220802
0.022076
0.0220719
0.0220679
0.0220639
0.02206
0.0220561
0.0220523
0.0220485
0.0220447
0.022041
0.0220373
0.0220337
0.0220301
0.0220265
0.022023
0.0220195
0.022016
0.0220126
0.0220092
0.0220058
0.0220024
0.021999
0.0219957
0.0219924
0.0219891
0.0219858
0.0219825
0.0219792
0.0219759
0.0219726
0.0219693
0.021966
0.0219627
0.0219594
0.021956
0.0219527
0.0219494
0.021946
0.0219427
0.0219393
0.021936
0.0219327
0.0219293
0.021926
0.0219227
0.0219194
0.0219161
0.0219128
0.0219096
0.0219063
0.021903
0.0218998
0.0218965
0.0218933
0.02189
0.0218868
0.0218835
0.0218803
0.021877
0.0218737
0.0218704
0.021867
0.0218637
0.0218603
0.021857
0.0218535
0.0218501
0.0218467
0.0218432
0.0218397
0.0218362
0.0218327
0.0218291
0.0218256
0.021822
0.0218183
0.0218147
0.021811
0.0218073
0.0218036
0.0217998
0.0217961
0.0217923
0.0217885
0.0217847
0.0217808
0.0217769
0.021773
0.0217691
0.0217652
0.0217612
0.0217572
0.0217532
0.0217492
0.0217452
0.0217411
0.021737
0.0217329
0.0217288
0.0217247
0.0217206
0.0217165
0.0217124
0.0217083
0.0217042
0.0217001
0.021696
0.0216919
0.0216878
0.0216837
0.0216796
0.0216755
0.0216714
0.0216673
0.0216632
0.0216591
0.0216549
0.0216508
0.0216466
0.0216424
0.0216382
0.021634
0.0216297
0.0216255
0.0216213
0.021617
0.0216128
0.0216085
0.0216042
0.0216
0.0215957
0.0215914
0.0215871
0.0215828
0.0215785
0.0215741
0.0215698
0.0215654
0.021561
0.0215566
0.0215521
0.0215478
0.0215429
0.021539
0.0215331
0.0215298
0.021522
0.0215189
0.0215095
0.0215065
0.0214964
0.0214934
0.0214842
0.0214807
0.0214754
0.0214703
0.0214653
0.021458
0.021448
0.0214373
0.0214201
0.0214064
0.0214078
0.0214084
0.0214084
0.0214082
0.0214077
0.0214067
0.021404
0.0213807
0.0213704
0.0213692
0.0213692
)
;

boundaryField
{
    inlet
    {
        type            calculated;
        value           uniform 0;
    }
    endWall
    {
        type            calculated;
        value           uniform 0;
    }
    sideWall
    {
        type            empty;
    }
}


// ************************************************************************* //
