/*--------------------------------*- C++ -*----------------------------------*\
| =========                 |                                                 |
| \\      /  F ield         | foam-extend: Open Source CFD                    |
|  \\    /   O peration     | Version:     3.2                                |
|   \\  /    A nd           | Web:         http://www.foam-extend.org         |
|    \\/     M anipulation  | For copyright notice see file Copyright         |
\*---------------------------------------------------------------------------*/
FoamFile
{
    version     2.0;
    format      ascii;
    class       areaScalarField;
    location    "1440";
    object      Cs;
}
// * * * * * * * * * * * * * * * * * * * * * * * * * * * * * * * * * * * * * //

dimensions      [0 0 0 0 0 0 0];

internalField   nonuniform List<scalar> 
550
(
0.434383
0.434017
0.434383
0.434383
0.434383
0.434383
0.431717
0.434383
0.434383
0.430683
0.434383
0.434383
0.434383
0.434383
0.434383
0.434383
0.434383
0.434383
0.434383
0.434383
0.434383
0.434383
0.434383
0.434383
0.434383
0.434383
0.434383
0.434383
0.434383
0.434383
0.434383
0.434383
0.434383
0.434383
0.434383
0.434383
0.434383
0.434383
0.434383
0.434383
0.434383
0.434383
0.434383
0.434383
0.434383
0.434383
0.434383
0.434383
0.434383
0.434383
0.434383
0.434383
0.434383
0.434383
0.434383
0.434383
0.434383
0.434383
0.434383
0.434383
0.434383
0.431792
0.434383
0.3932
0.388509
0.43181
0.431796
0.431856
0.36715
0.431879
0.431879
0.431948
0.331425
0.314964
0.432043
0.432036
0.431962
0.432041
0.432014
0.434383
0.223383
0.431913
0.431855
0.431827
0.431788
0.431825
0.431803
0.431707
0.431688
0.431731
0.434383
0.431676
0.431498
0.431441
0.431329
0.431297
0.431333
0.431258
0.431134
0.431125
0.431135
0.431097
0.431069
0.431057
0.430967
0.430956
0.431044
0.069489
0.430896
0.431007
0.430944
0.430917
0.431058
0.431275
0.431029
0.431074
0.43089
0.430974
0.431048
0.431531
0.431282
0.432403
0.433627
0.432162
0.430627
0.428721
0.426855
0.424974
0.423183
0.421472
0.419874
0.418393
0.417064
0.415862
0.414916
0.414569
0.413416
0.414534
0.419022
0.418458
0.418387
0.423346
0.422822
0.42231
0.421862
0.421374
0.42083
0.420271
0.419722
0.419283
0.418951
0.41873
0.41859
0.418521
0.418552
0.418724
0.418985
0.419251
0.419419
0.419556
0.420014
0.420725
0.421732
0.423007
0.424277
0.425284
0.425766
0.426077
0.426829
0.42855
0.458328
0.45795
0.457598
0.457249
0.456929
0.456612
0.456298
0.456014
0.455734
0.455469
0.455221
0.454978
0.45475
0.454539
0.454329
0.454135
0.453942
0.453764
0.4536
0.453436
0.453271
0.453121
0.452983
0.452829
0.452703
0.45256
0.452445
0.452312
0.452191
0.452068
0.451957
0.451843
0.451728
0.451609
0.451503
0.451395
0.451282
0.451182
0.451078
0.450969
0.450856
0.450737
0.450629
0.4505
0.450384
0.450266
0.450127
0.450005
0.449881
0.449757
0.449633
0.44951
0.449373
0.449255
0.44914
0.449006
0.448889
0.448754
0.448634
0.448496
0.448356
0.448216
0.448073
0.447916
0.447772
0.447631
0.447472
0.447331
0.447174
0.447032
0.446873
0.446713
0.44657
0.44641
0.446249
0.446089
0.445929
0.44577
0.44561
0.445452
0.445296
0.44514
0.444987
0.444838
0.444692
0.44455
0.444412
0.444265
0.444138
0.444017
0.443916
0.443807
0.443703
0.443605
0.443513
0.443442
0.443362
0.443287
0.443231
0.443164
0.443118
0.443073
0.443018
0.442983
0.442951
0.442924
0.442903
0.442887
0.442891
0.442887
0.442889
0.44291
0.442924
0.442958
0.442996
0.44304
0.443088
0.443142
0.443202
0.443279
0.443347
0.443433
0.44351
0.443604
0.443703
0.443804
0.443909
0.444015
0.444125
0.444235
0.444346
0.444457
0.444582
0.444693
0.444814
0.444921
0.445037
0.445137
0.445244
0.445345
0.445428
0.445516
0.445582
0.445653
0.445714
0.445754
0.445796
0.445817
0.445839
0.44584
0.445842
0.445836
0.445822
0.445791
0.445762
0.445725
0.445681
0.445638
0.445581
0.445517
0.445447
0.445377
0.445295
0.445206
0.445114
0.445009
0.444898
0.44478
0.444649
0.444509
0.444357
0.444194
0.444021
0.443835
0.443639
0.443432
0.443216
0.442991
0.442758
0.442515
0.442267
0.442012
0.441755
0.441492
0.441224
0.440956
0.44069
0.440417
0.440143
0.439871
0.439593
0.439317
0.439039
0.43876
0.438478
0.438196
0.437913
0.437628
0.437347
0.43706
0.436777
0.436489
0.436207
0.435919
0.435639
0.435362
0.435088
0.43482
0.434553
0.434288
0.434027
0.433775
0.433526
0.433287
0.433055
0.432823
0.432609
0.432394
0.432197
0.432001
0.431815
0.431637
0.431467
0.431304
0.43115
0.431003
0.430854
0.430721
0.430585
0.430465
0.430342
0.430237
0.430126
0.430021
0.429935
0.42984
0.429753
0.429669
0.42959
0.429514
0.429443
0.429377
0.429316
0.429244
0.429188
0.429138
0.429091
0.429034
0.428993
0.428943
0.428911
0.428867
0.428827
0.428805
0.428769
0.428738
0.428708
0.42868
0.428656
0.428633
0.428614
0.428596
0.428579
0.428563
0.428548
0.428533
0.428518
0.428501
0.428483
0.428463
0.428425
0.428401
0.428373
0.428343
0.428295
0.428258
0.428215
0.428168
0.428115
0.428054
0.427986
0.42791
0.427812
0.427721
0.427624
0.42752
0.42741
0.427295
0.427174
0.427048
0.426918
0.426781
0.42664
0.426495
0.426347
0.426195
0.426041
0.425883
0.425722
0.425557
0.425387
0.425212
0.425032
0.424846
0.424653
0.424455
0.424268
0.424057
0.423839
0.423634
0.423406
0.423173
0.422955
0.422716
0.422492
0.422248
0.42202
0.421769
0.421536
0.421283
0.421048
0.420792
0.420554
0.420296
0.420055
0.419792
0.419544
0.419292
0.419018
0.418756
0.418491
0.41822
0.417945
0.417667
0.417385
0.417084
0.416801
0.416519
0.416239
0.415962
0.415686
0.415393
0.415119
0.414845
0.414572
0.414284
0.414013
0.413747
0.413461
0.413199
0.412935
0.412656
0.412392
0.412148
0.411886
0.411639
0.411393
0.411137
0.410914
0.410684
0.410473
0.410162
0.409952
0.409349
0.408906
0.407368
0.405492
0.401232
0.391315
0.397683
0.434383
0.434383
0.434383
0.434383
0.434383
0.434383
0.434383
0.434383
0.25552
0.277795
)
;

boundaryField
{
    inlet
    {
        type            calculated;
        value           uniform 0;
    }
    endWall
    {
        type            calculated;
        value           uniform 0;
    }
    sideWall
    {
        type            empty;
    }
}


// ************************************************************************* //
