/*--------------------------------*- C++ -*----------------------------------*\
| =========                 |                                                 |
| \\      /  F ield         | foam-extend: Open Source CFD                    |
|  \\    /   O peration     | Version:     3.2                                |
|   \\  /    A nd           | Web:         http://www.foam-extend.org         |
|    \\/     M anipulation  | For copyright notice see file Copyright         |
\*---------------------------------------------------------------------------*/
FoamFile
{
    version     2.0;
    format      ascii;
    class       areaScalarField;
    location    "910";
    object      deltaHb;
}
// * * * * * * * * * * * * * * * * * * * * * * * * * * * * * * * * * * * * * //

dimensions      [0 1 -1 0 0 0 0];

internalField   nonuniform List<scalar> 
550
(
0
0
-8.84025e-09
-3.62999e-08
-6.91827e-08
-9.51425e-08
-1.18886e-07
-1.35258e-07
-1.37695e-07
-1.37327e-07
-1.25822e-07
-1.09968e-07
-9.32374e-08
-6.47507e-08
-4.75889e-08
-3.20016e-08
-7.18968e-09
7.01578e-09
1.4026e-08
2.21804e-08
2.46711e-08
3.28382e-08
3.60311e-08
3.41748e-08
3.84499e-08
3.82678e-08
4.05232e-08
3.59131e-08
3.1078e-08
3.25403e-08
3.08051e-08
3.16983e-08
2.9795e-08
2.52285e-08
2.3499e-08
1.9437e-08
2.02839e-08
2.12278e-08
1.51736e-08
1.61764e-08
1.72678e-08
1.17454e-08
1.287e-08
1.40647e-08
1.10308e-08
1.02045e-08
9.43649e-09
8.72296e-09
8.07013e-09
5.4385e-09
4.89137e-09
8.49011e-09
6.01929e-09
5.63398e-09
5.32043e-09
4.98021e-09
4.7614e-09
2.52214e-09
6.14601e-09
5.88468e-09
1.94654e-09
1.77716e-09
3.4317e-09
3.25432e-09
4.81878e-09
2.94399e-09
2.7872e-09
2.6799e-09
2.55241e-09
4.15145e-09
6.45832e-10
5.50858e-10
3.90521e-09
3.8497e-09
3.27415e-10
2.79661e-10
1.99634e-09
3.7427e-09
1.98602e-09
1.95435e-09
3.68399e-09
2.8295e-10
3.19148e-10
2.00088e-09
1.98631e-09
1.95886e-09
3.31876e-09
3.23159e-09
1.74721e-09
1.70335e-09
3.62337e-10
1.6171e-09
2.87768e-09
2.44837e-10
2.08838e-10
2.82357e-09
1.47132e-09
1.4926e-09
2.83807e-09
1.48112e-09
9.54389e-11
9.22337e-11
2.85973e-09
1.49341e-09
1.29852e-10
1.53047e-09
1.55108e-09
1.5715e-09
1.59343e-09
1.6188e-09
2.19393e-08
2.91506e-09
-1.74647e-08
4.63822e-08
4.04606e-08
-4.30979e-08
2.06902e-08
4.60418e-08
-5.62546e-08
-4.28493e-08
7.66719e-08
1.86685e-09
-7.32313e-08
4.87298e-10
1.03529e-07
3.05071e-09
-1.0001e-07
1.16166e-09
1.33503e-09
1.13161e-09
1.06905e-07
2.66705e-09
-1.03376e-07
1.63213e-09
1.80217e-09
1.51931e-09
1.49432e-09
1.45163e-07
2.12202e-09
-1.4132e-07
9.77245e-10
1.31006e-09
2.08234e-09
1.44875e-09
1.56687e-09
1.38523e-07
1.77134e-09
-1.35107e-07
1.40408e-09
1.49853e-09
7.78893e-10
1.88054e-09
2.51948e-09
8.70348e-10
6.83969e-10
2.07012e-09
2.04663e-09
1.1164e-09
1.28405e-07
1.66992e-09
-1.25417e-07
1.24324e-09
1.13222e-09
1.39252e-09
1.65418e-09
1.01326e-09
6.01621e-10
1.75535e-09
1.84162e-09
7.83736e-10
1.18637e-09
1.40925e-09
1.18488e-09
1.18423e-09
1.09974e-09
9.34287e-10
8.45981e-10
1.16251e-07
1.35464e-09
-1.14104e-07
9.88854e-10
8.28627e-10
7.26316e-10
9.87127e-10
8.77047e-10
1.18916e-09
1.07027e-09
4.10532e-10
8.36706e-10
1.13513e-09
7.54183e-10
1.09584e-07
9.07346e-10
-1.08325e-07
3.41819e-10
7.94887e-10
8.81543e-10
9.53987e-10
5.6107e-10
2.64534e-10
9.59302e-10
8.93863e-10
4.80745e-10
5.18216e-10
3.67342e-10
3.36745e-10
2.32289e-10
5.68121e-10
5.14412e-10
3.91304e-10
6.72733e-10
4.79021e-10
4.66949e-10
7.47668e-10
1.98257e-09
1.62143e-09
-3.36408e-10
-4.649e-10
-2.46907e-10
-3.89441e-10
-2.88539e-10
-3.43979e-10
-3.00303e-10
-3.44145e-10
-3.22244e-10
-3.52012e-10
-3.40778e-10
-3.43231e-10
-3.37769e-10
-3.10438e-10
-3.00491e-10
-2.52999e-10
-2.24639e-10
-1.77139e-10
-1.0955e-10
-1.04005e-10
-3.86864e-14
-1.43024e-10
4.36343e-11
-8.43842e-13
4.08679e-11
-9.31058e-11
-2.95201e-10
1.22431e-10
3.71454e-11
3.1127e-10
1.60473e-10
-1.55372e-10
1.05697e-10
1.81444e-10
1.01058e-10
2.12753e-10
4.45005e-11
1.75924e-10
3.48567e-10
3.18456e-10
2.26383e-10
1.56951e-10
8.61886e-11
1.80409e-10
1.37077e-10
-1.62573e-12
1.98658e-11
6.84954e-11
1.9843e-10
2.18223e-10
2.79799e-10
3.1023e-10
2.82099e-10
3.14728e-10
3.76083e-10
3.52171e-10
3.81345e-10
3.85202e-10
3.52478e-10
3.23734e-10
3.34441e-10
3.18505e-10
2.58621e-10
2.28351e-10
2.30175e-10
2.27972e-10
2.11968e-10
1.75047e-10
1.4211e-10
1.22173e-10
1.07243e-10
8.94942e-11
6.29516e-11
4.3234e-11
3.83226e-11
4.16113e-11
3.90757e-11
2.52763e-11
1.99534e-11
2.34972e-11
3.6578e-11
4.81999e-11
5.43615e-11
5.37156e-11
5.05655e-11
4.18823e-11
3.81814e-11
3.55754e-11
3.74359e-11
3.95293e-11
4.34666e-11
4.62631e-11
4.98747e-11
5.31775e-11
5.78336e-11
6.18929e-11
6.68151e-11
6.9859e-11
7.34432e-11
7.73273e-11
8.22575e-11
8.69437e-11
9.31624e-11
9.65938e-11
9.92657e-11
1.00146e-10
1.01197e-10
9.92694e-11
9.89762e-11
9.643e-11
9.38129e-11
9.04806e-11
8.69016e-11
8.43349e-11
8.02342e-11
7.90277e-11
7.69343e-11
5.83204e-11
3.66331e-11
1.91884e-11
4.93328e-12
-4.6183e-12
-1.33521e-11
-2.07708e-11
-2.92052e-11
-3.52818e-11
-3.96267e-11
-4.26853e-11
-4.39798e-11
-4.19943e-11
-3.86935e-11
-3.39306e-11
-2.65381e-11
-1.45445e-11
-9.67676e-12
-2.91697e-11
-4.77516e-11
-6.01886e-11
-6.98172e-11
-7.25576e-11
-6.44415e-11
-4.68859e-11
-3.16614e-11
-1.0957e-11
1.03654e-11
2.51549e-11
4.14331e-11
6.82147e-11
9.15844e-11
1.16173e-10
1.52115e-10
1.84156e-10
1.98767e-10
1.92473e-10
1.78601e-10
1.70112e-10
1.65676e-10
1.65871e-10
1.68676e-10
1.71658e-10
1.77239e-10
1.82261e-10
1.86576e-10
1.90464e-10
1.96725e-10
1.98397e-10
1.95964e-10
1.90009e-10
1.76805e-10
1.61897e-10
1.45659e-10
1.30102e-10
1.15346e-10
1.02699e-10
9.35095e-11
8.60226e-11
8.02743e-11
7.52948e-11
7.42581e-11
7.37241e-11
7.49866e-11
7.83165e-11
8.09638e-11
8.46431e-11
8.72715e-11
8.87656e-11
9.00624e-11
9.15974e-11
9.24688e-11
9.21323e-11
9.24645e-11
9.19584e-11
9.05357e-11
8.96508e-11
8.99976e-11
8.94946e-11
9.1386e-11
9.24771e-11
9.30556e-11
9.57621e-11
9.75346e-11
1.013e-10
1.03969e-10
1.07818e-10
1.12838e-10
1.17447e-10
1.22002e-10
1.26076e-10
1.28945e-10
1.32656e-10
1.36013e-10
1.37798e-10
1.39596e-10
1.39656e-10
1.40542e-10
1.40086e-10
1.39296e-10
1.37296e-10
1.35374e-10
1.33271e-10
1.31437e-10
1.29772e-10
1.27892e-10
1.25314e-10
1.2389e-10
1.22111e-10
1.18916e-10
1.18496e-10
1.14905e-10
1.13068e-10
1.11471e-10
1.09526e-10
1.08173e-10
1.06961e-10
1.06558e-10
1.0673e-10
1.0564e-10
1.07243e-10
1.0887e-10
1.08808e-10
1.1145e-10
1.1424e-10
1.16704e-10
1.19585e-10
1.22566e-10
1.2596e-10
1.30093e-10
1.31823e-10
1.35551e-10
1.36717e-10
1.37072e-10
1.38028e-10
1.37248e-10
1.34812e-10
1.33495e-10
1.27466e-10
1.22839e-10
1.15405e-10
1.07811e-10
1.02335e-10
7.39665e-11
3.15509e-11
-7.85079e-12
-3.70804e-11
-6.24092e-11
-8.0887e-11
-9.67642e-11
-1.11024e-10
-1.22152e-10
-1.31526e-10
-1.37807e-10
-1.41735e-10
-1.42673e-10
-1.41849e-10
-1.38729e-10
-1.3403e-10
-1.28579e-10
-1.2096e-10
-1.13001e-10
-1.04415e-10
-9.54367e-11
-8.56442e-11
-7.79238e-11
-7.15386e-11
-6.59862e-11
-6.37334e-11
-6.27449e-11
-6.28501e-11
-6.52755e-11
-6.82485e-11
-7.3248e-11
-7.78152e-11
-8.5086e-11
-9.06118e-11
-1.01388e-10
-1.07508e-10
-1.21637e-10
-1.22675e-10
-1.40305e-10
-1.39793e-10
-1.49181e-10
-1.75017e-10
-1.40456e-10
-2.61596e-10
-4.82972e-11
-4.95722e-10
7.19433e-11
-9.16721e-10
6.10408e-11
-1.36735e-09
3.82711e-11
-1.72786e-09
-1.91922e-11
-1.7931e-09
-1.58952e-10
-1.22164e-09
-4.74162e-10
-4.13216e-10
-1.22504e-09
-2.00511e-09
-3.11056e-09
-5.38004e-09
-7.24708e-09
8.71924e-08
9.47872e-08
2.00953e-08
9.49508e-09
4.00738e-10
0
0
0
0
0
0
)
;

boundaryField
{
    inlet
    {
        type            zeroGradient;
    }
    endWall
    {
        type            zeroGradient;
    }
    sideWall
    {
        type            empty;
    }
}


// ************************************************************************* //
