/*--------------------------------*- C++ -*----------------------------------*\
| =========                 |                                                 |
| \\      /  F ield         | foam-extend: Open Source CFD                    |
|  \\    /   O peration     | Version:     3.2                                |
|   \\  /    A nd           | Web:         http://www.foam-extend.org         |
|    \\/     M anipulation  | For copyright notice see file Copyright         |
\*---------------------------------------------------------------------------*/
FoamFile
{
    version     2.0;
    format      ascii;
    class       areaScalarField;
    location    "910";
    object      deltaH;
}
// * * * * * * * * * * * * * * * * * * * * * * * * * * * * * * * * * * * * * //

dimensions      [0 1 -1 0 0 0 0];

internalField   nonuniform List<scalar> 
550
(
0
0
0
0
0
0
0
0
0
0
0
0
0
0
0
0
0
0
0
0
0
0
0
0
0
0
0
0
0
0
0
0
0
0
0
0
0
0
0
0
0
0
0
0
0
0
0
0
0
0
0
0
0
0
0
0
0
0
0
0
0
0
0
0
0
0
0
0
0
0
0
0
0
0
0
0
0
0
0
0
0
0
0
0
0
0
0
0
0
0
0
0
0
0
0
0
0
0
0
0
0
0
0
0
0
0
0
0
0
0
5.04768e-07
0
-3.32006e-06
3.08856e-06
4.54238e-06
0
5.84033e-07
5.63235e-06
0
-5.70175e-06
6.27127e-06
1.83036e-06
-8.67991e-06
-1.28704e-06
8.99212e-06
2.75286e-06
-1.12817e-05
-1.14186e-06
-1.10057e-06
-1.10133e-06
9.44584e-06
2.89131e-06
-1.15048e-05
-9.79874e-07
-9.45634e-07
-9.56603e-07
-9.39528e-07
1.34479e-05
4.07551e-06
-1.51716e-05
-9.24093e-07
-8.59746e-07
-7.66663e-07
-8.11695e-07
-7.77588e-07
1.29393e-05
4.11159e-06
-1.43905e-05
-7.19607e-07
-6.89999e-07
-7.42757e-07
0
-5.37051e-07
-6.80989e-07
-6.74424e-07
0
-5.11245e-07
-5.8108e-07
1.21655e-05
4.50636e-06
-1.31856e-05
-5.01851e-07
-4.9519e-07
-4.51304e-07
-4.12105e-07
-4.59285e-07
-4.80771e-07
0
-3.34108e-07
-4.22961e-07
-3.63943e-07
-3.30114e-07
-3.38041e-07
-3.24273e-07
-3.19889e-07
-3.23325e-07
-3.16306e-07
1.12372e-05
5.17337e-06
-1.17787e-05
-2.55928e-07
-2.61243e-07
-2.58026e-07
-2.22936e-07
-2.20755e-07
-1.7891e-07
-1.85911e-07
-2.40799e-07
-1.81879e-07
-1.45972e-07
-1.7641e-07
1.0716e-05
5.21064e-06
-1.10617e-05
-1.80978e-07
-1.29012e-07
-1.13149e-07
-1.01398e-07
-1.35925e-07
-1.52126e-07
-7.38539e-08
-8.12329e-08
-1.1564e-07
-1.04008e-07
-1.12367e-07
-1.07299e-07
-1.10807e-07
-6.65885e-08
-7.00784e-08
-7.32064e-08
-4.05967e-08
-5.57253e-08
-5.10592e-08
-1.76014e-08
1.08826e-07
1.8012e-07
1.00802e-08
-4.4179e-08
-1.49302e-09
-2.29869e-08
-6.68366e-09
-8.22193e-09
-5.53515e-09
-2.05844e-09
-6.8709e-09
3.84342e-10
-8.75711e-09
1.57443e-09
-9.60895e-09
1.75427e-09
-8.93712e-09
1.6627e-09
-6.60206e-09
2.5829e-09
-2.23468e-09
5.85885e-09
-4.69295e-10
4.54462e-09
8.3496e-09
8.0994e-09
7.80801e-09
6.87166e-09
5.14873e-09
5.52858e-09
3.41636e-09
3.69644e-09
2.52184e-09
2.52224e-09
2.05415e-09
2.46782e-09
2.46402e-09
3.15763e-09
3.16291e-09
2.89996e-09
3.45977e-09
4.09803e-09
4.52863e-09
4.80516e-09
4.32177e-09
4.28504e-09
4.23946e-09
4.24311e-09
3.83804e-09
3.6584e-09
3.44165e-09
3.34684e-09
3.04207e-09
2.62318e-09
2.08206e-09
1.56311e-09
1.11887e-09
8.4686e-10
5.60861e-10
8.10805e-11
-3.01865e-10
-5.64004e-10
-7.55947e-10
-1.00769e-09
-1.44089e-09
-1.65578e-09
-2.1677e-09
-2.70722e-09
-3.00958e-09
-2.85593e-09
-2.80553e-09
-2.53869e-09
-2.58798e-09
-2.64529e-09
-2.78589e-09
-2.73828e-09
-2.92064e-09
-2.52815e-09
-2.11483e-09
-1.75797e-09
-1.66921e-09
-1.17614e-09
-6.06945e-10
-3.31783e-10
-1.0982e-10
1.53939e-10
3.75792e-10
5.18882e-10
7.61235e-10
8.67332e-10
9.76695e-10
1.12354e-09
1.26862e-09
1.40567e-09
1.50465e-09
1.58694e-09
1.68268e-09
1.75031e-09
1.85565e-09
1.87945e-09
1.90848e-09
1.83383e-09
1.7953e-09
1.72203e-09
1.66497e-09
1.56017e-09
1.47491e-09
1.33474e-09
1.24102e-09
1.08547e-09
9.89233e-10
8.49603e-10
7.46059e-10
6.40879e-10
4.68395e-10
4.10998e-10
1.79141e-10
1.70098e-10
-4.00278e-11
-4.35517e-10
-9.98357e-10
-1.2129e-09
-1.64944e-09
-1.75353e-09
-2.07821e-09
-2.27853e-09
-2.62959e-09
-3.04706e-09
-3.44201e-09
-3.9311e-09
-4.2612e-09
-4.72492e-09
-5.02998e-09
-5.50167e-09
-5.82653e-09
-6.37041e-09
-6.77993e-09
-7.275e-09
-7.52472e-09
-7.78631e-09
-8.46412e-09
-8.87916e-09
-8.96347e-09
-8.76125e-09
-8.53232e-09
-8.39487e-09
-8.42759e-09
-8.54611e-09
-8.77832e-09
-9.0123e-09
-9.20973e-09
-9.27349e-09
-9.27195e-09
-9.20444e-09
-9.16808e-09
-9.16377e-09
-9.24725e-09
-9.33371e-09
-9.4481e-09
-9.51573e-09
-9.58452e-09
-9.59942e-09
-9.62976e-09
-9.66361e-09
-9.75821e-09
-9.80267e-09
-9.82721e-09
-9.80329e-09
-9.82411e-09
-9.87084e-09
-1.00324e-08
-1.01333e-08
-1.02069e-08
-1.02388e-08
-1.03067e-08
-1.03096e-08
-1.03406e-08
-1.03644e-08
-1.04362e-08
-1.05228e-08
-1.06642e-08
-1.07484e-08
-1.08311e-08
-1.08502e-08
-1.09249e-08
-1.09852e-08
-1.11055e-08
-1.1202e-08
-1.134e-08
-1.14256e-08
-1.15484e-08
-1.16312e-08
-1.17598e-08
-1.18353e-08
-1.19486e-08
-1.19982e-08
-1.20515e-08
-1.19979e-08
-1.19269e-08
-1.1767e-08
-1.16249e-08
-1.13882e-08
-1.11349e-08
-1.07459e-08
-1.03199e-08
-9.75992e-09
-9.18612e-09
-8.50106e-09
-7.82241e-09
-7.0482e-09
-6.30297e-09
-5.49966e-09
-4.75856e-09
-3.96891e-09
-3.25653e-09
-2.52084e-09
-1.8984e-09
-1.2827e-09
-7.88794e-10
-3.01689e-10
6.79488e-11
4.48679e-10
7.51093e-10
1.10825e-09
1.41377e-09
1.76285e-09
2.03186e-09
2.30533e-09
2.46523e-09
2.62414e-09
2.70617e-09
2.80735e-09
2.85808e-09
2.9609e-09
3.0631e-09
3.24021e-09
3.43747e-09
3.71294e-09
4.04336e-09
4.48571e-09
5.03604e-09
5.68508e-09
6.42874e-09
7.23936e-09
8.14891e-09
9.123e-09
1.01859e-08
1.12651e-08
1.24087e-08
1.34951e-08
1.4601e-08
1.5571e-08
1.64878e-08
1.71816e-08
1.78352e-08
1.81638e-08
1.84454e-08
1.83304e-08
1.82204e-08
1.76813e-08
1.69046e-08
1.63154e-08
1.43085e-08
1.32438e-08
1.16657e-08
1.02538e-08
9.02435e-09
7.76756e-09
6.80044e-09
5.4999e-09
4.46324e-09
3.16965e-09
2.25469e-09
1.2782e-09
6.60411e-10
8.21728e-11
-2.11257e-10
-4.05535e-10
-3.8307e-10
-2.23655e-10
1.38144e-10
6.0306e-10
1.20974e-09
1.80474e-09
2.46609e-09
2.93321e-09
3.39181e-09
3.52541e-09
3.64257e-09
3.37739e-09
3.13491e-09
2.49776e-09
1.92105e-09
9.27141e-10
4.76088e-12
-1.32787e-09
-2.57802e-09
-4.25803e-09
-5.78421e-09
-7.61827e-09
-9.24537e-09
-1.09052e-08
-1.26381e-08
-1.4575e-08
-1.64453e-08
-1.83041e-08
-2.02418e-08
-2.15739e-08
-2.35332e-08
-2.41206e-08
-2.64764e-08
-2.60495e-08
-2.85461e-08
-2.74026e-08
-2.95164e-08
-2.815e-08
-2.9401e-08
-2.84534e-08
-2.83287e-08
-2.83549e-08
-2.67646e-08
-2.62544e-08
-2.46192e-08
-1.95004e-08
-1.9613e-08
0
0
0
0
0
0
0
0
0
0
0
)
;

boundaryField
{
    inlet
    {
        type            zeroGradient;
    }
    endWall
    {
        type            zeroGradient;
    }
    sideWall
    {
        type            empty;
    }
}


// ************************************************************************* //
