/*--------------------------------*- C++ -*----------------------------------*\
| =========                 |                                                 |
| \\      /  F ield         | foam-extend: Open Source CFD                    |
|  \\    /   O peration     | Version:     3.2                                |
|   \\  /    A nd           | Web:         http://www.foam-extend.org         |
|    \\/     M anipulation  | For copyright notice see file Copyright         |
\*---------------------------------------------------------------------------*/
FoamFile
{
    version     2.0;
    format      ascii;
    class       areaScalarField;
    location    "1440";
    object      deltaHb;
}
// * * * * * * * * * * * * * * * * * * * * * * * * * * * * * * * * * * * * * //

dimensions      [0 1 -1 0 0 0 0];

internalField   nonuniform List<scalar> 
550
(
0
0
0
-2.19929e-08
-5.81975e-08
-8.42025e-08
-1.08328e-07
-1.25451e-07
-1.28987e-07
-1.30148e-07
-1.2294e-07
-1.04848e-07
-8.69945e-08
-6.63671e-08
-4.54585e-08
-2.74601e-08
-1.08102e-08
3.84228e-09
1.44381e-08
2.2179e-08
2.79641e-08
3.21675e-08
3.52165e-08
3.6684e-08
3.71512e-08
3.69527e-08
3.60715e-08
3.46155e-08
3.2716e-08
3.09338e-08
2.92196e-08
2.74885e-08
2.58121e-08
2.40593e-08
2.23501e-08
2.06959e-08
1.9154e-08
1.78264e-08
1.64677e-08
1.51799e-08
1.41072e-08
1.3003e-08
1.19698e-08
1.11315e-08
1.03081e-08
9.51129e-09
8.80323e-09
8.15765e-09
7.56815e-09
6.98846e-09
6.44591e-09
6.04229e-09
5.66851e-09
5.27604e-09
4.93171e-09
4.61972e-09
4.33367e-09
4.0833e-09
3.72859e-09
3.69913e-09
4.81593e-09
3.16172e-09
2.58738e-08
3.00721e-08
-1.99394e-08
-2.28712e-08
2.52469e-09
4.14217e-08
2.48306e-09
-3.65474e-08
2.09494e-09
6.5086e-08
7.75072e-08
-6.09525e-08
-7.31595e-08
1.80327e-09
1.78639e-09
1.85738e-09
3.09899e-10
1.51272e-07
3.34861e-09
-1.47959e-07
1.3745e-09
1.70826e-09
1.52417e-09
1.49367e-09
1.80757e-09
1.68397e-09
1.24859e-09
-1.34243e-10
2.05237e-09
3.04749e-09
6.03919e-10
1.40629e-09
1.59424e-09
1.15154e-09
1.8008e-09
1.49857e-09
7.97623e-10
1.30851e-09
1.6932e-09
1.45017e-09
1.39876e-09
1.44563e-09
9.07304e-10
8.66053e-10
1.42788e-07
1.81481e-09
-1.3994e-07
1.61632e-09
1.34701e-09
8.44758e-10
2.21982e-09
2.43443e-09
7.43915e-10
1.29618e-09
1.38485e-09
1.17495e-09
2.07907e-09
2.67178e-09
1.01513e-09
5.28152e-09
5.95983e-09
-6.44117e-10
-4.6779e-10
-4.82771e-10
-4.27622e-10
-4.31176e-10
-3.7399e-10
-3.18684e-10
-2.44144e-10
-1.47664e-10
-4.79725e-11
7.07742e-11
1.45315e-10
1.3312e-10
2.88268e-10
4.17552e-10
8.05772e-11
6.72771e-10
5.89845e-10
-2.23324e-10
1.62819e-11
1.26096e-10
1.28177e-10
1.33136e-10
1.37644e-10
1.71909e-10
2.04869e-10
2.56119e-10
2.8205e-10
3.7007e-10
2.87591e-10
5.69242e-10
1.50653e-10
7.66703e-10
-2.20438e-10
6.40553e-10
-3.66197e-10
3.99653e-10
-1.70601e-11
2.65804e-10
4.05417e-10
2.99133e-10
5.33158e-10
2.69118e-10
2.51308e-10
-3.71142e-10
-5.67485e-10
-1.74881e-09
4.34772e-09
4.23057e-09
3.38582e-09
3.10352e-09
2.48111e-09
2.31878e-09
1.85774e-09
1.76294e-09
1.40533e-09
1.35197e-09
1.0708e-09
1.04565e-09
8.1813e-10
8.15962e-10
6.3138e-10
6.42729e-10
4.90266e-10
5.08683e-10
3.84955e-10
4.08216e-10
3.05731e-10
3.26809e-10
2.52881e-10
2.31946e-10
1.90986e-10
1.60096e-10
1.38013e-10
1.19727e-10
1.08131e-10
9.77832e-11
8.93891e-11
8.3323e-11
8.00644e-11
7.88126e-11
7.43937e-11
7.33665e-11
7.12876e-11
6.7903e-11
6.48301e-11
6.25219e-11
6.1299e-11
6.08045e-11
5.82128e-11
6.11137e-11
5.74746e-11
5.66919e-11
5.77799e-11
5.74256e-11
5.62746e-11
5.77013e-11
5.70491e-11
5.69566e-11
6.17825e-11
5.58119e-11
6.23598e-11
4.80909e-11
5.97622e-11
3.81354e-11
5.4765e-11
2.72627e-11
4.96619e-11
2.07567e-11
4.52004e-11
1.77633e-11
3.76222e-11
1.57471e-11
3.23281e-11
1.78258e-11
2.84316e-11
1.7364e-11
2.72319e-11
1.47237e-11
2.51071e-11
2.03506e-12
2.07911e-11
-7.77271e-12
1.61429e-11
-1.81402e-11
1.23033e-11
-2.81907e-11
9.99681e-12
-3.59863e-11
9.79424e-12
-4.20004e-11
1.0859e-11
-4.66553e-11
1.46416e-11
-4.55404e-11
1.50799e-11
-3.82345e-11
2.44851e-11
-3.66331e-11
3.19853e-11
-3.00775e-11
3.97767e-11
-2.4797e-11
4.98661e-11
-2.1116e-11
5.78591e-11
-2.05378e-11
6.30823e-11
-2.15002e-11
6.55691e-11
-9.12102e-12
6.80214e-11
1.59964e-11
6.79817e-11
6.52986e-11
6.89959e-11
1.35828e-10
6.66795e-11
1.76338e-10
6.72373e-11
2.14481e-10
7.16736e-11
1.98707e-10
7.51355e-11
1.85724e-10
7.99598e-11
1.80354e-10
9.00376e-11
1.75903e-10
1.00418e-10
1.73161e-10
1.11652e-10
1.75768e-10
1.23409e-10
1.79356e-10
1.35027e-10
1.81549e-10
1.4495e-10
1.83188e-10
1.53634e-10
1.85588e-10
1.59732e-10
1.86414e-10
1.64138e-10
1.87061e-10
1.66724e-10
1.87857e-10
1.67472e-10
1.85471e-10
1.66897e-10
1.82027e-10
1.67978e-10
1.77861e-10
1.63774e-10
1.70826e-10
1.5845e-10
1.61952e-10
1.50632e-10
1.55752e-10
1.46618e-10
1.47563e-10
1.39022e-10
1.41986e-10
1.35104e-10
1.38262e-10
1.32275e-10
1.33164e-10
1.2793e-10
1.29662e-10
1.24424e-10
1.24018e-10
1.19912e-10
1.18188e-10
1.12314e-10
1.11923e-10
1.07692e-10
1.04593e-10
1.00256e-10
9.62043e-11
9.03736e-11
8.62593e-11
7.91387e-11
7.43403e-11
6.87533e-11
6.44642e-11
5.97422e-11
5.32807e-11
5.19251e-11
3.56394e-11
-9.77804e-12
-4.19655e-11
-6.60191e-11
-8.45067e-11
-9.85758e-11
-1.08392e-10
-1.16637e-10
-1.24173e-10
-1.30202e-10
-1.35668e-10
-1.40301e-10
-1.43869e-10
-1.45976e-10
-1.48933e-10
-1.49729e-10
-1.51908e-10
-1.52456e-10
-1.53496e-10
-1.52535e-10
-1.50376e-10
-1.47776e-10
-1.42546e-10
-1.38311e-10
-1.33798e-10
-1.2827e-10
-1.22197e-10
-1.17048e-10
-1.11434e-10
-1.06995e-10
-1.02985e-10
-9.69208e-11
-9.29904e-11
-8.83084e-11
-8.36986e-11
-7.96433e-11
-7.59114e-11
-7.34362e-11
-7.12832e-11
-6.83642e-11
-6.592e-11
-6.44538e-11
-6.45788e-11
-6.48939e-11
-6.34149e-11
-6.2356e-11
-6.10034e-11
-5.85886e-11
-5.49242e-11
-4.87843e-11
-4.26635e-11
-3.3186e-11
-2.47178e-11
-1.68809e-11
-7.77087e-12
2.20574e-12
1.04379e-11
1.79316e-11
2.64978e-11
3.48444e-11
3.90931e-11
4.42859e-11
4.98644e-11
5.21304e-11
4.91571e-11
4.80251e-11
4.71345e-11
4.4043e-11
4.29051e-11
3.8599e-11
3.9037e-11
3.62069e-11
3.11228e-11
2.93439e-11
2.76807e-11
2.72238e-11
2.74389e-11
2.8036e-11
2.93275e-11
3.08244e-11
3.26944e-11
3.5574e-11
3.84007e-11
4.02852e-11
4.27161e-11
4.35034e-11
4.4598e-11
4.34586e-11
4.44587e-11
4.71085e-11
4.68909e-11
4.55356e-11
4.6177e-11
4.77329e-11
4.656e-11
4.48545e-11
4.36914e-11
4.16027e-11
4.00712e-11
3.61041e-11
3.35327e-11
3.30995e-11
2.93193e-11
2.49381e-11
2.13282e-11
1.80478e-11
1.46843e-11
1.24386e-11
1.04376e-11
8.02056e-12
6.63971e-12
4.95651e-12
3.43864e-12
1.22451e-12
-1.18582e-12
-4.42197e-12
-7.32835e-12
-1.05188e-11
-1.44362e-11
-1.87869e-11
-2.35391e-11
-2.9133e-11
-3.68191e-11
-4.38094e-11
-5.36978e-11
-6.64525e-11
-7.46903e-11
-8.38592e-11
-9.65877e-11
-1.01594e-10
-1.10037e-10
-1.17201e-10
-1.22652e-10
-1.27681e-10
-1.32935e-10
-1.36662e-10
-1.39116e-10
-1.41008e-10
-1.41806e-10
-1.41383e-10
-1.40484e-10
-1.40658e-10
-1.40277e-10
-1.42199e-10
-1.42514e-10
-1.49193e-10
-1.54118e-10
-1.56631e-10
-1.62728e-10
-1.68272e-10
-1.7325e-10
-1.76988e-10
-1.81043e-10
-1.81376e-10
-1.78514e-10
-1.77882e-10
-1.7561e-10
-1.74151e-10
-1.70616e-10
-1.69266e-10
-1.57044e-10
-1.62689e-10
-1.44545e-10
-1.53686e-10
-1.37939e-10
-1.28483e-10
-1.67342e-10
-6.14803e-11
-3.01478e-10
1.53081e-10
-7.37833e-10
3.86991e-10
-1.53395e-09
3.12437e-10
-2.31513e-09
1.79056e-10
-2.82289e-09
-5.51547e-11
-2.65919e-09
-4.51948e-10
-1.21923e-09
-1.12698e-09
-1.25204e-09
-2.35436e-09
-3.75802e-09
-4.9077e-09
-8.5815e-09
-8.82225e-09
1.26864e-07
1.18354e-07
0
0
0
0
0
0
0
0
0
)
;

boundaryField
{
    inlet
    {
        type            zeroGradient;
    }
    endWall
    {
        type            zeroGradient;
    }
    sideWall
    {
        type            empty;
    }
}


// ************************************************************************* //
