/*--------------------------------*- C++ -*----------------------------------*\
| =========                 |                                                 |
| \\      /  F ield         | foam-extend: Open Source CFD                    |
|  \\    /   O peration     | Version:     3.2                                |
|   \\  /    A nd           | Web:         http://www.foam-extend.org         |
|    \\/     M anipulation  | For copyright notice see file Copyright         |
\*---------------------------------------------------------------------------*/
FoamFile
{
    version     2.0;
    format      ascii;
    class       volScalarField;
    location    "1440";
    object      deltaHF;
}
// * * * * * * * * * * * * * * * * * * * * * * * * * * * * * * * * * * * * * //

dimensions      [0 1 0 0 0 0 0];

internalField   uniform 0;

boundaryField
{
    inlet
    {
        type            calculated;
        value           uniform 0;
    }
    outlet
    {
        type            calculated;
        value           uniform 0;
    }
    sideWall
    {
        type            empty;
    }
    bed
    {
        type            calculated;
        value           nonuniform List<scalar> 
550
(
0
0
0
0
0
0
0
0
0
0
0
0
0
0
0
0
0
0
0
0
0
0
0
0
0
0
0
0
0
0
0
0
0
0
0
0
0
0
0
0
0
0
0
0
0
0
0
0
0
0
0
0
0
0
0
0
0
0
0
0
0
-1.36816e-06
8.6515e-07
2.53164e-06
0
-3.81639e-06
-1.24862e-06
2.67646e-06
6.31007e-07
-5.06116e-06
-1.17351e-06
5.16029e-06
9.14991e-06
0
-8.60885e-06
-1.09676e-06
-1.08919e-06
-1.07358e-06
-1.22419e-06
1.38138e-05
4.23477e-06
-1.60446e-05
-1.0987e-06
-1.0477e-06
-1.05212e-06
-1.03172e-06
-9.81433e-07
-9.71975e-07
-9.93758e-07
-1.09646e-06
0
-7.39691e-07
-9.54433e-07
-8.40853e-07
-8.06719e-07
-8.23398e-07
-7.3527e-07
-7.46972e-07
-7.92491e-07
-7.11142e-07
-6.56e-07
-6.58032e-07
-6.43615e-07
-6.16507e-07
-6.50984e-07
-6.23465e-07
1.35884e-05
6.48856e-06
-1.46492e-05
-4.6308e-07
-4.79586e-07
-4.94789e-07
-3.35095e-07
-3.02339e-07
-4.48092e-07
-3.65231e-07
-3.49584e-07
-3.36017e-07
-2.30353e-07
-1.45834e-07
-2.11903e-07
1.79837e-07
6.99377e-07
6.97738e-09
-3.8205e-09
3.51553e-09
-6.26881e-09
6.65829e-09
-7.98196e-09
8.14274e-09
-8.74209e-09
7.79671e-09
-9.5267e-09
5.69839e-09
-1.97719e-08
-7.86626e-09
-1.5923e-08
4.68148e-10
-1.47375e-08
2.1347e-09
-1.39225e-08
2.28757e-09
-1.39704e-08
1.59896e-09
-1.44776e-08
-3.23741e-10
-1.56666e-08
-2.34219e-09
-1.64859e-08
-4.18498e-09
-1.69892e-08
-5.55077e-09
-1.68917e-08
-6.21155e-09
-1.64489e-08
-6.48721e-09
-1.6377e-08
-6.76176e-09
-1.67306e-08
-7.14895e-09
-1.72804e-08
-7.65692e-09
-1.76024e-08
-8.12727e-09
-1.75806e-08
-8.50062e-09
-1.73149e-08
-8.7746e-09
-1.7162e-08
-9.00764e-09
-1.67383e-08
-9.16512e-09
-1.63125e-08
-9.29001e-09
-1.59841e-08
-9.34617e-09
-1.5538e-08
-9.18513e-09
-1.51287e-08
-9.01884e-09
-1.47538e-08
-8.67647e-09
-1.42777e-08
-8.24419e-09
-1.37006e-08
-7.63122e-09
-1.30917e-08
-7.19492e-09
-1.25924e-08
-6.96281e-09
-1.20433e-08
-6.57841e-09
-1.15451e-08
-6.14467e-09
-1.12531e-08
-5.36046e-09
-1.06895e-08
-4.5219e-09
-9.98265e-09
-3.7083e-09
-9.29293e-09
-2.9388e-09
-8.58696e-09
-2.32216e-09
-8.00891e-09
-1.89942e-09
-7.6538e-09
-1.78106e-09
-7.55513e-09
-1.82525e-09
-7.56653e-09
-1.95556e-09
-7.58633e-09
-2.08099e-09
-7.69462e-09
-2.33501e-09
-7.91085e-09
-2.64045e-09
-8.10399e-09
-2.80673e-09
-8.11561e-09
-2.77512e-09
-7.99037e-09
-2.61813e-09
-7.8085e-09
-2.30883e-09
-7.59615e-09
-1.91564e-09
-7.25796e-09
-1.36119e-09
-6.82085e-09
-7.68662e-10
-6.42941e-09
-2.74506e-10
-6.09966e-09
1.10692e-10
-5.78326e-09
3.26588e-10
-5.55365e-09
3.50039e-10
-5.45232e-09
2.22078e-10
-5.42653e-09
-1.18341e-12
-5.45525e-09
-3.20603e-10
-5.59227e-09
-7.76373e-10
-5.79826e-09
-1.19948e-09
-5.91342e-09
-1.47854e-09
-5.92611e-09
-1.62592e-09
-5.81632e-09
-1.57564e-09
-5.55329e-09
-1.38227e-09
-5.20831e-09
-1.10114e-09
-4.76694e-09
-6.57101e-10
-4.1404e-09
-5.1571e-11
-3.44958e-09
5.58645e-10
-2.852e-09
1.10054e-09
-2.3821e-09
1.57746e-09
-2.04377e-09
1.96081e-09
-1.86493e-09
2.23295e-09
-1.80986e-09
2.40454e-09
-1.80124e-09
2.49622e-09
-1.78226e-09
2.44813e-09
-1.7874e-09
2.26669e-09
-1.78942e-09
1.94825e-09
-1.85628e-09
1.53125e-09
-1.93236e-09
1.13557e-09
-1.97047e-09
7.91277e-10
-1.97401e-09
4.58933e-10
-1.99582e-09
1.35331e-10
-2.00694e-09
-1.10137e-10
-1.96076e-09
-2.75171e-10
-1.86607e-09
-3.8981e-10
-1.80576e-09
-5.94304e-10
-1.90286e-09
-9.02706e-10
-2.06565e-09
-1.22657e-09
-2.28049e-09
-1.63013e-09
-2.57571e-09
-2.08026e-09
-2.9809e-09
-2.6305e-09
-3.38872e-09
-3.10604e-09
-3.93441e-09
-3.70916e-09
-4.48264e-09
-4.34498e-09
-5.0353e-09
-4.92633e-09
-5.53587e-09
-5.3801e-09
-5.81377e-09
-5.60873e-09
-5.90031e-09
-5.60135e-09
-5.7036e-09
-5.31423e-09
-5.27243e-09
-4.8617e-09
-4.78562e-09
-4.39058e-09
-4.27075e-09
-3.88808e-09
-3.79965e-09
-3.52144e-09
-3.36956e-09
-3.06514e-09
-2.86416e-09
-2.59236e-09
-2.37782e-09
-2.16431e-09
-2.02812e-09
-1.86832e-09
-1.7232e-09
-1.57742e-09
-1.41176e-09
-1.28531e-09
-1.07278e-09
-1.09304e-09
-7.55865e-10
-7.76337e-10
-3.93628e-10
-4.73122e-10
-5.96846e-11
-4.96295e-11
4.13921e-10
5.15448e-10
1.04291e-09
1.11775e-09
1.57106e-09
1.59344e-09
1.94507e-09
1.97391e-09
2.24701e-09
2.286e-09
2.4783e-09
2.50023e-09
2.62755e-09
2.64046e-09
2.76793e-09
2.83651e-09
3.05479e-09
3.26333e-09
3.6085e-09
3.90074e-09
4.28535e-09
4.57089e-09
4.90014e-09
5.08002e-09
5.29086e-09
5.3686e-09
5.50705e-09
5.51012e-09
5.55862e-09
5.4621e-09
5.39226e-09
5.18611e-09
4.98248e-09
4.65676e-09
4.28787e-09
3.83367e-09
3.29561e-09
2.6746e-09
1.91082e-09
1.1594e-09
3.01435e-10
-4.19577e-10
-1.19794e-09
-1.69831e-09
-2.21405e-09
-2.36088e-09
-2.55769e-09
-2.38872e-09
-2.3559e-09
-1.99756e-09
-1.85848e-09
-1.40508e-09
-1.19466e-09
-6.70693e-10
-4.3575e-10
6.73248e-11
1.79021e-10
4.959e-10
4.00841e-10
3.11365e-10
-2.54102e-10
-5.83852e-10
-1.28022e-09
-1.78884e-09
-2.57499e-09
-3.16499e-09
-4.12243e-09
-4.89889e-09
-5.91308e-09
-6.66993e-09
-7.60403e-09
-8.25804e-09
-9.0424e-09
-9.53734e-09
-1.01397e-08
-1.04614e-08
-1.08598e-08
-1.10095e-08
-1.12344e-08
-1.12788e-08
-1.14672e-08
-1.14968e-08
-1.16459e-08
-1.16235e-08
-1.16325e-08
-1.14561e-08
-1.13321e-08
-1.10457e-08
-1.07999e-08
-1.04385e-08
-1.01241e-08
-9.71254e-09
-9.33155e-09
-8.89089e-09
-8.52059e-09
-8.12163e-09
-7.78477e-09
-7.48444e-09
-7.21292e-09
-6.94628e-09
-6.63946e-09
-6.30917e-09
-5.90634e-09
-5.52193e-09
-5.06227e-09
-4.62652e-09
-4.09613e-09
-3.61371e-09
-3.04452e-09
-2.56066e-09
-1.99533e-09
-1.53698e-09
-9.87757e-10
-5.48027e-10
-4.42209e-11
2.71759e-10
5.66396e-10
5.992e-10
5.67338e-10
2.63216e-10
-9.5895e-11
-6.76963e-10
-1.23764e-09
-1.92942e-09
-2.56322e-09
-3.26456e-09
-3.86925e-09
-4.49252e-09
-5.0387e-09
-5.60299e-09
-6.09656e-09
-6.55265e-09
-6.89592e-09
-7.1144e-09
-7.22245e-09
-7.21286e-09
-7.20198e-09
-7.16445e-09
-7.26534e-09
-7.41969e-09
-7.77557e-09
-8.13814e-09
-8.67463e-09
-9.15662e-09
-9.79687e-09
-1.03127e-08
-1.09571e-08
-1.13874e-08
-1.18959e-08
-1.21066e-08
-1.23458e-08
-1.22394e-08
-1.21684e-08
-1.17525e-08
-1.13945e-08
-1.07242e-08
-1.01893e-08
-9.3516e-09
-8.55153e-09
-7.48485e-09
-6.65552e-09
-5.50068e-09
-4.64661e-09
-3.3825e-09
-2.91149e-09
-2.02432e-09
-1.67839e-09
-2.30231e-09
-3.06695e-09
-4.27681e-09
-6.84671e-09
-8.28983e-09
-1.25728e-08
-1.43608e-08
-1.93974e-08
-2.1576e-08
-2.56985e-08
-2.78291e-08
-3.04636e-08
-3.15162e-08
-3.26608e-08
-2.64474e-08
-3.06649e-08
0
0
0
0
0
0
0
0
0
0
0
)
;
    }
    endWall
    {
        type            calculated;
        value           uniform 0;
    }
    topWall
    {
        type            calculated;
        value           uniform 0;
    }
}


// ************************************************************************* //
