/*--------------------------------*- C++ -*----------------------------------*\
| =========                 |                                                 |
| \\      /  F ield         | foam-extend: Open Source CFD                    |
|  \\    /   O peration     | Version:     3.2                                |
|   \\  /    A nd           | Web:         http://www.foam-extend.org         |
|    \\/     M anipulation  | For copyright notice see file Copyright         |
\*---------------------------------------------------------------------------*/
FoamFile
{
    version     2.0;
    format      ascii;
    class       volScalarField;
    location    "1440";
    object      DiSSt;
}
// * * * * * * * * * * * * * * * * * * * * * * * * * * * * * * * * * * * * * //

dimensions      [0 2 -1 0 0 0 0];

internalField   nonuniform List<scalar> 
33000
(
7.25837e-06
8.61068e-06
1.00076e-05
1.14185e-05
1.28079e-05
1.41406e-05
1.53873e-05
1.65222e-05
1.753e-05
1.83986e-05
1.91285e-05
1.9722e-05
2.01854e-05
2.05337e-05
2.07799e-05
2.09318e-05
2.10078e-05
2.10208e-05
2.08702e-05
2.01153e-05
1.94079e-05
1.87141e-05
1.80836e-05
1.75003e-05
1.69574e-05
1.64694e-05
1.60232e-05
1.5634e-05
1.52791e-05
1.49508e-05
1.46573e-05
1.43825e-05
1.41399e-05
1.3918e-05
1.37195e-05
1.35435e-05
1.3382e-05
1.32367e-05
1.31202e-05
1.30028e-05
1.29056e-05
1.28274e-05
1.27528e-05
1.26868e-05
1.26386e-05
1.25929e-05
1.25601e-05
1.25325e-05
1.25143e-05
1.25064e-05
1.2503e-05
1.25001e-05
1.25078e-05
1.25187e-05
1.25329e-05
1.25554e-05
1.25721e-05
1.26061e-05
1.2636e-05
1.26573e-05
1.27086e-05
1.27191e-05
1.27968e-05
1.27899e-05
1.28258e-05
1.28267e-05
1.28898e-05
1.29498e-05
1.29793e-05
1.29551e-05
1.29902e-05
1.3083e-05
1.31151e-05
1.30845e-05
1.30475e-05
1.30886e-05
1.30563e-05
1.30808e-05
1.31862e-05
1.32062e-05
1.31148e-05
1.30626e-05
1.30724e-05
1.30931e-05
1.31034e-05
1.32501e-05
1.32462e-05
1.31549e-05
1.31799e-05
1.34062e-05
1.34133e-05
1.32829e-05
1.32597e-05
1.32683e-05
1.3361e-05
1.35287e-05
1.35452e-05
1.34461e-05
1.34035e-05
1.3484e-05
1.3509e-05
1.35576e-05
1.355e-05
1.35548e-05
1.35718e-05
1.37468e-05
1.38193e-05
1.3753e-05
1.3675e-05
1.37306e-05
1.37752e-05
1.38558e-05
1.38528e-05
1.38713e-05
1.39329e-05
1.39188e-05
1.39873e-05
1.39912e-05
1.39943e-05
1.39824e-05
1.41378e-05
1.38982e-05
1.38002e-05
1.41409e-05
1.42545e-05
1.43517e-05
1.44381e-05
1.44855e-05
1.45613e-05
1.45945e-05
1.46454e-05
1.46869e-05
1.4713e-05
1.47553e-05
1.47466e-05
1.48216e-05
1.47409e-05
1.46668e-05
1.46522e-05
1.47609e-05
1.46044e-05
1.46183e-05
1.47193e-05
1.47328e-05
1.47432e-05
1.47721e-05
1.47908e-05
1.48058e-05
1.48131e-05
1.48212e-05
1.4815e-05
1.48152e-05
1.48384e-05
1.47938e-05
1.48423e-05
1.47595e-05
1.48429e-05
1.47469e-05
1.48287e-05
1.47571e-05
1.47765e-05
1.47244e-05
1.46955e-05
1.46558e-05
1.46333e-05
1.46217e-05
1.46902e-05
1.45995e-05
1.49158e-05
1.41345e-05
1.34914e-05
1.39543e-05
1.38734e-05
1.38694e-05
1.38577e-05
1.38394e-05
1.38481e-05
1.38363e-05
1.38539e-05
1.38496e-05
1.3872e-05
1.38739e-05
1.38989e-05
1.39047e-05
1.39315e-05
1.39401e-05
1.39668e-05
1.39767e-05
1.40023e-05
1.40143e-05
1.40383e-05
1.40445e-05
1.40746e-05
1.40874e-05
1.41135e-05
1.41319e-05
1.41534e-05
1.41738e-05
1.41951e-05
1.42121e-05
1.42329e-05
1.42484e-05
1.42682e-05
1.42813e-05
1.43005e-05
1.43135e-05
1.43311e-05
1.4343e-05
1.43588e-05
1.43707e-05
1.43853e-05
1.43958e-05
1.44101e-05
1.44199e-05
1.4433e-05
1.44438e-05
1.44555e-05
1.44642e-05
1.44756e-05
1.44844e-05
1.44947e-05
1.45045e-05
1.45133e-05
1.45228e-05
1.45307e-05
1.45421e-05
1.45485e-05
1.45608e-05
1.45667e-05
1.45798e-05
1.45853e-05
1.45978e-05
1.46035e-05
1.4616e-05
1.46214e-05
1.46335e-05
1.46398e-05
1.46509e-05
1.46575e-05
1.4668e-05
1.46749e-05
1.46852e-05
1.46906e-05
1.47023e-05
1.47067e-05
1.47185e-05
1.47218e-05
1.47341e-05
1.47365e-05
1.47494e-05
1.47506e-05
1.47641e-05
1.47641e-05
1.47781e-05
1.47772e-05
1.47917e-05
1.47899e-05
1.48046e-05
1.48016e-05
1.48154e-05
1.48115e-05
1.48266e-05
1.48219e-05
1.48367e-05
1.48308e-05
1.48455e-05
1.48391e-05
1.48541e-05
1.48464e-05
1.48624e-05
1.48536e-05
1.48699e-05
1.48619e-05
1.48759e-05
1.48692e-05
1.48801e-05
1.48768e-05
1.48814e-05
1.48829e-05
1.48806e-05
1.48878e-05
1.48801e-05
1.48915e-05
1.48797e-05
1.4893e-05
1.48832e-05
1.48955e-05
1.48871e-05
1.48978e-05
1.48904e-05
1.49005e-05
1.48944e-05
1.49033e-05
1.48981e-05
1.49056e-05
1.49014e-05
1.49083e-05
1.49047e-05
1.49111e-05
1.49083e-05
1.49138e-05
1.49114e-05
1.49157e-05
1.49143e-05
1.49183e-05
1.49174e-05
1.49209e-05
1.49203e-05
1.49234e-05
1.49233e-05
1.49269e-05
1.49271e-05
1.49314e-05
1.49296e-05
1.49371e-05
1.49359e-05
1.49449e-05
1.49446e-05
1.49543e-05
1.49552e-05
1.49645e-05
1.49658e-05
1.49751e-05
1.49776e-05
1.49857e-05
1.49884e-05
1.49962e-05
1.4999e-05
1.50069e-05
1.50101e-05
1.50172e-05
1.50209e-05
1.50273e-05
1.50317e-05
1.50365e-05
1.50434e-05
1.50471e-05
1.50552e-05
1.50577e-05
1.50675e-05
1.50701e-05
1.50794e-05
1.50832e-05
1.50924e-05
1.50976e-05
1.51065e-05
1.51119e-05
1.51203e-05
1.51265e-05
1.51345e-05
1.514e-05
1.5152e-05
1.51638e-05
1.5175e-05
1.5184e-05
1.51878e-05
1.51917e-05
1.51957e-05
1.51999e-05
1.52041e-05
1.52085e-05
1.5213e-05
1.52175e-05
1.52221e-05
1.52266e-05
1.52311e-05
1.52357e-05
1.52403e-05
1.52449e-05
1.52495e-05
1.52542e-05
1.52587e-05
1.52631e-05
1.52675e-05
1.52718e-05
1.52761e-05
1.52803e-05
1.52842e-05
1.5288e-05
1.52918e-05
1.52955e-05
1.52991e-05
1.53026e-05
1.53058e-05
1.5309e-05
1.53121e-05
1.5315e-05
1.53177e-05
1.53204e-05
1.5323e-05
1.53256e-05
1.53279e-05
1.53301e-05
1.53324e-05
1.53346e-05
1.53366e-05
1.53385e-05
1.53404e-05
1.53423e-05
1.53441e-05
1.53458e-05
1.53473e-05
1.53485e-05
1.53498e-05
1.53509e-05
1.53517e-05
1.53525e-05
1.53531e-05
1.53537e-05
1.53541e-05
1.53543e-05
1.53543e-05
1.53543e-05
1.53534e-05
1.5349e-05
1.53456e-05
1.53421e-05
1.53391e-05
1.53351e-05
1.53322e-05
1.53287e-05
1.53245e-05
1.53213e-05
1.53183e-05
1.53157e-05
1.53125e-05
1.53097e-05
1.53061e-05
1.53029e-05
1.52991e-05
1.52957e-05
1.52924e-05
1.52886e-05
1.52855e-05
1.52819e-05
1.52787e-05
1.52754e-05
1.52726e-05
1.52699e-05
1.52677e-05
1.5265e-05
1.52623e-05
1.52602e-05
1.52587e-05
1.52569e-05
1.52549e-05
1.52538e-05
1.52526e-05
1.5252e-05
1.52505e-05
1.52515e-05
1.52508e-05
1.52513e-05
1.52512e-05
1.52528e-05
1.52527e-05
1.52547e-05
1.5255e-05
1.52569e-05
1.52575e-05
1.52593e-05
1.52603e-05
1.52625e-05
1.52636e-05
1.52665e-05
1.52675e-05
1.5271e-05
1.52719e-05
1.52763e-05
1.52775e-05
1.52826e-05
1.5284e-05
1.52895e-05
1.52922e-05
1.52975e-05
1.53015e-05
1.53083e-05
1.53127e-05
1.53192e-05
1.53251e-05
1.53311e-05
1.53371e-05
1.53439e-05
1.535e-05
1.53577e-05
1.5364e-05
1.53723e-05
1.53783e-05
1.53862e-05
1.53917e-05
1.53997e-05
1.54049e-05
1.54133e-05
1.54184e-05
1.54275e-05
1.5432e-05
1.54422e-05
1.5447e-05
1.54569e-05
1.54612e-05
1.54723e-05
1.54761e-05
1.54882e-05
1.54917e-05
1.55045e-05
1.55062e-05
1.55146e-05
1.55196e-05
1.55246e-05
1.55296e-05
1.55344e-05
1.55394e-05
1.55441e-05
1.55489e-05
1.55534e-05
1.55586e-05
1.55613e-05
1.55681e-05
1.55591e-05
1.5578e-05
1.55377e-05
1.55882e-05
1.55131e-05
1.56001e-05
1.55194e-05
1.56143e-05
1.55435e-05
1.56263e-05
1.55841e-05
1.5629e-05
1.56259e-05
1.56134e-05
1.55918e-05
1.55577e-05
1.55168e-05
1.54413e-05
1.53085e-05
1.50479e-05
1.23659e-05
8.18124e-06
8.1908e-06
6.55121e-06
5.89857e-06
5.44803e-06
7.02591e-06
6.26737e-06
5.40649e-06
5.60694e-06
7.14564e-06
2.80766e-05
5.32353e-05
3.22886e-05
2.34125e-05
1.88103e-05
1.61135e-05
1.44989e-05
1.34867e-05
1.28492e-05
1.24631e-05
1.22595e-05
1.21901e-05
1.21983e-05
1.22773e-05
1.24035e-05
1.25668e-05
1.2769e-05
1.30114e-05
1.33045e-05
1.36511e-05
1.40499e-05
1.45211e-05
1.50623e-05
1.56432e-05
1.62765e-05
1.6975e-05
1.77511e-05
1.86061e-05
1.93182e-05
1.97666e-05
2.02048e-05
2.06474e-05
2.10767e-05
2.15057e-05
2.19277e-05
2.23422e-05
2.27513e-05
2.31495e-05
2.35291e-05
2.39187e-05
2.42835e-05
2.46407e-05
2.49976e-05
2.53439e-05
2.56703e-05
2.60066e-05
2.63235e-05
2.66479e-05
2.69541e-05
2.7267e-05
2.75677e-05
2.78747e-05
2.81524e-05
2.84429e-05
2.87155e-05
2.89893e-05
2.92499e-05
2.95079e-05
2.97483e-05
3.00227e-05
3.01985e-05
3.04811e-05
3.06361e-05
3.0999e-05
3.10785e-05
3.12963e-05
3.1335e-05
3.16498e-05
3.19169e-05
3.21791e-05
3.20956e-05
3.22833e-05
3.25427e-05
3.29422e-05
3.27576e-05
3.27731e-05
3.28642e-05
3.28493e-05
3.29039e-05
3.33567e-05
3.37309e-05
3.33336e-05
3.3155e-05
3.319e-05
3.31362e-05
3.32267e-05
3.37503e-05
3.39653e-05
3.35323e-05
3.35135e-05
3.42036e-05
3.47591e-05
3.41271e-05
3.39228e-05
3.37896e-05
3.40339e-05
3.46091e-05
3.51069e-05
3.46126e-05
3.44254e-05
3.45479e-05
3.47047e-05
3.48304e-05
3.48383e-05
3.483e-05
3.47232e-05
3.52158e-05
3.56923e-05
3.53006e-05
3.50534e-05
3.50644e-05
3.5246e-05
3.53917e-05
3.53159e-05
3.53039e-05
3.55555e-05
3.54658e-05
3.55494e-05
3.55278e-05
3.54636e-05
3.54539e-05
3.57264e-05
3.52324e-05
3.5244e-05
3.59115e-05
3.59304e-05
3.6025e-05
3.60652e-05
3.60774e-05
3.60813e-05
3.60829e-05
3.60699e-05
3.60897e-05
3.60411e-05
3.60789e-05
3.59501e-05
3.60758e-05
3.59025e-05
3.56439e-05
3.57134e-05
3.59377e-05
3.55559e-05
3.56849e-05
3.58862e-05
3.5856e-05
3.58539e-05
3.5874e-05
3.5883e-05
3.58869e-05
3.58768e-05
3.58703e-05
3.58541e-05
3.58369e-05
3.58897e-05
3.57816e-05
3.59015e-05
3.57303e-05
3.58957e-05
3.57302e-05
3.58878e-05
3.57604e-05
3.58056e-05
3.57349e-05
3.57028e-05
3.56769e-05
3.56651e-05
3.56842e-05
3.58841e-05
3.56797e-05
3.55287e-05
3.47358e-05
3.37258e-05
3.50694e-05
3.49782e-05
3.51014e-05
3.51595e-05
3.52012e-05
3.52807e-05
3.53149e-05
3.53972e-05
3.54326e-05
3.55128e-05
3.55497e-05
3.56263e-05
3.56629e-05
3.57358e-05
3.57687e-05
3.58399e-05
3.58571e-05
3.59371e-05
3.59538e-05
3.60236e-05
3.60571e-05
3.61097e-05
3.61623e-05
3.62028e-05
3.62588e-05
3.62928e-05
3.63463e-05
3.63791e-05
3.6425e-05
3.64575e-05
3.6499e-05
3.65316e-05
3.6569e-05
3.6601e-05
3.66379e-05
3.66697e-05
3.67037e-05
3.67363e-05
3.67697e-05
3.68026e-05
3.68351e-05
3.68686e-05
3.69012e-05
3.69342e-05
3.69699e-05
3.70033e-05
3.70349e-05
3.707e-05
3.71035e-05
3.71388e-05
3.71744e-05
3.7209e-05
3.72425e-05
3.72786e-05
3.73173e-05
3.73471e-05
3.73897e-05
3.74176e-05
3.74618e-05
3.74896e-05
3.7532e-05
3.75616e-05
3.76043e-05
3.76342e-05
3.76771e-05
3.77093e-05
3.7751e-05
3.77852e-05
3.78218e-05
3.78548e-05
3.7877e-05
3.79109e-05
3.79326e-05
3.79672e-05
3.79882e-05
3.80238e-05
3.80439e-05
3.80808e-05
3.80997e-05
3.81378e-05
3.8155e-05
3.81943e-05
3.82092e-05
3.82497e-05
3.82627e-05
3.83044e-05
3.83143e-05
3.83568e-05
3.83639e-05
3.84081e-05
3.8413e-05
3.84583e-05
3.84598e-05
3.85063e-05
3.85048e-05
3.8553e-05
3.85485e-05
3.85983e-05
3.85905e-05
3.86422e-05
3.86317e-05
3.86843e-05
3.86705e-05
3.87236e-05
3.87078e-05
3.87601e-05
3.87435e-05
3.87942e-05
3.87797e-05
3.88283e-05
3.88169e-05
3.88625e-05
3.8855e-05
3.88986e-05
3.8896e-05
3.89367e-05
3.89362e-05
3.89739e-05
3.89761e-05
3.90114e-05
3.9014e-05
3.90472e-05
3.90515e-05
3.90807e-05
3.90872e-05
3.9114e-05
3.91212e-05
3.9147e-05
3.91539e-05
3.91778e-05
3.91851e-05
3.9208e-05
3.92166e-05
3.92387e-05
3.92476e-05
3.92688e-05
3.92784e-05
3.93002e-05
3.9311e-05
3.93316e-05
3.93434e-05
3.93622e-05
3.93736e-05
3.9392e-05
3.94047e-05
3.94216e-05
3.94336e-05
3.94497e-05
3.94604e-05
3.94743e-05
3.94844e-05
3.94975e-05
3.95068e-05
3.95185e-05
3.9527e-05
3.95375e-05
3.9547e-05
3.95564e-05
3.95645e-05
3.95731e-05
3.95813e-05
3.95898e-05
3.95976e-05
3.96062e-05
3.96142e-05
3.96227e-05
3.96306e-05
3.96395e-05
3.96473e-05
3.96564e-05
3.96644e-05
3.96736e-05
3.9682e-05
3.9691e-05
3.96992e-05
3.97078e-05
3.97159e-05
3.97245e-05
3.97323e-05
3.97412e-05
3.97499e-05
3.97579e-05
3.97652e-05
3.97716e-05
3.97775e-05
3.97824e-05
3.9787e-05
3.97906e-05
3.97937e-05
3.97959e-05
3.97977e-05
3.97986e-05
3.97989e-05
3.97981e-05
3.97968e-05
3.97942e-05
3.97911e-05
3.97869e-05
3.97824e-05
3.97769e-05
3.97705e-05
3.9763e-05
3.97545e-05
3.97451e-05
3.97349e-05
3.97237e-05
3.97117e-05
3.9699e-05
3.9686e-05
3.96724e-05
3.96588e-05
3.96448e-05
3.96308e-05
3.96168e-05
3.9603e-05
3.9589e-05
3.95755e-05
3.95621e-05
3.95491e-05
3.95362e-05
3.95236e-05
3.95118e-05
3.95006e-05
3.94901e-05
3.948e-05
3.94708e-05
3.9462e-05
3.94538e-05
3.94458e-05
3.94376e-05
3.9429e-05
3.94197e-05
3.941e-05
3.93994e-05
3.93881e-05
3.9376e-05
3.93634e-05
3.93504e-05
3.93368e-05
3.93229e-05
3.93086e-05
3.92945e-05
3.92797e-05
3.92659e-05
3.92531e-05
3.92423e-05
3.92316e-05
3.92228e-05
3.92147e-05
3.92078e-05
3.92019e-05
3.91975e-05
3.91941e-05
3.91918e-05
3.91899e-05
3.91887e-05
3.91881e-05
3.9188e-05
3.91882e-05
3.91888e-05
3.91892e-05
3.91898e-05
3.91903e-05
3.91908e-05
3.91914e-05
3.91922e-05
3.91937e-05
3.91957e-05
3.91976e-05
3.91998e-05
3.92024e-05
3.92058e-05
3.92087e-05
3.92121e-05
3.9216e-05
3.92209e-05
3.92264e-05
3.92324e-05
3.92388e-05
3.92453e-05
3.92518e-05
3.92589e-05
3.92669e-05
3.92751e-05
3.92841e-05
3.92935e-05
3.93035e-05
3.93134e-05
3.9324e-05
3.93344e-05
3.93449e-05
3.93554e-05
3.93661e-05
3.93767e-05
3.93876e-05
3.93983e-05
3.94093e-05
3.942e-05
3.9431e-05
3.94417e-05
3.94526e-05
3.94634e-05
3.94747e-05
3.94863e-05
3.94993e-05
3.95128e-05
3.95274e-05
3.95432e-05
3.95594e-05
3.95764e-05
3.95941e-05
3.96118e-05
3.96304e-05
3.96489e-05
3.96678e-05
3.96865e-05
3.97057e-05
3.97239e-05
3.97422e-05
3.97593e-05
3.97761e-05
3.97918e-05
3.98079e-05
3.9823e-05
3.98387e-05
3.98541e-05
3.98697e-05
3.9885e-05
3.99009e-05
3.99163e-05
3.99327e-05
3.99483e-05
3.99649e-05
3.99798e-05
3.99955e-05
4.00097e-05
4.00246e-05
4.00377e-05
4.00516e-05
4.00626e-05
4.00752e-05
4.00848e-05
4.00954e-05
4.01058e-05
4.01105e-05
4.01238e-05
4.01202e-05
4.01425e-05
4.01151e-05
4.01644e-05
4.00968e-05
4.01949e-05
4.00736e-05
4.02228e-05
4.00148e-05
4.02083e-05
3.99014e-05
4.01172e-05
3.97287e-05
3.99249e-05
3.95022e-05
3.96512e-05
3.91674e-05
3.90854e-05
3.814e-05
3.70488e-05
3.40679e-05
2.85737e-05
2.43267e-05
2.19593e-05
2.66462e-05
2.31874e-05
2.2695e-05
1.91269e-05
1.99793e-05
2.22389e-05
1.74634e-05
1.94542e-05
2.39306e-05
0.000150369
0.00011479
7.8957e-05
6.87707e-05
5.54969e-05
4.54773e-05
3.75794e-05
3.17638e-05
2.74738e-05
2.42862e-05
2.18565e-05
1.99856e-05
1.84786e-05
1.72819e-05
1.63141e-05
1.55284e-05
1.48937e-05
1.43841e-05
1.39837e-05
1.36777e-05
1.34552e-05
1.33094e-05
1.32355e-05
1.3231e-05
1.3293e-05
1.3424e-05
1.36235e-05
1.38881e-05
1.42133e-05
1.45946e-05
1.50353e-05
1.55317e-05
1.60898e-05
1.66702e-05
1.72653e-05
1.78755e-05
1.85005e-05
1.91393e-05
1.97931e-05
2.04603e-05
2.11427e-05
2.18398e-05
2.25527e-05
2.32843e-05
2.40355e-05
2.47979e-05
2.54263e-05
2.60304e-05
2.66615e-05
2.72631e-05
2.79095e-05
2.85101e-05
2.91512e-05
2.97534e-05
3.0397e-05
3.0984e-05
3.16355e-05
3.21764e-05
3.28616e-05
3.33229e-05
3.40012e-05
3.44883e-05
3.52573e-05
3.57357e-05
3.62709e-05
3.64676e-05
3.72173e-05
3.78425e-05
3.86146e-05
3.86825e-05
3.9234e-05
3.99543e-05
4.09013e-05
4.09652e-05
4.13258e-05
4.15435e-05
4.19709e-05
4.21061e-05
4.33011e-05
4.39782e-05
4.41218e-05
4.3824e-05
4.42323e-05
4.40659e-05
4.44992e-05
4.54302e-05
4.60538e-05
4.54432e-05
4.57692e-05
4.6942e-05
4.72315e-05
4.75109e-05
4.74351e-05
4.71974e-05
4.7612e-05
4.85742e-05
4.88155e-05
4.90698e-05
4.9292e-05
4.95184e-05
4.97341e-05
4.99462e-05
5.01371e-05
5.03405e-05
5.0515e-05
5.06943e-05
5.08756e-05
5.10439e-05
5.11873e-05
5.13603e-05
5.14978e-05
5.16231e-05
5.17362e-05
5.18955e-05
5.19867e-05
5.21168e-05
5.21822e-05
5.23085e-05
5.23697e-05
5.25323e-05
5.25176e-05
5.27686e-05
5.30449e-05
5.32847e-05
5.34864e-05
5.36297e-05
5.37502e-05
5.38475e-05
5.39484e-05
5.40275e-05
5.4108e-05
5.41666e-05
5.42266e-05
5.42468e-05
5.42953e-05
5.427e-05
5.41849e-05
5.42176e-05
5.42896e-05
5.43073e-05
5.43996e-05
5.45059e-05
5.46147e-05
5.47024e-05
5.47895e-05
5.48666e-05
5.49453e-05
5.50125e-05
5.50809e-05
5.51331e-05
5.51817e-05
5.52404e-05
5.52702e-05
5.53428e-05
5.53476e-05
5.54475e-05
5.54342e-05
5.55477e-05
5.54878e-05
5.55915e-05
5.5484e-05
5.55793e-05
5.54638e-05
5.55682e-05
5.54721e-05
5.55788e-05
5.54189e-05
5.54155e-05
5.47927e-05
5.4406e-05
5.41841e-05
5.47029e-05
5.49359e-05
5.50885e-05
5.52962e-05
5.54327e-05
5.56324e-05
5.57686e-05
5.59577e-05
5.60937e-05
5.6272e-05
5.64057e-05
5.65728e-05
5.67032e-05
5.68593e-05
5.69864e-05
5.71326e-05
5.72555e-05
5.73941e-05
5.75134e-05
5.76448e-05
5.77582e-05
5.78814e-05
5.79922e-05
5.81099e-05
5.82156e-05
5.83281e-05
5.84291e-05
5.85369e-05
5.86335e-05
5.87377e-05
5.88314e-05
5.89326e-05
5.90239e-05
5.91236e-05
5.92138e-05
5.93129e-05
5.94035e-05
5.9503e-05
5.95945e-05
5.96945e-05
5.9787e-05
5.98874e-05
5.99804e-05
6.00818e-05
6.0176e-05
6.0278e-05
6.0373e-05
6.04755e-05
6.0571e-05
6.06737e-05
6.07683e-05
6.08704e-05
6.09641e-05
6.10657e-05
6.11585e-05
6.12593e-05
6.13512e-05
6.14524e-05
6.15432e-05
6.16439e-05
6.17331e-05
6.18346e-05
6.19221e-05
6.20248e-05
6.21116e-05
6.22158e-05
6.2303e-05
6.24091e-05
6.2498e-05
6.2607e-05
6.2697e-05
6.28089e-05
6.28993e-05
6.30136e-05
6.31029e-05
6.3219e-05
6.33069e-05
6.34251e-05
6.35104e-05
6.36299e-05
6.37117e-05
6.38325e-05
6.391e-05
6.40322e-05
6.41048e-05
6.4228e-05
6.42939e-05
6.44175e-05
6.44772e-05
6.46018e-05
6.46558e-05
6.47811e-05
6.48276e-05
6.49535e-05
6.49932e-05
6.51213e-05
6.51541e-05
6.52833e-05
6.53091e-05
6.54404e-05
6.54593e-05
6.55915e-05
6.56033e-05
6.57354e-05
6.57416e-05
6.58717e-05
6.58751e-05
6.60013e-05
6.60067e-05
6.6129e-05
6.61394e-05
6.62558e-05
6.62737e-05
6.63853e-05
6.64118e-05
6.65185e-05
6.65499e-05
6.66513e-05
6.6688e-05
6.67854e-05
6.68251e-05
6.69198e-05
6.69623e-05
6.70538e-05
6.70987e-05
6.71853e-05
6.72318e-05
6.73151e-05
6.73618e-05
6.7441e-05
6.74883e-05
6.75654e-05
6.76146e-05
6.76895e-05
6.77397e-05
6.78129e-05
6.78634e-05
6.7936e-05
6.7988e-05
6.80585e-05
6.81108e-05
6.81786e-05
6.82295e-05
6.82958e-05
6.83477e-05
6.84123e-05
6.84651e-05
6.85283e-05
6.85804e-05
6.8641e-05
6.86927e-05
6.8752e-05
6.88028e-05
6.88602e-05
6.891e-05
6.89656e-05
6.90159e-05
6.90697e-05
6.9118e-05
6.91701e-05
6.92189e-05
6.92695e-05
6.93179e-05
6.93669e-05
6.94146e-05
6.94626e-05
6.95097e-05
6.9557e-05
6.96035e-05
6.96504e-05
6.96964e-05
6.97429e-05
6.97887e-05
6.98342e-05
6.98786e-05
6.99223e-05
6.99653e-05
7.00076e-05
7.00485e-05
7.00897e-05
7.01312e-05
7.01716e-05
7.02102e-05
7.02462e-05
7.02796e-05
7.03099e-05
7.03376e-05
7.0362e-05
7.03837e-05
7.04023e-05
7.04184e-05
7.04312e-05
7.04412e-05
7.04478e-05
7.04515e-05
7.04515e-05
7.04489e-05
7.04428e-05
7.04344e-05
7.04224e-05
7.04078e-05
7.03895e-05
7.03682e-05
7.03435e-05
7.0316e-05
7.02854e-05
7.02524e-05
7.0217e-05
7.01801e-05
7.01418e-05
7.01027e-05
7.00627e-05
7.00223e-05
6.99817e-05
6.99413e-05
6.99005e-05
6.98606e-05
6.9821e-05
6.97823e-05
6.97439e-05
6.97065e-05
6.96703e-05
6.96356e-05
6.96024e-05
6.95702e-05
6.954e-05
6.95106e-05
6.94825e-05
6.94543e-05
6.94261e-05
6.93966e-05
6.93655e-05
6.93323e-05
6.92968e-05
6.92585e-05
6.92178e-05
6.9175e-05
6.91304e-05
6.90838e-05
6.90361e-05
6.89876e-05
6.89391e-05
6.88908e-05
6.88443e-05
6.88002e-05
6.87597e-05
6.87221e-05
6.86882e-05
6.86574e-05
6.8631e-05
6.86059e-05
6.85858e-05
6.85685e-05
6.85546e-05
6.85419e-05
6.85317e-05
6.85227e-05
6.85152e-05
6.85082e-05
6.85022e-05
6.84962e-05
6.84905e-05
6.84845e-05
6.84785e-05
6.84727e-05
6.84675e-05
6.84635e-05
6.8461e-05
6.84589e-05
6.84581e-05
6.84577e-05
6.84587e-05
6.84596e-05
6.8462e-05
6.84657e-05
6.84718e-05
6.84799e-05
6.84893e-05
6.85e-05
6.85125e-05
6.85258e-05
6.85413e-05
6.85591e-05
6.85788e-05
6.86003e-05
6.86237e-05
6.86485e-05
6.86742e-05
6.87009e-05
6.87282e-05
6.87555e-05
6.87832e-05
6.88111e-05
6.88391e-05
6.88672e-05
6.88953e-05
6.89233e-05
6.89512e-05
6.89788e-05
6.90063e-05
6.90337e-05
6.90615e-05
6.90904e-05
6.91207e-05
6.91544e-05
6.91907e-05
6.923e-05
6.92728e-05
6.93181e-05
6.93658e-05
6.94161e-05
6.9467e-05
6.952e-05
6.95737e-05
6.96281e-05
6.96826e-05
6.97369e-05
6.97899e-05
6.98417e-05
6.98912e-05
6.99389e-05
6.99851e-05
7.00299e-05
7.00738e-05
7.01172e-05
7.01613e-05
7.02044e-05
7.02485e-05
7.02921e-05
7.03369e-05
7.03815e-05
7.04269e-05
7.0472e-05
7.05161e-05
7.05587e-05
7.06002e-05
7.06389e-05
7.06766e-05
7.07116e-05
7.07429e-05
7.07737e-05
7.08004e-05
7.08222e-05
7.08453e-05
7.08554e-05
7.08763e-05
7.08708e-05
7.09019e-05
7.08578e-05
7.09298e-05
7.08122e-05
7.09693e-05
7.07378e-05
7.09925e-05
7.05868e-05
7.0928e-05
7.03145e-05
7.06975e-05
6.98935e-05
7.02395e-05
6.93314e-05
6.95535e-05
6.85109e-05
6.83835e-05
6.65692e-05
6.41989e-05
5.91946e-05
4.77471e-05
3.42589e-05
3.44913e-05
3.78372e-05
3.46541e-05
3.36119e-05
3.00648e-05
2.63941e-05
2.58212e-05
2.80056e-05
3.09145e-05
3.91883e-05
0.000184068
0.000138552
7.612e-05
7.39377e-05
7.6214e-05
8.33487e-05
9.28181e-05
8.076e-05
7.12622e-05
6.35721e-05
5.7237e-05
5.20139e-05
4.75259e-05
4.38032e-05
4.06236e-05
3.78643e-05
3.54675e-05
3.33447e-05
3.14335e-05
2.97071e-05
2.81169e-05
2.66605e-05
2.5337e-05
2.41427e-05
2.30786e-05
2.21283e-05
2.12912e-05
2.05543e-05
1.99089e-05
1.93461e-05
1.88574e-05
1.84387e-05
1.80851e-05
1.77941e-05
1.75635e-05
1.73919e-05
1.72773e-05
1.72201e-05
1.72302e-05
1.73087e-05
1.74474e-05
1.76426e-05
1.78923e-05
1.81951e-05
1.8557e-05
1.89745e-05
1.94432e-05
1.99425e-05
2.04743e-05
2.1037e-05
2.16329e-05
2.22585e-05
2.29154e-05
2.35977e-05
2.43065e-05
2.50362e-05
2.57868e-05
2.65517e-05
2.73385e-05
2.81298e-05
2.88679e-05
2.96096e-05
3.0307e-05
3.10297e-05
3.15436e-05
3.20961e-05
3.28184e-05
3.37253e-05
3.45344e-05
3.49914e-05
3.56473e-05
3.67904e-05
3.78063e-05
3.83205e-05
3.89053e-05
3.95024e-05
4.0402e-05
4.09944e-05
4.26887e-05
4.38476e-05
4.44361e-05
4.44612e-05
4.53499e-05
4.57946e-05
4.67765e-05
4.82236e-05
4.95183e-05
4.94035e-05
5.05676e-05
5.17621e-05
5.24269e-05
5.30724e-05
5.37027e-05
5.43207e-05
5.49501e-05
5.5569e-05
5.61633e-05
5.67636e-05
5.73326e-05
5.79025e-05
5.84555e-05
5.89996e-05
5.95133e-05
6.00319e-05
6.05172e-05
6.10064e-05
6.14884e-05
6.19604e-05
6.23989e-05
6.28604e-05
6.32719e-05
6.36636e-05
6.40258e-05
6.44294e-05
6.47595e-05
6.51273e-05
6.54181e-05
6.57828e-05
6.60719e-05
6.64667e-05
6.67107e-05
6.72211e-05
6.77496e-05
6.82854e-05
6.87596e-05
6.9141e-05
6.9478e-05
6.979e-05
7.01014e-05
7.03861e-05
7.06655e-05
7.09243e-05
7.11778e-05
7.13793e-05
7.1597e-05
7.17341e-05
7.18175e-05
7.20146e-05
7.22181e-05
7.23901e-05
7.26454e-05
7.28971e-05
7.317e-05
7.34131e-05
7.36531e-05
7.38781e-05
7.41032e-05
7.43109e-05
7.45177e-05
7.47026e-05
7.48804e-05
7.50638e-05
7.52165e-05
7.54108e-05
7.55286e-05
7.57506e-05
7.58361e-05
7.60668e-05
7.60888e-05
7.62993e-05
7.62541e-05
7.64542e-05
7.63867e-05
7.65852e-05
7.65242e-05
7.67081e-05
7.65437e-05
7.6549e-05
7.58772e-05
7.5577e-05
7.56127e-05
7.58581e-05
7.61496e-05
7.63245e-05
7.6595e-05
7.67674e-05
7.70333e-05
7.72231e-05
7.74913e-05
7.76978e-05
7.79663e-05
7.81832e-05
7.84494e-05
7.86741e-05
7.89362e-05
7.91638e-05
7.94215e-05
7.96475e-05
7.99016e-05
8.0129e-05
8.0376e-05
8.06053e-05
8.0845e-05
8.10753e-05
8.1312e-05
8.15376e-05
8.17712e-05
8.19934e-05
8.22234e-05
8.24408e-05
8.26674e-05
8.28829e-05
8.31065e-05
8.33188e-05
8.35406e-05
8.3752e-05
8.39738e-05
8.41857e-05
8.44088e-05
8.46229e-05
8.48467e-05
8.50619e-05
8.52873e-05
8.55027e-05
8.57286e-05
8.59445e-05
8.61706e-05
8.63872e-05
8.66124e-05
8.68273e-05
8.705e-05
8.72625e-05
8.74836e-05
8.7692e-05
8.79113e-05
8.81158e-05
8.8333e-05
8.85344e-05
8.87493e-05
8.89476e-05
8.91599e-05
8.93546e-05
8.95661e-05
8.97585e-05
8.99705e-05
9.01607e-05
9.03745e-05
9.05656e-05
9.07822e-05
9.09752e-05
9.11945e-05
9.13888e-05
9.16123e-05
9.18071e-05
9.20332e-05
9.22266e-05
9.24546e-05
9.26458e-05
9.28758e-05
9.30624e-05
9.32946e-05
9.34771e-05
9.37095e-05
9.38839e-05
9.41167e-05
9.42829e-05
9.4515e-05
9.46708e-05
9.49019e-05
9.50475e-05
9.52779e-05
9.54141e-05
9.56429e-05
9.57667e-05
9.59947e-05
9.6107e-05
9.63343e-05
9.6435e-05
9.66634e-05
9.67535e-05
9.69815e-05
9.70599e-05
9.72877e-05
9.73538e-05
9.75787e-05
9.7635e-05
9.78544e-05
9.79041e-05
9.81168e-05
9.81672e-05
9.8371e-05
9.84253e-05
9.86209e-05
9.8685e-05
9.88739e-05
9.8949e-05
9.91309e-05
9.92131e-05
9.93883e-05
9.94772e-05
9.96497e-05
9.97428e-05
9.99113e-05
0.000100008
0.000100169
0.00010027
0.000100426
0.000100528
0.000100679
0.000100783
0.000100929
0.000101034
0.000101177
0.000101283
0.000101423
0.000101528
0.000101666
0.00010177
0.000101906
0.000102012
0.000102144
0.00010225
0.000102379
0.000102483
0.00010261
0.000102716
0.000102839
0.000102948
0.00010307
0.000103178
0.000103297
0.000103405
0.000103523
0.000103631
0.000103747
0.000103855
0.000103969
0.000104078
0.00010419
0.000104297
0.000104408
0.000104516
0.000104626
0.000104732
0.000104842
0.000104949
0.000105054
0.000105158
0.000105261
0.000105362
0.000105463
0.000105563
0.000105664
0.000105762
0.000105859
0.000105955
0.000106048
0.00010614
0.000106229
0.000106316
0.000106402
0.000106487
0.000106571
0.00010665
0.000106725
0.000106795
0.00010686
0.000106919
0.000106973
0.00010702
0.000107062
0.000107098
0.000107128
0.000107152
0.000107168
0.000107179
0.000107182
0.00010718
0.000107171
0.000107157
0.000107135
0.000107109
0.000107075
0.000107035
0.000106989
0.000106938
0.000106881
0.00010682
0.000106756
0.000106688
0.000106618
0.000106548
0.000106476
0.000106405
0.000106334
0.000106263
0.000106193
0.000106124
0.000106057
0.000105991
0.000105927
0.000105864
0.000105804
0.000105746
0.000105691
0.000105638
0.000105588
0.00010554
0.000105492
0.000105445
0.000105397
0.000105347
0.000105292
0.000105234
0.000105169
0.000105099
0.000105023
0.000104943
0.000104858
0.000104769
0.000104676
0.000104582
0.000104488
0.000104395
0.000104305
0.000104221
0.000104143
0.000104072
0.000104009
0.000103953
0.000103905
0.000103862
0.000103827
0.000103798
0.000103774
0.000103754
0.000103739
0.000103727
0.000103716
0.000103707
0.000103698
0.000103689
0.000103681
0.000103672
0.000103662
0.000103653
0.000103643
0.000103636
0.000103632
0.000103627
0.000103625
0.000103623
0.000103624
0.000103625
0.000103628
0.000103633
0.000103642
0.000103654
0.000103669
0.000103686
0.000103709
0.000103733
0.000103762
0.000103795
0.000103833
0.000103875
0.00010392
0.000103968
0.000104018
0.00010407
0.000104122
0.000104176
0.000104229
0.000104283
0.000104336
0.000104389
0.000104441
0.000104492
0.000104543
0.000104592
0.00010464
0.000104688
0.000104736
0.000104787
0.00010484
0.000104901
0.000104967
0.000105039
0.00010512
0.000105205
0.000105296
0.000105393
0.000105493
0.000105595
0.0001057
0.000105806
0.000105911
0.000106016
0.000106118
0.000106218
0.000106313
0.000106404
0.000106492
0.000106577
0.000106661
0.000106743
0.000106827
0.00010691
0.000106993
0.000107077
0.000107162
0.000107248
0.000107334
0.000107421
0.000107506
0.000107588
0.000107668
0.000107744
0.000107816
0.000107884
0.000107946
0.000108003
0.000108055
0.000108097
0.000108136
0.000108156
0.000108185
0.000108176
0.000108212
0.000108153
0.000108237
0.000108085
0.000108272
0.000107968
0.000108287
0.000107747
0.000108178
0.000107342
0.000107816
0.000106689
0.000107101
0.000105775
0.000105983
0.000104407
0.000104045
0.000101255
9.76312e-05
9.00612e-05
7.34947e-05
5.1228e-05
4.7401e-05
5.1032e-05
4.72685e-05
4.45091e-05
3.95023e-05
3.45431e-05
2.96616e-05
3.21075e-05
3.93062e-05
4.22092e-05
0.000189772
0.00012388
7.26851e-05
6.9778e-05
7.21228e-05
7.74565e-05
9.08124e-05
0.000100524
0.000120067
0.00011664
0.000108315
0.000101109
9.45007e-05
8.86518e-05
8.33901e-05
7.8619e-05
7.43042e-05
7.03501e-05
6.66888e-05
6.33025e-05
6.01129e-05
5.71328e-05
5.43639e-05
5.179e-05
4.94198e-05
4.72267e-05
4.52194e-05
4.33749e-05
4.16792e-05
4.01237e-05
3.86869e-05
3.73645e-05
3.61452e-05
3.5021e-05
3.39883e-05
3.30333e-05
3.21538e-05
3.13359e-05
3.05062e-05
2.96402e-05
2.87767e-05
2.79507e-05
2.7187e-05
2.64922e-05
2.58721e-05
2.53257e-05
2.48536e-05
2.44546e-05
2.41292e-05
2.38741e-05
2.36883e-05
2.35692e-05
2.35156e-05
2.35253e-05
2.35965e-05
2.37275e-05
2.39172e-05
2.4165e-05
2.44717e-05
2.48354e-05
2.52669e-05
2.57464e-05
2.63035e-05
2.68958e-05
2.75599e-05
2.82434e-05
2.90017e-05
2.97744e-05
3.06038e-05
3.1457e-05
3.23649e-05
3.32959e-05
3.42762e-05
3.52768e-05
3.63339e-05
3.7465e-05
3.86627e-05
3.98592e-05
4.10988e-05
4.23813e-05
4.36916e-05
4.50078e-05
4.63413e-05
4.76817e-05
4.90515e-05
5.04388e-05
5.18366e-05
5.32298e-05
5.46048e-05
5.595e-05
5.72843e-05
5.85825e-05
5.98469e-05
6.10766e-05
6.22733e-05
6.34581e-05
6.46048e-05
6.57167e-05
6.67849e-05
6.78372e-05
6.88599e-05
6.98414e-05
7.07785e-05
7.17091e-05
7.25912e-05
7.34624e-05
7.43231e-05
7.5175e-05
7.59834e-05
7.68057e-05
7.75244e-05
7.82085e-05
7.88302e-05
7.94905e-05
8.00682e-05
8.06812e-05
8.11687e-05
8.17593e-05
8.22953e-05
8.29832e-05
8.34896e-05
8.43351e-05
8.52083e-05
8.61684e-05
8.70098e-05
8.76632e-05
8.82453e-05
8.88098e-05
8.93758e-05
8.99096e-05
9.04285e-05
9.09183e-05
9.13942e-05
9.18064e-05
9.22259e-05
9.25437e-05
9.28106e-05
9.31844e-05
9.35604e-05
9.39177e-05
9.43677e-05
9.48135e-05
9.52859e-05
9.57205e-05
9.61489e-05
9.65582e-05
9.69618e-05
9.73384e-05
9.771e-05
9.80526e-05
9.83826e-05
9.87166e-05
9.9012e-05
9.93506e-05
9.96019e-05
9.99721e-05
0.000100175
0.000100544
0.000100661
0.000101009
0.000101034
0.000101351
0.000101337
0.000101634
0.00010161
0.00010186
0.000101692
0.000101695
0.000100967
0.000100714
0.000100698
0.000101041
0.000101402
0.000101622
0.000101953
0.000102162
0.000102481
0.000102712
0.000103039
0.000103294
0.000103629
0.000103907
0.000104247
0.000104543
0.000104888
0.000105192
0.000105542
0.000105855
0.000106206
0.000106531
0.000106881
0.000107218
0.000107568
0.000107911
0.000108264
0.000108608
0.000108963
0.000109307
0.000109661
0.000110005
0.00011036
0.000110704
0.000111057
0.000111401
0.000111756
0.000112101
0.000112459
0.000112807
0.000113169
0.000113521
0.000113886
0.000114242
0.000114608
0.000114965
0.000115332
0.000115689
0.000116055
0.000116411
0.000116774
0.000117126
0.000117486
0.000117832
0.000118185
0.000118523
0.000118872
0.000119204
0.000119549
0.000119875
0.000120218
0.000120537
0.000120875
0.00012119
0.000121526
0.000121836
0.000122172
0.00012248
0.000122818
0.000123125
0.000123465
0.000123775
0.000124119
0.000124431
0.000124778
0.000125091
0.00012544
0.000125751
0.000126102
0.00012641
0.000126762
0.000127064