/*--------------------------------*- C++ -*----------------------------------*\
| =========                 |                                                 |
| \\      /  F ield         | foam-extend: Open Source CFD                    |
|  \\    /   O peration     | Version:     3.2                                |
|   \\  /    A nd           | Web:         http://www.foam-extend.org         |
|    \\/     M anipulation  | For copyright notice see file Copyright         |
\*---------------------------------------------------------------------------*/
FoamFile
{
    version     2.0;
    format      ascii;
    class       areaScalarField;
    location    "1440";
    object      Fi;
}
// * * * * * * * * * * * * * * * * * * * * * * * * * * * * * * * * * * * * * //

dimensions      [0 1 -1 0 0 0 0];

internalField   nonuniform List<scalar> 
550
(
6.05357e-08
5.62963e-08
5.00586e-08
1.95585e-08
-2.7542e-08
-6.66566e-08
-1.05054e-07
-1.38751e-07
-1.58539e-07
-1.73928e-07
-1.82551e-07
-1.77069e-07
-1.69794e-07
-1.57238e-07
-1.4223e-07
-1.2812e-07
-1.133e-07
-9.88903e-08
-8.73188e-08
-7.76254e-08
-6.91847e-08
-6.17465e-08
-5.50699e-08
-4.97669e-08
-4.53016e-08
-4.14753e-08
-3.83623e-08
-3.5961e-08
-3.41846e-08
-3.24356e-08
-3.07919e-08
-2.93323e-08
-2.79986e-08
-2.69341e-08
-2.5998e-08
-2.51884e-08
-2.44207e-08
-2.35851e-08
-2.29542e-08
-2.23805e-08
-2.17099e-08
-2.12188e-08
-2.07606e-08
-2.02037e-08
-1.97417e-08
-1.93436e-08
-1.89404e-08
-1.85535e-08
-1.81814e-08
-1.78746e-08
-1.75929e-08
-1.72141e-08
-1.68642e-08
-1.658e-08
-1.62885e-08
-1.60057e-08
-1.57308e-08
-1.54491e-08
-1.53349e-08
-1.48533e-08
-1.33424e-08
-1.36816e-08
8.6515e-09
2.53164e-08
-2.30913e-08
-3.81639e-08
-1.24862e-08
2.67646e-08
6.31007e-09
-5.06116e-08
-1.17351e-08
5.16029e-08
9.14991e-08
-4.27308e-08
-8.60885e-08
-1.09676e-08
-1.08919e-08
-1.07358e-08
-1.22419e-08
1.38138e-07
4.23477e-08
-1.60446e-07
-1.0987e-08
-1.0477e-08
-1.05212e-08
-1.03172e-08
-9.81433e-09
-9.71975e-09
-9.93758e-09
-1.09646e-08
-9.25308e-09
-7.39691e-09
-9.54433e-09
-8.40853e-09
-8.06719e-09
-8.23398e-09
-7.3527e-09
-7.46972e-09
-7.92491e-09
-7.11142e-09
-6.56e-09
-6.58032e-09
-6.43615e-09
-6.16507e-09
-6.50984e-09
-6.23465e-09
1.35884e-07
6.48856e-08
-1.46492e-07
-4.6308e-09
-4.79586e-09
-4.94789e-09
-3.35095e-09
-3.02339e-09
-4.48092e-09
-3.65231e-09
-3.49584e-09
-3.36017e-09
-2.30353e-09
-1.45834e-09
-2.11903e-09
1.79837e-09
6.99377e-09
6.97738e-11
-3.8205e-11
3.51553e-11
-6.26881e-11
6.65829e-11
-7.98196e-11
8.14274e-11
-8.74209e-11
7.79671e-11
-9.5267e-11
5.69839e-11
-1.97719e-10
-7.86626e-11
-1.5923e-10
4.68148e-12
-1.47375e-10
2.1347e-11
-1.39225e-10
2.28757e-11
-1.39704e-10
1.59896e-11
-1.44776e-10
-3.23741e-12
-1.56666e-10
-2.34219e-11
-1.64859e-10
-4.18498e-11
-1.69892e-10
-5.55077e-11
-1.68917e-10
-6.21155e-11
-1.64489e-10
-6.48721e-11
-1.6377e-10
-6.76176e-11
-1.67306e-10
-7.14895e-11
-1.72804e-10
-7.65692e-11
-1.76024e-10
-8.12727e-11
-1.75806e-10
-8.50062e-11
-1.73149e-10
-8.7746e-11
-1.7162e-10
-9.00764e-11
-1.67383e-10
-9.16512e-11
-1.63125e-10
-9.29001e-11
-1.59841e-10
-9.34617e-11
-1.5538e-10
-9.18513e-11
-1.51287e-10
-9.01884e-11
-1.47538e-10
-8.67647e-11
-1.42777e-10
-8.24419e-11
-1.37006e-10
-7.63122e-11
-1.30917e-10
-7.19492e-11
-1.25924e-10
-6.96281e-11
-1.20433e-10
-6.57841e-11
-1.15451e-10
-6.14467e-11
-1.12531e-10
-5.36046e-11
-1.06895e-10
-4.5219e-11
-9.98265e-11
-3.7083e-11
-9.29293e-11
-2.9388e-11
-8.58696e-11
-2.32216e-11
-8.00891e-11
-1.89942e-11
-7.6538e-11
-1.78106e-11
-7.55513e-11
-1.82525e-11
-7.56653e-11
-1.95556e-11
-7.58633e-11
-2.08099e-11
-7.69462e-11
-2.33501e-11
-7.91085e-11
-2.64045e-11
-8.10399e-11
-2.80673e-11
-8.11561e-11
-2.77512e-11
-7.99037e-11
-2.61813e-11
-7.8085e-11
-2.30883e-11
-7.59615e-11
-1.91564e-11
-7.25796e-11
-1.36119e-11
-6.82085e-11
-7.68662e-12
-6.42941e-11
-2.74506e-12
-6.09966e-11
1.10692e-12
-5.78326e-11
3.26588e-12
-5.55365e-11
3.50039e-12
-5.45232e-11
2.22078e-12
-5.42653e-11
-1.18341e-14
-5.45525e-11
-3.20603e-12
-5.59227e-11
-7.76373e-12
-5.79826e-11
-1.19948e-11
-5.91342e-11
-1.47854e-11
-5.92611e-11
-1.62592e-11
-5.81632e-11
-1.57564e-11
-5.55329e-11
-1.38227e-11
-5.20831e-11
-1.10114e-11
-4.76694e-11
-6.57101e-12
-4.1404e-11
-5.1571e-13
-3.44958e-11
5.58645e-12
-2.852e-11
1.10054e-11
-2.3821e-11
1.57746e-11
-2.04377e-11
1.96081e-11
-1.86493e-11
2.23295e-11
-1.80986e-11
2.40454e-11
-1.80124e-11
2.49622e-11
-1.78226e-11
2.44813e-11
-1.7874e-11
2.26669e-11
-1.78942e-11
1.94825e-11
-1.85628e-11
1.53125e-11
-1.93236e-11
1.13557e-11
-1.97047e-11
7.91277e-12
-1.97401e-11
4.58933e-12
-1.99582e-11
1.35331e-12
-2.00694e-11
-1.10137e-12
-1.96076e-11
-2.75171e-12
-1.86607e-11
-3.8981e-12
-1.80576e-11
-5.94304e-12
-1.90286e-11
-9.02706e-12
-2.06565e-11
-1.22657e-11
-2.28049e-11
-1.63013e-11
-2.57571e-11
-2.08026e-11
-2.9809e-11
-2.6305e-11
-3.38872e-11
-3.10604e-11
-3.93441e-11
-3.70916e-11
-4.48264e-11
-4.34498e-11
-5.0353e-11
-4.92633e-11
-5.53587e-11
-5.3801e-11
-5.81377e-11
-5.60873e-11
-5.90031e-11
-5.60135e-11
-5.7036e-11
-5.31423e-11
-5.27243e-11
-4.8617e-11
-4.78562e-11
-4.39058e-11
-4.27075e-11
-3.88808e-11
-3.79965e-11
-3.52144e-11
-3.36956e-11
-3.06514e-11
-2.86416e-11
-2.59236e-11
-2.37782e-11
-2.16431e-11
-2.02812e-11
-1.86832e-11
-1.7232e-11
-1.57742e-11
-1.41176e-11
-1.28531e-11
-1.07278e-11
-1.09304e-11
-7.55865e-12
-7.76337e-12
-3.93628e-12
-4.73122e-12
-5.96846e-13
-4.96295e-13
4.13921e-12
5.15448e-12
1.04291e-11
1.11775e-11
1.57106e-11
1.59344e-11
1.94507e-11
1.97391e-11
2.24701e-11
2.286e-11
2.4783e-11
2.50023e-11
2.62755e-11
2.64046e-11
2.76793e-11
2.83651e-11
3.05479e-11
3.26333e-11
3.6085e-11
3.90074e-11
4.28535e-11
4.57089e-11
4.90014e-11
5.08002e-11
5.29086e-11
5.3686e-11
5.50705e-11
5.51012e-11
5.55862e-11
5.4621e-11
5.39226e-11
5.18611e-11
4.98248e-11
4.65676e-11
4.28787e-11
3.83367e-11
3.29561e-11
2.6746e-11
1.91082e-11
1.1594e-11
3.01435e-12
-4.19577e-12
-1.19794e-11
-1.69831e-11
-2.21405e-11
-2.36088e-11
-2.55769e-11
-2.38872e-11
-2.3559e-11
-1.99756e-11
-1.85848e-11
-1.40508e-11
-1.19466e-11
-6.70693e-12
-4.3575e-12
6.73248e-13
1.79021e-12
4.959e-12
4.00841e-12
3.11365e-12
-2.54102e-12
-5.83852e-12
-1.28022e-11
-1.78884e-11
-2.57499e-11
-3.16499e-11
-4.12243e-11
-4.89889e-11
-5.91308e-11
-6.66993e-11
-7.60403e-11
-8.25804e-11
-9.0424e-11
-9.53734e-11
-1.01397e-10
-1.04614e-10
-1.08598e-10
-1.10095e-10
-1.12344e-10
-1.12788e-10
-1.14672e-10
-1.14968e-10
-1.16459e-10
-1.16235e-10
-1.16325e-10
-1.14561e-10
-1.13321e-10
-1.10457e-10
-1.07999e-10
-1.04385e-10
-1.01241e-10
-9.71254e-11
-9.33155e-11
-8.89089e-11
-8.52059e-11
-8.12163e-11
-7.78477e-11
-7.48444e-11
-7.21292e-11
-6.94628e-11
-6.63946e-11
-6.30917e-11
-5.90634e-11
-5.52193e-11
-5.06227e-11
-4.62652e-11
-4.09613e-11
-3.61371e-11
-3.04452e-11
-2.56066e-11
-1.99533e-11
-1.53698e-11
-9.87757e-12
-5.48027e-12
-4.42209e-13
2.71759e-12
5.66396e-12
5.992e-12
5.67338e-12
2.63216e-12
-9.5895e-13
-6.76963e-12
-1.23764e-11
-1.92942e-11
-2.56322e-11
-3.26456e-11
-3.86925e-11
-4.49252e-11
-5.0387e-11
-5.60299e-11
-6.09656e-11
-6.55265e-11
-6.89592e-11
-7.1144e-11
-7.22245e-11
-7.21286e-11
-7.20198e-11
-7.16445e-11
-7.26534e-11
-7.41969e-11
-7.77557e-11
-8.13814e-11
-8.67463e-11
-9.15662e-11
-9.79687e-11
-1.03127e-10
-1.09571e-10
-1.13874e-10
-1.18959e-10
-1.21066e-10
-1.23458e-10
-1.22394e-10
-1.21684e-10
-1.17525e-10
-1.13945e-10
-1.07242e-10
-1.01893e-10
-9.3516e-11
-8.55153e-11
-7.48485e-11
-6.65552e-11
-5.50068e-11
-4.64661e-11
-3.3825e-11
-2.91149e-11
-2.02432e-11
-1.67839e-11
-2.30231e-11
-3.06695e-11
-4.27681e-11
-6.84671e-11
-8.28983e-11
-1.25728e-10
-1.43608e-10
-1.93974e-10
-2.1576e-10
-2.56985e-10
-2.78291e-10
-3.04636e-10
-3.15162e-10
-3.26608e-10
-2.64474e-10
-3.06649e-10
1.30808e-07
1.56816e-07
4.14423e-08
4.65503e-08
4.99905e-08
5.42432e-08
5.68718e-08
5.81794e-08
5.78813e-08
5.82133e-08
5.46265e-08
)
;

boundaryField
{
    inlet
    {
        type            calculated;
        value           uniform 6.05357e-08;
    }
    endWall
    {
        type            calculated;
        value           uniform 5.44575e-08;
    }
    sideWall
    {
        type            empty;
    }
}


// ************************************************************************* //
