/*--------------------------------*- C++ -*----------------------------------*\
| =========                 |                                                 |
| \\      /  F ield         | foam-extend: Open Source CFD                    |
|  \\    /   O peration     | Version:     3.2                                |
|   \\  /    A nd           | Web:         http://www.foam-extend.org         |
|    \\/     M anipulation  | For copyright notice see file Copyright         |
\*---------------------------------------------------------------------------*/
FoamFile
{
    version     2.0;
    format      ascii;
    class       areaScalarField;
    location    "1440";
    object      Fi2;
}
// * * * * * * * * * * * * * * * * * * * * * * * * * * * * * * * * * * * * * //

dimensions      [0 1 -1 0 0 0 0];

internalField   nonuniform List<scalar> 
550
(
6.05357e-08
5.62963e-08
5.00586e-08
1.95584e-08
-2.75421e-08
-6.66568e-08
-1.05055e-07
-1.38752e-07
-1.58539e-07
-1.73928e-07
-1.82551e-07
-1.77069e-07
-1.69793e-07
-1.57237e-07
-1.42229e-07
-1.28119e-07
-1.13299e-07
-9.88891e-08
-8.73175e-08
-7.7624e-08
-6.91832e-08
-6.17452e-08
-5.50687e-08
-4.97661e-08
-4.5301e-08
-4.1475e-08
-3.83624e-08
-3.59611e-08
-3.41847e-08
-3.24357e-08
-3.07918e-08
-2.93321e-08
-2.79982e-08
-2.69336e-08
-2.59974e-08
-2.51878e-08
-2.44202e-08
-2.35846e-08
-2.29538e-08
-2.23802e-08
-2.17097e-08
-2.12185e-08
-2.07604e-08
-2.02035e-08
-1.97415e-08
-1.93433e-08
-1.894e-08
-1.85529e-08
-1.81806e-08
-1.78736e-08
-1.75917e-08
-1.72127e-08
-1.68627e-08
-1.65785e-08
-1.6287e-08
-1.60043e-08
-1.57296e-08
-1.54479e-08
-1.53353e-08
-1.48701e-08
-2.13689e-09
1.0723e-08
-1.58855e-08
-3.02122e-08
1.84268e-08
3.99945e-08
9.75621e-09
-3.26711e-08
-4.79167e-08
-1.18575e-08
-1.28981e-08
-1.32427e-08
-1.03622e-08
-9.83954e-09
-1.0969e-08
-1.10094e-08
-1.22182e-08
1.11008e-07
3.55151e-08
-1.3274e-07
-1.08695e-08
-1.11366e-08
-1.09789e-08
-1.19143e-08
1.45643e-07
5.29621e-08
-1.66835e-07
1.44241e-07
5.73133e-08
-1.63529e-07
-8.78477e-09
-9.12739e-09
-9.64508e-09
-9.91291e-09
1.40715e-07
6.32736e-08
-1.5689e-07
-7.95156e-09
-7.79211e-09
-6.95145e-09
-6.58613e-09
-6.60512e-09
-6.44544e-09
-6.29879e-09
-6.5217e-09
-7.45857e-09
-5.70879e-09
-3.72975e-09
-5.74921e-09
-4.50401e-09
-4.77935e-09
-4.92838e-09
-3.36752e-09
-3.03822e-09
-4.47901e-09
-3.65474e-09
-3.5011e-09
-3.36564e-09
-2.30692e-09
-1.46296e-09
-2.13924e-09
1.81505e-09
7.02524e-09
7.70724e-11
-5.10785e-11
3.59295e-11
-6.23283e-11
6.68342e-11
-7.98514e-11
8.13232e-11
-8.76503e-11
7.77894e-11
-9.52546e-11
5.71197e-11
-1.96545e-10
-7.7144e-11
-1.58469e-10
5.55978e-12
-1.46656e-10
2.20575e-11
-1.38616e-10
2.34051e-11
-1.39243e-10
1.6337e-11
-1.44509e-10
-3.03794e-12
-1.56434e-10
-2.31731e-11
-1.64579e-10
-4.15594e-11
-1.69498e-10
-5.50454e-11
-1.68329e-10
-6.14731e-11
-1.63799e-10
-6.42139e-11
-1.6313e-10
-6.70485e-11
-1.66805e-10
-7.10813e-11
-1.72446e-10
-7.62606e-11
-1.75746e-10
-8.10255e-11
-1.75603e-10
-8.4853e-11
-1.73143e-10
-8.78506e-11
-1.71754e-10
-9.02145e-11
-1.67569e-10
-9.19858e-11
-1.63554e-10
-9.3419e-11
-1.60413e-10
-9.40892e-11
-1.56078e-10
-9.26379e-11
-1.52143e-10
-9.11028e-11
-1.48467e-10
-8.76883e-11
-1.4368e-10
-8.33381e-11
-1.37919e-10
-7.7239e-11
-1.31862e-10
-7.29015e-11
-1.2689e-10
-7.05767e-11
-1.21342e-10
-6.66867e-11
-1.16334e-10
-6.23424e-11
-1.13411e-10
-5.44546e-11
-1.07747e-10
-4.60576e-11
-1.00686e-10
-3.79703e-11
-9.38586e-11
-3.03283e-11
-8.68208e-11
-2.41907e-11
-8.10987e-11
-2.00509e-11
-7.76321e-11
-1.89381e-11
-7.66914e-11
-1.93857e-11
-7.67688e-11
-2.06153e-11
-7.68948e-11
-2.18416e-11
-7.79833e-11
-2.4381e-11
-8.01116e-11
-2.73558e-11
-8.19092e-11
-2.88587e-11
-8.18753e-11
-2.84066e-11
-8.04976e-11
-2.67075e-11
-7.85531e-11
-2.34961e-11
-7.63073e-11
-1.94466e-11
-7.27998e-11
-1.37875e-11
-6.83307e-11
-7.78589e-12
-6.43582e-11
-2.79643e-12
-6.10113e-11
1.08365e-12
-5.78631e-11
3.20511e-12
-5.56357e-11
3.35697e-12
-5.46961e-11
2.02619e-12
-5.44837e-11
-2.45183e-13
-5.48192e-11
-3.52202e-12
-5.62916e-11
-8.14532e-12
-5.83689e-11
-1.23614e-11
-5.94775e-11
-1.51038e-11
-5.95541e-11
-1.65151e-11
-5.83735e-11
-1.59411e-11
-5.56899e-11
-1.39729e-11
-5.22067e-11
-1.11091e-11
-4.76992e-11
-6.55551e-12
-4.13276e-11
-4.3323e-13
-3.43933e-11
5.6682e-12
-2.84323e-11
1.10696e-11
-2.37493e-11
1.58218e-11
-2.04044e-11
1.96099e-11
-1.86663e-11
2.22849e-11
-1.81694e-11
2.39487e-11
-1.81372e-11
2.47931e-11
-1.80546e-11
2.41908e-11
-1.82281e-11
2.22465e-11
-1.83927e-11
1.89036e-11
-1.92116e-11
1.46086e-11
-2.00764e-11
1.05595e-11
-2.05431e-11
7.02057e-12
-2.0688e-11
3.59385e-12
-2.09803e-11
3.16865e-13
-2.11078e-11
-2.12694e-12
-2.06131e-11
-3.7379e-12
-1.96286e-11
-4.86269e-12
-1.90301e-11
-6.91036e-12
-1.99713e-11
-9.92534e-12
-2.15198e-11
-1.30938e-11
-2.36063e-11
-1.70754e-11
-2.64935e-11
-2.15002e-11
-3.0464e-11
-2.6896e-11
-3.44581e-11
-3.16002e-11
-3.98434e-11
-3.75781e-11
-4.52656e-11
-4.385e-11
-5.06828e-11
-4.95335e-11
-5.55792e-11
-5.39813e-11
-5.82818e-11
-5.61973e-11
-5.90699e-11
-5.60308e-11
-5.7006e-11
-5.30636e-11
-5.26117e-11
-4.84975e-11
-4.7736e-11
-4.378e-11
-4.25807e-11
-3.87555e-11
-3.78493e-11
-3.5033e-11
-3.34655e-11
-3.0373e-11
-2.83371e-11
-2.56027e-11
-2.34493e-11
-2.12887e-11
-1.9874e-11
-1.82153e-11
-1.67062e-11
-1.51892e-11
-1.34785e-11
-1.21698e-11
-1.00193e-11
-1.01956e-11
-6.78161e-12
-6.95526e-12
-3.10246e-12
-3.87722e-12
2.73666e-13
3.90962e-13
5.04237e-12
6.05825e-12
1.13022e-11
1.19937e-11
1.64631e-11
1.6629e-11
2.00946e-11
2.03394e-11
2.30207e-11
2.3357e-11
2.52242e-11
2.53853e-11
2.66024e-11
2.6685e-11
2.79187e-11
2.85839e-11
3.07697e-11
3.28536e-11
3.62831e-11
3.91741e-11
4.29804e-11
4.57867e-11
4.9026e-11
5.07785e-11
5.28648e-11
5.36337e-11
5.50018e-11
5.50048e-11
5.54569e-11
5.44602e-11
5.37334e-11
5.16479e-11
4.95855e-11
4.62932e-11
4.25719e-11
3.80004e-11
3.25698e-11
2.62991e-11
1.86213e-11
1.10938e-11
2.51779e-12
-4.66127e-12
-1.23886e-11
-1.73173e-11
-2.23926e-11
-2.37905e-11
-2.57041e-11
-2.39739e-11
-2.36303e-11
-2.00511e-11
-1.86726e-11
-1.41451e-11
-1.20415e-11
-6.80687e-12
-4.47253e-12
5.27333e-13
1.58542e-12
4.66498e-12
3.60512e-12
2.60588e-12
-3.11696e-12
-6.44189e-12
-1.34147e-11
-1.85e-11
-2.6353e-11
-3.22557e-11
-4.18455e-11
-4.96033e-11
-5.97032e-11
-6.72196e-11
-7.65002e-11
-8.29702e-11
-9.07349e-11
-9.56043e-11
-1.01545e-10
-1.04674e-10
-1.08564e-10
-1.09992e-10
-1.12222e-10
-1.12677e-10
-1.14591e-10
-1.14921e-10
-1.16434e-10
-1.16216e-10
-1.16291e-10
-1.14516e-10
-1.1328e-10
-1.10431e-10
-1.07992e-10
-1.04391e-10
-1.01255e-10
-9.71341e-11
-9.3304e-11
-8.88796e-11
-8.51687e-11
-8.11777e-11
-7.78094e-11
-7.48099e-11
-7.20807e-11
-6.93776e-11
-6.62508e-11
-6.28833e-11
-5.88086e-11
-5.49241e-11
-5.02816e-11
-4.58823e-11
-4.05476e-11
-3.57108e-11
-3.00231e-11
-2.52034e-11
-1.9581e-11
-1.50259e-11
-9.55059e-12
-5.1758e-12
-1.88958e-13
2.88125e-12
5.70225e-12
5.8862e-12
5.42152e-12
2.23993e-12
-1.4614e-12
-7.33374e-12
-1.2962e-11
-1.98832e-11
-2.62152e-11
-3.32084e-11
-3.92288e-11
-4.54483e-11
-5.09122e-11
-5.65556e-11
-6.14747e-11
-6.59849e-11
-6.93304e-11
-7.14143e-11
-7.24123e-11
-7.2265e-11
-7.21472e-11
-7.17996e-11
-7.28668e-11
-7.44759e-11
-7.80671e-11
-8.16908e-11
-8.70477e-11
-9.1865e-11
-9.82714e-11
-1.03444e-10
-1.09888e-10
-1.14171e-10
-1.19215e-10
-1.21237e-10
-1.2353e-10
-1.22373e-10
-1.21572e-10
-1.17328e-10
-1.13683e-10
-1.06952e-10
-1.0158e-10
-9.31518e-11
-8.51119e-11
-7.4406e-11
-6.60656e-11
-5.44977e-11
-4.59773e-11
-3.34285e-11
-2.88846e-11
-2.01719e-11
-1.68657e-11
-2.32877e-11
-3.11208e-11
-4.33289e-11
-6.92854e-11
-8.38246e-11
-1.26949e-10
-1.44825e-10
-1.95335e-10
-2.16922e-10
-2.5812e-10
-2.79257e-10
-3.05387e-10
-3.15797e-10
-3.26879e-10
-2.64818e-10
-3.065e-10
1.3081e-07
1.56818e-07
4.14424e-08
4.65505e-08
4.99906e-08
5.42433e-08
5.68719e-08
5.81795e-08
5.78813e-08
5.82133e-08
5.46265e-08
)
;

boundaryField
{
    inlet
    {
        type            calculated;
        value           uniform 6.05357e-08;
    }
    endWall
    {
        type            calculated;
        value           uniform 5.44575e-08;
    }
    sideWall
    {
        type            empty;
    }
}


// ************************************************************************* //
