/*--------------------------------*- C++ -*----------------------------------*\
| =========                 |                                                 |
| \\      /  F ield         | foam-extend: Open Source CFD                    |
|  \\    /   O peration     | Version:     3.2                                |
|   \\  /    A nd           | Web:         http://www.foam-extend.org         |
|    \\/     M anipulation  | For copyright notice see file Copyright         |
\*---------------------------------------------------------------------------*/
FoamFile
{
    version     2.0;
    format      ascii;
    class       areaScalarField;
    location    "1440";
    object      Hdep;
}
// * * * * * * * * * * * * * * * * * * * * * * * * * * * * * * * * * * * * * //

dimensions      [0 0 0 0 0 0 0];

internalField   nonuniform List<scalar> 
550
(
0
0
0
0
0
0
0
0
0
0
0
0
0
0
0
0
0
0
0
0
0
0
0
0
0
0
0
0
0
0
0
0
0
0
0
0
0
0
0
0
0
0
0
0
0
0
0
0
0
0
0
0
0
0
0
0
0
0
0
0
0
1.33433e-06
0
0
0
2.7043e-06
2.16384e-06
3.00457e-06
0
5.93646e-06
6.98862e-06
4.57393e-06
0
0
1.01724e-05
4.72491e-06
5.75962e-06
6.13281e-06
7.22967e-06
0
0
1.40906e-05
1.65711e-05
1.00527e-05
8.30863e-06
8.28293e-06
2.15163e-06
1.28457e-05
1.07292e-05
1.41905e-05
0
1.41281e-05
2.51133e-05
1.09926e-05
8.36976e-06
1.11385e-05
2.71849e-06
1.67066e-05
1.9497e-05
1.1159e-05
2.83834e-06
1.94681e-05
1.1186e-05
8.25599e-06
1.65338e-05
1.94801e-05
2.97621e-06
0
1.94445e-05
1.12255e-05
1.16038e-05
2.17149e-05
3.09937e-06
3.06549e-05
0.209704
0.202169
0.198238
0.182461
0.177352
0.152369
0.151281
0.0626544
0.0864053
0.0187345
0.00357685
0.00299115
0.00225321
0.00225232
0.00219012
0.00208465
0.00242884
0.00266708
0.00274569
0.00341059
0.00444364
0.00535007
0.00569267
0.00549555
0.00503554
0.0049795
0.00487274
0.00496796
0.00503606
0.00516738
0.00527722
0.00537505
0.00551279
0.00558617
0.00572643
0.00578712
0.0059127
0.00598008
0.00609393
0.00614783
0.00625398
0.00630517
0.00641293
0.00646462
0.00655436
0.00658345
0.00663611
0.00664284
0.00663369
0.00661526
0.00659552
0.00654083
0.00646723
0.006319
0.00612051
0.00579213
0.00544655
0.00539957
0.00531263
0.00531038
0.00523347
0.00525186
0.00517834
0.00521884
0.00517351
0.00519992
0.00517407
0.00520622
0.00519747
0.0052338
0.00522873
0.00526648
0.00526138
0.0053007
0.00529567
0.00533569
0.00533657
0.00537235
0.00537834
0.00541548
0.00542485
0.00545951
0.00547358
0.00550858
0.00552217
0.00556125
0.00557457
0.00561478
0.0056283
0.00567057
0.00568175
0.00572471
0.0057364
0.00578134
0.00579224
0.005841
0.0058514
0.0058987
0.00591231
0.00595676
0.00597323
0.0060151
0.00603208
0.00606932
0.00608408
0.00612032
0.00612853
0.00616918
0.00617063
0.00621622
0.00620997
0.00625853
0.00624901
0.00629995
0.00628662
0.00633937
0.00632889
0.00637778
0.00637362
0.00641806
0.00641201
0.00646189
0.00645605
0.00651209
0.006509
0.00656993
0.00657104
0.00663067
0.00662783
0.0066869
0.00668562
0.00673986
0.00674599
0.00679608
0.00680791
0.00685397
0.00686855
0.0069102
0.00692642
0.0069666
0.00697966
0.00701573
0.00702711
0.00706239
0.00707153
0.00710378
0.0071124
0.00714323
0.00715341
0.00718299
0.00719166
0.00721571
0.00722608
0.00724675
0.00726477
0.00727984
0.00729799
0.00731143
0.00732929
0.00734105
0.00735708
0.00736828
0.00738194
0.00739397
0.00740846
0.00742041
0.0074361
0.00744784
0.00746326
0.00747464
0.0074889
0.00750097
0.00751484
0.00752743
0.00754109
0.0075552
0.00756926
0.00758337
0.00759617
0.00760989
0.00762269
0.0076365
0.00765115
0.00766549
0.00767923
0.00769266
0.00770592
0.00771813
0.00773047
0.00774234
0.00775494
0.00776821
0.00778188
0.00779574
0.00781017
0.00782445
0.0078389
0.00785342
0.00786821
0.00788281
0.00789738
0.00791124
0.0079248
0.00793792
0.00795127
0.00796482
0.00797895
0.0079943
0.00801087
0.00802768
0.00804468
0.00806178
0.00807957
0.00809717
0.00811444
0.0081314
0.00814839
0.0081657
0.00818388
0.00820273
0.00822208
0.00824232
0.00826344
0.00828506
0.00830755
0.00833077
0.00835424
0.0083778
0.00840146
0.00842521
0.00844896
0.00847226
0.00849458
0.0085167
0.00853985
0.00856439
0.00858916
0.00861153
0.00863296
0.0086591
0.00868857
0.00871903
0.00875071
0.008784
0.00881861
0.0088545
0.00889214
0.00893091
0.00897083
0.00901162
0.009053
0.00909478
0.00913675
0.00917872
0.00922099
0.0092634
0.00930573
0.00934866
0.00939189
0.00943507
0.00947838
0.00952202
0.00956735
0.00961563
0.00966682
0.00971803
0.00976903
0.00981949
0.0098692
0.00991771
0.00996509
0.0100117
0.0100575
0.0101028
0.0101474
0.0101912
0.0102347
0.0102781
0.0103212
0.0103639
0.0104063
0.0104479
0.0104891
0.0105301
0.0105709
0.0106114
0.0106517
0.0106917
0.0107312
0.0107696
0.0108078
0.010845
0.0108814
0.0109173
0.0109524
0.0109869
0.0110208
0.0110543
0.0110875
0.0111204
0.0111527
0.0111852
0.0112177
0.0112507
0.0112843
0.0113181
0.0113518
0.0113862
0.0114203
0.0114546
0.0114896
0.0115247
0.0115601
0.0115956
0.0116312
0.0116669
0.0117029
0.0117392
0.0117756
0.0118119
0.0118482
0.0118847
0.0119211
0.0119572
0.0119934
0.0120295
0.0120663
0.0121028
0.0121397
0.012177
0.0122142
0.012251
0.0122876
0.0123239
0.0123606
0.0123971
0.0124335
0.0124703
0.0125071
0.012545
0.0125834
0.0126225
0.0126623
0.012703
0.0127444
0.0127866
0.0128296
0.0128732
0.0129175
0.012962
0.0130068
0.0130519
0.0130972
0.0131429
0.0131893
0.0132361
0.0132839
0.0133324
0.0133807
0.0134293
0.0134778
0.0135274
0.013578
0.0136295
0.0136818
0.0137355
0.0137903
0.0138456
0.0139009
0.0139564
0.0140121
0.0140677
0.0141237
0.0141798
0.0142363
0.0142936
0.0143518
0.0144119
0.014473
0.0145347
0.0145969
0.0146595
0.0147229
0.0147873
0.0148519
0.0149166
0.0149815
0.0150468
0.0151117
0.0151767
0.0152417
0.0153053
0.0153678
0.0154302
0.0154928
0.0155554
0.0156176
0.0156788
0.0157392
0.0158001
0.0158606
0.0159207
0.0159807
0.0160435
0.0161065
0.0161772
0.0162427
0.0163251
0.0163892
0.0164708
0.0165217
0.0165973
0.0166141
0.0166655
0.0166385
0.0165914
0.0165175
0.0163353
0.0161748
0.0158309
0.0154254
0.0147255
0.0136974
0.0120127
0.00909125
0
0
0
0
0
0
0
0
0
0
0
)
;

boundaryField
{
    inlet
    {
        type            calculated;
        value           uniform 0;
    }
    endWall
    {
        type            calculated;
        value           uniform 0;
    }
    sideWall
    {
        type            empty;
    }
}


// ************************************************************************* //
