/*--------------------------------*- C++ -*----------------------------------*\
| =========                 |                                                 |
| \\      /  F ield         | foam-extend: Open Source CFD                    |
|  \\    /   O peration     | Version:     3.2                                |
|   \\  /    A nd           | Web:         http://www.foam-extend.org         |
|    \\/     M anipulation  | For copyright notice see file Copyright         |
\*---------------------------------------------------------------------------*/
FoamFile
{
    version     2.0;
    format      ascii;
    class       volScalarField;
    location    "1440";
    object      k;
}
// * * * * * * * * * * * * * * * * * * * * * * * * * * * * * * * * * * * * * //

dimensions      [0 2 -2 0 0 0 0];

internalField   nonuniform List<scalar> 
33000
(
0.000163513
0.000225801
0.000301515
0.000389985
0.000489069
0.000595372
0.000704856
0.000812991
0.000915798
0.00100967
0.00109201
0.00116126
0.00121747
0.00126036
0.00129072
0.00131022
0.00131998
0.00132132
0.00131611
0.00130612
0.00129241
0.00127586
0.00125711
0.00123696
0.00121597
0.00119459
0.00117321
0.00115225
0.00113206
0.00111262
0.00109394
0.00107606
0.00105902
0.00104288
0.00102764
0.00101331
0.000999852
0.000987178
0.000975339
0.000964269
0.000953869
0.000944204
0.000935189
0.000926738
0.00091886
0.000911517
0.000904668
0.000898279
0.000892309
0.000886762
0.000881605
0.000876747
0.000872187
0.000867916
0.000863899
0.000860131
0.000856571
0.000853204
0.000850126
0.000847052
0.000844338
0.00084157
0.000839087
0.000836544
0.00083422
0.000831816
0.000829703
0.000827562
0.00082554
0.000823446
0.000821596
0.000819769
0.000817976
0.000816146
0.00081435
0.00081273
0.00081123
0.00080948
0.000808107
0.000806557
0.000805091
0.000803674
0.000802357
0.000800945
0.000799607
0.000798277
0.000796888
0.000795561
0.000794372
0.000793126
0.000791646
0.000790413
0.000789451
0.000788242
0.000787168
0.00078609
0.00078476
0.000783525
0.000782506
0.000781307
0.000780044
0.000778882
0.000777709
0.00077648
0.000775397
0.000774308
0.000773028
0.000771741
0.000770608
0.000769178
0.000768025
0.000766784
0.000765239
0.00076354
0.000762666
0.000761254
0.000760236
0.00075874
0.000757238
0.000755011
0.000754067
0.000750733
0.000747226
0.000748341
0.000749577
0.000751468
0.000753294
0.000755156
0.000756865
0.000758439
0.000759812
0.000760979
0.000761872
0.000762535
0.000762726
0.000762842
0.000762327
0.000760379
0.000758777
0.000758269
0.000756461
0.000755158
0.000755157
0.000755192
0.000755362
0.000755562
0.000755804
0.00075597
0.000756102
0.000756043
0.000755943
0.000755552
0.000755378
0.000754626
0.000754415
0.000753302
0.000753134
0.000751997
0.000751715
0.000750653
0.000749699
0.000748341
0.000746646
0.000744894
0.000742933
0.000741088
0.00073938
0.00073693
0.000734736
0.000727169
0.000715453
0.000711449
0.000707477
0.000704714
0.000702422
0.000700413
0.00069886
0.000697367
0.000696261
0.000695144
0.000694347
0.000693509
0.000692934
0.000692302
0.000691888
0.000691411
0.000691112
0.000690755
0.000690532
0.000690277
0.000690118
0.000689938
0.000689827
0.000689728
0.000689665
0.000689626
0.000689596
0.00068959
0.000689586
0.000689591
0.000689599
0.000689612
0.000689628
0.000689641
0.000689656
0.00068967
0.000689686
0.000689701
0.000689721
0.000689744
0.000689772
0.000689799
0.000689831
0.000689862
0.000689894
0.000689932
0.000689971
0.000690007
0.000690045
0.000690081
0.000690118
0.000690159
0.000690194
0.000690235
0.000690267
0.000690322
0.000690356
0.000690425
0.000690466
0.000690551
0.000690605
0.000690696
0.000690761
0.000690858
0.000690929
0.000691027
0.000691109
0.000691207
0.000691297
0.000691399
0.000691497
0.000691608
0.000691705
0.000691831
0.000691935
0.00069207
0.000692177
0.000692322
0.00069243
0.000692582
0.000692689
0.000692845
0.000692948
0.000693103
0.000693198
0.000693349
0.000693437
0.000693579
0.000693652
0.000693773
0.000693824
0.000693934
0.00069397
0.000694062
0.000694079
0.00069415
0.000694149
0.000694205
0.000694186
0.000694228
0.000694193
0.000694218
0.000694178
0.000694169
0.00069412
0.000694066
0.000694013
0.000693892
0.000693833
0.000693641
0.000693578
0.000693333
0.000693259
0.000692977
0.000692884
0.000692605
0.000692495
0.00069222
0.00069209
0.000691814
0.000691664
0.000691388
0.000691219
0.000690938
0.000690747
0.000690461
0.000690254
0.000689963
0.00068974
0.000689445
0.00068921
0.000688912
0.000688664
0.000688368
0.000688116
0.000687825
0.000687572
0.000687291
0.000687041
0.000686774
0.000686539
0.000686292
0.000686073
0.000685845
0.000685642
0.000685441
0.000685261
0.000685085
0.000684929
0.000684777
0.000684642
0.000684509
0.000684394
0.000684284
0.000684185
0.000684091
0.000684007
0.000683927
0.00068386
0.000683796
0.000683743
0.000683694
0.000683658
0.000683628
0.000683609
0.000683602
0.000683606
0.000683621
0.000683649
0.000683691
0.000683747
0.000683819
0.000683905
0.000684009
0.000684128
0.000684264
0.000684414
0.000684578
0.000684758
0.000684953
0.000685161
0.000685399
0.000685677
0.000685983
0.000686313
0.000686659
0.000687019
0.000687391
0.000687771
0.000688159
0.000688554
0.000688955
0.000689361
0.000689771
0.000690184
0.0006906
0.000691017
0.000691436
0.000691854
0.000692274
0.000692691
0.000693106
0.000693516
0.000693918
0.000694313
0.000694699
0.000695075
0.00069544
0.000695796
0.000696142
0.000696477
0.000696801
0.000697114
0.000697415
0.000697706
0.000697985
0.000698252
0.000698507
0.000698753
0.000698989
0.000699215
0.000699431
0.00069964
0.00069984
0.000700035
0.000700224
0.000700407
0.000700583
0.000700752
0.000700911
0.000701059
0.000701197
0.000701322
0.000701431
0.000701528
0.000701612
0.000701682
0.00070174
0.000701785
0.000701818
0.000701839
0.000701851
0.000701856
0.000701852
0.00070184
0.000701824
0.000701811
0.000701795
0.000701781
0.000701764
0.000701749
0.000701733
0.000701715
0.000701701
0.000701689
0.000701678
0.000701665
0.000701652
0.000701636
0.000701618
0.000701597
0.000701574
0.000701549
0.00070152
0.00070149
0.000701458
0.000701427
0.000701396
0.000701369
0.000701346
0.000701324
0.000701302
0.000701285
0.000701273
0.000701264
0.000701258
0.000701257
0.000701263
0.000701277
0.000701299
0.000701331
0.000701376
0.000701427
0.000701486
0.000701554
0.000701631
0.000701717
0.000701812
0.000701913
0.000702022
0.000702137
0.000702259
0.000702387
0.00070252
0.00070266
0.000702805
0.000702957
0.000703116
0.000703283
0.000703458
0.00070364
0.000703834
0.000704036
0.000704253
0.000704479
0.00070472
0.000704976
0.000705251
0.000705537
0.000705841
0.000706158
0.000706484
0.000706822
0.000707169
0.000707523
0.000707886
0.000708255
0.000708631
0.00070901
0.000709393
0.000709778
0.000710165
0.000710552
0.000710942
0.000711334
0.000711731
0.000712133
0.000712547
0.000712967
0.000713395
0.000713831
0.000714277
0.000714729
0.000715191
0.000715656
0.000716125
0.000716586
0.00071705
0.000717508
0.000717968
0.000718424
0.000718878
0.000719321
0.000719766
0.000720174
0.000720669
0.000720985
0.000721583
0.000721763
0.000722591
0.000722494
0.00072377
0.000723375
0.000725207
0.000724708
0.000726878
0.000726334
0.000728282
0.000727742
0.000728574
0.000728092
0.000726802
0.000726214
0.000722846
0.000721615
0.00071471
0.000709256
0.000688599
0.000656273
0.000530929
0.000386779
0.000331642
0.000274761
0.000231844
0.000170834
0.000124524
9.50653e-05
0.000101571
0.000158799
0.000256374
0.00011326
0.00011688
0.000122897
0.000130648
0.000141095
0.000153341
0.000166916
0.000181475
0.000196974
0.000213195
0.000229835
0.000245784
0.000261522
0.000276561
0.000290819
0.000304714
0.000318498
0.000332746
0.000347717
0.000363462
0.000380795
0.000399388
0.000417572
0.000435808
0.000454526
0.000474233
0.000495162
0.000516674
0.000537531
0.000557768
0.000577311
0.000596098
0.000614031
0.000631076
0.000647184
0.00066235
0.000676588
0.000689917
0.000702276
0.00071379
0.000724452
0.000734275
0.000743332
0.000751722
0.000759403
0.000766512
0.000773074
0.000779213
0.000784866
0.00079012
0.000794902
0.000799368
0.000803397
0.000807078
0.000810361
0.000813309
0.000815892
0.000818234
0.000820089
0.00082201
0.00082327
0.000824801
0.000825631
0.000826747
0.000827179
0.000827967
0.000828118
0.000828494
0.000828273
0.000828349
0.000828054
0.000827896
0.000827155
0.000826596
0.000826052
0.00082535
0.000824491
0.000823689
0.000822692
0.000821739
0.000820579
0.000819647
0.000818852
0.000817904
0.000816998
0.000816009
0.000815014
0.000814017
0.000813089
0.000811991
0.000810891
0.000809847
0.000808741
0.000807597
0.000806142
0.000804913
0.000803762
0.000802492
0.000801175
0.000799575
0.000798023
0.000796358
0.000794724
0.000792916
0.0007912
0.000789171
0.000787129
0.000784953
0.00078306
0.000780956
0.000778714
0.000776496
0.000774329
0.000772142
0.000769846
0.000767541
0.000764889
0.000762596
0.0007603
0.000757971
0.000754952
0.000753665
0.000752199
0.000748381
0.000745459
0.000742897
0.0007405
0.000738342
0.00073636
0.000734589
0.000732952
0.000731394
0.000729998
0.000728506
0.000727386
0.000725835
0.000724582
0.000723967
0.000723111
0.000721597
0.000721215
0.000720376
0.000718917
0.000717878
0.000716937
0.000716076
0.000715263
0.000714543
0.000713909
0.000713326
0.000712805
0.000712354
0.000711767
0.000711501
0.00071089
0.000710757
0.000710185
0.000710005
0.000709445
0.000709175
0.000708739
0.000708419
0.00070806
0.000707699
0.000707276
0.00070675
0.000705583
0.000704861
0.000700479
0.000700843
0.000703953
0.000702572
0.000702054
0.000701532
0.000701075
0.000700678
0.000700271
0.000699913
0.000699521
0.000699174
0.000698786
0.000698439
0.000698052
0.000697708
0.000697327
0.000697
0.000696633
0.00069636
0.000696014
0.00069576
0.000695455
0.000695185
0.000694907
0.000694614
0.000694345
0.000694049
0.000693788
0.000693501
0.000693249
0.000692986
0.000692753
0.000692518
0.000692311
0.000692113
0.000691945
0.000691788
0.000691662
0.000691554
0.000691473
0.000691411
0.000691375
0.000691362
0.000691375
0.00069141
0.000691472
0.000691548
0.000691649
0.000691772
0.000691916
0.000692076
0.000692253
0.000692438
0.000692638
0.000692849
0.000693067
0.000693285
0.000693523
0.00069375
0.000694005
0.000694247
0.000694518
0.000694781
0.000695069
0.00069535
0.00069566
0.000695965
0.000696296
0.000696628
0.000696984
0.000697332
0.000697698
0.00069803
0.000698399
0.000698724
0.000699102
0.000699432
0.000699826
0.00070016
0.000700569
0.000700906
0.000701328
0.000701665
0.000702098
0.000702429
0.000702868
0.000703194
0.000703637
0.00070395
0.000704392
0.000704695
0.000705135
0.000705417
0.000705848
0.000706112
0.00070654
0.000706787
0.000707208
0.000707432
0.000707847
0.000708046
0.000708453
0.000708632
0.000709019
0.000709186
0.000709548
0.000709709
0.000710032
0.000710203
0.000710486
0.000710679
0.000710918
0.000711124
0.000711328
0.000711543
0.000711729
0.000711929
0.000712101
0.000712285
0.000712442
0.000712615
0.000712756
0.000712903
0.000713025
0.00071315
0.000713251
0.000713354
0.000713434
0.000713515
0.00071358
0.000713638
0.000713682
0.000713722
0.000713752
0.00071378
0.000713799
0.00071382
0.000713833
0.000713864
0.000713875
0.000713907
0.000713904
0.000713928
0.000713907
0.000713917
0.000713883
0.000713866
0.000713812
0.000713754
0.000713677
0.00071359
0.000713496
0.000713397
0.000713298
0.000713189
0.000713084
0.00071297
0.000712862
0.00071275
0.000712644
0.000712531
0.00071243
0.000712325
0.000712231
0.000712134
0.000712053
0.000711964
0.00071189
0.00071181
0.000711753
0.000711679
0.000711635
0.000711572
0.000711536
0.000711486
0.000711455
0.000711417
0.000711396
0.000711371
0.000711361
0.000711346
0.000711353
0.000711338
0.0007113
0.000711253
0.000711202
0.000711162
0.000711117
0.000711086
0.000711049
0.000711022
0.000710985
0.000710956
0.000710915
0.000710878
0.000710831
0.000710783
0.000710723
0.000710663
0.000710592
0.000710518
0.000710437
0.00071035
0.000710252
0.000710148
0.000710037
0.000709914
0.000709785
0.000709646
0.000709501
0.000709351
0.000709198
0.000709044
0.000708895
0.000708749
0.000708609
0.000708475
0.000708351
0.000708233
0.000708124
0.00070802
0.000707927
0.000707841
0.000707769
0.000707707
0.00070766
0.000707624
0.0007076
0.000707591
0.000707588
0.000707595
0.000707601
0.000707604
0.000707597
0.000707581
0.000707547
0.000707496
0.00070743
0.000707348
0.000707254
0.000707148
0.000707038
0.000706916
0.000706797
0.000706671
0.000706567
0.000706465
0.000706386
0.000706316
0.000706275
0.00070625
0.000706242
0.000706253
0.000706283
0.000706326
0.000706377
0.000706443
0.000706519
0.00070661
0.000706706
0.000706808
0.000706913
0.000707017
0.000707124
0.000707229
0.000707338
0.000707445
0.000707556
0.000707668
0.000707783
0.000707893
0.00070801
0.00070813
0.000708253
0.000708371
0.000708499
0.000708634
0.000708772
0.00070892
0.000709068
0.000709229
0.000709385
0.000709549
0.00070972
0.000709909
0.000710099
0.000710306
0.000710515
0.000710739
0.000710965
0.000711202
0.000711438
0.000711681
0.000711922
0.00071217
0.000712412
0.000712664
0.000712906
0.00071316
0.000713401
0.000713655
0.000713894
0.000714148
0.000714392
0.000714649
0.000714906
0.000715187
0.000715467
0.000715771
0.000716097
0.000716435
0.000716792
0.00071717
0.000717551
0.000717947
0.000718341
0.000718746
0.000719144
0.000719554
0.000719951
0.000720356
0.000720743
0.000721132
0.000721499
0.000721875
0.000722227
0.0007226
0.000722955
0.000723322
0.000723681
0.000724069
0.000724433
0.000724829
0.000725197
0.0007256
0.000725958
0.000726364
0.000726725
0.000727127
0.000727469
0.000727854
0.000728154
0.000728521
0.000728801
0.000729173
0.000729484
0.000729756
0.000730156
0.000730263
0.000730746
0.000730584
0.000731324
0.000730717
0.000731923
0.000730814
0.000732376
0.000730843
0.000732608
0.000730894
0.000732511
0.000731027
0.000731901
0.000731046
0.000730633
0.000728768
0.000725865
0.000719235
0.000710442
0.000687603
0.000661058
0.000645131
0.000664878
0.000666028
0.00066049
0.000626444
0.000591858
0.000571959
0.000428325
0.000239
0.000217875
0.000301683
0.000111179
0.000111685
0.000112846
0.000114217
0.000115763
0.00011739
0.000119112
0.000120866
0.000122736
0.000124589
0.000126524
0.000128389
0.000130148
0.000131774
0.000133311
0.000134885
0.000136526
0.000138277
0.000140199
0.000142301
0.00014473
0.000147557
0.000150796
0.000154511
0.000158732
0.000163627
0.000169263
0.000175715
0.000183078
0.000191432
0.000201001
0.000211765
0.000223919
0.000236499
0.000249314
0.000262363
0.000275622
0.00028903
0.000302578
0.000316188
0.00032985
0.000343493
0.000357094
0.000370665
0.000384149
0.000397562
0.000410644
0.000423436
0.000435885
0.00044804
0.00045988
0.000471439
0.000482641
0.000493516
0.000503986
0.000514095
0.000523755
0.000532995
0.000541816
0.000550201
0.000558242
0.000565934
0.000573342
0.000580409
0.00058719
0.000593602
0.000599602
0.000605276
0.00061051
0.000615592
0.00062033
0.000624791
0.000628872
0.000632862
0.000636562
0.000640082
0.000643204
0.000646404
0.000649195
0.000651968
0.000654271
0.000656595
0.000658404
0.000660084
0.000661253
0.000662438
0.00066333
0.000664333
0.000664953
0.000665677
0.000666146
0.000666704
0.000667197
0.000667382
0.000667369
0.000667492
0.000667271
0.00066719
0.000666922
0.000666556
0.000665856
0.000665399
0.000664646
0.000663915
0.000663162
0.000662303
0.000661223
0.000660141
0.000659228
0.000658253
0.000657055
0.000655961
0.000654795
0.000653593
0.000652312
0.000651104
0.000649744
0.00064849
0.00064756
0.000646397
0.000644955
0.000644674
0.000644135
0.000640781
0.000638339
0.000636046
0.00063405
0.000632047
0.000630281
0.000628473
0.000626906
0.000625403
0.00062409
0.000622863
0.000621894
0.000620993
0.000620119
0.000620305
0.00061994
0.000619029
0.000619112
0.000618801
0.000617764
0.000617076
0.000616402
0.00061587
0.000615396
0.000614997
0.000614678
0.000614472
0.000614286
0.00061422
0.000614095
0.000614209
0.00061414
0.00061442
0.000614446
0.000614609
0.000614622
0.000614654
0.000614954
0.000615002
0.000615549
0.000615621
0.000616075
0.000615979
0.000616335
0.000616097
0.000616291
0.000618543
0.000622505
0.00062207
0.000622138
0.000622407
0.000622585
0.000623011
0.00062325
0.000623726
0.000624012
0.000624489
0.000624794
0.000625255
0.000625568
0.000626016
0.000626333
0.000626799
0.000627119
0.000627584
0.000627932
0.000628341
0.000628697
0.000628994
0.000629358
0.000629637
0.000629987
0.000630275
0.000630626
0.000630923
0.000631279
0.000631587
0.000631951
0.000632274
0.000632652
0.000632996
0.000633402
0.000633783
0.000634222
0.000634642
0.000635112
0.000635571
0.000636079
0.000636582
0.000637131
0.000637679
0.000638271
0.000638864
0.000639487
0.000640116
0.000640769
0.00064143
0.000642106
0.00064279
0.000643485
0.000644184
0.000644887
0.000645585
0.000646292
0.00064699
0.000647708
0.000648409
0.000649133
0.000649846
0.000650583
0.000651314
0.000652072
0.000652828
0.000653607
0.000654394
0.0006552
0.000656016
0.000656845
0.000657677
0.000658528
0.000659366
0.000660229
0.000661073
0.000661945
0.000662792
0.000663671
0.000664515
0.000665397
0.000666235
0.000667116
0.000667946
0.000668824
0.000669642
0.00067051
0.000671311
0.000672165
0.00067295
0.000673791
0.00067455
0.000675369
0.000676104
0.000676906
0.00067762
0.000678404
0.000679092
0.000679859
0.00068052
0.000681268
0.000681902
0.00068262
0.000683236
0.000683919
0.000684522
0.000685162
0.000685768
0.000686365
0.000686982
0.000687537
0.000688158
0.00068868
0.000689304
0.000689812
0.000690411
0.000690907
0.000691482
0.000691969
0.000692527
0.000693007
0.000693545
0.000694014
0.000694532
0.000694991
0.000695487
0.000695934
0.000696407
0.000696845
0.000697292
0.000697711
0.000698138
0.000698541
0.000698953
0.00069934
0.000699743
0.000700118
0.000700505
0.000700863
0.000701231
0.000701564
0.000701903
0.000702204
0.000702496
0.000702778
0.00070302
0.000703281
0.000703492
0.00070373
0.000703917
0.000704134
0.000704307
0.000704504
0.000704662
0.000704844
0.00070499
0.000705162
0.000705302
0.000705465
0.000705599
0.000705757
0.000705892
0.000706046
0.000706183
0.000706332
0.000706471
0.000706614
0.000706755
0.000706891
0.00070703
0.000707163
0.000707297
0.000707429
0.000707559
0.000707685
0.000707807
0.000707925
0.000708038
0.000708145
0.000708242
0.000708338
0.00070843
0.000708494
0.000708534
0.000708548
0.000708542
0.000708516
0.000708471
0.00070841
0.00070833
0.000708233
0.000708118
0.000707984
0.000707827
0.000707652
0.000707452
0.000707232
0.000706992
0.000706732
0.000706452
0.000706151
0.000705832
0.000705491
0.000705132
0.000704756
0.000704361
0.00070395
0.000703523
0.000703084
0.000702634
0.000702182
0.000701728
0.00070128
0.00070084
0.000700409
0.000699988
0.00069958
0.000699187
0.00069881
0.000698448
0.000698104
0.00069778
0.000697475
0.000697192
0.000696928
0.000696685
0.000696462
0.000696256
0.000696065
0.000695884
0.000695708
0.000695532
0.000695346
0.000695148
0.000694932
0.000694691
0.000694429
0.000694146
0.000693842
0.000693522
0.000693194
0.000692859
0.000692527
0.0006922
0.000691899
0.000691614
0.000691365
0.000691146
0.000690965
0.000690822
0.000690711
0.00069063
0.000690583
0.000690564
0.000690563
0.000690585
0.000690624
0.000690679
0.000690744
0.000690818
0.000690898
0.00069098
0.000691067
0.000691158
0.000691254
0.000691353
0.000691458
0.000691569
0.000691686
0.000691803
0.000691928
0.000692055
0.00069219
0.000692325
0.000692471
0.000692626
0.000692792
0.00069297
0.000693158
0.000693359
0.000693573
0.000693794
0.000694035
0.000694297
0.000694574
0.000694865
0.000695171
0.000695488
0.000695816
0.000696152
0.000696494
0.000696839
0.000697187
0.000697535
0.000697883
0.000698227
0.00069857
0.000698909
0.000699246
0.000699579
0.000699911
0.000700241
0.000700574
0.000700913
0.000701263
0.000701634
0.000702025
0.000702435
0.000702882
0.000703351
0.000703846
0.000704366
0.000704904
0.000705454
0.000706014
0.000706574
0.000707133
0.000707683
0.000708226
0.000708755
0.000709272
0.000709771
0.000710258
0.00071073
0.000711194
0.00071165
0.000712112
0.000712564
0.000713025
0.000713488
0.000713959
0.000714428
0.000714902
0.000715372
0.000715833
0.000716287
0.000716736
0.000717169
0.000717585
0.000717982
0.000718343
0.000718686
0.000719
0.000719272
0.000719549
0.00071974
0.000720006
0.000720075
0.000720372
0.000720218
0.000720713
0.000720153
0.000721073
0.000720035
0.000721234
0.000719836
0.000721142
0.000719614
0.000720681
0.000719365
0.000719669
0.000718859
0.000717788
0.000716274
0.000713595
0.000710467
0.000701304
0.000697391
0.000670144
0.000680773
0.000698389
0.00071089
0.000726577
0.000726682
0.000716126
0.000724253
0.000667808
0.000492882
0.000314397
0.000353834
0.000111016
0.000111231
0.000111821
0.000112498
0.000113205
0.00011389
0.000114455
0.000114828
0.000115029
0.000115156
0.000115189
0.000115149
0.000115045
0.000114872
0.000114639
0.00011436
0.000114047
0.000113713
0.000113369
0.000112999
0.000112636
0.000112288
0.000111967
0.000111686
0.000111464
0.000111342
0.00011134
0.000111492
0.000111834
0.000112401
0.000113251
0.000114412
0.000115925
0.000117783
0.000119975
0.00012254
0.000125482
0.000128794
0.000132497
0.000136604
0.000141137
0.000146176
0.000151765
0.000157918
0.000164742
0.000172182
0.000180166
0.000188345
0.000196738
0.000205325
0.000214149
0.00022317
0.000232434
0.000241864
0.000251503
0.000261281
0.000271227
0.000281204
0.000291385
0.000301383
0.000311705
0.000321678
0.000331874
0.000341645
0.000351502
0.000360749
0.000369996
0.000378684
0.000387408
0.000395719
0.000404042
0.000411835
0.000419634
0.000426998
0.000434103
0.00044068
0.000447218
0.000453758
0.000460338
0.000466865
0.000473359
0.000479615
0.000485229
0.000490282
0.000494771
0.000498774
0.000502417
0.000505974
0.000509381
0.000512631
0.000515642
0.000518449
0.000521083
0.000523333
0.000525373
0.000527418
0.000529223
0.000530984
0.000532556
0.00053398
0.000535267
0.000536701
0.000537877
0.000539028
0.000540074
0.000541072
0.000541809
0.000542542
0.000543289
0.000543952
0.000544588
0.000545238
0.000545964
0.000546553
0.000547277
0.000547901
0.000548416
0.000548838
0.00054952
0.000549781
0.000550037
0.000550564
0.000550781
0.000549481
0.000548682
0.000547992
0.000547431
0.000546794
0.000546178
0.000545513
0.00054492
0.000544421
0.000543996
0.000543671
0.000543473
0.000543431
0.000543428
0.000544249
0.000544545
0.000544537
0.000545159
0.000545483
0.000545393
0.000545491
0.000545575
0.000545746
0.000545962
0.000546226
0.000546524
0.000546917
0.000547318
0.000547833
0.000548312
0.000548945
0.000549484
0.000550238
0.000550915
0.00055159
0.000552349
0.000552869
0.000553849
0.000554356
0.000555509
0.000556065
0.00055717
0.00055766
0.000558602
0.000559146
0.000560345
0.000562894
0.000566966
0.000567422
0.000568314
0.000569094
0.000569851
0.000570792
0.000571616
0.00057263
0.000573497
0.000574537
0.00057543
0.000576484
0.000577398
0.000578467
0.000579397
0.000580465
0.000581408
0.000582426
0.0005834
0.000584356
0.000585321
0.00058627
0.000587233
0.000588185
0.000589142
0.000590096
0.000591054
0.000592012
0.000592979
0.000593944
0.000594924
0.000595898
0.000596889
0.000597882
0.000598896
0.00059991
0.000600952
0.000601996
0.000603068
0.000604142
0.000605247
0.000606361
0.000607497
0.000608646
0.000609817
0.000611
0.000612195
0.000613401
0.000614613
0.000615833
0.000617055
0.000618284
0.000619515
0.000620745
0.000621984
0.000623204
0.000624433
0.000625643
0.00062686
0.000628058
0.000629269
0.00063047
0.000631687
0.000632899
0.000634133
0.000635366
0.000636618
0.000637879
0.000639159
0.000640448
0.000641753
0.000643062
0.000644392
0.000645715
0.000647057
0.000648388
0.000649736
0.000651068
0.000652417
0.000653742
0.000655088
0.000656399
0.000657738
0.000659033
0.000660361
0.000661635
0.000662944
0.000664189
0.000665474
0.000666689
0.000667951
0.000669127
0.000670356
0.000671494
0.000672695
0.0006738
0.000674974
0.000676043
0.000677193
0.000678225
0.000679346
0.000680341
0.000681423
0.000682385
0.000683423
0.000684357
0.000685342
0.000686263
0.000687199
0.000688114
0.000689003
0.000689912
0.000690763
0.000691668
0.0006925
0.000693381
0.000694196
0.000695055
0.000695858
0.000696702
0.000697497
0.000698324
0.000699111
0.00069992
0.000700696
0.000701487
0.000702249
0.000703023
0.000703771
0.000704527
0.00070526
0.000706004
0.000706722
0.000707447
0.000708142
0.000708838
0.000709511
0.000710166
0.000710816
0.000711443
0.000712066
0.000712652
0.00071324
0.000713775
0.000714336
0.000714839
0.000715373
0.000715856
0.000716363
0.000716824
0.000717304
0.000717749
0.000718201
0.000718626
0.000719058
0.000719472
0.000719891
0.000720299
0.000720705
0.000721102
0.000721499
0.000721891
0.000722283
0.000722665
0.00072305
0.000723421
0.000723791
0.000724148
0.000724501
0.000724845
0.000725181
0.00072551
0.000725829
0.00072614
0.000726439
0.000726729
0.000727002
0.000727263
0.000727507
0.000727733
0.000727944
0.000728141
0.000728307
0.00072844
0.000728538
0.000728601
0.000728633
0.000728628
0.000728593
0.000728523
0.000728422
0.000728286
0.000728117
0.000727908
0.000727665
0.000727382
0.000727063
0.00072671
0.000726322
0.000725902
0.000725447
0.000724962
0.000724444
0.000723896
0.000723319
0.000722717
0.000722092
0.000721446
0.000720786
0.000720114
0.000719439
0.000718767
0.000718102
0.000717449
0.00071681
0.000716187
0.00071558
0.000714994
0.000714431
0.00071389
0.000713374
0.000712885
0.000712422
0.000711986
0.000711578
0.000711194
0.000710834
0.000710495
0.000710172
0.000709861
0.000709554
0.000709244
0.000708919
0.000708579
0.000708212
0.000707813
0.000707383
0.000706925
0.000706437
0.000705928
0.000705404
0.000704875
0.000704347
0.000703835
0.000703352
0.000702905
0.000702503
0.000702153
0.000701857
0.000701614
0.000701425
0.00070128
0.000701184
0.00070113
0.000701106
0.000701114
0.000701146
0.000701199
0.000701264
0.000701342
0.000701425
0.000701513
0.000701605
0.0007017
0.000701801
0.000701907
0.000702021
0.000702143
0.000702275
0.000702409
0.000702552
0.0007027
0.000702859
0.00070302
0.000703192
0.000703376
0.000703575
0.000703788
0.00070402
0.00070427
0.000704546
0.000704837
0.000705155
0.0007055
0.000705868
0.000706258
0.000706669
0.000707094
0.000707534
0.000707984
0.000708442
0.000708903
0.000709365
0.000709825
0.000710283
0.000710732
0.000711174
0.000711606
0.000712032
0.000712446
0.000712857
0.000713263
0.000713674
0.000714094
0.000714531
0.000714999
0.000715499
0.00071603
0.000716608
0.000717223
0.000717875
0.000718562
0.000719276
0.000720005
0.000720747
0.000721488
0.000722225
0.000722947
0.000723654
0.000724337
0.000724999
0.000725636
0.000726254
0.00072685
0.000727438
0.00072801
0.000728592
0.000729163
0.000729743
0.000730324
0.000730918
0.000731506
0.000732102
0.000732688
0.000733271
0.000733832
0.00073439
0.000734921
0.000735432
0.000735911
0.000736355
0.000736757
0.000737126
0.000737423
0.000737707
0.000737882
0.000738102
0.000738113
0.000738308
0.000738115
0.000738418
0.000737943
0.000738524
0.000737714
0.000738588
0.000737447
0.000738469
0.000737091
0.000737855
0.000736469
0.000736728
0.000735491
0.000734853
0.000733171
0.000730838
0.000727391
0.000719666
0.00071506
0.000694668
0.00070419
0.000720289
0.000733679
0.000750147
0.000762057
0.000768206
0.000784272
0.000791598
0.000692552
0.000481035
0.000411388
0.000111048
0.000111244
0.000111778
0.000112368
0.000112953
0.000113498
0.000113939
0.000114291
0.000114517
0.00011461
0.000114571
0.000114441
0.00011424
0.000114001
0.000113699
0.000113359
0.000112982
0.000112566
0.000112117
0.00011164
0.000111135
0.000110606
0.000110057
0.000109495
0.000108924
0.000108352
0.000107784
0.00010723
0.0001067
0.000106203
0.000105754
0.000105356
0.000105024
0.000104764
0.000104583
0.00010449
0.000104497
0.000104614
0.00010486
0.00010525
0.000105787
0.000106472
0.000107317
0.000108333
0.000109548
0.00011097
0.000112629
0.000114512
0.000116633
0.000118989
0.00012161
0.000124495
0.000127664
0.000131113
0.000134865
0.000138923
0.000143305
0.000148001
0.000153116
0.000158534
0.000164552
0.000170796
0.000177771
0.000184763
0.000192344
0.000199642
0.000207522
0.000215044
0.000222911
0.000230606
0.000238682
0.000246428
0.000254357
0.000261884
0.000269386
0.000276371
0.000283762
0.000291446
0.000299745
0.000308334
0.000317464
0.000326471
0.000335221
0.00034297
0.000350204
0.000356777
0.000363118
0.000369372
0.000375783
0.000381942
0.000388042
0.000393728
0.000399271
0.00040463
0.000409678
0.000414387
0.000418954
0.000423315
0.000427532
0.000431392
0.000435209
0.000438955
0.000442576
0.000445932
0.000449201
0.000452306
0.000455166
0.000457934
0.000460604
0.000463178
0.000465807
0.000468368
0.000470941
0.000473344
0.000475809
0.000478109
0.000480321
0.000482284
0.000484251
0.000485915
0.000487534
0.000489393
0.000491053
0.000491746
0.000492603
0.000493338
0.000494109
0.000494765
0.000495385
0.00049598
0.000496522
0.000497128
0.000497689
0.000498348
0.000499018
0.000499781
0.00050056
0.000501839
0.000502916
0.000503756
0.000504938
0.000505946
0.000506743
0.000507602
0.000508432
0.000509298
0.000510175
0.00051109
0.000512013
0.000512996
0.000513969
0.000515038
0.000516061
0.000517204
0.000518275
0.000519492
0.000520645
0.000521819
0.000523004
0.000524071
0.00052538
0.000526425
0.000527825
0.000528872
0.000530237
0.000531181
0.000532427
0.000533413
0.000534802
0.000537046
0.000540473
0.000541719
0.000543093
0.000544421
0.000545669
0.000547019
0.000548252
0.000549607
0.000550867
0.000552243
0.000553534
0.000554944
0.000556269
0.000557703
0.000559057
0.000560484
0.000561869
0.000563277
0.000564686
0.0005661
0.000567524
0.000568979
0.000570429
0.000571899
0.000573365
0.000574847
0.000576326
0.000577822
0.000579317
0.000580827
0.000582341
0.000583869
0.0005854
0.00058695
0.000588509
0.000590085
0.000591674
0.000593282
0.000594904
0.000596547
0.000598202
0.000599881
0.000601568
0.000603274
0.000604989
0.000606715
0.000608445
0.000610185
0.00061192
0.000613659
0.000615389
0.000617121
0.000618843
0.000620564
0.000622282
0.000623981
0.000625694
0.000627374
0.000629064
0.000630723
0.000632393
0.000634045
0.000635714
0.000637371
0.000639051
0.000640722
0.000642417
0.000644111
0.00064583
0.000647549
0.00064929
0.000651028
0.000652793
0.000654541
0.000656319
0.000658071
0.000659854
0.000661604
0.000663385
0.000665124
0.000666899
0.000668619