/*--------------------------------*- C++ -*----------------------------------*\
| =========                 |                                                 |
| \\      /  F ield         | foam-extend: Open Source CFD                    |
|  \\    /   O peration     | Version:     3.2                                |
|   \\  /    A nd           | Web:         http://www.foam-extend.org         |
|    \\/     M anipulation  | For copyright notice see file Copyright         |
\*---------------------------------------------------------------------------*/
FoamFile
{
    version     2.0;
    format      ascii;
    class       areaScalarField;
    location    "1440";
    object      kTempA;
}
// * * * * * * * * * * * * * * * * * * * * * * * * * * * * * * * * * * * * * //

dimensions      [0 2 -2 0 0 0 0];

internalField   nonuniform List<scalar> 
550
(
0.000163513
0.000225801
0.000301515
0.000389985
0.00048907
0.000595372
0.000704856
0.000812992
0.000915799
0.00100967
0.00109201
0.00116126
0.00121747
0.00126036
0.00129072
0.00131022
0.00131998
0.00132132
0.00131611
0.00130612
0.00129241
0.00127586
0.00125711
0.00123696
0.00121597
0.00119459
0.00117321
0.00115225
0.00113206
0.00111262
0.00109394
0.00107606
0.00105902
0.00104288
0.00102764
0.00101331
0.00099985
0.000987177
0.000975337
0.000964268
0.000953868
0.000944203
0.000935188
0.000926737
0.000918859
0.000911516
0.000904667
0.000898278
0.000892308
0.00088676
0.000881604
0.000876745
0.000872185
0.000867914
0.000863897
0.000860128
0.000856568
0.000853201
0.000850123
0.000847046
0.000844337
0.00084158
0.000839085
0.000836519
0.000834205
0.000831833
0.000829718
0.000827541
0.000825525
0.00082348
0.000821643
0.000819757
0.000817904
0.000816104
0.000814364
0.000812738
0.000811234
0.000809524
0.000808131
0.000806466
0.000805015
0.000803705
0.000802373
0.000800942
0.00079962
0.000798276
0.000796882
0.00079557
0.000794388
0.000793124
0.000791632
0.00079041
0.000789455
0.00078825
0.000787178
0.000786088
0.00078475
0.000783523
0.000782511
0.000781311
0.000780048
0.000778888
0.000777715
0.00077649
0.000775438
0.000774335
0.000772944
0.000771663
0.000770631
0.000769192
0.000768015
0.000766783
0.000765239
0.000763542
0.000762662
0.000761252
0.000760235
0.000758737
0.000757239
0.000755015
0.00075407
0.000750729
0.000747218
0.000748337
0.000749575
0.000751465
0.000753291
0.000755153
0.000756861
0.000758435
0.000759808
0.000760975
0.000761869
0.000762531
0.000762723
0.00076284
0.000762324
0.000760376
0.000758774
0.000758266
0.000756458
0.000755155
0.000755154
0.00075519
0.00075536
0.00075556
0.000755802
0.000755969
0.0007561
0.000756041
0.000755941
0.000755551
0.000755376
0.000754625
0.000754413
0.0007533
0.000753132
0.000751995
0.000751713
0.000750651
0.000749697
0.000748339
0.000746644
0.000744892
0.000742932
0.000741086
0.000739379
0.000736929
0.000734735
0.000727168
0.000715453
0.000711449
0.000707477
0.000704714
0.000702422
0.000700413
0.000698861
0.000697368
0.000696262
0.000695146
0.000694348
0.000693511
0.000692936
0.000692304
0.00069189
0.000691413
0.000691114
0.000690757
0.000690535
0.00069028
0.00069012
0.000689941
0.000689829
0.00068973
0.000689668
0.000689629
0.000689599
0.000689592
0.000689589
0.000689594
0.000689602
0.000689615
0.000689631
0.000689644
0.000689659
0.000689673
0.000689689
0.000689704
0.000689725
0.000689748
0.000689776
0.000689802
0.000689834
0.000689865
0.000689898
0.000689936
0.000689975
0.00069001
0.000690048
0.000690085
0.000690121
0.000690163
0.000690198
0.000690238
0.000690269
0.000690325
0.000690358
0.000690428
0.000690468
0.000690553
0.000690606
0.000690697
0.000690762
0.000690859
0.000690931
0.000691028
0.00069111
0.000691208
0.000691297
0.0006914
0.000691498
0.000691608
0.000691706
0.000691832
0.000691936
0.000692071
0.000692178
0.000692322
0.000692431
0.000692583
0.00069269
0.000692846
0.000692949
0.000693104
0.000693199
0.00069335
0.000693438
0.00069358
0.000693652
0.000693773
0.000693825
0.000693934
0.000693971
0.000694063
0.000694079
0.00069415
0.000694149
0.000694206
0.000694186
0.000694228
0.000694193
0.000694218
0.000694178
0.000694169
0.00069412
0.000694066
0.000694013
0.000693892
0.000693833
0.000693642
0.000693578
0.000693334
0.00069326
0.000692978
0.000692885
0.000692606
0.000692496
0.000692222
0.000692092
0.000691816
0.000691667
0.00069139
0.000691222
0.000690941
0.00069075
0.000690464
0.000690257
0.000689966
0.000689743
0.000689449
0.000689213
0.000688915
0.000688667
0.000688371
0.000688119
0.000687828
0.000687575
0.000687294
0.000687044
0.000686777
0.000686542
0.000686294
0.000686076
0.000685847
0.000685645
0.000685444
0.000685263
0.000685087
0.000684931
0.000684779
0.000684644
0.000684511
0.000684396
0.000684285
0.000684187
0.000684092
0.000684008
0.000683928
0.00068386
0.000683797
0.000683743
0.000683694
0.000683658
0.000683628
0.000683609
0.000683602
0.000683606
0.000683621
0.000683649
0.000683691
0.000683746
0.000683818
0.000683904
0.000684008
0.000684128
0.000684263
0.000684412
0.000684577
0.000684756
0.000684951
0.000685159
0.000685397
0.000685675
0.000685981
0.000686311
0.000686657
0.000687017
0.000687389
0.000687768
0.000688157
0.000688551
0.000688952
0.000689358
0.000689768
0.000690181
0.000690598
0.000691015
0.000691434
0.000691852
0.000692272
0.000692689
0.000693104
0.000693514
0.000693917
0.000694312
0.000694697
0.000695074
0.000695439
0.000695795
0.000696141
0.000696476
0.000696801
0.000697114
0.000697415
0.000697706
0.000697985
0.000698252
0.000698508
0.000698753
0.000698989
0.000699215
0.000699432
0.00069964
0.000699841
0.000700036
0.000700225
0.000700409
0.000700585
0.000700753
0.000700913
0.000701061
0.000701198
0.000701323
0.000701432
0.000701529
0.000701613
0.000701683
0.00070174
0.000701786
0.000701819
0.00070184
0.000701851
0.000701856
0.000701853
0.00070184
0.000701825
0.000701812
0.000701797
0.000701782
0.000701765
0.00070175
0.000701735
0.000701716
0.000701702
0.000701691
0.00070168
0.000701667
0.000701654
0.000701638
0.00070162
0.000701599
0.000701576
0.00070155
0.000701521
0.000701491
0.000701459
0.000701427
0.000701397
0.000701369
0.000701346
0.000701324
0.000701302
0.000701285
0.000701274
0.000701265
0.000701258
0.000701257
0.000701263
0.000701277
0.000701299
0.000701332
0.000701376
0.000701427
0.000701486
0.000701554
0.000701631
0.000701717
0.000701812
0.000701913
0.000702022
0.000702137
0.000702259
0.000702386
0.00070252
0.000702659
0.000702804
0.000702956
0.000703115
0.000703281
0.000703457
0.000703639
0.000703833
0.000704035
0.000704252
0.000704479
0.000704719
0.000704976
0.000705251
0.000705537
0.000705841
0.000706159
0.000706486
0.000706823
0.00070717
0.000707524
0.000707887
0.000708257
0.000708632
0.000709012
0.000709395
0.000709779
0.000710166
0.000710553
0.000710943
0.000711335
0.000711732
0.000712134
0.000712548
0.000712968
0.000713396
0.000713832
0.000714278
0.00071473
0.000715192
0.000715657
0.000716126
0.000716587
0.000717051
0.000717508
0.000717968
0.000718424
0.000718878
0.000719321
0.000719766
0.000720174
0.000720668
0.000720985
0.000721582
0.000721762
0.00072259
0.000722493
0.000723769
0.000723374
0.000725206
0.000724708
0.000726878
0.000726334
0.000728283
0.000727743
0.000728576
0.000728094
0.000726805
0.000726217
0.000722849
0.000721617
0.000714713
0.000709259
0.000688602
0.000656275
0.00053093
0.000386779
0.000331641
0.00027476
0.000231843
0.000170833
0.000124524
9.50647e-05
0.00010157
0.000158798
0.000256373
)
;

boundaryField
{
    inlet
    {
        type            calculated;
        value           uniform 0;
    }
    endWall
    {
        type            calculated;
        value           uniform 0;
    }
    sideWall
    {
        type            empty;
    }
}


// ************************************************************************* //
