/*--------------------------------*- C++ -*----------------------------------*\
| =========                 |                                                 |
| \\      /  F ield         | foam-extend: Open Source CFD                    |
|  \\    /   O peration     | Version:     3.2                                |
|   \\  /    A nd           | Web:         http://www.foam-extend.org         |
|    \\/     M anipulation  | For copyright notice see file Copyright         |
\*---------------------------------------------------------------------------*/
FoamFile
{
    version     2.0;
    format      ascii;
    class       volScalarField;
    location    "1440";
    object      Ktemp;
}
// * * * * * * * * * * * * * * * * * * * * * * * * * * * * * * * * * * * * * //

dimensions      [0 2 -2 0 0 0 0];

internalField   nonuniform List<scalar> 
33000
(
0.000163513
0.000225801
0.000301515
0.000389985
0.00048907
0.000595372
0.000704856
0.000812992
0.000915799
0.00100967
0.00109201
0.00116126
0.00121747
0.00126036
0.00129072
0.00131022
0.00131998
0.00132132
0.00131611
0.00130612
0.00129241
0.00127586
0.00125711
0.00123696
0.00121597
0.00119459
0.00117321
0.00115225
0.00113206
0.00111262
0.00109394
0.00107606
0.00105902
0.00104288
0.00102764
0.00101331
0.00099985
0.000987177
0.000975337
0.000964268
0.000953868
0.000944203
0.000935188
0.000926737
0.000918859
0.000911516
0.000904667
0.000898278
0.000892308
0.00088676
0.000881604
0.000876745
0.000872185
0.000867914
0.000863897
0.000860128
0.000856568
0.000853201
0.000850123
0.000847046
0.000844337
0.00084158
0.000839085
0.000836519
0.000834205
0.000831833
0.000829718
0.000827541
0.000825525
0.00082348
0.000821643
0.000819757
0.000817904
0.000816104
0.000814364
0.000812738
0.000811234
0.000809524
0.000808131
0.000806466
0.000805015
0.000803705
0.000802373
0.000800942
0.00079962
0.000798276
0.000796882
0.00079557
0.000794388
0.000793124
0.000791632
0.00079041
0.000789455
0.00078825
0.000787178
0.000786088
0.00078475
0.000783523
0.000782511
0.000781311
0.000780048
0.000778888
0.000777715
0.00077649
0.000775438
0.000774335
0.000772944
0.000771663
0.000770631
0.000769192
0.000768015
0.000766783
0.000765239
0.000763542
0.000762662
0.000761252
0.000760235
0.000758737
0.000757239
0.000755015
0.00075407
0.000750729
0.000747218
0.000748337
0.000749575
0.000751465
0.000753291
0.000755153
0.000756861
0.000758435
0.000759808
0.000760975
0.000761869
0.000762531
0.000762723
0.00076284
0.000762324
0.000760376
0.000758774
0.000758266
0.000756458
0.000755155
0.000755154
0.00075519
0.00075536
0.00075556
0.000755802
0.000755969
0.0007561
0.000756041
0.000755941
0.000755551
0.000755376
0.000754625
0.000754413
0.0007533
0.000753132
0.000751995
0.000751713
0.000750651
0.000749697
0.000748339
0.000746644
0.000744892
0.000742932
0.000741086
0.000739379
0.000736929
0.000734735
0.000727168
0.000715453
0.000711449
0.000707477
0.000704714
0.000702422
0.000700413
0.000698861
0.000697368
0.000696262
0.000695146
0.000694348
0.000693511
0.000692936
0.000692304
0.00069189
0.000691413
0.000691114
0.000690757
0.000690535
0.00069028
0.00069012
0.000689941
0.000689829
0.00068973
0.000689668
0.000689629
0.000689599
0.000689592
0.000689589
0.000689594
0.000689602
0.000689615
0.000689631
0.000689644
0.000689659
0.000689673
0.000689689
0.000689704
0.000689725
0.000689748
0.000689776
0.000689802
0.000689834
0.000689865
0.000689898
0.000689936
0.000689975
0.00069001
0.000690048
0.000690085
0.000690121
0.000690163
0.000690198
0.000690238
0.000690269
0.000690325
0.000690358
0.000690428
0.000690468
0.000690553
0.000690606
0.000690697
0.000690762
0.000690859
0.000690931
0.000691028
0.00069111
0.000691208
0.000691297
0.0006914
0.000691498
0.000691608
0.000691706
0.000691832
0.000691936
0.000692071
0.000692178
0.000692322
0.000692431
0.000692583
0.00069269
0.000692846
0.000692949
0.000693104
0.000693199
0.00069335
0.000693438
0.00069358
0.000693652
0.000693773
0.000693825
0.000693934
0.000693971
0.000694063
0.000694079
0.00069415
0.000694149
0.000694206
0.000694186
0.000694228
0.000694193
0.000694218
0.000694178
0.000694169
0.00069412
0.000694066
0.000694013
0.000693892
0.000693833
0.000693642
0.000693578
0.000693334
0.00069326
0.000692978
0.000692885
0.000692606
0.000692496
0.000692222
0.000692092
0.000691816
0.000691667
0.00069139
0.000691222
0.000690941
0.00069075
0.000690464
0.000690257
0.000689966
0.000689743
0.000689449
0.000689213
0.000688915
0.000688667
0.000688371
0.000688119
0.000687828
0.000687575
0.000687294
0.000687044
0.000686777
0.000686542
0.000686294
0.000686076
0.000685847
0.000685645
0.000685444
0.000685263
0.000685087
0.000684931
0.000684779
0.000684644
0.000684511
0.000684396
0.000684285
0.000684187
0.000684092
0.000684008
0.000683928
0.00068386
0.000683797
0.000683743
0.000683694
0.000683658
0.000683628
0.000683609
0.000683602
0.000683606
0.000683621
0.000683649
0.000683691
0.000683746
0.000683818
0.000683904
0.000684008
0.000684128
0.000684263
0.000684412
0.000684577
0.000684756
0.000684951
0.000685159
0.000685397
0.000685675
0.000685981
0.000686311
0.000686657
0.000687017
0.000687389
0.000687768
0.000688157
0.000688551
0.000688952
0.000689358
0.000689768
0.000690181
0.000690598
0.000691015
0.000691434
0.000691852
0.000692272
0.000692689
0.000693104
0.000693514
0.000693917
0.000694312
0.000694697
0.000695074
0.000695439
0.000695795
0.000696141
0.000696476
0.000696801
0.000697114
0.000697415
0.000697706
0.000697985
0.000698252
0.000698508
0.000698753
0.000698989
0.000699215
0.000699432
0.00069964
0.000699841
0.000700036
0.000700225
0.000700409
0.000700585
0.000700753
0.000700913
0.000701061
0.000701198
0.000701323
0.000701432
0.000701529
0.000701613
0.000701683
0.00070174
0.000701786
0.000701819
0.00070184
0.000701851
0.000701856
0.000701853
0.00070184
0.000701825
0.000701812
0.000701797
0.000701782
0.000701765
0.00070175
0.000701735
0.000701716
0.000701702
0.000701691
0.00070168
0.000701667
0.000701654
0.000701638
0.00070162
0.000701599
0.000701576
0.00070155
0.000701521
0.000701491
0.000701459
0.000701427
0.000701397
0.000701369
0.000701346
0.000701324
0.000701302
0.000701285
0.000701274
0.000701265
0.000701258
0.000701257
0.000701263
0.000701277
0.000701299
0.000701332
0.000701376
0.000701427
0.000701486
0.000701554
0.000701631
0.000701717
0.000701812
0.000701913
0.000702022
0.000702137
0.000702259
0.000702386
0.00070252
0.000702659
0.000702804
0.000702956
0.000703115
0.000703281
0.000703457
0.000703639
0.000703833
0.000704035
0.000704252
0.000704479
0.000704719
0.000704976
0.000705251
0.000705537
0.000705841
0.000706159
0.000706486
0.000706823
0.00070717
0.000707524
0.000707887
0.000708257
0.000708632
0.000709012
0.000709395
0.000709779
0.000710166
0.000710553
0.000710943
0.000711335
0.000711732
0.000712134
0.000712548
0.000712968
0.000713396
0.000713832
0.000714278
0.00071473
0.000715192
0.000715657
0.000716126
0.000716587
0.000717051
0.000717508
0.000717968
0.000718424
0.000718878
0.000719321
0.000719766
0.000720174
0.000720668
0.000720985
0.000721582
0.000721762
0.00072259
0.000722493
0.000723769
0.000723374
0.000725206
0.000724708
0.000726878
0.000726334
0.000728283
0.000727743
0.000728576
0.000728094
0.000726805
0.000726217
0.000722849
0.000721617
0.000714713
0.000709259
0.000688602
0.000656275
0.00053093
0.000386779
0.000331641
0.00027476
0.000231843
0.000170833
0.000124524
9.50647e-05
0.00010157
0.000158798
0.000256373
0.00011326
0.00011688
0.000122897
0.000130648
0.000141095
0.000153341
0.000166916
0.000181474
0.000196974
0.000213195
0.000229836
0.000245785
0.000261523
0.000276561
0.000290819
0.000304714
0.000318498
0.000332746
0.000347717
0.000363462
0.000380795
0.000399388
0.000417572
0.000435808
0.000454526
0.000474232
0.000495161
0.000516672
0.00053753
0.000557767
0.00057731
0.000596097
0.00061403
0.000631075
0.000647184
0.00066235
0.000676588
0.000689917
0.000702276
0.00071379
0.000724452
0.000734275
0.000743332
0.000751722
0.000759403
0.000766512
0.000773075
0.000779213
0.000784867
0.000790121
0.000794903
0.000799369
0.000803398
0.000807079
0.000810362
0.000813309
0.000815892
0.000818234
0.000820089
0.000822011
0.000823275
0.000824802
0.000825609
0.000826745
0.000827212
0.000827992
0.000828099
0.000828463
0.000828286
0.000828374
0.000828012
0.000827838
0.00082711
0.000826688
0.000826116
0.000825337
0.000824473
0.000823681
0.000822634
0.000821644
0.000820683
0.000819755
0.000818838
0.000817861
0.000816997
0.000815997
0.000814991
0.000814035
0.000813099
0.000811956
0.000810818
0.000809852
0.000808772
0.000807625
0.000806143
0.000804903
0.000803721
0.000802496
0.000801195
0.000799585
0.000798015
0.000796356
0.000794727
0.000792924
0.000791203
0.000789107
0.00078705
0.000785052
0.000783161
0.000780956
0.000778665
0.000776488
0.000774315
0.00077213
0.000769853
0.000767539
0.000764884
0.000762596
0.000760295
0.000757965
0.000754952
0.000753669
0.000752201
0.000748381
0.00074546
0.000742899
0.0007405
0.000738342
0.000736361
0.00073459
0.000732953
0.000731394
0.000729998
0.000728506
0.000727385
0.000725834
0.000724581
0.000723967
0.000723111
0.000721596
0.000721215
0.000720376
0.000718917
0.000717878
0.000716937
0.000716076
0.000715263
0.000714543
0.000713909
0.000713326
0.000712805
0.000712354
0.000711767
0.000711501
0.000710891
0.000710757
0.000710186
0.000710005
0.000709445
0.000709175
0.000708739
0.000708419
0.000708059
0.000707698
0.000707275
0.000706749
0.000705582
0.00070486
0.000700478
0.000700842
0.000703952
0.000702571
0.000702052
0.000701531
0.000701074
0.000700677
0.00070027
0.000699912
0.000699521
0.000699173
0.000698786
0.000698438
0.000698052
0.000697707
0.000697326
0.000697
0.000696632
0.00069636
0.000696013
0.00069576
0.000695454
0.000695185
0.000694907
0.000694614
0.000694345
0.000694049
0.000693788
0.000693501
0.000693249
0.000692986
0.000692753
0.000692518
0.000692311
0.000692113
0.000691945
0.000691788
0.000691662
0.000691555
0.000691473
0.000691411
0.000691376
0.000691363
0.000691376
0.000691411
0.000691472
0.000691549
0.00069165
0.000691773
0.000691917
0.000692077
0.000692254
0.000692439
0.000692639
0.000692849
0.000693068
0.000693285
0.000693523
0.00069375
0.000694005
0.000694247
0.000694518
0.000694781
0.000695069
0.00069535
0.00069566
0.000695965
0.000696296
0.000696628
0.000696984
0.000697332
0.000697699
0.00069803
0.0006984
0.000698724
0.000699103
0.000699433
0.000699827
0.000700161
0.00070057
0.000700907
0.000701329
0.000701666
0.000702099
0.00070243
0.000702869
0.000703195
0.000703638
0.000703951
0.000704393
0.000704696
0.000705135
0.000705417
0.000705849
0.000706112
0.00070654
0.000706788
0.000707208
0.000707432
0.000707847
0.000708046
0.000708453
0.000708632
0.000709019
0.000709186
0.000709548
0.000709709
0.000710032
0.000710204
0.000710486
0.000710679
0.000710919
0.000711125
0.000711328
0.000711544
0.000711729
0.00071193
0.000712102
0.000712286
0.000712443
0.000712616
0.000712757
0.000712904
0.000713027
0.000713151
0.000713252
0.000713355
0.000713436
0.000713517
0.000713581
0.000713639
0.000713683
0.000713723
0.000713754
0.000713781
0.0007138
0.000713821
0.000713834
0.000713865
0.000713876
0.000713908
0.000713905
0.000713929
0.000713908
0.000713918
0.000713884
0.000713866
0.000713813
0.000713755
0.000713678
0.00071359
0.000713497
0.000713398
0.000713298
0.000713189
0.000713085
0.00071297
0.000712862
0.00071275
0.000712645
0.000712531
0.000712431
0.000712325
0.000712231
0.000712135
0.000712053
0.000711964
0.00071189
0.00071181
0.000711753
0.000711679
0.000711635
0.000711572
0.000711535
0.000711486
0.000711455
0.000711416
0.000711395
0.000711371
0.00071136
0.000711345
0.000711352
0.000711338
0.000711299
0.000711252
0.000711201
0.000711161
0.000711117
0.000711085
0.000711048
0.00071102
0.000710984
0.000710954
0.000710914
0.000710877
0.000710829
0.000710781
0.000710721
0.000710661
0.000710591
0.000710517
0.000710436
0.000710348
0.000710251
0.000710147
0.000710035
0.000709912
0.000709783
0.000709645
0.0007095
0.000709349
0.000709197
0.000709043
0.000708894
0.000708748
0.000708609
0.000708475
0.000708351
0.000708233
0.000708125
0.000708021
0.000707928
0.000707842
0.000707771
0.000707708
0.000707662
0.000707626
0.000707603
0.000707594
0.000707591
0.000707597
0.000707604
0.000707607
0.000707599
0.000707583
0.000707548
0.000707497
0.00070743
0.000707348
0.000707254
0.000707147
0.000707037
0.000706915
0.000706796
0.000706671
0.000706566
0.000706464
0.000706386
0.000706317
0.000706276
0.000706251
0.000706243
0.000706255
0.000706285
0.000706328
0.000706379
0.000706445
0.000706522
0.000706612
0.000706708
0.00070681
0.000706915
0.000707018
0.000707126
0.00070723
0.000707339
0.000707446
0.000707557
0.000707668
0.000707783
0.000707893
0.00070801
0.000708129
0.000708252
0.000708371
0.000708498
0.000708633
0.000708772
0.000708919
0.000709067
0.000709228
0.000709385
0.000709548
0.000709719
0.000709908
0.000710098
0.000710305
0.000710515
0.000710739
0.000710964
0.000711201
0.000711438
0.00071168
0.000711921
0.000712169
0.000712411
0.000712663
0.000712905
0.000713159
0.000713399
0.000713653
0.000713892
0.000714146
0.00071439
0.000714648
0.000714905
0.000715186
0.000715466
0.000715771
0.000716098
0.000716436
0.000716794
0.000717171
0.000717553
0.000717949
0.000718343
0.000718748
0.000719146
0.000719556
0.000719953
0.000720358
0.000720744
0.000721133
0.0007215
0.000721876
0.000722227
0.0007226
0.000722956
0.000723323
0.000723682
0.00072407
0.000724434
0.00072483
0.000725198
0.000725601
0.000725959
0.000726365
0.000726725
0.000727127
0.000727469
0.000727854
0.000728154
0.00072852
0.0007288
0.000729171
0.000729482
0.000729753
0.000730153
0.00073026
0.000730742
0.00073058
0.00073132
0.000730713
0.000731919
0.000730811
0.000732374
0.000730842
0.000732607
0.000730895
0.000732513
0.00073103
0.000731905
0.000731051
0.000730638
0.000728774
0.00072587
0.00071924
0.000710446
0.000687607
0.000661061
0.000645133
0.000664879
0.000666029
0.00066049
0.000626444
0.000591857
0.000571957
0.000428323
0.000238999
0.000217874
0.000301681
0.000111179
0.000111685
0.000112846
0.000114217
0.000115763
0.00011739
0.000119112
0.000120865
0.000122736
0.000124589
0.000126524
0.000128389
0.000130148
0.000131774
0.000133311
0.000134885
0.000136527
0.000138277
0.000140199
0.000142301
0.000144731
0.000147557
0.000150796
0.000154511
0.000158732
0.000163627
0.000169263
0.000175714
0.000183077
0.000191431
0.000201
0.000211765
0.000223919
0.000236499
0.000249314
0.000262363
0.000275622
0.00028903
0.000302578
0.000316188
0.00032985
0.000343493
0.000357093
0.000370665
0.000384149
0.000397562
0.000410644
0.000423436
0.000435886
0.000448041
0.000459881
0.000471441
0.000482643
0.000493519
0.000503988
0.000514097
0.000523757
0.000532997
0.000541818
0.000550203
0.000558245
0.000565932
0.000573332
0.000580409
0.000587208
0.000593616
0.000599597
0.000605258
0.00061051
0.000615605
0.000620317
0.000624754
0.000628862
0.000632907
0.000636601
0.000640074
0.000643197
0.000646409
0.00064915
0.000651924
0.000654321
0.000656669
0.000658405
0.000660068
0.000661257
0.000662427
0.000663319
0.000664355
0.000664964
0.000665652
0.00066613
0.000666703
0.000667219
0.000667405
0.000667378
0.000667478
0.000667265
0.000667197
0.000666933
0.000666549
0.000665843
0.000665398
0.00066465
0.000663919
0.000663163
0.000662266
0.000661184
0.000660197
0.000659313
0.000658247
0.000657027
0.000655957
0.000654776
0.000653577
0.000652322
0.00065111
0.00064974
0.000648492
0.000647558
0.000646389
0.000644953
0.000644681
0.000644137
0.00064078
0.000638339
0.000636047
0.000634052
0.000632049
0.000630282
0.000628474
0.000626907
0.000625404
0.00062409
0.000622864
0.000621894
0.000620992
0.000620118
0.000620304
0.00061994
0.00061903
0.000619112
0.000618802
0.000617765
0.000617077
0.000616403
0.000615871
0.000615397
0.000614998
0.000614679
0.000614473
0.000614286
0.000614221
0.000614095
0.000614209
0.000614141
0.000614421
0.000614447
0.00061461
0.000614622
0.000614654
0.000614955
0.000615002
0.000615549
0.00061562
0.000616074
0.000615979
0.000616334
0.000616096
0.000616291
0.000618542
0.000622504
0.000622069
0.000622137
0.000622406
0.000622584
0.00062301
0.000623249
0.000623725
0.000624011
0.000624488
0.000624793
0.000625254
0.000625567
0.000626015
0.000626332
0.000626799
0.000627119
0.000627584
0.000627932
0.00062834
0.000628697
0.000628993
0.000629358
0.000629637
0.000629988
0.000630276
0.000630626
0.000630923
0.000631279
0.000631587
0.000631951
0.000632274
0.000632652
0.000632996
0.000633402
0.000633783
0.000634222
0.000634642
0.000635112
0.000635572
0.000636079
0.000636583
0.000637132
0.00063768
0.000638272
0.000638865
0.000639487
0.000640117
0.00064077
0.000641431
0.000642107
0.00064279
0.000643485
0.000644184
0.000644887
0.000645585
0.000646292
0.00064699
0.000647707
0.000648409
0.000649132
0.000649845
0.000650582
0.000651313
0.000652071
0.000652827
0.000653606
0.000654393
0.000655199
0.000656015
0.000656845
0.000657677
0.000658528
0.000659366
0.000660229
0.000661074
0.000661946
0.000662793
0.000663671
0.000664516
0.000665398
0.000666236
0.000667117
0.000667946
0.000668825
0.000669643
0.000670511
0.000671311
0.000672166
0.000672951
0.000673792
0.00067455
0.00067537
0.000676104
0.000676906
0.000677619
0.000678404
0.000679091
0.000679859
0.000680519
0.000681268
0.000681902
0.000682619
0.000683235
0.000683918
0.000684521
0.000685161
0.000685768
0.000686364
0.000686981
0.000687536
0.000688157
0.000688679
0.000689303
0.000689811
0.00069041
0.000690907
0.000691482
0.000691969
0.000692528
0.000693007
0.000693546
0.000694015
0.000694533
0.000694992
0.000695488
0.000695935
0.000696408
0.000696846
0.000697294
0.000697712
0.000698139
0.000698542
0.000698955
0.000699341
0.000699744
0.000700119
0.000700506
0.000700864
0.000701232
0.000701565
0.000701904
0.000702205
0.000702497
0.000702779
0.000703021
0.000703282
0.000703493
0.00070373
0.000703918
0.000704134
0.000704307
0.000704505
0.000704662
0.000704844
0.00070499
0.000705162
0.000705302
0.000705465
0.000705599
0.000705757
0.000705892
0.000706046
0.000706183
0.000706332
0.000706471
0.000706613
0.000706754
0.00070689
0.000707029
0.000707162
0.000707297
0.000707428
0.000707559
0.000707685
0.000707807
0.000707924
0.000708037
0.000708144
0.000708241
0.000708337
0.000708429
0.000708494
0.000708533
0.000708547
0.000708541
0.000708515
0.00070847
0.000708408
0.000708328
0.000708231
0.000708116
0.000707982
0.000707825
0.000707649
0.00070745
0.00070723
0.00070699
0.000706729
0.00070645
0.000706149
0.00070583
0.000705489
0.00070513
0.000704754
0.000704359
0.000703947
0.000703521
0.000703082
0.000702632
0.00070218
0.000701727
0.000701279
0.000700839
0.000700409
0.000699988
0.000699581
0.000699188
0.000698811
0.000698449
0.000698106
0.000697782
0.000697478
0.000697194
0.000696931
0.000696688
0.000696465
0.00069626
0.000696069
0.000695888
0.000695712
0.000695536
0.000695349
0.000695151
0.000694934
0.000694692
0.00069443
0.000694146
0.000693842
0.000693521
0.000693192
0.000692858
0.000692525
0.000692198
0.000691897
0.000691613
0.000691365
0.000691146
0.000690966
0.000690823
0.000690713
0.000690632
0.000690586
0.000690567
0.000690567
0.000690589
0.000690628
0.000690683
0.000690748
0.000690821
0.0006909
0.000690982
0.000691069
0.000691159
0.000691255
0.000691354
0.000691459
0.000691569
0.000691687
0.000691803
0.000691928
0.000692055
0.000692189
0.000692324
0.00069247
0.000692625
0.000692791
0.000692969
0.000693156
0.000693357
0.000693572
0.000693793
0.000694035
0.000694296
0.000694573
0.000694865
0.000695171
0.000695488
0.000695815
0.000696151
0.000696493
0.000696838
0.000697186
0.000697534
0.000697881
0.000698225
0.000698568
0.000698907
0.000699244
0.000699577
0.000699908
0.000700238
0.000700572
0.00070091
0.000701261
0.000701633
0.000702024
0.000702435
0.000702883
0.000703352
0.000703847
0.000704368
0.000704907
0.000705457
0.000706017
0.000706577
0.000707136
0.000707686
0.000708229
0.000708757
0.000709274
0.000709772
0.000710259
0.00071073
0.000711194
0.00071165
0.000712112
0.000712565
0.000713026
0.000713489
0.00071396
0.000714429
0.000714903
0.000715373
0.000715835
0.000716288
0.000716736
0.00071717
0.000717585
0.000717981
0.000718341
0.000718684
0.000718997
0.000719269
0.000719545
0.000719734
0.000720001
0.000720069
0.000720365
0.000720211
0.000720706
0.000720146
0.000721067
0.00072003
0.00072123
0.000719833
0.000721141
0.000719615
0.000720684
0.000719369
0.000719674
0.000718866
0.000717796
0.000716282
0.000713604
0.000710476
0.000701312
0.000697398
0.000670149
0.000680776
0.000698392
0.000710892
0.000726578
0.000726682
0.000716125
0.000724251
0.000667805
0.000492879
0.000314395
0.000353832
0.000111016
0.000111231
0.000111821
0.000112498
0.000113205
0.00011389
0.000114454
0.000114827
0.000115029
0.000115156
0.000115189
0.000115149
0.000115045
0.000114872
0.000114639
0.00011436
0.000114047
0.000113713
0.000113369
0.000112999
0.000112636
0.000112288
0.000111967
0.000111686
0.000111464
0.000111342
0.00011134
0.000111492
0.000111834
0.0001124
0.000113251
0.000114412
0.000115925
0.000117783
0.000119975
0.00012254
0.000125482
0.000128794
0.000132497
0.000136604
0.000141137
0.000146176
0.000151764
0.000157918
0.000164742
0.000172182
0.000180166
0.000188345
0.000196738
0.000205326
0.00021415
0.000223172
0.000232436
0.000241866
0.000251505
0.000261284
0.000271229
0.000281206
0.000291387
0.000301385
0.000311706
0.000321676
0.000331872
0.000341648
0.000351509
0.000360754
0.000369993
0.000378676
0.000387405
0.000395723
0.000404036
0.000411824
0.000419638
0.000427021
0.000434115
0.000440667
0.000447213
0.000453758
0.000460315
0.00046685
0.000473388
0.00047965
0.000485229
0.000490279
0.00049478
0.000498769
0.000502413
0.000505992
0.000509386
0.000512624
0.000515646
0.000518454
0.000521093
0.000523338
0.00052537
0.000527415
0.000529224
0.00053099
0.000532562
0.000533975
0.000535263
0.000536705
0.000537878
0.000539029
0.000540073
0.000541056
0.000541787
0.000542573
0.000543339
0.000543951
0.000544569
0.000545237
0.000545957
0.000546549
0.000547285
0.000547905
0.000548411
0.000548839
0.000549518
0.000549775
0.000550035
0.000550566
0.000550782
0.00054948
0.000548682
0.000547993
0.000547432
0.000546795
0.000546178
0.000545513
0.000544921
0.000544421
0.000543996
0.000543671
0.000543472
0.00054343
0.000543427
0.000544248
0.000544545
0.000544538
0.00054516
0.000545484
0.000545394
0.000545492
0.000545576
0.000545747
0.000545963
0.000546227
0.000546525
0.000546918
0.000547319
0.000547833
0.000548313
0.000548945
0.000549485
0.000550239
0.000550916
0.000551591
0.00055235
0.000552869
0.00055385
0.000554356
0.000555509
0.000556064
0.000557169
0.000557659
0.000558602
0.000559146
0.000560344
0.000562893
0.000566964
0.000567421
0.000568313
0.000569093
0.000569849
0.00057079
0.000571614
0.000572628
0.000573495
0.000574536
0.000575429
0.000576483
0.000577397
0.000578466
0.000579396
0.000580464
0.000581407
0.000582425
0.0005834
0.000584356
0.000585321
0.000586271
0.000587233
0.000588185
0.000589142
0.000590096
0.000591055
0.000592012
0.000592979
0.000593945
0.000594924
0.000595898
0.00059689
0.000597882
0.000598896
0.00059991
0.000600953
0.000601996
0.000603068
0.000604143
0.000605248
0.000606362
0.000607498
0.000608647
0.000609819
0.000611001
0.000612197
0.000613402
0.000614614
0.000615834
0.000617056
0.000618284
0.000619515
0.000620745
0.000621984
0.000623203
0.000624433
0.000625643
0.00062686
0.000628057
0.000629268
0.000630469
0.000631686
0.000632898
0.000634132
0.000635364
0.000636617
0.000637878
0.000639158
0.000640448
0.000641752
0.000643062
0.000644392
0.000645715
0.000647057
0.000648389
0.000649737
0.000651068
0.000652418
0.000653743
0.000655089
0.0006564
0.000657739
0.000659034
0.000660362
0.000661636
0.000662945
0.000664189
0.000665475
0.000666689
0.000667951
0.000669127
0.000670356
0.000671493
0.000672695
0.000673799
0.000674973
0.000676042
0.000677192
0.000678224
0.000679345
0.00068034
0.000681422
0.000682384
0.000683421
0.000684355
0.000685341
0.000686261
0.000687197
0.000688113
0.000689002
0.00068991
0.000690762
0.000691667
0.000692499
0.000693381
0.000694196
0.000695055
0.000695858
0.000696703
0.000697498
0.000698325
0.000699112
0.000699921
0.000700698
0.000701489
0.000702251
0.000703025
0.000703772
0.000704529
0.000705262
0.000706006
0.000706724
0.000707448
0.000708144
0.000708839
0.000709512
0.000710167
0.000710818
0.000711445
0.000712067
0.000712653
0.000713241
0.000713776
0.000714337
0.00071484
0.000715374
0.000715856
0.000716364
0.000716824
0.000717304
0.000717749
0.000718201
0.000718626
0.000719058
0.000719472
0.000719891
0.000720299
0.000720705
0.000721102
0.000721498
0.000721891
0.000722283
0.000722664
0.00072305
0.00072342
0.00072379
0.000724148
0.0007245
0.000724845
0.00072518
0.000725509
0.000725828
0.000726139
0.000726439
0.000726728
0.000727001
0.000727262
0.000727506
0.000727732
0.000727942
0.000728139
0.000728306
0.000728438
0.000728536
0.000728599
0.000728631
0.000728626
0.000728591
0.000728521
0.000728419
0.000728284
0.000728114
0.000727905
0.000727661
0.000727379
0.000727059
0.000726706
0.000726318
0.000725899
0.000725443
0.000724959
0.00072444
0.000723892
0.000723316
0.000722714
0.000722088
0.000721443
0.000720784
0.000720112
0.000719437
0.000718766
0.000718101
0.000717449
0.00071681
0.000716187
0.000715581
0.000714995
0.000714433
0.000713893
0.000713377
0.000712889
0.000712426
0.00071199
0.000711583
0.000711199
0.000710839
0.0007105
0.000710178
0.000709866
0.000709559
0.000709249
0.000708924
0.000708582
0.000708215
0.000707815
0.000707384
0.000706925
0.000706436
0.000705926
0.000705402
0.000704872
0.000704345
0.000703833
0.00070335
0.000702904
0.000702503
0.000702153
0.000701858
0.000701616
0.000701428
0.000701284
0.000701189
0.000701135
0.000701112
0.00070112
0.000701152
0.000701204
0.000701269
0.000701346
0.000701429
0.000701516
0.000701608
0.000701703
0.000701803
0.000701909
0.000702022
0.000702144
0.000702275
0.000702409
0.000702551
0.0007027
0.000702858
0.000703019
0.000703191
0.000703375
0.000703574
0.000703787
0.000704019
0.000704269
0.000704545
0.000704835
0.000705154
0.000705499
0.000705868
0.000706258
0.000706669
0.000707094
0.000707534
0.000707984
0.000708442
0.000708902
0.000709364
0.000709824
0.000710281
0.000710729
0.000711172
0.000711603
0.000712029
0.000712443
0.000712854
0.000713259
0.00071367
0.00071409
0.000714528
0.000714997
0.000715498
0.000716029
0.000716609
0.000717225
0.000717878
0.000718565
0.000719279
0.000720009
0.000720752
0.000721492
0.000722229
0.00072295
0.000723657
0.000724339
0.000725002
0.000725637
0.000726255
0.000726851
0.000727438
0.000728011
0.000728593
0.000729164
0.000729745
0.000730326
0.00073092
0.000731508
0.000732104
0.00073269
0.000733273
0.000733834
0.000734391
0.000734921
0.000735432
0.00073591
0.000736353
0.000736754
0.000737122
0.000737418
0.000737701
0.000737875
0.000738093
0.000738103
0.000738298
0.000738104
0.000738407
0.000737933
0.000738515
0.000737706
0.000738582
0.000737443
0.000738467
0.000737092
0.000737859
0.000736475
0.000736736
0.000735501
0.000734864
0.000733183
0.000730851
0.000727403
0.000719677
0.000715071
0.000694676
0.000704196
0.000720293
0.000733681
0.000750148
0.000762057
0.000768205
0.000784269
0.000791595
0.000692547
0.000481033
0.000411385
0.000111048
0.000111244
0.000111778
0.000112368
0.000112953
0.000113498
0.000113939
0.000114291
0.000114517
0.00011461
0.000114571
0.000114441
0.00011424
0.000114001
0.000113699
0.000113359
0.000112982
0.000112566
0.000112117
0.00011164
0.000111135
0.000110606
0.000110057
0.000109495
0.000108924
0.000108351
0.000107784
0.00010723
0.000106699
0.000106203
0.000105754
0.000105356
0.000105024
0.000104764
0.000104583
0.00010449
0.000104497
0.000104614
0.00010486
0.00010525
0.000105788
0.000106472
0.000107317
0.000108333
0.000109547
0.00011097
0.000112629
0.000114512
0.000116633
0.000118989
0.00012161
0.000124495
0.000127665
0.000131114
0.000134866
0.000138924
0.000143305
0.000148002
0.000153117
0.000158534
0.000164551
0.000170795
0.000177771
0.000184767
0.000192346
0.000199639
0.000207518
0.00021504
0.000222909
0.000230604
0.000238679
0.000246432
0.00025437
0.000261897
0.000269384
0.00027636
0.000283757
0.00029144
0.00029974
0.000308345
0.000317484
0.000326484
0.000335215
0.000342961
0.000350203
0.000356778
0.000363127
0.000369383
0.000375784
0.000381941
0.00038805
0.000393738
0.000399281
0.000404632
0.000409672
0.000414388
0.000418957
0.000423322
0.000427535
0.000431387
0.000435207
0.000438955
0.000442576
0.000445932
0.000449199
0.000452295
0.00045515
0.000457953
0.000460636
0.000463182
0.000465796
0.000468364
0.000470936
0.000473338
0.000475814
0.000478113
0.000480319
0.000482285
0.000484248
0.000485909
0.000487532
0.000489395
0.000491053
0.000491746
0.000492603
0.000493339
0.00049411
0.000494765
0.000495384
0.000495979
0.000496522
0.000497127
0.000497688
0.000498347
0.000499017
0.00049978
0.000500559
0.000501838
0.000502916
0.000503757
0.000504938
0.000505947
0.000506744
0.000507603
0.000508433
0.0005093
0.000510176
0.000511091
0.000512014
0.000512997
0.00051397
0.000515039
0.000516062
0.000517205
0.000518276
0.000519492
0.000520645
0.000521819
0.000523004
0.000524071
0.000525381
0.000526425
0.000527825
0.000528871
0.000530237
0.00053118
0.000532426
0.000533412
0.000534801
0.000537044
0.000540471
0.000541718
0.000543091
0.000544419
0.000545667
0.000547017
0.00054825
0.000549605
0.000550865
0.000552241
0.000553532
0.000554943
0.000556267
0.000557701
0.000559055
0.000560483
0.000561869
0.000563277
0.000564686
0.0005661
0.000567524
0.00056898
0.00057043
0.0005719
0.000573366
0.000574848
0.000576327
0.000577823
0.000579317
0.000580828
0.000582342
0.000583869
0.000585401
0.000586951
0.00058851
0.000590086
0.000591675
0.000593283
0.000594905
0.000596548
0.000598203
0.000599883
0.00060157
0.000603276
0.000604991
0.000606717
0.000608447
0.000610186
0.000611922
0.00061366
0.00061539
0.000617122
0.000618843
0.000620564
0.000622282
0.000623981
0.000625693
0.000627373
0.000629063
0.000630721
0.000632392
0.000634044
0.000635712
0.000637369
0.000639049
0.00064072
0.000642416
0.00064411
0.000645829
0.000647548
0.00064929
0.000651028
0.000652793
0.000654541
0.000656319
0.000658072
0.000659855
0.000661604
0.000663386
0.000665125
0.0006669