/*--------------------------------*- C++ -*----------------------------------*\
| =========                 |                                                 |
| \\      /  F ield         | foam-extend: Open Source CFD                    |
|  \\    /   O peration     | Version:     3.2                                |
|   \\  /    A nd           | Web:         http://www.foam-extend.org         |
|    \\/     M anipulation  | For copyright notice see file Copyright         |
\*---------------------------------------------------------------------------*/
FoamFile
{
    version     2.0;
    format      ascii;
    class       volVectorField;
    location    "1440";
    object      meshCentre;
}
// * * * * * * * * * * * * * * * * * * * * * * * * * * * * * * * * * * * * * //

dimensions      [0 1 0 0 0 0 0];

internalField   nonuniform List<vector> 
33000
(
(0.00909091 0.01 0.00248182)
(0.0272727 0.01 0.00244545)
(0.0454545 0.01 0.00240909)
(0.0636364 0.01 0.00237273)
(0.0818182 0.01 0.00233636)
(0.1 0.01 0.0023)
(0.118182 0.01 0.00226364)
(0.136364 0.01 0.00222727)
(0.154545 0.01 0.00219091)
(0.172727 0.01 0.00215455)
(0.190909 0.01 0.00211818)
(0.209091 0.01 0.00208182)
(0.227273 0.01 0.00204545)
(0.245455 0.01 0.00200909)
(0.263636 0.01 0.00197273)
(0.281818 0.01 0.00193636)
(0.3 0.01 0.0019)
(0.318182 0.01 0.00186364)
(0.336364 0.01 0.00182727)
(0.354545 0.01 0.00179091)
(0.372727 0.01 0.00175455)
(0.390909 0.01 0.00171818)
(0.409091 0.01 0.00168182)
(0.427273 0.01 0.00164545)
(0.445455 0.01 0.00160909)
(0.463636 0.01 0.00157273)
(0.481818 0.01 0.00153636)
(0.5 0.01 0.0015)
(0.518182 0.01 0.00146364)
(0.536364 0.01 0.00142727)
(0.554545 0.01 0.00139091)
(0.572727 0.01 0.00135455)
(0.590909 0.01 0.00131818)
(0.609091 0.01 0.00128182)
(0.627273 0.01 0.00124545)
(0.645455 0.01 0.00120909)
(0.663636 0.01 0.00117273)
(0.681818 0.01 0.00113636)
(0.7 0.01 0.0011)
(0.718182 0.01 0.00106364)
(0.736364 0.01 0.00102727)
(0.754545 0.01 0.000990909)
(0.772727 0.01 0.000954545)
(0.790909 0.01 0.000918182)
(0.809091 0.01 0.000881818)
(0.827273 0.01 0.000845455)
(0.845455 0.01 0.000809091)
(0.863636 0.01 0.000772727)
(0.881818 0.01 0.000736364)
(0.9 0.01 0.0007)
(0.918182 0.01 0.000663636)
(0.936364 0.01 0.000627273)
(0.954545 0.01 0.000590909)
(0.972727 0.01 0.000554545)
(0.990909 0.01 0.000518182)
(1.00909 0.01 0.000481818)
(1.02727 0.01 0.000445455)
(1.04545 0.01 0.000409091)
(1.06364 0.01 0.000372727)
(1.08182 0.01 0.000336364)
(1.1 0.01 0.0003)
(1.11818 0.01 0.000263636)
(1.13636 0.01 0.000227273)
(1.15455 0.01 0.000190909)
(1.17273 0.01 0.000154545)
(1.19091 0.01 0.000118182)
(1.20909 0.01 8.18182e-05)
(1.22727 0.01 4.54545e-05)
(1.24545 0.01 9.09091e-06)
(1.26364 0.01 -2.72727e-05)
(1.28182 0.01 -6.36364e-05)
(1.3 0.01 -0.0001)
(1.31818 0.01 -0.000136364)
(1.33636 0.01 -0.000172727)
(1.35455 0.01 -0.000209091)
(1.37273 0.01 -0.000245455)
(1.39091 0.01 -0.000281818)
(1.40909 0.01 -0.000318182)
(1.42727 0.01 -0.000354545)
(1.44545 0.01 -0.000390909)
(1.46364 0.01 -0.000427273)
(1.48182 0.01 -0.000463636)
(1.5 0.01 -0.0005)
(1.51818 0.01 -0.000536364)
(1.53636 0.01 -0.000572727)
(1.55455 0.01 -0.000609091)
(1.57273 0.01 -0.000645455)
(1.59091 0.01 -0.000681818)
(1.60909 0.01 -0.000718182)
(1.62727 0.01 -0.000754545)
(1.64545 0.01 -0.000790909)
(1.66364 0.01 -0.000827273)
(1.68182 0.01 -0.000863636)
(1.7 0.01 -0.0009)
(1.71818 0.01 -0.000936364)
(1.73636 0.01 -0.000972727)
(1.75455 0.01 -0.00100909)
(1.77273 0.01 -0.00104545)
(1.79091 0.01 -0.00108182)
(1.80909 0.01 -0.00111818)
(1.82727 0.01 -0.00115455)
(1.84545 0.01 -0.00119091)
(1.86364 0.01 -0.00122727)
(1.88182 0.01 -0.00126364)
(1.9 0.01 -0.0013)
(1.91818 0.01 -0.00133636)
(1.93636 0.01 -0.00137273)
(1.95455 0.01 -0.00140909)
(1.97273 0.01 -0.00144545)
(1.99091 0.01 -0.00148182)
(2.00909 0.01 -0.00151818)
(2.02727 0.01 -0.00155455)
(2.04545 0.01 -0.00159091)
(2.06364 0.01 -0.00162727)
(2.08182 0.01 -0.00166364)
(2.1 0.01 -0.0017)
(2.11818 0.01 -0.00173636)
(2.13636 0.01 -0.00177273)
(2.15455 0.01 -0.00180909)
(2.17273 0.01 -0.00184545)
(2.19091 0.01 -0.00188182)
(2.20909 0.01 -0.00191818)
(2.22727 0.01 -0.00195455)
(2.24545 0.01 -0.00199091)
(2.26364 0.01 -0.00202727)
(2.28182 0.01 -0.00206364)
(2.3 0.01 -0.0021)
(2.31818 0.01 -0.00213636)
(2.33636 0.01 -0.00217273)
(2.35455 0.01 -0.00220909)
(2.37273 0.01 -0.00224545)
(2.39091 0.01 -0.00228182)
(2.40909 0.01 -0.00231818)
(2.42727 0.01 -0.00235455)
(2.44545 0.01 -0.00239091)
(2.46364 0.01 -0.00242727)
(2.48182 0.01 -0.00246364)
(2.5 0.01 -0.0025)
(2.51818 0.01 -0.00253636)
(2.53636 0.01 -0.00257273)
(2.55455 0.01 -0.00260909)
(2.57273 0.01 -0.00264545)
(2.59091 0.01 -0.00268182)
(2.60909 0.01 -0.00271818)
(2.62727 0.01 -0.00275455)
(2.64545 0.01 -0.00279091)
(2.66364 0.01 -0.00282727)
(2.68182 0.01 -0.00286364)
(2.7 0.01 -0.0029)
(2.71818 0.01 -0.00293636)
(2.73636 0.01 -0.00297273)
(2.75455 0.01 -0.00300909)
(2.77273 0.01 -0.00304545)
(2.79091 0.01 -0.00308182)
(2.80909 0.01 -0.00311818)
(2.82727 0.01 -0.00315455)
(2.84545 0.01 -0.00319091)
(2.86364 0.01 -0.00322727)
(2.88182 0.01 -0.00326364)
(2.9 0.01 -0.0033)
(2.91818 0.01 -0.00333636)
(2.93636 0.01 -0.00337273)
(2.95455 0.01 -0.00340909)
(2.97273 0.01 -0.00344545)
(2.99091 0.01 -0.00348182)
(3.00909 0.01 -0.00351818)
(3.02727 0.01 -0.00355455)
(3.04545 0.01 -0.00359091)
(3.06364 0.01 -0.00362727)
(3.08182 0.01 -0.00366364)
(3.1 0.01 -0.0037)
(3.11818 0.01 -0.00373636)
(3.13636 0.01 -0.00377273)
(3.15455 0.01 -0.00380909)
(3.17273 0.01 -0.00384545)
(3.19091 0.01 -0.00388182)
(3.20909 0.01 -0.00391818)
(3.22727 0.01 -0.00395455)
(3.24545 0.01 -0.00399091)
(3.26364 0.01 -0.00402727)
(3.28182 0.01 -0.00406364)
(3.3 0.01 -0.0041)
(3.31818 0.01 -0.00413636)
(3.33636 0.01 -0.00417273)
(3.35455 0.01 -0.00420909)
(3.37273 0.01 -0.00424545)
(3.39091 0.01 -0.00428182)
(3.40909 0.01 -0.00431818)
(3.42727 0.01 -0.00435455)
(3.44545 0.01 -0.00439091)
(3.46364 0.01 -0.00442727)
(3.48182 0.01 -0.00446364)
(3.5 0.01 -0.0045)
(3.51818 0.01 -0.00453636)
(3.53636 0.01 -0.00457273)
(3.55455 0.01 -0.00460909)
(3.57273 0.01 -0.00464545)
(3.59091 0.01 -0.00468182)
(3.60909 0.01 -0.00471818)
(3.62727 0.01 -0.00475455)
(3.64545 0.01 -0.00479091)
(3.66364 0.01 -0.00482727)
(3.68182 0.01 -0.00486364)
(3.7 0.01 -0.0049)
(3.71818 0.01 -0.00493636)
(3.73636 0.01 -0.00497273)
(3.75455 0.01 -0.00500909)
(3.77273 0.01 -0.00504545)
(3.79091 0.01 -0.00508182)
(3.80909 0.01 -0.00511818)
(3.82727 0.01 -0.00515455)
(3.84545 0.01 -0.00519091)
(3.86364 0.01 -0.00522727)
(3.88182 0.01 -0.00526364)
(3.9 0.01 -0.0053)
(3.91818 0.01 -0.00533636)
(3.93636 0.01 -0.00537273)
(3.95455 0.01 -0.00540909)
(3.97273 0.01 -0.00544545)
(3.99091 0.01 -0.00548182)
(4.00909 0.01 -0.00551818)
(4.02727 0.01 -0.00555455)
(4.04545 0.01 -0.00559091)
(4.06364 0.01 -0.00562727)
(4.08182 0.01 -0.00566364)
(4.1 0.01 -0.0057)
(4.11818 0.01 -0.00573636)
(4.13636 0.01 -0.00577273)
(4.15455 0.01 -0.00580909)
(4.17273 0.01 -0.00584545)
(4.19091 0.01 -0.00588182)
(4.20909 0.01 -0.00591818)
(4.22727 0.01 -0.00595455)
(4.24545 0.01 -0.00599091)
(4.26364 0.01 -0.00602727)
(4.28182 0.01 -0.00606364)
(4.3 0.01 -0.0061)
(4.31818 0.01 -0.00613636)
(4.33636 0.01 -0.00617273)
(4.35455 0.01 -0.00620909)
(4.37273 0.01 -0.00624545)
(4.39091 0.01 -0.00628182)
(4.40909 0.01 -0.00631818)
(4.42727 0.01 -0.00635455)
(4.44545 0.01 -0.00639091)
(4.46364 0.01 -0.00642727)
(4.48182 0.01 -0.00646364)
(4.5 0.01 -0.0065)
(4.51818 0.01 -0.00653636)
(4.53636 0.01 -0.00657273)
(4.55455 0.01 -0.00660909)
(4.57273 0.01 -0.00664545)
(4.59091 0.01 -0.00668182)
(4.60909 0.01 -0.00671818)
(4.62727 0.01 -0.00675455)
(4.64545 0.01 -0.00679091)
(4.66364 0.01 -0.00682727)
(4.68182 0.01 -0.00686364)
(4.7 0.01 -0.0069)
(4.71818 0.01 -0.00693636)
(4.73636 0.01 -0.00697273)
(4.75455 0.01 -0.00700909)
(4.77273 0.01 -0.00704545)
(4.79091 0.01 -0.00708182)
(4.80909 0.01 -0.00711818)
(4.82727 0.01 -0.00715455)
(4.84545 0.01 -0.00719091)
(4.86364 0.01 -0.00722727)
(4.88182 0.01 -0.00726364)
(4.9 0.01 -0.0073)
(4.91818 0.01 -0.00733636)
(4.93636 0.01 -0.00737273)
(4.95455 0.01 -0.00740909)
(4.97273 0.01 -0.00744545)
(4.99091 0.01 -0.00748182)
(5.00909 0.01 -0.00751818)
(5.02727 0.01 -0.00755455)
(5.04545 0.01 -0.00759091)
(5.06364 0.01 -0.00762727)
(5.08182 0.01 -0.00766364)
(5.1 0.01 -0.0077)
(5.11818 0.01 -0.00773636)
(5.13636 0.01 -0.00777273)
(5.15455 0.01 -0.00780909)
(5.17273 0.01 -0.00784545)
(5.19091 0.01 -0.00788182)
(5.20909 0.01 -0.00791818)
(5.22727 0.01 -0.00795455)
(5.24545 0.01 -0.00799091)
(5.26364 0.01 -0.00802727)
(5.28182 0.01 -0.00806364)
(5.3 0.01 -0.0081)
(5.31818 0.01 -0.00813636)
(5.33636 0.01 -0.00817273)
(5.35455 0.01 -0.00820909)
(5.37273 0.01 -0.00824545)
(5.39091 0.01 -0.00828182)
(5.40909 0.01 -0.00831818)
(5.42727 0.01 -0.00835455)
(5.44545 0.01 -0.00839091)
(5.46364 0.01 -0.00842727)
(5.48182 0.01 -0.00846364)
(5.5 0.01 -0.0085)
(5.51818 0.01 -0.00853636)
(5.53636 0.01 -0.00857273)
(5.55455 0.01 -0.00860909)
(5.57273 0.01 -0.00864545)
(5.59091 0.01 -0.00868182)
(5.60909 0.01 -0.00871818)
(5.62727 0.01 -0.00875455)
(5.64545 0.01 -0.00879091)
(5.66364 0.01 -0.00882727)
(5.68182 0.01 -0.00886364)
(5.7 0.01 -0.0089)
(5.71818 0.01 -0.00893636)
(5.73636 0.01 -0.00897273)
(5.75455 0.01 -0.00900909)
(5.77273 0.01 -0.00904545)
(5.79091 0.01 -0.00908182)
(5.80909 0.01 -0.00911818)
(5.82727 0.01 -0.00915455)
(5.84545 0.01 -0.00919091)
(5.86364 0.01 -0.00922727)
(5.88182 0.01 -0.00926364)
(5.9 0.01 -0.0093)
(5.91818 0.01 -0.00933636)
(5.93636 0.01 -0.00937273)
(5.95455 0.01 -0.00940909)
(5.97273 0.01 -0.00944545)
(5.99091 0.01 -0.00948182)
(6.00909 0.01 -0.00951818)
(6.02727 0.01 -0.00955455)
(6.04545 0.01 -0.00959091)
(6.06364 0.01 -0.00962727)
(6.08182 0.01 -0.00966364)
(6.1 0.01 -0.0097)
(6.11818 0.01 -0.00973636)
(6.13636 0.01 -0.00977273)
(6.15455 0.01 -0.00980909)
(6.17273 0.01 -0.00984545)
(6.19091 0.01 -0.00988182)
(6.20909 0.01 -0.00991818)
(6.22727 0.01 -0.00995455)
(6.24545 0.01 -0.00999091)
(6.26364 0.01 -0.0100273)
(6.28182 0.01 -0.0100636)
(6.3 0.01 -0.0101)
(6.31818 0.01 -0.0101364)
(6.33636 0.01 -0.0101727)
(6.35455 0.01 -0.0102091)
(6.37273 0.01 -0.0102455)
(6.39091 0.01 -0.0102818)
(6.40909 0.01 -0.0103182)
(6.42727 0.01 -0.0103545)
(6.44545 0.01 -0.0103909)
(6.46364 0.01 -0.0104273)
(6.48182 0.01 -0.0104636)
(6.5 0.01 -0.0105)
(6.51818 0.01 -0.0105364)
(6.53636 0.01 -0.0105727)
(6.55455 0.01 -0.0106091)
(6.57273 0.01 -0.0106455)
(6.59091 0.01 -0.0106818)
(6.60909 0.01 -0.0107182)
(6.62727 0.01 -0.0107545)
(6.64545 0.01 -0.0107909)
(6.66364 0.01 -0.0108273)
(6.68182 0.01 -0.0108636)
(6.7 0.01 -0.0109)
(6.71818 0.01 -0.0109364)
(6.73636 0.01 -0.0109727)
(6.75455 0.01 -0.0110091)
(6.77273 0.01 -0.0110455)
(6.79091 0.01 -0.0110818)
(6.80909 0.01 -0.0111182)
(6.82727 0.01 -0.0111545)
(6.84545 0.01 -0.0111909)
(6.86364 0.01 -0.0112273)
(6.88182 0.01 -0.0112636)
(6.9 0.01 -0.0113)
(6.91818 0.01 -0.0113364)
(6.93636 0.01 -0.0113727)
(6.95455 0.01 -0.0114091)
(6.97273 0.01 -0.0114455)
(6.99091 0.01 -0.0114818)
(7.00909 0.01 -0.0115182)
(7.02727 0.01 -0.0115545)
(7.04545 0.01 -0.0115909)
(7.06364 0.01 -0.0116273)
(7.08182 0.01 -0.0116636)
(7.1 0.01 -0.0117)
(7.11818 0.01 -0.0117364)
(7.13636 0.01 -0.0117727)
(7.15455 0.01 -0.0118091)
(7.17273 0.01 -0.0118455)
(7.19091 0.01 -0.0118818)
(7.20909 0.01 -0.0119182)
(7.22727 0.01 -0.0119545)
(7.24545 0.01 -0.0119909)
(7.26364 0.01 -0.0120273)
(7.28182 0.01 -0.0120636)
(7.3 0.01 -0.0121)
(7.31818 0.01 -0.0121364)
(7.33636 0.01 -0.0121727)
(7.35455 0.01 -0.0122091)
(7.37273 0.01 -0.0122455)
(7.39091 0.01 -0.0122818)
(7.40909 0.01 -0.0123182)
(7.42727 0.01 -0.0123545)
(7.44545 0.01 -0.0123909)
(7.46364 0.01 -0.0124273)
(7.48182 0.01 -0.0124636)
(7.5 0.01 -0.0125)
(7.51818 0.01 -0.0125364)
(7.53636 0.01 -0.0125727)
(7.55455 0.01 -0.0126091)
(7.57273 0.01 -0.0126455)
(7.59091 0.01 -0.0126818)
(7.60909 0.01 -0.0127182)
(7.62727 0.01 -0.0127545)
(7.64545 0.01 -0.0127909)
(7.66364 0.01 -0.0128273)
(7.68182 0.01 -0.0128636)
(7.7 0.01 -0.0129)
(7.71818 0.01 -0.0129364)
(7.73636 0.01 -0.0129727)
(7.75455 0.01 -0.0130091)
(7.77273 0.01 -0.0130455)
(7.79091 0.01 -0.0130818)
(7.80909 0.01 -0.0131182)
(7.82727 0.01 -0.0131545)
(7.84545 0.01 -0.0131909)
(7.86364 0.01 -0.0132273)
(7.88182 0.01 -0.0132636)
(7.9 0.01 -0.0133)
(7.91818 0.01 -0.0133364)
(7.93636 0.01 -0.0133727)
(7.95455 0.01 -0.0134091)
(7.97273 0.01 -0.0134455)
(7.99091 0.01 -0.0134818)
(8.00909 0.01 -0.0135182)
(8.02727 0.01 -0.0135545)
(8.04545 0.01 -0.0135909)
(8.06364 0.01 -0.0136273)
(8.08182 0.01 -0.0136636)
(8.1 0.01 -0.0137)
(8.11818 0.01 -0.0137364)
(8.13636 0.01 -0.0137727)
(8.15455 0.01 -0.0138091)
(8.17273 0.01 -0.0138455)
(8.19091 0.01 -0.0138818)
(8.20909 0.01 -0.0139182)
(8.22727 0.01 -0.0139545)
(8.24545 0.01 -0.0139909)
(8.26364 0.01 -0.0140273)
(8.28182 0.01 -0.0140636)
(8.3 0.01 -0.0141)
(8.31818 0.01 -0.0141364)
(8.33636 0.01 -0.0141727)
(8.35455 0.01 -0.0142091)
(8.37273 0.01 -0.0142455)
(8.39091 0.01 -0.0142818)
(8.40909 0.01 -0.0143182)
(8.42727 0.01 -0.0143545)
(8.44545 0.01 -0.0143909)
(8.46364 0.01 -0.0144273)
(8.48182 0.01 -0.0144636)
(8.5 0.01 -0.0145)
(8.51818 0.01 -0.0145364)
(8.53636 0.01 -0.0145727)
(8.55455 0.01 -0.0146091)
(8.57273 0.01 -0.0146455)
(8.59091 0.01 -0.0146818)
(8.60909 0.01 -0.0147182)
(8.62727 0.01 -0.0147545)
(8.64545 0.01 -0.0147909)
(8.66364 0.01 -0.0148273)
(8.68182 0.01 -0.0148636)
(8.7 0.01 -0.0149)
(8.71818 0.01 -0.0149364)
(8.73636 0.01 -0.0149727)
(8.75455 0.01 -0.0150091)
(8.77273 0.01 -0.0150455)
(8.79091 0.01 -0.0150818)
(8.80909 0.01 -0.0151182)
(8.82727 0.01 -0.0151545)
(8.84545 0.01 -0.0151909)
(8.86364 0.01 -0.0152273)
(8.88182 0.01 -0.0152636)
(8.9 0.01 -0.0153)
(8.91818 0.01 -0.0153364)
(8.93636 0.01 -0.0153727)
(8.95455 0.01 -0.0154091)
(8.97273 0.01 -0.0154455)
(8.99091 0.01 -0.0154818)
(9.00909 0.01 -0.0155182)
(9.02727 0.01 -0.0155545)
(9.04545 0.01 -0.0155909)
(9.06364 0.01 -0.0156273)
(9.08182 0.01 -0.0156636)
(9.1 0.01 -0.0157)
(9.11818 0.01 -0.0157364)
(9.13636 0.01 -0.0157727)
(9.15455 0.01 -0.0158091)
(9.17273 0.01 -0.0158455)
(9.19091 0.01 -0.0158818)
(9.20909 0.01 -0.0159182)
(9.22727 0.01 -0.0159545)
(9.24545 0.01 -0.0159909)
(9.26364 0.01 -0.0160273)
(9.28182 0.01 -0.0160636)
(9.3 0.01 -0.0161)
(9.31818 0.01 -0.0161364)
(9.33636 0.01 -0.0161727)
(9.35455 0.01 -0.0162091)
(9.37273 0.01 -0.0162455)
(9.39091 0.01 -0.0162818)
(9.40909 0.01 -0.0163182)
(9.42727 0.01 -0.0163545)
(9.44545 0.01 -0.0163909)
(9.46364 0.01 -0.0164273)
(9.48182 0.01 -0.0164636)
(9.5 0.01 -0.0165)
(9.51818 0.01 -0.0165364)
(9.53636 0.01 -0.0165727)
(9.55455 0.01 -0.0166091)
(9.57273 0.01 -0.0166455)
(9.59091 0.01 -0.0166818)
(9.60909 0.01 -0.0167182)
(9.62727 0.01 -0.0167545)
(9.64545 0.01 -0.0167909)
(9.66364 0.01 -0.0168273)
(9.68182 0.01 -0.0168636)
(9.7 0.01 -0.0169)
(9.71818 0.01 -0.0169364)
(9.73636 0.01 -0.0169727)
(9.75455 0.01 -0.0170091)
(9.77273 0.01 -0.0170455)
(9.79091 0.01 -0.0170818)
(9.80909 0.01 -0.0171182)
(9.82727 0.01 -0.0171545)
(9.84545 0.01 -0.0171909)
(9.86364 0.01 -0.0172273)
(9.88182 0.01 -0.0172636)
(9.9 0.01 -0.0173)
(9.91818 0.01 -0.0173364)
(9.93636 0.01 -0.0173727)
(9.95455 0.01 -0.0174091)
(9.97273 0.01 -0.0174455)
(9.99091 0.01 -0.0174818)
(0.00909091 0.01 0.00748182)
(0.0272727 0.01 0.00744545)
(0.0454545 0.01 0.00740909)
(0.0636364 0.01 0.00737273)
(0.0818182 0.01 0.00733636)
(0.1 0.01 0.0073)
(0.118182 0.01 0.00726364)
(0.136364 0.01 0.00722727)
(0.154545 0.01 0.00719091)
(0.172727 0.01 0.00715455)
(0.190909 0.01 0.00711818)
(0.209091 0.01 0.00708182)
(0.227273 0.01 0.00704545)
(0.245455 0.01 0.00700909)
(0.263636 0.01 0.00697273)
(0.281818 0.01 0.00693636)
(0.3 0.01 0.0069)
(0.318182 0.01 0.00686364)
(0.336364 0.01 0.00682727)
(0.354545 0.01 0.00679091)
(0.372727 0.01 0.00675455)
(0.390909 0.01 0.00671818)
(0.409091 0.01 0.00668182)
(0.427273 0.01 0.00664545)
(0.445455 0.01 0.00660909)
(0.463636 0.01 0.00657273)
(0.481818 0.01 0.00653636)
(0.5 0.01 0.0065)
(0.518182 0.01 0.00646364)
(0.536364 0.01 0.00642727)
(0.554545 0.01 0.00639091)
(0.572727 0.01 0.00635455)
(0.590909 0.01 0.00631818)
(0.609091 0.01 0.00628182)
(0.627273 0.01 0.00624545)
(0.645455 0.01 0.00620909)
(0.663636 0.01 0.00617273)
(0.681818 0.01 0.00613636)
(0.7 0.01 0.0061)
(0.718182 0.01 0.00606364)
(0.736364 0.01 0.00602727)
(0.754545 0.01 0.00599091)
(0.772727 0.01 0.00595455)
(0.790909 0.01 0.00591818)
(0.809091 0.01 0.00588182)
(0.827273 0.01 0.00584545)
(0.845455 0.01 0.00580909)
(0.863636 0.01 0.00577273)
(0.881818 0.01 0.00573636)
(0.9 0.01 0.0057)
(0.918182 0.01 0.00566364)
(0.936364 0.01 0.00562727)
(0.954545 0.01 0.00559091)
(0.972727 0.01 0.00555455)
(0.990909 0.01 0.00551818)
(1.00909 0.01 0.00548182)
(1.02727 0.01 0.00544545)
(1.04545 0.01 0.00540909)
(1.06364 0.01 0.00537273)
(1.08182 0.01 0.00533636)
(1.1 0.01 0.0053)
(1.11818 0.01 0.00526364)
(1.13636 0.01 0.00522727)
(1.15455 0.01 0.00519091)
(1.17273 0.01 0.00515455)
(1.19091 0.01 0.00511818)
(1.20909 0.01 0.00508182)
(1.22727 0.01 0.00504545)
(1.24545 0.01 0.00500909)
(1.26364 0.01 0.00497273)
(1.28182 0.01 0.00493636)
(1.3 0.01 0.0049)
(1.31818 0.01 0.00486364)
(1.33636 0.01 0.00482727)
(1.35455 0.01 0.00479091)
(1.37273 0.01 0.00475455)
(1.39091 0.01 0.00471818)
(1.40909 0.01 0.00468182)
(1.42727 0.01 0.00464545)
(1.44545 0.01 0.00460909)
(1.46364 0.01 0.00457273)
(1.48182 0.01 0.00453636)
(1.5 0.01 0.0045)
(1.51818 0.01 0.00446364)
(1.53636 0.01 0.00442727)
(1.55455 0.01 0.00439091)
(1.57273 0.01 0.00435455)
(1.59091 0.01 0.00431818)
(1.60909 0.01 0.00428182)
(1.62727 0.01 0.00424545)
(1.64545 0.01 0.00420909)
(1.66364 0.01 0.00417273)
(1.68182 0.01 0.00413636)
(1.7 0.01 0.0041)
(1.71818 0.01 0.00406364)
(1.73636 0.01 0.00402727)
(1.75455 0.01 0.00399091)
(1.77273 0.01 0.00395455)
(1.79091 0.01 0.00391818)
(1.80909 0.01 0.00388182)
(1.82727 0.01 0.00384545)
(1.84545 0.01 0.00380909)
(1.86364 0.01 0.00377273)
(1.88182 0.01 0.00373636)
(1.9 0.01 0.0037)
(1.91818 0.01 0.00366364)
(1.93636 0.01 0.00362727)
(1.95455 0.01 0.00359091)
(1.97273 0.01 0.00355455)
(1.99091 0.01 0.00351818)
(2.00909 0.01 0.00348182)
(2.02727 0.01 0.00344545)
(2.04545 0.01 0.00340909)
(2.06364 0.01 0.00337273)
(2.08182 0.01 0.00333636)
(2.1 0.01 0.0033)
(2.11818 0.01 0.00326364)
(2.13636 0.01 0.00322727)
(2.15455 0.01 0.00319091)
(2.17273 0.01 0.00315455)
(2.19091 0.01 0.00311818)
(2.20909 0.01 0.00308182)
(2.22727 0.01 0.00304545)
(2.24545 0.01 0.00300909)
(2.26364 0.01 0.00297273)
(2.28182 0.01 0.00293636)
(2.3 0.01 0.0029)
(2.31818 0.01 0.00286364)
(2.33636 0.01 0.00282727)
(2.35455 0.01 0.00279091)
(2.37273 0.01 0.00275455)
(2.39091 0.01 0.00271818)
(2.40909 0.01 0.00268182)
(2.42727 0.01 0.00264545)
(2.44545 0.01 0.00260909)
(2.46364 0.01 0.00257273)
(2.48182 0.01 0.00253636)
(2.5 0.01 0.0025)
(2.51818 0.01 0.00246364)
(2.53636 0.01 0.00242727)
(2.55455 0.01 0.00239091)
(2.57273 0.01 0.00235455)
(2.59091 0.01 0.00231818)
(2.60909 0.01 0.00228182)
(2.62727 0.01 0.00224545)
(2.64545 0.01 0.00220909)
(2.66364 0.01 0.00217273)
(2.68182 0.01 0.00213636)
(2.7 0.01 0.0021)
(2.71818 0.01 0.00206364)
(2.73636 0.01 0.00202727)
(2.75455 0.01 0.00199091)
(2.77273 0.01 0.00195455)
(2.79091 0.01 0.00191818)
(2.80909 0.01 0.00188182)
(2.82727 0.01 0.00184545)
(2.84545 0.01 0.00180909)
(2.86364 0.01 0.00177273)
(2.88182 0.01 0.00173636)
(2.9 0.01 0.0017)
(2.91818 0.01 0.00166364)
(2.93636 0.01 0.00162727)
(2.95455 0.01 0.00159091)
(2.97273 0.01 0.00155455)
(2.99091 0.01 0.00151818)
(3.00909 0.01 0.00148182)
(3.02727 0.01 0.00144545)
(3.04545 0.01 0.00140909)
(3.06364 0.01 0.00137273)
(3.08182 0.01 0.00133636)
(3.1 0.01 0.0013)
(3.11818 0.01 0.00126364)
(3.13636 0.01 0.00122727)
(3.15455 0.01 0.00119091)
(3.17273 0.01 0.00115455)
(3.19091 0.01 0.00111818)
(3.20909 0.01 0.00108182)
(3.22727 0.01 0.00104545)
(3.24545 0.01 0.00100909)
(3.26364 0.01 0.000972727)
(3.28182 0.01 0.000936364)
(3.3 0.01 0.0009)
(3.31818 0.01 0.000863636)
(3.33636 0.01 0.000827273)
(3.35455 0.01 0.000790909)
(3.37273 0.01 0.000754545)
(3.39091 0.01 0.000718182)
(3.40909 0.01 0.000681818)
(3.42727 0.01 0.000645455)
(3.44545 0.01 0.000609091)
(3.46364 0.01 0.000572727)
(3.48182 0.01 0.000536364)
(3.5 0.01 0.0005)
(3.51818 0.01 0.000463636)
(3.53636 0.01 0.000427273)
(3.55455 0.01 0.000390909)
(3.57273 0.01 0.000354545)
(3.59091 0.01 0.000318182)
(3.60909 0.01 0.000281818)
(3.62727 0.01 0.000245455)
(3.64545 0.01 0.000209091)
(3.66364 0.01 0.000172727)
(3.68182 0.01 0.000136364)
(3.7 0.01 0.0001)
(3.71818 0.01 6.36364e-05)
(3.73636 0.01 2.72727e-05)
(3.75455 0.01 -9.09091e-06)
(3.77273 0.01 -4.54545e-05)
(3.79091 0.01 -8.18182e-05)
(3.80909 0.01 -0.000118182)
(3.82727 0.01 -0.000154545)
(3.84545 0.01 -0.000190909)
(3.86364 0.01 -0.000227273)
(3.88182 0.01 -0.000263636)
(3.9 0.01 -0.0003)
(3.91818 0.01 -0.000336364)
(3.93636 0.01 -0.000372727)
(3.95455 0.01 -0.000409091)
(3.97273 0.01 -0.000445455)
(3.99091 0.01 -0.000481818)
(4.00909 0.01 -0.000518182)
(4.02727 0.01 -0.000554545)
(4.04545 0.01 -0.000590909)
(4.06364 0.01 -0.000627273)
(4.08182 0.01 -0.000663636)
(4.1 0.01 -0.0007)
(4.11818 0.01 -0.000736364)
(4.13636 0.01 -0.000772727)
(4.15455 0.01 -0.000809091)
(4.17273 0.01 -0.000845455)
(4.19091 0.01 -0.000881818)
(4.20909 0.01 -0.000918182)
(4.22727 0.01 -0.000954545)
(4.24545 0.01 -0.000990909)
(4.26364 0.01 -0.00102727)
(4.28182 0.01 -0.00106364)
(4.3 0.01 -0.0011)
(4.31818 0.01 -0.00113636)
(4.33636 0.01 -0.00117273)
(4.35455 0.01 -0.00120909)
(4.37273 0.01 -0.00124545)
(4.39091 0.01 -0.00128182)
(4.40909 0.01 -0.00131818)
(4.42727 0.01 -0.00135455)
(4.44545 0.01 -0.00139091)
(4.46364 0.01 -0.00142727)
(4.48182 0.01 -0.00146364)
(4.5 0.01 -0.0015)
(4.51818 0.01 -0.00153636)
(4.53636 0.01 -0.00157273)
(4.55455 0.01 -0.00160909)
(4.57273 0.01 -0.00164545)
(4.59091 0.01 -0.00168182)
(4.60909 0.01 -0.00171818)
(4.62727 0.01 -0.00175455)
(4.64545 0.01 -0.00179091)
(4.66364 0.01 -0.00182727)
(4.68182 0.01 -0.00186364)
(4.7 0.01 -0.0019)
(4.71818 0.01 -0.00193636)
(4.73636 0.01 -0.00197273)
(4.75455 0.01 -0.00200909)
(4.77273 0.01 -0.00204545)
(4.79091 0.01 -0.00208182)
(4.80909 0.01 -0.00211818)
(4.82727 0.01 -0.00215455)
(4.84545 0.01 -0.00219091)
(4.86364 0.01 -0.00222727)
(4.88182 0.01 -0.00226364)
(4.9 0.01 -0.0023)
(4.91818 0.01 -0.00233636)
(4.93636 0.01 -0.00237273)
(4.95455 0.01 -0.00240909)
(4.97273 0.01 -0.00244545)
(4.99091 0.01 -0.00248182)
(5.00909 0.01 -0.00251818)
(5.02727 0.01 -0.00255455)
(5.04545 0.01 -0.00259091)
(5.06364 0.01 -0.00262727)
(5.08182 0.01 -0.00266364)
(5.1 0.01 -0.0027)
(5.11818 0.01 -0.00273636)
(5.13636 0.01 -0.00277273)
(5.15455 0.01 -0.00280909)
(5.17273 0.01 -0.00284545)
(5.19091 0.01 -0.00288182)
(5.20909 0.01 -0.00291818)
(5.22727 0.01 -0.00295455)
(5.24545 0.01 -0.00299091)
(5.26364 0.01 -0.00302727)
(5.28182 0.01 -0.00306364)
(5.3 0.01 -0.0031)
(5.31818 0.01 -0.00313636)
(5.33636 0.01 -0.00317273)
(5.35455 0.01 -0.00320909)
(5.37273 0.01 -0.00324545)
(5.39091 0.01 -0.00328182)
(5.40909 0.01 -0.00331818)
(5.42727 0.01 -0.00335455)
(5.44545 0.01 -0.00339091)
(5.46364 0.01 -0.00342727)
(5.48182 0.01 -0.00346364)
(5.5 0.01 -0.0035)
(5.51818 0.01 -0.00353636)
(5.53636 0.01 -0.00357273)
(5.55455 0.01 -0.00360909)
(5.57273 0.01 -0.00364545)
(5.59091 0.01 -0.00368182)
(5.60909 0.01 -0.00371818)
(5.62727 0.01 -0.00375455)
(5.64545 0.01 -0.00379091)
(5.66364 0.01 -0.00382727)
(5.68182 0.01 -0.00386364)
(5.7 0.01 -0.0039)
(5.71818 0.01 -0.00393636)
(5.73636 0.01 -0.00397273)
(5.75455 0.01 -0.00400909)
(5.77273 0.01 -0.00404545)
(5.79091 0.01 -0.00408182)
(5.80909 0.01 -0.00411818)
(5.82727 0.01 -0.00415455)
(5.84545 0.01 -0.00419091)
(5.86364 0.01 -0.00422727)
(5.88182 0.01 -0.00426364)
(5.9 0.01 -0.0043)
(5.91818 0.01 -0.00433636)
(5.93636 0.01 -0.00437273)
(5.95455 0.01 -0.00440909)
(5.97273 0.01 -0.00444545)
(5.99091 0.01 -0.00448182)
(6.00909 0.01 -0.00451818)
(6.02727 0.01 -0.00455455)
(6.04545 0.01 -0.00459091)
(6.06364 0.01 -0.00462727)
(6.08182 0.01 -0.00466364)
(6.1 0.01 -0.0047)
(6.11818 0.01 -0.00473636)
(6.13636 0.01 -0.00477273)
(6.15455 0.01 -0.00480909)
(6.17273 0.01 -0.00484545)
(6.19091 0.01 -0.00488182)
(6.20909 0.01 -0.00491818)
(6.22727 0.01 -0.00495455)
(6.24545 0.01 -0.00499091)
(6.26364 0.01 -0.00502727)
(6.28182 0.01 -0.00506364)
(6.3 0.01 -0.0051)
(6.31818 0.01 -0.00513636)
(6.33636 0.01 -0.00517273)
(6.35455 0.01 -0.00520909)
(6.37273 0.01 -0.00524545)
(6.39091 0.01 -0.00528182)
(6.40909 0.01 -0.00531818)
(6.42727 0.01 -0.00535455)
(6.44545 0.01 -0.00539091)
(6.46364 0.01 -0.00542727)
(6.48182 0.01 -0.00546364)
(6.5 0.01 -0.0055)
(6.51818 0.01 -0.00553636)
(6.53636 0.01 -0.00557273)
(6.55455 0.01 -0.00560909)
(6.57273 0.01 -0.00564545)
(6.59091 0.01 -0.00568182)
(6.60909 0.01 -0.00571818)
(6.62727 0.01 -0.00575455)
(6.64545 0.01 -0.00579091)
(6.66364 0.01 -0.00582727)
(6.68182 0.01 -0.00586364)
(6.7 0.01 -0.0059)
(6.71818 0.01 -0.00593636)
(6.73636 0.01 -0.00597273)
(6.75455 0.01 -0.00600909)
(6.77273 0.01 -0.00604545)
(6.79091 0.01 -0.00608182)
(6.80909 0.01 -0.00611818)
(6.82727 0.01 -0.00615455)
(6.84545 0.01 -0.00619091)
(6.86364 0.01 -0.00622727)
(6.88182 0.01 -0.00626364)
(6.9 0.01 -0.0063)
(6.91818 0.01 -0.00633636)
(6.93636 0.01 -0.00637273)
(6.95455 0.01 -0.00640909)
(6.97273 0.01 -0.00644545)
(6.99091 0.01 -0.00648182)
(7.00909 0.01 -0.00651818)
(7.02727 0.01 -0.00655455)
(7.04545 0.01 -0.00659091)
(7.06364 0.01 -0.00662727)
(7.08182 0.01 -0.00666364)
(7.1 0.01 -0.0067)
(7.11818 0.01 -0.00673636)
(7.13636 0.01 -0.00677273)
(7.15455 0.01 -0.00680909)
(7.17273 0.01 -0.00684545)
(7.19091 0.01 -0.00688182)
(7.20909 0.01 -0.00691818)
(7.22727 0.01 -0.00695455)
(7.24545 0.01 -0.00699091)
(7.26364 0.01 -0.00702727)
(7.28182 0.01 -0.00706364)
(7.3 0.01 -0.0071)
(7.31818 0.01 -0.00713636)
(7.33636 0.01 -0.00717273)
(7.35455 0.01 -0.00720909)
(7.37273 0.01 -0.00724545)
(7.39091 0.01 -0.00728182)
(7.40909 0.01 -0.00731818)
(7.42727 0.01 -0.00735455)
(7.44545 0.01 -0.00739091)
(7.46364 0.01 -0.00742727)
(7.48182 0.01 -0.00746364)
(7.5 0.01 -0.0075)
(7.51818 0.01 -0.00753636)
(7.53636 0.01 -0.00757273)
(7.55455 0.01 -0.00760909)
(7.57273 0.01 -0.00764545)
(7.59091 0.01 -0.00768182)
(7.60909 0.01 -0.00771818)
(7.62727 0.01 -0.00775455)
(7.64545 0.01 -0.00779091)
(7.66364 0.01 -0.00782727)
(7.68182 0.01 -0.00786364)
(7.7 0.01 -0.0079)
(7.71818 0.01 -0.00793636)
(7.73636 0.01 -0.00797273)
(7.75455 0.01 -0.00800909)
(7.77273 0.01 -0.00804545)
(7.79091 0.01 -0.00808182)
(7.80909 0.01 -0.00811818)
(7.82727 0.01 -0.00815455)
(7.84545 0.01 -0.00819091)
(7.86364 0.01 -0.00822727)
(7.88182 0.01 -0.00826364)
(7.9 0.01 -0.0083)
(7.91818 0.01 -0.00833636)
(7.93636 0.01 -0.00837273)
(7.95455 0.01 -0.00840909)
(7.97273 0.01 -0.00844545)
(7.99091 0.01 -0.00848182)
(8.00909 0.01 -0.00851818)
(8.02727 0.01 -0.00855455)
(8.04545 0.01 -0.00859091)
(8.06364 0.01 -0.00862727)
(8.08182 0.01 -0.00866364)
(8.1 0.01 -0.0087)
(8.11818 0.01 -0.00873636)
(8.13636 0.01 -0.00877273)
(8.15455 0.01 -0.00880909)
(8.17273 0.01 -0.00884545)
(8.19091 0.01 -0.00888182)
(8.20909 0.01 -0.00891818)
(8.22727 0.01 -0.00895455)
(8.24545 0.01 -0.00899091)
(8.26364 0.01 -0.00902727)
(8.28182 0.01 -0.00906364)
(8.3 0.01 -0.0091)
(8.31818 0.01 -0.00913636)
(8.33636 0.01 -0.00917273)
(8.35455 0.01 -0.00920909)
(8.37273 0.01 -0.00924545)
(8.39091 0.01 -0.00928182)
(8.40909 0.01 -0.00931818)
(8.42727 0.01 -0.00935455)
(8.44545 0.01 -0.00939091)
(8.46364 0.01 -0.00942727)
(8.48182 0.01 -0.00946364)
(8.5 0.01 -0.0095)
(8.51818 0.01 -0.00953636)
(8.53636 0.01 -0.00957273)
(8.55455 0.01 -0.00960909)
(8.57273 0.01 -0.00964545)
(8.59091 0.01 -0.00968182)
(8.60909 0.01 -0.00971818)
(8.62727 0.01 -0.00975455)
(8.64545 0.01 -0.00979091)
(8.66364 0.01 -0.00982727)
(8.68182 0.01 -0.00986364)
(8.7 0.01 -0.0099)
(8.71818 0.01 -0.00993636)
(8.73636 0.01 -0.00997273)
(8.75455 0.01 -0.0100091)
(8.77273 0.01 -0.0100455)
(8.79091 0.01 -0.0100818)
(8.80909 0.01 -0.0101182)
(8.82727 0.01 -0.0101545)
(8.84545 0.01 -0.0101909)
(8.86364 0.01 -0.0102273)
(8.88182 0.01 -0.0102636)
(8.9 0.01 -0.0103)
(8.91818 0.01 -0.0103364)
(8.93636 0.01 -0.0103727)
(8.95455 0.01 -0.0104091)
(8.97273 0.01 -0.0104455)
(8.99091 0.01 -0.0104818)
(9.00909 0.01 -0.0105182)
(9.02727 0.01 -0.0105545)
(9.04545 0.01 -0.0105909)
(9.06364 0.01 -0.0106273)
(9.08182 0.01 -0.0106636)
(9.1 0.01 -0.0107)
(9.11818 0.01 -0.0107364)
(9.13636 0.01 -0.0107727)
(9.15455 0.01 -0.0108091)
(9.17273 0.01 -0.0108455)
(9.19091 0.01 -0.0108818)
(9.20909 0.01 -0.0109182)
(9.22727 0.01 -0.0109545)
(9.24545 0.01 -0.0109909)
(9.26364 0.01 -0.0110273)
(9.28182 0.01 -0.0110636)
(9.3 0.01 -0.0111)
(9.31818 0.01 -0.0111364)
(9.33636 0.01 -0.0111727)
(9.35455 0.01 -0.0112091)
(9.37273 0.01 -0.0112455)
(9.39091 0.01 -0.0112818)
(9.40909 0.01 -0.0113182)
(9.42727 0.01 -0.0113545)
(9.44545 0.01 -0.0113909)
(9.46364 0.01 -0.0114273)
(9.48182 0.01 -0.0114636)
(9.5 0.01 -0.0115)
(9.51818 0.01 -0.0115364)
(9.53636 0.01 -0.0115727)
(9.55455 0.01 -0.0116091)
(9.57273 0.01 -0.0116455)
(9.59091 0.01 -0.0116818)
(9.60909 0.01 -0.0117182)
(9.62727 0.01 -0.0117545)
(9.64545 0.01 -0.0117909)
(9.66364 0.01 -0.0118273)
(9.68182 0.01 -0.0118636)
(9.7 0.01 -0.0119)
(9.71818 0.01 -0.0119364)
(9.73636 0.01 -0.0119727)
(9.75455 0.01 -0.0120091)
(9.77273 0.01 -0.0120455)
(9.79091 0.01 -0.0120818)
(9.80909 0.01 -0.0121182)
(9.82727 0.01 -0.0121545)
(9.84545 0.01 -0.0121909)
(9.86364 0.01 -0.0122273)
(9.88182 0.01 -0.0122636)
(9.9 0.01 -0.0123)
(9.91818 0.01 -0.0123364)
(9.93636 0.01 -0.0123727)
(9.95455 0.01 -0.0124091)
(9.97273 0.01 -0.0124455)
(9.99091 0.01 -0.0124818)
(0.00909091 0.01 0.0124818)
(0.0272727 0.01 0.0124455)
(0.0454545 0.01 0.0124091)
(0.0636364 0.01 0.0123727)
(0.0818182 0.01 0.0123364)
(0.1 0.01 0.0123)
(0.118182 0.01 0.0122636)
(0.136364 0.01 0.0122273)
(0.154545 0.01 0.0121909)
(0.172727 0.01 0.0121545)
(0.190909 0.01 0.0121182)
(0.209091 0.01 0.0120818)
(0.227273 0.01 0.0120455)
(0.245455 0.01 0.0120091)
(0.263636 0.01 0.0119727)
(0.281818 0.01 0.0119364)
(0.3 0.01 0.0119)
(0.318182 0.01 0.0118636)
(0.336364 0.01 0.0118273)
(0.354545 0.01 0.0117909)
(0.372727 0.01 0.0117545)