/*--------------------------------*- C++ -*----------------------------------*\
| =========                 |                                                 |
| \\      /  F ield         | foam-extend: Open Source CFD                    |
|  \\    /   O peration     | Version:     3.2                                |
|   \\  /    A nd           | Web:         http://www.foam-extend.org         |
|    \\/     M anipulation  | For copyright notice see file Copyright         |
\*---------------------------------------------------------------------------*/
FoamFile
{
    version     2.0;
    format      ascii;
    class       surfaceScalarField;
    location    "1440";
    object      meshPhi;
}
// * * * * * * * * * * * * * * * * * * * * * * * * * * * * * * * * * * * * * //

dimensions      [0 3 -1 0 0 0 0];

internalField   nonuniform List<scalar> 
65390
(
0
0
0
0
0
0
0
0
0
0
0
0
0
0
0
0
0
0
0
0
0
0
0
0
0
0
0
2.62825e-20
8.02471e-35
1.05136e-19
-9.25037e-19
7.88519e-20
0
1.05136e-19
0
1.3142e-19
4.62591e-19
2.10272e-19
0
2.89108e-19
0
3.67975e-19
5.6173e-34
4.73111e-19
0
5.51963e-19
4.62576e-19
7.62235e-19
4.62593e-19
9.19888e-19
-9.25165e-19
1.13021e-18
-4.62603e-19
1.41933e-18
0
1.68217e-18
0
1.91873e-18
0
2.15528e-18
0
2.35228e-18
0
2.44441e-18
0
2.31299e-18
9.25186e-19
1.9713e-18
0
1.40619e-18
0
6.96486e-19
0
1.05136e-19
0
2.36556e-19
-9.25171e-19
2.41812e-18
0
8.9234e-18
-9.25212e-19
2.34584e-17
-9.25173e-19
5.18291e-17
0
1.02153e-16
4.7739e-31
1.84217e-16
-9.25186e-19
3.07785e-16
-1.16984e-30
4.77862e-16
-9.25186e-19
6.89154e-16
9.25186e-19
9.25754e-16
0
1.18343e-15
0
1.52924e-15
-9.25165e-19
2.18903e-15
0
4.06668e-15
0
1.09222e-14
9.25186e-19
2.746e-14
0
9.5741e-14
0
3.69143e-13
0
9.86005e-13
0
-3.49161e-12
0
3.82421e-11
1.85064e-18
-2.07538e-09
-2.73934e-23
-2.9845e-08
-1.85008e-18
-3.45292e-08
1.84891e-18
6.31551e-08
0
1.19257e-07
0
-2.97249e-08
1.84641e-18
-1.82335e-07
-1.84445e-18
-7.792e-08
-1.84434e-18
8.60697e-08
0
-3.10556e-08
1.84342e-18
-2.15306e-07
0
-3.30397e-08
1.84156e-18
3.92556e-07
1.8397e-18
4.90891e-07
-1.83732e-18
1.86835e-08
-1.83431e-18
-3.78252e-07
-1.83059e-18
-2.68787e-07
1.82593e-18
-1.10552e-07
-1.82179e-18
-7.94273e-08
1.11213e-22
2.42516e-07
0
6.30431e-07
3.61481e-18
1.25871e-07
2.40425e-22
-5.9187e-07
1.82147e-22
-4.31202e-07
1.80201e-18
-1.18423e-07
0
-9.45901e-08
0
-9.31478e-08
-3.60587e-18
-9.02371e-08
-1.80413e-18
-8.92751e-08
1.32018e-23
-9.06989e-08
5.42065e-18
-7.17843e-08
-1.80903e-18
-4.46439e-08
1.1073e-23
-5.5853e-08
3.11553e-24
-7.75543e-08
-1.81356e-18
-7.80355e-08
-1.81361e-18
-7.45925e-08
0
-7.24284e-08
1.8169e-18
-6.93698e-08
-1.81767e-18
-6.86777e-08
0
-6.88024e-08
-1.82064e-18
-6.51857e-08
1.82134e-18
-6.1103e-08
0
-5.94691e-08
0
-5.81561e-08
-3.64992e-18
-5.77897e-08
1.82505e-18
-3.69498e-08
3.65337e-18
2.76374e-07
0
6.87256e-07
-3.65735e-18
2.50108e-07
3.65848e-18
-4.65147e-07
7.32569e-18
-3.55308e-07
0
-6.47267e-08
3.66548e-18
-4.03007e-08
0
-3.38181e-08
3.66955e-18
-3.19232e-08
0
-3.52103e-08
-3.67299e-18
-3.45915e-08
-3.66839e-18
-3.17969e-08
3.67516e-18
-2.8205e-08
3.67444e-18
-2.15868e-08
0
-1.64881e-08
0
-7.51371e-09
-7.40509e-18
1.8468e-08
-1.35568e-23
3.35285e-08
7.39542e-18
1.63559e-08
0
1.10358e-09
0
-7.15092e-11
-1.10247e-25
-4.74727e-11
3.69979e-18
-2.2609e-11
0
-2.44836e-11
0
-1.27604e-11
-1.20771e-26
-3.5185e-11
3.69961e-18
-6.34485e-11
3.70042e-18
-1.40643e-10
-3.69944e-18
-4.24542e-10
0
-9.27061e-10
-3.6981e-18
-1.13532e-09
-3.70049e-18
-8.96084e-10
0
-6.85521e-10
-2.15915e-26
-6.11051e-10
1.64803e-26
-5.56569e-10
0
-5.33802e-10
-3.69948e-18
-5.31172e-10
0
-5.47356e-10
0
-5.75753e-10
3.70092e-18
-6.30167e-10
-3.70015e-18
-7.00427e-10
3.70079e-18
-7.7217e-10
-3.70006e-18
-8.36902e-10
-3.70069e-18
-8.97159e-10
-3.70017e-18
-9.5022e-10
0
-9.92529e-10
-3.70058e-18
-1.02177e-09
3.7e-18
-1.03453e-09
1.84041e-26
-1.03937e-09
3.69858e-18
-1.03675e-09
-8.82957e-27
-1.04076e-09
3.69585e-18
-1.04659e-09
7.42832e-28
-1.05982e-09
3.6929e-18
-1.07681e-09
-3.7076e-18
-1.09799e-09
3.69206e-18
-1.12148e-09
3.76238e-27
-1.14062e-09
-1.25949e-26
-1.15877e-09
0
-1.16874e-09
-3.69274e-18
-1.17653e-09
-3.70636e-18
-1.17921e-09
-3.69096e-18
-1.17974e-09
-9.96287e-27
-1.18293e-09
0
-1.18376e-09
-3.72414e-18
-1.17976e-09
0
-1.17377e-09
0
-1.16757e-09
0
-1.16096e-09
-3.69763e-18
-1.15673e-09
0
-1.14983e-09
0
-1.14079e-09
-6.42925e-27
-1.12739e-09
3.69881e-18
-1.11434e-09
0
-1.10192e-09
0
-1.0887e-09
-3.70241e-18
-1.07254e-09
-7.39899e-18
-1.05396e-09
0
-1.0333e-09
-7.39957e-18
-1.01022e-09
3.70174e-18
-9.8393e-10
7.40008e-18
-9.55954e-10
3.70146e-18
-9.32109e-10
3.70025e-18
-9.11e-10
3.70124e-18
-8.94003e-10
3.70044e-18
-8.76586e-10
0
-8.5519e-10
0
-8.34953e-10
3.68856e-27
-8.1418e-10
0
-7.96828e-10
3.7009e-18
-7.72515e-10
3.70062e-18
-7.42639e-10
3.45773e-27
-7.1021e-10
-2.76375e-27
-6.75339e-10
7.40179e-18
-6.40768e-10
1.98708e-27
-6.06637e-10
0
-5.73681e-10
3.70058e-18
-5.40112e-10
-3.70087e-18
-5.10032e-10
1.11017e-17
-4.82988e-10
3.70089e-18
-4.60287e-10
3.70057e-18
-4.42721e-10
5.07717e-28
-4.32112e-10
-3.70058e-18
-4.26814e-10
3.70087e-18
-4.25511e-10
-3.70057e-18
-4.26741e-10
-3.70086e-18
-4.29857e-10
0
-4.33499e-10
-3.70085e-18
-4.36689e-10
3.70058e-18
-4.42044e-10
1.94195e-27
-4.50244e-10
0
-4.60845e-10
-2.8376e-27
-4.726e-10
0
-4.84032e-10
-3.70085e-18
-4.91856e-10
0
-4.95857e-10
7.40171e-18
-4.95494e-10
-7.40111e-18
-4.9193e-10
0
-4.85878e-10
0
-4.77772e-10
0
-4.66814e-10
7.40104e-18
-4.54877e-10
0
-4.41053e-10
0
-4.24364e-10
0
-4.04383e-10
-7.40071e-18
-3.81731e-10
0
-3.58477e-10
0
-3.362e-10
0
-3.16034e-10
0
-2.97565e-10
7.40253e-18
-2.80989e-10
0
-2.65274e-10
7.40266e-18
-2.53045e-10
-7.40018e-18
-2.43088e-10
7.40272e-18
-2.37251e-10
0
-2.34597e-10
-7.40277e-18
-2.3494e-10
0
-2.3728e-10
0
-2.41701e-10
0
-2.47476e-10
0
-2.55532e-10
7.39973e-18
-2.65821e-10
0
-2.79201e-10
7.39951e-18
-2.94086e-10
0
-3.08293e-10
-8.56454e-27
-3.20429e-10
0
-3.29622e-10
-7.39895e-18
-3.36035e-10
0
-3.397e-10
7.39858e-18
-3.4044e-10
1.09109e-26
-3.36883e-10
0
-3.29968e-10
0
-3.19499e-10
7.39782e-18
-3.07245e-10
0
-2.93004e-10
7.44934e-29
-2.76486e-10
0
-2.56344e-10
7.39702e-18
-2.32187e-10
-7.40594e-18
-2.042e-10
-1.47932e-17
-1.74822e-10
0
-1.45407e-10
7.39614e-18
-1.17911e-10
-7.40682e-18
-9.2152e-11
0
-6.90181e-11
7.40734e-18
-4.7618e-11
-7.39517e-18
-2.9031e-11
0
-1.27336e-11
-7.39458e-18
1.28119e-13
0
1.03723e-11
7.39414e-18
1.78289e-11
7.40874e-18
2.30531e-11
0
2.70927e-11
0
2.95043e-11
-3.39636e-27
3.1792e-11
-7.40872e-18
3.13082e-11
0
2.99368e-11
-7.40823e-18
2.59139e-11
0
2.1525e-11
-7.40739e-18
1.43492e-11
-7.39589e-18
5.53263e-12
0
-5.31806e-12
7.39677e-18
-1.64683e-11
0
-2.71625e-11
7.39743e-18
-3.69916e-11
1.75301e-26
-4.5727e-11
-7.39804e-18
-5.36486e-11
0
-6.13354e-11
7.39847e-18
-6.93419e-11
7.40411e-18
-7.719e-11
-7.39902e-18
-8.46872e-11
0
-9.05984e-11
0
-9.50473e-11
1.48065e-17
-9.78047e-11
7.39968e-18
-9.94003e-11
7.40306e-18
-9.99884e-11
0
-1.01364e-10
5.61781e-27
-1.04684e-10
-1.48003e-17
-1.11451e-10
7.40255e-18
-1.20608e-10
8.33521e-27
-1.31238e-10
-7.40246e-18
-1.42355e-10
-9.63593e-27
-1.54725e-10
-5.65709e-27
-1.68692e-10
7.40067e-18
-1.84515e-10
-7.40228e-18
-2.01549e-10
1.48017e-17
-2.20966e-10
0
-2.42664e-10
3.38417e-27
-2.64184e-10
0
-2.84585e-10
2.73615e-27
-3.07773e-10
7.40184e-18
-3.33686e-10
-7.40117e-18
-3.59896e-10
0
-3.86971e-10
0
-4.13677e-10
-4.33544e-27
-4.39452e-10
-1.48025e-17
-4.63923e-10
9.03528e-27
-4.85467e-10
-2.52729e-27
-5.02369e-10
-7.40172e-18
-5.13656e-10
-7.40132e-18
-5.2075e-10
7.40171e-18
-5.2248e-10
-1.48026e-17
-5.17851e-10
-1.48033e-17
-5.06929e-10
1.48029e-17
-4.90981e-10
1.7235e-27
-4.70797e-10
-8.75929e-28
-4.49507e-10
-7.4016e-18
-4.27726e-10
-7.40146e-18
-4.05315e-10
0
-3.82518e-10
0
-3.60322e-10
7.40157e-18
-3.41141e-10
7.4015e-18
-3.22836e-10
0
-3.02716e-10
0
-2.80951e-10
0
-2.58917e-10
-7.40146e-18
-2.37015e-10
-1.48031e-17
-2.16377e-10
-1.48029e-17
-1.98694e-10
0
-1.83887e-10
7.09385e-28
-1.70265e-10
1.08953e-27
-1.56612e-10
7.4016e-18
-1.42933e-10
-7.40154e-18
-1.29173e-10
-7.40153e-18
-1.15027e-10
0
-1.02835e-10
0
-9.10878e-11
0
-7.67604e-11
-7.40163e-18
-6.14184e-11
7.40162e-18
-4.63198e-11
-4.59782e-27
-3.16131e-11
7.40159e-18
-1.43802e-11
-7.40157e-18
6.01845e-12
7.4015e-18
2.96447e-11
1.4803e-17
5.65997e-11
-7.40145e-18
8.43698e-11
-7.40146e-18
1.10019e-10
0
1.3286e-10
-4.90996e-28
1.52188e-10
3.91127e-27
1.69367e-10
-7.40156e-18
1.8488e-10
-7.40147e-18
1.9883e-10
0
2.11253e-10
7.40144e-18
2.21286e-10
0
2.29557e-10
7.40142e-18
2.36236e-10
7.40148e-18
2.42711e-10
4.5856e-27
2.50495e-10
7.0725e-27
2.61743e-10
0
2.77874e-10
-7.40141e-18
3.00071e-10
-1.48029e-17
3.27006e-10
7.40148e-18
3.56733e-10
1.4803e-17
3.87412e-10
7.4014e-18
4.16248e-10
0
4.41689e-10
-5.10695e-27
4.62141e-10
0
4.77645e-10
-7.40144e-18
4.89156e-10
0
4.97529e-10
-7.40136e-18
5.01605e-10
0
5.0164e-10
-7.40145e-18
4.96752e-10
6.90228e-27
4.86674e-10
-6.18867e-27
4.71332e-10
1.48027e-17
4.4968e-10
0
4.21851e-10
7.40141e-18
3.87354e-10
0
3.46042e-10
7.40139e-18
2.9707e-10
1.35535e-26
2.39445e-10
5.02265e-27
1.7361e-10
-7.40134e-18
1.02854e-10
-7.40137e-18
3.06667e-11
7.40134e-18
-3.89918e-11
-1.29231e-26
-1.01899e-10
-1.48029e-17
-1.53789e-10
-7.40145e-18
-1.91845e-10
1.48027e-17
-2.14765e-10
1.15613e-26
-2.2334e-10
7.40144e-18
-2.19578e-10
7.40136e-18
-2.06403e-10
-7.4014e-18
-1.86242e-10
-7.40135e-18
-1.6153e-10
7.40136e-18
-1.33021e-10
-1.48029e-17
-1.01323e-10
7.40144e-18
-6.75661e-11
-6.19771e-27
-3.37375e-11
-7.40133e-18
-3.25373e-12
7.40133e-18
2.0327e-11
7.40134e-18
3.47708e-11
0
3.52127e-11
7.40132e-18
1.63934e-11
-6.83294e-27
-1.83279e-11
9.2722e-27
-6.18979e-11
0
-1.12536e-10
2.22042e-17
-1.69187e-10
0
-2.30135e-10
-7.40138e-18
-2.96608e-10
0
-3.70997e-10
7.40137e-18
-4.50777e-10
-3.90816e-27
-5.31506e-10
5.09512e-27
-6.10046e-10
0
-6.84832e-10
-7.40139e-18
-7.53147e-10
0
-8.14852e-10
7.40139e-18
-8.68835e-10
1.48028e-17
-9.14734e-10
-8.6606e-27
-9.52625e-10
0
-9.80969e-10
1.07904e-26
-1.00204e-09
7.40141e-18
-1.01688e-09
-1.48028e-17
-1.02843e-09
0
-1.03867e-09
2.72803e-27
-1.0482e-09
0
-1.05442e-09
0
-1.05683e-09
1.48029e-17
-1.05273e-09
-1.48029e-17
-1.04217e-09
0
-1.0266e-09
-1.48028e-17
-1.00467e-09
-1.48029e-17
-9.78853e-10
-5.22418e-27
-9.49735e-10
0
-9.17885e-10
0
-8.83413e-10
0
-8.47313e-10
0
-8.09853e-10
-1.48029e-17
-7.73979e-10
1.48028e-17
-7.39863e-10
-1.48029e-17
-7.08711e-10
0
-6.8151e-10
0
-6.55756e-10
-1.48028e-17
-6.30347e-10
0
-6.02743e-10
0
-5.71618e-10
0
-5.37128e-10
1.48029e-17
-5.00334e-10
1.48028e-17
-4.60507e-10
-1.48029e-17
-4.18212e-10
-1.48029e-17
-3.73289e-10
-1.48029e-17
-3.26447e-10
0
-2.78836e-10
0
-2.30949e-10
0
-1.83866e-10
0
-1.37697e-10
4.57371e-27
-9.23738e-11
1.24595e-26
-4.86224e-11
0
-8.80617e-12
1.48029e-17
2.34611e-11
0
4.45952e-11
0
5.1973e-11
0
4.43569e-11
0
2.17499e-11
-1.48028e-17
-1.4511e-11
0
-6.15681e-11
0
-1.1578e-10
0
-1.7421e-10
0
-2.34514e-10
-1.48029e-17
-2.94564e-10
0
-3.51942e-10
0
-4.06447e-10
-1.48028e-17
-4.58264e-10
0
-5.07461e-10
0
-5.53238e-10
0
-5.92484e-10
0
-6.23283e-10
-1.48029e-17
-6.43483e-10
-1.48028e-17
-6.53317e-10
-2.85545e-27
-6.55395e-10
1.48029e-17
-6.54541e-10
-1.48029e-17
-6.54858e-10
-2.55767e-26
-6.6232e-10
-1.4803e-17
-6.79744e-10
0
-7.07554e-10
-1.48028e-17
-7.4459e-10
-1.48029e-17
-7.87642e-10
1.48029e-17
-8.36156e-10
-2.96058e-17
-8.87776e-10
0
-9.40229e-10
-1.48029e-17
-9.90799e-10
1.48029e-17
-1.03692e-09
0
-1.07382e-09
1.48029e-17
-1.10023e-09
-1.48029e-17
-1.11341e-09
1.48029e-17
-1.1124e-09
-2.939e-26
-1.09794e-09
-1.48029e-17
-1.06876e-09
-1.48028e-17
-1.02797e-09
-1.4803e-17
-9.77347e-10
-1.48028e-17
-9.18631e-10
0
-8.50127e-10
0
-7.71268e-10
1.48026e-17
-6.85547e-10
-1.48038e-17
-5.97387e-10
0
-5.06616e-10
1.48065e-17
-4.13458e-10
-3.79918e-26
-3.26836e-10
-1.13656e-26
-2.55954e-10
0
-1.98807e-10
0
-1.78669e-10
0
-2.15109e-10
1.48568e-17
-2.92682e-10
0
-4.23105e-10
-1.48858e-17
-5.99818e-10
0
-8.21189e-10
0
-1.0876e-09
0
-1.3805e-09
0
-1.69753e-09
-1.46592e-17
-2.00293e-09
2.98245e-17
-2.28704e-09
1.46587e-17
-2.53572e-09
0
-2.72787e-09
0
-2.8536e-09
-1.482e-17
-2.79961e-09
0
-2.62666e-09
0
-2.0213e-09
0
-8.24973e-10
0
-7.95379e-11
-2.42666e-26
4.46464e-13
0
-4.71682e-13
0
-1.4749e-13
-1.48036e-17
-7.39119e-14
0
-4.01876e-14
1.48033e-17
-2.31757e-14
-1.4803e-17
-1.33777e-14
1.4803e-17
-6.98298e-15
-2.17286e-15
0
0
0
0
0
0
0
0
0
0
0
0
0
0
0
0
2.31293e-19
5.2565e-20
0
1.05136e-19
-2.31329e-19
1.05136e-19
2.31327e-19
2.6284e-19
-1.60494e-34
2.6284e-19
4.01235e-34
3.67955e-19
0
5.78247e-19
4.62511e-19
7.35951e-19
4.62592e-19
1.15649e-18
-4.62635e-19
1.4719e-18
-2.00618e-33
1.89244e-18
0
2.57569e-18
4.62573e-19
3.46948e-18
4.62587e-19
4.52084e-18
0
5.94017e-18
-4.62573e-19
7.46464e-18
4.62589e-19
9.4617e-18
2.37531e-32
1.17226e-17
0
1.41933e-17
0
1.68217e-17
0
1.95553e-17
0
2.18682e-17
-9.25164e-19
2.36543e-17
-9.25188e-19
2.41812e-17
0
2.30773e-17
-9.25191e-19
1.99232e-17
9.25201e-19
1.42985e-17
-9.25167e-19
7.14884e-18
-1.85034e-18
1.20906e-18
-1.85043e-18
2.73353e-18
9.25171e-19
2.39644e-17
2.45797e-31
8.79987e-17
-9.25214e-19
2.32192e-16
9.25173e-19
5.14244e-16
-9.25171e-19
1.01434e-15
2.7756e-18
1.83116e-15
-9.25186e-19
3.06146e-15
1.85037e-18
4.7574e-15
9.25186e-19
6.86699e-15
1.85037e-18
9.23262e-15
-1.85039e-18
1.18055e-14
0
1.52262e-14
0
2.16969e-14
9.25195e-19
4.00964e-14
-1.85037e-18
1.04653e-13
7.41899e-28
2.79146e-13
0
8.63695e-13
-3.70072e-18
3.67795e-12
-3.93541e-26
8.54237e-12
0
-6.09307e-12
0
-1.70923e-10
3.70082e-18
-4.26475e-09
0
-2.73975e-08
1.84931e-18
-2.51515e-08
3.69582e-18
5.87668e-08
0
1.00026e-07
-1.84593e-18
-2.96332e-08
0
-1.57947e-07
1.84473e-18
-7.21913e-08
0
6.02967e-08
9.51866e-23
-3.64644e-08
-1.84462e-18
-1.805e-07
-1.84334e-18
-1.10688e-08
-1.84356e-18
3.59917e-07
0
4.36077e-07
2.4381e-22
2.53061e-08
-1.84113e-18
-3.3016e-07
9.1199e-23
-2.61864e-07
1.83879e-18
-1.20503e-07
1.83749e-18
-5.35257e-08
-1.83353e-18
2.45416e-07
0
5.46782e-07
0
1.0605e-07
3.19209e-22
-5.10638e-07
-1.8185e-18
-4.14402e-07
1.81833e-18
-1.42971e-07
1.81762e-18
-9.6613e-08
-1.81926e-18
-9.26845e-08
-1.82035e-18
-8.95434e-08
3.64258e-18
-8.86702e-08
-1.82199e-18
-8.84405e-08
-1.82371e-18
-7.07051e-08
0
-4.7574e-08
-1.82525e-18
-5.62489e-08
1.82565e-18
-7.51502e-08
-1.82805e-18
-7.72166e-08
1.82787e-18
-7.44505e-08
-3.65853e-18
-7.2252e-08
-1.83045e-18
-6.93486e-08
1.83123e-18
-6.84329e-08
-5.49541e-18
-6.83069e-08
1.83327e-18
-6.50461e-08
0
-6.11979e-08
1.83473e-18
-5.93211e-08
0
-5.76677e-08
1.83594e-18
-5.48124e-08
0
-1.05212e-08
0
2.82252e-07
3.67638e-18
6.06873e-07
2.95741e-22
2.23929e-07
1.83857e-18
-3.88458e-07
0
-3.36249e-07
0
-8.80273e-08
0
-4.24882e-08
3.68057e-18
-3.45795e-08
3.67887e-18
-3.24025e-08
0
-3.48155e-08
0
-3.4344e-08
3.67255e-18
-3.16782e-08
-2.14975e-24
-2.78929e-08
-3.67575e-18
-2.16745e-08
0
-1.60716e-08
-3.67693e-18
-5.98816e-09
3.70727e-18
1.73135e-08
0
3.03645e-08
3.69826e-18
1.63795e-08
3.70121e-18
2.386e-09
3.70069e-18
9.93686e-11
0
-1.47388e-11
-3.69948e-18
-1.47893e-11
0
-1.9567e-11
3.69919e-18
-1.48032e-11
0
-3.61467e-11
0
-6.9505e-11
-3.69977e-18
-1.61346e-10
3.69891e-18
-4.44584e-10
0
-8.97814e-10
-1.82187e-25
-1.09092e-09
0
-8.96558e-10
1.00906e-26
-6.97802e-10
-3.69956e-18
-6.13546e-10
-3.70015e-18
-5.60073e-10
-3.70658e-18
-5.36247e-10
-3.69996e-18
-5.33377e-10
7.40086e-18
-5.48966e-10
3.69998e-18
-5.78582e-10
-3.7007e-18
-6.31929e-10
3.69992e-18
-7.00806e-10
-3.70046e-18
-7.71492e-10
0
-8.36359e-10
-3.70035e-18
-8.96276e-10
3.69985e-18
-9.48932e-10
7.40055e-18
-9.90923e-10
0
-1.02e-09
3.69977e-18
-1.03345e-09
3.70124e-18
-1.0385e-09
-3.69848e-18
-1.03726e-09
-9.62024e-27
-1.04087e-09
-3.6957e-18
-1.0474e-09
3.70508e-18
-1.06014e-09
3.69258e-18
-1.07719e-09
3.70648e-18
-1.09814e-09
0
-1.12097e-09
-3.70704e-18
-1.14032e-09
-3.69249e-18
-1.15797e-09
0
-1.16832e-09
0
-1.17592e-09
7.40913e-18
-1.1789e-09
3.68946e-18
-1.17983e-09
0
-1.18273e-09
3.68544e-18
-1.18318e-09
3.72751e-18
-1.17954e-09
0
-1.17371e-09
-3.6965e-18
-1.16749e-09
-3.70444e-18
-1.16109e-09
8.42657e-27
-1.15656e-09
3.70383e-18
-1.14952e-09
-6.15298e-27
-1.14034e-09
-3.70329e-18
-1.12739e-09
0
-1.11432e-09
-3.70281e-18
-1.10193e-09
-3.69938e-18
-1.08835e-09
3.70239e-18
-1.07228e-09
3.69964e-18
-1.05373e-09
-3.70203e-18
-1.03304e-09
7.39976e-18
-1.00987e-09
0
-9.83902e-10
0
-9.56347e-10
0
-9.32445e-10
-7.40059e-18
-9.11448e-10
3.7012e-18
-8.93966e-10
0
-8.76335e-10
-2.54511e-27
-8.55272e-10
3.70063e-18
-8.34924e-10
0
-8.14485e-10
-1.11019e-17
-7.96152e-10
3.70087e-18
-7.71912e-10
7.39703e-27
-7.42436e-10
7.4017e-18
-7.09938e-10
3.70056e-18
-6.75386e-10
-7.40168e-18
-6.40855e-10
3.70055e-18
-6.06785e-10
3.70083e-18
-5.73776e-10
-3.70052e-18
-5.40523e-10
3.7008e-18
-5.10463e-10
-3.70052e-18
-4.83567e-10
-3.70079e-18
-4.60962e-10
0
-4.43551e-10
-3.70081e-18
-4.32848e-10
7.40104e-18
-4.27341e-10
1.6373e-27
-4.25898e-10
4.0737e-27
-4.27041e-10
0
-4.29992e-10
-7.40102e-18
-4.33605e-10
0
-4.36973e-10
7.40103e-18
-4.42414e-10
3.70077e-18
-4.50561e-10
3.70048e-18
-4.61017e-10
-3.70075e-18
-4.72571e-10
7.40099e-18
-4.83733e-10
0
-4.91434e-10
0
-4.95396e-10
-6.77918e-27
-4.9514e-10
0
-4.91623e-10
-7.40153e-18
-4.85689e-10
-7.40095e-18
-4.7744e-10
0
-4.66677e-10
-7.40086e-18
-4.54652e-10
0
-4.40732e-10
-1.25732e-26
-4.23985e-10
0
-4.04137e-10
0
-3.81641e-10
0
-3.58581e-10
-1.48008e-17
-3.3643e-10
0
-3.16224e-10
0
-2.97825e-10
7.40229e-18
-2.81119e-10
-7.4001e-18
-2.6567e-10
7.40236e-18
-2.53344e-10
0
-2.43562e-10
-7.40245e-18
-2.37629e-10
0
-2.34986e-10
-7.40248e-18
-2.35194e-10
0
-2.37545e-10
7.4026e-18
-2.41896e-10
0
-2.47744e-10
-6.48271e-27
-2.55834e-10
-7.3996e-18
-2.66151e-10
1.16465e-26
-2.79374e-10
9.62093e-27
-2.94023e-10
0
-3.08069e-10
7.39912e-18
-3.20085e-10
0
-3.29329e-10
-7.39884e-18
-3.35685e-10
-7.40361e-18
-3.39339e-10
7.39854e-18
-3.39947e-10
7.40394e-18
-3.3646e-10
0
-3.29583e-10
7.40428e-18
-3.19234e-10
-8.75537e-28
-3.06981e-10
-7.40463e-18
-2.92708e-10
7.39744e-18
-2.76059e-10
0
-2.55872e-10
7.39701e-18
-2.31783e-10
7.40541e-18
-2.04016e-10
0
-1.74811e-10
0
-1.45607e-10
-1.47923e-17
-1.18114e-10
7.40624e-18
-9.24626e-11
0
-6.92425e-11
0
-4.7954e-11
-7.39524e-18
-2.93271e-11
-7.40719e-18
-1.3139e-11
-7.39465e-18
-2.0392e-13
7.40762e-18
1.00314e-11
7.39423e-18
1.75458e-11
0
2.28745e-11
0
2.68792e-11
7.40812e-18
2.94248e-11
0
3.14716e-11
7.40797e-18
3.11498e-11
7.39436e-18
2.96176e-11
0
2.58e-11
7.39504e-18
2.11882e-11
0
1.41179e-11
0
5.27565e-12
-7.40589e-18
-5.40213e-12
0
-1.64681e-11
1.73194e-26
-2.71155e-11
-7.39734e-18
-3.69195e-11
1.60945e-26
-4.56925e-11
-7.39795e-18
-5.36678e-11
0
-6.14119e-11
-7.39845e-18
-6.93733e-11
-7.40362e-18
-7.71966e-11
0
-8.45689e-11
-7.40328e-18
-9.05014e-11
7.39921e-18
-9.4919e-11
-7.40294e-18
-9.77394e-11
0
-9.93684e-11
1.48053e-17
-1.00141e-10
0
-1.01661e-10
1.93934e-27
-1.05115e-10
-7.40005e-18
-1.11787e-10
7.40229e-18
-1.20849e-10
7.40022e-18
-1.3138e-10
7.40211e-18
-1.42556e-10
0
-1.54981e-10
-3.13209e-27
-1.68948e-10
9.73483e-27
-1.84717e-10
0
-2.01853e-10
-7.40064e-18
-2.21234e-10
7.40186e-18
-2.42729e-10
7.40074e-18
-2.64124e-10
7.40176e-18
-2.84895e-10
7.4009e-18
-3.08074e-10
0
-3.3375e-10
-1.48019e-17
-3.59968e-10
4.62751e-27
-3.86965e-10
0
-4.13536e-10
0
-4.39265e-10
7.40107e-18
-4.63554e-10
0
-4.84885e-10
0
-5.01753e-10
-7.40149e-18
-5.13082e-10
1.00197e-26
-5.20082e-10
7.40149e-18
-5.21715e-10
0
-5.17098e-10
-7.40146e-18
-5.0629e-10
3.77437e-27
-4.90522e-10
0
-4.70584e-10
-7.40125e-18
-4.49404e-10
0
-4.27629e-10
-7.40126e-18
-4.0524e-10
0
-3.82607e-10
0
-3.60578e-10
-7.40142e-18
-3.41209e-10
-2.69146e-27
-3.22641e-10
0
-3.02529e-10
7.40133e-18
-2.80887e-10
7.40143e-18
-2.58945e-10
-7.40135e-18
-2.37126e-10
-5.47741e-27
-2.16667e-10
7.40135e-18
-1.98974e-10
0
-1.83989e-10
2.35071e-28
-1.70262e-10
-7.40142e-18
-1.56569e-10
-7.40138e-18
-1.42888e-10
7.40146e-18
-1.291e-10
-1.48029e-17
-1.15162e-10
7.40145e-18
-1.02814e-10
0
-9.0789e-11
-7.40158e-18
-7.6584e-11
7.40157e-18
-6.13605e-11
0
-4.62651e-11
-7.40145e-18
-3.12725e-11
7.4014e-18
-1.39657e-11
0
6.44259e-12
5.55013e-27
3.0057e-11
1.48027e-17
5.67454e-11
-7.40133e-18
8.4205e-11
0
1.09752e-10
-7.40129e-18
1.32534e-10
7.8029e-28
1.51965e-10
4.72622e-27
1.69198e-10
0
1.84721e-10
0
1.98662e-10
0
2.11037e-10
-7.40124e-18
2.21102e-10
7.40121e-18
2.29414e-10
-7.40121e-18
2.36246e-10
-7.4012e-18
2.42894e-10
8.11723e-27
2.50898e-10
-7.4012e-18
2.62343e-10
-7.40116e-18
2.78549e-10
2.22035e-17
3.00619e-10
7.40115e-18
3.27336e-10
7.40112e-18
3.56821e-10
7.4011e-18
3.87248e-10
-7.40111e-18
4.15835e-10
-1.48022e-17
4.41113e-10
0
4.6155e-10
-7.40107e-18
4.77135e-10
7.40105e-18
4.88695e-10
-7.40105e-18
4.97029e-10
7.40106e-18
5.0104e-10
0
5.01004e-10
0
4.96076e-10
7.40102e-18
4.85955e-10
0
4.70574e-10
1.48086e-26
4.48851e-10
7.401e-18
4.2099e-10
1.4802e-17
3.8647e-10
7.40102e-18
3.45076e-10
7.40102e-18
2.96011e-10
-7.40102e-18
2.38497e-10
7.40101e-18
1.72992e-10
0
1.02662e-10
7.40102e-18
3.09455e-11
7.40098e-18
-3.82091e-11
7.40102e-18
-1.00642e-10
0
-1.52185e-10
-2.80085e-26
-1.90086e-10
-7.40098e-18
-2.13078e-10
-7.401e-18
-2.21869e-10
-1.4802e-17
-2.18418e-10
7.40098e-18
-2.05555e-10
7.40095e-18
-1.8564e-10
-1.4802e-17
-1.61056e-10
7.40097e-18
-1.32649e-10
0
-1.01107e-10
-7.40095e-18
-6.76115e-11
7.401e-18
-3.4169e-11
-7.40094e-18
-4.10796e-12
7.40094e-18
1.91716e-11
0
3.30857e-11
2.2203e-17
3.30042e-11
1.48019e-17
1.45093e-11
-1.48019e-17
-1.95101e-11
-7.40096e-18
-6.28497e-11
-7.40094e-18
-1.13344e-10
7.40095e-18
-1.69799e-10
0
-2.3088e-10
1.48016e-26
-2.97514e-10
5.83245e-27
-3.7163e-10
7.40091e-18
-4.50928e-10
-6.1923e-27
-5.31287e-10
0
-6.09576e-10
0
-6.8416e-10
0
-7.52316e-10
-7.40095e-18
-8.13917e-10
1.61753e-26
-8.67844e-10
1.48019e-17
-9.13688e-10
7.40094e-18
-9.51583e-10
-1.52201e-26
-9.80009e-10
-7.40097e-18
-1.00125e-09
7.40099e-18
-1.0164e-09
7.401e-18
-1.02816e-09
1.4802e-17
-1.03841e-09
7.401e-18
-1.04785e-09
0
-1.05384e-09
0
-1.05603e-09
-2.50321e-26
-1.05193e-09
-1.48021e-17
-1.04145e-09
-1.48021e-17
-1.02592e-09
-1.4802e-17
-1.00408e-09
0
-9.78397e-10
-1.48019e-17
-9.49353e-10
0
-9.17535e-10
0
-8.83138e-10
1.48021e-17
-8.4722e-10
1.48021e-17
-8.09933e-10
0
-7.74145e-10
0
-7.40155e-10
1.48019e-17
-7.09059e-10
-1.48021e-17
-6.8171e-10
0
-6.55714e-10
1.4802e-17
-6.30069e-10
-1.48019e-17
-6.02316e-10
1.4802e-17
-5.71192e-10
0
-5.36774e-10
0
-4.9999e-10
-1.4802e-17
-4.60143e-10
0
-4.17869e-10
0
-3.73029e-10
0
-3.26302e-10
1.48019e-17
-2.78802e-10
-1.48019e-17
-2.30995e-10
0
-1.83961e-10
0
-1.37816e-10
-1.48018e-17
-9.26042e-11
0
-4.91352e-11
0
-9.73143e-12
0
2.21289e-11
5.72101e-26
4.29557e-11
0
5.01817e-11
0
4.25604e-11
0
2.01056e-11
3.71341e-26
-1.58409e-11
1.48018e-17
-6.24903e-11
0
-1.16356e-10
0
-1.745e-10
-1.48019e-17
-2.3453e-10
-1.4802e-17
-2.94353e-10
-1.48019e-17
-3.51635e-10
0
-4.06144e-10
0
-4.57941e-10
-1.48018e-17
-5.06999e-10
0
-5.52529e-10
0
-5.91472e-10
3.96935e-26
-6.22077e-10
-1.4802e-17
-6.42311e-10
0
-6.52441e-10
0
-6.55019e-10
-1.7496e-26
-6.54749e-10
-3.17078e-26
-6.55613e-10
0
-6.63436e-10
0
-6.80928e-10
0
-7.08583e-10
-1.48018e-17
-7.45403e-10
0
-7.8824e-10
-1.48018e-17
-8.36513e-10
0
-8.87853e-10
0
-9.39976e-10
1.48018e-17
-9.90171e-10
0
-1.03593e-09
1.48018e-17
-1.07248e-09
0
-1.09862e-09
0
-1.11167e-09
0
-1.11066e-09
1.48017e-17
-1.09625e-09
0
-1.06722e-09
0
-1.02668e-09
0
-9.76239e-10
0
-9.17391e-10
-1.48018e-17
-8.48837e-10
-1.48016e-17
-7.70473e-10
0
-6.85117e-10
-1.48025e-17
-5.97074e-10
0
-5.06452e-10
0
-4.14266e-10
1.47963e-17
-3.28752e-10
-6.05529e-26
-2.57913e-10
-1.47841e-17
-2.03201e-10
0
-1.85119e-10
0
-2.20289e-10
1.48499e-17
-2.98961e-10
0
-4.28795e-10
0
-6.05164e-10
-1.46923e-17
-8.26263e-10
1.48959e-17
-1.09049e-09
-1.46608e-17
-1.38242e-09
0
-1.6956e-09
0
-1.99911e-09
0
-2.28118e-09
0
-2.52714e-09
-1.48274e-17
-2.71753e-09
-1.45749e-17
-2.83337e-09
0
-2.78664e-09
-2.89006e-17
-2.59847e-09
1.47411e-17
-2.02397e-09
1.6618e-17
-9.41267e-10
1.50481e-17
-1.7526e-10
0
-1.32509e-11
1.48233e-17
-3.61766e-12
-1.48125e-17
-1.47312e-12
0
-7.23258e-13
-1.48059e-17
-3.96545e-13
0
-2.29311e-13
0
-1.32607e-13
-1.48034e-17
-6.92944e-14
-2.15753e-14
0
0
0
0
0
0
0
0
0
0
0
5.25676e-20
0
2.10272e-19
2.31293e-19
1.05136e-19
0
1.57695e-19
2.31275e-19
4.73111e-19
2.40741e-34
5.78247e-19
0
8.41086e-19
2.31255e-19
1.05136e-18
-4.62623e-19
1.47182e-18
-9.25256e-19
2.10272e-18
0
2.73353e-18
3.20988e-33
3.89002e-18
4.62638e-19
5.25679e-18
0
7.14923e-18
4.62608e-19
9.30401e-18
-4.62575e-19
1.23009e-17
1.3e-32
1.58755e-17
0
2.06066e-17
0
2.62314e-17
2.64815e-32
3.29057e-17
-4.62574e-19
4.0635e-17
4.62603e-19
4.95715e-17
-9.25199e-19
5.87709e-17
-1.05284e-31
6.79703e-17
0
7.64337e-17
0
8.24745e-17
0
8.44241e-17
0
8.06392e-17
1.85036e-18
6.90217e-17
9.25208e-19
4.94664e-17
0
2.44361e-17
0
3.58133e-18
0
8.3583e-18
2.07358e-31
8.22029e-17
6.70866e-31
3.03783e-16
1.85043e-18
8.03658e-16
9.25171e-19
1.78274e-15
-9.25177e-19
3.52184e-15
9.25197e-19
6.36425e-15
9.25188e-19
1.06496e-14
-2.77558e-18
1.65652e-14
-1.85036e-18
2.39359e-14
0
3.22138e-14
-9.25204e-19
4.12029e-14
-9.25172e-19
5.30177e-14
9.25165e-19
7.52851e-14
9.25184e-19
1.37045e-13
-7.59152e-28
3.55901e-13
-9.25185e-19
9.49044e-13
0
2.89117e-12
-1.85036e-18
1.18859e-11
-1.85037e-18
3.03248e-11
-1.55434e-25
-1.00662e-11
0
-5.6466e-10
0
-5.91505e-09
-1.84872e-18
-2.40513e-08
1.84808e-18
-1.65413e-08
-1.84632e-18
5.3117e-08
1.84551e-18
8.10958e-08
0
-2.85749e-08
1.84455e-18
-1.33423e-07
0
-6.63989e-08
-3.69068e-18
3.61754e-08
0
-4.00116e-08
-1.84616e-18
-1.44921e-07
0
9.5618e-09
0
3.23004e-07
1.84727e-18
3.78719e-07
-1.84919e-18
3.04749e-08
0
-2.81212e-07
1.85612e-18
-2.48892e-07
-1.85957e-18
-1.24997e-07
1.67402e-22
-2.98893e-08
-1.86101e-18
2.39068e-07
0
4.61365e-07
0
8.63406e-08
-1.84766e-18
-4.30033e-07
0
-3.88709e-07
1.84167e-18
-1.63218e-07
-1.8419e-18
-1.00316e-07
1.84447e-18
-9.13329e-08
1.84676e-18
-8.77541e-08
0
-8.6649e-08
1.84756e-18
-8.47756e-08
0
-6.90423e-08
1.84961e-18
-5.01913e-08
0
-5.62197e-08
1.84832e-18
-7.17882e-08
-1.84957e-18
-7.51922e-08
-1.84945e-18
-7.358e-08
3.70094e-18
-7.17594e-08
-1.85119e-18
-6.93043e-08
1.85094e-18
-6.80789e-08
-1.85175e-18
-6.73923e-08
1.85344e-18
-6.45139e-08
1.85292e-18
-6.10533e-08
3.70557e-18
-5.88932e-08
1.85292e-18
-5.63353e-08
1.85268e-18
-4.81951e-08
-1.85172e-18
1.54811e-08
3.70408e-18
2.79458e-07
9.60211e-22
5.24732e-07
-1.85279e-18
1.97405e-07
-1.85326e-18
-3.144e-07
0
-3.0968e-07
0
-1.07343e-07
3.70374e-18
-4.74151e-08
0
-3.57604e-08
0
-3.2847e-08
0
-3.44018e-08
3.68434e-18
-3.39939e-08
-3.67628e-18
-3.14529e-08
-3.67789e-18
-2.75505e-08
0
-2.16261e-08
-3.67953e-18
-1.54791e-08
0
-4.65355e-09
0
1.59367e-08
-3.69841e-18
2.71174e-08
0
1.61072e-08
3.7033e-18
3.61669e-09
0
4.47476e-10
3.70111e-18
6.68068e-11
7.39878e-18
1.00152e-11
0
-9.14117e-12
3.69871e-18
-1.45871e-11
3.69925e-18
-3.80817e-11
-3.69864e-18
-7.88146e-11
-2.67571e-25
-1.84869e-10
0
-4.6208e-10
0
-8.65212e-10
0
-1.04286e-09
-1.48947e-25
-8.91287e-10
0
-7.0914e-10
3.70028e-18
-6.18046e-10
0
-5.6449e-10
-3.70629e-18
-5.39722e-10
0
-5.36402e-10
-7.40061e-18
-5.51499e-10
3.69986e-18
-5.82004e-10
3.70038e-18
-6.34196e-10
3.69968e-18
-7.0136e-10
3.70001e-18
-7.70745e-10
-3.69945e-18
-8.35456e-10
3.69992e-18
-8.94929e-10
2.51457e-27
-9.47057e-10
3.69994e-18
-9.88646e-10
0
-1.01763e-09
0
-1.03179e-09
0
-1.03736e-09
-3.6987e-18
-1.03752e-09
-3.702e-18
-1.04105e-09
0
-1.04818e-09
2.22708e-27
-1.06055e-09
-3.69376e-18
-1.07755e-09
2.99656e-27
-1.09818e-09
0
-1.12034e-09
-2.64153e-27
-1.1397e-09
0
-1.15693e-09
7.40769e-18
-1.16755e-09
0
-1.17508e-09
-3.7013e-18
-1.1784e-09
-3.68973e-18
-1.17973e-09
3.69787e-18
-1.18237e-09
3.68937e-18
-1.18245e-09
8.30982e-27
-1.17913e-09
0
-1.17354e-09
3.6988e-18
-1.16737e-09
0
-1.16113e-09
3.69912e-18
-1.15632e-09
-3.70318e-18
-1.1491e-09
7.39904e-18
-1.13983e-09
0
-1.1273e-09
0
-1.11429e-09
7.4047e-18
-1.10188e-09
1.58436e-27
-1.08795e-09
3.70207e-18
-1.07193e-09
3.70001e-18
-1.05342e-09
-3.7017e-18
-1.03272e-09
-7.40025e-18
-1.0095e-09
1.72394e-27
-9.83914e-10
7.40055e-18
-9.56821e-10
3.7012e-18
-9.32944e-10
-3.70035e-18
-9.11986e-10
0
-8.94016e-10
0
-8.76147e-10
-3.7009e-18
-8.55353e-10
3.70063e-18
-8.34967e-10
0
-8.14697e-10
0
-7.9546e-10
0
-7.71212e-10
0
-7.42125e-10
3.85683e-27
-7.09673e-10
3.70048e-18
-6.75451e-10
-7.40144e-18
-6.4103e-10
3.70043e-18
-6.07044e-10
-3.70061e-18
-5.74057e-10
3.70043e-18
-5.4113e-10
3.70063e-18
-5.11174e-10
7.40085e-18
-4.8446e-10
3.70061e-18
-4.62002e-10
-3.70044e-18
-4.44747e-10
0
-4.33944e-10
-3.7004e-18
-4.28192e-10
-3.70057e-18
-4.26554e-10
0
-4.27556e-10
3.70056e-18
-4.3032e-10
3.70034e-18
-4.33897e-10
7.40118e-18
-4.37437e-10
5.92486e-27
-4.42969e-10
7.40119e-18
-4.51042e-10
3.70032e-18
-4.61301e-10
7.40109e-18
-4.72577e-10
-2.67454e-27
-4.83408e-10
3.70059e-18
-4.90926e-10
0
-4.94831e-10
0
-4.94672e-10
7.4007e-18
-4.91226e-10
7.40119e-18
-4.85394e-10
-7.40082e-18
-4.77047e-10
0
-4.66438e-10
0
-4.54337e-10
7.40118e-18
-4.40305e-10
-7.40047e-18
-4.23512e-10
-7.40134e-18
-4.03814e-10
7.40045e-18
-3.81527e-10
-7.40133e-18
-3.58709e-10
0
-3.36717e-10
7.40143e-18
-3.16511e-10
0
-2.98168e-10
7.4016e-18
-2.81388e-10
7.39997e-18
-2.66177e-10
-7.40161e-18
-2.53821e-10
0
-2.44191e-10
-7.40164e-18
-2.38189e-10
7.4e-18
-2.35527e-10
7.40171e-18
-2.35601e-10
0
-2.37933e-10
7.40174e-18
-2.42226e-10
-7.39972e-18
-2.48136e-10
-7.40184e-18
-2.56266e-10
-7.39962e-18
-2.66582e-10
0
-2.79606e-10
-7.39955e-18
-2.93965e-10
-7.40225e-18
-3.07786e-10
-7.3993e-18
-3.19651e-10
0
-3.28903e-10
7.39919e-18
-3.35196e-10
7.40249e-18
-3.38807e-10
7.3988e-18
-3.39289e-10
0
-3.35855e-10
-7.39849e-18
-3.29042e-10
0
-3.18816e-10
7.39819e-18
-3.06574e-10
0
-2.92252e-10
-7.44654e-27
-2.75466e-10
-7.4034e-18
-2.55232e-10
0
-2.31245e-10
0
-2.03741e-10
-7.39739e-18
-1.74783e-10
7.40395e-18
-1.45831e-10
1.4794e-17
-1.18401e-10
0
-9.28598e-11
7.39676e-18
-6.95955e-11
-1.48091e-17
-4.84082e-11
7.39641e-18
-2.97775e-11
7.40493e-18
-1.36855e-11
-7.39602e-18
-6.96437e-13
0
9.548e-12
-7.39562e-18
1.71334e-11
7.40537e-18
2.2569e-11
7.39537e-18
2.65705e-11
7.40553e-18
2.92089e-11
0
3.10558e-11
-3.29539e-27
3.08345e-11
0
2.91865e-11