/*--------------------------------*- C++ -*----------------------------------*\
| =========                 |                                                 |
| \\      /  F ield         | foam-extend: Open Source CFD                    |
|  \\    /   O peration     | Version:     3.2                                |
|   \\  /    A nd           | Web:         http://www.foam-extend.org         |
|    \\/     M anipulation  | For copyright notice see file Copyright         |
\*---------------------------------------------------------------------------*/
FoamFile
{
    version     2.0;
    format      ascii;
    class       volScalarField;
    location    "1440";
    object      p;
}
// * * * * * * * * * * * * * * * * * * * * * * * * * * * * * * * * * * * * * //

dimensions      [1 -1 -2 0 0 0 0];

internalField   nonuniform List<scalar> 
33000
(
1177.29
1178.36
1179.49
1181.94
1183.2
1185.42
1186.51
1188.16
1189.02
1190.2
1190.95
1191.98
1192.5
1193.07
1193.76
1194.25
1194.68
1195.29
1195.76
1196.2
1196.61
1196.98
1197.41
1197.81
1198.19
1198.6
1199
1199.42
1199.8
1200.17
1200.55
1200.94
1201.34
1201.73
1202.1
1202.47
1202.83
1203.21
1203.59
1203.94
1204.32
1204.69
1205.04
1205.4
1205.77
1206.12
1206.47
1206.81
1207.15
1207.47
1207.78
1208.08
1208.38
1208.65
1208.9
1209.11
1209.27
1209.39
1209.39
1209.2
1208.49
1208.3
1210.67
1212.8
1210.65
1206.14
1204.81
1206.46
1208.04
1208.31
1210.81
1217.65
1223.89
1220.84
1213.95
1211.49
1210.03
1206.98
1211.84
1223.2
1220.53
1206.6
1200
1195.43
1187.18
1182.16
1184.88
1184.68
1177.22
1178.3
1194.38
1210.08
1213.1
1207.71
1201.69
1200.83
1211.25
1223.7
1226.73
1224.88
1224.83
1225.16
1224.7
1223.51
1221.45
1225.25
1237.99
1239.87
1229.89
1226.88
1229.04
1229.13
1230.16
1231.23
1231.11
1230.54
1231.49
1231.2
1232.14
1231.85
1232.63
1231.59
1232.67
1229.29
1227.88
1226.13
1224.64
1223.28
1221.94
1220.84
1219.73
1218.9
1218.07
1217.54
1217.03
1216.82
1216.6
1216.94
1217
1216.28
1215.99
1215.83
1214.35
1213.64
1212.69
1212.03
1211.22
1210.62
1209.97
1209.49
1209.02
1208.63
1208.35
1207.92
1207.98
1207.31
1207.87
1206.73
1208.01
1206.54
1208.67
1207.21
1209.84
1208.58
1211.37
1210.36
1213.45
1213.09
1217.49
1218.94
1224.9
1223.87
1223.99
1224.94
1224.72
1225.79
1225.52
1226.44
1226.18
1226.92
1226.7
1227.28
1227.09
1227.53
1227.38
1227.69
1227.59
1227.79
1227.72
1227.85
1227.79
1227.86
1227.81
1227.82
1227.77
1227.75
1227.68
1227.64
1227.57
1227.53
1227.44
1227.4
1227.31
1227.26
1227.17
1227.12
1227.04
1226.99
1226.9
1226.85
1226.76
1226.72
1226.63
1226.59
1226.51
1226.47
1226.39
1226.36
1226.28
1226.25
1226.19
1226.16
1226.09
1226.08
1226.01
1226
1225.92
1225.93
1225.84
1225.87
1225.75
1225.81
1225.68
1225.76
1225.62
1225.73
1225.57
1225.7
1225.54
1225.68
1225.51
1225.67
1225.49
1225.66
1225.47
1225.66
1225.46
1225.68
1225.45
1225.7
1225.46
1225.75
1225.48
1225.81
1225.51
1225.9
1225.56
1226.01
1225.64
1226.15
1225.75
1226.31
1225.87
1226.5
1226.02
1226.72
1226.2
1226.96
1226.4
1227.24
1226.63
1227.54
1226.88
1227.88
1227.2
1228.26
1227.56
1228.68
1228
1229.12
1228.51
1229.59
1229.07
1230.09
1229.67
1230.6
1230.29
1231.13
1230.93
1231.7
1231.59
1232.3
1232.26
1232.91
1232.95
1233.56
1233.65
1234.22
1234.35
1234.89
1235.07
1235.57
1235.79
1236.27
1236.51
1236.97
1237.23
1237.67
1237.95
1238.36
1238.65
1239.05
1239.35
1239.73
1240.02
1240.38
1240.67
1241.01
1241.3
1241.62
1241.89
1242.2
1242.46
1242.75
1243
1243.27
1243.52
1243.77
1244
1244.24
1244.46
1244.69
1244.89
1245.1
1245.29
1245.48
1245.65
1245.82
1245.97
1246.12
1246.25
1246.37
1246.48
1246.59
1246.67
1246.75
1246.81
1246.86
1246.89
1246.91
1246.91
1246.89
1246.85
1246.79
1246.71
1246.61
1246.51
1246.39
1246.27
1246.13
1245.98
1245.83
1245.67
1245.5
1245.33
1245.14
1244.95
1244.76
1244.56
1244.36
1244.15
1243.94
1243.72
1243.51
1243.29
1243.07
1242.85
1242.63
1242.41
1242.19
1241.97
1241.76
1241.54
1241.33
1241.12
1240.92
1240.71
1240.51
1240.32
1240.13
1239.94
1239.75
1239.57
1239.39
1239.22
1239.04
1238.88
1238.71
1238.55
1238.39
1238.24
1238.09
1237.94
1237.79
1237.65
1237.52
1237.38
1237.25
1237.13
1237.01
1236.89
1236.77
1236.66
1236.55
1236.45
1236.35
1236.25
1236.16
1236.07
1235.98
1235.9
1235.81
1235.74
1235.66
1235.59
1235.52
1235.45
1235.39
1235.33
1235.27
1235.22
1235.17
1235.12
1235.07
1235.03
1234.98
1234.94
1234.9
1234.86
1234.81
1234.77
1234.73
1234.69
1234.65
1234.61
1234.56
1234.52
1234.47
1234.42
1234.36
1234.31
1234.24
1234.18
1234.12
1234.06
1233.99
1233.92
1233.85
1233.78
1233.7
1233.63
1233.55
1233.47
1233.39
1233.3
1233.22
1233.13
1233.04
1232.95
1232.85
1232.75
1232.65
1232.54
1232.43
1232.32
1232.2
1232.08
1231.96
1231.83
1231.7
1231.56
1231.43
1231.29
1231.14
1231
1230.85
1230.69
1230.54
1230.37
1230.21
1230.05
1229.88
1229.7
1229.53
1229.34
1229.16
1228.97
1228.77
1228.57
1228.37
1228.16
1227.95
1227.73
1227.51
1227.28
1227.06
1226.83
1226.6
1226.36
1226.12
1225.87
1225.62
1225.37
1225.11
1224.84
1224.6
1224.27
1224.1
1223.62
1223.64
1222.81
1223.28
1221.69
1223.09
1220.28
1223.21
1218.97
1223.95
1218.44
1225.73
1219.69
1229.12
1223.97
1234.77
1232.64
1245.39
1250.45
1270.05
1297.09
1345.23
1387.13
1381.91
1386.1
1386.31
1387.21
1389.11
1388.63
1390.06
1388.73
1390.54
1128.32
1129.52
1130.62
1133.09
1134.35
1136.59
1137.67
1139.34
1140.19
1141.36
1142.13
1143.12
1143.65
1144.26
1144.91
1145.41
1145.86
1146.45
1146.91
1147.35
1147.75
1148.14
1148.56
1148.96
1149.34
1149.75
1150.15
1150.57
1150.94
1151.32
1151.7
1152.09
1152.49
1152.87
1153.25
1153.62
1153.98
1154.36
1154.73
1155.09
1155.47
1155.84
1156.19
1156.55
1156.92
1157.27
1157.62
1157.96
1158.3
1158.62
1158.93
1159.23
1159.53
1159.8
1160.05
1160.26
1160.43
1160.55
1160.55
1160.39
1159.89
1159.89
1161.74
1163.29
1161.68
1158.25
1157.02
1158.11
1159.54
1160.29
1162.75
1168.21
1173.01
1171.14
1166.2
1163.8
1162.19
1160.12
1164.01
1172.1
1170.23
1160.01
1153.72
1148.59
1141.41
1137.04
1138.26
1137.56
1132.38
1134.05
1147.19
1160.48
1164.1
1160.22
1155.49
1155.27
1163.82
1174.14
1177.62
1176.75
1176.6
1176.73
1176.36
1175.43
1174.29
1177.76
1187.18
1188.94
1182.29
1179.64
1180.82
1180.99
1181.8
1182.54
1182.49
1182.11
1182.96
1182.76
1183.6
1183.3
1183.96
1182.95
1183.57
1180.51
1179.04
1177.28
1175.8
1174.43
1173.11
1172
1170.91
1170.07
1169.26
1168.71
1168.21
1168
1167.8
1168.08
1168.05
1167.46
1167.12
1166.87
1165.52
1164.79
1163.85
1163.17
1162.38
1161.77
1161.13
1160.64
1160.18
1159.79
1159.51
1159.09
1159.12
1158.49
1158.98
1157.97
1159.08
1157.84
1159.71
1158.53
1160.87
1159.89
1162.41
1161.68
1164.55
1164.47
1168.69
1170.24
1175.49
1174.93
1175.2
1176.02
1175.92
1176.87
1176.7
1177.53
1177.36
1178.03
1177.87
1178.39
1178.26
1178.65
1178.54
1178.82
1178.74
1178.93
1178.88
1178.98
1178.95
1179
1178.96
1178.96
1178.92
1178.89
1178.83
1178.79
1178.71
1178.67
1178.59
1178.54
1178.46
1178.4
1178.32
1178.27
1178.19
1178.13
1178.05
1178
1177.91
1177.86
1177.78
1177.74
1177.66
1177.61
1177.54
1177.5
1177.43
1177.4
1177.34
1177.31
1177.24
1177.22
1177.16
1177.15
1177.08
1177.08
1176.99
1177.01
1176.91
1176.95
1176.83
1176.9
1176.77
1176.86
1176.73
1176.84
1176.7
1176.82
1176.67
1176.81
1176.65
1176.8
1176.63
1176.8
1176.62
1176.81
1176.62
1176.84
1176.62
1176.88
1176.64
1176.94
1176.68
1177.02
1176.74
1177.13
1176.82
1177.27
1176.93
1177.43
1177.05
1177.61
1177.21
1177.83
1177.39
1178.07
1177.59
1178.34
1177.83
1178.64
1178.09
1178.97
1178.41
1179.35
1178.78
1179.76
1179.22
1180.21
1179.72
1180.69
1180.27
1181.18
1180.87
1181.7
1181.48
1182.24
1182.11
1182.82
1182.76
1183.42
1183.43
1184.04
1184.12
1184.68
1184.81
1185.35
1185.52
1186.02
1186.23
1186.71
1186.95
1187.41
1187.67
1188.11
1188.39
1188.81
1189.1
1189.5
1189.81
1190.19
1190.5
1190.87
1191.17
1191.52
1191.82
1192.15
1192.44
1192.76
1193.04
1193.34
1193.61
1193.89
1194.15
1194.42
1194.66
1194.92
1195.15
1195.39
1195.61
1195.83
1196.04
1196.24
1196.43
1196.62
1196.79
1196.96
1197.11
1197.26
1197.39
1197.52
1197.63
1197.73
1197.81
1197.89
1197.95
1198
1198.03
1198.05
1198.05
1198.04
1197.99
1197.93
1197.85
1197.76
1197.65
1197.54
1197.41
1197.28
1197.13
1196.98
1196.82
1196.65
1196.47
1196.29
1196.1
1195.91
1195.71
1195.5
1195.29
1195.08
1194.87
1194.65
1194.44
1194.22
1194
1193.78
1193.56
1193.34
1193.12
1192.9
1192.69
1192.48
1192.27
1192.06
1191.86
1191.66
1191.47
1191.27
1191.09
1190.9
1190.72
1190.54
1190.36
1190.19
1190.02
1189.86
1189.7
1189.54
1189.38
1189.23
1189.09
1188.94
1188.8
1188.66
1188.53
1188.4
1188.28
1188.15
1188.04
1187.92
1187.81
1187.7
1187.6
1187.5
1187.4
1187.31
1187.22
1187.13
1187.05
1186.96
1186.89
1186.81
1186.74
1186.67
1186.6
1186.54
1186.48
1186.42
1186.37
1186.32
1186.27
1186.22
1186.17
1186.13
1186.09
1186.05
1186
1185.96
1185.92
1185.88
1185.84
1185.8
1185.75
1185.71
1185.66
1185.62
1185.56
1185.51
1185.45
1185.39
1185.33
1185.27
1185.21
1185.14
1185.07
1185
1184.93
1184.85
1184.77
1184.7
1184.62
1184.53
1184.45
1184.37
1184.28
1184.19
1184.09
1184
1183.9
1183.79
1183.69
1183.58
1183.46
1183.35
1183.23
1183.1
1182.98
1182.85
1182.71
1182.57
1182.43
1182.29
1182.14
1181.99
1181.84
1181.68
1181.52
1181.36
1181.19
1181.02
1180.85
1180.67
1180.49
1180.31
1180.11
1179.92
1179.72
1179.52
1179.31
1179.1
1178.88
1178.66
1178.43
1178.2
1177.97
1177.74
1177.51
1177.27
1177.02
1176.77
1176.51
1176.26
1175.99
1175.74
1175.42
1175.25
1174.77
1174.78
1173.98
1174.38
1172.91
1174.12
1171.61
1174.15
1170.45
1174.78
1170.09
1176.47
1171.5
1179.81
1175.85
1185.57
1184.63
1196.49
1202.84
1222.23
1249.42
1294.14
1334.14
1332.87
1337.09
1337.45
1338.37
1340.29
1339.82
1341.22
1339.71
1341.45
1079.31
1080.59
1081.73
1084.23
1085.51
1087.74
1088.82
1090.48
1091.33
1092.53
1093.27
1094.25
1094.79
1095.41
1096.03
1096.55
1097
1097.57
1098.04
1098.49
1098.9
1099.29
1099.71
1100.11
1100.49
1100.9
1101.3
1101.72
1102.1
1102.47
1102.86
1103.24
1103.64
1104.03
1104.4
1104.77
1105.13
1105.51
1105.89
1106.24
1106.62
1106.98
1107.34
1107.7
1108.07
1108.42
1108.77
1109.11
1109.45
1109.77
1110.08
1110.38
1110.68
1110.95
1111.2
1111.42
1111.59
1111.7
1111.74
1111.6
1111.32
1111.46
1112.96
1113.97
1112.69
1110.14
1109.31
1110.07
1111.17
1112.07
1114.66
1119.19
1122.7
1121.32
1117.71
1115.46
1113.86
1112.72
1116.07
1121.43
1119.59
1111.96
1106.27
1101.14
1095.32
1091.76
1091.51
1090.33
1087.54
1089.96
1099.97
1110.44
1114.28
1111.91
1108.91
1109.58
1116.27
1124.22
1127.73
1127.79
1127.89
1128.03
1127.73
1126.99
1126.68
1130.08
1136.93
1138.13
1133.67
1131.57
1132.16
1132.3
1133.07
1133.82
1133.89
1133.57
1134.36
1134.24
1135.02
1134.76
1135.33
1134.26
1134.59
1131.71
1130.19
1128.42
1126.93
1125.6
1124.28
1123.17
1122.09
1121.24
1120.43
1119.89
1119.38
1119.17
1118.98
1119.2
1119.14
1118.62
1118.24
1117.94
1116.68
1115.94
1115.01
1114.33
1113.54
1112.93
1112.3
1111.8
1111.34
1110.94
1110.67
1110.25
1110.27
1109.66
1110.11
1109.17
1110.21
1109.09
1110.82
1109.79
1111.96
1111.14
1113.51
1112.95
1115.69
1115.8
1119.86
1121.43
1126.26
1126.03
1126.37
1127.13
1127.09
1127.98
1127.87
1128.65
1128.52
1129.15
1129.03
1129.52
1129.42
1129.78
1129.7
1129.96
1129.9
1130.06
1130.03
1130.12
1130.1
1130.14
1130.11
1130.11
1130.06
1130.04
1129.97
1129.94
1129.86
1129.82
1129.74
1129.69
1129.6
1129.55
1129.47
1129.42
1129.33
1129.28
1129.2
1129.15
1129.06
1129.01
1128.93
1128.88
1128.81
1128.76
1128.69
1128.65
1128.58
1128.55
1128.49
1128.45
1128.4
1128.37
1128.31
1128.29
1128.23
1128.22
1128.14
1128.16
1128.06
1128.1
1127.99
1128.05
1127.93
1128.01
1127.88
1127.98
1127.85
1127.96
1127.83
1127.95
1127.81
1127.94
1127.79
1127.94
1127.78
1127.95
1127.77
1127.98
1127.78
1128.02
1127.8
1128.08
1127.84
1128.16
1127.9
1128.27
1127.98
1128.4
1128.1
1128.56
1128.23
1128.74
1128.38
1128.96
1128.56
1129.19
1128.77
1129.46
1129.01
1129.76
1129.27
1130.09
1129.59
1130.47
1129.96
1130.88
1130.4
1131.33
1130.9
1131.81
1131.46
1132.31
1132.05
1132.83
1132.65
1133.37
1133.28
1133.95
1133.93
1134.55
1134.6
1135.18
1135.28
1135.82
1135.97
1136.49
1136.68
1137.16
1137.39
1137.85
1138.11
1138.55
1138.82
1139.25
1139.54
1139.95
1140.26
1140.65
1140.96
1141.34
1141.65
1142.02
1142.32
1142.67
1142.97
1143.3
1143.59
1143.91
1144.19
1144.49
1144.76
1145.04
1145.3
1145.57
1145.81
1146.07
1146.3
1146.54
1146.76
1146.98
1147.19
1147.39
1147.58
1147.77
1147.94
1148.11
1148.26
1148.41
1148.54
1148.67
1148.78
1148.88
1148.96
1149.04
1149.1
1149.15
1149.18
1149.2
1149.2
1149.18
1149.14
1149.08
1149
1148.91
1148.8
1148.69
1148.56
1148.42
1148.28
1148.13
1147.96
1147.8
1147.62
1147.44
1147.25
1147.06
1146.86
1146.65
1146.44
1146.23
1146.02
1145.8
1145.59
1145.37
1145.15
1144.93
1144.71
1144.49
1144.27
1144.05
1143.84
1143.63
1143.42
1143.22
1143.01
1142.81
1142.62
1142.43
1142.24
1142.05
1141.87
1141.69
1141.52
1141.35
1141.18
1141.01
1140.85
1140.69
1140.54
1140.39
1140.24
1140.1
1139.95
1139.82
1139.68
1139.55
1139.43
1139.31
1139.19
1139.07
1138.96
1138.86
1138.75
1138.65
1138.56
1138.46
1138.37
1138.28
1138.2
1138.12
1138.04
1137.96
1137.89
1137.82
1137.76
1137.69
1137.63
1137.57
1137.52
1137.47
1137.42
1137.37
1137.33
1137.28
1137.24
1137.2
1137.16
1137.11
1137.07
1137.03
1136.99
1136.95
1136.91
1136.86
1136.82
1136.77
1136.72
1136.66
1136.61
1136.55
1136.48
1136.42
1136.36
1136.29
1136.22
1136.15
1136.08
1136
1135.93
1135.85
1135.77
1135.69
1135.6
1135.52
1135.43
1135.34
1135.25
1135.15
1135.05
1134.95
1134.84
1134.73
1134.62
1134.5
1134.38
1134.26
1134.13
1134
1133.86
1133.73
1133.59
1133.44
1133.3
1133.15
1132.99
1132.84
1132.68
1132.51
1132.35
1132.18
1132
1131.83
1131.64
1131.46
1131.27
1131.07
1130.87
1130.67
1130.46
1130.25
1130.03
1129.81
1129.58
1129.36
1129.13
1128.9
1128.66
1128.42
1128.17
1127.92
1127.67
1127.41
1127.14
1126.9
1126.58
1126.4
1125.93
1125.92
1125.14
1125.51
1124.11
1125.23
1122.86
1125.22
1121.79
1125.81
1121.54
1127.47
1123.06
1130.81
1127.5
1136.7
1136.43
1147.94
1154.96
1174.31
1201.16
1241.97
1280.87
1283.13
1287.71
1288.34
1289.28
1291.35
1290.85
1292.34
1290.73
1292.63
1030.2
1031.65
1032.79
1035.37
1036.67
1038.93
1040.02
1041.69
1042.53
1043.72
1044.46
1045.4
1045.95
1046.6
1047.19
1047.71
1048.19
1048.74
1049.2
1049.64
1050.05
1050.44
1050.86
1051.25
1051.65
1052.05
1052.45
1052.86
1053.24
1053.62
1054
1054.39
1054.78
1055.17
1055.54
1055.92
1056.28
1056.66
1057.03
1057.39
1057.76
1058.13
1058.49
1058.85
1059.21
1059.57
1059.92
1060.26
1060.6
1060.92
1061.24
1061.54
1061.84
1062.11
1062.36
1062.58
1062.75
1062.88
1062.93
1062.85
1062.71
1062.98
1064.21
1064.91
1063.85
1061.95
1061.4
1061.99
1062.88
1063.85
1066.33
1070.07
1072.69
1071.67
1068.87
1066.66
1064.96
1064.23
1067.01
1070.56
1068.82
1062.98
1057.92
1053.02
1048.22
1045.27
1044.19
1042.74
1041.47
1044.32
1052.16
1060.46
1064.17
1062.94
1061.25
1062.59
1068.06
1074.31
1077.6
1078.21
1078.57
1078.82
1078.65
1078.14
1078.35
1081.46
1086.58
1087.51
1084.55
1082.88
1083.11
1083.25
1084.06
1084.87
1085.1
1084.92
1085.7
1085.75
1086.48
1086.23
1086.68
1085.61
1085.56
1082.87
1081.29
1079.51
1078.07
1076.75
1075.46
1074.35
1073.28
1072.42
1071.63
1071.08
1070.58
1070.36
1070.18
1070.32
1070.22
1069.76
1069.35
1068.99
1067.84
1067.09
1066.18
1065.48
1064.71
1064.09
1063.47
1062.97
1062.51
1062.11
1061.83
1061.42
1061.42
1060.86
1061.24
1060.42
1061.32
1060.38
1061.91
1061.09
1063.04
1062.44
1064.6
1064.28
1066.85
1067.2
1071.03
1072.68
1076.93
1077.04
1077.52
1078.21
1078.26
1079.08
1079.04
1079.75
1079.69
1080.26
1080.2
1080.64
1080.58
1080.91
1080.86
1081.09
1081.05
1081.2
1081.18
1081.27
1081.24
1081.29
1081.25
1081.26
1081.21
1081.18
1081.12
1081.08
1081.01
1080.97
1080.89
1080.84
1080.76
1080.7
1080.62
1080.57
1080.49
1080.43
1080.35
1080.3
1080.21
1080.16
1080.08
1080.04
1079.96
1079.91
1079.84
1079.8
1079.74
1079.7
1079.64
1079.61
1079.55
1079.52
1079.47
1079.44
1079.38
1079.37
1079.3
1079.3
1079.22
1079.24
1079.15
1079.19
1079.09
1079.15
1079.04
1079.13
1079.01
1079.11
1078.99
1079.09
1078.97
1079.08
1078.95
1079.08
1078.94
1079.09
1078.94
1079.12
1078.95
1079.16
1078.98
1079.22
1079.02
1079.3
1079.08
1079.4
1079.16
1079.53
1079.28
1079.69
1079.41
1079.87
1079.57
1080.08
1079.75
1080.32
1079.96
1080.58
1080.2
1080.87
1080.47
1081.2
1080.79
1081.58
1081.17
1081.99
1081.61
1082.44
1082.11
1082.92
1082.65
1083.42
1083.24
1083.95
1083.84
1084.5
1084.46
1085.08
1085.11
1085.69
1085.77
1086.31
1086.45
1086.96
1087.14
1087.63
1087.84
1088.31
1088.55
1089
1089.27
1089.7
1089.99
1090.4
1090.7
1091.1
1091.42
1091.8
1092.12
1092.49
1092.81
1093.17
1093.48
1093.82
1094.13
1094.45
1094.75
1095.06
1095.34
1095.64
1095.91
1096.19
1096.45
1096.72
1096.96
1097.22
1097.45
1097.69
1097.91
1098.13
1098.34
1098.54
1098.73
1098.92
1099.09
1099.26
1099.41
1099.56
1099.69
1099.82
1099.93
1100.03
1100.11
1100.19
1100.25
1100.3
1100.33
1100.35
1100.35
1100.33
1100.29
1100.23
1100.15
1100.06
1099.95
1099.84
1099.71
1099.58
1099.43
1099.28
1099.12
1098.95
1098.77
1098.59
1098.4
1098.21
1098.01
1097.81
1097.6
1097.39
1097.17
1096.96
1096.74
1096.52
1096.3
1096.08
1095.86
1095.64
1095.43
1095.21
1095
1094.79
1094.58
1094.37
1094.17
1093.97
1093.78
1093.58
1093.39
1093.21
1093.03
1092.85
1092.67
1092.5
1092.33
1092.17
1092.01
1091.85
1091.7
1091.54
1091.4
1091.25
1091.11
1090.98
1090.84
1090.71
1090.59
1090.47
1090.35
1090.23
1090.12
1090.02
1089.91
1089.81
1089.71
1089.62
1089.53
1089.44
1089.36
1089.28
1089.2
1089.12
1089.05
1088.98
1088.92
1088.85
1088.79
1088.73
1088.68
1088.63
1088.58
1088.53
1088.49
1088.44
1088.4
1088.36
1088.32
1088.27
1088.23
1088.19
1088.15
1088.11
1088.07
1088.02
1087.98
1087.93
1087.88
1087.82
1087.77
1087.71
1087.65
1087.58
1087.52
1087.45
1087.38
1087.31
1087.24
1087.16
1087.09
1087.01
1086.93
1086.85
1086.76
1086.68
1086.59
1086.5
1086.41
1086.31
1086.21
1086.11
1086
1085.89
1085.78
1085.66
1085.54
1085.42
1085.29
1085.16
1085.02
1084.89
1084.75
1084.61
1084.46
1084.31
1084.15
1084
1083.84
1083.68
1083.51
1083.34
1083.17
1082.99
1082.81
1082.62
1082.43
1082.23
1082.03
1081.83
1081.62
1081.41
1081.19
1080.97
1080.75
1080.52
1080.29
1080.06
1079.82
1079.58
1079.34
1079.09
1078.83
1078.57
1078.3
1078.06
1077.74
1077.56
1077.1
1077.07
1076.33
1076.64
1075.34
1076.31
1074.19
1076.24
1073.26
1076.78
1073.16
1078.4
1074.84
1081.78
1079.4
1087.85
1088.55
1099.55
1107.61
1126.86
1153.41
1190.88
1227.31
1232.91
1238.01
1239.08
1240.05
1242.21
1241.82
1243.42
1241.81
1243.68
981.022
982.642
983.824
986.503
987.827
990.115
991.193
992.866
993.71
994.906
995.626
996.555
997.117
997.755
998.33
998.864
999.334
999.87
1000.34
1000.78
1001.2
1001.6
1002.01
1002.41
1002.8
1003.2
1003.6
1004.01
1004.39
1004.77
1005.16
1005.54
1005.94
1006.32
1006.69
1007.07
1007.43
1007.81
1008.18
1008.54
1008.91
1009.28
1009.64
1010
1010.36
1010.71
1011.07
1011.41
1011.75
1012.07
1012.39
1012.69
1012.99
1013.26
1013.52
1013.74
1013.92
1014.05
1014.13
1014.1
1014.11
1014.45
1015.51
1016.01
1015.21
1013.75
1013.38
1013.82
1014.6
1015.55
1017.86
1020.9
1022.86
1021.96
1019.65
1017.38
1015.51
1014.8
1016.9
1019.2
1017.7
1013.19
1008.83
1004.39
1000.33
997.665
996.143
994.688
994.341
997.267
1003.6
1010.33
1013.82
1013.46
1012.81
1014.49
1019.05
1024.11
1027.18
1028.16
1028.69
1029
1029.01
1028.81
1029.42
1032.19
1036.06
1036.82
1034.88
1033.59
1033.7
1033.92
1034.8
1035.66
1036.1
1036.12
1036.98
1037.22
1038
1037.75
1038.04
1036.94
1036.64
1034.05
1032.36
1030.57
1029.18
1027.9
1026.64
1025.53
1024.47
1023.61
1022.83
1022.27
1021.77
1021.55
1021.36
1021.43
1021.33
1020.9
1020.47
1020.06
1019
1018.25
1017.35
1016.64
1015.89
1015.26
1014.65
1014.15
1013.69
1013.28
1013
1012.6
1012.58
1012.05
1012.38
1011.65
1012.46
1011.65
1013.03
1012.37
1014.16
1013.72
1015.73
1015.59
1018.03
1018.57
1022.18
1023.84
1027.7
1028.08
1028.65
1029.3
1029.42
1030.18
1030.2
1030.87
1030.85
1031.39
1031.36
1031.77
1031.74
1032.04
1032.01
1032.23
1032.21
1032.35
1032.33
1032.41
1032.39
1032.43
1032.4
1032.41
1032.36
1032.34
1032.27
1032.24
1032.16
1032.12
1032.04
1031.99
1031.91
1031.86
1031.78
1031.72
1031.64
1031.59
1031.51
1031.45
1031.37
1031.32
1031.24
1031.19
1031.12
1031.07
1031
1030.96
1030.89
1030.86
1030.79
1030.76
1030.7
1030.68
1030.62
1030.6
1030.54
1030.53
1030.46
1030.46
1030.38
1030.4
1030.31
1030.35
1030.25
1030.31
1030.21
1030.28
1030.18
1030.26
1030.15
1030.24
1030.14
1030.24
1030.12
1030.23
1030.11
1030.24
1030.11
1030.27
1030.12
1030.31
1030.15
1030.36
1030.19
1030.44
1030.25
1030.55
1030.34
1030.68
1030.46
1030.83
1030.59
1031.01
1030.75
1031.22
1030.94
1031.45
1031.15
1031.71
1031.39
1032.01
1031.67
1032.33
1031.99
1032.7
1032.37
1033.12
1032.81
1033.57
1033.3
1034.05
1033.85
1034.56
1034.43
1035.09
1035.02
1035.64
1035.65
1036.22
1036.29
1036.83
1036.95
1037.46
1037.62
1038.11
1038.31
1038.78
1039.01
1039.46
1039.72
1040.15
1040.44
1040.85
1041.15
1041.55
1041.87
1042.26
1042.58
1042.96
1043.28
1043.65
1043.97
1044.32
1044.64
1044.98
1045.28
1045.61
1045.9
1046.22
1046.5
1046.8
1047.07
1047.35
1047.61
1047.88
1048.12
1048.38
1048.61
1048.85
1049.07
1049.29
1049.49
1049.7
1049.89
1050.08
1050.25
1050.42
1050.57
1050.72
1050.85
1050.97
1051.08
1051.18
1051.27
1051.34
1051.4
1051.45
1051.49
1051.5
1051.5
1051.49
1051.44
1051.38
1051.3
1051.21
1051.11
1050.99
1050.87
1050.73
1050.59
1050.44
1050.28
1050.11
1049.93
1049.75
1049.56
1049.37
1049.17
1048.97
1048.76
1048.55
1048.33
1048.12
1047.9
1047.69
1047.47
1047.25
1047.03
1046.81
1046.59
1046.38
1046.16
1045.95
1045.74
1045.54
1045.34
1045.14
1044.94
1044.75
1044.56
1044.38
1044.19
1044.02
1043.84
1043.67
1043.5
1043.34
1043.17
1043.02
1042.86
1042.71
1042.56
1042.42
1042.28
1042.14
1042.01
1041.88
1041.75
1041.63
1041.52
1041.4
1041.29
1041.18
1041.08
1040.98
1040.88
1040.79
1040.7
1040.61
1040.53
1040.45
1040.37
1040.29
1040.22
1040.15
1040.09
1040.02
1039.96
1039.91
1039.85
1039.8
1039.75
1039.7
1039.66
1039.61
1039.57
1039.53
1039.49
1039.44
1039.4
1039.36
1039.32
1039.28
1039.24
1039.19
1039.15
1039.1
1039.05
1038.99
1038.94
1038.88
1038.82
1038.75
1038.69
1038.62
1038.55
1038.48
1038.41
1038.34
1038.26
1038.18
1038.1
1038.02
1037.94
1037.85
1037.76
1037.67
1037.58
1037.48
1037.38
1037.28
1037.17
1037.07
1036.95
1036.84
1036.71
1036.59
1036.46
1036.33
1036.2
1036.06
1035.92
1035.78
1035.63
1035.48
1035.33
1035.17
1035.01
1034.85
1034.68
1034.51
1034.34
1034.16
1033.98
1033.8
1033.6
1033.41
1033.21
1033.01
1032.8
1032.59
1032.37
1032.15
1031.92
1031.7
1031.47
1031.24
1031
1030.76
1030.51
1030.27
1030.01
1029.75
1029.48
1029.24
1028.92
1028.73
1028.29
1028.24
1027.53
1027.79
1026.58
1027.44
1025.51
1027.35
1024.68
1027.86
1024.72
1029.49
1026.53
1032.92
1031.24
1039.2
1040.64
1051.36
1060.15
1079.23
1105.05
1139.49
1173.88
1182.15
1187.87
1189.53
1190.52
1192.87
1192.54
1194.41
1192.9
1195.03
931.744
933.6
934.817
937.626
938.978
941.305
942.385
944.066
944.908
946.102
946.813
947.726
948.287
948.936
949.499
950.029
950.507
951.035
951.492
951.939
952.355
952.753
953.163
953.559
953.952
954.355
954.754
955.156
955.539
955.92
956.306
956.692
957.082
957.465
957.841
958.213
958.581
958.955
959.327
959.691
960.062
960.428
960.787
961.15
961.512
961.864
962.216
962.558
962.897
963.222
963.54
963.846
964.147
964.422
964.679
964.904
965.094
965.238
965.343
965.38
965.499
965.925
966.872
967.307
966.724
965.631
965.343
965.649
966.297
967.227
969.276
971.718
973.083
972.16
969.983
967.518
965.32
964.287
965.559
966.984
965.837
962.509
958.95
955.146
951.687
949.111
947.28
945.954
946.152
949.022
954.285
959.825
963.073
963.401
963.544
965.431
969.314
973.476
976.262
977.485
978.209
978.63
978.812
978.887
979.783
982.283
985.316
985.977
984.697
983.709
983.783
984.114
985.147
986.214
986.981
987.243
988.257
988.678
989.583
989.383
989.522
988.336
987.722
985.15
983.336
981.573
980.271
979.054
977.83
976.721
975.674
974.817
974.032
973.473
972.975
972.75
972.544
972.56
972.434
972.029
971.585
971.136
970.148
969.397
968.521
967.809
967.065
966.442
965.828
965.327
964.869
964.465
964.176
963.788
963.74
963.26
963.534
962.894
963.604
962.942
964.172
963.672
965.287
965.016
966.881
966.914
969.232
969.948
973.342
975.029
978.492
979.071
979.755
980.386
980.579
981.285
981.361
981.98
982.01
982.506
982.516
982.896
982.895
983.176
983.168
983.368
983.36
983.493
983.483
983.563
983.546
983.584
983.556
983.559
983.512
983.489
983.428
983.391
983.32
983.275
983.198
983.148
983.067
983.014
982.933
982.881
982.799
982.746
982.664
982.611
982.53
982.479
982.4
982.352
982.278
982.232
982.161
982.121
982.054
982.018
981.956
981.925
981.866
981.84
981.783
981.761
981.701
981.687
981.62
981.617
981.542
981.555
981.473
981.504
981.417
981.464
981.375
981.436
981.346
981.415
981.324
981.401
981.306
981.392
981.291
981.39
981.282
981.399
981.283
981.421
981.296
981.459
981.325
981.517
981.37
981.594
981.436
981.696
981.525
981.824
981.642
981.977
981.78
982.155
981.944
982.36
982.133
982.592
982.349
982.851
982.592
983.142
982.87
983.47
983.195
983.838
983.574
984.25
984.011
984.7
984.506
985.184
985.046
985.696
985.62
986.229
986.216
986.789
986.833
987.375
987.471
987.985
988.128
988.618
988.802
989.27
989.49
989.939
990.189
990.62
990.896
991.312
991.609
992.013
992.323
992.716
993.036
993.421
993.744
994.123
994.445
994.812
995.131
995.487
995.802
996.144
996.448
996.775
997.068
997.38
997.663
997.96
998.231
998.513
998.772
999.039
999.286
999.539
999.772
1000.01
1000.23
1000.45
1000.66
1000.86
1001.05
1001.24
1001.41
1001.58
1001.73
1001.88
1002.01
1002.14
1002.25
1002.35
1002.43
1002.51
1002.57
1002.62
1002.65
1002.67
1002.67
1002.65
1002.6
1002.55
1002.47
1002.38
1002.27
1002.16
1002.03
1001.9
1001.76
1001.6
1001.44
1001.28
1001.1
1000.92
1000.73
1000.54
1000.34
1000.14
999.929
999.72
999.505
999.292
999.074
998.857
998.637
998.42
998.2
997.983
997.765
997.55
997.336
997.126
996.917
996.713
996.511
996.313
996.118
995.926
995.737
995.553
995.371
995.194
995.018
994.847
994.679
994.515
994.353
994.196
994.041
993.89
993.743
993.6
993.46
993.323
993.19
993.061
992.935
992.814
992.696
992.583
992.472
992.365
992.262
992.163
992.065
991.972
991.882
991.795
991.711
991.629
991.552
991.476
991.405
991.335
991.269
991.205
991.145
991.088
991.034
990.982
990.933
990.886
990.84
990.796
990.753
990.711
990.669
990.627
990.586
990.546
990.505
990.462
990.42
990.375
990.33
990.281
990.23
990.176
990.121
990.061
990.001
989.938
989.874
989.807
989.739
989.668
989.595
989.521
989.445
989.367
989.288
989.206
989.123
989.037
988.949
988.859
988.766
988.67
988.57
988.467
988.361
988.253
988.139
988.024
987.902
987.778
987.65
987.521
987.385
987.251
987.111
986.969
986.822
986.673
986.518
986.362
986.201
986.04
985.873
985.705
985.531
985.354
985.172
984.986
984.795
984.601
984.401
984.199
983.991
983.78
983.562
983.342
983.116
982.89
982.66
982.43
982.193
981.955
981.707
981.459
981.203
980.948
980.678
980.43
980.12
979.922
979.491
979.423
978.75
978.956
977.847
978.58
976.864
978.469
976.159
978.974
976.348
980.623
978.314
984.14
983.189
990.668
992.894
1003.34
1012.92
1031.75
1056.91
1088.6
1120.88
1131.1
1137.49
1139.78
1140.81
1143.3
1143.14
1145.22
1144.07
1146.4
882.371
884.539
885.815
888.782
890.166
892.526
893.597
895.276
896.104
897.292
897.989
898.888
899.456
900.101
900.65
901.188
901.664
902.181
902.639
903.085
903.503
903.905
904.314
904.711
905.106
905.507
905.906
906.306
906.691
907.074
907.459
907.844
908.234
908.616
908.991
909.364
909.733
910.106
910.477
910.842
911.212
911.578
911.938
912.3
912.661
913.014
913.365
913.707
914.047
914.373
914.694
915
915.303
915.58
915.841
916.071
916.271
916.427
916.563
916.665
916.883
917.392
918.287
918.74
918.376
917.567
917.311
917.476
917.987
918.857
920.636
922.564
923.419
922.348
920.052
917.179
914.434
912.778
913.106
913.825
913.082
910.93
908.392
905.328
902.318
899.725
897.662
896.42
896.903
899.666
904.176
908.821
911.848
912.76
913.53
915.513
918.858
922.376
924.908
926.25
927.128
927.71
928.104
928.435
929.536
931.812
934.297
934.921
934.103
933.346
933.455
933.932
935.179
936.536
937.697
938.274
939.497
940.159
941.194
941.115
941.201
939.868
938.834
936.158
934.232
932.536
931.351
930.207
929.019
927.918
926.88
926.025
925.24
924.681
924.178
923.949
923.723
923.689
923.548
923.156
922.701
922.227
921.3
920.551
919.695
918.981
918.247
917.624
917.016
916.514
916.057
915.653
915.36
914.981
914.914
914.47
914.7
914.14
914.771
914.223
915.332
914.962
916.443
916.308
918.054
918.238
920.448
921.303
924.493
926.179
929.336
930.081
930.851
931.474
931.729
932.393
932.518
933.098
933.168
933.634
933.674
934.031
934.05
934.318
934.323
934.515
934.515
934.644
934.638
934.716
934.702
934.739
934.712
934.715
934.669
934.647
934.587
934.551
934.48
934.436
934.359
934.31
934.229
934.177
934.096
934.043
933.962
933.909
933.828
933.775
933.695
933.644
933.566
933.517
933.443
933.398
933.328
933.287
933.221
933.185
933.124
933.093
933.034
933.007
932.95
932.928
932.869
932.854
932.789
932.784
932.713
932.722
932.646
932.669
932.591
932.63
932.551
932.601
932.521
932.58
932.499
932.566
932.482
932.557
932.468
932.555
932.461
932.563
932.463
932.585
932.478
932.623
932.508
932.68
932.556
932.757
932.623
932.857
932.716
932.985
932.834
933.137
932.974
933.313
933.14
933.517
933.331
933.746
933.549
934.004
933.795
934.295
934.077
934.621
934.403
934.988
934.783
935.399
935.22
935.85
935.712
936.335
936.249
936.85
936.82
937.386
937.412
937.948
938.027
938.537
938.663
939.149
939.318
939.784
939.99
940.438
940.676
941.107
941.373
941.79
942.078
942.484
942.789
943.185
943.501
943.89
944.213
944.596
944.921
945.296
945.619
945.986
946.306
946.661
946.975
947.316
947.621
947.948
948.241
948.554
948.836
949.133
949.405
949.685
949.944
950.212
950.459
950.712
950.945
951.184
951.403
951.626
951.831
952.037
952.226
952.414
952.586
952.754
952.906
953.053
953.185
953.31
953.418
953.519
953.604
953.679
953.739
953.788
953.819
953.837
953.836
953.817
953.776
953.718
953.641
953.551
953.448
953.334
953.209
953.075
952.932
952.78
952.619
952.452
952.278
952.097
951.909
951.718
951.519
951.317
951.11
950.901
950.687
950.474
950.257
950.041
949.821
949.604
949.385
949.168
948.951
948.737
948.523
948.313
948.105
947.901
947.7
947.502
947.306
947.115
946.927
946.743
946.561
946.384
946.208
946.038
945.869
945.705
945.544
945.387