/*--------------------------------*- C++ -*----------------------------------*\
| =========                 |                                                 |
| \\      /  F ield         | foam-extend: Open Source CFD                    |
|  \\    /   O peration     | Version:     3.2                                |
|   \\  /    A nd           | Web:         http://www.foam-extend.org         |
|    \\/     M anipulation  | For copyright notice see file Copyright         |
\*---------------------------------------------------------------------------*/
FoamFile
{
    version     2.0;
    format      ascii;
    class       surfaceScalarField;
    location    "1440";
    object      phi;
}
// * * * * * * * * * * * * * * * * * * * * * * * * * * * * * * * * * * * * * //

dimensions      [0 3 -1 0 0 0 0];

internalField   nonuniform List<scalar> 
65390
(
3.74908e-05
5.09248e-07
3.6965e-05
5.25752e-07
3.62834e-05
6.81617e-07
3.55943e-05
6.89049e-07
3.48691e-05
7.25263e-07
3.41883e-05
6.80812e-07
3.35147e-05
6.73529e-07
3.28869e-05
6.27859e-07
3.22748e-05
6.12099e-07
3.16836e-05
5.91211e-07
3.11138e-05
5.69711e-07
3.05868e-05
5.27088e-07
3.00703e-05
5.16446e-07
2.95753e-05
4.95037e-07
2.91044e-05
4.70896e-07
2.86507e-05
4.53634e-07
2.82132e-05
4.3759e-07
2.77962e-05
4.16971e-07
2.73987e-05
3.97498e-07
2.70218e-05
3.7693e-07
2.66577e-05
3.64015e-07
2.63072e-05
3.50556e-07
2.59736e-05
3.33633e-07
2.56552e-05
3.18351e-07
2.53537e-05
3.01495e-07
2.50661e-05
2.87652e-07
2.47958e-05
2.70235e-07
2.45431e-05
2.52719e-07
2.43041e-05
2.39046e-07
2.40775e-05
2.2654e-07
2.38611e-05
2.16454e-07
2.36556e-05
2.05434e-07
2.34625e-05
1.93088e-07
2.32805e-05
1.82009e-07
2.31102e-05
1.70357e-07
2.29488e-05
1.61351e-07
2.27945e-05
1.54285e-07
2.2651e-05
1.43489e-07
2.25158e-05
1.35275e-07
2.2386e-05
1.29775e-07
2.22662e-05
1.19778e-07
2.21539e-05
1.12316e-07
2.20459e-05
1.07992e-07
2.19448e-05
1.01094e-07
2.18503e-05
9.45047e-08
2.17613e-05
8.90042e-08
2.16775e-05
8.38105e-08
2.15981e-05
7.94016e-08
2.15246e-05
7.35356e-08
2.14562e-05
6.83319e-08
2.13896e-05
6.66341e-08
2.13262e-05
6.34284e-08
2.12668e-05
5.93354e-08
2.12107e-05
5.6107e-08
2.11579e-05
5.28218e-08
2.11076e-05
5.0278e-08
2.10588e-05
4.87847e-08
2.10185e-05
4.03909e-08
2.09701e-05
4.82778e-08
2.09387e-05
3.35573e-08
2.08859e-05
5.14748e-08
2.08322e-05
4.57045e-08
2.07965e-05
3.82916e-08
2.07943e-05
1.77982e-08
2.07363e-05
5.84819e-08
2.0645e-05
7.18427e-08
2.05874e-05
5.28123e-08
2.05906e-05
1.83789e-08
2.05477e-05
4.84219e-08
2.04602e-05
6.04198e-08
2.0399e-05
4.31129e-08
2.04463e-05
-2.3962e-08
2.05165e-05
-2.79958e-08
2.04505e-05
5.96092e-08
2.02812e-05
1.31199e-07
2.018e-05
9.97572e-08
2.01113e-05
8.04205e-08
2.00034e-05
8.59312e-08
1.99326e-05
6.2146e-08
2.00397e-05
-4.09043e-08
2.00163e-05
3.92518e-08
1.97887e-05
1.61503e-07
1.96893e-05
9.2213e-08
1.97003e-05
1.09782e-08
1.96912e-05
8.62162e-09
1.96638e-05
2.73879e-08
1.9658e-05
5.84048e-09
1.96967e-05
-3.84558e-08
1.96827e-05
1.24756e-08
1.9647e-05
3.51389e-08
1.96623e-05
-1.248e-08
1.97036e-05
-4.07608e-08
1.97052e-05
-3.27513e-09
1.97059e-05
-9.75941e-10
1.97131e-05
-7.03903e-09
1.96918e-05
2.12299e-08
1.96831e-05
8.9564e-09
1.97183e-05
-3.52255e-08
1.97201e-05
-2.10029e-09
1.96984e-05
2.16267e-08
1.96917e-05
6.90039e-09
1.96997e-05
-8.0368e-09
1.96912e-05
8.48698e-09
1.96943e-05
-2.82404e-09
1.96672e-05
6.35207e-09
1.96726e-05
-1.61276e-08
1.98417e-05
-1.05439e-07
1.99125e-05
-5.00632e-08
1.97439e-05
1.04849e-07
1.96798e-05
5.45745e-08
1.97128e-05
-1.18963e-08
1.97107e-05
1.45655e-09
1.96889e-05
2.22208e-08
1.97166e-05
-2.72808e-08
1.97115e-05
4.73202e-09
1.97165e-05
-5.10952e-09
1.9697e-05
1.94569e-08
1.96874e-05
9.3753e-09
1.96473e-05
4.02018e-08
1.96867e-05
-3.95193e-08
1.96193e-05
6.60397e-08
1.96095e-05
1.05605e-08
1.9742e-05
-1.29964e-07
1.9919e-05
-1.77235e-07
2.00108e-05
-9.28274e-08
2.00694e-05
-5.85912e-08
2.01164e-05
-4.70013e-08
2.01503e-05
-3.38986e-08
2.01819e-05
-3.16645e-08
2.02016e-05
-1.96781e-08
2.02204e-05
-1.88111e-08
2.02262e-05
-5.72997e-09
2.02322e-05
-5.99222e-09
2.0219e-05
1.32009e-08
2.02163e-05
2.66328e-09
2.01837e-05
3.2538e-08
2.01118e-05
7.19291e-08
2.0074e-05
3.78195e-08
2.00815e-05
-7.52126e-09
2.00601e-05
2.13638e-08
2.00397e-05
2.04815e-08
2.00703e-05
-3.06524e-08
2.01165e-05
-4.61851e-08
2.01288e-05
-1.22741e-08
2.01421e-05
-1.32851e-08
2.01499e-05
-7.85452e-09
2.01569e-05
-6.99017e-09
2.01562e-05
6.86761e-10
2.01547e-05
1.55216e-09
2.01464e-05
8.31611e-09
2.0136e-05
1.0349e-08
2.01306e-05
5.39537e-09
2.01134e-05
1.71994e-08
2.01086e-05
4.81493e-09
2.00827e-05
2.59282e-08
2.00863e-05
-3.67875e-09
2.00574e-05
2.89147e-08
2.00674e-05
-1.00097e-08
2.00264e-05
4.1021e-08
2.00251e-05
1.36122e-09
1.99606e-05
6.44669e-08
1.99487e-05
1.18558e-08
1.98745e-05
7.42231e-08
1.98668e-05
7.66119e-09
1.98016e-05
6.52057e-08
1.98067e-05
-5.02818e-09
1.97217e-05
8.49571e-08
1.96978e-05
2.39268e-08
1.94108e-05
2.86946e-07
1.90692e-05
3.41674e-07
1.89915e-05
7.76315e-08
1.91044e-05
-1.12911e-07
1.91234e-05
-1.90012e-08
1.91117e-05
1.17797e-08
1.9115e-05
-3.34681e-09
1.90955e-05
1.94757e-08
1.90965e-05
-9.45058e-10
1.90794e-05
1.70356e-08
1.90806e-05
-1.15363e-09
1.90671e-05
1.3482e-08
1.90689e-05
-1.80389e-09
1.90587e-05
1.02453e-08
1.9061e-05
-2.27844e-09
1.90535e-05
7.50452e-09
1.9056e-05
-2.54567e-09
1.90503e-05
5.68963e-09
1.90528e-05
-2.54094e-09
1.90484e-05
4.45936e-09
1.90512e-05
-2.77611e-09
1.90486e-05
2.59468e-09
1.90509e-05
-2.36194e-09
1.90501e-05
7.88432e-10
1.9053e-05
-2.83361e-09
1.90538e-05
-8.1218e-10
1.90571e-05
-3.27382e-09
1.90581e-05
-9.9814e-10
1.90613e-05
-3.19013e-09
1.90624e-05
-1.10393e-09
1.90652e-05
-2.86287e-09
1.90659e-05
-6.97038e-10
1.90686e-05
-2.64368e-09
1.90691e-05
-5.24734e-10
1.90713e-05
-2.23659e-09
1.90714e-05
-7.021e-11
1.90735e-05
-2.06571e-09
1.90732e-05
2.40082e-10
1.90749e-05
-1.69971e-09
1.90746e-05
2.96924e-10
1.90764e-05
-1.77606e-09
1.90761e-05
2.54239e-10
1.90777e-05
-1.57427e-09
1.90775e-05
2.50723e-10
1.90789e-05
-1.40593e-09
1.90783e-05
5.48565e-10
1.90797e-05
-1.40783e-09
1.90792e-05
5.58104e-10
1.90802e-05
-9.97212e-10
1.90793e-05
8.53555e-10
1.90803e-05
-9.77186e-10
1.90794e-05
8.47793e-10
1.90806e-05
-1.1044e-09
1.90796e-05
9.4507e-10
1.90806e-05
-1.04327e-09
1.90796e-05
1.06145e-09
1.90811e-05
-1.52929e-09
1.90802e-05
9.07426e-10
1.9082e-05
-1.8182e-09
1.90812e-05
8.17149e-10
1.90834e-05
-2.23231e-09
1.90827e-05
7.60875e-10
1.9085e-05
-2.36784e-09
1.9084e-05
1.07688e-09
1.90865e-05
-2.57398e-09
1.90849e-05
1.62049e-09
1.90876e-05
-2.65661e-09
1.90857e-05
1.88591e-09
1.90884e-05
-2.74907e-09
1.90861e-05
2.38536e-09
1.90888e-05
-2.74337e-09
1.90862e-05
2.56913e-09
1.90892e-05
-2.9865e-09
1.90863e-05
2.89085e-09
1.90898e-05
-3.43876e-09
1.90868e-05
2.94261e-09
1.90905e-05
-3.71645e-09
1.90872e-05
3.32951e-09
1.90912e-05
-3.94096e-09
1.90873e-05
3.8401e-09
1.90918e-05
-4.44719e-09
1.90874e-05
4.35429e-09
1.90923e-05
-4.93053e-09
1.90873e-05
4.99025e-09
1.90929e-05
-5.54701e-09
1.9087e-05
5.86123e-09
1.90932e-05
-6.17987e-09
1.90866e-05
6.60277e-09
1.90933e-05
-6.64932e-09
1.90854e-05
7.81562e-09
1.90923e-05
-6.84089e-09
1.90832e-05
9.08078e-09
1.90909e-05
-7.68732e-09
1.90811e-05
9.82985e-09
1.90893e-05
-8.25883e-09
1.90782e-05
1.1156e-08
1.90869e-05
-8.76536e-09
1.90745e-05
1.24079e-08
1.9084e-05
-9.47678e-09
1.90703e-05
1.36566e-08
1.90806e-05
-1.02808e-08
1.90656e-05
1.49793e-08
1.90766e-05
-1.09941e-08
1.90605e-05
1.61416e-08
1.90719e-05
-1.13873e-08
1.90542e-05
1.76698e-08
1.90656e-05
-1.13941e-08
1.90469e-05
1.86939e-08
1.90576e-05
-1.06725e-08
1.9038e-05
1.95597e-08
1.90475e-05
-9.49292e-09
1.90281e-05
1.94325e-08
1.90364e-05
-8.35325e-09
1.90177e-05
1.87197e-08
1.90241e-05
-6.34012e-09
1.90065e-05
1.75684e-08
1.90119e-05
-5.42858e-09
1.89964e-05
1.55148e-08
1.90002e-05
-3.77602e-09
1.89858e-05
1.43842e-08
1.89878e-05
-2.00786e-09
1.89748e-05
1.30511e-08
1.89758e-05
-1.05264e-09
1.89632e-05
1.25719e-08
1.89634e-05
-1.31682e-10
1.89518e-05
1.15765e-08
1.89507e-05
1.12844e-09
1.89402e-05
1.04683e-08
1.89384e-05
1.81343e-09
1.89286e-05
9.7954e-09
1.89267e-05
1.86165e-09
1.89172e-05
9.51407e-09
1.89149e-05
2.32635e-09
1.89058e-05
9.04889e-09
1.89033e-05
2.50662e-09
1.88952e-05
8.121e-09
1.88928e-05
2.39196e-09
1.88852e-05
7.66334e-09
1.88827e-05
2.49627e-09
1.88754e-05
7.27423e-09
1.88734e-05
1.99719e-09
1.8867e-05
6.38744e-09
1.88651e-05
1.86964e-09
1.88598e-05
5.29931e-09
1.8858e-05
1.84449e-09
1.88532e-05
4.81529e-09
1.88519e-05
1.26489e-09
1.88485e-05
3.4342e-09
1.88475e-05
1.0179e-09
1.88448e-05
2.60542e-09
1.88445e-05
3.26882e-10
1.88425e-05
2.00245e-09
1.88423e-05
2.46184e-10
1.88408e-05
1.47507e-09
1.88412e-05
-4.4357e-10
1.88401e-05
1.11071e-09
1.88406e-05
-4.56588e-10
1.88397e-05
8.85531e-10
1.88403e-05
-6.31934e-10
1.88402e-05
9.10667e-11
1.8841e-05
-7.5547e-10
1.88408e-05
2.05014e-10
1.88416e-05
-8.27559e-10
1.88421e-05
-4.79219e-10
1.88431e-05
-1.05271e-09
1.88436e-05
-4.07739e-10
1.8845e-05
-1.47034e-09
1.88464e-05
-1.38091e-09
1.88481e-05
-1.70294e-09
1.88498e-05
-1.70743e-09
1.88523e-05
-2.43427e-09
1.88545e-05
-2.24976e-09
1.88574e-05
-2.89885e-09
1.88603e-05
-2.90793e-09
1.88639e-05
-3.54445e-09
1.88678e-05
-3.92002e-09
1.8872e-05
-4.26698e-09
1.88763e-05
-4.23316e-09
1.88806e-05
-4.3277e-09
1.88854e-05
-4.82958e-09
1.88907e-05
-5.31686e-09
1.88959e-05
-5.14713e-09
1.89023e-05
-6.41148e-09
1.89098e-05
-7.46937e-09
1.89182e-05
-8.43198e-09
1.89266e-05
-8.36292e-09
1.89351e-05
-8.49631e-09
1.89434e-05
-8.3721e-09
1.89517e-05
-8.24007e-09
1.896e-05
-8.3084e-09
1.89682e-05
-8.21409e-09
1.89765e-05
-8.29211e-09
1.89848e-05
-8.26089e-09
1.8993e-05
-8.19668e-09
1.90012e-05
-8.26165e-09
1.90095e-05
-8.26133e-09
1.90174e-05
-7.88919e-09
1.90256e-05
-8.26363e-09
1.90335e-05
-7.82857e-09
1.90417e-05
-8.2089e-09
1.90494e-05
-7.7441e-09
1.90576e-05
-8.16248e-09
1.90655e-05
-7.89464e-09
1.90731e-05
-7.61431e-09
1.90807e-05
-7.61725e-09
1.9088e-05
-7.28461e-09
1.90953e-05
-7.29894e-09
1.91025e-05
-7.23959e-09
1.91094e-05
-6.84307e-09
1.91158e-05
-6.46419e-09
1.91222e-05
-6.34339e-09
1.91285e-05
-6.28524e-09
1.91345e-05
-6.0234e-09
1.91406e-05
-6.08761e-09
1.91461e-05
-5.50596e-09
1.91513e-05
-5.24527e-09
1.91565e-05
-5.16775e-09
1.91614e-05
-4.94233e-09
1.91656e-05
-4.19294e-09
1.917e-05
-4.40468e-09
1.91741e-05
-4.11113e-09
1.91783e-05
-4.19924e-09
1.91819e-05
-3.59734e-09
1.91853e-05
-3.36719e-09
1.91887e-05
-3.44126e-09
1.9192e-05
-3.2667e-09
1.91951e-05
-3.07562e-09
1.91977e-05
-2.56713e-09
1.92004e-05
-2.76054e-09
1.92029e-05
-2.48493e-09
1.92054e-05
-2.48789e-09
1.92078e-05
-2.40069e-09
1.92099e-05
-2.11811e-09
1.92117e-05
-1.78855e-09
1.92133e-05
-1.588e-09
1.9215e-05
-1.7531e-09
1.92163e-05
-1.26123e-09
1.92176e-05
-1.32338e-09
1.92185e-05
-8.67079e-10
1.92194e-05
-9.06633e-10
1.92203e-05
-8.806e-10
1.92208e-05
-5.22666e-10
1.9221e-05
-1.89929e-10
1.92213e-05
-2.99213e-10
1.92214e-05
-1.58104e-10
1.92212e-05
1.97576e-10
1.92209e-05
3.39137e-10
1.92206e-05
3.01501e-10
1.92205e-05
1.39611e-10
1.92199e-05
5.61349e-10
1.92194e-05
4.61232e-10
1.92188e-05
6.67287e-10
1.92181e-05
6.76571e-10
1.92173e-05
8.14262e-10
1.92166e-05
6.62849e-10
1.9216e-05
6.65925e-10
1.92154e-05
5.29972e-10
1.92147e-05
7.48377e-10
1.9214e-05
7.0868e-10
1.92132e-05
7.94289e-10
1.92124e-05
7.75729e-10
1.92116e-05
8.17147e-10
1.92109e-05
7.01721e-10
1.92101e-05
7.47723e-10
1.92094e-05
7.11734e-10
1.92087e-05
6.88628e-10
1.9208e-05
7.66676e-10
1.92072e-05
7.84358e-10
1.92063e-05
8.34264e-10
1.92056e-05
7.70327e-10
1.92049e-05
6.90942e-10
1.92041e-05
8.08024e-10
1.92033e-05
7.97066e-10
1.92025e-05
7.49018e-10
1.92021e-05
4.48965e-10
1.92014e-05
6.43823e-10
1.92008e-05
6.01405e-10
1.92003e-05
5.60404e-10
1.92e-05
3.0337e-10
1.91997e-05
2.30522e-10
1.91998e-05
-4.11605e-11
1.92e-05
-2.60485e-10
1.92007e-05
-6.18602e-10
1.92011e-05
-4.55627e-10
1.92017e-05
-6.1837e-10
1.92024e-05
-6.3158e-10
1.92032e-05
-8.60947e-10
1.92042e-05
-9.78253e-10
1.92054e-05
-1.21581e-09
1.92066e-05
-1.2151e-09
1.92081e-05
-1.43367e-09
1.92096e-05
-1.49395e-09
1.92111e-05
-1.56884e-09
1.92129e-05
-1.74981e-09
1.92146e-05
-1.759e-09
1.92165e-05
-1.84068e-09
1.92184e-05
-1.92033e-09
1.92204e-05
-2.00226e-09
1.92225e-05
-2.05599e-09
1.92246e-05
-2.18198e-09
1.92269e-05
-2.26317e-09
1.92294e-05
-2.49452e-09
1.9232e-05
-2.61552e-09
1.92347e-05
-2.67572e-09
1.92375e-05
-2.75798e-09
1.92404e-05
-2.92853e-09
1.92431e-05
-2.7422e-09
1.92465e-05
-3.36498e-09
1.92497e-05
-3.2364e-09
1.92532e-05
-3.50762e-09
1.92569e-05
-3.69794e-09
1.92609e-05
-3.98583e-09
1.92649e-05
-3.97055e-09
1.92691e-05
-4.21027e-09
1.92734e-05
-4.24988e-09
1.92779e-05
-4.59665e-09
1.92824e-05
-4.50001e-09
1.92873e-05
-4.80703e-09
1.9292e-05
-4.72964e-09
1.9297e-05
-5.0031e-09
1.9302e-05
-4.9834e-09
1.93073e-05
-5.30549e-09
1.93125e-05
-5.23705e-09
1.93181e-05
-5.5753e-09
1.93235e-05
-5.39363e-09
1.93291e-05
-5.64841e-09
1.93346e-05
-5.46512e-09
1.93403e-05
-5.74747e-09
1.93462e-05
-5.88966e-09
1.93523e-05
-6.10038e-09
1.93585e-05
-6.1876e-09
1.93648e-05
-6.31341e-09
1.93714e-05
-6.54725e-09
1.9378e-05
-6.59559e-09
1.93847e-05
-6.69932e-09
1.93915e-05
-6.85069e-09
1.93981e-05
-6.6144e-09
1.94048e-05
-6.62577e-09
1.94113e-05
-6.54933e-09
1.9418e-05
-6.69954e-09
1.94248e-05
-6.81717e-09
1.94319e-05
-7.09583e-09
1.94387e-05
-6.77404e-09
1.94456e-05
-6.88527e-09
1.94519e-05
-6.29599e-09
1.94577e-05
-5.80649e-09
1.94659e-05
-8.24396e-09
1.94698e-05
-3.91885e-09
1.94799e-05
-1.00118e-08
1.94824e-05
-2.56522e-09
1.94981e-05
-1.57239e-08
1.94935e-05
4.65049e-09
1.95233e-05
-2.97922e-08
1.95074e-05
1.58902e-08
1.95599e-05
-5.25354e-08
1.95285e-05
3.14453e-08
1.96054e-05
-7.69232e-08
1.95438e-05
6.16034e-08
1.96375e-05
-9.37202e-08
1.95352e-05
1.0237e-07
1.96288e-05
-9.3579e-08
1.94833e-05
1.45477e-07
1.95512e-05
-6.78881e-08
1.93721e-05
1.79092e-07
1.94183e-05
-4.62285e-08
1.92093e-05
2.0897e-07
1.91679e-05
4.13713e-08
1.87724e-05
3.95509e-07
1.82917e-05
4.807e-07
1.68443e-05
1.44739e-06
1.29433e-05
3.901e-06
8.20681e-06
4.73665e-06
7.10193e-06
1.10496e-06
7.0905e-06
1.14264e-08
5.75602e-06
1.33449e-06
3.82945e-06
1.92656e-06
1.42566e-06
2.40379e-06
6.10791e-08
1.36459e-06
-1.30382e-06
1.3649e-06
-2.64024e-06
1.33641e-06
-3.77136e-06
1.13113e-06
-3.77136e-06
3.78663e-05
6.42982e-07
3.76387e-05
7.53358e-07
3.72179e-05
1.10233e-06
3.67859e-05
1.1211e-06
3.63416e-05
1.1696e-06
3.59346e-05
1.0878e-06
3.55463e-05
1.06181e-06
3.5193e-05
9.8117e-07
3.48738e-05
9.3126e-07
3.46078e-05
8.57211e-07
3.43697e-05
8.0782e-07
3.41492e-05
7.47629e-07
3.39207e-05
7.44942e-07
3.3715e-05
7.00756e-07
3.35057e-05
6.80182e-07
3.32884e-05
6.70893e-07
3.30694e-05
6.56618e-07
3.28425e-05
6.43821e-07
3.26138e-05
6.26274e-07
3.23906e-05
6.00089e-07
3.2169e-05
5.85604e-07
3.19495e-05
5.70032e-07
3.17303e-05
5.52905e-07
3.15125e-05
5.36071e-07
3.12987e-05
5.15308e-07
3.10844e-05
5.02019e-07
3.08734e-05
4.81153e-07
3.06667e-05
4.59418e-07
3.04664e-05
4.39407e-07
3.02717e-05
4.21224e-07
3.00806e-05
4.07588e-07
2.98947e-05
3.91271e-07
2.97142e-05
3.73592e-07
2.95398e-05
3.56451e-07
2.93714e-05
3.38704e-07
2.92081e-05
3.24702e-07
2.90496e-05
3.12785e-07
2.88958e-05
2.97293e-07
2.8747e-05
2.84046e-07
2.86035e-05
2.73264e-07
2.84646e-05
2.58678e-07
2.83307e-05
2.46238e-07
2.82019e-05
2.3676e-07
2.8077e-05
2.26003e-07
2.79564e-05
2.15107e-07
2.78406e-05
2.04835e-07
2.77283e-05
1.96131e-07
2.76194e-05
1.88315e-07
2.7514e-05
1.78909e-07
2.74123e-05
1.69961e-07
2.73134e-05
1.65616e-07
2.72173e-05
1.59457e-07
2.71234e-05
1.53227e-07
2.70331e-05
1.46479e-07
2.69448e-05
1.41103e-07
2.68601e-05
1.34981e-07
2.67756e-05
1.33224e-07
2.66977e-05
1.18287e-07
2.66146e-05
1.31587e-07
2.65436e-05
1.06746e-07
2.64537e-05
1.38985e-07
2.63671e-05
1.2294e-07
2.62861e-05
1.23617e-07
2.62393e-05
8.38276e-08
2.6148e-05
1.49711e-07
2.6045e-05
1.50511e-07
2.59574e-05
1.34653e-07
2.59246e-05
7.69117e-08
2.58546e-05
1.23909e-07
2.57606e-05
1.19611e-07
2.56768e-05
1.04911e-07
2.56821e-05
3.40339e-09
2.5707e-05
1.84879e-09
2.56523e-05
1.07686e-07
2.55103e-05
2.25119e-07
2.5417e-05
1.86184e-07
2.53448e-05
1.62575e-07
2.52464e-05
1.58374e-07
2.51636e-05
1.42096e-07
2.51938e-05
1.24974e-08
2.51328e-05
1.20129e-07
2.49231e-05
2.89942e-07
2.47949e-05
2.03588e-07
2.4772e-05
5.84444e-08
2.47406e-05
4.20912e-08
2.47145e-05
5.29465e-08
2.47014e-05
1.82475e-08
2.47149e-05
-5.25456e-08
2.4694e-05
3.10939e-08
2.46561e-05
7.19674e-08
2.46553e-05
-8.68952e-09
2.46652e-05
-5.02989e-08
2.46528e-05
6.69517e-09
2.46432e-05
7.86112e-09
2.46175e-05
1.85451e-08
2.4595e-05
4.35193e-08
2.45817e-05
2.21808e-08
2.45964e-05
-5.01702e-08
2.45823e-05
1.15414e-08
2.45541e-05
4.96833e-08
2.45304e-05
3.06941e-08
2.45207e-05
1.48738e-09
2.45012e-05
2.75048e-08
2.44843e-05
1.11242e-08
2.443e-05
3.42152e-08
2.44221e-05
-1.40519e-08
2.45349e-05
-1.37903e-07
2.45823e-05
-7.13116e-08
2.44557e-05
1.54774e-07
2.43907e-05
1.00493e-07
2.43732e-05
2.89494e-08
2.43441e-05
3.27126e-08
2.42993e-05
6.77929e-08
2.42831e-05
-1.06228e-08
2.4244e-05
4.3517e-08
2.42333e-05
5.28636e-09
2.41791e-05
7.35287e-08
2.41603e-05
2.78565e-08
2.41057e-05
9.49378e-08
2.41084e-05
-4.26531e-08
2.40551e-05
1.17771e-07
2.41514e-05
-8.45071e-08
2.42111e-05
-1.8657e-07
2.43151e-05
-2.81182e-07
2.43854e-05
-1.64476e-07
2.4426e-05
-9.92867e-08
2.44587e-05
-7.98298e-08
2.44792e-05
-5.43465e-08
2.45028e-05
-5.5244e-08
2.45163e-05
-3.31959e-08
2.45285e-05
-3.10557e-08
2.45283e-05
-5.47537e-09
2.45288e-05
-6.4731e-09
2.45123e-05
2.97234e-08
2.45011e-05
1.38078e-08
2.44648e-05
6.88146e-08
2.44199e-05
1.1685e-07
2.43946e-05
6.30562e-08
2.43695e-05
1.75932e-08
2.43507e-05
4.02289e-08
2.43544e-05
1.6723e-08
2.43526e-05
-2.88084e-08
2.43788e-05
-7.24278e-08
2.43872e-05
-2.06403e-08
2.43966e-05
-2.26956e-08
2.4397e-05
-8.27475e-09
2.44004e-05
-1.03691e-08
2.43962e-05
4.91659e-09
2.43933e-05
4.46042e-09
2.43835e-05
1.80753e-08
2.43736e-05
2.02996e-08
2.43628e-05
1.61003e-08
2.43459e-05
3.41457e-08
2.43396e-05
1.10874e-08
2.43123e-05
5.32592e-08
2.43178e-05
-9.16995e-09
2.42768e-05
6.99209e-08
2.42964e-05
-2.96191e-08
2.42328e-05
1.0459e-07
2.42526e-05
-1.84138e-08
2.41671e-05
1.50007e-07
2.418e-05
-1.10906e-09
2.40871e-05
1.67113e-07
2.40975e-05
-2.69095e-09
2.4006e-05
1.5671e-07
2.40075e-05
-6.54794e-09
2.38908e-05
2.01647e-07
2.38324e-05
8.23461e-08
2.35841e-05
5.35273e-07
2.34839e-05
4.41789e-07
2.33587e-05
2.02916e-07
2.33589e-05
-1.13179e-07
2.33796e-05
-3.96836e-08
2.33474e-05
4.39935e-08
2.33503e-05
-6.23078e-09
2.33148e-05
5.497e-08
2.33132e-05
6.53046e-10
2.32816e-05
4.86022e-08
2.32789e-05
1.58404e-09
2.32521e-05
4.02557e-08
2.3249e-05
1.33855e-09
2.32264e-05
3.27735e-08
2.32233e-05
9.00456e-10
2.32044e-05
2.63445e-08
2.3201e-05
8.41298e-10
2.31852e-05
2.15745e-08
2.31817e-05
8.9553e-10
2.31684e-05
1.78189e-08
2.31649e-05
6.89796e-10
2.31544e-05
1.30712e-08
2.31518e-05
2.54999e-10
2.31439e-05
8.6559e-09
2.31398e-05
1.25864e-09
2.31337e-05
5.36917e-09
2.313e-05
4.15822e-10
2.31242e-05
4.81204e-09
2.31211e-05
-8.77912e-11
2.31154e-05
4.54308e-09
2.31127e-05
-1.37383e-10
2.31073e-05
4.70301e-09
2.31047e-05
-1.05142e-10
2.30996e-05
4.62352e-09
2.30973e-05
9.08425e-11
2.30922e-05
5.02143e-09
2.30897e-05
4.05343e-10
2.30846e-05
5.30339e-09
2.30824e-05
5.27755e-10
2.30777e-05
5.03548e-09
2.30757e-05
1.55761e-10
2.30713e-05
4.68872e-09
2.30697e-05
8.213e-11
2.30655e-05
4.44528e-09
2.30638e-05
2.13672e-10
2.30598e-05
4.59606e-09
2.30581e-05
2.47575e-10
2.30541e-05
4.62545e-09
2.30526e-05
4.59149e-10
2.30487e-05
4.79362e-09
2.30472e-05
5.2588e-10
2.30434e-05
4.59156e-09
2.30422e-05
1.42682e-10
2.30384e-05
4.76022e-09
2.30372e-05
9.07234e-11
2.30335e-05
4.83454e-09
2.30329e-05
-9.21794e-10
2.30291e-05
4.608e-09
2.30291e-05
-1.7338e-09
2.30254e-05
4.52996e-09
2.30258e-05
-2.72909e-09
2.30219e-05
4.6818e-09
2.3023e-05
-3.47197e-09
2.30188e-05
5.356e-09
2.30201e-05
-3.96756e-09
2.30154e-05
6.41451e-09
2.30173e-05
-4.5619e-09
2.30118e-05
7.31381e-09
2.30139e-05
-4.83757e-09
2.30081e-05
8.17127e-09
2.30105e-05
-5.08586e-09
2.30045e-05
8.51334e-09
2.30071e-05
-5.5058e-09
2.3001e-05
8.92839e-09
2.30042e-05
-6.62546e-09
2.2998e-05
9.15056e-09
2.30018e-05
-7.52534e-09
2.2995e-05
1.01064e-08
2.29995e-05
-8.41006e-09
2.29921e-05
1.12008e-08
2.29974e-05
-9.68007e-09
2.29893e-05
1.24629e-08
2.29955e-05
-1.11797e-08
2.29865e-05
1.398e-08
2.29937e-05
-1.26857e-08
2.29837e-05
1.58056e-08
2.29918e-05
-1.42956e-08
2.29805e-05
1.78819e-08
2.29898e-05
-1.58704e-08
2.29769e-05
2.06944e-08
2.29869e-05
-1.68788e-08
2.29726e-05
2.33934e-08
2.29838e-05
-1.88462e-08
2.2968e-05
2.55847e-08
2.29804e-05
-2.06076e-08
2.29628e-05
2.86744e-08
2.29762e-05
-2.21223e-08
2.2957e-05
3.16577e-08
2.29716e-05
-2.40996e-08
2.29505e-05
3.46856e-08
2.29663e-05
-2.60532e-08
2.29435e-05
3.78408e-08
2.29606e-05
-2.81176e-08
2.29356e-05
4.11338e-08
2.29538e-05
-2.96359e-08
2.29269e-05
4.46216e-08
2.29458e-05
-3.02689e-08
2.29171e-05
4.73589e-08
2.29358e-05
-2.93537e-08
2.29063e-05
4.90708e-08
2.29237e-05
-2.69354e-08
2.28945e-05
4.86062e-08
2.291e-05
-2.38191e-08
2.28823e-05
4.64099e-08
2.2895e-05
-1.90171e-08
2.28697e-05
4.28708e-08
2.28796e-05
-1.52988e-08
2.28569e-05
3.81741e-08
2.28643e-05
-1.11662e-08
2.28436e-05
3.50608e-08
2.28488e-05
-7.14654e-09
2.28299e-05
3.19397e-08
2.28328e-05
-4.02273e-09
2.28156e-05
2.98435e-08
2.28168e-05
-1.34062e-09
2.28007e-05
2.76759e-08
2.28007e-05
1.10019e-09
2.27857e-05
2.54462e-08
2.27847e-05
2.88348e-09
2.27708e-05
2.36149e-08
2.27688e-05
3.84791e-09
2.2756e-05
2.23726e-08
2.27533e-05
5.06424e-09
2.27411e-05
2.1242e-08
2.2738e-05
5.54439e-09
2.27267e-05
1.94546e-08
2.27234e-05
5.7092e-09
2.27128e-05
1.82013e-08
2.27095e-05
5.84735e-09
2.26996e-05
1.71232e-08
2.26964e-05
5.27389e-09
2.26875e-05
1.52482e-08
2.26845e-05
4.88981e-09
2.26764e-05
1.33313e-08
2.26738e-05
4.46624e-09
2.26666e-05
1.19936e-08
2.2664e-05
3.88079e-09
2.26577e-05
9.75038e-09
2.26551e-05
3.60954e-09
2.26498e-05
7.88668e-09
2.26475e-05
2.69065e-09
2.2643e-05
6.47943e-09
2.2641e-05
2.27288e-09
2.26373e-05
5.18678e-09
2.26354e-05
1.41279e-09
2.26322e-05
4.31278e-09
2.26307e-05
1.0067e-09
2.2628e-05
3.59442e-09
2.26267e-05
6.94949e-10
2.26246e-05
2.21606e-09
2.26235e-05
3.02439e-10
2.26218e-05
1.95386e-09
2.26208e-05
9.86144e-11
2.26196e-05
8.00914e-10
2.2619e-05
-5.07895e-10
2.26183e-05
3.29641e-10
2.2618e-05
-1.2395e-09
2.26179e-05
-1.22117e-09
2.26182e-05
-1.9824e-09
2.26186e-05
-2.12745e-09
2.26196e-05
-3.41779e-09
2.26205e-05
-3.13789e-09
2.26221e-05
-4.53779e-09
2.26237e-05
-4.5087e-09
2.26261e-05
-5.95778e-09
2.26285e-05
-6.3422e-09
2.26315e-05
-7.22983e-09
2.26346e-05
-7.34539e-09
2.26383e-05
-8.01726e-09
2.26421e-05
-8.604e-09
2.26464e-05
-9.60305e-09
2.26509e-05
-9.73547e-09
2.26561e-05
-1.16089e-08
2.26621e-05
-1.34148e-08
2.26687e-05
-1.50274e-08
2.26761e-05
-1.58153e-08
2.26837e-05
-1.60777e-08
2.26916e-05
-1.62068e-08
2.26993e-05
-1.59934e-08
2.27074e-05
-1.64014e-08
2.27155e-05
-1.62779e-08
2.27236e-05
-1.64625e-08
2.27316e-05
-1.6235e-08
2.27399e-05
-1.64825e-08
2.27479e-05
-1.62631e-08
2.27561e-05
-1.64417e-08
2.27643e-05
-1.61264e-08
2.27726e-05
-1.65312e-08
2.27808e-05
-1.60584e-08
2.27891e-05
-1.64679e-08
2.27973e-05
-1.59769e-08
2.28057e-05
-1.65397e-08
2.28138e-05
-1.59982e-08
2.28222e-05
-1.60379e-08
2.28302e-05
-1.56245e-08
2.28383e-05
-1.53595e-08
2.28461e-05
-1.51257e-08
2.28538e-05
-1.49157e-08
2.28612e-05
-1.42947e-08
2.28687e-05
-1.38952e-08
2.28758e-05
-1.35172e-08
2.28829e-05
-1.33479e-08
2.28897e-05
-1.28004e-08
2.28964e-05
-1.27662e-08
2.29028e-05
-1.19525e-08
2.29091e-05
-1.15324e-08
2.29151e-05
-1.11325e-08
2.29209e-05
-1.07596e-08
2.29264e-05
-9.70393e-09
2.29319e-05
-9.86811e-09
2.2937e-05
-9.28657e-09
2.29421e-05
-9.21284e-09
2.29468e-05
-8.35793e-09
2.29514e-05
-7.96489e-09
2.29558e-05
-7.78881e-09
2.296e-05
-7.48015e-09
2.2964e-05
-7.14532e-09
2.29679e-05
-6.44826e-09
2.29718e-05
-6.59066e-09
2.29753e-05
-6.01144e-09
2.29789e-05
-6.14438e-09
2.29823e-05
-5.73421e-09
2.29856e-05
-5.44946e-09
2.29886e-05
-4.82797e-09
2.29915e-05
-4.48954e-09
2.29941e-05
-4.32392e-09
2.29966e-05
-3.7301e-09
2.29988e-05
-3.50271e-09
2.30008e-05
-2.92746e-09
2.30026e-05
-2.7054e-09
2.30043e-05
-2.52862e-09
2.30057e-05
-1.98176e-09
2.30071e-05
-1.5895e-09
2.30082e-05
-1.4073e-09
2.30093e-05
-1.20764e-09
2.30101e-05
-5.79854e-10
2.30107e-05
-3.09927e-10
2.30113e-05
-2.70401e-10
2.30117e-05
-2.43385e-10
2.30121e-05
1.59416e-10
2.30123e-05
2.80668e-10
2.30124e-05
5.17258e-10
2.30128e-05
2.35462e-10
2.30126e-05
1.0595e-09
2.30127e-05
5.12497e-10
2.30128e-05
6.00131e-10
2.3013e-05
3.36955e-10
2.3013e-05
7.69866e-10
2.30131e-05
6.13605e-10
2.30131e-05
7.84321e-10
2.30132e-05
6.55758e-10
2.30132e-05
8.1206e-10
2.30133e-05
6.23531e-10
2.30133e-05
7.02816e-10
2.30135e-05
5.94493e-10
2.30135e-05
6.37392e-10
2.30135e-05
7.35234e-10
2.30134e-05
8.74507e-10
2.30132e-05
1.04244e-09
2.3013e-05
9.73222e-10
2.30128e-05
8.91281e-10
2.30126e-05
1.04573e-09
2.30125e-05
8.93539e-10
2.30123e-05
9.10007e-10
2.30122e-05
6.02384e-10
2.30119e-05
9.60577e-10
2.30116e-05
8.20038e-10
2.30114e-05
7.97165e-10
2.30113e-05
3.66441e-10
2.30118e-05
-2.32457e-10
2.30122e-05
-3.91148e-10
2.30126e-05
-7.02556e-10
2.30133e-05
-1.27801e-09
2.30139e-05
-1.05712e-09
2.30147e-05
-1.44936e-09
2.30159e-05
-1.80765e-09
2.30169e-05
-1.85493e-09
2.30179e-05
-2.0514e-09
2.30191e-05
-2.41583e-09
2.30209e-05
-2.94085e-09
2.30222e-05
-2.80891e-09
2.30242e-05
-3.48017e-09
2.30261e-05
-3.46228e-09
2.30278e-05
-3.48013e-09
2.30298e-05
-3.76805e-09
2.3032e-05
-3.99663e-09
2.30341e-05
-4.06365e-09
2.30363e-05
-4.1844e-09
2.30386e-05
-4.32488e-09
2.30409e-05
-4.50131e-09
2.30434e-05
-4.75197e-09
2.3046e-05
-5.10856e-09
2.30488e-05
-5.41976e-09
2.30517e-05
-5.50586e-09
2.30546e-05
-5.74712e-09
2.30574e-05
-5.67572e-09
2.30604e-05
-5.75997e-09
2.30634e-05
-6.33474e-09
2.30668e-05
-6.68919e-09
2.30702e-05
-6.8963e-09
2.30742e-05
-7.6855e-09
2.30781e-05
-7.83126e-09
2.30822e-05
-8.10533e-09
2.30866e-05
-8.64156e-09
2.30909e-05
-8.46812e-09
2.30955e-05
-9.20867e-09
2.31002e-05
-9.2278e-09
2.31048e-05
-9.40151e-09
2.31097e-05
-9.64007e-09
2.3115e-05
-1.03353e-08
2.31203e-05
-1.02257e-08
2.31259e-05
-1.09473e-08
2.31315e-05
-1.07962e-08
2.31369e-05
-1.10108e-08
2.31426e-05
-1.11064e-08
2.31486e-05
-1.16635e-08
2.31545e-05
-1.13638e-08
2.31603e-05
-1.15612e-08
2.31667e-05
-1.22072e-08
2.31728e-05
-1.22785e-08
2.31794e-05
-1.27451e-08
2.31859e-05
-1.28182e-08
2.31928e-05
-1.34342e-08
2.31997e-05
-1.35334e-08
2.32069e-05
-1.38269e-08
2.32141e-05
-1.40973e-08
2.32213e-05
-1.3851e-08
2.32282e-05
-1.34785e-08
2.32354e-05
-1.37689e-08
2.32427e-05
-1.40224e-08
2.32502e-05
-1.42667e-08
2.32578e-05
-1.47281e-08
2.32653e-05
-1.42702e-08
2.32733e-05
-1.49233e-08
2.32811e-05
-1.40679e-08
2.32886e-05
-1.32894e-08
2.32967e-05
-1.63901e-08
2.33035e-05
-1.07159e-08
2.33131e-05
-1.95352e-08
2.33171e-05
-6.59996e-09
2.33327e-05
-3.13036e-08
2.33303e-05
7.04848e-09
2.33602e-05
-5.97131e-08
2.33421e-05
3.394e-08
2.3401e-05
-1.1134e-07
2.33522e-05
8.01951e-08
2.34501e-05
-1.74755e-07
2.33523e-05
1.5938e-07
2.34876e-05
-2.29013e-07
2.33266e-05
2.63355e-07
2.34861e-05
-2.53054e-07
2.326e-05
3.71558e-07
2.3417e-05
-2.2489e-07
2.31469e-05
4.49172e-07
2.32648e-05
-1.64116e-07
2.29501e-05
5.23644e-07
2.29302e-05
6.12413e-08
2.24266e-05
8.99095e-07
2.178e-05
1.12728e-06
2.05015e-05
2.72588e-06
1.75338e-05
6.86876e-06
1.46268e-05
7.64368e-06
1.27386e-05
2.99328e-06
1.21049e-05
6.45119e-07
1.09214e-05
2.518e-06
9.19482e-06
3.65318e-06
6.41463e-06
5.18398e-06
3.05067e-06
4.72854e-06
2.09026e-07
4.20655e-06
-1.45524e-06
3.00068e-06
-2.46038e-06
2.13627e-06
-6.23174e-06
3.78626e-05
7.80358e-07
3.76504e-05
9.65615e-07
3.7236e-05
1.51673e-06
3.68322e-05
1.5249e-06
3.64215e-05
1.58023e-06
3.60647e-05
1.4446e-06
3.57534e-05
1.3732e-06
3.54902e-05
1.24428e-06
3.52728e-05
1.14875e-06
3.50829e-05
1.04706e-06
3.49276e-05
9.63105e-07
3.47896e-05
8.8563e-07
3.46573e-05
8.77298e-07
3.45514e-05
8.06592e-07
3.44578e-05
7.7386e-07
3.43703e-05
7.58351e-07
3.42916e-05
7.35264e-07
3.42153e-05
7.2018e-07
3.41368e-05
7.04722e-07
3.40614e-05
6.7552e-07
3.39827e-05
6.64322e-07
3.39037e-05
6.48982e-07
3.38221e-05
6.34556e-07
3.37361e-05
6.22054e-07
3.36481e-05
6.03328e-07
3.35542e-05
5.95893e-07
3.34583e-05
5.77036e-07
3.3355e-05
5.62771e-07
3.32464e-05
5.47981e-07
3.31344e-05
5.33199e-07
3.30185e-05
5.23563e-07
3.29006e-05
5.09119e-07
3.27789e-05
4.95279e-07
3.26552e-05
4.80183e-07
3.25312e-05
4.6265e-07
3.24039e-05
4.52048e-07
3.22763e-05
4.40335e-07
3.21477e-05
4.25932e-07
3.20176e-05
4.14178e-07
3.18885e-05
4.0231e-07
3.17595e-05
3.8768e-07
3.16297e-05
3.76099e-07
3.15025e-05
3.63871e-07
3.13754e-05
3.53202e-07
3.12494e-05
3.41092e-07
3.11255e-05
3.28691e-07
3.1003e-05
3.18612e-07
3.08832e-05
3.08116e-07
3.07661e-05
2.96008e-07
3.06502e-05
2.85878e-07
3.05377e-05
2.78175e-07
3.04271e-05
2.70054e-07
3.03179e-05
2.62386e-07
3.02121e-05
2.52234e-07
3.01077e-05
2.4559e-07
3.00062e-05
2.3643e-07
2.99065e-05
2.32865e-07
2.98075e-05
2.1735e-07
2.97083e-05
2.31161e-07
2.96122e-05
2.04505e-07
2.95009e-05
2.46958e-07
2.93901e-05
2.25084e-07
2.92823e-05
2.37103e-07
2.91992e-05
1.85815e-07
2.90957e-05
2.52126e-07
2.89887e-05
2.33034e-07
2.88949e-05
2.22648e-07
2.88482e-05
1.47697e-07
2.8775e-05
2.00735e-07
2.86717e-05
1.87334e-07
2.85781e-05
1.77894e-07
2.8574e-05
4.44094e-08
2.85897e-05
4.3418e-08
2.85551e-05
1.37146e-07
2.84831e-05
2.48212e-07
2.84515e-05
2.04801e-07
2.84338e-05
1.84775e-07
2.83893e-05
1.79178e-07
2.83399e-05
1.97857e-07
2.83468e-05
9.10546e-08
2.82216e-05
2.65041e-07
2.80007e-05
4.30268e-07
2.78461e-05
3.32406e-07
2.77708e-05
1.54023e-07
2.77329e-05
8.37543e-08
2.77263e-05
5.8171e-08
2.77248e-05
1.79561e-08
2.77175e-05
-4.72288e-08
2.76743e-05
7.05962e-08
2.76316e-05
1.13019e-07
2.76053e-05
2.01714e-08
2.75805e-05
-2.54784e-08
2.75472e-05
3.65984e-08
2.75171e-05
3.5937e-08
2.74769e-05
5.78416e-08
2.74448e-05
7.51226e-08
2.74137e-05
5.33209e-08
2.73891e-05
-2.59779e-08
2.73692e-05
3.05223e-08
2.73445e-05
7.38918e-08
2.72939e-05
8.11595e-08
2.72527e-05
4.21944e-08
2.72154e-05
6.34933e-08
2.71712e-05
4.87635e-08