/*--------------------------------*- C++ -*----------------------------------*\
| =========                 |                                                 |
| \\      /  F ield         | foam-extend: Open Source CFD                    |
|  \\    /   O peration     | Version:     3.2                                |
|   \\  /    A nd           | Web:         http://www.foam-extend.org         |
|    \\/     M anipulation  | For copyright notice see file Copyright         |
\*---------------------------------------------------------------------------*/
FoamFile
{
    version     2.0;
    format      ascii;
    class       volVectorField;
    location    "910";
    object      q_b_slide;
}
// * * * * * * * * * * * * * * * * * * * * * * * * * * * * * * * * * * * * * //

dimensions      [0 2 -1 0 0 0 0];

internalField   uniform (0 0 0);

boundaryField
{
    inlet
    {
        type            calculated;
        value           uniform (0 0 0);
    }
    outlet
    {
        type            calculated;
        value           uniform (0 0 0);
    }
    sideWall
    {
        type            empty;
    }
    bed
    {
        type            calculated;
        value           nonuniform List<vector> 
550
(
(0 0 0)
(0 0 0)
(0 0 0)
(1.14727e-07 3.07235e-29 -2.29457e-10)
(4.71091e-07 1.33715e-28 -9.42167e-10)
(1.01257e-06 0 -2.02514e-09)
(1.70584e-06 -4.80407e-28 -3.41158e-09)
(2.55546e-06 -6.92576e-28 -5.11092e-09)
(3.46118e-06 0 -6.92273e-09)
(4.3424e-06 -1.00227e-33 -8.68457e-09)
(5.24336e-06 -1.43696e-27 -1.04867e-08)
(5.97531e-06 0 -1.19506e-08)
(6.67052e-06 -1.72252e-27 -1.33407e-08)
(7.18532e-06 2.40298e-33 -1.43714e-08)
(7.51082e-06 -1.77928e-27 -1.50216e-08)
(7.80291e-06 0 -1.56054e-08)
(7.92614e-06 -1.6373e-27 -1.58523e-08)
(7.89622e-06 0 -1.5792e-08)
(7.83509e-06 -1.38896e-27 -1.56702e-08)
(7.7142e-06 -1.27092e-27 -1.54292e-08)
(7.54724e-06 0 -1.50941e-08)
(7.39402e-06 -1.07206e-27 -1.4788e-08)
(7.12107e-06 -9.75276e-28 -1.42421e-08)
(6.92641e-06 0 -1.38524e-08)
(6.67756e-06 -8.05927e-28 -1.33559e-08)
(6.42743e-06 -7.2217e-28 -1.28549e-08)
(6.18093e-06 0 -1.23615e-08)
(5.90152e-06 -5.83103e-28 -1.18024e-08)
(5.71485e-06 0 -1.14316e-08)
(5.4982e-06 0 -1.09952e-08)
(5.29255e-06 -3.42792e-34 -1.05845e-08)
(5.09842e-06 0 -1.01985e-08)
(4.88118e-06 0 -9.76129e-09)
(4.71174e-06 0 -9.42245e-09)
(4.55377e-06 0 -9.10904e-09)
(4.40678e-06 0 -8.81307e-09)
(4.30152e-06 0 -8.6021e-09)
(4.14354e-06 0 -8.28845e-09)
(4.02603e-06 0 -8.05118e-09)
(3.94662e-06 0 -7.89454e-09)
(3.8161e-06 0 -7.63135e-09)
(3.72252e-06 0 -7.44463e-09)
(3.66367e-06 0 -7.32855e-09)
(3.5555e-06 0 -7.11021e-09)
(3.48114e-06 -3.54744e-34 -6.96151e-09)
(3.41234e-06 0 -6.82581e-09)
(3.34871e-06 0 -6.69705e-09)
(3.28988e-06 0 -6.57903e-09)
(3.2355e-06 3.74745e-34 -6.47208e-09)
(3.18515e-06 0 -6.36959e-09)
(3.16492e-06 3.63673e-34 -6.33089e-09)
(3.12167e-06 0 -6.24264e-09)
(3.05474e-06 3.47096e-34 -6.10915e-09)
(3.04355e-06 -3.42547e-34 -6.0881e-09)
(2.98163e-06 0 -5.9626e-09)
(2.9745e-06 0 -5.949e-09)
(2.917e-06 3.29861e-34 -5.8356e-09)
(2.91271e-06 0 -5.82223e-09)
(2.88426e-06 -3.17891e-34 -5.76852e-09)
(2.83295e-06 0 -5.66746e-09)
(2.8079e-06 -2.99434e-34 -5.6158e-09)
(2.80769e-06 0 -5.61693e-09)
(2.78484e-06 0 -5.56968e-09)
(2.76316e-06 -2.79652e-34 -5.52328e-09)
(2.7426e-06 2.78761e-34 -5.4867e-09)
(2.70062e-06 -2.68861e-34 -5.40124e-09)
(2.70439e-06 0 -5.40879e-09)
(2.66445e-06 2.61528e-34 -5.33037e-09)
(2.66962e-06 2.57204e-34 -5.33631e-09)
(2.63132e-06 -2.53244e-34 -5.26264e-09)
(2.61574e-06 2.47686e-34 -5.23292e-09)
(2.62294e-06 -2.37301e-34 -5.24588e-09)
(2.60859e-06 -2.28584e-34 -5.21862e-09)
(2.57227e-06 -2.13767e-34 -5.14453e-09)
(2.55863e-06 -2.04113e-34 -5.11445e-09)
(2.56802e-06 0 -5.13744e-09)
(2.555e-06 1.8651e-34 -5.11001e-09)
(2.54211e-06 -1.81192e-34 -5.08422e-09)
(2.50644e-06 0 -5.01425e-09)
(2.51634e-06 -1.80834e-34 -5.02992e-09)
(2.48107e-06 0 -4.96214e-09)
(2.46853e-06 0 -4.93841e-09)
(2.4774e-06 0 -4.9548e-09)
(2.46438e-06 1.74327e-34 -4.93013e-09)
(2.45143e-06 0 -4.90287e-09)
(2.43861e-06 -1.72782e-34 -4.87453e-09)
(2.42601e-06 -1.74129e-34 -4.85335e-09)
(2.39554e-06 0 -4.79107e-09)
(2.38407e-06 0 -4.76815e-09)
(2.37286e-06 0 -4.74703e-09)
(2.36197e-06 0 -4.72134e-09)
(2.36816e-06 -8.92543e-30 -4.73632e-09)
(2.34098e-06 0 -4.68326e-09)
(2.33082e-06 1.15648e-34 -4.66164e-09)
(2.33781e-06 -1.09538e-34 -4.6769e-09)
(2.32811e-06 0 -4.65622e-09)
(2.30116e-06 -8.47648e-30 -4.59979e-09)
(2.30901e-06 0 -4.61929e-09)
(2.28179e-06 -1.13993e-34 -4.56359e-09)
(2.27218e-06 1.18418e-34 -4.54437e-09)
(2.26257e-06 -1.22371e-34 -4.52639e-09)
(2.27095e-06 0 -4.5394e-09)
(2.26138e-06 0 -4.52275e-09)
(2.23383e-06 0 -4.4689e-09)
(2.242e-06 -1.03399e-34 -4.48399e-09)
(2.23215e-06 0 -4.46553e-09)
(2.22214e-06 0 -4.44427e-09)
(2.21202e-06 2.00484e-34 -4.42161e-09)
(2.20174e-06 -1.24518e-33 -4.40469e-09)
(2.19134e-06 0 -4.47619e-09)
(2.18073e-06 0 -4.4711e-09)
(1.90664e-06 0 -3.70312e-09)
(2.14297e-06 0 -3.98245e-09)
(2.13334e-06 7.68421e-33 -4.32913e-09)
(1.54109e-06 0 -3.50527e-09)
(1.6083e-06 0 -3.04414e-09)
(2.10035e-06 0 -3.42751e-09)
(1.33981e-06 4.48656e-30 -3.50697e-09)
(1.50293e-06 -3.28507e-29 -2.0441e-09)
(2.07e-06 0 -4.45945e-09)
(2.05912e-06 0 -4.57668e-09)
(1.07507e-06 5.17757e-29 -2.1214e-09)
(2.0349e-06 -1.01231e-31 -3.39026e-09)
(2.02535e-06 -1.45992e-31 -3.95298e-09)
(2.02857e-06 0 -5.5768e-09)
(6.81907e-07 1.47579e-28 -1.11121e-09)
(1.98898e-06 0 -2.51546e-09)
(1.97968e-06 7.78206e-32 -2.96957e-09)
(1.9739e-06 0 -5.30019e-09)
(1.96235e-06 -5.4726e-28 -5.28821e-09)
(1.95922e-06 1.34748e-31 -4.15771e-09)
(5.751e-07 0 -9.25758e-10)
(1.92461e-06 0 -2.88212e-09)
(1.91656e-06 3.03903e-32 -4.39452e-09)
(1.90343e-06 0 -3.29299e-09)
(1.89317e-06 0 -3.56892e-09)
(1.88371e-06 -1.59257e-31 -4.33728e-09)
(1.87377e-06 1.29863e-31 -4.93101e-09)
(0 0 0)
(1.84624e-06 0 -2.37078e-09)
(1.83384e-06 0 -1.28893e-09)
(1.83355e-06 -3.61092e-28 -6.02066e-09)
(1.81684e-06 0 -3.28464e-09)
(1.80653e-06 -2.78176e-31 -3.42277e-09)
(1.79804e-06 6.7748e-28 -4.56645e-09)
(1.78619e-06 -7.69474e-29 -4.00735e-09)
(0 0 0)
(1.76272e-06 1.05111e-31 -2.84692e-09)
(1.75322e-06 -8.76048e-32 -3.16103e-09)
(1.7445e-06 0 -3.87417e-09)
(1.73377e-06 -1.54467e-31 -3.59649e-09)
(1.73439e-06 0 -4.54059e-09)
(1.70937e-06 -1.9172e-28 -1.80607e-09)
(1.70169e-06 0 -2.52817e-09)
(1.69806e-06 0 -5.38231e-09)
(1.69281e-06 0 -3.60538e-09)
(1.6712e-06 0 -1.98151e-09)
(1.66625e-06 -2.0301e-28 -3.92632e-09)
(1.65671e-06 5.07227e-29 -3.99981e-09)
(0 0 0)
(1.63504e-06 -8.50719e-29 -2.55628e-09)
(1.62748e-06 -5.79602e-33 -3.09561e-09)
(1.61891e-06 0 -3.13688e-09)
(1.61278e-06 7.56626e-29 -4.2974e-09)
(1.60083e-06 0 -2.90878e-09)
(1.59131e-06 -2.34747e-28 -2.3327e-09)
(1.58768e-06 1.17567e-31 -4.47558e-09)
(1.5835e-06 5.64603e-29 -3.57171e-09)
(1.5649e-06 1.74684e-32 -1.76975e-09)
(1.5596e-06 -1.09411e-33 -2.78154e-09)
(1.55473e-06 1.33756e-31 -4.22023e-09)
(1.54421e-06 -6.33816e-32 -3.08877e-09)
(1.53644e-06 7.47926e-32 -2.9413e-09)
(1.52883e-06 -2.23873e-28 -2.9216e-09)
(1.52107e-06 7.54559e-33 -2.7236e-09)
(1.51456e-06 3.32618e-29 -2.90334e-09)
(1.50895e-06 -7.78839e-30 -3.35299e-09)
(1.50358e-06 0 -3.99855e-09)
(0 0 0)
(1.486e-06 3.43368e-33 -2.25326e-09)
(1.48108e-06 0 -2.95096e-09)
(1.47316e-06 6.18324e-32 -2.27052e-09)
(1.47032e-06 0 -3.56355e-09)
(1.46374e-06 0 -3.28733e-09)
(1.45751e-06 3.67991e-28 -3.23777e-09)
(1.45235e-06 -1.05681e-31 -3.69276e-09)
(1.44208e-06 -1.56172e-32 -1.72756e-09)
(1.43847e-06 -4.64444e-32 -2.40871e-09)
(1.43675e-06 0 -4.10626e-09)
(1.4276e-06 0 -2.66418e-09)
(1.42202e-06 3.4178e-33 -2.50671e-09)
(1.41782e-06 9.56341e-33 -2.97368e-09)
(0 0 0)
(1.40604e-06 -3.12787e-32 -1.84879e-09)
(1.40568e-06 0 -3.57453e-09)
(1.4016e-06 0 -3.8046e-09)
(1.39536e-06 0 -2.94818e-09)
(1.39016e-06 0 -2.64263e-09)
(1.38298e-06 -3.78749e-33 -1.37807e-09)
(1.38288e-06 -1.04225e-29 -2.9204e-09)
(1.37955e-06 0 -3.26079e-09)
(1.37043e-06 -1.14841e-33 -9.31108e-10)
(1.36795e-06 0 -1.2733e-09)
(1.36419e-06 0 -1.15527e-09)
(1.36122e-06 0 -1.12551e-09)
(1.35943e-06 -6.97183e-30 -1.55176e-09)
(1.35685e-06 -2.94133e-35 -1.50376e-09)
(1.35641e-06 0 -2.6534e-09)
(1.34948e-06 0 -1.16743e-09)
(1.34974e-06 0 -2.47817e-09)
(1.3444e-06 5.86232e-31 -1.80945e-09)
(1.34101e-06 0 -1.73845e-09)
(1.33818e-06 -7.48908e-30 -1.97749e-09)
(1.33495e-06 0 -2.1101e-09)
(1.32848e-06 0 -1.66654e-09)
(1.30921e-06 -1.45285e-28 4.34619e-09)
(1.30743e-06 0 5.43335e-09)
(1.31358e-06 0 3.55237e-09)
(1.31347e-06 6.3308e-29 4.33959e-09)
(1.31679e-06 0 3.92793e-09)
(1.31852e-06 2.63593e-34 4.08409e-09)
(1.32053e-06 4.38767e-29 4.15114e-09)
(1.32299e-06 3.33691e-29 3.94395e-09)
(1.32443e-06 0 4.15583e-09)
(1.32746e-06 -1.15121e-29 3.68624e-09)
(1.32861e-06 3.90519e-29 3.9755e-09)
(1.33203e-06 -2.65551e-34 3.33519e-09)
(1.33303e-06 0 3.62033e-09)
(1.33648e-06 -4.49711e-30 2.9024e-09)
(1.33742e-06 1.19958e-29 3.0991e-09)
(1.34051e-06 0 2.38534e-09)
(1.34132e-06 -6.25156e-30 2.45914e-09)
(1.34379e-06 0 1.77193e-09)
(1.34424e-06 -7.92942e-31 1.787e-09)
(1.34609e-06 -2.39565e-30 1.07431e-09)
(1.34566e-06 0 1.23508e-09)
(1.34744e-06 0 2.70456e-10)
(1.34566e-06 3.77943e-30 1.13229e-09)
(1.3493e-06 0 -9.99142e-10)
(1.34509e-06 2.65549e-31 7.1252e-11)
(1.34931e-06 -1.84422e-34 -1.19936e-09)
(1.34456e-06 2.7551e-34 1.02601e-09)
(1.35051e-06 1.39147e-28 -4.04771e-09)
(1.34839e-06 7.63138e-34 -6.61928e-10)
(1.34893e-06 0 -1.89797e-09)
(1.34791e-06 4.95445e-35 -1.1819e-10)
(1.34489e-06 -4.96326e-35 6.04238e-10)
(1.34582e-06 1.71489e-33 -3.1885e-09)
(1.34691e-06 5.40397e-30 -1.85204e-09)
(1.34446e-06 0 -1.05008e-09)
(1.34455e-06 0 -2.14664e-09)
(1.34314e-06 -9.60388e-31 -1.27506e-09)
(1.34179e-06 2.46925e-29 -2.59844e-09)
(1.34257e-06 0 -2.3784e-09)
(1.33951e-06 4.25427e-30 -7.69777e-10)
(1.33804e-06 0 -1.01569e-09)
(1.33538e-06 4.86029e-35 -1.15352e-09)
(1.3351e-06 0 -1.86361e-09)
(1.33334e-06 0 -2.14404e-09)
(1.33399e-06 4.91917e-30 -1.98545e-09)
(1.331e-06 -4.31206e-35 -1.65144e-09)
(1.3322e-06 -2.75153e-29 -3.3794e-09)
(1.33102e-06 0 -3.26216e-09)
(1.33195e-06 0 -3.84114e-09)
(1.33013e-06 -3.22945e-34 -2.97004e-09)
(1.32937e-06 1.46821e-34 -3.33767e-09)
(1.32729e-06 -4.16204e-30 -2.91547e-09)
(1.32574e-06 0 -2.86354e-09)
(1.32327e-06 7.81103e-35 -2.94795e-09)
(1.32208e-06 0 -2.97406e-09)
(1.31919e-06 1.17838e-30 -2.24538e-09)
(1.3172e-06 -5.7817e-30 -2.43029e-09)
(1.31462e-06 -2.26614e-34 -1.96481e-09)
(1.31225e-06 0 -1.68772e-09)
(1.30962e-06 3.67337e-35 -1.54194e-09)
(1.30768e-06 9.39367e-37 -1.54285e-09)
(1.30542e-06 0 -1.13075e-09)
(1.30334e-06 0 -8.96548e-10)
(1.30128e-06 0 -9.30177e-10)
(1.29998e-06 0 -9.73059e-10)
(1.29832e-06 1.24406e-30 -6.54097e-10)
(1.297e-06 -1.01346e-30 -4.27505e-10)
(1.29536e-06 0 -1.53613e-10)
(1.29424e-06 -3.54116e-31 -1.82568e-10)
(1.29309e-06 2.87846e-31 -1.36366e-10)
(1.2924e-06 1.08578e-36 -1.49477e-10)
(1.2915e-06 5.94469e-37 3.4713e-11)
(1.29101e-06 -1.89527e-38 -2.34866e-11)
(1.29034e-06 -1.48746e-37 -2.28338e-11)
(1.29019e-06 6.70595e-32 -1.44606e-10)
(1.28978e-06 0 -7.30552e-11)
(1.28969e-06 0 -8.9353e-11)
(1.28924e-06 -5.32422e-32 -3.84196e-11)
(1.28919e-06 0 -1.82551e-10)
(1.28891e-06 0 -2.0086e-10)
(1.28893e-06 -7.991e-32 -2.8354e-10)
(1.28861e-06 -2.17091e-32 -2.25037e-10)
(1.28845e-06 0 -2.18764e-10)
(1.28798e-06 1.1488e-31 -1.432e-10)
(1.28775e-06 -5.41012e-32 -1.90607e-10)
(1.28729e-06 -6.96326e-32 -1.72293e-10)
(1.28709e-06 5.83031e-36 -2.67843e-10)
(1.28674e-06 -3.21947e-36 -2.9844e-10)
(1.2866e-06 0 -3.81886e-10)
(1.28628e-06 0 -3.87308e-10)
(1.28611e-06 0 -4.56507e-10)
(1.28577e-06 1.72575e-31 -4.62774e-10)
(1.28555e-06 0 -5.24407e-10)
(1.28517e-06 0 -5.29554e-10)
(1.2849e-06 -8.56654e-36 -5.85741e-10)
(1.28448e-06 0 -5.87756e-10)
(1.28415e-06 0 -6.32328e-10)
(1.28367e-06 0 -6.32875e-10)
(1.28328e-06 0 -6.70631e-10)
(1.28277e-06 5.38082e-31 -6.68947e-10)
(1.28233e-06 -6.43061e-31 -6.94035e-10)
(1.28176e-06 0 -6.72212e-10)
(1.28126e-06 4.92333e-31 -6.72071e-10)
(1.28063e-06 3.10172e-31 -6.32039e-10)
(1.28005e-06 1.82403e-37 -6.0985e-10)
(1.27938e-06 2.73087e-36 -5.62087e-10)
(1.27876e-06 1.29468e-36 -5.36448e-10)
(1.27808e-06 -3.51728e-36 -4.88534e-10)
(1.27745e-06 -1.18941e-36 -4.56376e-10)
(1.27679e-06 1.02953e-32 -4.11731e-10)
(1.27617e-06 2.59565e-32 -3.70795e-10)
(1.27554e-06 0 -3.27476e-10)
(1.27495e-06 5.86181e-32 -2.86765e-10)
(1.27437e-06 -2.5566e-36 -2.41153e-10)
(1.27382e-06 0 -1.99281e-10)
(1.27327e-06 -1.89072e-36 -1.4918e-10)
(1.27278e-06 -1.01238e-36 -1.01438e-10)
(1.27225e-06 0 -2.91365e-11)
(1.27178e-06 0 5.91441e-11)
(1.27149e-06 -1.57002e-31 1.23176e-10)
(1.27131e-06 0 1.90282e-10)
(1.27124e-06 -2.99595e-31 2.41237e-10)
(1.27124e-06 3.03016e-31 2.91249e-10)
(1.2713e-06 3.46737e-36 3.34217e-10)
(1.27141e-06 -3.13269e-31 3.7356e-10)
(1.27157e-06 -3.34953e-31 4.13448e-10)
(1.27179e-06 2.78796e-36 4.37693e-10)
(1.27203e-06 3.37483e-31 4.53015e-10)
(1.27231e-06 0 4.51523e-10)
(1.27258e-06 0 4.47552e-10)
(1.27288e-06 6.29058e-37 4.14009e-10)
(1.27313e-06 2.63964e-31 3.7096e-10)
(1.27338e-06 1.92038e-31 3.07481e-10)
(1.27357e-06 2.51993e-36 2.25265e-10)
(1.27372e-06 -2.54412e-36 9.93516e-11)
(1.27376e-06 -5.03912e-34 1.01214e-11)
(1.27385e-06 0 -1.05322e-10)
(1.27414e-06 -1.98217e-31 -2.78123e-10)
(1.27447e-06 0 -4.51803e-10)
(1.27492e-06 -2.20285e-35 -6.25403e-10)
(1.27538e-06 -9.11701e-31 -8.10038e-10)
(1.27586e-06 0 -9.96271e-10)
(1.27621e-06 0 -1.13201e-09)
(1.27647e-06 0 -1.29824e-09)
(1.27662e-06 4.51752e-35 -1.43949e-09)
(1.27661e-06 0 -1.53186e-09)
(1.27649e-06 0 -1.67079e-09)
(1.27628e-06 0 -1.80025e-09)
(1.27595e-06 -2.40009e-35 -1.84068e-09)
(1.2754e-06 5.95325e-30 -1.86928e-09)
(1.27476e-06 3.49151e-35 -1.89375e-09)
(1.27389e-06 -1.62097e-30 -1.78014e-09)
(1.27279e-06 3.44876e-31 -1.62513e-09)
(1.2715e-06 -2.2131e-35 -1.51353e-09)
(1.27021e-06 -3.89796e-31 -1.51246e-09)
(1.269e-06 -1.81896e-35 -1.57167e-09)
(1.26789e-06 1.53162e-30 -1.62129e-09)
(1.26679e-06 -1.47306e-30 -1.64052e-09)
(1.26574e-06 9.29283e-36 -1.64464e-09)
(1.26464e-06 0 -1.6277e-09)
(1.26355e-06 4.29716e-36 -1.61576e-09)
(1.26241e-06 3.10846e-36 -1.57122e-09)
(1.26125e-06 6.80896e-31 -1.517e-09)
(1.26005e-06 0 -1.4466e-09)
(1.25883e-06 -7.41342e-32 -1.36789e-09)
(1.25758e-06 0 -1.25261e-09)
(1.25628e-06 9.60158e-31 -1.13731e-09)
(1.255e-06 -1.13285e-30 -1.03848e-09)
(1.25373e-06 0 -9.29139e-10)
(1.25254e-06 8.03193e-31 -8.68742e-10)
(1.25144e-06 7.38037e-31 -8.26688e-10)
(1.25044e-06 -6.75101e-31 -8.04547e-10)
(1.24955e-06 -5.90614e-31 -8.02162e-10)
(1.24875e-06 0 -8.10842e-10)
(1.24805e-06 -3.38593e-36 -8.37241e-10)
(1.24741e-06 0 -8.51386e-10)
(1.24684e-06 0 -8.76888e-10)
(1.2463e-06 -8.79992e-36 -9.01933e-10)
(1.2458e-06 9.61829e-36 -9.34499e-10)
(1.24532e-06 -3.45987e-31 -9.54393e-10)
(1.24483e-06 8.21549e-36 -9.75554e-10)
(1.24436e-06 7.78941e-36 -9.90387e-10)
(1.24386e-06 -5.60699e-36 -9.94447e-10)
(1.24335e-06 -6.50412e-36 -1.00296e-09)
(1.24281e-06 0 -1.00042e-09)
(1.24225e-06 -4.23543e-36 -9.97364e-10)
(1.24168e-06 -3.11181e-31 -9.98788e-10)
(1.2411e-06 0 -9.93737e-10)
(1.24051e-06 -3.03479e-31 -9.94156e-10)
(1.23991e-06 0 -9.87243e-10)
(1.23931e-06 0 -9.88078e-10)
(1.23871e-06 -5.62889e-36 -9.86541e-10)
(1.23811e-06 6.806e-36 -9.8995e-10)
(1.23752e-06 0 -9.93213e-10)
(1.23693e-06 0 -1.00352e-09)
(1.23636e-06 0 -1.01149e-09)
(1.23576e-06 5.14304e-32 -1.02407e-09)
(1.23519e-06 6.28193e-32 -1.02854e-09)
(1.23458e-06 0 -1.03464e-09)
(1.23399e-06 2.8544e-31 -1.05369e-09)
(1.23337e-06 0 -1.05516e-09)
(1.23275e-06 0 -1.06943e-09)
(1.23211e-06 -3.86144e-31 -1.07457e-09)
(1.23144e-06 0 -1.08602e-09)
(1.23076e-06 0 -1.09829e-09)
(1.23004e-06 0 -1.0997e-09)
(1.22929e-06 -7.00988e-31 -1.10724e-09)
(1.22851e-06 0 -1.10534e-09)
(1.22771e-06 8.30387e-31 -1.11237e-09)
(1.22688e-06 8.78105e-31 -1.1141e-09)
(1.22604e-06 0 -1.11982e-09)
(1.22515e-06 -9.1093e-31 -1.11156e-09)
(1.22427e-06 1.02025e-30 -1.11642e-09)
(1.22337e-06 -5.33876e-36 -1.11269e-09)
(1.22246e-06 0 -1.11919e-09)
(1.22155e-06 0 -1.1137e-09)
(1.22063e-06 4.0564e-36 -1.10852e-09)
(1.21974e-06 0 -1.10499e-09)
(1.21883e-06 0 -1.10352e-09)
(1.21795e-06 0 -1.09757e-09)
(1.21707e-06 -1.20146e-30 -1.09318e-09)
(1.21622e-06 0 -1.08467e-09)
(1.21536e-06 1.10425e-30 -1.07337e-09)
(1.21454e-06 0 -1.06673e-09)
(1.2137e-06 0 -1.06171e-09)
(1.21291e-06 1.18166e-30 -1.05486e-09)
(1.2121e-06 0 -1.04172e-09)
(1.21133e-06 0 -1.04156e-09)
(1.21055e-06 0 -1.01503e-09)
(1.20979e-06 0 -1.00786e-09)
(1.20906e-06 0 -9.94534e-10)
(1.20832e-06 5.24426e-36 -9.66892e-10)
(1.20762e-06 0 -9.53268e-10)
(1.2069e-06 7.52328e-31 -9.32017e-10)
(1.20621e-06 0 -9.13023e-10)
(1.20551e-06 6.36815e-31 -8.90778e-10)
(1.20483e-06 0 -8.67043e-10)
(1.20413e-06 -2.84009e-31 -8.48799e-10)
(1.20346e-06 0 -8.28524e-10)
(1.20274e-06 3.61308e-36 -7.99363e-10)
(1.20204e-06 3.05583e-31 -7.94619e-10)
(1.20133e-06 2.84906e-31 -7.75428e-10)
(1.2006e-06 2.70811e-31 -7.55339e-10)
(1.19984e-06 0 -7.40239e-10)
(1.19908e-06 0 -7.30581e-10)
(1.19829e-06 0 -7.15426e-10)
(1.19749e-06 -3.88916e-31 -7.05992e-10)
(1.19666e-06 -2.97557e-36 -6.87424e-10)
(1.19581e-06 -4.59169e-31 -6.79733e-10)
(1.19495e-06 -4.66543e-31 -6.61331e-10)
(1.19405e-06 4.54188e-31 -6.39113e-10)
(1.19317e-06 5.34327e-31 -6.30703e-10)
(1.19227e-06 -5.23303e-36 -5.93306e-10)
(1.19138e-06 -4.80459e-31 -5.71641e-10)
(1.19049e-06 0 -5.2688e-10)
(1.18963e-06 3.11424e-31 -4.79934e-10)
(1.18875e-06 0 -4.21328e-10)
(1.18798e-06 1.13134e-31 -3.69667e-10)
(1.18716e-06 5.15085e-32 -2.85276e-10)
(1.18648e-06 0 -2.03461e-10)
(1.18576e-06 0 -9.69328e-11)
(1.18515e-06 0 4.6767e-11)
(1.1848e-06 2.13915e-31 1.77893e-10)
(1.18474e-06 4.80534e-31 2.97853e-10)
(1.1849e-06 -4.8753e-31 3.87614e-10)
(1.18522e-06 1.40185e-35 4.82789e-10)
(1.18571e-06 0 5.53202e-10)
(1.18627e-06 1.19291e-35 6.23728e-10)
(1.18697e-06 0 6.83311e-10)
(1.18771e-06 1.0663e-35 7.35904e-10)
(1.18855e-06 -1.2029e-30 7.71457e-10)
(1.18942e-06 0 8.07026e-10)
(1.19034e-06 0 8.28779e-10)
(1.19126e-06 0 8.5058e-10)
(1.19219e-06 0 8.63585e-10)
(1.1931e-06 2.13908e-30 8.74538e-10)
(1.19399e-06 2.00014e-30 8.7997e-10)
(1.19484e-06 0 8.8478e-10)
(1.19566e-06 0 8.81192e-10)
(1.19641e-06 -1.61136e-30 8.79394e-10)
(1.19713e-06 -6.83327e-36 8.77912e-10)
(1.19776e-06 0 8.70143e-10)
(1.19837e-06 0 8.53567e-10)
(1.19888e-06 -1.50063e-36 8.40552e-10)
(1.19938e-06 -4.59161e-31 8.26399e-10)
(1.1998e-06 0 8.06644e-10)
(1.20023e-06 0 7.90554e-10)
(1.20063e-06 3.56384e-31 7.79027e-10)
(1.20105e-06 -2.75114e-37 7.53757e-10)
(1.20145e-06 -3.64711e-31 7.47005e-10)
(1.2019e-06 -6.55385e-38 7.23208e-10)
(1.20233e-06 0 7.23081e-10)
(1.20285e-06 4.28583e-31 7.04156e-10)
(1.20334e-06 0 7.04317e-10)
(1.20395e-06 -4.958e-31 6.89285e-10)
(1.20452e-06 -6.67836e-31 7.0927e-10)
(1.20527e-06 -2.77812e-36 7.00588e-10)
(1.20591e-06 -7.46291e-31 7.35042e-10)
(1.20685e-06 0 7.19913e-10)
(1.20751e-06 0 7.75421e-10)
(1.20867e-06 -6.43215e-31 7.89619e-10)
(1.20932e-06 0 7.89847e-10)
(1.2106e-06 -2.50635e-30 9.67081e-10)
(1.21159e-06 0 7.34812e-10)
(1.21242e-06 -4.29215e-30 1.42102e-09)
(1.21499e-06 -1.572e-34 3.12915e-10)
(1.21305e-06 0 2.62464e-09)
(1.22142e-06 2.35085e-34 -9.487e-10)
(1.21211e-06 1.13508e-28 4.80598e-09)
(1.23331e-06 0 -3.62418e-09)
(1.2113e-06 -3.98552e-28 7.33385e-09)
(1.25104e-06 -4.47667e-28 -8.03739e-09)
(1.2108e-06 0 9.57277e-09)
(1.27341e-06 -4.90072e-32 -1.4347e-08)
(1.21104e-06 2.34194e-32 1.0339e-08)
(1.29659e-06 1.32449e-31 -2.22011e-08)
(1.21312e-06 1.36763e-32 7.7121e-09)
(1.31227e-06 0 -3.02286e-08)
(1.2193e-06 2.57418e-32 -9.10723e-10)
(1.31739e-06 0 -3.9965e-08)
(1.23503e-06 0 -2.03412e-08)
(1.34217e-06 0 -7.19988e-08)
(1.2733e-06 3.43604e-26 -7.56543e-08)
(1.40098e-06 1.95724e-30 -1.95694e-07)
(1.32983e-06 0 -3.27257e-07)
(2.66038e-07 1.71366e-31 -5.31199e-10)
(1.23245e-07 -9.39848e-30 -2.46626e-10)
(5.20017e-09 -4.03996e-35 -1.04118e-11)
(0 0 0)
(0 0 0)
(0 0 0)
(0 0 0)
(0 0 0)
(0 0 0)
(0 0 0)
)
;
    }
    endWall
    {
        type            calculated;
        value           uniform (0 0 0);
    }
    topWall
    {
        type            calculated;
        value           uniform (0 0 0);
    }
}


// ************************************************************************* //
