/*--------------------------------*- C++ -*----------------------------------*\
| =========                 |                                                 |
| \\      /  F ield         | foam-extend: Open Source CFD                    |
|  \\    /   O peration     | Version:     3.2                                |
|   \\  /    A nd           | Web:         http://www.foam-extend.org         |
|    \\/     M anipulation  | For copyright notice see file Copyright         |
\*---------------------------------------------------------------------------*/
FoamFile
{
    version     2.0;
    format      ascii;
    class       volVectorField;
    location    "1440";
    object      q_b_slide;
}
// * * * * * * * * * * * * * * * * * * * * * * * * * * * * * * * * * * * * * //

dimensions      [0 2 -1 0 0 0 0];

internalField   uniform (0 0 0);

boundaryField
{
    inlet
    {
        type            calculated;
        value           uniform (0 0 0);
    }
    outlet
    {
        type            calculated;
        value           uniform (0 0 0);
    }
    sideWall
    {
        type            empty;
    }
    bed
    {
        type            calculated;
        value           nonuniform List<vector> 
550
(
(0 0 0)
(0 0 0)
(0 0 0)
(0 0 0)
(2.85418e-07 8.11589e-29 -5.70827e-10)
(7.55275e-07 2.65294e-34 -1.51056e-09)
(1.37818e-06 -3.8912e-28 -2.75629e-09)
(2.16115e-06 -5.86871e-28 -4.3223e-09)
(3.00625e-06 0 -6.01283e-09)
(3.83508e-06 -7.33164e-34 -7.66996e-09)
(4.69527e-06 -3.02228e-33 -1.16101e-08)
(5.43059e-06 0 -1.08612e-08)
(6.05598e-06 1.83021e-34 -9.24884e-09)
(6.55957e-06 0 -1.56108e-08)
(6.91726e-06 -1.65277e-27 -1.38345e-08)
(7.14953e-06 0 -1.15839e-08)
(7.27363e-06 0 -1.64711e-08)
(7.28981e-06 0 -1.62804e-08)
(7.22377e-06 -1.25416e-27 -1.39839e-08)
(7.10245e-06 0 -1.3856e-08)
(6.93594e-06 0 -1.24822e-08)
(6.73953e-06 -9.84726e-28 -1.32285e-08)
(6.51847e-06 -9.00178e-28 -1.30369e-08)
(6.2825e-06 0 -1.16414e-08)
(6.0424e-06 -7.37612e-28 -1.20855e-08)
(5.80037e-06 -6.55327e-28 -1.16007e-08)
(5.56283e-06 5.91883e-28 -1.16589e-08)
(5.33223e-06 0 -1.06627e-08)
(5.1136e-06 5.20793e-35 -9.73952e-09)
(4.90765e-06 0 -9.81422e-09)
(4.71215e-06 3.12932e-34 -9.42378e-09)
(4.52845e-06 3.94568e-28 -9.39463e-09)
(4.35541e-06 -2.94939e-34 -9.02127e-09)
(4.19346e-06 3.29249e-28 -8.36294e-09)
(4.04317e-06 2.87825e-34 -8.06544e-09)
(3.90341e-06 -1.36539e-34 -7.53802e-09)
(3.77459e-06 4.24533e-34 -7.53382e-09)
(3.65483e-06 -2.45506e-28 -7.52998e-09)
(3.54324e-06 0 -6.86549e-09)
(3.44112e-06 0 -6.87391e-09)
(3.34624e-06 0 -6.87762e-09)
(3.25804e-06 -1.61915e-28 -6.32935e-09)
(3.17749e-06 0 -6.34729e-09)
(3.1027e-06 -1.42879e-28 -6.36512e-09)
(3.03302e-06 0 -6.05704e-09)
(2.96892e-06 0 -5.93229e-09)
(2.90959e-06 1.00678e-28 -5.81246e-09)
(2.85467e-06 3.09383e-34 -5.70244e-09)
(2.80372e-06 0 -5.60374e-09)
(2.75646e-06 6.51812e-29 -5.38193e-09)
(2.71303e-06 0 -5.30161e-09)
(2.6728e-06 -5.69735e-29 -5.46115e-09)
(2.63461e-06 0 -5.26893e-09)
(2.59924e-06 2.20353e-34 -5.19648e-09)
(2.56614e-06 -3.3566e-29 -5.13172e-09)
(2.53524e-06 0 -5.06629e-09)
(2.50619e-06 -1.55552e-34 -5.01376e-09)
(2.47899e-06 -2.49246e-29 -5.04254e-09)
(2.45319e-06 1.07863e-29 -4.54325e-09)
(2.4306e-06 0 -5.59121e-09)
(2.40519e-06 -1.66634e-29 -3.72397e-09)
(2.36811e-06 0 -5.55146e-09)
(2.36416e-06 0 -4.18779e-09)
(2.03227e-06 4.75877e-34 -4.70528e-09)
(1.97382e-06 -1.04252e-28 -3.23541e-09)
(2.29099e-06 -1.15449e-29 -5.22122e-09)
(2.27061e-06 -4.87185e-32 -3.51721e-09)
(2.25823e-06 -2.26493e-28 -5.58664e-09)
(1.73296e-06 -4.3025e-32 -3.00354e-09)
(2.226e-06 1.17985e-28 -4.96252e-09)
(2.20735e-06 -9.43454e-32 -2.97741e-09)
(2.19881e-06 -3.80537e-28 -5.74821e-09)
(1.36276e-06 0 -2.85589e-09)
(1.19305e-06 0 -2.33744e-09)
(2.15398e-06 -4.36339e-32 -3.62239e-09)
(2.14266e-06 3.5776e-32 -4.15384e-09)
(2.13057e-06 -2.38159e-29 -3.9944e-09)
(2.11948e-06 0 -4.67269e-09)
(2.10647e-06 1.86477e-31 -3.95144e-09)
(2.11546e-06 -8.08064e-30 -6.36207e-09)
(1.42951e-07 5.47932e-33 -1.40607e-10)
(2.07146e-06 -8.77856e-32 -3.23601e-09)
(2.06294e-06 5.82275e-29 -4.1303e-09)
(2.05362e-06 0 -4.71792e-09)
(2.04077e-06 3.56435e-28 -3.56194e-09)
(2.03384e-06 -5.52503e-28 -5.18445e-09)
(2.02138e-06 0 -4.16012e-09)
(2.01039e-06 4.51185e-29 -3.54935e-09)
(1.99953e-06 0 -3.05262e-09)
(1.99418e-06 -7.94452e-28 -5.1248e-09)
(2.00127e-06 7.11573e-29 -5.04898e-09)
(1.96755e-06 -7.5977e-32 -1.8717e-09)
(1.96172e-06 0 -2.975e-09)
(1.9597e-06 -1.1661e-31 -6.09873e-09)
(1.94347e-06 1.94355e-32 -2.77366e-09)
(1.93902e-06 5.27185e-28 -4.7517e-09)
(1.92853e-06 0 -4.31406e-09)
(1.91565e-06 -2.62812e-28 -2.55248e-09)
(1.90908e-06 0 -3.28888e-09)
(1.90529e-06 7.09557e-29 -5.52076e-09)
(1.8921e-06 0 -3.72289e-09)
(1.88332e-06 -2.73196e-32 -3.66762e-09)
(1.87328e-06 -1.86566e-32 -3.07863e-09)
(1.86517e-06 0 -3.3684e-09)
(1.85452e-06 -1.14525e-28 -2.34188e-09)
(1.85339e-06 1.2838e-27 -5.55486e-09)
(1.84327e-06 0 -5.25208e-09)
(0 0 0)
(1.81972e-06 -1.75655e-28 -2.49396e-09)
(1.81642e-06 0 -5.18949e-09)
(1.79875e-06 0 -1.42547e-09)
(1.79895e-06 0 -5.27107e-09)
(1.78778e-06 0 -4.81359e-09)
(1.77014e-06 0 -1.892e-09)
(1.75619e-06 -2.06277e-29 6.30846e-10)
(1.76048e-06 2.4176e-29 -5.14278e-09)
(1.73937e-06 0 1.19106e-10)
(1.74251e-06 0 -5.2904e-09)
(1.72411e-06 0 -1.85471e-09)
(1.71553e-06 -5.96592e-34 -3.45696e-09)
(1.68944e-06 4.31396e-29 3.77867e-09)
(1.70234e-06 -4.70179e-28 -8.05915e-09)
(1.62081e-06 0 1.76946e-08)
(1.62494e-06 0 1.55198e-08)
(1.62921e-06 0 1.34248e-08)
(1.63104e-06 2.86622e-28 1.30885e-08)
(1.63549e-06 0 1.16294e-08)
(1.6366e-06 3.79827e-34 1.14846e-08)
(1.6411e-06 0 9.81187e-09)
(1.64146e-06 -8.62715e-29 9.53838e-09)
(1.64524e-06 1.32983e-30 7.67797e-09)
(1.64464e-06 -6.0729e-34 7.22515e-09)
(1.64717e-06 -3.95707e-29 5.21644e-09)
(1.64528e-06 0 4.60184e-09)
(1.64626e-06 0 2.29067e-09)
(1.64339e-06 -4.1335e-34 2.79958e-09)
(1.64453e-06 0 -1.97666e-09)
(1.63965e-06 0 -2.36394e-09)
(1.63911e-06 0 5.08998e-09)
(1.63861e-06 0 2.48828e-09)
(1.63038e-06 0 6.75164e-10)
(1.63093e-06 -4.2686e-28 9.55405e-09)
(1.63326e-06 0 7.32407e-09)
(1.63073e-06 0 7.10168e-09)
(1.63163e-06 0 6.07319e-09)
(1.62907e-06 0 6.35894e-09)
(1.62991e-06 0 5.3053e-09)
(1.62728e-06 0 5.34004e-09)
(1.62768e-06 -9.99164e-30 4.14771e-09)
(1.62463e-06 -6.74699e-30 4.0494e-09)
(1.62436e-06 -1.62101e-29 3.04923e-09)
(1.62097e-06 0 2.75903e-09)
(1.61955e-06 0 2.48632e-09)
(1.61724e-06 9.31196e-30 1.22168e-09)
(1.61217e-06 -4.06164e-34 2.68285e-09)
(1.61529e-06 -2.72068e-34 -9.98624e-10)
(1.60221e-06 -3.5551e-29 4.20588e-09)
(1.61814e-06 0 -4.20885e-09)
(1.5939e-06 1.39826e-28 4.73994e-09)
(1.62288e-06 0 -8.82481e-09)
(1.58872e-06 0 2.94346e-09)
(1.62308e-06 -6.43624e-28 -1.21033e-08)
(1.58526e-06 0 5.55513e-10)
(1.6178e-06 -3.04332e-32 -1.35286e-08)
(1.58139e-06 0 -1.4259e-09)
(1.61087e-06 0 -1.53201e-08)
(1.57789e-06 0 -5.74311e-09)
(1.60752e-06 -9.99684e-28 -2.30776e-08)
(1.58262e-06 -7.73646e-28 -1.71712e-08)
(1.6144e-06 0 -4.59134e-08)
(1.6054e-06 -3.57205e-32 -6.02368e-09)
(1.55863e-06 6.77562e-29 1.11411e-09)
(1.5505e-06 0 -7.26692e-09)
(1.51468e-06 -1.56188e-33 -1.06134e-09)
(1.51022e-06 0 -6.08819e-09)
(1.48249e-06 0 -1.05655e-09)
(1.48013e-06 0 -4.85142e-09)
(1.45838e-06 7.78964e-30 -7.85674e-10)
(1.45726e-06 2.11236e-29 -3.77757e-09)
(1.44014e-06 0 -5.2828e-10)
(1.43971e-06 1.50308e-29 -2.89883e-09)
(1.42624e-06 0 -3.23202e-10)
(1.42615e-06 0 -2.19623e-09)
(1.41563e-06 0 -1.8199e-10)
(1.41556e-06 -3.67689e-34 -1.61142e-09)
(1.40743e-06 0 -9.4924e-11)
(1.40722e-06 0 -1.14316e-09)
(1.40107e-06 -3.56356e-35 -5.04343e-11)
(1.40062e-06 1.1502e-31 -7.57321e-10)
(1.39607e-06 0 3.37113e-12)
(1.39532e-06 3.0608e-31 -4.31611e-10)
(1.39211e-06 0 3.87832e-11)
(1.39108e-06 1.55939e-31 -1.22064e-10)
(1.38882e-06 0 1.77066e-10)
(1.38807e-06 0 5.86994e-11)
(1.38635e-06 0 3.2248e-10)
(1.38599e-06 -3.84901e-36 1.55446e-10)
(1.38455e-06 0 4.12195e-10)
(1.38444e-06 0 2.08703e-10)
(1.38315e-06 -7.49625e-31 4.56243e-10)
(1.38317e-06 -1.47913e-35 2.49027e-10)
(1.38199e-06 1.51095e-35 4.94684e-10)
(1.38208e-06 -3.17004e-31 2.68965e-10)
(1.38095e-06 0 4.88056e-10)
(1.38106e-06 -2.80582e-31 2.71335e-10)
(1.37999e-06 -5.53936e-31 4.93994e-10)
(1.38011e-06 -1.76947e-35 2.6214e-10)
(1.37906e-06 0 4.9069e-10)
(1.37923e-06 1.70961e-35 2.71133e-10)
(1.37822e-06 4.76227e-31 4.86579e-10)
(1.37842e-06 1.66824e-31 2.55907e-10)
(1.37742e-06 1.24175e-35 4.54002e-10)
(1.37763e-06 -1.65733e-35 2.41072e-10)
(1.37667e-06 1.10372e-35 4.17816e-10)
(1.37684e-06 -7.44486e-32 2.03446e-10)
(1.37592e-06 -3.9057e-31 3.99951e-10)
(1.3761e-06 3.10787e-32 1.52037e-10)
(1.37517e-06 1.14091e-35 3.38971e-10)
(1.37535e-06 8.43502e-36 1.16307e-10)
(1.37444e-06 -3.39601e-31 2.96119e-10)
(1.37461e-06 0 7.7782e-11)
(1.3737e-06 -6.15986e-36 2.68143e-10)
(1.37387e-06 0 1.862e-11)
(1.3729e-06 0 2.38481e-10)
(1.37314e-06 6.48829e-34 -4.7002e-12)
(1.37209e-06 4.88163e-31 2.51416e-10)
(1.37252e-06 6.79623e-34 -5.83995e-11)
(1.37132e-06 0 2.83864e-10)
(1.37202e-06 3.36992e-36 -1.18827e-10)
(1.37061e-06 0 3.33681e-10)
(1.37167e-06 -1.40647e-31 -2.10008e-10)
(1.36996e-06 0 3.59533e-10)
(1.3714e-06 -2.14194e-35 -3.00893e-10)
(1.36937e-06 -8.69092e-31 3.67129e-10)
(1.37117e-06 5.05053e-35 -4.11865e-10)
(1.36889e-06 0 3.833e-10)
(1.37096e-06 -5.73078e-35 -5.05195e-10)
(1.36847e-06 -1.01133e-30 3.69762e-10)
(1.37073e-06 -1.5123e-30 -5.67281e-10)
(1.3681e-06 0 3.66965e-10)
(1.37051e-06 0 -6.05017e-10)
(1.36774e-06 0 3.60084e-10)
(1.37032e-06 0 -6.4181e-10)
(1.36742e-06 0 4.06814e-10)
(1.37029e-06 1.88089e-30 -7.25343e-10)
(1.36715e-06 -7.30659e-35 4.36038e-10)
(1.37039e-06 1.61693e-34 -8.24125e-10)
(1.36694e-06 0 4.72808e-10)
(1.37063e-06 0 -9.44397e-10)
(1.36678e-06 0 5.16978e-10)
(1.37099e-06 0 -1.09128e-09)
(1.36665e-06 0 5.64833e-10)
(1.37146e-06 -6.61312e-30 -1.26601e-09)
(1.36652e-06 0 6.18835e-10)
(1.372e-06 0 -1.46278e-09)
(1.36638e-06 0 6.79404e-10)
(1.37261e-06 -8.81678e-30 -1.67927e-09)
(1.36619e-06 1.5082e-34 7.21268e-10)
(1.3732e-06 0 -1.93582e-09)
(1.366e-06 0 7.52181e-10)
(1.3737e-06 0 -2.1558e-09)
(1.36568e-06 5.81163e-30 8.28223e-10)
(1.37417e-06 -2.5344e-29 -2.41223e-09)
(1.36526e-06 6.27816e-30 8.78463e-10)
(1.37456e-06 2.83196e-29 -2.68073e-09)
(1.36475e-06 -2.26926e-34 9.44879e-10)
(1.37488e-06 1.98558e-33 -2.93778e-09)
(1.3641e-06 -1.47207e-29 1.00347e-09)
(1.37515e-06 3.38092e-29 -3.21494e-09)
(1.36335e-06 0 1.08485e-09)
(1.37542e-06 3.71504e-29 -3.52208e-09)
(1.36253e-06 1.75954e-29 1.17681e-09)
(1.3757e-06 -4.09705e-29 -3.86195e-09)
(1.36168e-06 -3.14665e-34 1.19011e-09)
(1.37582e-06 8.81959e-29 -4.17506e-09)
(1.3608e-06 3.30666e-34 1.15144e-09)
(1.37561e-06 0 -4.4487e-09)
(1.35991e-06 -1.68101e-34 9.92449e-10)
(1.37476e-06 -9.39451e-29 -4.58416e-09)
(1.35902e-06 0 7.29452e-10)
(1.373e-06 2.66929e-33 -4.54068e-09)
(1.35815e-06 3.03218e-34 3.68202e-10)
(1.37071e-06 8.00016e-29 -4.37861e-09)
(1.35728e-06 5.36746e-34 -5.11061e-11)
(1.36793e-06 0 -4.09229e-09)
(1.35635e-06 -3.10338e-30 -4.19716e-10)
(1.36535e-06 0 -3.8755e-09)
(1.35538e-06 -7.85957e-34 -7.58604e-10)
(1.36294e-06 -1.49858e-33 -3.71566e-09)
(1.35434e-06 -8.75159e-30 -1.059e-09)
(1.3606e-06 0 -3.56478e-09)
(1.35317e-06 -7.28499e-30 -1.3215e-09)
(1.35832e-06 0 -3.44755e-09)
(1.35187e-06 -5.98728e-30 -1.55763e-09)
(1.35607e-06 9.12305e-34 -3.34567e-09)
(1.35042e-06 0 -1.74536e-09)
(1.35379e-06 0 -3.257e-09)
(1.34881e-06 0 -1.90906e-09)
(1.35146e-06 0 -3.18095e-09)
(1.34706e-06 0 -2.04324e-09)
(1.3491e-06 0 -3.12021e-09)
(1.34518e-06 4.48882e-30 -2.16325e-09)
(1.34673e-06 0 -3.06131e-09)
(1.34319e-06 -3.4293e-30 -2.24094e-09)
(1.34432e-06 7.6559e-30 -3.00402e-09)
(1.34111e-06 0 -2.30132e-09)
(1.3419e-06 -6.79121e-30 -2.9503e-09)
(1.33898e-06 0 -2.34509e-09)
(1.33947e-06 5.78067e-30 -2.89562e-09)
(1.33682e-06 1.41511e-30 -2.35075e-09)
(1.33703e-06 0 -2.81421e-09)
(1.33465e-06 1.10292e-30 -2.3472e-09)
(1.33463e-06 0 -2.71948e-09)
(1.33248e-06 1.49592e-30 -2.32852e-09)
(1.33227e-06 -1.54066e-34 -2.60204e-09)
(1.3303e-06 -1.559e-34 -2.27387e-09)
(1.32996e-06 0 -2.48561e-09)
(1.32817e-06 0 -2.20454e-09)
(1.32774e-06 4.4245e-31 -2.36537e-09)
(1.32612e-06 1.98223e-30 -2.12442e-09)
(1.32564e-06 3.2642e-32 -2.25858e-09)
(1.32416e-06 0 -2.04166e-09)
(1.32362e-06 0 -2.13572e-09)
(1.32226e-06 0 -1.95902e-09)
(1.3217e-06 0 -2.03953e-09)
(1.32046e-06 0 -1.87624e-09)
(1.31986e-06 0 -1.93881e-09)
(1.3187e-06 -1.22555e-30 -1.7867e-09)
(1.31807e-06 6.83155e-31 -1.82156e-09)
(1.31699e-06 -3.01722e-35 -1.70092e-09)
(1.31634e-06 0 -1.72255e-09)
(1.31533e-06 -1.16511e-30 -1.60417e-09)
(1.31466e-06 -8.94724e-31 -1.60211e-09)
(1.31371e-06 2.74e-35 -1.50162e-09)
(1.31305e-06 9.55104e-36 -1.48203e-09)
(1.31216e-06 1.2534e-30 -1.37786e-09)
(1.31151e-06 0 -1.35125e-09)
(1.3107e-06 -1.41818e-30 -1.2496e-09)
(1.31006e-06 -1.33355e-30 -1.20855e-09)
(1.3093e-06 -1.71351e-30 -1.10836e-09)
(1.3087e-06 1.56456e-30 -1.05753e-09)
(1.308e-06 1.87639e-30 -9.5478e-10)
(1.30746e-06 0 -8.9547e-10)
(1.30683e-06 -1.06984e-30 -7.90911e-10)
(1.30634e-06 -1.33982e-35 -7.20518e-10)
(1.3058e-06 1.53399e-35 -6.1915e-10)
(1.30537e-06 0 -5.4234e-10)
(1.30491e-06 -6.08488e-31 -4.37147e-10)
(1.30453e-06 0 -3.46257e-10)
(1.30413e-06 3.26354e-31 -2.29007e-10)
(1.30384e-06 0 -1.30568e-10)
(1.30346e-06 1.17249e-31 5.17839e-11)
(1.30338e-06 0 2.08998e-10)
(1.30359e-06 8.9841e-31 3.20871e-10)
(1.30393e-06 0 4.25222e-10)
(1.30444e-06 1.6321e-30 5.03734e-10)
(1.30502e-06 -1.68802e-30 5.94662e-10)
(1.30572e-06 1.35786e-35 6.56452e-10)
(1.30643e-06 0 7.29721e-10)
(1.30724e-06 0 7.9132e-10)
(1.30804e-06 0 8.55153e-10)
(1.30893e-06 -1.52596e-30 9.07507e-10)
(1.3098e-06 3.00203e-35 9.71044e-10)
(1.31075e-06 0 1.01551e-09)
(1.31167e-06 3.0471e-30 1.06918e-09)
(1.31264e-06 -2.97371e-30 1.11274e-09)
(1.3136e-06 -2.97358e-30 1.15825e-09)
(1.31458e-06 -2.40145e-35 1.19446e-09)
(1.31557e-06 -2.49091e-35 1.23788e-09)
(1.31656e-06 0 1.26853e-09)
(1.31756e-06 0 1.299e-09)
(1.31854e-06 2.66888e-30 1.31945e-09)
(1.31952e-06 -1.97011e-35 1.34288e-09)
(1.32046e-06 0 1.35018e-09)
(1.32136e-06 -1.68547e-35 1.36587e-09)
(1.32225e-06 2.26918e-30 1.37262e-09)
(1.3231e-06 0 1.37783e-09)
(1.32392e-06 -2.0311e-30 1.37881e-09)
(1.32469e-06 -1.21688e-35 1.38139e-09)
(1.32544e-06 1.75994e-30 1.36712e-09)
(1.32613e-06 -1.67165e-30 1.35824e-09)
(1.32683e-06 1.56665e-30 1.34302e-09)
(1.32747e-06 1.44178e-30 1.32428e-09)
(1.32808e-06 1.37211e-30 1.30729e-09)
(1.32868e-06 -4.07612e-36 1.28985e-09)
(1.32923e-06 0 1.25991e-09)
(1.32976e-06 0 1.24284e-09)
(1.33026e-06 -9.18314e-31 1.21283e-09)
(1.33075e-06 3.35469e-36 1.19909e-09)
(1.33122e-06 0 1.17304e-09)
(1.33167e-06 -7.62206e-31 1.14605e-09)
(1.3321e-06 -7.61752e-31 1.12496e-09)
(1.33253e-06 0 1.10243e-09)
(1.33294e-06 6.9967e-31 1.0821e-09)
(1.33337e-06 -6.68089e-31 1.06074e-09)
(1.33378e-06 -7.29188e-31 1.04316e-09)
(1.33419e-06 3.23359e-36 1.01169e-09)
(1.33459e-06 3.49867e-37 9.97145e-10)
(1.33498e-06 0 9.6483e-10)
(1.33535e-06 3.29885e-31 9.50146e-10)
(1.33569e-06 0 9.15245e-10)
(1.33599e-06 -3.1338e-31 9.0773e-10)
(1.33625e-06 -2.17129e-31 8.72715e-10)
(1.33642e-06 1.86909e-31 8.46924e-10)
(1.33657e-06 0 8.33819e-10)
(1.33664e-06 1.72292e-36 8.09152e-10)
(1.33667e-06 -2.77459e-36 7.76121e-10)
(1.33661e-06 9.68525e-32 7.58637e-10)
(1.33653e-06 0 7.25128e-10)
(1.33637e-06 2.28088e-36 7.02154e-10)
(1.33619e-06 -3.23622e-36 6.70065e-10)
(1.33592e-06 0 6.56535e-10)
(1.33568e-06 0 6.26769e-10)
(1.33535e-06 2.12159e-31 5.90904e-10)
(1.33504e-06 0 5.60793e-10)
(1.33467e-06 -1.06517e-36 5.53792e-10)
(1.3344e-06 -1.65588e-31 5.24766e-10)
(1.33405e-06 -2.27809e-31 4.97408e-10)
(1.33379e-06 1.88058e-36 4.74542e-10)
(1.33348e-06 2.15812e-36 4.44401e-10)
(1.33323e-06 1.26128e-36 4.32814e-10)
(1.33298e-06 8.37374e-32 3.99501e-10)
(1.33272e-06 0 3.66555e-10)
(1.33251e-06 0 3.65817e-10)
(1.33232e-06 2.59966e-36 3.32311e-10)
(1.33212e-06 8.14215e-33 3.12757e-10)
(1.33196e-06 1.1191e-32 2.82914e-10)
(1.33177e-06 6.27501e-34 2.62418e-10)
(1.3316e-06 0 2.36281e-10)
(1.33141e-06 0 2.19241e-10)
(1.33122e-06 1.40659e-32 1.97225e-10)
(1.33101e-06 -2.49911e-32 1.85708e-10)
(1.3308e-06 0 1.65935e-10)
(1.33055e-06 0 1.58097e-10)
(1.3303e-06 4.34442e-37 1.46139e-10)
(1.33002e-06 -3.39479e-32 1.41925e-10)
(1.32975e-06 3.51562e-32 1.37161e-10)
(1.32946e-06 -1.27185e-37 1.34798e-10)
(1.32917e-06 0 1.38795e-10)
(1.32889e-06 5.08109e-32 1.42586e-10)
(1.32859e-06 3.11074e-32 1.24226e-10)
(1.32828e-06 -4.32189e-32 1.33746e-10)
(1.32798e-06 0 1.45626e-10)
(1.32769e-06 -6.37937e-32 1.58634e-10)
(1.32738e-06 1.59585e-37 1.50887e-10)
(1.32707e-06 0 1.69136e-10)
(1.32678e-06 5.12254e-37 1.84535e-10)
(1.32649e-06 -7.14351e-32 2.03699e-10)
(1.32621e-06 0 2.24801e-10)
(1.32595e-06 0 2.42228e-10)
(1.32569e-06 0 2.67984e-10)
(1.32548e-06 -2.04018e-31 2.87138e-10)
(1.32526e-06 -1.59482e-31 2.79416e-10)
(1.32505e-06 1.90598e-31 2.9835e-10)
(1.32488e-06 2.064e-31 3.15058e-10)
(1.32473e-06 1.27307e-36 3.27569e-10)
(1.3246e-06 0 3.41968e-10)
(1.32449e-06 2.26171e-31 3.55512e-10)
(1.32441e-06 0 3.65641e-10)
(1.32433e-06 0 3.76642e-10)
(1.32427e-06 2.3437e-31 3.89919e-10)
(1.32423e-06 2.32183e-31 3.99245e-10)
(1.32419e-06 0 4.10563e-10)
(1.32416e-06 0 4.20566e-10)
(1.32414e-06 1.81306e-36 4.37008e-10)
(1.32415e-06 -2.2261e-31 4.48383e-10)
(1.32416e-06 -2.35451e-31 4.69247e-10)
(1.32421e-06 4.59171e-31 4.84459e-10)
(1.32425e-06 4.98171e-31 5.08333e-10)
(1.32434e-06 -5.02118e-31 5.28481e-10)
(1.32444e-06 5.51413e-36 5.54768e-10)
(1.32459e-06 0 5.75512e-10)
(1.32475e-06 0 6.01401e-10)
(1.32496e-06 5.60255e-31 6.25464e-10)
(1.32522e-06 4.63062e-36 6.45094e-10)
(1.32553e-06 0 6.64471e-10)
(1.32592e-06 0 7.17435e-10)
(1.3264e-06 -4.45909e-36 7.28005e-10)
(1.32689e-06 -7.23446e-31 7.44356e-10)
(1.32748e-06 0 7.9048e-10)
(1.32814e-06 4.09113e-36 7.96083e-10)
(1.3288e-06 0 8.11818e-10)
(1.32957e-06 0 8.44932e-10)
(1.33032e-06 -9.74387e-31 8.57314e-10)
(1.33116e-06 1.06844e-30 8.90399e-10)
(1.33198e-06 0 9.06021e-10)
(1.33289e-06 0 9.36683e-10)
(1.33375e-06 0 9.50189e-10)
(1.33469e-06 1.52606e-35 9.8038e-10)
(1.33558e-06 -1.2441e-35 9.95254e-10)
(1.33653e-06 0 1.02783e-09)
(1.33742e-06 0 1.04547e-09)
(1.33836e-06 0 1.08105e-09)
(1.33924e-06 0 1.09977e-09)
(1.34018e-06 0 1.14041e-09)
(1.34109e-06 -1.28688e-35 1.15454e-09)
(1.34203e-06 2.80333e-30 1.20136e-09)
(1.34303e-06 0 1.24526e-09)
(1.34403e-06 2.76146e-30 1.25283e-09)
(1.34506e-06 -3.03585e-30 1.29443e-09)
(1.34614e-06 -3.0988e-30 1.32723e-09)
(1.34724e-06 -3.22926e-30 1.36395e-09)
(1.34839e-06 0 1.38916e-09)
(1.34954e-06 0 1.42631e-09)
(1.35074e-06 0 1.44756e-09)
(1.35189e-06 3.08882e-30 1.44763e-09)
(1.35305e-06 0 1.46866e-09)
(1.3542e-06 3.27671e-30 1.50142e-09)
(1.35533e-06 0 1.52854e-09)
(1.35646e-06 3.39964e-30 1.56822e-09)
(1.35755e-06 -2.41447e-35 1.61416e-09)
(1.35866e-06 1.39837e-35 1.6101e-09)
(1.35958e-06 0 1.68554e-09)
(1.36077e-06 -2.33671e-30 1.67756e-09)
(1.36146e-06 0 1.75591e-09)
(1.36276e-06 1.7178e-30 1.78408e-09)
(1.36325e-06 2.83286e-35 1.73394e-09)
(1.36443e-06 6.08422e-30 2.0774e-09)
(1.36542e-06 0 1.5197e-09)
(1.36523e-06 -1.12278e-29 2.85104e-09)
(1.36934e-06 1.48401e-30 6.58335e-10)
(1.36324e-06 0 4.96271e-09)
(1.37891e-06 0 -1.86842e-09)
(1.35819e-06 3.95624e-28 8.73656e-09)
(1.3988e-06 0 -6.9415e-09)
(1.3541e-06 0 1.26732e-08)
(1.42879e-06 0 -1.50279e-08)
(1.35176e-06 -6.10735e-32 1.54314e-08)
(1.46527e-06 0 -2.61999e-08)
(1.35249e-06 0 1.48456e-08)
(1.49956e-06 0 -3.93048e-08)
(1.35842e-06 0 7.85537e-09)
(1.51502e-06 0 -5.09428e-08)
(1.37305e-06 -7.69101e-32 -7.57151e-09)
(1.53054e-06 -8.85532e-27 -7.04854e-08)
(1.40302e-06 -8.05664e-28 -4.0487e-08)
(1.5761e-06 1.43159e-30 -1.27026e-07)
(1.46105e-06 0 -1.34327e-07)
(1.66268e-06 0 -3.2817e-07)
(1.49397e-06 -1.47069e-24 -5.14523e-07)
(0 0 0)
(0 0 0)
(0 0 0)
(0 0 0)
(0 0 0)
(0 0 0)
(0 0 0)
(0 0 0)
(0 0 0)
(0 0 0)
)
;
    }
    endWall
    {
        type            calculated;
        value           uniform (0 0 0);
    }
    topWall
    {
        type            calculated;
        value           uniform (0 0 0);
    }
}


// ************************************************************************* //
