/*--------------------------------*- C++ -*----------------------------------*\
| =========                 |                                                 |
| \\      /  F ield         | foam-extend: Open Source CFD                    |
|  \\    /   O peration     | Version:     3.2                                |
|   \\  /    A nd           | Web:         http://www.foam-extend.org         |
|    \\/     M anipulation  | For copyright notice see file Copyright         |
\*---------------------------------------------------------------------------*/
FoamFile
{
    version     2.0;
    format      ascii;
    class       edgeScalarField;
    location    "910";
    object      q_f;
}
// * * * * * * * * * * * * * * * * * * * * * * * * * * * * * * * * * * * * * //

dimensions      [0 3 -1 0 0 0 0];

internalField   nonuniform List<scalar> 
549
(
0
0
1.14728e-09
5.8582e-09
1.48366e-08
2.7184e-08
4.2613e-08
6.01667e-08
7.80357e-08
9.58579e-08
1.12187e-07
1.26459e-07
1.38559e-07
1.46962e-07
1.53138e-07
1.57291e-07
1.58224e-07
1.57313e-07
1.55493e-07
1.52615e-07
1.49413e-07
1.45151e-07
1.40475e-07
1.3604e-07
1.3105e-07
1.26084e-07
1.20825e-07
1.16164e-07
1.12131e-07
1.07908e-07
1.0391e-07
9.97962e-08
9.59295e-08
9.26553e-08
8.96056e-08
8.70832e-08
8.44508e-08
8.16959e-08
7.97267e-08
7.76273e-08
7.53863e-08
7.38621e-08
7.21918e-08
7.03665e-08
6.89349e-08
6.76106e-08
6.6386e-08
6.5254e-08
6.42066e-08
6.35008e-08
6.2866e-08
6.17642e-08
6.0983e-08
6.02519e-08
5.95614e-08
5.89151e-08
5.82973e-08
5.79698e-08
5.71723e-08
5.64086e-08
5.6156e-08
5.59254e-08
5.54801e-08
5.50576e-08
5.44323e-08
5.40503e-08
5.36886e-08
5.33408e-08
5.30094e-08
5.24707e-08
5.23869e-08
5.23154e-08
5.18087e-08
5.13091e-08
5.12666e-08
5.12303e-08
5.09712e-08
5.04856e-08
5.02279e-08
4.99741e-08
4.94961e-08
4.94593e-08
4.94179e-08
4.91583e-08
4.89005e-08
4.86462e-08
4.82155e-08
4.77962e-08
4.75695e-08
4.73484e-08
4.73014e-08
4.70915e-08
4.67181e-08
4.66864e-08
4.66593e-08
4.62929e-08
4.61018e-08
4.59081e-08
4.55398e-08
4.53477e-08
4.53353e-08
4.53233e-08
4.49522e-08
4.47584e-08
4.47416e-08
4.4543e-08
4.43417e-08
4.41376e-08
4.39309e-08
4.37208e-08
4.08739e-08
4.04956e-08
4.27631e-08
3.67443e-08
3.1494e-08
3.70866e-08
3.44017e-08
2.84271e-08
3.5731e-08
4.12913e-08
3.1342e-08
3.10997e-08
4.06026e-08
4.05393e-08
2.71048e-08
2.67089e-08
3.96867e-08
3.95359e-08
3.93627e-08
3.92158e-08
2.53432e-08
2.49971e-08
3.84118e-08
3.82e-08
3.7966e-08
3.77688e-08
3.75749e-08
1.87378e-08
1.84624e-08
3.68009e-08
3.6674e-08
3.6504e-08
3.62338e-08
3.60458e-08
3.58424e-08
1.78571e-08
1.76272e-08
3.51594e-08
3.49772e-08
3.47828e-08
3.46817e-08
3.44375e-08
3.41106e-08
3.39977e-08
3.39089e-08
3.36403e-08
3.33745e-08
3.32297e-08
1.65671e-08
1.63504e-08
3.26252e-08
3.24639e-08
3.23169e-08
3.21362e-08
3.19215e-08
3.179e-08
3.1712e-08
3.14841e-08
3.12451e-08
3.11434e-08
3.09894e-08
3.08066e-08
3.06528e-08
3.04991e-08
3.03564e-08
3.02351e-08
3.01253e-08
1.50399e-08
1.48641e-08
2.96708e-08
2.95425e-08
2.94349e-08
2.93407e-08
2.92126e-08
2.90987e-08
2.89444e-08
2.88055e-08
2.87522e-08
2.86437e-08
2.84963e-08
2.83984e-08
1.41782e-08
1.40604e-08
2.81172e-08
2.80729e-08
2.79697e-08
2.78553e-08
2.77315e-08
2.76587e-08
2.76244e-08
2.74998e-08
2.73838e-08
2.73214e-08
2.72542e-08
2.72065e-08
2.71628e-08
2.71327e-08
2.70589e-08
2.69922e-08
2.69414e-08
2.68541e-08
2.67919e-08
2.67313e-08
2.66343e-08
2.6377e-08
2.61666e-08
2.62103e-08
2.62706e-08
2.63027e-08
2.63532e-08
2.63907e-08
2.64353e-08
2.64743e-08
2.6519e-08
2.65608e-08
2.66064e-08
2.66507e-08
2.66952e-08
2.67391e-08
2.67793e-08
2.68183e-08
2.68512e-08
2.68803e-08
2.69033e-08
2.69175e-08
2.6931e-08
2.6931e-08
2.69496e-08
2.69439e-08
2.6944e-08
2.69387e-08
2.69508e-08
2.69891e-08
2.69732e-08
2.69684e-08
2.6928e-08
2.69072e-08
2.69274e-08
2.69136e-08
2.68901e-08
2.6877e-08
2.68494e-08
2.68436e-08
2.68208e-08
2.67755e-08
2.67342e-08
2.67048e-08
2.66844e-08
2.66733e-08
2.66499e-08
2.66321e-08
2.66323e-08
2.66297e-08
2.66208e-08
2.65951e-08
2.65667e-08
2.65304e-08
2.64902e-08
2.64536e-08
2.64127e-08
2.63639e-08
2.63182e-08
2.62687e-08
2.62187e-08
2.6173e-08
2.6131e-08
2.60876e-08
2.60462e-08
2.60127e-08
2.5983e-08
2.59532e-08
2.59236e-08
2.58961e-08
2.58733e-08
2.58549e-08
2.5839e-08
2.58251e-08
2.58135e-08
2.58053e-08
2.57997e-08
2.57948e-08
2.57894e-08
2.57843e-08
2.5781e-08
2.57784e-08
2.57754e-08
2.57706e-08
2.57644e-08
2.57573e-08
2.57503e-08
2.57438e-08
2.57383e-08
2.57334e-08
2.57288e-08
2.57239e-08
2.57188e-08
2.57131e-08
2.57071e-08
2.57007e-08
2.56938e-08
2.56863e-08
2.56782e-08
2.56695e-08
2.56605e-08
2.5651e-08
2.56409e-08
2.56302e-08
2.5619e-08
2.56069e-08
2.55943e-08
2.55815e-08
2.55684e-08
2.55553e-08
2.55424e-08
2.55296e-08
2.55171e-08
2.55049e-08
2.54932e-08
2.54819e-08
2.54709e-08
2.54605e-08
2.54503e-08
2.54403e-08
2.54327e-08
2.5428e-08
2.54255e-08
2.54248e-08
2.54254e-08
2.54272e-08
2.54299e-08
2.54336e-08
2.54382e-08
2.54434e-08
2.54489e-08
2.54546e-08
2.54601e-08
2.54651e-08
2.54695e-08
2.54729e-08
2.54748e-08
2.54761e-08
2.54799e-08
2.54861e-08
2.54939e-08
2.55029e-08
2.55124e-08
2.55207e-08
2.55268e-08
2.55309e-08
2.55323e-08
2.5531e-08
2.55277e-08
2.55223e-08
2.55135e-08
2.55016e-08
2.54865e-08
2.54668e-08
2.54429e-08
2.54171e-08
2.53921e-08
2.53689e-08
2.53469e-08
2.53254e-08
2.53038e-08
2.52819e-08
2.52597e-08
2.52367e-08
2.5213e-08
2.51888e-08
2.51641e-08
2.51385e-08
2.51128e-08
2.50874e-08
2.50627e-08
2.50398e-08
2.50188e-08
2.49999e-08
2.4983e-08
2.4968e-08
2.49547e-08
2.49425e-08
2.49314e-08
2.4921e-08
2.49112e-08
2.49015e-08
2.4892e-08
2.48822e-08
2.48721e-08
2.48616e-08
2.48506e-08
2.48393e-08
2.48277e-08
2.48161e-08
2.48042e-08
2.47922e-08
2.47802e-08
2.47682e-08
2.47563e-08
2.47445e-08
2.47329e-08
2.47212e-08
2.47096e-08
2.46977e-08
2.46857e-08
2.46737e-08
2.46612e-08
2.46486e-08
2.46354e-08
2.46219e-08
2.46079e-08
2.45933e-08
2.45781e-08
2.45622e-08
2.45459e-08
2.45291e-08
2.45119e-08
2.44943e-08
2.44764e-08
2.44583e-08
2.44401e-08
2.44219e-08
2.44037e-08
2.43856e-08
2.43678e-08
2.43503e-08
2.4333e-08
2.43159e-08
2.42991e-08
2.42825e-08
2.42662e-08
2.42501e-08
2.42343e-08
2.42188e-08
2.42035e-08
2.41885e-08
2.41739e-08
2.41594e-08
2.41452e-08
2.41312e-08
2.41173e-08
2.41034e-08
2.40896e-08
2.40759e-08
2.4062e-08
2.40478e-08
2.40337e-08
2.40193e-08
2.40044e-08
2.39893e-08
2.39738e-08
2.39579e-08
2.39415e-08
2.39246e-08
2.39075e-08
2.38899e-08
2.38722e-08
2.38544e-08
2.38365e-08
2.38187e-08
2.38012e-08
2.37838e-08
2.37673e-08
2.37514e-08
2.37364e-08
2.37224e-08
2.37091e-08
2.36995e-08
2.36954e-08
2.36964e-08
2.37012e-08
2.37093e-08
2.37198e-08
2.37324e-08
2.37468e-08
2.37627e-08
2.37797e-08
2.37976e-08
2.3816e-08
2.38345e-08
2.38529e-08
2.38709e-08
2.38883e-08
2.3905e-08
2.39207e-08
2.39354e-08
2.39489e-08
2.39613e-08
2.39724e-08
2.39826e-08
2.39918e-08
2.40004e-08
2.40087e-08
2.40168e-08
2.4025e-08
2.40334e-08
2.40423e-08
2.40518e-08
2.40619e-08
2.40729e-08
2.40847e-08
2.40979e-08
2.41118e-08
2.41276e-08
2.41435e-08
2.41617e-08
2.41799e-08
2.41992e-08
2.42219e-08
2.42402e-08
2.42741e-08
2.42804e-08
2.43447e-08
2.43354e-08
2.44544e-08
2.44464e-08
2.4624e-08
2.4619e-08
2.48432e-08
2.48457e-08
2.50784e-08
2.5099e-08
2.52576e-08
2.53191e-08
2.53727e-08
2.55318e-08
2.5792e-08
2.61964e-08
2.68958e-08
2.78454e-08
1.61933e-08
3.89324e-09
1.28413e-09
5.20018e-11
0
0
0
0
0
0
)
;

boundaryField
{
    inlet
    {
        type            calculated;
        value           uniform 0;
    }
    endWall
    {
        type            calculated;
        value           uniform 0;
    }
    sideWall
    {
        type            empty;
    }
}


// ************************************************************************* //
