/*--------------------------------*- C++ -*----------------------------------*\
| =========                 |                                                 |
| \\      /  F ield         | foam-extend: Open Source CFD                    |
|  \\    /   O peration     | Version:     3.2                                |
|   \\  /    A nd           | Web:         http://www.foam-extend.org         |
|    \\/     M anipulation  | For copyright notice see file Copyright         |
\*---------------------------------------------------------------------------*/
FoamFile
{
    version     2.0;
    format      ascii;
    class       edgeScalarField;
    location    "1440";
    object      q_f;
}
// * * * * * * * * * * * * * * * * * * * * * * * * * * * * * * * * * * * * * //

dimensions      [0 3 -1 0 0 0 0];

internalField   nonuniform List<scalar> 
549
(
0
0
0
2.85419e-09
1.04069e-08
2.13346e-08
3.53934e-08
5.16743e-08
6.84132e-08
8.53037e-08
1.01259e-07
1.14866e-07
1.26156e-07
1.34769e-07
1.40668e-07
1.44232e-07
1.45635e-07
1.45136e-07
1.43262e-07
1.40384e-07
1.36755e-07
1.3258e-07
1.2801e-07
1.23249e-07
1.18428e-07
1.13632e-07
1.08951e-07
1.04459e-07
1.00213e-07
9.61981e-08
9.24062e-08
8.88388e-08
8.54889e-08
8.23665e-08
7.94659e-08
7.67802e-08
7.42944e-08
7.19809e-08
6.98437e-08
6.78737e-08
6.60429e-08
6.43554e-08
6.2802e-08
6.13573e-08
6.00196e-08
5.87852e-08
5.76428e-08
5.65841e-08
5.56019e-08
5.46949e-08
5.38584e-08
5.30742e-08
5.23386e-08
5.16539e-08
5.10139e-08
5.04144e-08
4.9852e-08
4.93219e-08
4.8838e-08
4.8358e-08
4.77331e-08
4.73228e-08
4.39653e-08
4.00608e-08
4.26482e-08
4.56161e-08
4.52885e-08
3.99134e-08
3.9591e-08
4.43336e-08
4.40618e-08
3.56159e-08
2.55581e-08
3.34677e-08
4.29664e-08
4.27324e-08
4.25006e-08
4.22596e-08
4.22194e-08
2.25787e-08
2.21442e-08
4.13441e-08
4.11657e-08
4.09441e-08
4.07463e-08
4.05524e-08
4.03178e-08
4.00993e-08
3.99373e-08
3.99547e-08
3.96882e-08
3.92927e-08
3.92144e-08
3.90319e-08
3.8825e-08
3.86756e-08
3.84418e-08
3.82473e-08
3.81438e-08
3.7974e-08
3.77543e-08
3.7566e-08
3.73845e-08
3.71969e-08
3.70792e-08
3.69668e-08
1.84378e-08
1.82022e-08
3.63615e-08
3.61518e-08
3.5977e-08
3.58674e-08
3.55792e-08
3.52633e-08
3.51667e-08
3.49985e-08
3.48188e-08
3.46664e-08
3.43964e-08
3.40497e-08
3.3918e-08
3.32326e-08
3.24592e-08
3.25428e-08
3.26035e-08
3.26662e-08
3.27217e-08
3.27776e-08
3.28262e-08
3.28675e-08
3.28992e-08
3.29184e-08
3.29246e-08
3.29154e-08
3.28966e-08
3.28793e-08
3.28419e-08
3.27877e-08
3.27772e-08
3.26899e-08
3.26134e-08
3.26423e-08
3.26402e-08
3.26239e-08
3.26072e-08
3.25899e-08
3.25721e-08
3.25498e-08
3.25232e-08
3.24899e-08
3.24533e-08
3.24053e-08
3.2368e-08
3.22941e-08
3.22746e-08
3.21751e-08
3.22037e-08
3.21206e-08
3.21681e-08
3.21162e-08
3.21184e-08
3.2084e-08
3.20313e-08
3.19925e-08
3.19233e-08
3.18884e-08
3.18558e-08
3.1904e-08
3.19776e-08
3.22046e-08
3.16405e-08
3.10915e-08
3.06521e-08
3.02492e-08
2.99272e-08
2.96263e-08
2.93852e-08
2.91565e-08
2.8974e-08
2.87986e-08
2.86596e-08
2.85239e-08
2.84178e-08
2.83119e-08
2.82299e-08
2.81465e-08
2.80829e-08
2.80169e-08
2.79669e-08
2.79139e-08
2.78742e-08
2.78318e-08
2.7799e-08
2.77689e-08
2.77441e-08
2.77233e-08
2.77054e-08
2.76899e-08
2.76759e-08
2.76632e-08
2.76516e-08
2.76408e-08
2.76304e-08
2.76201e-08
2.76105e-08
2.7601e-08
2.75917e-08
2.75829e-08
2.75745e-08
2.75664e-08
2.75584e-08
2.75505e-08
2.7543e-08
2.7535e-08
2.75276e-08
2.75202e-08
2.75127e-08
2.75053e-08
2.7498e-08
2.74905e-08
2.74831e-08
2.74757e-08
2.74677e-08
2.74604e-08
2.74523e-08
2.74461e-08
2.74383e-08
2.74334e-08
2.74263e-08
2.74227e-08
2.74163e-08
2.74136e-08
2.74077e-08
2.74054e-08
2.74006e-08
2.73985e-08
2.73943e-08
2.7392e-08
2.73883e-08
2.73861e-08
2.73825e-08
2.73806e-08
2.73774e-08
2.73771e-08
2.73744e-08
2.73754e-08
2.73733e-08
2.73757e-08
2.73741e-08
2.73777e-08
2.73764e-08
2.73811e-08
2.73798e-08
2.73853e-08
2.73839e-08
2.73899e-08
2.7388e-08
2.73939e-08
2.7392e-08
2.73969e-08
2.73938e-08
2.73985e-08
2.73944e-08
2.73983e-08
2.73931e-08
2.73963e-08
2.73898e-08
2.73926e-08
2.73851e-08
2.73877e-08
2.73796e-08
2.73823e-08
2.73738e-08
2.7375e-08
2.73662e-08
2.73641e-08
2.73553e-08
2.73468e-08
2.73379e-08
2.73202e-08
2.73116e-08
2.72887e-08
2.728e-08
2.72521e-08
2.72428e-08
2.7217e-08
2.72073e-08
2.71832e-08
2.71728e-08
2.71494e-08
2.71377e-08
2.71149e-08
2.71019e-08
2.70794e-08
2.70649e-08
2.70421e-08
2.70261e-08
2.70028e-08
2.69853e-08
2.69617e-08
2.69429e-08
2.69191e-08
2.68992e-08
2.68751e-08
2.68544e-08
2.68302e-08
2.68089e-08
2.67846e-08
2.6763e-08
2.67386e-08
2.67168e-08
2.66928e-08
2.66711e-08
2.66475e-08
2.66257e-08
2.66026e-08
2.65814e-08
2.65592e-08
2.65386e-08
2.65176e-08
2.64981e-08
2.64778e-08
2.64588e-08
2.64397e-08
2.64216e-08
2.64032e-08
2.63857e-08
2.63677e-08
2.63506e-08
2.63333e-08
2.63167e-08
2.62999e-08
2.62837e-08
2.62676e-08
2.6252e-08
2.62367e-08
2.62221e-08
2.62076e-08
2.61936e-08
2.61801e-08
2.6167e-08
2.61546e-08
2.61428e-08
2.61316e-08
2.61214e-08
2.61117e-08
2.61028e-08
2.60944e-08
2.60867e-08
2.60798e-08
2.6073e-08
2.60684e-08
2.60697e-08
2.60751e-08
2.60837e-08
2.60947e-08
2.61074e-08
2.61215e-08
2.61366e-08
2.61528e-08
2.61697e-08
2.61873e-08
2.62055e-08
2.62241e-08
2.62431e-08
2.62624e-08
2.62819e-08
2.63016e-08
2.63213e-08
2.63413e-08
2.63611e-08
2.63806e-08
2.63998e-08
2.64183e-08
2.64362e-08
2.64536e-08
2.64702e-08
2.64861e-08
2.65013e-08
2.65157e-08
2.65296e-08
2.6543e-08
2.65556e-08
2.65676e-08
2.65791e-08
2.65899e-08
2.66003e-08
2.66101e-08
2.66197e-08
2.66289e-08
2.66378e-08
2.66463e-08
2.66547e-08
2.66631e-08
2.66715e-08
2.66797e-08
2.66878e-08
2.66957e-08
2.67034e-08
2.67105e-08
2.67168e-08
2.67223e-08
2.67267e-08
2.67299e-08
2.67321e-08
2.67331e-08
2.67328e-08
2.67314e-08
2.67291e-08
2.67257e-08
2.67211e-08
2.67161e-08
2.67103e-08
2.67038e-08
2.66971e-08
2.66907e-08
2.66845e-08
2.66783e-08
2.66726e-08
2.66671e-08
2.66621e-08
2.6657e-08
2.66523e-08
2.66483e-08
2.66444e-08
2.66409e-08
2.66373e-08
2.66338e-08
2.66301e-08
2.66263e-08
2.66223e-08
2.66181e-08
2.66135e-08
2.66085e-08
2.66032e-08
2.65977e-08
2.65921e-08
2.65863e-08
2.65806e-08
2.65749e-08
2.65687e-08
2.65627e-08
2.65567e-08
2.65508e-08
2.65446e-08
2.65385e-08
2.65327e-08
2.6527e-08
2.65216e-08
2.65164e-08
2.65117e-08
2.65074e-08
2.65031e-08
2.64993e-08
2.6496e-08
2.64933e-08
2.64909e-08
2.6489e-08
2.64874e-08
2.64861e-08
2.6485e-08
2.64842e-08
2.64835e-08
2.64831e-08
2.64829e-08
2.64831e-08
2.64836e-08
2.64846e-08
2.6486e-08
2.64878e-08
2.64903e-08
2.64933e-08
2.64971e-08
2.65019e-08
2.65076e-08
2.65145e-08
2.65232e-08
2.65329e-08
2.65437e-08
2.65563e-08
2.65695e-08
2.65837e-08
2.65989e-08
2.66149e-08
2.66314e-08
2.66487e-08
2.66664e-08
2.66845e-08
2.67028e-08
2.67212e-08
2.67395e-08
2.67578e-08
2.6776e-08
2.67942e-08
2.68127e-08
2.68312e-08
2.68505e-08
2.68705e-08
2.68909e-08
2.6912e-08
2.69338e-08
2.69563e-08
2.69793e-08
2.70028e-08
2.70263e-08
2.70495e-08
2.70726e-08
2.70953e-08
2.7118e-08
2.71401e-08
2.71621e-08
2.71824e-08
2.72035e-08
2.72223e-08
2.72423e-08
2.72602e-08
2.72768e-08
2.72985e-08
2.73065e-08
2.73457e-08
2.73258e-08
2.74215e-08
2.73713e-08
2.75704e-08
2.75298e-08
2.78304e-08
2.78072e-08
2.81735e-08
2.81807e-08
2.85258e-08
2.85845e-08
2.87427e-08
2.8889e-08
2.90515e-08
2.93573e-08
2.98452e-08
3.04845e-08
3.16027e-08
3.27696e-08
1.53583e-08
0
0
0
0
0
0
0
0
0
)
;

boundaryField
{
    inlet
    {
        type            calculated;
        value           uniform 0;
    }
    endWall
    {
        type            calculated;
        value           uniform 0;
    }
    sideWall
    {
        type            empty;
    }
}


// ************************************************************************* //
