/*--------------------------------*- C++ -*----------------------------------*\
| =========                 |                                                 |
| \\      /  F ield         | foam-extend: Open Source CFD                    |
|  \\    /   O peration     | Version:     3.2                                |
|   \\  /    A nd           | Web:         http://www.foam-extend.org         |
|    \\/     M anipulation  | For copyright notice see file Copyright         |
\*---------------------------------------------------------------------------*/
FoamFile
{
    version     2.0;
    format      ascii;
    class       areaScalarField;
    location    "1440";
    object      SSd1;
}
// * * * * * * * * * * * * * * * * * * * * * * * * * * * * * * * * * * * * * //

dimensions      [0 1 -2 -1 0 0 0];

internalField   nonuniform List<scalar> 
550
(
9.01327e-06
9.01327e-06
9.01327e-06
9.01327e-06
9.01327e-06
9.01327e-06
9.01327e-06
9.01327e-06
9.01327e-06
9.01327e-06
9.01327e-06
9.01327e-06
9.01327e-06
9.01327e-06
9.01327e-06
9.01327e-06
9.01327e-06
9.01327e-06
9.01327e-06
9.01327e-06
9.01327e-06
9.01327e-06
9.01327e-06
9.01327e-06
9.01327e-06
9.01327e-06
9.01327e-06
9.01327e-06
9.01327e-06
9.01327e-06
9.01327e-06
9.01327e-06
9.01327e-06
9.01327e-06
9.01327e-06
9.01327e-06
9.01327e-06
9.01327e-06
9.01327e-06
9.01327e-06
9.01327e-06
9.01327e-06
9.01327e-06
9.01327e-06
9.01327e-06
9.01327e-06
9.01327e-06
9.01327e-06
9.01327e-06
9.01327e-06
9.01327e-06
9.01327e-06
9.01327e-06
9.01327e-06
9.01327e-06
9.01327e-06
9.01327e-06
9.01327e-06
9.01328e-06
9.0132e-06
9.01633e-06
9.02496e-06
9.03257e-06
9.03925e-06
9.04484e-06
9.05103e-06
9.05657e-06
9.06031e-06
9.06488e-06
9.06865e-06
9.07236e-06
9.07513e-06
9.07522e-06
9.07969e-06
9.08122e-06
9.08338e-06
9.08383e-06
9.08584e-06
9.08749e-06
9.08613e-06
9.08856e-06
9.0903e-06
9.09047e-06
9.08809e-06
9.08931e-06
9.08612e-06
9.08219e-06
9.08424e-06
9.08185e-06
9.08407e-06
9.08099e-06
9.07948e-06
9.08231e-06
9.0744e-06
9.07382e-06
9.07183e-06
9.07004e-06
9.07237e-06
9.07091e-06
9.06682e-06
9.0645e-06
9.06613e-06
9.06439e-06
9.06314e-06
9.06341e-06
9.06104e-06
9.05479e-06
9.0589e-06
9.05914e-06
9.05509e-06
9.05523e-06
9.05613e-06
9.0521e-06
9.05307e-06
9.05522e-06
9.05332e-06
9.04963e-06
9.04823e-06
9.04645e-06
9.04452e-06
9.04409e-06
9.04444e-06
9.03967e-06
9.03438e-06
9.03093e-06
9.02899e-06
9.02722e-06
9.02494e-06
9.02258e-06
9.02007e-06
9.01788e-06
9.01573e-06
9.01391e-06
9.01209e-06
9.01053e-06
9.00882e-06
9.00735e-06
9.00576e-06
9.0039e-06
9.00243e-06
9.00098e-06
8.99853e-06
8.99648e-06
8.99441e-06
8.99249e-06
8.99043e-06
8.98852e-06
8.98651e-06
8.98465e-06
8.98271e-06
8.98091e-06
8.97904e-06
8.97719e-06
8.97547e-06
8.97344e-06
8.97185e-06
8.96942e-06
8.96769e-06
8.96514e-06
8.9632e-06
8.96102e-06
8.95895e-06
8.95717e-06
8.95507e-06
8.95336e-06
8.95118e-06
8.94918e-06
8.94647e-06
8.94386e-06
8.94031e-06
8.94259e-06
8.94379e-06
8.94407e-06
8.94394e-06
8.94311e-06
8.94206e-06
8.94052e-06
8.93887e-06
8.93688e-06
8.93484e-06
8.93257e-06
8.93027e-06
8.92782e-06
8.92537e-06
8.92281e-06
8.92027e-06
8.91766e-06
8.91507e-06
8.91243e-06
8.90982e-06
8.90719e-06
8.90457e-06
8.90196e-06
8.89932e-06
8.89672e-06
8.89407e-06
8.89148e-06
8.88885e-06
8.88629e-06
8.88368e-06
8.88115e-06
8.87858e-06
8.87608e-06
8.87353e-06
8.87105e-06
8.86853e-06
8.86608e-06
8.86358e-06
8.86114e-06
8.85865e-06
8.85623e-06
8.85376e-06
8.85134e-06
8.84888e-06
8.84647e-06
8.84401e-06
8.84161e-06
8.83915e-06
8.83675e-06
8.83429e-06
8.83188e-06
8.82942e-06
8.827e-06
8.82453e-06
8.8221e-06
8.8196e-06
8.81716e-06
8.81464e-06
8.81218e-06
8.80962e-06
8.80714e-06
8.80457e-06
8.80207e-06
8.79948e-06
8.79696e-06
8.79436e-06
8.79182e-06
8.78921e-06
8.78666e-06
8.78404e-06
8.78148e-06
8.77885e-06
8.77627e-06
8.77362e-06
8.77104e-06
8.76838e-06
8.76578e-06
8.76311e-06
8.76051e-06
8.75782e-06
8.75521e-06
8.75252e-06
8.74991e-06
8.74721e-06
8.74459e-06
8.74188e-06
8.73926e-06
8.73655e-06
8.73393e-06
8.73123e-06
8.72861e-06
8.7259e-06
8.72328e-06
8.72059e-06
8.71797e-06
8.71527e-06
8.71266e-06
8.70997e-06
8.70737e-06
8.70468e-06
8.70209e-06
8.69941e-06
8.69682e-06
8.69416e-06
8.69158e-06
8.68896e-06
8.68639e-06
8.68382e-06
8.68125e-06
8.67876e-06
8.67619e-06
8.67374e-06
8.67118e-06
8.66876e-06
8.66621e-06
8.66378e-06
8.66124e-06
8.6588e-06
8.65627e-06
8.65384e-06
8.65133e-06
8.64891e-06
8.64641e-06
8.64399e-06
8.64152e-06
8.63911e-06
8.63666e-06
8.63426e-06
8.63182e-06
8.62943e-06
8.62701e-06
8.62463e-06
8.62222e-06
8.61985e-06
8.61746e-06
8.6151e-06
8.61273e-06
8.61038e-06
8.60802e-06
8.60569e-06
8.60334e-06
8.60102e-06
8.59869e-06
8.59638e-06
8.59406e-06
8.59177e-06
8.58946e-06
8.58718e-06
8.58489e-06
8.58262e-06
8.58035e-06
8.5781e-06
8.57584e-06
8.5736e-06
8.57136e-06
8.56914e-06
8.56692e-06
8.56471e-06
8.5625e-06
8.56031e-06
8.55812e-06
8.55595e-06
8.55378e-06
8.55163e-06
8.54948e-06
8.54734e-06
8.54522e-06
8.5431e-06
8.541e-06
8.5389e-06
8.53682e-06
8.53475e-06
8.53269e-06
8.53064e-06
8.5286e-06
8.52657e-06
8.52455e-06
8.52255e-06
8.52055e-06
8.51857e-06
8.5166e-06
8.51464e-06
8.51264e-06
8.51064e-06
8.50864e-06
8.50665e-06
8.50466e-06
8.50269e-06
8.50074e-06
8.4988e-06
8.49687e-06
8.49496e-06
8.49307e-06
8.4912e-06
8.48935e-06
8.48752e-06
8.4857e-06
8.48391e-06
8.48214e-06
8.48039e-06
8.47865e-06
8.47694e-06
8.47525e-06
8.47359e-06
8.47194e-06
8.47031e-06
8.46871e-06
8.46712e-06
8.46555e-06
8.46401e-06
8.46248e-06
8.46097e-06
8.45948e-06
8.458e-06
8.45655e-06
8.45511e-06
8.45369e-06
8.45228e-06
8.45088e-06
8.4495e-06
8.44814e-06
8.44678e-06
8.44544e-06
8.44411e-06
8.44278e-06
8.44147e-06
8.44017e-06
8.43888e-06
8.43759e-06
8.43631e-06
8.43504e-06
8.43377e-06
8.4325e-06
8.43124e-06
8.42998e-06
8.42871e-06
8.42745e-06
8.42618e-06
8.42492e-06
8.42364e-06
8.42237e-06
8.4211e-06
8.41982e-06
8.41854e-06
8.41726e-06
8.41597e-06
8.41469e-06
8.41341e-06
8.41213e-06
8.41086e-06
8.40958e-06
8.40831e-06
8.40705e-06
8.40578e-06
8.40452e-06
8.40327e-06
8.40202e-06
8.40077e-06
8.39952e-06
8.39828e-06
8.39703e-06
8.39579e-06
8.39454e-06
8.39329e-06
8.39204e-06
8.39078e-06
8.38951e-06
8.38824e-06
8.38696e-06
8.38568e-06
8.38439e-06
8.38309e-06
8.38179e-06
8.38048e-06
8.37916e-06
8.37783e-06
8.37649e-06
8.37515e-06
8.37379e-06
8.37243e-06
8.37105e-06
8.36967e-06
8.36828e-06
8.36688e-06
8.36547e-06
8.36405e-06
8.36262e-06
8.36119e-06
8.35975e-06
8.35829e-06
8.35683e-06
8.35537e-06
8.35389e-06
8.35241e-06
8.35091e-06
8.34941e-06
8.3479e-06
8.34638e-06
8.34485e-06
8.34331e-06
8.34176e-06
8.34021e-06
8.33865e-06
8.33709e-06
8.33552e-06
8.33395e-06
8.33238e-06
8.3308e-06
8.32923e-06
8.32765e-06
8.32608e-06
8.3245e-06
8.32293e-06
8.32136e-06
8.31979e-06
8.31822e-06
8.31665e-06
8.31508e-06
8.31351e-06
8.31194e-06
8.31036e-06
8.30878e-06
8.30719e-06
8.3056e-06
8.30401e-06
8.30241e-06
8.3008e-06
8.29918e-06
8.29757e-06
8.29595e-06
8.29432e-06
8.29269e-06
8.29107e-06
8.28943e-06
8.2878e-06
8.28617e-06
8.28453e-06
8.28289e-06
8.28125e-06
8.2796e-06
8.27795e-06
8.27629e-06
8.27462e-06
8.27296e-06
8.27127e-06
8.26959e-06
8.26789e-06
8.26616e-06
8.26451e-06
8.26263e-06
8.26116e-06
8.25886e-06
8.25763e-06
8.25463e-06
8.25342e-06
8.24984e-06
8.24867e-06
8.24482e-06
8.24364e-06
8.24013e-06
8.23878e-06
8.23673e-06
8.23481e-06
8.23286e-06
8.23009e-06
8.22625e-06
8.22212e-06
8.21554e-06
8.2103e-06
8.21081e-06
8.21106e-06
8.21107e-06
8.21098e-06
8.21078e-06
8.21041e-06
8.20937e-06
8.20042e-06
8.1965e-06
8.19601e-06
8.19601e-06
)
;

boundaryField
{
    inlet
    {
        type            calculated;
        value           uniform 0;
    }
    endWall
    {
        type            calculated;
        value           uniform 0;
    }
    sideWall
    {
        type            empty;
    }
}


// ************************************************************************* //
