/*--------------------------------*- C++ -*----------------------------------*\
| =========                 |                                                 |
| \\      /  F ield         | foam-extend: Open Source CFD                    |
|  \\    /   O peration     | Version:     3.2                                |
|   \\  /    A nd           | Web:         http://www.foam-extend.org         |
|    \\/     M anipulation  | For copyright notice see file Copyright         |
\*---------------------------------------------------------------------------*/
FoamFile
{
    version     2.0;
    format      ascii;
    class       areaScalarField;
    location    "910";
    object      SSd1;
}
// * * * * * * * * * * * * * * * * * * * * * * * * * * * * * * * * * * * * * //

dimensions      [0 1 -2 -1 0 0 0];

internalField   nonuniform List<scalar> 
550
(
7.55581e-06
7.55581e-06
7.55581e-06
7.55581e-06
7.55581e-06
7.55581e-06
7.55581e-06
7.55581e-06
7.55581e-06
7.55581e-06
7.55581e-06
7.55581e-06
7.55581e-06
7.55581e-06
7.55581e-06
7.55581e-06
7.55581e-06
7.55581e-06
7.55581e-06
7.55581e-06
7.55581e-06
7.55581e-06
7.55581e-06
7.55581e-06
7.55581e-06
7.55581e-06
7.55581e-06
7.55581e-06
7.55581e-06
7.55581e-06
7.55581e-06
7.55581e-06
7.55581e-06
7.55581e-06
7.55581e-06
7.55581e-06
7.55581e-06
7.55581e-06
7.55581e-06
7.55581e-06
7.55581e-06
7.55581e-06
7.55581e-06
7.55581e-06
7.55581e-06
7.55581e-06
7.55581e-06
7.55581e-06
7.55581e-06
7.55581e-06
7.55581e-06
7.55581e-06
7.55581e-06
7.55581e-06
7.55581e-06
7.55581e-06
7.55581e-06
7.5558e-06
7.5558e-06
7.5558e-06
7.5558e-06
7.5558e-06
7.5558e-06
7.5558e-06
7.5558e-06
7.5558e-06
7.55579e-06
7.55579e-06
7.55579e-06
7.55579e-06
7.55578e-06
7.55578e-06
7.55577e-06
7.55577e-06
7.55576e-06
7.55575e-06
7.55574e-06
7.55573e-06
7.55572e-06
7.55571e-06
7.55569e-06
7.55567e-06
7.55565e-06
7.55562e-06
7.55559e-06
7.55556e-06
7.55552e-06
7.55548e-06
7.55543e-06
7.55537e-06
7.5553e-06
7.55523e-06
7.55515e-06
7.55505e-06
7.55495e-06
7.55483e-06
7.5547e-06
7.55456e-06
7.5544e-06
7.55422e-06
7.55403e-06
7.55382e-06
7.55359e-06
7.55334e-06
7.55306e-06
7.55277e-06
7.55245e-06
7.5521e-06
7.55169e-06
7.55147e-06
7.55588e-06
7.56563e-06
7.5712e-06
7.57669e-06
7.5814e-06
7.58604e-06
7.59037e-06
7.59244e-06
7.59662e-06
7.60174e-06
7.601e-06
7.60527e-06
7.60592e-06
7.60652e-06
7.60376e-06
7.6061e-06
7.60837e-06
7.61135e-06
7.60848e-06
7.60536e-06
7.60476e-06
7.60584e-06
7.60427e-06
7.60501e-06
7.60307e-06
7.60107e-06
7.59674e-06
7.59426e-06
7.59258e-06
7.59173e-06
7.59378e-06
7.58723e-06
7.5856e-06
7.58445e-06
7.58239e-06
7.58375e-06
7.58169e-06
7.58006e-06
7.57896e-06
7.57621e-06
7.57487e-06
7.57083e-06
7.57057e-06
7.57165e-06
7.56503e-06
7.56195e-06
7.56229e-06
7.56003e-06
7.55488e-06
7.5549e-06
7.55497e-06
7.55126e-06
7.54929e-06
7.54331e-06
7.54181e-06
7.54521e-06
7.5383e-06
7.53464e-06
7.53385e-06
7.53201e-06
7.52724e-06
7.5242e-06
7.52436e-06
7.52214e-06
7.51978e-06
7.51691e-06
7.51609e-06
7.51059e-06
7.51003e-06
7.50996e-06
7.506e-06
7.50454e-06
7.49996e-06
7.49479e-06
7.49664e-06
7.49254e-06
7.49205e-06
7.49069e-06
7.48825e-06
7.48611e-06
7.48446e-06
7.48084e-06
7.47916e-06
7.47834e-06
7.4744e-06
7.46686e-06
7.4676e-06
7.4635e-06
7.46446e-06
7.46478e-06
7.46103e-06
7.45952e-06
7.45891e-06
7.45828e-06
7.45679e-06
7.45525e-06
7.45376e-06
7.45225e-06
7.45065e-06
7.44883e-06
7.44688e-06
7.44463e-06
7.44199e-06
7.43907e-06
7.43608e-06
7.43177e-06
7.42674e-06
7.422e-06
7.4172e-06
7.41262e-06
7.40824e-06
7.40426e-06
7.40083e-06
7.39796e-06
7.39576e-06
7.39397e-06
7.39265e-06
7.39142e-06
7.39037e-06
7.38921e-06
7.38808e-06
7.38678e-06
7.38546e-06
7.38398e-06
7.38251e-06
7.38087e-06
7.37929e-06
7.37743e-06
7.37566e-06
7.37379e-06
7.37189e-06
7.36985e-06
7.36764e-06
7.36587e-06
7.364e-06
7.3624e-06
7.36066e-06
7.35868e-06
7.35704e-06
7.35548e-06
7.35387e-06
7.35243e-06
7.35085e-06
7.34944e-06
7.34821e-06
7.34693e-06
7.34558e-06
7.34417e-06
7.34272e-06
7.34135e-06
7.33994e-06
7.33841e-06
7.33692e-06
7.33547e-06
7.33414e-06
7.3328e-06
7.3315e-06
7.3302e-06
7.32886e-06
7.32752e-06
7.32623e-06
7.32489e-06
7.32355e-06
7.3222e-06
7.3208e-06
7.31935e-06
7.31791e-06
7.31644e-06
7.31492e-06
7.31336e-06
7.31182e-06
7.31027e-06
7.30871e-06
7.30712e-06
7.3055e-06
7.30387e-06
7.30223e-06
7.30059e-06
7.29893e-06
7.29727e-06
7.29562e-06
7.29398e-06
7.29234e-06
7.29069e-06
7.28905e-06
7.28742e-06
7.2858e-06
7.2842e-06
7.28261e-06
7.28103e-06
7.27944e-06
7.27786e-06
7.27628e-06
7.2747e-06
7.27314e-06
7.27158e-06
7.27004e-06
7.26851e-06
7.26699e-06
7.26549e-06
7.26399e-06
7.26251e-06
7.26104e-06
7.25958e-06
7.25813e-06
7.2567e-06
7.25527e-06
7.25386e-06
7.25246e-06
7.25107e-06
7.24969e-06
7.24832e-06
7.24695e-06
7.24559e-06
7.24423e-06
7.24287e-06
7.24152e-06
7.24017e-06
7.23882e-06
7.23748e-06
7.23613e-06
7.23479e-06
7.23345e-06
7.23209e-06
7.23073e-06
7.22935e-06
7.22797e-06
7.22659e-06
7.22521e-06
7.22383e-06
7.22244e-06
7.22106e-06
7.21968e-06
7.21831e-06
7.21694e-06
7.21558e-06
7.21423e-06
7.21288e-06
7.21155e-06
7.21023e-06
7.20891e-06
7.20758e-06
7.20623e-06
7.20488e-06
7.20352e-06
7.20216e-06
7.20081e-06
7.19947e-06
7.19814e-06
7.19683e-06
7.19553e-06
7.19424e-06
7.19297e-06
7.19171e-06
7.19047e-06
7.18924e-06
7.18803e-06
7.18684e-06
7.18566e-06
7.18445e-06
7.18323e-06
7.18199e-06
7.18074e-06
7.17949e-06
7.17824e-06
7.17699e-06
7.17574e-06
7.1745e-06
7.17326e-06
7.17202e-06
7.17078e-06
7.16954e-06
7.1683e-06
7.16705e-06
7.16578e-06
7.16451e-06
7.16322e-06
7.16192e-06
7.16062e-06
7.1593e-06
7.15799e-06
7.15668e-06
7.15537e-06
7.15407e-06
7.15277e-06
7.15149e-06
7.15021e-06
7.14895e-06
7.1477e-06
7.14647e-06
7.14524e-06
7.14403e-06
7.14283e-06
7.14165e-06
7.14047e-06
7.13931e-06
7.13816e-06
7.13703e-06
7.1359e-06
7.13479e-06
7.13369e-06
7.13261e-06
7.13154e-06
7.13048e-06
7.12943e-06
7.1284e-06
7.12738e-06
7.12638e-06
7.12538e-06
7.1244e-06
7.12343e-06
7.12247e-06
7.12151e-06
7.12056e-06
7.11962e-06
7.11868e-06
7.11774e-06
7.1168e-06
7.11586e-06
7.11491e-06
7.11396e-06
7.11299e-06
7.11201e-06
7.11102e-06
7.11001e-06
7.10898e-06
7.10794e-06
7.10688e-06
7.1058e-06
7.1047e-06
7.10359e-06
7.10245e-06
7.1013e-06
7.10014e-06
7.09895e-06
7.09775e-06
7.09653e-06
7.0953e-06
7.09404e-06
7.09277e-06
7.09148e-06
7.09016e-06
7.08882e-06
7.08746e-06
7.08606e-06
7.08463e-06
7.08317e-06
7.08167e-06
7.08013e-06
7.07854e-06
7.07692e-06
7.07526e-06
7.07355e-06
7.0718e-06
7.07002e-06
7.0682e-06
7.06634e-06
7.06446e-06
7.06256e-06
7.06064e-06
7.05871e-06
7.05677e-06
7.05483e-06
7.05289e-06
7.05096e-06
7.04905e-06
7.04714e-06
7.04521e-06
7.04328e-06
7.04135e-06
7.03944e-06
7.03755e-06
7.03567e-06
7.03382e-06
7.03198e-06
7.03017e-06
7.02838e-06
7.02661e-06
7.02485e-06
7.02312e-06
7.0214e-06
7.01969e-06
7.018e-06
7.01631e-06
7.01463e-06
7.01295e-06
7.01128e-06
7.0096e-06
7.00792e-06
7.00624e-06
7.00455e-06
7.00285e-06
7.00114e-06
6.99941e-06
6.99768e-06
6.99593e-06
6.99417e-06
6.99239e-06
6.9906e-06
6.9888e-06
6.98699e-06
6.98516e-06
6.98332e-06
6.98148e-06
6.97962e-06
6.97776e-06
6.97589e-06
6.974e-06
6.97214e-06
6.97017e-06
6.96841e-06
6.96622e-06
6.96459e-06
6.96201e-06
6.9604e-06
6.95743e-06
6.95586e-06
6.95263e-06
6.95107e-06
6.94787e-06
6.94623e-06
6.94364e-06
6.9417e-06
6.93993e-06
6.93728e-06
6.93408e-06
6.93021e-06
6.92472e-06
6.91898e-06
6.91875e-06
6.91819e-06
6.91742e-06
6.91674e-06
6.9161e-06
6.91558e-06
6.91502e-06
6.91059e-06
6.90146e-06
6.89954e-06
6.89897e-06
)
;

boundaryField
{
    inlet
    {
        type            calculated;
        value           uniform 0;
    }
    endWall
    {
        type            calculated;
        value           uniform 0;
    }
    sideWall
    {
        type            empty;
    }
}


// ************************************************************************* //
