/*--------------------------------*- C++ -*----------------------------------*\
| =========                 |                                                 |
| \\      /  F ield         | foam-extend: Open Source CFD                    |
|  \\    /   O peration     | Version:     3.2                                |
|   \\  /    A nd           | Web:         http://www.foam-extend.org         |
|    \\/     M anipulation  | For copyright notice see file Copyright         |
\*---------------------------------------------------------------------------*/
FoamFile
{
    version     2.0;
    format      ascii;
    class       areaScalarField;
    location    "1440";
    object      tau;
}
// * * * * * * * * * * * * * * * * * * * * * * * * * * * * * * * * * * * * * //

dimensions      [1 1 2 0 0 0 0];

internalField   nonuniform List<scalar> 
550
(
0.0488576
0.0674693
0.0900926
0.116528
0.146134
0.177897
0.210611
0.242922
0.273641
0.301689
0.326293
0.346984
0.36378
0.376596
0.385668
0.391493
0.394409
0.39481
0.393253
0.390267
0.386172
0.381226
0.375625
0.369604
0.363331
0.356942
0.350555
0.344292
0.338259
0.332451
0.326868
0.321527
0.316434
0.311612
0.307058
0.302777
0.298755
0.294968
0.29143
0.288123
0.285015
0.282127
0.279434
0.276909
0.274555
0.272361
0.270314
0.268405
0.266621
0.264964
0.263423
0.261971
0.260608
0.259332
0.258132
0.257006
0.255942
0.254936
0.254016
0.253098
0.252289
0.251463
0.250713
0.249949
0.249266
0.248559
0.247919
0.24726
0.246665
0.246066
0.245507
0.244926
0.244379
0.243855
0.243334
0.242848
0.24241
0.241894
0.241446
0.240954
0.240551
0.240156
0.239754
0.239342
0.238942
0.238505
0.238105
0.237752
0.23736
0.236938
0.23652
0.236184
0.235894
0.23554
0.235219
0.234856
0.234459
0.234124
0.233819
0.233453
0.23308
0.232734
0.232384
0.232026
0.231709
0.231348
0.230933
0.230579
0.230267
0.229831
0.229484
0.229115
0.228653
0.228147
0.227883
0.227461
0.227158
0.22671
0.226263
0.2256
0.225317
0.224317
0.223266
0.223602
0.223972
0.224537
0.225082
0.225639
0.226149
0.226619
0.22703
0.227378
0.227645
0.227843
0.227901
0.227936
0.227782
0.2272
0.226721
0.226569
0.226029
0.22564
0.225639
0.22565
0.225701
0.225761
0.225833
0.225883
0.225922
0.225905
0.225875
0.225758
0.225706
0.225481
0.225418
0.225086
0.225035
0.224695
0.224611
0.224294
0.224009
0.223603
0.223097
0.222573
0.221988
0.221436
0.220926
0.220194
0.219539
0.217278
0.213777
0.212581
0.211394
0.210569
0.209884
0.209284
0.20882
0.208374
0.208043
0.20771
0.207472
0.207222
0.20705
0.206861
0.206737
0.206595
0.206506
0.206399
0.206333
0.206256
0.206209
0.206155
0.206122
0.206092
0.206074
0.206062
0.206053
0.206051
0.20605
0.206052
0.206054
0.206058
0.206063
0.206067
0.206071
0.206075
0.20608
0.206085
0.206091
0.206098
0.206106
0.206114
0.206124
0.206133
0.206143
0.206154
0.206165
0.206176
0.206187
0.206198
0.206209
0.206222
0.206232
0.206244
0.206253
0.20627
0.20628
0.2063
0.206313
0.206338
0.206354
0.206381
0.2064
0.206429
0.20645
0.20648
0.206504
0.206533
0.20656
0.20659
0.20662
0.206653
0.206682
0.206719
0.206751
0.206791
0.206823
0.206866
0.206899
0.206944
0.206976
0.207023
0.207053
0.2071
0.207128
0.207173
0.207199
0.207242
0.207264
0.2073
0.207315
0.207348
0.207359
0.207386
0.207391
0.207412
0.207412
0.207429
0.207423
0.207435
0.207425
0.207432
0.20742
0.207418
0.207403
0.207387
0.207371
0.207335
0.207317
0.20726
0.207241
0.207168
0.207146
0.207062
0.207034
0.206951
0.206918
0.206836
0.206798
0.206715
0.206671
0.206588
0.206538
0.206454
0.206397
0.206312
0.20625
0.206163
0.206096
0.206008
0.205938
0.205849
0.205775
0.205686
0.205611
0.205524
0.205448
0.205364
0.20529
0.20521
0.20514
0.205066
0.205
0.204932
0.204871
0.204811
0.204757
0.204705
0.204658
0.204613
0.204572
0.204532
0.204498
0.204465
0.204435
0.204407
0.204382
0.204358
0.204338
0.204319
0.204303
0.204288
0.204277
0.204268
0.204262
0.20426
0.204261
0.204266
0.204274
0.204287
0.204303
0.204325
0.20435
0.204381
0.204417
0.204458
0.204502
0.204551
0.204605
0.204663
0.204725
0.204796
0.204879
0.20497
0.205069
0.205172
0.20528
0.205391
0.205504
0.20562
0.205738
0.205858
0.205979
0.206102
0.206225
0.20635
0.206474
0.2066
0.206725
0.20685
0.206975
0.207099
0.207221
0.207342
0.20746
0.207575
0.207688
0.207797
0.207903
0.208007
0.208107
0.208204
0.208297
0.208387
0.208474
0.208558
0.208638
0.208714
0.208787
0.208858
0.208926
0.20899
0.209053
0.209113
0.209171
0.209228
0.209282
0.209335
0.209385
0.209433
0.209477
0.209518
0.209556
0.209588
0.209617
0.209642
0.209663
0.20968
0.209694
0.209704
0.20971
0.209713
0.209715
0.209714
0.20971
0.209706
0.209702
0.209697
0.209693
0.209688
0.209683
0.209679
0.209673
0.209669
0.209666
0.209662
0.209659
0.209655
0.20965
0.209644
0.209638
0.209631
0.209623
0.209615
0.209606
0.209596
0.209587
0.209577
0.209569
0.209562
0.209556
0.209549
0.209544
0.209541
0.209538
0.209536
0.209536
0.209537
0.209542
0.209548
0.209558
0.209571
0.209586
0.209604
0.209624
0.209647
0.209673
0.209701
0.209732
0.209764
0.209798
0.209835
0.209873
0.209913
0.209954
0.209998
0.210043
0.210091
0.21014
0.210192
0.210247
0.210305
0.210365
0.21043
0.210498
0.21057
0.210647
0.210729
0.210815
0.210906
0.211
0.211098
0.211199
0.211303
0.211409
0.211517
0.211628
0.21174
0.211853
0.211968
0.212083
0.212198
0.212314
0.21243
0.212547
0.212666
0.212786
0.21291
0.213035
0.213163
0.213293
0.213427
0.213562
0.2137
0.213839
0.213979
0.214117
0.214255
0.214392
0.214529
0.214665
0.214801
0.214933
0.215066
0.215188
0.215335
0.21543
0.215608
0.215662
0.215909
0.215881
0.216262
0.216144
0.216691
0.216543
0.217191
0.217029
0.217611
0.21745
0.217699
0.217555
0.21717
0.216994
0.215988
0.21562
0.213557
0.211927
0.205755
0.196096
0.158642
0.115569
0.0990941
0.0820981
0.0692745
0.0510448
0.0372075
0.0284051
0.0303491
0.0474486
0.0766039
)
;

boundaryField
{
    inlet
    {
        type            calculated;
        value           uniform 0;
    }
    endWall
    {
        type            calculated;
        value           uniform 0;
    }
    sideWall
    {
        type            empty;
    }
}


// ************************************************************************* //
