/*--------------------------------*- C++ -*----------------------------------*\
| =========                 |                                                 |
| \\      /  F ield         | foam-extend: Open Source CFD                    |
|  \\    /   O peration     | Version:     3.2                                |
|   \\  /    A nd           | Web:         http://www.foam-extend.org         |
|    \\/     M anipulation  | For copyright notice see file Copyright         |
\*---------------------------------------------------------------------------*/
FoamFile
{
    version     2.0;
    format      ascii;
    class       areaScalarField;
    location    "910";
    object      tauCSS1;
}
// * * * * * * * * * * * * * * * * * * * * * * * * * * * * * * * * * * * * * //

dimensions      [1 1 2 0 0 0 0];

internalField   nonuniform List<scalar> 
550
(
0.0120735
0.0120837
0.0120735
0.0120735
0.0120735
0.0120735
0.0121496
0.0120735
0.0120735
0.0121816
0.0120735
0.0121932
0.0120735
0.0120735
0.0122003
0.0120735
0.0120735
0.0122006
0.0122
0.012199
0.0121978
0.0120735
0.0121951
0.0120735
0.0120735
0.0120735
0.0120735
0.0121892
0.0120735
0.0120736
0.0120736
0.0120735
0.012181
0.0121793
0.0121779
0.0121769
0.0120736
0.0121754
0.0121748
0.0120735
0.0121735
0.0121727
0.0120735
0.012171
0.0121704
0.0121701
0.0121701
0.0121705
0.0121713
0.0121723
0.0120735
0.0120736
0.0121752
0.0120735
0.0121756
0.0120735
0.0121742
0.0120736
0.0120735
0.0121699
0.0121686
0.0120735
0.0120735
0.0120736
0.0120735
0.0121641
0.0120735
0.0121637
0.0120736
0.0121639
0.0121643
0.0120735
0.0120735
0.0121663
0.0121672
0.0120735
0.0120735
0.0120735
0.0121689
0.0120736
0.0121673
0.0121658
0.0120735
0.0120735
0.0120735
0.0120736
0.0120735
0.012151
0.012149
0.0121474
0.0121465
0.0120735
0.012146
0.0121465
0.0120735
0.0120735
0.0121491
0.0120735
0.0121509
0.0121515
0.012152
0.0120736
0.0120735
0.0121524
0.0120735
0.0120735
0.0120735
0.0120736
0.0120735
0.0120728
0.0120726
0.0132944
0.0121465
0.0121422
0.0150061
0.0145959
0.0121473
0.0159718
0.0150069
0.0121326
0.0121289
0.0173566
0.0121366
0.0121308
0.0120596
0.0198549
0.0121392
0.0121374
0.0121168
0.0121133
0.0120713
0.0203617
0.0121362
0.0121202
0.0121313
0.0121287
0.0121197
0.0121123
0.0280091
0.0121357
0.0121493
0.0121032
0.0121298
0.0121277
0.0121134
0.0121183
0.0283576
0.0121293
0.0121262
0.0121179
0.0121199
0.012062
0.0121369
0.0121312
0.0120981
0.0120711
0.0121343
0.0121126
0.012109
0.0330296
0.0121232
0.0121171
0.0121168
0.0121023
0.0121165
0.0121235
0.012096
0.0120688
0.0121247
0.012113
0.012092
0.012103
0.0121045
0.0121024
0.0121032
0.0121008
0.0120957
0.0120861
0.054117
0.0121041
0.0120933
0.0121006
0.0120845
0.0120872
0.0120848
0.0120749
0.0120998
0.0120911
0.0120654
0.0120806
0.0120811
0.012072
0.0607283
0.0120885
0.012065
0.0120604
0.0120731
0.0120758
0.012093
0.0120732
0.0120673
0.0121018
0.0121
0.0121032
0.012108
0.0121064
0.0121132
0.0120981
0.0121192
0.0121026
0.0121091
0.0121096
0.0121042
0.0120989
0.0120905
0.0121726
0.0122086
0.0122073
0.0122476
0.0122728
0.0123053
0.0123366
0.0123623
0.0123944
0.0124155
0.0124483
0.012467
0.0124992
0.0125162
0.0125456
0.012561
0.0125864
0.012599
0.0126206
0.0126289
0.0126498
0.0126501
0.0126741
0.0126604
0.0126867
0.0126567
0.0126901
0.0126549
0.0126415
0.0126281
0.0126114
0.0126349
0.0126278
0.0125995
0.0126031
0.0125888
0.0125836
0.0125784
0.01255
0.0125498
0.0125493
0.0125588
0.0125524
0.0125511
0.0125348
0.0125468
0.0125295
0.0125169
0.0124868
0.0124719
0.0124511
0.0124373
0.0124232
0.0124141
0.0123966
0.0123913
0.0123828
0.0123784
0.0123768
0.0123791
0.0123784
0.0123808
0.0123861
0.0123929
0.0123948
0.012399
0.0124038
0.0124134
0.0124214
0.01243
0.0124357
0.0124436
0.01245
0.0124574
0.0124611
0.012466
0.0124689
0.012474
0.0124765
0.0124794
0.0124798
0.0124814
0.0124818
0.0124845
0.012486
0.0124888
0.0124902
0.0124919
0.012492
0.0124926
0.012492
0.0124921
0.012491
0.0124905
0.0124891
0.0124883
0.0124867
0.0124856
0.0124838
0.0124825
0.0124806
0.0124792
0.0124775
0.0124765
0.0124755
0.0124752
0.012475
0.0124754
0.0124759
0.0124769
0.0124781
0.0124797
0.0124815
0.0124835
0.0124857
0.0124882
0.0124907
0.0124938
0.0124972
0.0125005
0.012504
0.0125074
0.0125109
0.0125146
0.0125183
0.0125223
0.0125263
0.0125306
0.012535
0.0125398
0.0125445
0.0125494
0.0125543
0.0125592
0.0125638
0.0125685
0.0125723
0.0125743
0.0125746
0.0125732
0.0125701
0.0125648
0.0125586
0.0125511
0.0125425
0.0125337
0.0125243
0.0125138
0.0125031
0.0124928
0.0124822
0.0124727
0.0124655
0.0124608
0.0124573
0.0124537
0.0124494
0.012445
0.0124402
0.0124356
0.0124309
0.0124265
0.0124224
0.012419
0.0124161
0.0124141
0.0124133
0.0124134
0.0124146
0.0124165
0.0124188
0.0124212
0.0124233
0.0124251
0.0124264
0.0124272
0.0124275
0.0124273
0.0124267
0.0124255
0.0124241
0.0124224
0.0124206
0.0124186
0.0124166
0.0124148
0.0124128
0.012411
0.0124092
0.0124075
0.0124059
0.0124042
0.0124026
0.012401
0.0123993
0.0123975
0.0123958
0.0123938
0.012392
0.0123898
0.0123878
0.0123856
0.0123833
0.0123811
0.0123787
0.0123763
0.012374
0.0123716
0.0123693
0.0123672
0.0123649
0.0123627
0.0123607
0.0123587
0.0123568
0.0123549
0.0123532
0.0123514
0.0123499
0.0123484
0.0123469
0.0123456
0.0123444
0.0123433
0.0123423
0.0123412
0.0123404
0.0123395
0.0123388
0.0123382
0.0123376
0.0123374
0.0123372
0.0123371
0.0123372
0.0123374
0.0123378
0.0123385
0.012339
0.0123401
0.0123411
0.0123422
0.0123434
0.0123448
0.0123461
0.0123476
0.012349
0.0123506
0.0123522
0.0123538
0.0123558
0.0123575
0.0123595
0.0123615
0.0123638
0.0123663
0.0123694
0.0123725
0.0123764
0.0123803
0.0123853
0.0123909
0.0123968
0.0124028
0.0124088
0.0124152
0.0124215
0.0124283
0.0124351
0.0124423
0.0124497
0.0124573
0.012465
0.0124728
0.0124808
0.0124887
0.0124967
0.0125047
0.0125128
0.0125208
0.0125287
0.0125367
0.0125446
0.0125526
0.0125605
0.0125683
0.012576
0.0125837
0.0125913
0.0125988
0.0126062
0.0126135
0.0126206
0.0126278
0.0126346
0.0126416
0.012648
0.0126551
0.0126609
0.0126679
0.0126741
0.01268
0.0126883
0.0126903
0.012707
0.0126948
0.0127374
0.0126854
0.0127834
0.0126535
0.0128346
0.0125952
0.0128809
0.0125093
0.0129037
0.0124035
0.0128761
0.0123041
0.0127718
0.0122021
0.0125382
0.0118477
0.0118372
0.0103404
0.00773776
0.0120736
0.0120735
0.0120735
0.0120736
0.0120735
0.0120736
0.0120735
0.0121481
0.0181162
0.0168014
)
;

boundaryField
{
    inlet
    {
        type            calculated;
        value           uniform 0;
    }
    endWall
    {
        type            calculated;
        value           uniform 0;
    }
    sideWall
    {
        type            empty;
    }
}


// ************************************************************************* //
