/*--------------------------------*- C++ -*----------------------------------*\
| =========                 |                                                 |
| \\      /  F ield         | foam-extend: Open Source CFD                    |
|  \\    /   O peration     | Version:     3.2                                |
|   \\  /    A nd           | Web:         http://www.foam-extend.org         |
|    \\/     M anipulation  | For copyright notice see file Copyright         |
\*---------------------------------------------------------------------------*/
FoamFile
{
    version     2.0;
    format      ascii;
    class       areaScalarField;
    location    "1440";
    object      tauCSS2;
}
// * * * * * * * * * * * * * * * * * * * * * * * * * * * * * * * * * * * * * //

dimensions      [1 1 2 0 0 0 0];

internalField   nonuniform List<scalar> 
550
(
0.0120735
0.0120837
0.0120735
0.0120735
0.0120735
0.0120735
0.0121481
0.0120735
0.0120735
0.0121773
0.0120647
0.0120735
0.0120824
0.0120665
0.0120735
0.0120806
0.0120686
0.0120692
0.0120747
0.0120745
0.0120773
0.0120742
0.0120735
0.0120763
0.0120735
0.0120735
0.0120718
0.0120736
0.0120753
0.0120736
0.0120736
0.0120722
0.0120722
0.0120737
0.0120736
0.0120748
0.0120736
0.0120724
0.0120747
0.0120736
0.0120725
0.0120746
0.0120736
0.0120726
0.0120736
0.0120736
0.0120736
0.0120736
0.0120736
0.0120744
0.0120744
0.0120727
0.0120736
0.0120736
0.0120736
0.0120736
0.0120735
0.0120729
0.0120763
0.0120679
0.012082
0.0121396
0.0120778
0.0133316
0.0135067
0.0121402
0.0121544
0.0121353
0.0142904
0.0121392
0.0121558
0.0121301
0.0158219
0.0166523
0.0121449
0.0121403
0.0121436
0.0121351
0.0121421
0.0120547
0.0235147
0.0121508
0.0121442
0.0121395
0.0121509
0.0121348
0.0121446
0.0121528
0.0121578
0.012137
0.0120638
0.0121689
0.0121634
0.012135
0.0121698
0.0121515
0.0121545
0.0121736
0.0121698
0.0121479
0.0121651
0.0121666
0.0121731
0.0121704
0.0121831
0.0121508
0.0121511
0.0755599
0.0121831
0.012152
0.0121926
0.0121532
0.0121537
0.012178
0.0122119
0.0121489
0.0122103
0.0121496
0.0121843
0.012153
0.0122399
0.0120776
0.012335
0.0123514
0.0123709
0.0124218
0.0124589
0.0125123
0.0125455
0.0125932
0.0126192
0.0126585
0.0126751
0.0127046
0.0127062
0.0127229
0.0127015
0.0126626
0.0126147
0.0126011
0.0125819
0.0125383
0.0125277
0.0125404
0.0125416
0.0125596
0.0125634
0.0125807
0.012583
0.0125951
0.0125932
0.0125964
0.0125975
0.0125844
0.0126011
0.0125518
0.0126066
0.0124977
0.0126003
0.0124338
0.0125609
0.0123602
0.0124809
0.0122761
0.0123821
0.0121884
0.0122866
0.012073
0.0121187
0.0117338
0.0114117
0.0115002
0.0114134
0.0114928
0.0114418
0.0115086
0.011471
0.0115268
0.0114974
0.0115436
0.0115206
0.0115586
0.011541
0.0115716
0.0115589
0.0115829
0.0115745
0.0115929
0.0115881
0.011602
0.0116006
0.0116105
0.011612
0.0116198
0.0116215
0.0116286
0.0116294
0.0116361
0.0116366
0.0116429
0.0116432
0.0116493
0.0116493
0.0116553
0.0116552
0.0116609
0.0116607
0.0116663
0.0116661
0.0116717
0.0116717
0.0116774
0.0116774
0.011683
0.0116832
0.0116888
0.0116892
0.0116948
0.0116952
0.0117008
0.0117011
0.0117068
0.0117071
0.011713
0.0117129
0.0117197
0.0117187
0.0117267
0.0117246
0.0117341
0.0117307
0.0117419
0.0117369
0.0117498
0.0117433
0.0117575
0.0117499
0.0117652
0.011757
0.011773
0.0117643
0.0117813
0.0117718
0.01179
0.0117792
0.0117988
0.0117863
0.0118078
0.0117932
0.0118167
0.0117996
0.0118257
0.0118054
0.0118344
0.0118107
0.0118429
0.0118152
0.0118511
0.0118192
0.0118581
0.0118221
0.0118647
0.0118244
0.0118708
0.0118259
0.0118761
0.0118265
0.0118811
0.0118264
0.0118854
0.0118253
0.0118891
0.0118234
0.0118917
0.0118211
0.0118928
0.0118187
0.0118916
0.0118172
0.0118881
0.0118178
0.0118826
0.0118189
0.0118757
0.0118207
0.0118686
0.011821
0.0118613
0.0118201
0.0118535
0.0118181
0.0118458
0.0118153
0.011838
0.0118114
0.0118302
0.0118071
0.0118223
0.0118023
0.0118146
0.0117971
0.011807
0.0117916
0.0117997
0.0117861
0.0117928
0.0117809
0.0117864
0.0117761
0.0117807
0.0117722
0.0117762
0.0117694
0.0117728
0.0117675
0.0117708
0.0117668
0.0117701
0.0117673
0.0117706
0.0117686
0.0117717
0.0117708
0.011774
0.0117737
0.0117768
0.0117771
0.0117804
0.0117814
0.0117847
0.0117863
0.0117897
0.0117919
0.0117956
0.0117983
0.0118025
0.0118059
0.0118104
0.0118144
0.0118196
0.0118243
0.01183
0.0118355
0.0118418
0.0118481
0.011855
0.0118618
0.0118693
0.0118769
0.0118851
0.0118931
0.0119025
0.0119117
0.0119203
0.011929
0.0119374
0.0119459
0.0119542
0.0119626
0.0119709
0.0119794
0.0119876
0.011996
0.0120044
0.0120128
0.0120211
0.0120295
0.0120379
0.0120462
0.0120545
0.0120627
0.0120709
0.0120791
0.0120871
0.0120951
0.0121029
0.0121106
0.0121181
0.0121255
0.0121327
0.0121399
0.0121467
0.0121534
0.0121599
0.0121661
0.0121722
0.012178
0.0121836
0.012189
0.0121941
0.0121991
0.0122037
0.0122081
0.0122125
0.0122166
0.0122205
0.0122243
0.0122278
0.0122313
0.0122344
0.0122375
0.0122403
0.012243
0.0122456
0.0122478
0.0122503
0.0122523
0.0122543
0.0122562
0.012258
0.0122595
0.0122613
0.0122627
0.0122642
0.0122654
0.0122667
0.0122676
0.0122688
0.0122697
0.0122707
0.0122715
0.0122722
0.0122729
0.0122735
0.0122741
0.0122747
0.0122752
0.0122757
0.012276
0.0122764
0.0122767
0.012277
0.0122772
0.0122775
0.0122778
0.0122782
0.0122785
0.012279
0.0122796
0.0122802
0.012281
0.0122819
0.0122828
0.0122839
0.0122851
0.0122865
0.012288
0.0122896
0.0122914
0.0122934
0.0122956
0.0122981
0.0123009
0.0123037
0.0123068
0.01231
0.0123133
0.0123168
0.0123205
0.0123242
0.0123282
0.0123323
0.0123365
0.0123408
0.0123453
0.0123499
0.0123547
0.0123595
0.0123645
0.0123696
0.0123749
0.0123803
0.0123859
0.0123917
0.0123976
0.0124037
0.0124098
0.0124162
0.0124229
0.0124295
0.0124363
0.0124433
0.0124503
0.0124574
0.0124645
0.0124719
0.0124791
0.0124867
0.012494
0.0125018
0.0125092
0.012517
0.0125246
0.0125326
0.0125403
0.0125483
0.0125564
0.0125645
0.0125729
0.0125813
0.0125898
0.0125984
0.0126071
0.012616
0.0126248
0.0126339
0.0126428
0.0126517
0.0126607
0.0126697
0.0126787
0.0126876
0.012697
0.0127053
0.0127147
0.012724
0.0127316
0.0127446
0.0127455
0.0127726
0.0127493
0.0128198
0.0127301
0.0128902
0.0126746
0.0129635
0.0125801
0.0130195
0.0124484
0.0130252
0.0122952
0.0129399
0.0121619
0.0127423
0.0119412
0.0123356
0.0113284
0.0112097
0.0091843
0.00588045
0.0120736
0.0120735
0.0120735
0.0120736
0.0120735
0.0120736
0.0121481
0.0121481
0.0206515
0.0189959
)
;

boundaryField
{
    inlet
    {
        type            calculated;
        value           uniform 0;
    }
    endWall
    {
        type            calculated;
        value           uniform 0;
    }
    sideWall
    {
        type            empty;
    }
}


// ************************************************************************* //
