/*--------------------------------*- C++ -*----------------------------------*\
| =========                 |                                                 |
| \\      /  F ield         | foam-extend: Open Source CFD                    |
|  \\    /   O peration     | Version:     3.2                                |
|   \\  /    A nd           | Web:         http://www.foam-extend.org         |
|    \\/     M anipulation  | For copyright notice see file Copyright         |
\*---------------------------------------------------------------------------*/
FoamFile
{
    version     2.0;
    format      ascii;
    class       areaScalarField;
    location    "1440";
    object      tauCB;
}
// * * * * * * * * * * * * * * * * * * * * * * * * * * * * * * * * * * * * * //

dimensions      [1 1 2 0 0 0 0];

internalField   nonuniform List<scalar> 
550
(
0.0676939
0.0677511
0.0676939
0.0676939
0.0676939
0.0676939
0.068112
0.0676939
0.0676939
0.0682756
0.0676445
0.0676939
0.0677434
0.0676542
0.0676939
0.0677337
0.0676663
0.0676695
0.0677006
0.0676991
0.0677149
0.0676978
0.0676939
0.0677093
0.0676939
0.0676939
0.0676839
0.067694
0.0677039
0.067694
0.0676939
0.0676861
0.0676865
0.0676945
0.0676945
0.0677011
0.0676944
0.0676876
0.0677005
0.0676942
0.0676881
0.0676999
0.0676942
0.0676885
0.0676942
0.0676941
0.0676942
0.0676942
0.0676941
0.0676989
0.0676987
0.0676894
0.0676939
0.067694
0.067694
0.0676941
0.0676939
0.0676904
0.0677094
0.0676625
0.0677412
0.068064
0.0677178
0.0747476
0.0757293
0.0680679
0.0681471
0.0680401
0.0801233
0.0680623
0.0681549
0.0680109
0.0887102
0.093366
0.0680941
0.0680681
0.0680866
0.0680394
0.0680783
0.0675885
0.131842
0.0681271
0.06809
0.0680634
0.0681275
0.0680372
0.0680922
0.0681383
0.0681663
0.0680498
0.0676392
0.0682289
0.0681974
0.0680384
0.0682336
0.0681309
0.0681477
0.0682548
0.0682334
0.0681109
0.0682074
0.0682155
0.068252
0.0682367
0.0683082
0.0681271
0.0681288
0.423649
0.0683081
0.0681338
0.0683614
0.0681403
0.0681432
0.0682799
0.0684693
0.0681164
0.0684607
0.0681201
0.0683151
0.0681397
0.0686265
0.0677164
0.0691597
0.0692518
0.0693612
0.0696469
0.0698547
0.0701539
0.07034
0.0706076
0.070753
0.0709738
0.071067
0.0712321
0.0712409
0.0713347
0.0712149
0.0709965
0.0707282
0.0706517
0.070544
0.0703
0.0702403
0.0703115
0.0703184
0.0704193
0.0704405
0.0705371
0.0705502
0.0706181
0.0706075
0.0706257
0.0706313
0.0705585
0.0706517
0.0703754
0.0706826
0.070072
0.0706471
0.0697135
0.070426
0.0693011
0.0699777
0.0688297
0.069424
0.0683379
0.0688889
0.0676908
0.0679472
0.0657892
0.0639835
0.0644795
0.0639927
0.0644378
0.0641516
0.0645264
0.0643154
0.0646284
0.0644635
0.0647229
0.0645939
0.0648068
0.0647081
0.0648792
0.0648082
0.064943
0.0648961
0.0649991
0.0649722
0.0650501
0.0650425
0.0650979
0.0651061
0.0651497
0.0651593
0.065199
0.0652035
0.0652413
0.065244
0.0652798
0.0652808
0.065315
0.0653154
0.0653485
0.0653481
0.0653799
0.0653793
0.0654106
0.0654096
0.0654412
0.0654408
0.0654725
0.0654726
0.0655043
0.0655055
0.065537
0.0655391
0.0655706
0.0655724
0.0656037
0.0656057
0.0656376
0.0656393
0.0656727
0.0656717
0.0657101
0.0657044
0.0657494
0.0657373
0.0657909
0.0657713
0.065834
0.0658061
0.0658787
0.0658421
0.0659218
0.0658794
0.065965
0.0659188
0.066009
0.0659604
0.0660555
0.0660023
0.0661039
0.0660436
0.0661536
0.0660837
0.0662037
0.066122
0.0662542
0.0661578
0.0663042
0.0661907
0.0663533
0.0662201
0.0664008
0.0662457
0.0664465
0.0662674
0.066486
0.0662843
0.0665232
0.0662971
0.0665572
0.0663055
0.0665868
0.066309
0.0666143
0.066308
0.066639
0.066302
0.0666596
0.0662916
0.0666743
0.0662783
0.0666803
0.0662652
0.066674
0.0662565
0.0666542
0.0662597
0.0666235
0.0662661
0.0665847
0.0662761
0.0665445
0.066278
0.0665035
0.0662726
0.0664603
0.0662618
0.0664172
0.0662458
0.0663737
0.0662242
0.0663293
0.0661997
0.0662853
0.0661729
0.0662421
0.0661442
0.0661997
0.0661131
0.0661584
0.0660825
0.0661196
0.0660531
0.066084
0.0660262
0.0660523
0.0660047
0.066027
0.0659887
0.0660078
0.0659778
0.0659967
0.0659742
0.0659925
0.0659768
0.065995
0.0659842
0.0660016
0.0659964
0.0660145
0.0660125
0.0660305
0.0660321
0.06605
0.0660558
0.0660745
0.0660831
0.0661026
0.0661149
0.0661357
0.0661509
0.0661745
0.0661931
0.0662185
0.0662412
0.0662698
0.0662963
0.0663286
0.0663591
0.066395
0.0664299
0.0664688
0.0665072
0.0665493
0.0665915
0.0666372
0.0666822
0.0667351
0.0667864
0.0668349
0.0668838
0.0669306
0.0669782
0.0670245
0.067072
0.0671183
0.0671658
0.067212
0.0672595
0.0673058
0.0673532
0.0673999
0.067447
0.0674938
0.0675404
0.0675871
0.0676332
0.0676795
0.067725
0.0677701
0.0678148
0.0678584
0.0679015
0.0679435
0.0679853
0.0680257
0.0680658
0.068104
0.0681416
0.0681779
0.068213
0.068247
0.0682796
0.068311
0.0683411
0.06837
0.0683973
0.0684237
0.0684489
0.0684731
0.0684959
0.0685179
0.068539
0.0685591
0.0685781
0.0685961
0.0686129
0.0686291
0.0686439
0.0686586
0.0686714
0.0686845
0.068696
0.0687079
0.068718
0.0687282
0.0687371
0.0687466
0.0687541
0.0687628
0.0687693
0.0687768
0.0687821
0.0687891
0.0687938
0.0687995
0.0688037
0.0688081
0.0688119
0.0688154
0.0688185
0.068822
0.0688244
0.0688273
0.0688291
0.0688313
0.0688327
0.0688347
0.0688358
0.0688378
0.0688392
0.0688412
0.0688433
0.0688459
0.0688491
0.0688526
0.0688572
0.0688619
0.0688673
0.0688732
0.0688803
0.0688877
0.0688958
0.0689049
0.0689152
0.0689263
0.0689393
0.0689531
0.0689684
0.0689845
0.0690015
0.0690194
0.0690382
0.0690579
0.0690783
0.0690996
0.0691217
0.0691446
0.0691684
0.0691927
0.069218
0.0692436
0.0692703
0.0692972
0.0693253
0.0693539
0.0693836
0.0694139
0.0694454
0.0694777
0.0695108
0.0695449
0.0695797
0.0696152
0.0696524
0.0696897
0.0697277
0.0697674
0.0698058
0.0698464
0.0698859
0.0699276
0.0699679
0.0700104
0.0700516
0.0700948
0.0701365
0.0701805
0.070223
0.0702675
0.0703111
0.0703562
0.0704015
0.0704472
0.0704939
0.0705412
0.0705885
0.0706371
0.0706855
0.0707355
0.0707849
0.0708359
0.0708856
0.0709361
0.0709859
0.0710362
0.0710869
0.0711367
0.0711897
0.0712358
0.071289
0.0713407
0.0713834
0.0714567
0.0714612
0.0716136
0.0714827
0.0718781
0.0713748
0.072273
0.0710643
0.0726834
0.0705336
0.0729976
0.0697956
0.0730298
0.0689371
0.0725515
0.0681892
0.0714433
0.0669521
0.0691628
0.0635158
0.0628502
0.0514947
0.0329705
0.0676943
0.0676938
0.0676937
0.0676943
0.0676937
0.0676943
0.068112
0.0681119
0.115789
0.106506
)
;

boundaryField
{
    inlet
    {
        type            calculated;
        value           uniform 0;
    }
    endWall
    {
        type            calculated;
        value           uniform 0;
    }
    sideWall
    {
        type            empty;
    }
}


// ************************************************************************* //
