/*--------------------------------*- C++ -*----------------------------------*\
| =========                 |                                                 |
| \\      /  F ield         | foam-extend: Open Source CFD                    |
|  \\    /   O peration     | Version:     3.2                                |
|   \\  /    A nd           | Web:         http://www.foam-extend.org         |
|    \\/     M anipulation  | For copyright notice see file Copyright         |
\*---------------------------------------------------------------------------*/
FoamFile
{
    version     2.0;
    format      ascii;
    class       areaScalarField;
    location    "910";
    object      tauCB;
}
// * * * * * * * * * * * * * * * * * * * * * * * * * * * * * * * * * * * * * //

dimensions      [1 1 2 0 0 0 0];

internalField   nonuniform List<scalar> 
550
(
0.0592711
0.0593208
0.0592711
0.0592711
0.0592711
0.0592711
0.0596446
0.0592711
0.0592711
0.0598016
0.0592711
0.0598588
0.0592711
0.0592711
0.0598935
0.0592711
0.0592711
0.059895
0.0598917
0.059887
0.059881
0.0592711
0.0598677
0.0592711
0.0592711
0.0592711
0.0592711
0.0598386
0.059271
0.0592711
0.0592711
0.059271
0.0597989
0.0597905
0.0597833
0.0597783
0.0592711
0.0597713
0.0597686
0.059271
0.0597619
0.0597578
0.059271
0.0597498
0.0597469
0.059745
0.0597451
0.0597472
0.0597505
0.0597558
0.059271
0.0592711
0.0597698
0.059271
0.0597718
0.0592711
0.059765
0.0592712
0.0592711
0.0597443
0.0597376
0.059271
0.0592711
0.0592712
0.059271
0.0597158
0.0592711
0.0597136
0.0592712
0.0597143
0.0597163
0.0592711
0.059271
0.0597265
0.0597304
0.059271
0.0592711
0.0592711
0.0597392
0.0592712
0.0597317
0.0597236
0.0592711
0.059271
0.0592711
0.0592712
0.059271
0.0596513
0.0596412
0.0596339
0.0596288
0.0592711
0.0596265
0.0596287
0.059271
0.0592711
0.0596418
0.059271
0.0596508
0.0596538
0.0596564
0.0592712
0.0592711
0.0596583
0.0592711
0.059271
0.0592711
0.0592712
0.059271
0.0592672
0.0592665
0.0652643
0.0596292
0.0596082
0.0736675
0.0716539
0.0596332
0.0784084
0.0736712
0.0595615
0.0595431
0.0852064
0.0595803
0.0595521
0.0592025
0.0974712
0.0595936
0.0595846
0.0594829
0.0594661
0.0592599
0.0999589
0.0595785
0.0595001
0.0595546
0.0595419
0.0594977
0.0594612
0.137502
0.0595762
0.0596431
0.0594169
0.059547
0.059537
0.0594666
0.0594909
0.139212
0.0595447
0.0595293
0.0594887
0.0594987
0.0592145
0.0595818
0.059554
0.0593915
0.0592592
0.0595691
0.0594628
0.0594453
0.162148
0.0595148
0.0594852
0.0594832
0.0594121
0.0594819
0.0595164
0.0593812
0.0592477
0.0595222
0.0594646
0.0593616
0.0594157
0.0594231
0.059413
0.0594169
0.0594047
0.0593795
0.0593326
0.26567
0.0594209
0.059368
0.0594039
0.0593248
0.0593377
0.0593264
0.0592779
0.0593998
0.0593573
0.0592313
0.0593056
0.059308
0.0592635
0.298125
0.0593446
0.0592288
0.0592066
0.059269
0.0592822
0.0593665
0.0592695
0.0592405
0.05941
0.0594009
0.0594163
0.05944
0.0594322
0.0594658
0.0593915
0.0594953
0.059414
0.0594456
0.059448
0.0594213
0.0593956
0.0593545
0.0597574
0.0599341
0.0599276
0.0601257
0.0602493
0.0604087
0.0605623
0.0606885
0.060846
0.06095
0.0611109
0.0612028
0.0613607
0.061444
0.0615887
0.061664
0.0617885
0.0618507
0.0619569
0.0619976
0.0621
0.0621014
0.0622191
0.0621517
0.0622813
0.0621339
0.0622978
0.0621253
0.0620591
0.0619938
0.0619116
0.0620268
0.0619919
0.0618531
0.0618707
0.0618007
0.061775
0.0617498
0.0616099
0.0616088
0.0616067
0.0616533
0.0616219
0.0616152
0.0615355
0.0615943
0.0615097
0.0614477
0.0613
0.0612267
0.0611246
0.0610567
0.0609874
0.060943
0.0608567
0.0608312
0.0607892
0.0607678
0.0607599
0.0607714
0.0607676
0.0607797
0.0608057
0.0608389
0.0608484
0.0608689
0.0608924
0.0609394
0.0609784
0.0610209
0.0610487
0.0610875
0.0611191
0.0611554
0.0611738
0.0611976
0.061212
0.0612371
0.0612494
0.0612636
0.0612655
0.061273
0.0612753
0.0612882
0.0612957
0.0613098
0.0613165
0.061325
0.0613251
0.0613284
0.0613254
0.0613256
0.0613205
0.0613183
0.0613113
0.0613072
0.0612991
0.0612938
0.0612852
0.0612787
0.0612693
0.0612627
0.0612542
0.0612493
0.0612444
0.061243
0.0612418
0.0612439
0.0612464
0.0612512
0.0612573
0.0612649
0.0612736
0.0612835
0.0612943
0.0613066
0.0613191
0.0613342
0.061351
0.0613671
0.0613841
0.0614008
0.0614182
0.0614361
0.0614545
0.0614739
0.0614938
0.0615151
0.0615368
0.0615598
0.0615829
0.0616073
0.0616311
0.0616554
0.0616777
0.0617008
0.0617196
0.0617295
0.061731
0.061724
0.0617085
0.0616827
0.0616522
0.0616156
0.0615733
0.0615301
0.0614836
0.0614325
0.0613796
0.0613293
0.0612771
0.0612307
0.0611954
0.0611723
0.061155
0.0611371
0.0611164
0.0610946
0.061071
0.0610484
0.0610252
0.0610036
0.0609838
0.0609668
0.0609525
0.0609427
0.0609389
0.0609395
0.0609455
0.0609549
0.0609659
0.0609775
0.0609879
0.060997
0.0610031
0.0610071
0.0610086
0.0610079
0.0610045
0.060999
0.0609923
0.0609836
0.0609747
0.060965
0.0609554
0.0609461
0.0609369
0.0609278
0.060919
0.0609107
0.0609025
0.0608944
0.0608867
0.0608786
0.0608704
0.0608617
0.0608529
0.0608431
0.0608342
0.0608237
0.0608135
0.0608028
0.0607919
0.0607809
0.0607691
0.0607576
0.0607459
0.0607346
0.0607234
0.0607124
0.0607011
0.0606908
0.0606806
0.060671
0.0606615
0.0606521
0.0606437
0.0606353
0.0606278
0.06062
0.0606134
0.0606064
0.0606009
0.0605952
0.0605905
0.0605851
0.0605814
0.0605767
0.0605733
0.0605706
0.0605677
0.0605662
0.060565
0.0605649
0.0605652
0.0605665
0.0605685
0.0605716
0.0605746
0.0605798
0.0605845
0.0605899
0.0605957
0.0606024
0.0606091
0.0606164
0.0606235
0.0606313
0.0606393
0.0606472
0.0606564
0.0606648
0.0606746
0.0606847
0.0606961
0.0607083
0.0607236
0.0607386
0.0607576
0.060777
0.0608013
0.0608293
0.0608582
0.0608872
0.0609169
0.0609481
0.0609793
0.0610126
0.061046
0.0610816
0.0611176
0.0611551
0.0611928
0.0612314
0.0612701
0.0613093
0.0613485
0.061388
0.0614271
0.0614666
0.0615055
0.061545
0.0615838
0.0616231
0.0616614
0.0617001
0.0617378
0.0617757
0.0618127
0.0618498
0.0618857
0.0619219
0.0619567
0.061992
0.0620251
0.0620599
0.0620912
0.062126
0.0621544
0.0621889
0.0622192
0.062248
0.0622891
0.0622989
0.0623809
0.0623212
0.0625301
0.0622748
0.062756
0.0621184
0.0630073
0.0618317
0.0632345
0.0614099
0.0633466
0.060891
0.063211
0.0604026
0.0626987
0.0599021
0.0615519
0.0581625
0.0581107
0.0507631
0.037986
0.0592714
0.059271
0.0592709
0.0592714
0.0592709
0.0592714
0.0592709
0.0596371
0.0889359
0.0824806
)
;

boundaryField
{
    inlet
    {
        type            calculated;
        value           uniform 0;
    }
    endWall
    {
        type            calculated;
        value           uniform 0;
    }
    sideWall
    {
        type            empty;
    }
}


// ************************************************************************* //
