/*--------------------------------*- C++ -*----------------------------------*\
| =========                 |                                                 |
| \\      /  F ield         | foam-extend: Open Source CFD                    |
|  \\    /   O peration     | Version:     3.2                                |
|   \\  /    A nd           | Web:         http://www.foam-extend.org         |
|    \\/     M anipulation  | For copyright notice see file Copyright         |
\*---------------------------------------------------------------------------*/
FoamFile
{
    version     2.0;
    format      ascii;
    class       areaScalarField;
    location    "1440";
    object      thetaHMaxSS1;
}
// * * * * * * * * * * * * * * * * * * * * * * * * * * * * * * * * * * * * * //

dimensions      [0 0 0 0 0 0 0];

internalField   nonuniform List<scalar> 
550
(
0
0
0
0
0
0
0
0
0
0
0
0
0
0
0
0
0
0
0
0
0
0
0
0
0
0
0
0
0
0
0
0
0
0
0
0
0
0
0
0
0
0
0
0
0
0
0
0
0
0
0
0
0
0
0
0
0
0
0
0
0
0
0
0
0
0
0
0
0
0
0
0
0
0
0
0
0
0
0
0
0
0
0
0
0
0
0
0
0
0
0
0
0
0
0
0
0
0
0
0
0
0
0
0
0
0
0
0
0
0
0
0
0
0
0
0
0
0
0
0
0
0
0
0
0
0
0
0
0
0
0
2.40607
2.3985
2.40058
2.40119
2.39832
2.40012
2.38877
2.35836
2.35672
2.3523
2.31999
2.31813
2.3162
2.31395
2.31192
2.31022
2.30862
2.30698
2.30476
2.30197
2.29861
2.29483
2.29069
2.28605
2.28068
2.27487
2.26908
2.26389
2.25891
2.25226
2.24432
2.2349
2.22416
2.21357
2.20446
2.19815
2.1928
2.18525
2.17287
2.02837
2.02678
2.02512
2.0235
2.02181
2.02015
2.01854
2.01684
2.01519
2.01351
2.01181
2.01016
2.00848
2.00679
2.00514
2.00348
2.00186
2.00023
1.99859
1.997
1.99545
1.9939
1.99233
1.99088
1.98934
1.98793
1.98643
1.98505
1.98366
1.98231
1.98095
1.97964
1.97837
1.97715
1.97591
1.97472
1.97357
1.97241
1.97129
1.97023
1.96922
1.96826
1.96728
1.96641
1.96551
1.96465
1.9639
1.96309
1.96231
1.96155
1.96079
1.96005
1.95938
1.95863
1.95789
1.95721
1.95645
1.95576
1.955
1.95429
1.95359
1.95288
1.95216
1.95151
1.95078
1.95004
1.94937
1.94863
1.94795
1.9472
1.94652
1.94584
1.9451
1.94443
1.94376
1.94309
1.94242
1.94176
1.9411
1.94043
1.93977
1.9391
1.93843
1.93776
1.93708
1.93639
1.93569
1.93504
1.93432
1.93358
1.93275
1.93198
1.9312
1.9304
1.92958
1.92869
1.92784
1.92699
1.92606
1.92518
1.92424
1.92329
1.9224
1.92144
1.92047
1.91949
1.9185
1.9175
1.91643
1.91541
1.91439
1.91329
1.91225
1.91114
1.91003
1.90891
1.90779
1.90667
1.90554
1.90435
1.90323
1.90204
1.90092
1.89974
1.89857
1.89741
1.89625
1.8951
1.89396
1.89283
1.89171
1.8906
1.88945
1.88838
1.88726
1.88623
1.88515
1.88416
1.88314
1.88215
1.88123
1.88029
1.87944
1.87855
1.8777
1.87693
1.87614
1.87543
1.87471
1.87406
1.87339
1.87274
1.87212
1.87155
1.87097
1.8704
1.86985
1.86929
1.86878
1.86829
1.86781
1.86732
1.86687
1.86644
1.86601
1.86562
1.86524
1.86486
1.86451
1.86419
1.86388
1.8636
1.86333
1.86308
1.86286
1.86264
1.86244
1.86225
1.86207
1.8619
1.86172
1.86154
1.86136
1.86117
1.86098
1.86078
1.86055
1.86032
1.86009
1.85983
1.85958
1.85931
1.85902
1.85874
1.85844
1.85814
1.85783
1.85752
1.85718
1.85686
1.85651
1.85618
1.85582
1.85547
1.85509
1.8547
1.8543
1.85387
1.85343
1.853
1.85254
1.85206
1.85156
1.85104
1.85049
1.84994
1.84934
1.84874
1.84808
1.84743
1.84676
1.84605
1.84533
1.84459
1.84384
1.84306
1.8423
1.84148
1.84069
1.83983
1.839
1.8381
1.83723
1.83635
1.83539
1.83448
1.83354
1.83259
1.83164
1.83067
1.82968
1.82869
1.82768
1.82672
1.82569
1.82465
1.8236
1.8226
1.82154
1.82053
1.81946
1.81844
1.81741
1.81632
1.81529
1.81426
1.81323
1.81219
1.81116
1.81012
1.80908
1.80803
1.80699
1.80594
1.8049
1.80386
1.80282
1.8018
1.80078
1.79977
1.79884
1.79786
1.79689
1.79593
1.79505
1.79412
1.79321
1.79231
1.79143
1.79057
1.78973
1.78892
1.78819
1.78741
1.78665
1.78591
1.78518
1.78447
1.78378
1.7831
1.78243
1.78178
1.78115
1.78053
1.77992
1.77933
1.77875
1.77819
1.77763
1.77708
1.77655
1.77603
1.77551
1.77501
1.77452
1.77404
1.77349
1.77304
1.77259
1.77207
1.77164
1.77122
1.77072
1.7703
1.7698
1.76939
1.7689
1.76848
1.768
1.76759
1.7671
1.76669
1.76621
1.7658
1.76531
1.7649
1.76441
1.76392
1.76352
1.76303
1.76255
1.76207
1.76159
1.76111
1.76062
1.7602
1.7597
1.75917
1.75864
1.7581
1.75755
1.75708
1.75652
1.75597
1.75542
1.75494
1.75437
1.7538
1.75331
1.75272
1.75212
1.75159
1.75097
1.75025
1.74956
1.74878
1.74791
1.74702
1.74581
1.7445
1.74271
1.74105
1.7381
1.73614
1.7317
1.73039
1.72675
1.72989
1.75009
1.69088
0
0
0
0
0
0
0
0
0
0
)
;

boundaryField
{
    inlet
    {
        type            calculated;
        value           uniform 0;
    }
    endWall
    {
        type            calculated;
        value           uniform 0;
    }
    sideWall
    {
        type            empty;
    }
}


// ************************************************************************* //
