/*--------------------------------*- C++ -*----------------------------------*\
| =========                 |                                                 |
| \\      /  F ield         | foam-extend: Open Source CFD                    |
|  \\    /   O peration     | Version:     3.2                                |
|   \\  /    A nd           | Web:         http://www.foam-extend.org         |
|    \\/     M anipulation  | For copyright notice see file Copyright         |
\*---------------------------------------------------------------------------*/
FoamFile
{
    version     2.0;
    format      ascii;
    class       areaScalarField;
    location    "1440";
    object      thetaCSS2;
}
// * * * * * * * * * * * * * * * * * * * * * * * * * * * * * * * * * * * * * //

dimensions      [0 0 0 0 0 0 0];

internalField   nonuniform List<scalar> 
550
(
0.127208
0.127315
0.127208
0.127208
0.127208
0.127208
0.127994
0.127208
0.127208
0.128301
0.127115
0.127208
0.127301
0.127133
0.127208
0.127283
0.127156
0.127162
0.127221
0.127218
0.127248
0.127215
0.127208
0.127237
0.127208
0.127208
0.127189
0.127208
0.127227
0.127208
0.127208
0.127193
0.127194
0.127209
0.127209
0.127222
0.127209
0.127196
0.12722
0.127209
0.127197
0.127219
0.127209
0.127198
0.127209
0.127209
0.127209
0.127209
0.127208
0.127217
0.127217
0.1272
0.127208
0.127208
0.127208
0.127208
0.127208
0.127201
0.127237
0.127149
0.127297
0.127904
0.127253
0.140463
0.142308
0.127911
0.12806
0.127859
0.150565
0.1279
0.128075
0.127804
0.166701
0.17545
0.12796
0.127911
0.127946
0.127857
0.12793
0.12701
0.247753
0.128022
0.127953
0.127903
0.128023
0.127853
0.127956
0.128043
0.128096
0.127877
0.127105
0.128213
0.128154
0.127856
0.128222
0.128029
0.128061
0.128262
0.128222
0.127991
0.128173
0.128188
0.128257
0.128228
0.128363
0.128022
0.128025
0.796107
0.128363
0.128035
0.128462
0.128047
0.128052
0.128309
0.128665
0.128002
0.128649
0.128009
0.128376
0.128046
0.128961
0.12725
0.129963
0.130136
0.130341
0.130878
0.131269
0.131831
0.132181
0.132684
0.132957
0.133371
0.133546
0.133857
0.133873
0.13405
0.133824
0.133415
0.13291
0.132767
0.132564
0.132105
0.131993
0.132127
0.13214
0.132329
0.132369
0.132551
0.132576
0.132703
0.132683
0.132717
0.132728
0.132591
0.132766
0.132247
0.132824
0.131677
0.132758
0.131004
0.132343
0.130228
0.1315
0.129342
0.130459
0.128419
0.129453
0.127202
0.127684
0.123629
0.120235
0.121168
0.120253
0.121089
0.120552
0.121256
0.12086
0.121448
0.121138
0.121625
0.121382
0.121783
0.121597
0.121919
0.121785
0.122039
0.12195
0.122144
0.122093
0.12224
0.122225
0.12233
0.122345
0.122427
0.122445
0.12252
0.122528
0.122599
0.122604
0.122671
0.122674
0.122738
0.122739
0.122801
0.1228
0.12286
0.122859
0.122917
0.122915
0.122975
0.122974
0.123034
0.123034
0.123093
0.123095
0.123155
0.123159
0.123218
0.123221
0.12328
0.123284
0.123344
0.123347
0.12341
0.123408
0.12348
0.123469
0.123554
0.123532
0.123632
0.123595
0.123713
0.123661
0.123797
0.123728
0.123878
0.123798
0.123959
0.123873
0.124042
0.12395
0.124129
0.124029
0.12422
0.124107
0.124314
0.124182
0.124408
0.124254
0.124502
0.124322
0.124597
0.124383
0.124689
0.124439
0.124778
0.124487
0.124864
0.124528
0.124938
0.124559
0.125008
0.124584
0.125072
0.124599
0.125128
0.124606
0.12518
0.124604
0.125226
0.124593
0.125264
0.124573
0.125293
0.124548
0.125303
0.124523
0.125291
0.124507
0.125254
0.124513
0.125196
0.124525
0.125124
0.124544
0.125048
0.124547
0.124972
0.124537
0.12489
0.124517
0.124809
0.124487
0.124727
0.124446
0.124644
0.124401
0.124561
0.12435
0.12448
0.124296
0.1244
0.124237
0.124323
0.12418
0.12425
0.124125
0.124182
0.124074
0.124123
0.124033
0.124076
0.124004
0.12404
0.123983
0.124018
0.123976
0.12401
0.123981
0.124016
0.123995
0.124028
0.124018
0.124052
0.124048
0.124082
0.124085
0.124119
0.12413
0.124165
0.124181
0.124218
0.12424
0.12428
0.124308
0.124353
0.124388
0.124436
0.124478
0.124532
0.124582
0.124643
0.1247
0.124767
0.124833
0.124905
0.124978
0.125057
0.125136
0.125223
0.125307
0.125406
0.125503
0.125594
0.125686
0.125774
0.125863
0.12595
0.12604
0.126126
0.126216
0.126303
0.126392
0.126479
0.126568
0.126656
0.126744
0.126832
0.12692
0.127008
0.127094
0.127181
0.127267
0.127351
0.127435
0.127517
0.127598
0.127677
0.127755
0.127832
0.127907
0.127979
0.128049
0.128118
0.128184
0.128247
0.128309
0.128368
0.128424
0.128478
0.128531
0.12858
0.128626
0.128672
0.128716
0.128756
0.128796
0.128833
0.12887
0.128903
0.128935
0.128965
0.128993
0.129021
0.129045
0.12907
0.129091
0.129113
0.129133
0.129152
0.129168
0.129187
0.129201
0.129217
0.129229
0.129244
0.129253
0.129266
0.129275
0.129286
0.129293
0.129302
0.129309
0.129315
0.129321
0.129328
0.129332
0.129338
0.129341
0.129345
0.129348
0.129352
0.129354
0.129357
0.129361
0.129364
0.129368
0.129373
0.129379
0.129386
0.129394
0.129403
0.129413
0.129424
0.129438
0.129452
0.129467
0.129484
0.129503
0.129524
0.129548
0.129575
0.129604
0.129633
0.129665
0.129699
0.129734
0.129771
0.12981
0.12985
0.129892
0.129934
0.129979
0.130024
0.130072
0.13012
0.13017
0.130221
0.130274
0.130328
0.130383
0.13044
0.130499
0.13056
0.130623
0.130687
0.130751
0.130819
0.130888
0.130958
0.13103
0.131104
0.131177
0.131253
0.131327
0.131405
0.131481
0.131561
0.131638
0.13172
0.131798
0.13188
0.131961
0.132045
0.132126
0.132211
0.132296
0.132381
0.13247
0.132558
0.132647
0.132738
0.13283
0.132924
0.133016
0.133112
0.133206
0.1333
0.133394
0.133489
0.133584
0.133678
0.133777
0.133864
0.133964
0.134062
0.134141
0.134278
0.134288
0.134574
0.134328
0.135071
0.134126
0.135813
0.133541
0.136585
0.132545
0.137174
0.131158
0.137235
0.129544
0.136336
0.128139
0.134254
0.125814
0.129969
0.119357
0.118106
0.0967667
0.0619571
0.127209
0.127208
0.127208
0.127209
0.127208
0.127209
0.127994
0.127994
0.217587
0.200143
)
;

boundaryField
{
    inlet
    {
        type            calculated;
        value           uniform 0;
    }
    endWall
    {
        type            calculated;
        value           uniform 0;
    }
    sideWall
    {
        type            empty;
    }
}


// ************************************************************************* //
