/*--------------------------------*- C++ -*----------------------------------*\
| =========                 |                                                 |
| \\      /  F ield         | foam-extend: Open Source CFD                    |
|  \\    /   O peration     | Version:     3.2                                |
|   \\  /    A nd           | Web:         http://www.foam-extend.org         |
|    \\/     M anipulation  | For copyright notice see file Copyright         |
\*---------------------------------------------------------------------------*/
FoamFile
{
    version     2.0;
    format      ascii;
    class       areaScalarField;
    location    "1440";
    object      thetaB;
}
// * * * * * * * * * * * * * * * * * * * * * * * * * * * * * * * * * * * * * //

dimensions      [0 0 0 0 0 0 0];

internalField   nonuniform List<scalar> 
550
(
0.0153908
0.0212537
0.0283804
0.0367077
0.0460342
0.05604
0.0663453
0.0765237
0.0862006
0.0950362
0.102787
0.109305
0.114596
0.118633
0.121491
0.123326
0.124244
0.124371
0.12388
0.122939
0.121649
0.120091
0.118327
0.11643
0.114454
0.112442
0.11043
0.108457
0.106556
0.104726
0.102968
0.101285
0.0996811
0.0981619
0.0967274
0.0953788
0.0941118
0.0929189
0.0918045
0.0907626
0.0897837
0.0888739
0.0880254
0.08723
0.0864885
0.0857973
0.0851526
0.0845513
0.0839893
0.0834671
0.0829817
0.0825244
0.0820952
0.0816931
0.081315
0.0809603
0.0806252
0.0803083
0.0800186
0.0797292
0.0794745
0.0792142
0.0789779
0.0787374
0.0785223
0.0782996
0.0780978
0.0778902
0.0777028
0.0775142
0.0773379
0.0771549
0.0769828
0.0768177
0.0766536
0.0765005
0.0763625
0.0761998
0.0760586
0.0759037
0.0757767
0.0756525
0.0755258
0.075396
0.0752698
0.0751323
0.0750064
0.0748951
0.0747715
0.0746388
0.0745069
0.074401
0.0743096
0.0741983
0.074097
0.0739828
0.0738577
0.0737524
0.0736561
0.0735409
0.0734233
0.0733145
0.0732042
0.0730913
0.0729915
0.0728779
0.072747
0.0726355
0.0725373
0.0723999
0.0722906
0.0721742
0.0720286
0.0718693
0.0717862
0.0716534
0.0715578
0.0714166
0.0712761
0.071067
0.0709778
0.0706628
0.0703319
0.0704375
0.0705543
0.0707321
0.070904
0.0710792
0.07124
0.0713881
0.0715174
0.0716272
0.0717114
0.0717737
0.0717918
0.0718028
0.0717543
0.071571
0.0714202
0.0713724
0.0712022
0.0710796
0.0710794
0.0710828
0.0710988
0.0711177
0.0711404
0.0711562
0.0711686
0.071163
0.0711536
0.0711169
0.0711004
0.0710297
0.0710097
0.070905
0.0708891
0.0707821
0.0707556
0.0706556
0.0705658
0.070438
0.0702785
0.0701136
0.0699291
0.0697554
0.0695947
0.0693641
0.0691576
0.0684454
0.0673427
0.0669658
0.066592
0.066332
0.0661162
0.0659272
0.0657811
0.0656406
0.0655365
0.0654314
0.0653564
0.0652776
0.0652235
0.065164
0.0651251
0.0650802
0.0650521
0.0650185
0.0649975
0.0649735
0.0649586
0.0649417
0.0649312
0.0649219
0.064916
0.0649123
0.0649095
0.0649089
0.0649086
0.064909
0.0649098
0.064911
0.0649125
0.0649138
0.0649151
0.0649165
0.064918
0.0649194
0.0649214
0.0649235
0.0649262
0.0649287
0.0649317
0.0649346
0.0649377
0.0649413
0.0649449
0.0649483
0.0649518
0.0649553
0.0649587
0.0649626
0.0649658
0.0649696
0.0649726
0.0649778
0.0649809
0.0649874
0.0649913
0.0649992
0.0650042
0.0650127
0.0650188
0.065028
0.0650346
0.0650438
0.0650515
0.0650607
0.0650691
0.0650788
0.065088
0.0650984
0.0651076
0.0651194
0.0651292
0.065142
0.065152
0.0651656
0.0651759
0.0651902
0.0652003
0.0652149
0.0652246
0.0652392
0.0652482
0.0652624
0.0652706
0.065284
0.0652908
0.0653022
0.065307
0.0653173
0.0653208
0.0653294
0.0653309
0.0653376
0.0653375
0.0653428
0.0653409
0.065345
0.0653416
0.065344
0.0653402
0.0653394
0.0653348
0.0653297
0.0653247
0.0653134
0.0653078
0.0652898
0.0652838
0.0652608
0.0652539
0.0652273
0.0652187
0.0651924
0.0651821
0.0651563
0.065144
0.0651181
0.0651041
0.065078
0.0650622
0.0650358
0.0650178
0.064991
0.0649714
0.064944
0.0649231
0.0648954
0.0648732
0.0648452
0.0648218
0.064794
0.0647702
0.0647429
0.064719
0.0646926
0.064669
0.0646439
0.0646218
0.0645984
0.0645778
0.0645563
0.0645373
0.0645183
0.0645013
0.0644848
0.06447
0.0644557
0.064443
0.0644304
0.0644196
0.0644092
0.0643999
0.064391
0.0643831
0.0643755
0.0643691
0.0643631
0.0643581
0.0643535
0.0643501
0.0643472
0.0643454
0.0643447
0.0643451
0.0643465
0.0643491
0.0643531
0.0643583
0.064365
0.0643731
0.0643829
0.0643941
0.0644069
0.0644209
0.0644364
0.0644532
0.0644716
0.0644912
0.0645136
0.0645396
0.0645685
0.0645995
0.064632
0.0646659
0.0647009
0.0647366
0.0647732
0.0648104
0.0648481
0.0648863
0.0649249
0.0649638
0.065003
0.0650422
0.0650817
0.0651211
0.0651606
0.0651999
0.065239
0.0652776
0.0653155
0.0653527
0.065389
0.0654244
0.0654588
0.0654923
0.0655249
0.0655565
0.065587
0.0656165
0.0656449
0.0656722
0.0656985
0.0657236
0.0657477
0.0657709
0.0657931
0.0658144
0.0658348
0.0658544
0.0658734
0.0658917
0.0659095
0.0659268
0.0659434
0.0659592
0.0659742
0.0659882
0.0660011
0.0660128
0.0660231
0.0660322
0.0660401
0.0660467
0.0660521
0.0660564
0.0660595
0.0660614
0.0660625
0.066063
0.0660626
0.0660615
0.0660601
0.0660589
0.0660574
0.0660561
0.0660545
0.0660531
0.0660517
0.0660499
0.0660486
0.0660475
0.0660465
0.0660453
0.0660441
0.0660425
0.0660408
0.0660388
0.0660367
0.0660342
0.0660315
0.0660286
0.0660256
0.0660226
0.0660197
0.0660171
0.066015
0.0660129
0.0660108
0.0660092
0.0660081
0.0660073
0.0660066
0.0660066
0.0660071
0.0660084
0.0660105
0.0660136
0.0660178
0.0660225
0.0660281
0.0660345
0.0660418
0.0660498
0.0660587
0.0660683
0.0660785
0.0660893
0.0661008
0.0661128
0.0661253
0.0661384
0.0661521
0.0661664
0.0661814
0.066197
0.0662135
0.0662307
0.0662489
0.066268
0.0662884
0.0663097
0.0663324
0.0663566
0.0663825
0.0664095
0.0664381
0.066468
0.0664988
0.0665306
0.0665632
0.0665966
0.0666308
0.0666656
0.0667009
0.0667366
0.0667727
0.0668089
0.0668452
0.0668817
0.0669183
0.0669553
0.0669926
0.0670304
0.0670695
0.067109
0.0671493
0.0671903
0.0672323
0.0672748
0.0673183
0.0673621
0.0674062
0.0674496
0.0674933
0.0675363
0.0675796
0.0676224
0.0676652
0.0677068
0.0677487
0.0677871
0.0678336
0.0678634
0.0679196
0.0679365
0.0680144
0.0680053
0.0681254
0.0680883
0.0682607
0.0682138
0.0684181
0.068367
0.0685504
0.0684997
0.0685781
0.0685328
0.0684115
0.0683562
0.0680392
0.0679233
0.0672734
0.06676
0.0648156
0.0617728
0.0499745
0.0364059
0.031216
0.025862
0.0218224
0.0160798
0.0117209
0.008948
0.00956037
0.014947
0.0241313
)
;

boundaryField
{
    inlet
    {
        type            calculated;
        value           uniform 0;
    }
    endWall
    {
        type            calculated;
        value           uniform 0;
    }
    sideWall
    {
        type            empty;
    }
}


// ************************************************************************* //
