/*--------------------------------*- C++ -*----------------------------------*\
| =========                 |                                                 |
| \\      /  F ield         | foam-extend: Open Source CFD                    |
|  \\    /   O peration     | Version:     3.2                                |
|   \\  /    A nd           | Web:         http://www.foam-extend.org         |
|    \\/     M anipulation  | For copyright notice see file Copyright         |
\*---------------------------------------------------------------------------*/
FoamFile
{
    version     2.0;
    format      ascii;
    class       areaScalarField;
    location    "1440";
    object      thetaC2B;
}
// * * * * * * * * * * * * * * * * * * * * * * * * * * * * * * * * * * * * * //

dimensions      [0 0 0 0 0 0 0];

internalField   nonuniform List<scalar> 
550
(
0.0368338
0.0368649
0.0368338
0.0368338
0.0368338
0.0368338
0.0370613
0.0368338
0.0368338
0.0371503
0.0368338
0.0368338
0.0368338
0.0368338
0.0368338
0.0368338
0.0368338
0.0368338
0.0368338
0.0368338
0.0368338
0.0368338
0.0368338
0.0368338
0.0368338
0.0368338
0.0368338
0.0368338
0.0368338
0.0368338
0.0368338
0.0368338
0.0368338
0.0368338
0.0368338
0.0368338
0.0368338
0.0368338
0.0368338
0.0368338
0.0368338
0.0368338
0.0368338
0.0368338
0.0368338
0.0368338
0.0368338
0.0368338
0.0368338
0.0368338
0.0368338
0.0368338
0.0368338
0.0368338
0.0368338
0.0368338
0.0368338
0.0368338
0.0368338
0.0368338
0.0368338
0.0370549
0.0368338
0.0406917
0.0411831
0.0370533
0.0370546
0.0370494
0.043579
0.0370474
0.0370474
0.0370415
0.0482764
0.0507994
0.0370333
0.0370339
0.0370403
0.0370335
0.0370359
0.0368338
0.0716259
0.0370445
0.0370494
0.0370519
0.0370552
0.0370521
0.0370539
0.0370622
0.0370638
0.0370601
0.0368338
0.0370649
0.0370801
0.037085
0.0370947
0.0370974
0.0370943
0.0371008
0.0371115
0.0371122
0.0371114
0.0371146
0.037117
0.037118
0.0371258
0.0371267
0.0371192
0.230252
0.0371319
0.0371224
0.0371278
0.0371301
0.037118
0.0370993
0.0371205
0.0371166
0.0371324
0.0371252
0.0371188
0.0370773
0.0370987
0.0370025
0.036898
0.0370232
0.0371551
0.0373203
0.0374834
0.0376493
0.0378087
0.0379622
0.0381066
0.0382415
0.0383634
0.0384743
0.038562
0.0385943
0.0387019
0.0385976
0.0381841
0.0382356
0.0382421
0.0377941
0.037841
0.0378868
0.0379271
0.0379711
0.0380201
0.0380707
0.0381205
0.0381604
0.0381907
0.0382108
0.0382236
0.0382299
0.038227
0.0382114
0.0381875
0.0381633
0.038148
0.0381355
0.0380939
0.0380296
0.0379388
0.0378245
0.0377112
0.0376219
0.0375793
0.0375519
0.0374857
0.0373352
0.0349095
0.0349383
0.0349652
0.0349919
0.0350164
0.0350407
0.0350648
0.0350866
0.0351082
0.0351286
0.0351477
0.0351666
0.0351842
0.0352005
0.0352168
0.0352318
0.0352468
0.0352606
0.0352734
0.0352862
0.035299
0.0353107
0.0353214
0.0353334
0.0353432
0.0353544
0.0353634
0.0353738
0.0353833
0.0353929
0.0354016
0.0354105
0.0354196
0.0354289
0.0354372
0.0354457
0.0354545
0.0354624
0.0354706
0.0354792
0.0354881
0.0354974
0.0355059
0.0355161
0.0355252
0.0355345
0.0355455
0.0355552
0.035565
0.0355748
0.0355846
0.0355943
0.0356052
0.0356145
0.0356237
0.0356343
0.0356435
0.0356543
0.0356638
0.0356748
0.0356859
0.0356971
0.0357084
0.035721
0.0357324
0.0357437
0.0357564
0.0357677
0.0357803
0.0357917
0.0358044
0.0358172
0.0358286
0.0358415
0.0358544
0.0358673
0.0358802
0.035893
0.0359058
0.0359185
0.0359312
0.0359437
0.0359561
0.0359682
0.03598
0.0359914
0.0360026
0.0360145
0.0360248
0.0360347
0.0360428
0.0360517
0.0360602
0.0360681
0.0360756
0.0360814
0.0360879
0.036094
0.0360986
0.036104
0.0361078
0.0361114
0.0361159
0.0361188
0.0361213
0.0361236
0.0361253
0.0361266
0.0361262
0.0361266
0.0361264
0.0361247
0.0361236
0.0361208
0.0361177
0.0361141
0.0361102
0.0361058
0.036101
0.0360947
0.0360891
0.0360821
0.0360759
0.0360682
0.0360602
0.0360519
0.0360434
0.0360348
0.0360259
0.036017
0.036008
0.035999
0.0359888
0.0359799
0.0359701
0.0359614
0.0359521
0.035944
0.0359354
0.0359272
0.0359205
0.0359134
0.0359081
0.0359024
0.0358975
0.0358942
0.0358908
0.0358892
0.0358874
0.0358873
0.0358871
0.0358876
0.0358887
0.0358913
0.0358936
0.0358966
0.0359001
0.0359036
0.0359082
0.0359134
0.035919
0.0359246
0.0359313
0.0359384
0.0359459
0.0359543
0.0359633
0.0359728
0.0359835
0.0359948
0.036007
0.0360203
0.0360343
0.0360494
0.0360653
0.0360822
0.0360998
0.0361181
0.0361372
0.036157
0.0361772
0.0361981
0.0362192
0.0362407
0.0362628
0.0362848
0.0363067
0.0363292
0.0363518
0.0363743
0.0363973
0.0364202
0.0364432
0.0364664
0.0364899
0.0365133
0.0365369
0.0365608
0.0365842
0.0366083
0.036632
0.0366562
0.0366799
0.036704
0.0367276
0.036751
0.0367741
0.0367969
0.0368194
0.0368419
0.0368641
0.0368855
0.0369066
0.036927
0.0369468
0.0369666
0.0369849
0.0370033
0.0370202
0.0370369
0.0370529
0.0370682
0.0370828
0.0370968
0.03711
0.0371227
0.0371355
0.037147
0.0371587
0.0371691
0.0371797
0.0371888
0.0371984
0.0372074
0.037215
0.0372231
0.0372307
0.0372379
0.0372448
0.0372514
0.0372575
0.0372633
0.0372686
0.0372749
0.0372797
0.037284
0.0372882
0.0372931
0.0372966
0.037301
0.0373038
0.0373076
0.0373111
0.037313
0.0373161
0.0373189
0.0373214
0.0373239
0.037326
0.037328
0.0373296
0.0373312
0.0373327
0.0373341
0.0373354
0.0373366
0.037338
0.0373395
0.037341
0.0373428
0.0373461
0.0373482
0.0373506
0.0373533
0.0373574
0.0373607
0.0373644
0.0373685
0.0373731
0.0373784
0.0373844
0.037391
0.0373996
0.0374075
0.037416
0.0374252
0.0374348
0.0374449
0.0374554
0.0374665
0.037478
0.0374899
0.0375024
0.0375151
0.0375281
0.0375415
0.037555
0.037569
0.0375832
0.0375978
0.0376128
0.0376283
0.0376442
0.0376607
0.0376778
0.0376954
0.037712
0.0377308
0.0377502
0.0377685
0.0377888
0.0378096
0.037829
0.0378505
0.0378705
0.0378924
0.0379129
0.0379354
0.0379564
0.0379792
0.0380005
0.0380235
0.0380451
0.0380684
0.0380903
0.0381141
0.0381366
0.0381595
0.0381845
0.0382084
0.0382326
0.0382574
0.0382825
0.038308
0.0383339
0.0383616
0.0383877
0.0384136
0.0384395
0.038465
0.0384906
0.0385178
0.0385432
0.0385686
0.038594
0.0386208
0.0386462
0.038671
0.0386977
0.0387223
0.038747
0.0387732
0.038798
0.038821
0.0388457
0.038869
0.0388923
0.0389165
0.0389376
0.0389594
0.0389795
0.039009
0.039029
0.0390864
0.0391288
0.0392766
0.0394583
0.0398771
0.0408878
0.0402331
0.0368338
0.0368338
0.0368338
0.0368338
0.0368338
0.0368338
0.0368338
0.0368338
0.0626173
0.0575965
)
;

boundaryField
{
    inlet
    {
        type            calculated;
        value           uniform 0;
    }
    endWall
    {
        type            calculated;
        value           uniform 0;
    }
    sideWall
    {
        type            empty;
    }
}


// ************************************************************************* //
