/*--------------------------------*- C++ -*----------------------------------*\
| =========                 |                                                 |
| \\      /  F ield         | foam-extend: Open Source CFD                    |
|  \\    /   O peration     | Version:     3.2                                |
|   \\  /    A nd           | Web:         http://www.foam-extend.org         |
|    \\/     M anipulation  | For copyright notice see file Copyright         |
\*---------------------------------------------------------------------------*/
FoamFile
{
    version     2.0;
    format      ascii;
    class       areaScalarField;
    location    "1440";
    object      totH;
}
// * * * * * * * * * * * * * * * * * * * * * * * * * * * * * * * * * * * * * //

dimensions      [0 0 0 0 0 0 0];

internalField   nonuniform List<scalar> 
550
(
0
5e-11
-5e-11
0
-5e-10
0
5e-10
0
0
5e-10
-4.2975e-06
-8.595e-06
-4.298e-06
-3.452e-06
-6.904e-06
-3.4525e-06
-2.4045e-06
-6.93e-06
-8.4685e-06
-7.4375e-06
-5.1685e-06
-3.01e-06
-2.672e-06
-1.3365e-06
-1.0842e-19
0
-8.725e-07
-1.741e-06
-8.75e-07
0
0
-6.8e-07
-2e-06
-2.6e-06
-2.495e-06
-1.825e-06
-1.165e-06
-1.67e-06
-1.655e-06
-1.07e-06
-1.545e-06
-1.53e-06
-9.9e-07
-1.43e-06
-1.875e-06
-1.825e-06
-1.79e-06
-1.75e-06
-1.71e-06
-1.27e-06
-4.25e-07
-3.95e-07
-7.9e-07
-7.85e-07
-7.7e-07
-7.55e-07
-7.35e-07
-1.06022e-06
-3.49194e-08
-1.4095e-06
-3.3722e-08
9.42835e-07
-9.82003e-08
-8.97439e-07
-4.94933e-07
2.58809e-07
1.82198e-06
1.6237e-06
-2.67391e-07
6.4551e-08
3.9087e-06
4.24421e-06
-2.20873e-06
-2.69759e-06
5.57877e-07
4.00042e-06
5.70627e-06
4.98415e-06
4.2624e-06
-3.78168e-06
-3.71516e-06
9.51363e-06
1.34739e-05
1.07514e-05
1.03727e-05
7.68319e-06
2.1515e-06
3.76534e-06
1.01995e-05
9.33197e-06
-6.13838e-07
4.15336e-06
1.8091e-05
1.23771e-05
7.47541e-06
8.59679e-06
2.33583e-06
6.23869e-06
1.4837e-05
9.19794e-06
1.34329e-06
2.10601e-06
5.81529e-06
1.08303e-05
1.92954e-05
1.69326e-05
1.58352e-07
-7.96517e-07
1.16909e-05
9.633e-06
1.28194e-05
1.53512e-05
5.88359e-07
2.74425e-06
3.26637e-05
4.57349e-05
5.61633e-05
6.55578e-05
6.45359e-05
7.27947e-05
0.000111178
0.000124836
0.000217409
0.000439873
0.000638001
0.000822217
0.000996157
0.00116094
0.00131545
0.001459
0.00159064
0.00170936
0.00181444
0.00190502
0.00197946
0.00204396
0.00208489
0.00209722
0.0021487
0.0022271
0.00228103
0.00237441
0.00250479
0.0026215
0.00273129
0.00283699
0.00293844
0.00303422
0.00312358
0.00320576
0.00328185
0.00335075
0.00341655
0.00347374
0.00353209
0.00357797
0.00363258
0.00366918
0.00370893
0.0037229
0.00372667
0.0037121
0.00368386
0.00364739
0.00359955
0.00354127
0.0034581
0.00333081
0.00313797
0.0028172
0.00256093
0.00256969
0.00256995
0.00255733
0.00255068
0.00254392
0.00254401
0.00254569
0.00255358
0.00256303
0.00257776
0.00259376
0.00261406
0.00263526
0.0026601
0.00268549
0.00271386
0.00274251
0.00277364
0.00280511
0.00283868
0.00287249
0.0029083
0.00294503
0.00298294
0.0030218
0.00306129
0.00310139
0.00314183
0.00318257
0.00322356
0.00326481
0.00330621
0.00334755
0.00338891
0.00343032
0.00347166
0.00351298
0.00355437
0.00359573
0.00363699
0.00367804
0.00371899
0.00375971
0.00380017
0.00384051
0.00388053
0.00392014
0.00395951
0.0039986
0.00403744
0.0040761
0.00411435
0.00415242
0.00419033
0.00422833
0.00426597
0.00430383
0.00434129
0.00437907
0.00441626
0.00445362
0.00449038
0.00452718
0.00456325
0.00459943
0.00463499
0.00467046
0.00470552
0.00474056
0.00477534
0.00481009
0.00484459
0.00487941
0.00491366
0.0049481
0.0049819
0.00501594
0.00504918
0.00508273
0.00511529
0.00514816
0.0051799
0.00521199
0.00524278
0.00527397
0.00530373
0.00533378
0.00536213
0.00539068
0.00541779
0.0054454
0.00547132
0.00549758
0.00552206
0.005547
0.00557021
0.00559383
0.00561563
0.00563798
0.00565829
0.00567924
0.00569791
0.00571669
0.00573342
0.0057499
0.0057645
0.00577814
0.00579087
0.00580173
0.00581295
0.00582175
0.00583148
0.0058385
0.00584737
0.00585366
0.00586144
0.00586685
0.00587337
0.00587787
0.00588325
0.00588695
0.0058914
0.00589416
0.00589765
0.00589986
0.00590254
0.00590421
0.00590625
0.00590746
0.00590904
0.0059097
0.00591081
0.00591139
0.00591221
0.00591269
0.0059135
0.00591389
0.00591472
0.00591539
0.00591666
0.00591793
0.00591972
0.00592171
0.00592447
0.00592748
0.00593135
0.00593566
0.00594068
0.00594632
0.00595257
0.00595946
0.00596717
0.00597534
0.00598425
0.0059937
0.00600373
0.00601446
0.00602597
0.00603797
0.00605074
0.00606405
0.00607828
0.00609321
0.00610886
0.00612546
0.00614295
0.00616121
0.00618056
0.00620087
0.00622213
0.00624455
0.00626799
0.00629266
0.00631854
0.00634552
0.00637383
0.00640341
0.00643425
0.00646664
0.00650053
0.00653629
0.0065745
0.0066145
0.0066561
0.00669898
0.00674293
0.00678804
0.00683409
0.00688097
0.00692882
0.00697747
0.00702681
0.00707699
0.00712774
0.00717926
0.00723139
0.00728396
0.00733717
0.00739088
0.00744491
0.00749937
0.00755412
0.00760897
0.00766406
0.00771919
0.0077745
0.00782983
0.00788508
0.00794034
0.00799542
0.00805023
0.00810491
0.00815933
0.0082134
0.00826724
0.00832065
0.00837384
0.00842672
0.00847922
0.00853146
0.00858336
0.00863485
0.00868616
0.00873717
0.00878781
0.00883821
0.0088882
0.00893796
0.0089874
0.0090364
0.00908521
0.00913372
0.00918172
0.00922955
0.00927713
0.00932421
0.00937104
0.00941744
0.00946355
0.00950928
0.00955461
0.00959974
0.00964443
0.00968857
0.00973256
0.00977631
0.00981958
0.0098626
0.00990516
0.00994754
0.00998962
0.0100311
0.0100725
0.0101137
0.0101544
0.0101949
0.010235
0.0102747
0.0103142
0.0103534
0.0103924
0.0104312
0.0104697
0.0105082
0.0105465
0.0105847
0.010623
0.0106613
0.0106995
0.0107377
0.0107758
0.0108141
0.0108526
0.010891
0.0109296
0.0109684
0.0110074
0.0110467
0.0110863
0.0111261
0.0111663
0.0112065
0.0112469
0.0112875
0.0113282
0.0113692
0.0114104
0.0114516
0.0114931
0.0115348
0.0115765
0.0116185
0.0116605
0.0117027
0.0117452
0.0117878
0.0118308
0.011874
0.0119174
0.0119612
0.0120054
0.0120498
0.0120946
0.0121396
0.012185
0.0122309
0.0122771
0.0123236
0.0123705
0.0124176
0.012465
0.0125128
0.0125607
0.0126091
0.0126576
0.0127066
0.0127559
0.0128053
0.0128552
0.0129053
0.0129557
0.0130066
0.0130578
0.0131093
0.0131612
0.0132135
0.0132665
0.0133198
0.0133733
0.0134274
0.013482
0.0135368
0.0135922
0.013648
0.0137038
0.0137598
0.013816
0.0138727
0.0139299
0.0139875
0.0140455
0.0141039
0.0141627
0.0142221
0.0142821
0.0143418
0.0144036
0.0144639
0.0145294
0.0145892
0.0146629
0.0147201
0.0148027
0.0148523
0.0149287
0.0149547
0.0149991
0.0149768
0.0149503
0.0148481
0.0146987
0.0144819
0.0141625
0.0137302
0.0130855
0.0121266
0.0105943
0.00800072
0.0031124
-5e-08
3.46945e-18
0
-5e-08
6.93889e-18
5e-08
3.46945e-18
0
5e-08
3.46945e-18
)
;

boundaryField
{
    inlet
    {
        type            calculated;
        value           uniform 0;
    }
    endWall
    {
        type            calculated;
        value           uniform 0;
    }
    sideWall
    {
        type            empty;
    }
}


// ************************************************************************* //
