/*--------------------------------*- C++ -*----------------------------------*\
| =========                 |                                                 |
| \\      /  F ield         | foam-extend: Open Source CFD                    |
|  \\    /   O peration     | Version:     3.2                                |
|   \\  /    A nd           | Web:         http://www.foam-extend.org         |
|    \\/     M anipulation  | For copyright notice see file Copyright         |
\*---------------------------------------------------------------------------*/
FoamFile
{
    version     2.0;
    format      ascii;
    class       areaScalarField;
    location    "910";
    object      totH;
}
// * * * * * * * * * * * * * * * * * * * * * * * * * * * * * * * * * * * * * //

dimensions      [0 0 0 0 0 0 0];

internalField   nonuniform List<scalar> 
550
(
0
5e-11
-5e-11
0
-5e-10
0
5e-10
0
0
5e-10
0
5.42101e-20
-5e-10
0
1.0842e-19
-5e-10
-1.0842e-19
5e-10
1.0842e-19
2.1684e-19
5e-10
0
1.0842e-19
-5e-10
-1.0842e-19
0
-5e-10
1e-09
-5e-09
0
0
-5e-09
2.1684e-19
4.33681e-19
5e-09
2.1684e-19
0
5e-09
2.1684e-19
-5e-09
2.1684e-19
2.1684e-19
-5e-09
2.1684e-19
4.33681e-19
5e-09
2.1684e-19
2.1684e-19
5e-09
2.1684e-19
-5e-09
-2.1684e-19
2.1684e-19
-5e-09
4.33681e-19
-4.33681e-19
5e-09
0
0
5e-09
4.33681e-19
-5e-09
0
0
-5e-09
8.67362e-19
0
5e-09
0
4.33681e-19
5e-09
-4.33681e-19
-5e-09
4.33681e-19
4.33681e-19
-5e-09
0
0
5e-09
0
4.33681e-19
5e-09
0
-5e-09
-4.33681e-19
0
-5e-09
4.33681e-19
4.33681e-19
5e-09
4.33681e-19
0
5e-09
4.33681e-19
-5e-09
0
4.33681e-19
-5e-09
8.67362e-19
4.33681e-19
5e-09
0
-4.33681e-19
5e-09
0
-5e-09
0
-8.67362e-19
-5e-09
-3.87895e-07
-1.2328e-06
-1.15458e-06
6.48697e-07
1.66064e-06
-1.09104e-06
-2.61188e-06
1.70911e-06
-5.47764e-07
-3.50752e-07
4.05659e-06
6.40026e-07
-1.14074e-06
2.14779e-06
5.61218e-06
-7.68571e-07
-4.20095e-06
5.8502e-06
1.70789e-05
1.54058e-05
2.84842e-06
-4.59128e-06
-2.14393e-06
5.97121e-06
7.88619e-06
7.66889e-06
1.11581e-05
9.4621e-06
9.70957e-07
-5.53801e-06
2.11627e-07
1.85065e-05
1.8626e-05
8.71421e-06
1.1418e-05
7.47976e-06
3.49253e-07
-1.49331e-06
2.39783e-06
7.68767e-06
7.4715e-06
4.7984e-06
-1.50817e-06
1.43706e-06
1.4698e-05
8.74079e-06
-3.06156e-06
3.15466e-06
7.31136e-06
3.15745e-07
-1.05852e-07
7.20702e-06
1.20754e-05
1.35224e-05
8.03831e-06
3.67027e-06
1.01884e-05
7.6092e-06
-2.1694e-06
3.39627e-06
1.32744e-05
8.74806e-06
2.25163e-06
3.03808e-06
4.61605e-06
7.31916e-06
9.98771e-06
8.72398e-06
7.21798e-07
-2.0112e-07
9.26612e-06
1.37414e-05
1.79801e-05
1.82991e-05
1.22233e-05
7.96462e-06
1.00833e-06
3.37653e-06
1.36259e-05
8.79532e-06
2.20298e-06
5.56635e-06
6.8476e-06
1.60809e-05
3.2427e-05
3.37295e-05
2.22862e-05
1.47524e-05
1.4637e-05
2.46597e-05
3.27755e-05
2.84414e-05
3.71278e-05
5.88608e-05
7.90618e-05
0.000100208
0.000118686
0.00013459
0.000143089
0.000153813
0.00016562
0.000173066
0.000185401
0.000196538
0.000205107
0.000215695
0.000270828
0.00037515
0.000473882
0.00056487
0.000658388
0.000750019
0.00084312
0.000935168
0.00102716
0.0011173
0.0012061
0.00129242
0.00137624
0.00145704
0.00153421
0.00160782
0.00167702
0.00174204
0.00180248
0.00185818
0.00191015
0.00195668
0.00200251
0.0020398
0.00206991
0.00209867
0.0021339
0.00214995
0.00215461
0.00217371
0.00219648
0.00223614
0.00225505
0.00225737
0.00227414
0.00228888
0.00230209
0.00231223
0.00231488
0.00232993
0.00235416
0.00237576
0.00239159
0.00240065
0.00240886
0.00242042
0.00242243
0.00241344
0.00240132
0.00239117
0.00238442
0.00237798
0.00237473
0.00237121
0.00236688
0.00236732
0.00237144
0.00237744
0.00238851
0.00240249
0.00241744
0.00243514
0.00245741
0.00248106
0.00250406
0.00252907
0.0025579
0.00259012
0.00262416
0.00265832
0.00269261
0.0027282
0.00276458
0.00280066
0.00283588
0.00287064
0.0029059
0.0029414
0.00297614
0.00300984
0.00304282
0.00307553
0.0031088
0.00314255
0.00317659
0.00321043
0.00324362
0.00327602
0.00330761
0.00333848
0.00336891
0.00339881
0.00342813
0.00345708
0.00348549
0.00351358
0.00354135
0.00356869
0.00359586
0.00362277
0.00364941
0.00367612
0.00370298
0.00373002
0.00375761
0.00378558
0.00381417
0.00384328
0.00387286
0.00390308
0.00393391
0.00396524
0.00399726
0.00402989
0.00406305
0.00409696
0.00413147
0.00416694
0.00420355
0.00424116
0.0042798
0.00431928
0.00435939
0.00440027
0.00444173
0.00448365
0.00452614
0.0045688
0.00461167
0.00465449
0.00469695
0.00473895
0.00478019
0.0048203
0.00485901
0.0048962
0.00493182
0.00496548
0.00499657
0.00502529
0.00505146
0.00507488
0.00509612
0.00511522
0.00513202
0.00514726
0.00516085
0.00517243
0.00518289
0.00519276
0.00520232
0.00521251
0.0052245
0.00523847
0.00525323
0.00526745
0.00528096
0.00529396
0.00530667
0.00531956
0.00533254
0.005346
0.00536014
0.00537507
0.00539116
0.00540863
0.00542765
0.00544829
0.00547043
0.00549369
0.00551778
0.00554222
0.00556694
0.0055916
0.0056159
0.00563999
0.0056638
0.00568713
0.00571012
0.00573274
0.00575495
0.00577699
0.00579879
0.00582058
0.00584233
0.00586401
0.0058858
0.00590761
0.00592935
0.00595122
0.00597313
0.00599495
0.00601684
0.00603858
0.0060603
0.00608189
0.00610322
0.00612451
0.00614573
0.00616665
0.00618751
0.00620824
0.00622873
0.00624918
0.00626935
0.00628951
0.00630959
0.00632952
0.00634951
0.00636942
0.00638916
0.00640901
0.00642887
0.00644861
0.00646842
0.00648811
0.00650796
0.00652787
0.0065477
0.00656768
0.00658773
0.00660776
0.00662802
0.0066484
0.00666876
0.00668931
0.00670989
0.00673066
0.00675162
0.00677272
0.00679407
0.00681572
0.00683757
0.00685977
0.00688227
0.00690497
0.00692811
0.00695146
0.00697519
0.00699929
0.00702354
0.00704806
0.00707288
0.00709785
0.0071231
0.00714853
0.00717405
0.00719987
0.00722578
0.00725198
0.00727848
0.00730511
0.00733218
0.00735969
0.00738761
0.00741632
0.00744583
0.00747608
0.00750746
0.00754002
0.00757412
0.00761013
0.00764816
0.00768821
0.00772987
0.00777284
0.00781719
0.00786261
0.00790892
0.00795619
0.00800402
0.00805249
0.00810139
0.00815051
0.00819999
0.00824963
0.0082993
0.00834913
0.00839896
0.00844864
0.00849839
0.00854796
0.00859744
0.00864669
0.00869563
0.00874441
0.0087929
0.00884109
0.0088891
0.00893685
0.00898428
0.00903161
0.0090787
0.00912575
0.00917267
0.00921953
0.00926657
0.00931379
0.00936105
0.00940872
0.0094569
0.00950507
0.00955467
0.00960374
0.00965632
0.00970572
0.00976403
0.00981303
0.00987841
0.00992404
0.0099888
0.0100219
0.0100716
0.0100775
0.010089
0.0100473
0.00998571
0.0098704
0.00969062
0.00944447
0.0090553
0.0084541
0.00746252
0.00568901
0.00221874
-5e-08
3.46945e-18
0
-5e-08
6.93889e-18
5e-08
3.46945e-18
0
5e-08
3.46945e-18
)
;

boundaryField
{
    inlet
    {
        type            calculated;
        value           uniform 0;
    }
    endWall
    {
        type            calculated;
        value           uniform 0;
    }
    sideWall
    {
        type            empty;
    }
}


// ************************************************************************* //
