/*--------------------------------*- C++ -*----------------------------------*\
| =========                 |                                                 |
| \\      /  F ield         | foam-extend: Open Source CFD                    |
|  \\    /   O peration     | Version:     3.2                                |
|   \\  /    A nd           | Web:         http://www.foam-extend.org         |
|    \\/     M anipulation  | For copyright notice see file Copyright         |
\*---------------------------------------------------------------------------*/
FoamFile
{
    version     2.0;
    format      ascii;
    class       volVectorField;
    location    "1440";
    object      U;
}
// * * * * * * * * * * * * * * * * * * * * * * * * * * * * * * * * * * * * * //

dimensions      [0 1 -1 0 0 0 0];

internalField   nonuniform List<vector> 
33000
(
(0.377038 0 0.000412443)
(0.372816 5.2107e-29 0.000423046)
(0.366407 -8.73623e-29 0.000573034)
(0.359412 -4.72586e-29 0.000606605)
(0.352343 -1.46508e-29 0.000671698)
(0.345168 1.21243e-28 0.000639858)
(0.338492 8.92529e-29 0.000635978)
(0.331887 6.47397e-34 0.000574362)
(0.325782 0 0.000569701)
(0.31976 -6.1132e-29 0.000580371)
(0.313938 -2.02079e-28 0.000451213)
(0.308311 0 0.000492648)
(0.303324 9.16449e-30 0.000562242)
(0.298206 0 0.000357185)
(0.293257 -2.55414e-34 0.000376083)
(0.288773 0 0.000361337)
(0.28432 0 0.000193532)
(0.279952 0 0.000137819)
(0.275927 2.10734e-29 0.000123971)
(0.27205 0 8.41075e-05)
(0.268366 1.87062e-31 6.87335e-05)
(0.264806 3.71722e-29 1.17731e-05)
(0.261346 2.20117e-29 -2.68735e-05)
(0.258106 0 -3.12495e-05)
(0.255014 3.89731e-29 -8.24083e-05)
(0.252063 2.59249e-29 -0.000112889)
(0.249268 -3.93958e-29 -0.000158069)
(0.246641 0 -0.000161706)
(0.244209 2.42492e-30 -0.000151572)
(0.241883 2.63318e-29 -0.00017634)
(0.239669 1.60168e-29 -0.000185862)
(0.23756 -2.65243e-29 -0.000208478)
(0.235554 0 -0.000217152)
(0.233687 -6.84505e-30 -0.000213979)
(0.231923 0 -0.000221799)
(0.230275 0 -0.000219852)
(0.228707 0 -0.000239541)
(0.227191 5.5739e-29 -0.000258432)
(0.225818 0 -0.000248267)
(0.224502 0 -0.000265534)
(0.223225 0 -0.000283896)
(0.222088 1.23549e-29 -0.000279854)
(0.220995 0 -0.000294058)
(0.219931 6.20205e-29 -0.000312088)
(0.21896 1.9458e-29 -0.000313794)
(0.218045 0 -0.000322105)
(0.217182 -2.37876e-38 -0.000330718)
(0.216367 2.78936e-29 -0.000339874)
(0.215595 0 -0.000349777)
(0.214891 -2.43132e-29 -0.000349938)
(0.214234 0 -0.000356205)
(0.213567 4.06867e-29 -0.000374103)
(0.212954 0 -0.000376132)
(0.212382 0 -0.00038059)
(0.211834 4.0897e-29 -0.000386136)
(0.211325 0 -0.000387808)
(0.210828 0 -0.000395434)
(0.210356 1.35696e-28 -0.000400479)
(0.210001 -8.20725e-29 -0.00037919)
(0.209471 0 -0.000443437)
(0.20918 -1.52618e-27 -0.000363442)
(0.208536 -2.68015e-27 -0.000446172)
(0.208355 6.82913e-28 -0.0002691)
(0.208173 4.37965e-27 -0.00033581)
(0.207998 2.4642e-27 -0.000439326)
(0.20713 -5.24625e-27 -0.000656286)
(0.20665 -5.70622e-27 -0.000365965)
(0.206615 0 -0.000311817)
(0.20662 -1.11959e-27 -0.000438309)
(0.205657 4.07836e-27 -0.000758346)
(0.204932 0 -0.000256907)
(0.205269 1.25059e-30 0.00013023)
(0.206199 0 0.000133312)
(0.206198 0 -0.000567148)
(0.205143 0 -0.00088849)
(0.204257 -4.49052e-30 -0.000727051)
(0.203876 0 -0.000496244)
(0.203115 -9.31306e-27 -0.000423401)
(0.203298 0 0.000117465)
(0.204245 5.49664e-26 9.38878e-05)
(0.20489 0 -0.000445318)
(0.203706 0 -0.00117567)
(0.202516 -9.93846e-27 -0.000870397)
(0.202079 6.06962e-27 -0.000574675)
(0.202056 -3.02099e-30 -0.000362737)
(0.20225 0 -0.000405095)
(0.202155 -7.43409e-27 -0.000537231)
(0.201625 8.96003e-27 -0.000589368)
(0.201416 0 -0.000224146)
(0.201734 0 -0.000290455)
(0.20163 -9.66374e-27 -0.000590947)
(0.201384 0 -0.000624268)
(0.201326 -3.16321e-27 -0.000548999)
(0.20091 0 -0.00056522)
(0.200832 0 -0.000284763)
(0.201043 -1.58209e-26 -0.000350059)
(0.200967 0 -0.000545646)
(0.200674 -4.29063e-27 -0.000688663)
(0.20052 -5.88691e-27 -0.00054774)
(0.200329 0 -0.000551287)
(0.200157 0 -0.000528271)
(0.200032 0 -0.000600871)
(0.19995 -2.93632e-28 -0.000482275)
(0.199677 0 -0.000449999)
(0.199277 7.12356e-27 -0.00019764)
(0.199333 -5.20771e-27 0.000143893)
(0.20048 0 0.000382411)
(0.201275 1.54827e-26 -0.000333125)
(0.200452 5.10477e-27 -0.000984815)
(0.199061 0 -0.00092483)
(0.199108 -7.50433e-28 -0.000296254)
(0.199199 6.13468e-27 -0.000523659)
(0.198844 0 -0.000488125)
(0.198504 0 -0.000432543)
(0.199159 1.12207e-28 -0.000154263)
(0.19867 -9.33156e-28 -0.000602564)
(0.198815 0 -0.000103427)
(0.198447 0 -0.000565415)
(0.198188 2.7921e-33 -0.000227598)
(0.197414 7.06437e-29 -0.000430439)
(0.198296 0 0.000378159)
(0.196462 -4.83096e-28 -0.000552263)
(0.195926 -6.00835e-27 0.00174229)
(0.199208 -8.055e-28 0.00161168)
(0.199643 0 0.00150417)
(0.200539 0 0.00148813)
(0.200942 2.37839e-28 0.00137584)
(0.201396 9.36707e-29 0.00134601)
(0.2017 0 0.00118385)
(0.201971 0 0.00113714)
(0.20216 0 0.000944561)
(0.202293 0 0.000881131)
(0.202335 0 0.000674177)
(0.202364 8.02666e-29 0.000585979)
(0.202137 0 0.000325291)
(0.202183 0 0.000385175)
(0.201744 1.10715e-28 -6.85598e-05)
(0.200537 0 -0.00017545)
(0.200531 8.75481e-28 0.000488284)
(0.20121 -1.07565e-28 0.000343938)
(0.200087 0 0.000177408)
(0.200259 0 0.000993114)
(0.201179 0 0.000824815)
(0.20122 0 0.000848404)
(0.201381 0 0.000737454)
(0.201468 -2.3419e-29 0.000762758)
(0.201573 0 0.000656756)
(0.201578 0 0.000655229)
(0.201607 0 0.00053073)
(0.201502 -1.11407e-29 0.000513734)
(0.201483 0 0.000405834)
(0.201253 0 0.00035169)
(0.201396 -3.12764e-29 0.000332939)
(0.200908 5.44708e-29 0.000183547)
(0.201257 1.52015e-28 0.000338804)
(0.200495 3.37681e-29 -5.71504e-05)
(0.201104 3.35511e-28 0.000466577)
(0.200303 2.20413e-31 -0.000388492)
(0.200822 -1.73759e-27 0.000476196)
(0.200146 3.60306e-27 -0.000854694)
(0.200073 -1.84985e-28 0.000255269)
(0.199588 3.98114e-27 -0.0012165)
(0.199097 0 -3.38722e-05)
(0.198766 0 -0.0014198)
(0.198313 -7.5212e-28 -0.000300133)
(0.198086 1.71006e-31 -0.00169469)
(0.197938 9.61043e-28 -0.000750077)
(0.197031 8.82704e-27 -0.002618)
(0.19704 1.62386e-27 -0.00180704)
(0.192208 2.25675e-26 -0.00431583)
(0.187393 -4.16953e-27 -0.00102833)
(0.191679 1.13134e-28 -0.00032082)
(0.190944 0 -0.000857586)
(0.19125 0 -0.000250933)
(0.191153 -6.12207e-28 -0.000712695)
(0.190987 -8.19423e-29 -0.000206865)
(0.191016 0 -0.000576233)
(0.190795 1.34627e-28 -0.00015877)
(0.19086 0 -0.000456712)
(0.190659 0 -0.000117201)
(0.190735 -2.23495e-32 -0.000356665)
(0.190568 0 -8.35525e-05)
(0.190649 6.38775e-29 -0.000275064)
(0.19051 0 -5.82565e-05)
(0.190594 4.94978e-29 -0.000206054)
(0.190478 3.25564e-30 -4.11407e-05)
(0.190556 -3.67177e-29 -0.000150099)
(0.190464 0 -2.69044e-05)
(0.190526 0 -0.000103863)
(0.190469 0 -1.63461e-05)
(0.190517 -4.09383e-30 -6.35125e-05)
(0.190484 -5.54763e-31 -1.11168e-05)
(0.190521 -3.61728e-31 -2.60968e-05)
(0.190527 0 9.64374e-06)
(0.190553 -2.16526e-31 -2.18719e-06)
(0.190577 0 3.01031e-05)
(0.190592 0 1.07476e-05)
(0.190622 0 4.3445e-05)
(0.190637 0 2.09595e-05)
(0.190657 -1.78784e-34 5.15475e-05)
(0.190672 2.03842e-30 2.78176e-05)
(0.190689 -2.08538e-30 5.7766e-05)
(0.190704 0 3.23196e-05)
(0.190714 0 5.82512e-05)
(0.190725 4.61119e-30 3.32218e-05)
(0.190735 1.95721e-30 5.98767e-05)
(0.190742 2.44631e-30 3.29799e-05)
(0.190748 2.03489e-30 6.02853e-05)
(0.190756 -2.3647e-30 3.42475e-05)
(0.190764 -1.95718e-30 6.01198e-05)
(0.190772 0 3.28889e-05)
(0.190776 0 5.59779e-05)
(0.190784 -1.14773e-30 3.08319e-05)
(0.190788 3.06234e-30 5.18433e-05)
(0.190791 -2.3455e-30 2.59202e-05)
(0.190797 0 4.95088e-05)
(0.1908 1.2869e-30 2.01315e-05)
(0.190798 0 4.1615e-05)
(0.1908 0 1.47808e-05)
(0.1908 1.98538e-34 3.59282e-05)
(0.1908 1.15163e-30 9.29021e-06)
(0.190805 -8.55682e-31 3.2125e-05)
(0.1908 0 2.18437e-06)
(0.190805 0 2.76988e-05)
(0.190797 3.72042e-32 -1.28135e-06)
(0.190817 1.06846e-30 2.75041e-05)
(0.190801 9.23754e-32 -8.1992e-06)
(0.19083 -1.51591e-30 3.08909e-05)
(0.19081 0 -1.49456e-05)
(0.190847 -3.95288e-30 3.55407e-05)
(0.190827 -2.36796e-34 -2.49109e-05)
(0.190859 -4.94785e-30 3.78035e-05)
(0.190843 -2.98008e-30 -3.55901e-05)
(0.190871 -5.79937e-30 3.78552e-05)
(0.190854 -7.02794e-30 -4.85839e-05)
(0.190877 1.37354e-29 3.84002e-05)
(0.190866 0 -5.97035e-05)
(0.190879 1.13346e-29 3.60694e-05)
(0.190871 0 -6.7424e-05)
(0.19088 0 3.50348e-05)
(0.190875 -8.69739e-30 -7.22723e-05)
(0.190885 8.43316e-30 3.41656e-05)
(0.190872 0 -7.71411e-05)
(0.190896 9.21007e-30 3.87476e-05)
(0.190877 0 -8.66329e-05)
(0.190904 1.50036e-33 4.15566e-05)
(0.190879 0 -9.82358e-05)
(0.19091 0 4.47135e-05)
(0.19088 0 -0.000112652)
(0.190917 -2.57421e-29 4.83992e-05)
(0.19088 0 -0.00013017)
(0.190923 0 5.22568e-05)
(0.19088 0 -0.000150906)
(0.190927 0 5.65023e-05)
(0.190878 1.48452e-28 -0.000174261)
(0.190928 0 6.12935e-05)
(0.190876 -8.40297e-29 -0.000199837)
(0.190924 2.10775e-29 6.39754e-05)
(0.190865 0 -0.000229735)
(0.190907 -4.7119e-29 6.52211e-05)
(0.190844 -1.0355e-28 -0.000256581)
(0.190892 -5.23012e-29 7.11033e-05)
(0.190826 0 -0.000286636)
(0.190871 2.88267e-29 7.45767e-05)
(0.190798 -2.52875e-28 -0.00031811)
(0.19084 0 7.955e-05)
(0.190766 -2.75496e-28 -0.000348695)
(0.190807 0 8.37868e-05)
(0.190725 -3.82946e-33 -0.000381479)
(0.190768 -1.12904e-28 9.01958e-05)
(0.190681 -3.26544e-28 -0.000417531)
(0.190721 0 9.70583e-05)
(0.19064 3.56072e-28 -0.000457131)
(0.190655 0 9.49428e-05)
(0.19059 0 -0.000494433)
(0.190572 -4.63083e-29 8.62008e-05)
(0.190536 3.94323e-28 -0.000527381)
(0.190462 -1.88343e-28 6.4177e-05)
(0.190466 1.17604e-27 -0.000545702)
(0.190335 0 3.05693e-05)
(0.190383 0 -0.000545206)
(0.190207 0 -1.34989e-05)
(0.190283 3.33239e-28 -0.000531548)
(0.19008 -4.69857e-30 -6.30027e-05)
(0.190165 0 -0.000504919)
(0.189976 -3.21852e-29 -0.000106532)
(0.190046 2.43622e-28 -0.000484381)
(0.189873 1.10104e-28 -0.000146394)
(0.189925 0 -0.00046966)
(0.189763 1.89143e-28 -0.00018206)
(0.189802 -1.77509e-28 -0.000455907)
(0.189652 0 -0.000213252)
(0.189677 -1.51051e-28 -0.000445541)
(0.189538 0 -0.000241434)
(0.189549 0 -0.000436839)
(0.189423 0 -0.000264321)
(0.189425 0 -0.000429349)
(0.189308 0 -0.000284143)
(0.189304 0 -0.000423158)
(0.189197 0 -0.0002995)
(0.189186 1.56951e-28 -0.00041768)
(0.189084 0 -0.000312736)
(0.189066 6.65058e-29 -0.000412597)
(0.188977 -5.92845e-29 -0.000321905)
(0.188956 5.72884e-29 -0.000407454)
(0.188875 0 -0.000328661)
(0.188852 0 -0.000402077)
(0.188779 4.26956e-29 -0.000333243)
(0.188753 4.28037e-29 -0.000396843)
(0.188691 0 -0.000334545)
(0.188668 0 -0.000388345)
(0.188614 0 -0.000333841)
(0.188596 -2.94847e-29 -0.000377287)
(0.188547 2.556e-29 -0.000332396)
(0.188531 0 -0.000363791)
(0.188497 -2.20907e-29 -0.000325199)
(0.188482 1.71616e-29 -0.000349612)
(0.188457 -3.89407e-29 -0.000316169)
(0.188448 3.98492e-35 -0.000334854)
(0.188432 0 -0.000305731)
(0.188426 0 -0.000320971)
(0.188412 -1.51401e-29 -0.000294835)
(0.188412 -7.93678e-30 -0.000305318)
(0.188405 0 -0.000283596)
(0.188404 -6.76971e-30 -0.000292416)
(0.1884 -5.87515e-30 -0.000272204)
(0.1884 0 -0.000278826)
(0.1884 -5.00994e-35 -0.000260074)
(0.188405 -7.5941e-35 -0.000263067)
(0.188407 -4.32064e-30 -0.000247953)
(0.188412 0 -0.000249363)
(0.188416 0 -0.000234379)
(0.188426 0 -0.000233159)
(0.188432 -3.92843e-30 -0.000219724)
(0.188442 1.3751e-30 -0.000217547)
(0.188456 0 -0.000202839)
(0.188471 -1.90735e-30 -0.00019956)
(0.188489 0 -0.000185311)
(0.188508 8.61844e-35 -0.000179179)
(0.188533 -3.26768e-30 -0.000166385)
(0.188557 3.13456e-30 -0.000158568)
(0.188588 0 -0.000145095)
(0.188619 0 -0.000136382)
(0.188656 -2.09674e-30 -0.000122673)
(0.188695 3.87205e-30 -0.000112316)
(0.188738 2.21817e-30 -9.85637e-05)
(0.188781 -2.12997e-30 -8.72618e-05)
(0.188829 1.21396e-30 -7.2946e-05)
(0.188877 -1.25326e-30 -5.97273e-05)
(0.188931 0 -4.3583e-05)
(0.188982 -6.90531e-31 -3.03725e-05)
(0.189052 5.26996e-36 -7.45122e-06)
(0.189136 0 1.47332e-05)
(0.189221 0 3.22327e-05)
(0.189306 0 4.78149e-05)
(0.18939 1.23362e-35 6.0104e-05)
(0.189474 4.79175e-30 7.28608e-05)
(0.189559 -1.97312e-30 8.2649e-05)
(0.189641 0 9.3122e-05)
(0.189725 0 0.000102385)
(0.189807 0 0.000111522)
(0.189889 -1.9751e-30 0.000119485)
(0.18997 0 0.000128295)
(0.190053 -9.00268e-35 0.000135189)
(0.190133 -4.05786e-30 0.000142848)
(0.190215 3.76991e-30 0.000149404)
(0.190295 3.75706e-30 0.000155958)
(0.190376 -3.47555e-30 0.00016152)
(0.190456 0 0.000167577)
(0.190536 -3.24991e-30 0.000172355)
(0.190615 0 0.00017688)
(0.190693 2.832e-30 0.000180219)
(0.19077 5.69782e-30 0.000183765)
(0.190845 0 0.000185385)
(0.190918 2.43667e-30 0.000187867)
(0.19099 -2.08823e-30 0.000189263)
(0.19106 -1.97387e-30 0.000190516)
(0.191127 1.74764e-30 0.000190998)
(0.191194 -1.75851e-30 0.000191676)
(0.191257 -1.1131e-30 0.000190299)
(0.191318 1.2322e-30 0.00018933)
(0.191378 -8.99291e-31 0.000187509)
(0.191435 -6.80402e-31 0.00018526)
(0.19149 -6.49232e-31 0.000183056)
(0.191543 -5.89663e-31 0.000180897)
(0.191592 0 0.000177294)
(0.191638 -4.46379e-31 0.000174917)
(0.191682 -4.68729e-33 0.000171127)
(0.191725 4.84017e-31 0.000169018)
(0.191766 5.09643e-32 0.000165654)
(0.191804 -7.75406e-32 0.000162057)
(0.191839 -5.38099e-32 0.000158997)
(0.191874 0 0.000155954)
(0.191906 3.16478e-32 0.000153024)
(0.191937 0 0.000150054)
(0.191967 5.00084e-32 0.000147258)
(0.191994 6.32622e-35 0.000143177)
(0.19202 0 0.000140661)
(0.192045 -5.5179e-31 0.000136475)
(0.192069 -4.67283e-32 0.000134056)
(0.19209 3.31058e-31 0.000129656)
(0.192111 0 0.000128054)
(0.192129 -3.64047e-31 0.00012377)
(0.192144 -2.46124e-31 0.000120296)
(0.192159 0 0.000118202)
(0.192173 2.47127e-31 0.000115059)
(0.192184 -3.9848e-31 0.000110958)
(0.192193 0 0.000108327)
(0.192201 4.33925e-31 0.000104228)
(0.192207 -3.27615e-31 0.000101052)
(0.192211 -4.64847e-31 9.69702e-05)
(0.192215 0 9.47142e-05)
(0.192219 4.77973e-31 9.09692e-05)
(0.192218 0 8.67384e-05)
(0.192214 0 8.27058e-05)
(0.192211 1.52428e-31 8.07657e-05)
(0.19221 7.21079e-35 7.69018e-05)
(0.192204 0 7.34674e-05)
(0.1922 0 6.96782e-05)
(0.192192 3.10302e-31 6.55239e-05)
(0.192187 0 6.34817e-05)
(0.192181 0 5.89167e-05)
(0.192171 0 5.39835e-05)
(0.192165 1.3693e-31 5.32619e-05)
(0.19216 -3.74731e-31 4.81259e-05)
(0.192154 0 4.52374e-05)
(0.192146 0 4.09842e-05)
(0.192139 0 3.78446e-05)
(0.19213 0 3.40478e-05)
(0.192123 0 3.13026e-05)
(0.192114 0 2.80172e-05)
(0.192108 0 2.60131e-05)
(0.1921 0 2.3186e-05)
(0.192093 0 2.17702e-05)
(0.192086 0 2.01868e-05)
(0.192078 -4.35204e-37 1.94169e-05)
(0.19207 -5.74535e-32 1.86963e-05)
(0.192061 -1.85568e-32 1.82638e-05)
(0.192054 -9.00043e-33 1.84217e-05)
(0.192048 -2.0062e-32 1.89942e-05)
(0.192039 -7.0413e-32 1.69772e-05)
(0.19203 0 1.79653e-05)
(0.192024 4.92009e-32 1.91668e-05)
(0.19202 -6.05443e-32 2.09155e-05)
(0.192013 2.28575e-32 2.03693e-05)
(0.192006 0 2.27807e-05)
(0.192002 7.37636e-32 2.4648e-05)
(0.191999 0 2.7216e-05)
(0.191999 0 2.99197e-05)
(0.191999 4.6252e-36 3.21796e-05)
(0.192004 -2.55288e-31 3.55539e-05)
(0.192011 -2.39086e-31 3.83496e-05)
(0.192015 -3.17512e-32 3.79471e-05)
(0.192021 -1.8901e-31 4.01987e-05)
(0.192029 4.10682e-31 4.23763e-05)
(0.192039 1.84975e-31 4.41635e-05)
(0.192049 6.13874e-36 4.6053e-05)
(0.192062 0 4.79453e-05)
(0.192075 0 4.94653e-05)
(0.192089 -2.00143e-31 5.10408e-05)
(0.192105 -4.39858e-31 5.28262e-05)
(0.192121 0 5.42203e-05)
(0.192139 0 5.58729e-05)
(0.192157 -2.04796e-31 5.74099e-05)
(0.192176 0 5.97024e-05)
(0.192195 0 6.15276e-05)
(0.192215 0 6.43593e-05)
(0.192237 0 6.6669e-05)
(0.192258 7.3912e-31 6.98313e-05)
(0.192283 0 7.2728e-05)
(0.192308 -2.82134e-36 7.62943e-05)
(0.192335 0 7.94044e-05)
(0.192361 -7.98756e-31 8.29004e-05)
(0.192391 0 8.6351e-05)
(0.192419 0 8.9138e-05)
(0.192448 7.30547e-31 9.1862e-05)
(0.192481 0 9.80679e-05)
(0.192517 -6.45822e-31 0.000100003)
(0.19255 0 0.000102254)
(0.19259 -1.19495e-30 0.00010746)
(0.192631 5.93629e-31 0.000108826)
(0.19267 7.11163e-31 0.000110763)
(0.192714 1.98773e-30 0.000114648)
(0.192758 -3.69423e-35 0.000116459)
(0.192803 0 0.000120456)
(0.19285 0 0.00012269)
(0.192897 0 0.000126525)
(0.192946 2.21144e-35 0.000128575)
(0.192996 -2.20797e-30 0.000132302)
(0.193047 1.8007e-30 0.000134471)
(0.1931 0 0.000138533)
(0.193154 1.93157e-30 0.000141212)
(0.193209 -2.44128e-30 0.000145762)
(0.193264 0 0.000148705)
(0.19332 -2.6773e-30 0.000153963)
(0.193375 -1.85125e-30 0.000156369)
(0.193432 0 0.00016206)
(0.193495 -2.94972e-30 0.00016757)
(0.193555 -3.78665e-30 0.000169498)
(0.193617 2.74543e-30 0.000174322)
(0.193681 0 0.000178708)
(0.193748 -2.67014e-30 0.000183385)
(0.193814 -2.43267e-30 0.000186997)
(0.193882 0 0.000191584)
(0.193951 -2.43148e-30 0.00019494)
(0.194017 1.68903e-30 0.000195581)
(0.19408 2.32429e-30 0.000198335)
(0.194149 0 0.00020235)
(0.194214 2.70006e-30 0.000206191)
(0.194284 -6.31119e-30 0.000211236)
(0.194355 0 0.000217643)
(0.194424 1.99654e-30 0.000219009)
(0.194488 0 0.00022916)
(0.194556 0 0.000230677)
(0.194594 2.85252e-30 0.000235917)
(0.194733 -5.33145e-30 0.000248205)
(0.194656 0 0.000234144)
(0.194951 -1.32503e-32 0.000284884)
(0.194686 0 0.000209919)
(0.195277 0 0.000385726)
(0.19461 0 0.000105152)
(0.195775 7.02935e-28 0.000637383)
(0.194534 1.33009e-28 -0.000185931)
(0.196378 -3.29044e-27 0.00106675)
(0.194664 -2.36708e-27 -0.000747964)
(0.196875 0 0.00149884)
(0.194893 0 -0.00162715)
(0.196956 0 0.00174782)
(0.19512 -2.4087e-26 -0.00282032)
(0.196247 0 0.00153261)
(0.195198 0 -0.00422663)
(0.194527 1.55385e-27 0.000498885)
(0.194789 -6.36849e-26 -0.00562959)
(0.192556 0 -0.0015819)
(0.193695 -1.3116e-25 -0.00795614)
(0.189205 -5.36169e-26 -0.00555321)
(0.189224 0 -0.0137662)
(0.176956 0 -0.0135544)
(0.164537 0 -0.025211)
(0.0921014 -9.45197e-25 -0.0212175)
(0.0570006 0 0.00111211)
(0.0830426 2.77099e-28 -0.000261104)
(0.0596528 0 0.00206015)
(0.0551429 -2.04332e-28 0.0029225)
(0.0214183 0 0.00262778)
(0.00731834 -2.3518e-28 -0.000255341)
(-0.00638038 -3.02072e-28 0.000866638)
(-0.0193912 0 0.00239635)
(-0.0337978 0 0.0014529)
(-0.0413275 1.49658e-27 -0.00666092)
(0.379464 0 0.000860055)
(0.377919 6.64307e-42 0.000987235)
(0.37476 -3.51207e-28 0.00169657)
(0.369767 0 0.00172973)
(0.365807 0 0.00187839)
(0.361165 -3.51748e-40 0.00169959)
(0.357412 0 0.00168217)
(0.353607 -3.0396e-28 0.00151974)
(0.350182 0 0.00145227)
(0.347354 -1.5807e-28 0.00131618)
(0.344846 -1.91385e-28 0.0011111)
(0.34249 0 0.00110943)
(0.340374 4.80884e-29 0.00123738)
(0.338194 -2.46123e-28 0.000925245)
(0.336045 1.04745e-28 0.000962684)
(0.333999 0 0.0010887)
(0.331878 0 0.000864625)
(0.329523 0 0.00081582)
(0.327262 0 0.000885816)
(0.325006 6.28673e-30 0.000834335)
(0.32278 1.00736e-29 0.000856151)
(0.320625 0 0.000774273)
(0.318376 0 0.000711498)
(0.316206 0 0.000704314)
(0.31407 0 0.000610109)
(0.311912 0 0.00056387)
(0.30979 0 0.000481703)
(0.307664 0 0.000442568)
(0.305652 -5.50056e-29 0.000409713)
(0.303692 1.31515e-28 0.000335472)
(0.301747 6.28796e-29 0.000290462)
(0.299878 0 0.000226569)
(0.298017 0 0.000176851)
(0.296254 4.90207e-29 0.0001542)
(0.294537 0 0.000110931)
(0.292883 0 9.15144e-05)
(0.291289 0 5.05571e-05)
(0.289714 5.60698e-29 -9.68001e-06)
(0.288184 0 -1.11402e-05)
(0.286763 0 -4.12014e-05)
(0.285318 -5.40266e-29 -9.53121e-05)
(0.283958 0 -9.13321e-05)
(0.282662 0 -0.000117301)
(0.281386 1.75727e-34 -0.000154899)
(0.280147 4.35752e-29 -0.000164466)
(0.278981 0 -0.000180371)
(0.277832 4.61506e-29 -0.000195858)
(0.276733 4.79917e-29 -0.000206991)
(0.275655 0 -0.000224247)
(0.274618 4.30525e-29 -0.000230407)
(0.27363 0 -0.000232326)
(0.272651 -6.28486e-29 -0.000263858)
(0.271692 -5.71876e-29 -0.000266562)
(0.270777 0 -0.000275138)
(0.269887 0 -0.000284628)
(0.269012 0 -0.000294155)
(0.268194 0 -0.000294236)
(0.267329 1.41842e-28 -0.00033937)
(0.266621 -2.84422e-28 -0.000261055)
(0.265771 0 -0.000433838)
(0.265039 0 -0.000272722)
(0.264232 0 -0.000456826)
(0.263543 0 -9.95988e-05)
(0.263079 0 -0.000237901)
(0.262454 2.92683e-27 -0.000397423)
(0.261475 9.13796e-27 -0.000813177)
(0.260677 -1.20767e-26 -0.00035401)
(0.26021 0 -0.000243456)
(0.259857 0 -0.000434677)
(0.258802 1.43372e-26 -0.000947299)
(0.257937 0 -0.000169041)
(0.257798 -6.85597e-27 0.000501071)
(0.258188 0 0.000574756)
(0.257944 0 -0.000537225)
(0.256999 -6.65763e-27 -0.00116475)
(0.25589 7.87282e-27 -0.000973154)
(0.255321 0 -0.000680751)
(0.25435 -3.61718e-26 -0.000450962)
(0.254246 -1.54808e-26 0.000460187)
(0.25454 6.07826e-26 0.000627035)
(0.25483 -5.4779e-26 -0.000363445)
(0.253857 -1.1266e-26 -0.00167931)
(0.252795 0 -0.00130936)
(0.252005 -1.16652e-26 -0.000845992)
(0.251847 2.70097e-26 -0.000525664)
(0.25171 -3.57144e-26 -0.000482781)
(0.251506 0 -0.000641839)
(0.250832 1.1681e-26 -0.000767219)
(0.250655 0 -0.000256154)
(0.250625 0 -0.000221525)
(0.250409 -1.27824e-26 -0.000647204)
(0.250084 1.00416e-26 -0.00071164)
(0.249872 7.41173e-27 -0.000676237)
(0.249418 0 -0.00085917)
(0.249113 0 -0.000371835)
(0.249041 3.32345e-26 -0.00038554)
(0.248969 0 -0.000597105)
(0.248577 0 -0.000777058)
(0.248342 0 -0.000698491)
(0.24795 -1.44095e-27 -0.000732278)
(0.247735 0 -0.000585781)
(0.247372 -1.23617e-27 -0.000623781)
(0.247229 0 -0.000500509)
(0.246821 0 -0.000545386)
(0.246412 6.91227e-27 -0.000235994)
(0.246148 0 0.000391484)
(0.246815 -2.43131e-26 0.000948813)
(0.247261 2.90236e-26 -0.000104232)
(0.246786 0 -0.00130594)
(0.245475 0 -0.00127899)
(0.245257 -1.029e-27 -0.00042867)
(0.244989 2.34461e-27 -0.000710401)
(0.244594 0 -0.000614225)
(0.244098 6.37461e-28 -0.000401157)
(0.244443 9.24611e-29 -4.21124e-05)
(0.243945 -1.37337e-32 -0.000667352)
(0.243811 0 -9.43239e-05)
(0.243357 0 -0.000632219)
(0.243029 -1.99545e-28 -0.000168574)
(0.242225 1.03818e-28 -0.000435334)
(0.242535 0 0.00061756)
(0.241425 7.99806e-28 -0.000449666)
(0.241071 0 0.00216288)
(0.243293 -1.54056e-27 0.0018196)
(0.243455 0 0.00174191)
(0.244153 0 0.00173115)
(0.244381 0 0.00156198)
(0.244791 6.7564e-28 0.00156594)
(0.24495 0 0.00134611)
(0.245205 0 0.00132305)
(0.245312 0 0.00107558)
(0.245378 0 0.00102615)
(0.245395 4.45367e-28 0.000748024)
(0.245326 0 0.000708447)
(0.245145 0 0.000370387)
(0.244952 0 0.000455073)
(0.244752 1.58218e-28 1.49948e-05)
(0.243678 0 -0.000109785)
(0.243601 0 0.000635563)
(0.243915 0 0.000467)
(0.243158 0 0.00031833)
(0.243238 0 0.00119837)
(0.243833 0 0.000958753)
(0.243837 7.7986e-29 0.00100206)
(0.243976 -2.14061e-28 0.000871549)
(0.243985 -5.20045e-29 0.000903199)
(0.244046 0 0.000776013)
(0.244014 0 0.000782079)
(0.244028 0 0.000634317)
(0.243895 0 0.000619838)
(0.243891 -9.92964e-29 0.000499636)
(0.243637 0 0.000432642)
(0.2437 -1.52084e-29 0.000421171)
(0.243306 8.01992e-29 0.000231138)
(0.243495 -4.67608e-32 0.000433849)
(0.24293 5.13121e-29 -5.68684e-05)
(0.243267 -3.24818e-31 0.000573593)
(0.242699 -4.30268e-28 -0.000460507)
(0.24295 -4.39539e-28 0.000600234)
(0.242432 2.68901e-27 -0.00101686)
(0.242254 -5.67188e-28 0.000361851)
(0.241843 5.97004e-27 -0.0014352)
(0.241357 -1.20519e-27 4.07254e-05)
(0.241038 -5.6887e-27 -0.00167542)
(0.240558 -3.41709e-27 -0.000275567)
(0.240243 5.7525e-27 -0.0020135)
(0.239831 0 -0.000903433)
(0.239008 2.79965e-26 -0.00301816)
(0.237996 3.67545e-30 -0.0019629)
(0.23514 0 -0.00465378)
(0.231665 -5.91786e-27 -0.000855251)
(0.234224 0 -0.000311567)
(0.233527 1.0084e-27 -0.000947677)
(0.233682 0 -0.000229055)
(0.23349 0 -0.000810384)
(0.233259 0 -0.000187401)
(0.233172 0 -0.000655373)
(0.232894 2.02105e-28 -0.000138572)
(0.232839 3.07357e-28 -0.000516979)
(0.232581 0 -9.65463e-05)
(0.232541 -4.953e-28 -0.000401398)
(0.232314 0 -6.30168e-05)
(0.232282 -9.92299e-29 -0.00030734)
(0.232084 -5.19248e-29 -3.91185e-05)
(0.23206 0 -0.000227959)
(0.231885 -2.00503e-29 -2.01974e-05)
(0.231862 0 -0.000163636)
(0.231715 0 -1.10319e-05)
(0.231685 0 -0.000110908)
(0.231573 5.14941e-30 -1.34342e-06)
(0.231538 -6.41862e-30 -6.392e-05)
(0.231473 -8.53383e-32 7.51672e-06)
(0.231411 -3.68327e-31 -2.07347e-05)
(0.231369 0 2.51727e-05)
(0.231312 -1.10332e-31 6.48397e-06)
(0.231276 0 4.8351e-05)
(0.231222 5.88847e-31 2.45814e-05)
(0.231189 1.77166e-30 6.14273e-05)
(0.231138 1.81309e-30 3.40778e-05)
(0.231107 -2.01329e-30 6.96403e-05)
(0.231059 4.38455e-30 4.12679e-05)
(0.23103 -2.30973e-30 7.61908e-05)
(0.230986 0 4.52653e-05)
(0.230957 -2.0247e-30 7.74074e-05)
(0.23091 2.49314e-30 4.66357e-05)
(0.230881 2.03825e-30 7.89848e-05)
(0.230837 -1.74676e-34 4.63683e-05)
(0.230808 4.405e-30 7.83025e-05)
(0.23077 -5.36305e-30 4.71559e-05)
(0.230743 0 7.71244e-05)
(0.230709 -2.94117e-30 4.47857e-05)
(0.230683 -1.87404e-30 7.24728e-05)
(0.230651 2.75629e-30 4.2042e-05)
(0.230627 1.55557e-30 6.73172e-05)
(0.230594 -4.25598e-30 3.61245e-05)
(0.23057 -2.05342e-30 6.32784e-05)
(0.23054 0 2.88374e-05)
(0.230515 1.81029e-30 5.47292e-05)
(0.230486 -1.52209e-30 2.24505e-05)
(0.230462 1.78077e-30 4.73742e-05)
(0.230434 2.33313e-30 1.5463e-05)
(0.230412 -2.29263e-30 4.24291e-05)
(0.230384 0 6.43928e-06)
(0.230363 0 3.80854e-05)
(0.230334 4.95382e-31 2.06954e-07)
(0.230323 1.83146e-30 3.93118e-05)
(0.23029 1.47799e-31 -7.16357e-06)
(0.230288 -2.27112e-30 4.11253e-05)
(0.230253 0 -1.61596e-05)
(0.230256 -6.00938e-30 4.61594e-05)
(0.230224 -3.7573e-30 -2.86469e-05)
(0.230225 -3.73838e-30 4.84092e-05)
(0.230196 -6.78934e-30 -4.17283e-05)
(0.230194 4.38561e-30 4.86426e-05)
(0.230165 5.32668e-30 -5.72694e-05)
(0.230159 1.03601e-29 4.96031e-05)
(0.230134 0 -7.05665e-05)
(0.230121 5.71171e-30 4.73413e-05)
(0.230099 -1.27614e-29 -7.97236e-05)
(0.230084 0 4.63328e-05)
(0.230064 8.32831e-34 -8.5811e-05)
(0.230051 0 4.52457e-05)
(0.230028 1.37268e-29 -9.21871e-05)
(0.230025 0 5.00728e-05)
(0.23 0 -0.000104232)
(0.230001 1.92537e-29 5.33945e-05)
(0.229972 0 -0.000118519)
(0.229977 0 5.72188e-05)
(0.229946 0 -0.000136234)
(0.229955 -4.86249e-30 6.16819e-05)
(0.229921 0 -0.00015778)
(0.229934 -5.50596e-30 6.63584e-05)
(0.229897 0 -0.000183027)
(0.229912 6.25509e-30 7.17655e-05)
(0.229872 5.62676e-29 -0.000211385)
(0.229889 0 7.7979e-05)
(0.229847 3.70104e-33 -0.000242266)
(0.229862 2.78263e-29 8.19972e-05)
(0.229816 0 -0.000277782)
(0.229825 1.38919e-31 8.47914e-05)
(0.229776 -3.13803e-28 -0.000310059)
(0.229788 0 9.23771e-05)
(0.229737 0 -0.000346171)
(0.229745 4.34901e-29 9.76522e-05)
(0.22969 0 -0.000383608)
(0.229695 1.19696e-29 0.000104839)
(0.229638 -4.16875e-28 -0.000420319)
(0.22964 -1.30304e-29 0.0001111)
(0.229579 6.436e-33 -0.000459484)
(0.22958 5.68265e-29 0.00011976)
(0.229515 0 -0.000502579)
(0.229511 0 0.000128874)
(0.22945 -5.37316e-28 -0.000549781)
(0.229426 3.32592e-29 0.000127802)
(0.229376 0 -0.000593747)
(0.229325 -6.99059e-29 0.000118759)
(0.229295 -5.94172e-28 -0.000631882)
(0.229202 0 9.43779e-05)
(0.229198 5.90704e-28 -0.000651926)
(0.229063 1.38487e-28 5.60063e-05)
(0.229087 0 -0.000649676)
(0.228919 1.279e-28 5.37144e-06)
(0.228959 -3.33738e-32 -0.000631106)
(0.228772 0 -5.1823e-05)
(0.228816 0 -0.000597538)
(0.228639 0 -0.00010355)
(0.228669 -3.70611e-28 -0.000571369)
(0.228504 9.34732e-33 -0.000151124)
(0.228518 -3.18193e-28 -0.000552108)
(0.228361 1.39371e-28 -0.000193477)
(0.228364 -2.71114e-28 -0.000534147)
(0.228216 0 -0.000230467)
(0.228207 0 -0.000520488)
(0.228066 0 -0.000263487)
(0.228046 0 -0.000509201)
(0.227915 0 -0.000290586)
(0.227887 0 -0.000499593)
(0.227764 -1.42509e-28 -0.000314263)
(0.22773 0 -0.000491557)
(0.227613 0 -0.000334556)
(0.227574 2.45411e-28 -0.000485629)
(0.227463 -1.00974e-28 -0.000352419)
(0.227419 1.04236e-28 -0.000480508)
(0.227317 -8.6255e-29 -0.000365634)
(0.227272 8.95999e-29 -0.000475162)
(0.227178 0 -0.000375751)
(0.22713 0 -0.000470337)
(0.227043 6.36618e-29 -0.000383868)
(0.226994 -6.67768e-29 -0.000464767)
(0.226918 5.73449e-29 -0.000386917)
(0.226873 0 -0.000455289)
(0.226804 0 -0.000388203)
(0.226762 -7.30048e-35 -0.00044339)
(0.226706 0 -0.000385023)
(0.226657 0 -0.000428231)
(0.226615 -2.54404e-34 -0.000379142)
(0.226565 0 -0.000411875)
(0.226532 -4.89375e-29 -0.000370857)
(0.226488 3.07062e-29 -0.000395108)
(0.22646 0 -0.000359813)
(0.226421 -1.24776e-29 -0.000379357)
(0.226397 0 -0.000347487)
(0.226365 -7.74841e-30 -0.000361502)
(0.226345 0 -0.000334676)
(0.226316 -6.88238e-30 -0.000346379)
(0.2263 -1.4449e-29 -0.000321981)
(0.226275 5.66095e-30 -0.000330585)
(0.226262 -7.01043e-30 -0.000308285)
(0.226243 6.16396e-35 -0.000312737)
(0.226233 -1.06359e-29 -0.000294195)
(0.226216 -3.57812e-31 -0.000296367)
(0.226207 -5.63466e-30 -0.000278945)
(0.226197 -7.08061e-31 -0.000277382)
(0.22619 -5.13649e-30 -0.000262269)
(0.226185 1.65617e-30 -0.000258142)
(0.226181 0 -0.000243482)
(0.226186 -2.02415e-30 -0.000237858)
(0.226183 0 -0.000223063)
(0.226197 -4.09034e-30 -0.000216753)
(0.226199 6.33169e-35 -0.000200503)
(0.226218 4.71303e-30 -0.000192683)
(0.226228 0 -0.000176572)
(0.226253 0 -0.000167494)
(0.226272 -2.87373e-30 -0.000151136)
(0.226304 5.6968e-30 -0.000140001)
(0.226331 3.05413e-30 -0.000123677)
(0.226367 0 -0.000111154)
(0.226401 0 -9.41345e-05)
(0.226444 -3.63221e-30 -7.93958e-05)
(0.226486 0 -5.96395e-05)
(0.226534 -5.27165e-31 -4.51146e-05)
(0.226584 -2.11696e-37 -2.00246e-05)
(0.226652 0 4.4719e-06)
(0.226725 0 2.24317e-05)
(0.2268 0 4.08801e-05)
(0.226879 6.90059e-30 5.39495e-05)
(0.226957 3.32129e-30 6.99892e-05)
(0.22704 2.98322e-30 8.07515e-05)
(0.227117 0 9.38889e-05)
(0.227202 0 0.000104543)
(0.22728 0 0.000116351)
(0.227364 0 0.000125082)
(0.227443 0 0.000136528)
(0.227528 -3.73432e-35 0.000144069)
(0.227607 -5.19828e-30 0.000153516)
(0.227693 4.9498e-30 0.000160934)
(0.227773 4.76232e-30 0.000169031)
(0.227858 -4.6344e-30 0.00017519)
(0.22794 4.50915e-30 0.000182841)
(0.228024 -8.34393e-30 0.000187987)
(0.228107 0 0.000193991)
(0.228189 7.36451e-30 0.000197202)
(0.228272 3.43003e-30 0.000202159)
(0.228353 -2.89142e-30 0.000203566)
(0.228433 -2.99888e-30 0.000207278)
(0.22851 0 0.000208848)
(0.228588 -4.8864e-30 0.000210869)
(0.228661 0 0.000211264)
(0.228735 -1.97826e-30 0.000212758)
(0.228806 -1.36688e-30 0.00021104)
(0.228876 1.42719e-30 0.000210227)
(0.228944 -9.44042e-31 0.00020835)
(0.22901 0 0.000206202)
(0.229073 -7.24038e-31 0.000203864)
(0.229135 -4.62559e-31 0.000202159)
(0.229195 -1.93385e-31 0.000197958)