/*--------------------------------*- C++ -*----------------------------------*\
| =========                 |                                                 |
| \\      /  F ield         | foam-extend: Open Source CFD                    |
|  \\    /   O peration     | Version:     3.2                                |
|   \\  /    A nd           | Web:         http://www.foam-extend.org         |
|    \\/     M anipulation  | For copyright notice see file Copyright         |
\*---------------------------------------------------------------------------*/
FoamFile
{
    version     2.0;
    format      ascii;
    class       areaVectorField;
    location    "910";
    object      Ub2;
}
// * * * * * * * * * * * * * * * * * * * * * * * * * * * * * * * * * * * * * //

dimensions      [0 1 -1 0 0 0 0];

internalField   nonuniform List<vector> 
550
(
(0 0 0)
(0 0 0)
(0 0 0)
(0.0373036 9.98978e-24 -7.46081e-05)
(0.0502687 1.42683e-23 -0.000100536)
(0.0627887 0 -0.000125578)
(0.0743405 -2.09362e-23 -0.000148677)
(0.0853271 -2.31252e-23 -0.000170654)
(0.0949162 0 -0.000189843)
(0.102893 -2.37489e-29 -0.000205781)
(0.110188 -3.01974e-23 -0.000220377)
(0.115519 0 -0.000231038)
(0.120337 -3.10744e-23 -0.000240667)
(0.123687 4.13645e-29 -0.000247388)
(0.125675 -2.97718e-23 -0.00025135)
(0.127533 0 -0.000255059)
(0.12828 -2.64986e-23 -0.000256559)
(0.128035 0 -0.000256064)
(0.127666 -2.26319e-23 -0.000255331)
(0.12693 -2.09117e-23 -0.000253873)
(0.125902 0 -0.000251797)
(0.125007 -1.81247e-23 -0.000250014)
(0.12322 -1.68758e-23 -0.00024644)
(0.12202 0 -0.000244033)
(0.120384 -1.45293e-23 -0.000240781)
(0.118703 -1.33372e-23 -0.000237407)
(0.117011 0 -0.000234015)
(0.114997 -1.13623e-23 -0.000229981)
(0.1137 0 -0.000227438)
(0.112108 0 -0.000224192)
(0.110563 -7.16104e-30 -0.000221114)
(0.109072 0 -0.000218181)
(0.107327 0 -0.00021463)
(0.105965 0 -0.000211907)
(0.10467 0 -0.000209375)
(0.103441 0 -0.000206871)
(0.102578 0 -0.000205133)
(0.101179 0 -0.000202391)
(0.100142 0 -0.000200261)
(0.0994594 0 -0.000198952)
(0.0982444 0 -0.000196467)
(0.0973792 0 -0.000194748)
(0.096854 0 -0.00019374)
(0.0958028 0 -0.000191585)
(0.0950871 -9.6898e-30 -0.000190153)
(0.0944169 0 -0.000188865)
(0.0937899 0 -0.000187569)
(0.0932039 0 -0.000186387)
(0.0926569 1.07318e-29 -0.000185344)
(0.0921454 0 -0.000184271)
(0.0919595 1.05668e-29 -0.000183949)
(0.0915145 0 -0.000183009)
(0.0907989 1.0317e-29 -0.000181588)
(0.0907018 -1.02084e-29 -0.000181434)
(0.0900296 0 -0.000180039)
(0.0899734 0 -0.000179947)
(0.0893408 1.01029e-29 -0.000178731)
(0.0893132 0 -0.000178528)
(0.0890065 -9.80991e-30 -0.000178013)
(0.0884322 0 -0.000176913)
(0.0881583 -9.40119e-30 -0.000176317)
(0.0881722 0 -0.000176393)
(0.0879206 0 -0.000175841)
(0.0876809 -8.87396e-30 -0.000175265)
(0.0874525 8.88879e-30 -0.000174953)
(0.0869689 -8.6582e-30 -0.000173938)
(0.0870256 0 -0.000174051)
(0.0865617 8.49643e-30 -0.000173171)
(0.0866339 8.34671e-30 -0.000173173)
(0.0861857 -8.29471e-30 -0.000172371)
(0.0860079 8.14416e-30 -0.000172063)
(0.0861036 -7.7899e-30 -0.000172207)
(0.0859395 -7.53064e-30 -0.000171926)
(0.0855085 -7.10614e-30 -0.000171017)
(0.0853509 -6.8088e-30 -0.000170608)
(0.0854726 0 -0.000170992)
(0.085322 6.22832e-30 -0.000170644)
(0.0851724 -6.07075e-30 -0.000170345)
(0.0847433 0 -0.000169533)
(0.084872 -6.09922e-30 -0.000169651)
(0.0844457 0 -0.000168891)
(0.0842981 0 -0.000168642)
(0.0844147 0 -0.000168829)
(0.084261 5.96051e-30 -0.000168568)
(0.0841075 0 -0.000168215)
(0.083955 -5.94843e-30 -0.000167818)
(0.0838048 -6.01518e-30 -0.000167656)
(0.0834304 0 -0.000166861)
(0.0832927 0 -0.000166585)
(0.0831576 0 -0.000166361)
(0.0830258 0 -0.00016596)
(0.0831092 -3.13233e-25 -0.000166218)
(0.082771 0 -0.000165588)
(0.082647 4.10068e-30 -0.000165294)
(0.0827403 -3.8768e-30 -0.000165526)
(0.0826219 0 -0.000165244)
(0.0822834 -3.03097e-25 -0.000164476)
(0.0823879 0 -0.000164821)
(0.0820445 -4.09874e-30 -0.000164089)
(0.0819256 4.26966e-30 -0.000163851)
(0.0818064 -4.42447e-30 -0.000163658)
(0.0819182 0 -0.000163746)
(0.0817994 0 -0.000163599)
(0.0814483 0 -0.000162941)
(0.0815579 -3.76137e-30 -0.000163116)
(0.0814348 0 -0.000162914)
(0.0813093 0 -0.000162619)
(0.0811821 7.35786e-30 -0.000162275)
(0.0810525 -4.58387e-29 -0.00016215)
(0.0809212 0 -0.000165296)
(0.0807873 0 -0.000165636)
(0.0771518 0 -0.000149846)
(0.0802988 0 -0.000149226)
(0.0801768 2.88794e-28 -0.000162701)
(0.0720988 0 -0.000163992)
(0.07304 0 -0.000138248)
(0.0797497 0 -0.000130142)
(0.069172 2.31633e-25 -0.000181058)
(0.071529 -1.56346e-24 -9.72846e-05)
(0.0793564 0 -0.000170959)
(0.0792144 0 -0.000176065)
(0.0651255 3.13646e-24 -0.00012851)
(0.078895 -3.92484e-27 -0.000131444)
(0.0787714 -5.67802e-27 -0.000153742)
(0.0788184 0 -0.000216682)
(0.058612 1.26849e-23 -9.55122e-05)
(0.0782853 0 -9.90071e-05)
(0.0781606 3.07247e-27 -0.000117243)
(0.0780843 0 -0.000209667)
(0.0779327 -2.17339e-23 -0.000210016)
(0.0778927 5.35718e-27 -0.000165299)
(0.0565747 0 -9.10703e-05)
(0.0774176 0 -0.000115934)
(0.0773093 1.22587e-27 -0.000177264)
(0.0771279 0 -0.000133434)
(0.0769879 0 -0.000145134)
(0.0768615 -6.49822e-27 -0.000176976)
(0.0767246 5.31746e-27 -0.000201908)
(0.0765335 3.95847e-27 -0.000148433)
(0.0763386 0 -9.80273e-05)
(0.0761661 0 -5.35342e-05)
(0.0761615 -1.4999e-23 -0.000250085)
(0.0759261 0 -0.000137266)
(0.0757838 -1.16695e-26 -0.000143585)
(0.0756671 2.85105e-23 -0.000192171)
(0.0754981 -3.25238e-24 -0.000169381)
(0.0753289 0 -0.000146014)
(0.0751611 4.48184e-27 -0.000121391)
(0.0750248 -3.74884e-27 -0.000135269)
(0.0748996 0 -0.000166337)
(0.0747482 -6.65955e-27 -0.000155056)
(0.0747575 0 -0.000195713)
(0.0743901 -8.34348e-24 -7.85987e-05)
(0.0742795 0 -0.000110356)
(0.07423 0 -0.000235285)
(0.0741532 0 -0.000157933)
(0.0738328 0 -8.75422e-05)
(0.0737603 -8.98672e-24 -0.000173808)
(0.07362 2.25399e-24 -0.000177742)
(0.0734361 0 -0.000119815)
(0.0732979 -3.81372e-24 -0.000114596)
(0.0731849 -2.60637e-28 -0.000139204)
(0.0730565 0 -0.000141558)
(0.0729641 3.42308e-24 -0.00019442)
(0.0727837 0 -0.000132251)
(0.0726402 -1.07157e-23 -0.000106483)
(0.0725873 5.37503e-27 -0.000204619)
(0.0725236 2.58585e-24 -0.000163582)
(0.0722378 8.06364e-28 -8.1694e-05)
(0.0721573 -5.06205e-29 -0.000128692)
(0.0720851 6.20161e-27 -0.000195671)
(0.0719236 -2.95209e-27 -0.000143864)
(0.0718014 3.49523e-27 -0.000137453)
(0.071684 -1.0497e-23 -0.000136988)
(0.0715645 3.5501e-28 -0.000128142)
(0.0714628 1.56942e-24 -0.000136991)
(0.0713753 -3.68402e-25 -0.000158601)
(0.071291 0 -0.000189588)
(0.0711162 0 -0.000102463)
(0.0710163 1.64097e-28 -0.000107684)
(0.0709385 0 -0.000141341)
(0.0708136 2.97223e-27 -0.000109142)
(0.0707672 0 -0.000171515)
(0.0706633 0 -0.000158699)
(0.070567 1.78167e-23 -0.00015676)
(0.0704844 -5.12883e-27 -0.000179214)
(0.0703193 -7.6153e-28 -8.42397e-05)
(0.0702614 -2.26856e-27 -0.000117653)
(0.0702332 0 -0.000200727)
(0.0700868 0 -0.000130795)
(0.069997 1.68236e-28 -0.000123389)
(0.0699286 4.7168e-28 -0.000146666)
(0.0697849 -1.89052e-27 -6.17695e-05)
(0.0697385 -1.55139e-27 -9.16981e-05)
(0.0697334 0 -0.000177327)
(0.0696676 0 -0.00018911)
(0.0695642 0 -0.000146978)
(0.0694798 0 -0.000132077)
(0.0693644 -1.89964e-28 -6.91182e-05)
(0.0693612 -5.2276e-25 -0.000146478)
(0.0693061 0 -0.000163817)
(0.0691589 -5.79543e-29 -4.69883e-05)
(0.069118 0 -6.43359e-05)
(0.0690565 0 -5.84806e-05)
(0.0690078 0 -5.70581e-05)
(0.068978 -3.53754e-25 -7.87372e-05)
(0.068936 -1.49436e-30 -7.63998e-05)
(0.0689276 0 -0.000134836)
(0.0688145 0 -5.95311e-05)
(0.0688175 0 -0.000126352)
(0.0687296 2.99698e-26 -9.25039e-05)
(0.0686732 0 -8.90261e-05)
(0.0686258 -3.84061e-25 -0.000101411)
(0.0685714 0 -0.000108389)
(0.068463 0 -8.58846e-05)
(0.0681461 -7.56227e-24 0.000226224)
(0.0681189 0 0.000283084)
(0.0682223 0 0.000184496)
(0.0682237 3.28831e-24 0.000225405)
(0.0682815 0 0.000203682)
(0.0683134 1.36569e-29 0.000211599)
(0.0683497 2.27103e-24 0.00021486)
(0.0683931 1.72505e-24 0.000203886)
(0.0684199 0 0.000214691)
(0.0684723 -5.93811e-25 0.000190142)
(0.0684944 2.01326e-24 0.000204951)
(0.0685529 -1.36666e-29 0.000171646)
(0.0685725 0 0.000186233)
(0.0686312 -2.30937e-25 0.000149045)
(0.0686493 6.15742e-25 0.000159076)
(0.0687019 0 0.00012225)
(0.0687176 -3.20276e-25 0.000125985)
(0.0687596 0 9.06668e-05)
(0.0687688 -4.05656e-26 9.14201e-05)
(0.0688003 -1.22444e-25 5.49092e-05)
(0.068795 0 6.3142e-05)
(0.0688245 0 1.38143e-05)
(0.0687973 1.93225e-25 5.78885e-05)
(0.0688559 0 -5.09871e-05)
(0.0687891 1.35804e-26 3.64389e-06)
(0.0688558 -9.41112e-30 -6.12037e-05)
(0.0687807 1.40936e-29 5.24855e-05)
(0.0688751 7.09638e-24 -0.00020643)
(0.0688392 3.89604e-29 -3.37933e-05)
(0.0688468 0 -9.6869e-05)
(0.0688286 2.5299e-30 -6.03515e-06)
(0.0687809 -2.53833e-30 3.09021e-05)
(0.0687955 8.76615e-29 -0.000162989)
(0.0688109 2.76078e-25 -9.46174e-05)
(0.0687708 0 -5.3713e-05)
(0.0687711 0 -0.000109796)
(0.0687474 -4.91564e-26 -6.52628e-05)
(0.0687245 1.26471e-24 -0.000133088)
(0.0687348 0 -0.000121766)
(0.0686843 2.18141e-25 -3.94709e-05)
(0.06866 0 -5.21187e-05)
(0.0686167 2.49741e-30 -5.92721e-05)
(0.0686116 0 -9.57718e-05)
(0.0685822 0 -0.000110282)
(0.0685914 2.52936e-25 -0.000102089)
(0.068543 -2.2206e-30 -8.50451e-05)
(0.0685613 -1.41606e-24 -0.000173919)
(0.0685404 0 -0.000167985)
(0.0685531 0 -0.000197697)
(0.0685216 -1.66366e-29 -0.000153002)
(0.0685072 7.56619e-30 -0.000172002)
(0.0684714 -2.14708e-25 -0.000150401)
(0.0684443 0 -0.000147837)
(0.0684023 4.03767e-30 -0.000152385)
(0.0683809 0 -0.000153825)
(0.0683322 6.10388e-26 -0.000116308)
(0.0682982 -2.99787e-25 -0.000126013)
(0.0682546 -1.17657e-29 -0.000102013)
(0.0682148 0 -8.7733e-05)
(0.0681709 1.91214e-30 -8.02641e-05)
(0.0681383 4.89469e-32 -8.03921e-05)
(0.0681005 0 -5.89885e-05)
(0.0680661 0 -4.68217e-05)
(0.0680321 0 -4.86305e-05)
(0.0680104 0 -5.0907e-05)
(0.0679828 6.51418e-26 -3.42499e-05)
(0.067961 -5.31042e-26 -2.24008e-05)
(0.0679343 0 -8.05614e-06)
(0.0679163 -1.85824e-26 -9.58038e-06)
(0.0678976 1.51142e-26 -7.16032e-06)
(0.0678866 5.70331e-32 -7.85167e-06)
(0.0678722 3.12411e-32 1.82427e-06)
(0.0678645 -9.96287e-34 -1.23462e-06)
(0.067854 -7.82194e-33 -1.20074e-06)
(0.0678518 3.52669e-27 -7.60491e-06)
(0.0678454 0 -3.84287e-06)
(0.0678442 0 -4.70041e-06)
(0.0678371 -2.80149e-27 -2.02155e-06)
(0.0678364 0 -9.60574e-06)
(0.0678321 0 -1.05707e-05)
(0.0678324 -4.20542e-27 -1.49218e-05)
(0.0678271 -1.14268e-27 -1.1845e-05)
(0.0678246 0 -1.15158e-05)
(0.0678169 6.04882e-27 -7.53997e-06)
(0.0678131 -2.84898e-27 -1.00374e-05)
(0.0678055 -3.66778e-27 -9.07522e-06)
(0.0678024 3.07134e-31 -1.41096e-05)
(0.0677966 -1.69629e-31 -1.57244e-05)
(0.0677942 0 -2.01226e-05)
(0.0677889 0 -2.04117e-05)
(0.067786 0 -2.40608e-05)
(0.0677802 9.0974e-27 -2.43955e-05)
(0.0677763 0 -2.76477e-05)
(0.0677698 0 -2.79246e-05)
(0.0677652 -4.51797e-31 -3.08918e-05)
(0.0677579 0 -3.10049e-05)
(0.0677522 0 -3.33619e-05)
(0.067744 0 -3.33991e-05)
(0.0677372 0 -3.53988e-05)
(0.0677284 2.841e-26 -3.53195e-05)
(0.0677207 -3.39605e-26 -3.66525e-05)
(0.067711 0 -3.55106e-05)
(0.0677023 2.6015e-26 -3.55125e-05)
(0.0676916 1.6395e-26 -3.34082e-05)
(0.0676816 9.6444e-33 -3.22453e-05)
(0.0676702 1.44444e-31 -2.97304e-05)
(0.0676597 6.85019e-32 -2.83836e-05)
(0.0676482 -1.86168e-31 -2.58579e-05)
(0.0676375 -6.29761e-32 -2.41639e-05)
(0.0676265 5.45298e-28 -2.18077e-05)
(0.0676159 1.37527e-27 -1.96461e-05)
(0.0676055 0 -1.73567e-05)
(0.0675956 3.10783e-27 -1.52038e-05)
(0.0675859 -1.35589e-31 -1.27895e-05)
(0.0675768 0 -1.0572e-05)
(0.0675678 -1.00333e-31 -7.9164e-06)
(0.0675597 -5.37376e-32 -5.38437e-06)
(0.0675509 0 -1.54702e-06)
(0.0675433 0 3.1411e-06)
(0.0675388 -8.3396e-27 6.54284e-06)
(0.067536 0 1.01084e-05)
(0.0675352 -1.59161e-26 1.28158e-05)
(0.0675356 1.60979e-26 1.54728e-05)
(0.067537 1.84201e-31 1.7755e-05)
(0.0675393 -1.66413e-26 1.9844e-05)
(0.0675424 -1.77918e-26 2.19612e-05)
(0.0675466 1.48072e-31 2.32464e-05)
(0.067551 1.7922e-26 2.40573e-05)
(0.0675562 0 2.39747e-05)
(0.0675614 0 2.37605e-05)
(0.0675669 3.33916e-32 2.19764e-05)
(0.0675717 1.401e-26 1.96888e-05)
(0.0675765 1.01912e-26 1.63176e-05)
(0.0675802 1.33717e-31 1.19534e-05)
(0.0675833 -1.3499e-31 5.27155e-06)
(0.0675844 -2.67371e-29 5.37032e-07)
(0.0675863 0 -5.58803e-06)
(0.0675914 -1.05152e-26 -1.47541e-05)
(0.0675971 0 -2.39633e-05)
(0.0676045 -1.1681e-30 -3.3163e-05)
(0.067612 -4.83323e-26 -4.29428e-05)
(0.0676196 0 -5.28017e-05)
(0.0676249 0 -5.9984e-05)
(0.0676284 0 -6.87822e-05)
(0.0676302 2.39319e-30 -7.62582e-05)
(0.067629 0 -8.11513e-05)
(0.067626 0 -8.85152e-05)
(0.0676214 0 -9.53828e-05)
(0.0676146 -1.27185e-30 -9.75404e-05)
(0.0676041 3.1556e-25 -9.90837e-05)
(0.0675922 1.85132e-30 -0.000100413)
(0.0675764 -8.5988e-26 -9.44318e-05)
(0.0675569 1.83053e-26 -8.62585e-05)
(0.0675345 -1.17547e-30 -8.03899e-05)
(0.0675122 -2.07178e-26 -8.03879e-05)
(0.0674912 -9.67403e-31 -8.35884e-05)
(0.0674718 8.15062e-26 -8.62784e-05)
(0.0674526 -7.84359e-26 -8.73526e-05)
(0.0674341 4.95089e-31 -8.76208e-05)
(0.0674149 0 -8.67688e-05)
(0.0673958 2.29204e-31 -8.61821e-05)
(0.0673759 1.65901e-31 -8.38571e-05)
(0.0673556 3.63624e-26 -8.10137e-05)
(0.0673346 0 -7.73034e-05)
(0.0673134 -3.96418e-27 -7.31452e-05)
(0.0672918 0 -6.70263e-05)
(0.0672694 5.14132e-26 -6.08991e-05)
(0.0672476 -6.07022e-26 -5.56453e-05)
(0.0672259 0 -4.9821e-05)
(0.0672056 4.30958e-26 -4.66129e-05)
(0.067187 3.96236e-26 -4.4383e-05)
(0.06717 -3.62646e-26 -4.32181e-05)
(0.067155 -3.17416e-26 -4.31109e-05)
(0.0671414 0 -4.35966e-05)
(0.0671296 -1.82121e-31 -4.50331e-05)
(0.0671187 0 -4.58099e-05)
(0.0671088 0 -4.71969e-05)
(0.0670995 -4.7378e-31 -4.85593e-05)
(0.0670908 5.17981e-31 -5.03263e-05)
(0.0670825 -1.86375e-26 -5.14109e-05)
(0.067074 4.42666e-31 -5.25647e-05)
(0.0670657 4.19815e-31 -5.33775e-05)
(0.0670568 -3.02274e-31 -5.36109e-05)
(0.0670478 -3.50736e-31 -5.40849e-05)
(0.0670383 0 -5.39638e-05)
(0.0670284 -2.28532e-31 -5.38151e-05)
(0.0670184 -1.67957e-26 -5.39087e-05)
(0.0670081 0 -5.36529e-05)
(0.0669978 -1.63904e-26 -5.36927e-05)
(0.0669872 0 -5.33368e-05)
(0.0669767 0 -5.33993e-05)
(0.0669662 -3.04304e-31 -5.33336e-05)
(0.0669556 3.68061e-31 -5.35355e-05)
(0.0669453 0 -5.37292e-05)
(0.0669349 0 -5.43039e-05)
(0.0669247 0 -5.47529e-05)
(0.0669143 2.78486e-27 -5.54517e-05)
(0.0669042 3.40261e-27 -5.5711e-05)
(0.0668934 0 -5.60601e-05)
(0.066883 1.5471e-26 -5.71102e-05)
(0.066872 0 -5.72095e-05)
(0.066861 0 -5.80029e-05)
(0.0668496 -2.09508e-26 -5.8302e-05)
(0.0668377 0 -5.89448e-05)
(0.0668256 0 -5.96333e-05)
(0.0668129 0 -5.97335e-05)
(0.0667997 -3.80917e-26 -6.01675e-05)
(0.0667859 0 -6.009e-05)
(0.0667716 4.51624e-26 -6.04988e-05)
(0.0667569 4.77796e-26 -6.06206e-05)
(0.066742 0 -6.09598e-05)
(0.0667265 -4.96126e-26 -6.05396e-05)
(0.0667108 5.55938e-26 -6.08342e-05)
(0.0666949 -2.91056e-31 -6.06609e-05)
(0.0666788 0 -6.10462e-05)
(0.0666629 0 -6.07771e-05)
(0.0666466 2.21479e-31 -6.05253e-05)
(0.0666307 0 -6.03625e-05)
(0.0666147 0 -6.03126e-05)
(0.0665993 0 -6.00165e-05)
(0.0665837 -6.57295e-26 -5.98058e-05)
(0.0665687 0 -5.93684e-05)
(0.0665535 6.04689e-26 -5.87777e-05)
(0.066539 0 -5.8441e-05)
(0.0665243 0 -5.81934e-05)
(0.0665103 6.47963e-26 -5.78436e-05)
(0.0664959 0 -5.71492e-05)
(0.0664823 0 -5.71648e-05)
(0.0664686 0 -5.57329e-05)
(0.0664552 0 -5.53628e-05)
(0.0664424 0 -5.46533e-05)
(0.0664294 2.88311e-31 -5.31563e-05)
(0.0664169 0 -5.24282e-05)
(0.0664044 4.13934e-26 -5.128e-05)
(0.0663923 0 -5.02546e-05)
(0.0663801 3.50654e-26 -4.90495e-05)
(0.0663681 0 -4.77611e-05)
(0.0663559 -1.56508e-26 -4.67746e-05)
(0.0663441 0 -4.56748e-05)
(0.0663316 1.99263e-31 -4.40852e-05)
(0.0663195 1.68597e-26 -4.38409e-05)
(0.066307 1.57253e-26 -4.27996e-05)
(0.0662943 1.49536e-26 -4.17081e-05)
(0.0662812 0 -4.0892e-05)
(0.066268 0 -4.03759e-05)
(0.0662542 0 -3.95563e-05)
(0.0662404 -2.15132e-26 -3.90526e-05)
(0.0662258 -1.64675e-31 -3.80437e-05)
(0.066211 -2.54239e-26 -3.76364e-05)
(0.0661961 -2.58449e-26 -3.66355e-05)
(0.0661804 2.51735e-26 -3.54231e-05)
(0.0661652 2.96301e-26 -3.49745e-05)
(0.0661495 -2.9034e-31 -3.29179e-05)
(0.0661341 -2.66705e-26 -3.1732e-05)
(0.0661185 0 -2.92625e-05)
(0.0661037 1.73048e-26 -2.66683e-05)
(0.0660886 0 -2.34237e-05)
(0.0660753 6.29253e-27 -2.05609e-05)
(0.0660613 2.86627e-27 -1.58746e-05)
(0.0660497 0 -1.13264e-05)
(0.0660376 0 -5.3984e-06)
(0.0660275 0 2.6055e-06)
(0.0660221 1.19203e-26 9.91297e-06)
(0.0660217 2.67786e-26 1.65984e-05)
(0.0660253 -2.71663e-26 2.15987e-05)
(0.0660318 7.81009e-31 2.68974e-05)
(0.0660413 0 3.0812e-05)
(0.066052 6.64216e-31 3.47294e-05)
(0.0660652 0 3.80322e-05)
(0.0660793 5.93245e-31 4.09425e-05)
(0.066095 -6.68927e-26 4.29005e-05)
(0.0661113 0 4.48568e-05)
(0.0661285 0 4.60422e-05)
(0.0661457 0 4.72292e-05)
(0.0661631 0 4.79264e-05)
(0.0661801 1.18653e-25 4.85098e-05)
(0.0661969 1.10891e-25 4.87869e-05)
(0.0662128 0 4.90306e-05)
(0.0662282 0 4.88096e-05)
(0.0662424 -8.92174e-26 4.869e-05)
(0.066256 -3.78193e-31 4.85888e-05)
(0.0662682 0 4.81421e-05)
(0.0662798 0 4.72094e-05)
(0.0662898 -8.29747e-32 4.64768e-05)
(0.0662995 -2.53816e-26 4.56819e-05)
(0.066308 0 4.45797e-05)
(0.0663165 0 4.36805e-05)
(0.0663245 1.96871e-26 4.30345e-05)
(0.0663327 -1.51943e-32 4.16293e-05)
(0.0663406 -2.01383e-26 4.12476e-05)
(0.0663494 -3.61798e-33 3.99239e-05)
(0.066358 0 3.99076e-05)
(0.0663679 2.36474e-26 3.88523e-05)
(0.0663775 0 3.88508e-05)
(0.066389 -2.73397e-26 3.80089e-05)
(0.0663998 -3.68148e-26 3.90989e-05)
(0.0664137 -1.53082e-31 3.86044e-05)
(0.0664259 -4.11082e-26 4.04886e-05)
(0.0664429 0 3.96348e-05)
(0.0664553 0 4.26754e-05)
(0.0664763 -3.53766e-26 4.34288e-05)
(0.0664885 0 4.34258e-05)
(0.0665118 -1.37702e-25 5.31325e-05)
(0.0665293 0 4.03491e-05)
(0.0665459 -2.35582e-25 7.79949e-05)
(0.066589 -8.61553e-30 1.71497e-05)
(0.0665606 0 0.000144015)
(0.0666995 1.28375e-29 -5.18068e-05)
(0.06655 6.23206e-24 0.000263869)
(0.0669011 0 -0.000196594)
(0.0665421 -2.18943e-23 0.000402882)
(0.0671985 -2.40461e-23 -0.000431721)
(0.066539 0 0.000526068)
(0.0675689 -2.6004e-27 -0.000761276)
(0.066546 1.28688e-27 0.000568124)
(0.067947 6.9409e-27 -0.00116343)
(0.0665792 7.50588e-28 0.000423259)
(0.0681961 0 -0.00157092)
(0.0666737 1.40761e-27 -4.98e-05)
(0.0682642 0 -0.0020709)
(0.0669113 0 -0.00110205)
(0.0686076 0 -0.00368035)
(0.0674244 1.81946e-21 -0.00400607)
(0.0691548 9.66127e-26 -0.00965978)
(0.06725 0 -0.0165495)
(0.0436922 2.8144e-26 -8.72403e-05)
(0.0377216 -2.87659e-24 -7.54846e-05)
(0.0307537 -2.38922e-28 -6.1575e-05)
(0.0303572 6e-23 -6.06142e-05)
(0.0308411 0 -6.16822e-05)
(0 0 0)
(0 0 0)
(0 0 0)
(0 0 0)
(0 0 0)
)
;

boundaryField
{
    inlet
    {
        type            calculated;
        value           uniform (0 0 0);
    }
    endWall
    {
        type            calculated;
        value           uniform (0 0 0);
    }
    sideWall
    {
        type            empty;
    }
}


// ************************************************************************* //
