/*--------------------------------*- C++ -*----------------------------------*\
| =========                 |                                                 |
| \\      /  F ield         | foam-extend: Open Source CFD                    |
|  \\    /   O peration     | Version:     3.2                                |
|   \\  /    A nd           | Web:         http://www.foam-extend.org         |
|    \\/     M anipulation  | For copyright notice see file Copyright         |
\*---------------------------------------------------------------------------*/
FoamFile
{
    version     2.0;
    format      ascii;
    class       areaScalarField;
    location    "1440";
    object      Uf2;
}
// * * * * * * * * * * * * * * * * * * * * * * * * * * * * * * * * * * * * * //

dimensions      [0 1 -1 0 0 0 0];

internalField   nonuniform List<scalar> 
550
(
0.0377038
0.0372817
0.0366408
0.0359413
0.0352343
0.0345168
0.0338493
0.0331888
0.0325783
0.0319761
0.0313939
0.0308312
0.0303325
0.0298206
0.0293257
0.0288773
0.028432
0.0279951
0.0275927
0.0272049
0.0268366
0.0264806
0.0261346
0.0258106
0.0255014
0.0252062
0.0249267
0.0246641
0.0244209
0.0241883
0.0239669
0.023756
0.0235554
0.0233687
0.0231923
0.0230274
0.0228707
0.0227191
0.0225817
0.0224502
0.0223225
0.0222087
0.0220994
0.0219929
0.0218959
0.0218043
0.021718
0.0216364
0.0215591
0.0214886
0.0214227
0.0213559
0.0212943
0.0212369
0.0211816
0.0211302
0.0210799
0.0210317
0.0209944
0.0209364
0.0209084
0.0208668
0.0208613
0.0208076
0.0207471
0.0206728
0.0206705
0.0206832
0.0206704
0.0205804
0.0205563
0.0206083
0.0206223
0.0205396
0.0204501
0.0203994
0.0203519
0.0203273
0.0204429
0.0204612
0.0203558
0.020235
0.0201826
0.020119
0.0201252
0.020231
0.020236
0.0201022
0.0201211
0.0203214
0.0203705
0.0202365
0.0201026
0.0200105
0.0200439
0.0201871
0.0202508
0.0201494
0.0200455
0.0200153
0.0200128
0.0199984
0.0199807
0.0199429
0.0199437
0.0200497
0.0201268
0.02005
0.0199572
0.0199045
0.0199221
0.0199228
0.0198925
0.0198535
0.0199113
0.0198661
0.0198833
0.0198447
0.0198191
0.0197415
0.0198298
0.0196457
0.0195928
0.0199215
0.0199651
0.0200544
0.0200947
0.0201401
0.0201704
0.0201974
0.0202163
0.0202295
0.0202336
0.0202365
0.0202138
0.0202184
0.0201744
0.0200537
0.0200532
0.0201211
0.0200088
0.0200262
0.0201181
0.0201222
0.0201383
0.020147
0.0201575
0.0201579
0.0201608
0.0201503
0.0201484
0.0201254
0.0201396
0.0200908
0.0201258
0.0200496
0.0201105
0.0200304
0.0200824
0.0200148
0.0200075
0.0199592
0.0199098
0.0198772
0.0198314
0.0198094
0.0197941
0.019705
0.019705
0.0192259
0.0187398
0.0191681
0.0190947
0.0191252
0.0191156
0.0190989
0.0191019
0.0190797
0.0190862
0.0190661
0.0190738
0.019057
0.0190652
0.0190512
0.0190597
0.019048
0.0190558
0.0190466
0.0190528
0.0190472
0.0190519
0.0190487
0.0190524
0.0190529
0.0190555
0.0190579
0.0190594
0.0190624
0.0190639
0.019066
0.0190674
0.0190691
0.0190707
0.0190716
0.0190728
0.0190737
0.0190744
0.019075
0.0190759
0.0190766
0.0190774
0.0190778
0.0190786
0.019079
0.0190793
0.0190799
0.0190801
0.01908
0.0190802
0.0190802
0.0190802
0.0190806
0.0190802
0.0190806
0.0190799
0.0190818
0.0190802
0.0190831
0.0190811
0.0190848
0.0190828
0.019086
0.0190844
0.0190873
0.0190855
0.0190878
0.0190867
0.019088
0.0190872
0.0190882
0.0190876
0.0190886
0.0190873
0.0190897
0.0190878
0.0190905
0.019088
0.0190911
0.0190881
0.0190918
0.0190881
0.0190924
0.0190881
0.0190928
0.019088
0.0190929
0.0190877
0.0190926
0.0190867
0.0190908
0.0190845
0.0190894
0.0190827
0.0190872
0.01908
0.0190841
0.0190767
0.0190807
0.0190726
0.0190769
0.0190682
0.0190721
0.0190641
0.0190656
0.0190591
0.0190573
0.0190537
0.0190463
0.0190468
0.0190336
0.0190385
0.0190208
0.0190286
0.0190081
0.0190167
0.0189978
0.0190049
0.0189875
0.0189927
0.0189765
0.0189804
0.0189654
0.0189679
0.018954
0.0189551
0.0189425
0.0189428
0.018931
0.0189307
0.0189199
0.0189188
0.0189086
0.0189068
0.0188979
0.0188958
0.0188877
0.0188854
0.0188781
0.0188755
0.0188692
0.018867
0.0188616
0.0188597
0.0188549
0.0188532
0.0188499
0.0188484
0.0188459
0.018845
0.0188434
0.0188428
0.0188414
0.0188414
0.0188407
0.0188405
0.0188402
0.0188402
0.0188401
0.0188407
0.0188409
0.0188414
0.0188418
0.0188427
0.0188433
0.0188443
0.0188457
0.0188472
0.018849
0.018851
0.0188535
0.0188559
0.0188589
0.018862
0.0188658
0.0188696
0.0188739
0.0188782
0.018883
0.0188879
0.0188932
0.0188983
0.0189053
0.0189137
0.0189222
0.0189307
0.0189391
0.0189475
0.0189559
0.0189642
0.0189725
0.0189807
0.0189889
0.0189971
0.0190053
0.0190134
0.0190216
0.0190296
0.0190377
0.0190457
0.0190537
0.0190616
0.0190694
0.0190771
0.0190846
0.019092
0.0190992
0.0191061
0.0191129
0.0191195
0.0191258
0.019132
0.019138
0.0191437
0.0191491
0.0191544
0.0191593
0.019164
0.0191684
0.0191726
0.0191767
0.0191805
0.0191841
0.0191875
0.0191908
0.0191939
0.0191968
0.0191996
0.0192022
0.0192047
0.019207
0.0192092
0.0192112
0.0192131
0.0192146
0.0192161
0.0192175
0.0192185
0.0192195
0.0192203
0.0192209
0.0192213
0.0192217
0.019222
0.019222
0.0192216
0.0192212
0.0192211
0.0192205
0.0192201
0.0192194
0.0192189
0.0192182
0.0192172
0.0192167
0.0192161
0.0192155
0.0192147
0.019214
0.0192132
0.0192124
0.0192116
0.0192109
0.0192101
0.0192094
0.0192087
0.0192079
0.0192071
0.0192063
0.0192055
0.0192049
0.0192041
0.0192031
0.0192026
0.0192021
0.0192015
0.0192008
0.0192004
0.0192001
0.0192
0.0192001
0.0192005
0.0192013
0.0192017
0.0192023
0.0192031
0.019204
0.0192051
0.0192063
0.0192076
0.0192091
0.0192106
0.0192123
0.019214
0.0192158
0.0192177
0.0192197
0.0192217
0.0192238
0.019226
0.0192284
0.0192309
0.0192336
0.0192362
0.0192392
0.019242
0.0192449
0.0192482
0.0192518
0.0192552
0.0192592
0.0192632
0.0192672
0.0192715
0.0192759
0.0192804
0.0192851
0.0192898
0.0192947
0.0192997
0.0193049
0.0193101
0.0193156
0.019321
0.0193265
0.0193321
0.0193377
0.0193433
0.0193496
0.0193557
0.0193618
0.0193683
0.0193749
0.0193815
0.0193884
0.0193952
0.0194019
0.0194082
0.019415
0.0194215
0.0194286
0.0194356
0.0194425
0.0194489
0.0194557
0.0194595
0.0194735
0.0194658
0.0194953
0.0194688
0.0195279
0.0194612
0.0195777
0.0194535
0.0196382
0.0194667
0.0196882
0.0194901
0.0196965
0.0195141
0.0196254
0.0195245
0.0194529
0.0194872
0.0192564
0.019386
0.0189288
0.0189726
0.0177476
0.0166459
0.00945152
0.00570125
0.00830443
0.00596896
0.00552215
0.002158
0.000732397
0.000643781
0.00195379
0.00338284
0.00418605
)
;

boundaryField
{
    inlet
    {
        type            calculated;
        value           uniform 0;
    }
    endWall
    {
        type            calculated;
        value           uniform 0;
    }
    sideWall
    {
        type            empty;
    }
}


// ************************************************************************* //
