/*--------------------------------*- C++ -*----------------------------------*\
| =========                 |                                                 |
| \\      /  F ield         | foam-extend: Open Source CFD                    |
|  \\    /   O peration     | Version:     3.2                                |
|   \\  /    A nd           | Web:         http://www.foam-extend.org         |
|    \\/     M anipulation  | For copyright notice see file Copyright         |
\*---------------------------------------------------------------------------*/
FoamFile
{
    version     2.0;
    format      ascii;
    class       areaVectorField;
    location    "1440";
    object      uNormal;
}
// * * * * * * * * * * * * * * * * * * * * * * * * * * * * * * * * * * * * * //

dimensions      [0 0 0 0 0 0 0];

internalField   nonuniform List<vector> 
550
(
(0.002 0 0.999998)
(0.002 0 0.999998)
(0.00199999 7.27914e-20 0.999998)
(0.00200002 -7.27918e-20 0.999998)
(0.00199996 -7.27918e-20 0.999998)
(0.00200001 0 0.999998)
(0.00199994 7.2791e-20 0.999998)
(0.002 7.2791e-20 0.999998)
(0.00200011 0 0.999998)
(0.00199994 0 0.999998)
(0.00247271 0 0.999997)
(0.002 0 0.999998)
(0.00152722 0 0.999999)
(0.00237984 0 0.999997)
(0.002 7.2791e-20 0.999998)
(0.00162023 0 0.999999)
(0.00226449 0 0.999997)
(0.0022333 0 0.999998)
(0.00193581 7.2791e-20 0.999998)
(0.00195088 0 0.999998)
(0.00179963 0 0.999998)
(0.00196282 7.2791e-20 0.999998)
(0.002 7.2791e-20 0.999998)
(0.00185298 0 0.999998)
(0.00200011 7.2795e-20 0.999998)
(0.002 7.2791e-20 0.999998)
(0.00209586 -7.2791e-20 0.999998)
(0.00199967 0 0.999998)
(0.00190463 0 0.999998)
(0.00199978 0 0.999998)
(0.00199989 0 0.999998)
(0.00207457 -7.2791e-20 0.999998)
(0.00207127 0 0.999998)
(0.00199428 -7.2791e-20 0.999998)
(0.00199483 0 0.999998)
(0.00193113 0 0.999998)
(0.00199593 0 0.999998)
(0.00206028 7.2791e-20 0.999998)
(0.00193763 0 0.999998)
(0.00199758 0 0.999998)
(0.00205533 0 0.999998)
(0.00194268 7.2795e-20 0.999998)
(0.00199758 0 0.999998)
(0.00205148 7.2791e-20 0.999998)
(0.00199703 0 0.999998)
(0.00199813 0 0.999998)
(0.00199769 -7.2795e-20 0.999998)
(0.00199758 0 0.999998)
(0.00199868 0 0.999998)
(0.00195248 -7.2791e-20 0.999998)
(0.00195413 0 0.999998)
(0.00204323 7.2791e-20 0.999998)
(0.00199989 0 0.999998)
(0.00199923 0 0.999998)
(0.00199978 7.2791e-20 0.999998)
(0.00199835 0 0.999998)
(0.00200055 0 0.999998)
(0.0020341 7.2759e-20 0.999998)
(0.00185197 -7.2799e-20 0.999998)
(0.00230034 0 0.999997)
(0.00154831 7.27991e-20 0.999999)
(0.00234425 0 0.999997)
(0.00177136 0 0.999998)
(0.00231528 0 0.999997)
(0.00163916 -7.27991e-20 0.999999)
(0.00227901 7.2799e-20 0.999997)
(0.00154901 0 0.999999)
(0.00247389 7.2799e-20 0.999997)
(0.00173318 0 0.999998)
(0.00222934 7.2799e-20 0.999998)
(0.00134886 0 0.999999)
(0.00261422 7.27989e-20 0.999997)
(0.00209566 0 0.999998)
(0.00195921 0 0.999998)
(0.00168172 0 0.999999)
(0.00193863 0 0.999998)
(0.0018748 7.2799e-20 0.999998)
(0.00220463 0 0.999998)
(0.00187586 0 0.999998)
(0.00300741 -1.45518e-19 0.999995)
(0.000983602 0 1)
(0.00156218 0 0.999999)
(0.00200214 7.2799e-20 0.999998)
(0.00229736 0 0.999997)
(0.00174539 -7.27991e-20 0.999998)
(0.00254908 7.27589e-20 0.999997)
(0.00205805 0 0.999998)
(0.0017655 7.27991e-20 0.999998)
(0.00152666 0 0.999999)
(0.00256987 7.27989e-20 0.999997)
(0.00252287 -7.27589e-20 0.999997)
(0.000951286 0 1)
(0.00151652 0 0.999999)
(0.00311205 0 0.999995)
(0.00142716 0 0.999999)
(0.00245056 -7.2799e-20 0.999997)
(0.00223697 0 0.999997)
(0.00133244 -3.63996e-20 0.999999)
(0.00172276 0 0.999999)
(0.00289758 -1.45598e-19 0.999996)
(0.0019676 0 0.999998)
(0.00194742 0 0.999998)
(0.00164344 0 0.999999)
(0.00180595 0 0.999998)
(0.00126279 3.63996e-20 0.999999)
(0.00299712 -1.45598e-19 0.999996)
(0.00284931 0 0.999996)
(0.00125503 0 0.999999)
(0.00137052 -3.63996e-20 0.999999)
(0.00285697 0 0.999996)
(0.000792482 0 1)
(0.00293008 0 0.999996)
(0.00269249 0 0.999996)
(0.00106884 0 0.999999)
(-0.000359214 -9.0999e-21 1)
(0.00292123 1.45598e-19 0.999996)
(-6.84764e-05 0 1)
(0.00303607 0 0.999995)
(0.00107574 0 0.999999)
(0.0020151 0 0.999998)
(-0.00223664 7.2799e-20 0.999997)
(0.00473411 1.45597e-19 0.999989)
(-0.0109165 0 0.99994)
(-0.00955056 0 0.999954)
(-0.00823978 0 0.999966)
(-0.00802438 2.91187e-19 0.999968)
(-0.00711047 0 0.999975)
(-0.0070172 0 0.999975)
(-0.00597874 0 0.999982)
(-0.0058108 -2.91032e-19 0.999983)
(-0.00466672 -1.45597e-19 0.999989)
(-0.00439309 0 0.99999)
(-0.0031669 1.45598e-19 0.999995)
(-0.00279699 0 0.999996)
(-0.00139144 0 0.999999)
(-0.00170353 0 0.999999)
(0.00120196 0 0.999999)
(0.00144173 0 0.999999)
(-0.00310532 0 0.999995)
(-0.00151853 0 0.999999)
(-0.000414114 0 1)
(-0.00585795 -2.91192e-19 0.999983)
(-0.00448428 0 0.99999)
(-0.00435487 0 0.999991)
(-0.00372213 0 0.999993)
(-0.0039034 0 0.999992)
(-0.00325496 0 0.999995)
(-0.00328155 0 0.999995)
(-0.00254823 7.27989e-20 0.999997)
(-0.0024925 7.27989e-20 0.999997)
(-0.00187719 7.2799e-20 0.999998)
(-0.00170208 0 0.999999)
(-0.00153518 0 0.999999)
(-0.000755411 -3.63996e-20 1)
(-0.00166412 0 0.999999)
(0.000618233 0 1)
(-0.00262504 -7.27589e-20 0.999997)
(0.00260103 0 0.999997)
(-0.00297378 1.45598e-19 0.999996)
(0.00543768 0 0.999985)
(-0.00185272 0 0.999998)
(0.00745681 2.91189e-19 0.999972)
(-0.000350423 0 1)
(0.00836204 0 0.999965)
(0.000901673 0 1)
(0.00951005 0 0.999955)
(0.00363972 0 0.999993)
(0.0143545 5.82013e-19 0.999897)
(0.0108492 2.9118e-19 0.999941)
(0.0284284 0 0.999596)
(0.00375211 0 0.999993)
(-0.000714801 1.81998e-20 1)
(0.00468677 0 0.999989)
(0.000700699 0 1)
(0.00403129 0 0.999992)
(0.000712687 0 1)
(0.00327767 0 0.999995)
(0.000538731 1.81998e-20 1)
(0.00259223 -7.27589e-20 0.999997)
(0.000366825 0 1)
(0.00201347 -7.2799e-20 0.999998)
(0.000226611 0 1)
(0.00153997 0 0.999999)
(0.000128558 0 1)
(0.00113836 0 0.999999)
(6.74448e-05 0 1)
(0.000812358 0 1)
(3.5997e-05 0 1)
(0.000540705 1.81998e-20 1)
(-2.41473e-06 0 1)
(0.000309328 9.0999e-21 1)
(-2.78594e-05 0 1)
(8.77481e-05 2.27497e-21 1)
(-0.000127493 0 1)
(-4.22886e-05 0 1)
(-0.000232612 0 1)
(-0.000112155 0 1)
(-0.000297709 0 1)
(-0.00015075 0 1)
(-0.000329858 -9.0999e-21 1)
(-0.000180041 0 1)
(-0.00035795 0 1)
(-0.000194608 -9.0999e-21 1)
(-0.00035342 0 1)
(-0.000196468 -9.0999e-21 1)
(-0.00035797 -9.0999e-21 1)
(-0.000189942 0 1)
(-0.000355814 0 1)
(-0.000196583 0 1)
(-0.000353049 9.0999e-21 1)
(-0.000185653 9.0999e-21 1)
(-0.000329602 0 1)
(-0.00017499 0 1)
(-0.000303498 0 1)
(-0.000147764 -4.54995e-21 1)
(-0.000290678 -9.0999e-21 1)
(-0.000110484 4.54995e-21 1)
(-0.000246493 0 1)
(-8.45653e-05 0 1)
(-0.000215446 -9.0999e-21 1)
(-5.6585e-05 0 1)
(-0.000195197 0 1)
(-1.3553e-05 0 1)
(-0.000173706 0 1)
(3.42295e-06 1.42186e-22 1)
(-0.000183236 9.0999e-21 1)
(4.25492e-05 1.13749e-21 1)
(-0.000207001 0 1)
(8.66069e-05 0 1)
(-0.000243455 0 1)
(0.000153104 4.54995e-21 1)
(-0.00026244 0 1)
(0.000219406 0 1)
(-0.0002681 -9.09489e-21 1)
(0.000300375 0 1)
(-0.000280009 0 1)
(0.000368496 0 1)
(-0.000270202 -9.0999e-21 1)
(0.000413852 1.81998e-20 1)
(-0.00026823 0 1)
(0.000441455 0 1)
(-0.000263268 0 1)
(0.000468366 0 1)
(-0.000297505 0 1)
(0.000529335 -1.81898e-20 1)
(-0.00031894 0 1)
(0.00060138 0 1)
(-0.000345888 0 1)
(0.000689026 0 1)
(-0.000378245 0 1)
(0.000795975 0 1)
(-0.000413298 0 1)
(0.000923109 3.63996e-20 1)
(-0.000452854 0 1)
(0.00106616 0 0.999999)
(-0.000497229 0 1)
(0.00122342 3.63996e-20 0.999999)
(-0.00052794 0 1)
(0.00140972 0 0.999999)
(-0.000550647 0 1)
(0.00156935 0 0.999999)
(-0.000606456 1.81898e-20 1)
(0.00175541 7.27991e-20 0.999998)
(-0.000643438 1.81998e-20 1)
(0.00195024 -7.2799e-20 0.999998)
(-0.000692347 0 1)
(0.00213674 0 0.999998)
(-0.000735627 -3.63996e-20 1)
(0.00233787 -7.2799e-20 0.999997)
(-0.000795726 0 1)
(0.00256072 -7.27989e-20 0.999997)
(-0.000863694 3.63996e-20 1)
(0.00280725 7.27589e-20 0.999996)
(-0.000874002 0 1)
(0.00303459 -1.45598e-19 0.999995)
(-0.000846149 0 1)
(0.00323397 0 0.999995)
(-0.00072979 0 1)
(0.0033345 1.45598e-19 0.999994)
(-0.000536749 0 1)
(0.00330711 0 0.999995)
(-0.000271105 0 1)
(0.0031944 -1.45598e-19 0.999995)
(3.76534e-05 0 1)
(0.00299159 0 0.999996)
(0.000309445 -9.0999e-21 1)
(0.00283846 0 0.999996)
(0.0005597 0 1)
(0.0027262 0 0.999996)
(0.000781931 -3.63996e-20 1)
(0.00262 0 0.999997)
(0.000976597 -3.63996e-20 1)
(0.0025381 0 0.999997)
(0.0011522 -3.63996e-20 0.999999)
(0.00246717 0 0.999997)
(0.00129246 0 0.999999)
(0.00240583 0 0.999997)
(0.00141536 0 0.999999)
(0.00235371 0 0.999997)
(0.00151681 0 0.999999)
(0.00231279 0 0.999997)
(0.00160815 7.27991e-20 0.999999)
(0.00227314 0 0.999997)
(0.00166838 -7.27991e-20 0.999999)
(0.00223459 -7.2799e-20 0.999998)
(0.00171598 0 0.999999)
(0.0021986 7.2799e-20 0.999998)
(0.00175139 0 0.999998)
(0.00216176 -7.2799e-20 0.999998)
(0.00175846 7.27991e-20 0.999998)
(0.00210481 0 0.999998)
(0.00175867 7.27991e-20 0.999998)
(0.00203762 0 0.999998)
(0.00174751 7.27991e-20 0.999998)
(0.00195309 0 0.999998)
(0.00170929 0 0.999999)
(0.00186894 0 0.999998)
(0.00165982 0 0.999999)
(0.0017815 -7.27991e-20 0.999998)
(0.00160198 7.27991e-20 0.999999)
(0.00170376 -7.27991e-20 0.999999)
(0.00154185 0 0.999999)
(0.00161355 0 0.999999)
(0.00148157 0 0.999999)
(0.00154311 0 0.999999)
(0.0014209 0 0.999999)
(0.00146895 0 0.999999)
(0.00135489 -3.63795e-20 0.999999)
(0.001382 3.63996e-20 0.999999)
(0.00129152 0 0.999999)
(0.00130859 0 0.999999)
(0.0012196 -3.63996e-20 0.999999)
(0.00121865 -3.63795e-20 0.999999)
(0.00114304 0 0.999999)
(0.0011287 0 0.999999)
(0.00105007 3.63996e-20 0.999999)
(0.0010303 0 0.999999)
(0.000953383 -3.63996e-20 1)
(0.000922513 -3.63796e-20 1)
(0.000846524 -3.63996e-20 1)
(0.000808077 3.63996e-20 1)
(0.000729954 3.63996e-20 1)
(0.000684895 0 1)
(0.000605214 -1.81898e-20 1)
(0.000551556 0 1)
(0.000474153 0 1)
(0.000415468 0 1)
(0.000335002 -9.0999e-21 1)
(0.000265426 0 1)
(0.000175601 4.54745e-21 1)
(0.000100141 0 1)
(-3.97281e-05 1.13749e-21 1)
(-0.000160351 0 1)
(-0.000246145 9.0999e-21 1)
(-0.000326109 0 1)
(-0.000386168 1.81998e-20 1)
(-0.000455672 -1.81998e-20 1)
(-0.00050275 0 1)
(-0.000558562 0 1)
(-0.000605338 0 1)
(-0.000653767 0 1)
(-0.000693322 -1.81998e-20 1)
(-0.000741368 0 1)
(-0.000774758 0 1)
(-0.000815128 3.63996e-20 1)
(-0.000847714 -3.63796e-20 1)
(-0.000881735 -3.63996e-20 1)
(-0.000908623 0 1)
(-0.000940944 0 1)
(-0.00096352 0 1)
(-0.000985907 0 1)
(-0.00100069 3.63796e-20 0.999999)
(-0.00101771 0 0.999999)
(-0.00102251 0 0.999999)
(-0.00103368 0 0.999999)
(-0.00103809 3.63996e-20 0.999999)
(-0.00104137 0 0.999999)
(-0.00104146 -3.63996e-20 0.999999)
(-0.0010428 0 0.999999)
(-0.00103145 3.63996e-20 0.999999)
(-0.00102421 -3.63996e-20 0.999999)
(-0.00101221 3.63996e-20 0.999999)
(-0.000997594 3.63796e-20 1)
(-0.000984343 3.63996e-20 1)
(-0.000970777 0 1)
(-0.000947846 0 1)
(-0.000934635 0 1)
(-0.000911722 -3.63796e-20 1)
(-0.000901065 0 1)
(-0.000881176 0 1)
(-0.000860611 -3.63996e-20 1)
(-0.000844499 -3.63996e-20 1)
(-0.000827323 0 1)
(-0.000811813 3.63796e-20 1)
(-0.000795533 -3.63996e-20 1)
(-0.000782109 -3.63996e-20 1)
(-0.000758282 0 1)
(-0.000747153 0 1)
(-0.000722729 0 1)
(-0.000711531 1.81998e-20 1)
(-0.00068522 0 1)
(-0.000679445 -1.81998e-20 1)
(-0.000653108 -1.81998e-20 1)
(-0.000633728 1.81998e-20 1)
(-0.00062385 0 1)
(-0.000605364 0 1)
(-0.000580637 0 1)
(-0.000567584 1.81998e-20 1)
(-0.000542544 0 1)
(-0.000525417 0 1)
(-0.000501474 0 1)
(-0.000491447 0 1)
(-0.000469249 0 1)
(-0.000442509 -1.81998e-20 1)
(-0.000420058 0 1)
(-0.000414927 0 1)
(-0.00039326 1.81998e-20 1)
(-0.000372856 1.81998e-20 1)
(-0.000355786 0 1)
(-0.000333265 0 1)
(-0.000324636 0 1)
(-0.000299706 -9.0999e-21 1)
(-0.000275042 0 1)
(-0.000274533 0 1)
(-0.000249423 0 1)
(-0.000234781 -9.0999e-21 1)
(-0.000212404 -9.09489e-21 1)
(-0.000197044 9.0999e-21 1)
(-0.000177441 0 1)
(-0.000164669 0 1)
(-0.000148153 4.54995e-21 1)
(-0.000139524 -4.54745e-21 1)
(-0.000124688 0 1)
(-0.000118821 0 1)
(-0.000109854 0 1)
(-0.000106709 -4.54995e-21 1)
(-0.000103148 4.54995e-21 1)
(-0.000101393 0 1)
(-0.000104423 0 1)
(-0.000107297 4.54995e-21 1)
(-9.35018e-05 4.54995e-21 1)
(-0.000100691 -4.54995e-21 1)
(-0.000109659 0 1)
(-0.000119481 -4.54995e-21 1)
(-0.000113672 0 1)
(-0.00012745 0 1)
(-0.000139085 0 1)
(-0.000153562 -4.54995e-21 1)
(-0.000169506 0 1)
(-0.000182682 0 1)
(-0.000202147 0 1)
(-0.000216629 -9.0999e-21 1)
(-0.00021084 -9.0999e-21 1)
(-0.000225161 9.09489e-21 1)
(-0.000237802 9.0999e-21 1)
(-0.000247272 0 1)
(-0.000258167 0 1)
(-0.000268413 9.0999e-21 1)
(-0.000276079 0 1)
(-0.000284401 0 1)
(-0.00029444 9.0999e-21 1)
(-0.000301493 9.0999e-21 1)
(-0.000310049 0 1)
(-0.000317609 0 1)
(-0.000330031 0 1)
(-0.000338619 -9.0999e-21 1)
(-0.000354374 -9.0999e-21 1)
(-0.000365849 1.81998e-20 1)
(-0.000383864 1.81998e-20 1)
(-0.000399052 -1.81998e-20 1)
(-0.000418869 0 1)
(-0.000434484 0 1)
(-0.000453975 0 1)
(-0.000472061 1.81998e-20 1)
(-0.000486781 0 1)
(-0.000501286 0 1)
(-0.000541084 0 1)
(-0.00054886 0 1)
(-0.000560978 -1.81998e-20 1)
(-0.000595472 0 1)
(-0.000599395 0 1)
(-0.00061094 0 1)
(-0.000635492 0 1)
(-0.00064444 -1.81998e-20 1)
(-0.000668888 1.81998e-20 1)
(-0.000680206 0 1)
(-0.000702747 0 1)
(-0.000712417 0 1)
(-0.000734536 0 1)
(-0.000745183 0 1)
(-0.000769024 0 1)
(-0.000781705 0 1)
(-0.000807742 0 1)
(-0.000821185 0 1)
(-0.000850939 0 1)
(-0.000860899 0 1)
(-0.000895184 3.63996e-20 1)
(-0.000927203 0 1)
(-0.000932148 3.63996e-20 1)
(-0.000962362 -3.63996e-20 1)
(-0.000985955 -3.63996e-20 1)
(-0.0010124 -3.63996e-20 0.999999)
(-0.00103024 0 0.999999)
(-0.00105689 0 0.999999)
(-0.00107168 0 0.999999)
(-0.00107082 3.63996e-20 0.999999)
(-0.00108544 0 0.999999)
(-0.00110871 3.63996e-20 0.999999)
(-0.0011278 0 0.999999)
(-0.00115611 3.63996e-20 0.999999)
(-0.00118903 0 0.999999)
(-0.00118507 0 0.999999)
(-0.00123974 0 0.999999)
(-0.0012328 -3.63996e-20 0.999999)
(-0.00128972 0 0.999999)
(-0.00130917 3.63996e-20 0.999999)
(-0.00127192 0 0.999999)
(-0.00152254 7.27991e-20 0.999999)
(-0.00111299 0 0.999999)
(-0.00208833 -7.2759e-20 0.999998)
(-0.00048077 -1.81998e-20 1)
(-0.00364037 0 0.999993)
(0.001355 0 0.999999)
(-0.00643235 2.91191e-19 0.999979)
(0.00496241 0 0.999988)
(-0.00935875 0 0.999956)
(0.0105173 0 0.999945)
(-0.011415 0 0.999935)
(0.0178777 0 0.99984)
(-0.0109758 0 0.99994)
(0.0262019 0 0.999657)
(-0.00578265 0 0.999983)
(0.0336062 0 0.999435)
(0.0055143 0 0.999985)
(0.0460037 1.16355e-18 0.998941)
(0.0288449 -1.1643e-18 0.999584)
(0.0803345 0 0.996768)
(0.0915523 0 0.9958)
(0.193638 0 0.981073)
(0.325629 8.81042e-18 0.945498)
(0.0019967 0 0.999998)
(0.0020011 7.2759e-20 0.999998)
(0.0020022 0 0.999998)
(0.0019967 -7.2799e-20 0.999998)
(0.0020022 0 0.999998)
(0.0019967 -7.2799e-20 0.999998)
(0.0020022 -7.2799e-20 0.999998)
(0.0020011 0 0.999998)
(0.0019967 0 0.999998)
(0.0020022 -7.2799e-20 0.999998)
)
;

boundaryField
{
    inlet
    {
        type            calculated;
        value           uniform (0 0 0);
    }
    endWall
    {
        type            calculated;
        value           uniform (0 0 0);
    }
    sideWall
    {
        type            empty;
    }
}


// ************************************************************************* //
