/*--------------------------------*- C++ -*----------------------------------*\
| =========                 |                                                 |
| \\      /  F ield         | foam-extend: Open Source CFD                    |
|  \\    /   O peration     | Version:     3.2                                |
|   \\  /    A nd           | Web:         http://www.foam-extend.org         |
|    \\/     M anipulation  | For copyright notice see file Copyright         |
\*---------------------------------------------------------------------------*/
FoamFile
{
    version     2.0;
    format      ascii;
    class       areaVectorField;
    location    "1440";
    object      Utau;
}
// * * * * * * * * * * * * * * * * * * * * * * * * * * * * * * * * * * * * * //

dimensions      [0 1 -1 0 0 0 0];

internalField   nonuniform List<vector> 
550
(
(0.0700379 0 -0.000140076)
(0.0823039 1.15031e-29 -0.000164608)
(0.0951067 -2.46729e-23 -0.000190213)
(0.108163 2.90356e-23 -0.000216329)
(0.121127 3.44426e-23 -0.00024225)
(0.133644 4.69432e-29 -0.00026729)
(0.145414 -4.10566e-23 -0.00029082)
(0.156171 -4.2409e-23 -0.000312342)
(0.165751 0 -0.000331521)
(0.174039 -3.32715e-29 -0.000348068)
(0.180996 -1.16505e-28 -0.000447553)
(0.186647 0 -0.000373294)
(0.191111 5.77566e-30 -0.00029187)
(0.194448 0 -0.000462757)
(0.196777 -4.70168e-23 -0.000393553)
(0.198258 0 -0.000321223)
(0.198994 0 -0.000450621)
(0.199096 0 -0.000444642)
(0.198703 -3.4498e-23 -0.000384652)
(0.197947 0 -0.000386172)
(0.196906 0 -0.00035436)
(0.195641 -2.85855e-23 -0.000384009)
(0.194199 -2.68181e-23 -0.000388397)
(0.192636 0 -0.000356952)
(0.190994 -2.33152e-23 -0.00038201)
(0.189308 -2.1388e-23 -0.000378615)
(0.187606 1.99612e-23 -0.000393197)
(0.185923 0 -0.000371785)
(0.184287 1.87686e-30 -0.000350998)
(0.182698 0 -0.000365355)
(0.181157 1.20306e-29 -0.000362294)
(0.179671 1.56549e-23 -0.000372742)
(0.178242 -1.20702e-29 -0.00036919)
(0.176879 1.38876e-23 -0.000352746)
(0.175582 1.24993e-29 -0.000350256)
(0.174354 -6.09877e-30 -0.000336701)
(0.173192 1.94791e-29 -0.000345679)
(0.172091 -1.15598e-23 -0.000354555)
(0.171056 0 -0.000331442)
(0.170082 0 -0.000339752)
(0.169162 0 -0.000347684)
(0.168303 -8.36418e-24 -0.00032696)
(0.167498 0 -0.00033459)
(0.166739 -7.67831e-24 -0.000342062)
(0.166029 0 -0.000331565)
(0.165364 0 -0.000330419)
(0.164742 5.70042e-24 -0.000329103)
(0.164159 1.77912e-29 -0.000327921)
(0.163613 0 -0.000327009)
(0.163103 3.85686e-24 -0.000318456)
(0.162628 0 -0.000317797)
(0.16218 -3.45702e-24 -0.00033137)
(0.161757 0 -0.000323497)
(0.161361 1.36796e-29 -0.000322597)
(0.160987 -2.10577e-24 -0.000321938)
(0.160635 0 -0.000321006)
(0.160303 -9.94952e-30 -0.000320694)
(0.159987 -1.60856e-24 -0.000325431)
(0.159698 7.02169e-25 -0.000295758)
(0.159409 0 -0.000366695)
(0.159154 -1.10263e-24 -0.00024642)
(0.158894 0 -0.000372489)
(0.158658 0 -0.000281042)
(0.158415 3.70946e-29 -0.000366777)
(0.158196 -8.3555e-24 -0.000259309)
(0.157971 -7.96059e-25 -0.000360019)
(0.15777 -3.38514e-27 -0.000244388)
(0.157563 -1.58031e-23 -0.000389795)
(0.157371 -3.90712e-27 -0.000272753)
(0.157176 8.33078e-24 -0.000350399)
(0.157001 -6.71044e-27 -0.000211772)
(0.15682 -2.71399e-23 -0.000409963)
(0.156643 0 -0.000328271)
(0.15647 0 -0.000306559)
(0.156304 -3.1663e-27 -0.000262859)
(0.156147 2.6072e-27 -0.000302713)
(0.156003 -1.74383e-24 -0.000292475)
(0.155838 0 -0.000343567)
(0.155704 1.37838e-26 -0.000292078)
(0.155543 -5.94146e-25 -0.000467785)
(0.155403 5.95661e-27 -0.000152855)
(0.155277 -6.5804e-27 -0.000242571)
(0.155149 4.37915e-24 -0.00031063)
(0.15501 0 -0.000356115)
(0.154882 2.70512e-23 -0.000270329)
(0.154751 -4.20387e-23 -0.000394473)
(0.154617 0 -0.00031821)
(0.15449 3.46716e-24 -0.000272752)
(0.154373 0 -0.000235676)
(0.154249 -6.14506e-23 -0.000396402)
(0.154106 5.47941e-24 -0.000388792)
(0.153987 -5.9462e-27 -0.000146485)
(0.153894 0 -0.000233384)
(0.153777 -9.15033e-27 -0.000478563)
(0.153672 1.53678e-27 -0.000219316)
(0.153565 4.17516e-23 -0.000376321)
(0.153435 0 -0.000343231)
(0.153314 -2.10336e-23 -0.000204282)
(0.153216 0 -0.000263954)
(0.153098 5.7016e-24 -0.000443617)
(0.152975 0 -0.000300994)
(0.152861 -2.21742e-27 -0.000297685)
(0.152746 -1.52125e-27 -0.00025103)
(0.152626 0 -0.000275634)
(0.152522 -9.41899e-24 -0.000192604)
(0.152412 1.05572e-22 -0.000456798)
(0.152276 0 -0.000433884)
(0.15215 0 -0.000190953)
(0.152048 -1.4677e-23 -0.000208385)
(0.151906 0 -0.000433994)
(0.151791 0 -0.000120292)
(0.151668 0 -0.000444402)
(0.151516 0 -0.000407956)
(0.151348 0 -0.000161767)
(0.151261 -1.77667e-24 5.43349e-05)
(0.15112 2.07528e-24 -0.000441458)
(0.15102 0 1.03413e-05)
(0.15087 0 -0.000458055)
(0.150722 0 -0.000162139)
(0.1505 -5.23381e-29 -0.000303274)
(0.150406 3.8406e-24 0.000336405)
(0.150071 -4.1449e-23 -0.000710461)
(0.149712 0 0.00163443)
(0.149827 0 0.00143099)
(0.149952 0 0.00123562)
(0.150142 2.63844e-23 0.00120483)
(0.150325 0 0.00106891)
(0.150511 3.4931e-29 0.00105619)
(0.150682 0 0.000900905)
(0.150839 -7.92772e-24 0.000876508)
(0.150976 1.22032e-25 0.00070457)
(0.151092 -5.57912e-29 0.000663768)
(0.151181 -3.6319e-24 0.000478779)
(0.151247 0 0.000423039)
(0.151267 0 0.000210479)
(0.151278 -3.80498e-29 0.000257708)
(0.151227 0 -0.000181769)
(0.151034 0 -0.00021775)
(0.150874 0 0.000468515)
(0.150824 0 0.000229031)
(0.150644 0 6.2384e-05)
(0.150512 -3.93933e-23 0.000881707)
(0.150513 0 0.000674949)
(0.150517 0 0.000655487)
(0.150534 0 0.000560312)
(0.150554 0 0.000587676)
(0.150578 0 0.000490128)
(0.150595 0 0.000494187)
(0.150608 -9.24522e-25 0.000383785)
(0.150602 -6.25443e-25 0.000375378)
(0.150593 -1.50282e-24 0.000282692)
(0.150554 0 0.000256255)
(0.150536 0 0.000231101)
(0.150462 8.66349e-25 0.00011366)
(0.15044 -3.79014e-29 0.000250351)
(0.15033 -2.53205e-29 -9.29388e-05)
(0.150312 -3.33524e-24 0.000394577)
(0.150199 0 -0.000390673)
(0.15017 1.31738e-23 0.000446576)
(0.150063 0 -0.000816005)
(0.149969 0 0.000277852)
(0.149829 -5.94143e-23 -0.00111728)
(0.149664 0 5.24457e-05)
(0.149483 -2.81199e-27 -0.00125003)
(0.149291 0 -0.000134612)
(0.149099 0 -0.001418)
(0.148933 0 -0.000542079)
(0.148672 -9.24558e-23 -0.00213433)
(0.148457 -7.25713e-23 -0.00161074)
(0.147637 0 -0.00419878)
(0.146503 -3.25972e-27 -0.0005497)
(0.146094 6.35092e-24 0.000104428)
(0.145684 0 -0.000682795)
(0.145401 -1.49932e-28 -0.000101882)
(0.145163 0 -0.0005852)
(0.144956 0 -0.000103309)
(0.144795 0 -0.000474593)
(0.144641 7.72571e-25 -7.79226e-05)
(0.144526 2.09496e-24 -0.000374646)
(0.14441 0 -5.29734e-05)
(0.144327 1.50679e-24 -0.0002906)
(0.144241 0 -3.26865e-05)
(0.144181 0 -0.000222034)
(0.144115 0 -1.85272e-05)
(0.144072 -3.74224e-29 -0.000164006)
(0.144022 0 -9.71355e-06)
(0.143991 0 -0.000116972)
(0.143954 -3.66141e-30 -5.18191e-06)
(0.143931 1.18197e-26 -7.78241e-05)
(0.143904 0 3.47489e-07)
(0.143887 3.15634e-26 -4.45085e-05)
(0.143869 0 4.0081e-06)
(0.143857 1.61263e-26 -1.26232e-05)
(0.143847 0 1.83395e-05)
(0.14384 0 6.0828e-06)
(0.143836 0 3.3458e-05)
(0.143833 -3.99437e-31 1.61316e-05)
(0.143832 0 4.28202e-05)
(0.143832 0 2.16827e-05)
(0.143833 -7.79528e-26 4.74443e-05)
(0.143833 -1.53812e-30 2.58959e-05)
(0.143835 1.57257e-30 5.14857e-05)
(0.143836 -3.29913e-26 2.79918e-05)
(0.143838 0 5.08352e-05)
(0.143839 -2.92229e-26 2.82599e-05)
(0.143841 -5.77387e-26 5.14907e-05)
(0.143843 -1.84424e-30 2.73217e-05)
(0.143844 0 5.11818e-05)
(0.143846 1.78303e-30 2.82777e-05)
(0.143849 4.97052e-26 5.07856e-05)
(0.143852 1.74097e-26 2.67065e-05)
(0.143854 1.29685e-30 4.74147e-05)
(0.143858 -1.73066e-30 2.51737e-05)
(0.143861 1.15338e-30 4.36615e-05)
(0.143864 -7.77907e-27 2.12579e-05)
(0.143868 -4.08385e-26 4.18194e-05)
(0.143872 3.24931e-27 1.58956e-05)
(0.143876 1.19367e-30 3.54645e-05)
(0.14388 8.82413e-31 1.21672e-05)
(0.143884 -3.55511e-26 3.09992e-05)
(0.143888 0 8.14187e-06)
(0.143892 -6.45229e-31 2.80873e-05)
(0.143896 0 1.95022e-06)
(0.1439 0 2.49962e-05)
(0.143903 6.79963e-29 -4.92573e-07)
(0.143909 5.11999e-26 2.63692e-05)
(0.143912 7.12604e-29 -6.12335e-06)
(0.14392 0 2.97915e-05)
(0.143924 3.53501e-31 -1.24648e-05)
(0.143933 0 3.50411e-05)
(0.143938 -1.4759e-26 -2.20375e-05)
(0.143948 0 3.77776e-05)
(0.143954 -2.24837e-30 -3.15844e-05)
(0.143965 -9.13691e-26 3.85968e-05)
(0.143972 5.30302e-30 -4.32456e-05)
(0.143982 0 4.03163e-05)
(0.143991 -6.01896e-30 -5.306e-05)
(0.144001 -1.0642e-25 3.89093e-05)
(0.14401 -1.58883e-25 -5.95989e-05)
(0.144021 0 3.86307e-05)
(0.144031 0 -6.35832e-05)
(0.144043 0 3.79218e-05)
(0.144053 0 -6.74694e-05)
(0.144066 0 4.28603e-05)
(0.144077 1.97762e-25 -7.62648e-05)
(0.144091 -7.70079e-30 4.59563e-05)
(0.144102 1.70026e-29 -8.66599e-05)
(0.144117 0 4.98483e-05)
(0.144128 0 -9.93081e-05)
(0.144144 0 5.45218e-05)
(0.144155 0 -0.000114744)
(0.144171 0 5.95857e-05)
(0.144182 -6.9524e-25 -0.000133096)
(0.144198 0 6.53007e-05)
(0.144208 0 -0.000153749)
(0.144224 0 7.17123e-05)
(0.144233 -9.26461e-25 -0.000176457)
(0.144248 1.59241e-29 7.61542e-05)
(0.144255 0 -0.000203359)
(0.144268 0 7.94406e-05)
(0.144273 0 -0.000226414)
(0.144284 6.14002e-25 8.75023e-05)
(0.144288 -2.66112e-24 -0.000253285)
(0.144298 6.63553e-25 9.28468e-05)
(0.144299 2.97295e-24 -0.000281419)
(0.144307 -2.39949e-29 9.99105e-05)
(0.144307 2.08404e-28 -0.000308347)
(0.144313 -1.55735e-24 0.00010616)
(0.14431 3.54797e-24 -0.00033738)
(0.144315 0 0.000114835)
(0.144311 3.89787e-24 -0.000369541)
(0.144314 1.86364e-24 0.000124643)
(0.144309 -4.29774e-24 -0.000405113)
(0.144309 -3.33478e-29 0.000126126)
(0.144303 9.25047e-24 -0.000437903)
(0.144298 3.50637e-29 0.000122098)
(0.144292 0 -0.000466639)
(0.14428 -1.78348e-29 0.000105294)
(0.144273 -9.85901e-24 -0.000481082)
(0.144254 0 7.74282e-05)
(0.144247 2.80435e-28 -0.000477043)
(0.144222 3.21986e-29 3.90993e-05)
(0.144214 8.41705e-24 -0.000460678)
(0.144185 5.70191e-29 -5.42905e-06)
(0.144175 0 -0.000431314)
(0.144146 -3.29812e-25 -4.46054e-05)
(0.144134 0 -0.000409121)
(0.144106 -8.35647e-29 -8.06564e-05)
(0.144092 -1.58432e-28 -0.000392826)
(0.144064 -9.30928e-25 -0.000112648)
(0.144048 0 -0.000377407)
(0.14402 -7.75352e-25 -0.000140649)
(0.144002 0 -0.000365492)
(0.143973 -6.37642e-25 -0.000165886)
(0.143953 9.68451e-29 -0.000355157)
(0.143923 0 -0.000186016)
(0.143901 0 -0.000346204)
(0.143871 0 -0.00020363)
(0.143848 0 -0.000338576)
(0.143817 0 -0.000218144)
(0.143793 0 -0.000332563)
(0.143762 4.79727e-25 -0.000231191)
(0.143736 0 -0.000326732)
(0.143705 -3.66894e-25 -0.000239754)
(0.143678 8.18248e-25 -0.000321064)
(0.143648 0 -0.000246498)
(0.143622 -7.26854e-25 -0.000315766)
(0.143592 0 -0.000251487)
(0.143566 6.19579e-25 -0.000310356)
(0.143538 1.51945e-25 -0.000252407)
(0.143514 0 -0.00030207)
(0.143488 1.18575e-25 -0.000252348)
(0.143465 0 -0.000292328)
(0.143441 1.61035e-25 -0.000250665)
(0.14342 -1.65854e-29 -0.000280112)
(0.143399 -1.68051e-29 -0.00024511)
(0.14338 0 -0.000267969)
(0.143362 0 -0.000237955)
(0.143345 4.77677e-26 -0.00025537)
(0.143329 2.14243e-25 -0.000229612)
(0.143315 3.52893e-27 -0.000244175)
(0.143301 0 -0.000220949)
(0.143289 0 -0.000231205)
(0.143278 0 -0.000212276)
(0.143267 0 -0.000221077)
(0.143258 0 -0.000203555)
(0.143249 0 -0.000210425)
(0.14324 -1.33121e-25 -0.000194076)
(0.143233 7.4238e-26 -0.000197948)
(0.143227 -3.28133e-30 -0.00018498)
(0.143221 0 -0.000187418)
(0.143216 -1.26859e-25 -0.000174666)
(0.143212 -9.74668e-26 -0.000174526)
(0.143209 2.9869e-30 -0.000163693)
(0.143207 1.04168e-30 -0.000161637)
(0.143206 1.36793e-25 -0.000150377)
(0.143207 0 -0.000147546)
(0.143208 -1.54952e-25 -0.000136532)
(0.143211 -1.45779e-25 -0.000132114)
(0.143216 -1.8743e-25 -0.000121236)
(0.143221 1.71221e-25 -0.000115734)
(0.143229 2.05469e-25 -0.000104551)
(0.143238 0 -9.8103e-05)
(0.143249 -1.17271e-25 -8.66963e-05)
(0.143261 -1.46933e-30 -7.90167e-05)
(0.143276 1.68314e-30 -6.79346e-05)
(0.143291 0 -5.95329e-05)
(0.143308 -6.68257e-26 -4.80086e-05)
(0.143327 0 -3.80428e-05)
(0.143348 3.58722e-26 -2.5172e-05)
(0.143369 0 -1.43571e-05)
(0.143394 1.28986e-26 5.69678e-06)
(0.143423 0 2.29981e-05)
(0.143455 9.88671e-26 3.53108e-05)
(0.14349 0 4.67933e-05)
(0.143526 1.79578e-25 5.54251e-05)
(0.143564 -1.85697e-25 6.54179e-05)
(0.143602 1.49337e-30 7.21961e-05)
(0.143642 0 8.0233e-05)
(0.143683 0 8.69766e-05)
(0.143724 0 9.39619e-05)
(0.143766 -1.67603e-25 9.96759e-05)
(0.143808 3.29605e-30 0.000106615)
(0.143851 0 0.00011145)
(0.143894 3.34275e-25 0.000117292)
(0.143937 -3.26081e-25 0.000122018)
(0.143981 -3.25927e-25 0.000126953)
(0.144024 -2.631e-30 0.000130864)
(0.144068 -2.72779e-30 0.00013556)
(0.144112 0 0.000138854)
(0.144155 0 0.000142123)
(0.144198 2.91873e-25 0.000144297)
(0.144241 -2.15359e-30 0.000146795)
(0.144283 0 0.00014753)
(0.144324 -1.84093e-30 0.000149185)
(0.144364 2.47749e-25 0.000149863)
(0.144403 0 0.000150376)
(0.144441 -2.21595e-25 0.00015043)
(0.144478 -1.3272e-30 0.000150662)
(0.144514 1.91888e-25 0.000149059)
(0.144548 -1.82209e-25 0.000148048)
(0.144582 1.70715e-25 0.000146347)
(0.144615 1.57068e-25 0.000144267)
(0.144646 1.49441e-25 0.000142381)
(0.144676 -4.43837e-31 0.000140448)
(0.144705 0 0.000137158)
(0.144733 0 0.000135272)
(0.144759 -9.99308e-26 0.00013198)
(0.144785 3.64989e-31 0.00013046)
(0.144809 0 0.000127602)
(0.144832 -8.28973e-26 0.000124644)
(0.144855 -8.28339e-26 0.00012233)
(0.144876 0 0.00011986)
(0.144897 7.60576e-26 0.00011763)
(0.144917 -7.26115e-26 0.000115287)
(0.144937 -7.92381e-26 0.000113357)
(0.144956 3.5132e-31 0.000109918)
(0.144974 3.80054e-32 0.000108318)
(0.144992 0 0.00010479)
(0.145008 3.58227e-26 0.000103178)
(0.145023 0 9.93731e-05)
(0.145038 -3.40212e-26 9.85452e-05)
(0.145051 -2.35695e-26 9.47338e-05)
(0.145062 2.02881e-26 9.19297e-05)
(0.145072 0 9.05032e-05)
(0.145081 1.87009e-31 8.78267e-05)
(0.145088 -3.01166e-31 8.42434e-05)
(0.145094 1.05137e-26 8.23529e-05)
(0.145098 0 7.87223e-05)
(0.145102 2.47655e-31 7.6239e-05)
(0.145104 -3.51438e-31 7.27659e-05)
(0.145105 0 7.13115e-05)
(0.145106 0 6.80908e-05)
(0.145105 2.30542e-26 6.42105e-05)
(0.145104 0 6.09522e-05)
(0.145103 -1.15803e-31 6.0207e-05)
(0.145101 -1.80059e-26 5.70625e-05)
(0.1451 -2.4778e-26 5.41012e-05)
(0.145098 2.04582e-31 5.16238e-05)
(0.145096 2.34827e-31 4.83556e-05)
(0.145095 1.37265e-31 4.7103e-05)
(0.145093 9.11475e-27 4.34854e-05)
(0.145091 0 3.99062e-05)
(0.14509 0 3.9832e-05)
(0.145089 2.83101e-31 3.61885e-05)
(0.145088 8.86797e-28 3.40637e-05)
(0.145086 1.219e-27 3.0817e-05)
(0.145085 6.83608e-29 2.85881e-05)
(0.145083 0 2.57437e-05)
(0.145081 0 2.38903e-05)
(0.145079 1.53293e-27 2.1494e-05)
(0.145077 -2.72397e-27 2.02417e-05)
(0.145074 0 1.8089e-05)
(0.145071 0 1.72375e-05)
(0.145068 4.73755e-32 1.59363e-05)
(0.145065 -3.70267e-27 1.54797e-05)
(0.145061 3.83517e-27 1.49628e-05)
(0.145058 -1.38772e-32 1.47079e-05)
(0.145055 0 1.51471e-05)
(0.145053 5.54618e-27 1.55637e-05)
(0.145051 3.39619e-27 1.35625e-05)
(0.145049 -4.71951e-27 1.4605e-05)
(0.145047 0 1.59057e-05)
(0.145046 -6.96922e-27 1.73302e-05)
(0.145045 1.7438e-32 1.64876e-05)
(0.145044 0 1.84859e-05)
(0.145044 5.59998e-32 2.01734e-05)
(0.145044 -7.81104e-27 2.22733e-05)
(0.145046 0 2.45862e-05)
(0.145048 0 2.64978e-05)
(0.145052 0 2.93217e-05)
(0.145056 -2.23271e-26 3.14234e-05)
(0.145061 -1.74568e-26 3.05847e-05)
(0.145067 2.08667e-26 3.26635e-05)
(0.145075 2.26009e-26 3.4499e-05)
(0.145083 1.39425e-31 3.58749e-05)
(0.145091 0 3.74578e-05)
(0.145101 2.47775e-26 3.89471e-05)
(0.145112 0 4.00622e-05)
(0.145123 0 4.12731e-05)
(0.145135 2.56859e-26 4.27335e-05)
(0.145147 2.54493e-26 4.37609e-05)
(0.145161 0 4.50069e-05)
(0.145174 0 4.61086e-05)
(0.145189 1.98797e-31 4.79168e-05)
(0.145204 -2.4411e-26 4.91688e-05)
(0.145219 -2.58217e-26 5.1462e-05)
(0.145236 5.03608e-26 5.31343e-05)
(0.145253 5.46427e-26 5.57574e-05)
(0.145271 -5.50788e-26 5.79707e-05)
(0.14529 6.04896e-31 6.08575e-05)
(0.14531 0 6.31348e-05)
(0.145331 0 6.59765e-05)
(0.145353 6.14619e-26 6.86156e-05)
(0.145377 5.07977e-31 7.07666e-05)
(0.145401 0 7.28877e-05)
(0.145428 0 7.86888e-05)
(0.145456 -4.88996e-31 7.98351e-05)
(0.145486 -7.93217e-26 8.16144e-05)
(0.145517 0 8.66514e-05)
(0.14555 4.48342e-31 8.72419e-05)
(0.145584 0 8.89428e-05)
(0.145618 0 9.25393e-05)
(0.145654 -1.06683e-25 9.38653e-05)
(0.145691 1.16937e-25 9.74507e-05)
(0.145728 0 9.91249e-05)
(0.145766 0 0.000102437)
(0.145805 0 0.000103874)
(0.145844 1.66754e-30 0.000107127)
(0.145883 -1.3589e-30 0.00010871)
(0.145922 0 0.000112218)
(0.145962 0 0.000114099)
(0.146002 0 0.000117932)
(0.146042 0 0.000119928)
(0.146082 0 0.000124307)
(0.146123 -1.40216e-30 0.000125797)
(0.146164 3.0532e-25 0.000130844)
(0.146207 0 0.000135563)
(0.14625 3.00487e-25 0.000136327)
(0.146294 -3.30191e-25 0.000140788)
(0.146338 -3.3687e-25 0.000144283)
(0.146384 -3.50875e-25 0.0001482)
(0.14643 0 0.000150858)
(0.146478 0 0.000154811)
(0.146525 0 0.000157028)
(0.146573 3.34892e-25 0.000156953)
(0.146621 0 0.000159148)
(0.146668 3.54887e-25 0.000162613)
(0.146715 0 0.000165465)
(0.146762 3.67823e-25 0.000169673)
(0.146808 -2.61107e-30 0.000174559)
(0.146855 1.51147e-30 0.000174033)
(0.1469 0 0.000182118)
(0.146945 -2.52334e-25 0.000181155)
(0.146987 0 0.000189573)
(0.147037 1.85345e-25 0.000192496)
(0.14707 3.05613e-30 0.000187061)
(0.147131 6.5608e-25 0.000224012)
(0.147149 0 0.000163775)
(0.147233 -1.21087e-24 0.000307471)
(0.147224 1.59552e-25 7.07807e-05)
(0.147353 0 0.000536421)
(0.147313 0 -0.000199609)
(0.147497 4.29638e-23 0.00094877)
(0.147447 0 -0.000731703)
(0.147663 0 0.001382)
(0.147606 0 -0.0015525)
(0.147802 -6.6778e-27 0.00168728)
(0.147733 0 -0.00264155)
(0.147832 0 0.00162268)
(0.147741 0 -0.00387243)
(0.147659 0 0.000853875)
(0.147518 0 -0.0049603)
(0.147257 -8.24849e-27 -0.000812033)
(0.146977 -8.50368e-22 -0.00676864)
(0.146368 -8.40493e-23 -0.00422373)
(0.145393 1.32063e-25 -0.011718)
(0.143109 0 -0.0131572)
(0.137533 0 -0.0271454)
(0.118667 -1.16818e-19 -0.0408689)
(0.107694 1.71808e-25 -0.000215032)
(0.0997456 8.29684e-24 -0.000199601)
(0.0907292 0 -0.000181658)
(0.0832724 3.3342e-22 -0.00016627)
(0.0710387 0 -0.000142234)
(0.0610873 -1.46257e-22 -0.000121973)
(-0.0529316 5.15665e-22 0.00010598)
(-0.0547972 0 0.000109655)
(-0.0689633 0 0.000137699)
(-0.0865538 -1.0285e-21 0.000173298)
)
;

boundaryField
{
    inlet
    {
        type            calculated;
        value           uniform (0 0 0);
    }
    endWall
    {
        type            calculated;
        value           uniform (0 0 0);
    }
    sideWall
    {
        type            empty;
    }
}


// ************************************************************************* //
