/*--------------------------------*- C++ -*----------------------------------*\
| =========                 |                                                 |
| \\      /  F ield         | foam-extend: Open Source CFD                    |
|  \\    /   O peration     | Version:     3.2                                |
|   \\  /    A nd           | Web:         http://www.foam-extend.org         |
|    \\/     M anipulation  | For copyright notice see file Copyright         |
\*---------------------------------------------------------------------------*/
FoamFile
{
    version     2.0;
    format      ascii;
    class       areaScalarField;
    location    "910";
    object      zCo;
}
// * * * * * * * * * * * * * * * * * * * * * * * * * * * * * * * * * * * * * //

dimensions      [0 1 0 0 0 0 0];

internalField   nonuniform List<scalar> 
550
(
-1.81818e-05
-5.45454e-05
-9.09091e-05
-0.000127273
-0.000163636
-0.0002
-0.000236364
-0.000272727
-0.000309091
-0.000345454
-0.000381818
-0.000418182
-0.000454546
-0.000490909
-0.000527273
-0.000563637
-0.0006
-0.000636364
-0.000672727
-0.000709091
-0.000745454
-0.000781818
-0.000818182
-0.000854546
-0.000890909
-0.000927273
-0.000963637
-0.000999999
-0.00103637
-0.00107273
-0.00110909
-0.00114546
-0.00118182
-0.00121818
-0.00125454
-0.00129091
-0.00132727
-0.00136363
-0.0014
-0.00143636
-0.00147273
-0.00150909
-0.00154545
-0.00158182
-0.00161818
-0.00165454
-0.00169091
-0.00172727
-0.00176363
-0.0018
-0.00183636
-0.00187273
-0.00190909
-0.00194545
-0.00198182
-0.00201818
-0.00205455
-0.00209091
-0.00212727
-0.00216364
-0.0022
-0.00223637
-0.00227273
-0.00230909
-0.00234546
-0.00238182
-0.00241818
-0.00245454
-0.00249091
-0.00252727
-0.00256363
-0.0026
-0.00263637
-0.00267273
-0.00270909
-0.00274545
-0.00278182
-0.00281818
-0.00285454
-0.00289091
-0.00292727
-0.00296364
-0.003
-0.00303637
-0.00307273
-0.00310909
-0.00314546
-0.00318182
-0.00321818
-0.00325455
-0.00329091
-0.00332727
-0.00336363
-0.0034
-0.00343636
-0.00347273
-0.00350909
-0.00354546
-0.00358182
-0.00361818
-0.00365454
-0.00369091
-0.00372727
-0.00376363
-0.0038
-0.00383637
-0.00387273
-0.00390909
-0.00394545
-0.00398221
-0.00401941
-0.0040557
-0.00409026
-0.00412561
-0.00416473
-0.00420261
-0.00423465
-0.00427328
-0.00430944
-0.00434139
-0.00438118
-0.00441932
-0.0044524
-0.0044853
-0.00452804
-0.00456784
-0.00459415
-0.00461928
-0.00465732
-0.00470624
-0.00475004
-0.00478396
-0.00481221
-0.00484666
-0.00488324
-0.00491611
-0.00495418
-0.00499903
-0.0050419
-0.00507252
-0.00509058
-0.00512682
-0.00517311
-0.00520676
-0.00524707
-0.00529056
-0.00532876
-0.00536124
-0.00539231
-0.00542889
-0.00546793
-0.0055106
-0.00554401
-0.00556712
-0.00560944
-0.00565761
-0.00568776
-0.00571996
-0.00576332
-0.00580011
-0.00582915
-0.00586065
-0.00589557
-0.00593741
-0.00597815
-0.00600799
-0.00604694
-0.00609308
-0.00612387
-0.00615037
-0.00619125
-0.00623411
-0.00626969
-0.00630447
-0.00633813
-0.00637183
-0.00640946
-0.00645383
-0.00649111
-0.006518
-0.0065499
-0.00658202
-0.00661806
-0.00666051
-0.00670113
-0.00674444
-0.00677844
-0.00680455
-0.00684575
-0.00688871
-0.0069217
-0.00695679
-0.00698392
-0.00700393
-0.007039
-0.0070868
-0.0071307
-0.00716718
-0.00719352
-0.00722177
-0.00726247
-0.00729014
-0.00730478
-0.00732094
-0.00733615
-0.00735404
-0.0073745
-0.00740236
-0.00742801
-0.00745256
-0.00748148
-0.00750551
-0.00753073
-0.00755853
-0.0075843
-0.00756553
-0.00749758
-0.00743521
-0.00738058
-0.00732343
-0.00726816
-0.00721143
-0.00715574
-0.00710011
-0.00704634
-0.0069939
-0.00694394
-0.00689649
-0.00685205
-0.00681124
-0.006774
-0.00674116
-0.00671251
-0.00668843
-0.00666909
-0.00665349
-0.00664332
-0.00663385
-0.00663293
-0.00663918
-0.00664678
-0.00664792
-0.00666823
-0.00669994
-0.0067172
-0.00673079
-0.0067275
-0.00674495
-0.00677899
-0.00679859
-0.00682021
-0.00684336
-0.00686959
-0.0069033
-0.00692462
-0.00693675
-0.00695151
-0.00697205
-0.00699935
-0.0070275
-0.00705231
-0.00708666
-0.00713201
-0.0071805
-0.00722701
-0.00727013
-0.00731293
-0.00735254
-0.00739243
-0.00743312
-0.00746904
-0.00750129
-0.00753165
-0.00755694
-0.00757933
-0.00760076
-0.00761936
-0.00763349
-0.00764624
-0.00765954
-0.00767093
-0.0076785
-0.00768258
-0.00768494
-0.00768718
-0.00768919
-0.00769
-0.00768992
-0.00769024
-0.00769142
-0.00769296
-0.0076941
-0.007695
-0.00769656
-0.00769926
-0.00770268
-0.00770627
-0.0077094
-0.00771195
-0.00771431
-0.00771687
-0.00771998
-0.00772398
-0.00772879
-0.00773422
-0.00774019
-0.00774669
-0.00775367
-0.00776112
-0.00776901
-0.00777732
-0.00778595
-0.00779491
-0.00780414
-0.00781363
-0.00782329
-0.00783298
-0.00784252
-0.00785178
-0.00786059
-0.00786892
-0.00787673
-0.00788402
-0.00789074
-0.00789692
-0.00790249
-0.00790746
-0.00791184
-0.00791561
-0.00791875
-0.00792124
-0.00792303
-0.00792396
-0.00792375
-0.00792244
-0.0079202
-0.00791712
-0.00791331
-0.00790883
-0.00790377
-0.00789815
-0.00789206
-0.0078857
-0.00787923
-0.00787281
-0.00786665
-0.00786105
-0.00785621
-0.0078524
-0.00785009
-0.0078493
-0.00784998
-0.00785272
-0.00785793
-0.00786561
-0.00787584
-0.00788872
-0.00790388
-0.00792118
-0.00794068
-0.00796184
-0.00798465
-0.00800937
-0.00803531
-0.00806174
-0.00808858
-0.00811479
-0.0081391
-0.00816153
-0.00818317
-0.00820525
-0.00822814
-0.00825154
-0.00827513
-0.00829864
-0.00832196
-0.0083449
-0.00836716
-0.00838853
-0.00840884
-0.00842777
-0.00844505
-0.00846081
-0.00847507
-0.00848811
-0.00850042
-0.00851228
-0.00852396
-0.0085357
-0.0085477
-0.00856001
-0.0085726
-0.00858557
-0.00859898
-0.00861276
-0.00862685
-0.00864121
-0.00865571
-0.00867032
-0.00868497
-0.00869959
-0.0087142
-0.00872879
-0.00874335
-0.00875788
-0.00877237
-0.00878685
-0.00880136
-0.00881592
-0.0088306
-0.00884541
-0.00886038
-0.00887549
-0.00889067
-0.00890605
-0.00892159
-0.00893726
-0.00895307
-0.00896902
-0.00898515
-0.00900139
-0.00901771
-0.00903408
-0.00905049
-0.00906698
-0.00908354
-0.00910009
-0.00911663
-0.00913319
-0.00914978
-0.00916639
-0.00918294
-0.00919943
-0.0092159
-0.00923232
-0.00924867
-0.00926494
-0.00928108
-0.0092971
-0.00931304
-0.00932889
-0.00934461
-0.00936024
-0.00937568
-0.00939088
-0.00940593
-0.00942068
-0.00943513
-0.00944933
-0.00946323
-0.00947683
-0.00949009
-0.00950304
-0.00951571
-0.00952801
-0.00954006
-0.00955194
-0.00956352
-0.00957485
-0.009586
-0.00959697
-0.00960775
-0.00961833
-0.00962872
-0.00963892
-0.00964882
-0.00965849
-0.00966782
-0.00967671
-0.00968509
-0.00969278
-0.00969967
-0.00970572
-0.00971074
-0.00971448
-0.00971678
-0.00971717
-0.00971544
-0.00971179
-0.00970653
-0.00969986
-0.00969191
-0.00968289
-0.00967288
-0.00966201
-0.00965048
-0.00963841
-0.00962591
-0.00961309
-0.00960001
-0.00958677
-0.0095734
-0.00955997
-0.00954654
-0.00953316
-0.00951981
-0.00950654
-0.00949346
-0.00948061
-0.00946797
-0.00945559
-0.0094435
-0.00943161
-0.00942
-0.00940865
-0.00939752
-0.00938659
-0.0093758
-0.00936515
-0.00935463
-0.00934407
-0.00933343
-0.00932261
-0.00931165
-0.00930038
-0.0092886
-0.00927673
-0.00926353
-0.00925076
-0.00923458
-0.00922158
-0.00919957
-0.00918697
-0.00915799
-0.00914866
-0.0091203
-0.00912363
-0.00911017
-0.00914071
-0.00916552
-0.00924365
-0.00934159
-0.0094932
-0.00970938
-0.00999193
-0.0104174
-0.011055
-0.012083
-0.0138928
-0.0173995
-0.0196545
-0.0196909
-0.0197273
-0.0197636
-0.0198
-0.0198363
-0.0198727
-0.0199091
-0.0199454
-0.0199818
)
;

boundaryField
{
    inlet
    {
        type            calculated;
        value           uniform 0;
    }
    endWall
    {
        type            calculated;
        value           uniform 0;
    }
    sideWall
    {
        type            empty;
    }
}


// ************************************************************************* //
