/*--------------------------------*- C++ -*----------------------------------*\
| =========                 |                                                 |
| \\      /  F ield         | foam-extend: Open Source CFD                    |
|  \\    /   O peration     | Version:     3.2                                |
|   \\  /    A nd           | Web:         http://www.foam-extend.org         |
|    \\/     M anipulation  | For copyright notice see file Copyright         |
\*---------------------------------------------------------------------------*/
FoamFile
{
    version     2.0;
    format      ascii;
    class       areaScalarField;
    location    "1440";
    object      zDimA;
}
// * * * * * * * * * * * * * * * * * * * * * * * * * * * * * * * * * * * * * //

dimensions      [0 1 0 0 0 0 0];

internalField   nonuniform List<scalar> 
550
(
0.00503636
0.00503637
0.00503636
0.00503637
0.00503637
0.00503636
0.00503637
0.00503636
0.00503636
0.00503638
0.00504438
0.00503694
0.00502836
0.0050422
0.00503684
0.00502993
0.00504037
0.00504066
0.00503555
0.00503544
0.00503291
0.00503548
0.00503632
0.00503388
0.00503618
0.00503636
0.00503799
0.00503647
0.00503474
0.00503624
0.00503636
0.00503763
0.00503766
0.00503636
0.00503627
0.00503519
0.00503621
0.00503738
0.00503538
0.00503624
0.0050373
0.00503546
0.00503625
0.00503723
0.00503638
0.00503633
0.00503632
0.00503632
0.00503634
0.00503556
0.00503553
0.00503704
0.00503641
0.00503635
0.00503636
0.00503634
0.00503637
0.00503695
0.00503389
0.0050412
0.00502888
0.00504099
0.00503131
0.00503817
0.0050251
0.00503215
0.00501746
0.00502913
0.00501555
0.00502153
0.00500573
0.00502431
0.00501429
0.00500678
0.00499532
0.00499157
0.00498088
0.00497404
0.00495686
0.00496148
0.0049149
0.0049123
0.0049113
0.00491311
0.00490103
0.00491335
0.00490782
0.00490392
0.0049028
0.00492393
0.00492838
0.00490562
0.00491736
0.00494924
0.00492649
0.00494521
0.00494611
0.00493377
0.00494295
0.00496686
0.00495545
0.00495698
0.00495497
0.0049603
0.00495429
0.0049856
0.00498779
0.00496347
0.00496629
0.0049945
0.00496344
0.0050001
0.00500133
0.00497542
0.00495964
0.00500622
0.00496251
0.00501148
0.004985
0.00500111
0.00500668
0.00505208
0.00519071
0.00516962
0.00514972
0.0051448
0.00512924
0.00512629
0.00510849
0.00510426
0.00508451
0.00507834
0.00505713
0.00504908
0.00502573
0.0050274
0.00501828
0.00502586
0.00505449
0.00502621
0.00501429
0.00510479
0.00508146
0.0050784
0.00506791
0.0050702
0.00505923
0.00505873
0.00504626
0.00504454
0.00503389
0.00503074
0.00502691
0.00501487
0.00502733
0.00500831
0.00504113
0.00504067
0.00504347
0.00508826
0.00502195
0.00512384
0.00500993
0.00514105
0.0050259
0.00516208
0.00507376
0.00524792
0.00520245
0.00549614
0.00509982
0.00500639
0.00507861
0.00501787
0.00506908
0.00501718
0.00505633
0.00501327
0.00504454
0.00500949
0.0050345
0.00500638
0.00502631
0.0050041
0.00501941
0.00500257
0.00501382
0.00500163
0.00500917
0.00500067
0.00500521
0.00500041
0.00500143
0.00500219
0.00500099
0.00500407
0.00500226
0.0050052
0.00500295
0.00500579
0.00500348
0.00500628
0.00500372
0.0050062
0.00500376
0.00500628
0.00500364
0.00500624
0.00500375
0.00500618
0.00500353
0.00500579
0.00500332
0.00500529
0.00500284
0.00500504
0.00500216
0.00500426
0.00500168
0.00500369
0.00500118
0.00500329
0.00500043
0.00500292
0.00500021
0.00500303
0.00500047
0.00500336
0.00500118
0.0050039
0.00500226
0.00500414
0.00500336
0.00500412
0.00500471
0.00500425
0.00500586
0.00500403
0.00500664
0.00500395
0.0050071
0.00500383
0.00500756
0.00500432
0.00500854
0.00500461
0.00500975
0.00500495
0.00501119
0.00500537
0.00501297
0.0050058
0.00501507
0.00500627
0.00501742
0.00500684
0.00502004
0.00500712
0.00502315
0.0050073
0.00502582
0.00500801
0.0050289
0.00500839
0.00503215
0.00500898
0.00503526
0.00500946
0.00503859
0.0050102
0.00504229
0.00501103
0.0050464
0.00501092
0.0050502
0.0050102
0.00505361
0.00500811
0.00505545
0.00500489
0.00505524
0.00500456
0.00505369
0.00500468
0.0050506
0.00500901
0.00504841
0.00501308
0.00504685
0.00501664
0.0050453
0.00501986
0.00504411
0.00502272
0.00504321
0.00502495
0.00504233
0.00502693
0.00504157
0.00502865
0.00504099
0.0050301
0.00504043
0.00503105
0.00503988
0.00503187
0.00503936
0.0050324
0.00503875
0.00503251
0.00503784
0.00503241
0.00503672
0.00503212
0.0050352
0.00503131
0.00503378
0.00503039
0.0050322
0.00502933
0.00503082
0.0050282
0.00502918
0.00502709
0.00502794
0.00502598
0.00502658
0.00502477
0.00502509
0.00502361
0.00502371
0.00502225
0.00502215
0.00502088
0.00502047
0.00501915
0.00501874
0.00501739
0.00501676
0.00501545
0.00501467
0.00501331
0.00501244
0.00501105
0.00501008
0.00500873
0.00500763
0.00500613
0.00500485
0.00500329
0.00500188
0.00500082
0.00500301
0.00500452
0.005006
0.00500708
0.00500829
0.00500914
0.00501013
0.00501098
0.00501189
0.0050126
0.0050135
0.00501413
0.00501481
0.00501545
0.005016
0.00501654
0.00501706
0.00501751
0.00501794
0.00501818
0.00501849
0.00501854
0.00501876
0.00501887
0.00501894
0.00501887
0.00501887
0.00501867
0.00501853
0.00501837
0.0050181
0.00501781
0.00501759
0.00501721
0.00501688
0.0050165
0.00501628
0.00501598
0.00501559
0.00501526
0.00501498
0.00501473
0.00501444
0.00501412
0.00501371
0.00501349
0.00501307
0.0050129
0.00501243
0.00501227
0.00501178
0.00501149
0.00501126
0.00501095
0.00501047
0.00501023
0.00500983
0.00500952
0.00500903
0.00500883
0.00500843
0.00500795
0.00500755
0.00500744
0.0050071
0.00500671
0.00500643
0.00500601
0.00500582
0.00500538
0.00500495
0.00500491
0.00500447
0.00500419
0.0050038
0.00500352
0.00500316
0.00500293
0.00500264
0.00500248
0.00500221
0.00500211
0.00500195
0.00500189
0.00500182
0.0050018
0.00500185
0.00500188
0.00500166
0.00500179
0.00500196
0.00500212
0.00500203
0.00500228
0.0050025
0.00500275
0.00500305
0.0050033
0.00500365
0.00500389
0.00500381
0.00500406
0.00500428
0.00500445
0.00500466
0.00500483
0.00500498
0.00500514
0.00500531
0.00500544
0.0050056
0.00500573
0.00500596
0.00500612
0.00500641
0.00500662
0.00500694
0.00500723
0.00500759
0.00500787
0.00500822
0.00500856
0.0050088
0.00500913
0.00500979
0.00500995
0.00501018
0.00501078
0.00501086
0.00501108
0.0050115
0.00501169
0.00501212
0.00501234
0.00501274
0.00501293
0.00501331
0.00501352
0.00501393
0.0050142
0.00501466
0.00501491
0.00501543
0.00501565
0.00501625
0.00501682
0.00501693
0.00501747
0.0050179
0.00501838
0.0050187
0.00501919
0.00501942
0.00501944
0.0050197
0.00502012
0.0050205
0.005021
0.00502156
0.00502154
0.00502247
0.00502243
0.00502344
0.00502369
0.00502339
0.0050271
0.00502141
0.00503586
0.00501271
0.00505977
0.00501822
0.00510249
0.00507576
0.00514521
0.00516618
0.0051709
0.00528843
0.00515345
0.00543068
0.00505657
0.00556275
0.00513715
0.00578852
0.00555013
0.00641009
0.00667721
0.00851805
0.0112769
0.00560872
0.00502947
0.00503921
0.0050371
0.0050368
0.0050365
0.0050365
0.0050365
0.0050363
0.0050364
)
;

boundaryField
{
    inlet
    {
        type            calculated;
        value           uniform 0;
    }
    endWall
    {
        type            calculated;
        value           uniform 0;
    }
    sideWall
    {
        type            empty;
    }
}


// ************************************************************************* //
