/*--------------------------------*- C++ -*----------------------------------*\
| =========                 |                                                 |
| \\      /  F ield         | foam-extend: Open Source CFD                    |
|  \\    /   O peration     | Version:     3.2                                |
|   \\  /    A nd           | Web:         http://www.foam-extend.org         |
|    \\/     M anipulation  | For copyright notice see file Copyright         |
\*---------------------------------------------------------------------------*/
FoamFile
{
    version     2.0;
    format      ascii;
    class       volScalarField;
    location    "910";
    object      zDim;
}
// * * * * * * * * * * * * * * * * * * * * * * * * * * * * * * * * * * * * * //

dimensions      [0 1 0 0 0 0 0];

internalField   nonuniform List<scalar> 
33000
(
0.00503636
0.00503637
0.00503636
0.00503637
0.00503637
0.00503636
0.00503637
0.00503636
0.00503636
0.00503637
0.00503636
0.00503636
0.00503637
0.00503636
0.00503637
0.00503637
0.00503636
0.00503637
0.00503636
0.00503636
0.00503637
0.00503636
0.00503636
0.00503637
0.00503636
0.00503636
0.00503637
0.00503636
0.00503637
0.00503636
0.00503636
0.00503637
0.00503636
0.00503636
0.00503637
0.00503636
0.00503636
0.00503637
0.00503636
0.00503637
0.00503636
0.00503636
0.00503637
0.00503636
0.00503636
0.00503637
0.00503636
0.00503636
0.00503637
0.00503636
0.00503637
0.00503636
0.00503636
0.00503637
0.00503636
0.00503636
0.00503637
0.00503636
0.00503636
0.00503637
0.00503636
0.00503637
0.00503636
0.00503636
0.00503637
0.00503636
0.00503636
0.00503637
0.00503636
0.00503636
0.00503637
0.00503636
0.00503637
0.00503636
0.00503636
0.00503637
0.00503636
0.00503636
0.00503637
0.00503636
0.00503636
0.00503637
0.00503636
0.00503637
0.00503636
0.00503636
0.00503637
0.00503636
0.00503636
0.00503637
0.00503636
0.00503636
0.00503637
0.00503636
0.00503637
0.00503636
0.00503636
0.00503637
0.00503636
0.00503636
0.00503637
0.00503636
0.00503636
0.00503637
0.00503636
0.00503637
0.00503636
0.00503636
0.00503637
0.00503708
0.00503724
0.00503539
0.00503379
0.00503646
0.00504063
0.00503414
0.00502895
0.00504478
0.00502429
0.00503558
0.00503734
0.00503268
0.0050267
0.00503024
0.00504317
0.00502431
0.00501538
0.0050179
0.00503613
0.00503675
0.0050249
0.00501403
0.0050102
0.00502156
0.00501253
0.0050124
0.00501854
0.00502329
0.0050128
0.0049976
0.00498665
0.0050296
0.00500823
0.00500786
0.00501804
0.00501393
0.00500814
0.005002
0.00500438
0.00501097
0.00500916
0.00501808
0.0049926
0.00499829
0.00502747
0.00501213
0.0049954
0.00501462
0.00501766
0.00500474
0.00500266
0.00500883
0.00501049
0.0050234
0.00501041
0.00500402
0.00502744
0.00502035
0.00500106
0.00501113
0.00502827
0.0050181
0.0050165
0.00501705
0.00501562
0.005018
0.0050239
0.00503214
0.00501222
0.00501246
0.00502135
0.00501503
0.00502979
0.00502819
0.00502793
0.00503374
0.00501178
0.00501857
0.00503966
0.00502472
0.00502212
0.00502795
0.00500808
0.0050143
0.00503607
0.00504077
0.00503114
0.00502723
0.00501189
0.00502992
0.00503588
0.00500791
0.0050104
0.00500979
0.00500966
0.00501512
0.0050153
0.00502993
0.00501277
0.00502805
0.00502115
0.00501987
0.00502327
0.00502557
0.00502048
0.00505943
0.00507232
0.00504901
0.00505903
0.00505394
0.00505603
0.00505666
0.00505421
0.00505647
0.00505067
0.00505371
0.00504573
0.00504866
0.00503967
0.00504145
0.00503242
0.00503267
0.00502398
0.0050235
0.00501465
0.00501576
0.00500445
0.00501331
0.00501147
0.00500099
0.00501492
0.00500917
0.00504978
0.00501208
0.00502438
0.00500321
0.00500468
0.00503958
0.00502624
0.0050149
0.005028
0.00501807
0.00503397
0.0050324
0.0050119
0.00501355
0.00501557
0.00502471
0.00502896
0.00502718
0.00502286
0.00504453
0.00504469
0.00505188
0.0050414
0.00504528
0.00504034
0.00503931
0.00504042
0.00504086
0.00503161
0.00503334
0.00502761
0.00502362
0.00502153
0.00502143
0.00501612
0.00501275
0.00501293
0.00501354
0.00500946
0.0050062
0.00500241
0.00500252
0.00500193
0.0050021
0.00500045
0.00500029
0.00500028
0.00500189
0.00500108
0.00500121
0.00500055
0.00500244
0.00500279
0.00500392
0.00500324
0.00500309
0.00500207
0.00500258
0.00500242
0.00500367
0.00500416
0.00500526
0.00500546
0.00500632
0.00500648
0.0050073
0.0050075
0.00500821
0.00500832
0.00500886
0.0050089
0.0050094
0.00500947
0.00500978
0.00500956
0.00500956
0.00500896
0.00500863
0.00500804
0.00500764
0.00500695
0.00500652
0.00500584
0.00500528
0.00500469
0.00500412
0.00500348
0.00500288
0.00500217
0.00500147
0.00500045
0.00500085
0.00500177
0.00500279
0.00500351
0.00500422
0.00500475
0.00500533
0.0050059
0.00500627
0.00500642
0.00500645
0.00500633
0.00500583
0.00500518
0.00500426
0.00500307
0.00500127
0.00500002
0.00500138
0.00500377
0.00500624
0.00500874
0.00501138
0.00501398
0.00501594
0.00501834
0.0050203
0.0050217
0.00502366
0.0050255
0.00502614
0.00502657
0.00502697
0.00502551
0.00502332
0.00502168
0.00502166
0.00502247
0.00502315
0.0050235
0.00502363
0.0050234
0.00502321
0.00502263
0.00502188
0.00502091
0.00501982
0.00501815
0.00501654
0.00501508
0.00501357
0.00501263
0.00501199
0.00501165
0.0050116
0.00501172
0.0050121
0.00501234
0.00501271
0.0050131
0.0050136
0.00501384
0.00501418
0.00501444
0.00501454
0.00501462
0.00501461
0.00501453
0.00501458
0.00501455
0.00501451
0.00501445
0.00501449
0.00501442
0.00501449
0.00501458
0.00501475
0.00501481
0.00501499
0.00501509
0.00501519
0.00501547
0.00501552
0.00501573
0.00501583
0.00501599
0.00501618
0.00501624
0.00501633
0.00501634
0.00501643
0.00501648
0.00501657
0.00501648
0.00501654
0.00501651
0.00501661
0.00501655
0.0050165
0.00501644
0.00501644
0.00501636
0.0050163
0.00501619
0.00501604
0.00501594
0.00501588
0.00501579
0.00501561
0.00501561
0.00501524
0.00501512
0.00501494
0.00501455
0.00501433
0.00501403
0.00501376
0.00501343
0.00501307
0.0050128
0.00501252
0.00501207
0.005012
0.00501172
0.00501143
0.0050112
0.00501106
0.00501084
0.0050107
0.00501042
0.00501032
0.00501005
0.00500971
0.00500959
0.00500905
0.00500871
0.00500806
0.00500736
0.00500646
0.00500568
0.00500442
0.00500317
0.00500155
0.00500081
0.00500283
0.00500462
0.00500601
0.00500745
0.00500852
0.00500959
0.00501048
0.00501127
0.00501179
0.00501233
0.00501264
0.00501296
0.00501314
0.00501329
0.00501336
0.00501343
0.00501336
0.00501332
0.00501329
0.00501315
0.0050129
0.0050127
0.00501246
0.00501217
0.00501192
0.00501173
0.00501137
0.00501124
0.0050109
0.00501087
0.0050106
0.00501058
0.0050104
0.00501065
0.00501056
0.00501103
0.00501085
0.00501166
0.00501183
0.00501202
0.00501423
0.0050117
0.00502011
0.00500706
0.00503554
0.00501032
0.0050633
0.00504464
0.00509435
0.00510101
0.00511959
0.00518068
0.00512316
0.00527941
0.00507901
0.00538222
0.00504232
0.00551512
0.00531847
0.0059328
0.00608193
0.00747041
0.00944392
0.00541455
0.0050317
0.00503835
0.0050369
0.00503665
0.00503643
0.00503648
0.00503645
0.00503633
0.00503641
0.00503636
0.00503637
0.00503636
0.00503636
0.00503637
0.00503636
0.00503637
0.00503636
0.00503636
0.00503637
0.00503636
0.00503636
0.00503637
0.00503636
0.00503636
0.00503637
0.00503636
0.00503637
0.00503636
0.00503636
0.00503637
0.00503636
0.00503636
0.00503637
0.00503636
0.00503636
0.00503637
0.00503636
0.00503637
0.00503636
0.00503636
0.00503637
0.00503636
0.00503636
0.00503637
0.00503636
0.00503636
0.00503637
0.00503636
0.00503637
0.00503636
0.00503636
0.00503637
0.00503636
0.00503636
0.00503637
0.00503636
0.00503636
0.00503637
0.00503636
0.00503637
0.00503636
0.00503636
0.00503637
0.00503636
0.00503636
0.00503637
0.00503636
0.00503636
0.00503637
0.00503636
0.00503637
0.00503636
0.00503636
0.00503637
0.00503636
0.00503636
0.00503637
0.00503636
0.00503636
0.00503637
0.00503636
0.00503637
0.00503636
0.00503636
0.00503637
0.00503636
0.00503636
0.00503637
0.00503636
0.00503636
0.00503637
0.00503636
0.00503637
0.00503636
0.00503636
0.00503637
0.00503636
0.00503636
0.00503637
0.00503636
0.00503636
0.00503637
0.00503636
0.00503637
0.00503636
0.00503636
0.00503637
0.00503636
0.00503636
0.00503637
0.00503636
0.00503636
0.00503637
0.00503636
0.00503637
0.00503636
0.00503636
0.00503641
0.00503702
0.00503711
0.00503545
0.00503408
0.00503648
0.00503994
0.00503452
0.00503097
0.00504259
0.00502766
0.00503539
0.00503763
0.00503361
0.00502901
0.00503273
0.00504378
0.00503003
0.00502129
0.00502537
0.00504075
0.0050435
0.00503301
0.005023
0.00502156
0.00502901
0.00502423
0.00502472
0.00503076
0.0050343
0.00502366
0.00500856
0.00500013
0.00503323
0.00501961
0.00502004
0.00502769
0.0050247
0.00501889
0.00501342
0.00501563
0.00502072
0.00502107
0.00502655
0.00500574
0.00501058
0.00503509
0.00502372
0.00500947
0.00502381
0.00502676
0.00501639
0.00501412
0.00501848
0.00502073
0.0050309
0.00501997
0.00501424
0.00503301
0.00502785
0.00501199
0.00502021
0.00503477
0.00502748
0.00502486
0.00502459
0.00502375
0.00502568
0.00503103
0.00503733
0.00502112
0.00502064
0.0050275
0.00502324
0.00503525
0.00503566
0.00503546
0.00503879
0.00502131
0.0050262
0.00504323
0.00503204
0.00502904
0.00503214
0.00501569
0.00502027
0.00503904
0.00504431
0.00503654
0.00503115
0.00501859
0.00503311
0.00503775
0.00501419
0.00501356
0.00501293
0.00501265
0.00501729
0.00501904
0.00503
0.00501769
0.00502829
0.00502346
0.00502146
0.00502382
0.00502538
0.00501609
0.00505582
0.0050698
0.00505179
0.00505807
0.00505458
0.00505599
0.00505652
0.00505473
0.0050559
0.0050513
0.00505263
0.00504636
0.00504759
0.00504032
0.00504034
0.00503287
0.00503169
0.00502433
0.00502255
0.00501515
0.00501448
0.0050058
0.00501019
0.00500817
0.0050019
0.00501159
0.00500199
0.00504154
0.00501621
0.00502191
0.00500437
0.00500045
0.00503429
0.00502654
0.00501671
0.00502607
0.0050199
0.00503237
0.00503118
0.00501388
0.0050135
0.00501588
0.00502401
0.00502832
0.00502689
0.00502449
0.00504236
0.00504496
0.00505041
0.00504255
0.00504458
0.0050407
0.00503944
0.00504034
0.00504022
0.00503259
0.00503285
0.0050279
0.00502388
0.00502174
0.00502111
0.00501637
0.00501309
0.00501296
0.0050132
0.0050096
0.00500624
0.00500275
0.00500246
0.00500192
0.00500188
0.00500015
0.00500018
0.00500032
0.00500161
0.00500109
0.0050011
0.00500062
0.00500221
0.00500271
0.00500365
0.00500319
0.00500296
0.00500216
0.00500244
0.00500242
0.00500349
0.00500411
0.00500506
0.00500543
0.00500619
0.00500645
0.0050071
0.00500742
0.00500803
0.00500827
0.00500874
0.00500887
0.00500925
0.0050094
0.00500962
0.00500944
0.00500945
0.00500892
0.00500849
0.00500798
0.00500757
0.00500689
0.00500646
0.0050058
0.00500521
0.00500461
0.00500402
0.00500339
0.00500278
0.0050021
0.00500139
0.00500039
0.00500079
0.00500173
0.00500273
0.00500339
0.00500408
0.00500463
0.00500527
0.00500581
0.00500615
0.00500626
0.00500633
0.00500612
0.00500566
0.005005
0.00500407
0.00500282
0.00500109
0.00499978
0.00500119
0.00500353
0.00500596
0.00500844
0.0050111
0.00501369
0.00501567
0.00501808
0.00502003
0.00502148
0.00502341
0.00502521
0.00502596
0.00502641
0.00502668
0.0050254
0.00502334
0.00502167
0.00502154
0.00502232
0.00502296
0.0050233
0.00502344
0.00502329
0.00502309
0.00502252
0.00502177
0.00502079
0.00501974
0.0050181
0.00501653
0.00501499
0.00501354
0.00501258
0.00501194
0.00501159
0.00501152
0.00501162
0.00501195
0.0050122
0.00501254
0.00501293
0.00501344
0.0050137
0.00501399
0.00501423
0.00501438
0.00501445
0.00501449
0.00501439
0.0050144
0.00501442
0.00501436
0.00501427
0.00501436
0.00501428
0.00501431
0.00501438
0.0050146
0.00501467
0.00501484
0.00501493
0.00501504
0.00501529
0.00501535
0.00501551
0.00501563
0.00501583
0.005016
0.00501605
0.00501617
0.00501617
0.00501626
0.00501628
0.00501636
0.00501632
0.00501638
0.00501636
0.00501642
0.00501635
0.00501629
0.00501627
0.00501623
0.00501619
0.00501615
0.00501606
0.00501592
0.0050158
0.00501569
0.00501557
0.00501544
0.00501542
0.00501511
0.00501496
0.00501474
0.00501436
0.00501417
0.00501388
0.00501354
0.00501323
0.00501294
0.00501265
0.00501233
0.00501195
0.00501179
0.00501155
0.00501128
0.00501105
0.00501088
0.00501065
0.00501049
0.00501026
0.0050101
0.00500987
0.00500957
0.00500934
0.00500886
0.00500848
0.00500785
0.00500715
0.00500634
0.00500551
0.00500426
0.00500299
0.0050014
0.00500071
0.00500271
0.00500449
0.00500589
0.00500723
0.00500835
0.00500939
0.00501029
0.00501106
0.00501162
0.00501213
0.00501241
0.0050127
0.00501294
0.00501309
0.00501315
0.0050132
0.00501315
0.00501311
0.00501302
0.00501288
0.00501268
0.00501244
0.00501223
0.00501192
0.00501165
0.00501142
0.00501108
0.00501091
0.00501063
0.00501058
0.00501036
0.00501035
0.00501017
0.00501039
0.00501034
0.00501069
0.00501069
0.00501138
0.00501158
0.00501195
0.00501361
0.0050124
0.00501811
0.00501026
0.00502944
0.00500519
0.00504857
0.00502451
0.00506719
0.00506703
0.00507706
0.00513113
0.00506491
0.00521632
0.00502519
0.00531475
0.00510073
0.00545436
0.00536835
0.00587339
0.00612602
0.00739345
0.00901626
0.005832
0.00508518
0.00504906
0.00504125
0.00503872
0.00503758
0.00503709
0.00503683
0.00503657
0.00503649
0.00503636
0.00503633
0.00503639
0.00503635
0.00503632
0.00503638
0.00503635
0.00503641
0.00503637
0.00503634
0.0050364
0.00503636
0.00503633
0.00503639
0.00503635
0.00503632
0.00503638
0.00503635
0.00503641
0.00503637
0.00503634
0.0050364
0.00503636
0.00503633
0.00503639
0.00503635
0.00503632
0.00503638
0.00503635
0.00503641
0.00503637
0.00503634
0.0050364
0.00503636
0.00503633
0.00503639
0.00503635
0.00503632
0.00503638
0.00503635
0.00503641
0.00503637
0.00503634
0.0050364
0.00503636
0.00503633
0.00503639
0.00503635
0.00503632
0.00503638
0.00503635
0.00503641
0.00503637
0.00503634
0.0050364
0.00503636
0.00503633
0.00503639
0.00503635
0.00503632
0.00503638
0.00503635
0.00503641
0.00503637
0.00503634
0.0050364
0.00503636
0.00503633
0.00503639
0.00503635
0.00503632
0.00503638
0.00503635
0.00503641
0.00503637
0.00503634
0.0050364
0.00503636
0.00503633
0.00503639
0.00503635
0.00503632
0.00503638
0.00503635
0.00503641
0.00503637
0.00503634
0.0050364
0.00503636
0.00503633
0.00503639
0.00503635
0.00503632
0.00503638
0.00503635
0.00503641
0.00503637
0.00503634
0.0050364
0.00503636
0.00503633
0.00503639
0.00503635
0.00503632
0.00503638
0.00503635
0.00503641
0.00503637
0.00503644
0.00503701
0.00503694
0.00503546
0.00503442
0.00503644
0.00503905
0.00503477
0.00503258
0.00504059
0.00503082
0.00503565
0.00503784
0.00503443
0.00503119
0.00503525
0.00504453
0.00503584
0.00502904
0.00503486
0.00504902
0.00505291
0.00504329
0.00503537
0.00503636
0.00504166
0.00504007
0.00504205
0.00504926
0.00505201
0.00504092
0.00502526
0.00501824
0.00504133
0.00503456
0.005037
0.0050435
0.00504118
0.00503508
0.00503046
0.00503173
0.00503516
0.00503705
0.00504017
0.00502454
0.0050291
0.00504851
0.00504047
0.00502989
0.00503983
0.00504142
0.00503288
0.00503078
0.00503412
0.00503693
0.00504388
0.00503452
0.00502895
0.00504245
0.00503938
0.00502765
0.00503424
0.00504584
0.00504139
0.00503839
0.00503699
0.00503587
0.00503798
0.00504324
0.00504741
0.00503417
0.00503215
0.0050377
0.00503619
0.00504522
0.0050471
0.00504734
0.00504819
0.00503494
0.00503858
0.00505117
0.00504295
0.00503973
0.00504052
0.00502718
0.00503008
0.00504543
0.00505024
0.00504399
0.00503823
0.00502864
0.00503911
0.00504201
0.00502293
0.00501914
0.00501818
0.00501788
0.0050211
0.00502394
0.00503215
0.00502419
0.00503076
0.00502706
0.00502401
0.00502498
0.00502497
0.00501152
0.00505115
0.0050662
0.00505375
0.00505716
0.00505517
0.0050561
0.00505647
0.00505498
0.00505527
0.00505174
0.0050517
0.00504684
0.00504648
0.00504066
0.00503932
0.0050332
0.0050308
0.00502451
0.00502166
0.00501546
0.00501336
0.00500669
0.00500743
0.0050052
0.0050031
0.00500884
0.00500052
0.0050341
0.00501899
0.00501974
0.00500552
0.00500051
0.00502942
0.00502613
0.0050184
0.00502445
0.00502144
0.00503077
0.00502964
0.00501563
0.00501377
0.00501623
0.00502332
0.00502749
0.00502661
0.00502608
0.00504042
0.00504481
0.00504888
0.00504338
0.00504393
0.00504091
0.00503957
0.00504015
0.00503949
0.00503337
0.00503238
0.00502806
0.00502412
0.00502189
0.00502073
0.00501656
0.00501339
0.00501294
0.0050128
0.00500962
0.00500626
0.00500306
0.00500238
0.00500188
0.0050016
0.00499999
0.00500005
0.00500028
0.00500128
0.00500099
0.0050009
0.00500065
0.00500192
0.00500256
0.00500333
0.00500304
0.00500275
0.00500211
0.00500225
0.00500234
0.00500325
0.00500393
0.00500479
0.00500526
0.00500592
0.00500627
0.00500686
0.00500723
0.00500777
0.00500808
0.00500849
0.00500868
0.00500901
0.00500919
0.00500938
0.00500926
0.00500922
0.00500876
0.0050083
0.0050078
0.00500735
0.00500674
0.00500626
0.00500562
0.00500502
0.00500442
0.00500383
0.00500322
0.00500259
0.00500191
0.00500118
0.00500019
0.00500058
0.00500155
0.0050025
0.00500319
0.00500385
0.00500443
0.00500503
0.00500556
0.00500587
0.005006
0.00500603
0.0050058
0.00500533
0.00500465
0.0050037
0.00500242
0.00500076
0.00499935
0.00500088
0.00500314
0.00500556
0.00500804
0.00501068
0.00501322
0.0050153
0.00501763
0.00501959
0.00502113
0.00502302
0.00502473
0.00502559
0.00502607
0.00502623
0.00502508
0.00502315
0.00502159
0.00502137
0.00502202
0.00502263
0.00502297
0.00502312
0.00502299
0.00502278
0.00502224
0.00502149
0.00502054
0.00501945
0.00501789
0.00501631
0.00501478
0.00501336
0.00501237
0.0050117
0.00501134
0.00501124
0.00501135
0.00501163
0.00501189
0.00501222
0.00501261
0.00501309
0.00501337
0.00501365
0.00501389
0.00501405
0.00501412
0.00501416
0.00501409
0.00501408
0.00501409
0.00501404
0.00501396
0.00501401
0.00501396
0.00501399
0.00501406
0.00501425
0.00501434
0.00501449
0.00501459
0.00501471
0.00501493
0.00501504
0.00501519
0.00501527
0.00501547
0.00501566
0.00501568
0.00501582
0.00501581
0.00501593
0.00501595
0.005016
0.00501596
0.005016
0.00501601
0.00501607
0.00501604
0.00501593
0.00501594
0.00501587
0.00501581
0.00501575
0.00501565
0.00501553
0.00501545
0.00501537
0.00501522
0.00501508
0.00501501
0.00501476
0.0050146
0.0050144
0.00501402
0.00501377
0.00501355
0.00501321
0.00501284
0.00501256
0.00501229
0.00501194
0.00501162
0.00501141
0.00501115
0.00501088
0.00501067
0.0050105
0.00501031
0.00501009
0.00500989
0.0050097
0.00500946
0.00500923
0.00500897
0.00500853
0.00500812
0.00500751
0.00500675
0.00500597
0.00500513
0.00500395
0.00500262
0.00500104
0.0050004
0.00500233
0.00500411
0.00500549
0.00500684
0.00500801
0.005009
0.00500991
0.00501062
0.00501121
0.00501166
0.00501197
0.00501228
0.00501252
0.0050126
0.00501266
0.00501272
0.00501266
0.00501261
0.0050125
0.00501241
0.00501219
0.00501192
0.00501172
0.00501139
0.00501115
0.00501091
0.00501063
0.00501043
0.00501018
0.00501008
0.00500988
0.00500982
0.00500966
0.00500986
0.00500984
0.00501016
0.00501027
0.00501081
0.00501108
0.00501157
0.00501281
0.00501254
0.00501622
0.00501232
0.00502413
0.00500745
0.00503614
0.00500727
0.0050442
0.00503817
0.00504092
0.00508912
0.00501508
0.00516305
0.00502788
0.00525811
0.00514974
0.00540562
0.00541367
0.00583155
0.0061784
0.00732015
0.00856479
0.00615602
0.00519149
0.0050745
0.00505126
0.00504346
0.0050402
0.0050386
0.00503771
0.00503715
0.00503677
0.0050364
0.0050363
0.0050364
0.0050364
0.0050363
0.0050364
0.0050363
0.0050364
0.0050364
0.0050363
0.0050364
0.0050364
0.0050363
0.0050364
0.0050364
0.0050363
0.0050364
0.0050363
0.0050364
0.0050364
0.0050363
0.0050364
0.0050364
0.0050363
0.0050364
0.0050364
0.0050363
0.0050364
0.0050363
0.0050364
0.0050364
0.0050363
0.0050364
0.0050364
0.0050363
0.0050364
0.0050364
0.0050363
0.0050364
0.0050363
0.0050364
0.0050364
0.0050363
0.0050364
0.0050364
0.0050363
0.0050364
0.0050364
0.0050363
0.0050364
0.0050363
0.0050364
0.0050364
0.0050363
0.0050364
0.0050364
0.0050363
0.0050364
0.0050364
0.0050363
0.0050364
0.0050363
0.0050364
0.0050364
0.0050363
0.0050364
0.0050364
0.0050363
0.0050364
0.0050364
0.0050363
0.0050364
0.0050363
0.0050364
0.0050364
0.0050363
0.0050364
0.0050364
0.0050363
0.0050364
0.0050364
0.0050363
0.0050364
0.0050363
0.0050364
0.0050364
0.0050363
0.0050364
0.0050364
0.0050363
0.0050364
0.0050364
0.0050363
0.0050364
0.0050363
0.0050364
0.0050364
0.0050363
0.0050364
0.0050364
0.0050363
0.0050364
0.0050364
0.0050363
0.0050364
0.00503629
0.0050364
0.00503642
0.00503646
0.00503697
0.00503684
0.00503555
0.00503476
0.00503626
0.00503801
0.00503502
0.00503376
0.0050387
0.00503291
0.00503609
0.00503807
0.0050353
0.00503272
0.00503606
0.00504443
0.00504164
0.0050376
0.00504266
0.00505672
0.00506506
0.00505524
0.00504581
0.00505011
0.00505758
0.00505786
0.00506085
0.00507022
0.00507416
0.00506364
0.00504724
0.00504109
0.00505409
0.00504831
0.00505256
0.0050624
0.00506352
0.00505657
0.00505108
0.0050518
0.00505412
0.0050559
0.00505726
0.00504524
0.0050499
0.00506631
0.00505982
0.00505312
0.00506243
0.0050618
0.00505214
0.00505004
0.00505379
0.00505781
0.00506236
0.00505341
0.0050476
0.0050559
0.00505246
0.00504393
0.0050515
0.0050618
0.00505954
0.0050572
0.00505413
0.00505027
0.00505093
0.00505596
0.00506039
0.005052
0.00504852
0.00505162
0.0050519
0.00505854
0.00506117
0.00506237
0.00506225
0.0050522
0.00505472
0.00506403
0.00505782
0.00505309
0.00505186
0.00504222
0.00504368
0.00505526
0.00505929
0.00505356
0.00504694
0.00504035
0.00504828
0.00504927
0.00503391
0.00502838
0.00502593
0.00502462
0.00502694
0.00502941
0.00503554
0.00503161
0.00503519
0.00503214
0.0050286
0.00502743
0.00502447
0.00500722
0.00504603
0.00506232
0.00505495
0.00505655
0.0050557
0.00505625
0.00505656
0.00505527
0.00505459
0.00505175
0.00505097
0.00504702
0.00504552
0.00504077
0.00503851
0.00503332
0.00503001
0.00502445
0.0050209
0.00501545
0.00501248
0.005007
0.00500533
0.00500289
0.00500354
0.00500702
0.00500419
0.00502833
0.00502026
0.00501803
0.00500668
0.00500392
0.0050255
0.00502528
0.00501959
0.00502335
0.00502242
0.00502932
0.00502806
0.00501694
0.00501431
0.00501654
0.00502268
0.00502665
0.00502636
0.00502728
0.00503886
0.00504424
0.00504748
0.00504379
0.00504333
0.00504092
0.00503961
0.00503985
0.00503882
0.00503379
0.00503197
0.0050281
0.00502425
0.00502198
0.00502032
0.00501665
0.00501365
0.00501289
0.00501236
0.00500951
0.00500623
0.00500327
0.0050023
0.00500176
0.00500131
0.00499999
0.00499989
0.00500014
0.00500091
0.00500078
0.00500066
0.00500058
0.0050016
0.0050023
0.00500294
0.00500278
0.00500246
0.00500195
0.005002
0.00500216
0.00500294
0.00500366
0.00500444
0.00500497
0.00500559
0.005006
0.00500653
0.00500694
0.00500745
0.00500779
0.00500817
0.00500839
0.00500869
0.00500889
0.00500904
0.00500896
0.00500887
0.00500847
0.00500801
0.00500753
0.00500705
0.00500647
0.00500597
0.00500534
0.00500474
0.00500414
0.00500353
0.00500292
0.0050023
0.00500161
0.00500086
0.00499988
0.00500026
0.00500124
0.00500216
0.00500286
0.0050035
0.00500409
0.00500467
0.00500517
0.00500547
0.00500559
0.00500559
0.00500535
0.00500486
0.00500415
0.00500318
0.00500187
0.00500028
0.00499881
0.00500046
0.00500265
0.00500505
0.00500751
0.00501011
0.00501261
0.00501478
0.00501703
0.00501901
0.00502064
0.00502247
0.00502412
0.00502504
0.00502555
0.00502563
0.00502458
0.00502282
0.00502137
0.00502106
0.00502158
0.00502216
0.00502251
0.00502265
0.00502255
0.00502231
0.0050218
0.00502105
0.00502013
0.005019
0.00501751
0.00501594
0.00501443
0.00501304
0.00501203
0.00501134
0.00501096
0.00501083
0.00501092
0.00501118
0.00501143
0.00501175
0.00501214
0.00501258
0.00501289
0.00501317
0.0050134
0.00501356
0.00501363
0.00501367
0.00501362
0.0050136
0.00501361
0.00501355
0.0050135
0.00501352
0.00501348
0.0050135
0.00501359
0.00501374
0.00501385
0.00501398
0.00501408
0.00501421
0.00501441
0.00501453
0.00501467
0.00501477
0.00501496
0.00501513
0.00501517
0.00501529
0.00501531
0.0050154
0.00501543
0.00501547
0.00501545
0.00501548
0.00501549
0.00501554
0.00501551
0.00501542
0.0050154
0.00501534
0.00501527
0.00501521
0.00501511
0.00501499
0.00501491
0.00501482
0.00501468
0.00501454
0.00501444
0.00501422
0.00501405
0.00501383
0.00501349
0.00501323
0.00501299
0.00501266
0.00501229
0.005012
0.00501172
0.00501138
0.00501108
0.00501085
0.0050106
0.00501032
0.0050101
0.00500992
0.00500972
0.00500952
0.00500932
0.00500912
0.00500887
0.00500865
0.00500837
0.00500795
0.00500751
0.00500692
0.00500617
0.00500539
0.00500453
0.00500337
0.00500204
0.00500044
0.00499984
0.00500176
0.0050035
0.0050049
0.00500624
0.00500739
0.00500837
0.00500926
0.00500997
0.00501054
0.00501099
0.0050113
0.0050116
0.00501181
0.00501191
0.00501196
0.00501201
0.00501195
0.00501188
0.00501177
0.00501166
0.00501145
0.00501118
0.00501096
0.00501064
0.00501039
0.00501014
0.00500988
0.00500966
0.00500943
0.0050093
0.00500912
0.00500905
0.00500892
0.00500906
0.0050091
0.00500936
0.00500953
0.00501
0.00501031
0.00501085
0.00501184
0.00501214
0.00501457
0.00501308
0.0050201
0.00501107
0.00502698
0.00500141
0.00502758
0.00501814
0.00501485
0.00506007
0.00500262
0.00512618
0.00506316
0.00521938
0.0051841
0.00537513
0.00544942
0.00581126
0.00622253
0.00723406
0.00816398
0.00636727
0.00532355
0.00511537
0.00506765
0.0050514
0.00504451
0.00504112
0.00503924
0.00503811
0.00503735
0.0050364
0.0050363
0.0050364
0.0050364
0.0050363
0.0050364
0.0050363
0.0050364
0.0050364
0.0050363
0.0050364
0.0050364
0.0050363
0.0050364
0.0050364
0.0050363
0.0050364
0.0050363
0.0050364
0.0050364
0.0050363
0.0050364
0.0050364
0.0050363
0.0050364
0.0050364
0.0050363
0.0050364
0.0050363
0.0050364
0.0050364
0.0050363
0.0050364
0.0050364
0.0050363
0.0050364
0.0050364
0.0050363
0.0050364
0.0050363
0.0050364
0.0050364
0.0050363
0.0050364
0.0050364
0.0050363
0.0050364
0.0050364
0.0050363
0.0050364
0.0050363
0.0050364
0.0050364
0.0050363
0.0050364
0.0050364
0.0050363
0.0050364
0.0050364
0.0050363
0.0050364
0.0050363
0.0050364
0.0050364
0.0050363
0.0050364
0.0050364
0.0050363
0.0050364
0.0050364
0.0050363
0.0050364
0.0050363
0.0050364
0.0050364
0.0050363
0.0050364
0.0050364
0.0050363
0.0050364
0.0050364
0.0050363
0.0050364
0.0050363
0.0050364
0.0050364
0.0050363
0.0050364
0.0050364
0.0050363
0.0050364
0.0050364
0.0050363
0.0050364
0.0050363
0.0050364
0.0050364
0.0050363
0.0050364
0.0050364
0.0050363
0.0050364
0.0050364
0.0050363
0.0050364
0.00503629
0.0050364
0.00503645
0.00503655
0.00503701
0.00503679
0.00503566
0.00503514
0.00503612
0.00503681
0.00503475
0.00503484
0.00503828
0.00503447
0.00503591
0.00503702
0.00503498
0.00503403
0.00503702
0.0050429
0.00504415
0.00504646
0.00505238
0.00506144
0.00507148
0.0050698
0.00505985
0.00505837
0.0050676
0.00507617
0.00508057
0.00508554
0.00508999
0.00508278
0.00506451
0.00505665
0.00506942
0.00506817
0.00506594
0.00507107
0.00507734
0.00507577
0.00506835
0.00506634
0.00506943
0.0050708
0.00507009
0.00506237
0.00506831
0.00508316
0.00507753
0.0050687
0.00507642
0.00508009
0.00507177
0.00506514
0.00506675
0.00507392
0.00507834
0.00506798
0.00506077
0.00506702
0.00506566
0.00505875
0.00506361
0.00507206
0.00507146
0.00507115
0.00507089
0.00506712
0.00506456
0.00506597
0.00506916
0.00506519
0.0050616
0.00506192
0.00506486
0.00507218
0.00507337
0.00507289
0.00507346
0.00506697
0.00506695
0.00507328
0.00507106
0.00506673
0.00506197
0.00505359
0.00505469
0.0050635
0.00506722
0.00506187
0.00505459
0.0050502
0.00505594
0.00505472
0.00504146
0.00503541
0.00503267
0.00503142
0.00503379
0.005035
0.00503844
0.00503806
0.00504044
0.00503636
0.00503169
0.00502933
0.00502464
0.00500478
0.00504095
0.00505844
0.00505572
0.00505693
0.00505658
0.00505664
0.00505663
0.00505515
0.005054
0.00505177
0.0050502
0.00504682
0.00504472
0.00504057
0.0050379
0.00503328
0.00502934
0.00502421
0.00502022
0.00501539
0.00501182
0.00500701
0.00500382
0.00500111
0.00500341
0.005006
0.00500666
0.00502395
0.00502032
0.00501685
0.00500776
0.00500655
0.00502255
0.00502417
0.00502027
0.00502261
0.00502288
0.00502798
0.00502662
0.00501779
0.0050149
0.00501681
0.00502206
0.00502586
0.00502622
0.00502814
0.00503764
0.00504334
0.00504613
0.00504383
0.00504287
0.00504085
0.00503956
0.00503944
0.00503821
0.00503399
0.00503161
0.00502807
0.00502434
0.00502201
0.00501998
0.00501665
0.00501378
0.00501272
0.00501195
0.00500932
0.00500616
0.00500341
0.00500224
0.00500154
0.005001
0.00499995
0.00499969
0.00499988
0.00500056
0.00500052
0.00500042
0.00500037
0.00500124
0.00500189
0.00500252
0.00500243
0.00500214
0.00500174
0.00500167
0.00500186
0.00500262
0.00500324
0.00500401
0.00500462
0.00500516
0.0050056
0.00500611
0.00500656
0.00500698
0.00500739
0.00500773
0.00500797
0.00500826
0.00500849
0.00500857
0.00500857
0.00500842
0.00500805
0.0050076
0.00500714
0.00500667
0.00500605
0.00500558
0.00500494
0.0050043
0.00500378
0.00500315
0.00500254
0.0050019
0.00500122
0.00500046
0.0049995
0.00499979
0.00500077
0.00500166
0.00500237
0.00500301
0.00500359
0.00500412
0.00500466
0.00500492
0.00500498
0.005005
0.00500476
0.00500427
0.00500355
0.00500255
0.0050012
0.0049996
0.00499816
0.0049999
0.00500206
0.00500443
0.00500687
0.0050094
0.00501191
0.00501405
0.00501628
0.00501824
0.00502001
0.00502175
0.00502338
0.00502437
0.00502488
0.0050249
0.0050239
0.00502235
0.00502095
0.00502062
0.00502102
0.0050215
0.00502191
0.005022
0.00502196
0.00502174
0.00502115
0.00502042
0.00501958
0.00501843
0.00501695
0.00501546
0.00501391
0.00501259
0.00501159
0.00501081
0.00501042
0.00501027
0.00501034
0.00501055
0.0050108
0.0050111
0.00501156
0.00501194
0.00501224
0.00501248
0.00501278
0.00501291
0.00501295
0.00501305
0.00501298
0.00501292
0.00501299
0.0050129
0.00501281
0.00501289
0.00501284
0.00501282
0.00501297
0.00501308
0.00501319
0.0050133
0.00501339
0.00501351
0.00501369
0.00501383
0.00501399
0.00501409
0.00501426
0.00501442
0.00501448
0.00501458
0.00501462
0.0050147
0.00501473
0.00501476
0.00501475
0.00501476
0.00501478
0.00501481
0.00501478
0.0050147
0.00501468
0.00501463
0.00501456
0.00501449
0.0050144
0.00501428
0.00501418
0.00501409
0.00501396
0.00501382
0.0050137
0.00501349
0.00501332
0.0050131
0.00501277
0.0050125
0.00501223
0.00501193
0.00501158
0.00501127
0.00501097
0.00501063
0.00501033
0.00501008
0.00500983
0.00500957
0.00500935
0.00500916
0.00500896
0.00500875
0.00500854
0.00500833
0.00500808
0.00500785
0.00500756
0.00500715
0.0050067
0.00500611
0.00500537
0.00500459
0.0050037
0.00500256
0.00500123
0.00499963
0.00499905
0.00500095
0.00500265
0.00500408
0.00500538
0.00500654
0.0050075
0.00500838
0.00500908
0.00500964
0.00501009
0.00501039
0.00501067
0.00501088
0.00501097
0.00501102
0.00501106