/*--------------------------------*- C++ -*----------------------------------*\
| =========                 |                                                 |
| \\      /  F ield         | foam-extend: Open Source CFD                    |
|  \\    /   O peration     | Version:     3.2                                |
|   \\  /    A nd           | Web:         http://www.foam-extend.org         |
|    \\/     M anipulation  | For copyright notice see file Copyright         |
\*---------------------------------------------------------------------------*/
FoamFile
{
    version     2.0;
    format      ascii;
    class       regIOobject;
    location    "200/uniform";
    object      profilingInfo;
}
// * * * * * * * * * * * * * * * * * * * * * * * * * * * * * * * * * * * * * //

profilingInfo
(

    {
        id              26;
        parentId        23;
        description     "Foam::Time::writeObject - outputTime";
        calls           20;
        totalTime       0.270585;
        childTime       0;
        onStack         1;
    }

    {
        id              23;
        parentId        1;
        description     "Foam::Time::writeObject";
        calls           5000;
        totalTime       0.276489;
        childTime       0.270585;
        onStack         1;
    }

    {
        id              1;
        description     "application::main";
        calls           1;
        totalTime       175.263;
        childTime       140.768;
        onStack         1;
    }

    {
        id              25;
        parentId        24;
        description     "FO::fieldMinMax1::execute";
        calls           4999;
        totalTime       0.008193;
        childTime       0;
        onStack         0;
    }

    {
        id              7;
        parentId        6;
        description     "FO::fieldMinMax1::start";
        calls           1;
        totalTime       1.9e-05;
        childTime       0;
        onStack         0;
    }

    {
        id              8;
        parentId        1;
        description     "MULES::explicitSolve";
        calls           10000;
        totalTime       2.83031;
        childTime       0;
        onStack         0;
    }

    {
        id              6;
        parentId        5;
        description     "functionObjectList::read";
        calls           1;
        totalTime       5.8e-05;
        childTime       1.9e-05;
        onStack         0;
    }

    {
        id              24;
        parentId        1;
        description     "functionObjects_.execute()";
        calls           4999;
        totalTime       0.0184;
        childTime       0.008193;
        onStack         0;
    }

    {
        id              5;
        parentId        1;
        description     "functionObjects_.start()";
        calls           1;
        totalTime       6.1e-05;
        childTime       5.8e-05;
        onStack         0;
    }

    {
        id              9;
        parentId        1;
        description     "fvMatrix::solve_U";
        calls           5000;
        totalTime       0.96274;
        childTime       0.567563;
        onStack         0;
    }

    {
        id              20;
        parentId        1;
        description     "fvMatrix::solve_k";
        calls           5000;
        totalTime       0.422429;
        childTime       0.266659;
        onStack         0;
    }

    {
        id              17;
        parentId        1;
        description     "fvMatrix::solve_omega";
        calls           5000;
        totalTime       0.659356;
        childTime       0.277077;
        onStack         0;
    }

    {
        id              2;
        parentId        1;
        description     "fvMatrix::solve_pcorr";
        calls           2;
        totalTime       0.039782;
        childTime       0.03968;
        onStack         0;
    }

    {
        id              14;
        parentId        1;
        description     "fvMatrix::solve_pd";
        calls           20000;
        totalTime       135.558;
        childTime       134.596;
        onStack         0;
    }

    {
        id              11;
        parentId        10;
        description     "lduMatrix::smoother_Ux";
        calls           734;
        totalTime       0.085431;
        childTime       0;
        onStack         0;
    }

    {
        id              13;
        parentId        12;
        description     "lduMatrix::smoother_Uz";
        calls           1113;
        totalTime       0.100064;
        childTime       0;
        onStack         0;
    }

    {
        id              22;
        parentId        21;
        description     "lduMatrix::smoother_k";
        calls           796;
        totalTime       0.083912;
        childTime       0;
        onStack         0;
    }

    {
        id              19;
        parentId        18;
        description     "lduMatrix::smoother_omega";
        calls           745;
        totalTime       0.081621;
        childTime       0;
        onStack         0;
    }

    {
        id              10;
        parentId        9;
        description     "lduMatrix::solver_Ux";
        calls           5000;
        totalTime       0.275472;
        childTime       0.085431;
        onStack         0;
    }

    {
        id              12;
        parentId        9;
        description     "lduMatrix::solver_Uz";
        calls           5000;
        totalTime       0.292091;
        childTime       0.100064;
        onStack         0;
    }

    {
        id              4;
        parentId        3;
        description     "lduMatrix::solver_coarsestLevelCorr";
        calls           21;
        totalTime       0.036409;
        childTime       0;
        onStack         0;
    }

    {
        id              16;
        parentId        15;
        description     "lduMatrix::solver_coarsestLevelCorr";
        calls           64766;
        totalTime       123.907;
        childTime       0;
        onStack         0;
    }

    {
        id              21;
        parentId        20;
        description     "lduMatrix::solver_k";
        calls           5000;
        totalTime       0.266659;
        childTime       0.083912;
        onStack         0;
    }

    {
        id              18;
        parentId        17;
        description     "lduMatrix::solver_omega";
        calls           5000;
        totalTime       0.277077;
        childTime       0.081621;
        onStack         0;
    }

    {
        id              3;
        parentId        2;
        description     "lduMatrix::solver_pcorr";
        calls           2;
        totalTime       0.03968;
        childTime       0.036409;
        onStack         0;
    }

    {
        id              15;
        parentId        14;
        description     "lduMatrix::solver_pd";
        calls           20000;
        totalTime       134.596;
        childTime       123.907;
        onStack         0;
    }
);


// ************************************************************************* //
