/*--------------------------------*- C++ -*----------------------------------*\
| =========                 |                                                 |
| \\      /  F ield         | foam-extend: Open Source CFD                    |
|  \\    /   O peration     | Version:     3.2                                |
|   \\  /    A nd           | Web:         http://www.foam-extend.org         |
|    \\/     M anipulation  | For copyright notice see file Copyright         |
\*---------------------------------------------------------------------------*/
FoamFile
{
    version     2.0;
    format      ascii;
    class       volScalarField;
    location    "200";
    object      omega;
}
// * * * * * * * * * * * * * * * * * * * * * * * * * * * * * * * * * * * * * //

dimensions      [0 0 -1 0 0 0 0];

internalField   nonuniform List<scalar> 
2400
(
146.936
162.368
149.889
137.555
130.499
127.226
126.046
125.892
126.105
126.528
127.046
127.556
128.058
128.576
129.076
129.581
130.109
130.638
131.174
131.713
132.25
132.787
133.338
133.903
134.448
134.949
135.399
135.794
136.136
136.428
136.678
136.891
137.069
137.214
137.33
137.426
137.506
137.573
137.629
137.677
137.718
137.752
137.782
137.807
137.828
137.847
137.862
137.875
137.887
137.896
137.905
137.912
137.918
137.923
137.927
137.931
137.934
137.937
137.939
137.942
137.943
137.945
137.946
137.947
137.948
137.949
137.95
137.95
137.951
137.951
137.952
137.952
137.952
137.952
137.953
137.953
137.953
137.953
137.953
137.953
137.953
137.953
137.953
137.953
137.954
137.954
137.954
137.954
137.954
137.954
137.954
137.954
137.954
137.954
137.954
137.954
137.954
137.954
137.954
137.954
137.954
137.954
137.954
137.954
137.954
137.954
137.954
137.954
137.954
137.954
137.954
137.954
137.954
137.954
137.954
137.954
137.954
137.954
137.954
137.954
137.954
137.954
137.954
137.954
137.954
137.954
137.954
137.954
137.954
137.954
137.954
137.954
137.954
137.954
137.954
137.954
137.954
137.954
137.954
137.954
137.954
137.954
137.954
137.954
137.954
137.954
137.954
137.954
137.954
137.954
137.954
137.954
137.954
137.954
137.954
137.954
137.954
137.954
137.954
137.954
137.954
137.954
137.954
137.954
137.954
137.954
137.954
137.954
137.954
137.954
137.954
137.954
137.954
137.954
137.954
137.954
137.954
137.954
137.954
137.954
137.954
137.954
137.954
137.954
137.954
137.954
137.954
137.954
137.954
137.954
137.954
137.954
137.954
137.954
137.954
137.954
137.954
137.954
137.954
137.954
137.954
137.954
137.954
137.954
137.954
137.954
137.954
137.954
137.954
137.954
137.954
137.954
137.954
137.954
137.954
137.954
137.954
137.954
137.954
137.954
137.954
137.954
137.954
137.954
137.954
137.954
137.954
137.954
137.954
137.954
137.954
137.954
137.954
137.954
137.954
137.954
137.954
137.954
137.954
137.954
137.954
137.954
137.954
137.954
137.954
137.954
137.954
137.954
137.954
137.954
137.954
137.954
137.954
137.954
137.954
137.954
137.954
137.954
137.954
137.954
137.954
137.954
137.954
137.954
137.954
137.954
137.954
137.954
137.954
137.954
137.954
137.954
137.954
137.954
137.954
137.954
137.954
137.954
137.954
137.954
137.954
137.954
137.954
137.954
137.954
137.954
137.954
137.954
137.954
137.954
137.954
137.954
137.954
137.954
137.954
137.954
137.954
137.954
137.959
137.953
48.7052
66.6069
65.1487
63.5928
61.8972
60.2668
58.7887
57.5181
56.4988
55.6965
55.0957
54.633
54.2914
54.0426
53.9017
53.8161
53.7837
53.797
53.8477
53.9259
54.0271
54.1385
54.2499
54.3598
54.4682
54.5708
54.6654
54.7512
54.8278
54.8951
54.9538
55.0054
55.0506
55.0893
55.1216
55.1482
55.1705
55.1895
55.2057
55.2196
55.2314
55.2415
55.2501
55.2574
55.2637
55.2691
55.2736
55.2776
55.2809
55.2837
55.2862
55.2882
55.29
55.2915
55.2928
55.2939
55.2948
55.2957
55.2964
55.2969
55.2974
55.2979
55.2983
55.2986
55.2988
55.2991
55.2993
55.2995
55.2996
55.2997
55.2998
55.2999
55.3
55.3001
55.3001
55.3002
55.3002
55.3003
55.3003
55.3003
55.3003
55.3003
55.3004
55.3004
55.3004
55.3004
55.3004
55.3004
55.3004
55.3004
55.3004
55.3004
55.3004
55.3005
55.3005
55.3005
55.3005
55.3005
55.3005
55.3005
55.3005
55.3005
55.3005
55.3005
55.3005
55.3005
55.3005
55.3005
55.3005
55.3005
55.3005
55.3005
55.3005
55.3005
55.3005
55.3005
55.3005
55.3005
55.3005
55.3005
55.3005
55.3005
55.3005
55.3005
55.3005
55.3005
55.3005
55.3005
55.3005
55.3005
55.3005
55.3005
55.3005
55.3005
55.3005
55.3005
55.3005
55.3005
55.3005
55.3005
55.3005
55.3005
55.3005
55.3005
55.3005
55.3005
55.3005
55.3005
55.3005
55.3005
55.3005
55.3005
55.3005
55.3005
55.3005
55.3005
55.3005
55.3005
55.3005
55.3005
55.3005
55.3005
55.3005
55.3005
55.3005
55.3005
55.3005
55.3005
55.3005
55.3005
55.3005
55.3005
55.3005
55.3005
55.3005
55.3005
55.3005
55.3005
55.3005
55.3005
55.3005
55.3005
55.3005
55.3005
55.3005
55.3005
55.3005
55.3005
55.3005
55.3005
55.3005
55.3005
55.3005
55.3005
55.3005
55.3005
55.3005
55.3005
55.3005
55.3005
55.3005
55.3005
55.3005
55.3005
55.3005
55.3005
55.3005
55.3005
55.3005
55.3005
55.3005
55.3005
55.3005
55.3005
55.3005
55.3005
55.3005
55.3005
55.3005
55.3005
55.3005
55.3005
55.3005
55.3005
55.3005
55.3005
55.3005
55.3005
55.3005
55.3005
55.3005
55.3005
55.3005
55.3005
55.3005
55.3005
55.3005
55.3005
55.3005
55.3005
55.3005
55.3005
55.3005
55.3005
55.3005
55.3005
55.3005
55.3005
55.3005
55.3005
55.3005
55.3005
55.3005
55.3005
55.3005
55.3005
55.3005
55.3005
55.3005
55.3005
55.3005
55.3005
55.3005
55.3005
55.3005
55.3005
55.3005
55.3005
55.3005
55.3005
55.3005
55.3005
55.3005
55.3005
55.3005
55.3005
55.3005
55.3005
55.3005
55.3005
55.3005
55.3005
55.3005
55.3005
55.3005
55.3005
55.3005
55.3005
55.3005
55.3005
55.3005
55.3005
55.3005
55.3005
55.3005
55.3005
55.3005
55.3003
55.299
55.3018
16.4873
28.0309
33.5795
36.5268
37.3916
36.8987
36.0042
35.3288
34.82
34.4064
34.0049
33.6099
33.255
32.9574
32.7178
32.5202
32.3667
32.243
32.152
32.0824
32.0299
31.9869
31.9419
31.8923
31.8419
31.7919
31.7429
31.6956
31.6506
31.6085
31.5692
31.5335
31.5017
31.4735
31.4488
31.427
31.408
31.3915
31.3772
31.3648
31.3541
31.3449
31.337
31.3301
31.3243
31.3192
31.3149
31.3112
31.308
31.3053
31.303
31.301
31.2993
31.2978
31.2966
31.2955
31.2945
31.2938
31.2931
31.2925
31.292
31.2916
31.2912
31.2909
31.2907
31.2904
31.2902
31.2901
31.2899
31.2898
31.2897
31.2896
31.2895
31.2895
31.2894
31.2894
31.2893
31.2893
31.2892
31.2892
31.2892
31.2892
31.2892
31.2892
31.2891
31.2891
31.2891
31.2891
31.2891
31.2891
31.2891
31.2891
31.2891
31.2891
31.2891
31.2891
31.2891
31.2891
31.2891
31.2891
31.2891
31.2891
31.2891
31.2891
31.2891
31.2891
31.2891
31.2891
31.2891
31.2891
31.2891
31.2891
31.2891
31.2891
31.2891
31.2891
31.2891
31.2891
31.2891
31.2891
31.2891
31.2891
31.2891
31.2891
31.2891
31.2891
31.2891
31.2891
31.2891
31.2891
31.2891
31.2891
31.2891
31.2891
31.2891
31.2891
31.2891
31.2891
31.2891
31.2891
31.2891
31.2891
31.2891
31.2891
31.2891
31.2891
31.2891
31.2891
31.2891
31.2891
31.2891
31.2891
31.2891
31.2891
31.2891
31.2891
31.2891
31.2891
31.2891
31.2891
31.2891
31.2891
31.2891
31.2891
31.2891
31.2891
31.2891
31.2891
31.2891
31.2891
31.2891
31.2891
31.2891
31.2891
31.2891
31.2891
31.2891
31.2891
31.2891
31.2891
31.2891
31.2891
31.2891
31.2891
31.2891
31.2891
31.2891
31.2891
31.2891
31.2891
31.2891
31.2891
31.2891
31.2891
31.2891
31.2891
31.2891
31.2891
31.2891
31.2891
31.2891
31.2891
31.2891
31.2891
31.2891
31.2891
31.2891
31.2891
31.2891
31.2891
31.2891
31.2891
31.2891
31.2891
31.2891
31.2891
31.2891
31.2891
31.2891
31.2891
31.2891
31.2891
31.2891
31.2891
31.2891
31.2891
31.2891
31.2891
31.2891
31.2891
31.2891
31.2891
31.2891
31.2891
31.2891
31.2891
31.2891
31.2891
31.2891
31.2891
31.2891
31.2891
31.2891
31.2891
31.2891
31.2891
31.2891
31.2891
31.2891
31.2891
31.2891
31.2891
31.2891
31.2891
31.2891
31.2891
31.2891
31.2891
31.2891
31.2891
31.2891
31.2891
31.2891
31.2891
31.2891
31.2891
31.2891
31.2891
31.2891
31.2891
31.2891
31.2891
31.2891
31.2891
31.2891
31.2891
31.2891
31.2891
31.2891
31.2891
31.2891
31.2891
31.2891
31.2891
31.2891
31.2891
31.2891
31.2891
31.2891
31.2891
31.2891
31.2891
31.2891
31.2891
31.2891
31.2891
31.2891
31.2889
31.2889
31.2896
5.39024
10.828
15.4582
18.9585
21.8073
23.6968
24.7322
25.1984
25.2073
24.9069
24.5896
24.3744
24.204
24.0599
23.8979
23.7162
23.5363
23.3644
23.2032
23.0442
22.8856
22.7189
22.5512
22.3864
22.2252
22.0685
21.918
21.7757
21.6431
21.5214
21.411
21.3118
21.2237
21.1465
21.0794
21.0215
20.9716
20.9287
20.8917
20.86
20.8327
20.8092
20.7891
20.7718
20.757
20.7443
20.7335
20.7242
20.7162
20.7094
20.7036
20.6986
20.6943
20.6907
20.6876
20.6849
20.6826
20.6806
20.679
20.6775
20.6763
20.6753
20.6744
20.6736
20.673
20.6724
20.6719
20.6715
20.6711
20.6708
20.6706
20.6704
20.6702
20.67
20.6699
20.6698
20.6696
20.6696
20.6695
20.6694
20.6694
20.6693
20.6693
20.6692
20.6692
20.6692
20.6692
20.6692
20.6691
20.6691
20.6691
20.6691
20.6691
20.6691
20.6691
20.669
20.669
20.669
20.669
20.669
20.669
20.669
20.669
20.669
20.669
20.669
20.669
20.669
20.669
20.669
20.669
20.669
20.669
20.669
20.669
20.669
20.669
20.669
20.669
20.669
20.669
20.669
20.669
20.669
20.669
20.669
20.669
20.669
20.669
20.669
20.669
20.669
20.669
20.669
20.669
20.669
20.669
20.669
20.669
20.669
20.669
20.669
20.669
20.669
20.669
20.669
20.669
20.669
20.669
20.669
20.669
20.669
20.669
20.669
20.669
20.669
20.669
20.669
20.669
20.669
20.669
20.669
20.669
20.669
20.669
20.669
20.669
20.669
20.669
20.669
20.669
20.669
20.669
20.669
20.669
20.669
20.669
20.669
20.669
20.669
20.669
20.669
20.669
20.669
20.669
20.669
20.669
20.669
20.669
20.669
20.669
20.669
20.669
20.669
20.669
20.669
20.669
20.669
20.669
20.669
20.669
20.669
20.669
20.669
20.669
20.669
20.669
20.669
20.669
20.669
20.669
20.669
20.669
20.669
20.669
20.669
20.669
20.669
20.669
20.669
20.669
20.669
20.669
20.669
20.669
20.669
20.669
20.669
20.669
20.669
20.669
20.669
20.669
20.669
20.669
20.669
20.669
20.669
20.669
20.669
20.669
20.669
20.669
20.669
20.669
20.669
20.669
20.669
20.669
20.669
20.669
20.669
20.669
20.669
20.669
20.669
20.669
20.669
20.669
20.669
20.669
20.669
20.669
20.669
20.669
20.669
20.669
20.669
20.669
20.669
20.669
20.669
20.669
20.669
20.669
20.669
20.669
20.669
20.669
20.669
20.669
20.669
20.669
20.669
20.669
20.669
20.669
20.669
20.669
20.669
20.669
20.669
20.669
20.669
20.669
20.669
20.669
20.669
20.669
20.6693
1.90256
4.11149
6.39458
8.45739
10.6102
12.7147
14.7915
16.5466
17.7883
18.5239
18.906
19.0808
19.0725
18.9503
18.7981
18.662
18.5363
18.4021
18.245
18.0595
17.8446
17.6125
17.3752
17.1376
16.9035
16.6758
16.458
16.2537
16.0654
15.8948
15.7418
15.6057
15.4857
15.3813
15.2912
15.2137
15.1472
15.0902
15.0412
14.9991
14.963
14.9321
14.9056
14.8829
14.8635
14.8469
14.8326
14.8204
14.81
14.8011
14.7935
14.787
14.7814
14.7767
14.7726
14.7691
14.7662
14.7636
14.7614
14.7596
14.758
14.7566
14.7555
14.7545
14.7536
14.7529
14.7522
14.7517
14.7513
14.7509
14.7505
14.7502
14.75
14.7498
14.7496
14.7494
14.7493
14.7492
14.7491
14.749
14.749
14.7489
14.7488
14.7488
14.7488
14.7487
14.7487
14.7487
14.7487
14.7486
14.7486
14.7486
14.7486
14.7486
14.7486
14.7485
14.7485
14.7485
14.7485
14.7485
14.7485
14.7485
14.7485
14.7485
14.7485
14.7485
14.7485
14.7485
14.7485
14.7485
14.7485
14.7485
14.7485
14.7485
14.7485
14.7485
14.7485
14.7485
14.7485
14.7485
14.7485
14.7485
14.7485
14.7485
14.7485
14.7485
14.7485
14.7485
14.7485
14.7485
14.7485
14.7485
14.7485
14.7485
14.7485
14.7485
14.7485
14.7485
14.7485
14.7485
14.7485
14.7485
14.7485
14.7485
14.7485
14.7485
14.7485
14.7485
14.7485
14.7485
14.7485
14.7485
14.7485
14.7485
14.7485
14.7485
14.7485
14.7485
14.7485
14.7485
14.7485
14.7485
14.7485
14.7485
14.7485
14.7485
14.7485
14.7485
14.7485
14.7485
14.7485
14.7485
14.7485
14.7485
14.7485
14.7485
14.7485
14.7485
14.7485
14.7485
14.7485
14.7485
14.7485
14.7485
14.7485
14.7485
14.7485
14.7485
14.7485
14.7485
14.7485
14.7485
14.7485
14.7485
14.7485
14.7485
14.7485
14.7485
14.7485
14.7485
14.7485
14.7485
14.7485
14.7485
14.7485
14.7485
14.7485
14.7485
14.7485
14.7485
14.7485
14.7485
14.7485
14.7485
14.7485
14.7485
14.7485
14.7485
14.7485
14.7485
14.7485
14.7485
14.7485
14.7485
14.7485
14.7485
14.7485
14.7485
14.7485
14.7485
14.7485
14.7485
14.7485
14.7485
14.7485
14.7485
14.7485
14.7485
14.7485
14.7485
14.7485
14.7485
14.7485
14.7485
14.7485
14.7485
14.7485
14.7485
14.7485
14.7485
14.7485
14.7485
14.7485
14.7485
14.7485
14.7485
14.7485
14.7485
14.7485
14.7485
14.7485
14.7485
14.7485
14.7485
14.7485
14.7485
14.7485
14.7485
14.7485
14.7485
14.7485
14.7485
14.7485
14.7485
14.7485
14.7485
14.7485
14.7485
14.7485
14.7485
14.7485
14.7485
14.7485
14.7485
14.7485
14.7485
14.7485
14.7485
14.7485
14.7485
14.7485
14.7485
14.7485
14.7485
14.7485
14.7485
14.7485
14.7485
14.7485
14.7486
0.793784
1.68417
2.57392
3.63012
4.77643
5.99293
7.33426
8.84682
10.4431
11.9361
13.1699
14.0985
14.7165
15.0695
15.2434
15.303
15.2673
15.1462
14.9577
14.725
14.4648
14.2008
13.9391
13.6761
13.4143
13.1581
12.9142
12.689
12.4856
12.3048
12.1449
12.0044
11.8818
11.7758
11.6849
11.607
11.5401
11.4827
11.4334
11.3912
11.3551
11.3241
11.2976
11.2749
11.2554
11.2388
11.2246
11.2124
11.202
11.1931
11.1855
11.179
11.1735
11.1687
11.1647
11.1612
11.1582
11.1557
11.1535
11.1517
11.1501
11.1488
11.1476
11.1466
11.1458
11.145
11.1444
11.1439
11.1434
11.1431
11.1427
11.1424
11.1422
11.142
11.1418
11.1417
11.1415
11.1414
11.1413
11.1412
11.1412
11.1411
11.141
11.141
11.141
11.1409
11.1409
11.1409
11.1409
11.1409
11.1408
11.1408
11.1408
11.1408
11.1408
11.1408
11.1407
11.1407
11.1407
11.1407
11.1407
11.1407
11.1407
11.1407
11.1407
11.1407
11.1407
11.1407
11.1407
11.1407
11.1407
11.1407
11.1407
11.1407
11.1407
11.1407
11.1407
11.1407
11.1407
11.1407
11.1407
11.1407
11.1407
11.1407
11.1407
11.1407
11.1407
11.1407
11.1407
11.1407
11.1407
11.1407
11.1407
11.1407
11.1407
11.1407
11.1407
11.1407
11.1407
11.1407
11.1407
11.1407
11.1407
11.1407
11.1407
11.1407
11.1407
11.1407
11.1407
11.1407
11.1407
11.1407
11.1407
11.1407
11.1407
11.1407
11.1407
11.1407
11.1407
11.1407
11.1407
11.1407
11.1407
11.1407
11.1407
11.1407
11.1407
11.1407
11.1407
11.1407
11.1407
11.1407
11.1407
11.1407
11.1407
11.1407
11.1407
11.1407
11.1407
11.1407
11.1407
11.1407
11.1407
11.1407
11.1407
11.1407
11.1407
11.1407
11.1407
11.1407
11.1407
11.1407
11.1407
11.1407
11.1407
11.1407
11.1407
11.1407
11.1407
11.1407
11.1407
11.1407
11.1407
11.1407
11.1407
11.1407
11.1407
11.1407
11.1407
11.1407
11.1407
11.1407
11.1407
11.1407
11.1407
11.1407
11.1407
11.1407
11.1407
11.1407
11.1407
11.1407
11.1407
11.1407
11.1407
11.1407
11.1407
11.1407
11.1407
11.1407
11.1407
11.1407
11.1407
11.1407
11.1407
11.1407
11.1407
11.1407
11.1407
11.1407
11.1407
11.1407
11.1407
11.1407
11.1407
11.1407
11.1407
11.1407
11.1407
11.1407
11.1407
11.1407
11.1407
11.1407
11.1407
11.1407
11.1407
11.1407
11.1407
11.1407
11.1407
11.1407
11.1407
11.1407
11.1407
11.1407
11.1407
11.1407
11.1407
11.1407
11.1407
11.1407
11.1407
11.1407
11.1407
11.1407
11.1407
11.1407
11.1407
11.1407
11.1407
11.1407
11.1407
11.1407
11.1407
11.1407
11.1407
11.1407
11.1407
11.1407
11.1407
11.1407
11.1407
11.1407
11.1407
11.1407
11.1407
11.1407
11.1407
11.1408
0.406912
0.805822
1.27379
1.78106
2.30946
2.87487
3.64979
4.52153
5.52164
6.62222
7.74147
8.87641
9.92839
10.8
11.4725
11.9411
12.2244
12.3553
12.3555
12.2489
12.0687
11.8322
11.556
11.2602
10.9754
10.7188
10.4943
10.2985
10.1268
9.97626
9.84383
9.72763
9.62618
9.5383
9.46259
9.39731
9.34106
9.29266
9.25104
9.21529
9.1846
9.15827
9.1357
9.11636
9.09979
9.08561
9.07347
9.06307
9.05419
9.04659
9.0401
9.03454
9.0298
9.02575
9.02228
9.01932
9.01679
9.01463
9.01278
9.0112
9.00986
9.00871
9.00772
9.00688
9.00617
9.00555
9.00502
9.00457
9.00419
9.00386
9.00358
9.00334
9.00313
9.00296
9.00281
9.00268
9.00256
9.00247
9.00239
9.00232
9.00226
9.00221
9.00216
9.00213
9.00209
9.00207
9.00205
9.00203
9.00201
9.00199
9.00198
9.00196
9.00195
9.00194
9.00193
9.00192
9.00191
9.0019
9.0019
9.00189
9.00189
9.00189
9.00189
9.00188
9.00188
9.00188
9.00188
9.00188
9.00188
9.00188
9.00188
9.00188
9.00188
9.00188
9.00188
9.00188
9.00188
9.00187
9.00187
9.00187
9.00187
9.00187
9.00187
9.00187
9.00187
9.00187
9.00187
9.00187
9.00187
9.00187
9.00187
9.00187
9.00187
9.00187
9.00187
9.00187
9.00187
9.00187
9.00187
9.00187
9.00187
9.00187
9.00187
9.00187
9.00187
9.00187
9.00187
9.00187
9.00187
9.00187
9.00187
9.00187
9.00187
9.00187
9.00187
9.00187
9.00187
9.00187
9.00187
9.00187
9.00187
9.00187
9.00187
9.00186
9.00186
9.00186
9.00186
9.00186
9.00186
9.00186
9.00186
9.00186
9.00186
9.00186
9.00186
9.00186
9.00186
9.00186
9.00186
9.00186
9.00186
9.00186
9.00186
9.00186
9.00186
9.00186
9.00186
9.00186
9.00186
9.00186
9.00186
9.00186
9.00186
9.00186
9.00186
9.00186
9.00186
9.00186
9.00186
9.00186
9.00187
9.00187
9.00187
9.00187
9.00187
9.00187
9.00187
9.00187
9.00187
9.00187
9.00187
9.00187
9.00187
9.00187
9.00187
9.00187
9.00187
9.00187
9.00187
9.00187
9.00187
9.00187
9.00187
9.00187
9.00187
9.00187
9.00187
9.00187
9.00187
9.00187
9.00187
9.00187
9.00187
9.00187
9.00187
9.00187
9.00187
9.00187
9.00187
9.00187
9.00187
9.00187
9.00187
9.00187
9.00187
9.00187
9.00187
9.00187
9.00187
9.00187
9.00187
9.00187
9.00187
9.00187
9.00187
9.00187
9.00187
9.00187
9.00187
9.00187
9.00187
9.00187
9.00187
9.00187
9.00187
9.00187
9.00187
9.00187
9.00187
9.00187
9.00187
9.00187
9.00187
9.00187
9.00187
9.00187
9.00187
9.00187
9.00187
9.00187
9.00187
9.00187
9.00187
9.00187
9.00187
9.00187
9.00187
9.00187
9.00187
9.00187
9.00187
9.00187
9.00187
9.00187
9.00187
9.00187
9.00187
9.00186
9.00186
9.00189
0.28589
0.498755
0.832988
1.1921
1.53671
1.88853
2.32547
2.79104
3.28769
3.87641
4.61063
5.41251
6.24711
7.07071
7.81287
8.45629
8.97608
9.34478
9.59184
9.75238
9.82232
9.80942
9.72992
9.60458
9.45089
9.29346
9.14348
9.00533
8.88041
8.76788
8.66785
8.57856
8.49916
8.42907
8.36785
8.31485
8.26896
8.2293
8.19505
8.16553
8.1401
8.11823
8.09944
8.08331
8.06946
8.0576
8.04743
8.03872
8.03126
8.02488
8.01943
8.01476
8.01077
8.00737
8.00445
8.00197
7.99984
7.99803
7.99648
7.99515
7.99402
7.99306
7.99224
7.99153
7.99093
7.99042
7.98998
7.9896
7.98928
7.98901
7.98878
7.98857
7.9884
7.98825
7.98813
7.98802
7.98793
7.98785
7.98778
7.98772
7.98767
7.98763
7.98759
7.98756
7.98753
7.98751
7.98749
7.98748
7.98746
7.98745
7.98743
7.98742
7.98741
7.9874
7.98739
7.98739
7.98738
7.98737
7.98737
7.98737
7.98736
7.98736
7.98736
7.98736
7.98736
7.98736
7.98735
7.98735
7.98735
7.98735
7.98735
7.98735
7.98735
7.98735
7.98735
7.98735
7.98735
7.98735
7.98735
7.98735
7.98734
7.98734
7.98734
7.98734
7.98734
7.98734
7.98734
7.98734
7.98734
7.98734
7.98734
7.98734
7.98734
7.98734
7.98734
7.98734
7.98734
7.98734
7.98734
7.98734
7.98734
7.98734
7.98734
7.98734
7.98734
7.98734
7.98734
7.98734
7.98734
7.98734
7.98734
7.98734
7.98734
7.98734
7.98734
7.98734
7.98734
7.98734
7.98734
7.98734
7.98734
7.98734
7.98734
7.98734
7.98734
7.98734
7.98734
7.98734
7.98734
7.98734
7.98734
7.98734
7.98734
7.98734
7.98734
7.98734
7.98734
7.98734
7.98734
7.98734
7.98734
7.98734
7.98734
7.98734
7.98734
7.98734
7.98734
7.98734
7.98734
7.98734
7.98734
7.98734
7.98734
7.98734
7.98734
7.98734
7.98734
7.98734
7.98734
7.98734
7.98734
7.98734
7.98734
7.98734
7.98734
7.98734
7.98734
7.98734
7.98734
7.98734
7.98734
7.98734
7.98734
7.98734
7.98734
7.98734
7.98734
7.98734
7.98734
7.98734
7.98734
7.98734
7.98734
7.98734
7.98734
7.98734
7.98734
7.98734
7.98734
7.98734
7.98734
7.98734
7.98734
7.98734
7.98734
7.98734
7.98734
7.98734
7.98734
7.98734
7.98734
7.98734
7.98734
7.98734
7.98734
7.98734
7.98734
7.98734
7.98734
7.98734
7.98734
7.98734
7.98734
7.98734
7.98734
7.98734
7.98734
7.98734
7.98734
7.98734
7.98734
7.98734
7.98734
7.98734
7.98734
7.98734
7.98734
7.98734
7.98734
7.98734
7.98734
7.98734
7.98734
7.98734
7.98734
7.98734
7.98734
7.98734
7.98734
7.98734
7.98734
7.98734
7.98734
7.98734
7.98734
7.98734
7.98734
7.98734
7.98734
7.98734
7.98734
7.98734
7.98734
7.98734
7.98734
7.98734
7.98734
7.98734
7.98733
7.98735
)
;

boundaryField
{
    inlet
    {
        type            fixedValue;
        value           uniform 0.18449;
    }
    outlet
    {
        type            zeroGradient;
    }
    sideWall
    {
        type            empty;
    }
    bed
    {
        type            omegaWallFunction;
        refValue        nonuniform List<scalar> 
300
(
146.936
162.368
149.889
137.555
130.499
127.226
126.046
125.892
126.105
126.528
127.046
127.556
128.058
128.576
129.076
129.581
130.109
130.638
131.174
131.713
132.25
132.787
133.338
133.903
134.448
134.949
135.399
135.794
136.136
136.428
136.678
136.891
137.069
137.214
137.33
137.426
137.506
137.573
137.629
137.677
137.718
137.752
137.782
137.807
137.828
137.847
137.862
137.875
137.887
137.896
137.905
137.912
137.918
137.923
137.927
137.931
137.934
137.937
137.939
137.942
137.943
137.945
137.946
137.947
137.948
137.949
137.95
137.95
137.951
137.951
137.952
137.952
137.952
137.952
137.953
137.953
137.953
137.953
137.953
137.953
137.953
137.953
137.953
137.953
137.954
137.954
137.954
137.954
137.954
137.954
137.954
137.954
137.954
137.954
137.954
137.954
137.954
137.954
137.954
137.954
137.954
137.954
137.954
137.954
137.954
137.954
137.954
137.954
137.954
137.954
137.954
137.954
137.954
137.954
137.954
137.954
137.954
137.954
137.954
137.954
137.954
137.954
137.954
137.954
137.954
137.954
137.954
137.954
137.954
137.954
137.954
137.954
137.954
137.954
137.954
137.954
137.954
137.954
137.954
137.954
137.954
137.954
137.954
137.954
137.954
137.954
137.954
137.954
137.954
137.954
137.954
137.954
137.954
137.954
137.954
137.954
137.954
137.954
137.954
137.954
137.954
137.954
137.954
137.954
137.954
137.954
137.954
137.954
137.954
137.954
137.954
137.954
137.954
137.954
137.954
137.954
137.954
137.954
137.954
137.954
137.954
137.954
137.954
137.954
137.954
137.954
137.954
137.954
137.954
137.954
137.954
137.954
137.954
137.954
137.954
137.954
137.954
137.954
137.954
137.954
137.954
137.954
137.954
137.954
137.954
137.954
137.954
137.954
137.954
137.954
137.954
137.954
137.954
137.954
137.954
137.954
137.954
137.954
137.954
137.954
137.954
137.954
137.954
137.954
137.954
137.954
137.954
137.954
137.954
137.954
137.954
137.954
137.954
137.954
137.954
137.954
137.954
137.954
137.954
137.954
137.954
137.954
137.954
137.954
137.954
137.954
137.954
137.954
137.954
137.954
137.954
137.954
137.954
137.954
137.954
137.954
137.954
137.954
137.954
137.954
137.954
137.954
137.954
137.954
137.954
137.954
137.954
137.954
137.954
137.954
137.954
137.954
137.954
137.954
137.954
137.954
137.954
137.954
137.954
137.954
137.954
137.954
137.954
137.954
137.954
137.954
137.954
137.954
137.954
137.954
137.954
137.954
137.954
137.954
137.954
137.954
137.954
137.954
137.959
137.953
)
;
        value           nonuniform List<scalar> 
300
(
146.936
162.368
149.889
137.555
130.499
127.226
126.046
125.892
126.105
126.528
127.046
127.556
128.058
128.576
129.076
129.581
130.109
130.638
131.174
131.713
132.25
132.787
133.338
133.903
134.448
134.949
135.399
135.794
136.136
136.428
136.678
136.891
137.069
137.214
137.33
137.426
137.506
137.573
137.629
137.677
137.718
137.752
137.782
137.807
137.828
137.847
137.862
137.875
137.887
137.896
137.905
137.912
137.918
137.923
137.927
137.931
137.934
137.937
137.939
137.942
137.943
137.945
137.946
137.947
137.948
137.949
137.95
137.95
137.951
137.951
137.952
137.952
137.952
137.952
137.953
137.953
137.953
137.953
137.953
137.953
137.953
137.953
137.953
137.953
137.954
137.954
137.954
137.954
137.954
137.954
137.954
137.954
137.954
137.954
137.954
137.954
137.954
137.954
137.954
137.954
137.954
137.954
137.954
137.954
137.954
137.954
137.954
137.954
137.954
137.954
137.954
137.954
137.954
137.954
137.954
137.954
137.954
137.954
137.954
137.954
137.954
137.954
137.954
137.954
137.954
137.954
137.954
137.954
137.954
137.954
137.954
137.954
137.954
137.954
137.954
137.954
137.954
137.954
137.954
137.954
137.954
137.954
137.954
137.954
137.954
137.954
137.954
137.954
137.954
137.954
137.954
137.954
137.954
137.954
137.954
137.954
137.954
137.954
137.954
137.954
137.954
137.954
137.954
137.954
137.954
137.954
137.954
137.954
137.954
137.954
137.954
137.954
137.954
137.954
137.954
137.954
137.954
137.954
137.954
137.954
137.954
137.954
137.954
137.954
137.954
137.954
137.954
137.954
137.954
137.954
137.954
137.954
137.954
137.954
137.954
137.954
137.954
137.954
137.954
137.954
137.954
137.954
137.954
137.954
137.954
137.954
137.954
137.954
137.954
137.954
137.954
137.954
137.954
137.954
137.954
137.954
137.954
137.954
137.954
137.954
137.954
137.954
137.954
137.954
137.954
137.954
137.954
137.954
137.954
137.954
137.954
137.954
137.954
137.954
137.954
137.954
137.954
137.954
137.954
137.954
137.954
137.954
137.954
137.954
137.954
137.954
137.954
137.954
137.954
137.954
137.954
137.954
137.954
137.954
137.954
137.954
137.954
137.954
137.954
137.954
137.954
137.954
137.954
137.954
137.954
137.954
137.954
137.954
137.954
137.954
137.954
137.954
137.954
137.954
137.954
137.954
137.954
137.954
137.954
137.954
137.954
137.954
137.954
137.954
137.954
137.954
137.954
137.954
137.954
137.954
137.954
137.954
137.954
137.954
137.954
137.954
137.954
137.954
137.959
137.953
)
;
        Cmu             0.09;
        kappa           0.41;
        E               9.8;
        beta1           0.075;
    }
    topWall
    {
        type            slip;
        value           nonuniform List<scalar> 
300
(
0.28589
0.498755
0.832988
1.1921
1.53671
1.88853
2.32547
2.79104
3.28769
3.87641
4.61063
5.41251
6.24711
7.07071
7.81287
8.45629
8.97608
9.34478
9.59184
9.75238
9.82232
9.80942
9.72992
9.60458
9.45089
9.29346
9.14348
9.00533
8.88041
8.76788
8.66785
8.57856
8.49916
8.42907
8.36785
8.31485
8.26896
8.2293
8.19505
8.16553
8.1401
8.11823
8.09944
8.08331
8.06946
8.0576
8.04743
8.03872
8.03126
8.02488
8.01943
8.01476
8.01077
8.00737
8.00445
8.00197
7.99984
7.99803
7.99648
7.99515
7.99402
7.99306
7.99224
7.99153
7.99093
7.99042
7.98998
7.9896
7.98928
7.98901
7.98878
7.98857
7.9884
7.98825
7.98813
7.98802
7.98793
7.98785
7.98778
7.98772
7.98767
7.98763
7.98759
7.98756
7.98753
7.98751
7.98749
7.98748
7.98746
7.98745
7.98743
7.98742
7.98741
7.9874
7.98739
7.98739
7.98738
7.98737
7.98737
7.98737
7.98736
7.98736
7.98736
7.98736
7.98736
7.98736
7.98735
7.98735
7.98735
7.98735
7.98735
7.98735
7.98735
7.98735
7.98735
7.98735
7.98735
7.98735
7.98735
7.98735
7.98734
7.98734
7.98734
7.98734
7.98734
7.98734
7.98734
7.98734
7.98734
7.98734
7.98734
7.98734
7.98734
7.98734
7.98734
7.98734
7.98734
7.98734
7.98734
7.98734
7.98734
7.98734
7.98734
7.98734
7.98734
7.98734
7.98734
7.98734
7.98734
7.98734
7.98734
7.98734
7.98734
7.98734
7.98734
7.98734
7.98734
7.98734
7.98734
7.98734
7.98734
7.98734
7.98734
7.98734
7.98734
7.98734
7.98734
7.98734
7.98734
7.98734
7.98734
7.98734
7.98734
7.98734
7.98734
7.98734
7.98734
7.98734
7.98734
7.98734
7.98734
7.98734
7.98734
7.98734
7.98734
7.98734
7.98734
7.98734
7.98734
7.98734
7.98734
7.98734
7.98734
7.98734
7.98734
7.98734
7.98734
7.98734
7.98734
7.98734
7.98734
7.98734
7.98734
7.98734
7.98734
7.98734
7.98734
7.98734
7.98734
7.98734
7.98734
7.98734
7.98734
7.98734
7.98734
7.98734
7.98734
7.98734
7.98734
7.98734
7.98734
7.98734
7.98734
7.98734
7.98734
7.98734
7.98734
7.98734
7.98734
7.98734
7.98734
7.98734
7.98734
7.98734
7.98734
7.98734
7.98734
7.98734
7.98734
7.98734
7.98734
7.98734
7.98734
7.98734
7.98734
7.98734
7.98734
7.98734
7.98734
7.98734
7.98734
7.98734
7.98734
7.98734
7.98734
7.98734
7.98734
7.98734
7.98734
7.98734
7.98734
7.98734
7.98734
7.98734
7.98734
7.98734
7.98734
7.98734
7.98734
7.98734
7.98734
7.98734
7.98734
7.98734
7.98734
7.98734
7.98734
7.98734
7.98734
7.98734
7.98734
7.98734
7.98734
7.98734
7.98734
7.98734
7.98734
7.98734
7.98734
7.98734
7.98734
7.98734
7.98734
7.98734
7.98734
7.98734
7.98734
7.98734
7.98733
7.98735
)
;
    }
}


// ************************************************************************* //
