/*--------------------------------*- C++ -*----------------------------------*\
| =========                 |                                                 |
| \\      /  F ield         | foam-extend: Open Source CFD                    |
|  \\    /   O peration     | Version:     3.2                                |
|   \\  /    A nd           | Web:         http://www.foam-extend.org         |
|    \\/     M anipulation  | For copyright notice see file Copyright         |
\*---------------------------------------------------------------------------*/
FoamFile
{
    version     2.0;
    format      ascii;
    class       volScalarField;
    location    "200";
    object      p;
}
// * * * * * * * * * * * * * * * * * * * * * * * * * * * * * * * * * * * * * //

dimensions      [1 -1 -2 0 0 0 0];

internalField   nonuniform List<scalar> 
2400
(
491.363
487.343
486.61
486.288
486.577
487.229
488.053
488.913
489.838
490.778
491.736
492.697
493.679
494.667
495.658
496.66
497.654
498.65
499.644
500.64
501.635
502.63
503.613
504.575
505.511
506.428
507.323
508.198
509.056
509.898
510.726
511.541
512.346
513.143
513.934
514.72
515.501
516.278
517.052
517.823
518.592
519.358
520.123
520.886
521.648
522.409
523.169
523.928
524.687
525.445
526.202
526.959
527.716
528.472
529.228
529.984
530.74
531.496
532.251
533.006
533.761
534.517
535.272
536.027
536.781
537.536
538.291
539.046
539.801
540.555
541.31
542.065
542.819
543.574
544.329
545.083
545.838
546.593
547.347
548.102
548.857
549.611
550.366
551.12
551.875
552.63
553.384
554.139
554.893
555.648
556.402
557.157
557.912
558.666
559.421
560.175
560.93
561.685
562.439
563.194
563.948
564.703
565.457
566.212
566.967
567.721
568.476
569.23
569.985
570.74
571.494
572.249
573.003
573.758
574.512
575.267
576.022
576.776
577.531
578.285
579.04
579.794
580.549
581.304
582.058
582.813
583.567
584.322
585.077
585.831
586.586
587.34
588.095
588.849
589.604
590.359
591.113
591.868
592.622
593.377
594.131
594.886
595.641
596.395
597.15
597.904
598.659
599.414
600.168
600.923
601.677
602.432
603.186
603.941
604.696
605.45
606.205
606.959
607.714
608.469
609.223
609.978
610.732
611.487
612.241
612.996
613.751
614.505
615.26
616.014
616.769
617.523
618.278
619.033
619.787
620.542
621.296
622.051
622.806
623.56
624.315
625.069
625.824
626.578
627.333
628.088
628.842
629.597
630.351
631.106
631.861
632.615
633.37
634.124
634.879
635.633
636.388
637.143
637.897
638.652
639.406
640.161
640.915
641.67
642.425
643.179
643.934
644.688
645.443
646.198
646.952
647.707
648.461
649.216
649.97
650.725
651.48
652.234
652.989
653.743
654.498
655.252
656.007
656.762
657.516
658.271
659.025
659.78
660.535
661.289
662.044
662.798
663.553
664.307
665.062
665.817
666.571
667.326
668.08
668.835
669.59
670.344
671.099
671.853
672.608
673.362
674.117
674.872
675.626
676.381
677.135
677.89
678.644
679.399
680.154
680.908
681.663
682.417
683.172
683.927
684.681
685.436
686.19
686.945
687.699
688.454
689.209
689.963
690.718
691.472
692.227
692.982
693.736
694.491
695.245
696
696.754
697.509
698.264
699.018
699.773
700.527
701.282
702.036
702.791
703.546
704.3
705.055
705.809
706.564
707.319
708.073
708.828
709.582
710.337
711.091
711.846
712.601
713.355
714.103
454.648
450.75
449.986
449.659
449.947
450.597
451.42
452.278
453.203
454.142
455.098
456.058
457.04
458.027
459.018
460.02
461.013
462.009
463.003
463.999
464.993
465.988
466.972
467.933
468.87
469.786
470.681
471.557
472.415
473.257
474.085
474.9
475.705
476.502
477.293
478.079
478.86
479.638
480.412
481.183
481.951
482.718
483.482
484.246
485.008
485.769
486.529
487.288
488.046
488.804
489.562
490.319
491.076
491.832
492.588
493.344
494.1
494.855
495.611
496.366
497.121
497.876
498.631
499.386
500.141
500.896
501.651
502.406
503.16
503.915
504.67
505.424
506.179
506.934
507.688
508.443
509.198
509.952
510.707
511.462
512.216
512.971
513.725
514.48
515.235
515.989
516.744
517.498
518.253
519.008
519.762
520.517
521.271
522.026
522.78
523.535
524.29
525.044
525.799
526.553
527.308
528.063
528.817
529.572
530.326
531.081
531.835
532.59
533.345
534.099
534.854
535.608
536.363
537.117
537.872
538.627
539.381
540.136
540.89
541.645
542.4
543.154
543.909
544.663
545.418
546.172
546.927
547.682
548.436
549.191
549.945
550.7
551.455
552.209
552.964
553.718
554.473
555.227
555.982
556.737
557.491
558.246
559
559.755
560.509
561.264
562.019
562.773
563.528
564.282
565.037
565.792
566.546
567.301
568.055
568.81
569.564
570.319
571.074
571.828
572.583
573.337
574.092
574.846
575.601
576.356
577.11
577.865
578.619
579.374
580.129
580.883
581.638
582.392
583.147
583.901
584.656
585.411
586.165
586.92
587.674
588.429
589.184
589.938
590.693
591.447
592.202
592.956
593.711
594.466
595.22
595.975
596.729
597.484
598.238
598.993
599.748
600.502
601.257
602.011
602.766
603.521
604.275
605.03
605.784
606.539
607.293
608.048
608.803
609.557
610.312
611.066
611.821
612.575
613.33
614.085
614.839
615.594
616.348
617.103
617.858
618.612
619.367
620.121
620.876
621.63
622.385
623.14
623.894
624.649
625.403
626.158
626.913
627.667
628.422
629.176
629.931
630.685
631.44
632.195
632.949
633.704
634.458
635.213
635.967
636.722
637.477
638.231
638.986
639.74
640.495
641.25
642.004
642.759
643.513
644.268
645.022
645.777
646.532
647.286
648.041
648.795
649.55
650.305
651.059
651.814
652.568
653.323
654.077
654.832
655.587
656.341
657.096
657.85
658.605
659.36
660.114
660.869
661.623
662.378
663.132
663.887
664.642
665.396
666.151
666.905
667.66
668.414
669.169
669.924
670.678
671.433
672.187
672.942
673.697
674.451
675.206
675.96
676.715
677.472
417.907
414.121
413.375
413.053
413.328
413.97
414.789
415.645
416.569
417.506
418.461
419.421
420.402
421.389
422.378
423.38
424.373
425.369
426.363
427.358
428.353
429.348
430.331
431.292
432.229
433.145
434.04
434.916
435.774
436.616
437.444
438.259
439.064
439.861
440.653
441.439
442.22
442.997
443.771
444.542
445.311
446.077
446.842
447.605
448.367
449.128
449.888
450.647
451.406
452.164
452.921
453.678
454.435
455.192
455.948
456.704
457.459
458.215
458.97
459.726
460.481
461.236
461.991
462.746
463.501
464.256
465.01
465.765
466.52
467.275
468.029
468.784
469.539
470.293
471.048
471.803
472.557
473.312
474.067
474.821
475.576
476.33
477.085
477.84
478.594
479.349
480.103
480.858
481.613
482.367
483.122
483.876
484.631
485.385
486.14
486.895
487.649
488.404
489.158
489.913
490.668
491.422
492.177
492.931
493.686
494.44
495.195
495.95
496.704
497.459
498.213
498.968
499.723
500.477
501.232
501.986
502.741
503.495
504.25
505.005
505.759
506.514
507.268
508.023
508.778
509.532
510.287
511.041
511.796
512.55
513.305
514.06
514.814
515.569
516.323
517.078
517.832
518.587
519.342
520.096
520.851
521.605
522.36
523.115
523.869
524.624
525.378
526.133
526.887
527.642
528.397
529.151
529.906
530.66
531.415
532.169
532.924
533.679
534.433
535.188
535.942
536.697
537.452
538.206
538.961
539.715
540.47
541.224
541.979
542.734
543.488
544.243
544.997
545.752
546.507
547.261
548.016
548.77
549.525
550.279
551.034
551.789
552.543
553.298
554.052
554.807
555.561
556.316
557.071
557.825
558.58
559.334
560.089
560.844
561.598
562.353
563.107
563.862
564.616
565.371
566.126
566.88
567.635
568.389
569.144
569.899
570.653
571.408
572.162
572.917
573.671
574.426
575.181
575.935
576.69
577.444
578.199
578.953
579.708
580.463
581.217
581.972
582.726
583.481
584.236
584.99
585.745
586.499
587.254
588.008
588.763
589.518
590.272
591.027
591.781
592.536
593.291
594.045
594.8
595.554
596.309
597.063
597.818
598.573
599.327
600.082
600.836
601.591
602.345
603.1
603.855
604.609
605.364
606.118
606.873
607.628
608.382
609.137
609.891
610.646
611.4
612.155
612.91
613.664
614.419
615.173
615.928
616.683
617.437
618.192
618.946
619.701
620.455
621.21
621.965
622.719
623.474
624.228
624.983
625.737
626.492
627.247
628.001
628.756
629.51
630.265
631.02
631.774
632.529
633.283
634.038
634.792
635.547
636.302
637.056
637.811
638.565
639.32
640.075
640.83
381.192
377.497
376.757
376.43
376.703
377.342
378.158
379.012
379.934
380.871
381.826
382.785
383.766
384.752
385.741
386.742
387.735
388.73
389.724
390.719
391.713
392.708
393.691
394.652
395.588
396.505
397.4
398.276
399.133
399.976
400.804
401.619
402.424
403.221
404.012
404.798
405.579
406.357
407.131
407.902
408.67
409.437
410.202
410.965
411.727
412.488
413.248
414.007
414.766
415.524
416.281
417.038
417.795
418.551
419.307
420.063
420.819
421.574
422.33
423.085
423.84
424.595
425.351
426.105
426.86
427.615
428.37
429.125
429.88
430.634
431.389
432.144
432.898
433.653
434.408
435.162
435.917
436.672
437.426
438.181
438.935
439.69
440.445
441.199
441.954
442.708
443.463
444.218
444.972
445.727
446.481
447.236
447.991
448.745
449.5
450.254
451.009
451.763
452.518
453.273
454.027
454.782
455.536
456.291
457.046
457.8
458.555
459.309
460.064
460.818
461.573
462.328
463.082
463.837
464.591
465.346
466.101
466.855
467.61
468.364
469.119
469.873
470.628
471.383
472.137
472.892
473.646
474.401
475.155
475.91
476.665
477.419
478.174
478.928
479.683
480.438
481.192
481.947
482.701
483.456
484.21
484.965
485.72
486.474
487.229
487.983
488.738
489.493
490.247
491.002
491.756
492.511
493.265
494.02
494.775
495.529
496.284
497.038
497.793
498.547
499.302
500.057
500.811
501.566
502.32
503.075
503.83
504.584
505.339
506.093
506.848
507.602
508.357
509.112
509.866
510.621
511.375
512.13
512.884
513.639
514.394
515.148
515.903
516.657
517.412
518.167
518.921
519.676
520.43
521.185
521.939
522.694
523.449
524.203
524.958
525.712
526.467
527.222
527.976
528.731
529.485
530.24
530.994
531.749
532.504
533.258
534.013
534.767
535.522
536.276
537.031
537.786
538.54
539.295
540.049
540.804
541.559
542.313
543.068
543.822
544.577
545.331
546.086
546.841
547.595
548.35
549.104
549.859
550.614
551.368
552.123
552.877
553.632
554.386
555.141
555.896
556.65
557.405
558.159
558.914
559.668
560.423
561.178
561.932
562.687
563.441
564.196
564.951
565.705
566.46
567.214
567.969
568.723
569.478
570.233
570.987
571.742
572.496
573.251
574.006
574.76
575.515
576.269
577.024
577.778
578.533
579.288
580.042
580.797
581.551
582.306
583.06
583.815
584.57
585.324
586.079
586.833
587.588
588.343
589.097
589.852
590.606
591.361
592.115
592.87
593.625
594.379
595.134
595.888
596.643
597.398
598.152
598.907
599.661
600.416
601.17
601.925
602.68
603.434
604.19
344.482
340.864
340.129
339.797
340.074
340.71
341.522
342.377
343.299
344.236
345.19
346.149
347.13
348.116
349.105
350.106
351.099
352.093
353.087
354.081
355.075
356.07
357.053
358.013
358.949
359.865
360.76
361.636
362.493
363.336
364.164
364.979
365.783
366.581
367.372
368.158
368.939
369.716
370.49
371.261
372.03
372.796
373.561
374.325
375.087
375.848
376.608
377.367
378.125
378.883
379.641
380.398
381.154
381.911
382.667
383.423
384.179
384.934
385.69
386.445
387.2
387.955
388.71
389.465
390.22
390.975
391.73
392.485
393.239
393.994
394.749
395.503
396.258
397.013
397.767
398.522
399.277
400.031
400.786
401.541
402.295
403.05
403.804
404.559
405.314
406.068
406.823
407.577
408.332
409.086
409.841
410.596
411.35
412.105
412.859
413.614
414.369
415.123
415.878
416.632
417.387
418.141
418.896
419.651
420.405
421.16
421.914
422.669
423.424
424.178
424.933
425.687
426.442
427.196
427.951
428.706
429.46
430.215
430.969
431.724
432.478
433.233
433.988
434.742
435.497
436.251
437.006
437.761
438.515
439.27
440.024
440.779
441.533
442.288
443.043
443.797
444.552
445.306
446.061
446.816
447.57
448.325
449.079
449.834
450.588
451.343
452.098
452.852
453.607
454.361
455.116
455.87
456.625
457.38
458.134
458.889
459.643
460.398
461.153
461.907
462.662
463.416
464.171
464.925
465.68
466.435
467.189
467.944
468.698
469.453
470.208
470.962
471.717
472.471
473.226
473.98
474.735
475.49
476.244
476.999
477.753
478.508
479.262
480.017
480.772
481.526
482.281
483.035
483.79
484.545
485.299
486.054
486.808
487.563
488.317
489.072
489.827
490.581
491.336
492.09
492.845
493.599
494.354
495.109
495.863
496.618
497.372
498.127
498.882
499.636
500.391
501.145
501.9
502.654
503.409
504.164
504.918
505.673
506.427
507.182
507.937
508.691
509.446
510.2
510.955
511.709
512.464
513.219
513.973
514.728
515.482
516.237
516.991
517.746
518.501
519.255
520.01
520.764
521.519
522.274
523.028
523.783
524.537
525.292
526.046
526.801
527.556
528.31
529.065
529.819
530.574
531.329
532.083
532.838
533.592
534.347
535.101
535.856
536.611
537.365
538.12
538.874
539.629
540.383
541.138
541.893
542.647
543.402
544.156
544.911
545.666
546.42
547.175
547.929
548.684
549.438
550.193
550.948
551.702
552.457
553.211
553.966
554.721
555.475
556.23
556.984
557.739
558.493
559.248
560.003
560.757
561.512
562.266
563.021
563.775
564.53
565.285
566.039
566.794
567.55
307.802
304.219
303.484
303.162
303.437
304.071
304.881
305.739
306.661
307.599
308.552
309.512
310.493
311.479
312.468
313.469
314.462
315.456
316.451
317.445
318.439
319.433
320.415
321.374
322.31
323.226
324.121
324.996
325.854
326.696
327.524
328.339
329.144
329.941
330.732
331.518
332.299
333.076
333.85
334.621
335.39
336.156
336.921
337.684
338.446
339.207
339.967
340.726
341.485
342.243
343
343.757
344.514
345.271
346.027
346.783
347.538
348.294
349.049
349.805
350.56
351.315
352.07
352.825
353.58
354.335
355.089
355.844
356.599
357.354
358.108
358.863
359.618
360.372
361.127
361.882
362.636
363.391
364.146
364.9
365.655
366.409
367.164
367.919
368.673
369.428
370.182
370.937
371.692
372.446
373.201
373.955
374.71
375.464
376.219
376.974
377.728
378.483
379.237
379.992
380.747
381.501
382.256
383.01
383.765
384.519
385.274
386.029
386.783
387.538
388.292
389.047
389.801
390.556
391.311
392.065
392.82
393.574
394.329
395.084
395.838
396.593
397.347
398.102
398.856
399.611
400.366
401.12
401.875
402.629
403.384
404.139
404.893
405.648
406.402
407.157
407.911
408.666
409.421
410.175
410.93
411.684
412.439
413.193
413.948
414.703
415.457
416.212
416.966
417.721
418.476
419.23
419.985
420.739
421.494
422.248
423.003
423.758
424.512
425.267
426.021
426.776
427.531
428.285
429.04
429.794
430.549
431.303
432.058
432.813
433.567
434.322
435.076
435.831
436.585
437.34
438.095
438.849
439.604
440.358
441.113
441.868
442.622
443.377
444.131
444.886
445.64
446.395
447.15
447.904
448.659
449.413
450.168
450.922
451.677
452.432
453.186
453.941
454.695
455.45
456.205
456.959
457.714
458.468
459.223
459.977
460.732
461.487
462.241
462.996
463.75
464.505
465.26
466.014
466.769
467.523
468.278
469.032
469.787
470.542
471.296
472.051
472.805
473.56
474.314
475.069
475.824
476.578
477.333
478.087
478.842
479.597
480.351
481.106
481.86
482.615
483.369
484.124
484.879
485.633
486.388
487.142
487.897
488.652
489.406
490.161
490.915
491.67
492.424
493.179
493.934
494.688
495.443
496.197
496.952
497.706
498.461
499.216
499.97
500.725
501.479
502.234
502.989
503.743
504.498
505.252
506.007
506.761
507.516
508.271
509.025
509.78
510.534
511.289
512.044
512.798
513.553
514.307
515.062
515.816
516.571
517.326
518.08
518.835
519.589
520.344
521.098
521.853
522.608
523.362
524.117
524.871
525.626
526.381
527.135
527.89
528.644
529.399
530.154
530.909
271.155
267.579
266.834
266.515
266.793
267.428
268.239
269.097
270.02
270.958
271.912
272.874
273.855
274.841
275.83
276.832
277.825
278.819
279.813
280.808
281.801
282.795
283.777
284.736
285.671
286.587
287.482
288.357
289.214
290.057
290.884
291.699
292.504
293.301
294.092
294.878
295.659
296.436
297.21
297.981
298.75
299.516
300.281
301.044
301.806
302.567
303.327
304.086
304.845
305.603
306.36
307.117
307.874
308.63
309.386
310.142
310.898
311.653
312.409
313.164
313.919
314.674
315.429
316.184
316.939
317.694
318.449
319.204
319.959
320.713
321.468
322.223
322.977
323.732
324.487
325.241
325.996
326.751
327.505
328.26
329.014
329.769
330.524
331.278
332.033
332.787
333.542
334.297
335.051
335.806
336.56
337.315
338.07
338.824
339.579
340.333
341.088
341.842
342.597
343.352
344.106
344.861
345.615
346.37
347.124
347.879
348.634
349.388
350.143
350.897
351.652
352.407
353.161
353.916
354.67
355.425
356.179
356.934
357.689
358.443
359.198
359.952
360.707
361.462
362.216
362.971
363.725
364.48
365.234
365.989
366.744
367.498
368.253
369.007
369.762
370.516
371.271
372.026
372.78
373.535
374.289
375.044
375.799
376.553
377.308
378.062
378.817
379.571
380.326
381.081
381.835
382.59
383.344
384.099
384.854
385.608
386.363
387.117
387.872
388.626
389.381
390.136
390.89
391.645
392.399
393.154
393.908
394.663
395.418
396.172
396.927
397.681
398.436
399.191
399.945
400.7
401.454
402.209
402.963
403.718
404.473
405.227
405.982
406.736
407.491
408.246
409
409.755
410.509
411.264
412.018
412.773
413.528
414.282
415.037
415.791
416.546
417.3
418.055
418.81
419.564
420.319
421.073
421.828
422.583
423.337
424.092
424.846
425.601
426.355
427.11
427.865
428.619
429.374
430.128
430.883
431.637
432.392
433.147
433.901
434.656
435.41
436.165
436.92
437.674
438.429
439.183
439.938
440.692
441.447
442.202
442.956
443.711
444.465
445.22
445.975
446.729
447.484
448.238
448.993
449.747
450.502
451.257
452.011
452.766
453.52
454.275
455.029
455.784
456.539
457.293
458.048
458.802
459.557
460.312
461.066
461.821
462.575
463.33
464.084
464.839
465.594
466.348
467.103
467.857
468.612
469.367
470.121
470.876
471.63
472.385
473.139
473.894
474.649
475.403
476.158
476.912
477.667
478.421
479.176
479.931
480.685
481.44
482.194
482.949
483.704
484.458
485.213
485.967
486.722
487.476
488.231
488.986
489.74
490.495
491.249
492.004
492.759
493.513
494.269
234.54
230.947
230.191
229.868
230.149
230.784
231.596
232.454
233.378
234.316
235.271
236.233
237.214
238.201
239.19
240.194
241.186
242.18
243.175
244.169
245.162
246.156
247.139
248.098
249.032
249.948
250.842
251.717
252.575
253.417
254.245
255.059
255.864
256.66
257.452
258.238
259.019
259.796
260.57
261.341
262.109
262.876
263.641
264.404
265.166
265.927
266.687
267.446
268.204
268.962
269.72
270.477
271.233
271.99
272.746
273.502
274.258
275.013
275.769
276.524
277.279
278.034
278.789
279.544
280.299
281.054
281.809
282.563
283.318
284.073
284.828
285.582
286.337
287.092
287.846
288.601
289.356
290.11
290.865
291.619
292.374
293.129
293.883
294.638
295.392
296.147
296.902
297.656
298.411
299.165
299.92
300.675
301.429
302.184
302.938
303.693
304.447
305.202
305.957
306.711
307.466
308.22
308.975
309.73
310.484
311.239
311.993
312.748
313.502
314.257
315.012
315.766
316.521
317.275
318.03
318.785
319.539
320.294
321.048
321.803
322.557
323.312
324.067
324.821
325.576
326.33
327.085
327.839
328.594
329.349
330.103
330.858
331.612
332.367
333.122
333.876
334.631
335.385
336.14
336.894
337.649
338.404
339.158
339.913
340.667
341.422
342.177
342.931
343.686
344.44
345.195
345.949
346.704
347.459
348.213
348.968
349.722
350.477
351.231
351.986
352.741
353.495
354.25
355.004
355.759
356.514
357.268
358.023
358.777
359.532
360.286
361.041
361.796
362.55
363.305
364.059
364.814
365.569
366.323
367.078
367.832
368.587
369.341
370.096
370.851
371.605
372.36
373.114
373.869
374.623
375.378
376.133
376.887
377.642
378.396
379.151
379.906
380.66
381.415
382.169
382.924
383.678
384.433
385.188
385.942
386.697
387.451
388.206
388.96
389.715
390.47
391.224
391.979
392.733
393.488
394.243
394.997
395.752
396.506
397.261
398.015
398.77
399.525
400.279
401.034
401.788
402.543
403.298
404.052
404.807
405.561
406.316
407.07
407.825
408.58
409.334
410.089
410.843
411.598
412.352
413.107
413.862
414.616
415.371
416.125
416.88
417.635
418.389
419.144
419.898
420.653
421.407
422.162
422.917
423.671
424.426
425.18
425.935
426.69
427.444
428.199
428.953
429.708
430.462
431.217
431.972
432.726
433.481
434.235
434.99
435.744
436.499
437.254
438.008
438.763
439.517
440.272
441.027
441.781
442.536
443.29
444.045
444.799
445.554
446.309
447.063
447.818
448.572
449.327
450.082
450.836
451.591
452.345
453.1
453.854
454.609
455.364
456.118
456.873
457.628
)
;

boundaryField
{
    inlet
    {
        type            calculated;
        value           nonuniform List<scalar> 8(490.142 453.426 416.685 379.971 343.261 306.58 269.934 233.318);
    }
    outlet
    {
        type            calculated;
        value           nonuniform List<scalar> 8(714.487 677.846 641.206 604.566 567.925 531.285 494.645 458.004);
    }
    sideWall
    {
        type            empty;
    }
    bed
    {
        type            calculated;
        value           nonuniform List<scalar> 
300
(
509.684
505.663
504.93
504.608
504.897
505.549
506.374
507.233
508.158
509.099
510.056
511.017
511.999
512.987
513.978
514.98
515.974
516.97
517.965
518.96
519.955
520.95
521.933
522.895
523.831
524.748
525.643
526.518
527.376
528.218
529.046
529.861
530.666
531.463
532.254
533.04
533.821
534.598
535.372
536.143
536.912
537.678
538.443
539.206
539.968
540.729
541.489
542.248
543.007
543.765
544.522
545.279
546.036
546.792
547.549
548.304
549.06
549.816
550.571
551.326
552.082
552.837
553.592
554.347
555.102
555.856
556.611
557.366
558.121
558.876
559.63
560.385
561.14
561.894
562.649
563.404
564.158
564.913
565.667
566.422
567.177
567.931
568.686
569.44
570.195
570.95
571.704
572.459
573.213
573.968
574.723
575.477
576.232
576.986
577.741
578.496
579.25
580.005
580.759
581.514
582.268
583.023
583.778
584.532
585.287
586.041
586.796
587.551
588.305
589.06
589.814
590.569
591.323
592.078
592.833
593.587
594.342
595.096
595.851
596.605
597.36
598.115
598.869
599.624
600.378
601.133
601.888
602.642
603.397
604.151
604.906
605.66
606.415
607.17
607.924
608.679
609.433
610.188
610.943
611.697
612.452
613.206
613.961
614.715
615.47
616.225
616.979
617.734
618.488
619.243
619.997
620.752
621.507
622.261
623.016
623.77
624.525
625.28
626.034
626.789
627.543
628.298
629.052
629.807
630.562
631.316
632.071
632.825
633.58
634.334
635.089
635.844
636.598
637.353
638.107
638.862
639.617
640.371
641.126
641.88
642.635
643.389
644.144
644.899
645.653
646.408
647.162
647.917
648.672
649.426
650.181
650.935
651.69
652.444
653.199
653.954
654.708
655.463
656.217
656.972
657.726
658.481
659.236
659.99
660.745
661.499
662.254
663.009
663.763
664.518
665.272
666.027
666.781
667.536
668.291
669.045
669.8
670.554
671.309
672.064
672.818
673.573
674.327
675.082
675.836
676.591
677.346
678.1
678.855
679.609
680.364
681.118
681.873
682.628
683.382
684.137
684.891
685.646
686.401
687.155
687.91
688.664
689.419
690.173
690.928
691.683
692.437
693.192
693.946
694.701
695.456
696.21
696.965
697.719
698.474
699.228
699.983
700.738
701.492
702.247
703.001
703.756
704.51
705.265
706.02
706.774
707.529
708.283
709.038
709.793
710.547
711.302
712.056
712.811
713.565
714.32
715.075
715.829
716.584
717.338
718.093
718.848
719.602
720.357
721.111
721.866
722.62
723.375
724.13
724.884
725.639
726.393
727.148
727.902
728.657
729.412
730.166
730.921
731.676
732.423
)
;
    }
    topWall
    {
        type            calculated;
        value           nonuniform List<scalar> 
300
(
216.22
212.627
211.871
211.548
211.828
212.464
213.276
214.134
215.057
215.996
216.95
217.913
218.894
219.88
220.87
221.874
222.866
223.86
224.854
225.848
226.842
227.836
228.818
229.777
230.712
231.628
232.522
233.397
234.255
235.097
235.924
236.739
237.543
238.34
239.132
239.918
240.699
241.476
242.25
243.021
243.789
244.556
245.32
246.084
246.846
247.606
248.366
249.126
249.884
250.642
251.4
252.157
252.913
253.67
254.426
255.182
255.937
256.693
257.448
258.204
258.959
259.714
260.469
261.224
261.979
262.734
263.489
264.243
264.998
265.753
266.507
267.262
268.017
268.772
269.526
270.281
271.035
271.79
272.545
273.299
274.054
274.808
275.563
276.318
277.072
277.827
278.581
279.336
280.091
280.845
281.6
282.354
283.109
283.864
284.618
285.373
286.127
286.882
287.636
288.391
289.146
289.9
290.655
291.409
292.164
292.919
293.673
294.428
295.182
295.937
296.691
297.446
298.201
298.955
299.71
300.464
301.219
301.974
302.728
303.483
304.237
304.992
305.746
306.501
307.256
308.01
308.765
309.519
310.274
311.028
311.783
312.538
313.292
314.047
314.801
315.556
316.311
317.065
317.82
318.574
319.329
320.083
320.838
321.593
322.347
323.102
323.856
324.611
325.366
326.12
326.875
327.629
328.384
329.138
329.893
330.648
331.402
332.157
332.911
333.666
334.42
335.175
335.93
336.684
337.439
338.193
338.948
339.703
340.457
341.212
341.966
342.721
343.475
344.23
344.985
345.739
346.494
347.248
348.003
348.757
349.512
350.267
351.021
351.776
352.53
353.285
354.04
354.794
355.549
356.303
357.058
357.812
358.567
359.322
360.076
360.831
361.585
362.34
363.095
363.849
364.604
365.358
366.113
366.867
367.622
368.377
369.131
369.886
370.64
371.395
372.149
372.904
373.659
374.413
375.168
375.922
376.677
377.432
378.186
378.941
379.695
380.45
381.204
381.959
382.714
383.468
384.223
384.977
385.732
386.487
387.241
387.996
388.75
389.505
390.259
391.014
391.769
392.523
393.278
394.032
394.787
395.541
396.296
397.051
397.805
398.56
399.314
400.069
400.824
401.578
402.333
403.087
403.842
404.596
405.351
406.106
406.86
407.615
408.369
409.124
409.879
410.633
411.388
412.142
412.897
413.651
414.406
415.161
415.915
416.67
417.424
418.179
418.933
419.688
420.443
421.197
421.952
422.706
423.461
424.216
424.97
425.725
426.479
427.234
427.988
428.743
429.498
430.252
431.007
431.761
432.516
433.271
434.025
434.78
435.534
436.289
437.043
437.798
438.553
439.308
)
;
    }
}


// ************************************************************************* //
