/*--------------------------------*- C++ -*----------------------------------*\
| =========                 |                                                 |
| \\      /  F ield         | foam-extend: Open Source CFD                    |
|  \\    /   O peration     | Version:     3.2                                |
|   \\  /    A nd           | Web:         http://www.foam-extend.org         |
|    \\/     M anipulation  | For copyright notice see file Copyright         |
\*---------------------------------------------------------------------------*/
FoamFile
{
    version     2.0;
    format      ascii;
    class       surfaceScalarField;
    location    "200";
    object      phi;
}
// * * * * * * * * * * * * * * * * * * * * * * * * * * * * * * * * * * * * * //

dimensions      [0 3 -1 0 0 0 0];

internalField   nonuniform List<scalar> 
4492
(
1.72592e-05
5.24077e-06
1.40755e-05
3.18372e-06
1.20974e-05
1.97806e-06
1.1198e-05
8.99459e-07
1.08397e-05
3.58313e-07
1.07044e-05
1.35291e-07
1.06798e-05
2.45804e-08
1.0693e-05
-1.31738e-08
1.07259e-05
-3.29375e-08
1.07704e-05
-4.45234e-08
1.08163e-05
-4.58991e-08
1.08585e-05
-4.21589e-08
1.09024e-05
-4.3894e-08
1.09454e-05
-4.30144e-08
1.09864e-05
-4.09879e-08
1.10307e-05
-4.43261e-08
1.10753e-05
-4.46285e-08
1.112e-05
-4.46306e-08
1.11648e-05
-4.48499e-08
1.12096e-05
-4.4803e-08
1.12544e-05
-4.47248e-08
1.13015e-05
-4.71026e-08
1.13521e-05
-5.06282e-08
1.14033e-05
-5.12202e-08
1.1451e-05
-4.76958e-08
1.14944e-05
-4.34224e-08
1.1533e-05
-3.85797e-08
1.15667e-05
-3.36963e-08
1.15957e-05
-2.90132e-08
1.16206e-05
-2.48762e-08
1.1642e-05
-2.1435e-08
1.166e-05
-1.80105e-08
1.16748e-05
-1.47657e-08
1.16866e-05
-1.18266e-08
1.16962e-05
-9.61741e-09
1.17043e-05
-8.07414e-09
1.17111e-05
-6.77668e-09
1.17168e-05
-5.72018e-09
1.17217e-05
-4.84938e-09
1.17258e-05
-4.12407e-09
1.17293e-05
-3.51278e-09
1.17323e-05
-2.99435e-09
1.17348e-05
-2.55261e-09
1.1737e-05
-2.17605e-09
1.17389e-05
-1.85488e-09
1.17405e-05
-1.58119e-09
1.17418e-05
-1.34807e-09
1.1743e-05
-1.15036e-09
1.17439e-05
-9.81566e-10
1.17448e-05
-8.38318e-10
1.17455e-05
-7.16372e-10
1.17461e-05
-6.12371e-10
1.17466e-05
-5.24224e-10
1.17471e-05
-4.48369e-10
1.17475e-05
-3.83755e-10
1.17478e-05
-3.28621e-10
1.17481e-05
-2.81425e-10
1.17483e-05
-2.41136e-10
1.17485e-05
-2.06695e-10
1.17487e-05
-1.76856e-10
1.17488e-05
-1.51702e-10
1.1749e-05
-1.30273e-10
1.17491e-05
-1.11801e-10
1.17492e-05
-9.58228e-11
1.17493e-05
-8.24163e-11
1.17493e-05
-7.0969e-11
1.17494e-05
-6.10924e-11
1.17495e-05
-5.24246e-11
1.17495e-05
-4.45466e-11
1.17495e-05
-3.78363e-11
1.17496e-05
-3.22266e-11
1.17496e-05
-2.79207e-11
1.17496e-05
-2.42198e-11
1.17496e-05
-2.08054e-11
1.17497e-05
-1.76689e-11
1.17497e-05
-1.49407e-11
1.17497e-05
-1.2806e-11
1.17497e-05
-1.1022e-11
1.17497e-05
-9.40284e-12
1.17497e-05
-8.11472e-12
1.17497e-05
-7.1871e-12
1.17497e-05
-6.21974e-12
1.17497e-05
-5.08406e-12
1.17497e-05
-4.02369e-12
1.17497e-05
-3.02664e-12
1.17497e-05
-2.33863e-12
1.17497e-05
-2.13388e-12
1.17497e-05
-2.1189e-12
1.17497e-05
-2.09435e-12
1.17497e-05
-1.9818e-12
1.17498e-05
-1.71817e-12
1.17498e-05
-1.44017e-12
1.17498e-05
-1.21239e-12
1.17498e-05
-1.04826e-12
1.17498e-05
-9.36049e-13
1.17498e-05
-7.3997e-13
1.17498e-05
-4.83932e-13
1.17498e-05
-2.84997e-13
1.17498e-05
-1.90442e-13
1.17498e-05
-1.70168e-13
1.17498e-05
-1.79527e-13
1.17498e-05
-2.21907e-13
1.17498e-05
-2.9878e-13
1.17498e-05
-3.59007e-13
1.17498e-05
-3.67807e-13
1.17498e-05
-3.33138e-13
1.17498e-05
-2.78489e-13
1.17498e-05
-2.22237e-13
1.17498e-05
-1.73785e-13
1.17498e-05
-1.36018e-13
1.17498e-05
-1.08249e-13
1.17498e-05
-8.77794e-14
1.17498e-05
-7.20029e-14
1.17498e-05
-6.03542e-14
1.17498e-05
-5.21776e-14
1.17498e-05
-4.49424e-14
1.17498e-05
-3.72644e-14
1.17498e-05
-2.62573e-14
1.17498e-05
-7.831e-15
1.17498e-05
1.57037e-14
1.17498e-05
3.72689e-14
1.17498e-05
5.13905e-14
1.17498e-05
5.5852e-14
1.17498e-05
5.22852e-14
1.17498e-05
4.55412e-14
1.17498e-05
3.93759e-14
1.17498e-05
3.44556e-14
1.17498e-05
3.01245e-14
1.17498e-05
2.59229e-14
1.17498e-05
2.1855e-14
1.17498e-05
1.83287e-14
1.17498e-05
1.54592e-14
1.17498e-05
1.16593e-14
1.17498e-05
6.15181e-15
1.17498e-05
-9.44766e-15
1.17498e-05
-4.49192e-14
1.17498e-05
-9.08856e-14
1.17498e-05
-1.28202e-13
1.17498e-05
-1.45952e-13
1.17498e-05
-1.44775e-13
1.17498e-05
-1.31307e-13
1.17498e-05
-1.13543e-13
1.17498e-05
-9.65823e-14
1.17498e-05
-8.08055e-14
1.17498e-05
-6.55293e-14
1.17498e-05
-5.14565e-14
1.17498e-05
-3.9479e-14
1.17498e-05
-3.00949e-14
1.17498e-05
-2.32594e-14
1.17498e-05
-1.85172e-14
1.17498e-05
-1.63292e-14
1.17498e-05
-1.64907e-14
1.17498e-05
-1.65308e-14
1.17498e-05
-1.46783e-14
1.17498e-05
-1.15138e-14
1.17498e-05
-8.33668e-15
1.17498e-05
-5.85623e-15
1.17498e-05
-3.93141e-15
1.17498e-05
-2.35976e-15
1.17498e-05
-2.24011e-15
1.17498e-05
-3.93904e-15
1.17498e-05
-5.27977e-15
1.17498e-05
-5.00918e-15
1.17498e-05
-4.23705e-15
1.17498e-05
-4.04904e-15
1.17498e-05
-4.46317e-15
1.17498e-05
-4.78685e-15
1.17498e-05
-4.63104e-15
1.17498e-05
-5.17104e-15
1.17498e-05
-7.02755e-15
1.17498e-05
-8.30613e-15
1.17498e-05
-7.52315e-15
1.17498e-05
-5.35926e-15
1.17498e-05
-3.12241e-15
1.17498e-05
-1.49176e-15
1.17498e-05
-3.01264e-16
1.17498e-05
6.41747e-16
1.17498e-05
2.44592e-16
1.17498e-05
-1.90203e-15
1.17498e-05
-3.69818e-15
1.17498e-05
-3.51295e-15
1.17498e-05
-1.93646e-15
1.17498e-05
-2.36747e-16
1.17498e-05
9.08381e-16
1.17498e-05
1.66147e-15
1.17498e-05
2.22964e-15
1.17498e-05
1.52336e-15
1.17498e-05
-8.77011e-16
1.17498e-05
-2.88026e-15
1.17498e-05
-2.85977e-15
1.17498e-05
-1.4168e-15
1.17498e-05
1.76076e-16
1.17498e-05
1.21564e-15
1.17498e-05
1.65334e-15
1.17498e-05
1.96013e-15
1.17498e-05
2.68643e-15
1.17498e-05
2.85046e-15
1.17498e-05
1.2553e-14
1.17498e-05
4.5395e-14
1.17498e-05
9.24355e-14
1.17498e-05
1.32002e-13
1.17498e-05
1.51165e-13
1.17498e-05
1.50333e-13
1.17498e-05
1.36845e-13
1.17498e-05
1.18015e-13
1.17498e-05
9.74282e-14
1.17498e-05
7.70215e-14
1.17498e-05
5.97159e-14
1.17498e-05
4.72017e-14
1.17498e-05
3.89556e-14
1.17498e-05
3.59505e-14
1.17498e-05
6.94007e-14
1.17498e-05
1.47972e-13
1.17498e-05
2.16773e-13
1.17498e-05
2.34523e-13
1.17498e-05
2.06854e-13
1.17498e-05
1.61259e-13
1.17498e-05
1.18635e-13
1.17498e-05
8.68041e-14
1.17498e-05
6.74667e-14
1.17498e-05
5.96323e-14
1.17498e-05
5.95025e-14
1.17498e-05
6.18795e-14
1.17498e-05
6.17664e-14
1.17498e-05
5.73491e-14
1.17498e-05
5.10228e-14
1.17498e-05
4.53173e-14
1.17498e-05
4.0503e-14
1.17498e-05
3.59157e-14
1.17498e-05
3.1233e-14
1.17498e-05
2.67915e-14
1.17498e-05
2.2855e-14
1.17498e-05
1.83204e-14
1.17498e-05
1.27152e-14
1.17498e-05
8.05017e-15
1.17498e-05
5.86915e-15
1.17498e-05
5.5204e-15
1.17498e-05
5.68266e-15
1.17498e-05
5.66965e-15
1.17498e-05
5.37425e-15
1.17498e-05
4.48035e-15
1.17498e-05
2.80156e-15
1.17498e-05
1.05303e-15
1.17498e-05
4.26304e-17
1.17498e-05
-1.72732e-16
1.17498e-05
2.22538e-17
1.17498e-05
2.75173e-16
1.17498e-05
3.34618e-16
1.17498e-05
1.49408e-16
1.17498e-05
-4.831e-17
1.17498e-05
-7.07616e-17
1.17498e-05
3.90764e-17
1.17498e-05
1.63952e-16
1.17498e-05
2.37761e-16
1.17498e-05
2.54153e-16
1.17498e-05
2.33371e-16
1.17498e-05
1.99323e-16
1.17498e-05
1.89668e-16
1.17498e-05
2.09644e-16
1.17498e-05
1.27434e-16
1.17498e-05
-1.12769e-16
1.17498e-05
-3.07508e-16
1.17498e-05
-2.97633e-16
1.17498e-05
-1.45649e-16
1.17498e-05
1.79038e-17
1.17498e-05
1.20265e-16
1.17498e-05
1.58763e-16
1.17498e-05
1.5801e-16
1.17498e-05
1.4034e-16
1.17498e-05
1.42773e-16
1.17498e-05
1.7052e-16
1.17498e-05
9.13997e-17
1.17498e-05
-1.48743e-16
1.17498e-05
-3.42412e-16
1.17498e-05
-3.26367e-16
1.17498e-05
-1.69993e-16
1.17498e-05
-3.69838e-18
1.17498e-05
1.0517e-16
1.17498e-05
1.50373e-16
1.17498e-05
1.54504e-16
1.17498e-05
1.64849e-16
1.17498e-05
1.93135e-16
1.17498e-05
1.17827e-16
1.17498e-05
-1.27192e-16
1.17498e-05
-3.05951e-16
1.17498e-05
-3.40547e-16
1.17498e-05
-8.42878e-17
1.17498e-05
-1.91092e-16
1.17498e-05
6.01718e-16
1.17498e-05
-1.05193e-15
1.17498e-05
3.31105e-15
1.17498e-05
-7.63939e-15
1.17498e-05
1.85894e-14
1.17498e-05
-6.33472e-14
1.17498e-05
-7.82447e-14
1.17498e-05
-1.86728e-12
1.17498e-05
-1.66452e-11
1.17501e-05
-3.54425e-10
1.17504e-05
-2.42679e-10
1.18832e-09
2.20341e-05
5.70672e-06
2.09686e-05
4.24922e-06
1.98292e-05
3.11742e-06
1.89422e-05
1.78646e-06
1.83709e-05
9.29584e-07
1.7997e-05
5.09203e-07
1.77581e-05
2.6348e-07
1.75974e-05
1.475e-07
1.74872e-05
7.72946e-08
1.74195e-05
2.31456e-08
1.73836e-05
-9.9765e-09
1.73683e-05
-2.68297e-08
1.7371e-05
-4.66368e-08
1.73833e-05
-5.53108e-08
1.74059e-05
-6.35417e-08
1.74388e-05
-7.72737e-08
1.74793e-05
-8.50873e-08
1.75267e-05
-9.20332e-08
1.75794e-05
-9.75871e-08
1.76362e-05
-1.01564e-07
1.76957e-05
-1.04265e-07
1.77579e-05
-1.09304e-07
1.78226e-05
-1.15323e-07
1.78869e-05
-1.1554e-07
1.79471e-05
-1.07852e-07
1.80023e-05
-9.85849e-08
1.80519e-05
-8.82605e-08
1.80961e-05
-7.78924e-08
1.8135e-05
-6.78611e-08
1.8169e-05
-5.88968e-08
1.81989e-05
-5.13482e-08
1.82248e-05
-4.38595e-08
1.82466e-05
-3.66393e-08
1.82648e-05
-2.9939e-08
1.82798e-05
-2.47037e-08
1.82927e-05
-2.09236e-08
1.83037e-05
-1.77606e-08
1.83131e-05
-1.51298e-08
1.83212e-05
-1.29142e-08
1.83281e-05
-1.10342e-08
1.8334e-05
-9.42929e-09
1.8339e-05
-8.05623e-09
1.83434e-05
-6.88081e-09
1.83471e-05
-5.87552e-09
1.83502e-05
-5.01606e-09
1.83529e-05
-4.28184e-09
1.83552e-05
-3.65537e-09
1.83572e-05
-3.12169e-09
1.83589e-05
-2.66612e-09
1.83603e-05
-2.27828e-09
1.83616e-05
-1.94724e-09
1.83626e-05
-1.66442e-09
1.83635e-05
-1.42399e-09
1.83643e-05
-1.21804e-09
1.83649e-05
-1.0424e-09
1.83655e-05
-8.92414e-10
1.8366e-05
-7.63717e-10
1.83664e-05
-6.53864e-10
1.83668e-05
-5.60091e-10
1.83671e-05
-4.79437e-10
1.83673e-05
-4.10707e-10
1.83675e-05
-3.52108e-10
1.83677e-05
-3.01851e-10
1.83679e-05
-2.58671e-10
1.8368e-05
-2.21988e-10
1.83682e-05
-1.90584e-10
1.83683e-05
-1.63655e-10
1.83683e-05
-1.40356e-10
1.83684e-05
-1.19995e-10
1.83685e-05
-1.0258e-10
1.83685e-05
-8.75783e-11
1.83686e-05
-7.54834e-11
1.83686e-05
-6.49791e-11
1.83687e-05
-5.53241e-11
1.83687e-05
-4.71165e-11
1.83687e-05
-4.03089e-11
1.83687e-05
-3.46452e-11
1.83688e-05
-2.96858e-11
1.83688e-05
-2.52305e-11
1.83688e-05
-2.14956e-11
1.83688e-05
-1.87435e-11
1.83688e-05
-1.61592e-11
1.83688e-05
-1.34393e-11
1.83688e-05
-1.11913e-11
1.83688e-05
-9.33318e-12
1.83688e-05
-7.82293e-12
1.83688e-05
-6.83289e-12
1.83688e-05
-6.27536e-12
1.83688e-05
-5.88561e-12
1.83688e-05
-5.378e-12
1.83689e-05
-4.67038e-12
1.83689e-05
-3.6616e-12
1.83689e-05
-2.75344e-12
1.83689e-05
-2.30762e-12
1.83689e-05
-2.04091e-12
1.83689e-05
-1.70593e-12
1.83689e-05
-1.29351e-12
1.83689e-05
-9.46332e-13
1.83689e-05
-7.41955e-13
1.83689e-05
-6.48473e-13
1.83689e-05
-6.07087e-13
1.83689e-05
-6.30491e-13
1.83689e-05
-7.18717e-13
1.83689e-05
-7.83631e-13
1.83689e-05
-7.67343e-13
1.83689e-05
-6.83331e-13
1.83689e-05
-5.70907e-13
1.83689e-05
-4.60197e-13
1.83689e-05
-3.66473e-13
1.83689e-05
-2.94016e-13
1.83689e-05
-2.39985e-13
1.83689e-05
-1.98306e-13
1.83689e-05
-1.63908e-13
1.83689e-05
-1.36116e-13
1.83689e-05
-1.15607e-13
1.83689e-05
-9.94842e-14
1.83689e-05
-8.38904e-14
1.83689e-05
-5.41038e-14
1.83689e-05
2.28515e-15
1.83689e-05
6.99623e-14
1.83689e-05
1.24129e-13
1.83689e-05
1.52586e-13
1.83689e-05
1.557e-13
1.83689e-05
1.40681e-13
1.83689e-05
1.18652e-13
1.83689e-05
9.81856e-14
1.83689e-05
8.16955e-14
1.83689e-05
6.83219e-14
1.83689e-05
5.69138e-14
1.83689e-05
4.69671e-14
1.83689e-05
3.88063e-14
1.83689e-05
3.25593e-14
1.83689e-05
2.52945e-14
1.83689e-05
1.26374e-14
1.83689e-05
-4.53027e-14
1.83689e-05
-1.70242e-13
1.83689e-05
-3.04427e-13
1.83689e-05
-3.86994e-13
1.83689e-05
-4.03371e-13
1.83689e-05
-3.72063e-13
1.83689e-05
-3.1823e-13
1.83689e-05
-2.61875e-13
1.83689e-05
-2.13701e-13
1.83689e-05
-1.73982e-13
1.83689e-05
-1.39557e-13
1.83689e-05
-1.09628e-13
1.83689e-05
-8.5039e-14
1.83689e-05
-6.66515e-14
1.83689e-05
-5.38309e-14
1.83689e-05
-4.47045e-14
1.83689e-05
-3.93194e-14
1.83689e-05
-3.78976e-14
1.83689e-05
-3.69903e-14
1.83689e-05
-3.32873e-14
1.83689e-05
-2.71612e-14
1.83689e-05
-2.06439e-14
1.83689e-05
-1.50916e-14
1.83689e-05
-1.04633e-14
1.83689e-05
-6.35105e-15
1.83689e-05
-4.56814e-15
1.83689e-05
-6.55261e-15
1.83689e-05
-1.01106e-14
1.83689e-05
-1.31496e-14
1.83689e-05
-1.56058e-14
1.83689e-05
-1.76237e-14
1.83689e-05
-1.87976e-14
1.83689e-05
-1.83782e-14
1.83689e-05
-1.61855e-14
1.83689e-05
-1.46499e-14
1.83689e-05
-1.58831e-14
1.83689e-05
-1.74082e-14
1.83689e-05
-1.6189e-14
1.83689e-05
-1.25595e-14
1.83689e-05
-8.42087e-15
1.83689e-05
-5.01077e-15
1.83689e-05
-2.2297e-15
1.83689e-05
3.28416e-16
1.83689e-05
8.60306e-16
1.83689e-05
-2.10071e-15
1.83689e-05
-5.60104e-15
1.83689e-05
-6.3074e-15
1.83689e-05
-4.40985e-15
1.83689e-05
-1.76266e-15
1.83689e-05
3.84307e-16
1.83689e-05
2.10338e-15
1.83689e-05
3.78554e-15
1.83689e-05
3.60899e-15
1.83689e-05
7.89291e-17
1.83689e-05
-3.87818e-15
1.83689e-05
-4.94399e-15
1.83689e-05
-3.33438e-15
1.83689e-05
-9.07506e-16
1.83689e-05
1.00929e-15
1.83689e-05
2.09611e-15
1.83689e-05
3.05635e-15
1.83689e-05
5.15614e-15
1.83689e-05
9.01227e-15
1.83689e-05
5.60407e-14
1.83689e-05
1.74105e-13
1.83689e-05
3.07412e-13
1.83689e-05
3.92097e-13
1.83689e-05
4.10437e-13
1.83689e-05
3.80198e-13
1.83689e-05
3.2749e-13
1.83689e-05
2.71128e-13
1.83689e-05
2.18386e-13
1.83689e-05
1.70754e-13
1.83689e-05
1.31139e-13
1.83689e-05
1.01827e-13
1.83689e-05
8.21775e-14
1.83689e-05
7.65373e-14
1.83689e-05
1.37779e-13
1.83689e-05
2.74347e-13
1.83689e-05
3.90494e-13
1.83689e-05
4.1855e-13
1.83689e-05
3.69171e-13
1.83689e-05
2.88865e-13
1.83689e-05
2.13978e-13
1.83689e-05
1.63736e-13
1.83689e-05
1.45873e-13
1.83689e-05
1.52921e-13
1.83689e-05
1.68545e-13
1.83689e-05
1.78947e-13
1.83689e-05
1.7655e-13
1.83689e-05
1.61024e-13
1.83689e-05
1.39179e-13
1.83689e-05
1.18056e-13
1.83689e-05
9.99821e-14
1.83689e-05
8.44524e-14
1.83689e-05
7.07661e-14
1.83689e-05
5.90695e-14
1.83689e-05
4.95975e-14
1.83689e-05
4.02685e-14
1.83689e-05
2.92989e-14
1.83689e-05
1.93296e-14
1.83689e-05
1.34162e-14
1.83689e-05
1.11462e-14
1.83689e-05
1.05125e-14
1.83689e-05
1.01993e-14
1.83689e-05
9.83143e-15
1.83689e-05
8.71746e-15
1.83689e-05
6.16764e-15
1.83689e-05
3.09376e-15
1.83689e-05
9.82086e-16
1.83689e-05
1.96803e-16
1.83689e-05
2.46544e-16
1.83689e-05
5.82148e-16
1.83689e-05
7.30608e-16
1.83689e-05
4.60807e-16
1.83689e-05
6.91774e-17
1.83689e-05
-8.16282e-17
1.83689e-05
1.54486e-17
1.83689e-05
1.93173e-16
1.83689e-05
3.27578e-16
1.83689e-05
3.82457e-16
1.83689e-05
3.72791e-16
1.83689e-05
3.33899e-16
1.83689e-05
3.35588e-16
1.83689e-05
4.11635e-16
1.83689e-05
3.50444e-16
1.83689e-05
-1.85261e-17
1.83689e-05
-4.14764e-16
1.83689e-05
-5.14431e-16
1.83689e-05
-3.4422e-16
1.83689e-05
-9.4982e-17
1.83689e-05
9.70008e-17
1.83689e-05
1.97754e-16
1.83689e-05
2.27514e-16
1.83689e-05
2.20948e-16
1.83689e-05
2.47649e-16
1.83689e-05
3.41496e-16
1.83689e-05
2.90851e-16
1.83689e-05
-7.31879e-17
1.83689e-05
-4.65253e-16
1.83689e-05
-5.55505e-16
1.83689e-05
-3.78471e-16
1.83689e-05
-1.25346e-16
1.83689e-05
7.48726e-17
1.83689e-05
1.83441e-16
1.83689e-05
2.22402e-16
1.83689e-05
2.70086e-16
1.83689e-05
3.69743e-16
1.83689e-05
3.26003e-16
1.83689e-05
-4.43169e-17
1.83689e-05
-4.15447e-16
1.83689e-05
-5.7265e-16
1.83689e-05
-2.59609e-16
1.83689e-05
-3.78344e-16
1.83689e-05
7.53573e-16
1.83689e-05
-1.45203e-15
1.83689e-05
4.52136e-15
1.83689e-05
-1.05631e-14
1.83689e-05
2.36567e-14
1.83689e-05
-1.04428e-13
1.83689e-05
-2.6294e-13
1.83689e-05
-3.27148e-12
1.83689e-05
-3.30471e-11
1.83688e-05
-3.18908e-10
1.83687e-05
-9.16629e-11
9.24435e-10
2.33076e-05
4.89914e-06
2.35658e-05
3.99101e-06
2.33958e-05
3.28743e-06
2.29523e-05
2.22993e-06
2.24108e-05
1.47111e-06
2.19475e-05
9.72435e-07
2.15912e-05
6.19842e-07
2.13159e-05
4.2281e-07
2.11043e-05
2.88859e-07
2.09543e-05
1.73188e-07
2.08516e-05
9.27231e-08
2.07813e-05
4.34076e-08
2.07403e-05
-5.55704e-09
2.07242e-05
-3.92998e-08
2.07277e-05
-6.70214e-08
2.07449e-05
-9.4471e-08
2.07764e-05
-1.166e-07
2.08193e-05
-1.34854e-07
2.08702e-05
-1.48505e-07
2.09275e-05
-1.58923e-07
2.09888e-05
-1.6549e-07
2.10516e-05
-1.72193e-07
2.11153e-05
-1.78988e-07
2.11776e-05
-1.77805e-07
2.12356e-05
-1.65877e-07
2.12887e-05
-1.51735e-07
2.13367e-05
-1.36194e-07
2.13794e-05
-1.20633e-07
2.14171e-05
-1.05524e-07
2.14502e-05
-9.19798e-08
2.14793e-05
-8.05137e-08
2.15046e-05
-6.91609e-08
2.15261e-05
-5.81254e-08
2.1544e-05
-4.77976e-08
2.15589e-05
-3.963e-08
2.15717e-05
-3.36703e-08
2.15826e-05
-2.86892e-08
2.1592e-05
-2.45058e-08
2.16e-05
-2.09548e-08
2.16069e-05
-1.79232e-08
2.16128e-05
-1.53263e-08
2.16178e-05
-1.31003e-08
2.16221e-05
-1.11931e-08
2.16258e-05
-9.56095e-09
2.1629e-05
-8.16519e-09
2.16317e-05
-6.97235e-09
2.1634e-05
-5.95411e-09
2.16359e-05
-5.08553e-09
2.16376e-05
-4.34417e-09
2.1639e-05
-3.71247e-09
2.16403e-05
-3.17304e-09
2.16413e-05
-2.71209e-09
2.16422e-05
-2.31963e-09
2.1643e-05
-1.98398e-09
2.16436e-05
-1.69761e-09
2.16442e-05
-1.45309e-09
2.16447e-05
-1.24339e-09
2.16451e-05
-1.0643e-09
2.16454e-05
-9.11335e-10
2.16457e-05
-7.80107e-10
2.1646e-05
-6.68001e-10
2.16462e-05
-5.72338e-10
2.16464e-05
-4.90432e-10
2.16466e-05
-4.20206e-10
2.16467e-05
-3.60385e-10
2.16468e-05
-3.09138e-10
2.16469e-05
-2.65215e-10
2.1647e-05
-2.2735e-10
2.16471e-05
-1.94688e-10
2.16471e-05
-1.66727e-10
2.16472e-05
-1.42545e-10
2.16472e-05
-1.22624e-10
2.16473e-05
-1.05329e-10
2.16473e-05
-8.9601e-11
2.16474e-05
-7.6325e-11
2.16474e-05
-6.54325e-11
2.16474e-05
-5.6254e-11
2.16474e-05
-4.81263e-11
2.16474e-05
-4.08786e-11
2.16474e-05
-3.47851e-11
2.16475e-05
-3.01381e-11
2.16475e-05
-2.5939e-11
2.16475e-05
-2.17792e-11
2.16475e-05
-1.83537e-11
2.16475e-05
-1.55949e-11
2.16475e-05
-1.32843e-11
2.16475e-05
-1.14741e-11
2.16475e-05
-1.03007e-11
2.16475e-05
-9.47931e-12
2.16475e-05
-8.56106e-12
2.16475e-05
-7.49432e-12
2.16475e-05
-5.94e-12
2.16475e-05
-4.48402e-12
2.16475e-05
-3.76387e-12
2.16475e-05
-3.3311e-12
2.16475e-05
-2.86845e-12
2.16475e-05
-2.32421e-12
2.16475e-05
-1.82133e-12
2.16475e-05
-1.45842e-12
2.16475e-05
-1.22775e-12
2.16475e-05
-1.07952e-12
2.16475e-05
-1.02105e-12
2.16475e-05
-1.04711e-12
2.16475e-05
-1.06994e-12
2.16475e-05
-1.02436e-12
2.16475e-05
-9.13311e-13
2.16475e-05
-7.72238e-13
2.16475e-05
-6.32866e-13
2.16475e-05
-5.13848e-13
2.16475e-05
-4.21281e-13
2.16475e-05
-3.5045e-13
2.16475e-05
-2.92975e-13
2.16475e-05
-2.42946e-13
2.16475e-05
-2.00252e-13
2.16475e-05
-1.67804e-13
2.16475e-05
-1.4406e-13
2.16475e-05
-1.22769e-13
2.16475e-05
-7.10515e-14
2.16475e-05
3.27539e-14
2.16475e-05
1.50249e-13
2.16475e-05
2.33625e-13
2.16475e-05
2.67064e-13
2.16475e-05
2.59512e-13
2.16475e-05
2.27309e-13
2.16475e-05
1.87219e-13
2.16475e-05
1.50833e-13
2.16475e-05
1.21749e-13
2.16475e-05
9.89784e-14
2.16475e-05
8.06611e-14
2.16475e-05
6.55627e-14
2.16475e-05
5.35195e-14
2.16475e-05
4.44348e-14
2.16475e-05
3.47542e-14
2.16475e-05
1.71817e-14
2.16475e-05
-7.98386e-14
2.16475e-05
-2.90108e-13
2.16475e-05
-5.07456e-13
2.16475e-05
-6.29642e-13
2.16475e-05
-6.39664e-13
2.16475e-05
-5.75246e-13
2.16475e-05
-4.80566e-13
2.16475e-05
-3.86539e-13
2.16475e-05
-3.08188e-13
2.16475e-05
-2.46144e-13
2.16475e-05
-1.95445e-13
2.16475e-05
-1.53231e-13
2.16475e-05
-1.19955e-13
2.16475e-05
-9.66207e-14
2.16475e-05
-8.12177e-14
2.16475e-05
-6.99193e-14
2.16475e-05
-6.17614e-14
2.16475e-05
-5.73787e-14
2.16475e-05
-5.39887e-14
2.16475e-05
-4.8137e-14
2.16475e-05
-3.97735e-14
2.16475e-05
-3.08819e-14
2.16475e-05
-2.30321e-14
2.16475e-05
-1.63489e-14
2.16475e-05
-1.03655e-14
2.16475e-05
-6.93772e-15
2.16475e-05
-8.1022e-15
2.16475e-05
-1.36702e-14
2.16475e-05
-2.2001e-14
2.16475e-05
-3.00654e-14
2.16475e-05
-3.53419e-14
2.16475e-05
-3.68744e-14
2.16475e-05
-3.4723e-14
2.16475e-05
-2.96699e-14
2.16475e-05
-2.49766e-14
2.16475e-05
-2.37392e-14
2.16475e-05
-2.39852e-14
2.16475e-05
-2.21619e-14
2.16475e-05
-1.78734e-14
2.16475e-05
-1.27962e-14
2.16475e-05
-8.31098e-15
2.16475e-05
-4.47713e-15
2.16475e-05
-8.4732e-16
2.16475e-05
7.23325e-16
2.16475e-05
-1.78317e-15
2.16475e-05
-5.74177e-15
2.16475e-05
-7.26215e-15
2.16475e-05
-5.83236e-15
2.16475e-05
-3.12813e-15
2.16475e-05
-5.87952e-16
2.16475e-05
1.65921e-15
2.16475e-05
4.00874e-15
2.16475e-05
4.55807e-15
2.16475e-05
1.23869e-15
2.16475e-05
-3.36392e-15
2.16475e-05
-5.38888e-15
2.16475e-05
-4.36049e-15
2.16475e-05
-1.96424e-15
2.16475e-05
2.64292e-16
2.16475e-05
1.76034e-15
2.16475e-05
3.1675e-15
2.16475e-05
6.23717e-15
2.16475e-05
1.393e-14
2.16475e-05
9.83599e-14
2.16475e-05
2.99075e-13
2.16475e-05
5.12726e-13
2.16475e-05
6.35181e-13
2.16475e-05
6.46529e-13
2.16475e-05
5.83411e-13
2.16475e-05
4.90663e-13
2.16475e-05
3.97813e-13
2.16475e-05
3.15706e-13
2.16475e-05
2.45214e-13
2.16475e-05
1.87606e-13
2.16475e-05
1.44374e-13
2.16475e-05
1.14791e-13
2.16475e-05
1.05716e-13
2.16475e-05
1.68799e-13
2.16475e-05
3.11364e-13
2.16475e-05
4.39008e-13
2.16475e-05
4.78335e-13
2.16475e-05
4.33122e-13
2.16475e-05
3.48752e-13
2.16475e-05
2.65609e-13
2.16475e-05
2.16878e-13
2.16475e-05
2.20318e-13
2.16475e-05
2.56845e-13
2.16475e-05
2.927e-13
2.16475e-05
3.07089e-13
2.16475e-05
2.95486e-13
2.16475e-05
2.63473e-13
2.16475e-05
2.22793e-13
2.16475e-05
1.83957e-13
2.16475e-05
1.51114e-13
2.16475e-05
1.24065e-13
2.16475e-05
1.01623e-13
2.16475e-05
8.33077e-14
2.16475e-05
6.89539e-14
2.16475e-05
5.60531e-14
2.16475e-05
4.19687e-14
2.16475e-05
2.87804e-14
2.16475e-05
1.99188e-14
2.16475e-05
1.55271e-14
2.16475e-05
1.36701e-14
2.16475e-05
1.2771e-14
2.16475e-05
1.22047e-14
2.16475e-05
1.10824e-14
2.16475e-05
8.41178e-15
2.16475e-05
4.9031e-15
2.16475e-05
2.18168e-15
2.16475e-05
8.71904e-16
2.16475e-05
6.06457e-16
2.16475e-05
8.27584e-16
2.16475e-05
9.81481e-16
2.16475e-05
7.12343e-16
2.16475e-05
2.46561e-16
2.16475e-05
-1.18437e-17
2.16475e-05
1.23192e-17
2.16475e-05
1.71009e-16
2.16475e-05
3.21278e-16
2.16475e-05
4.01821e-16
2.16475e-05
4.12139e-16
2.16475e-05
3.84494e-16
2.16475e-05
3.96245e-16
2.16475e-05
4.99734e-16
2.16475e-05
4.82391e-16
2.16475e-05
1.16293e-16
2.16475e-05
-3.55205e-16
2.16475e-05
-5.56837e-16
2.16475e-05
-4.47945e-16
2.16475e-05
-2.0302e-16
2.16475e-05
2.05465e-17
2.16475e-05
1.6117e-16
2.16475e-05
2.22541e-16
2.16475e-05
2.36782e-16
2.16475e-05
2.81416e-16
2.16475e-05
4.09294e-16
2.16475e-05
4.08396e-16
2.16475e-05
5.20217e-17
2.16475e-05
-4.11681e-16
2.16475e-05
-6.02388e-16
2.16475e-05
-4.85464e-16
2.16475e-05
-2.35627e-16
2.16475e-05
-3.95398e-18
2.16475e-05
1.44219e-16
2.16475e-05
2.16351e-16
2.16475e-05
2.92304e-16
2.16475e-05
4.32776e-16
2.16475e-05
4.41531e-16
2.16475e-05
8.04186e-17
2.16475e-05
-3.63206e-16
2.16475e-05
-6.16335e-16
2.16475e-05
-3.70551e-16
2.16475e-05
-4.72486e-16
2.16475e-05
6.40536e-16
2.16475e-05
-1.40536e-15
2.16475e-05
4.26538e-15
2.16475e-05
-1.01926e-14
2.16475e-05
2.02816e-14
2.16475e-05
-1.1675e-13
2.16475e-05
-4.24982e-13
2.16475e-05
-3.78505e-12
2.16475e-05
-3.77078e-11
2.16475e-05
-2.5769e-10
2.16474e-05
-4.88571e-11
7.7515e-10
2.34801e-05
3.91904e-06
2.41783e-05
3.2928e-06
2.46961e-05
2.76968e-06
2.48493e-05
2.07666e-06
2.47725e-05
1.5479e-06
2.45622e-05
1.18275e-06
2.42673e-05
9.14812e-07
2.39806e-05
7.09467e-07
2.37362e-05
5.3325e-07
2.35371e-05
3.72254e-07
2.33761e-05
2.53749e-07
2.32496e-05
1.69961e-07
2.31595e-05
8.45413e-08
2.31014e-05
1.87276e-08
2.30696e-05
-3.51624e-08
2.30613e-05
-8.62013e-08
2.30697e-05
-1.24994e-07
2.30927e-05
-1.57842e-07
2.31288e-05
-1.8464e-07
2.31733e-05
-2.03431e-07
2.32234e-05
-2.1551e-07
2.32743e-05
-2.23177e-07
2.33236e-05
-2.2825e-07
2.33702e-05
-2.24434e-07
2.3413e-05
-2.08624e-07
2.34517e-05
-1.90406e-07
2.34862e-05
-1.70706e-07
2.35166e-05
-1.51114e-07
2.35433e-05
-1.32137e-07
2.35665e-05
-1.15236e-07
2.35869e-05
-1.00939e-07
2.36045e-05
-8.67616e-08
2.36193e-05
-7.29162e-08
2.36315e-05
-5.99679e-08
2.36417e-05
-4.97909e-08
2.36504e-05
-4.23901e-08
2.36579e-05
-3.61874e-08
2.36643e-05
-3.09401e-08
2.36698e-05
-2.6466e-08
2.36745e-05
-2.26362e-08
2.36786e-05
-1.93532e-08
2.3682e-05
-1.65392e-08
2.36849e-05
-1.4129e-08
2.36874e-05
-1.20671e-08
2.36896e-05
-1.03046e-08
2.36914e-05
-8.7989e-09
2.3693e-05
-7.51375e-09
2.36943e-05
-6.41715e-09
2.36954e-05
-5.48136e-09
2.36964e-05
-4.68383e-09
2.36972e-05
-4.00288e-09
2.3698e-05
-3.42118e-09
2.36986e-05
-2.92549e-09
2.36991e-05
-2.50179e-09
2.36995e-05
-2.14025e-09
2.36999e-05
-1.83163e-09
2.37002e-05
-1.56727e-09
2.37005e-05
-1.34141e-09
2.37007e-05
-1.14831e-09
2.37009e-05
-9.82842e-10
2.37011e-05
-8.41462e-10
2.37013e-05
-7.20727e-10
2.37014e-05
-6.17386e-10
2.37015e-05
-5.28918e-10
2.37016e-05
-4.53491e-10
2.37017e-05
-3.88857e-10
2.37017e-05
-3.33468e-10
2.37018e-05
-2.85745e-10
2.37018e-05
-2.44759e-10
2.37019e-05
-2.09709e-10
2.37019e-05
-1.79486e-10
2.3702e-05
-1.54295e-10
2.3702e-05
-1.32465e-10
2.3702e-05
-1.12811e-10
2.3702e-05
-9.60881e-11
2.3702e-05
-8.23123e-11
2.37021e-05
-7.06993e-11
2.37021e-05
-6.04473e-11
2.37021e-05
-5.13768e-11
2.37021e-05
-4.37578e-11
2.37021e-05
-3.77789e-11
2.37021e-05
-3.24792e-11
2.37021e-05
-2.74213e-11
2.37021e-05
-2.31747e-11
2.37021e-05
-1.97845e-11
2.37021e-05
-1.69948e-11
2.37021e-05
-1.46355e-11
2.37021e-05
-1.28366e-11
2.37021e-05
-1.15948e-11
2.37021e-05
-1.0489e-11
2.37021e-05
-9.25796e-12
2.37021e-05
-7.52194e-12
2.37021e-05
-5.84175e-12
2.37021e-05
-4.92345e-12
2.37021e-05
-4.37933e-12
2.37021e-05
-3.85559e-12
2.37021e-05
-3.25632e-12
2.37021e-05
-2.6512e-12
2.37021e-05
-2.14051e-12
2.37021e-05
-1.75579e-12
2.37021e-05
-1.47853e-12
2.37021e-05
-1.30841e-12
2.37021e-05
-1.23271e-12
2.37021e-05
-1.18648e-12
2.37021e-05
-1.11173e-12
2.37021e-05
-9.93918e-13
2.37021e-05
-8.51943e-13
2.37021e-05
-7.10931e-13
2.37021e-05
-5.8936e-13
2.37021e-05
-4.94162e-13
2.37021e-05
-4.18576e-13
2.37021e-05
-3.53109e-13
2.37021e-05
-2.93033e-13
2.37021e-05
-2.39812e-13
2.37021e-05
-1.99155e-13
2.37021e-05
-1.71572e-13
2.37021e-05
-1.48194e-13
2.37021e-05
-7.67146e-14
2.37021e-05
7.24251e-14
2.37021e-05
2.34103e-13
2.37021e-05
3.37346e-13
2.37021e-05
3.65844e-13
2.37021e-05
3.40678e-13
2.37021e-05
2.89187e-13
2.37021e-05
2.32749e-13
2.37021e-05
1.83538e-13
2.37021e-05
1.44829e-13
2.37021e-05
1.15186e-13
2.37021e-05
9.21639e-14
2.37021e-05
7.39062e-14
2.37021e-05
5.9643e-14
2.37021e-05
4.88093e-14
2.37021e-05
3.78662e-14
2.37021e-05
1.87232e-14
2.37021e-05
-9.08139e-14
2.37021e-05
-3.33119e-13
2.37021e-05
-5.89098e-13
2.37021e-05
-7.36677e-13
2.37021e-05
-7.51289e-13
2.37021e-05
-6.75721e-13
2.37021e-05
-5.6304e-13
2.37021e-05
-4.50365e-13
2.37021e-05
-3.55509e-13
2.37021e-05
-2.80516e-13
2.37021e-05
-2.20743e-13
2.37021e-05
-1.7247e-13
2.37021e-05
-1.36673e-13
2.37021e-05
-1.14507e-13
2.37021e-05
-1.01267e-13
2.37021e-05
-9.06577e-14
2.37021e-05
-8.07746e-14
2.37021e-05
-7.27184e-14
2.37021e-05
-6.53778e-14
2.37021e-05
-5.66021e-14
2.37021e-05
-4.63763e-14
2.37021e-05
-3.6181e-14
2.37021e-05
-2.72434e-14
2.37021e-05
-1.96687e-14
2.37021e-05
-1.30978e-14
2.37021e-05
-9.00433e-15
2.37021e-05
-9.15515e-15
2.37021e-05
-1.63205e-14
2.37021e-05
-3.05016e-14
2.37021e-05
-4.49008e-14
2.37021e-05
-5.33777e-14
2.37021e-05
-5.44743e-14
2.37021e-05
-4.97419e-14
2.37021e-05
-4.1605e-14
2.37021e-05
-3.38466e-14
2.37021e-05
-2.9545e-14
2.37021e-05
-2.7402e-14
2.37021e-05
-2.4408e-14
2.37021e-05
-1.98058e-14
2.37021e-05
-1.46495e-14
2.37021e-05
-9.99513e-15
2.37021e-05
-5.94318e-15
2.37021e-05
-2.21299e-15
2.37021e-05
-3.11128e-16
2.37021e-05
-1.92712e-15
2.37021e-05
-5.10493e-15
2.37021e-05
-6.60291e-15
2.37021e-05
-5.66996e-15
2.37021e-05
-3.46014e-15
2.37021e-05
-1.15713e-15
2.37021e-05
1.01999e-15
2.37021e-05
3.26262e-15
2.37021e-05
3.99103e-15
2.37021e-05
1.44999e-15
2.37021e-05
-2.45572e-15
2.37021e-05
-4.52236e-15
2.37021e-05
-4.039e-15
2.37021e-05
-2.17685e-15
2.37021e-05
-2.17201e-16
2.37021e-05
1.26224e-15
2.37021e-05
2.72321e-15
2.37021e-05
5.90829e-15
2.37021e-05
1.53522e-14
2.37021e-05
1.13341e-13
2.37021e-05
3.46142e-13
2.37021e-05
5.96962e-13
2.37021e-05
7.42954e-13
2.37021e-05
7.5768e-13
2.37021e-05
6.82978e-13
2.37021e-05
5.72095e-13
2.37021e-05
4.60724e-13
2.37021e-05
3.63088e-13
2.37021e-05
2.81099e-13
2.37021e-05
2.15e-13
2.37021e-05
1.64994e-13
2.37021e-05
1.30067e-13
2.37021e-05
1.18667e-13
2.37021e-05
1.67747e-13
2.37021e-05
2.80514e-13
2.37021e-05
3.88521e-13
2.37021e-05
4.31345e-13
2.37021e-05
4.0396e-13
2.37021e-05
3.38144e-13
2.37021e-05
2.6781e-13
2.37021e-05
2.39428e-13
2.37021e-05
2.81475e-13
2.37021e-05
3.57405e-13
2.37021e-05
4.12763e-13
2.37021e-05
4.23278e-13
2.37021e-05
3.93888e-13
2.37021e-05
3.40709e-13
2.37021e-05
2.80875e-13
2.37021e-05
2.26337e-13
2.37021e-05
1.81397e-13
2.37021e-05
1.45554e-13
2.37021e-05
1.16983e-13
2.37021e-05
9.44036e-14
2.37021e-05
7.69294e-14
2.37021e-05
6.20202e-14
2.37021e-05
4.71087e-14
2.37021e-05
3.34296e-14
2.37021e-05
2.36427e-14
2.37021e-05
1.80432e-14
2.37021e-05
1.51507e-14
2.37021e-05
1.35733e-14
2.37021e-05
1.25963e-14
2.37021e-05
1.13378e-14
2.37021e-05
8.87629e-15
2.37021e-05
5.66674e-15
2.37021e-05
3.00918e-15
2.37021e-05
1.51914e-15
2.37021e-05
9.97352e-16
2.37021e-05
1.00388e-15
2.37021e-05
1.05091e-15
2.37021e-05
7.96542e-16
2.37021e-05
3.73679e-16
2.37021e-05
1.01314e-16
2.37021e-05
6.72177e-17
2.37021e-05
1.70273e-16
2.37021e-05
2.91019e-16
2.37021e-05
3.66585e-16
2.37021e-05
3.85053e-16
2.37021e-05
3.69306e-16
2.37021e-05
3.83839e-16
2.37021e-05
4.70483e-16
2.37021e-05
4.60128e-16
2.37021e-05
1.61309e-16
2.37021e-05
-2.48987e-16
2.37021e-05
-4.61171e-16
2.37021e-05
-4.11335e-16
2.37021e-05
-2.22614e-16
2.37021e-05
-2.70514e-17
2.37021e-05
1.10937e-16
2.37021e-05
1.82862e-16
2.37021e-05
2.11096e-16
2.37021e-05
2.60294e-16
2.37021e-05
3.73345e-16
2.37021e-05
3.81576e-16
2.37021e-05
9.48651e-17
2.37021e-05
-3.0591e-16
2.37021e-05
-5.06944e-16
2.37021e-05
-4.48715e-16
2.37021e-05
-2.54603e-16
2.37021e-05
-5.14082e-17
2.37021e-05
9.36494e-17
2.37021e-05
1.76662e-16
2.37021e-05
2.59021e-16
2.37021e-05
3.88098e-16
2.37021e-05
4.07684e-16
2.37021e-05
1.18895e-16
2.37021e-05
-2.64785e-16
2.37021e-05
-5.16132e-16
2.37021e-05
-3.53221e-16
2.37021e-05
-4.45209e-16
2.37021e-05
4.75139e-16
2.37021e-05
-1.17328e-15
2.37021e-05
3.45231e-15
2.37021e-05