/*--------------------------------*- C++ -*----------------------------------*\
| =========                 |                                                 |
| \\      /  F ield         | foam-extend: Open Source CFD                    |
|  \\    /   O peration     | Version:     3.2                                |
|   \\  /    A nd           | Web:         http://www.foam-extend.org         |
|    \\/     M anipulation  | For copyright notice see file Copyright         |
\*---------------------------------------------------------------------------*/
FoamFile
{
    version     2.0;
    format      ascii;
    class       volVectorField;
    location    "200";
    object      U;
}
// * * * * * * * * * * * * * * * * * * * * * * * * * * * * * * * * * * * * * //

dimensions      [0 1 -1 0 0 0 0];

internalField   nonuniform List<vector> 
2400
(
(0.249172 0 0.00344785)
(0.20605 0 0.00175974)
(0.169644 0 0.000206884)
(0.152759 0 -0.000535612)
(0.145958 -1.32785e-26 -0.000692118)
(0.143186 -1.32161e-42 -0.000736506)
(0.142347 -7.81878e-27 -0.000759261)
(0.142435 2.23204e-43 -0.000756752)
(0.142737 5.64825e-27 -0.000754671)
(0.143292 1.60504e-42 -0.000755899)
(0.143925 2.70544e-27 -0.000754152)
(0.144502 1.81444e-27 -0.000752097)
(0.145065 0 -0.000753832)
(0.145666 7.47184e-28 -0.00075483)
(0.146207 9.59504e-28 -0.000755854)
(0.146771 -1.20558e-28 -0.000761103)
(0.147376 -2.44612e-28 -0.000763417)
(0.147967 5.43394e-28 -0.000765718)
(0.148564 -7.48967e-28 -0.000768463)
(0.149164 0 -0.000771123)
(0.149758 0 -0.000773824)
(0.150362 1.08822e-27 -0.000778344)
(0.151014 1.18048e-27 -0.000783764)
(0.151709 0 -0.000787441)
(0.152377 0 -0.000788451)
(0.152984 1.18625e-27 -0.000788933)
(0.153533 0 -0.000788831)
(0.154013 0 -0.000788423)
(0.154431 0 -0.000787847)
(0.154787 8.42039e-28 -0.000787313)
(0.155095 0 -0.000786958)
(0.155358 0 -0.000786343)
(0.155575 -6.00584e-28 -0.000785617)
(0.155752 0 -0.000784874)
(0.155892 0 -0.000784407)
(0.156008 0 -0.000784204)
(0.156107 -3.19983e-28 -0.000784017)
(0.156189 0 -0.000783881)
(0.156259 0 -0.00078378)
(0.156318 0 -0.000783703)
(0.156369 -1.76575e-28 -0.000783641)
(0.156412 -2.52163e-43 -0.00078359)
(0.156449 0 -0.000783547)
(0.15648 0 -0.000783511)
(0.156507 -9.51395e-29 -0.00078348)
(0.15653 0 -0.000783453)
(0.156549 -2.53058e-43 -0.000783432)
(0.156566 0 -0.000783414)
(0.15658 0 -0.000783398)
(0.156592 0 -0.000783386)
(0.156602 0 -0.000783375)
(0.156611 -2.53461e-43 -0.000783366)
(0.156618 0 -0.000783359)
(0.156625 -2.53551e-43 -0.000783353)
(0.15663 0 -0.000783348)
(0.156635 0 -0.000783343)
(0.156639 -2.53643e-43 -0.000783339)
(0.156643 0 -0.000783336)
(0.156646 -1.06224e-29 -0.000783333)
(0.156648 0 -0.000783331)
(0.15665 0 -0.000783329)
(0.156652 -2.53727e-43 -0.000783328)
(0.156654 0 -0.000783326)
(0.156655 -2.53746e-43 -0.000783325)
(0.156656 0 -0.000783324)
(0.156657 0 -0.000783323)
(0.156658 -2.53765e-43 -0.000783323)
(0.156659 0 -0.000783322)
(0.15666 -2.53774e-43 -0.000783321)
(0.15666 0 -0.00078332)
(0.156661 -1.66269e-30 -0.00078332)
(0.156661 -2.53783e-43 -0.00078332)
(0.156661 0 -0.00078332)
(0.156662 1.01719e-30 -0.000783319)
(0.156662 0 -0.000783319)
(0.156662 0 -0.000783319)
(0.156662 -2.53792e-43 -0.000783319)
(0.156663 0 -0.000783318)
(0.156663 -2.53794e-43 -0.000783318)
(0.156663 0 -0.000783318)
(0.156663 0 -0.000783318)
(0.156663 0 -0.000783318)
(0.156663 0 -0.000783318)
(0.156663 0 -0.000783318)
(0.156663 0 -0.000783317)
(0.156663 0 -0.000783317)
(0.156663 0 -0.000783317)
(0.156663 0 -0.000783317)
(0.156663 0 -0.000783318)
(0.156663 0 -0.000783318)
(0.156663 0 -0.000783318)
(0.156663 0 -0.000783318)
(0.156663 0 -0.000783318)
(0.156663 0 -0.000783318)
(0.156663 0 -0.000783318)
(0.156663 0 -0.000783318)
(0.156663 0 -0.000783317)
(0.156663 0 -0.000783317)
(0.156663 0 -0.000783317)
(0.156663 0 -0.000783317)
(0.156663 1.51594e-32 -0.000783317)
(0.156663 -1.21304e-32 -0.000783317)
(0.156663 0 -0.000783317)
(0.156663 0 -0.000783317)
(0.156663 0 -0.000783318)
(0.156663 0 -0.000783318)
(0.156663 0 -0.000783318)
(0.156663 0 -0.000783317)
(0.156663 0 -0.000783317)
(0.156663 0 -0.000783317)
(0.156663 0 -0.000783317)
(0.156663 0 -0.000783317)
(0.156663 0 -0.000783317)
(0.156663 0 -0.000783317)
(0.156663 0 -0.000783317)
(0.156663 0 -0.000783317)
(0.156663 1.47964e-33 -0.000783317)
(0.156663 -9.60032e-34 -0.000783317)
(0.156663 0 -0.000783317)
(0.156663 0 -0.000783317)
(0.156663 0 -0.000783317)
(0.156663 0 -0.000783317)
(0.156663 0 -0.000783317)
(0.156663 0 -0.000783317)
(0.156663 0 -0.000783317)
(0.156663 0 -0.000783317)
(0.156663 0 -0.000783317)
(0.156663 0 -0.000783317)
(0.156663 0 -0.000783317)
(0.156663 0 -0.000783317)
(0.156663 0 -0.000783317)
(0.156663 0 -0.000783317)
(0.156663 -3.8178e-34 -0.000783317)
(0.156663 0 -0.000783317)
(0.156663 0 -0.000783317)
(0.156663 0 -0.000783317)
(0.156663 0 -0.000783317)
(0.156663 0 -0.000783317)
(0.156663 0 -0.000783317)
(0.156663 0 -0.000783317)
(0.156663 0 -0.000783317)
(0.156663 0 -0.000783318)
(0.156663 0 -0.000783317)
(0.156663 0 -0.000783317)
(0.156663 0 -0.000783317)
(0.156663 0 -0.000783317)
(0.156663 0 -0.000783317)
(0.156663 0 -0.000783317)
(0.156663 0 -0.000783317)
(0.156663 0 -0.000783317)
(0.156663 0 -0.000783317)
(0.156663 0 -0.000783317)
(0.156663 0 -0.000783317)
(0.156663 0 -0.000783317)
(0.156663 0 -0.000783317)
(0.156663 0 -0.000783317)
(0.156663 0 -0.000783317)
(0.156663 0 -0.000783317)
(0.156663 0 -0.000783317)
(0.156663 0 -0.000783317)
(0.156663 0 -0.000783317)
(0.156663 0 -0.000783317)
(0.156663 0 -0.000783317)
(0.156663 0 -0.000783317)
(0.156663 0 -0.000783317)
(0.156663 0 -0.000783317)
(0.156663 0 -0.000783317)
(0.156663 0 -0.000783317)
(0.156663 0 -0.000783317)
(0.156663 0 -0.000783317)
(0.156663 0 -0.000783317)
(0.156663 0 -0.000783317)
(0.156663 0 -0.000783317)
(0.156663 0 -0.000783317)
(0.156663 0 -0.000783317)
(0.156663 0 -0.000783317)
(0.156663 0 -0.000783317)
(0.156663 0 -0.000783317)
(0.156663 0 -0.000783317)
(0.156663 0 -0.000783317)
(0.156663 0 -0.000783317)
(0.156663 0 -0.000783317)
(0.156663 0 -0.000783317)
(0.156663 0 -0.000783317)
(0.156663 0 -0.000783317)
(0.156663 0 -0.000783317)
(0.156663 0 -0.000783317)
(0.156663 0 -0.000783317)
(0.156663 0 -0.000783317)
(0.156663 0 -0.000783317)
(0.156663 0 -0.000783317)
(0.156663 0 -0.000783317)
(0.156663 0 -0.000783317)
(0.156663 0 -0.000783317)
(0.156663 0 -0.000783317)
(0.156663 0 -0.000783317)
(0.156663 0 -0.000783317)
(0.156663 0 -0.000783317)
(0.156663 0 -0.000783317)
(0.156663 0 -0.000783317)
(0.156663 0 -0.000783317)
(0.156663 0 -0.000783317)
(0.156663 0 -0.000783317)
(0.156663 0 -0.000783317)
(0.156663 0 -0.000783317)
(0.156663 0 -0.000783317)
(0.156663 0 -0.000783317)
(0.156663 0 -0.000783317)
(0.156663 0 -0.000783317)
(0.156663 0 -0.000783317)
(0.156663 0 -0.000783317)
(0.156663 0 -0.000783317)
(0.156663 0 -0.000783317)
(0.156663 0 -0.000783317)
(0.156663 0 -0.000783317)
(0.156663 0 -0.000783317)
(0.156663 0 -0.000783317)
(0.156663 0 -0.000783317)
(0.156663 0 -0.000783317)
(0.156663 0 -0.000783317)
(0.156663 0 -0.000783317)
(0.156663 0 -0.000783317)
(0.156663 0 -0.000783317)
(0.156663 0 -0.000783317)
(0.156663 0 -0.000783317)
(0.156663 0 -0.000783317)
(0.156663 0 -0.000783317)
(0.156663 0 -0.000783317)
(0.156663 0 -0.000783317)
(0.156663 0 -0.000783317)
(0.156663 0 -0.000783317)
(0.156663 0 -0.000783317)
(0.156663 0 -0.000783317)
(0.156663 0 -0.000783317)
(0.156663 0 -0.000783317)
(0.156663 0 -0.000783317)
(0.156663 0 -0.000783317)
(0.156663 0 -0.000783317)
(0.156663 0 -0.000783317)
(0.156663 0 -0.000783317)
(0.156663 0 -0.000783317)
(0.156663 0 -0.000783317)
(0.156663 0 -0.000783317)
(0.156663 0 -0.000783317)
(0.156663 0 -0.000783317)
(0.156663 0 -0.000783317)
(0.156663 0 -0.000783317)
(0.156663 0 -0.000783317)
(0.156663 0 -0.000783317)
(0.156663 -7.53006e-36 -0.000783317)
(0.156663 0 -0.000783317)
(0.156663 0 -0.000783317)
(0.156663 0 -0.000783317)
(0.156663 0 -0.000783317)
(0.156663 0 -0.000783317)
(0.156663 0 -0.000783317)
(0.156663 0 -0.000783317)
(0.156663 0 -0.000783317)
(0.156663 0 -0.000783317)
(0.156663 0 -0.000783317)
(0.156663 0 -0.000783317)
(0.156663 0 -0.000783317)
(0.156663 0 -0.000783317)
(0.156663 0 -0.000783317)
(0.156663 0 -0.000783317)
(0.156663 0 -0.000783317)
(0.156663 0 -0.000783317)
(0.156663 0 -0.000783317)
(0.156663 0 -0.000783317)
(0.156663 0 -0.000783317)
(0.156663 0 -0.000783317)
(0.156663 0 -0.000783317)
(0.156663 0 -0.000783317)
(0.156663 0 -0.000783317)
(0.156663 0 -0.000783317)
(0.156663 0 -0.000783317)
(0.156663 0 -0.000783317)
(0.156663 0 -0.000783317)
(0.156663 0 -0.000783317)
(0.156663 0 -0.000783317)
(0.156663 0 -0.000783317)
(0.156663 -1.89913e-36 -0.000783317)
(0.156663 0 -0.000783317)
(0.156663 0 -0.000783317)
(0.156663 0 -0.000783317)
(0.156663 0 -0.000783317)
(0.156663 0 -0.000783317)
(0.156663 0 -0.000783317)
(0.156663 0 -0.000783317)
(0.156663 0 -0.000783317)
(0.156663 0 -0.000783317)
(0.156663 0 -0.000783317)
(0.156663 0 -0.000783317)
(0.156663 0 -0.000783317)
(0.156663 0 -0.000783317)
(0.156663 0 -0.000783319)
(0.156663 -1.81642e-31 -0.000783328)
(0.156664 0 -0.000783547)
(0.156675 0 -0.000783601)
(0.156659 0 -0.00070655)
(0.295354 0 0.00409067)
(0.288584 0 0.0025488)
(0.271329 0 0.00154696)
(0.25726 0 0.000215074)
(0.248034 0 -0.000562214)
(0.241977 5.15942e-26 -0.000900194)
(0.238022 1.86832e-26 -0.00107618)
(0.235528 1.50264e-26 -0.00114405)
(0.233765 1.23198e-26 -0.00117788)
(0.232564 1.86174e-26 -0.00120104)
(0.231964 6.56166e-27 -0.00121124)
(0.231594 -4.97568e-27 -0.00121089)
(0.231568 3.41248e-27 -0.00121649)
(0.23166 -2.27581e-27 -0.00121666)
(0.231899 3.06838e-27 -0.00121602)
(0.232267 -1.2134e-27 -0.00122528)
(0.232764 -4.42047e-28 -0.00123011)
(0.233351 0 -0.00123471)
(0.234026 5.69484e-28 -0.00123935)
(0.234758 0 -0.0012438)
(0.235539 0 -0.00124817)
(0.23635 0 -0.00125576)
(0.237198 2.75146e-27 -0.00126509)
(0.238073 0 -0.00127023)
(0.23891 0 -0.00126911)
(0.239679 0 -0.00126645)
(0.24038 1.682e-27 -0.00126262)
(0.241005 0 -0.00125835)
(0.241558 1.46098e-27 -0.00125399)
(0.242041 2.64187e-27 -0.00125007)
(0.242466 -1.20523e-27 -0.00124689)
(0.242838 1.0958e-27 -0.00124347)
(0.243155 -9.71072e-28 -0.00124001)
(0.243421 0 -0.00123671)
(0.243639 0 -0.00123426)
(0.243823 0 -0.00123267)
(0.243981 -5.04102e-28 -0.00123135)
(0.244116 4.33838e-28 -0.00123029)
(0.244232 0 -0.00122942)
(0.244332 0 -0.00122869)
(0.244417 -2.74878e-28 -0.00122809)
(0.244489 -4.71269e-28 -0.00122757)
(0.244552 0 -0.00122713)
(0.244605 -3.45639e-28 -0.00122675)
(0.24465 -1.47874e-28 -0.00122643)
(0.244689 0 -0.00122616)
(0.244722 -2.16292e-28 -0.00122593)
(0.244751 -9.2397e-29 -0.00122573)
(0.244775 -1.5794e-28 -0.00122556)
(0.244796 0 -0.00122542)
(0.244813 0 -0.0012253)
(0.244828 -9.84876e-29 -0.0012252)
(0.244841 0 -0.00122511)
(0.244852 -7.19308e-29 -0.00122503)
(0.244862 0 -0.00122497)
(0.24487 -2.63023e-29 -0.00122492)
(0.244877 -4.49592e-29 -0.00122487)
(0.244883 0 -0.00122483)
(0.244888 -3.28354e-29 -0.00122479)
(0.244892 -1.40651e-29 -0.00122477)
(0.244896 0 -0.00122474)
(0.244899 -2.05572e-29 -0.00122472)
(0.244902 0 -0.0012247)
(0.244904 -1.50535e-29 -0.00122469)
(0.244906 0 -0.00122467)
(0.244908 0 -0.00122466)
(0.244909 -9.38495e-30 -0.00122465)
(0.244911 0 -0.00122464)
(0.244912 -6.94021e-30 -0.00122464)
(0.244913 0 -0.00122463)
(0.244913 0 -0.00122462)
(0.244914 -4.37024e-30 -0.00122462)
(0.244915 0 -0.00122462)
(0.244915 -1.59338e-30 -0.00122461)
(0.244916 0 -0.00122461)
(0.244916 0 -0.00122461)
(0.244916 -2.02704e-30 -0.0012246)
(0.244917 0 -0.0012246)
(0.244917 -1.44328e-30 -0.0012246)
(0.244917 0 -0.0012246)
(0.244917 0 -0.0012246)
(0.244917 0 -0.0012246)
(0.244917 0 -0.0012246)
(0.244918 0 -0.00122459)
(0.244918 0 -0.00122459)
(0.244918 2.98276e-31 -0.00122459)
(0.244918 0 -0.00122459)
(0.244918 0 -0.00122459)
(0.244918 0 -0.00122459)
(0.244918 0 -0.00122459)
(0.244918 0 -0.00122459)
(0.244918 0 -0.00122459)
(0.244918 0 -0.00122459)
(0.244918 0 -0.00122459)
(0.244918 0 -0.00122459)
(0.244918 0 -0.00122459)
(0.244918 0 -0.00122459)
(0.244918 0 -0.00122459)
(0.244918 0 -0.00122459)
(0.244918 0 -0.00122459)
(0.244918 4.03225e-32 -0.00122459)
(0.244918 0 -0.00122459)
(0.244918 0 -0.00122459)
(0.244918 0 -0.00122459)
(0.244918 0 -0.00122459)
(0.244918 0 -0.00122459)
(0.244918 0 -0.00122459)
(0.244918 0 -0.00122459)
(0.244918 0 -0.00122459)
(0.244918 0 -0.00122459)
(0.244918 0 -0.00122459)
(0.244918 0 -0.00122459)
(0.244918 0 -0.00122459)
(0.244918 0 -0.00122459)
(0.244918 0 -0.00122459)
(0.244918 1.96175e-33 -0.00122459)
(0.244918 1.71515e-33 -0.00122459)
(0.244918 0 -0.00122459)
(0.244918 0 -0.00122459)
(0.244918 0 -0.00122459)
(0.244918 0 -0.00122459)
(0.244918 0 -0.00122459)
(0.244918 0 -0.00122459)
(0.244918 0 -0.00122459)
(0.244918 0 -0.00122459)
(0.244918 0 -0.00122459)
(0.244918 0 -0.00122459)
(0.244918 0 -0.00122459)
(0.244918 0 -0.00122459)
(0.244918 0 -0.00122459)
(0.244918 0 -0.00122459)
(0.244918 -5.41496e-34 -0.00122459)
(0.244918 -4.42312e-34 -0.00122459)
(0.244918 0 -0.00122459)
(0.244918 0 -0.00122459)
(0.244918 0 -0.00122459)
(0.244918 0 -0.00122459)
(0.244918 0 -0.00122459)
(0.244918 0 -0.00122459)
(0.244918 0 -0.00122459)
(0.244918 0 -0.00122459)
(0.244918 0 -0.00122459)
(0.244918 0 -0.00122459)
(0.244918 0 -0.00122459)
(0.244918 0 -0.00122459)
(0.244918 0 -0.00122459)
(0.244918 0 -0.00122459)
(0.244918 1.59929e-33 -0.00122459)
(0.244918 0 -0.00122459)
(0.244918 0 -0.00122459)
(0.244918 0 -0.00122459)
(0.244918 0 -0.00122459)
(0.244918 0 -0.00122459)
(0.244918 0 -0.00122459)
(0.244918 0 -0.00122459)
(0.244918 0 -0.00122459)
(0.244918 0 -0.00122459)
(0.244918 0 -0.00122459)
(0.244918 0 -0.00122459)
(0.244918 0 -0.00122459)
(0.244918 0 -0.00122459)
(0.244918 0 -0.00122459)
(0.244918 0 -0.00122459)
(0.244918 0 -0.00122459)
(0.244918 0 -0.00122459)
(0.244918 0 -0.00122459)
(0.244918 0 -0.00122459)
(0.244918 0 -0.00122459)
(0.244918 0 -0.00122459)
(0.244918 0 -0.00122459)
(0.244918 0 -0.00122459)
(0.244918 0 -0.00122459)
(0.244918 0 -0.00122459)
(0.244918 0 -0.00122459)
(0.244918 0 -0.00122459)
(0.244918 0 -0.00122459)
(0.244918 0 -0.00122459)
(0.244918 0 -0.00122459)
(0.244918 0 -0.00122459)
(0.244918 0 -0.00122459)
(0.244918 0 -0.00122459)
(0.244918 0 -0.00122459)
(0.244918 0 -0.00122459)
(0.244918 0 -0.00122459)
(0.244918 0 -0.00122459)
(0.244918 0 -0.00122459)
(0.244918 0 -0.00122459)
(0.244918 0 -0.00122459)
(0.244918 0 -0.00122459)
(0.244918 0 -0.00122459)
(0.244918 0 -0.00122459)
(0.244918 0 -0.00122459)
(0.244918 0 -0.00122459)
(0.244918 0 -0.00122459)
(0.244918 0 -0.00122459)
(0.244918 0 -0.00122459)
(0.244918 0 -0.00122459)
(0.244918 0 -0.00122459)
(0.244918 0 -0.00122459)
(0.244918 0 -0.00122459)
(0.244918 0 -0.00122459)
(0.244918 0 -0.00122459)
(0.244918 0 -0.00122459)
(0.244918 0 -0.00122459)
(0.244918 0 -0.00122459)
(0.244918 0 -0.00122459)
(0.244918 0 -0.00122459)
(0.244918 0 -0.00122459)
(0.244918 0 -0.00122459)
(0.244918 0 -0.00122459)
(0.244918 0 -0.00122459)
(0.244918 0 -0.00122459)
(0.244918 0 -0.00122459)
(0.244918 0 -0.00122459)
(0.244918 0 -0.00122459)
(0.244918 0 -0.00122459)
(0.244918 0 -0.00122459)
(0.244918 0 -0.00122459)
(0.244918 0 -0.00122459)
(0.244918 0 -0.00122459)
(0.244918 0 -0.00122459)
(0.244918 0 -0.00122459)
(0.244918 0 -0.00122459)
(0.244918 0 -0.00122459)
(0.244918 0 -0.00122459)
(0.244918 0 -0.00122459)
(0.244918 0 -0.00122459)
(0.244918 0 -0.00122459)
(0.244918 0 -0.00122459)
(0.244918 0 -0.00122459)
(0.244918 0 -0.00122459)
(0.244918 0 -0.00122459)
(0.244918 0 -0.00122459)
(0.244918 0 -0.00122459)
(0.244918 0 -0.00122459)
(0.244918 0 -0.00122459)
(0.244918 0 -0.00122459)
(0.244918 0 -0.00122459)
(0.244918 0 -0.00122459)
(0.244918 0 -0.00122459)
(0.244918 0 -0.00122459)
(0.244918 0 -0.00122459)
(0.244918 0 -0.00122459)
(0.244918 0 -0.00122459)
(0.244918 0 -0.00122459)
(0.244918 0 -0.00122459)
(0.244918 0 -0.00122459)
(0.244918 0 -0.00122459)
(0.244918 0 -0.00122459)
(0.244918 -2.55801e-35 -0.00122459)
(0.244918 0 -0.00122459)
(0.244918 0 -0.00122459)
(0.244918 0 -0.00122459)
(0.244918 0 -0.00122459)
(0.244918 0 -0.00122459)
(0.244918 0 -0.00122459)
(0.244918 0 -0.00122459)
(0.244918 0 -0.00122459)
(0.244918 0 -0.00122459)
(0.244918 0 -0.00122459)
(0.244918 0 -0.00122459)
(0.244918 0 -0.00122459)
(0.244918 0 -0.00122459)
(0.244918 0 -0.00122459)
(0.244918 1.20264e-35 -0.00122459)
(0.244918 0 -0.00122459)
(0.244918 0 -0.00122459)
(0.244918 0 -0.00122459)
(0.244918 0 -0.00122459)
(0.244918 0 -0.00122459)
(0.244918 0 -0.00122459)
(0.244918 0 -0.00122459)
(0.244918 0 -0.00122459)
(0.244918 0 -0.00122459)
(0.244918 0 -0.00122459)
(0.244918 0 -0.00122459)
(0.244918 0 -0.00122459)
(0.244918 0 -0.00122459)
(0.244918 0 -0.00122459)
(0.244918 0 -0.00122459)
(0.244918 0 -0.00122459)
(0.244918 0 -0.00122459)
(0.244918 0 -0.00122459)
(0.244918 0 -0.00122459)
(0.244918 0 -0.00122459)
(0.244918 0 -0.00122459)
(0.244918 0 -0.00122459)
(0.244918 0 -0.00122459)
(0.244918 0 -0.00122459)
(0.244918 0 -0.00122459)
(0.244918 0 -0.00122459)
(0.244918 0 -0.00122459)
(0.244918 0 -0.00122459)
(0.244918 0 -0.00122459)
(0.244918 0 -0.00122459)
(0.244918 0 -0.00122459)
(0.244918 5.29523e-31 -0.00122462)
(0.244919 0 -0.00122497)
(0.244917 0 -0.00122478)
(0.244918 0 -0.00125378)
(0.302764 0 0.00408909)
(0.315508 0 0.00271341)
(0.31389 5.44481e-26 0.00184817)
(0.309748 0 0.000723347)
(0.302335 4.2393e-26 -0.000240933)
(0.295446 5.78882e-26 -0.00073654)
(0.289934 4.2644e-26 -0.001026)
(0.285859 0 -0.00116209)
(0.282609 1.29206e-26 -0.00124442)
(0.280188 1.1206e-26 -0.00131615)
(0.278607 0 -0.00136356)
(0.277435 -1.60298e-26 -0.00138993)
(0.276742 6.84565e-27 -0.00142031)
(0.276334 -1.05244e-26 -0.00143764)
(0.276311 0 -0.00145579)
(0.276433 3.07949e-27 -0.00147202)
(0.276771 -5.46899e-27 -0.00148887)
(0.277272 0 -0.00150366)
(0.277907 -2.92177e-27 -0.00151539)
(0.27863 9.55146e-28 -0.00152545)
(0.279436 0 -0.00153342)
(0.280267 0 -0.00154329)
(0.281112 -1.94407e-28 -0.00155434)
(0.281962 -2.24983e-28 -0.00155851)
(0.282771 0 -0.00155282)
(0.283512 0 -0.00154477)
(0.284187 7.76761e-28 -0.00153508)
(0.284791 -7.97449e-28 -0.00152498)
(0.285326 7.70224e-28 -0.00151492)
(0.285795 1.41117e-27 -0.00150583)
(0.286209 -6.6038e-28 -0.00149822)
(0.286572 6.34476e-28 -0.00149047)
(0.286884 0 -0.00148276)
(0.287145 0 -0.00147542)
(0.287361 0 -0.00146966)
(0.287543 0 -0.00146558)
(0.2877 0 -0.00146221)
(0.287835 4.79504e-28 -0.0014594)
(0.28795 0 -0.00145703)
(0.288049 0 -0.00145502)
(0.288134 1.50107e-28 -0.00145331)
(0.288207 -1.03413e-42 -0.00145183)
(0.288269 0 -0.00145057)
(0.288322 -1.03587e-42 -0.00144949)
(0.288367 -1.61051e-28 -0.00144856)
(0.288406 6.88073e-29 -0.00144777)
(0.288439 -1.03763e-42 -0.0014471)
(0.288467 -5.01002e-29 -0.00144653)
(0.288491 -4.27178e-29 -0.00144604)
(0.288512 3.64136e-29 -0.00144562)
(0.288529 3.10873e-29 -0.00144526)
(0.288544 -2.6515e-29 -0.00144496)
(0.288557 2.25835e-29 -0.0014447)
(0.288568 -3.85372e-29 -0.00144448)
(0.288578 0 -0.00144429)
(0.288586 -1.4027e-29 -0.00144413)
(0.288593 -2.40137e-29 -0.00144399)
(0.288599 0 -0.00144387)
(0.288604 -1.74801e-29 -0.00144377)
(0.288608 -7.47933e-30 -0.00144368)
(0.288612 0 -0.00144361)
(0.288615 -1.08876e-29 -0.00144355)
(0.288618 -4.64729e-30 -0.00144349)
(0.28862 -7.94129e-30 -0.00144345)
(0.288622 0 -0.00144341)
(0.288624 0 -0.00144337)
(0.288625 -4.94432e-30 -0.00144334)
(0.288626 0 -0.00144332)
(0.288627 -3.63982e-30 -0.0014433)
(0.288628 0 -0.00144328)
(0.288629 -1.34842e-30 -0.00144326)
(0.28863 -2.26294e-30 -0.00144325)
(0.28863 0 -0.00144324)
(0.288631 -1.7838e-30 -0.00144323)
(0.288631 -7.42103e-31 -0.00144322)
(0.288632 0 -0.00144321)
(0.288632 -1.03764e-30 -0.00144321)
(0.288632 0 -0.0014432)
(0.288632 -7.79184e-31 -0.0014432)
(0.288633 0 -0.00144319)
(0.288633 0 -0.00144319)
(0.288633 0 -0.00144319)
(0.288633 0 -0.00144318)
(0.288633 0 -0.00144318)
(0.288633 0 -0.00144318)
(0.288633 0 -0.00144318)
(0.288633 0 -0.00144318)
(0.288633 0 -0.00144318)
(0.288633 0 -0.00144317)
(0.288633 0 -0.00144317)
(0.288633 0 -0.00144317)
(0.288634 0 -0.00144317)
(0.288634 0 -0.00144317)
(0.288634 0 -0.00144317)
(0.288634 0 -0.00144317)
(0.288634 0 -0.00144317)
(0.288634 0 -0.00144317)
(0.288634 0 -0.00144317)
(0.288634 0 -0.00144317)
(0.288634 0 -0.00144317)
(0.288634 1.3427e-32 -0.00144317)
(0.288634 0 -0.00144317)
(0.288634 0 -0.00144317)
(0.288634 0 -0.00144317)
(0.288634 0 -0.00144317)
(0.288634 0 -0.00144317)
(0.288634 0 -0.00144317)
(0.288634 0 -0.00144317)
(0.288634 0 -0.00144317)
(0.288634 0 -0.00144317)
(0.288634 0 -0.00144317)
(0.288634 0 -0.00144317)
(0.288634 0 -0.00144317)
(0.288634 0 -0.00144317)
(0.288634 0 -0.00144317)
(0.288634 1.50152e-33 -0.00144317)
(0.288634 0 -0.00144317)
(0.288634 0 -0.00144317)
(0.288634 0 -0.00144317)
(0.288634 0 -0.00144317)
(0.288634 0 -0.00144317)
(0.288634 0 -0.00144317)
(0.288634 0 -0.00144317)
(0.288634 0 -0.00144317)
(0.288634 0 -0.00144317)
(0.288634 0 -0.00144317)
(0.288634 0 -0.00144317)
(0.288634 0 -0.00144317)
(0.288634 0 -0.00144317)
(0.288634 0 -0.00144317)
(0.288634 -2.76219e-34 -0.00144317)
(0.288634 -9.98646e-35 -0.00144317)
(0.288634 0 -0.00144317)
(0.288634 0 -0.00144317)
(0.288634 0 -0.00144317)
(0.288634 0 -0.00144317)
(0.288634 0 -0.00144317)
(0.288634 0 -0.00144317)
(0.288634 0 -0.00144317)
(0.288634 0 -0.00144317)
(0.288634 0 -0.00144317)
(0.288634 0 -0.00144317)
(0.288634 0 -0.00144317)
(0.288634 0 -0.00144317)
(0.288634 0 -0.00144317)
(0.288634 0 -0.00144317)
(0.288634 1.11783e-33 -0.00144317)
(0.288634 9.52523e-34 -0.00144317)
(0.288634 0 -0.00144317)
(0.288634 0 -0.00144317)
(0.288634 0 -0.00144317)
(0.288634 0 -0.00144317)
(0.288634 0 -0.00144317)
(0.288634 0 -0.00144317)
(0.288634 0 -0.00144317)
(0.288634 0 -0.00144317)
(0.288634 0 -0.00144317)
(0.288634 0 -0.00144317)
(0.288634 0 -0.00144317)
(0.288634 0 -0.00144317)
(0.288634 0 -0.00144317)
(0.288634 0 -0.00144317)
(0.288634 -2.97484e-34 -0.00144317)
(0.288634 0 -0.00144317)
(0.288634 0 -0.00144317)
(0.288634 0 -0.00144317)
(0.288634 0 -0.00144317)
(0.288634 0 -0.00144317)
(0.288634 0 -0.00144317)
(0.288634 0 -0.00144317)
(0.288634 0 -0.00144317)
(0.288634 0 -0.00144317)
(0.288634 0 -0.00144317)
(0.288634 0 -0.00144317)
(0.288634 0 -0.00144317)
(0.288634 0 -0.00144317)
(0.288634 0 -0.00144317)
(0.288634 0 -0.00144317)
(0.288634 0 -0.00144317)
(0.288634 0 -0.00144317)
(0.288634 0 -0.00144317)
(0.288634 0 -0.00144317)
(0.288634 0 -0.00144317)
(0.288634 0 -0.00144317)
(0.288634 0 -0.00144317)
(0.288634 0 -0.00144317)
(0.288634 0 -0.00144317)
(0.288634 0 -0.00144317)
(0.288634 0 -0.00144317)
(0.288634 0 -0.00144317)
(0.288634 0 -0.00144317)
(0.288634 0 -0.00144317)
(0.288634 0 -0.00144317)
(0.288634 0 -0.00144317)
(0.288634 0 -0.00144317)
(0.288634 0 -0.00144317)
(0.288634 0 -0.00144317)
(0.288634 0 -0.00144317)
(0.288634 0 -0.00144317)
(0.288634 0 -0.00144317)
(0.288634 0 -0.00144317)
(0.288634 0 -0.00144317)
(0.288634 0 -0.00144317)
(0.288634 0 -0.00144317)
(0.288634 0 -0.00144317)
(0.288634 0 -0.00144317)
(0.288634 0 -0.00144317)
(0.288634 0 -0.00144317)
(0.288634 0 -0.00144317)
(0.288634 0 -0.00144317)
(0.288634 0 -0.00144317)
(0.288634 0 -0.00144317)
(0.288634 0 -0.00144317)
(0.288634 0 -0.00144317)
(0.288634 0 -0.00144317)
(0.288634 0 -0.00144317)
(0.288634 0 -0.00144317)
(0.288634 0 -0.00144317)
(0.288634 0 -0.00144317)
(0.288634 0 -0.00144317)
(0.288634 0 -0.00144317)
(0.288634 0 -0.00144317)
(0.288634 0 -0.00144317)
(0.288634 0 -0.00144317)
(0.288634 0 -0.00144317)
(0.288634 0 -0.00144317)
(0.288634 0 -0.00144317)
(0.288634 0 -0.00144317)
(0.288634 0 -0.00144317)
(0.288634 0 -0.00144317)
(0.288634 0 -0.00144317)
(0.288634 0 -0.00144317)
(0.288634 0 -0.00144317)
(0.288634 0 -0.00144317)
(0.288634 0 -0.00144317)
(0.288634 0 -0.00144317)
(0.288634 0 -0.00144317)
(0.288634 0 -0.00144317)
(0.288634 0 -0.00144317)
(0.288634 0 -0.00144317)
(0.288634 0 -0.00144317)
(0.288634 0 -0.00144317)
(0.288634 0 -0.00144317)
(0.288634 0 -0.00144317)
(0.288634 0 -0.00144317)
(0.288634 0 -0.00144317)
(0.288634 0 -0.00144317)
(0.288634 0 -0.00144317)
(0.288634 0 -0.00144317)
(0.288634 0 -0.00144317)
(0.288634 0 -0.00144317)
(0.288634 0 -0.00144317)
(0.288634 0 -0.00144317)
(0.288634 0 -0.00144317)
(0.288634 0 -0.00144317)
(0.288634 0 -0.00144317)
(0.288634 0 -0.00144317)
(0.288634 0 -0.00144317)
(0.288634 0 -0.00144317)
(0.288634 0 -0.00144317)
(0.288634 0 -0.00144317)
(0.288634 0 -0.00144317)
(0.288634 0 -0.00144317)
(0.288634 0 -0.00144317)
(0.288634 1.03892e-35 -0.00144317)
(0.288634 0 -0.00144317)
(0.288634 0 -0.00144317)
(0.288634 0 -0.00144317)
(0.288634 0 -0.00144317)
(0.288634 0 -0.00144317)
(0.288634 0 -0.00144317)
(0.288634 0 -0.00144317)
(0.288634 0 -0.00144317)
(0.288634 0 -0.00144317)
(0.288634 0 -0.00144317)
(0.288634 0 -0.00144317)
(0.288634 0 -0.00144317)
(0.288634 0 -0.00144317)
(0.288634 0 -0.00144317)
(0.288634 7.95359e-36 -0.00144317)
(0.288634 0 -0.00144317)
(0.288634 0 -0.00144317)
(0.288634 0 -0.00144317)
(0.288634 0 -0.00144317)
(0.288634 0 -0.00144317)
(0.288634 0 -0.00144317)
(0.288634 0 -0.00144317)
(0.288634 0 -0.00144317)
(0.288634 0 -0.00144317)
(0.288634 0 -0.00144317)
(0.288634 0 -0.00144317)
(0.288634 0 -0.00144317)
(0.288634 0 -0.00144317)
(0.288634 0 -0.00144317)
(0.288634 0 -0.00144317)
(0.288634 0 -0.00144317)
(0.288634 0 -0.00144321)
(0.288634 0 -0.00144346)
(0.288632 0 -0.0014432)
(0.288634 0 -0.00143839)
(0.304819 0 0.00283234)
(0.319357 2.71796e-26 0.00216174)
(0.326689 4.11967e-26 0.00152251)
(0.331542 0 0.00049405)
(0.331207 5.26621e-26 -2.18557e-05)
(0.329384 4.41277e-26 -0.000439618)
(0.325593 3.02834e-26 -0.000774913)
(0.321563 0 -0.00101681)
(0.317977 2.42894e-26 -0.00117666)
(0.315018 0 -0.00130574)
(0.312665 0 -0.00139702)
(0.310708 -1.81042e-26 -0.00145358)
(0.309296 0 -0.00151471)
(0.308297 -1.56203e-26 -0.00155928)
(0.307742 0 -0.00159627)
(0.307462 5.48282e-27 -0.00163629)
(0.307503 -9.9167e-27 -0.00166356)
(0.307694 -4.42218e-27 -0.00168791)
(0.308116 -8.33242e-27 -0.00171232)
(0.308653 3.52578e-27 -0.00172984)
(0.309301 0 -0.00174292)
(0.30999 0 -0.00175405)
(0.31066 0 -0.00176267)
(0.311302 1.23743e-27 -0.00176285)
(0.311902 0 -0.00175177)
(0.312444 0 -0.00173807)
(0.312932 0 -0.00172259)
(0.313365 1.47833e-28 -0.00170684)
(0.313745 0 -0.00169132)
(0.314075 0 -0.00167734)
(0.314365 1.03842e-29 -0.00166555)
(0.314619 0 -0.00165372)
(0.314835 0 -0.00164203)
(0.315013 0 -0.00163095)
(0.31516 -4.56787e-29 -0.00162219)
(0.315284 0 -0.00161587)
(0.315392 0 -0.00161061)
(0.315485 7.17445e-30 -0.00160618)
(0.315564 -5.30034e-30 -0.00160242)
(0.315632 0 -0.0015992)
(0.315689 3.59099e-30 -0.00159644)
(0.315739 -9.62757e-43 -0.00159408)
(0.315781 -2.63348e-30 -0.00159205)
(0.315817 -9.64071e-43 -0.00159031)
(0.315848 -3.50934e-30 -0.00158883)
(0.315874 1.38338e-30 -0.00158756)
(0.315897 -9.65394e-43 -0.00158648)
(0.315916 0 -0.00158555)
(0.315932 -4.83475e-31 -0.00158476)
(0.315946 2.66399e-31 -0.00158409)
(0.315958 1.62036e-31 -0.00158352)
(0.315968 -6.21568e-32 -0.00158303)
(0.315977 -9.59003e-32 -0.00158261)
(0.315984 1.10046e-31 -0.00158225)
(0.315991 -1.74581e-31 -0.00158195)
(0.315996 -1.91215e-31 -0.00158169)
(0.316001 -9.67094e-43 -0.00158146)
(0.316005 0 -0.00158127)
(0.316008 -9.67213e-43 -0.00158111)
(0.316011 0 -0.00158097)
(0.316014 0 -0.00158085)
(0.316016 -9.67334e-43 -0.00158075)
(0.316018 1.4882e-31 -0.00158066)
(0.316019 1.42349e-31 -0.00158059)
(0.316021 -1.43568e-31 -0.00158053)
(0.316022 -1.31863e-31 -0.00158047)
(0.316023 1.11724e-31 -0.00158042)
(0.316024 -9.81827e-32 -0.00158038)
(0.316024 1.87843e-31 -0.00158035)
(0.316025 0 -0.00158032)
(0.316025 6.17338e-32 -0.00158029)
(0.316026 1.45692e-31 -0.00158027)
(0.316026 0 -0.00158025)
(0.316027 -5.81231e-32 -0.00158024)
(0.316027 5.89911e-33 -0.00158022)
(0.316027 0 -0.00158021)
(0.316027 5.19066e-32 -0.0015802)
(0.316028 -7.96064e-33 -0.00158019)
(0.316028 -4.89487e-32 -0.00158019)
(0.316028 0 -0.00158018)
(0.316028 0 -0.00158017)
(0.316028 -7.7403e-34 -0.00158017)
(0.316028 0 -0.00158017)
(0.316028 0 -0.00158016)
(0.316028 0 -0.00158016)
(0.316028 -9.30452e-34 -0.00158016)
(0.316028 0 -0.00158016)
(0.316028 0 -0.00158015)
(0.316028 0 -0.00158015)
(0.316028 4.35891e-32 -0.00158015)
(0.316028 0 -0.00158015)
(0.316028 0 -0.00158015)
(0.316028 0 -0.00158015)
(0.316028 0 -0.00158015)
(0.316029 0 -0.00158015)
(0.316029 0 -0.00158015)
(0.316029 0 -0.00158015)
(0.316029 0 -0.00158015)
(0.316029 0 -0.00158014)
(0.316029 0 -0.00158014)
(0.316029 0 -0.00158014)
(0.316029 0 -0.00158014)
(0.316029 0 -0.00158014)
(0.316029 0 -0.00158014)
(0.316029 0 -0.00158014)
(0.316029 0 -0.00158014)
(0.316029 0 -0.00158014)
(0.316029 0 -0.00158014)
(0.316029 0 -0.00158014)
(0.316029 0 -0.00158014)
(0.316029 0 -0.00158014)
(0.316029 0 -0.00158014)
(0.316029 0 -0.00158014)
(0.316029 0 -0.00158014)
(0.316029 0 -0.00158014)
(0.316029 3.33948e-34 -0.00158014)
(0.316029 0 -0.00158014)
(0.316029 0 -0.00158014)
(0.316029 0 -0.00158014)
(0.316029 0 -0.00158014)
(0.316029 0 -0.00158014)
(0.316029 0 -0.00158014)
(0.316029 0 -0.00158014)
(0.316029 0 -0.00158014)
(0.316029 0 -0.00158014)
(0.316029 0 -0.00158014)
(0.316029 0 -0.00158014)
(0.316029 0 -0.00158014)
(0.316029 0 -0.00158014)
(0.316029 0 -0.00158014)
(0.316029 -3.47709e-34 -0.00158014)
(0.316029 0 -0.00158014)
(0.316029 0 -0.00158014)
(0.316029 0 -0.00158014)
(0.316029 0 -0.00158014)
(0.316029 0 -0.00158014)
(0.316029 0 -0.00158014)
(0.316029 0 -0.00158014)
(0.316029 0 -0.00158014)
(0.316029 0 -0.00158014)
(0.316029 0 -0.00158014)
(0.316029 0 -0.00158014)
(0.316029 0 -0.00158014)
(0.316029 0 -0.00158014)
(0.316029 0 -0.00158014)
(0.316029 8.76849e-34 -0.00158014)
(0.316029 7.12599e-34 -0.00158014)
(0.316029 0 -0.00158014)
(0.316029 0 -0.00158014)
(0.316029 0 -0.00158014)
(0.316029 0 -0.00158014)
(0.316029 0 -0.00158014)
(0.316029 0 -0.00158014)
(0.316029 0 -0.00158014)
(0.316029 0 -0.00158014)
(0.316029 0 -0.00158014)
(0.316029 0 -0.00158014)
(0.316029 0 -0.00158014)
(0.316029 0 -0.00158014)
(0.316029 0 -0.00158014)
(0.316029 0 -0.00158014)
(0.316029 0 -0.00158014)
(0.316029 -8.8993e-34 -0.00158014)
(0.316029 0 -0.00158014)
(0.316029 0 -0.00158014)