/*--------------------------------*- C++ -*----------------------------------*\
| =========                 |                                                 |
| \\      /  F ield         | foam-extend: Open Source CFD                    |
|  \\    /   O peration     | Version:     3.2                                |
|   \\  /    A nd           | Web:         http://www.foam-extend.org         |
|    \\/     M anipulation  | For copyright notice see file Copyright         |
\*---------------------------------------------------------------------------*/
FoamFile
{
    version     2.0;
    format      ascii;
    class       surfaceScalarField;
    location    "60";
    object      AdSS1;
}
// * * * * * * * * * * * * * * * * * * * * * * * * * * * * * * * * * * * * * //

dimensions      [0 3 -1 0 0 0 0];

internalField   nonuniform List<scalar> 
10482
(
7.50338e-06
8.18442e-06
5.36825e-06
3.22901e-07
5.10436e-06
-1.54833e-06
5.0688e-06
-1.77668e-06
5.05161e-06
-1.79504e-06
5.02286e-06
-1.78348e-06
5.01113e-06
-1.8005e-06
4.99537e-06
-1.79648e-06
4.99535e-06
-1.81221e-06
4.99368e-06
-1.81056e-06
5.00094e-06
-1.81948e-06
5.00677e-06
-1.81806e-06
5.01916e-06
-1.82462e-06
5.03071e-06
-1.82379e-06
5.04567e-06
-1.82719e-06
5.06158e-06
-1.82814e-06
5.07882e-06
-1.82947e-06
5.09638e-06
-1.82979e-06
5.11539e-06
-1.83124e-06
5.13574e-06
-1.83258e-06
5.15676e-06
-1.83325e-06
5.17809e-06
-1.83356e-06
5.19992e-06
-1.83406e-06
5.22185e-06
-1.83416e-06
5.24362e-06
-1.834e-06
5.26363e-06
-1.83225e-06
5.28089e-06
-1.82949e-06
5.29547e-06
-1.8268e-06
5.30771e-06
-1.82447e-06
5.31795e-06
-1.82248e-06
5.32652e-06
-1.8208e-06
5.33367e-06
-1.81938e-06
5.33963e-06
-1.81819e-06
5.34459e-06
-1.81719e-06
5.34874e-06
-1.81637e-06
5.35219e-06
-1.81569e-06
5.35509e-06
-1.81512e-06
5.35751e-06
-1.81466e-06
5.35955e-06
-1.81427e-06
5.36128e-06
-1.81395e-06
5.36274e-06
-1.81369e-06
5.364e-06
-1.81349e-06
5.36507e-06
-1.8133e-06
5.36597e-06
-1.81313e-06
5.36672e-06
-1.81298e-06
5.36738e-06
-1.8129e-06
5.36808e-06
-1.81293e-06
5.36857e-06
-1.81273e-06
5.36899e-06
-1.81264e-06
5.36934e-06
-1.81259e-06
5.36966e-06
-1.81254e-06
5.36993e-06
-1.8125e-06
5.37016e-06
-1.81247e-06
5.37037e-06
-1.81244e-06
5.37055e-06
-1.81241e-06
5.3707e-06
-1.81238e-06
5.37084e-06
-1.81236e-06
5.37095e-06
-1.81235e-06
5.37105e-06
-1.81233e-06
5.37114e-06
-1.81232e-06
5.37122e-06
-1.81231e-06
5.37128e-06
-1.8123e-06
5.37134e-06
-1.81229e-06
5.37139e-06
-1.81228e-06
5.37143e-06
-1.81227e-06
5.37147e-06
-1.81227e-06
5.3715e-06
-1.81226e-06
5.37153e-06
-1.81226e-06
5.37155e-06
-1.81225e-06
5.37157e-06
-1.81225e-06
5.37159e-06
-1.81225e-06
5.3716e-06
-1.81225e-06
5.37162e-06
-1.81224e-06
5.37163e-06
-1.81224e-06
5.37164e-06
-1.81224e-06
5.37165e-06
-1.81224e-06
5.37166e-06
-1.81224e-06
5.37166e-06
-1.81224e-06
5.37167e-06
-1.81224e-06
5.37167e-06
-1.81223e-06
5.37168e-06
-1.81223e-06
5.37168e-06
-1.81223e-06
5.37168e-06
-1.81223e-06
5.37169e-06
-1.81223e-06
5.37169e-06
-1.81223e-06
5.37169e-06
-1.81223e-06
5.37169e-06
-1.81223e-06
5.37169e-06
-1.81223e-06
5.37169e-06
-1.81223e-06
5.3717e-06
-1.81223e-06
5.3717e-06
-1.81223e-06
5.3717e-06
-1.81223e-06
5.3717e-06
-1.81223e-06
5.3717e-06
-1.81223e-06
5.3717e-06
-1.81223e-06
5.3717e-06
-1.81223e-06
5.3717e-06
-1.81223e-06
5.3717e-06
-1.81223e-06
5.3717e-06
-1.81223e-06
5.3717e-06
-1.81223e-06
5.3717e-06
-1.81223e-06
5.3717e-06
-1.81223e-06
5.3717e-06
-1.81223e-06
5.3717e-06
-1.81223e-06
5.3717e-06
-1.81223e-06
5.3717e-06
-1.81223e-06
5.3717e-06
-1.81223e-06
5.3717e-06
-1.81223e-06
5.3717e-06
-1.81223e-06
5.3717e-06
-1.81223e-06
5.3717e-06
-1.81223e-06
5.3717e-06
-1.81223e-06
5.3717e-06
-1.81223e-06
5.3717e-06
-1.81223e-06
5.3717e-06
-1.81223e-06
5.3717e-06
-1.81223e-06
5.3717e-06
-1.81223e-06
5.3717e-06
-1.81223e-06
5.3717e-06
-1.81223e-06
5.3717e-06
-1.81223e-06
5.3717e-06
-1.81223e-06
5.3717e-06
-1.81223e-06
5.3717e-06
-1.81223e-06
5.3717e-06
-1.81223e-06
5.3717e-06
-1.81223e-06
5.3717e-06
-1.81223e-06
5.3717e-06
-1.81223e-06
5.3717e-06
-1.81223e-06
5.3717e-06
-1.81223e-06
5.3717e-06
-1.81223e-06
5.3717e-06
-1.81223e-06
5.3717e-06
-1.81223e-06
5.3717e-06
-1.81223e-06
5.3717e-06
-1.81223e-06
5.3717e-06
-1.81223e-06
5.3717e-06
-1.81223e-06
5.3717e-06
-1.81223e-06
5.3717e-06
-1.81223e-06
5.3717e-06
-1.81223e-06
5.3717e-06
-1.81223e-06
5.3717e-06
-1.81223e-06
5.3717e-06
-1.81223e-06
5.3717e-06
-1.81223e-06
5.3717e-06
-1.81223e-06
5.3717e-06
-1.81223e-06
5.3717e-06
-1.81223e-06
5.3717e-06
-1.81223e-06
5.3717e-06
-1.81223e-06
5.3717e-06
-1.81223e-06
5.3717e-06
-1.81223e-06
5.3717e-06
-1.81223e-06
5.3717e-06
-1.81223e-06
5.3717e-06
-1.81223e-06
5.3717e-06
-1.81223e-06
5.3717e-06
-1.81223e-06
5.3717e-06
-1.81223e-06
5.3717e-06
-1.81223e-06
5.3717e-06
-1.81223e-06
5.3717e-06
-1.81223e-06
5.3717e-06
-1.81223e-06
5.3717e-06
-1.81223e-06
5.3717e-06
-1.81223e-06
5.3717e-06
-1.81223e-06
5.3717e-06
-1.81223e-06
5.3717e-06
-1.81223e-06
5.3717e-06
-1.81223e-06
5.3717e-06
-1.81223e-06
5.3717e-06
-1.81223e-06
5.3717e-06
-1.81223e-06
5.3717e-06
-1.81223e-06
5.3717e-06
-1.81223e-06
5.3717e-06
-1.81223e-06
5.3717e-06
-1.81223e-06
5.3717e-06
-1.81223e-06
5.3717e-06
-1.81223e-06
5.3717e-06
-1.81223e-06
5.3717e-06
-1.81223e-06
5.3717e-06
-1.81223e-06
5.3717e-06
-1.81223e-06
5.3717e-06
-1.81223e-06
5.3717e-06
-1.81223e-06
5.3717e-06
-1.81223e-06
5.3717e-06
-1.81223e-06
5.3717e-06
-1.81223e-06
5.3717e-06
-1.81223e-06
5.3717e-06
-1.81223e-06
5.3717e-06
-1.81223e-06
5.3717e-06
-1.81223e-06
5.3717e-06
-1.81223e-06
5.3717e-06
-1.81223e-06
5.3717e-06
-1.81223e-06
5.3717e-06
-1.81223e-06
5.3717e-06
-1.81223e-06
5.3717e-06
-1.81223e-06
5.3717e-06
-1.81223e-06
5.3717e-06
-1.81223e-06
5.3717e-06
-1.81223e-06
5.3717e-06
-1.81223e-06
5.3717e-06
-1.81223e-06
5.3717e-06
-1.81223e-06
5.3717e-06
-1.81223e-06
5.3717e-06
-1.81223e-06
5.3717e-06
-1.81223e-06
5.3717e-06
-1.81223e-06
5.3717e-06
-1.81223e-06
5.3717e-06
-1.81223e-06
5.3717e-06
-1.81223e-06
5.3717e-06
-1.81223e-06
5.3717e-06
-1.81223e-06
5.3717e-06
-1.81223e-06
5.3717e-06
-1.81223e-06
5.3717e-06
-1.81223e-06
5.3717e-06
-1.81223e-06
5.3717e-06
-1.81223e-06
5.3717e-06
-1.81223e-06
5.3717e-06
-1.81223e-06
5.3717e-06
-1.81223e-06
5.3717e-06
-1.81223e-06
5.3717e-06
-1.81223e-06
5.3717e-06
-1.81223e-06
5.3717e-06
-1.81223e-06
5.3717e-06
-1.81223e-06
5.3717e-06
-1.81223e-06
5.3717e-06
-1.81223e-06
5.3717e-06
-1.81223e-06
5.3717e-06
-1.81223e-06
5.3717e-06
-1.81223e-06
5.3717e-06
-1.81223e-06
5.3717e-06
-1.81223e-06
5.3717e-06
-1.81223e-06
5.3717e-06
-1.81223e-06
5.3717e-06
-1.81223e-06
5.3717e-06
-1.81223e-06
5.3717e-06
-1.81223e-06
5.3717e-06
-1.81223e-06
5.3717e-06
-1.81223e-06
5.3717e-06
-1.81223e-06
5.3717e-06
-1.81223e-06
5.3717e-06
-1.81223e-06
5.3717e-06
-1.81223e-06
5.3717e-06
-1.81223e-06
5.3717e-06
-1.81223e-06
5.3717e-06
-1.81223e-06
5.3717e-06
-1.81223e-06
5.3717e-06
-1.81223e-06
5.3717e-06
-1.81223e-06
5.3717e-06
-1.81223e-06
5.3717e-06
-1.81223e-06
5.3717e-06
-1.81223e-06
5.3717e-06
-1.81223e-06
5.3717e-06
-1.81223e-06
5.3717e-06
-1.81223e-06
5.3717e-06
-1.81223e-06
5.3717e-06
-1.81223e-06
5.3717e-06
-1.81223e-06
5.3717e-06
-1.81223e-06
5.3717e-06
-1.81223e-06
5.3717e-06
-1.81223e-06
5.3717e-06
-1.81223e-06
5.3717e-06
-1.81223e-06
5.3717e-06
-1.81223e-06
5.3717e-06
-1.81223e-06
5.3717e-06
-1.81223e-06
5.3717e-06
-1.81223e-06
5.3717e-06
-1.81223e-06
5.3717e-06
-1.81223e-06
5.3717e-06
-1.81223e-06
5.3717e-06
-1.81223e-06
5.3717e-06
-1.81223e-06
5.3717e-06
-1.81223e-06
5.3717e-06
-1.81223e-06
5.3717e-06
-1.81223e-06
5.3717e-06
-1.81223e-06
5.3717e-06
-1.81223e-06
5.3717e-06
-1.81223e-06
5.3717e-06
-1.81223e-06
5.3717e-06
-1.81223e-06
5.3717e-06
-1.81223e-06
5.3717e-06
-1.81223e-06
5.3717e-06
-1.81223e-06
5.3717e-06
-1.81223e-06
5.3717e-06
-1.81223e-06
5.3717e-06
-1.81223e-06
5.3717e-06
-1.81223e-06
5.3717e-06
-1.81223e-06
5.3717e-06
-1.81223e-06
5.3717e-06
-1.81223e-06
5.3717e-06
-1.81223e-06
5.3717e-06
-1.81223e-06
5.3717e-06
-1.81223e-06
5.3717e-06
-1.81223e-06
5.3717e-06
-1.81223e-06
5.3717e-06
-1.81223e-06
5.3717e-06
-1.81223e-06
5.3717e-06
-1.81223e-06
5.3717e-06
-1.81223e-06
5.3717e-06
-1.81223e-06
5.3717e-06
-1.81223e-06
5.3717e-06
-1.81223e-06
-1.81222e-06
1.31752e-05
1.25092e-05
1.09649e-05
2.53316e-06
1.02159e-05
-7.99339e-07
1.00174e-05
-1.57812e-06
9.88098e-06
-1.65867e-06
9.78009e-06
-1.68258e-06
9.71616e-06
-1.73657e-06
9.67168e-06
-1.752e-06
9.64991e-06
-1.79044e-06
9.6411e-06
-1.80175e-06
9.64341e-06
-1.8218e-06
9.65049e-06
-1.82514e-06
9.66654e-06
-1.84067e-06
9.68457e-06
-1.84182e-06
9.70902e-06
-1.85164e-06
9.73634e-06
-1.85546e-06
9.7664e-06
-1.85953e-06
9.79801e-06
-1.8614e-06
9.83178e-06
-1.86502e-06
9.86865e-06
-1.86945e-06
9.90702e-06
-1.87162e-06
9.94642e-06
-1.87296e-06
9.98683e-06
-1.87447e-06
1.0028e-05
-1.87533e-06
1.0069e-05
-1.87502e-06
1.01069e-05
-1.87011e-06
1.014e-05
-1.86259e-06
1.01684e-05
-1.85518e-06
1.01925e-05
-1.84862e-06
1.0213e-05
-1.84293e-06
1.02302e-05
-1.83807e-06
1.02448e-05
-1.83391e-06
1.0257e-05
-1.83039e-06
1.02672e-05
-1.82743e-06
1.02758e-05
-1.82495e-06
1.0283e-05
-1.82288e-06
1.0289e-05
-1.82116e-06
1.02941e-05
-1.81973e-06
1.02984e-05
-1.81855e-06
1.0302e-05
-1.81757e-06
1.0305e-05
-1.81676e-06
1.03077e-05
-1.81613e-06
1.03099e-05
-1.81555e-06
1.03118e-05
-1.81501e-06
1.03134e-05
-1.81455e-06
1.03147e-05
-1.81424e-06
1.03157e-05
-1.8139e-06
1.03167e-05
-1.81372e-06
1.03176e-05
-1.8135e-06
1.03183e-05
-1.81333e-06
1.0319e-05
-1.81319e-06
1.03195e-05
-1.81306e-06
1.032e-05
-1.81294e-06
1.03202e-05
-1.81265e-06
1.03206e-05
-1.81277e-06
1.03209e-05
-1.8127e-06
1.03212e-05
-1.81264e-06
1.03214e-05
-1.81258e-06
1.03216e-05
-1.81254e-06
1.03218e-05
-1.8125e-06
1.03219e-05
-1.81246e-06
1.03221e-05
-1.81243e-06
1.03222e-05
-1.8124e-06
1.03223e-05
-1.81238e-06
1.03224e-05
-1.81236e-06
1.03224e-05
-1.81234e-06
1.03225e-05
-1.81233e-06
1.03226e-05
-1.81231e-06
1.03226e-05
-1.8123e-06
1.03227e-05
-1.81229e-06
1.03227e-05
-1.81228e-06
1.03227e-05
-1.81228e-06
1.03228e-05
-1.81227e-06
1.03228e-05
-1.81226e-06
1.03228e-05
-1.81226e-06
1.03228e-05
-1.81226e-06
1.03228e-05
-1.81225e-06
1.03228e-05
-1.81225e-06
1.03229e-05
-1.81225e-06
1.03229e-05
-1.81224e-06
1.03229e-05
-1.81224e-06
1.03229e-05
-1.81224e-06
1.03229e-05
-1.81224e-06
1.03229e-05
-1.81224e-06
1.03229e-05
-1.81224e-06
1.03229e-05
-1.81224e-06
1.03229e-05
-1.81224e-06
1.03229e-05
-1.81223e-06
1.03229e-05
-1.81223e-06
1.03229e-05
-1.81223e-06
1.03229e-05
-1.81223e-06
1.03229e-05
-1.81223e-06
1.03229e-05
-1.81223e-06
1.03229e-05
-1.81223e-06
1.03229e-05
-1.81223e-06
1.03229e-05
-1.81223e-06
1.03229e-05
-1.81223e-06
1.03229e-05
-1.81223e-06
1.03229e-05
-1.81223e-06
1.03229e-05
-1.81223e-06
1.03229e-05
-1.81223e-06
1.03229e-05
-1.81223e-06
1.03229e-05
-1.81223e-06
1.03229e-05
-1.81223e-06
1.03229e-05
-1.81223e-06
1.03229e-05
-1.81223e-06
1.03229e-05
-1.81223e-06
1.03229e-05
-1.81223e-06
1.03229e-05
-1.81223e-06
1.03229e-05
-1.81223e-06
1.03229e-05
-1.81223e-06
1.03229e-05
-1.81223e-06
1.03229e-05
-1.81223e-06
1.03229e-05
-1.81223e-06
1.03229e-05
-1.81223e-06
1.03229e-05
-1.81223e-06
1.03229e-05
-1.81223e-06
1.03229e-05
-1.81223e-06
1.03229e-05
-1.81223e-06
1.03229e-05
-1.81223e-06
1.03229e-05
-1.81223e-06
1.03229e-05
-1.81223e-06
1.03229e-05
-1.81223e-06
1.03229e-05
-1.81223e-06
1.03229e-05
-1.81223e-06
1.03229e-05
-1.81223e-06
1.03229e-05
-1.81223e-06
1.03229e-05
-1.81223e-06
1.03229e-05
-1.81223e-06
1.03229e-05
-1.81223e-06
1.03229e-05
-1.81223e-06
1.03229e-05
-1.81223e-06
1.03229e-05
-1.81223e-06
1.03229e-05
-1.81223e-06
1.03229e-05
-1.81223e-06
1.03229e-05
-1.81223e-06
1.03229e-05
-1.81223e-06
1.03229e-05
-1.81223e-06
1.03229e-05
-1.81223e-06
1.03229e-05
-1.81223e-06
1.03229e-05
-1.81223e-06
1.03229e-05
-1.81223e-06
1.03229e-05
-1.81223e-06
1.03229e-05
-1.81223e-06
1.03229e-05
-1.81223e-06
1.03229e-05
-1.81223e-06
1.03229e-05
-1.81223e-06
1.03229e-05
-1.81223e-06
1.03229e-05
-1.81223e-06
1.03229e-05
-1.81223e-06
1.03229e-05
-1.81223e-06
1.03229e-05
-1.81223e-06
1.03229e-05
-1.81223e-06
1.03229e-05
-1.81223e-06
1.03229e-05
-1.81223e-06
1.03229e-05
-1.81223e-06
1.03229e-05
-1.81223e-06
1.03229e-05
-1.81223e-06
1.03229e-05
-1.81223e-06
1.03229e-05
-1.81223e-06
1.03229e-05
-1.81223e-06
1.03229e-05
-1.81223e-06
1.03229e-05
-1.81223e-06
1.03229e-05
-1.81223e-06
1.03229e-05
-1.81223e-06
1.03229e-05
-1.81223e-06
1.03229e-05
-1.81223e-06
1.03229e-05
-1.81223e-06
1.03229e-05
-1.81223e-06
1.03229e-05
-1.81223e-06
1.03229e-05
-1.81223e-06
1.03229e-05
-1.81223e-06
1.03229e-05
-1.81223e-06
1.03229e-05
-1.81223e-06
1.03229e-05
-1.81223e-06
1.03229e-05
-1.81223e-06
1.03229e-05
-1.81223e-06
1.03229e-05
-1.81223e-06
1.03229e-05
-1.81223e-06
1.03229e-05
-1.81223e-06
1.03229e-05
-1.81223e-06
1.03229e-05
-1.81223e-06
1.03229e-05
-1.81223e-06
1.03229e-05
-1.81223e-06
1.03229e-05
-1.81223e-06
1.03229e-05
-1.81223e-06
1.03229e-05
-1.81223e-06
1.03229e-05
-1.81223e-06
1.03229e-05
-1.81223e-06
1.03229e-05
-1.81223e-06
1.03229e-05
-1.81223e-06
1.03229e-05
-1.81223e-06
1.03229e-05
-1.81223e-06
1.03229e-05
-1.81223e-06
1.03229e-05
-1.81223e-06
1.03229e-05
-1.81223e-06
1.03229e-05
-1.81223e-06
1.03229e-05
-1.81223e-06
1.03229e-05
-1.81223e-06
1.03229e-05
-1.81223e-06
1.03229e-05
-1.81223e-06
1.03229e-05
-1.81223e-06
1.03229e-05
-1.81223e-06
1.03229e-05
-1.81223e-06
1.03229e-05
-1.81223e-06
1.03229e-05
-1.81223e-06
1.03229e-05
-1.81223e-06
1.03229e-05
-1.81223e-06
1.03229e-05
-1.81223e-06
1.03229e-05
-1.81223e-06
1.03229e-05
-1.81223e-06
1.03229e-05
-1.81223e-06
1.03229e-05
-1.81223e-06
1.03229e-05
-1.81223e-06
1.03229e-05
-1.81223e-06
1.03229e-05
-1.81223e-06
1.03229e-05
-1.81223e-06
1.03229e-05
-1.81223e-06
1.03229e-05
-1.81223e-06
1.03229e-05
-1.81223e-06
1.03229e-05
-1.81223e-06
1.03229e-05
-1.81223e-06
1.03229e-05
-1.81223e-06
1.03229e-05
-1.81223e-06
1.03229e-05
-1.81223e-06
1.03229e-05
-1.81223e-06
1.03229e-05
-1.81223e-06
1.03229e-05
-1.81223e-06
1.03229e-05
-1.81223e-06
1.03229e-05
-1.81223e-06
1.03229e-05
-1.81223e-06
1.03229e-05
-1.81223e-06
1.03229e-05
-1.81223e-06
1.03229e-05
-1.81223e-06
1.03229e-05
-1.81223e-06
1.03229e-05
-1.81223e-06
1.03229e-05
-1.81223e-06
1.03229e-05
-1.81223e-06
1.03229e-05
-1.81223e-06
1.03229e-05
-1.81223e-06
1.03229e-05
-1.81223e-06
1.03229e-05
-1.81223e-06
1.03229e-05
-1.81223e-06
1.03229e-05
-1.81223e-06
1.03229e-05
-1.81223e-06
1.03229e-05
-1.81223e-06
1.03229e-05
-1.81223e-06
1.03229e-05
-1.81223e-06
1.03229e-05
-1.81223e-06
1.03229e-05
-1.81223e-06
1.03229e-05
-1.81223e-06
1.03229e-05
-1.81223e-06
1.03229e-05
-1.81223e-06
1.03229e-05
-1.81223e-06
1.03229e-05
-1.81223e-06
1.03229e-05
-1.81223e-06
1.03229e-05
-1.81223e-06
1.03229e-05
-1.81223e-06
1.03229e-05
-1.81223e-06
1.03229e-05
-1.81223e-06
1.03229e-05
-1.81223e-06
1.03229e-05
-1.81223e-06
1.03229e-05
-1.81223e-06
1.03229e-05
-1.81223e-06
1.03229e-05
-1.81223e-06
1.03229e-05
-1.81223e-06
1.03229e-05
-1.81223e-06
1.03229e-05
-1.81223e-06
1.03229e-05
-1.81223e-06
1.03229e-05
-1.81223e-06
1.03229e-05
-1.81223e-06
1.03229e-05
-1.81223e-06
1.03229e-05
-1.81223e-06
1.03229e-05
-1.81223e-06
1.03229e-05
-1.81223e-06
1.03229e-05
-1.81223e-06
1.03229e-05
-1.81223e-06
1.03229e-05
-1.81223e-06
1.03229e-05
-1.81223e-06
1.03229e-05
-1.81223e-06
1.03229e-05
-1.81223e-06
1.03229e-05
-1.81223e-06
1.03229e-05
-1.81223e-06
1.03229e-05
-1.81223e-06
1.03229e-05
-1.81223e-06
1.03229e-05
-1.81223e-06
1.03229e-05
-1.81223e-06
1.03229e-05
-1.81223e-06
1.03229e-05
-1.81223e-06
1.03229e-05
-1.81223e-06
1.03229e-05
-1.81223e-06
1.03229e-05
-1.81223e-06
1.03229e-05
-1.81223e-06
1.03229e-05
-1.81223e-06
1.03229e-05
-1.81223e-06
1.03229e-05
-1.81223e-06
1.03229e-05
-1.81223e-06
1.03229e-05
-1.81223e-06
1.03229e-05
-1.81223e-06
-1.81222e-06
1.60203e-05
1.39889e-05
1.4189e-05
4.36455e-06
1.32379e-05
1.51733e-07
1.28275e-05
-1.16776e-06
1.25397e-05
-1.37087e-06
1.23726e-05
-1.51549e-06
1.2258e-05
-1.62196e-06
1.21838e-05
-1.67781e-06
1.21386e-05
-1.74516e-06
1.21169e-05
-1.78012e-06
1.21092e-05
-1.81406e-06
1.21123e-05
-1.82829e-06
1.21251e-05
-1.85344e-06
1.21427e-05
-1.85941e-06
1.21689e-05
-1.8778e-06
1.21991e-05
-1.88572e-06
1.22335e-05
-1.89392e-06
1.22705e-05
-1.89839e-06
1.23101e-05
-1.90465e-06
1.23538e-05
-1.91314e-06
1.23996e-05
-1.91743e-06
1.24471e-05
-1.92039e-06
1.24959e-05
-1.92331e-06
1.2546e-05
-1.92545e-06
1.2596e-05
-1.92496e-06
1.2642e-05
-1.91615e-06
1.26825e-05
-1.90309e-06
1.27175e-05
-1.89018e-06
1.27475e-05
-1.87863e-06
1.27731e-05
-1.86851e-06
1.27948e-05
-1.85977e-06
1.28131e-05
-1.85225e-06
1.28286e-05
-1.84586e-06
1.28416e-05
-1.84044e-06
1.28526e-05
-1.83589e-06
1.28618e-05
-1.83207e-06
1.28695e-05
-1.8289e-06
1.2876e-05
-1.82625e-06
1.28815e-05
-1.82405e-06
1.28862e-05
-1.82221e-06
1.28901e-05
-1.8207e-06
1.28935e-05
-1.81951e-06
1.28964e-05
-1.81844e-06
1.28988e-05
-1.81744e-06
1.29008e-05
-1.81658e-06
1.29026e-05
-1.81597e-06
1.2904e-05
-1.81538e-06
1.29053e-05
-1.81499e-06
1.29064e-05
-1.8146e-06
1.29074e-05
-1.81428e-06
1.29082e-05
-1.81401e-06
1.29089e-05
-1.81378e-06
1.29095e-05
-1.81356e-06
1.29103e-05
-1.8134e-06
1.29107e-05
-1.81323e-06
1.29111e-05
-1.8131e-06
1.29115e-05
-1.81299e-06
1.29118e-05
-1.81288e-06
1.2912e-05
-1.8128e-06
1.29123e-05
-1.81272e-06
1.29125e-05
-1.81266e-06
1.29126e-05
-1.8126e-06
1.29128e-05
-1.81255e-06
1.29129e-05
-1.81251e-06
1.2913e-05
-1.81247e-06
1.29131e-05
-1.81244e-06
1.29132e-05
-1.81241e-06
1.29133e-05
-1.81238e-06
1.29133e-05
-1.81236e-06
1.29134e-05
-1.81235e-06
1.29134e-05
-1.81233e-06
1.29135e-05
-1.81232e-06
1.29135e-05
-1.81231e-06
1.29135e-05
-1.81229e-06
1.29135e-05
-1.81229e-06
1.29136e-05
-1.81228e-06
1.29136e-05
-1.81227e-06
1.29136e-05
-1.81227e-06
1.29136e-05
-1.81226e-06
1.29136e-05
-1.81226e-06
1.29136e-05
-1.81225e-06
1.29137e-05
-1.81225e-06
1.29137e-05
-1.81225e-06
1.29137e-05
-1.81224e-06
1.29137e-05
-1.81224e-06
1.29137e-05
-1.81224e-06
1.29137e-05
-1.81224e-06
1.29137e-05
-1.81224e-06
1.29137e-05
-1.81224e-06
1.29137e-05
-1.81223e-06
1.29137e-05
-1.81223e-06
1.29137e-05
-1.81223e-06
1.29137e-05
-1.81224e-06
1.29137e-05
-1.81223e-06
1.29137e-05
-1.81223e-06
1.29137e-05
-1.81223e-06
1.29137e-05
-1.81223e-06
1.29137e-05
-1.81223e-06
1.29137e-05
-1.81223e-06
1.29137e-05
-1.81223e-06
1.29137e-05
-1.81223e-06
1.29137e-05
-1.81223e-06
1.29137e-05
-1.81223e-06
1.29137e-05
-1.81223e-06
1.29137e-05
-1.81223e-06
1.29137e-05
-1.81223e-06
1.29137e-05
-1.81223e-06
1.29137e-05
-1.81223e-06
1.29137e-05
-1.81223e-06
1.29137e-05
-1.81223e-06
1.29137e-05
-1.81223e-06
1.29137e-05
-1.81223e-06
1.29137e-05
-1.81223e-06
1.29137e-05
-1.81223e-06
1.29137e-05
-1.81223e-06
1.29137e-05
-1.81223e-06
1.29137e-05
-1.81223e-06
1.29137e-05
-1.81223e-06
1.29137e-05
-1.81223e-06
1.29137e-05
-1.81223e-06
1.29137e-05
-1.81223e-06
1.29137e-05
-1.81223e-06
1.29137e-05
-1.81223e-06
1.29137e-05
-1.81223e-06
1.29137e-05
-1.81223e-06
1.29137e-05
-1.81223e-06
1.29137e-05
-1.81223e-06
1.29137e-05
-1.81223e-06
1.29137e-05
-1.81223e-06
1.29137e-05
-1.81223e-06
1.29137e-05
-1.81223e-06
1.29137e-05
-1.81223e-06
1.29137e-05
-1.81223e-06
1.29137e-05
-1.81223e-06
1.29137e-05
-1.81223e-06
1.29137e-05
-1.81223e-06
1.29137e-05
-1.81223e-06
1.29137e-05
-1.81223e-06
1.29137e-05
-1.81223e-06
1.29137e-05
-1.81223e-06
1.29137e-05
-1.81223e-06
1.29137e-05
-1.81223e-06
1.29137e-05
-1.81223e-06
1.29137e-05
-1.81223e-06
1.29137e-05
-1.81223e-06
1.29137e-05
-1.81223e-06
1.29137e-05
-1.81223e-06
1.29137e-05
-1.81223e-06
1.29137e-05
-1.81223e-06
1.29137e-05
-1.81223e-06
1.29137e-05
-1.81223e-06
1.29137e-05
-1.81223e-06
1.29137e-05
-1.81223e-06
1.29137e-05
-1.81223e-06
1.29137e-05
-1.81223e-06
1.29137e-05
-1.81223e-06
1.29137e-05
-1.81223e-06
1.29137e-05
-1.81223e-06
1.29137e-05
-1.81223e-06
1.29137e-05
-1.81223e-06
1.29137e-05
-1.81223e-06
1.29137e-05
-1.81223e-06
1.29137e-05
-1.81223e-06
1.29137e-05
-1.81223e-06
1.29137e-05
-1.81223e-06
1.29137e-05
-1.81223e-06
1.29137e-05
-1.81223e-06
1.29137e-05
-1.81223e-06
1.29137e-05
-1.81223e-06
1.29137e-05
-1.81223e-06
1.29137e-05
-1.81223e-06
1.29137e-05
-1.81223e-06
1.29137e-05
-1.81223e-06
1.29137e-05
-1.81223e-06
1.29137e-05
-1.81223e-06
1.29137e-05
-1.81223e-06
1.29137e-05
-1.81223e-06
1.29137e-05
-1.81223e-06
1.29137e-05
-1.81223e-06
1.29137e-05
-1.81223e-06
1.29137e-05
-1.81223e-06
1.29137e-05
-1.81223e-06
1.29137e-05
-1.81223e-06
1.29137e-05
-1.81223e-06
1.29137e-05
-1.81223e-06
1.29137e-05
-1.81223e-06
1.29137e-05
-1.81223e-06
1.29137e-05
-1.81223e-06
1.29137e-05
-1.81223e-06
1.29137e-05
-1.81223e-06
1.29137e-05
-1.81223e-06
1.29137e-05
-1.81223e-06
1.29137e-05
-1.81223e-06
1.29137e-05
-1.81223e-06
1.29137e-05
-1.81223e-06
1.29137e-05
-1.81223e-06
1.29137e-05
-1.81223e-06
1.29137e-05
-1.81223e-06
1.29137e-05
-1.81223e-06
1.29137e-05
-1.81223e-06
1.29137e-05
-1.81223e-06
1.29137e-05
-1.81223e-06
1.29137e-05
-1.81223e-06
1.29137e-05
-1.81223e-06
1.29137e-05
-1.81223e-06
1.29137e-05
-1.81223e-06
1.29137e-05
-1.81223e-06
1.29137e-05
-1.81223e-06
1.29137e-05
-1.81223e-06
1.29137e-05
-1.81223e-06
1.29137e-05
-1.81223e-06
1.29137e-05
-1.81223e-06
1.29137e-05
-1.81223e-06
1.29137e-05
-1.81223e-06
1.29137e-05
-1.81223e-06
1.29137e-05
-1.81223e-06
1.29137e-05
-1.81223e-06
1.29137e-05
-1.81223e-06
1.29137e-05
-1.81223e-06
1.29137e-05
-1.81223e-06
1.29137e-05
-1.81223e-06
1.29137e-05
-1.81223e-06
1.29137e-05
-1.81223e-06
1.29137e-05
-1.81223e-06
1.29137e-05
-1.81223e-06
1.29137e-05
-1.81223e-06
1.29137e-05
-1.81223e-06
1.29137e-05
-1.81223e-06
1.29137e-05
-1.81223e-06
1.29137e-05
-1.81223e-06
1.29137e-05
-1.81223e-06
1.29137e-05
-1.81223e-06
1.29137e-05
-1.81223e-06
1.29137e-05
-1.81223e-06
1.29137e-05
-1.81223e-06
1.29137e-05
-1.81223e-06
1.29137e-05
-1.81223e-06
1.29137e-05
-1.81223e-06
1.29137e-05
-1.81223e-06
1.29137e-05
-1.81223e-06
1.29137e-05
-1.81223e-06
1.29137e-05
-1.81223e-06
1.29137e-05
-1.81223e-06
1.29137e-05
-1.81223e-06
1.29137e-05
-1.81223e-06
1.29137e-05
-1.81223e-06
1.29137e-05
-1.81223e-06
1.29137e-05
-1.81223e-06
1.29137e-05
-1.81223e-06
1.29137e-05
-1.81223e-06
1.29137e-05
-1.81223e-06
1.29137e-05
-1.81223e-06
1.29137e-05
-1.81223e-06
1.29137e-05
-1.81223e-06
1.29137e-05
-1.81223e-06
1.29137e-05
-1.81223e-06
1.29137e-05
-1.81223e-06
1.29137e-05
-1.81223e-06
1.29137e-05
-1.81223e-06
1.29137e-05
-1.81223e-06
1.29137e-05
-1.81223e-06
1.29137e-05
-1.81223e-06
1.29137e-05
-1.81223e-06
1.29137e-05
-1.81223e-06
1.29137e-05
-1.81223e-06
1.29137e-05
-1.81223e-06
1.29137e-05
-1.81223e-06
1.29137e-05
-1.81223e-06
1.29137e-05
-1.81223e-06
1.29137e-05
-1.81223e-06
1.29137e-05
-1.81223e-06
1.29137e-05
-1.81223e-06
1.29137e-05
-1.81223e-06
1.29137e-05
-1.81223e-06
1.29137e-05
-1.81223e-06
1.29137e-05
-1.81223e-06
1.29137e-05
-1.81223e-06
1.29137e-05
-1.81223e-06
1.29137e-05
-1.81223e-06
1.29137e-05
-1.81223e-06
1.29137e-05
-1.81223e-06
1.29137e-05
-1.81223e-06
1.29137e-05
-1.81223e-06
1.29137e-05
-1.81223e-06
1.29137e-05
-1.81223e-06
1.29137e-05
-1.81223e-06
1.29137e-05
-1.81223e-06
1.29137e-05
-1.81223e-06
1.29137e-05
-1.81223e-06
1.29137e-05
-1.81223e-06
1.29137e-05
-1.81223e-06
1.29137e-05
-1.81223e-06
1.29137e-05
-1.81223e-06
1.29137e-05
-1.81223e-06
1.29137e-05
-1.81223e-06
1.29137e-05
-1.81223e-06
1.29137e-05
-1.81223e-06
1.29137e-05
-1.81223e-06
1.29137e-05
-1.81223e-06
-1.81222e-06
1.74793e-05
1.40096e-05
1.63737e-05
5.47015e-06
1.55124e-05
1.01308e-06
1.48951e-05
-5.50473e-07
1.44533e-05
-9.2906e-07
1.42072e-05
-1.26946e-06
1.40318e-05
-1.44649e-06
1.3923e-05
-1.56908e-06
1.38519e-05
-1.67397e-06
1.38122e-05
-1.74051e-06
1.37905e-05
-1.79229e-06
1.37856e-05
-1.82343e-06
1.37915e-05
-1.85937e-06
1.38054e-05
-1.87321e-06
1.38291e-05
-1.90152e-06
1.38581e-05
-1.91478e-06
1.3893e-05
-1.92877e-06
1.39314e-05
-1.93678e-06
1.3973e-05
-1.94632e-06
1.40194e-05
-1.95952e-06
1.40685e-05
-1.9665e-06
1.41197e-05
-1.97161e-06
1.41728e-05
-1.97635e-06
1.42276e-05
-1.98024e-06
1.42818e-05
-1.97923e-06
1.43315e-05
-1.96581e-06
1.43753e-05
-1.94689e-06
1.44134e-05
-1.92826e-06
1.44462e-05
-1.91145e-06
1.44743e-05
-1.89662e-06
1.44983e-05
-1.88375e-06
1.45186e-05
-1.87258e-06
1.45358e-05
-1.86306e-06
1.45503e-05
-1.85496e-06
1.45626e-05
-1.84814e-06
1.45729e-05
-1.84239e-06
1.45816e-05
-1.8376e-06
1.45889e-05
-1.83358e-06
1.45951e-05
-1.83025e-06
1.46004e-05
-1.82745e-06
1.46048e-05
-1.82514e-06
1.46086e-05
-1.82331e-06
1.46119e-05
-1.8217e-06
1.46146e-05
-1.82019e-06
1.46169e-05
-1.81888e-06
1.46188e-05
-1.81791e-06
1.46205e-05
-1.81705e-06
1.46219e-05
-1.81642e-06
1.46232e-05
-1.81584e-06
1.46242e-05
-1.81535e-06
1.46252e-05
-1.81493e-06
1.4626e-05
-1.81458e-06
1.46267e-05
-1.81425e-06
1.46273e-05
-1.814e-06
1.46278e-05
-1.81375e-06
1.46282e-05
-1.81355e-06
1.46286e-05
-1.81337e-06
1.46289e-05
-1.81322e-06
1.46292e-05
-1.81309e-06
1.46295e-05
-1.81298e-06
1.46297e-05
-1.81288e-06
1.46299e-05
-1.81279e-06
1.46301e-05
-1.81271e-06
1.46302e-05
-1.81265e-06
1.46303e-05
-1.81259e-06
1.46304e-05
-1.81255e-06
1.46308e-05
-1.81278e-06
1.46309e-05
-1.81246e-06
1.46309e-05
-1.81243e-06
1.4631e-05
-1.81241e-06
1.46311e-05
-1.81238e-06
1.46311e-05
-1.81236e-06
1.46311e-05
-1.81234e-06
1.46312e-05
-1.81232e-06
1.46312e-05
-1.81232e-06
1.46312e-05
-1.8123e-06
1.46312e-05
-1.81229e-06
1.46313e-05
-1.81229e-06
1.46313e-05
-1.81228e-06
1.46313e-05
-1.81227e-06
1.46313e-05
-1.81226e-06
1.46313e-05
-1.81226e-06
1.46313e-05
-1.81226e-06
1.46313e-05
-1.81225e-06
1.46313e-05
-1.81225e-06
1.46313e-05
-1.81225e-06
1.46314e-05
-1.81225e-06
1.46314e-05
-1.81224e-06
1.46314e-05
-1.81224e-06
1.46314e-05
-1.81224e-06
1.46314e-05
-1.81224e-06
1.46314e-05
-1.81224e-06
1.46314e-05
-1.81224e-06
1.46314e-05
-1.81223e-06
1.46314e-05
-1.81224e-06
1.46314e-05
-1.81223e-06
1.46314e-05
-1.81223e-06
1.46314e-05
-1.81223e-06
1.46314e-05
-1.81223e-06
1.46314e-05
-1.81223e-06
1.46314e-05
-1.81223e-06
1.46314e-05
-1.81223e-06
1.46314e-05
-1.81223e-06
1.46314e-05
-1.81223e-06
1.46314e-05
-1.81223e-06
1.46314e-05
-1.81223e-06
1.46314e-05
-1.81223e-06
1.46314e-05
-1.81223e-06
1.46314e-05
-1.81223e-06
1.46314e-05
-1.81223e-06
1.46314e-05
-1.81223e-06
1.46314e-05
-1.81223e-06
1.46314e-05
-1.81223e-06
1.46314e-05
-1.81223e-06
1.46314e-05
-1.81223e-06
1.46314e-05
-1.81223e-06
1.46314e-05
-1.81223e-06
1.46314e-05
-1.81223e-06
1.46314e-05
-1.81223e-06
1.46314e-05
-1.81223e-06
1.46314e-05
-1.81223e-06
1.46314e-05
-1.81223e-06
1.46314e-05
-1.81223e-06
1.46314e-05
-1.81223e-06
1.46314e-05
-1.81223e-06
1.46314e-05
-1.81223e-06
1.46314e-05
-1.81223e-06
1.46314e-05
-1.81223e-06
1.46314e-05
-1.81223e-06
1.46314e-05
-1.81223e-06
1.46314e-05
-1.81223e-06
1.46314e-05
-1.81223e-06
1.46314e-05
-1.81223e-06
1.46314e-05
-1.81223e-06
1.46314e-05
-1.81223e-06
1.46314e-05
-1.81223e-06
1.46314e-05
-1.81223e-06
1.46314e-05
-1.81223e-06
1.46314e-05
-1.81223e-06
1.46314e-05
-1.81223e-06
1.46314e-05
-1.81223e-06
1.46314e-05
-1.81223e-06
1.46314e-05
-1.81223e-06
1.46314e-05
-1.81223e-06
1.46314e-05
-1.81223e-06
1.46314e-05
-1.81223e-06
1.46314e-05
-1.81223e-06
1.46314e-05
-1.81223e-06
1.46314e-05
-1.81223e-06
1.46314e-05
-1.81223e-06
1.46314e-05
-1.81223e-06
1.46314e-05
-1.81223e-06
1.46314e-05
-1.81223e-06
1.46314e-05
-1.81223e-06
1.46314e-05
-1.81223e-06
1.46314e-05
-1.81223e-06
1.46314e-05
-1.81223e-06
1.46314e-05
-1.81223e-06
1.46314e-05
-1.81223e-06
1.46314e-05
-1.81223e-06
1.46314e-05
-1.81223e-06
1.46314e-05
-1.81223e-06
1.46314e-05
-1.81223e-06
1.46314e-05
-1.81223e-06
1.46314e-05
-1.81223e-06
1.46314e-05
-1.81223e-06
1.46314e-05
-1.81223e-06
1.46314e-05
-1.81223e-06
1.46314e-05
-1.81223e-06
1.46314e-05
-1.81223e-06
1.46314e-05
-1.81223e-06
1.46314e-05
-1.81223e-06
1.46314e-05
-1.81223e-06
1.46314e-05
-1.81223e-06
1.46314e-05
-1.81223e-06
1.46314e-05
-1.81223e-06
1.46314e-05
-1.81223e-06
1.46314e-05
-1.81223e-06
1.46314e-05
-1.81223e-06
1.46314e-05
-1.81223e-06
1.46314e-05
-1.81223e-06
1.46314e-05
-1.81223e-06
1.46314e-05
-1.81223e-06
1.46314e-05
-1.81223e-06
1.46314e-05
-1.81223e-06
1.46314e-05
-1.81223e-06
1.46314e-05
-1.81223e-06
1.46314e-05
-1.81223e-06
1.46314e-05
-1.81223e-06
1.46314e-05
-1.81223e-06
1.46314e-05
-1.81223e-06
1.46314e-05
-1.81223e-06
1.46314e-05
-1.81223e-06
1.46314e-05
-1.81223e-06
1.46314e-05
-1.81223e-06
1.46314e-05
-1.81223e-06
1.46314e-05
-1.81223e-06
1.46314e-05
-1.81223e-06
1.46314e-05
-1.81223e-06
1.46314e-05
-1.81223e-06
1.46314e-05
-1.81223e-06
1.46314e-05
-1.81223e-06
1.46314e-05
-1.81223e-06
1.46314e-05
-1.81223e-06
1.46314e-05
-1.81223e-06
1.46314e-05
-1.81223e-06
1.46314e-05
-1.81223e-06
1.46314e-05
-1.81223e-06
1.46314e-05
-1.81223e-06
1.46314e-05
-1.81223e-06
1.46314e-05
-1.81223e-06
1.46314e-05
-1.81223e-06
1.46314e-05
-1.81223e-06
1.46314e-05
-1.81223e-06
1.46314e-05
-1.81223e-06
1.46314e-05
-1.81223e-06
1.46314e-05
-1.81223e-06
1.46314e-05
-1.81223e-06
1.46314e-05
-1.81223e-06
1.46314e-05
-1.81223e-06
1.46314e-05
-1.81223e-06
1.46314e-05
-1.81223e-06
1.46314e-05
-1.81223e-06
1.46314e-05
-1.81223e-06
1.46314e-05
-1.81223e-06
1.46314e-05
-1.81223e-06
1.46314e-05
-1.81223e-06
1.46314e-05
-1.81223e-06
1.46314e-05
-1.81223e-06
1.46314e-05
-1.81223e-06
1.46314e-05
-1.81223e-06
1.46314e-05
-1.81223e-06
1.46314e-05
-1.81223e-06
1.46314e-05
-1.81223e-06
1.46314e-05
-1.81223e-06
1.46314e-05
-1.81223e-06
1.46314e-05
-1.81223e-06
1.46314e-05
-1.81223e-06
1.46314e-05
-1.81223e-06
1.46314e-05
-1.81223e-06
1.46314e-05
-1.81223e-06
1.46314e-05
-1.81223e-06
1.46314e-05
-1.81223e-06
1.46314e-05
-1.81223e-06
1.46314e-05
-1.81223e-06
1.46314e-05
-1.81223e-06
1.46314e-05
-1.81223e-06
1.46314e-05
-1.81223e-06
1.46314e-05
-1.81223e-06
1.46314e-05
-1.81223e-06
1.46314e-05
-1.81223e-06
1.46314e-05
-1.81223e-06
1.46314e-05
-1.81223e-06
1.46314e-05
-1.81223e-06
1.46314e-05
-1.81223e-06
1.46314e-05
-1.81223e-06
1.46314e-05
-1.81223e-06
1.46314e-05
-1.81223e-06
1.46314e-05
-1.81223e-06
1.46314e-05
-1.81223e-06
1.46314e-05
-1.81223e-06
1.46314e-05
-1.81223e-06
1.46314e-05
-1.81223e-06
1.46314e-05
-1.81223e-06
1.46314e-05
-1.81223e-06
1.46314e-05
-1.81223e-06
1.46314e-05
-1.81223e-06
1.46314e-05
-1.81223e-06
1.46314e-05
-1.81223e-06
1.46314e-05
-1.81223e-06
1.46314e-05
-1.81223e-06
1.46314e-05
-1.81223e-06
1.46314e-05
-1.81223e-06
1.46314e-05
-1.81223e-06
1.46314e-05
-1.81223e-06
1.46314e-05
-1.81223e-06
1.46314e-05
-1.81223e-06
1.46314e-05
-1.81223e-06
1.46314e-05