/*--------------------------------*- C++ -*----------------------------------*\
| =========                 |                                                 |
| \\      /  F ield         | foam-extend: Open Source CFD                    |
|  \\    /   O peration     | Version:     3.2                                |
|   \\  /    A nd           | Web:         http://www.foam-extend.org         |
|    \\/     M anipulation  | For copyright notice see file Copyright         |
\*---------------------------------------------------------------------------*/
FoamFile
{
    version     2.0;
    format      ascii;
    class       areaVectorField;
    location    "60";
    object      aUf;
}
// * * * * * * * * * * * * * * * * * * * * * * * * * * * * * * * * * * * * * //

dimensions      [0 1 -1 0 0 0 0];

internalField   nonuniform List<vector> 
300
(
(0.757786 -9.70352e-26 0.0174444)
(0.60306 1.56981e-25 2.50101e-05)
(0.518093 6.15354e-26 -0.00279168)
(0.520337 0 -0.00274981)
(0.510794 -6.52989e-27 -0.00266758)
(0.511987 -5.90466e-27 -0.00259542)
(0.50792 -7.33044e-27 -0.00258536)
(0.507993 -2.5527e-27 -0.00254805)
(0.506431 0 -0.00256028)
(0.507116 -6.7518e-28 -0.00254161)
(0.507151 0 -0.00255597)
(0.508224 2.88936e-29 -0.00255069)
(0.509104 -4.67773e-28 -0.0025638)
(0.510634 -5.2166e-28 -0.00256617)
(0.511959 0 -0.0025754)
(0.513796 0 -0.00258346)
(0.515518 -1.20628e-27 -0.00259288)
(0.517501 1.27788e-27 -0.00260172)
(0.519414 0 -0.00261306)
(0.521565 0 -0.00262375)
(0.523762 0 -0.00263482)
(0.526013 1.76177e-27 -0.00264562)
(0.528294 0 -0.00265724)
(0.530594 0 -0.00266794)
(0.532899 0 -0.00267882)
(0.535098 1.85508e-27 -0.00268812)
(0.537024 -1.65068e-27 -0.00269529)
(0.538659 0 -0.00270127)
(0.540031 0 -0.00270642)
(0.54118 1.05675e-27 -0.00271083)
(0.54214 -8.98902e-28 -0.00271461)
(0.542941 0 -0.0027178)
(0.543608 0 -0.00272051)
(0.544164 0 -0.00272279)
(0.544627 -4.54825e-28 -0.00272472)
(0.545013 0 -0.00272635)
(0.545336 0 -0.00272774)
(0.545606 -2.70116e-28 -0.0027289)
(0.545833 0 -0.0027299)
(0.546025 0 -0.00273074)
(0.546187 0 -0.00273146)
(0.546326 -6.18713e-43 -0.00273209)
(0.546445 0 -0.0027326)
(0.546545 0 -0.00273303)
(0.546629 0 -0.0027334)
(0.5467 0 -0.00273379)
(0.546761 4.29309e-31 -0.00273408)
(0.546814 0 -0.0027343)
(0.546859 0 -0.00273446)
(0.546898 0 -0.00273463)
(0.546933 0 -0.00273479)
(0.546962 2.95691e-29 -0.00273492)
(0.546988 0 -0.00273505)
(0.547011 -6.21683e-43 -0.00273514)
(0.54703 0 -0.00273524)
(0.547047 0 -0.0027353)
(0.547062 -6.21898e-43 -0.00273537)
(0.547075 0 -0.00273542)
(0.547086 -1.07686e-29 -0.00273547)
(0.547096 0 -0.00273551)
(0.547104 0 -0.00273555)
(0.547111 -6.22104e-43 -0.00273558)
(0.547117 0 -0.00273561)
(0.547123 -6.22153e-43 -0.00273564)
(0.547128 0 -0.00273566)
(0.547132 0 -0.00273567)
(0.547135 3.44351e-30 -0.00273569)
(0.547138 0 -0.0027357)
(0.547141 -6.22228e-43 -0.00273571)
(0.547143 0 -0.00273572)
(0.547145 0 -0.00273573)
(0.547147 -6.22253e-43 -0.00273574)
(0.547148 0 -0.00273575)
(0.54715 -6.22264e-43 -0.00273575)
(0.547151 0 -0.00273576)
(0.547152 0 -0.00273576)
(0.547153 -6.22276e-43 -0.00273577)
(0.547153 0 -0.00273577)
(0.547154 -6.22282e-43 -0.00273577)
(0.547154 0 -0.00273577)
(0.547155 0 -0.00273578)
(0.547155 0 -0.00273578)
(0.547156 0 -0.00273578)
(0.547156 0 -0.00273578)
(0.547156 0 -0.00273578)
(0.547156 -2.3761e-31 -0.00273578)
(0.547156 2.50927e-31 -0.00273578)
(0.547157 0 -0.00273578)
(0.547157 0 -0.00273578)
(0.547157 0 -0.00273579)
(0.547157 0 -0.00273579)
(0.547157 0 -0.00273579)
(0.547157 0 -0.00273579)
(0.547157 0 -0.00273579)
(0.547157 0 -0.00273579)
(0.547157 0 -0.00273579)
(0.547157 0 -0.00273579)
(0.547158 0 -0.00273579)
(0.547158 0 -0.00273579)
(0.547158 0 -0.00273579)
(0.547158 0 -0.00273579)
(0.547158 -6.95722e-33 -0.00273579)
(0.547158 7.44523e-33 -0.00273579)
(0.547158 0 -0.00273579)
(0.547158 0 -0.00273579)
(0.547158 0 -0.00273579)
(0.547158 0 -0.00273579)
(0.547158 0 -0.00273579)
(0.547158 0 -0.00273579)
(0.547158 0 -0.00273579)
(0.547158 0 -0.00273579)
(0.547158 0 -0.00273579)
(0.547158 0 -0.00273579)
(0.547158 0 -0.00273579)
(0.547158 0 -0.00273579)
(0.547158 0 -0.00273579)
(0.547158 0 -0.00273579)
(0.547158 0 -0.00273579)
(0.547158 0 -0.00273579)
(0.547158 0 -0.00273579)
(0.547158 0 -0.00273579)
(0.547158 0 -0.00273579)
(0.547158 0 -0.00273579)
(0.547158 0 -0.00273579)
(0.547158 0 -0.00273579)
(0.547158 0 -0.00273579)
(0.547158 0 -0.00273579)
(0.547158 0 -0.00273579)
(0.547158 0 -0.00273579)
(0.547158 0 -0.00273579)
(0.547158 0 -0.00273579)
(0.547158 0 -0.00273579)
(0.547158 0 -0.00273579)
(0.547158 0 -0.00273579)
(0.547158 0 -0.00273579)
(0.547158 0 -0.00273579)
(0.547158 0 -0.00273579)
(0.547158 0 -0.00273579)
(0.547158 0 -0.00273579)
(0.547158 0 -0.00273579)
(0.547158 0 -0.00273579)
(0.547158 0 -0.00273579)
(0.547158 0 -0.00273579)
(0.547158 0 -0.00273579)
(0.547158 0 -0.00273579)
(0.547158 0 -0.00273579)
(0.547158 0 -0.00273579)
(0.547158 0 -0.00273579)
(0.547158 0 -0.00273579)
(0.547158 0 -0.00273579)
(0.547158 0 -0.00273579)
(0.547158 0 -0.00273579)
(0.547158 0 -0.00273579)
(0.547158 0 -0.00273579)
(0.547158 0 -0.00273579)
(0.547158 0 -0.00273579)
(0.547158 0 -0.00273579)
(0.547158 0 -0.00273579)
(0.547158 0 -0.00273579)
(0.547158 0 -0.00273579)
(0.547158 0 -0.00273579)
(0.547158 0 -0.00273579)
(0.547158 0 -0.00273579)
(0.547158 0 -0.00273579)
(0.547158 0 -0.00273579)
(0.547158 0 -0.00273579)
(0.547158 0 -0.00273579)
(0.547158 0 -0.00273579)
(0.547158 0 -0.00273579)
(0.547158 0 -0.00273579)
(0.547158 0 -0.00273579)
(0.547158 0 -0.00273579)
(0.547158 0 -0.00273579)
(0.547158 0 -0.00273579)
(0.547158 0 -0.00273579)
(0.547158 0 -0.00273579)
(0.547158 0 -0.00273579)
(0.547158 0 -0.00273579)
(0.547158 0 -0.00273579)
(0.547158 0 -0.00273579)
(0.547158 0 -0.00273579)
(0.547158 0 -0.00273579)
(0.547158 0 -0.00273579)
(0.547158 0 -0.00273579)
(0.547158 0 -0.00273579)
(0.547158 0 -0.00273579)
(0.547158 0 -0.00273579)
(0.547158 0 -0.00273579)
(0.547158 0 -0.00273579)
(0.547158 0 -0.00273579)
(0.547158 0 -0.00273579)
(0.547158 0 -0.00273579)
(0.547158 0 -0.00273579)
(0.547158 0 -0.00273579)
(0.547158 0 -0.00273579)
(0.547158 0 -0.00273579)
(0.547158 0 -0.00273579)
(0.547158 0 -0.00273579)
(0.547158 0 -0.00273579)
(0.547158 0 -0.00273579)
(0.547158 0 -0.00273579)
(0.547158 0 -0.00273579)
(0.547158 0 -0.00273579)
(0.547158 0 -0.00273579)
(0.547158 0 -0.00273579)
(0.547158 0 -0.00273579)
(0.547158 0 -0.00273579)
(0.547158 0 -0.00273579)
(0.547158 0 -0.00273579)
(0.547158 0 -0.00273579)
(0.547158 0 -0.00273579)
(0.547158 0 -0.00273579)
(0.547158 0 -0.00273579)
(0.547158 0 -0.00273579)
(0.547158 0 -0.00273579)
(0.547158 0 -0.00273579)
(0.547158 0 -0.00273579)
(0.547158 0 -0.00273579)
(0.547158 0 -0.00273579)
(0.547158 0 -0.00273579)
(0.547158 0 -0.00273579)
(0.547158 0 -0.00273579)
(0.547158 0 -0.00273579)
(0.547158 0 -0.00273579)
(0.547158 0 -0.00273579)
(0.547158 0 -0.00273579)
(0.547158 0 -0.00273579)
(0.547158 0 -0.00273579)
(0.547158 0 -0.00273579)
(0.547158 0 -0.00273579)
(0.547158 0 -0.00273579)
(0.547158 0 -0.00273579)
(0.547158 0 -0.00273579)
(0.547158 0 -0.00273579)
(0.547158 2.99189e-35 -0.00273579)
(0.547158 0 -0.00273579)
(0.547158 0 -0.00273579)
(0.547158 0 -0.00273579)
(0.547158 0 -0.00273579)
(0.547158 0 -0.00273579)
(0.547158 0 -0.00273579)
(0.547158 0 -0.00273579)
(0.547158 0 -0.00273579)
(0.547158 0 -0.00273579)
(0.547158 0 -0.00273579)
(0.547158 0 -0.00273579)
(0.547158 0 -0.00273579)
(0.547158 0 -0.00273579)
(0.547158 0 -0.00273579)
(0.547158 0 -0.00273579)
(0.547158 0 -0.00273579)
(0.547158 0 -0.00273579)
(0.547158 0 -0.00273579)
(0.547158 0 -0.00273579)
(0.547158 0 -0.00273579)
(0.547158 0 -0.00273579)
(0.547158 0 -0.00273579)
(0.547158 0 -0.00273579)
(0.547158 0 -0.00273579)
(0.547158 0 -0.00273579)
(0.547158 0 -0.00273579)
(0.547158 0 -0.00273579)
(0.547158 0 -0.00273579)
(0.547158 0 -0.00273579)
(0.547158 0 -0.00273579)
(0.547158 0 -0.00273579)
(0.547158 0 -0.00273579)
(0.547158 0 -0.00273579)
(0.547158 0 -0.00273579)
(0.547158 0 -0.00273579)
(0.547158 0 -0.00273579)
(0.547158 0 -0.00273579)
(0.547158 0 -0.00273579)
(0.547158 0 -0.00273579)
(0.547158 0 -0.00273579)
(0.547158 0 -0.00273579)
(0.547158 0 -0.00273579)
(0.547158 0 -0.00273579)
(0.547158 0 -0.00273579)
(0.547158 0 -0.00273579)
(0.547158 0 -0.00273579)
(0.547158 -2.10245e-35 -0.00273579)
(0.547158 0 -0.00273579)
(0.547158 0 -0.00273579)
(0.547158 0 -0.00273579)
(0.547158 0 -0.00273579)
(0.547158 0 -0.00273579)
(0.547158 0 -0.00273579)
(0.547158 0 -0.00273579)
(0.547158 0 -0.00273579)
(0.547158 0 -0.00273579)
(0.547158 0 -0.00273579)
(0.547158 0 -0.00273579)
(0.547158 0 -0.00273579)
(0.547158 0 -0.00273579)
(0.547158 0 -0.00273579)
(0.547158 0 -0.00273579)
(0.547158 0 -0.00273579)
(0.547158 0 -0.00273579)
(0.547157 0 -0.00274044)
)
;

boundaryField
{
    inlet
    {
        type            calculated;
        value           uniform (0 0 0);
    }
    outlet
    {
        type            calculated;
        value           uniform (0 0 0);
    }
    sideWall
    {
        type            empty;
    }
}


// ************************************************************************* //
