/*--------------------------------*- C++ -*----------------------------------*\
| =========                 |                                                 |
| \\      /  F ield         | foam-extend: Open Source CFD                    |
|  \\    /   O peration     | Version:     3.2                                |
|   \\  /    A nd           | Web:         http://www.foam-extend.org         |
|    \\/     M anipulation  | For copyright notice see file Copyright         |
\*---------------------------------------------------------------------------*/
FoamFile
{
    version     2.0;
    format      ascii;
    class       areaScalarField;
    location    "60";
    object      Ce2;
}
// * * * * * * * * * * * * * * * * * * * * * * * * * * * * * * * * * * * * * //

dimensions      [1 -3 0 0 0 0 0];

internalField   nonuniform List<scalar> 
300
(
0.816701
0.407819
0.256473
0.25989
0.245561
0.247323
0.24135
0.241456
0.239186
0.24018
0.24023
0.241792
0.243078
0.245324
0.24728
0.250009
0.252587
0.255575
0.25848
0.261772
0.265162
0.268668
0.272249
0.275894
0.279578
0.283122
0.286251
0.288925
0.291182
0.293081
0.294673
0.296006
0.297119
0.298049
0.298825
0.299473
0.300016
0.300471
0.300854
0.301177
0.30145
0.301684
0.301885
0.302055
0.302197
0.302316
0.30242
0.302503
0.30258
0.302646
0.302704
0.302755
0.302798
0.302836
0.30287
0.302899
0.302924
0.302945
0.302964
0.30298
0.302994
0.303007
0.303017
0.303027
0.303034
0.303041
0.303048
0.303053
0.303057
0.303061
0.303064
0.303067
0.30307
0.303072
0.303074
0.303075
0.303077
0.303078
0.303079
0.30308
0.303081
0.303081
0.303082
0.303082
0.303083
0.303083
0.303083
0.303084
0.303084
0.303084
0.303084
0.303085
0.303085
0.303085
0.303085
0.303085
0.303085
0.303085
0.303085
0.303085
0.303085
0.303085
0.303085
0.303085
0.303085
0.303085
0.303085
0.303085
0.303085
0.303085
0.303085
0.303086
0.303086
0.303086
0.303086
0.303086
0.303086
0.303086
0.303086
0.303086
0.303086
0.303086
0.303086
0.303086
0.303086
0.303086
0.303086
0.303086
0.303086
0.303086
0.303086
0.303086
0.303086
0.303086
0.303086
0.303086
0.303086
0.303086
0.303086
0.303086
0.303086
0.303086
0.303086
0.303086
0.303086
0.303086
0.303086
0.303086
0.303086
0.303086
0.303086
0.303086
0.303086
0.303086
0.303086
0.303086
0.303086
0.303086
0.303086
0.303086
0.303086
0.303086
0.303086
0.303086
0.303086
0.303086
0.303086
0.303086
0.303086
0.303086
0.303086
0.303086
0.303086
0.303086
0.303086
0.303086
0.303086
0.303086
0.303086
0.303086
0.303086
0.303086
0.303086
0.303086
0.303086
0.303086
0.303086
0.303086
0.303086
0.303086
0.303086
0.303086
0.303086
0.303086
0.303086
0.303086
0.303086
0.303086
0.303086
0.303086
0.303086
0.303086
0.303086
0.303086
0.303086
0.303086
0.303086
0.303086
0.303086
0.303086
0.303086
0.303086
0.303086
0.303086
0.303086
0.303086
0.303086
0.303086
0.303086
0.303086
0.303086
0.303086
0.303086
0.303086
0.303086
0.303086
0.303086
0.303086
0.303086
0.303086
0.303086
0.303086
0.303086
0.303086
0.303086
0.303086
0.303086
0.303086
0.303086
0.303086
0.303086
0.303086
0.303086
0.303086
0.303086
0.303086
0.303086
0.303086
0.303086
0.303086
0.303086
0.303086
0.303086
0.303086
0.303086
0.303086
0.303086
0.303086
0.303086
0.303086
0.303086
0.303086
0.303086
0.303086
0.303086
0.303086
0.303086
0.303086
0.303086
0.303086
0.303086
0.303086
0.303086
0.303086
0.303086
0.303086
0.303086
0.303086
0.303086
0.303086
0.303086
0.303086
0.303086
0.303086
0.303086
0.303086
0.303086
0.303086
0.303086
0.303086
0.303086
0.303086
0.303086
0.303086
0.303086
0.303086
0.303086
0.303086
0.303086
0.303085
)
;

boundaryField
{
    inlet
    {
        type            calculated;
        value           uniform 0;
    }
    outlet
    {
        type            calculated;
        value           uniform 0;
    }
    sideWall
    {
        type            empty;
    }
}


// ************************************************************************* //
