/*--------------------------------*- C++ -*----------------------------------*\
| =========                 |                                                 |
| \\      /  F ield         | foam-extend: Open Source CFD                    |
|  \\    /   O peration     | Version:     3.2                                |
|   \\  /    A nd           | Web:         http://www.foam-extend.org         |
|    \\/     M anipulation  | For copyright notice see file Copyright         |
\*---------------------------------------------------------------------------*/
FoamFile
{
    version     2.0;
    format      ascii;
    class       volScalarField;
    location    "60";
    object      DiSS;
}
// * * * * * * * * * * * * * * * * * * * * * * * * * * * * * * * * * * * * * //

dimensions      [0 2 -1 0 0 0 0];

internalField   nonuniform List<scalar> 
5400
(
2.6589e-05
2.12204e-05
1.8259e-05
1.83374e-05
1.80037e-05
1.80455e-05
1.79032e-05
1.79057e-05
1.78511e-05
1.7875e-05
1.78763e-05
1.79138e-05
1.79446e-05
1.79982e-05
1.80445e-05
1.81087e-05
1.8169e-05
1.82383e-05
1.83052e-05
1.83803e-05
1.84571e-05
1.85358e-05
1.86154e-05
1.86958e-05
1.87763e-05
1.8853e-05
1.89203e-05
1.89773e-05
1.90252e-05
1.90653e-05
1.90988e-05
1.91268e-05
1.91501e-05
1.91695e-05
1.91856e-05
1.91991e-05
1.92103e-05
1.92198e-05
1.92277e-05
1.92344e-05
1.924e-05
1.92449e-05
1.9249e-05
1.92525e-05
1.92555e-05
1.92579e-05
1.92603e-05
1.92622e-05
1.92638e-05
1.92652e-05
1.92664e-05
1.92674e-05
1.92683e-05
1.92691e-05
1.92698e-05
1.92704e-05
1.92709e-05
1.92714e-05
1.92717e-05
1.92721e-05
1.92724e-05
1.92726e-05
1.92728e-05
1.9273e-05
1.92732e-05
1.92733e-05
1.92735e-05
1.92736e-05
1.92737e-05
1.92737e-05
1.92738e-05
1.92739e-05
1.92739e-05
1.9274e-05
1.9274e-05
1.9274e-05
1.92741e-05
1.92741e-05
1.92741e-05
1.92741e-05
1.92742e-05
1.92742e-05
1.92742e-05
1.92742e-05
1.92742e-05
1.92742e-05
1.92742e-05
1.92742e-05
1.92742e-05
1.92742e-05
1.92742e-05
1.92742e-05
1.92742e-05
1.92742e-05
1.92742e-05
1.92742e-05
1.92742e-05
1.92742e-05
1.92742e-05
1.92742e-05
1.92742e-05
1.92742e-05
1.92742e-05
1.92742e-05
1.92742e-05
1.92742e-05
1.92742e-05
1.92743e-05
1.92742e-05
1.92742e-05
1.92743e-05
1.92743e-05
1.92743e-05
1.92743e-05
1.92743e-05
1.92743e-05
1.92743e-05
1.92743e-05
1.92743e-05
1.92743e-05
1.92743e-05
1.92743e-05
1.92743e-05
1.92743e-05
1.92743e-05
1.92743e-05
1.92743e-05
1.92743e-05
1.92743e-05
1.92743e-05
1.92743e-05
1.92743e-05
1.92743e-05
1.92743e-05
1.92743e-05
1.92743e-05
1.92743e-05
1.92743e-05
1.92743e-05
1.92743e-05
1.92743e-05
1.92743e-05
1.92743e-05
1.92743e-05
1.92743e-05
1.92743e-05
1.92743e-05
1.92743e-05
1.92743e-05
1.92743e-05
1.92743e-05
1.92743e-05
1.92743e-05
1.92743e-05
1.92743e-05
1.92743e-05
1.92743e-05
1.92743e-05
1.92743e-05
1.92743e-05
1.92743e-05
1.92743e-05
1.92743e-05
1.92743e-05
1.92743e-05
1.92743e-05
1.92743e-05
1.92743e-05
1.92743e-05
1.92743e-05
1.92743e-05
1.92743e-05
1.92743e-05
1.92743e-05
1.92743e-05
1.92743e-05
1.92743e-05
1.92743e-05
1.92743e-05
1.92743e-05
1.92743e-05
1.92743e-05
1.92743e-05
1.92743e-05
1.92743e-05
1.92743e-05
1.92743e-05
1.92743e-05
1.92743e-05
1.92743e-05
1.92743e-05
1.92743e-05
1.92743e-05
1.92743e-05
1.92743e-05
1.92743e-05
1.92743e-05
1.92743e-05
1.92743e-05
1.92743e-05
1.92743e-05
1.92743e-05
1.92743e-05
1.92743e-05
1.92743e-05
1.92743e-05
1.92743e-05
1.92743e-05
1.92743e-05
1.92743e-05
1.92743e-05
1.92743e-05
1.92743e-05
1.92743e-05
1.92743e-05
1.92743e-05
1.92743e-05
1.92743e-05
1.92743e-05
1.92743e-05
1.92743e-05
1.92743e-05
1.92743e-05
1.92743e-05
1.92743e-05
1.92743e-05
1.92743e-05
1.92743e-05
1.92743e-05
1.92743e-05
1.92743e-05
1.92743e-05
1.92743e-05
1.92743e-05
1.92743e-05
1.92743e-05
1.92743e-05
1.92743e-05
1.92743e-05
1.92743e-05
1.92743e-05
1.92743e-05
1.92743e-05
1.92743e-05
1.92743e-05
1.92743e-05
1.92743e-05
1.92743e-05
1.92743e-05
1.92743e-05
1.92743e-05
1.92743e-05
1.92743e-05
1.92743e-05
1.92743e-05
1.92743e-05
1.92743e-05
1.92743e-05
1.92743e-05
1.92743e-05
1.92743e-05
1.92743e-05
1.92743e-05
1.92743e-05
1.92743e-05
1.92743e-05
1.92743e-05
1.92743e-05
1.92743e-05
1.92743e-05
1.92743e-05
1.92743e-05
1.92743e-05
1.92743e-05
1.92743e-05
1.92743e-05
1.92743e-05
1.92743e-05
1.92743e-05
1.92743e-05
1.92743e-05
1.92743e-05
1.92743e-05
1.92743e-05
1.92743e-05
1.92743e-05
1.92743e-05
1.92743e-05
1.92743e-05
1.92743e-05
1.92743e-05
1.92743e-05
1.92743e-05
1.92743e-05
1.92743e-05
1.92743e-05
1.92743e-05
1.92743e-05
1.92743e-05
1.92742e-05
2.58395e-05
3.35986e-05
3.6267e-05
3.83246e-05
3.95544e-05
4.02705e-05
4.07493e-05
4.10645e-05
4.13729e-05
4.16236e-05
4.1862e-05
4.21032e-05
4.23337e-05
4.25764e-05
4.28078e-05
4.30374e-05
4.32691e-05
4.34973e-05
4.37283e-05
4.39555e-05
4.41795e-05
4.43989e-05
4.46122e-05
4.48182e-05
4.50098e-05
4.51757e-05
4.53096e-05
4.54148e-05
4.54972e-05
4.55619e-05
4.5613e-05
4.56536e-05
4.56859e-05
4.57117e-05
4.57325e-05
4.57493e-05
4.57632e-05
4.57746e-05
4.57842e-05
4.57922e-05
4.5799e-05
4.58049e-05
4.58099e-05
4.58141e-05
4.58178e-05
4.5821e-05
4.58238e-05
4.58263e-05
4.58284e-05
4.58303e-05
4.58319e-05
4.58333e-05
4.58346e-05
4.58357e-05
4.58365e-05
4.58374e-05
4.58381e-05
4.58388e-05
4.58394e-05
4.58399e-05
4.58403e-05
4.58407e-05
4.5841e-05
4.58413e-05
4.58415e-05
4.58418e-05
4.58419e-05
4.58421e-05
4.58422e-05
4.58424e-05
4.58424e-05
4.58425e-05
4.58426e-05
4.58427e-05
4.58428e-05
4.58428e-05
4.58428e-05
4.58429e-05
4.58429e-05
4.58429e-05
4.5843e-05
4.5843e-05
4.5843e-05
4.5843e-05
4.5843e-05
4.5843e-05
4.5843e-05
4.58431e-05
4.58431e-05
4.58431e-05
4.58431e-05
4.58431e-05
4.58431e-05
4.58431e-05
4.58431e-05
4.58431e-05
4.58431e-05
4.58431e-05
4.58431e-05
4.58431e-05
4.58431e-05
4.58431e-05
4.58431e-05
4.58431e-05
4.58431e-05
4.58431e-05
4.58431e-05
4.58431e-05
4.58431e-05
4.58431e-05
4.58431e-05
4.58431e-05
4.58431e-05
4.58431e-05
4.58431e-05
4.58431e-05
4.58431e-05
4.58431e-05
4.58431e-05
4.58431e-05
4.58431e-05
4.58431e-05
4.58431e-05
4.58431e-05
4.58431e-05
4.58431e-05
4.58431e-05
4.58431e-05
4.58431e-05
4.58431e-05
4.58431e-05
4.58431e-05
4.58431e-05
4.58431e-05
4.58431e-05
4.58431e-05
4.58431e-05
4.58431e-05
4.58431e-05
4.58431e-05
4.58431e-05
4.58431e-05
4.58431e-05
4.58431e-05
4.58431e-05
4.58431e-05
4.58431e-05
4.58431e-05
4.58431e-05
4.58431e-05
4.58431e-05
4.58431e-05
4.58431e-05
4.58431e-05
4.58431e-05
4.58431e-05
4.58431e-05
4.58431e-05
4.58431e-05
4.58431e-05
4.58431e-05
4.58431e-05
4.58431e-05
4.58431e-05
4.58431e-05
4.58431e-05
4.58431e-05
4.58431e-05
4.58431e-05
4.58431e-05
4.58431e-05
4.58431e-05
4.58431e-05
4.58431e-05
4.58431e-05
4.58431e-05
4.58431e-05
4.58431e-05
4.58431e-05
4.58431e-05
4.58431e-05
4.58431e-05
4.58431e-05
4.58431e-05
4.58431e-05
4.58431e-05
4.58431e-05
4.58431e-05
4.58431e-05
4.58431e-05
4.58431e-05
4.58431e-05
4.58431e-05
4.58431e-05
4.58431e-05
4.58431e-05
4.58431e-05
4.58431e-05
4.58431e-05
4.58431e-05
4.58431e-05
4.58431e-05
4.58431e-05
4.58431e-05
4.58431e-05
4.58431e-05
4.58431e-05
4.58431e-05
4.58431e-05
4.58431e-05
4.58431e-05
4.58431e-05
4.58431e-05
4.58431e-05
4.58431e-05
4.58431e-05
4.58431e-05
4.58431e-05
4.58431e-05
4.58431e-05
4.58431e-05
4.58431e-05
4.58431e-05
4.58431e-05
4.58431e-05
4.58431e-05
4.58431e-05
4.58431e-05
4.58431e-05
4.58431e-05
4.58431e-05
4.58431e-05
4.58431e-05
4.58431e-05
4.58431e-05
4.58431e-05
4.58431e-05
4.58431e-05
4.58431e-05
4.58431e-05
4.58431e-05
4.58431e-05
4.58431e-05
4.58431e-05
4.58431e-05
4.58431e-05
4.58431e-05
4.58431e-05
4.58431e-05
4.58431e-05
4.58431e-05
4.58431e-05
4.58431e-05
4.58431e-05
4.58431e-05
4.58431e-05
4.58431e-05
4.58431e-05
4.58431e-05
4.58431e-05
4.58431e-05
4.58431e-05
4.58431e-05
4.58431e-05
4.58431e-05
4.58431e-05
4.58431e-05
4.58431e-05
4.58431e-05
4.58431e-05
4.58431e-05
4.58431e-05
4.58431e-05
4.58431e-05
4.58431e-05
4.58431e-05
4.58431e-05
4.58431e-05
4.58431e-05
4.58431e-05
4.58431e-05
4.58431e-05
4.58431e-05
4.58431e-05
4.58431e-05
4.58431e-05
4.58431e-05
4.58431e-05
4.58431e-05
4.58431e-05
4.58431e-05
4.58431e-05
4.58431e-05
4.58431e-05
4.58431e-05
4.58431e-05
4.58431e-05
4.58431e-05
4.58431e-05
4.58431e-05
2.43571e-05
3.7003e-05
4.2992e-05
4.95511e-05
5.48711e-05
5.75513e-05
5.9258e-05
6.06765e-05
6.1726e-05
6.26899e-05
6.34527e-05
6.41824e-05
6.48305e-05
6.5431e-05
6.60121e-05
6.65417e-05
6.70537e-05
6.75471e-05
6.80193e-05
6.8475e-05
6.89086e-05
6.93203e-05
6.97091e-05
7.0072e-05
7.03982e-05
7.06489e-05
7.083e-05
7.09598e-05
7.10533e-05
7.11207e-05
7.11692e-05
7.12042e-05
7.12293e-05
7.12473e-05
7.12604e-05
7.127e-05
7.12774e-05
7.12831e-05
7.12879e-05
7.12919e-05
7.12953e-05
7.12985e-05
7.13013e-05
7.13038e-05
7.13059e-05
7.13079e-05
7.13096e-05
7.13114e-05
7.1313e-05
7.13146e-05
7.1316e-05
7.13172e-05
7.13184e-05
7.13194e-05
7.13203e-05
7.13211e-05
7.13219e-05
7.13225e-05
7.13231e-05
7.13236e-05
7.1324e-05
7.13244e-05
7.13247e-05
7.1325e-05
7.13252e-05
7.13254e-05
7.13256e-05
7.13258e-05
7.13259e-05
7.1326e-05
7.13261e-05
7.13262e-05
7.13263e-05
7.13264e-05
7.13264e-05
7.13265e-05
7.13265e-05
7.13266e-05
7.13266e-05
7.13266e-05
7.13266e-05
7.13267e-05
7.13267e-05
7.13267e-05
7.13267e-05
7.13267e-05
7.13267e-05
7.13268e-05
7.13268e-05
7.13268e-05
7.13268e-05
7.13268e-05
7.13268e-05
7.13268e-05
7.13268e-05
7.13268e-05
7.13268e-05
7.13268e-05
7.13268e-05
7.13268e-05
7.13268e-05
7.13268e-05
7.13268e-05
7.13268e-05
7.13268e-05
7.13268e-05
7.13268e-05
7.13268e-05
7.13268e-05
7.13268e-05
7.13268e-05
7.13268e-05
7.13268e-05
7.13268e-05
7.13268e-05
7.13268e-05
7.13268e-05
7.13268e-05
7.13268e-05
7.13268e-05
7.13268e-05
7.13268e-05
7.13268e-05
7.13268e-05
7.13268e-05
7.13268e-05
7.13268e-05
7.13268e-05
7.13268e-05
7.13268e-05
7.13268e-05
7.13268e-05
7.13268e-05
7.13268e-05
7.13268e-05
7.13268e-05
7.13268e-05
7.13268e-05
7.13268e-05
7.13268e-05
7.13268e-05
7.13268e-05
7.13268e-05
7.13268e-05
7.13268e-05
7.13268e-05
7.13268e-05
7.13268e-05
7.13268e-05
7.13268e-05
7.13268e-05
7.13268e-05
7.13268e-05
7.13268e-05
7.13268e-05
7.13268e-05
7.13268e-05
7.13268e-05
7.13268e-05
7.13268e-05
7.13268e-05
7.13268e-05
7.13268e-05
7.13268e-05
7.13268e-05
7.13268e-05
7.13268e-05
7.13268e-05
7.13268e-05
7.13268e-05
7.13268e-05
7.13268e-05
7.13268e-05
7.13268e-05
7.13268e-05
7.13268e-05
7.13268e-05
7.13268e-05
7.13268e-05
7.13268e-05
7.13268e-05
7.13268e-05
7.13268e-05
7.13268e-05
7.13268e-05
7.13268e-05
7.13268e-05
7.13268e-05
7.13268e-05
7.13268e-05
7.13268e-05
7.13268e-05
7.13268e-05
7.13268e-05
7.13268e-05
7.13268e-05
7.13268e-05
7.13268e-05
7.13268e-05
7.13268e-05
7.13268e-05
7.13268e-05
7.13268e-05
7.13268e-05
7.13268e-05
7.13268e-05
7.13268e-05
7.13268e-05
7.13268e-05
7.13268e-05
7.13268e-05
7.13268e-05
7.13268e-05
7.13268e-05
7.13268e-05
7.13268e-05
7.13268e-05
7.13268e-05
7.13268e-05
7.13268e-05
7.13268e-05
7.13268e-05
7.13268e-05
7.13268e-05
7.13268e-05
7.13268e-05
7.13268e-05
7.13268e-05
7.13268e-05
7.13268e-05
7.13268e-05
7.13268e-05
7.13268e-05
7.13268e-05
7.13268e-05
7.13268e-05
7.13268e-05
7.13268e-05
7.13268e-05
7.13268e-05
7.13268e-05
7.13268e-05
7.13268e-05
7.13268e-05
7.13268e-05
7.13268e-05
7.13268e-05
7.13268e-05
7.13268e-05
7.13268e-05
7.13268e-05
7.13268e-05
7.13268e-05
7.13268e-05
7.13268e-05
7.13268e-05
7.13268e-05
7.13268e-05
7.13268e-05
7.13268e-05
7.13268e-05
7.13268e-05
7.13268e-05
7.13268e-05
7.13268e-05
7.13268e-05
7.13268e-05
7.13268e-05
7.13268e-05
7.13268e-05
7.13268e-05
7.13268e-05
7.13268e-05
7.13268e-05
7.13268e-05
7.13268e-05
7.13268e-05
7.13268e-05
7.13268e-05
7.13268e-05
7.13268e-05
7.13268e-05
7.13268e-05
7.13268e-05
7.13268e-05
7.13268e-05
7.13268e-05
7.13268e-05
7.13268e-05
7.13268e-05
7.13268e-05
7.13268e-05
7.13268e-05
7.13268e-05
7.13268e-05
7.13268e-05
7.13268e-05
7.13268e-05
7.13268e-05
7.13268e-05
2.44131e-05
3.31422e-05
4.0874e-05
5.07561e-05
5.95436e-05
6.551e-05
7.07443e-05
7.38922e-05
7.63627e-05
7.85128e-05
8.02661e-05
8.18372e-05
8.32019e-05
8.44483e-05
8.55975e-05
8.66261e-05
8.75956e-05
8.84993e-05
8.93477e-05
9.01456e-05
9.08878e-05
9.15767e-05
9.22109e-05
9.2787e-05
9.32834e-05
9.36474e-05
9.38983e-05
9.40671e-05
9.41785e-05
9.42501e-05
9.42941e-05
9.43192e-05
9.43318e-05
9.43363e-05
9.43359e-05
9.43328e-05
9.43287e-05
9.43244e-05
9.43204e-05
9.4317e-05
9.43143e-05
9.43124e-05
9.4311e-05
9.43099e-05
9.43092e-05
9.43088e-05
9.43087e-05
9.43091e-05
9.43097e-05
9.43105e-05
9.43113e-05
9.43121e-05
9.43129e-05
9.43137e-05
9.43145e-05
9.43152e-05
9.43158e-05
9.43164e-05
9.43168e-05
9.43173e-05
9.43177e-05
9.43181e-05
9.43184e-05
9.43186e-05
9.43189e-05
9.43191e-05
9.43194e-05
9.43196e-05
9.43198e-05
9.43199e-05
9.432e-05
9.43201e-05
9.43202e-05
9.43202e-05
9.43203e-05
9.43203e-05
9.43204e-05
9.43204e-05
9.43204e-05
9.43204e-05
9.43205e-05
9.43205e-05
9.43205e-05
9.43205e-05
9.43205e-05
9.43205e-05
9.43206e-05
9.43206e-05
9.43206e-05
9.43206e-05
9.43206e-05
9.43206e-05
9.43206e-05
9.43206e-05
9.43206e-05
9.43206e-05
9.43206e-05
9.43206e-05
9.43206e-05
9.43206e-05
9.43206e-05
9.43206e-05
9.43206e-05
9.43206e-05
9.43206e-05
9.43206e-05
9.43206e-05
9.43206e-05
9.43206e-05
9.43206e-05
9.43206e-05
9.43206e-05
9.43206e-05
9.43206e-05
9.43206e-05
9.43206e-05
9.43206e-05
9.43206e-05
9.43206e-05
9.43206e-05
9.43206e-05
9.43206e-05
9.43206e-05
9.43206e-05
9.43206e-05
9.43206e-05
9.43206e-05
9.43206e-05
9.43206e-05
9.43206e-05
9.43206e-05
9.43206e-05
9.43206e-05
9.43206e-05
9.43206e-05
9.43206e-05
9.43206e-05
9.43206e-05
9.43206e-05
9.43206e-05
9.43206e-05
9.43206e-05
9.43206e-05
9.43206e-05
9.43206e-05
9.43206e-05
9.43206e-05
9.43206e-05
9.43206e-05
9.43206e-05
9.43206e-05
9.43206e-05
9.43206e-05
9.43206e-05
9.43206e-05
9.43206e-05
9.43206e-05
9.43206e-05
9.43206e-05
9.43206e-05
9.43206e-05
9.43206e-05
9.43206e-05
9.43206e-05
9.43206e-05
9.43206e-05
9.43206e-05
9.43206e-05
9.43206e-05
9.43206e-05
9.43206e-05
9.43206e-05
9.43206e-05
9.43206e-05
9.43206e-05
9.43206e-05
9.43206e-05
9.43206e-05
9.43206e-05
9.43206e-05
9.43206e-05
9.43206e-05
9.43206e-05
9.43206e-05
9.43206e-05
9.43206e-05
9.43206e-05
9.43206e-05
9.43206e-05
9.43206e-05
9.43206e-05
9.43206e-05
9.43206e-05
9.43206e-05
9.43206e-05
9.43206e-05
9.43206e-05
9.43206e-05
9.43206e-05
9.43206e-05
9.43206e-05
9.43206e-05
9.43206e-05
9.43206e-05
9.43206e-05
9.43206e-05
9.43206e-05
9.43206e-05
9.43206e-05
9.43206e-05
9.43206e-05
9.43206e-05
9.43206e-05
9.43206e-05
9.43206e-05
9.43206e-05
9.43206e-05
9.43206e-05
9.43206e-05
9.43206e-05
9.43206e-05
9.43206e-05
9.43206e-05
9.43206e-05
9.43206e-05
9.43206e-05
9.43206e-05
9.43206e-05
9.43206e-05
9.43206e-05
9.43206e-05
9.43206e-05
9.43206e-05
9.43206e-05
9.43206e-05
9.43206e-05
9.43206e-05
9.43206e-05
9.43206e-05
9.43206e-05
9.43206e-05
9.43206e-05
9.43206e-05
9.43206e-05
9.43206e-05
9.43206e-05
9.43206e-05
9.43206e-05
9.43206e-05
9.43206e-05
9.43206e-05
9.43206e-05
9.43206e-05
9.43206e-05
9.43206e-05
9.43206e-05
9.43206e-05
9.43206e-05
9.43206e-05
9.43206e-05
9.43206e-05
9.43206e-05
9.43206e-05
9.43206e-05
9.43206e-05
9.43206e-05
9.43206e-05
9.43206e-05
9.43206e-05
9.43206e-05
9.43206e-05
9.43206e-05
9.43206e-05
9.43206e-05
9.43206e-05
9.43206e-05
9.43206e-05
9.43206e-05
9.43206e-05
9.43206e-05
9.43206e-05
9.43206e-05
9.43206e-05
9.43206e-05
9.43206e-05
9.43206e-05
9.43206e-05
9.43206e-05
9.43206e-05
9.43206e-05
9.43206e-05
9.43206e-05
9.43206e-05
9.43206e-05
9.43206e-05
9.43206e-05
9.43206e-05
9.43206e-05
9.43206e-05
9.43206e-05
2.78149e-05
2.99222e-05
3.90813e-05
4.83977e-05
5.5659e-05
6.46132e-05
7.27506e-05
7.89091e-05
8.42975e-05
8.85244e-05
9.18921e-05
9.46133e-05
9.6982e-05
9.91249e-05
0.000101061
0.000102788
0.000104388
0.000105856
0.000107218
0.00010848
0.000109638
0.000110699
0.000111661
0.000112521
0.000113249
0.000113784
0.000114159
0.000114416
0.000114588
0.0001147
0.00011477
0.000114811
0.000114833
0.000114842
0.000114843
0.000114841
0.000114836
0.000114831
0.000114826
0.000114822
0.000114819
0.000114817
0.000114816
0.000114815
0.000114814
0.000114814
0.000114815
0.000114816
0.000114817
0.000114819
0.00011482
0.000114822
0.000114823
0.000114825
0.000114826
0.000114828
0.000114829
0.00011483
0.000114831
0.000114831
0.000114832
0.000114833
0.000114833
0.000114834
0.000114834
0.000114835
0.000114835
0.000114835
0.000114835
0.000114836
0.000114836
0.000114836
0.000114836
0.000114836
0.000114836
0.000114836
0.000114836
0.000114836
0.000114836
0.000114836
0.000114836
0.000114837
0.000114837
0.000114837
0.000114837
0.000114837
0.000114837
0.000114837
0.000114837
0.000114837
0.000114837
0.000114837
0.000114837
0.000114837
0.000114837
0.000114837
0.000114837
0.000114837
0.000114837
0.000114837
0.000114837
0.000114837
0.000114837
0.000114837
0.000114837
0.000114837
0.000114837
0.000114837
0.000114837
0.000114837
0.000114837
0.000114837
0.000114837
0.000114837
0.000114837
0.000114837
0.000114837
0.000114837
0.000114837
0.000114837
0.000114837
0.000114837
0.000114837
0.000114837
0.000114837
0.000114837
0.000114837
0.000114837
0.000114837
0.000114837
0.000114837
0.000114837
0.000114837
0.000114837
0.000114837
0.000114837
0.000114837
0.000114837
0.000114837
0.000114837
0.000114837
0.000114837
0.000114837
0.000114837
0.000114837
0.000114837
0.000114837
0.000114837
0.000114837
0.000114837
0.000114837
0.000114837
0.000114837
0.000114837
0.000114837
0.000114837
0.000114837
0.000114837
0.000114837
0.000114837
0.000114837
0.000114837
0.000114837
0.000114837
0.000114837
0.000114837
0.000114837
0.000114837
0.000114837
0.000114837
0.000114837
0.000114837
0.000114837
0.000114837
0.000114837
0.000114837
0.000114837
0.000114837
0.000114837
0.000114837
0.000114837
0.000114837
0.000114837
0.000114837
0.000114837
0.000114837
0.000114837
0.000114837
0.000114837
0.000114837
0.000114837
0.000114837
0.000114837
0.000114837
0.000114837
0.000114837
0.000114837
0.000114837
0.000114837
0.000114837
0.000114837
0.000114837
0.000114837
0.000114837
0.000114837
0.000114837
0.000114837
0.000114837
0.000114837
0.000114837
0.000114837
0.000114837
0.000114837
0.000114837
0.000114837
0.000114837
0.000114837
0.000114837
0.000114837
0.000114837
0.000114837
0.000114837
0.000114837
0.000114837
0.000114837
0.000114837
0.000114837
0.000114837
0.000114837
0.000114837
0.000114837
0.000114837
0.000114837
0.000114837
0.000114837
0.000114837
0.000114837
0.000114837
0.000114837
0.000114837
0.000114837
0.000114837
0.000114837
0.000114837
0.000114837
0.000114837
0.000114837
0.000114837
0.000114837
0.000114837
0.000114837
0.000114837
0.000114837
0.000114837
0.000114837
0.000114837
0.000114837
0.000114837
0.000114837
0.000114837
0.000114837
0.000114837
0.000114837
0.000114837
0.000114837
0.000114837
0.000114837
0.000114837
0.000114837
0.000114837
0.000114837
0.000114837
0.000114837
0.000114837
0.000114837
0.000114837
0.000114837
0.000114837
0.000114837
0.000114837
0.000114837
0.000114837
0.000114837
0.000114837
0.000114837
0.000114837
0.000114837
0.000114837
0.000114837
0.000114837
0.000114837
0.000114837
0.000114837
0.000114837
0.000114837
0.000114837
0.000114837
0.000114837
0.000114837
0.000114837
3.7775e-05
3.05095e-05
3.54203e-05
4.47548e-05
4.9859e-05
5.947e-05
6.83454e-05
7.65744e-05
8.43161e-05
9.06939e-05
9.65054e-05
0.000101168
0.000105561
0.000109042
0.000112176
0.000114781
0.000117169
0.000119354
0.000121366
0.000123217
0.000124904
0.000126437
0.000127818
0.000129049
0.000130097
0.000130891
0.000131475
0.000131898
0.000132201
0.000132416
0.000132568
0.000132674
0.000132748
0.0001328
0.000132835
0.000132861
0.00013288
0.000132895
0.000132907
0.000132918
0.000132928
0.000132937
0.000132945
0.000132952
0.000132959
0.000132965
0.000132972
0.000132978
0.000132984
0.000132989
0.000132995
0.000132999
0.000133004
0.000133008
0.000133011
0.000133015
0.000133017
0.00013302
0.000133022
0.000133024
0.000133026
0.000133027
0.000133029
0.00013303
0.000133031
0.000133032
0.000133032
0.000133033
0.000133033
0.000133034
0.000133034
0.000133035
0.000133035
0.000133035
0.000133035
0.000133036
0.000133036
0.000133036
0.000133036
0.000133036
0.000133036
0.000133036
0.000133036
0.000133036
0.000133036
0.000133036
0.000133037
0.000133037
0.000133037
0.000133037
0.000133037
0.000133037
0.000133037
0.000133037
0.000133037
0.000133037
0.000133037
0.000133037
0.000133037
0.000133037
0.000133037
0.000133037
0.000133037
0.000133037
0.000133037
0.000133037
0.000133037
0.000133037
0.000133037
0.000133037
0.000133037
0.000133037
0.000133037
0.000133037
0.000133037
0.000133037
0.000133037
0.000133037
0.000133037
0.000133037
0.000133037
0.000133037
0.000133037
0.000133037
0.000133037
0.000133037
0.000133037
0.000133037
0.000133037
0.000133037
0.000133037
0.000133037
0.000133037
0.000133037
0.000133037
0.000133037
0.000133037
0.000133037
0.000133037
0.000133037
0.000133037
0.000133037
0.000133037
0.000133037
0.000133037
0.000133037
0.000133037
0.000133037
0.000133037
0.000133037
0.000133037
0.000133037
0.000133037
0.000133037
0.000133037
0.000133037
0.000133037
0.000133037
0.000133037
0.000133037
0.000133037
0.000133037
0.000133037
0.000133037
0.000133037
0.000133037
0.000133037
0.000133037
0.000133037
0.000133037
0.000133037
0.000133037
0.000133037
0.000133037
0.000133037
0.000133037
0.000133037
0.000133037
0.000133037
0.000133037
0.000133037
0.000133037
0.000133037
0.000133037
0.000133037
0.000133037
0.000133037
0.000133037
0.000133037
0.000133037
0.000133037
0.000133037
0.000133037
0.000133037
0.000133037
0.000133037
0.000133037
0.000133037
0.000133037
0.000133037
0.000133037
0.000133037
0.000133037
0.000133037
0.000133037
0.000133037
0.000133037
0.000133037
0.000133037
0.000133037
0.000133037
0.000133037
0.000133037
0.000133037
0.000133037
0.000133037
0.000133037
0.000133037
0.000133037
0.000133037
0.000133037
0.000133037
0.000133037
0.000133037
0.000133037
0.000133037
0.000133037
0.000133037
0.000133037
0.000133037
0.000133037
0.000133037
0.000133037
0.000133037
0.000133037
0.000133037
0.000133037
0.000133037
0.000133037
0.000133037
0.000133037
0.000133037
0.000133037
0.000133037
0.000133037
0.000133037
0.000133037
0.000133037
0.000133037
0.000133037
0.000133037
0.000133037
0.000133037
0.000133037
0.000133037
0.000133037
0.000133037
0.000133037
0.000133037
0.000133037
0.000133037
0.000133037
0.000133037
0.000133037
0.000133037
0.000133037
0.000133037
0.000133037
0.000133037
0.000133037
0.000133037
0.000133037
0.000133037
0.000133037
0.000133037
0.000133037
0.000133037
0.000133037
0.000133037
0.000133037
0.000133037
0.000133037
0.000133037
0.000133037
0.000133037
0.000133037
0.000133037
0.000133037
0.000133037
0.000133037
0.000133037
0.000133037
0.000133037
0.000133037
0.000133037
0.000133037
0.000133037
0.000133037
0.000133037
0.000133037
5.84886e-05
3.67252e-05
3.4356e-05
3.93181e-05
4.76075e-05
5.51689e-05
6.1565e-05
7.02627e-05
7.90586e-05
8.70173e-05
9.47214e-05
0.000101217
0.000107412
0.000112532
0.000117338
0.00012131
0.000124973
0.000128509
0.000131487
0.00013428
0.000136598
0.000138703
0.000140602
0.000142311
0.000143811
0.000144979
0.000145876
0.000146561
0.000147085
0.000147485
0.000147793
0.000148031
0.000148216
0.000148361
0.000148477
0.000148571
0.000148648
0.000148713
0.000148768
0.000148815
0.000148857
0.000148893
0.000148925
0.000148953
0.000148977
0.000148999
0.000149019
0.000149037
0.000149053
0.000149067
0.00014908
0.000149092
0.000149102
0.000149111
0.000149119
0.000149126
0.000149133
0.000149138
0.000149143
0.000149147
0.000149151
0.000149154
0.000149157
0.000149159
0.000149161
0.000149163
0.000149165
0.000149166
0.000149167
0.000149168
0.000149169
0.00014917
0.00014917
0.000149171
0.000149171
0.000149172
0.000149172
0.000149173
0.000149173
0.000149173
0.000149173
0.000149173
0.000149174
0.000149174
0.000149174
0.000149174
0.000149174
0.000149174
0.000149174
0.000149174
0.000149174
0.000149174
0.000149174
0.000149174
0.000149175
0.000149175
0.000149175
0.000149175
0.000149175
0.000149175
0.000149175
0.000149175
0.000149175
0.000149175
0.000149175
0.000149175
0.000149175
0.000149175
0.000149175
0.000149175
0.000149175
0.000149175
0.000149175
0.000149175
0.000149175
0.000149175
0.000149175
0.000149175
0.000149175
0.000149175
0.000149175
0.000149175
0.000149175
0.000149175
0.000149175
0.000149175
0.000149175
0.000149175
0.000149175
0.000149175
0.000149175
0.000149175
0.000149175
0.000149175
0.000149175
0.000149175
0.000149175
0.000149175
0.000149175
0.000149175
0.000149175
0.000149175
0.000149175
0.000149175
0.000149175
0.000149175
0.000149175
0.000149175
0.000149175
0.000149175
0.000149175
0.000149175
0.000149175
0.000149175
0.000149175
0.000149175
0.000149175
0.000149175
0.000149175
0.000149175
0.000149175
0.000149175
0.000149175
0.000149175
0.000149175
0.000149175
0.000149175
0.000149175
0.000149175
0.000149175
0.000149175
0.000149175
0.000149175
0.000149175
0.000149175
0.000149175
0.000149175
0.000149175
0.000149175
0.000149175
0.000149175
0.000149175
0.000149175
0.000149175
0.000149175
0.000149175
0.000149175
0.000149175
0.000149175
0.000149175
0.000149175
0.000149175
0.000149175
0.000149175
0.000149175
0.000149175
0.000149175
0.000149175
0.000149175
0.000149175
0.000149175
0.000149175
0.000149175
0.000149175
0.000149175
0.000149175
0.000149175
0.000149175
0.000149175
0.000149175
0.000149175
0.000149175
0.000149175
0.000149175
0.000149175
0.000149175
0.000149175
0.000149175
0.000149175
0.000149175
0.000149175
0.000149175
0.000149175
0.000149175
0.000149175
0.000149175
0.000149175
0.000149175
0.000149175
0.000149175
0.000149175
0.000149175
0.000149175
0.000149175
0.000149175
0.000149175
0.000149175
0.000149175
0.000149175
0.000149175
0.000149175
0.000149175
0.000149175
0.000149175
0.000149175
0.000149175
0.000149175
0.000149175
0.000149175
0.000149175
0.000149175
0.000149175
0.000149175
0.000149175
0.000149175
0.000149175
0.000149175
0.000149175
0.000149175
0.000149175
0.000149175
0.000149175
0.000149175
0.000149175
0.000149175
0.000149175
0.000149175
0.000149175
0.000149175
0.000149175
0.000149175
0.000149175
0.000149175
0.000149175
0.000149175
0.000149175
0.000149175
0.000149175
0.000149175
0.000149175
0.000149175
0.000149175
0.000149175
0.000149175
0.000149175
0.000149175
0.000149175
0.000149175
0.000149175
0.000149175
0.000149175
0.000149175
0.000149175
0.000149175
0.000149175
0.000149175
0.000149175
0.000149175
0.000149175
0.000149175
9.97626e-05
5.19378e-05
4.035e-05
3.86722e-05
4.32978e-05
5.16438e-05
5.63792e-05
6.43272e-05
7.17788e-05
8.0076e-05
8.86685e-05
9.64438e-05
0.000104056
0.000110722
0.000117062
0.000122473
0.000127405
0.000132087
0.000136137
0.000139913
0.00014315
0.000145939
0.000148447
0.000151057
0.000154504
0.000156163
0.000157482
0.000158535
0.000159377
0.000160055
0.000160603
0.00016105
0.000161415
0.000161716
0.000161966
0.000162176
0.000162353
0.000162503
0.000162633
0.000162744
0.000162841
0.000162925
0.000162998
0.000163061
0.000163115
0.000163163
0.000163206
0.000163243
0.000163276
0.000163306
0.000163332
0.000163354
0.000163374
0.000163392
0.000163407
0.000163421
0.000163432
0.000163443
0.000163451
0.000163459
0.000163466
0.000163472
0.000163477
0.000163481
0.000163485
0.000163489
0.000163491
0.000163494
0.000163496
0.000163498
0.000163499
0.000163501
0.000163502
0.000163503
0.000163504
0.000163505
0.000163505
0.000163506
0.000163507
0.000163507
0.000163507
0.000163508
0.000163508
0.000163508
0.000163508
0.000163508
0.000163509
0.000163509
0.000163509
0.000163509
0.000163509
0.000163509
0.000163509
0.000163509
0.000163509
0.000163509
0.000163509
0.000163509
0.000163509
0.000163509
0.000163509
0.000163509
0.000163509
0.000163509
0.000163509
0.000163509
0.000163509
0.000163509
0.000163509
0.000163509
0.000163509
0.000163509
0.000163509
0.000163509
0.000163509
0.000163509
0.000163509
0.000163509
0.000163509
0.000163509
0.000163509
0.000163509
0.000163509
0.000163509
0.000163509
0.000163509
0.000163509
0.000163509
0.000163509
0.000163509
0.000163509
0.000163509
0.000163509
0.000163509
0.000163509
0.000163509
0.000163509
0.000163509
0.000163509
0.000163509
0.000163509
0.000163509
0.000163509
0.000163509
0.000163509
0.000163509
0.000163509
0.000163509
0.000163509
0.000163509
0.000163509
0.000163509
0.000163509
0.000163509
0.000163509
0.000163509
0.000163509
0.000163509
0.000163509
0.000163509
0.000163509
0.000163509
0.000163509
0.000163509
0.000163509
0.000163509
0.000163509
0.000163509
0.000163509
0.000163509
0.000163509
0.000163509
0.000163509
0.000163509
0.000163509
0.000163509
0.000163509
0.000163509
0.000163509
0.000163509
0.000163509
0.000163509
0.000163509
0.000163509
0.000163509
0.000163509
0.000163509
0.000163509
0.000163509
0.000163509
0.000163509
0.000163509
0.000163509
0.000163509
0.000163509
0.000163509
0.000163509
0.000163509
0.000163509
0.000163509
0.000163509
0.000163509
0.000163509
0.000163509
0.000163509
0.000163509
0.000163509
0.000163509
0.000163509
0.000163509
0.000163509
0.000163509
0.000163509
0.000163509
0.000163509
0.000163509
0.000163509
0.000163509
0.000163509
0.000163509
0.000163509
0.000163509
0.000163509
0.000163509
0.000163509
0.000163509
0.000163509
0.000163509
0.000163509
0.000163509
0.000163509
0.000163509
0.000163509
0.000163509
0.000163509
0.000163509
0.000163509
0.000163509
0.000163509
0.000163509
0.000163509
0.000163509
0.000163509
0.000163509
0.000163509
0.000163509
0.000163509
0.000163509
0.000163509
0.000163509
0.000163509
0.000163509
0.000163509
0.000163509
0.000163509
0.000163509
0.000163509
0.000163509
0.000163509
0.000163509
0.000163509
0.000163509
0.000163509
0.000163509
0.000163509
0.000163509
0.000163509
0.000163509
0.000163509
0.000163509
0.000163509
0.000163509
0.000163509
0.000163509
0.000163509
0.000163509
0.000163509
0.000163509
0.000163509
0.000163509
0.000163509
0.000163509
0.000163509
0.000163509
0.000163509
0.000163509
0.000163509
0.000163509
0.000163509
0.000163509
0.000163509
0.000163509
0.000163509
0.000163509
0.000163509
0.000163509
0.000163509
0.000163509
0.000163509
0.000163509
0.000164553
8.33227e-05
5.5772e-05
4.54243e-05
4.30764e-05
4.70096e-05
5.45632e-05
6.16243e-05
6.61449e-05
7.34022e-05
8.10115e-05
8.89331e-05
9.7223e-05
0.000104939
0.000112405
0.000119207
0.00012546
0.000131047
0.000136127
0.000140932
0.000145117
0.000148871
0.00015268
0.000157262
0.000162387
0.000164631
0.000166475
0.000167998
0.00016926
0.000170311
0.000171189
0.000171926
0.000172545
0.000173067
0.000173509