/*--------------------------------*- C++ -*----------------------------------*\
| =========                 |                                                 |
| \\      /  F ield         | foam-extend: Open Source CFD                    |
|  \\    /   O peration     | Version:     3.2                                |
|   \\  /    A nd           | Web:         http://www.foam-extend.org         |
|    \\/     M anipulation  | For copyright notice see file Copyright         |
\*---------------------------------------------------------------------------*/
FoamFile
{
    version     2.0;
    format      ascii;
    class       volScalarField;
    location    "60";
    object      k;
}
// * * * * * * * * * * * * * * * * * * * * * * * * * * * * * * * * * * * * * //

dimensions      [0 2 -2 0 0 0 0];

internalField   nonuniform List<scalar> 
5400
(
0.0191515
0.0121227
0.00894761
0.00902527
0.00869726
0.00873793
0.00859965
0.00860212
0.00854928
0.00857243
0.00857361
0.00860993
0.00863978
0.00869179
0.00873694
0.00879976
0.00885886
0.00892714
0.00899327
0.0090679
0.00914444
0.00922324
0.00930338
0.00938457
0.00946628
0.00954456
0.00961339
0.00967202
0.00972136
0.00976278
0.00979743
0.00982641
0.00985057
0.00987072
0.00988752
0.00990155
0.00991328
0.00992312
0.00993139
0.00993837
0.00994426
0.00994931
0.00995365
0.00995731
0.00996037
0.00996294
0.00996519
0.00996708
0.00996874
0.00997017
0.00997142
0.0099725
0.00997345
0.00997427
0.00997499
0.00997561
0.00997614
0.00997661
0.00997702
0.00997737
0.00997767
0.00997793
0.00997817
0.00997836
0.00997854
0.00997868
0.00997882
0.00997893
0.00997902
0.00997911
0.00997918
0.00997924
0.0099793
0.00997934
0.00997938
0.00997942
0.00997945
0.00997947
0.00997949
0.00997952
0.00997953
0.00997954
0.00997956
0.00997957
0.00997958
0.00997958
0.00997959
0.00997959
0.0099796
0.00997961
0.00997961
0.00997961
0.00997962
0.00997962
0.00997962
0.00997962
0.00997963
0.00997963
0.00997963
0.00997963
0.00997963
0.00997963
0.00997963
0.00997963
0.00997963
0.00997963
0.00997963
0.00997963
0.00997963
0.00997963
0.00997963
0.00997963
0.00997964
0.00997964
0.00997963
0.00997964
0.00997964
0.00997964
0.00997964
0.00997964
0.00997964
0.00997964
0.00997964
0.00997964
0.00997964
0.00997964
0.00997964
0.00997964
0.00997964
0.00997964
0.00997964
0.00997964
0.00997964
0.00997964
0.00997964
0.00997964
0.00997964
0.00997964
0.00997964
0.00997964
0.00997964
0.00997964
0.00997964
0.00997964
0.00997964
0.00997964
0.00997964
0.00997964
0.00997964
0.00997964
0.00997964
0.00997964
0.00997964
0.00997964
0.00997964
0.00997964
0.00997964
0.00997964
0.00997964
0.00997964
0.00997964
0.00997964
0.00997964
0.00997964
0.00997964
0.00997964
0.00997964
0.00997964
0.00997964
0.00997964
0.00997964
0.00997964
0.00997964
0.00997964
0.00997964
0.00997964
0.00997964
0.00997964
0.00997964
0.00997964
0.00997964
0.00997964
0.00997964
0.00997964
0.00997964
0.00997964
0.00997964
0.00997964
0.00997964
0.00997964
0.00997964
0.00997964
0.00997964
0.00997964
0.00997964
0.00997964
0.00997964
0.00997964
0.00997964
0.00997964
0.00997964
0.00997964
0.00997964
0.00997964
0.00997964
0.00997964
0.00997964
0.00997964
0.00997964
0.00997964
0.00997964
0.00997964
0.00997964
0.00997964
0.00997964
0.00997964
0.00997964
0.00997964
0.00997964
0.00997964
0.00997964
0.00997964
0.00997964
0.00997964
0.00997964
0.00997964
0.00997964
0.00997964
0.00997964
0.00997964
0.00997964
0.00997964
0.00997964
0.00997964
0.00997964
0.00997964
0.00997964
0.00997964
0.00997964
0.00997964
0.00997964
0.00997964
0.00997964
0.00997964
0.00997964
0.00997964
0.00997964
0.00997964
0.00997964
0.00997964
0.00997964
0.00997964
0.00997964
0.00997964
0.00997964
0.00997964
0.00997964
0.00997964
0.00997964
0.00997964
0.00997964
0.00997964
0.00997964
0.00997964
0.00997964
0.00997964
0.00997964
0.00997964
0.00997964
0.00997964
0.00997964
0.00997964
0.00997964
0.00997964
0.00997964
0.00997964
0.00997964
0.00997964
0.00997964
0.00997964
0.00997964
0.00997964
0.00997964
0.00997964
0.00997964
0.00997964
0.00997964
0.00997964
0.00997964
0.00997964
0.00997964
0.00997964
0.00997964
0.00997964
0.00997964
0.00997964
0.00997964
0.00997964
0.00997965
0.00997963
0.00725074
0.00881973
0.00850441
0.00862817
0.00845267
0.00846764
0.00839096
0.00840274
0.0083832
0.00841518
0.00843592
0.0084801
0.00852582
0.00857944
0.00863775
0.00870229
0.00876807
0.00883999
0.00891137
0.00898685
0.00906393
0.00914216
0.00922082
0.00929923
0.0093769
0.00944737
0.00950773
0.00955843
0.00960075
0.00963605
0.00966544
0.00968992
0.00971027
0.0097272
0.0097413
0.00975306
0.0097629
0.00977116
0.00977811
0.00978399
0.00978896
0.0097932
0.00979684
0.00979996
0.00980258
0.00980479
0.00980667
0.00980828
0.0098097
0.00981093
0.009812
0.00981293
0.00981375
0.00981445
0.00981506
0.00981559
0.00981605
0.00981645
0.0098168
0.00981711
0.00981737
0.0098176
0.0098178
0.00981797
0.00981812
0.00981824
0.00981836
0.00981845
0.00981854
0.00981861
0.00981867
0.00981872
0.00981877
0.00981881
0.00981885
0.00981888
0.0098189
0.00981893
0.00981894
0.00981896
0.00981898
0.00981899
0.009819
0.00981901
0.00981902
0.00981902
0.00981903
0.00981903
0.00981904
0.00981904
0.00981905
0.00981905
0.00981905
0.00981905
0.00981905
0.00981906
0.00981906
0.00981906
0.00981906
0.00981906
0.00981906
0.00981906
0.00981906
0.00981906
0.00981906
0.00981906
0.00981906
0.00981906
0.00981906
0.00981906
0.00981907
0.00981907
0.00981907
0.00981907
0.00981907
0.00981907
0.00981907
0.00981907
0.00981907
0.00981907
0.00981907
0.00981907
0.00981907
0.00981907
0.00981907
0.00981907
0.00981907
0.00981907
0.00981907
0.00981907
0.00981907
0.00981907
0.00981907
0.00981907
0.00981907
0.00981907
0.00981907
0.00981907
0.00981907
0.00981907
0.00981907
0.00981907
0.00981907
0.00981907
0.00981907
0.00981907
0.00981907
0.00981907
0.00981907
0.00981907
0.00981907
0.00981907
0.00981907
0.00981907
0.00981907
0.00981907
0.00981907
0.00981907
0.00981907
0.00981907
0.00981907
0.00981907
0.00981907
0.00981907
0.00981907
0.00981907
0.00981907
0.00981907
0.00981907
0.00981907
0.00981907
0.00981907
0.00981907
0.00981907
0.00981907
0.00981907
0.00981907
0.00981907
0.00981907
0.00981907
0.00981907
0.00981907
0.00981907
0.00981907
0.00981907
0.00981907
0.00981907
0.00981907
0.00981907
0.00981907
0.00981907
0.00981907
0.00981907
0.00981907
0.00981907
0.00981907
0.00981907
0.00981907
0.00981907
0.00981907
0.00981907
0.00981907
0.00981907
0.00981907
0.00981907
0.00981907
0.00981907
0.00981907
0.00981907
0.00981907
0.00981907
0.00981907
0.00981907
0.00981907
0.00981907
0.00981907
0.00981907
0.00981907
0.00981907
0.00981907
0.00981907
0.00981907
0.00981907
0.00981907
0.00981907
0.00981907
0.00981907
0.00981907
0.00981907
0.00981907
0.00981907
0.00981907
0.00981907
0.00981907
0.00981907
0.00981907
0.00981907
0.00981907
0.00981907
0.00981907
0.00981907
0.00981907
0.00981907
0.00981907
0.00981907
0.00981907
0.00981907
0.00981907
0.00981907
0.00981907
0.00981907
0.00981907
0.00981907
0.00981907
0.00981907
0.00981907
0.00981907
0.00981907
0.00981907
0.00981907
0.00981907
0.00981907
0.00981907
0.00981907
0.00981907
0.00981907
0.00981907
0.00981907
0.00981907
0.00981907
0.00981907
0.00981907
0.00981907
0.00981907
0.00981907
0.00981907
0.00981907
0.00981907
0.00981907
0.00981907
0.00981907
0.00981907
0.00981907
0.00981907
0.00981907
0.00981907
0.00981907
0.00981907
0.00981907
0.00981907
0.00981907
0.00981907
0.00981907
0.00981907
0.00981907
0.00981907
0.00981907
0.00981907
0.00981906
0.00981907
0.00341225
0.00558926
0.00667996
0.0072064
0.00729271
0.00743528
0.00745111
0.0075189
0.00754818
0.00761072
0.00765425
0.00771732
0.00777739
0.00784083
0.00790933
0.00797715
0.00804756
0.00812122
0.00819448
0.00826904
0.00834374
0.00841822
0.00849185
0.0085639
0.00863305
0.00869154
0.00873903
0.00877746
0.00880866
0.00883407
0.00885482
0.00887178
0.00888568
0.00889708
0.00890648
0.00891426
0.00892074
0.00892616
0.00893073
0.00893459
0.00893787
0.00894067
0.00894309
0.00894516
0.00894693
0.00894842
0.00894969
0.00895082
0.00895179
0.00895265
0.00895339
0.00895405
0.00895462
0.00895513
0.00895556
0.00895594
0.00895627
0.00895655
0.0089568
0.00895702
0.00895721
0.00895737
0.00895751
0.00895764
0.00895774
0.00895783
0.00895791
0.00895798
0.00895804
0.00895809
0.00895814
0.00895817
0.00895821
0.00895824
0.00895826
0.00895828
0.0089583
0.00895832
0.00895833
0.00895834
0.00895835
0.00895836
0.00895837
0.00895838
0.00895838
0.00895839
0.00895839
0.00895839
0.0089584
0.0089584
0.0089584
0.0089584
0.00895841
0.00895841
0.00895841
0.00895841
0.00895841
0.00895841
0.00895842
0.00895842
0.00895842
0.00895842
0.00895842
0.00895842
0.00895842
0.00895842
0.00895842
0.00895842
0.00895842
0.00895842
0.00895842
0.00895842
0.00895842
0.00895842
0.00895842
0.00895842
0.00895842
0.00895842
0.00895842
0.00895842
0.00895842
0.00895842
0.00895842
0.00895842
0.00895842
0.00895842
0.00895842
0.00895842
0.00895842
0.00895842
0.00895842
0.00895842
0.00895842
0.00895842
0.00895842
0.00895842
0.00895842
0.00895842
0.00895842
0.00895842
0.00895842
0.00895842
0.00895842
0.00895842
0.00895842
0.00895842
0.00895842
0.00895842
0.00895842
0.00895842
0.00895842
0.00895842
0.00895842
0.00895842
0.00895842
0.00895842
0.00895842
0.00895842
0.00895842
0.00895842
0.00895842
0.00895842
0.00895842
0.00895842
0.00895842
0.00895842
0.00895842
0.00895842
0.00895842
0.00895842
0.00895842
0.00895842
0.00895842
0.00895842
0.00895842
0.00895842
0.00895842
0.00895842
0.00895842
0.00895842
0.00895842
0.00895842
0.00895842
0.00895842
0.00895842
0.00895842
0.00895842
0.00895842
0.00895842
0.00895842
0.00895842
0.00895842
0.00895842
0.00895842
0.00895842
0.00895842
0.00895842
0.00895842
0.00895842
0.00895842
0.00895842
0.00895842
0.00895842
0.00895842
0.00895842
0.00895842
0.00895842
0.00895842
0.00895842
0.00895842
0.00895842
0.00895842
0.00895842
0.00895842
0.00895842
0.00895842
0.00895842
0.00895842
0.00895842
0.00895842
0.00895842
0.00895842
0.00895842
0.00895842
0.00895842
0.00895842
0.00895842
0.00895842
0.00895842
0.00895842
0.00895842
0.00895842
0.00895842
0.00895842
0.00895842
0.00895842
0.00895842
0.00895842
0.00895842
0.00895842
0.00895842
0.00895842
0.00895842
0.00895842
0.00895842
0.00895842
0.00895842
0.00895842
0.00895842
0.00895842
0.00895842
0.00895842
0.00895842
0.00895842
0.00895842
0.00895842
0.00895842
0.00895842
0.00895842
0.00895842
0.00895842
0.00895842
0.00895842
0.00895842
0.00895842
0.00895842
0.00895842
0.00895842
0.00895842
0.00895842
0.00895842
0.00895842
0.00895842
0.00895842
0.00895842
0.00895842
0.00895842
0.00895842
0.00895842
0.00895842
0.00895842
0.00895842
0.00895842
0.00895842
0.00895842
0.00895842
0.00895842
0.00895842
0.00895842
0.00895842
0.00895842
0.00895842
0.00895842
0.00895842
0.00895842
0.00895842
0.00895842
0.00895842
0.00895841
0.00895842
0.00185335
0.00325211
0.00471358
0.005591
0.00607555
0.00640126
0.00656111
0.00670259
0.00679212
0.00689149
0.00696615
0.00705204
0.00712892
0.00720852
0.00728843
0.00736345
0.00744092
0.00751868
0.00759555
0.00767152
0.00774599
0.00781881
0.00788926
0.00795654
0.00801808
0.00806585
0.00810176
0.00812893
0.0081497
0.00816567
0.00817802
0.00818759
0.00819506
0.0082009
0.00820553
0.00820923
0.00821226
0.00821474
0.00821683
0.00821859
0.0082201
0.0082214
0.00822253
0.00822352
0.00822437
0.0082251
0.00822574
0.00822632
0.00822683
0.00822729
0.0082277
0.00822807
0.00822839
0.00822868
0.00822892
0.00822914
0.00822933
0.0082295
0.00822965
0.00822977
0.00822988
0.00822998
0.00823007
0.00823014
0.0082302
0.00823026
0.0082303
0.00823034
0.00823038
0.0082304
0.00823043
0.00823045
0.00823047
0.00823049
0.00823051
0.00823052
0.00823053
0.00823054
0.00823055
0.00823055
0.00823056
0.00823057
0.00823057
0.00823057
0.00823058
0.00823058
0.00823058
0.00823059
0.00823059
0.00823059
0.00823059
0.00823059
0.00823059
0.00823059
0.00823059
0.0082306
0.0082306
0.0082306
0.0082306
0.0082306
0.0082306
0.0082306
0.0082306
0.0082306
0.0082306
0.0082306
0.0082306
0.0082306
0.0082306
0.0082306
0.0082306
0.0082306
0.0082306
0.0082306
0.0082306
0.0082306
0.0082306
0.0082306
0.0082306
0.0082306
0.0082306
0.0082306
0.0082306
0.0082306
0.0082306
0.0082306
0.0082306
0.0082306
0.0082306
0.0082306
0.0082306
0.00823059
0.00823059
0.00823059
0.00823059
0.00823059
0.00823059
0.00823059
0.00823059
0.00823059
0.00823059
0.00823059
0.00823059
0.00823059
0.00823059
0.00823059
0.00823059
0.00823059
0.00823059
0.00823059
0.00823059
0.00823059
0.00823059
0.00823059
0.00823059
0.00823059
0.00823059
0.00823059
0.00823059
0.00823059
0.00823059
0.00823059
0.00823059
0.00823059
0.00823059
0.00823059
0.00823059
0.00823059
0.00823059
0.00823059
0.00823059
0.00823059
0.00823059
0.00823059
0.00823059
0.00823059
0.00823059
0.00823059
0.00823059
0.00823059
0.00823059
0.00823059
0.00823059
0.00823059
0.00823059
0.00823059
0.00823059
0.00823059
0.00823059
0.00823059
0.00823059
0.00823059
0.00823059
0.00823059
0.00823059
0.00823059
0.00823059
0.00823059
0.00823059
0.00823059
0.00823059
0.00823059
0.00823059
0.00823059
0.00823059
0.00823059
0.00823059
0.00823059
0.00823059
0.00823059
0.00823059
0.00823059
0.00823059
0.00823059
0.00823059
0.00823059
0.00823059
0.00823059
0.00823059
0.00823059
0.00823059
0.00823059
0.00823059
0.00823059
0.00823059
0.00823059
0.00823059
0.00823059
0.00823059
0.00823059
0.00823059
0.00823059
0.00823059
0.00823059
0.00823059
0.00823059
0.00823059
0.00823059
0.00823059
0.00823059
0.00823059
0.00823059
0.00823059
0.00823059
0.00823059
0.00823059
0.00823059
0.00823059
0.00823059
0.00823059
0.00823059
0.00823059
0.00823059
0.00823059
0.00823059
0.00823059
0.00823059
0.00823059
0.00823059
0.00823059
0.00823059
0.00823059
0.00823059
0.00823059
0.00823059
0.00823059
0.00823059
0.00823059
0.00823059
0.00823059
0.00823059
0.00823059
0.00823059
0.00823059
0.00823059
0.00823059
0.00823059
0.00823059
0.00823059
0.00823059
0.00823059
0.00823059
0.00823059
0.00823059
0.00823059
0.00823059
0.00823059
0.00823059
0.00823059
0.00823059
0.00823059
0.00823059
0.00823059
0.00823059
0.00823059
0.00823059
0.00823059
0.00823059
0.00823059
0.00823059
0.00116958
0.00192188
0.0030406
0.00396866
0.00477123
0.00530576
0.00564442
0.0058942
0.00606567
0.00621646
0.00633107
0.00644397
0.00654059
0.00663868
0.00673151
0.00681716
0.00690352
0.00698703
0.0070687
0.00714746
0.00722308
0.0072955
0.00736375
0.00742678
0.00748061
0.00751827
0.00754366
0.00756067
0.00757196
0.00757928
0.00758386
0.00758654
0.00758795
0.00758854
0.00758862
0.00758843
0.00758813
0.00758778
0.00758746
0.00758718
0.00758697
0.00758681
0.0075867
0.00758663
0.00758658
0.00758656
0.00758657
0.00758662
0.00758669
0.00758676
0.00758685
0.00758693
0.00758701
0.0075871
0.00758716
0.00758723
0.00758729
0.00758734
0.00758739
0.00758743
0.00758747
0.0075875
0.00758753
0.00758756
0.00758758
0.0075876
0.00758761
0.00758762
0.00758764
0.00758765
0.00758766
0.00758767
0.00758767
0.00758768
0.00758769
0.00758769
0.0075877
0.0075877
0.0075877
0.0075877
0.00758771
0.00758771
0.00758771
0.00758771
0.00758771
0.00758772
0.00758772
0.00758772
0.00758772
0.00758772
0.00758772
0.00758772
0.00758772
0.00758772
0.00758772
0.00758772
0.00758772
0.00758772
0.00758772
0.00758772
0.00758772
0.00758772
0.00758772
0.00758772
0.00758772
0.00758772
0.00758772
0.00758772
0.00758772
0.00758772
0.00758772
0.00758772
0.00758772
0.00758772
0.00758772
0.00758772
0.00758772
0.00758772
0.00758772
0.00758772
0.00758772
0.00758772
0.00758772
0.00758772
0.00758772
0.00758772
0.00758772
0.00758772
0.00758772
0.00758772
0.00758772
0.00758772
0.00758772
0.00758772
0.00758772
0.00758772
0.00758772
0.00758772
0.00758772
0.00758772
0.00758772
0.00758772
0.00758772
0.00758772
0.00758772
0.00758772
0.00758772
0.00758772
0.00758772
0.00758772
0.00758772
0.00758772
0.00758772
0.00758772
0.00758772
0.00758772
0.00758772
0.00758772
0.00758772
0.00758772
0.00758772
0.00758772
0.00758772
0.00758772
0.00758772
0.00758772
0.00758772
0.00758772
0.00758772
0.00758772
0.00758772
0.00758772
0.00758772
0.00758772
0.00758772
0.00758772
0.00758772
0.00758772
0.00758772
0.00758772
0.00758772
0.00758772
0.00758772
0.00758772
0.00758772
0.00758772
0.00758772
0.00758772
0.00758772
0.00758772
0.00758772
0.00758772
0.00758772
0.00758772
0.00758772
0.00758772
0.00758772
0.00758772
0.00758772
0.00758772
0.00758772
0.00758772
0.00758772
0.00758772
0.00758772
0.00758772
0.00758772
0.00758772
0.00758772
0.00758772
0.00758772
0.00758772
0.00758772
0.00758772
0.00758772
0.00758772
0.00758772
0.00758772
0.00758772
0.00758772
0.00758772
0.00758772
0.00758772
0.00758772
0.00758772
0.00758772
0.00758772
0.00758772
0.00758772
0.00758772
0.00758772
0.00758772
0.00758772
0.00758772
0.00758772
0.00758772
0.00758772
0.00758772
0.00758772
0.00758772
0.00758772
0.00758772
0.00758772
0.00758772
0.00758772
0.00758772
0.00758772
0.00758772
0.00758772
0.00758772
0.00758772
0.00758772
0.00758772
0.00758772
0.00758772
0.00758772
0.00758772
0.00758772
0.00758772
0.00758772
0.00758772
0.00758772
0.00758772
0.00758772
0.00758772
0.00758772
0.00758772
0.00758772
0.00758772
0.00758772
0.00758772
0.00758772
0.00758772
0.00758772
0.00758772
0.00758772
0.00758772
0.00758772
0.00758772
0.00758772
0.00758772
0.00758772
0.00758772
0.00758772
0.00758772
0.00758772
0.00758772
0.00758772
0.00758772
0.00758772
0.00758772
0.00758772
0.00758772
0.00758772
0.00758772
0.00758772
0.00758772
0.00758772
0.00758771
0.00758771
0.000887699
0.00124474
0.00188864
0.00264163
0.00346986
0.00412807
0.00465479
0.00503786
0.00531301
0.00553366
0.0057024
0.00585283
0.00597849
0.00609842
0.00620721
0.00630718
0.00640374
0.00649418
0.00658173
0.00666417
0.00674197
0.00681478
0.00688125
0.00693971
0.00698498
0.00701313
0.0070293
0.00703758
0.00704071
0.00704053
0.00703833
0.00703496
0.00703104
0.00702696
0.00702301
0.00701933
0.00701603
0.00701313
0.00701064
0.00700852
0.00700674
0.00700526
0.00700402
0.00700298
0.00700212
0.00700142
0.00700086
0.00700042
0.00700008
0.00699981
0.0069996
0.00699943
0.0069993
0.00699919
0.0069991
0.00699903
0.00699897
0.00699892
0.00699888
0.00699885
0.00699883
0.00699881
0.00699879
0.00699877
0.00699876
0.00699875
0.00699873
0.00699873
0.00699872
0.00699871
0.00699871
0.0069987
0.0069987
0.0069987
0.0069987
0.00699869
0.00699869
0.00699869
0.00699869
0.00699868
0.00699868
0.00699868
0.00699868
0.00699868
0.00699868
0.00699868
0.00699868
0.00699868
0.00699868
0.00699868
0.00699868
0.00699868
0.00699868
0.00699868
0.00699868
0.00699868
0.00699868
0.00699868
0.00699868
0.00699868
0.00699868
0.00699868
0.00699868
0.00699868
0.00699868
0.00699868
0.00699868
0.00699868
0.00699868
0.00699868
0.00699868
0.00699868
0.00699868
0.00699867
0.00699867
0.00699867
0.00699867
0.00699867
0.00699867
0.00699867
0.00699867
0.00699867
0.00699867
0.00699867
0.00699867
0.00699867
0.00699867
0.00699867
0.00699867
0.00699867
0.00699867
0.00699867
0.00699867
0.00699867
0.00699867
0.00699867
0.00699867
0.00699867
0.00699867
0.00699867
0.00699867
0.00699867
0.00699867
0.00699867
0.00699867
0.00699867
0.00699867
0.00699867
0.00699867
0.00699867
0.00699867
0.00699867
0.00699867
0.00699867
0.00699867
0.00699867
0.00699867
0.00699867
0.00699867
0.00699867
0.00699867
0.00699867
0.00699867
0.00699867
0.00699867
0.00699867
0.00699867
0.00699867
0.00699867
0.00699867
0.00699867
0.00699867
0.00699867
0.00699867
0.00699867
0.00699867
0.00699867
0.00699867
0.00699867
0.00699867
0.00699867
0.00699867
0.00699867
0.00699867
0.00699867
0.00699867
0.00699867
0.00699867
0.00699867
0.00699867
0.00699867
0.00699867
0.00699867
0.00699867
0.00699867
0.00699867
0.00699867
0.00699867
0.00699867
0.00699867
0.00699867
0.00699867
0.00699867
0.00699867
0.00699867
0.00699867
0.00699867
0.00699867
0.00699867
0.00699867
0.00699867
0.00699867
0.00699867
0.00699867
0.00699867
0.00699867
0.00699867
0.00699867
0.00699867
0.00699867
0.00699867
0.00699867
0.00699867
0.00699867
0.00699867
0.00699867
0.00699867
0.00699867
0.00699867
0.00699867
0.00699867
0.00699867
0.00699867
0.00699867
0.00699867
0.00699867
0.00699867
0.00699867
0.00699867
0.00699867
0.00699867
0.00699867
0.00699867
0.00699867
0.00699867
0.00699867
0.00699867
0.00699867
0.00699867
0.00699867
0.00699867
0.00699867
0.00699867
0.00699867
0.00699867
0.00699867
0.00699867
0.00699867
0.00699867
0.00699867
0.00699867
0.00699867
0.00699867
0.00699867
0.00699867
0.00699867
0.00699867
0.00699867
0.00699867
0.00699867
0.00699867
0.00699867
0.00699867
0.00699867
0.00699867
0.00699867
0.00699867
0.00699867
0.00699867
0.00699867
0.00699867
0.00699867
0.00699867
0.00699867
0.00699867
0.00699867
0.00699867
0.00699867
0.00699867
0.00699867
0.00699867
0.00699867
0.00699867
0.00699867
0.00699867
0.00699867
0.00699867
0.00699867
0.00699867
0.00699867
0.000775579
0.000912403
0.00122025
0.00171706
0.00238997
0.00301776
0.00362331
0.00410892
0.00450147
0.00480909
0.00504763
0.00524831
0.00541327
0.00556186
0.00569242
0.00581123
0.0059213
0.00602212
0.00611753
0.00620531
0.00628608
0.00635969
0.00642415
0.00647697
0.00651233
0.00653219
0.00654098
0.00654239
0.00653912
0.00653303
0.00652545
0.00651727
0.00650909
0.00650128
0.00649407
0.00648758
0.00648187
0.00647689
0.00647264
0.00646902
0.00646596
0.0064634
0.00646124
0.00645941
0.00645788
0.00645662
0.00645559
0.00645477
0.00645409
0.00645354
0.00645309
0.00645272
0.00645241
0.00645215
0.00645194
0.00645176
0.00645161
0.00645148
0.00645137
0.00645129
0.00645121
0.00645114
0.00645109
0.00645104
0.006451
0.00645096
0.00645093
0.0064509
0.00645088
0.00645086
0.00645085
0.00645083
0.00645082
0.00645081
0.0064508
0.00645079
0.00645078
0.00645078
0.00645077
0.00645076
0.00645076
0.00645076
0.00645076
0.00645075
0.00645075
0.00645075
0.00645075
0.00645074
0.00645074
0.00645074
0.00645074
0.00645074
0.00645074
0.00645074
0.00645074
0.00645074
0.00645074
0.00645074
0.00645074
0.00645074
0.00645074
0.00645074
0.00645073
0.00645073
0.00645073
0.00645073
0.00645073
0.00645073
0.00645073
0.00645073
0.00645073
0.00645073
0.00645073
0.00645073
0.00645073
0.00645073
0.00645073
0.00645073
0.00645073
0.00645073
0.00645073
0.00645073
0.00645073
0.00645073
0.00645073
0.00645073
0.00645073
0.00645073
0.00645073
0.00645073
0.00645073
0.00645073
0.00645073
0.00645073
0.00645073
0.00645073
0.00645073
0.00645073
0.00645073
0.00645073
0.00645073
0.00645073
0.00645073
0.00645073
0.00645073
0.00645073
0.00645073
0.00645073
0.00645073
0.00645073
0.00645073
0.00645073
0.00645073
0.00645073
0.00645073
0.00645073
0.00645073
0.00645073
0.00645073
0.00645073
0.00645073
0.00645073
0.00645073
0.00645073
0.00645073
0.00645073
0.00645073
0.00645073
0.00645073
0.00645073
0.00645073
0.00645073
0.00645073
0.00645073
0.00645073
0.00645073
0.00645073
0.00645073
0.00645073
0.00645073
0.00645073
0.00645073
0.00645073
0.00645073
0.00645073
0.00645073
0.00645073
0.00645073
0.00645073
0.00645073
0.00645073
0.00645073
0.00645073
0.00645073
0.00645073
0.00645073
0.00645073
0.00645073
0.00645073
0.00645073
0.00645073
0.00645073
0.00645073
0.00645073
0.00645073
0.00645073
0.00645073
0.00645073
0.00645073
0.00645073
0.00645073
0.00645073
0.00645073
0.00645073
0.00645073
0.00645073
0.00645073
0.00645073
0.00645073
0.00645073
0.00645073
0.00645073
0.00645073
0.00645073
0.00645073
0.00645073
0.00645073
0.00645073
0.00645073
0.00645073
0.00645073
0.00645073
0.00645073
0.00645073
0.00645073
0.00645073
0.00645073
0.00645073
0.00645073
0.00645073
0.00645073
0.00645073
0.00645073
0.00645073
0.00645073
0.00645073
0.00645073
0.00645073
0.00645073
0.00645073
0.00645073
0.00645073
0.00645073
0.00645073
0.00645073
0.00645073
0.00645073
0.00645073
0.00645073
0.00645073
0.00645073
0.00645073
0.00645073
0.00645073
0.00645073
0.00645073
0.00645073
0.00645073
0.00645073
0.00645073
0.00645073
0.00645073
0.00645073
0.00645073
0.00645073
0.00645073
0.00645073
0.00645073
0.00645073
0.00645073
0.00645073
0.00645073
0.00645073
0.00645073
0.00645073
0.00645073
0.00645073
0.00645073
0.00645073
0.00645073
0.00645073
0.00645073
0.00645073
0.00645073
0.00645073
0.00645073
0.00645073
0.00645073
0.00645073
0.00645073
0.000732422
0.000780687
0.000901503
0.00116343
0.00160326
0.00212518
0.0026815
0.00318212
0.00364152
0.00402481
0.0043439
0.00460678
0.00482217
0.00500892
0.00516926
0.00531149
0.00543935
0.00555482
0.00566057
0.00575564
0.0058406
0.0059151
0.00597667
0.00602296
0.00605142
0.00606561
0.00606952
0.00606644
0.00605894
0.00604894
0.00603779
0.00602641
0.00601538
0.00600507
0.00599568
0.00598729
0.00597994
0.00597357
0.00596811
0.00596347
0.00595954
0.00595624
0.00595344
0.00595107
0.00594909
0.00594745
0.00594611
0.00594502
0.00594412
0.00594338
0.00594277
0.00594226
0.00594184
0.00594149
0.0059412
0.00594095
0.00594074
0.00594056
0.00594041
0.00594029
0.00594018
0.00594009
0.00594001
0.00593994
0.00593988
0.00593983
0.00593979
0.00593975
0.00593972
0.00593969
0.00593967
0.00593965
0.00593963
0.00593962
0.0059396
0.00593959
0.00593958
0.00593957
0.00593957
0.00593956
0.00593955
0.00593955
0.00593954
0.00593954
0.00593954
0.00593954
0.00593953
0.00593953
0.00593952
0.00593952
0.00593952
0.00593952
0.00593952
0.00593952
0.00593952
0.00593952
0.00593952
0.00593952
0.00593952
0.00593952
0.00593952
0.00593952
0.00593952
0.00593952
0.00593952
0.00593952
0.00593952
0.00593952
0.00593952
0.00593952
0.00593952
0.00593952
0.00593952
0.00593952
0.00593952
0.00593952
0.00593952
0.00593952
0.00593952
0.00593952
0.00593952
0.00593952
0.00593952
0.00593952
0.00593952
0.00593952
0.00593952
0.00593952
0.00593952
0.00593952
0.00593952
0.00593951
0.00593951
0.00593951
0.00593951
0.00593951
0.00593951
0.00593951
0.00593951
0.00593951
0.00593951
0.00593951
0.00593951
0.00593951
0.00593951
0.00593951
0.00593951
0.00593951
0.00593951
0.00593951
0.00593951
0.00593951
0.00593951
0.00593951
0.00593951
0.00593951
0.00593951
0.00593951
0.00593951
0.00593951
0.00593951
0.00593951
0.00593951
0.00593951
0.00593951
0.00593951
0.00593951
0.00593951
0.00593951
0.00593951
0.00593951
0.00593951
0.00593951
0.00593951
0.00593951
0.00593951
0.00593951
0.00593951
0.00593951
0.00593951
0.00593951
0.00593951
0.00593951
0.00593951
0.00593951
0.00593951
0.00593951
0.00593951
0.00593951
0.00593951
0.00593951
0.00593951
0.00593951
0.00593951
0.00593951
0.00593951
0.00593951
0.00593951
0.00593951
0.00593951
0.00593951
0.00593951
0.00593951
0.00593951
0.00593951
0.00593951
0.00593951
0.00593951
0.00593951
0.00593951
0.00593951
0.00593951
0.00593951
0.00593951
0.00593951
0.00593951
0.00593951
0.00593951
0.00593951
0.00593951
0.00593951
0.00593951
0.00593951
0.00593951
0.00593951
0.00593951
0.00593951
0.00593951
0.00593951
0.00593951
0.00593951
0.00593951
0.00593951
0.00593951
0.00593951
0.00593951
0.00593951
0.00593951
0.00593951
0.00593951
0.00593951
0.00593951
0.00593951
0.00593951
0.00593951
0.00593951
0.00593951
0.00593951
0.00593951
0.00593951
0.00593951
0.00593951
0.00593951
0.00593951
0.00593951
0.00593951
0.00593951
0.00593951
0.00593951
0.00593951
0.00593951
0.00593951
0.00593951
0.00593951
0.00593951
0.00593951
0.00593951
0.00593951
0.00593951
0.00593951
0.00593951
0.00593951
0.00593951
0.00593951
0.00593951
0.00593951
0.00593951
0.00593951
0.00593951
0.00593951
0.00593951
0.00593951
0.00593951
0.00593951
0.00593951
0.00593951
0.00593951
0.00593951
0.00593951
0.00593951
0.00593951
0.00593951
0.00593951
0.00593951
0.00593951
0.00593951
0.00593951
0.00593951
0.00593951
0.00593951
0.000717379
0.000733036
0.000774208
0.000887266
0.00111802
0.00147906
0.00192821
0.00238263
0.00282584
0.00322967
0.00359856
0.00391636
0.00418919
0.00442249
0.00462094
0.00479299
0.00494385
0.00507809
0.00519722
0.00530202
0.0053923
0.00546782
0.00552651
0.00556844
0.00559599
0.00560835
0.00561054
0.00560577
0.00559663
0.00558508
0.00557251
0.00555984
0.00554766
0.00553632
0.00552603
0.00551686
0.00550882
0.00550185
0.00549589
0.0054908
0.00548651
0.00548288
0.00547981
0.00547721
0.00547503
0.00547323
0.00547176
0.00547056
0.00546958
0.00546877
0.00546809
0.00546754
0.00546708
0.00546669
0.00546637
0.0054661
0.00546587
0.00546568
0.00546552
0.00546538
0.00546527
0.00546517
0.00546508
0.00546501
0.00546495
0.0054649
0.00546485
0.00546481
0.00546478
0.00546475
0.00546473
0.0054647
0.00546468
0.00546467
0.00546465
0.00546464
0.00546463
0.00546462
0.00546462
0.00546461
0.0054646
0.0054646
0.00546459
0.00546459
0.00546459
0.00546458
0.00546458
0.00546458
0.00546458
0.00546457
0.00546457
0.00546457
0.00546457
0.00546458
0.00546458
0.00546458
0.00546457
0.00546457
0.00546457
0.00546457
0.00546457
0.00546457
0.00546457
0.00546457
0.00546457
0.00546457
0.00546457
0.00546457
0.00546457
0.00546457
0.00546457
0.00546457
0.00546457
0.00546457
0.00546457
0.00546457
0.00546457
0.00546457
0.00546457
0.00546457
0.00546457
0.00546457
0.00546457
0.00546457
0.00546457
0.00546457
0.00546457
0.00546457
0.00546457
0.00546457
0.00546457
0.00546457
0.00546457
0.00546457
0.00546457
0.00546457
0.00546457
0.00546457
0.00546457
0.00546457
0.00546457
0.00546457
0.00546457
0.00546457
0.00546457
0.00546457
0.00546457
0.00546457
0.00546457
0.00546457
0.00546457
0.00546457
0.00546457
0.00546457
0.00546457
0.00546457
0.00546457
0.00546457
0.00546457
0.00546457
0.00546457
0.00546457
0.00546457
0.00546457
0.00546457
0.00546457
0.00546457
0.00546457
0.00546457
0.00546457
0.00546457
0.00546457
0.00546457
0.00546457
0.00546457
0.00546457
0.00546457
0.00546457
0.00546457
0.00546457
0.00546457
0.00546457
0.00546457
0.00546457
0.00546457
0.00546457
0.00546457
0.00546457
0.00546457
0.00546457
0.00546457
0.00546457
0.00546457
0.00546457
0.00546457
0.00546457
0.00546457
0.00546457
0.00546457
0.00546457
0.00546457
0.00546457
0.00546457
0.00546457
0.00546457
0.00546457
0.00546457
0.00546457
0.00546457
0.00546457
0.00546457
0.00546457
0.00546457
0.00546457
0.00546457
0.00546457
0.00546457
0.00546457
0.00546457
0.00546457
0.00546457
0.00546457
0.00546457
0.00546457
0.00546457
0.00546457
0.00546457
0.00546457
0.00546457
0.00546457
0.00546457
0.00546457
0.00546457
0.00546457
0.00546457
0.00546457
0.00546457
0.00546457
0.00546457
0.00546457
0.00546457
0.00546457
0.00546457
0.00546457
0.00546457
0.00546457
0.00546457
0.00546457
0.00546457
0.00546457
0.00546457
0.00546457
0.00546457
0.00546457
0.00546457
0.00546457
0.00546457
0.00546457
0.00546457