/*--------------------------------*- C++ -*----------------------------------*\
| =========                 |                                                 |
| \\      /  F ield         | foam-extend: Open Source CFD                    |
|  \\    /   O peration     | Version:     3.2                                |
|   \\  /    A nd           | Web:         http://www.foam-extend.org         |
|    \\/     M anipulation  | For copyright notice see file Copyright         |
\*---------------------------------------------------------------------------*/
FoamFile
{
    version     2.0;
    format      ascii;
    class       areaScalarField;
    location    "60";
    object      kTempA;
}
// * * * * * * * * * * * * * * * * * * * * * * * * * * * * * * * * * * * * * //

dimensions      [0 2 -2 0 0 0 0];

internalField   nonuniform List<scalar> 
300
(
0.0191515
0.0121227
0.00894761
0.00902527
0.00869726
0.00873793
0.00859965
0.00860212
0.00854928
0.00857243
0.00857361
0.00860993
0.00863978
0.00869179
0.00873694
0.00879976
0.00885886
0.00892714
0.00899327
0.0090679
0.00914444
0.00922324
0.00930338
0.00938457
0.00946628
0.00954456
0.00961339
0.00967202
0.00972136
0.00976278
0.00979743
0.00982641
0.00985057
0.00987072
0.00988752
0.00990155
0.00991328
0.00992312
0.00993139
0.00993837
0.00994426
0.00994931
0.00995365
0.00995731
0.00996037
0.00996294
0.00996519
0.00996708
0.00996874
0.00997017
0.00997142
0.0099725
0.00997345
0.00997427
0.00997499
0.00997561
0.00997614
0.00997661
0.00997702
0.00997737
0.00997767
0.00997793
0.00997817
0.00997836
0.00997854
0.00997868
0.00997882
0.00997893
0.00997902
0.00997911
0.00997918
0.00997924
0.0099793
0.00997934
0.00997938
0.00997942
0.00997945
0.00997947
0.00997949
0.00997952
0.00997953
0.00997954
0.00997956
0.00997957
0.00997958
0.00997958
0.00997959
0.00997959
0.0099796
0.00997961
0.00997961
0.00997961
0.00997962
0.00997962
0.00997962
0.00997962
0.00997963
0.00997963
0.00997963
0.00997963
0.00997963
0.00997963
0.00997963
0.00997963
0.00997963
0.00997963
0.00997963
0.00997963
0.00997963
0.00997963
0.00997963
0.00997963
0.00997964
0.00997964
0.00997963
0.00997964
0.00997964
0.00997964
0.00997964
0.00997964
0.00997964
0.00997964
0.00997964
0.00997964
0.00997964
0.00997964
0.00997964
0.00997964
0.00997964
0.00997964
0.00997964
0.00997964
0.00997964
0.00997964
0.00997964
0.00997964
0.00997964
0.00997964
0.00997964
0.00997964
0.00997964
0.00997964
0.00997964
0.00997964
0.00997964
0.00997964
0.00997964
0.00997964
0.00997964
0.00997964
0.00997964
0.00997964
0.00997964
0.00997964
0.00997964
0.00997964
0.00997964
0.00997964
0.00997964
0.00997964
0.00997964
0.00997964
0.00997964
0.00997964
0.00997964
0.00997964
0.00997964
0.00997964
0.00997964
0.00997964
0.00997964
0.00997964
0.00997964
0.00997964
0.00997964
0.00997964
0.00997964
0.00997964
0.00997964
0.00997964
0.00997964
0.00997964
0.00997964
0.00997964
0.00997964
0.00997964
0.00997964
0.00997964
0.00997964
0.00997964
0.00997964
0.00997964
0.00997964
0.00997964
0.00997964
0.00997964
0.00997964
0.00997964
0.00997964
0.00997964
0.00997964
0.00997964
0.00997964
0.00997964
0.00997964
0.00997964
0.00997964
0.00997964
0.00997964
0.00997964
0.00997964
0.00997964
0.00997964
0.00997964
0.00997964
0.00997964
0.00997964
0.00997964
0.00997964
0.00997964
0.00997964
0.00997964
0.00997964
0.00997964
0.00997964
0.00997964
0.00997964
0.00997964
0.00997964
0.00997964
0.00997964
0.00997964
0.00997964
0.00997964
0.00997964
0.00997964
0.00997964
0.00997964
0.00997964
0.00997964
0.00997964
0.00997964
0.00997964
0.00997964
0.00997964
0.00997964
0.00997964
0.00997964
0.00997964
0.00997964
0.00997964
0.00997964
0.00997964
0.00997964
0.00997964
0.00997964
0.00997964
0.00997964
0.00997964
0.00997964
0.00997964
0.00997964
0.00997964
0.00997964
0.00997964
0.00997964
0.00997964
0.00997964
0.00997964
0.00997964
0.00997964
0.00997964
0.00997964
0.00997964
0.00997964
0.00997964
0.00997964
0.00997964
0.00997964
0.00997964
0.00997964
0.00997964
0.00997964
0.00997964
0.00997964
0.00997964
0.00997964
0.00997964
0.00997964
0.00997964
0.00997964
0.00997964
0.00997964
0.00997964
0.00997964
0.00997964
0.00997964
0.00997964
0.00997965
0.00997963
)
;

boundaryField
{
    inlet
    {
        type            calculated;
        value           uniform 0;
    }
    outlet
    {
        type            calculated;
        value           uniform 0;
    }
    sideWall
    {
        type            empty;
    }
}


// ************************************************************************* //
