/*--------------------------------*- C++ -*----------------------------------*\
| =========                 |                                                 |
| \\      /  F ield         | foam-extend: Open Source CFD                    |
|  \\    /   O peration     | Version:     3.2                                |
|   \\  /    A nd           | Web:         http://www.foam-extend.org         |
|    \\/     M anipulation  | For copyright notice see file Copyright         |
\*---------------------------------------------------------------------------*/
FoamFile
{
    version     2.0;
    format      ascii;
    class       volScalarField;
    location    "60";
    object      nut;
}
// * * * * * * * * * * * * * * * * * * * * * * * * * * * * * * * * * * * * * //

dimensions      [0 2 -1 0 0 0 0];

internalField   nonuniform List<scalar> 
5400
(
2.5589e-05
2.02204e-05
1.7259e-05
1.73374e-05
1.70037e-05
1.70455e-05
1.69032e-05
1.69057e-05
1.68511e-05
1.6875e-05
1.68763e-05
1.69138e-05
1.69446e-05
1.69982e-05
1.70445e-05
1.71087e-05
1.7169e-05
1.72383e-05
1.73052e-05
1.73803e-05
1.74571e-05
1.75358e-05
1.76154e-05
1.76958e-05
1.77763e-05
1.7853e-05
1.79203e-05
1.79773e-05
1.80252e-05
1.80653e-05
1.80988e-05
1.81268e-05
1.81501e-05
1.81695e-05
1.81856e-05
1.81991e-05
1.82103e-05
1.82198e-05
1.82277e-05
1.82344e-05
1.824e-05
1.82449e-05
1.8249e-05
1.82525e-05
1.82555e-05
1.82579e-05
1.82603e-05
1.82622e-05
1.82638e-05
1.82652e-05
1.82664e-05
1.82674e-05
1.82683e-05
1.82691e-05
1.82698e-05
1.82704e-05
1.82709e-05
1.82714e-05
1.82717e-05
1.82721e-05
1.82724e-05
1.82726e-05
1.82728e-05
1.8273e-05
1.82732e-05
1.82733e-05
1.82735e-05
1.82736e-05
1.82737e-05
1.82737e-05
1.82738e-05
1.82739e-05
1.82739e-05
1.8274e-05
1.8274e-05
1.8274e-05
1.82741e-05
1.82741e-05
1.82741e-05
1.82741e-05
1.82742e-05
1.82742e-05
1.82742e-05
1.82742e-05
1.82742e-05
1.82742e-05
1.82742e-05
1.82742e-05
1.82742e-05
1.82742e-05
1.82742e-05
1.82742e-05
1.82742e-05
1.82742e-05
1.82742e-05
1.82742e-05
1.82742e-05
1.82742e-05
1.82742e-05
1.82742e-05
1.82742e-05
1.82742e-05
1.82742e-05
1.82742e-05
1.82742e-05
1.82742e-05
1.82742e-05
1.82743e-05
1.82742e-05
1.82742e-05
1.82743e-05
1.82743e-05
1.82743e-05
1.82743e-05
1.82743e-05
1.82743e-05
1.82743e-05
1.82743e-05
1.82743e-05
1.82743e-05
1.82743e-05
1.82743e-05
1.82743e-05
1.82743e-05
1.82743e-05
1.82743e-05
1.82743e-05
1.82743e-05
1.82743e-05
1.82743e-05
1.82743e-05
1.82743e-05
1.82743e-05
1.82743e-05
1.82743e-05
1.82743e-05
1.82743e-05
1.82743e-05
1.82743e-05
1.82743e-05
1.82743e-05
1.82743e-05
1.82743e-05
1.82743e-05
1.82743e-05
1.82743e-05
1.82743e-05
1.82743e-05
1.82743e-05
1.82743e-05
1.82743e-05
1.82743e-05
1.82743e-05
1.82743e-05
1.82743e-05
1.82743e-05
1.82743e-05
1.82743e-05
1.82743e-05
1.82743e-05
1.82743e-05
1.82743e-05
1.82743e-05
1.82743e-05
1.82743e-05
1.82743e-05
1.82743e-05
1.82743e-05
1.82743e-05
1.82743e-05
1.82743e-05
1.82743e-05
1.82743e-05
1.82743e-05
1.82743e-05
1.82743e-05
1.82743e-05
1.82743e-05
1.82743e-05
1.82743e-05
1.82743e-05
1.82743e-05
1.82743e-05
1.82743e-05
1.82743e-05
1.82743e-05
1.82743e-05
1.82743e-05
1.82743e-05
1.82743e-05
1.82743e-05
1.82743e-05
1.82743e-05
1.82743e-05
1.82743e-05
1.82743e-05
1.82743e-05
1.82743e-05
1.82743e-05
1.82743e-05
1.82743e-05
1.82743e-05
1.82743e-05
1.82743e-05
1.82743e-05
1.82743e-05
1.82743e-05
1.82743e-05
1.82743e-05
1.82743e-05
1.82743e-05
1.82743e-05
1.82743e-05
1.82743e-05
1.82743e-05
1.82743e-05
1.82743e-05
1.82743e-05
1.82743e-05
1.82743e-05
1.82743e-05
1.82743e-05
1.82743e-05
1.82743e-05
1.82743e-05
1.82743e-05
1.82743e-05
1.82743e-05
1.82743e-05
1.82743e-05
1.82743e-05
1.82743e-05
1.82743e-05
1.82743e-05
1.82743e-05
1.82743e-05
1.82743e-05
1.82743e-05
1.82743e-05
1.82743e-05
1.82743e-05
1.82743e-05
1.82743e-05
1.82743e-05
1.82743e-05
1.82743e-05
1.82743e-05
1.82743e-05
1.82743e-05
1.82743e-05
1.82743e-05
1.82743e-05
1.82743e-05
1.82743e-05
1.82743e-05
1.82743e-05
1.82743e-05
1.82743e-05
1.82743e-05
1.82743e-05
1.82743e-05
1.82743e-05
1.82743e-05
1.82743e-05
1.82743e-05
1.82743e-05
1.82743e-05
1.82743e-05
1.82743e-05
1.82743e-05
1.82743e-05
1.82743e-05
1.82743e-05
1.82743e-05
1.82743e-05
1.82743e-05
1.82743e-05
1.82743e-05
1.82743e-05
1.82743e-05
1.82743e-05
1.82743e-05
1.82743e-05
1.82743e-05
1.82743e-05
1.82743e-05
1.82743e-05
1.82743e-05
1.82743e-05
1.82743e-05
1.82743e-05
1.82743e-05
1.82743e-05
1.82743e-05
1.82743e-05
1.82743e-05
1.82743e-05
1.82743e-05
1.82743e-05
1.82742e-05
2.48395e-05
3.25986e-05
3.5267e-05
3.73246e-05
3.85544e-05
3.92705e-05
3.97493e-05
4.00645e-05
4.03729e-05
4.06236e-05
4.0862e-05
4.11032e-05
4.13337e-05
4.15764e-05
4.18078e-05
4.20374e-05
4.22691e-05
4.24973e-05
4.27283e-05
4.29555e-05
4.31795e-05
4.33989e-05
4.36122e-05
4.38182e-05
4.40098e-05
4.41757e-05
4.43096e-05
4.44148e-05
4.44972e-05
4.45619e-05
4.4613e-05
4.46536e-05
4.46859e-05
4.47117e-05
4.47325e-05
4.47493e-05
4.47632e-05
4.47746e-05
4.47842e-05
4.47922e-05
4.4799e-05
4.48049e-05
4.48099e-05
4.48141e-05
4.48178e-05
4.4821e-05
4.48238e-05
4.48263e-05
4.48284e-05
4.48303e-05
4.48319e-05
4.48333e-05
4.48346e-05
4.48357e-05
4.48365e-05
4.48374e-05
4.48381e-05
4.48388e-05
4.48394e-05
4.48399e-05
4.48403e-05
4.48407e-05
4.4841e-05
4.48413e-05
4.48415e-05
4.48418e-05
4.48419e-05
4.48421e-05
4.48422e-05
4.48424e-05
4.48424e-05
4.48425e-05
4.48426e-05
4.48427e-05
4.48428e-05
4.48428e-05
4.48428e-05
4.48429e-05
4.48429e-05
4.48429e-05
4.4843e-05
4.4843e-05
4.4843e-05
4.4843e-05
4.4843e-05
4.4843e-05
4.4843e-05
4.48431e-05
4.48431e-05
4.48431e-05
4.48431e-05
4.48431e-05
4.48431e-05
4.48431e-05
4.48431e-05
4.48431e-05
4.48431e-05
4.48431e-05
4.48431e-05
4.48431e-05
4.48431e-05
4.48431e-05
4.48431e-05
4.48431e-05
4.48431e-05
4.48431e-05
4.48431e-05
4.48431e-05
4.48431e-05
4.48431e-05
4.48431e-05
4.48431e-05
4.48431e-05
4.48431e-05
4.48431e-05
4.48431e-05
4.48431e-05
4.48431e-05
4.48431e-05
4.48431e-05
4.48431e-05
4.48431e-05
4.48431e-05
4.48431e-05
4.48431e-05
4.48431e-05
4.48431e-05
4.48431e-05
4.48431e-05
4.48431e-05
4.48431e-05
4.48431e-05
4.48431e-05
4.48431e-05
4.48431e-05
4.48431e-05
4.48431e-05
4.48431e-05
4.48431e-05
4.48431e-05
4.48431e-05
4.48431e-05
4.48431e-05
4.48431e-05
4.48431e-05
4.48431e-05
4.48431e-05
4.48431e-05
4.48431e-05
4.48431e-05
4.48431e-05
4.48431e-05
4.48431e-05
4.48431e-05
4.48431e-05
4.48431e-05
4.48431e-05
4.48431e-05
4.48431e-05
4.48431e-05
4.48431e-05
4.48431e-05
4.48431e-05
4.48431e-05
4.48431e-05
4.48431e-05
4.48431e-05
4.48431e-05
4.48431e-05
4.48431e-05
4.48431e-05
4.48431e-05
4.48431e-05
4.48431e-05
4.48431e-05
4.48431e-05
4.48431e-05
4.48431e-05
4.48431e-05
4.48431e-05
4.48431e-05
4.48431e-05
4.48431e-05
4.48431e-05
4.48431e-05
4.48431e-05
4.48431e-05
4.48431e-05
4.48431e-05
4.48431e-05
4.48431e-05
4.48431e-05
4.48431e-05
4.48431e-05
4.48431e-05
4.48431e-05
4.48431e-05
4.48431e-05
4.48431e-05
4.48431e-05
4.48431e-05
4.48431e-05
4.48431e-05
4.48431e-05
4.48431e-05
4.48431e-05
4.48431e-05
4.48431e-05
4.48431e-05
4.48431e-05
4.48431e-05
4.48431e-05
4.48431e-05
4.48431e-05
4.48431e-05
4.48431e-05
4.48431e-05
4.48431e-05
4.48431e-05
4.48431e-05
4.48431e-05
4.48431e-05
4.48431e-05
4.48431e-05
4.48431e-05
4.48431e-05
4.48431e-05
4.48431e-05
4.48431e-05
4.48431e-05
4.48431e-05
4.48431e-05
4.48431e-05
4.48431e-05
4.48431e-05
4.48431e-05
4.48431e-05
4.48431e-05
4.48431e-05
4.48431e-05
4.48431e-05
4.48431e-05
4.48431e-05
4.48431e-05
4.48431e-05
4.48431e-05
4.48431e-05
4.48431e-05
4.48431e-05
4.48431e-05
4.48431e-05
4.48431e-05
4.48431e-05
4.48431e-05
4.48431e-05
4.48431e-05
4.48431e-05
4.48431e-05
4.48431e-05
4.48431e-05
4.48431e-05
4.48431e-05
4.48431e-05
4.48431e-05
4.48431e-05
4.48431e-05
4.48431e-05
4.48431e-05
4.48431e-05
4.48431e-05
4.48431e-05
4.48431e-05
4.48431e-05
4.48431e-05
4.48431e-05
4.48431e-05
4.48431e-05
4.48431e-05
4.48431e-05
4.48431e-05
4.48431e-05
4.48431e-05
4.48431e-05
4.48431e-05
4.48431e-05
4.48431e-05
4.48431e-05
4.48431e-05
4.48431e-05
4.48431e-05
4.48431e-05
4.48431e-05
4.48431e-05
4.48431e-05
4.48431e-05
4.48431e-05
4.48431e-05
4.48431e-05
4.48431e-05
4.48431e-05
2.33571e-05
3.6003e-05
4.1992e-05
4.85511e-05
5.38711e-05
5.65513e-05
5.8258e-05
5.96765e-05
6.0726e-05
6.16899e-05
6.24527e-05
6.31824e-05
6.38305e-05
6.4431e-05
6.50121e-05
6.55417e-05
6.60537e-05
6.65471e-05
6.70193e-05
6.7475e-05
6.79086e-05
6.83203e-05
6.87091e-05
6.9072e-05
6.93982e-05
6.96489e-05
6.983e-05
6.99598e-05
7.00533e-05
7.01207e-05
7.01692e-05
7.02042e-05
7.02293e-05
7.02473e-05
7.02604e-05
7.027e-05
7.02774e-05
7.02831e-05
7.02879e-05
7.02919e-05
7.02953e-05
7.02985e-05
7.03013e-05
7.03038e-05
7.03059e-05
7.03079e-05
7.03096e-05
7.03114e-05
7.0313e-05
7.03146e-05
7.0316e-05
7.03172e-05
7.03184e-05
7.03194e-05
7.03203e-05
7.03211e-05
7.03219e-05
7.03225e-05
7.03231e-05
7.03236e-05
7.0324e-05
7.03244e-05
7.03247e-05
7.0325e-05
7.03252e-05
7.03254e-05
7.03256e-05
7.03258e-05
7.03259e-05
7.0326e-05
7.03261e-05
7.03262e-05
7.03263e-05
7.03264e-05
7.03264e-05
7.03265e-05
7.03265e-05
7.03266e-05
7.03266e-05
7.03266e-05
7.03266e-05
7.03267e-05
7.03267e-05
7.03267e-05
7.03267e-05
7.03267e-05
7.03267e-05
7.03268e-05
7.03268e-05
7.03268e-05
7.03268e-05
7.03268e-05
7.03268e-05
7.03268e-05
7.03268e-05
7.03268e-05
7.03268e-05
7.03268e-05
7.03268e-05
7.03268e-05
7.03268e-05
7.03268e-05
7.03268e-05
7.03268e-05
7.03268e-05
7.03268e-05
7.03268e-05
7.03268e-05
7.03268e-05
7.03268e-05
7.03268e-05
7.03268e-05
7.03268e-05
7.03268e-05
7.03268e-05
7.03268e-05
7.03268e-05
7.03268e-05
7.03268e-05
7.03268e-05
7.03268e-05
7.03268e-05
7.03268e-05
7.03268e-05
7.03268e-05
7.03268e-05
7.03268e-05
7.03268e-05
7.03268e-05
7.03268e-05
7.03268e-05
7.03268e-05
7.03268e-05
7.03268e-05
7.03268e-05
7.03268e-05
7.03268e-05
7.03268e-05
7.03268e-05
7.03268e-05
7.03268e-05
7.03268e-05
7.03268e-05
7.03268e-05
7.03268e-05
7.03268e-05
7.03268e-05
7.03268e-05
7.03268e-05
7.03268e-05
7.03268e-05
7.03268e-05
7.03268e-05
7.03268e-05
7.03268e-05
7.03268e-05
7.03268e-05
7.03268e-05
7.03268e-05
7.03268e-05
7.03268e-05
7.03268e-05
7.03268e-05
7.03268e-05
7.03268e-05
7.03268e-05
7.03268e-05
7.03268e-05
7.03268e-05
7.03268e-05
7.03268e-05
7.03268e-05
7.03268e-05
7.03268e-05
7.03268e-05
7.03268e-05
7.03268e-05
7.03268e-05
7.03268e-05
7.03268e-05
7.03268e-05
7.03268e-05
7.03268e-05
7.03268e-05
7.03268e-05
7.03268e-05
7.03268e-05
7.03268e-05
7.03268e-05
7.03268e-05
7.03268e-05
7.03268e-05
7.03268e-05
7.03268e-05
7.03268e-05
7.03268e-05
7.03268e-05
7.03268e-05
7.03268e-05
7.03268e-05
7.03268e-05
7.03268e-05
7.03268e-05
7.03268e-05
7.03268e-05
7.03268e-05
7.03268e-05
7.03268e-05
7.03268e-05
7.03268e-05
7.03268e-05
7.03268e-05
7.03268e-05
7.03268e-05
7.03268e-05
7.03268e-05
7.03268e-05
7.03268e-05
7.03268e-05
7.03268e-05
7.03268e-05
7.03268e-05
7.03268e-05
7.03268e-05
7.03268e-05
7.03268e-05
7.03268e-05
7.03268e-05
7.03268e-05
7.03268e-05
7.03268e-05
7.03268e-05
7.03268e-05
7.03268e-05
7.03268e-05
7.03268e-05
7.03268e-05
7.03268e-05
7.03268e-05
7.03268e-05
7.03268e-05
7.03268e-05
7.03268e-05
7.03268e-05
7.03268e-05
7.03268e-05
7.03268e-05
7.03268e-05
7.03268e-05
7.03268e-05
7.03268e-05
7.03268e-05
7.03268e-05
7.03268e-05
7.03268e-05
7.03268e-05
7.03268e-05
7.03268e-05
7.03268e-05
7.03268e-05
7.03268e-05
7.03268e-05
7.03268e-05
7.03268e-05
7.03268e-05
7.03268e-05
7.03268e-05
7.03268e-05
7.03268e-05
7.03268e-05
7.03268e-05
7.03268e-05
7.03268e-05
7.03268e-05
7.03268e-05
7.03268e-05
7.03268e-05
7.03268e-05
7.03268e-05
7.03268e-05
7.03268e-05
7.03268e-05
7.03268e-05
7.03268e-05
7.03268e-05
7.03268e-05
7.03268e-05
7.03268e-05
7.03268e-05
7.03268e-05
7.03268e-05
7.03268e-05
7.03268e-05
7.03268e-05
7.03268e-05
7.03268e-05
7.03268e-05
7.03268e-05
7.03268e-05
7.03268e-05
2.34131e-05
3.21422e-05
3.9874e-05
4.97561e-05
5.85436e-05
6.451e-05
6.97443e-05
7.28922e-05
7.53627e-05
7.75128e-05
7.92661e-05
8.08372e-05
8.22019e-05
8.34483e-05
8.45975e-05
8.56261e-05
8.65956e-05
8.74993e-05
8.83477e-05
8.91456e-05
8.98878e-05
9.05767e-05
9.12109e-05
9.1787e-05
9.22834e-05
9.26474e-05
9.28983e-05
9.30671e-05
9.31785e-05
9.32501e-05
9.32941e-05
9.33192e-05
9.33318e-05
9.33363e-05
9.33359e-05
9.33328e-05
9.33287e-05
9.33244e-05
9.33204e-05
9.3317e-05
9.33143e-05
9.33124e-05
9.3311e-05
9.33099e-05
9.33092e-05
9.33088e-05
9.33087e-05
9.33091e-05
9.33097e-05
9.33105e-05
9.33113e-05
9.33121e-05
9.33129e-05
9.33137e-05
9.33145e-05
9.33152e-05
9.33158e-05
9.33164e-05
9.33168e-05
9.33173e-05
9.33177e-05
9.33181e-05
9.33184e-05
9.33186e-05
9.33189e-05
9.33191e-05
9.33194e-05
9.33196e-05
9.33198e-05
9.33199e-05
9.332e-05
9.33201e-05
9.33202e-05
9.33202e-05
9.33203e-05
9.33203e-05
9.33204e-05
9.33204e-05
9.33204e-05
9.33204e-05
9.33205e-05
9.33205e-05
9.33205e-05
9.33205e-05
9.33205e-05
9.33205e-05
9.33206e-05
9.33206e-05
9.33206e-05
9.33206e-05
9.33206e-05
9.33206e-05
9.33206e-05
9.33206e-05
9.33206e-05
9.33206e-05
9.33206e-05
9.33206e-05
9.33206e-05
9.33206e-05
9.33206e-05
9.33206e-05
9.33206e-05
9.33206e-05
9.33206e-05
9.33206e-05
9.33206e-05
9.33206e-05
9.33206e-05
9.33206e-05
9.33206e-05
9.33206e-05
9.33206e-05
9.33206e-05
9.33206e-05
9.33206e-05
9.33206e-05
9.33206e-05
9.33206e-05
9.33206e-05
9.33206e-05
9.33206e-05
9.33206e-05
9.33206e-05
9.33206e-05
9.33206e-05
9.33206e-05
9.33206e-05
9.33206e-05
9.33206e-05
9.33206e-05
9.33206e-05
9.33206e-05
9.33206e-05
9.33206e-05
9.33206e-05
9.33206e-05
9.33206e-05
9.33206e-05
9.33206e-05
9.33206e-05
9.33206e-05
9.33206e-05
9.33206e-05
9.33206e-05
9.33206e-05
9.33206e-05
9.33206e-05
9.33206e-05
9.33206e-05
9.33206e-05
9.33206e-05
9.33206e-05
9.33206e-05
9.33206e-05
9.33206e-05
9.33206e-05
9.33206e-05
9.33206e-05
9.33206e-05
9.33206e-05
9.33206e-05
9.33206e-05
9.33206e-05
9.33206e-05
9.33206e-05
9.33206e-05
9.33206e-05
9.33206e-05
9.33206e-05
9.33206e-05
9.33206e-05
9.33206e-05
9.33206e-05
9.33206e-05
9.33206e-05
9.33206e-05
9.33206e-05
9.33206e-05
9.33206e-05
9.33206e-05
9.33206e-05
9.33206e-05
9.33206e-05
9.33206e-05
9.33206e-05
9.33206e-05
9.33206e-05
9.33206e-05
9.33206e-05
9.33206e-05
9.33206e-05
9.33206e-05
9.33206e-05
9.33206e-05
9.33206e-05
9.33206e-05
9.33206e-05
9.33206e-05
9.33206e-05
9.33206e-05
9.33206e-05
9.33206e-05
9.33206e-05
9.33206e-05
9.33206e-05
9.33206e-05
9.33206e-05
9.33206e-05
9.33206e-05
9.33206e-05
9.33206e-05
9.33206e-05
9.33206e-05
9.33206e-05
9.33206e-05
9.33206e-05
9.33206e-05
9.33206e-05
9.33206e-05
9.33206e-05
9.33206e-05
9.33206e-05
9.33206e-05
9.33206e-05
9.33206e-05
9.33206e-05
9.33206e-05
9.33206e-05
9.33206e-05
9.33206e-05
9.33206e-05
9.33206e-05
9.33206e-05
9.33206e-05
9.33206e-05
9.33206e-05
9.33206e-05
9.33206e-05
9.33206e-05
9.33206e-05
9.33206e-05
9.33206e-05
9.33206e-05
9.33206e-05
9.33206e-05
9.33206e-05
9.33206e-05
9.33206e-05
9.33206e-05
9.33206e-05
9.33206e-05
9.33206e-05
9.33206e-05
9.33206e-05
9.33206e-05
9.33206e-05
9.33206e-05
9.33206e-05
9.33206e-05
9.33206e-05
9.33206e-05
9.33206e-05
9.33206e-05
9.33206e-05
9.33206e-05
9.33206e-05
9.33206e-05
9.33206e-05
9.33206e-05
9.33206e-05
9.33206e-05
9.33206e-05
9.33206e-05
9.33206e-05
9.33206e-05
9.33206e-05
9.33206e-05
9.33206e-05
9.33206e-05
9.33206e-05
9.33206e-05
9.33206e-05
9.33206e-05
9.33206e-05
9.33206e-05
9.33206e-05
9.33206e-05
9.33206e-05
9.33206e-05
9.33206e-05
9.33206e-05
9.33206e-05
9.33206e-05
9.33206e-05
9.33206e-05
9.33206e-05
9.33206e-05
9.33206e-05
9.33206e-05
2.68149e-05
2.89222e-05
3.80813e-05
4.73977e-05
5.4659e-05
6.36132e-05
7.17506e-05
7.79091e-05
8.32975e-05
8.75244e-05
9.08921e-05
9.36133e-05
9.5982e-05
9.81249e-05
0.000100061
0.000101788
0.000103388
0.000104856
0.000106218
0.00010748
0.000108638
0.000109699
0.000110661
0.000111521
0.000112249
0.000112784
0.000113159
0.000113416
0.000113588
0.0001137
0.00011377
0.000113811
0.000113833
0.000113842
0.000113843
0.000113841
0.000113836
0.000113831
0.000113826
0.000113822
0.000113819
0.000113817
0.000113816
0.000113815
0.000113814
0.000113814
0.000113815
0.000113816
0.000113817
0.000113819
0.00011382
0.000113822
0.000113823
0.000113825
0.000113826
0.000113828
0.000113829
0.00011383
0.000113831
0.000113831
0.000113832
0.000113833
0.000113833
0.000113834
0.000113834
0.000113835
0.000113835
0.000113835
0.000113835
0.000113836
0.000113836
0.000113836
0.000113836
0.000113836
0.000113836
0.000113836
0.000113836
0.000113836
0.000113836
0.000113836
0.000113836
0.000113837
0.000113837
0.000113837
0.000113837
0.000113837
0.000113837
0.000113837
0.000113837
0.000113837
0.000113837
0.000113837
0.000113837
0.000113837
0.000113837
0.000113837
0.000113837
0.000113837
0.000113837
0.000113837
0.000113837
0.000113837
0.000113837
0.000113837
0.000113837
0.000113837
0.000113837
0.000113837
0.000113837
0.000113837
0.000113837
0.000113837
0.000113837
0.000113837
0.000113837
0.000113837
0.000113837
0.000113837
0.000113837
0.000113837
0.000113837
0.000113837
0.000113837
0.000113837
0.000113837
0.000113837
0.000113837
0.000113837
0.000113837
0.000113837
0.000113837
0.000113837
0.000113837
0.000113837
0.000113837
0.000113837
0.000113837
0.000113837
0.000113837
0.000113837
0.000113837
0.000113837
0.000113837
0.000113837
0.000113837
0.000113837
0.000113837
0.000113837
0.000113837
0.000113837
0.000113837
0.000113837
0.000113837
0.000113837
0.000113837
0.000113837
0.000113837
0.000113837
0.000113837
0.000113837
0.000113837
0.000113837
0.000113837
0.000113837
0.000113837
0.000113837
0.000113837
0.000113837
0.000113837
0.000113837
0.000113837
0.000113837
0.000113837
0.000113837
0.000113837
0.000113837
0.000113837
0.000113837
0.000113837
0.000113837
0.000113837
0.000113837
0.000113837
0.000113837
0.000113837
0.000113837
0.000113837
0.000113837
0.000113837
0.000113837
0.000113837
0.000113837
0.000113837
0.000113837
0.000113837
0.000113837
0.000113837
0.000113837
0.000113837
0.000113837
0.000113837
0.000113837
0.000113837
0.000113837
0.000113837
0.000113837
0.000113837
0.000113837
0.000113837
0.000113837
0.000113837
0.000113837
0.000113837
0.000113837
0.000113837
0.000113837
0.000113837
0.000113837
0.000113837
0.000113837
0.000113837
0.000113837
0.000113837
0.000113837
0.000113837
0.000113837
0.000113837
0.000113837
0.000113837
0.000113837
0.000113837
0.000113837
0.000113837
0.000113837
0.000113837
0.000113837
0.000113837
0.000113837
0.000113837
0.000113837
0.000113837
0.000113837
0.000113837
0.000113837
0.000113837
0.000113837
0.000113837
0.000113837
0.000113837
0.000113837
0.000113837
0.000113837
0.000113837
0.000113837
0.000113837
0.000113837
0.000113837
0.000113837
0.000113837
0.000113837
0.000113837
0.000113837
0.000113837
0.000113837
0.000113837
0.000113837
0.000113837
0.000113837
0.000113837
0.000113837
0.000113837
0.000113837
0.000113837
0.000113837
0.000113837
0.000113837
0.000113837
0.000113837
0.000113837
0.000113837
0.000113837
0.000113837
0.000113837
0.000113837
0.000113837
0.000113837
0.000113837
0.000113837
0.000113837
0.000113837
0.000113837
0.000113837
0.000113837
0.000113837
0.000113837
0.000113837
0.000113837
0.000113837
0.000113837
0.000113837
3.6775e-05
2.95095e-05
3.44203e-05
4.37548e-05
4.8859e-05
5.847e-05
6.73454e-05
7.55744e-05
8.33161e-05
8.96939e-05
9.55054e-05
0.000100168
0.000104561
0.000108042
0.000111176
0.000113781
0.000116169
0.000118354
0.000120366
0.000122217
0.000123904
0.000125437
0.000126818
0.000128049
0.000129097
0.000129891
0.000130475
0.000130898
0.000131201
0.000131416
0.000131568
0.000131674
0.000131748
0.0001318
0.000131835
0.000131861
0.00013188
0.000131895
0.000131907
0.000131918
0.000131928
0.000131937
0.000131945
0.000131952
0.000131959
0.000131965
0.000131972
0.000131978
0.000131984
0.000131989
0.000131995
0.000131999
0.000132004
0.000132008
0.000132011
0.000132015
0.000132017
0.00013202
0.000132022
0.000132024
0.000132026
0.000132027
0.000132029
0.00013203
0.000132031
0.000132032
0.000132032
0.000132033
0.000132033
0.000132034
0.000132034
0.000132035
0.000132035
0.000132035
0.000132035
0.000132036
0.000132036
0.000132036
0.000132036
0.000132036
0.000132036
0.000132036
0.000132036
0.000132036
0.000132036
0.000132036
0.000132037
0.000132037
0.000132037
0.000132037
0.000132037
0.000132037
0.000132037
0.000132037
0.000132037
0.000132037
0.000132037
0.000132037
0.000132037
0.000132037
0.000132037
0.000132037
0.000132037
0.000132037
0.000132037
0.000132037
0.000132037
0.000132037
0.000132037
0.000132037
0.000132037
0.000132037
0.000132037
0.000132037
0.000132037
0.000132037
0.000132037
0.000132037
0.000132037
0.000132037
0.000132037
0.000132037
0.000132037
0.000132037
0.000132037
0.000132037
0.000132037
0.000132037
0.000132037
0.000132037
0.000132037
0.000132037
0.000132037
0.000132037
0.000132037
0.000132037
0.000132037
0.000132037
0.000132037
0.000132037
0.000132037
0.000132037
0.000132037
0.000132037
0.000132037
0.000132037
0.000132037
0.000132037
0.000132037
0.000132037
0.000132037
0.000132037
0.000132037
0.000132037
0.000132037
0.000132037
0.000132037
0.000132037
0.000132037
0.000132037
0.000132037
0.000132037
0.000132037
0.000132037
0.000132037
0.000132037
0.000132037
0.000132037
0.000132037
0.000132037
0.000132037
0.000132037
0.000132037
0.000132037
0.000132037
0.000132037
0.000132037
0.000132037
0.000132037
0.000132037
0.000132037
0.000132037
0.000132037
0.000132037
0.000132037
0.000132037
0.000132037
0.000132037
0.000132037
0.000132037
0.000132037
0.000132037
0.000132037
0.000132037
0.000132037
0.000132037
0.000132037
0.000132037
0.000132037
0.000132037
0.000132037
0.000132037
0.000132037
0.000132037
0.000132037
0.000132037
0.000132037
0.000132037
0.000132037
0.000132037
0.000132037
0.000132037
0.000132037
0.000132037
0.000132037
0.000132037
0.000132037
0.000132037
0.000132037
0.000132037
0.000132037
0.000132037
0.000132037
0.000132037
0.000132037
0.000132037
0.000132037
0.000132037
0.000132037
0.000132037
0.000132037
0.000132037
0.000132037
0.000132037
0.000132037
0.000132037
0.000132037
0.000132037
0.000132037
0.000132037
0.000132037
0.000132037
0.000132037
0.000132037
0.000132037
0.000132037
0.000132037
0.000132037
0.000132037
0.000132037
0.000132037
0.000132037
0.000132037
0.000132037
0.000132037
0.000132037
0.000132037
0.000132037
0.000132037
0.000132037
0.000132037
0.000132037
0.000132037
0.000132037
0.000132037
0.000132037
0.000132037
0.000132037
0.000132037
0.000132037
0.000132037
0.000132037
0.000132037
0.000132037
0.000132037
0.000132037
0.000132037
0.000132037
0.000132037
0.000132037
0.000132037
0.000132037
0.000132037
0.000132037
0.000132037
0.000132037
0.000132037
0.000132037
0.000132037
0.000132037
0.000132037
0.000132037
0.000132037
0.000132037
0.000132037
0.000132037
0.000132037
0.000132037
0.000132037
0.000132037
5.74886e-05
3.57252e-05
3.3356e-05
3.83181e-05
4.66075e-05
5.41689e-05
6.0565e-05
6.92627e-05
7.80586e-05
8.60173e-05
9.37214e-05
0.000100217
0.000106412
0.000111532
0.000116338
0.00012031
0.000123973
0.000127509
0.000130487
0.00013328
0.000135598
0.000137703
0.000139602
0.000141311
0.000142811
0.000143979
0.000144876
0.000145561
0.000146085
0.000146485
0.000146793
0.000147031
0.000147216
0.000147361
0.000147477
0.000147571
0.000147648
0.000147713
0.000147768
0.000147815
0.000147857
0.000147893
0.000147925
0.000147953
0.000147977
0.000147999
0.000148019
0.000148037
0.000148053
0.000148067
0.00014808
0.000148092
0.000148102
0.000148111
0.000148119
0.000148126
0.000148133
0.000148138
0.000148143
0.000148147
0.000148151
0.000148154
0.000148157
0.000148159
0.000148161
0.000148163
0.000148165
0.000148166
0.000148167
0.000148168
0.000148169
0.00014817
0.00014817
0.000148171
0.000148171
0.000148172
0.000148172
0.000148173
0.000148173
0.000148173
0.000148173
0.000148173
0.000148174
0.000148174
0.000148174
0.000148174
0.000148174
0.000148174
0.000148174
0.000148174
0.000148174
0.000148174
0.000148174
0.000148174
0.000148175
0.000148175
0.000148175
0.000148175
0.000148175
0.000148175
0.000148175
0.000148175
0.000148175
0.000148175
0.000148175
0.000148175
0.000148175
0.000148175
0.000148175
0.000148175
0.000148175
0.000148175
0.000148175
0.000148175
0.000148175
0.000148175
0.000148175
0.000148175
0.000148175
0.000148175
0.000148175
0.000148175
0.000148175
0.000148175
0.000148175
0.000148175
0.000148175
0.000148175
0.000148175
0.000148175
0.000148175
0.000148175
0.000148175
0.000148175
0.000148175
0.000148175
0.000148175
0.000148175
0.000148175
0.000148175
0.000148175
0.000148175
0.000148175
0.000148175
0.000148175
0.000148175
0.000148175
0.000148175
0.000148175
0.000148175
0.000148175
0.000148175
0.000148175
0.000148175
0.000148175
0.000148175
0.000148175
0.000148175
0.000148175
0.000148175
0.000148175
0.000148175
0.000148175
0.000148175
0.000148175
0.000148175
0.000148175
0.000148175
0.000148175
0.000148175
0.000148175
0.000148175
0.000148175
0.000148175
0.000148175
0.000148175
0.000148175
0.000148175
0.000148175
0.000148175
0.000148175
0.000148175
0.000148175
0.000148175
0.000148175
0.000148175
0.000148175
0.000148175
0.000148175
0.000148175
0.000148175
0.000148175
0.000148175
0.000148175
0.000148175
0.000148175
0.000148175
0.000148175
0.000148175
0.000148175
0.000148175
0.000148175
0.000148175
0.000148175
0.000148175
0.000148175
0.000148175
0.000148175
0.000148175
0.000148175
0.000148175
0.000148175
0.000148175
0.000148175
0.000148175
0.000148175
0.000148175
0.000148175
0.000148175
0.000148175
0.000148175
0.000148175
0.000148175
0.000148175
0.000148175
0.000148175
0.000148175
0.000148175
0.000148175
0.000148175
0.000148175
0.000148175
0.000148175
0.000148175
0.000148175
0.000148175
0.000148175
0.000148175
0.000148175
0.000148175
0.000148175
0.000148175
0.000148175
0.000148175
0.000148175
0.000148175
0.000148175
0.000148175
0.000148175
0.000148175
0.000148175
0.000148175
0.000148175
0.000148175
0.000148175
0.000148175
0.000148175
0.000148175
0.000148175
0.000148175
0.000148175
0.000148175
0.000148175
0.000148175
0.000148175
0.000148175
0.000148175
0.000148175
0.000148175
0.000148175
0.000148175
0.000148175
0.000148175
0.000148175
0.000148175
0.000148175
0.000148175
0.000148175
0.000148175
0.000148175
0.000148175
0.000148175
0.000148175
0.000148175
0.000148175
0.000148175
0.000148175
0.000148175
0.000148175
0.000148175
0.000148175
0.000148175
0.000148175
0.000148175
0.000148175
0.000148175
0.000148175
0.000148175
0.000148175
0.000148175
9.87626e-05
5.09378e-05
3.935e-05
3.76722e-05
4.22978e-05
5.06438e-05
5.53792e-05
6.33272e-05
7.07788e-05
7.9076e-05
8.76685e-05
9.54438e-05
0.000103056
0.000109722
0.000116062
0.000121473
0.000126405
0.000131087
0.000135137
0.000138913
0.00014215
0.000144939
0.000147447
0.000150057
0.000153504
0.000155163
0.000156482
0.000157535
0.000158377
0.000159055
0.000159603
0.00016005
0.000160415
0.000160716
0.000160966
0.000161176
0.000161353
0.000161503
0.000161633
0.000161744
0.000161841
0.000161925
0.000161998
0.000162061
0.000162115
0.000162163
0.000162206
0.000162243
0.000162276
0.000162306
0.000162332
0.000162354
0.000162374
0.000162392
0.000162407
0.000162421
0.000162432
0.000162443
0.000162451
0.000162459
0.000162466
0.000162472
0.000162477
0.000162481
0.000162485
0.000162489
0.000162491
0.000162494
0.000162496
0.000162498
0.000162499
0.000162501
0.000162502
0.000162503
0.000162504
0.000162505
0.000162505
0.000162506
0.000162507
0.000162507
0.000162507
0.000162508
0.000162508
0.000162508
0.000162508
0.000162508
0.000162509
0.000162509
0.000162509
0.000162509
0.000162509
0.000162509
0.000162509
0.000162509
0.000162509
0.000162509
0.000162509
0.000162509
0.000162509
0.000162509
0.000162509
0.000162509
0.000162509
0.000162509
0.000162509
0.000162509
0.000162509
0.000162509
0.000162509
0.000162509
0.000162509
0.000162509
0.000162509
0.000162509
0.000162509
0.000162509
0.000162509
0.000162509
0.000162509
0.000162509
0.000162509
0.000162509
0.000162509
0.000162509
0.000162509
0.000162509
0.000162509
0.000162509
0.000162509
0.000162509
0.000162509
0.000162509
0.000162509
0.000162509
0.000162509
0.000162509
0.000162509
0.000162509
0.000162509
0.000162509
0.000162509
0.000162509
0.000162509
0.000162509
0.000162509
0.000162509
0.000162509
0.000162509
0.000162509
0.000162509
0.000162509
0.000162509
0.000162509
0.000162509
0.000162509
0.000162509
0.000162509
0.000162509
0.000162509
0.000162509
0.000162509
0.000162509
0.000162509
0.000162509
0.000162509
0.000162509
0.000162509
0.000162509
0.000162509
0.000162509
0.000162509
0.000162509
0.000162509
0.000162509
0.000162509
0.000162509
0.000162509
0.000162509
0.000162509
0.000162509
0.000162509
0.000162509
0.000162509
0.000162509
0.000162509
0.000162509
0.000162509
0.000162509
0.000162509
0.000162509
0.000162509
0.000162509
0.000162509
0.000162509
0.000162509
0.000162509
0.000162509
0.000162509
0.000162509
0.000162509
0.000162509
0.000162509
0.000162509
0.000162509
0.000162509
0.000162509
0.000162509
0.000162509
0.000162509
0.000162509
0.000162509
0.000162509
0.000162509
0.000162509
0.000162509
0.000162509
0.000162509
0.000162509
0.000162509
0.000162509
0.000162509
0.000162509
0.000162509
0.000162509
0.000162509
0.000162509
0.000162509
0.000162509
0.000162509
0.000162509
0.000162509
0.000162509
0.000162509
0.000162509
0.000162509
0.000162509
0.000162509
0.000162509
0.000162509
0.000162509
0.000162509
0.000162509
0.000162509
0.000162509
0.000162509
0.000162509
0.000162509
0.000162509
0.000162509
0.000162509
0.000162509
0.000162509
0.000162509
0.000162509
0.000162509
0.000162509
0.000162509
0.000162509
0.000162509
0.000162509
0.000162509
0.000162509
0.000162509
0.000162509
0.000162509
0.000162509
0.000162509
0.000162509
0.000162509
0.000162509
0.000162509
0.000162509
0.000162509
0.000162509
0.000162509
0.000162509
0.000162509
0.000162509
0.000162509
0.000162509
0.000162509
0.000162509
0.000162509
0.000162509
0.000162509
0.000162509
0.000162509
0.000162509
0.000162509
0.000162509
0.000162509
0.000162509
0.000162509
0.000162509
0.000162509
0.000162509
0.000162509
0.000162509
0.000162509
0.000162509
0.000163553
8.23227e-05
5.4772e-05
4.44243e-05
4.20764e-05
4.60096e-05
5.35632e-05
6.06243e-05
6.51449e-05
7.24022e-05
8.00115e-05
8.79331e-05
9.6223e-05
0.000103939
0.000111405
0.000118207
0.00012446
0.000130047
0.000135127
0.000139932
0.000144117
0.000147871
0.00015168
0.000156262
0.000161387
0.000163631
0.000165475
0.000166998
0.00016826
0.000169311
0.000170189
0.000170926
0.000171545
0.000172067
0.000172509