/*--------------------------------*- C++ -*----------------------------------*\
| =========                 |                                                 |
| \\      /  F ield         | foam-extend: Open Source CFD                    |
|  \\    /   O peration     | Version:     3.2                                |
|   \\  /    A nd           | Web:         http://www.foam-extend.org         |
|    \\/     M anipulation  | For copyright notice see file Copyright         |
\*---------------------------------------------------------------------------*/
FoamFile
{
    version     2.0;
    format      ascii;
    class       volScalarField;
    location    "60";
    object      omega;
}
// * * * * * * * * * * * * * * * * * * * * * * * * * * * * * * * * * * * * * //

dimensions      [0 0 -1 0 0 0 0];

internalField   nonuniform List<scalar> 
5400
(
748.427
599.53
518.432
520.566
511.491
512.625
508.759
508.828
507.344
507.995
508.027
509.047
509.883
511.337
512.597
514.343
515.981
517.867
519.687
521.734
523.824
525.967
528.138
530.329
532.524
534.618
536.453
538.012
539.319
540.415
541.33
542.093
542.729
543.259
543.7
544.069
544.376
544.634
544.851
545.034
545.188
545.32
545.434
545.53
545.61
545.677
545.731
545.775
545.819
545.856
545.889
545.917
545.942
545.963
545.982
545.998
546.012
546.025
546.035
546.044
546.052
546.059
546.065
546.07
546.075
546.079
546.082
546.085
546.088
546.09
546.092
546.093
546.095
546.096
546.097
546.098
546.099
546.099
546.1
546.1
546.101
546.101
546.102
546.102
546.102
546.102
546.102
546.103
546.103
546.103
546.103
546.103
546.103
546.103
546.103
546.103
546.103
546.103
546.103
546.103
546.104
546.104
546.104
546.104
546.104
546.104
546.104
546.104
546.104
546.104
546.104
546.104
546.104
546.104
546.104
546.104
546.104
546.104
546.104
546.104
546.104
546.104
546.104
546.104
546.104
546.104
546.104
546.104
546.104
546.104
546.104
546.104
546.104
546.104
546.104
546.104
546.104
546.104
546.104
546.104
546.104
546.104
546.104
546.104
546.104
546.104
546.104
546.104
546.104
546.104
546.104
546.104
546.104
546.104
546.104
546.104
546.104
546.104
546.104
546.104
546.104
546.104
546.104
546.104
546.104
546.104
546.104
546.104
546.104
546.104
546.104
546.104
546.104
546.104
546.104
546.104
546.104
546.104
546.104
546.104
546.104
546.104
546.104
546.104
546.104
546.104
546.104
546.104
546.104
546.104
546.104
546.104
546.104
546.104
546.104
546.104
546.104
546.104
546.104
546.104
546.104
546.104
546.104
546.104
546.104
546.104
546.104
546.104
546.104
546.104
546.104
546.104
546.104
546.104
546.104
546.104
546.104
546.104
546.104
546.104
546.104
546.104
546.104
546.104
546.104
546.104
546.104
546.104
546.104
546.104
546.104
546.104
546.104
546.104
546.104
546.104
546.104
546.104
546.104
546.104
546.104
546.104
546.104
546.104
546.104
546.104
546.104
546.104
546.104
546.104
546.104
546.104
546.104
546.104
546.104
546.104
546.104
546.104
546.104
546.104
546.104
546.104
546.104
546.104
546.104
546.104
546.104
546.104
546.104
546.104
546.104
546.104
546.104
546.104
546.104
546.104
546.104
546.104
546.104
546.104
546.104
546.104
546.104
546.104
546.104
546.104
546.104
546.104
546.104
546.104
546.104
546.104
546.104
546.104
546.104
546.104
546.104
546.104
546.104
546.103
291.903
269.369
236.123
225.607
216.23
212.962
209.389
207.993
206.357
205.837
205.3
205.217
205.219
205.417
205.695
206.138
206.608
207.198
207.786
208.459
209.177
209.932
210.714
211.516
212.345
213.146
213.871
214.506
215.054
215.522
215.921
216.26
216.546
216.787
216.99
217.16
217.304
217.425
217.526
217.613
217.685
217.747
217.8
217.845
217.883
217.915
217.941
217.964
217.984
218.001
218.016
218.028
218.04
218.05
218.059
218.066
218.073
218.078
218.083
218.087
218.09
218.093
218.096
218.098
218.1
218.102
218.104
218.105
218.106
218.107
218.108
218.109
218.109
218.11
218.11
218.111
218.111
218.111
218.112
218.112
218.112
218.112
218.112
218.112
218.113
218.113
218.113
218.113
218.113
218.113
218.113
218.113
218.113
218.113
218.113
218.113
218.113
218.113
218.113
218.113
218.113
218.113
218.113
218.113
218.113
218.113
218.113
218.113
218.113
218.113
218.113
218.113
218.113
218.113
218.113
218.113
218.113
218.113
218.113
218.113
218.113
218.113
218.113
218.113
218.113
218.113
218.113
218.113
218.113
218.113
218.113
218.113
218.113
218.113
218.113
218.113
218.113
218.113
218.113
218.113
218.113
218.113
218.113
218.113
218.113
218.113
218.113
218.113
218.113
218.113
218.113
218.113
218.113
218.113
218.113
218.113
218.113
218.113
218.113
218.113
218.113
218.113
218.113
218.113
218.113
218.113
218.113
218.113
218.113
218.113
218.113
218.113
218.113
218.113
218.113
218.113
218.113
218.113
218.113
218.113
218.113
218.113
218.113
218.113
218.113
218.113
218.113
218.113
218.113
218.113
218.113
218.113
218.113
218.113
218.113
218.113
218.113
218.113
218.113
218.113
218.113
218.113
218.113
218.113
218.113
218.113
218.113
218.113
218.113
218.113
218.113
218.113
218.113
218.113
218.113
218.113
218.113
218.113
218.113
218.113
218.113
218.113
218.113
218.113
218.113
218.113
218.113
218.113
218.113
218.113
218.113
218.113
218.113
218.113
218.113
218.113
218.113
218.113
218.113
218.113
218.113
218.113
218.113
218.113
218.113
218.113
218.113
218.113
218.113
218.113
218.113
218.113
218.113
218.113
218.113
218.113
218.113
218.113
218.113
218.113
218.113
218.113
218.113
218.113
218.113
218.113
218.113
218.113
218.113
218.113
218.113
218.113
218.113
218.113
218.113
218.113
218.113
218.113
218.113
218.113
218.113
218.113
218.113
218.113
218.113
218.113
218.113
218.113
218.113
218.113
218.113
218.113
218.113
218.113
218.113
218.113
218.113
218.113
218.113
218.113
146.09
155.244
150.971
143.567
135.373
131.479
127.899
125.994
124.299
123.371
122.561
122.143
121.844
121.694
121.659
121.711
121.834
122.037
122.27
122.55
122.867
123.217
123.591
123.985
124.399
124.791
125.147
125.464
125.742
125.984
126.192
126.371
126.524
126.654
126.764
126.857
126.936
127.003
127.059
127.107
127.147
127.182
127.211
127.236
127.257
127.275
127.29
127.303
127.313
127.323
127.331
127.338
127.344
127.349
127.354
127.358
127.361
127.364
127.367
127.369
127.371
127.372
127.374
127.375
127.376
127.377
127.378
127.378
127.379
127.379
127.38
127.38
127.381
127.381
127.381
127.381
127.382
127.382
127.382
127.382
127.382
127.382
127.382
127.382
127.382
127.382
127.382
127.382
127.382
127.383
127.383
127.383
127.383
127.383
127.383
127.383
127.383
127.383
127.383
127.383
127.383
127.383
127.383
127.383
127.383
127.383
127.383
127.383
127.383
127.383
127.383
127.383
127.383
127.383
127.383
127.383
127.383
127.383
127.383
127.383
127.383
127.383
127.383
127.383
127.383
127.383
127.383
127.383
127.383
127.383
127.383
127.383
127.383
127.383
127.383
127.383
127.383
127.383
127.383
127.383
127.383
127.383
127.383
127.383
127.383
127.383
127.383
127.383
127.383
127.383
127.383
127.383
127.383
127.383
127.383
127.383
127.383
127.383
127.383
127.383
127.383
127.383
127.383
127.383
127.383
127.383
127.383
127.383
127.383
127.383
127.383
127.383
127.383
127.383
127.383
127.383
127.383
127.383
127.383
127.383
127.383
127.383
127.383
127.383
127.383
127.383
127.383
127.383
127.383
127.383
127.383
127.383
127.383
127.383
127.383
127.383
127.383
127.383
127.383
127.383
127.383
127.383
127.383
127.383
127.383
127.383
127.383
127.383
127.383
127.383
127.383
127.383
127.383
127.383
127.383
127.383
127.383
127.383
127.383
127.383
127.383
127.383
127.383
127.383
127.383
127.383
127.383
127.383
127.383
127.383
127.383
127.383
127.383
127.383
127.383
127.383
127.383
127.383
127.383
127.383
127.383
127.383
127.383
127.383
127.383
127.383
127.383
127.383
127.383
127.383
127.383
127.383
127.383
127.383
127.383
127.383
127.383
127.383
127.383
127.383
127.383
127.383
127.383
127.383
127.383
127.383
127.383
127.383
127.383
127.383
127.383
127.383
127.383
127.383
127.383
127.383
127.383
127.383
127.383
127.383
127.383
127.383
127.383
127.383
127.383
127.383
127.383
127.383
127.383
127.383
127.383
127.383
127.383
127.383
127.383
127.383
127.383
127.383
127.383
127.383
79.1586
101.179
105.757
104.027
100.367
97.2929
94.0738
91.9521
90.1259
88.9077
87.883
87.2375
86.7245
86.383
86.1542
85.9953
85.9273
85.9284
85.9733
86.0561
86.174
86.3226
86.4947
86.6849
86.8854
87.0596
87.2111
87.3449
87.4632
87.5674
87.6584
87.7374
87.8056
87.864
87.914
87.9565
87.9928
88.0236
88.0496
88.0717
88.0904
88.1062
88.1196
88.1312
88.1411
88.1493
88.1562
88.162
88.167
88.1712
88.1748
88.1779
88.1806
88.1829
88.1848
88.1865
88.188
88.1892
88.1904
88.1913
88.1921
88.1928
88.1934
88.194
88.1944
88.1948
88.1949
88.1951
88.1954
88.1956
88.1958
88.196
88.1961
88.1962
88.1964
88.1964
88.1965
88.1966
88.1966
88.1967
88.1968
88.1968
88.1968
88.1968
88.1969
88.1969
88.1969
88.1969
88.1969
88.1969
88.1969
88.1969
88.1969
88.1969
88.1969
88.197
88.197
88.197
88.197
88.197
88.197
88.197
88.197
88.197
88.197
88.197
88.197
88.197
88.197
88.197
88.197
88.197
88.197
88.197
88.197
88.197
88.197
88.197
88.197
88.197
88.197
88.197
88.197
88.197
88.197
88.197
88.197
88.197
88.197
88.197
88.197
88.197
88.1969
88.1969
88.1969
88.1969
88.1969
88.1969
88.1969
88.1969
88.1969
88.1969
88.1969
88.1969
88.1969
88.1969
88.1969
88.1969
88.1969
88.1969
88.1969
88.1969
88.1969
88.1969
88.1969
88.1969
88.1969
88.1969
88.1969
88.1969
88.1969
88.1969
88.1969
88.1969
88.1969
88.1969
88.1969
88.1969
88.1969
88.1969
88.1969
88.1969
88.1969
88.1969
88.1969
88.1969
88.1969
88.1969
88.1969
88.1969
88.1969
88.1969
88.1969
88.1969
88.1969
88.1969
88.1969
88.1969
88.1969
88.1969
88.1969
88.1969
88.1969
88.1969
88.1969
88.1969
88.1969
88.1969
88.1969
88.1969
88.1969
88.1969
88.1969
88.1969
88.1969
88.1969
88.1969
88.1969
88.1969
88.1969
88.1969
88.1969
88.1969
88.1969
88.1969
88.1969
88.1969
88.1969
88.1969
88.1969
88.1969
88.1969
88.1969
88.1969
88.1969
88.1969
88.1969
88.1969
88.1969
88.1969
88.1969
88.1969
88.1969
88.1969
88.1969
88.1969
88.1969
88.1969
88.1969
88.1969
88.1969
88.1969
88.1969
88.1969
88.1969
88.1969
88.1969
88.1969
88.1969
88.1969
88.1969
88.1969
88.1969
88.1969
88.1969
88.1969
88.1969
88.1969
88.1969
88.1969
88.1969
88.1969
88.1969
88.1969
88.1969
88.1969
88.1969
88.1969
88.1969
88.1969
88.1969
88.1969
88.1969
88.1969
88.1969
88.1969
88.1969
88.1969
88.1969
88.1969
88.1969
88.1969
88.1969
88.1969
88.1969
88.1969
88.1969
88.1969
88.1969
88.1969
88.1969
88.1969
88.1969
88.1969
88.1969
88.1969
88.1969
88.1969
88.1969
88.197
43.6168
66.4498
77.0229
78.397
78.7772
77.6836
75.6489
73.8516
72.1204
70.8031
69.6548
68.8361
68.144
67.6554
67.2743
66.9741
66.7731
66.6346
66.5491
66.5006
66.4874
66.5045
66.5433
66.5952
66.6431
66.6611
66.6645
66.6634
66.6618
66.6605
66.6597
66.6592
66.6589
66.6586
66.6585
66.6584
66.6583
66.6583
66.6583
66.6582
66.6581
66.6579
66.6577
66.6576
66.6575
66.6574
66.6572
66.657
66.6568
66.6565
66.6563
66.6561
66.656
66.6558
66.6556
66.6554
66.6553
66.6552
66.6551
66.655
66.6549
66.6549
66.6548
66.6548
66.6547
66.6546
66.6545
66.6545
66.6544
66.6544
66.6544
66.6544
66.6543
66.6544
66.6545
66.6545
66.6545
66.6545
66.6544
66.6544
66.6545
66.6545
66.6544
66.6544
66.6544
66.6544
66.6544
66.6544
66.6544
66.6544
66.6544
66.6544
66.6544
66.6544
66.6544
66.6544
66.6544
66.6544
66.6544
66.6544
66.6544
66.6544
66.6544
66.6544
66.6544
66.6544
66.6544
66.6544
66.6544
66.6544
66.6544
66.6544
66.6544
66.6544
66.6544
66.6544
66.6544
66.6544
66.6544
66.6544
66.6544
66.6544
66.6544
66.6544
66.6544
66.6544
66.6544
66.6544
66.6544
66.6544
66.6544
66.6544
66.6544
66.6544
66.6544
66.6544
66.6544
66.6544
66.6544
66.6544
66.6544
66.6544
66.6544
66.6544
66.6544
66.6544
66.6544
66.6544
66.6544
66.6544
66.6544
66.6544
66.6544
66.6544
66.6544
66.6544
66.6544
66.6544
66.6544
66.6544
66.6544
66.6544
66.6544
66.6544
66.6544
66.6544
66.6544
66.6544
66.6544
66.6544
66.6544
66.6544
66.6544
66.6544
66.6544
66.6544
66.6544
66.6544
66.6544
66.6544
66.6544
66.6544
66.6544
66.6544
66.6544
66.6544
66.6544
66.6544
66.6544
66.6544
66.6544
66.6544
66.6544
66.6544
66.6544
66.6544
66.6544
66.6544
66.6544
66.6544
66.6544
66.6544
66.6544
66.6544
66.6544
66.6544
66.6544
66.6544
66.6544
66.6544
66.6544
66.6544
66.6544
66.6544
66.6544
66.6544
66.6544
66.6544
66.6544
66.6544
66.6544
66.6544
66.6544
66.6544
66.6544
66.6544
66.6544
66.6544
66.6544
66.6544
66.6544
66.6544
66.6544
66.6544
66.6544
66.6544
66.6544
66.6544
66.6544
66.6544
66.6544
66.6544
66.6544
66.6544
66.6544
66.6544
66.6544
66.6544
66.6544
66.6544
66.6544
66.6544
66.6544
66.6544
66.6544
66.6544
66.6544
66.6544
66.6544
66.6544
66.6544
66.6544
66.6544
66.6544
66.6544
66.6544
66.6544
66.6544
66.6544
66.6544
66.6544
66.6544
66.6544
66.6544
66.6544
66.6544
66.6544
66.6544
66.6544
66.6544
66.6544
66.6544
66.6544
66.6544
66.6544
66.6544
66.6544
66.6544
66.6544
66.6544
66.6544
66.6544
66.6544
66.6544
66.6544
66.6544
66.6544
66.6544
66.6544
66.6544
24.1387
42.1809
54.8699
60.3735
63.1015
63.0306
62.8055
62.0028
60.791
59.6708
58.5733
57.7004
56.9202
56.3285
55.8324
55.4328
55.1244
54.8708
54.6808
54.5272
54.4129
54.3284
54.2609
54.1958
54.1064
53.9924
53.8747
53.7639
53.6636
53.5743
53.4957
53.4269
53.3672
53.3155
53.271
53.2328
53.2001
53.1721
53.1483
53.1279
53.1105
53.0956
53.0829
53.0721
53.0629
53.055
53.0482
53.0424
53.0374
53.0331
53.0294
53.0262
53.0234
53.021
53.0189
53.0171
53.0155
53.0142
53.013
53.012
53.0111
53.0103
53.0097
53.0091
53.0086
53.0082
53.0077
53.0075
53.0072
53.0069
53.0067
53.0066
53.0064
53.0063
53.0062
53.0061
53.006
53.006
53.0059
53.0058
53.0058
53.0058
53.0057
53.0057
53.0057
53.0057
53.0056
53.0056
53.0056
53.0056
53.0056
53.0056
53.0056
53.0056
53.0055
53.0055
53.0055
53.0055
53.0055
53.0055
53.0055
53.0055
53.0055
53.0055
53.0055
53.0055
53.0055
53.0055
53.0055
53.0055
53.0055
53.0055
53.0055
53.0055
53.0055
53.0055
53.0055
53.0055
53.0055
53.0055
53.0055
53.0055
53.0055
53.0055
53.0055
53.0055
53.0055
53.0055
53.0055
53.0055
53.0055
53.0055
53.0055
53.0055
53.0055
53.0055
53.0055
53.0055
53.0055
53.0055
53.0055
53.0055
53.0055
53.0055
53.0055
53.0055
53.0055
53.0055
53.0055
53.0055
53.0055
53.0055
53.0055
53.0055
53.0055
53.0055
53.0055
53.0055
53.0055
53.0055
53.0055
53.0055
53.0055
53.0055
53.0055
53.0055
53.0055
53.0055
53.0055
53.0055
53.0055
53.0055
53.0055
53.0055
53.0055
53.0055
53.0055
53.0055
53.0055
53.0055
53.0055
53.0055
53.0055
53.0055
53.0055
53.0055
53.0055
53.0055
53.0055
53.0055
53.0055
53.0055
53.0055
53.0055
53.0055
53.0055
53.0055
53.0055
53.0055
53.0055
53.0055
53.0055
53.0055
53.0055
53.0055
53.0055
53.0055
53.0055
53.0055
53.0055
53.0055
53.0055
53.0055
53.0055
53.0055
53.0055
53.0055
53.0055
53.0055
53.0055
53.0055
53.0055
53.0055
53.0055
53.0055
53.0055
53.0055
53.0055
53.0055
53.0055
53.0055
53.0055
53.0055
53.0055
53.0055
53.0055
53.0055
53.0055
53.0055
53.0055
53.0055
53.0055
53.0055
53.0055
53.0055
53.0055
53.0055
53.0055
53.0055
53.0055
53.0055
53.0055
53.0055
53.0055
53.0055
53.0055
53.0055
53.0055
53.0055
53.0055
53.0055
53.0055
53.0055
53.0055
53.0055
53.0055
53.0055
53.0055
53.0055
53.0055
53.0055
53.0055
53.0055
53.0055
53.0055
53.0055
53.0055
53.0055
53.0055
53.0055
53.0055
53.0055
53.0055
53.0055
53.0055
53.0055
53.0055
53.0055
53.0055
53.0055
53.0055
53.0055
53.0055
53.0055
53.0055
53.0055
53.0054
53.0054
53.0054
53.0055
13.491
25.5395
36.5825
44.8108
50.1559
51.8883
52.6027
52.5112
52.2342
51.6611
50.8689
50.128
49.3946
48.7845
48.2365
47.7812
47.3995
47.0656
46.7954
46.5585
46.3582
46.1842
46.0178
45.8347
45.6009
45.369
45.1488
44.9459
44.7625
44.5986
44.4535
44.3259
44.2146
44.118
44.0345
43.9625
43.9008
43.8479
43.8028
43.7642
43.7312
43.7031
43.679
43.6585
43.641
43.6261
43.6134
43.6025
43.5932
43.5852
43.5783
43.5724
43.5673
43.5629
43.559
43.5557
43.5529
43.5504
43.5483
43.5465
43.5449
43.5435
43.5423
43.5413
43.5404
43.5396
43.5389
43.5384
43.5379
43.5375
43.5371
43.5368
43.5365
43.5363
43.536
43.5358
43.5357
43.5356
43.5354
43.5353
43.5353
43.5352
43.5351
43.5351
43.535
43.535
43.5349
43.5349
43.5348
43.5348
43.5348
43.5348
43.5348
43.5347
43.5347
43.5347
43.5347
43.5347
43.5347
43.5347
43.5347
43.5347
43.5347
43.5347
43.5347
43.5347
43.5347
43.5347
43.5347
43.5347
43.5347
43.5347
43.5346
43.5346
43.5346
43.5346
43.5346
43.5346
43.5346
43.5346
43.5346
43.5346
43.5346
43.5346
43.5346
43.5346
43.5346
43.5346
43.5346
43.5346
43.5346
43.5346
43.5346
43.5346
43.5346
43.5346
43.5346
43.5346
43.5346
43.5346
43.5346
43.5346
43.5346
43.5346
43.5346
43.5346
43.5346
43.5346
43.5346
43.5346
43.5346
43.5346
43.5346
43.5346
43.5346
43.5346
43.5346
43.5346
43.5346
43.5346
43.5346
43.5346
43.5346
43.5346
43.5346
43.5346
43.5346
43.5346
43.5346
43.5346
43.5346
43.5346
43.5346
43.5346
43.5346
43.5346
43.5346
43.5346
43.5346
43.5346
43.5346
43.5346
43.5346
43.5346
43.5346
43.5346
43.5346
43.5346
43.5346
43.5346
43.5346
43.5346
43.5346
43.5346
43.5346
43.5346
43.5346
43.5346
43.5346
43.5346
43.5346
43.5346
43.5346
43.5346
43.5346
43.5346
43.5346
43.5346
43.5346
43.5346
43.5346
43.5346
43.5346
43.5346
43.5346
43.5346
43.5346
43.5346
43.5346
43.5346
43.5346
43.5346
43.5346
43.5346
43.5346
43.5346
43.5346
43.5346
43.5346
43.5346
43.5346
43.5346
43.5346
43.5346
43.5346
43.5346
43.5346
43.5346
43.5346
43.5346
43.5346
43.5346
43.5346
43.5346
43.5346
43.5346
43.5346
43.5346
43.5346
43.5346
43.5346
43.5346
43.5346
43.5346
43.5346
43.5346
43.5346
43.5346
43.5346
43.5346
43.5346
43.5346
43.5346
43.5346
43.5346
43.5346
43.5346
43.5346
43.5346
43.5346
43.5346
43.5346
43.5346
43.5346
43.5346
43.5346
43.5346
43.5346
43.5346
43.5346
43.5346
43.5346
43.5346
43.5346
43.5346
43.5346
43.5346
43.5346
43.5346
43.5346
43.5346
43.5346
43.5346
43.5346
43.5346
43.5346
43.5346
43.5346
43.5346
43.5346
7.41599
15.3263
22.9098
30.883
37.904
41.9633
44.1653
44.8122
44.9832
44.899
44.6745
44.286
43.7596
43.2537
42.7471
42.292
41.8843
41.5166
41.1947
40.8966
40.6222
40.3614
40.0892
39.7796
39.4219
39.0918
38.7872
38.5086
38.2564
38.0306
37.83
37.6534
37.4989
37.3644
37.248
37.1476
37.0613
36.9872
36.9239
36.8697
36.8235
36.7839
36.7502
36.7213
36.6967
36.6757
36.6579
36.6426
36.6296
36.6184
36.6088
36.6006
36.5935
36.5874
36.5821
36.5775
36.5736
36.5702
36.5673
36.5648
36.5626
36.5607
36.5591
36.5577
36.5564
36.5554
36.5545
36.5537
36.553
36.5524
36.5519
36.5515
36.5511
36.5508
36.5505
36.5502
36.55
36.5499
36.5497
36.5496
36.5494
36.5494
36.5493
36.5492
36.5491
36.5491
36.549
36.5489
36.5489
36.5489
36.5489
36.5488
36.5488
36.5488
36.5488
36.5488
36.5488
36.5488
36.5488
36.5488
36.5488
36.5488
36.5488
36.5488
36.5488
36.5488
36.5488
36.5488
36.5488
36.5488
36.5488
36.5487
36.5487
36.5487
36.5487
36.5487
36.5487
36.5487
36.5487
36.5487
36.5487
36.5487
36.5487
36.5487
36.5487
36.5487
36.5487
36.5487
36.5487
36.5487
36.5487
36.5487
36.5487
36.5487
36.5487
36.5487
36.5487
36.5487
36.5487
36.5487
36.5487
36.5487
36.5487
36.5487
36.5487
36.5487
36.5487
36.5487
36.5487
36.5487
36.5487
36.5487
36.5487
36.5487
36.5487
36.5487
36.5487
36.5487
36.5487
36.5487
36.5487
36.5487
36.5487
36.5487
36.5487
36.5487
36.5487
36.5487
36.5487
36.5487
36.5487
36.5487
36.5487
36.5487
36.5487
36.5487
36.5487
36.5487
36.5487
36.5487
36.5487
36.5487
36.5487
36.5487
36.5487
36.5487
36.5487
36.5487
36.5487
36.5487
36.5487
36.5487
36.5487
36.5487
36.5487
36.5487
36.5487
36.5487
36.5487
36.5487
36.5487
36.5487
36.5487
36.5487
36.5487
36.5487
36.5487
36.5487
36.5487
36.5487
36.5487
36.5487
36.5487
36.5487
36.5487
36.5487
36.5487
36.5487
36.5487
36.5487
36.5487
36.5487
36.5487
36.5487
36.5487
36.5487
36.5487
36.5487
36.5487
36.5487
36.5487
36.5487
36.5487
36.5487
36.5487
36.5487
36.5487
36.5487
36.5487
36.5487
36.5487
36.5487
36.5487
36.5487
36.5487
36.5487
36.5487
36.5487
36.5487
36.5487
36.5487
36.5487
36.5487
36.5487
36.5487
36.5487
36.5487
36.5487
36.5487
36.5487
36.5487
36.5487
36.5487
36.5487
36.5487
36.5487
36.5487
36.5487
36.5487
36.5487
36.5487
36.5487
36.5487
36.5487
36.5487
36.5487
36.5487
36.5487
36.5487
36.5487
36.5487
36.5487
36.5487
36.5487
36.5487
36.5487
36.5487
36.5487
36.5487
36.5487
36.5487
36.5487
36.5487
36.5487
36.5487
36.5487
36.5487
36.5487
36.5487
36.5487
4.38623
8.90443
14.1351
19.9725
26.5712
32.1469
35.9987
37.9726
38.9093
39.1986
39.2349
39.1604
39.0013
38.7431
38.3894
38.015
37.6395
37.2818
36.939
36.6013
36.2633
35.9138
35.5298
35.1047
34.6744
34.2744
33.9056
33.5679
33.2617
32.9871
32.743
32.5278
32.3394
32.1754
32.0332
31.9105
31.8048
31.7141
31.6364
31.5699
31.5131
31.4646
31.4231
31.3876
31.3574
31.3316
31.3097
31.2909
31.2749
31.2612
31.2495
31.2394
31.2307
31.2233
31.2168
31.2113
31.2065
31.2024
31.1989
31.1958
31.1932
31.1909
31.1889
31.1872
31.1857
31.1845
31.1834
31.1824
31.1816
31.1809
31.1803
31.1798
31.1793
31.1789
31.1786
31.1783
31.178
31.1778
31.1776
31.1775
31.1773
31.1772
31.1771
31.177
31.1769
31.1769
31.1768
31.1768
31.1767
31.1767
31.1767
31.1767
31.1766
31.1766
31.1766
31.1766
31.1766
31.1766
31.1766
31.1766
31.1766
31.1766
31.1765
31.1765
31.1765
31.1765
31.1765
31.1765
31.1765
31.1765
31.1765
31.1765
31.1765
31.1765
31.1765
31.1765
31.1765
31.1765
31.1765
31.1765
31.1765
31.1765
31.1765
31.1765
31.1765
31.1765
31.1765
31.1765
31.1765
31.1765
31.1765
31.1765
31.1765
31.1765
31.1765
31.1765
31.1765
31.1765
31.1765
31.1765
31.1765
31.1765
31.1765
31.1765
31.1765
31.1765
31.1765
31.1765
31.1765
31.1765
31.1765
31.1765
31.1765
31.1765
31.1765
31.1765
31.1765
31.1765
31.1765
31.1765
31.1765
31.1765
31.1765
31.1765
31.1765
31.1765
31.1765
31.1765
31.1765
31.1765
31.1765
31.1765
31.1765
31.1765
31.1765
31.1765
31.1765
31.1765
31.1765
31.1765
31.1765
31.1765
31.1765
31.1765
31.1765
31.1765
31.1765
31.1765
31.1765
31.1765
31.1765
31.1765
31.1765
31.1765
31.1765
31.1765
31.1765
31.1765
31.1765
31.1765
31.1765
31.1765
31.1765
31.1765
31.1765
31.1765
31.1765
31.1765
31.1765
31.1765
31.1765
31.1765
31.1765
31.1765
31.1765
31.1765
31.1765
31.1765
31.1765
31.1765
31.1765
31.1765
31.1765
31.1765
31.1765
31.1765
31.1765
31.1765
31.1765
31.1765
31.1765
31.1765
31.1765
31.1765
31.1765
31.1765
31.1765
31.1765
31.1765
31.1765
31.1765
31.1765
31.1765
31.1765
31.1765
31.1765
31.1765
31.1765
31.1765
31.1765
31.1765
31.1765
31.1765
31.1765
31.1765
31.1765
31.1765
31.1765
31.1765
31.1765
31.1765
31.1765
31.1765
31.1765
31.1765
31.1765
31.1765
31.1765
31.1765
31.1765
31.1765
31.1765
31.1765
31.1765
31.1765
31.1765
31.1765
31.1765
31.1765
31.1765
31.1765
31.1765
31.1765
31.1765
31.1765
31.1765
31.1765
31.1765
31.1765
31.1765
31.1765
31.1765
31.1765
31.1765
31.1765
31.1765
31.1765
31.1765
31.1765
31.1765
2.95918
5.40122
8.56126
12.7413
17.5872
22.9581
27.7469
31.0897
33.1388
34.1421
34.6117
34.7455
34.7447
34.6705
34.5538
34.3582
34.0898
33.7864
33.4553
33.1028
32.7131
32.2822
31.806
31.3163
30.8571
30.4155
30.0034
29.6242
29.2797
28.9705
28.6958
28.4537
28.2417
28.0572
27.8972
27.759
27.6399
27.5376
27.4499
27.3748
27.3107
27.2558
27.2088
27.1687
27.1344
27.1052
27.0804
27.0592
27.0411
27.0256
27.0124
27.001
26.9912
26.9828
26.9756
26.9694
26.964
26.9594
26.9554
26.952
26.9491
26.9465
26.9443
26.9424
26.9408
26.9394
26.9381
26.9371
26.9362
26.9354
26.9347
26.9341
26.9336
26.9332
26.9328
26.9325
26.9322
26.932
26.9318
26.9316
26.9314
26.9313
26.9312
26.9311
26.931
26.9309
26.9309
26.9308
26.9308
26.9307
26.9307
26.9307
26.9307
26.9306
26.9306
26.9306
26.9306
26.9306
26.9306
26.9305
26.9305
26.9305
26.9305
26.9305
26.9305
26.9305
26.9305
26.9305
26.9305
26.9305
26.9305
26.9305
26.9304
26.9304
26.9304
26.9304
26.9304
26.9304
26.9304
26.9304
26.9304
26.9304
26.9304
26.9304
26.9304
26.9304
26.9304
26.9304
26.9304
26.9304
26.9304
26.9304
26.9304
26.9304
26.9304
26.9304
26.9304
26.9304
26.9304
26.9304
26.9304
26.9304
26.9304
26.9304
26.9304
26.9304
26.9304
26.9304
26.9304
26.9304
26.9304
26.9304
26.9304
26.9304
26.9304
26.9304
26.9304
26.9304
26.9304
26.9304
26.9304
26.9304
26.9304
26.9304
26.9304
26.9304
26.9304
26.9304
26.9304
26.9304
26.9304
26.9304
26.9304
26.9304
26.9304
26.9304
26.9304
26.9304
26.9304
26.9304
26.9304
26.9304
26.9304
26.9304
26.9304
26.9304
26.9304
26.9304
26.9304
26.9304
26.9304
26.9304
26.9304
26.9304
26.9304
26.9304
26.9304
26.9304
26.9304
26.9304
26.9304
26.9304
26.9304
26.9304
26.9304
26.9304
26.9304
26.9304
26.9304
26.9304
26.9304
26.9304
26.9304
26.9304
26.9304
26.9304
26.9304
26.9304
26.9304
26.9304
26.9304
26.9304
26.9304
26.9304
26.9304
26.9304
26.9304
26.9304
26.9304
26.9304
26.9304
26.9304
26.9304
26.9304
26.9304
26.9304
26.9304
26.9304
26.9304
26.9304
26.9304
26.9304
26.9304
26.9304
26.9304
26.9304
26.9304
26.9304
26.9304
26.9304
26.9304
26.9304
26.9304
26.9304
26.9304
26.9304
26.9304
26.9304
26.9304
26.9304
26.9304
26.9304
26.9304
26.9304
26.9304
26.9304
26.9304
26.9304
26.9304
26.9304
26.9304
26.9304
26.9304
26.9304
26.9304
26.9304
26.9304
26.9304
26.9304
26.9304
26.9304
26.9304
26.9304
26.9304
26.9304
26.9304
26.9304
26.9304
26.9304
26.9304
26.9304
26.9304
26.9304
26.9304
26.9304
26.9304
26.9304
26.9304
26.9304
26.9304
2.13576
3.61676
5.39284
8.1074
11.5899
15.633
20.0702
24.1026
27.1615
29.0981
30.2658
30.8174
31.0766
31.1317
31.1069
31.0075
30.8547
30.648
30.3683
30.029
29.6164
29.1431
28.6374
28.1478
27.6785
27.2185
26.7834
26.3808
26.0145
25.6859
25.3942
25.1375
24.9129
24.7174
24.5479
24.4014
24.2751
24.1665
24.0733
23.9935
23.9252
23.8667
23.8167
23.7738
23.7373
23.7062
23.6797
23.6571
23.6378
23.6213
23.6071
23.595
23.5846
23.5757
23.568
23.5615
23.5558
23.5509
23.5467
23.5431
23.54
23.5373
23.535
23.533
23.5313
23.5298
23.5285
23.5274
23.5265
23.5256
23.5249
23.5243
23.5238
23.5233
23.5229
23.5226
23.5223
23.5221
23.5218
23.5217
23.5215
23.5214
23.5212
23.5211
23.521
23.521
23.5209
23.5208
23.5208
23.5208
23.5207
23.5207
23.5207
23.5207
23.5206
23.5206
23.5206
23.5206
23.5206
23.5206
23.5205
23.5205
23.5205
23.5205
23.5205
23.5205
23.5205
23.5205
23.5205
23.5205
23.5205
23.5205
23.5205
23.5205
23.5205
23.5205
23.5205
23.5205
23.5205
23.5205
23.5205
23.5205
23.5205
23.5205
23.5205
23.5205
23.5205
23.5205
23.5205
23.5205
23.5205
23.5205
23.5205
23.5205
23.5205
23.5205
23.5205
23.5205
23.5205
23.5205
23.5205
23.5205
23.5205
23.5205
23.5205
23.5205
23.5205
23.5205
23.5205
23.5205
23.5205
23.5205
23.5205
23.5205
23.5205
23.5205
23.5205
23.5205
23.5205
23.5205
23.5205
23.5205
23.5205
23.5205
23.5205
23.5205
23.5205
23.5205
23.5205
23.5205
23.5205
23.5205
23.5205
23.5205
23.5205
23.5205
23.5205
23.5205
23.5205
23.5205
23.5205
23.5205
23.5205
23.5205
23.5205
23.5205
23.5205
23.5205
23.5205
23.5205
23.5205
23.5205
23.5205
23.5205
23.5205
23.5205
23.5205
23.5205
23.5205
23.5205
23.5205
23.5205
23.5205
23.5205
23.5205
23.5205
23.5205
23.5205
23.5205
23.5205
23.5205
23.5205
23.5205
23.5205
23.5205
23.5205
23.5205
23.5205
23.5205
23.5205
23.5205
23.5205
23.5205
23.5205
23.5205
23.5205
23.5205
23.5205
23.5205
23.5205
23.5205
23.5205
23.5205
23.5205
23.5205
23.5205
23.5205
23.5205
23.5205
23.5205
23.5205
23.5205
23.5205
23.5205
23.5205
23.5205
23.5205
23.5205
23.5205
23.5205
23.5205
23.5205
23.5205
23.5205
23.5205
23.5205
23.5205
23.5205
23.5205
23.5205
23.5205
23.5205
23.5205
23.5205
23.5205
23.5205
23.5205
23.5205
23.5205
23.5205
23.5205
23.5205
23.5205
23.5205
23.5205
23.5205
23.5205
23.5205
23.5205
23.5205
23.5205
23.5205
23.5205
23.5205
23.5205
23.5205
23.5205
23.5205
23.5205
23.5205
23.5205
23.5205
23.5205
23.5205
23.5205
23.5205
23.5205
23.5205
23.5205
23.5205
1.57956
2.62527
3.73027
5.33091
7.74412
10.6699
14.0133
17.7016
21.1392
23.8688
25.7824
26.9556
27.6542
27.9761
28.1075
28.0897
27.9816
27.7987
27.5362
27.2086
26.8076
26.3621
25.896
25.4311
24.9653
24.5055
24.0663
23.6583
23.2871
22.9546
22.66
22.4011
22.1747
21.9776
21.8066
21.6588
21.5312
21.4213
21.327
21.246
21.1767
21.1173
21.0663
21.0227
20.9855
20.9539
20.9268
20.9038
20.8841
20.8673
20.8529
20.8406
20.83
20.821
20.8132
20.8065
20.8008
20.7959
20.7916
20.788
20.7849
20.7822
20.7798
20.7778
20.7761
20.7746
20.7733
20.7722
20.7713
20.7705
20.7698
20.7691
20.7686
20.7682
20.7678
20.7674
20.7671
20.7669
20.7667
20.7665
20.7663
20.7662
20.7661
20.766
20.7659
20.7658
20.7657
20.7657
20.7656
20.7656
20.7655
20.7655
20.7655
20.7655
20.7655
20.7654
20.7654
20.7654
20.7654
20.7654
20.7654
20.7654
20.7654
20.7653
20.7653
20.7653
20.7653
20.7653
20.7653
20.7653
20.7653
20.7653
20.7653
20.7653
20.7653
20.7653
20.7653
20.7653
20.7653
20.7653
20.7653
20.7653
20.7653
20.7653
20.7653
20.7653
20.7653
20.7653
20.7653
20.7653
20.7653
20.7653
20.7653
20.7653
20.7653
20.7653
20.7653
20.7653
20.7653
20.7653
20.7653
20.7653
20.7653
20.7653
20.7653
20.7653
20.7653
20.7653
20.7653
20.7653
20.7653
20.7653
20.7653
20.7653
20.7653
20.7653
20.7653
20.7653
20.7653
20.7653
20.7653
20.7653
20.7653
20.7653
20.7653
20.7653
20.7653
20.7653
20.7653
20.7653
20.7653
20.7653
20.7653
20.7653
20.7653
20.7653
20.7653
20.7653
20.7653
20.7653
20.7653
20.7653
20.7653
20.7653
20.7653
20.7653
20.7653
20.7653
20.7653
20.7653
20.7653
20.7653
20.7653
20.7653
20.7653
20.7653
20.7653
20.7653
20.7653
20.7653
20.7653
20.7653
20.7653
20.7653
20.7653
20.7653
20.7653
20.7653
20.7653
20.7653
20.7653
20.7653
20.7653
20.7653
20.7653
20.7653
20.7653
20.7653
20.7653
20.7653
20.7653
20.7653
20.7653
20.7653
20.7653
20.7653
20.7653
20.7653
20.7653
20.7653
20.7653
20.7653
20.7653
20.7653
20.7653
20.7653
20.7653
20.7653
20.7653
20.7653
20.7653
20.7653
20.7653
20.7653
20.7653
20.7653
20.7653
20.7653
20.7653
20.7653
20.7653
20.7653
20.7653
20.7653
20.7653
20.7653
20.7653
20.7653
20.7653
20.7653
20.7653
20.7653
20.7653
20.7653
20.7653
20.7653
20.7653
20.7653
20.7653
20.7653
20.7653
20.7653
20.7653
20.7653
20.7653
20.7653
20.7653
20.7653
20.7653
20.7653
20.7653
20.7653
20.7653
20.7653
20.7653
20.7653
20.7653
20.7653
20.7653
20.7653
20.7653
20.7653
20.7653
20.7653
20.7653
20.7653
20.7653
20.7653
20.7653
20.7653
1.19494
2.03813
2.79852
3.81463
5.31208
7.46221
9.8958
12.6964
15.746
18.6835
21.1365
22.9579
24.1765
24.9116
25.327
25.4898
25.4769
25.3326
25.0869
24.7678
24.383
23.9642
23.527
23.0778
22.6249
22.1778
21.7502
21.3531
20.993
20.6714
20.387
20.1372
19.9188
19.7285
19.5632
19.4199
19.2961
19.1893
19.0974
19.0184
18.9507
18.8925
18.8426
18.7998
18.7633
18.7322
18.7056
18.683
18.6636
18.6471
18.633
18.6209
18.6105
18.6016
18.594
18.5875
18.5819
18.5771
18.573
18.5694
18.5664
18.5638
18.5615