/*--------------------------------*- C++ -*----------------------------------*\
| =========                 |                                                 |
| \\      /  F ield         | foam-extend: Open Source CFD                    |
|  \\    /   O peration     | Version:     3.2                                |
|   \\  /    A nd           | Web:         http://www.foam-extend.org         |
|    \\/     M anipulation  | For copyright notice see file Copyright         |
\*---------------------------------------------------------------------------*/
FoamFile
{
    version     2.0;
    format      ascii;
    class       volScalarField;
    location    "60";
    object      p;
}
// * * * * * * * * * * * * * * * * * * * * * * * * * * * * * * * * * * * * * //

dimensions      [1 -1 -2 0 0 0 0];

internalField   nonuniform List<scalar> 
5400
(
1533.9
1499.15
1509.61
1497.17
1499.04
1493.07
1492.26
1488.27
1486.87
1483.77
1482.13
1479.55
1477.79
1475.53
1473.68
1471.62
1469.73
1467.73
1465.85
1463.89
1461.95
1459.96
1457.96
1455.89
1453.8
1451.63
1449.4
1447.1
1444.74
1442.34
1439.89
1437.41
1434.91
1432.37
1429.82
1427.25
1424.67
1422.08
1419.47
1416.86
1414.24
1411.62
1408.99
1406.35
1403.71
1401.07
1398.43
1395.79
1393.14
1390.49
1387.84
1385.19
1382.54
1379.89
1377.23
1374.58
1371.92
1369.27
1366.61
1363.96
1361.3
1358.65
1355.99
1353.33
1350.67
1348.02
1345.36
1342.7
1340.05
1337.39
1334.73
1332.07
1329.41
1326.76
1324.1
1321.44
1318.78
1316.12
1313.47
1310.81
1308.15
1305.49
1302.83
1300.18
1297.52
1294.86
1292.2
1289.54
1286.88
1284.23
1281.57
1278.91
1276.25
1273.59
1270.93
1268.28
1265.62
1262.96
1260.3
1257.64
1254.99
1252.33
1249.67
1247.01
1244.35
1241.69
1239.04
1236.38
1233.72
1231.06
1228.4
1225.74
1223.09
1220.43
1217.77
1215.11
1212.45
1209.8
1207.14
1204.48
1201.82
1199.16
1196.5
1193.85
1191.19
1188.53
1185.87
1183.21
1180.55
1177.9
1175.24
1172.58
1169.92
1167.26
1164.6
1161.95
1159.29
1156.63
1153.97
1151.31
1148.66
1146
1143.34
1140.68
1138.02
1135.36
1132.71
1130.05
1127.39
1124.73
1122.07
1119.41
1116.76
1114.1
1111.44
1108.78
1106.12
1103.47
1100.81
1098.15
1095.49
1092.83
1090.17
1087.52
1084.86
1082.2
1079.54
1076.88
1074.22
1071.57
1068.91
1066.25
1063.59
1060.93
1058.27
1055.62
1052.96
1050.3
1047.64
1044.98
1042.33
1039.67
1037.01
1034.35
1031.69
1029.03
1026.38
1023.72
1021.06
1018.4
1015.74
1013.08
1010.43
1007.77
1005.11
1002.45
999.793
997.135
994.477
991.819
989.16
986.502
983.844
981.186
978.527
975.869
973.211
970.553
967.894
965.236
962.578
959.92
957.261
954.603
951.945
949.287
946.628
943.97
941.312
938.654
935.995
933.337
930.679
928.021
925.362
922.704
920.046
917.388
914.729
912.071
909.413
906.755
904.096
901.438
898.78
896.122
893.463
890.805
888.147
885.489
882.83
880.172
877.514
874.856
872.197
869.539
866.881
864.223
861.564
858.906
856.248
853.59
850.931
848.273
845.615
842.957
840.298
837.64
834.982
832.324
829.665
827.007
824.349
821.691
819.032
816.374
813.716
811.058
808.399
805.741
803.083
800.425
797.766
795.108
792.45
789.792
787.133
784.475
781.817
779.159
776.5
773.842
771.184
768.526
765.867
763.209
760.551
757.893
755.234
752.576
749.918
747.26
744.601
741.943
739.285
736.627
733.968
731.31
728.652
725.993
1517.56
1482.94
1493.35
1480.89
1482.76
1476.79
1475.97
1471.98
1470.58
1467.49
1465.85
1463.27
1461.5
1459.24
1457.39
1455.33
1453.44
1451.45
1449.56
1447.61
1445.67
1443.67
1441.67
1439.61
1437.52
1435.35
1433.11
1430.81
1428.45
1426.05
1423.61
1421.13
1418.62
1416.09
1413.54
1410.97
1408.39
1405.79
1403.19
1400.58
1397.96
1395.33
1392.7
1390.07
1387.43
1384.79
1382.15
1379.5
1376.86
1374.21
1371.56
1368.91
1366.25
1363.6
1360.95
1358.29
1355.64
1352.99
1350.33
1347.67
1345.02
1342.36
1339.7
1337.05
1334.39
1331.73
1329.08
1326.42
1323.76
1321.1
1318.45
1315.79
1313.13
1310.47
1307.81
1305.16
1302.5
1299.84
1297.18
1294.52
1291.87
1289.21
1286.55
1283.89
1281.23
1278.57
1275.92
1273.26
1270.6
1267.94
1265.28
1262.62
1259.97
1257.31
1254.65
1251.99
1249.33
1246.68
1244.02
1241.36
1238.7
1236.04
1233.38
1230.73
1228.07
1225.41
1222.75
1220.09
1217.43
1214.78
1212.12
1209.46
1206.8
1204.14
1201.49
1198.83
1196.17
1193.51
1190.85
1188.19
1185.54
1182.88
1180.22
1177.56
1174.9
1172.24
1169.59
1166.93
1164.27
1161.61
1158.95
1156.3
1153.64
1150.98
1148.32
1145.66
1143
1140.35
1137.69
1135.03
1132.37
1129.71
1127.05
1124.4
1121.74
1119.08
1116.42
1113.76
1111.1
1108.45
1105.79
1103.13
1100.47
1097.81
1095.16
1092.5
1089.84
1087.18
1084.52
1081.86
1079.21
1076.55
1073.89
1071.23
1068.57
1065.91
1063.26
1060.6
1057.94
1055.28
1052.62
1049.97
1047.31
1044.65
1041.99
1039.33
1036.67
1034.02
1031.36
1028.7
1026.04
1023.38
1020.72
1018.07
1015.41
1012.75
1010.09
1007.43
1004.77
1002.12
999.458
996.8
994.142
991.484
988.825
986.167
983.509
980.851
978.192
975.534
972.876
970.218
967.559
964.901
962.243
959.585
956.926
954.268
951.61
948.952
946.293
943.635
940.977
938.319
935.66
933.002
930.344
927.686
925.027
922.369
919.711
917.053
914.394
911.736
909.078
906.42
903.761
901.103
898.445
895.787
893.128
890.47
887.812
885.154
882.495
879.837
877.179
874.521
871.862
869.204
866.546
863.888
861.229
858.571
855.913
853.255
850.596
847.938
845.28
842.622
839.963
837.305
834.647
831.989
829.33
826.672
824.014
821.356
818.697
816.039
813.381
810.723
808.064
805.406
802.748
800.09
797.431
794.773
792.115
789.457
786.798
784.14
781.482
778.824
776.165
773.507
770.849
768.191
765.532
762.874
760.216
757.558
754.899
752.241
749.583
746.925
744.266
741.608
738.95
736.292
733.633
730.975
728.317
725.659
723
720.342
717.684
715.026
712.367
709.709
1501.07
1466.76
1477.12
1464.62
1466.49
1460.51
1459.69
1455.7
1454.3
1451.2
1449.56
1446.98
1445.22
1442.96
1441.11
1439.05
1437.15
1435.16
1433.28
1431.32
1429.38
1427.39
1425.39
1423.32
1421.23
1419.06
1416.83
1414.52
1412.17
1409.76
1407.32
1404.84
1402.34
1399.8
1397.25
1394.68
1392.1
1389.51
1386.9
1384.29
1381.67
1379.05
1376.42
1373.78
1371.15
1368.51
1365.86
1363.22
1360.57
1357.92
1355.27
1352.62
1349.97
1347.32
1344.66
1342.01
1339.36
1336.7
1334.05
1331.39
1328.73
1326.08
1323.42
1320.76
1318.11
1315.45
1312.79
1310.13
1307.48
1304.82
1302.16
1299.5
1296.85
1294.19
1291.53
1288.87
1286.21
1283.56
1280.9
1278.24
1275.58
1272.92
1270.26
1267.61
1264.95
1262.29
1259.63
1256.97
1254.32
1251.66
1249
1246.34
1243.68
1241.02
1238.37
1235.71
1233.05
1230.39
1227.73
1225.07
1222.42
1219.76
1217.1
1214.44
1211.78
1209.13
1206.47
1203.81
1201.15
1198.49
1195.83
1193.18
1190.52
1187.86
1185.2
1182.54
1179.88
1177.23
1174.57
1171.91
1169.25
1166.59
1163.93
1161.28
1158.62
1155.96
1153.3
1150.64
1147.99
1145.33
1142.67
1140.01
1137.35
1134.69
1132.04
1129.38
1126.72
1124.06
1121.4
1118.74
1116.09
1113.43
1110.77
1108.11
1105.45
1102.8
1100.14
1097.48
1094.82
1092.16
1089.5
1086.85
1084.19
1081.53
1078.87
1076.21
1073.55
1070.9
1068.24
1065.58
1062.92
1060.26
1057.6
1054.95
1052.29
1049.63
1046.97
1044.31
1041.66
1039
1036.34
1033.68
1031.02
1028.36
1025.71
1023.05
1020.39
1017.73
1015.07
1012.41
1009.76
1007.1
1004.44
1001.78
999.123
996.465
993.807
991.149
988.49
985.832
983.174
980.516
977.857
975.199
972.541
969.883
967.224
964.566
961.908
959.25
956.591
953.933
951.275
948.617
945.958
943.3
940.642
937.984
935.325
932.667
930.009
927.351
924.692
922.034
919.376
916.718
914.059
911.401
908.743
906.085
903.426
900.768
898.11
895.452
892.793
890.135
887.477
884.819
882.16
879.502
876.844
874.186
871.527
868.869
866.211
863.553
860.894
858.236
855.578
852.92
850.261
847.603
844.945
842.287
839.628
836.97
834.312
831.654
828.995
826.337
823.679
821.021
818.363
815.704
813.046
810.388
807.73
805.071
802.413
799.755
797.097
794.438
791.78
789.122
786.464
783.805
781.147
778.489
775.831
773.172
770.514
767.856
765.198
762.539
759.881
757.223
754.565
751.906
749.248
746.59
743.932
741.273
738.615
735.957
733.299
730.64
727.982
725.324
722.666
720.007
717.349
714.691
712.033
709.374
706.716
704.058
701.4
698.741
696.083
693.425
1484.59
1450.6
1460.88
1448.37
1450.22
1444.24
1443.42
1439.42
1438.02
1434.92
1433.28
1430.7
1428.94
1426.68
1424.82
1422.76
1420.87
1418.88
1416.99
1415.04
1413.1
1411.1
1409.1
1407.04
1404.94
1402.78
1400.54
1398.24
1395.88
1393.48
1391.04
1388.56
1386.05
1383.52
1380.97
1378.4
1375.82
1373.22
1370.62
1368.01
1365.39
1362.76
1360.13
1357.5
1354.86
1352.22
1349.58
1346.93
1344.29
1341.64
1338.99
1336.34
1333.69
1331.03
1328.38
1325.73
1323.07
1320.42
1317.76
1315.1
1312.45
1309.79
1307.14
1304.48
1301.82
1299.16
1296.51
1293.85
1291.19
1288.53
1285.88
1283.22
1280.56
1277.9
1275.24
1272.59
1269.93
1267.27
1264.61
1261.95
1259.3
1256.64
1253.98
1251.32
1248.66
1246
1243.35
1240.69
1238.03
1235.37
1232.71
1230.06
1227.4
1224.74
1222.08
1219.42
1216.76
1214.11
1211.45
1208.79
1206.13
1203.47
1200.81
1198.16
1195.5
1192.84
1190.18
1187.52
1184.87
1182.21
1179.55
1176.89
1174.23
1171.57
1168.92
1166.26
1163.6
1160.94
1158.28
1155.62
1152.97
1150.31
1147.65
1144.99
1142.33
1139.68
1137.02
1134.36
1131.7
1129.04
1126.38
1123.73
1121.07
1118.41
1115.75
1113.09
1110.43
1107.78
1105.12
1102.46
1099.8
1097.14
1094.48
1091.83
1089.17
1086.51
1083.85
1081.19
1078.54
1075.88
1073.22
1070.56
1067.9
1065.24
1062.59
1059.93
1057.27
1054.61
1051.95
1049.29
1046.64
1043.98
1041.32
1038.66
1036
1033.35
1030.69
1028.03
1025.37
1022.71
1020.05
1017.4
1014.74
1012.08
1009.42
1006.76
1004.1
1001.45
998.788
996.13
993.472
990.813
988.155
985.497
982.839
980.18
977.522
974.864
972.206
969.547
966.889
964.231
961.573
958.914
956.256
953.598
950.94
948.281
945.623
942.965
940.307
937.648
934.99
932.332
929.674
927.015
924.357
921.699
919.041
916.382
913.724
911.066
908.408
905.749
903.091
900.433
897.775
895.116
892.458
889.8
887.142
884.483
881.825
879.167
876.509
873.85
871.192
868.534
865.876
863.217
860.559
857.901
855.243
852.584
849.926
847.268
844.61
841.951
839.293
836.635
833.977
831.318
828.66
826.002
823.344
820.685
818.027
815.369
812.711
810.052
807.394
804.736
802.078
799.419
796.761
794.103
791.445
788.786
786.128
783.47
780.812
778.153
775.495
772.837
770.179
767.52
764.862
762.204
759.546
756.887
754.229
751.571
748.913
746.254
743.596
740.938
738.28
735.621
732.963
730.305
727.647
724.988
722.33
719.672
717.014
714.355
711.697
709.039
706.381
703.722
701.064
698.406
695.748
693.089
690.431
687.773
685.115
682.456
679.798
677.14
1468.04
1434.49
1444.67
1432.11
1433.95
1427.97
1427.14
1423.15
1421.74
1418.64
1417
1414.42
1412.65
1410.39
1408.54
1406.48
1404.59
1402.6
1400.71
1398.75
1396.81
1394.82
1392.82
1390.75
1388.66
1386.49
1384.26
1381.95
1379.6
1377.19
1374.75
1372.27
1369.77
1367.23
1364.68
1362.11
1359.53
1356.94
1354.33
1351.72
1349.1
1346.48
1343.85
1341.21
1338.58
1335.94
1333.29
1330.65
1328
1325.35
1322.7
1320.05
1317.4
1314.75
1312.1
1309.44
1306.79
1304.13
1301.48
1298.82
1296.16
1293.51
1290.85
1288.19
1285.54
1282.88
1280.22
1277.56
1274.91
1272.25
1269.59
1266.93
1264.28
1261.62
1258.96
1256.3
1253.64
1250.99
1248.33
1245.67
1243.01
1240.35
1237.69
1235.04
1232.38
1229.72
1227.06
1224.4
1221.75
1219.09
1216.43
1213.77
1211.11
1208.45
1205.8
1203.14
1200.48
1197.82
1195.16
1192.51
1189.85
1187.19
1184.53
1181.87
1179.21
1176.56
1173.9
1171.24
1168.58
1165.92
1163.26
1160.61
1157.95
1155.29
1152.63
1149.97
1147.32
1144.66
1142
1139.34
1136.68
1134.02
1131.37
1128.71
1126.05
1123.39
1120.73
1118.07
1115.42
1112.76
1110.1
1107.44
1104.78
1102.12
1099.47
1096.81
1094.15
1091.49
1088.83
1086.18
1083.52
1080.86
1078.2
1075.54
1072.88
1070.23
1067.57
1064.91
1062.25
1059.59
1056.93
1054.28
1051.62
1048.96
1046.3
1043.64
1040.99
1038.33
1035.67
1033.01
1030.35
1027.69
1025.04
1022.38
1019.72
1017.06
1014.4
1011.74
1009.09
1006.43
1003.77
1001.11
998.453
995.795
993.137
990.478
987.82
985.162
982.504
979.845
977.187
974.529
971.871
969.212
966.554
963.896
961.238
958.579
955.921
953.263
950.605
947.946
945.288
942.63
939.972
937.313
934.655
931.997
929.339
926.68
924.022
921.364
918.706
916.047
913.389
910.731
908.073
905.414
902.756
900.098
897.44
894.781
892.123
889.465
886.807
884.148
881.49
878.832
876.174
873.515
870.857
868.199
865.541
862.882
860.224
857.566
854.908
852.249
849.591
846.933
844.275
841.616
838.958
836.3
833.642
830.983
828.325
825.667
823.009
820.35
817.692
815.034
812.376
809.717
807.059
804.401
801.743
799.084
796.426
793.768
791.11
788.451
785.793
783.135
780.477
777.818
775.16
772.502
769.844
767.185
764.527
761.869
759.211
756.552
753.894
751.236
748.578
745.919
743.261
740.603
737.945
735.286
732.628
729.97
727.312
724.653
721.995
719.337
716.679
714.02
711.362
708.704
706.046
703.387
700.729
698.071
695.413
692.754
690.096
687.438
684.78
682.121
679.463
676.805
674.147
671.488
668.83
666.172
663.514
660.855
1451.56
1418.29
1428.48
1415.84
1417.68
1411.7
1410.87
1406.87
1405.47
1402.37
1400.72
1398.14
1396.37
1394.11
1392.26
1390.2
1388.3
1386.31
1384.42
1382.47
1380.53
1378.53
1376.53
1374.47
1372.37
1370.21
1367.97
1365.67
1363.31
1360.91
1358.46
1355.99
1353.48
1350.95
1348.4
1345.83
1343.25
1340.65
1338.05
1335.44
1332.82
1330.19
1327.56
1324.93
1322.29
1319.65
1317.01
1314.36
1311.72
1309.07
1306.42
1303.77
1301.12
1298.46
1295.81
1293.16
1290.5
1287.85
1285.19
1282.54
1279.88
1277.22
1274.57
1271.91
1269.25
1266.59
1263.94
1261.28
1258.62
1255.96
1253.31
1250.65
1247.99
1245.33
1242.68
1240.02
1237.36
1234.7
1232.04
1229.38
1226.73
1224.07
1221.41
1218.75
1216.09
1213.44
1210.78
1208.12
1205.46
1202.8
1200.14
1197.49
1194.83
1192.17
1189.51
1186.85
1184.2
1181.54
1178.88
1176.22
1173.56
1170.9
1168.25
1165.59
1162.93
1160.27
1157.61
1154.95
1152.3
1149.64
1146.98
1144.32
1141.66
1139.01
1136.35
1133.69
1131.03
1128.37
1125.71
1123.06
1120.4
1117.74
1115.08
1112.42
1109.76
1107.11
1104.45
1101.79
1099.13
1096.47
1093.82
1091.16
1088.5
1085.84
1083.18
1080.52
1077.87
1075.21
1072.55
1069.89
1067.23
1064.57
1061.92
1059.26
1056.6
1053.94
1051.28
1048.62
1045.97
1043.31
1040.65
1037.99
1035.33
1032.68
1030.02
1027.36
1024.7
1022.04
1019.38
1016.73
1014.07
1011.41
1008.75
1006.09
1003.43
1000.78
998.118
995.46
992.802
990.143
987.485
984.827
982.169
979.51
976.852
974.194
971.536
968.877
966.219
963.561
960.903
958.244
955.586
952.928
950.27
947.611
944.953
942.295
939.637
936.978
934.32
931.662
929.004
926.345
923.687
921.029
918.371
915.712
913.054
910.396
907.738
905.079
902.421
899.763
897.105
894.446
891.788
889.13
886.472
883.813
881.155
878.497
875.839
873.18
870.522
867.864
865.206
862.547
859.889
857.231
854.573
851.914
849.256
846.598
843.94
841.281
838.623
835.965
833.307
830.648
827.99
825.332
822.674
820.015
817.357
814.699
812.041
809.382
806.724
804.066
801.408
798.749
796.091
793.433
790.775
788.116
785.458
782.8
780.142
777.483
774.825
772.167
769.509
766.85
764.192
761.534
758.876
756.217
753.559
750.901
748.243
745.584
742.926
740.268
737.61
734.951
732.293
729.635
726.977
724.318
721.66
719.002
716.344
713.685
711.027
708.369
705.711
703.052
700.394
697.736
695.078
692.419
689.761
687.103
684.445
681.786
679.128
676.47
673.812
671.153
668.495
665.837
663.179
660.52
657.862
655.204
652.546
649.887
647.229
644.571
1435.14
1402.04
1412.29
1399.56
1401.4
1395.42
1394.6
1390.6
1389.19
1386.09
1384.44
1381.86
1380.09
1377.83
1375.98
1373.91
1372.02
1370.03
1368.14
1366.18
1364.24
1362.25
1360.25
1358.18
1356.09
1353.92
1351.68
1349.38
1347.03
1344.62
1342.18
1339.7
1337.19
1334.66
1332.11
1329.54
1326.96
1324.37
1321.76
1319.15
1316.53
1313.91
1311.28
1308.64
1306.01
1303.37
1300.72
1298.08
1295.43
1292.78
1290.13
1287.48
1284.83
1282.18
1279.53
1276.87
1274.22
1271.56
1268.91
1266.25
1263.59
1260.94
1258.28
1255.62
1252.97
1250.31
1247.65
1245
1242.34
1239.68
1237.02
1234.36
1231.71
1229.05
1226.39
1223.73
1221.07
1218.42
1215.76
1213.1
1210.44
1207.78
1205.13
1202.47
1199.81
1197.15
1194.49
1191.83
1189.18
1186.52
1183.86
1181.2
1178.54
1175.89
1173.23
1170.57
1167.91
1165.25
1162.59
1159.94
1157.28
1154.62
1151.96
1149.3
1146.64
1143.99
1141.33
1138.67
1136.01
1133.35
1130.7
1128.04
1125.38
1122.72
1120.06
1117.4
1114.75
1112.09
1109.43
1106.77
1104.11
1101.45
1098.8
1096.14
1093.48
1090.82
1088.16
1085.5
1082.85
1080.19
1077.53
1074.87
1072.21
1069.56
1066.9
1064.24
1061.58
1058.92
1056.26
1053.61
1050.95
1048.29
1045.63
1042.97
1040.31
1037.66
1035
1032.34
1029.68
1027.02
1024.37
1021.71
1019.05
1016.39
1013.73
1011.07
1008.42
1005.76
1003.1
1000.44
997.783
995.124
992.466
989.808
987.15
984.491
981.833
979.175
976.517
973.858
971.2
968.542
965.884
963.225
960.567
957.909
955.251
952.592
949.934
947.276
944.618
941.959
939.301
936.643
933.985
931.326
928.668
926.01
923.352
920.693
918.035
915.377
912.719
910.06
907.402
904.744
902.086
899.427
896.769
894.111
891.453
888.794
886.136
883.478
880.82
878.161
875.503
872.845
870.187
867.528
864.87
862.212
859.554
856.895
854.237
851.579
848.921
846.262
843.604
840.946
838.288
835.629
832.971
830.313
827.655
824.997
822.338
819.68
817.022
814.364
811.705
809.047
806.389
803.731
801.072
798.414
795.756
793.098
790.439
787.781
785.123
782.465
779.806
777.148
774.49
771.832
769.173
766.515
763.857
761.199
758.54
755.882
753.224
750.566
747.907
745.249
742.591
739.933
737.274
734.616
731.958
729.3
726.641
723.983
721.325
718.667
716.008
713.35
710.692
708.034
705.375
702.717
700.059
697.401
694.742
692.084
689.426
686.768
684.109
681.451
678.793
676.135
673.476
670.818
668.16
665.502
662.843
660.185
657.527
654.869
652.21
649.552
646.894
644.236
641.577
638.919
636.261
633.603
630.944
628.286
1418.71
1385.82
1396.06
1383.29
1385.13
1379.15
1378.32
1374.32
1372.92
1369.81
1368.17
1365.58
1363.81
1361.55
1359.7
1357.63
1355.74
1353.75
1351.86
1349.9
1347.96
1345.96
1343.96
1341.9
1339.8
1337.64
1335.4
1333.1
1330.74
1328.34
1325.89
1323.42
1320.91
1318.38
1315.83
1313.26
1310.68
1308.08
1305.48
1302.87
1300.25
1297.62
1294.99
1292.36
1289.72
1287.08
1284.44
1281.79
1279.15
1276.5
1273.85
1271.2
1268.55
1265.89
1263.24
1260.59
1257.93
1255.28
1252.62
1249.97
1247.31
1244.65
1242
1239.34
1236.68
1234.03
1231.37
1228.71
1226.05
1223.4
1220.74
1218.08
1215.42
1212.76
1210.11
1207.45
1204.79
1202.13
1199.47
1196.82
1194.16
1191.5
1188.84
1186.18
1183.52
1180.87
1178.21
1175.55
1172.89
1170.23
1167.58
1164.92
1162.26
1159.6
1156.94
1154.28
1151.63
1148.97
1146.31
1143.65
1140.99
1138.33
1135.68
1133.02
1130.36
1127.7
1125.04
1122.39
1119.73
1117.07
1114.41
1111.75
1109.09
1106.44
1103.78
1101.12
1098.46
1095.8
1093.14
1090.49
1087.83
1085.17
1082.51
1079.85
1077.2
1074.54
1071.88
1069.22
1066.56
1063.9
1061.25
1058.59
1055.93
1053.27
1050.61
1047.95
1045.3
1042.64
1039.98
1037.32
1034.66
1032
1029.35
1026.69
1024.03
1021.37
1018.71
1016.06
1013.4
1010.74
1008.08
1005.42
1002.76
1000.11
997.448
994.789
992.131
989.473
986.815
984.157
981.498
978.84
976.182
973.524
970.865
968.207
965.549
962.891
960.232
957.574
954.916
952.258
949.599
946.941
944.283
941.625
938.966
936.308
933.65
930.992
928.333
925.675
923.017
920.359
917.7
915.042
912.384
909.726
907.067
904.409
901.751
899.093
896.434
893.776
891.118
888.46
885.801
883.143
880.485
877.827
875.168
872.51
869.852
867.194
864.535
861.877
859.219
856.561
853.902
851.244
848.586
845.928
843.269
840.611
837.953
835.295
832.636
829.978
827.32
824.662
822.003
819.345
816.687
814.029
811.37
808.712
806.054
803.396
800.737
798.079
795.421
792.763
790.104
787.446
784.788
782.13
779.471
776.813
774.155
771.497
768.838
766.18
763.522
760.864
758.205
755.547
752.889
750.231
747.572
744.914
742.256
739.598
736.939
734.281
731.623
728.965
726.306
723.648
720.99
718.332
715.673
713.015
710.357
707.699
705.04
702.382
699.724
697.066
694.407
691.749
689.091
686.433
683.774
681.116
678.458
675.8
673.141
670.483
667.825
665.167
662.508
659.85
657.192
654.534
651.875
649.217
646.559
643.901
641.242
638.584
635.926
633.268
630.609
627.951
625.293
622.635
619.976
617.318
614.66
612.002
1402.25
1369.6
1379.79
1367.01
1368.86
1362.86
1362.04
1358.04
1356.64
1353.54
1351.89
1349.31
1347.54
1345.27
1343.42
1341.35
1339.46
1337.47
1335.58
1333.62
1331.68
1329.68
1327.68
1325.62
1323.52
1321.35
1319.12
1316.81
1314.46
1312.05
1309.61
1307.13
1304.63
1302.09
1299.54
1296.98
1294.39
1291.8
1289.2
1286.58
1283.96
1281.34
1278.71
1276.08
1273.44
1270.8
1268.15
1265.51
1262.86
1260.21
1257.57
1254.91
1252.26
1249.61
1246.96
1244.3
1241.65
1238.99
1236.34
1233.68
1231.03
1228.37
1225.71
1223.06
1220.4
1217.74
1215.08
1212.43
1209.77
1207.11
1204.45
1201.8
1199.14
1196.48
1193.82
1191.16
1188.51
1185.85
1183.19
1180.53
1177.87
1175.21
1172.56
1169.9
1167.24
1164.58
1161.92
1159.27
1156.61
1153.95
1151.29
1148.63
1145.97
1143.32
1140.66
1138
1135.34
1132.68
1130.03
1127.37
1124.71
1122.05
1119.39
1116.73
1114.08
1111.42
1108.76
1106.1
1103.44
1100.78
1098.13
1095.47
1092.81
1090.15
1087.49
1084.84
1082.18
1079.52
1076.86
1074.2
1071.54
1068.89
1066.23
1063.57
1060.91
1058.25
1055.59
1052.94
1050.28
1047.62
1044.96
1042.3
1039.64
1036.99
1034.33
1031.67
1029.01
1026.35
1023.7
1021.04
1018.38
1015.72
1013.06
1010.4
1007.75
1005.09
1002.43
999.771
997.113
994.455
991.796
989.138
986.48
983.822
981.163
978.505
975.847
973.189
970.53
967.872
965.214
962.556
959.897
957.239
954.581
951.923
949.264
946.606
943.948
941.29
938.631
935.973
933.315
930.657
927.998
925.34
922.682
920.024
917.365
914.707
912.049
909.391
906.732
904.074
901.416
898.758
896.099
893.441
890.783
888.125
885.466
882.808
880.15
877.492
874.833
872.175
869.517
866.859
864.2
861.542
858.884
856.226
853.567
850.909
848.251
845.593
842.934
840.276
837.618
834.96
832.301
829.643
826.985
824.327
821.668
819.01
816.352
813.694
811.035
808.377
805.719
803.061
800.402
797.744
795.086
792.428
789.769
787.111
784.453
781.795
779.136
776.478
773.82
771.162
768.503
765.845
763.187
760.529
757.87
755.212
752.554
749.896
747.237
744.579
741.921
739.263
736.604
733.946
731.288
728.63
725.971
723.313
720.655
717.997
715.338
712.68
710.022
707.364
704.705
702.047
699.389
696.731
694.072
691.414
688.756
686.098
683.439
680.781
678.123
675.465
672.806
670.148
667.49
664.832
662.173
659.515
656.857
654.199
651.54
648.882
646.224
643.566
640.907
638.249
635.591
632.933
630.274
627.616
624.958
622.3
619.641
616.983
614.325
611.667
609.008
606.35
603.692
601.034
598.375
595.717
1385.82
1353.35
1363.53
1350.73
1352.58
1346.58
1345.76
1341.76
1340.36
1337.26
1335.61
1333.03
1331.26
1328.99
1327.14
1325.07
1323.18
1321.18
1319.3
1317.34
1315.4
1313.4
1311.4
1309.33
1307.24
1305.07
1302.83
1300.53
1298.17
1295.77
1293.33
1290.85
1288.34
1285.81
1283.26
1280.69
1278.11
1275.51
1272.91
1270.3
1267.68
1265.06
1262.42
1259.79
1257.15
1254.51
1251.87
1249.22
1246.58
1243.93
1241.28
1238.63
1235.98
1233.33
1230.67
1228.02
1225.36
1222.71
1220.05
1217.4
1214.74
1212.08
1209.43
1206.77
1204.11
1201.46
1198.8
1196.14
1193.48
1190.83
1188.17
1185.51
1182.85
1180.19
1177.54
1174.88
1172.22
1169.56
1166.9
1164.25
1161.59
1158.93
1156.27
1153.61
1150.96
1148.3
1145.64
1142.98
1140.32
1137.66
1135.01
1132.35
1129.69
1127.03
1124.37
1121.72
1119.06
1116.4
1113.74
1111.08
1108.42
1105.77
1103.11
1100.45
1097.79
1095.13
1092.47
1089.82
1087.16
1084.5
1081.84
1079.18
1076.52
1073.87
1071.21
1068.55
1065.89
1063.23
1060.58
1057.92
1055.26
1052.6
1049.94
1047.28
1044.63
1041.97
1039.31
1036.65
1033.99
1031.33
1028.68
1026.02
1023.36
1020.7
1018.04
1015.39
1012.73
1010.07
1007.41
1004.75
1002.09
999.436
996.777
994.119
991.461
988.803
986.144
983.486
980.828
978.17
975.511
972.853
970.195
967.537
964.878
962.22
959.562
956.904
954.245
951.587
948.929
946.271
943.612
940.954
938.296
935.638
932.979
930.321
927.663
925.005
922.346
919.688
917.03
914.372
911.713
909.055
906.397
903.739
901.08
898.422
895.764
893.106
890.447
887.789
885.131
882.473
879.814
877.156
874.498
871.84
869.181
866.523
863.865
861.207
858.548
855.89
853.232
850.574
847.915
845.257
842.599
839.941
837.282
834.624
831.966
829.308
826.649
823.991
821.333
818.675
816.016
813.358
810.7
808.042
805.383
802.725
800.067
797.409
794.75
792.092
789.434
786.776
784.117
781.459
778.801
776.143
773.484
770.826
768.168
765.51
762.851
760.193
757.535
754.877
752.218
749.56
746.902
744.244
741.585
738.927
736.269
733.611
730.952
728.294
725.636
722.978
720.319
717.661
715.003
712.345
709.686
707.028
704.37
701.712
699.053
696.395
693.737
691.079
688.42
685.762
683.104
680.446
677.787
675.129
672.471
669.813
667.154
664.496
661.838
659.18
656.521
653.863
651.205
648.547
645.888
643.23
640.572
637.914
635.256
632.597
629.939
627.281
624.623
621.964
619.306
616.648
613.99
611.331
608.673
606.015
603.357
600.698
598.04
595.382
592.724
590.065
587.407
584.749
582.091
579.432
1369.46
1337.08
1347.25
1334.44
1336.29
1330.29
1329.48
1325.48
1324.08
1320.98
1319.33
1316.75
1314.98
1312.71
1310.86
1308.79
1306.9
1304.9
1303.02
1301.06
1299.12
1297.12
1295.12
1293.05
1290.96
1288.79
1286.55
1284.25
1281.89
1279.49
1277.04
1274.56
1272.06
1269.53
1266.97
1264.41
1261.82
1259.23
1256.63
1254.01
1251.4
1248.77
1246.14
1243.51
1240.87
1238.23
1235.59
1232.94
1230.29
1227.65
1225
1222.35
1219.69
1217.04
1214.39
1211.73
1209.08
1206.42
1203.77
1201.11
1198.46
1195.8
1193.14
1190.49
1187.83
1185.17
1182.51
1179.86
1177.2
1174.54
1171.88
1169.23
1166.57
1163.91
1161.25
1158.59
1155.94
1153.28
1150.62
1147.96
1145.3
1142.65
1139.99
1137.33
1134.67
1132.01
1129.35
1126.7
1124.04
1121.38
1118.72
1116.06
1113.41
1110.75
1108.09
1105.43
1102.77
1100.11
1097.46
1094.8
1092.14
1089.48
1086.82
1084.16
1081.51
1078.85
1076.19
1073.53
1070.87
1068.22
1065.56
1062.9
1060.24
1057.58
1054.92
1052.27
1049.61
1046.95
1044.29
1041.63
1038.97
1036.32
1033.66
1031
1028.34
1025.68
1023.02
1020.37
1017.71
1015.05
1012.39
1009.73
1007.08
1004.42
1001.76
999.101
996.442
993.784
991.126
988.468
985.809
983.151
980.493
977.835
975.176
972.518
969.86
967.202
964.543
961.885
959.227
956.569
953.91
951.252
948.594
945.936
943.277
940.619
937.961
935.303
932.644
929.986
927.328
924.67
922.011
919.353
916.695
914.037
911.378
908.72
906.062
903.404
900.745
898.087
895.429
892.771
890.112
887.454
884.796
882.138
879.479
876.821
874.163
871.505
868.846
866.188
863.53
860.872
858.213
855.555
852.897
850.239
847.58
844.922
842.264
839.606
836.947
834.289
831.631
828.973
826.314
823.656
820.998
818.34
815.681
813.023
810.365
807.707
805.048
802.39
799.732
797.074
794.416
791.757
789.099
786.441
783.783
781.124
778.466
775.808
773.15
770.491
767.833
765.175
762.517
759.858
757.2
754.542
751.884
749.225
746.567
743.909
741.251
738.592
735.934
733.276
730.618
727.959
725.301
722.643
719.985
717.326
714.668
712.01
709.352
706.693
704.035
701.377
698.719
696.06
693.402
690.744
688.086
685.427
682.769
680.111
677.453
674.794
672.136
669.478
666.82
664.161
661.503
658.845
656.187
653.528
650.87
648.212
645.554
642.895
640.237
637.579
634.921
632.262
629.604
626.946
624.288
621.629
618.971
616.313
613.655
610.996
608.338
605.68
603.022
600.363
597.705
595.047
592.389
589.73
587.072
584.414
581.756
579.097
576.439
573.781
571.123
568.464
565.806
563.148
1353.15
1320.79
1330.97
1318.15
1320
1314
1313.2
1309.2
1307.8
1304.69
1303.05
1300.47
1298.69
1296.43
1294.58
1292.51
1290.62
1288.62
1286.74
1284.78
1282.84
1280.84
1278.84
1276.77
1274.67
1272.5
1270.26
1267.96
1265.61
1263.2
1260.76
1258.28
1255.77
1253.24
1250.69
1248.12
1245.54
1242.95
1240.34
1237.73
1235.11
1232.49
1229.86
1227.22
1224.58
1221.94
1219.3
1216.66
1214.01
1211.36
1208.71
1206.06
1203.41
1200.76
1198.1
1195.45
1192.79
1190.14
1187.48
1184.83
1182.17
1179.52
1176.86
1174.2
1171.54
1168.89
1166.23
1163.57
1160.91
1158.26
1155.6
1152.94
1150.28
1147.63
1144.97
1142.31
1139.65
1136.99
1134.34
1131.68
1129.02
1126.36
1123.7
1121.04
1118.39
1115.73
1113.07
1110.41
1107.75
1105.1
1102.44
1099.78
1097.12
1094.46
1091.8
1089.15
1086.49
1083.83
1081.17
1078.51
1075.85
1073.2
1070.54
1067.88
1065.22
1062.56
1059.91
1057.25
1054.59
1051.93
1049.27
1046.61
1043.96
1041.3
1038.64
1035.98
1033.32
1030.66
1028.01
1025.35
1022.69
1020.03
1017.37
1014.72
1012.06
1009.4
1006.74
1004.08
1001.42
998.766
996.107
993.449
990.791
988.133
985.474
982.816
980.158
977.5
974.841
972.183
969.525
966.867
964.209
961.55
958.892
956.234
953.576
950.917
948.259
945.601
942.943
940.284
937.626
934.968
932.31
929.651
926.993
924.335
921.677
919.018
916.36
913.702
911.044
908.385
905.727
903.069
900.411
897.752
895.094
892.436
889.778
887.119
884.461
881.803
879.145
876.486
873.828
871.17
868.512
865.853
863.195
860.537
857.879
855.22
852.562
849.904
847.246
844.587
841.929
839.271
836.613
833.954
831.296
828.638
825.98
823.321
820.663
818.005
815.347
812.688
810.03
807.372
804.714
802.055
799.397
796.739
794.081
791.422
788.764
786.106
783.448
780.789
778.131
775.473
772.815
770.156
767.498
764.84
762.182
759.523
756.865
754.207
751.549
748.89
746.232
743.574
740.916
738.257
735.599
732.941
730.283
727.624
724.966
722.308
719.65
716.991
714.333
711.675
709.017
706.358
703.7
701.042
698.384
695.725
693.067
690.409
687.751
685.092
682.434
679.776
677.118
674.459
671.801
669.143
666.485
663.826
661.168
658.51
655.852
653.193
650.535
647.877
645.219
642.56
639.902
637.244
634.586
631.927
629.269
626.611
623.953
621.294
618.636
615.978
613.32
610.661
608.003
605.345
602.687
600.028
597.37
594.712
592.054
589.395
586.737
584.079
581.421
578.762
576.104
573.446
570.788
568.129
565.471
562.813
560.155
557.496
554.838
552.18
549.522
546.863
1336.85
1304.5
1314.69
1301.85
1303.7
1297.71
1296.91
1292.91
1291.52
1288.41
1286.77
1284.18
1282.41
1280.15
1278.3
1276.23
1274.34
1272.34
1270.46
1268.5
1266.56
1264.56
1262.56
1260.49
1258.39
1256.22
1253.98
1251.68
1249.32
1246.92
1244.47
1242
1239.49
1236.96
1234.41
1231.84
1229.26
1226.66
1224.06
1221.45
1218.83
1216.2
1213.57
1210.94
1208.3
1205.66
1203.02
1200.37
1197.72
1195.08
1192.43
1189.78
1187.12
1184.47
1181.82
1179.16
1176.51
1173.85
1171.2
1168.54
1165.89
1163.23
1160.57
1157.92
1155.26
1152.6
1149.95
1147.29
1144.63
1141.97
1139.31
1136.66
1134
1131.34
1128.68
1126.02
1123.37
1120.71
1118.05
1115.39
1112.73
1110.08
1107.42
1104.76
1102.1
1099.44
1096.79
1094.13
1091.47
1088.81
1086.15
1083.49
1080.84
1078.18
1075.52
1072.86
1070.2