/*--------------------------------*- C++ -*----------------------------------*\
| =========                 |                                                 |
| \\      /  F ield         | foam-extend: Open Source CFD                    |
|  \\    /   O peration     | Version:     3.2                                |
|   \\  /    A nd           | Web:         http://www.foam-extend.org         |
|    \\/     M anipulation  | For copyright notice see file Copyright         |
\*---------------------------------------------------------------------------*/
FoamFile
{
    version     2.0;
    format      ascii;
    class       areaScalarField;
    location    "60";
    object      Pef;
}
// * * * * * * * * * * * * * * * * * * * * * * * * * * * * * * * * * * * * * //

dimensions      [0 0 0 0 0 0 0];

internalField   nonuniform List<scalar> 
300
(
0.913003
0.693423
0.511043
0.515969
0.495047
0.497657
0.488764
0.488923
0.485512
0.487007
0.487084
0.489427
0.49135
0.494695
0.497594
0.501617
0.505393
0.509742
0.513942
0.518666
0.523494
0.528445
0.53346
0.538521
0.543592
0.548428
0.552663
0.556258
0.559274
0.561798
0.563906
0.565664
0.567128
0.568348
0.569363
0.570211
0.570919
0.571512
0.57201
0.572431
0.572786
0.573089
0.57335
0.573571
0.573755
0.573909
0.574044
0.574158
0.574258
0.574344
0.574419
0.574484
0.574541
0.57459
0.574634
0.574671
0.574703
0.574731
0.574755
0.574776
0.574795
0.574811
0.574825
0.574836
0.574847
0.574855
0.574864
0.57487
0.574876
0.574881
0.574885
0.574889
0.574892
0.574895
0.574897
0.5749
0.574901
0.574903
0.574904
0.574906
0.574906
0.574907
0.574908
0.574909
0.574909
0.574909
0.57491
0.57491
0.574911
0.574911
0.574911
0.574911
0.574912
0.574912
0.574912
0.574912
0.574912
0.574912
0.574912
0.574912
0.574912
0.574912
0.574913
0.574913
0.574913
0.574913
0.574913
0.574913
0.574913
0.574913
0.574913
0.574913
0.574913
0.574913
0.574913
0.574913
0.574913
0.574913
0.574913
0.574913
0.574913
0.574913
0.574913
0.574913
0.574913
0.574913
0.574913
0.574913
0.574913
0.574913
0.574913
0.574913
0.574913
0.574913
0.574913
0.574913
0.574913
0.574913
0.574913
0.574913
0.574913
0.574913
0.574913
0.574913
0.574913
0.574913
0.574913
0.574913
0.574913
0.574913
0.574913
0.574913
0.574913
0.574913
0.574913
0.574913
0.574913
0.574913
0.574913
0.574913
0.574913
0.574913
0.574913
0.574913
0.574913
0.574913
0.574913
0.574913
0.574913
0.574913
0.574913
0.574913
0.574913
0.574913
0.574913
0.574913
0.574913
0.574913
0.574913
0.574913
0.574913
0.574913
0.574913
0.574913
0.574913
0.574913
0.574913
0.574913
0.574913
0.574913
0.574913
0.574913
0.574913
0.574913
0.574913
0.574913
0.574913
0.574913
0.574913
0.574913
0.574913
0.574913
0.574913
0.574913
0.574913
0.574913
0.574913
0.574913
0.574913
0.574913
0.574913
0.574913
0.574913
0.574913
0.574913
0.574913
0.574913
0.574913
0.574913
0.574913
0.574913
0.574913
0.574913
0.574913
0.574913
0.574913
0.574913
0.574913
0.574913
0.574913
0.574913
0.574913
0.574913
0.574913
0.574913
0.574913
0.574913
0.574913
0.574913
0.574913
0.574913
0.574913
0.574913
0.574913
0.574913
0.574913
0.574913
0.574913
0.574913
0.574913
0.574913
0.574913
0.574913
0.574913
0.574913
0.574913
0.574913
0.574913
0.574913
0.574913
0.574913
0.574913
0.574913
0.574913
0.574913
0.574913
0.574913
0.574913
0.574913
0.574913
0.574913
0.574913
0.574913
0.574913
0.574913
0.574913
0.574913
0.574913
0.574913
0.574913
0.574913
0.574913
0.574913
0.574913
0.574913
0.574913
0.574913
0.574913
0.574913
0.574913
0.574913
0.574913
0.574913
0.574913
0.574913
0.574913
0.574913
0.574913
0.574914
0.574912
)
;

boundaryField
{
    inlet
    {
        type            calculated;
        value           uniform 0;
    }
    outlet
    {
        type            calculated;
        value           uniform 0;
    }
    sideWall
    {
        type            empty;
    }
}


// ************************************************************************* //
