/*--------------------------------*- C++ -*----------------------------------*\
| =========                 |                                                 |
| \\      /  F ield         | foam-extend: Open Source CFD                    |
|  \\    /   O peration     | Version:     3.2                                |
|   \\  /    A nd           | Web:         http://www.foam-extend.org         |
|    \\/     M anipulation  | For copyright notice see file Copyright         |
\*---------------------------------------------------------------------------*/
FoamFile
{
    version     2.0;
    format      ascii;
    class       surfaceScalarField;
    location    "60";
    object      phi;
}
// * * * * * * * * * * * * * * * * * * * * * * * * * * * * * * * * * * * * * //

dimensions      [0 3 -1 0 0 0 0];

internalField   nonuniform List<scalar> 
10482
(
7.50338e-06
9.99665e-06
5.36825e-06
2.13513e-06
5.10436e-06
2.63898e-07
5.0688e-06
3.55515e-08
5.05161e-06
1.719e-08
5.02286e-06
2.87533e-08
5.01113e-06
1.17322e-08
4.99537e-06
1.5755e-08
4.99535e-06
1.97369e-11
4.99368e-06
1.6685e-09
5.00094e-06
-7.25427e-09
5.00677e-06
-5.83275e-09
5.01916e-06
-1.23859e-08
5.03071e-06
-1.1555e-08
5.04567e-06
-1.49569e-08
5.06158e-06
-1.59099e-08
5.07882e-06
-1.7239e-08
5.09638e-06
-1.7557e-08
5.11539e-06
-1.90122e-08
5.13574e-06
-2.03494e-08
5.15676e-06
-2.1021e-08
5.17809e-06
-2.13284e-08
5.19992e-06
-2.18333e-08
5.22185e-06
-2.19308e-08
5.24362e-06
-2.17663e-08
5.26363e-06
-2.00151e-08
5.28089e-06
-1.72619e-08
5.29547e-06
-1.45732e-08
5.30771e-06
-1.22409e-08
5.31795e-06
-1.02462e-08
5.32652e-06
-8.56852e-09
5.33367e-06
-7.14698e-09
5.33963e-06
-5.96066e-09
5.34459e-06
-4.96407e-09
5.34874e-06
-4.14156e-09
5.35219e-06
-3.45603e-09
5.35509e-06
-2.89424e-09
5.35751e-06
-2.42559e-09
5.35955e-06
-2.0428e-09
5.36128e-06
-1.72255e-09
5.36274e-06
-1.46411e-09
5.364e-06
-1.26132e-09
5.36507e-06
-1.07146e-09
5.36597e-06
-8.95291e-10
5.36672e-06
-7.46297e-10
5.36738e-06
-6.66224e-10
5.36808e-06
-6.956e-10
5.36857e-06
-4.94923e-10
5.36899e-06
-4.14143e-10
5.36934e-06
-3.58129e-10
5.36966e-06
-3.11557e-10
5.36993e-06
-2.71282e-10
5.37016e-06
-2.36666e-10
5.37037e-06
-2.05039e-10
5.37055e-06
-1.79701e-10
5.3707e-06
-1.52663e-10
5.37084e-06
-1.33786e-10
5.37095e-06
-1.15639e-10
5.37105e-06
-1.00906e-10
5.37114e-06
-8.70871e-11
5.37122e-06
-7.59843e-11
5.37128e-06
-6.57257e-11
5.37134e-06
-5.69598e-11
5.37139e-06
-4.91989e-11
5.37143e-06
-4.27111e-11
5.37147e-06
-3.65963e-11
5.3715e-06
-3.25501e-11
5.37153e-06
-2.71698e-11
5.37155e-06
-2.37924e-11
5.37157e-06
-2.04342e-11
5.37159e-06
-1.8131e-11
5.3716e-06
-1.54468e-11
5.37162e-06
-1.36307e-11
5.37163e-06
-1.12134e-11
5.37164e-06
-1.03151e-11
5.37165e-06
-8.50782e-12
5.37166e-06
-7.64606e-12
5.37166e-06
-6.57626e-12
5.37167e-06
-5.38911e-12
5.37167e-06
-4.56422e-12
5.37168e-06
-4.14453e-12
5.37168e-06
-3.5665e-12
5.37168e-06
-3.21185e-12
5.37169e-06
-2.57793e-12
5.37169e-06
-2.3331e-12
5.37169e-06
-1.78098e-12
5.37169e-06
-2.07422e-12
5.37169e-06
-1.54491e-12
5.37169e-06
-1.3198e-12
5.3717e-06
-8.16815e-13
5.3717e-06
-7.69321e-13
5.3717e-06
-6.16773e-13
5.3717e-06
-9.07745e-13
5.3717e-06
-4.22528e-13
5.3717e-06
-7.54151e-13
5.3717e-06
-5.24168e-13
5.3717e-06
-5.16243e-13
5.3717e-06
-3.73775e-13
5.3717e-06
-2.72092e-13
5.3717e-06
-2.01749e-13
5.3717e-06
-1.53338e-13
5.3717e-06
-9.91404e-14
5.3717e-06
-1.04495e-13
5.3717e-06
-7.93548e-14
5.3717e-06
-2.08202e-13
5.3717e-06
1.13616e-13
5.3717e-06
-3.05557e-13
5.3717e-06
-2.4411e-14
5.3717e-06
-7.81498e-14
5.3717e-06
-4.63354e-15
5.3717e-06
-6.18185e-15
5.3717e-06
1.22457e-13
5.3717e-06
-1.54091e-13
5.3717e-06
1.8156e-13
5.3717e-06
-4.85303e-14
5.3717e-06
-7.25828e-15
5.3717e-06
-2.70347e-14
5.3717e-06
-1.00921e-14
5.3717e-06
-1.74484e-14
5.3717e-06
-7.78831e-15
5.3717e-06
-1.3019e-14
5.3717e-06
-1.26457e-15
5.3717e-06
-1.30086e-14
5.3717e-06
1.08811e-14
5.3717e-06
-4.94571e-14
5.3717e-06
1.17815e-13
5.3717e-06
-1.19262e-13
5.3717e-06
2.27004e-14
5.3717e-06
2.62831e-14
5.3717e-06
1.27702e-13
5.3717e-06
1.124e-13
5.3717e-06
1.04916e-13
5.3717e-06
-4.62759e-14
5.3717e-06
1.22807e-13
5.3717e-06
-2.17224e-14
5.3717e-06
8.29486e-15
5.3717e-06
-3.21201e-15
5.3717e-06
1.3043e-15
5.3717e-06
-2.19454e-15
5.3717e-06
5.27538e-16
5.3717e-06
-1.84601e-15
5.3717e-06
1.50156e-15
5.3717e-06
-3.08985e-15
5.3717e-06
4.37451e-15
5.3717e-06
-7.22607e-15
5.3717e-06
3.96685e-14
5.3717e-06
-5.47219e-14
5.3717e-06
1.82885e-14
5.3717e-06
-1.1743e-15
5.3717e-06
4.18644e-15
5.3717e-06
-2.67094e-15
5.3717e-06
4.57067e-15
5.3717e-06
-1.91168e-14
5.3717e-06
2.76652e-14
5.3717e-06
-8.35391e-15
5.3717e-06
9.9375e-16
5.3717e-06
-1.20105e-15
5.3717e-06
2.02427e-16
5.3717e-06
-7.43282e-16
5.3717e-06
-5.51809e-17
5.3717e-06
8.67004e-16
5.3717e-06
1.06091e-15
5.3717e-06
-7.72703e-17
5.3717e-06
-6.66325e-16
5.3717e-06
-6.35244e-16
5.3717e-06
-4.26455e-16
5.3717e-06
-2.61544e-16
5.3717e-06
-1.93706e-16
5.3717e-06
-1.12097e-16
5.3717e-06
-8.67123e-17
5.3717e-06
-4.01279e-16
5.3717e-06
-4.18125e-17
5.3717e-06
1.18815e-15
5.3717e-06
1.22871e-15
5.3717e-06
4.71551e-17
5.3717e-06
-6.29186e-16
5.3717e-06
-5.93734e-16
5.3717e-06
-4.09321e-16
5.3717e-06
-2.22936e-16
5.3717e-06
-1.32247e-16
5.3717e-06
-1.54734e-16
5.3717e-06
-9.46006e-17
5.3717e-06
-3.80577e-18
5.3717e-06
-2.52169e-16
5.3717e-06
3.32191e-17
5.3717e-06
1.17343e-15
5.3717e-06
1.22215e-15
5.3717e-06
2.25389e-17
5.3717e-06
-6.31505e-16
5.3717e-06
-6.01387e-16
5.3717e-06
-4.68898e-16
5.3717e-06
-2.7304e-16
5.3717e-06
-1.20048e-16
5.3717e-06
-5.84111e-17
5.3717e-06
-2.49399e-17
5.3717e-06
-1.1319e-17
5.3717e-06
-2.79555e-16
5.3717e-06
-4.45643e-18
5.3717e-06
1.19352e-15
5.3717e-06
1.20877e-15
5.3717e-06
-5.14885e-17
5.3717e-06
-6.74647e-16
5.3717e-06
-5.72495e-16
5.3717e-06
-3.59477e-16
5.3717e-06
-1.98282e-16
5.3717e-06
-1.2594e-16
5.3717e-06
-6.27368e-17
5.3717e-06
-4.62956e-17
5.3717e-06
-3.01122e-16
5.3717e-06
-1.40904e-18
5.3717e-06
1.10894e-15
5.3717e-06
1.16448e-15
5.3717e-06
5.50227e-17
5.3717e-06
-5.94151e-16
5.3717e-06
-5.67926e-16
5.3717e-06
-3.76807e-16
5.3717e-06
-2.1003e-16
5.3717e-06
-1.45522e-16
5.3717e-06
-7.79699e-17
5.3717e-06
-5.04254e-17
5.3717e-06
-9.9124e-17
5.3717e-06
-3.25069e-16
5.3717e-06
3.53993e-17
5.3717e-06
1.20282e-15
5.3717e-06
1.24638e-15
5.3717e-06
5.11321e-17
5.3717e-06
-6.19477e-16
5.3717e-06
-6.06964e-16
5.3717e-06
-3.85708e-16
5.3717e-06
-2.25333e-16
5.3717e-06
-2.07053e-16
5.3717e-06
-1.2708e-16
5.3717e-06
-3.15654e-17
5.3717e-06
7.23191e-18
5.3717e-06
-2.5792e-16
5.3717e-06
3.3206e-17
5.3717e-06
1.20178e-15
5.3717e-06
1.20994e-15
5.3717e-06
4.31462e-17
5.3717e-06
-6.4078e-16
5.3717e-06
-6.78208e-16
5.3717e-06
-4.39404e-16
5.3717e-06
-2.08968e-16
5.3717e-06
-1.08084e-16
5.3717e-06
-4.94159e-17
5.3717e-06
-2.59329e-17
5.3717e-06
-2.87673e-16
5.3717e-06
-1.02769e-17
5.3717e-06
1.18842e-15
5.3717e-06
1.20626e-15
5.3717e-06
-5.22636e-17
5.3717e-06
-6.72135e-16
5.3717e-06
-5.72986e-16
5.3717e-06
-3.56362e-16
5.3717e-06
-1.97353e-16
5.3717e-06
-1.2173e-16
5.3717e-06
-6.99142e-17
5.3717e-06
-6.12864e-17
5.3717e-06
-1.39543e-17
5.3717e-06
-2.78766e-16
5.3717e-06
-5.80308e-17
5.3717e-06
1.12258e-15
5.3717e-06
1.22932e-15
5.3717e-06
6.95468e-17
5.3717e-06
-6.05278e-16
5.3717e-06
-5.80215e-16
5.3717e-06
-3.76493e-16
5.3717e-06
-2.3769e-16
5.3717e-06
-1.31862e-16
5.3717e-06
-8.78386e-17
5.3717e-06
-1.25598e-16
5.3717e-06
-7.1949e-17
5.3717e-06
-2.67963e-16
5.3717e-06
5.51295e-17
5.3717e-06
1.21755e-15
5.3717e-06
1.22978e-15
5.3717e-06
5.18443e-17
5.3717e-06
-6.44173e-16
5.3717e-06
-5.87392e-16
5.3717e-06
-4.29636e-16
5.3717e-06
-3.12392e-16
5.3717e-06
-1.13283e-16
5.3717e-06
1.54052e-16
5.3717e-06
1.25661e-16
5.3717e-06
2.25039e-16
5.3717e-06
-1.66111e-16
5.3717e-06
1.44079e-16
5.3717e-06
-3.32873e-16
5.3717e-06
6.17046e-16
5.3717e-06
-7.04266e-16
5.3717e-06
1.14331e-15
5.3717e-06
-1.9709e-15
5.3717e-06
3.06118e-15
5.3717e-06
-5.04384e-15
5.3717e-06
6.93654e-16
5.3717e-06
-8.20043e-15
5.3717e-06
-5.2894e-14
5.3717e-06
-2.51325e-12
5.3717e-06
1.53753e-12
8.67825e-12
1.31752e-05
1.43214e-05
1.09649e-05
4.34539e-06
1.02159e-05
1.01289e-06
1.00174e-05
2.34112e-07
9.88098e-06
1.53561e-07
9.78009e-06
1.29648e-07
9.71616e-06
7.56597e-08
9.67168e-06
6.02346e-08
9.64991e-06
2.17915e-08
9.6411e-06
1.04823e-08
9.64341e-06
-9.56828e-09
9.65049e-06
-1.29119e-08
9.66654e-06
-2.84356e-08
9.68457e-06
-2.95889e-08
9.70902e-06
-3.94049e-08
9.73634e-06
-4.32293e-08
9.7664e-06
-4.73e-08
9.79801e-06
-4.91661e-08
9.83178e-06
-5.27857e-08
9.86865e-06
-5.72199e-08
9.90702e-06
-5.93862e-08
9.94642e-06
-6.07332e-08
9.98683e-06
-6.22386e-08
1.0028e-05
-6.30996e-08
1.0069e-05
-6.27948e-08
1.01069e-05
-5.7883e-08
1.014e-05
-5.0359e-08
1.01684e-05
-4.29477e-08
1.01925e-05
-3.63912e-08
1.0213e-05
-3.07014e-08
1.02302e-05
-2.5836e-08
1.02448e-05
-2.16761e-08
1.0257e-05
-1.81633e-08
1.02672e-05
-1.51954e-08
1.02758e-05
-1.272e-08
1.0283e-05
-1.06469e-08
1.0289e-05
-8.9337e-09
1.02941e-05
-7.5011e-09
1.02984e-05
-6.32349e-09
1.0302e-05
-5.33618e-09
1.0305e-05
-4.52926e-09
1.03077e-05
-3.89634e-09
1.03099e-05
-3.32087e-09
1.03118e-05
-2.78297e-09
1.03134e-05
-2.3223e-09
1.03147e-05
-2.01393e-09
1.03157e-05
-1.67187e-09
1.03167e-05
-1.48745e-09
1.03176e-05
-1.27296e-09
1.03183e-05
-1.10216e-09
1.0319e-05
-9.55866e-10
1.03195e-05
-8.32585e-10
1.032e-05
-7.11939e-10
1.03202e-05
-4.18073e-10
1.03206e-05
-5.37596e-10
1.03209e-05
-4.67365e-10
1.03212e-05
-4.07819e-10
1.03214e-05
-3.52889e-10
1.03216e-05
-3.0709e-10
1.03218e-05
-2.66019e-10
1.03219e-05
-2.31124e-10
1.03221e-05
-1.99872e-10
1.03222e-05
-1.72755e-10
1.03223e-05
-1.50136e-10
1.03224e-05
-1.29805e-10
1.03224e-05
-1.11825e-10
1.03225e-05
-9.89842e-11
1.03226e-05
-8.25502e-11
1.03226e-05
-7.25604e-11
1.03227e-05
-6.28255e-11
1.03227e-05
-5.4681e-11
1.03227e-05
-4.70398e-11
1.03228e-05
-4.09852e-11
1.03228e-05
-3.37653e-11
1.03228e-05
-3.12071e-11
1.03228e-05
-2.62817e-11
1.03228e-05
-2.3133e-11
1.03228e-05
-1.99968e-11
1.03229e-05
-1.65084e-11
1.03229e-05
-1.36954e-11
1.03229e-05
-1.25237e-11
1.03229e-05
-1.11871e-11
1.03229e-05
-9.51187e-12
1.03229e-05
-7.85481e-12
1.03229e-05
-7.01248e-12
1.03229e-05
-5.6061e-12
1.03229e-05
-6.44189e-12
1.03229e-05
-4.68249e-12
1.03229e-05
-3.69355e-12
1.03229e-05
-2.52677e-12
1.03229e-05
-2.43558e-12
1.03229e-05
-2.13271e-12
1.03229e-05
-2.80928e-12
1.03229e-05
-1.60347e-12
1.03229e-05
-1.92638e-12
1.03229e-05
-1.36741e-12
1.03229e-05
-1.30025e-12
1.03229e-05
-9.57559e-13
1.03229e-05
-7.18836e-13
1.03229e-05
-6.01251e-13
1.03229e-05
-4.90729e-13
1.03229e-05
-3.53197e-13
1.03229e-05
-3.24525e-13
1.03229e-05
-3.12191e-13
1.03229e-05
-5.5989e-13
1.03229e-05
9.14861e-14
1.03229e-05
-7.67426e-13
1.03229e-05
-2.00982e-13
1.03229e-05
-2.34978e-13
1.03229e-05
-5.55252e-14
1.03229e-05
4.53938e-14
1.03229e-05
3.04767e-13
1.03229e-05
-2.88829e-13
1.03229e-05
3.76915e-13
1.03229e-05
-8.6353e-14
1.03229e-05
-4.59673e-14
1.03229e-05
-7.87852e-14
1.03229e-05
-4.6577e-14
1.03229e-05
-5.31865e-14
1.03229e-05
-3.41068e-14
1.03229e-05
-3.70372e-14
1.03229e-05
-1.67446e-14
1.03229e-05
-2.9105e-14
1.03229e-05
6.3681e-15
1.03229e-05
-9.80239e-14
1.03229e-05
2.47952e-13
1.03229e-05
-2.40824e-13
1.03229e-05
2.91549e-14
1.03229e-05
-2.24431e-16
1.03229e-05
1.49158e-13
1.03229e-05
1.81433e-13
1.03229e-05
1.98392e-13
1.03229e-05
-9.12746e-14
1.03229e-05
2.65203e-13
1.03229e-05
-2.01482e-14
1.03229e-05
1.77411e-14
1.03229e-05
-2.96936e-15
1.03229e-05
1.66244e-15
1.03229e-05
-4.17261e-15
1.03229e-05
-3.44565e-16
1.03229e-05
-3.59028e-15
1.03229e-05
1.27798e-15
1.03229e-05
-4.89799e-15
1.03229e-05
6.09172e-15
1.03229e-05
-9.09875e-15
1.03229e-05
8.5946e-14
1.03229e-05
-1.12496e-13
1.03229e-05
3.10831e-14
1.03229e-05
3.28513e-15
1.03229e-05
1.00284e-14
1.03229e-05
-1.48765e-15
1.03229e-05
7.6344e-15
1.03229e-05
-4.0358e-14
1.03229e-05
5.7893e-14
1.03229e-05
-1.30056e-14
1.03229e-05
5.92347e-16
1.03229e-05
-2.66364e-15
1.03229e-05
-5.06012e-16
1.03229e-05
-1.98845e-15
1.03229e-05
-7.47343e-16
1.03229e-05
1.64109e-15
1.03229e-05
2.61152e-15
1.03229e-05
2.84151e-16
1.03229e-05
-1.523e-15
1.03229e-05
-1.77995e-15
1.03229e-05
-1.37399e-15
1.03229e-05
-9.27331e-16
1.03229e-05
-6.98515e-16
1.03229e-05
-5.22188e-16
1.03229e-05
-4.49802e-16
1.03229e-05
-9.20516e-16
1.03229e-05
-8.67383e-17
1.03229e-05
2.65108e-15
1.03229e-05
3.23112e-15
1.03229e-05
7.32733e-16
1.03229e-05
-1.25557e-15
1.03229e-05
-1.55107e-15
1.03229e-05
-1.23146e-15
1.03229e-05
-8.42273e-16
1.03229e-05
-6.02819e-16
1.03229e-05
-4.80688e-16
1.03229e-05
-2.3929e-16
1.03229e-05
-4.17626e-17
1.03229e-05
-5.18023e-16
1.03229e-05
7.93934e-17
1.03229e-05
2.62944e-15
1.03229e-05
3.22413e-15
1.03229e-05
6.78687e-16
1.03229e-05
-1.33296e-15
1.03229e-05
-1.66216e-15
1.03229e-05
-1.32322e-15
1.03229e-05
-7.74904e-16
1.03229e-05
-3.91138e-16
1.03229e-05
-2.26168e-16
1.03229e-05
-1.31913e-16
1.03229e-05
-9.53332e-17
1.03229e-05
-6.01313e-16
1.03229e-05
-3.32466e-17
1.03229e-05
2.55849e-15
1.03229e-05
3.06995e-15
1.03229e-05
5.32465e-16
1.03229e-05
-1.27932e-15
1.03229e-05
-1.44491e-15
1.03229e-05
-1.07035e-15
1.03229e-05
-6.70783e-16
1.03229e-05
-4.48976e-16
1.03229e-05
-2.68456e-16
1.03229e-05
-2.23861e-16
1.03229e-05
-7.52266e-16
1.03229e-05
-1.40688e-16
1.03229e-05
2.45505e-15
1.03229e-05
3.15482e-15
1.03229e-05
8.00269e-16
1.03229e-05
-1.15032e-15
1.03229e-05
-1.47108e-15
1.03229e-05
-1.1266e-15
1.03229e-05
-7.16204e-16
1.03229e-05
-5.16384e-16
1.03229e-05
-3.90472e-16
1.03229e-05
-3.19783e-16
1.03229e-05
-2.92392e-16
1.03229e-05
-6.35079e-16
1.03229e-05
1.13082e-16
1.03229e-05
2.70077e-15
1.03229e-05
3.27914e-15
1.03229e-05
7.5621e-16
1.03229e-05
-1.224e-15
1.03229e-05
-1.57952e-15
1.03229e-05
-1.23763e-15
1.03229e-05
-8.58331e-16
1.03229e-05
-6.31526e-16
1.03229e-05
-3.38061e-16
1.03229e-05
-1.12589e-16
1.03229e-05
-3.70643e-17
1.03229e-05
-5.42057e-16
1.03229e-05
6.5675e-17
1.03229e-05
2.66556e-15
1.03229e-05
3.17026e-15
1.03229e-05
6.4222e-16
1.03229e-05
-1.38583e-15
1.03229e-05
-1.71645e-15
1.03229e-05
-1.19967e-15
1.03229e-05
-6.55669e-16
1.03229e-05
-3.90403e-16
1.03229e-05
-2.2367e-16
1.03229e-05
-1.55152e-16
1.03229e-05
-6.38602e-16
1.03229e-05
-5.93769e-17
1.03229e-05
2.53868e-15
1.03229e-05
3.05941e-15
1.03229e-05
5.24983e-16
1.03229e-05
-1.27731e-15
1.03229e-05
-1.4489e-15
1.03229e-05
-1.06443e-15
1.03229e-05
-6.72404e-16
1.03229e-05
-4.41279e-16
1.03229e-05
-2.84593e-16
1.03229e-05
-2.42808e-16
1.03229e-05
-1.99307e-16
1.03229e-05
-7.19125e-16
1.03229e-05
-1.39987e-16
1.03229e-05
2.56726e-15
1.03229e-05
3.28084e-15
1.03229e-05
8.13906e-16
1.03229e-05
-1.1784e-15
1.03229e-05
-1.50031e-15
1.03229e-05
-1.13204e-15
1.03229e-05
-7.86227e-16
1.03229e-05
-5.56725e-16
1.03229e-05
-4.34442e-16
1.03229e-05
-3.65384e-16
1.03229e-05
-1.65397e-16
1.03229e-05
-5.27913e-16
1.03229e-05
1.29421e-16
1.03229e-05
2.71306e-15
1.03229e-05
3.23929e-15
1.03229e-05
7.47138e-16
1.03229e-05
-1.29256e-15
1.03229e-05
-1.61335e-15
1.03229e-05
-1.34895e-15
1.03229e-05
-9.32681e-16
1.03229e-05
-3.3288e-16
1.03229e-05
3.08987e-16
1.03229e-05
3.77193e-16
1.03229e-05
5.25135e-16
1.03229e-05
-2.12161e-16
1.03229e-05
1.93e-16
1.03229e-05
-5.74027e-16
1.03229e-05
9.77923e-16
1.03229e-05
-1.13875e-15
1.03229e-05
1.73506e-15
1.03229e-05
-3.00951e-15
1.03229e-05
4.4921e-15
1.03229e-05
-7.88844e-15
1.03229e-05
-3.35622e-15
1.03229e-05
2.93984e-15
1.03229e-05
-1.59668e-13
1.03229e-05
-3.9073e-12
1.03229e-05
1.823e-12
1.24367e-11
1.60203e-05
1.58011e-05
1.4189e-05
6.17678e-06
1.32379e-05
1.96396e-06
1.28275e-05
6.44475e-07
1.25397e-05
4.41358e-07
1.23726e-05
2.96737e-07
1.2258e-05
1.90271e-07
1.21838e-05
1.34422e-07
1.21386e-05
6.70731e-08
1.21169e-05
3.21095e-08
1.21092e-05
-1.82655e-09
1.21123e-05
-1.60557e-08
1.21251e-05
-4.12128e-08
1.21427e-05
-4.71816e-08
1.21689e-05
-6.55653e-08
1.21991e-05
-7.34906e-08
1.22335e-05
-8.16913e-08
1.22705e-05
-8.61587e-08
1.23101e-05
-9.24243e-08
1.23538e-05
-1.00911e-07
1.23996e-05
-1.05201e-07
1.24471e-05
-1.08158e-07
1.24959e-05
-1.11077e-07
1.2546e-05
-1.13222e-07
1.2596e-05
-1.12726e-07
1.2642e-05
-1.03919e-07
1.26825e-05
-9.08596e-08
1.27175e-05
-7.79526e-08
1.27475e-05
-6.6398e-08
1.27731e-05
-5.6275e-08
1.27948e-05
-4.75358e-08
1.28131e-05
-4.00196e-08
1.28286e-05
-3.36303e-08
1.28416e-05
-2.82104e-08
1.28526e-05
-2.36644e-08
1.28618e-05
-1.98448e-08
1.28695e-05
-1.66734e-08
1.2876e-05
-1.4016e-08
1.28815e-05
-1.18233e-08
1.28862e-05
-9.98234e-09
1.28901e-05
-8.46803e-09
1.28935e-05
-7.27737e-09
1.28964e-05
-6.21063e-09
1.28988e-05
-5.2138e-09
1.29008e-05
-4.35389e-09
1.29026e-05
-3.73772e-09
1.2904e-05
-3.15111e-09
1.29053e-05
-2.75718e-09
1.29064e-05
-2.37152e-09
1.29074e-05
-2.05294e-09
1.29082e-05
-1.77805e-09
1.29089e-05
-1.54666e-09
1.29095e-05
-1.32493e-09
1.29103e-05
-1.17439e-09
1.29107e-05
-9.99674e-10
1.29111e-05
-8.68405e-10
1.29115e-05
-7.55711e-10
1.29118e-05
-6.54058e-10
1.2912e-05
-5.68351e-10
1.29123e-05
-4.92801e-10
1.29125e-05
-4.27595e-10
1.29126e-05
-3.69926e-10
1.29128e-05
-3.19465e-10
1.29129e-05
-2.77999e-10
1.2913e-05
-2.3991e-10
1.29131e-05
-2.07447e-10
1.29132e-05
-1.83052e-10
1.29133e-05
-1.52647e-10
1.29133e-05
-1.34413e-10
1.29134e-05
-1.1655e-10
1.29134e-05
-1.00792e-10
1.29135e-05
-8.72048e-11
1.29135e-05
-7.55554e-11
1.29135e-05
-6.23305e-11
1.29135e-05
-5.7623e-11
1.29136e-05
-4.87523e-11
1.29136e-05
-4.25496e-11
1.29136e-05
-3.68401e-11
1.29136e-05
-3.07878e-11
1.29136e-05
-2.54964e-11
1.29136e-05
-2.29741e-11
1.29137e-05
-2.06971e-11
1.29137e-05
-1.7451e-11
1.29137e-05
-1.45995e-11
1.29137e-05
-1.28265e-11
1.29137e-05
-1.04323e-11
1.29137e-05
-1.18415e-11
1.29137e-05
-8.58014e-12
1.29137e-05
-6.68976e-12
1.29137e-05
-4.82457e-12
1.29137e-05
-4.55873e-12
1.29137e-05
-4.06953e-12
1.29137e-05
-5.06647e-12
1.29137e-05
-3.07071e-12
1.29137e-05
-3.40257e-12
1.29137e-05
-2.49317e-12
1.29137e-05
-2.25522e-12
1.29137e-05
-1.66415e-12
1.29137e-05
-1.27803e-12
1.29137e-05
-1.09899e-12
1.29137e-05
-9.24665e-13
1.29137e-05
-7.13199e-13
1.29137e-05
-6.43271e-13
1.29137e-05
-6.45226e-13
1.29137e-05
-9.74938e-13
1.29137e-05
-2.84311e-15
1.29137e-05
-1.27012e-12
1.29137e-05
-4.37162e-13
1.29137e-05
-4.15586e-13
1.29137e-05
-1.74622e-13
1.29137e-05
-5.87672e-15
1.29137e-05
3.80488e-13
1.29137e-05
-4.77261e-13
1.29137e-05
5.30771e-13
1.29137e-05
-1.23191e-13
1.29137e-05
-9.70864e-14
1.29137e-05
-1.3766e-13
1.29137e-05
-9.15852e-14
1.29137e-05
-9.37248e-14
1.29137e-05
-6.59193e-14
1.29137e-05
-6.35154e-14
1.29137e-05
-3.67564e-14
1.29137e-05
-4.59899e-14
1.29137e-05
-4.4513e-15
1.29137e-05
-1.43004e-13
1.29137e-05
3.7419e-13
1.29137e-05
-3.54806e-13
1.29137e-05
2.49175e-14
1.29137e-05
-6.16151e-14
1.29137e-05
7.05673e-14
1.29137e-05
1.5625e-13
1.29137e-05
2.29872e-13
1.29137e-05
-1.6052e-13
1.29137e-05
3.92249e-13
1.29137e-05
-9.89902e-15
1.29137e-05
2.61001e-14
1.29137e-05
-1.59879e-15
1.29137e-05
1.59465e-15
1.29137e-05
-5.85575e-15
1.29137e-05
-1.74992e-15
1.29137e-05
-5.204e-15
1.29137e-05
3.41609e-16
1.29137e-05
-6.08858e-15
1.29137e-05
6.5438e-15
1.29137e-05
-9.0508e-15
1.29137e-05
1.32084e-13
1.29137e-05
-1.67365e-13
1.29137e-05
3.71693e-14
1.29137e-05
7.65985e-15
1.29137e-05
1.55712e-14
1.29137e-05
1.53109e-15
1.29137e-05
1.03097e-14
1.29137e-05
-6.11774e-14
1.29137e-05
8.69209e-14
1.29137e-05
-1.42525e-14
1.29137e-05
3.97129e-16
1.29137e-05
-3.7869e-15
1.29137e-05
-1.42384e-15
1.29137e-05
-3.17097e-15
1.29137e-05
-1.73708e-15
1.29137e-05
1.56601e-15
1.29137e-05
3.4869e-15
1.29137e-05
8.45569e-16
1.29137e-05
-1.85949e-15
1.29137e-05
-2.58935e-15
1.29137e-05
-2.19572e-15
1.29137e-05
-1.58483e-15
1.29137e-05
-1.22265e-15
1.29137e-05
-9.73246e-16
1.29137e-05
-8.46583e-16
1.29137e-05
-1.3231e-15
1.29137e-05
-2.92783e-16
1.29137e-05
3.30353e-15
1.29137e-05
4.62748e-15
1.29137e-05
1.68546e-15
1.29137e-05
-1.29055e-15
1.29137e-05
-2.12081e-15
1.29137e-05
-1.88361e-15
1.29137e-05
-1.42202e-15
1.29137e-05
-1.07986e-15
1.29137e-05
-7.97673e-16
1.29137e-05
-3.98266e-16
1.29137e-05
-1.12311e-16
1.29137e-05
-6.90586e-16
1.29137e-05
-2.54252e-17
1.29137e-05
3.30458e-15
1.29137e-05
4.63232e-15
1.29137e-05
1.6122e-15
1.29137e-05
-1.43626e-15
1.29137e-05
-2.32828e-15
1.29137e-05
-1.98482e-15
1.29137e-05
-1.22331e-15
1.29137e-05
-6.69041e-16
1.29137e-05
-4.1298e-16
1.29137e-05
-2.64947e-16
1.29137e-05
-2.0322e-16
1.29137e-05
-8.17037e-16
1.29137e-05
-2.04637e-16
1.29137e-05
3.12774e-15
1.29137e-05
4.34241e-15
1.29137e-05
1.42275e-15
1.29137e-05
-1.28115e-15
1.29137e-05
-1.93571e-15
1.29137e-05
-1.62134e-15
1.29137e-05
-1.10541e-15
1.29137e-05
-7.69157e-16
1.29137e-05
-4.98606e-16
1.29137e-05
-4.29155e-16
1.29137e-05
-1.09721e-15
1.29137e-05
-4.29352e-16
1.29137e-05
3.03001e-15
1.29137e-05
4.56378e-15
1.29137e-05
1.8109e-15
1.29137e-05
-1.12218e-15
1.29137e-05
-1.98618e-15
1.29137e-05
-1.70872e-15
1.29137e-05
-1.18182e-15
1.29137e-05
-8.87202e-16
1.29137e-05
-7.17542e-16
1.29137e-05
-6.13407e-16
1.29137e-05
-4.84607e-16
1.29137e-05
-8.34394e-16
1.29137e-05
3.14149e-17
1.29137e-05
3.40622e-15
1.29137e-05
4.71337e-15
1.29137e-05
1.73534e-15
1.29137e-05
-1.23267e-15
1.29137e-05
-2.15546e-15
1.29137e-05
-1.92241e-15
1.29137e-05
-1.44918e-15
1.29137e-05
-1.03524e-15
1.29137e-05
-5.53772e-16
1.29137e-05
-2.22822e-16
1.29137e-05
-1.13387e-16
1.29137e-05
-7.26045e-16
1.29137e-05
-5.48045e-17
1.29137e-05
3.33464e-15
1.29137e-05
4.53832e-15
1.29137e-05
1.51339e-15
1.29137e-05
-1.53101e-15
1.29137e-05
-2.33422e-15
1.29137e-05
-1.78106e-15
1.29137e-05
-1.06688e-15
1.29137e-05
-6.78747e-16
1.29137e-05
-4.24018e-16
1.29137e-05
-3.11998e-16
1.29137e-05
-8.86929e-16
1.29137e-05
-2.54523e-16
1.29137e-05
3.09189e-15
1.29137e-05
4.32047e-15
1.29137e-05
1.40695e-15
1.29137e-05
-1.28255e-15
1.29137e-05
-1.94419e-15
1.29137e-05
-1.61643e-15
1.29137e-05
-1.10954e-15
1.29137e-05
-7.64313e-16
1.29137e-05
-5.15698e-16
1.29137e-05
-4.44732e-16
1.29137e-05
-4.13679e-16
1.29137e-05
-1.06119e-15
1.29137e-05
-3.48631e-16
1.29137e-05
3.2399e-15
1.29137e-05
4.73486e-15
1.29137e-05
1.82247e-15
1.29137e-05
-1.15847e-15
1.29137e-05
-2.02886e-15
1.29137e-05
-1.72212e-15
1.29137e-05
-1.28797e-15
1.29137e-05
-9.8412e-16
1.29137e-05
-7.93582e-16
1.29137e-05
-6.02529e-16
1.29137e-05
-2.72321e-16
1.29137e-05
-6.90125e-16
1.29137e-05
3.95099e-17
1.29137e-05
3.4102e-15
1.29137e-05
4.6561e-15
1.29137e-05
1.71485e-15
1.29137e-05
-1.34068e-15
1.29137e-05
-2.24853e-15
1.29137e-05
-2.08603e-15
1.29137e-05
-1.49148e-15
1.29137e-05
-6.1552e-16
1.29137e-05
3.06709e-16
1.29137e-05
5.16642e-16
1.29137e-05
7.40972e-16
1.29137e-05
-1.64187e-16
1.29137e-05
2.25783e-16
1.29137e-05
-7.26265e-16
1.29137e-05
1.10405e-15
1.29137e-05
-1.35084e-15
1.29137e-05
1.97264e-15
1.29137e-05
-3.40123e-15
1.29137e-05
4.82464e-15
1.29137e-05
-9.19573e-15
1.29137e-05
-7.35916e-15
1.29137e-05
8.20079e-15
1.29137e-05
-2.49781e-13
1.29137e-05
-4.06902e-12
1.29137e-05
2.2291e-12
1.1451e-11
1.74793e-05
1.58218e-05
1.63737e-05
7.28238e-06
1.55124e-05
2.82531e-06
1.48951e-05
1.26176e-06
1.44533e-05
8.83171e-07
1.42072e-05
5.42775e-07
1.40318e-05
3.65738e-07
1.3923e-05
2.43146e-07
1.38519e-05
1.38263e-07
1.38122e-05
7.17237e-08
1.37905e-05
1.99376e-08
1.37856e-05
-1.11981e-08
1.37915e-05
-4.7144e-08
1.38054e-05
-6.09843e-08
1.38291e-05
-8.92946e-08
1.38581e-05
-1.02555e-07
1.3893e-05
-1.16542e-07
1.39314e-05
-1.24549e-07
1.3973e-05
-1.34089e-07
1.40194e-05
-1.47295e-07
1.40685e-05
-1.54271e-07
1.41197e-05
-1.59376e-07
1.41728e-05
-1.6412e-07
1.42276e-05
-1.68012e-07
1.42818e-05
-1.67005e-07
1.43315e-05
-1.53575e-07
1.43753e-05
-1.34658e-07
1.44134e-05
-1.16032e-07
1.44462e-05
-9.92217e-08
1.44743e-05
-8.43904e-08
1.44983e-05
-7.15224e-08
1.45186e-05
-6.03529e-08
1.45358e-05
-5.08333e-08
1.45503e-05
-4.2731e-08
1.45626e-05
-3.59073e-08
1.45729e-05
-3.01584e-08
1.45816e-05
-2.5368e-08
1.45889e-05
-2.13462e-08
1.45951e-05
-1.80179e-08
1.46004e-05
-1.52196e-08
1.46048e-05
-1.29079e-08
1.46086e-05
-1.10848e-08
1.46119e-05
-9.46615e-09
1.46146e-05
-7.95654e-09
1.46169e-05
-6.64825e-09
1.46188e-05
-5.68211e-09
1.46205e-05
-4.81895e-09
1.46219e-05
-4.18785e-09
1.46232e-05
-3.60611e-09
1.46242e-05
-3.11993e-09
1.46252e-05
-2.69983e-09
1.4626e-05
-2.34506e-09
1.46267e-05
-2.01584e-09
1.46273e-05
-1.76902e-09
1.46278e-05
-1.51813e-09
1.46282e-05
-1.31654e-09
1.46286e-05
-1.14377e-09
1.46289e-05
-9.89939e-10
1.46292e-05
-8.59342e-10
1.46295e-05
-7.45159e-10
1.46297e-05
-6.46212e-10
1.46299e-05
-5.59332e-10
1.46301e-05
-4.82905e-10
1.46302e-05
-4.20221e-10
1.46303e-05
-3.62127e-10
1.46304e-05
-3.17701e-10
1.46308e-05
-5.47312e-10
1.46309e-05
-2.3434e-10
1.46309e-05
-2.03261e-10
1.4631e-05
-1.76183e-10
1.46311e-05
-1.52016e-10
1.46311e-05
-1.32053e-10
1.46311e-05
-1.1393e-10
1.46312e-05
-9.42178e-11
1.46312e-05
-8.70957e-11
1.46312e-05
-7.3553e-11
1.46312e-05
-6.39738e-11
1.46313e-05
-5.54275e-11
1.46313e-05
-4.67729e-11
1.46313e-05
-3.89262e-11
1.46313e-05
-3.45212e-11
1.46313e-05
-3.10547e-11
1.46313e-05
-2.62509e-11
1.46313e-05
-2.21645e-11
1.46313e-05
-1.92174e-11
1.46313e-05
-1.58006e-11
1.46314e-05
-1.7626e-11
1.46314e-05
-1.27289e-11
1.46314e-05
-1.00815e-11
1.46314e-05
-7.53588e-12
1.46314e-05
-6.94599e-12
1.46314e-05
-6.23027e-12
1.46314e-05
-7.42042e-12
1.46314e-05
-4.59268e-12
1.46314e-05
-5.07257e-12
1.46314e-05
-3.86819e-12
1.46314e-05
-3.35245e-12
1.46314e-05
-2.45188e-12
1.46314e-05
-1.92664e-12
1.46314e-05
-1.66375e-12
1.46314e-05
-1.41585e-12
1.46314e-05
-1.14203e-12
1.46314e-05
-1.03409e-12
1.46314e-05
-1.04032e-12
1.46314e-05
-1.4116e-12
1.46314e-05
-1.30314e-13
1.46314e-05
-1.77233e-12
1.46314e-05
-6.8049e-13
1.46314e-05
-5.91468e-13
1.46314e-05
-3.34272e-13
1.46314e-05
-1.54838e-13
1.46314e-05
3.39534e-13
1.46314e-05
-7.28912e-13
1.46314e-05
6.37091e-13
1.46314e-05
-1.69345e-13
1.46314e-05
-1.55205e-13
1.46314e-05
-1.97332e-13
1.46314e-05
-1.37316e-13
1.46314e-05
-1.33258e-13
1.46314e-05
-9.74176e-14
1.46314e-05
-8.87743e-14
1.46314e-05
-5.67637e-14
1.46314e-05
-6.19453e-14
1.46314e-05
-1.70793e-14
1.46314e-05
-1.84271e-13
1.46314e-05
4.94283e-13
1.46314e-05
-4.62176e-13
1.46314e-05
1.63365e-14
1.46314e-05
-1.11286e-13
1.46314e-05
-1.5466e-14
1.46314e-05
9.70823e-14
1.46314e-05
2.22783e-13
1.46314e-05
-2.50196e-13
1.46314e-05
4.99672e-13
1.46314e-05
7.45978e-16
1.46314e-05
3.18953e-14
1.46314e-05
-8.90543e-16
1.46314e-05
8.74903e-16
1.46314e-05
-7.46152e-15
1.46314e-05
-3.34233e-15
1.46314e-05
-6.69552e-15
1.46314e-05
-8.30599e-16
1.46314e-05
-6.98771e-15
1.46314e-05
6.43242e-15
1.46314e-05
-8.4292e-15
1.46314e-05
1.76705e-13
1.46314e-05
-2.18968e-13
1.46314e-05
3.85921e-14
1.46314e-05
1.03394e-14
1.46314e-05
1.99177e-14
1.46314e-05
5.01025e-15
1.46314e-05
1.28459e-14
1.46314e-05
-8.12308e-14
1.46314e-05
1.14285e-13
1.46314e-05
-1.33262e-14
1.46314e-05
8.02159e-16
1.46314e-05
-4.44379e-15
1.46314e-05
-2.2612e-15
1.46314e-05
-4.14523e-15
1.46314e-05
-2.67909e-15
1.46314e-05
9.95513e-16
1.46314e-05
3.59488e-15
1.46314e-05
1.19838e-15
1.46314e-05
-1.84723e-15
1.46314e-05
-2.96835e-15
1.46314e-05
-2.71671e-15
1.46314e-05
-2.07894e-15
1.46314e-05
-1.6461e-15
1.46314e-05
-1.35364e-15
1.46314e-05
-1.18095e-15
1.46314e-05
-1.59467e-15
1.46314e-05
-5.12547e-16
1.46314e-05
3.38199e-15
1.46314e-05
5.23449e-15
1.46314e-05
2.42635e-15
1.46314e-05
-9.71294e-16
1.46314e-05
-2.26121e-15
1.46314e-05
-2.23058e-15
1.46314e-05
-1.81273e-15
1.46314e-05
-1.43219e-15
1.46314e-05
-1.04021e-15
1.46314e-05
-5.41667e-16
1.46314e-05
-2.03176e-16
1.46314e-05
-7.8804e-16
1.46314e-05
-1.45524e-16
1.46314e-05
3.43173e-15
1.46314e-05
5.26356e-15
1.46314e-05
2.35172e-15
1.46314e-05
-1.15642e-15
1.46314e-05
-2.52341e-15
1.46314e-05
-2.32563e-15
1.46314e-05
-1.51954e-15
1.46314e-05
-8.88228e-16
1.46314e-05
-5.72538e-16
1.46314e-05
-3.90192e-16
1.46314e-05
-3.11789e-16
1.46314e-05
-9.40147e-16
1.46314e-05
-3.69897e-16
1.46314e-05
3.17394e-15
1.46314e-05
4.88522e-15
1.46314e-05
2.1411e-15
1.46314e-05
-9.36578e-16
1.46314e-05
-2.02283e-15
1.46314e-05
-1.89678e-15
1.46314e-05
-1.3926e-15
1.46314e-05
-1.00598e-15
1.46314e-05
-6.91966e-16
1.46314e-05
-6.11082e-16
1.46314e-05
-1.31175e-15
1.46314e-05
-6.75225e-16
1.46314e-05
3.08501e-15
1.46314e-05
5.19472e-15
1.46314e-05
2.59629e-15
1.46314e-05
-7.58877e-16
1.46314e-05
-2.08242e-15
1.46314e-05
-2.00008e-15
1.46314e-05
-1.48987e-15
1.46314e-05
-1.16408e-15
1.46314e-05
-9.72586e-16
1.46314e-05
-8.45449e-16
1.46314e-05
-6.46733e-16
1.46314e-05
-9.51453e-16
1.46314e-05
-8.17095e-17
1.46314e-05
3.54871e-15
1.46314e-05
5.36325e-15
1.46314e-05
2.50819e-15
1.46314e-05
-8.8845e-16
1.46314e-05
-2.29069e-15
1.46314e-05
-2.28534e-15
1.46314e-05
-1.83895e-15
1.46314e-05
-1.32897e-15
1.46314e-05
-7.34491e-16
1.46314e-05
-3.38408e-16
1.46314e-05
-2.04974e-16
1.46314e-05
-8.28481e-16
1.46314e-05
-1.85941e-16
1.46314e-05
3.44874e-15
1.46314e-05
5.14329e-15
1.46314e-05
2.20896e-15
1.46314e-05
-1.27747e-15
1.46314e-05
-2.4928e-15
1.46314e-05
-2.07563e-15
1.46314e-05
-1.34347e-15
1.46314e-05
-8.99379e-16
1.46314e-05
-5.97256e-16
1.46314e-05
-4.57789e-16
1.46314e-05
-1.03742e-15
1.46314e-05
-4.39929e-16
1.46314e-05
3.12386e-15
1.46314e-05
4.85482e-15
1.46314e-05
2.11876e-15
1.46314e-05
-9.42668e-16
1.46314e-05
-2.03601e-15
1.46314e-05
-1.89493e-15
1.46314e-05
-1.3985e-15
1.46314e-05
-1.00727e-15
1.46314e-05
-7.06147e-16
1.46314e-05
-6.16541e-16
1.46314e-05
-5.9936e-16
1.46314e-05
-1.27265e-15
1.46314e-05
-5.36423e-16
1.46314e-05
3.36142e-15
1.46314e-05
5.394e-15
1.46314e-05
2.60955e-15
1.46314e-05
-7.95898e-16
1.46314e-05
-2.13148e-15
1.46314e-05
-2.02147e-15
1.46314e-05
-1.61815e-15
1.46314e-05
-1.30012e-15
1.46314e-05
-1.06714e-15
1.46314e-05
-7.92276e-16
1.46314e-05
-3.83067e-16
1.46314e-05
-7.83591e-16
1.46314e-05
-7.79774e-17
1.46314e-05
3.54332e-15
1.46314e-05
5.29728e-15
1.46314e-05
2.47736e-15
1.46314e-05
-1.0233e-15
1.46314e-05
-2.42741e-15
1.46314e-05
-2.47776e-15
1.46314e-05
-1.85734e-15
1.46314e-05
-8.63054e-16
1.46314e-05
2.07431e-16
1.46314e-05
5.37147e-16
1.46314e-05
8.3736e-16
1.46314e-05
-9.59119e-17
1.46314e-05
2.56719e-16
1.46314e-05
-7.91936e-16
1.46314e-05
1.09949e-15
1.46314e-05
-1.42675e-15
1.46314e-05
2.01207e-15
1.46314e-05
-3.45779e-15
1.46314e-05
4.65931e-15
1.46314e-05