/*--------------------------------*- C++ -*----------------------------------*\
| =========                 |                                                 |
| \\      /  F ield         | foam-extend: Open Source CFD                    |
|  \\    /   O peration     | Version:     3.2                                |
|   \\  /    A nd           | Web:         http://www.foam-extend.org         |
|    \\/     M anipulation  | For copyright notice see file Copyright         |
\*---------------------------------------------------------------------------*/
FoamFile
{
    version     2.0;
    format      ascii;
    class       volVectorField;
    location    "60";
    object      q_b_slide;
}
// * * * * * * * * * * * * * * * * * * * * * * * * * * * * * * * * * * * * * //

dimensions      [0 2 -1 0 0 0 0];

internalField   uniform (0 0 0);

boundaryField
{
    inlet
    {
        type            calculated;
        value           uniform (0 0 0);
    }
    outlet
    {
        type            calculated;
        value           uniform (0 0 0);
    }
    sideWall
    {
        type            empty;
    }
    bed
    {
        type            calculated;
        value           nonuniform List<vector> 
300
(
(0.00035082 -4.49291e-29 -1.7541e-06)
(0.000199049 5.18151e-29 -9.95245e-07)
(0.000119418 1.41836e-29 -5.97092e-07)
(0.000121297 0 -6.06484e-07)
(0.00011341 -1.06845e-26 -5.6705e-07)
(0.000114381 -3.35822e-27 -5.71904e-07)
(0.000111088 -4.24053e-27 -5.55439e-07)
(0.000111146 -7.49969e-28 -5.55732e-07)
(0.000109894 0 -5.49472e-07)
(0.000110442 -5.55991e-28 -5.52212e-07)
(0.00011047 0 -5.52352e-07)
(0.000111332 8.88322e-28 -5.56659e-07)
(0.000112041 -1.02945e-31 -5.60205e-07)
(0.00011328 1.22133e-27 -5.66398e-07)
(0.000114357 0 -5.71787e-07)
(0.000115861 0 -5.79305e-07)
(0.00011728 1.47235e-27 -5.864e-07)
(0.000118924 -1.38319e-27 -5.94622e-07)
(0.000120522 1.57131e-27 -6.02611e-07)
(0.000122331 0 -6.11654e-07)
(0.000124192 0 -6.20959e-07)
(0.000126114 -1.57849e-27 -6.30571e-07)
(0.000128075 0 -6.40377e-07)
(0.000130069 0 -6.50344e-07)
(0.000132081 0 -6.60404e-07)
(0.000134013 -1.33895e-27 -6.70067e-07)
(0.000135717 -4.17163e-31 -6.78586e-07)
(0.000137172 0 -6.85858e-07)
(0.000138397 0 -6.91986e-07)
(0.000139428 -5.37423e-28 -6.97139e-07)
(0.000140291 -2.32611e-31 -7.01454e-07)
(0.000141013 0 -7.05065e-07)
(0.000141616 0 -7.08078e-07)
(0.000142119 0 -7.10593e-07)
(0.000142538 -1.19036e-31 -7.12691e-07)
(0.000142889 0 -7.14443e-07)
(0.000143182 0 -7.15909e-07)
(0.000143428 -7.10076e-32 -7.17139e-07)
(0.000143635 0 -7.18173e-07)
(0.000143809 0 -7.19046e-07)
(0.000143956 0 -7.19782e-07)
(0.000144083 -5.15995e-29 -7.20413e-07)
(0.000144191 0 -7.20956e-07)
(0.000144283 -3.43182e-29 -7.21415e-07)
(0.00014436 0 -7.21798e-07)
(0.000144424 0 -7.22119e-07)
(0.00014448 -3.00999e-29 -7.224e-07)
(0.000144527 0 -7.22637e-07)
(0.000144569 -1.81765e-29 -7.22844e-07)
(0.000144605 0 -7.23024e-07)
(0.000144636 0 -7.2318e-07)
(0.000144663 -1.20544e-29 -7.23316e-07)
(0.000144687 0 -7.23434e-07)
(0.000144707 -1.0081e-29 -7.23536e-07)
(0.000144725 0 -7.23627e-07)
(0.000144741 0 -7.23705e-07)
(0.000144754 -6.40386e-30 -7.23771e-07)
(0.000144766 0 -7.2383e-07)
(0.000144776 -2.84971e-33 -7.23881e-07)
(0.000144785 0 -7.23925e-07)
(0.000144793 0 -7.23963e-07)
(0.000144799 -3.21224e-30 -7.23996e-07)
(0.000144805 0 -7.24025e-07)
(0.00014481 -2.32733e-30 -7.24049e-07)
(0.000144814 0 -7.24071e-07)
(0.000144818 0 -7.24089e-07)
(0.000144821 -1.56532e-30 -7.24106e-07)
(0.000144824 0 -7.2412e-07)
(0.000144826 -1.11873e-30 -7.24132e-07)
(0.000144829 0 -7.24143e-07)
(0.00014483 9.71561e-31 -7.24151e-07)
(0.000144832 -7.39456e-31 -7.24159e-07)
(0.000144833 0 -7.24166e-07)
(0.000144834 -6.15999e-31 -7.24171e-07)
(0.000144835 0 -7.24176e-07)
(0.000144836 0 -7.24181e-07)
(0.000144837 -3.99574e-31 -7.24185e-07)
(0.000144838 0 -7.24188e-07)
(0.000144838 -2.18425e-31 -7.24191e-07)
(0.000144839 0 -7.24193e-07)
(0.000144839 0 -7.24195e-07)
(0.000144839 0 -7.24197e-07)
(0.00014484 0 -7.24198e-07)
(0.00014484 0 -7.242e-07)
(0.00014484 0 -7.24201e-07)
(0.00014484 7.82855e-32 -7.24201e-07)
(0.00014484 6.64241e-35 -7.24202e-07)
(0.000144841 0 -7.24203e-07)
(0.000144841 0 -7.24204e-07)
(0.000144841 0 -7.24205e-07)
(0.000144841 0 -7.24206e-07)
(0.000144841 0 -7.24206e-07)
(0.000144841 0 -7.24206e-07)
(0.000144841 0 -7.24206e-07)
(0.000144841 0 -7.24206e-07)
(0.000144841 0 -7.24207e-07)
(0.000144841 0 -7.24207e-07)
(0.000144841 0 -7.24207e-07)
(0.000144842 0 -7.24208e-07)
(0.000144842 0 -7.24208e-07)
(0.000144842 0 -7.24208e-07)
(0.000144842 -6.81418e-33 -7.24208e-07)
(0.000144842 1.97088e-36 -7.24208e-07)
(0.000144842 0 -7.24208e-07)
(0.000144842 0 -7.24208e-07)
(0.000144842 0 -7.24208e-07)
(0.000144842 0 -7.24208e-07)
(0.000144842 0 -7.24208e-07)
(0.000144842 0 -7.24208e-07)
(0.000144842 0 -7.24208e-07)
(0.000144842 0 -7.24208e-07)
(0.000144842 0 -7.24208e-07)
(0.000144842 0 -7.24208e-07)
(0.000144842 0 -7.24208e-07)
(0.000144842 0 -7.24208e-07)
(0.000144842 0 -7.24208e-07)
(0.000144842 0 -7.24208e-07)
(0.000144842 -2.14498e-33 -7.24208e-07)
(0.000144842 0 -7.24208e-07)
(0.000144842 0 -7.24208e-07)
(0.000144842 0 -7.24208e-07)
(0.000144842 0 -7.24208e-07)
(0.000144842 0 -7.24208e-07)
(0.000144842 0 -7.24208e-07)
(0.000144842 0 -7.24208e-07)
(0.000144842 0 -7.24208e-07)
(0.000144842 0 -7.24208e-07)
(0.000144842 0 -7.24208e-07)
(0.000144842 0 -7.24208e-07)
(0.000144842 0 -7.24209e-07)
(0.000144842 0 -7.24209e-07)
(0.000144842 0 -7.24209e-07)
(0.000144842 0 -7.24209e-07)
(0.000144842 0 -7.24209e-07)
(0.000144842 0 -7.24209e-07)
(0.000144842 0 -7.24209e-07)
(0.000144842 0 -7.24209e-07)
(0.000144842 0 -7.24209e-07)
(0.000144842 0 -7.24209e-07)
(0.000144842 0 -7.24209e-07)
(0.000144842 0 -7.24209e-07)
(0.000144842 0 -7.24209e-07)
(0.000144842 0 -7.24209e-07)
(0.000144842 0 -7.24209e-07)
(0.000144842 0 -7.24209e-07)
(0.000144842 0 -7.24209e-07)
(0.000144842 0 -7.24209e-07)
(0.000144842 0 -7.24209e-07)
(0.000144842 0 -7.24209e-07)
(0.000144842 0 -7.24209e-07)
(0.000144842 0 -7.24209e-07)
(0.000144842 0 -7.24209e-07)
(0.000144842 0 -7.24209e-07)
(0.000144842 0 -7.24209e-07)
(0.000144842 0 -7.24209e-07)
(0.000144842 0 -7.24209e-07)
(0.000144842 0 -7.24209e-07)
(0.000144842 0 -7.24209e-07)
(0.000144842 0 -7.24209e-07)
(0.000144842 0 -7.24209e-07)
(0.000144842 0 -7.24209e-07)
(0.000144842 0 -7.24209e-07)
(0.000144842 0 -7.24209e-07)
(0.000144842 0 -7.24209e-07)
(0.000144842 0 -7.24209e-07)
(0.000144842 0 -7.24209e-07)
(0.000144842 0 -7.24209e-07)
(0.000144842 0 -7.24209e-07)
(0.000144842 0 -7.24209e-07)
(0.000144842 0 -7.24209e-07)
(0.000144842 0 -7.24209e-07)
(0.000144842 0 -7.24209e-07)
(0.000144842 0 -7.24209e-07)
(0.000144842 0 -7.24209e-07)
(0.000144842 0 -7.24209e-07)
(0.000144842 0 -7.24209e-07)
(0.000144842 0 -7.24209e-07)
(0.000144842 0 -7.24209e-07)
(0.000144842 0 -7.24209e-07)
(0.000144842 0 -7.24209e-07)
(0.000144842 0 -7.24209e-07)
(0.000144842 0 -7.24209e-07)
(0.000144842 0 -7.24209e-07)
(0.000144842 0 -7.24209e-07)
(0.000144842 0 -7.24209e-07)
(0.000144842 0 -7.24209e-07)
(0.000144842 0 -7.24209e-07)
(0.000144842 0 -7.24209e-07)
(0.000144842 0 -7.24209e-07)
(0.000144842 0 -7.24209e-07)
(0.000144842 0 -7.24209e-07)
(0.000144842 0 -7.24209e-07)
(0.000144842 0 -7.24209e-07)
(0.000144842 0 -7.24209e-07)
(0.000144842 0 -7.24209e-07)
(0.000144842 0 -7.24209e-07)
(0.000144842 0 -7.24209e-07)
(0.000144842 0 -7.24209e-07)
(0.000144842 0 -7.24209e-07)
(0.000144842 0 -7.24209e-07)
(0.000144842 0 -7.24209e-07)
(0.000144842 0 -7.24209e-07)
(0.000144842 0 -7.24209e-07)
(0.000144842 0 -7.24209e-07)
(0.000144842 0 -7.24209e-07)
(0.000144842 0 -7.24209e-07)
(0.000144842 0 -7.24209e-07)
(0.000144842 0 -7.24209e-07)
(0.000144842 0 -7.24209e-07)
(0.000144842 0 -7.24209e-07)
(0.000144842 0 -7.24209e-07)
(0.000144842 0 -7.24209e-07)
(0.000144842 0 -7.24209e-07)
(0.000144842 0 -7.24209e-07)
(0.000144842 0 -7.24209e-07)
(0.000144842 0 -7.24209e-07)
(0.000144842 0 -7.24209e-07)
(0.000144842 0 -7.24209e-07)
(0.000144842 0 -7.24209e-07)
(0.000144842 0 -7.24209e-07)
(0.000144842 0 -7.24209e-07)
(0.000144842 0 -7.24209e-07)
(0.000144842 0 -7.24209e-07)
(0.000144842 0 -7.24209e-07)
(0.000144842 0 -7.24209e-07)
(0.000144842 0 -7.24209e-07)
(0.000144842 0 -7.24209e-07)
(0.000144842 0 -7.24209e-07)
(0.000144842 0 -7.24209e-07)
(0.000144842 0 -7.24209e-07)
(0.000144842 0 -7.24209e-07)
(0.000144842 0 -7.24209e-07)
(0.000144842 0 -7.24209e-07)
(0.000144842 0 -7.24209e-07)
(0.000144842 7.92004e-39 -7.24209e-07)
(0.000144842 0 -7.24209e-07)
(0.000144842 0 -7.24209e-07)
(0.000144842 0 -7.24209e-07)
(0.000144842 0 -7.24209e-07)
(0.000144842 0 -7.24209e-07)
(0.000144842 0 -7.24209e-07)
(0.000144842 0 -7.24209e-07)
(0.000144842 0 -7.24209e-07)
(0.000144842 0 -7.24209e-07)
(0.000144842 0 -7.24209e-07)
(0.000144842 0 -7.24209e-07)
(0.000144842 0 -7.24209e-07)
(0.000144842 0 -7.24209e-07)
(0.000144842 0 -7.24209e-07)
(0.000144842 0 -7.24209e-07)
(0.000144842 0 -7.24209e-07)
(0.000144842 0 -7.24209e-07)
(0.000144842 0 -7.24209e-07)
(0.000144842 0 -7.24209e-07)
(0.000144842 0 -7.24209e-07)
(0.000144842 0 -7.24209e-07)
(0.000144842 0 -7.24209e-07)
(0.000144842 0 -7.24209e-07)
(0.000144842 0 -7.24209e-07)
(0.000144842 0 -7.24209e-07)
(0.000144842 0 -7.24209e-07)
(0.000144842 0 -7.24209e-07)
(0.000144842 0 -7.24209e-07)
(0.000144842 0 -7.24209e-07)
(0.000144842 0 -7.24209e-07)
(0.000144842 0 -7.24209e-07)
(0.000144842 0 -7.24209e-07)
(0.000144842 0 -7.24209e-07)
(0.000144842 0 -7.24209e-07)
(0.000144842 0 -7.24209e-07)
(0.000144842 0 -7.24209e-07)
(0.000144842 0 -7.24209e-07)
(0.000144842 0 -7.24209e-07)
(0.000144842 0 -7.24209e-07)
(0.000144842 0 -7.24209e-07)
(0.000144842 0 -7.24209e-07)
(0.000144842 0 -7.24209e-07)
(0.000144842 0 -7.24209e-07)
(0.000144842 0 -7.24209e-07)
(0.000144842 0 -7.24209e-07)
(0.000144842 0 -7.24209e-07)
(0.000144842 1.43153e-35 -7.24209e-07)
(0.000144842 0 -7.24209e-07)
(0.000144842 0 -7.24209e-07)
(0.000144842 0 -7.24209e-07)
(0.000144842 0 -7.24209e-07)
(0.000144842 0 -7.24209e-07)
(0.000144842 0 -7.24209e-07)
(0.000144842 0 -7.24209e-07)
(0.000144842 0 -7.24209e-07)
(0.000144842 0 -7.24209e-07)
(0.000144842 0 -7.24209e-07)
(0.000144842 0 -7.24209e-07)
(0.000144842 0 -7.24209e-07)
(0.000144842 0 -7.24209e-07)
(0.000144842 0 -7.24209e-07)
(0.000144842 0 -7.24209e-07)
(0.000144842 0 -7.24209e-07)
(0.000144842 0 -7.2421e-07)
(0.000144841 0 -7.24207e-07)
)
;
    }
    topWall
    {
        type            calculated;
        value           uniform (0 0 0);
    }
}


// ************************************************************************* //
