/*--------------------------------*- C++ -*----------------------------------*\
| =========                 |                                                 |
| \\      /  F ield         | foam-extend: Open Source CFD                    |
|  \\    /   O peration     | Version:     3.2                                |
|   \\  /    A nd           | Web:         http://www.foam-extend.org         |
|    \\/     M anipulation  | For copyright notice see file Copyright         |
\*---------------------------------------------------------------------------*/
FoamFile
{
    version     2.0;
    format      ascii;
    class       edgeScalarField;
    location    "60";
    object      q_f;
}
// * * * * * * * * * * * * * * * * * * * * * * * * * * * * * * * * * * * * * //

dimensions      [0 3 -1 0 0 0 0];

internalField   nonuniform List<scalar> 
299
(
5.49876e-06
3.18471e-06
2.40718e-06
2.3471e-06
2.27794e-06
2.25471e-06
2.22237e-06
2.21044e-06
2.2034e-06
2.20916e-06
2.21805e-06
2.23376e-06
2.25323e-06
2.2764e-06
2.30221e-06
2.33144e-06
2.36207e-06
2.3945e-06
2.42856e-06
2.46526e-06
2.50309e-06
2.54193e-06
2.58147e-06
2.62153e-06
2.66098e-06
2.69734e-06
2.72892e-06
2.75572e-06
2.77829e-06
2.79722e-06
2.81307e-06
2.82632e-06
2.83738e-06
2.8466e-06
2.8543e-06
2.86074e-06
2.86613e-06
2.87066e-06
2.87447e-06
2.87769e-06
2.88043e-06
2.88278e-06
2.88478e-06
2.88646e-06
2.88787e-06
2.88907e-06
2.89011e-06
2.891e-06
2.89177e-06
2.89245e-06
2.89303e-06
2.89354e-06
2.89398e-06
2.89436e-06
2.8947e-06
2.89499e-06
2.89524e-06
2.89546e-06
2.89565e-06
2.89581e-06
2.89595e-06
2.89608e-06
2.89618e-06
2.89628e-06
2.89636e-06
2.89643e-06
2.89649e-06
2.89654e-06
2.89659e-06
2.89662e-06
2.89666e-06
2.89669e-06
2.89671e-06
2.89673e-06
2.89675e-06
2.89677e-06
2.89678e-06
2.89679e-06
2.8968e-06
2.89681e-06
2.89682e-06
2.89683e-06
2.89683e-06
2.89684e-06
2.89684e-06
2.89684e-06
2.89685e-06
2.89685e-06
2.89685e-06
2.89686e-06
2.89686e-06
2.89686e-06
2.89686e-06
2.89686e-06
2.89686e-06
2.89686e-06
2.89687e-06
2.89687e-06
2.89687e-06
2.89687e-06
2.89687e-06
2.89687e-06
2.89687e-06
2.89687e-06
2.89687e-06
2.89687e-06
2.89687e-06
2.89687e-06
2.89687e-06
2.89687e-06
2.89687e-06
2.89687e-06
2.89687e-06
2.89687e-06
2.89687e-06
2.89687e-06
2.89687e-06
2.89687e-06
2.89687e-06
2.89687e-06
2.89687e-06
2.89687e-06
2.89687e-06
2.89687e-06
2.89687e-06
2.89687e-06
2.89687e-06
2.89687e-06
2.89687e-06
2.89687e-06
2.89687e-06
2.89687e-06
2.89687e-06
2.89687e-06
2.89687e-06
2.89687e-06
2.89687e-06
2.89687e-06
2.89687e-06
2.89687e-06
2.89687e-06
2.89687e-06
2.89687e-06
2.89687e-06
2.89687e-06
2.89687e-06
2.89687e-06
2.89687e-06
2.89687e-06
2.89687e-06
2.89687e-06
2.89687e-06
2.89687e-06
2.89687e-06
2.89687e-06
2.89687e-06
2.89687e-06
2.89687e-06
2.89687e-06
2.89687e-06
2.89687e-06
2.89687e-06
2.89687e-06
2.89687e-06
2.89687e-06
2.89687e-06
2.89687e-06
2.89687e-06
2.89687e-06
2.89687e-06
2.89687e-06
2.89687e-06
2.89687e-06
2.89687e-06
2.89687e-06
2.89687e-06
2.89687e-06
2.89687e-06
2.89687e-06
2.89687e-06
2.89687e-06
2.89687e-06
2.89687e-06
2.89687e-06
2.89687e-06
2.89687e-06
2.89687e-06
2.89687e-06
2.89687e-06
2.89687e-06
2.89687e-06
2.89687e-06
2.89687e-06
2.89687e-06
2.89687e-06
2.89687e-06
2.89687e-06
2.89687e-06
2.89687e-06
2.89687e-06
2.89687e-06
2.89687e-06
2.89687e-06
2.89687e-06
2.89687e-06
2.89687e-06
2.89687e-06
2.89687e-06
2.89687e-06
2.89687e-06
2.89687e-06
2.89687e-06
2.89687e-06
2.89687e-06
2.89687e-06
2.89687e-06
2.89687e-06
2.89687e-06
2.89687e-06
2.89687e-06
2.89687e-06
2.89687e-06
2.89687e-06
2.89687e-06
2.89687e-06
2.89687e-06
2.89687e-06
2.89687e-06
2.89687e-06
2.89687e-06
2.89687e-06
2.89687e-06
2.89687e-06
2.89687e-06
2.89687e-06
2.89687e-06
2.89687e-06
2.89687e-06
2.89687e-06
2.89687e-06
2.89687e-06
2.89687e-06
2.89687e-06
2.89687e-06
2.89687e-06
2.89687e-06
2.89687e-06
2.89687e-06
2.89687e-06
2.89687e-06
2.89687e-06
2.89687e-06
2.89687e-06
2.89687e-06
2.89687e-06
2.89687e-06
2.89687e-06
2.89687e-06
2.89687e-06
2.89687e-06
2.89687e-06
2.89687e-06
2.89687e-06
2.89687e-06
2.89687e-06
2.89687e-06
2.89687e-06
2.89687e-06
2.89687e-06
2.89687e-06
2.89687e-06
2.89687e-06
2.89687e-06
2.89687e-06
2.89687e-06
2.89687e-06
2.89687e-06
2.89687e-06
2.89687e-06
2.89687e-06
2.89687e-06
2.89687e-06
2.89687e-06
2.89687e-06
2.89687e-06
2.89687e-06
2.89687e-06
2.89687e-06
2.89687e-06
2.89687e-06
2.89687e-06
2.89687e-06
2.89687e-06
2.89687e-06
2.89687e-06
2.89687e-06
2.89687e-06
2.89687e-06
2.89687e-06
)
;

boundaryField
{
    inlet
    {
        type            calculated;
        value           uniform -7.01651e-06;
    }
    outlet
    {
        type            calculated;
        value           uniform 2.89686e-06;
    }
    sideWall
    {
        type            empty;
    }
}


// ************************************************************************* //
