/*--------------------------------*- C++ -*----------------------------------*\
| =========                 |                                                 |
| \\      /  F ield         | foam-extend: Open Source CFD                    |
|  \\    /   O peration     | Version:     3.2                                |
|   \\  /    A nd           | Web:         http://www.foam-extend.org         |
|    \\/     M anipulation  | For copyright notice see file Copyright         |
\*---------------------------------------------------------------------------*/
FoamFile
{
    version     2.0;
    format      ascii;
    class       areaScalarField;
    location    "60";
    object      SSe1;
}
// * * * * * * * * * * * * * * * * * * * * * * * * * * * * * * * * * * * * * //

dimensions      [0 1 -2 -1 0 0 0];

internalField   nonuniform List<scalar> 
300
(
0.00258315
0.00129357
0.000815774
0.000826568
0.000781306
0.000786872
0.000768002
0.000768338
0.000761167
0.000764306
0.000764466
0.000769399
0.000773461
0.000780558
0.000786736
0.000795358
0.000803498
0.000812937
0.000822114
0.000832512
0.00084322
0.000854293
0.000865603
0.000877112
0.000888746
0.000899938
0.000909819
0.000918263
0.00092539
0.000931387
0.000936413
0.000940623
0.000944139
0.000947074
0.000949523
0.000951571
0.000953284
0.000954722
0.00095593
0.000956952
0.000957813
0.000958551
0.000959186
0.000959722
0.00096017
0.000960546
0.000960875
0.000961138
0.00096138
0.000961591
0.000961774
0.000961932
0.000962071
0.000962191
0.000962297
0.000962388
0.000962466
0.000962534
0.000962593
0.000962645
0.000962689
0.000962728
0.000962762
0.000962791
0.000962816
0.000962838
0.000962858
0.000962874
0.000962888
0.0009629
0.00096291
0.000962919
0.000962928
0.000962934
0.00096294
0.000962945
0.000962949
0.000962953
0.000962956
0.00096296
0.000962962
0.000962964
0.000962965
0.000962967
0.000962968
0.000962969
0.00096297
0.000962971
0.000962972
0.000962973
0.000962974
0.000962974
0.000962974
0.000962975
0.000962975
0.000962975
0.000962976
0.000962976
0.000962976
0.000962976
0.000962976
0.000962977
0.000962977
0.000962977
0.000962977
0.000962977
0.000962977
0.000962977
0.000962977
0.000962977
0.000962977
0.000962977
0.000962977
0.000962977
0.000962977
0.000962977
0.000962977
0.000962977
0.000962977
0.000962977
0.000962977
0.000962977
0.000962977
0.000962977
0.000962977
0.000962977
0.000962977
0.000962977
0.000962977
0.000962977
0.000962977
0.000962977
0.000962977
0.000962977
0.000962977
0.000962977
0.000962977
0.000962977
0.000962977
0.000962977
0.000962977
0.000962977
0.000962977
0.000962977
0.000962977
0.000962977
0.000962977
0.000962977
0.000962977
0.000962977
0.000962977
0.000962977
0.000962977
0.000962977
0.000962977
0.000962977
0.000962977
0.000962977
0.000962977
0.000962977
0.000962977
0.000962977
0.000962977
0.000962977
0.000962977
0.000962977
0.000962977
0.000962977
0.000962977
0.000962977
0.000962977
0.000962977
0.000962977
0.000962977
0.000962977
0.000962977
0.000962977
0.000962977
0.000962977
0.000962977
0.000962977
0.000962977
0.000962977
0.000962977
0.000962977
0.000962977
0.000962977
0.000962977
0.000962977
0.000962977
0.000962977
0.000962977
0.000962977
0.000962977
0.000962977
0.000962977
0.000962977
0.000962977
0.000962977
0.000962977
0.000962977
0.000962977
0.000962977
0.000962977
0.000962977
0.000962977
0.000962977
0.000962977
0.000962977
0.000962977
0.000962977
0.000962977
0.000962977
0.000962977
0.000962977
0.000962977
0.000962977
0.000962977
0.000962977
0.000962977
0.000962977
0.000962977
0.000962977
0.000962977
0.000962977
0.000962977
0.000962977
0.000962977
0.000962977
0.000962977
0.000962977
0.000962977
0.000962977
0.000962977
0.000962977
0.000962977
0.000962977
0.000962977
0.000962977
0.000962977
0.000962977
0.000962977
0.000962977
0.000962977
0.000962977
0.000962977
0.000962977
0.000962977
0.000962977
0.000962977
0.000962977
0.000962977
0.000962977
0.000962977
0.000962977
0.000962977
0.000962977
0.000962977
0.000962977
0.000962977
0.000962977
0.000962977
0.000962977
0.000962977
0.000962977
0.000962977
0.000962977
0.000962977
0.000962977
0.000962977
0.000962977
0.000962977
0.000962977
0.000962977
0.000962977
0.000962977
0.000962977
0.000962977
0.000962977
0.000962977
0.000962977
0.000962977
0.000962977
0.000962977
0.000962977
0.000962977
0.000962977
0.000962977
0.000962977
0.000962977
0.000962977
0.000962977
0.000962977
0.000962977
0.000962977
0.000962977
0.000962977
0.000962978
0.000962979
0.000962976
)
;

boundaryField
{
    inlet
    {
        type            calculated;
        value           uniform 0;
    }
    outlet
    {
        type            calculated;
        value           uniform 0;
    }
    sideWall
    {
        type            empty;
    }
}


// ************************************************************************* //
