/*--------------------------------*- C++ -*----------------------------------*\
| =========                 |                                                 |
| \\      /  F ield         | foam-extend: Open Source CFD                    |
|  \\    /   O peration     | Version:     3.2                                |
|   \\  /    A nd           | Web:         http://www.foam-extend.org         |
|    \\/     M anipulation  | For copyright notice see file Copyright         |
\*---------------------------------------------------------------------------*/
FoamFile
{
    version     2.0;
    format      ascii;
    class       areaScalarField;
    location    "60";
    object      tau;
}
// * * * * * * * * * * * * * * * * * * * * * * * * * * * * * * * * * * * * * //

dimensions      [1 1 2 0 0 0 0];

internalField   nonuniform List<scalar> 
300
(
5.72246
3.62226
2.67354
2.69675
2.59874
2.61089
2.56957
2.57031
2.55453
2.56144
2.56179
2.57265
2.58156
2.59711
2.6106
2.62937
2.64703
2.66743
2.68719
2.70949
2.73236
2.7559
2.77985
2.80411
2.82853
2.85191
2.87248
2.89
2.90474
2.91712
2.92747
2.93613
2.94335
2.94937
2.95439
2.95858
2.96209
2.96503
2.9675
2.96959
2.97135
2.97285
2.97415
2.97524
2.97616
2.97693
2.9776
2.97816
2.97866
2.97909
2.97946
2.97978
2.98007
2.98031
2.98053
2.98071
2.98087
2.98101
2.98113
2.98124
2.98133
2.98141
2.98148
2.98154
2.98159
2.98163
2.98167
2.9817
2.98173
2.98176
2.98178
2.9818
2.98181
2.98183
2.98184
2.98185
2.98186
2.98187
2.98187
2.98188
2.98188
2.98189
2.98189
2.98189
2.9819
2.9819
2.9819
2.9819
2.9819
2.98191
2.98191
2.98191
2.98191
2.98191
2.98191
2.98191
2.98191
2.98191
2.98191
2.98191
2.98191
2.98191
2.98191
2.98191
2.98191
2.98191
2.98191
2.98191
2.98191
2.98191
2.98191
2.98191
2.98192
2.98192
2.98191
2.98192
2.98191
2.98192
2.98192
2.98192
2.98192
2.98192
2.98192
2.98191
2.98192
2.98191
2.98191
2.98192
2.98192
2.98192
2.98192
2.98192
2.98192
2.98192
2.98192
2.98192
2.98192
2.98192
2.98192
2.98192
2.98192
2.98192
2.98192
2.98192
2.98192
2.98192
2.98192
2.98192
2.98192
2.98192
2.98192
2.98192
2.98192
2.98192
2.98192
2.98192
2.98192
2.98192
2.98192
2.98192
2.98192
2.98192
2.98192
2.98192
2.98192
2.98192
2.98192
2.98192
2.98192
2.98192
2.98192
2.98192
2.98192
2.98192
2.98192
2.98192
2.98192
2.98192
2.98192
2.98192
2.98192
2.98192
2.98192
2.98192
2.98192
2.98192
2.98192
2.98192
2.98192
2.98192
2.98192
2.98192
2.98192
2.98192
2.98192
2.98192
2.98192
2.98192
2.98192
2.98192
2.98192
2.98192
2.98192
2.98192
2.98192
2.98192
2.98192
2.98192
2.98192
2.98192
2.98192
2.98192
2.98192
2.98192
2.98192
2.98192
2.98192
2.98192
2.98192
2.98192
2.98192
2.98192
2.98192
2.98192
2.98192
2.98192
2.98192
2.98192
2.98192
2.98192
2.98192
2.98192
2.98192
2.98192
2.98192
2.98192
2.98192
2.98192
2.98192
2.98192
2.98192
2.98192
2.98192
2.98192
2.98192
2.98192
2.98192
2.98192
2.98192
2.98192
2.98192
2.98192
2.98192
2.98192
2.98192
2.98192
2.98192
2.98192
2.98192
2.98192
2.98192
2.98192
2.98192
2.98192
2.98192
2.98192
2.98192
2.98192
2.98192
2.98192
2.98192
2.98192
2.98192
2.98192
2.98192
2.98192
2.98192
2.98192
2.98192
2.98192
2.98192
2.98192
2.98192
2.98192
2.98192
2.98192
2.98192
2.98192
2.98192
2.98192
2.98192
2.98192
2.98192
2.98192
2.98192
2.98192
2.98192
2.98192
2.98192
2.98191
)
;

boundaryField
{
    inlet
    {
        type            calculated;
        value           uniform 0;
    }
    outlet
    {
        type            calculated;
        value           uniform 0;
    }
    sideWall
    {
        type            empty;
    }
}


// ************************************************************************* //
