/*--------------------------------*- C++ -*----------------------------------*\
| =========                 |                                                 |
| \\      /  F ield         | foam-extend: Open Source CFD                    |
|  \\    /   O peration     | Version:     3.2                                |
|   \\  /    A nd           | Web:         http://www.foam-extend.org         |
|    \\/     M anipulation  | For copyright notice see file Copyright         |
\*---------------------------------------------------------------------------*/
FoamFile
{
    version     2.0;
    format      ascii;
    class       volScalarField;
    location    "60";
    object      testS;
}
// * * * * * * * * * * * * * * * * * * * * * * * * * * * * * * * * * * * * * //

dimensions      [0 0 0 0 0 0 0];

internalField   uniform 0;

boundaryField
{
    inlet
    {
        type            calculated;
        value           uniform 0;
    }
    outlet
    {
        type            calculated;
        value           uniform 0;
    }
    sideWall
    {
        type            empty;
    }
    bed
    {
        type            calculated;
        value           nonuniform List<scalar> 
300
(
1.83265
0.917743
0.578763
0.586421
0.554309
0.558258
0.54487
0.545109
0.540021
0.542248
0.542362
0.545861
0.548743
0.553778
0.558162
0.564279
0.570054
0.57675
0.583261
0.590638
0.598235
0.606091
0.614115
0.622281
0.630534
0.638475
0.645484
0.651476
0.656532
0.660786
0.664353
0.667339
0.669833
0.671916
0.673654
0.675106
0.676321
0.677342
0.678199
0.678924
0.679535
0.680058
0.680509
0.680889
0.681207
0.681474
0.681708
0.681894
0.682066
0.682215
0.682345
0.682457
0.682556
0.682641
0.682716
0.68278
0.682836
0.682884
0.682926
0.682963
0.682994
0.683022
0.683046
0.683066
0.683084
0.6831
0.683114
0.683125
0.683135
0.683144
0.683151
0.683158
0.683164
0.683168
0.683172
0.683176
0.683179
0.683181
0.683184
0.683186
0.683188
0.683189
0.68319
0.683192
0.683192
0.683193
0.683193
0.683194
0.683195
0.683196
0.683196
0.683196
0.683197
0.683197
0.683197
0.683197
0.683198
0.683198
0.683198
0.683198
0.683198
0.683198
0.683198
0.683198
0.683198
0.683198
0.683198
0.683199
0.683198
0.683198
0.683199
0.683199
0.683199
0.683199
0.683199
0.683199
0.683199
0.683199
0.683199
0.683199
0.683199
0.683199
0.683199
0.683199
0.683199
0.683199
0.683199
0.683199
0.683199
0.683199
0.683199
0.683199
0.683199
0.683199
0.683199
0.683199
0.683199
0.683199
0.683199
0.683199
0.683199
0.683199
0.683199
0.683199
0.683199
0.683199
0.683199
0.683199
0.683199
0.683199
0.683199
0.683199
0.683199
0.683199
0.683199
0.683199
0.683199
0.683199
0.683199
0.683199
0.683199
0.683199
0.683199
0.683199
0.683199
0.683199
0.683199
0.683199
0.683199
0.683199
0.683199
0.683199
0.683199
0.683199
0.683199
0.683199
0.683199
0.683199
0.683199
0.683199
0.683199
0.683199
0.683199
0.683199
0.683199
0.683199
0.683199
0.683199
0.683199
0.683199
0.683199
0.683199
0.683199
0.683199
0.683199
0.683199
0.683199
0.683199
0.683199
0.683199
0.683199
0.683199
0.683199
0.683199
0.683199
0.683199
0.683199
0.683199
0.683199
0.683199
0.683199
0.683199
0.683199
0.683199
0.683199
0.683199
0.683199
0.683199
0.683199
0.683199
0.683199
0.683199
0.683199
0.683199
0.683199
0.683199
0.683199
0.683199
0.683199
0.683199
0.683199
0.683199
0.683199
0.683199
0.683199
0.683199
0.683199
0.683199
0.683199
0.683199
0.683199
0.683199
0.683199
0.683199
0.683199
0.683199
0.683199
0.683199
0.683199
0.683199
0.683199
0.683199
0.683199
0.683199
0.683199
0.683199
0.683199
0.683199
0.683199
0.683199
0.683199
0.683199
0.683199
0.683199
0.683199
0.683199
0.683199
0.683199
0.683199
0.683199
0.683199
0.683199
0.683199
0.683199
0.683199
0.683199
0.683199
0.683199
0.683199
0.683199
0.683199
0.683199
0.683199
0.683199
0.683199
0.683199
0.683199
0.683199
0.683199
0.683199
0.683199
0.683199
0.683199
0.683199
0.683199
0.683199
0.683199
0.683199
0.6832
0.683198
)
;
    }
    topWall
    {
        type            calculated;
        value           uniform 0;
    }
}


// ************************************************************************* //
