/*--------------------------------*- C++ -*----------------------------------*\
| =========                 |                                                 |
| \\      /  F ield         | foam-extend: Open Source CFD                    |
|  \\    /   O peration     | Version:     3.2                                |
|   \\  /    A nd           | Web:         http://www.foam-extend.org         |
|    \\/     M anipulation  | For copyright notice see file Copyright         |
\*---------------------------------------------------------------------------*/
FoamFile
{
    version     2.0;
    format      ascii;
    class       areaScalarField;
    location    "60";
    object      thetaBinit;
}
// * * * * * * * * * * * * * * * * * * * * * * * * * * * * * * * * * * * * * //

dimensions      [0 0 0 0 0 0 0];

internalField   nonuniform List<scalar> 
300
(
0.417847
0.263175
0.196047
0.19819
0.191188
0.191288
0.187727
0.187612
0.186502
0.186944
0.187033
0.187741
0.188461
0.189517
0.190615
0.191874
0.193248
0.19468
0.196157
0.197762
0.199445
0.201153
0.202909
0.204671
0.206459
0.208158
0.209659
0.210932
0.212008
0.212907
0.213662
0.214291
0.214817
0.215254
0.21562
0.215925
0.21618
0.216393
0.216572
0.216723
0.216851
0.21696
0.217054
0.217133
0.217199
0.217254
0.217302
0.217343
0.217379
0.21741
0.217437
0.217461
0.217482
0.217499
0.217515
0.217528
0.21754
0.21755
0.217559
0.217567
0.217573
0.217579
0.217584
0.217588
0.217592
0.217595
0.217598
0.217601
0.217603
0.217605
0.217606
0.217607
0.217609
0.21761
0.21761
0.217611
0.217612
0.217612
0.217613
0.217613
0.217614
0.217614
0.217614
0.217614
0.217615
0.217615
0.217615
0.217615
0.217615
0.217615
0.217615
0.217615
0.217615
0.217615
0.217615
0.217615
0.217615
0.217615
0.217615
0.217615
0.217615
0.217615
0.217615
0.217615
0.217615
0.217615
0.217615
0.217615
0.217615
0.217615
0.217615
0.217615
0.217615
0.217615
0.217615
0.217615
0.217615
0.217615
0.217615
0.217615
0.217615
0.217615
0.217615
0.217615
0.217615
0.217615
0.217615
0.217615
0.217615
0.217615
0.217615
0.217615
0.217615
0.217615
0.217615
0.217615
0.217615
0.217616
0.217616
0.217616
0.217616
0.217616
0.217616
0.217616
0.217616
0.217616
0.217616
0.217616
0.217616
0.217616
0.217616
0.217616
0.217616
0.217616
0.217616
0.217616
0.217616
0.217616
0.217616
0.217616
0.217616
0.217616
0.217615
0.217615
0.217615
0.217615
0.217615
0.217615
0.217615
0.217615
0.217615
0.217615
0.217615
0.217615
0.217615
0.217615
0.217615
0.217615
0.217615
0.217615
0.217615
0.217615
0.217615
0.217615
0.217615
0.217615
0.217615
0.217615
0.217615
0.217615
0.217615
0.217615
0.217615
0.217615
0.217615
0.217615
0.217615
0.217615
0.217615
0.217615
0.217615
0.217615
0.217615
0.217615
0.217615
0.217615
0.217615
0.217615
0.217615
0.217615
0.217615
0.217615
0.217615
0.217615
0.217615
0.217615
0.217615
0.217615
0.217615
0.217615
0.217615
0.217615
0.217615
0.217615
0.217615
0.217615
0.217615
0.217615
0.217615
0.217615
0.217615
0.217615
0.217615
0.217615
0.217615
0.217615
0.217615
0.217615
0.217615
0.217615
0.217615
0.217615
0.217615
0.217615
0.217615
0.217615
0.217615
0.217615
0.217615
0.217615
0.217615
0.217615
0.217615
0.217615
0.217615
0.217615
0.217615
0.217615
0.217615
0.217615
0.217615
0.217615
0.217615
0.217615
0.217615
0.217615
0.217615
0.217615
0.217615
0.217615
0.217615
0.217615
0.217615
0.217615
0.217615
0.217615
0.217615
0.217615
0.217615
0.217615
0.217615
0.217615
0.217615
0.217615
0.217615
0.217615
0.217615
0.217615
0.217615
0.217615
0.217615
0.217615
0.217615
0.217615
0.217615
0.217615
0.217615
0.217615
0.217616
0.217615
)
;

boundaryField
{
    inlet
    {
        type            calculated;
        value           uniform 0;
    }
    outlet
    {
        type            calculated;
        value           uniform 0;
    }
    sideWall
    {
        type            empty;
    }
}


// ************************************************************************* //
