/*--------------------------------*- C++ -*----------------------------------*\
| =========                 |                                                 |
| \\      /  F ield         | foam-extend: Open Source CFD                    |
|  \\    /   O peration     | Version:     3.2                                |
|   \\  /    A nd           | Web:         http://www.foam-extend.org         |
|    \\/     M anipulation  | For copyright notice see file Copyright         |
\*---------------------------------------------------------------------------*/
FoamFile
{
    version     2.0;
    format      ascii;
    class       areaScalarField;
    location    "60";
    object      thetaSS1init;
}
// * * * * * * * * * * * * * * * * * * * * * * * * * * * * * * * * * * * * * //

dimensions      [0 0 0 0 0 0 0];

internalField   nonuniform List<scalar> 
300
(
14.6058
9.19927
6.8528
6.92771
6.68298
6.68645
6.56198
6.55798
6.51916
6.53462
6.53774
6.56248
6.58764
6.62457
6.66295
6.70696
6.75498
6.80502
6.85664
6.91276
6.9716
7.03129
7.09269
7.15428
7.21676
7.27617
7.32863
7.37313
7.41073
7.44216
7.46855
7.49052
7.50892
7.52421
7.53699
7.54763
7.55655
7.56401
7.57028
7.57556
7.58001
7.58382
7.5871
7.58986
7.59217
7.59411
7.59579
7.59723
7.59848
7.59957
7.60052
7.60134
7.60206
7.60268
7.60322
7.60369
7.6041
7.60446
7.60476
7.60503
7.60526
7.60546
7.60564
7.60579
7.60592
7.60604
7.60614
7.60622
7.6063
7.60636
7.60641
7.60646
7.6065
7.60653
7.60656
7.60659
7.60661
7.60663
7.60665
7.60666
7.60667
7.60668
7.60669
7.6067
7.60671
7.60671
7.60671
7.60672
7.60672
7.60672
7.60672
7.60673
7.60673
7.60673
7.60673
7.60673
7.60673
7.60673
7.60674
7.60674
7.60674
7.60674
7.60674
7.60674
7.60674
7.60674
7.60674
7.60674
7.60674
7.60674
7.60674
7.60674
7.60674
7.60674
7.60674
7.60673
7.60673
7.60673
7.60673
7.60673
7.60673
7.60673
7.60674
7.60674
7.60674
7.60674
7.60674
7.60674
7.60674
7.60674
7.60674
7.60674
7.60674
7.60674
7.60674
7.60674
7.60674
7.60674
7.60674
7.60674
7.60674
7.60674
7.60674
7.60674
7.60674
7.60674
7.60674
7.60674
7.60674
7.60674
7.60674
7.60674
7.60674
7.60674
7.60674
7.60674
7.60674
7.60674
7.60674
7.60674
7.60674
7.60674
7.60674
7.60674
7.60674
7.60674
7.60674
7.60674
7.60674
7.60674
7.60674
7.60674
7.60674
7.60674
7.60674
7.60674
7.60674
7.60674
7.60674
7.60674
7.60674
7.60674
7.60674
7.60674
7.60674
7.60674
7.60674
7.60674
7.60674
7.60674
7.60673
7.60673
7.60673
7.60673
7.60673
7.60673
7.60673
7.60673
7.60673
7.60673
7.60673
7.60673
7.60673
7.60674
7.60674
7.60674
7.60674
7.60674
7.60674
7.60674
7.60674
7.60674
7.60674
7.60674
7.60674
7.60674
7.60674
7.60674
7.60674
7.60674
7.60674
7.60674
7.60674
7.60674
7.60674
7.60674
7.60674
7.60674
7.60674
7.60674
7.60674
7.60674
7.60674
7.60674
7.60674
7.60674
7.60674
7.60674
7.60674
7.60674
7.60674
7.60674
7.60674
7.60674
7.60674
7.60674
7.60674
7.60673
7.60673
7.60673
7.60673
7.60673
7.60673
7.60673
7.60673
7.60673
7.60674
7.60674
7.60674
7.60674
7.60674
7.60674
7.60674
7.60674
7.60674
7.60673
7.60673
7.60674
7.60674
7.60674
7.60674
7.60674
7.60674
7.60674
7.60674
7.60674
7.60674
7.60674
7.60674
7.60674
7.60674
7.60674
7.60674
7.60674
7.60674
7.60674
7.60674
7.60674
7.60674
7.60674
7.60674
7.60674
7.60674
7.60674
7.60674
7.60674
7.60674
7.60674
7.60675
7.60673
)
;

boundaryField
{
    inlet
    {
        type            calculated;
        value           uniform 0;
    }
    outlet
    {
        type            calculated;
        value           uniform 0;
    }
    sideWall
    {
        type            empty;
    }
}


// ************************************************************************* //
