/*--------------------------------*- C++ -*----------------------------------*\
| =========                 |                                                 |
| \\      /  F ield         | foam-extend: Open Source CFD                    |
|  \\    /   O peration     | Version:     3.2                                |
|   \\  /    A nd           | Web:         http://www.foam-extend.org         |
|    \\/     M anipulation  | For copyright notice see file Copyright         |
\*---------------------------------------------------------------------------*/
FoamFile
{
    version     2.0;
    format      ascii;
    class       areaScalarField;
    location    "60";
    object      thetaSS2init;
}
// * * * * * * * * * * * * * * * * * * * * * * * * * * * * * * * * * * * * * //

dimensions      [0 0 0 0 0 0 0];

internalField   nonuniform List<scalar> 
300
(
9.67909
6.09623
4.54126
4.5909
4.42872
4.43102
4.34853
4.34589
4.32016
4.3304
4.33247
4.34886
4.36554
4.39001
4.41545
4.44461
4.47643
4.5096
4.5438
4.58099
4.61999
4.65954
4.70023
4.74104
4.78245
4.82182
4.85659
4.88607
4.91099
4.93182
4.94931
4.96387
4.97606
4.98619
4.99466
5.00172
5.00762
5.01257
5.01672
5.02022
5.02317
5.0257
5.02787
5.0297
5.03123
5.03252
5.03363
5.03458
5.03541
5.03613
5.03676
5.03731
5.03778
5.0382
5.03855
5.03886
5.03913
5.03937
5.03957
5.03975
5.03991
5.04004
5.04016
5.04026
5.04034
5.04042
5.04048
5.04054
5.04059
5.04063
5.04067
5.0407
5.04073
5.04075
5.04077
5.04078
5.0408
5.04081
5.04082
5.04083
5.04084
5.04085
5.04085
5.04086
5.04086
5.04086
5.04087
5.04087
5.04087
5.04087
5.04087
5.04088
5.04088
5.04088
5.04088
5.04088
5.04088
5.04088
5.04088
5.04088
5.04088
5.04088
5.04088
5.04088
5.04088
5.04088
5.04088
5.04088
5.04088
5.04088
5.04088
5.04088
5.04088
5.04088
5.04088
5.04088
5.04088
5.04088
5.04088
5.04088
5.04088
5.04088
5.04088
5.04088
5.04088
5.04088
5.04088
5.04088
5.04088
5.04088
5.04088
5.04088
5.04088
5.04088
5.04088
5.04088
5.04088
5.04088
5.04089
5.04089
5.04089
5.04089
5.04089
5.04089
5.04089
5.04089
5.04089
5.04089
5.04089
5.04089
5.04089
5.04089
5.04089
5.04089
5.04089
5.04089
5.04088
5.04088
5.04088
5.04088
5.04088
5.04088
5.04088
5.04088
5.04088
5.04088
5.04088
5.04088
5.04088
5.04088
5.04088
5.04088
5.04088
5.04088
5.04088
5.04088
5.04088
5.04088
5.04088
5.04088
5.04088
5.04088
5.04088
5.04088
5.04088
5.04088
5.04088
5.04088
5.04088
5.04088
5.04088
5.04088
5.04088
5.04088
5.04088
5.04088
5.04088
5.04088
5.04088
5.04088
5.04088
5.04088
5.04088
5.04088
5.04088
5.04088
5.04088
5.04088
5.04088
5.04088
5.04088
5.04088
5.04088
5.04088
5.04088
5.04088
5.04088
5.04088
5.04088
5.04088
5.04088
5.04088
5.04088
5.04088
5.04088
5.04088
5.04088
5.04088
5.04088
5.04088
5.04088
5.04088
5.04088
5.04088
5.04088
5.04088
5.04088
5.04088
5.04088
5.04088
5.04088
5.04088
5.04088
5.04088
5.04088
5.04088
5.04088
5.04088
5.04088
5.04088
5.04088
5.04088
5.04088
5.04088
5.04088
5.04088
5.04088
5.04088
5.04088
5.04088
5.04088
5.04088
5.04088
5.04088
5.04088
5.04088
5.04088
5.04088
5.04088
5.04088
5.04088
5.04088
5.04088
5.04088
5.04088
5.04088
5.04088
5.04088
5.04088
5.04088
5.04088
5.04088
5.04088
5.04088
5.04088
5.04088
5.04088
5.04088
5.04088
5.04088
5.04088
5.04088
5.04088
5.04088
5.04088
5.04088
5.04088
5.04088
5.04089
5.04088
)
;

boundaryField
{
    inlet
    {
        type            calculated;
        value           uniform 0;
    }
    outlet
    {
        type            calculated;
        value           uniform 0;
    }
    sideWall
    {
        type            empty;
    }
}


// ************************************************************************* //
