/*--------------------------------*- C++ -*----------------------------------*\
| =========                 |                                                 |
| \\      /  F ield         | foam-extend: Open Source CFD                    |
|  \\    /   O peration     | Version:     3.2                                |
|   \\  /    A nd           | Web:         http://www.foam-extend.org         |
|    \\/     M anipulation  | For copyright notice see file Copyright         |
\*---------------------------------------------------------------------------*/
FoamFile
{
    version     2.0;
    format      ascii;
    class       areaScalarField;
    location    "60";
    object      thetaSS1;
}
// * * * * * * * * * * * * * * * * * * * * * * * * * * * * * * * * * * * * * //

dimensions      [0 0 0 0 0 0 0];

internalField   nonuniform List<scalar> 
300
(
14.5978
9.24029
6.82014
6.87933
6.62931
6.66031
6.55491
6.55679
6.51652
6.53416
6.53506
6.56275
6.5855
6.62514
6.65956
6.70744
6.75249
6.80453
6.85494
6.91183
6.97017
7.03023
7.09131
7.1532
7.21549
7.27515
7.32762
7.37231
7.40991
7.44149
7.4679
7.48998
7.5084
7.52376
7.53656
7.54726
7.5562
7.5637
7.57
7.57533
7.57982
7.58366
7.58697
7.58976
7.59209
7.59405
7.59576
7.59721
7.59847
7.59957
7.60052
7.60134
7.60206
7.60269
7.60324
7.60371
7.60412
7.60447
7.60478
7.60505
7.60528
7.60548
7.60566
7.60581
7.60594
7.60605
7.60616
7.60624
7.60631
7.60638
7.60643
7.60648
7.60652
7.60655
7.60658
7.60661
7.60663
7.60665
7.60667
7.60669
7.6067
7.60671
7.60672
7.60673
7.60673
7.60674
7.60674
7.60675
7.60675
7.60676
7.60676
7.60676
7.60676
7.60676
7.60677
7.60677
7.60677
7.60677
7.60677
7.60677
7.60677
7.60678
7.60678
7.60678
7.60678
7.60678
7.60678
7.60678
7.60678
7.60678
7.60678
7.60678
7.60678
7.60678
7.60678
7.60678
7.60678
7.60678
7.60678
7.60678
7.60678
7.60678
7.60678
7.60678
7.60678
7.60678
7.60678
7.60678
7.60678
7.60678
7.60678
7.60678
7.60678
7.60678
7.60678
7.60678
7.60678
7.60678
7.60678
7.60678
7.60678
7.60678
7.60678
7.60678
7.60678
7.60678
7.60678
7.60678
7.60678
7.60678
7.60678
7.60678
7.60678
7.60678
7.60678
7.60678
7.60678
7.60678
7.60678
7.60678
7.60678
7.60678
7.60678
7.60678
7.60678
7.60678
7.60678
7.60678
7.60678
7.60678
7.60678
7.60678
7.60678
7.60678
7.60678
7.60678
7.60678
7.60678
7.60678
7.60678
7.60678
7.60678
7.60678
7.60678
7.60678
7.60678
7.60678
7.60678
7.60678
7.60678
7.60678
7.60678
7.60678
7.60678
7.60678
7.60678
7.60678
7.60678
7.60678
7.60678
7.60678
7.60678
7.60678
7.60678
7.60678
7.60678
7.60678
7.60678
7.60678
7.60678
7.60678
7.60678
7.60678
7.60678
7.60678
7.60678
7.60678
7.60678
7.60678
7.60678
7.60678
7.60678
7.60678
7.60678
7.60678
7.60678
7.60678
7.60678
7.60678
7.60678
7.60678
7.60678
7.60678
7.60678
7.60678
7.60678
7.60678
7.60678
7.60678
7.60678
7.60678
7.60678
7.60678
7.60678
7.60678
7.60678
7.60678
7.60678
7.60678
7.60678
7.60678
7.60678
7.60678
7.60678
7.60678
7.60678
7.60678
7.60678
7.60678
7.60678
7.60678
7.60678
7.60678
7.60678
7.60678
7.60678
7.60678
7.60678
7.60678
7.60678
7.60678
7.60678
7.60678
7.60678
7.60678
7.60678
7.60678
7.60678
7.60678
7.60678
7.60678
7.60678
7.60678
7.60678
7.60678
7.60678
7.60678
7.60678
7.60678
7.60678
7.60678
7.60678
7.60678
7.60678
7.60678
7.60678
7.60678
7.60678
7.60679
7.60677
)
;

boundaryField
{
    inlet
    {
        type            calculated;
        value           uniform 0;
    }
    outlet
    {
        type            calculated;
        value           uniform 0;
    }
    sideWall
    {
        type            empty;
    }
}


// ************************************************************************* //
