/*--------------------------------*- C++ -*----------------------------------*\
| =========                 |                                                 |
| \\      /  F ield         | foam-extend: Open Source CFD                    |
|  \\    /   O peration     | Version:     3.2                                |
|   \\  /    A nd           | Web:         http://www.foam-extend.org         |
|    \\/     M anipulation  | For copyright notice see file Copyright         |
\*---------------------------------------------------------------------------*/
FoamFile
{
    version     2.0;
    format      ascii;
    class       areaScalarField;
    location    "60";
    object      thetaB;
}
// * * * * * * * * * * * * * * * * * * * * * * * * * * * * * * * * * * * * * //

dimensions      [0 0 0 0 0 0 0];

internalField   nonuniform List<scalar> 
300
(
0.417619
0.264348
0.195112
0.196806
0.189653
0.19054
0.187524
0.187578
0.186426
0.186931
0.186957
0.187749
0.1884
0.189534
0.190518
0.191888
0.193177
0.194666
0.196108
0.197735
0.199404
0.201123
0.20287
0.204641
0.206422
0.208129
0.20963
0.210909
0.211985
0.212888
0.213644
0.214275
0.214802
0.215242
0.215608
0.215914
0.21617
0.216384
0.216565
0.216717
0.216845
0.216955
0.21705
0.21713
0.217197
0.217253
0.217302
0.217343
0.217379
0.21741
0.217438
0.217461
0.217482
0.2175
0.217515
0.217529
0.21754
0.217551
0.217559
0.217567
0.217574
0.21758
0.217585
0.217589
0.217593
0.217596
0.217599
0.217601
0.217603
0.217605
0.217607
0.217608
0.217609
0.21761
0.217611
0.217612
0.217612
0.217613
0.217613
0.217614
0.217614
0.217615
0.217615
0.217615
0.217615
0.217615
0.217616
0.217616
0.217616
0.217616
0.217616
0.217616
0.217616
0.217616
0.217616
0.217616
0.217616
0.217616
0.217616
0.217616
0.217616
0.217617
0.217617
0.217617
0.217617
0.217617
0.217617
0.217617
0.217617
0.217617
0.217617
0.217617
0.217617
0.217617
0.217617
0.217617
0.217617
0.217617
0.217617
0.217617
0.217617
0.217617
0.217617
0.217617
0.217617
0.217617
0.217617
0.217617
0.217617
0.217617
0.217617
0.217617
0.217617
0.217617
0.217617
0.217617
0.217617
0.217617
0.217617
0.217617
0.217617
0.217617
0.217617
0.217617
0.217617
0.217617
0.217617
0.217617
0.217617
0.217617
0.217617
0.217617
0.217617
0.217617
0.217617
0.217617
0.217617
0.217617
0.217617
0.217617
0.217617
0.217617
0.217617
0.217617
0.217617
0.217617
0.217617
0.217617
0.217617
0.217617
0.217617
0.217617
0.217617
0.217617
0.217617
0.217617
0.217617
0.217617
0.217617
0.217617
0.217617
0.217617
0.217617
0.217617
0.217617
0.217617
0.217617
0.217617
0.217617
0.217617
0.217617
0.217617
0.217617
0.217617
0.217617
0.217617
0.217617
0.217617
0.217617
0.217617
0.217617
0.217617
0.217617
0.217617
0.217617
0.217617
0.217617
0.217617
0.217617
0.217617
0.217617
0.217617
0.217617
0.217617
0.217617
0.217617
0.217617
0.217617
0.217617
0.217617
0.217617
0.217617
0.217617
0.217617
0.217617
0.217617
0.217617
0.217617
0.217617
0.217617
0.217617
0.217617
0.217617
0.217617
0.217617
0.217617
0.217617
0.217617
0.217617
0.217617
0.217617
0.217617
0.217617
0.217617
0.217617
0.217617
0.217617
0.217617
0.217617
0.217617
0.217617
0.217617
0.217617
0.217617
0.217617
0.217617
0.217617
0.217617
0.217617
0.217617
0.217617
0.217617
0.217617
0.217617
0.217617
0.217617
0.217617
0.217617
0.217617
0.217617
0.217617
0.217617
0.217617
0.217617
0.217617
0.217617
0.217617
0.217617
0.217617
0.217617
0.217617
0.217617
0.217617
0.217617
0.217617
0.217617
0.217617
0.217617
0.217617
0.217617
0.217617
0.217617
0.217617
0.217617
0.217617
0.217617
0.217617
0.217617
0.217617
0.217616
)
;

boundaryField
{
    inlet
    {
        type            calculated;
        value           uniform 0;
    }
    outlet
    {
        type            calculated;
        value           uniform 0;
    }
    sideWall
    {
        type            empty;
    }
}


// ************************************************************************* //
