/*--------------------------------*- C++ -*----------------------------------*\
| =========                 |                                                 |
| \\      /  F ield         | foam-extend: Open Source CFD                    |
|  \\    /   O peration     | Version:     3.2                                |
|   \\  /    A nd           | Web:         http://www.foam-extend.org         |
|    \\/     M anipulation  | For copyright notice see file Copyright         |
\*---------------------------------------------------------------------------*/
FoamFile
{
    version     2.0;
    format      ascii;
    class       areaScalarField;
    location    "60";
    object      thetaSS2;
}
// * * * * * * * * * * * * * * * * * * * * * * * * * * * * * * * * * * * * * //

dimensions      [0 0 0 0 0 0 0];

internalField   nonuniform List<scalar> 
300
(
9.67379
6.12341
4.51961
4.55884
4.39316
4.4137
4.34385
4.3451
4.31841
4.3301
4.3307
4.34905
4.36412
4.39039
4.4132
4.44493
4.47479
4.50927
4.54268
4.58038
4.61904
4.65884
4.69932
4.74033
4.78161
4.82114
4.85591
4.88553
4.91045
4.93137
4.94888
4.96351
4.97571
4.98589
4.99438
5.00147
5.00739
5.01236
5.01654
5.02007
5.02304
5.02559
5.02778
5.02963
5.03118
5.03248
5.03361
5.03457
5.03541
5.03613
5.03676
5.03731
5.03779
5.0382
5.03856
5.03888
5.03915
5.03938
5.03959
5.03976
5.03992
5.04005
5.04017
5.04027
5.04035
5.04043
5.0405
5.04055
5.0406
5.04064
5.04068
5.04071
5.04074
5.04076
5.04078
5.0408
5.04081
5.04083
5.04084
5.04085
5.04086
5.04086
5.04087
5.04088
5.04088
5.04088
5.04088
5.04089
5.04089
5.0409
5.0409
5.0409
5.0409
5.0409
5.0409
5.0409
5.0409
5.04091
5.04091
5.04091
5.04091
5.04091
5.04091
5.04091
5.04091
5.04091
5.04091
5.04091
5.04091
5.04091
5.04091
5.04091
5.04091
5.04091
5.04091
5.04091
5.04091
5.04091
5.04091
5.04091
5.04091
5.04091
5.04091
5.04091
5.04091
5.04091
5.04091
5.04091
5.04091
5.04091
5.04091
5.04091
5.04091
5.04091
5.04091
5.04091
5.04091
5.04091
5.04091
5.04091
5.04091
5.04091
5.04091
5.04091
5.04091
5.04091
5.04091
5.04091
5.04091
5.04091
5.04091
5.04091
5.04091
5.04091
5.04091
5.04091
5.04091
5.04091
5.04091
5.04091
5.04091
5.04091
5.04091
5.04091
5.04091
5.04091
5.04091
5.04091
5.04091
5.04091
5.04091
5.04091
5.04091
5.04091
5.04091
5.04091
5.04091
5.04091
5.04091
5.04091
5.04091
5.04091
5.04091
5.04091
5.04091
5.04091
5.04091
5.04091
5.04091
5.04091
5.04091
5.04091
5.04091
5.04091
5.04091
5.04091
5.04091
5.04091
5.04091
5.04091
5.04091
5.04091
5.04091
5.04091
5.04091
5.04091
5.04091
5.04091
5.04091
5.04091
5.04091
5.04091
5.04091
5.04091
5.04091
5.04091
5.04091
5.04091
5.04091
5.04091
5.04091
5.04091
5.04091
5.04091
5.04091
5.04091
5.04091
5.04091
5.04091
5.04091
5.04091
5.04091
5.04091
5.04091
5.04091
5.04091
5.04091
5.04091
5.04091
5.04091
5.04091
5.04091
5.04091
5.04091
5.04091
5.04091
5.04091
5.04091
5.04091
5.04091
5.04091
5.04091
5.04091
5.04091
5.04091
5.04091
5.04091
5.04091
5.04091
5.04091
5.04091
5.04091
5.04091
5.04091
5.04091
5.04091
5.04091
5.04091
5.04091
5.04091
5.04091
5.04091
5.04091
5.04091
5.04091
5.04091
5.04091
5.04091
5.04091
5.04091
5.04091
5.04091
5.04091
5.04091
5.04091
5.04091
5.04091
5.04091
5.04091
5.04091
5.04091
5.04091
5.04091
5.04091
5.04091
5.04091
5.04091
5.04091
5.04092
5.0409
)
;

boundaryField
{
    inlet
    {
        type            calculated;
        value           uniform 0;
    }
    outlet
    {
        type            calculated;
        value           uniform 0;
    }
    sideWall
    {
        type            empty;
    }
}


// ************************************************************************* //
