/*--------------------------------*- C++ -*----------------------------------*\
| =========                 |                                                 |
| \\      /  F ield         | foam-extend: Open Source CFD                    |
|  \\    /   O peration     | Version:     3.2                                |
|   \\  /    A nd           | Web:         http://www.foam-extend.org         |
|    \\/     M anipulation  | For copyright notice see file Copyright         |
\*---------------------------------------------------------------------------*/
FoamFile
{
    version     2.0;
    format      ascii;
    class       volVectorField;
    location    "60";
    object      U;
}
// * * * * * * * * * * * * * * * * * * * * * * * * * * * * * * * * * * * * * //

dimensions      [0 1 -1 0 0 0 0];

internalField   nonuniform List<vector> 
5400
(
(0.270855 -3.46832e-26 0.00623515)
(0.175406 4.56595e-26 7.27446e-06)
(0.150041 1.78208e-26 -0.000808478)
(0.154396 0 -0.000815936)
(0.150808 -1.9279e-27 -0.000787582)
(0.151658 -1.74905e-27 -0.0007688)
(0.150117 -2.16653e-27 -0.000764112)
(0.150271 -7.55123e-28 -0.000753747)
(0.149659 0 -0.000756608)
(0.149909 -1.99591e-28 -0.000751328)
(0.149828 0 -0.000755111)
(0.150143 8.53591e-30 -0.000753541)
(0.150327 -1.38123e-28 -0.000757034)
(0.150777 -1.54033e-28 -0.000757723)
(0.151096 0 -0.000760084)
(0.151625 0 -0.0007624)
(0.152082 -3.55862e-28 -0.000764919)
(0.152637 3.76911e-28 -0.000767376)
(0.153154 0 -0.000770484)
(0.153765 0 -0.000773518)
(0.154382 0 -0.000776632)
(0.15502 5.19207e-28 -0.000779683)
(0.155668 0 -0.000782985)
(0.156325 0 -0.000786036)
(0.156988 0 -0.000789159)
(0.157629 5.46467e-28 -0.000791863)
(0.158189 -4.86234e-28 -0.000793937)
(0.158664 0 -0.000795668)
(0.159063 0 -0.000797163)
(0.159398 3.11253e-28 -0.000798443)
(0.159678 -2.64756e-28 -0.000799542)
(0.159912 0 -0.000800473)
(0.160107 0 -0.000801264)
(0.16027 0 -0.000801929)
(0.160405 -1.33957e-28 -0.000802494)
(0.160518 0 -0.00080297)
(0.160613 0 -0.000803375)
(0.160692 -7.95546e-29 -0.000803716)
(0.160758 0 -0.000804005)
(0.160814 0 -0.000804252)
(0.160862 0 -0.000804464)
(0.160902 -1.82222e-43 -0.000804647)
(0.160937 0 -0.000804797)
(0.160967 0 -0.000804923)
(0.160991 0 -0.00080503)
(0.161011 0 -0.000805143)
(0.161031 1.26439e-31 -0.000805234)
(0.161047 0 -0.000805305)
(0.161061 0 -0.000805351)
(0.161072 0 -0.000805401)
(0.161082 0 -0.000805447)
(0.161091 8.70868e-30 -0.000805486)
(0.161098 0 -0.000805525)
(0.161105 -1.83097e-43 -0.000805551)
(0.161111 0 -0.00080558)
(0.161116 0 -0.000805597)
(0.16112 -1.83161e-43 -0.000805617)
(0.161124 0 -0.000805633)
(0.161127 -3.17155e-30 -0.000805648)
(0.16113 0 -0.000805659)
(0.161132 0 -0.000805671)
(0.161134 -1.83221e-43 -0.00080568)
(0.161136 0 -0.000805688)
(0.161138 -1.83235e-43 -0.000805695)
(0.161139 0 -0.000805701)
(0.16114 0 -0.000805706)
(0.161141 1.01418e-30 -0.000805711)
(0.161142 0 -0.000805714)
(0.161143 -1.83257e-43 -0.000805718)
(0.161144 0 -0.00080572)
(0.161144 0 -0.000805723)
(0.161145 -1.83265e-43 -0.000805725)
(0.161145 0 -0.000805728)
(0.161145 -1.83268e-43 -0.000805729)
(0.161146 0 -0.00080573)
(0.161146 0 -0.000805731)
(0.161146 -1.83272e-43 -0.000805733)
(0.161147 0 -0.000805734)
(0.161147 -1.83273e-43 -0.000805734)
(0.161147 0 -0.000805735)
(0.161147 0 -0.000805736)
(0.161147 0 -0.000805736)
(0.161147 0 -0.000805737)
(0.161147 0 -0.000805737)
(0.161147 0 -0.000805737)
(0.161147 -6.99811e-32 -0.000805737)
(0.161147 7.39027e-32 -0.000805738)
(0.161148 0 -0.000805738)
(0.161148 0 -0.000805738)
(0.161148 0 -0.000805738)
(0.161148 0 -0.000805738)
(0.161148 0 -0.000805738)
(0.161148 0 -0.000805739)
(0.161148 0 -0.000805738)
(0.161148 0 -0.000805739)
(0.161148 0 -0.000805739)
(0.161148 0 -0.000805739)
(0.161148 0 -0.000805739)
(0.161148 0 -0.000805739)
(0.161148 0 -0.000805739)
(0.161148 0 -0.000805739)
(0.161148 -2.04876e-33 -0.000805739)
(0.161148 2.19324e-33 -0.000805739)
(0.161148 0 -0.000805739)
(0.161148 0 -0.000805739)
(0.161148 0 -0.000805739)
(0.161148 0 -0.000805739)
(0.161148 0 -0.000805739)
(0.161148 0 -0.000805739)
(0.161148 0 -0.000805739)
(0.161148 0 -0.000805739)
(0.161148 0 -0.000805739)
(0.161148 0 -0.000805739)
(0.161148 0 -0.000805739)
(0.161148 0 -0.000805739)
(0.161148 0 -0.000805739)
(0.161148 0 -0.000805739)
(0.161148 0 -0.000805739)
(0.161148 0 -0.000805739)
(0.161148 0 -0.000805739)
(0.161148 0 -0.000805739)
(0.161148 0 -0.000805739)
(0.161148 0 -0.000805739)
(0.161148 0 -0.000805739)
(0.161148 0 -0.000805739)
(0.161148 0 -0.000805739)
(0.161148 0 -0.000805739)
(0.161148 0 -0.000805739)
(0.161148 0 -0.000805739)
(0.161148 0 -0.000805739)
(0.161148 0 -0.000805739)
(0.161148 0 -0.000805739)
(0.161148 0 -0.000805739)
(0.161148 0 -0.000805739)
(0.161148 0 -0.000805739)
(0.161148 0 -0.000805739)
(0.161148 0 -0.000805739)
(0.161148 0 -0.000805739)
(0.161148 0 -0.000805739)
(0.161148 0 -0.000805739)
(0.161148 0 -0.000805739)
(0.161148 0 -0.000805739)
(0.161148 0 -0.000805739)
(0.161148 0 -0.000805739)
(0.161148 0 -0.000805739)
(0.161148 0 -0.000805739)
(0.161148 0 -0.000805739)
(0.161148 0 -0.000805739)
(0.161148 0 -0.000805739)
(0.161148 0 -0.000805739)
(0.161148 0 -0.000805739)
(0.161148 0 -0.000805739)
(0.161148 0 -0.000805739)
(0.161148 0 -0.000805739)
(0.161148 0 -0.000805739)
(0.161148 0 -0.000805739)
(0.161148 0 -0.000805739)
(0.161148 0 -0.000805739)
(0.161148 0 -0.000805739)
(0.161148 0 -0.000805739)
(0.161148 0 -0.000805739)
(0.161148 0 -0.000805739)
(0.161148 0 -0.000805739)
(0.161148 0 -0.000805739)
(0.161148 0 -0.000805739)
(0.161148 0 -0.000805739)
(0.161148 0 -0.000805739)
(0.161148 0 -0.000805739)
(0.161148 0 -0.000805739)
(0.161148 0 -0.000805739)
(0.161148 0 -0.000805739)
(0.161148 0 -0.000805739)
(0.161148 0 -0.000805739)
(0.161148 0 -0.000805739)
(0.161148 0 -0.000805739)
(0.161148 0 -0.000805739)
(0.161148 0 -0.000805739)
(0.161148 0 -0.000805739)
(0.161148 0 -0.000805739)
(0.161148 0 -0.000805739)
(0.161148 0 -0.000805739)
(0.161148 0 -0.000805739)
(0.161148 0 -0.000805739)
(0.161148 0 -0.000805739)
(0.161148 0 -0.000805739)
(0.161148 0 -0.000805739)
(0.161148 0 -0.000805739)
(0.161148 0 -0.000805739)
(0.161148 0 -0.000805739)
(0.161148 0 -0.000805739)
(0.161148 0 -0.000805739)
(0.161148 0 -0.000805739)
(0.161148 0 -0.000805739)
(0.161148 0 -0.000805739)
(0.161148 0 -0.000805739)
(0.161148 0 -0.000805739)
(0.161148 0 -0.000805739)
(0.161148 0 -0.000805739)
(0.161148 0 -0.000805739)
(0.161148 0 -0.000805739)
(0.161148 0 -0.000805739)
(0.161148 0 -0.000805739)
(0.161148 0 -0.000805739)
(0.161148 0 -0.000805739)
(0.161148 0 -0.000805739)
(0.161148 0 -0.000805739)
(0.161148 0 -0.000805739)
(0.161148 0 -0.000805739)
(0.161148 0 -0.000805739)
(0.161148 0 -0.000805739)
(0.161148 0 -0.000805739)
(0.161148 0 -0.000805739)
(0.161148 0 -0.000805739)
(0.161148 0 -0.000805739)
(0.161148 0 -0.000805739)
(0.161148 0 -0.000805739)
(0.161148 0 -0.000805739)
(0.161148 0 -0.000805739)
(0.161148 0 -0.000805739)
(0.161148 0 -0.000805739)
(0.161148 0 -0.000805739)
(0.161148 0 -0.000805739)
(0.161148 0 -0.000805739)
(0.161148 0 -0.000805739)
(0.161148 0 -0.000805739)
(0.161148 0 -0.000805739)
(0.161148 0 -0.000805739)
(0.161148 0 -0.000805739)
(0.161148 0 -0.000805739)
(0.161148 0 -0.000805739)
(0.161148 0 -0.000805739)
(0.161148 0 -0.000805739)
(0.161148 0 -0.000805739)
(0.161148 0 -0.000805739)
(0.161148 9.05068e-36 -0.000805739)
(0.161148 0 -0.000805739)
(0.161148 0 -0.000805739)
(0.161148 0 -0.000805739)
(0.161148 0 -0.000805739)
(0.161148 0 -0.000805739)
(0.161148 0 -0.000805739)
(0.161148 0 -0.000805739)
(0.161148 0 -0.000805739)
(0.161148 0 -0.000805739)
(0.161148 0 -0.000805739)
(0.161148 0 -0.000805739)
(0.161148 0 -0.000805739)
(0.161148 0 -0.000805739)
(0.161148 0 -0.000805739)
(0.161148 0 -0.000805739)
(0.161148 0 -0.000805739)
(0.161148 0 -0.000805739)
(0.161148 0 -0.000805739)
(0.161148 0 -0.000805739)
(0.161148 0 -0.000805739)
(0.161148 0 -0.000805739)
(0.161148 0 -0.000805739)
(0.161148 0 -0.000805739)
(0.161148 0 -0.000805739)
(0.161148 0 -0.000805739)
(0.161148 0 -0.000805739)
(0.161148 0 -0.000805739)
(0.161148 0 -0.000805739)
(0.161148 0 -0.000805739)
(0.161148 0 -0.000805739)
(0.161148 0 -0.000805739)
(0.161148 0 -0.000805739)
(0.161148 0 -0.000805739)
(0.161148 0 -0.000805739)
(0.161148 0 -0.000805739)
(0.161148 0 -0.000805739)
(0.161148 0 -0.000805739)
(0.161148 0 -0.000805739)
(0.161148 0 -0.000805739)
(0.161148 0 -0.000805739)
(0.161148 0 -0.000805739)
(0.161148 0 -0.000805739)
(0.161148 0 -0.000805739)
(0.161148 0 -0.000805739)
(0.161148 0 -0.000805739)
(0.161148 0 -0.000805739)
(0.161148 -6.33485e-36 -0.000805739)
(0.161148 0 -0.000805739)
(0.161148 0 -0.000805739)
(0.161148 0 -0.000805739)
(0.161148 0 -0.000805739)
(0.161148 0 -0.000805739)
(0.161148 0 -0.000805739)
(0.161148 0 -0.000805739)
(0.161148 0 -0.000805739)
(0.161148 0 -0.000805739)
(0.161148 0 -0.000805739)
(0.161148 0 -0.000805739)
(0.161148 0 -0.000805739)
(0.161148 0 -0.000805739)
(0.161148 0 -0.000805739)
(0.161148 0 -0.000805739)
(0.161148 0 -0.000805741)
(0.161148 0 -0.000805739)
(0.161148 0 -0.000807109)
(0.431033 -1.64555e-25 0.0103826)
(0.355463 1.11496e-25 0.0016686)
(0.305758 4.71225e-26 -0.000929075)
(0.305417 0 -0.0014282)
(0.296659 9.8988e-27 -0.00142551)
(0.295598 5.8806e-27 -0.00141181)
(0.291595 1.14159e-33 -0.00142349)
(0.291109 2.90565e-27 -0.00142331)
(0.28939 2.0659e-27 -0.00144046)
(0.289465 0 -0.00144353)
(0.289108 0 -0.00145537)
(0.289419 0 -0.00145693)
(0.289671 1.26494e-28 -0.00146896)
(0.290281 4.50254e-29 -0.00147161)
(0.290823 3.30707e-28 -0.00148045)
(0.291702 0 -0.00148698)
(0.292491 0 -0.00149333)
(0.293485 7.25003e-28 -0.00149918)
(0.294406 8.12284e-28 -0.0015062)
(0.295499 0 -0.00151437)
(0.296626 0 -0.00152129)
(0.297796 0 -0.00152786)
(0.298995 0 -0.00153479)
(0.300215 0 -0.00154128)
(0.301469 0 -0.00154734)
(0.302675 0 -0.00155024)
(0.303741 -1.21156e-27 -0.00155065)
(0.30466 0 -0.00155042)
(0.305444 0 -0.0015501)
(0.306109 0 -0.00154978)
(0.306671 -6.91018e-28 -0.00154949)
(0.307145 0 -0.00154923)
(0.307543 -4.99763e-28 -0.001549)
(0.307877 0 -0.00154881)
(0.308157 -3.56697e-28 -0.00154866)
(0.308392 0 -0.00154854)
(0.308589 -2.53099e-28 -0.00154846)
(0.308754 -2.13076e-28 -0.0015484)
(0.308893 0 -0.00154837)
(0.309011 0 -0.00154834)
(0.30911 -1.28151e-28 -0.00154834)
(0.309195 -2.19961e-28 -0.00154838)
(0.309268 0 -0.00154839)
(0.30933 -1.58634e-28 -0.00154836)
(0.309381 0 -0.00154833)
(0.309425 0 -0.00154838)
(0.309462 -9.53863e-29 -0.00154834)
(0.309494 0 -0.0015484)
(0.309522 -7.04918e-29 -0.0015484)
(0.309546 0 -0.00154841)
(0.309567 0 -0.00154842)
(0.309584 -2.273e-29 -0.00154844)
(0.3096 0 -0.00154844)
(0.309613 -1.71757e-29 -0.00154845)
(0.309624 0 -0.00154846)
(0.309634 0 -0.00154846)
(0.309643 -2.19298e-29 -0.00154847)
(0.309651 0 -0.00154847)
(0.309657 -1.64426e-29 -0.00154848)
(0.309663 0 -0.00154848)
(0.309668 0 -0.00154848)
(0.309672 -1.06679e-29 -0.00154849)
(0.309676 0 -0.00154849)
(0.309679 -8.06007e-30 -0.00154849)
(0.309682 0 -0.00154849)
(0.309685 0 -0.00154849)
(0.309687 -2.68787e-30 -0.0015485)
(0.309689 0 -0.00154849)
(0.30969 -3.88546e-30 -0.0015485)
(0.309691 0 -0.0015485)
(0.309693 1.45188e-30 -0.0015485)
(0.309694 -2.5012e-30 -0.0015485)
(0.309695 0 -0.0015485)
(0.309695 -1.77823e-30 -0.0015485)
(0.309696 0 -0.0015485)
(0.309697 0 -0.0015485)
(0.309697 -1.23423e-30 -0.0015485)
(0.309697 0 -0.0015485)
(0.309698 -8.95762e-31 -0.0015485)
(0.309698 0 -0.0015485)
(0.309698 0 -0.0015485)
(0.309699 0 -0.0015485)
(0.309699 0 -0.0015485)
(0.309699 0 -0.0015485)
(0.309699 0 -0.0015485)
(0.309699 0 -0.0015485)
(0.309699 1.76452e-31 -0.0015485)
(0.3097 0 -0.0015485)
(0.3097 0 -0.0015485)
(0.3097 5.52941e-32 -0.0015485)
(0.3097 0 -0.0015485)
(0.3097 0 -0.0015485)
(0.3097 0 -0.0015485)
(0.3097 0 -0.0015485)
(0.3097 0 -0.0015485)
(0.3097 0 -0.0015485)
(0.3097 0 -0.0015485)
(0.3097 0 -0.0015485)
(0.3097 0 -0.0015485)
(0.3097 0 -0.0015485)
(0.3097 0 -0.0015485)
(0.3097 0 -0.0015485)
(0.3097 9.03593e-33 -0.0015485)
(0.3097 0 -0.0015485)
(0.3097 0 -0.0015485)
(0.3097 9.37795e-33 -0.0015485)
(0.3097 0 -0.0015485)
(0.3097 0 -0.0015485)
(0.3097 0 -0.0015485)
(0.3097 0 -0.0015485)
(0.3097 0 -0.0015485)
(0.3097 0 -0.0015485)
(0.3097 0 -0.0015485)
(0.3097 0 -0.0015485)
(0.3097 0 -0.0015485)
(0.3097 0 -0.0015485)
(0.3097 0 -0.0015485)
(0.3097 2.0218e-33 -0.0015485)
(0.3097 0 -0.0015485)
(0.3097 0 -0.0015485)
(0.3097 1.08661e-33 -0.0015485)
(0.3097 0 -0.0015485)
(0.3097 0 -0.0015485)
(0.3097 0 -0.0015485)
(0.3097 0 -0.0015485)
(0.3097 0 -0.0015485)
(0.3097 0 -0.0015485)
(0.3097 0 -0.0015485)
(0.3097 0 -0.0015485)
(0.3097 0 -0.0015485)
(0.3097 0 -0.0015485)
(0.3097 0 -0.0015485)
(0.3097 0 -0.0015485)
(0.3097 0 -0.0015485)
(0.3097 0 -0.0015485)
(0.3097 0 -0.0015485)
(0.3097 -2.18949e-34 -0.0015485)
(0.3097 0 -0.0015485)
(0.3097 0 -0.0015485)
(0.3097 0 -0.0015485)
(0.3097 0 -0.0015485)
(0.3097 0 -0.0015485)
(0.3097 0 -0.0015485)
(0.3097 0 -0.0015485)
(0.3097 0 -0.0015485)
(0.3097 0 -0.0015485)
(0.3097 0 -0.0015485)
(0.3097 0 -0.0015485)
(0.3097 0 -0.0015485)
(0.3097 0 -0.0015485)
(0.3097 0 -0.0015485)
(0.3097 0 -0.0015485)
(0.3097 0 -0.0015485)
(0.3097 0 -0.0015485)
(0.3097 0 -0.0015485)
(0.3097 0 -0.0015485)
(0.3097 0 -0.0015485)
(0.3097 0 -0.0015485)
(0.3097 0 -0.0015485)
(0.3097 0 -0.0015485)
(0.3097 0 -0.0015485)
(0.3097 0 -0.0015485)
(0.3097 0 -0.0015485)
(0.3097 0 -0.0015485)
(0.3097 0 -0.0015485)
(0.3097 0 -0.0015485)
(0.3097 0 -0.0015485)
(0.3097 0 -0.0015485)
(0.3097 0 -0.0015485)
(0.3097 0 -0.0015485)
(0.3097 0 -0.0015485)
(0.3097 0 -0.0015485)
(0.3097 0 -0.0015485)
(0.3097 0 -0.0015485)
(0.3097 0 -0.0015485)
(0.3097 0 -0.0015485)
(0.3097 0 -0.0015485)
(0.3097 0 -0.0015485)
(0.3097 0 -0.0015485)
(0.3097 0 -0.0015485)
(0.3097 0 -0.0015485)
(0.3097 0 -0.0015485)
(0.3097 0 -0.0015485)
(0.3097 0 -0.0015485)
(0.3097 0 -0.0015485)
(0.3097 0 -0.0015485)
(0.3097 0 -0.0015485)
(0.3097 0 -0.0015485)
(0.3097 0 -0.0015485)
(0.3097 0 -0.0015485)
(0.3097 0 -0.0015485)
(0.3097 0 -0.0015485)
(0.3097 0 -0.0015485)
(0.3097 0 -0.0015485)
(0.3097 0 -0.0015485)
(0.3097 0 -0.0015485)
(0.3097 0 -0.0015485)
(0.3097 0 -0.0015485)
(0.3097 0 -0.0015485)
(0.3097 0 -0.0015485)
(0.3097 0 -0.0015485)
(0.3097 0 -0.0015485)
(0.3097 0 -0.0015485)
(0.3097 0 -0.0015485)
(0.3097 0 -0.0015485)
(0.3097 0 -0.0015485)
(0.3097 0 -0.0015485)
(0.3097 0 -0.0015485)
(0.3097 0 -0.0015485)
(0.3097 0 -0.0015485)
(0.3097 0 -0.0015485)
(0.3097 0 -0.0015485)
(0.3097 0 -0.0015485)
(0.3097 0 -0.0015485)
(0.3097 0 -0.0015485)
(0.3097 0 -0.0015485)
(0.3097 0 -0.0015485)
(0.3097 0 -0.0015485)
(0.3097 0 -0.0015485)
(0.3097 0 -0.0015485)
(0.3097 0 -0.0015485)
(0.3097 0 -0.0015485)
(0.3097 0 -0.0015485)
(0.3097 0 -0.0015485)
(0.3097 0 -0.0015485)
(0.3097 0 -0.0015485)
(0.3097 0 -0.0015485)
(0.3097 0 -0.0015485)
(0.3097 0 -0.0015485)
(0.3097 0 -0.0015485)
(0.3097 0 -0.0015485)
(0.3097 0 -0.0015485)
(0.3097 0 -0.0015485)
(0.3097 0 -0.0015485)
(0.3097 1.42213e-37 -0.0015485)
(0.3097 0 -0.0015485)
(0.3097 0 -0.0015485)
(0.3097 0 -0.0015485)
(0.3097 0 -0.0015485)
(0.3097 0 -0.0015485)
(0.3097 0 -0.0015485)
(0.3097 0 -0.0015485)
(0.3097 0 -0.0015485)
(0.3097 0 -0.0015485)
(0.3097 0 -0.0015485)
(0.3097 0 -0.0015485)
(0.3097 0 -0.0015485)
(0.3097 0 -0.0015485)
(0.3097 0 -0.0015485)
(0.3097 0 -0.0015485)
(0.3097 0 -0.0015485)
(0.3097 0 -0.0015485)
(0.3097 0 -0.0015485)
(0.3097 0 -0.0015485)
(0.3097 0 -0.0015485)
(0.3097 0 -0.0015485)
(0.3097 0 -0.0015485)
(0.3097 0 -0.0015485)
(0.3097 0 -0.0015485)
(0.3097 0 -0.0015485)
(0.3097 0 -0.0015485)
(0.3097 0 -0.0015485)
(0.3097 0 -0.0015485)
(0.3097 0 -0.0015485)
(0.3097 0 -0.0015485)
(0.3097 0 -0.0015485)
(0.3097 0 -0.0015485)
(0.3097 0 -0.0015485)
(0.3097 0 -0.0015485)
(0.3097 0 -0.0015485)
(0.3097 0 -0.0015485)
(0.3097 0 -0.0015485)
(0.3097 0 -0.0015485)
(0.3097 0 -0.0015485)
(0.3097 0 -0.0015485)
(0.3097 0 -0.0015485)
(0.3097 0 -0.0015485)
(0.3097 0 -0.0015485)
(0.3097 0 -0.0015485)
(0.3097 0 -0.0015485)
(0.3097 0 -0.0015485)
(0.3097 0 -0.0015485)
(0.3097 0 -0.0015485)
(0.3097 0 -0.0015485)
(0.3097 0 -0.0015485)
(0.3097 0 -0.0015485)
(0.3097 0 -0.0015485)
(0.3097 0 -0.0015485)
(0.3097 0 -0.0015485)
(0.3097 0 -0.0015485)
(0.3097 0 -0.0015485)
(0.3097 0 -0.0015485)
(0.3097 0 -0.0015485)
(0.3097 0 -0.0015485)
(0.3097 0 -0.0015485)
(0.3097 0 -0.0015485)
(0.3097 0 -0.0015485)
(0.3097 0 -0.0015485)
(0.3097 0 -0.0015485)
(0.3097 0 -0.00154706)
(0.502015 0 0.0133528)
(0.455258 0 0.00298637)
(0.399288 0 -0.000543829)
(0.393279 0 -0.00158321)
(0.377353 3.46489e-26 -0.00162789)
(0.374466 9.76544e-27 -0.00167796)
(0.368248 1.46728e-26 -0.00172292)
(0.366988 4.88803e-27 -0.00174538)
(0.364221 7.52833e-27 -0.00178276)
(0.36396 0 -0.00180252)
(0.363154 0 -0.0018248)
(0.363327 0 -0.0018327)
(0.363466 8.45315e-28 -0.00185361)
(0.364004 -5.24912e-28 -0.00185925)
(0.364583 -1.70694e-28 -0.00187574)
(0.365533 -9.47729e-29 -0.00188608)
(0.366425 0 -0.0018963)
(0.367577 4.84092e-28 -0.00190498)
(0.368658 0 -0.00191518)
(0.369945 -7.97538e-28 -0.00192787)
(0.371286 1.9031e-27 -0.00193766)
(0.372689 1.0684e-27 -0.00194668)
(0.374136 0 -0.00195602)
(0.375616 0 -0.00196478)
(0.377147 0 -0.00197208)
(0.378609 0 -0.00197271)
(0.379909 0 -0.00196902)
(0.381039 1.21987e-27 -0.0019646)
(0.38201 0 -0.0019605)
(0.382839 0 -0.00195684)
(0.383544 0 -0.00195366)
(0.384141 0 -0.0019509)
(0.384645 -5.96085e-28 -0.00194856)
(0.385069 0 -0.00194656)
(0.385426 0 -0.0019449)
(0.385726 0 -0.00194352)
(0.385978 -3.06484e-28 -0.00194239)
(0.38619 -2.58431e-28 -0.00194145)
(0.386369 0 -0.0019407)
(0.38652 0 -0.00194007)
(0.386648 -1.55071e-28 -0.00193958)
(0.386757 -2.64899e-28 -0.00193923)
(0.38685 0 -0.0019389)
(0.38693 -1.92828e-28 -0.00193855)
(0.386996 0 -0.00193824)
(0.387052 -6.7435e-29 -0.00193807)
(0.3871 -1.16117e-28 -0.00193785)
(0.387141 0 -0.00193777)
(0.387176 -8.39146e-29 -0.00193766)
(0.387207 -3.60305e-29 -0.00193757)
(0.387233 0 -0.0019375)
(0.387256 -5.36469e-29 -0.00193744)
(0.387276 0 -0.00193737)
(0.387293 -1.95622e-29 -0.00193734)
(0.387307 0 -0.00193729)
(0.38732 0 -0.00193725)
(0.387331 -2.57582e-29 -0.00193723)
(0.387341 0 -0.0019372)
(0.38735 -1.92425e-29 -0.00193718)
(0.387357 0 -0.00193715)
(0.387363 0 -0.00193714)
(0.387369 -1.25555e-29 -0.00193712)
(0.387373 0 -0.00193711)
(0.387377 -9.40033e-30 -0.0019371)
(0.387381 0 -0.00193709)
(0.387384 0 -0.00193708)
(0.387387 -5.96815e-30 -0.00193707)
(0.387389 0 -0.00193706)
(0.387391 -4.52535e-30 -0.00193706)
(0.387393 0 -0.00193705)
(0.387394 0 -0.00193705)
(0.387395 -2.96652e-30 -0.00193704)
(0.387397 0 -0.00193704)
(0.387397 -2.03583e-30 -0.00193703)
(0.387398 0 -0.00193704)
(0.387399 0 -0.00193703)
(0.3874 -1.40169e-30 -0.00193703)
(0.3874 0 -0.00193703)
(0.387401 -5.56156e-31 -0.00193703)
(0.387401 0 -0.00193702)
(0.387401 0 -0.00193702)
(0.387402 0 -0.00193702)
(0.387402 0 -0.00193702)
(0.387402 0 -0.00193702)
(0.387402 0 -0.00193702)
(0.387403 0 -0.00193702)
(0.387403 0 -0.00193702)
(0.387403 0 -0.00193702)
(0.387403 0 -0.00193702)
(0.387403 9.03213e-32 -0.00193702)
(0.387403 7.68621e-32 -0.00193702)
(0.387403 0 -0.00193702)
(0.387403 0 -0.00193702)
(0.387403 0 -0.00193702)
(0.387403 0 -0.00193702)
(0.387403 0 -0.00193702)
(0.387403 0 -0.00193702)
(0.387403 0 -0.00193702)
(0.387403 0 -0.00193702)
(0.387403 0 -0.00193702)
(0.387403 0 -0.00193702)
(0.387403 0 -0.00193702)
(0.387403 0 -0.00193702)
(0.387403 0 -0.00193702)
(0.387404 0 -0.00193702)
(0.387404 2.74106e-32 -0.00193702)
(0.387404 0 -0.00193702)
(0.387404 0 -0.00193702)
(0.387404 0 -0.00193702)
(0.387404 0 -0.00193702)
(0.387404 0 -0.00193702)
(0.387404 0 -0.00193702)
(0.387404 0 -0.00193702)
(0.387404 0 -0.00193702)
(0.387404 0 -0.00193702)
(0.387404 0 -0.00193702)
(0.387404 0 -0.00193702)
(0.387404 0 -0.00193702)
(0.387404 0 -0.00193702)
(0.387404 0 -0.00193702)
(0.387404 7.48604e-34 -0.00193702)
(0.387404 9.39546e-34 -0.00193702)
(0.387404 0 -0.00193702)
(0.387404 0 -0.00193702)
(0.387404 0 -0.00193702)
(0.387404 0 -0.00193702)
(0.387404 0 -0.00193702)
(0.387404 0 -0.00193702)
(0.387404 0 -0.00193702)
(0.387404 0 -0.00193702)
(0.387404 0 -0.00193702)
(0.387404 0 -0.00193702)
(0.387404 0 -0.00193702)
(0.387404 0 -0.00193702)
(0.387404 0 -0.00193702)
(0.387404 0 -0.00193702)
(0.387404 -3.97514e-34 -0.00193702)
(0.387404 2.14229e-35 -0.00193702)
(0.387404 0 -0.00193702)
(0.387404 0 -0.00193702)
(0.387404 0 -0.00193702)
(0.387404 0 -0.00193702)
(0.387404 0 -0.00193702)
(0.387404 0 -0.00193702)
(0.387404 0 -0.00193702)
(0.387404 0 -0.00193702)
(0.387404 0 -0.00193702)
(0.387404 0 -0.00193702)
(0.387404 0 -0.00193702)
(0.387404 0 -0.00193702)
(0.387404 0 -0.00193702)
(0.387404 0 -0.00193702)
(0.387404 0 -0.00193702)
(0.387404 0 -0.00193702)
(0.387404 0 -0.00193702)
(0.387404 0 -0.00193702)
(0.387404 0 -0.00193702)
(0.387404 0 -0.00193702)
(0.387404 0 -0.00193702)
(0.387404 0 -0.00193702)
(0.387404 0 -0.00193702)
(0.387404 0 -0.00193702)
(0.387404 0 -0.00193702)
(0.387404 0 -0.00193702)
(0.387404 0 -0.00193702)
(0.387404 0 -0.00193702)
(0.387404 0 -0.00193702)
(0.387404 0 -0.00193702)
(0.387404 0 -0.00193702)
(0.387404 0 -0.00193702)
(0.387404 0 -0.00193702)
(0.387404 0 -0.00193702)
(0.387404 0 -0.00193702)
(0.387404 0 -0.00193702)
(0.387404 0 -0.00193702)
(0.387404 0 -0.00193702)
(0.387404 0 -0.00193702)
(0.387404 0 -0.00193702)
(0.387404 0 -0.00193702)
(0.387404 0 -0.00193702)
(0.387404 0 -0.00193702)
(0.387404 0 -0.00193702)
(0.387404 0 -0.00193702)
(0.387404 0 -0.00193702)
(0.387404 0 -0.00193702)
(0.387404 0 -0.00193702)
(0.387404 0 -0.00193702)
(0.387404 0 -0.00193702)
(0.387404 0 -0.00193702)
(0.387404 0 -0.00193702)
(0.387404 0 -0.00193702)
(0.387404 0 -0.00193702)
(0.387404 0 -0.00193702)
(0.387404 0 -0.00193702)
(0.387404 0 -0.00193702)
(0.387404 0 -0.00193702)
(0.387404 0 -0.00193702)
(0.387404 0 -0.00193702)
(0.387404 0 -0.00193702)
(0.387404 0 -0.00193702)
(0.387404 0 -0.00193702)
(0.387404 0 -0.00193702)
(0.387404 0 -0.00193702)
(0.387404 0 -0.00193702)
(0.387404 0 -0.00193702)
(0.387404 0 -0.00193702)
(0.387404 0 -0.00193702)
(0.387404 0 -0.00193702)
(0.387404 0 -0.00193702)
(0.387404 0 -0.00193702)
(0.387404 0 -0.00193702)
(0.387404 0 -0.00193702)
(0.387404 0 -0.00193702)
(0.387404 0 -0.00193702)
(0.387404 0 -0.00193702)
(0.387404 0 -0.00193702)
(0.387404 0 -0.00193702)
(0.387404 0 -0.00193702)
(0.387404 0 -0.00193702)
(0.387404 0 -0.00193702)
(0.387404 0 -0.00193702)
(0.387404 0 -0.00193702)
(0.387404 0 -0.00193702)
(0.387404 0 -0.00193702)
(0.387404 0 -0.00193702)
(0.387404 0 -0.00193702)
(0.387404 0 -0.00193702)
(0.387404 0 -0.00193702)
(0.387404 0 -0.00193702)
(0.387404 0 -0.00193702)
(0.387404 0 -0.00193702)
(0.387404 0 -0.00193702)
(0.387404 0 -0.00193702)
(0.387404 0 -0.00193702)
(0.387404 0 -0.00193702)
(0.387404 0 -0.00193702)
(0.387404 0 -0.00193702)
(0.387404 0 -0.00193702)
(0.387404 0 -0.00193702)
(0.387404 0 -0.00193702)
(0.387404 0 -0.00193702)
(0.387404 0 -0.00193702)
(0.387404 0 -0.00193702)
(0.387404 0 -0.00193702)
(0.387404 0 -0.00193702)
(0.387404 0 -0.00193702)
(0.387404 0 -0.00193702)
(0.387404 0 -0.00193702)
(0.387404 0 -0.00193702)
(0.387404 0 -0.00193702)
(0.387404 0 -0.00193702)
(0.387404 0 -0.00193702)
(0.387404 0 -0.00193702)
(0.387404 0 -0.00193702)
(0.387404 1.16134e-35 -0.00193702)
(0.387404 0 -0.00193702)
(0.387404 0 -0.00193702)
(0.387404 0 -0.00193702)
(0.387404 0 -0.00193702)
(0.387404 0 -0.00193702)
(0.387404 0 -0.00193702)
(0.387404 0 -0.00193702)
(0.387404 0 -0.00193702)
(0.387404 0 -0.00193702)
(0.387404 0 -0.00193702)
(0.387404 0 -0.00193702)
(0.387404 0 -0.00193702)
(0.387404 0 -0.00193702)
(0.387404 0 -0.00193702)
(0.387404 0 -0.00193702)
(0.387404 0 -0.00193702)
(0.387404 0 -0.00193702)
(0.387404 0 -0.00193702)
(0.387404 0 -0.00193702)
(0.387404 0 -0.00193702)
(0.387404 0 -0.00193702)
(0.387404 0 -0.00193702)
(0.387404 0 -0.00193702)
(0.387404 0 -0.00193702)
(0.387404 0 -0.00193702)
(0.387404 0 -0.00193702)
(0.387404 0 -0.00193702)
(0.387404 0 -0.00193702)
(0.387404 0 -0.00193702)
(0.387404 0 -0.00193702)
(0.387404 0 -0.00193702)
(0.387404 0 -0.00193702)
(0.387404 0 -0.00193702)
(0.387404 0 -0.00193702)
(0.387404 0 -0.00193702)
(0.387404 0 -0.00193702)
(0.387404 0 -0.00193702)
(0.387404 0 -0.00193702)
(0.387404 0 -0.00193702)
(0.387404 0 -0.00193702)
(0.387404 0 -0.00193702)
(0.387404 0 -0.00193702)
(0.387404 0 -0.00193702)
(0.387404 0 -0.00193702)
(0.387404 0 -0.00193773)
(0.529763 0 0.0132326)
(0.51525 0 0.00447706)
(0.470257 0 8.69753e-05)
(0.4588 0 -0.00137156)
(0.435874 3.46793e-26 -0.00154618)
(0.430773 1.32081e-26 -0.00175453)
(0.422001 1.99214e-26 -0.00184791)
(0.419673 6.85549e-27 -0.00192024)
(0.415878 1.0738e-26 -0.00198474)
(0.415109 3.9028e-27 -0.00202902)
(0.413716 0 -0.00206346)
(0.413644 0 -0.00208435)
(0.413541 1.47986e-27 -0.00211376)
(0.413917 -1.22827e-27 -0.00212492)
(0.414425 0 -0.00215061)
(0.415304 4.88857e-28 -0.00216525)
(0.416193 0 -0.00218035)
(0.417378 0 -0.0021923)
(0.41851 0 -0.0022057)
(0.419868 -3.65888e-28 -0.0022232)
(0.421299 1.11906e-27 -0.00223585)
(0.422808 7.06919e-28 -0.0022473)
(0.424376 0 -0.00225887)
(0.425989 9.93287e-28 -0.00226985)
(0.427666 1.14102e-27 -0.00227762)
(0.429244 1.19775e-27 -0.00227459)
(0.430646 -1.16352e-27 -0.00226566)
(0.431871 1.07222e-27 -0.00225602)
(0.43293 9.62752e-28 -0.00224714)
(0.433841 8.51196e-28 -0.00223923)
(0.434617 0 -0.00223232)
(0.435278 0 -0.00222632)
(0.435838 5.55039e-28 -0.00222119)
(0.43631 0 -0.00221682)
(0.436709 0 -0.00221315)
(0.437045 0 -0.00221007)
(0.437328 0 -0.00220752)
(0.437566 -2.45633e-28 -0.0022054)
(0.437768 0 -0.00220366)
(0.437938 0 -0.0022022)
(0.438082 0 -0.00220102)
(0.438205 -2.5052e-28 -0.00220014)
(0.43831 0 -0.00219934)
(0.4384 -1.84165e-28 -0.00219854)
(0.438475 0 -0.00219784)
(0.438538 -6.40356e-29 -0.00219736)
(0.438591 -1.07931e-28 -0.00219691)
(0.438638 0 -0.00219664)
(0.438677 -7.85057e-29 -0.00219636)
(0.438712 -3.35896e-29 -0.00219613)
(0.438741 -2.88105e-29 -0.00219593)
(0.438767 -4.9723e-29 -0.00219577)
(0.438789 0 -0.00219561)
(0.438808 -3.5641e-29 -0.00219551)
(0.438825 -1.60087e-29 -0.00219538)
(0.438839 0 -0.00219528)
(0.438852 -2.36864e-29 -0.0021952)
(0.438863 -1.02437e-29 -0.00219513)
(0.438872 -1.76402e-29 -0.00219507)
(0.43888 0 -0.00219502)
(0.438887 0 -0.00219497)
(0.438893 -1.15191e-29 -0.00219493)
(0.438899 0 -0.00219489)
(0.438903 -8.58038e-30 -0.00219486)
(0.438907 0 -0.00219484)
(0.43891 0 -0.00219481)
(0.438914 -4.92893e-30 -0.0021948)
(0.438916 0 -0.00219477)
(0.438919 -4.0991e-30 -0.00219476)
(0.438921 0 -0.00219475)
(0.438922 0 -0.00219474)
(0.438924 -1.36573e-30 -0.00219473)
(0.438925 0 -0.00219472)
(0.438926 -2.17728e-30 -0.00219471)
(0.438927 0 -0.00219471)
(0.438928 0 -0.0021947)
(0.438928 -1.26894e-30 -0.00219469)
(0.438929 0 -0.00219469)
(0.43893 -5.1379e-31 -0.00219469)
(0.43893 0 -0.00219468)
(0.43893 0 -0.00219468)
(0.438931 0 -0.00219468)
(0.438931 0 -0.00219468)
(0.438931 0 -0.00219467)
(0.438931 0 -0.00219467)
(0.438932 0 -0.00219467)
(0.438932 0 -0.00219467)
(0.438932 0 -0.00219467)
(0.438932 0 -0.00219467)
(0.438932 0 -0.00219467)
(0.438932 1.42451e-31 -0.00219467)
(0.438932 0 -0.00219467)
(0.438932 0 -0.00219467)
(0.438932 0 -0.00219467)
(0.438932 0 -0.00219467)
(0.438932 0 -0.00219467)
(0.438932 0 -0.00219467)
(0.438933 0 -0.00219466)
(0.438933 0 -0.00219466)
(0.438933 0 -0.00219466)
(0.438933 0 -0.00219466)
(0.438933 0 -0.00219466)
(0.438933 0 -0.00219466)
(0.438933 0 -0.00219466)
(0.438933 0 -0.00219466)
(0.438933 1.60301e-32 -0.00219466)
(0.438933 -9.24159e-33 -0.00219466)
(0.438933 0 -0.00219466)
(0.438933 0 -0.00219466)
(0.438933 0 -0.00219466)
(0.438933 0 -0.00219466)
(0.438933 0 -0.00219466)
(0.438933 0 -0.00219466)
(0.438933 0 -0.00219466)
(0.438933 0 -0.00219466)
(0.438933 0 -0.00219466)
(0.438933 0 -0.00219466)
(0.438933 0 -0.00219466)
(0.438933 0 -0.00219466)
(0.438933 0 -0.00219466)
(0.438933 0 -0.00219466)
(0.438933 7.21619e-34 -0.00219466)
(0.438933 1.94736e-34 -0.00219466)
(0.438933 0 -0.00219466)
(0.438933 0 -0.00219466)
(0.438933 0 -0.00219466)
(0.438933 0 -0.00219466)
(0.438933 0 -0.00219466)
(0.438933 0 -0.00219466)
(0.438933 0 -0.00219466)
(0.438933 0 -0.00219466)
(0.438933 0 -0.00219466)
(0.438933 0 -0.00219466)
(0.438933 0 -0.00219466)
(0.438933 0 -0.00219466)
(0.438933 0 -0.00219466)
(0.438933 0 -0.00219466)
(0.438933 8.12126e-35 -0.00219466)
(0.438933 0 -0.00219466)
(0.438933 0 -0.00219466)
(0.438933 0 -0.00219466)
(0.438933 0 -0.00219466)
(0.438933 0 -0.00219466)
(0.438933 0 -0.00219466)
(0.438933 0 -0.00219466)
(0.438933 0 -0.00219466)
(0.438933 0 -0.00219466)
(0.438933 0 -0.00219466)
(0.438933 0 -0.00219466)
(0.438933 0 -0.00219466)
(0.438933 0 -0.00219466)
(0.438933 0 -0.00219466)
(0.438933 0 -0.00219466)
(0.438933 0 -0.00219466)
(0.438933 0 -0.00219466)
(0.438933 0 -0.00219466)
(0.438933 0 -0.00219466)
(0.438933 0 -0.00219466)
(0.438933 0 -0.00219466)
(0.438933 0 -0.00219466)
(0.438933 0 -0.00219466)
(0.438933 0 -0.00219466)
(0.438933 0 -0.00219466)
(0.438933 0 -0.00219466)
(0.438933 0 -0.00219466)
(0.438933 0 -0.00219466)
(0.438933 0 -0.00219466)
(0.438933 0 -0.00219466)
(0.438933 0 -0.00219466)
(0.438933 0 -0.00219466)
(0.438933 0 -0.00219466)
(0.438933 0 -0.00219466)
(0.438933 0 -0.00219466)
(0.438933 0 -0.00219466)
(0.438933 0 -0.00219466)
(0.438933 0 -0.00219466)
(0.438933 0 -0.00219466)
(0.438933 0 -0.00219466)
(0.438933 0 -0.00219466)
(0.438933 0 -0.00219466)
(0.438933 0 -0.00219466)
(0.438933 0 -0.00219466)
(0.438933 0 -0.00219466)
(0.438933 0 -0.00219466)
(0.438933 0 -0.00219466)
(0.438933 0 -0.00219466)
(0.438933 0 -0.00219466)
(0.438933 0 -0.00219466)
(0.438933 0 -0.00219466)
(0.438933 0 -0.00219466)
(0.438933 0 -0.00219466)
(0.438933 0 -0.00219466)
(0.438933 0 -0.00219466)
(0.438933 0 -0.00219466)
(0.438933 0 -0.00219466)
(0.438933 0 -0.00219466)
(0.438933 0 -0.00219466)
(0.438933 0 -0.00219466)
(0.438933 0 -0.00219466)
(0.438933 0 -0.00219466)
(0.438933 0 -0.00219466)
(0.438933 0 -0.00219466)
(0.438933 0 -0.00219466)
(0.438933 0 -0.00219466)
(0.438933 0 -0.00219466)
(0.438933 0 -0.00219466)
(0.438933 0 -0.00219466)
(0.438933 0 -0.00219466)
(0.438933 0 -0.00219466)