/*--------------------------------*- C++ -*----------------------------------*\
| =========                 |                                                 |
| \\      /  F ield         | foam-extend: Open Source CFD                    |
|  \\    /   O peration     | Version:     3.2                                |
|   \\  /    A nd           | Web:         http://www.foam-extend.org         |
|    \\/     M anipulation  | For copyright notice see file Copyright         |
\*---------------------------------------------------------------------------*/
FoamFile
{
    version     2.0;
    format      ascii;
    class       areaVectorField;
    location    "60";
    object      Ub2;
}
// * * * * * * * * * * * * * * * * * * * * * * * * * * * * * * * * * * * * * //

dimensions      [0 1 -1 0 0 0 0];

internalField   nonuniform List<vector> 
300
(
(0.61155 -7.83204e-26 -0.00305775)
(0.456859 1.18926e-25 -0.00228429)
(0.371906 4.41723e-26 -0.00185953)
(0.37415 0 -0.00187075)
(0.364607 -3.43501e-23 -0.00182303)
(0.3658 -1.07399e-23 -0.001829)
(0.361732 -1.38083e-23 -0.00180866)
(0.361805 -2.44131e-24 -0.00180903)
(0.360243 0 -0.00180121)
(0.360928 -1.81699e-24 -0.00180464)
(0.360963 0 -0.00180481)
(0.362036 2.8887e-24 -0.00181018)
(0.362916 -3.33453e-28 -0.00181458)
(0.364446 3.92931e-24 -0.00182223)
(0.365771 0 -0.00182885)
(0.367608 0 -0.00183804)
(0.369331 4.63663e-24 -0.00184665)
(0.371313 -4.3187e-24 -0.00185657)
(0.373227 4.86594e-24 -0.00186613)
(0.375377 0 -0.00187689)
(0.377574 0 -0.00188787)
(0.379826 -4.75402e-24 -0.00189913)
(0.382106 0 -0.00191053)
(0.384406 0 -0.00192203)
(0.386711 0 -0.00193356)
(0.38891 -3.88567e-24 -0.00194455)
(0.390836 -1.20134e-27 -0.00195418)
(0.392471 0 -0.00196236)
(0.393843 0 -0.00196922)
(0.394993 -1.52249e-24 -0.00197496)
(0.395952 -6.56513e-28 -0.00197976)
(0.396753 0 -0.00198377)
(0.39742 0 -0.0019871)
(0.397976 0 -0.00198988)
(0.398439 -3.32742e-28 -0.00199219)
(0.398825 0 -0.00199413)
(0.399148 0 -0.00199574)
(0.399419 -1.97742e-28 -0.00199709)
(0.399646 0 -0.00199823)
(0.399838 0 -0.00199919)
(0.399999 0 -0.002)
(0.400138 -1.43299e-25 -0.00200069)
(0.400257 0 -0.00200129)
(0.400358 -9.52265e-26 -0.00200179)
(0.400442 0 -0.00200221)
(0.400512 0 -0.00200256)
(0.400574 -8.34526e-26 -0.00200287)
(0.400626 0 -0.00200313)
(0.400671 -5.0376e-26 -0.00200336)
(0.400711 0 -0.00200355)
(0.400745 0 -0.00200372)
(0.400774 -3.33956e-26 -0.00200387)
(0.4008 0 -0.002004)
(0.400823 -2.79233e-26 -0.00200411)
(0.400843 0 -0.00200421)
(0.40086 0 -0.0020043)
(0.400874 -1.77345e-26 -0.00200437)
(0.400887 0 -0.00200444)
(0.400898 -7.8911e-30 -0.00200449)
(0.400908 0 -0.00200454)
(0.400916 0 -0.00200458)
(0.400923 -8.89413e-27 -0.00200462)
(0.40093 0 -0.00200465)
(0.400935 -6.44369e-27 -0.00200468)
(0.40094 0 -0.0020047)
(0.400944 0 -0.00200472)
(0.400948 -4.33368e-27 -0.00200474)
(0.400951 0 -0.00200475)
(0.400953 -3.09723e-27 -0.00200477)
(0.400955 0 -0.00200478)
(0.400957 2.68973e-27 -0.00200479)
(0.400959 -2.04714e-27 -0.0020048)
(0.400961 0 -0.0020048)
(0.400962 -1.70534e-27 -0.00200481)
(0.400963 0 -0.00200481)
(0.400964 0 -0.00200482)
(0.400965 -1.10618e-27 -0.00200482)
(0.400965 0 -0.00200483)
(0.400966 -6.04682e-28 -0.00200483)
(0.400967 0 -0.00200483)
(0.400967 0 -0.00200484)
(0.400967 0 -0.00200484)
(0.400968 0 -0.00200484)
(0.400968 0 -0.00200484)
(0.400968 0 -0.00200484)
(0.400968 2.16721e-28 -0.00200484)
(0.400969 1.83885e-31 -0.00200484)
(0.400969 0 -0.00200484)
(0.400969 0 -0.00200484)
(0.400969 0 -0.00200485)
(0.400969 0 -0.00200485)
(0.400969 0 -0.00200485)
(0.400969 0 -0.00200485)
(0.400969 0 -0.00200485)
(0.400969 0 -0.00200485)
(0.40097 0 -0.00200485)
(0.40097 0 -0.00200485)
(0.40097 0 -0.00200485)
(0.40097 0 -0.00200485)
(0.40097 0 -0.00200485)
(0.40097 0 -0.00200485)
(0.40097 -1.88639e-29 -0.00200485)
(0.40097 5.45604e-33 -0.00200485)
(0.40097 0 -0.00200485)
(0.40097 0 -0.00200485)
(0.40097 0 -0.00200485)
(0.40097 0 -0.00200485)
(0.40097 0 -0.00200485)
(0.40097 0 -0.00200485)
(0.40097 0 -0.00200485)
(0.40097 0 -0.00200485)
(0.40097 0 -0.00200485)
(0.40097 0 -0.00200485)
(0.40097 0 -0.00200485)
(0.40097 0 -0.00200485)
(0.40097 0 -0.00200485)
(0.40097 0 -0.00200485)
(0.40097 -5.93802e-30 -0.00200485)
(0.40097 0 -0.00200485)
(0.40097 0 -0.00200485)
(0.40097 0 -0.00200485)
(0.40097 0 -0.00200485)
(0.40097 0 -0.00200485)
(0.40097 0 -0.00200485)
(0.40097 0 -0.00200485)
(0.40097 0 -0.00200485)
(0.40097 0 -0.00200485)
(0.40097 0 -0.00200485)
(0.40097 0 -0.00200485)
(0.40097 0 -0.00200485)
(0.40097 0 -0.00200485)
(0.40097 0 -0.00200485)
(0.40097 0 -0.00200485)
(0.40097 0 -0.00200485)
(0.40097 0 -0.00200485)
(0.40097 0 -0.00200485)
(0.40097 0 -0.00200485)
(0.40097 0 -0.00200485)
(0.40097 0 -0.00200485)
(0.40097 0 -0.00200485)
(0.40097 0 -0.00200485)
(0.40097 0 -0.00200485)
(0.40097 0 -0.00200485)
(0.40097 0 -0.00200485)
(0.40097 0 -0.00200485)
(0.40097 0 -0.00200485)
(0.40097 0 -0.00200485)
(0.40097 0 -0.00200485)
(0.40097 0 -0.00200485)
(0.40097 0 -0.00200485)
(0.40097 0 -0.00200485)
(0.40097 0 -0.00200485)
(0.40097 0 -0.00200485)
(0.40097 0 -0.00200485)
(0.40097 0 -0.00200485)
(0.40097 0 -0.00200485)
(0.40097 0 -0.00200485)
(0.40097 0 -0.00200485)
(0.40097 0 -0.00200485)
(0.40097 0 -0.00200485)
(0.40097 0 -0.00200485)
(0.40097 0 -0.00200485)
(0.40097 0 -0.00200485)
(0.40097 0 -0.00200485)
(0.40097 0 -0.00200485)
(0.40097 0 -0.00200485)
(0.40097 0 -0.00200485)
(0.40097 0 -0.00200485)
(0.40097 0 -0.00200485)
(0.40097 0 -0.00200485)
(0.40097 0 -0.00200485)
(0.40097 0 -0.00200485)
(0.40097 0 -0.00200485)
(0.40097 0 -0.00200485)
(0.40097 0 -0.00200485)
(0.40097 0 -0.00200485)
(0.40097 0 -0.00200485)
(0.40097 0 -0.00200485)
(0.40097 0 -0.00200485)
(0.40097 0 -0.00200485)
(0.40097 0 -0.00200485)
(0.40097 0 -0.00200485)
(0.40097 0 -0.00200485)
(0.40097 0 -0.00200485)
(0.40097 0 -0.00200485)
(0.40097 0 -0.00200485)
(0.40097 0 -0.00200485)
(0.40097 0 -0.00200485)
(0.40097 0 -0.00200485)
(0.40097 0 -0.00200485)
(0.40097 0 -0.00200485)
(0.40097 0 -0.00200485)
(0.40097 0 -0.00200485)
(0.40097 0 -0.00200485)
(0.40097 0 -0.00200485)
(0.40097 0 -0.00200485)
(0.40097 0 -0.00200485)
(0.40097 0 -0.00200485)
(0.40097 0 -0.00200485)
(0.40097 0 -0.00200485)
(0.40097 0 -0.00200485)
(0.40097 0 -0.00200485)
(0.40097 0 -0.00200485)
(0.40097 0 -0.00200485)
(0.40097 0 -0.00200485)
(0.40097 0 -0.00200485)
(0.40097 0 -0.00200485)
(0.40097 0 -0.00200485)
(0.40097 0 -0.00200485)
(0.40097 0 -0.00200485)
(0.40097 0 -0.00200485)
(0.40097 0 -0.00200485)
(0.40097 0 -0.00200485)
(0.40097 0 -0.00200485)
(0.40097 0 -0.00200485)
(0.40097 0 -0.00200485)
(0.40097 0 -0.00200485)
(0.40097 0 -0.00200485)
(0.40097 0 -0.00200485)
(0.40097 0 -0.00200485)
(0.40097 0 -0.00200485)
(0.40097 0 -0.00200485)
(0.40097 0 -0.00200485)
(0.40097 0 -0.00200485)
(0.40097 0 -0.00200485)
(0.40097 0 -0.00200485)
(0.40097 0 -0.00200485)
(0.40097 0 -0.00200485)
(0.40097 0 -0.00200485)
(0.40097 0 -0.00200485)
(0.40097 0 -0.00200485)
(0.40097 0 -0.00200485)
(0.40097 0 -0.00200485)
(0.40097 0 -0.00200485)
(0.40097 2.19253e-35 -0.00200485)
(0.40097 0 -0.00200485)
(0.40097 0 -0.00200485)
(0.40097 0 -0.00200485)
(0.40097 0 -0.00200485)
(0.40097 0 -0.00200485)
(0.40097 0 -0.00200485)
(0.40097 0 -0.00200485)
(0.40097 0 -0.00200485)
(0.40097 0 -0.00200485)
(0.40097 0 -0.00200485)
(0.40097 0 -0.00200485)
(0.40097 0 -0.00200485)
(0.40097 0 -0.00200485)
(0.40097 0 -0.00200485)
(0.40097 0 -0.00200485)
(0.40097 0 -0.00200485)
(0.40097 0 -0.00200485)
(0.40097 0 -0.00200485)
(0.40097 0 -0.00200485)
(0.40097 0 -0.00200485)
(0.40097 0 -0.00200485)
(0.40097 0 -0.00200485)
(0.40097 0 -0.00200485)
(0.40097 0 -0.00200485)
(0.40097 0 -0.00200485)
(0.40097 0 -0.00200485)
(0.40097 0 -0.00200485)
(0.40097 0 -0.00200485)
(0.40097 0 -0.00200485)
(0.40097 0 -0.00200485)
(0.40097 0 -0.00200485)
(0.40097 0 -0.00200485)
(0.40097 0 -0.00200485)
(0.40097 0 -0.00200485)
(0.40097 0 -0.00200485)
(0.40097 0 -0.00200485)
(0.40097 0 -0.00200485)
(0.40097 0 -0.00200485)
(0.40097 0 -0.00200485)
(0.40097 0 -0.00200485)
(0.40097 0 -0.00200485)
(0.40097 0 -0.00200485)
(0.40097 0 -0.00200485)
(0.40097 0 -0.00200485)
(0.40097 0 -0.00200485)
(0.40097 0 -0.00200485)
(0.40097 3.96294e-32 -0.00200485)
(0.40097 0 -0.00200485)
(0.40097 0 -0.00200485)
(0.40097 0 -0.00200485)
(0.40097 0 -0.00200485)
(0.40097 0 -0.00200485)
(0.40097 0 -0.00200485)
(0.40097 0 -0.00200485)
(0.40097 0 -0.00200485)
(0.40097 0 -0.00200485)
(0.40097 0 -0.00200485)
(0.40097 0 -0.00200485)
(0.40097 0 -0.00200485)
(0.40097 0 -0.00200485)
(0.40097 0 -0.00200485)
(0.40097 0 -0.00200485)
(0.40097 0 -0.00200485)
(0.40097 0 -0.00200485)
(0.40097 0 -0.00200485)
)
;

boundaryField
{
    inlet
    {
        type            calculated;
        value           uniform (0 0 0);
    }
    outlet
    {
        type            calculated;
        value           uniform (0 0 0);
    }
    sideWall
    {
        type            empty;
    }
}


// ************************************************************************* //
