/*--------------------------------*- C++ -*----------------------------------*\
| =========                 |                                                 |
| \\      /  F ield         | foam-extend: Open Source CFD                    |
|  \\    /   O peration     | Version:     3.2                                |
|   \\  /    A nd           | Web:         http://www.foam-extend.org         |
|    \\/     M anipulation  | For copyright notice see file Copyright         |
\*---------------------------------------------------------------------------*/
FoamFile
{
    version     2.0;
    format      ascii;
    class       areaScalarField;
    location    "60";
    object      Uf;
}
// * * * * * * * * * * * * * * * * * * * * * * * * * * * * * * * * * * * * * //

dimensions      [0 1 -1 0 0 0 0];

internalField   nonuniform List<scalar> 
300
(
0.0757987
0.060306
0.0518101
0.0520344
0.0510801
0.0511994
0.0507927
0.0508
0.0506437
0.0507122
0.0507157
0.050823
0.050911
0.051064
0.0511965
0.0513802
0.0515525
0.0517508
0.0519421
0.0521572
0.0523768
0.052602
0.05283
0.0530601
0.0532906
0.0535104
0.053703
0.0538666
0.0540038
0.0541187
0.0542147
0.0542948
0.0543615
0.0544171
0.0544633
0.054502
0.0545342
0.0545613
0.054584
0.0546032
0.0546194
0.0546332
0.0546452
0.0546552
0.0546636
0.0546707
0.0546768
0.054682
0.0546866
0.0546905
0.0546939
0.0546969
0.0546995
0.0547017
0.0547037
0.0547054
0.0547069
0.0547082
0.0547093
0.0547102
0.0547111
0.0547118
0.0547124
0.054713
0.0547134
0.0547138
0.0547142
0.0547145
0.0547148
0.054715
0.0547152
0.0547154
0.0547155
0.0547156
0.0547158
0.0547159
0.0547159
0.054716
0.0547161
0.0547161
0.0547162
0.0547162
0.0547162
0.0547163
0.0547163
0.0547163
0.0547163
0.0547163
0.0547164
0.0547164
0.0547164
0.0547164
0.0547164
0.0547164
0.0547164
0.0547164
0.0547164
0.0547164
0.0547164
0.0547164
0.0547164
0.0547164
0.0547164
0.0547164
0.0547165
0.0547164
0.0547164
0.0547165
0.0547165
0.0547165
0.0547165
0.0547165
0.0547165
0.0547165
0.0547165
0.0547165
0.0547165
0.0547165
0.0547165
0.0547165
0.0547165
0.0547165
0.0547165
0.0547165
0.0547165
0.0547165
0.0547165
0.0547165
0.0547165
0.0547165
0.0547165
0.0547165
0.0547165
0.0547165
0.0547165
0.0547165
0.0547165
0.0547165
0.0547165
0.0547165
0.0547165
0.0547165
0.0547165
0.0547165
0.0547165
0.0547165
0.0547165
0.0547165
0.0547165
0.0547165
0.0547165
0.0547165
0.0547165
0.0547165
0.0547165
0.0547165
0.0547165
0.0547165
0.0547165
0.0547165
0.0547165
0.0547165
0.0547165
0.0547165
0.0547165
0.0547165
0.0547165
0.0547165
0.0547165
0.0547165
0.0547165
0.0547165
0.0547165
0.0547165
0.0547165
0.0547165
0.0547165
0.0547165
0.0547165
0.0547165
0.0547165
0.0547165
0.0547165
0.0547165
0.0547165
0.0547165
0.0547165
0.0547165
0.0547165
0.0547165
0.0547165
0.0547165
0.0547165
0.0547165
0.0547165
0.0547165
0.0547165
0.0547165
0.0547165
0.0547165
0.0547165
0.0547165
0.0547165
0.0547165
0.0547165
0.0547165
0.0547165
0.0547165
0.0547165
0.0547165
0.0547165
0.0547165
0.0547165
0.0547165
0.0547165
0.0547165
0.0547165
0.0547165
0.0547165
0.0547165
0.0547165
0.0547165
0.0547165
0.0547165
0.0547165
0.0547165
0.0547165
0.0547165
0.0547165
0.0547165
0.0547165
0.0547165
0.0547165
0.0547165
0.0547165
0.0547165
0.0547165
0.0547165
0.0547165
0.0547165
0.0547165
0.0547165
0.0547165
0.0547165
0.0547165
0.0547165
0.0547165
0.0547165
0.0547165
0.0547165
0.0547165
0.0547165
0.0547165
0.0547165
0.0547165
0.0547165
0.0547165
0.0547165
0.0547165
0.0547165
0.0547165
0.0547165
0.0547165
0.0547165
0.0547165
0.0547165
0.0547165
0.0547165
0.0547165
0.0547165
0.0547165
0.0547165
0.0547165
0.0547165
0.0547165
0.0547165
0.0547165
0.0547165
0.0547165
0.0547165
0.0547165
0.0547165
0.0547165
0.0547165
0.0547165
0.0547165
0.0547165
0.0547165
0.0547165
0.0547165
0.0547165
0.0547165
0.0547165
0.0547165
0.0547165
0.0547165
0.0547165
0.0547165
0.0547165
0.0547164
)
;

boundaryField
{
    inlet
    {
        type            calculated;
        value           uniform 0;
    }
    outlet
    {
        type            calculated;
        value           uniform 0;
    }
    sideWall
    {
        type            empty;
    }
}


// ************************************************************************* //
