/*--------------------------------*- C++ -*----------------------------------*\
| =========                 |                                                 |
| \\      /  F ield         | foam-extend: Open Source CFD                    |
|  \\    /   O peration     | Version:     3.2                                |
|   \\  /    A nd           | Web:         http://www.foam-extend.org         |
|    \\/     M anipulation  | For copyright notice see file Copyright         |
\*---------------------------------------------------------------------------*/
FoamFile
{
    version     2.0;
    format      ascii;
    class       areaScalarField;
    location    "60";
    object      Uf2;
}
// * * * * * * * * * * * * * * * * * * * * * * * * * * * * * * * * * * * * * //

dimensions      [0 1 -1 0 0 0 0];

internalField   nonuniform List<scalar> 
300
(
0.0270927
0.0175406
0.0150043
0.0154399
0.015081
0.015166
0.0150119
0.0150273
0.0149661
0.0149911
0.014983
0.0150144
0.0150329
0.0150779
0.0151097
0.0151627
0.0152084
0.0152639
0.0153156
0.0153767
0.0154384
0.0155022
0.015567
0.0156327
0.015699
0.0157631
0.0158191
0.0158666
0.0159065
0.01594
0.015968
0.0159914
0.0160109
0.0160272
0.0160407
0.016052
0.0160615
0.0160694
0.016076
0.0160816
0.0160864
0.0160904
0.0160939
0.0160969
0.0160993
0.0161013
0.0161033
0.0161049
0.0161063
0.0161074
0.0161084
0.0161093
0.01611
0.0161107
0.0161113
0.0161118
0.0161122
0.0161126
0.0161129
0.0161132
0.0161134
0.0161136
0.0161138
0.016114
0.0161141
0.0161142
0.0161143
0.0161144
0.0161145
0.0161146
0.0161146
0.0161147
0.0161147
0.0161147
0.0161148
0.0161148
0.0161148
0.0161149
0.0161149
0.0161149
0.0161149
0.0161149
0.0161149
0.0161149
0.0161149
0.0161149
0.016115
0.016115
0.016115
0.016115
0.016115
0.016115
0.016115
0.016115
0.016115
0.016115
0.016115
0.016115
0.016115
0.016115
0.016115
0.016115
0.016115
0.016115
0.016115
0.016115
0.016115
0.016115
0.016115
0.016115
0.016115
0.016115
0.016115
0.016115
0.016115
0.016115
0.016115
0.016115
0.016115
0.016115
0.016115
0.016115
0.016115
0.016115
0.016115
0.016115
0.016115
0.016115
0.016115
0.016115
0.016115
0.016115
0.016115
0.016115
0.016115
0.016115
0.016115
0.016115
0.016115
0.016115
0.016115
0.016115
0.016115
0.016115
0.016115
0.016115
0.016115
0.016115
0.016115
0.016115
0.016115
0.016115
0.016115
0.016115
0.016115
0.016115
0.016115
0.016115
0.016115
0.016115
0.016115
0.016115
0.016115
0.016115
0.016115
0.016115
0.016115
0.016115
0.016115
0.016115
0.016115
0.016115
0.016115
0.016115
0.016115
0.016115
0.016115
0.016115
0.016115
0.016115
0.016115
0.016115
0.016115
0.016115
0.016115
0.016115
0.016115
0.016115
0.016115
0.016115
0.016115
0.016115
0.016115
0.016115
0.016115
0.016115
0.016115
0.016115
0.016115
0.016115
0.016115
0.016115
0.016115
0.016115
0.016115
0.016115
0.016115
0.016115
0.016115
0.016115
0.016115
0.016115
0.016115
0.016115
0.016115
0.016115
0.016115
0.016115
0.016115
0.016115
0.016115
0.016115
0.016115
0.016115
0.016115
0.016115
0.016115
0.016115
0.016115
0.016115
0.016115
0.016115
0.016115
0.016115
0.016115
0.016115
0.016115
0.016115
0.016115
0.016115
0.016115
0.016115
0.016115
0.016115
0.016115
0.016115
0.016115
0.016115
0.016115
0.016115
0.016115
0.016115
0.016115
0.016115
0.016115
0.016115
0.016115
0.016115
0.016115
0.016115
0.016115
0.016115
0.016115
0.016115
0.016115
0.016115
0.016115
0.016115
0.016115
0.016115
0.016115
0.016115
0.016115
0.016115
0.016115
0.016115
0.016115
0.016115
0.016115
0.016115
0.016115
0.016115
0.016115
0.016115
0.016115
0.016115
0.016115
0.016115
0.016115
0.016115
0.016115
0.016115
0.016115
0.016115
0.016115
0.016115
0.016115
0.016115
0.016115
0.016115
)
;

boundaryField
{
    inlet
    {
        type            calculated;
        value           uniform 0;
    }
    outlet
    {
        type            calculated;
        value           uniform 0;
    }
    sideWall
    {
        type            empty;
    }
}


// ************************************************************************* //
