/*--------------------------------*- C++ -*----------------------------------*\
| =========                 |                                                 |
| \\      /  F ield         | foam-extend: Open Source CFD                    |
|  \\    /   O peration     | Version:     3.2                                |
|   \\  /    A nd           | Web:         http://www.foam-extend.org         |
|    \\/     M anipulation  | For copyright notice see file Copyright         |
\*---------------------------------------------------------------------------*/
FoamFile
{
    version     2.0;
    format      ascii;
    class       areaVectorField;
    location    "60";
    object      Utau;
}
// * * * * * * * * * * * * * * * * * * * * * * * * * * * * * * * * * * * * * //

dimensions      [0 1 -1 0 0 0 0];

internalField   nonuniform List<vector> 
300
(
(0.75768 -9.70352e-26 -0.0037884)
(0.603044 1.56981e-25 -0.00301522)
(0.518094 6.15354e-26 -0.00259047)
(0.520338 0 -0.00260169)
(0.510795 -4.81227e-23 -0.00255397)
(0.511988 -1.50319e-23 -0.00255994)
(0.50792 -1.93887e-23 -0.0025396)
(0.507993 -3.42772e-24 -0.00253997)
(0.506431 0 -0.00253215)
(0.507116 -2.55293e-24 -0.00253558)
(0.507151 0 -0.00253575)
(0.508224 4.05514e-24 -0.00254112)
(0.509104 -4.67773e-28 -0.00254552)
(0.510634 5.50544e-24 -0.00255317)
(0.511959 0 -0.00255979)
(0.513796 0 -0.00256898)
(0.515518 6.47189e-24 -0.00257759)
(0.517501 -6.01899e-24 -0.00258751)
(0.519415 6.77186e-24 -0.00259707)
(0.521565 0 -0.00260783)
(0.523762 0 -0.00261881)
(0.526014 -6.58375e-24 -0.00263007)
(0.528294 0 -0.00264147)
(0.530594 0 -0.00265297)
(0.532899 0 -0.0026645)
(0.535098 -5.34625e-24 -0.00267549)
(0.537024 -1.65068e-27 -0.00268512)
(0.538659 0 -0.00269329)
(0.540031 0 -0.00270016)
(0.54118 -2.08597e-24 -0.0027059)
(0.54214 -8.98902e-28 -0.0027107)
(0.542941 0 -0.0027147)
(0.543608 0 -0.00271804)
(0.544164 0 -0.00272082)
(0.544627 -4.54825e-28 -0.00272313)
(0.545013 0 -0.00272506)
(0.545336 0 -0.00272668)
(0.545606 -2.70116e-28 -0.00272803)
(0.545833 0 -0.00272917)
(0.546025 0 -0.00273013)
(0.546187 0 -0.00273094)
(0.546326 -1.95653e-25 -0.00273163)
(0.546445 0 -0.00273222)
(0.546545 -1.29998e-25 -0.00273273)
(0.546629 0 -0.00273315)
(0.5467 0 -0.0027335)
(0.546761 -1.13908e-25 -0.00273381)
(0.546814 0 -0.00273407)
(0.546859 -6.8756e-26 -0.00273429)
(0.546898 0 -0.00273449)
(0.546933 0 -0.00273466)
(0.546962 -4.55771e-26 -0.00273481)
(0.546988 0 -0.00273494)
(0.547011 -3.81075e-26 -0.00273505)
(0.54703 0 -0.00273515)
(0.547047 0 -0.00273524)
(0.547062 -2.42018e-26 -0.00273531)
(0.547075 0 -0.00273537)
(0.547086 -1.07686e-29 -0.00273543)
(0.547096 0 -0.00273548)
(0.547104 0 -0.00273552)
(0.547111 -1.21372e-26 -0.00273556)
(0.547117 0 -0.00273559)
(0.547123 -8.79317e-27 -0.00273561)
(0.547128 0 -0.00273564)
(0.547132 0 -0.00273566)
(0.547135 -5.91377e-27 -0.00273568)
(0.547138 0 -0.00273569)
(0.547141 -4.22648e-27 -0.0027357)
(0.547143 0 -0.00273572)
(0.547145 3.6704e-27 -0.00273573)
(0.547147 -2.79352e-27 -0.00273573)
(0.547148 0 -0.00273574)
(0.54715 -2.3271e-27 -0.00273575)
(0.547151 0 -0.00273575)
(0.547152 0 -0.00273576)
(0.547153 -1.50948e-27 -0.00273576)
(0.547153 0 -0.00273577)
(0.547154 -8.25142e-28 -0.00273577)
(0.547154 0 -0.00273577)
(0.547155 0 -0.00273577)
(0.547155 0 -0.00273578)
(0.547156 0 -0.00273578)
(0.547156 0 -0.00273578)
(0.547156 0 -0.00273578)
(0.547156 2.95735e-28 -0.00273578)
(0.547156 2.50927e-31 -0.00273578)
(0.547157 0 -0.00273578)
(0.547157 0 -0.00273578)
(0.547157 0 -0.00273578)
(0.547157 0 -0.00273579)
(0.547157 0 -0.00273579)
(0.547157 0 -0.00273579)
(0.547157 0 -0.00273579)
(0.547157 0 -0.00273579)
(0.547157 0 -0.00273579)
(0.547157 0 -0.00273579)
(0.547158 0 -0.00273579)
(0.547158 0 -0.00273579)
(0.547158 0 -0.00273579)
(0.547158 0 -0.00273579)
(0.547158 -2.57414e-29 -0.00273579)
(0.547158 7.44523e-33 -0.00273579)
(0.547158 0 -0.00273579)
(0.547158 0 -0.00273579)
(0.547158 0 -0.00273579)
(0.547158 0 -0.00273579)
(0.547158 0 -0.00273579)
(0.547158 0 -0.00273579)
(0.547158 0 -0.00273579)
(0.547158 0 -0.00273579)
(0.547158 0 -0.00273579)
(0.547158 0 -0.00273579)
(0.547158 0 -0.00273579)
(0.547158 0 -0.00273579)
(0.547158 0 -0.00273579)
(0.547158 0 -0.00273579)
(0.547158 -8.10294e-30 -0.00273579)
(0.547158 0 -0.00273579)
(0.547158 0 -0.00273579)
(0.547158 0 -0.00273579)
(0.547158 0 -0.00273579)
(0.547158 0 -0.00273579)
(0.547158 0 -0.00273579)
(0.547158 0 -0.00273579)
(0.547158 0 -0.00273579)
(0.547158 0 -0.00273579)
(0.547158 0 -0.00273579)
(0.547158 0 -0.00273579)
(0.547158 0 -0.00273579)
(0.547158 0 -0.00273579)
(0.547158 0 -0.00273579)
(0.547158 0 -0.00273579)
(0.547158 0 -0.00273579)
(0.547158 0 -0.00273579)
(0.547158 0 -0.00273579)
(0.547158 0 -0.00273579)
(0.547158 0 -0.00273579)
(0.547158 0 -0.00273579)
(0.547158 0 -0.00273579)
(0.547158 0 -0.00273579)
(0.547158 0 -0.00273579)
(0.547158 0 -0.00273579)
(0.547158 0 -0.00273579)
(0.547158 0 -0.00273579)
(0.547158 0 -0.00273579)
(0.547158 0 -0.00273579)
(0.547158 0 -0.00273579)
(0.547158 0 -0.00273579)
(0.547158 0 -0.00273579)
(0.547158 0 -0.00273579)
(0.547158 0 -0.00273579)
(0.547158 0 -0.00273579)
(0.547158 0 -0.00273579)
(0.547158 0 -0.00273579)
(0.547158 0 -0.00273579)
(0.547158 0 -0.00273579)
(0.547158 0 -0.00273579)
(0.547158 0 -0.00273579)
(0.547158 0 -0.00273579)
(0.547158 0 -0.00273579)
(0.547158 0 -0.00273579)
(0.547158 0 -0.00273579)
(0.547158 0 -0.00273579)
(0.547158 0 -0.00273579)
(0.547158 0 -0.00273579)
(0.547158 0 -0.00273579)
(0.547158 0 -0.00273579)
(0.547158 0 -0.00273579)
(0.547158 0 -0.00273579)
(0.547158 0 -0.00273579)
(0.547158 0 -0.00273579)
(0.547158 0 -0.00273579)
(0.547158 0 -0.00273579)
(0.547158 0 -0.00273579)
(0.547158 0 -0.00273579)
(0.547158 0 -0.00273579)
(0.547158 0 -0.00273579)
(0.547158 0 -0.00273579)
(0.547158 0 -0.00273579)
(0.547158 0 -0.00273579)
(0.547158 0 -0.00273579)
(0.547158 0 -0.00273579)
(0.547158 0 -0.00273579)
(0.547158 0 -0.00273579)
(0.547158 0 -0.00273579)
(0.547158 0 -0.00273579)
(0.547158 0 -0.00273579)
(0.547158 0 -0.00273579)
(0.547158 0 -0.00273579)
(0.547158 0 -0.00273579)
(0.547158 0 -0.00273579)
(0.547158 0 -0.00273579)
(0.547158 0 -0.00273579)
(0.547158 0 -0.00273579)
(0.547158 0 -0.00273579)
(0.547158 0 -0.00273579)
(0.547158 0 -0.00273579)
(0.547158 0 -0.00273579)
(0.547158 0 -0.00273579)
(0.547158 0 -0.00273579)
(0.547158 0 -0.00273579)
(0.547158 0 -0.00273579)
(0.547158 0 -0.00273579)
(0.547158 0 -0.00273579)
(0.547158 0 -0.00273579)
(0.547158 0 -0.00273579)
(0.547158 0 -0.00273579)
(0.547158 0 -0.00273579)
(0.547158 0 -0.00273579)
(0.547158 0 -0.00273579)
(0.547158 0 -0.00273579)
(0.547158 0 -0.00273579)
(0.547158 0 -0.00273579)
(0.547158 0 -0.00273579)
(0.547158 0 -0.00273579)
(0.547158 0 -0.00273579)
(0.547158 0 -0.00273579)
(0.547158 0 -0.00273579)
(0.547158 0 -0.00273579)
(0.547158 0 -0.00273579)
(0.547158 0 -0.00273579)
(0.547158 0 -0.00273579)
(0.547158 0 -0.00273579)
(0.547158 0 -0.00273579)
(0.547158 0 -0.00273579)
(0.547158 0 -0.00273579)
(0.547158 0 -0.00273579)
(0.547158 0 -0.00273579)
(0.547158 0 -0.00273579)
(0.547158 0 -0.00273579)
(0.547158 0 -0.00273579)
(0.547158 0 -0.00273579)
(0.547158 0 -0.00273579)
(0.547158 2.99189e-35 -0.00273579)
(0.547158 0 -0.00273579)
(0.547158 0 -0.00273579)
(0.547158 0 -0.00273579)
(0.547158 0 -0.00273579)
(0.547158 0 -0.00273579)
(0.547158 0 -0.00273579)
(0.547158 0 -0.00273579)
(0.547158 0 -0.00273579)
(0.547158 0 -0.00273579)
(0.547158 0 -0.00273579)
(0.547158 0 -0.00273579)
(0.547158 0 -0.00273579)
(0.547158 0 -0.00273579)
(0.547158 0 -0.00273579)
(0.547158 0 -0.00273579)
(0.547158 0 -0.00273579)
(0.547158 0 -0.00273579)
(0.547158 0 -0.00273579)
(0.547158 0 -0.00273579)
(0.547158 0 -0.00273579)
(0.547158 0 -0.00273579)
(0.547158 0 -0.00273579)
(0.547158 0 -0.00273579)
(0.547158 0 -0.00273579)
(0.547158 0 -0.00273579)
(0.547158 0 -0.00273579)
(0.547158 0 -0.00273579)
(0.547158 0 -0.00273579)
(0.547158 0 -0.00273579)
(0.547158 0 -0.00273579)
(0.547158 0 -0.00273579)
(0.547158 0 -0.00273579)
(0.547158 0 -0.00273579)
(0.547158 0 -0.00273579)
(0.547158 0 -0.00273579)
(0.547158 0 -0.00273579)
(0.547158 0 -0.00273579)
(0.547158 0 -0.00273579)
(0.547158 0 -0.00273579)
(0.547158 0 -0.00273579)
(0.547158 0 -0.00273579)
(0.547158 0 -0.00273579)
(0.547158 0 -0.00273579)
(0.547158 0 -0.00273579)
(0.547158 0 -0.00273579)
(0.547158 0 -0.00273579)
(0.547158 5.40777e-32 -0.00273579)
(0.547158 0 -0.00273579)
(0.547158 0 -0.00273579)
(0.547158 0 -0.00273579)
(0.547158 0 -0.00273579)
(0.547158 0 -0.00273579)
(0.547158 0 -0.00273579)
(0.547158 0 -0.00273579)
(0.547158 0 -0.00273579)
(0.547158 0 -0.00273579)
(0.547158 0 -0.00273579)
(0.547158 0 -0.00273579)
(0.547158 0 -0.00273579)
(0.547158 0 -0.00273579)
(0.547158 0 -0.00273579)
(0.547158 0 -0.00273579)
(0.547158 0 -0.00273579)
(0.547158 0 -0.00273579)
(0.547157 0 -0.00273579)
)
;

boundaryField
{
    inlet
    {
        type            calculated;
        value           uniform (0 0 0);
    }
    outlet
    {
        type            calculated;
        value           uniform (0 0 0);
    }
    sideWall
    {
        type            empty;
    }
}


// ************************************************************************* //
