/*--------------------------------*- C++ -*----------------------------------*\
| =========                 |                                                 |
| \\      /  F ield         | foam-extend: Open Source CFD                    |
|  \\    /   O peration     | Version:     3.2                                |
|   \\  /    A nd           | Web:         http://www.foam-extend.org         |
|    \\/     M anipulation  | For copyright notice see file Copyright         |
\*---------------------------------------------------------------------------*/
FoamFile
{
    version     2.0;
    format      ascii;
    class       areaScalarField;
    location    "60";
    object      zCo;
}
// * * * * * * * * * * * * * * * * * * * * * * * * * * * * * * * * * * * * * //

dimensions      [0 1 0 0 0 0 0];

internalField   nonuniform List<scalar> 
300
(
-0.000125
-0.000375
-0.000625
-0.000875
-0.001125
-0.001375
-0.001625
-0.001875
-0.002125
-0.002375
-0.002625
-0.002875
-0.003125
-0.003375
-0.003625
-0.003875
-0.004125
-0.004375
-0.004625
-0.004875
-0.005125
-0.005375
-0.005625
-0.005875
-0.006125
-0.006375
-0.006625
-0.006875
-0.007125
-0.007375
-0.007625
-0.007875
-0.008125
-0.008375
-0.008625
-0.008875
-0.009125
-0.009375
-0.009625
-0.009875
-0.010125
-0.010375
-0.010625
-0.010875
-0.011125
-0.011375
-0.011625
-0.011875
-0.012125
-0.012375
-0.012625
-0.012875
-0.013125
-0.013375
-0.013625
-0.013875
-0.014125
-0.014375
-0.014625
-0.014875
-0.015125
-0.015375
-0.015625
-0.015875
-0.016125
-0.016375
-0.016625
-0.016875
-0.017125
-0.017375
-0.017625
-0.017875
-0.018125
-0.018375
-0.018625
-0.018875
-0.019125
-0.019375
-0.019625
-0.019875
-0.020125
-0.020375
-0.020625
-0.020875
-0.021125
-0.021375
-0.021625
-0.021875
-0.022125
-0.022375
-0.022625
-0.022875
-0.023125
-0.023375
-0.023625
-0.023875
-0.024125
-0.024375
-0.024625
-0.024875
-0.025125
-0.025375
-0.025625
-0.025875
-0.026125
-0.026375
-0.026625
-0.026875
-0.027125
-0.027375
-0.027625
-0.027875
-0.028125
-0.028375
-0.028625
-0.028875
-0.029125
-0.029375
-0.029625
-0.029875
-0.030125
-0.030375
-0.030625
-0.030875
-0.031125
-0.031375
-0.031625
-0.031875
-0.032125
-0.032375
-0.032625
-0.032875
-0.033125
-0.033375
-0.033625
-0.033875
-0.034125
-0.034375
-0.034625
-0.034875
-0.035125
-0.035375
-0.035625
-0.035875
-0.036125
-0.036375
-0.036625
-0.036875
-0.037125
-0.037375
-0.037625
-0.037875
-0.038125
-0.038375
-0.038625
-0.038875
-0.039125
-0.039375
-0.039625
-0.039875
-0.040125
-0.040375
-0.040625
-0.040875
-0.041125
-0.041375
-0.041625
-0.041875
-0.042125
-0.042375
-0.042625
-0.042875
-0.043125
-0.043375
-0.043625
-0.043875
-0.044125
-0.044375
-0.044625
-0.044875
-0.045125
-0.045375
-0.045625
-0.045875
-0.046125
-0.046375
-0.046625
-0.046875
-0.047125
-0.047375
-0.047625
-0.047875
-0.048125
-0.048375
-0.048625
-0.048875
-0.049125
-0.049375
-0.049625
-0.049875
-0.050125
-0.050375
-0.050625
-0.050875
-0.051125
-0.051375
-0.051625
-0.051875
-0.052125
-0.052375
-0.052625
-0.052875
-0.053125
-0.053375
-0.053625
-0.053875
-0.054125
-0.054375
-0.054625
-0.054875
-0.055125
-0.055375
-0.055625
-0.055875
-0.056125
-0.056375
-0.056625
-0.056875
-0.057125
-0.057375
-0.057625
-0.057875
-0.058125
-0.058375
-0.058625
-0.058875
-0.059125
-0.059375
-0.059625
-0.059875
-0.060125
-0.060375
-0.060625
-0.060875
-0.061125
-0.061375
-0.061625
-0.061875
-0.062125
-0.062375
-0.062625
-0.062875
-0.063125
-0.063375
-0.063625
-0.063875
-0.064125
-0.064375
-0.064625
-0.064875
-0.065125
-0.065375
-0.065625
-0.065875
-0.066125
-0.066375
-0.066625
-0.066875
-0.067125
-0.067375
-0.067625
-0.067875
-0.068125
-0.068375
-0.068625
-0.068875
-0.069125
-0.069375
-0.069625
-0.069875
-0.070125
-0.070375
-0.070625
-0.070875
-0.071125
-0.071375
-0.071625
-0.071875
-0.072125
-0.072375
-0.072625
-0.072875
-0.073125
-0.073375
-0.073625
-0.073875
-0.074125
-0.074375
-0.074625
-0.074875
)
;

boundaryField
{
    inlet
    {
        type            calculated;
        value           uniform 0;
    }
    outlet
    {
        type            calculated;
        value           uniform 0;
    }
    sideWall
    {
        type            empty;
    }
}


// ************************************************************************* //
