/*--------------------------------*- C++ -*----------------------------------*\
| =========                 |                                                 |
| \\      /  F ield         | foam-extend: Open Source CFD                    |
|  \\    /   O peration     | Version:     3.2                                |
|   \\  /    A nd           | Web:         http://www.foam-extend.org         |
|    \\/     M anipulation  | For copyright notice see file Copyright         |
\*---------------------------------------------------------------------------*/
FoamFile
{
    version     2.0;
    format      ascii;
    class       areaScalarField;
    location    "50";
    object      a;
}
// * * * * * * * * * * * * * * * * * * * * * * * * * * * * * * * * * * * * * //

dimensions      [1 -1 0 0 0 0 0];

internalField   nonuniform List<scalar> 
300
(
0.000282065
0.000282065
0.000282065
0.000282065
0.000282065
0.000282065
0.000282065
0.000282065
0.000282065
0.000282065
0.000282065
0.000282065
0.000282065
0.000282065
0.000282065
0.000282065
0.000282065
0.000282065
0.000282065
0.000282065
0.000282065
0.000282065
0.000282065
0.000282065
0.000282065
0.000282065
0.000282065
0.000282065
0.000282065
0.000282065
0.000282065
0.000282065
0.000282065
0.000282065
0.000282065
0.000282065
0.000282065
0.000282065
0.000282065
0.000282065
0.000282065
0.000282065
0.000282065
0.000282065
0.000282065
0.000282065
0.000282065
0.000282065
0.000282065
0.000282065
0.000282065
0.000282065
0.000282065
0.000282065
0.000282065
0.000282065
0.000282065
0.000282065
0.000282065
0.000133832
6.1698e-05
4.48446e-05
4.17466e-05
4.10238e-05
4.08704e-05
4.08022e-05
4.08128e-05
4.0753e-05
4.07874e-05
0.000282065
7.05163e-05
7.05163e-05
7.05163e-05
7.05163e-05
7.05163e-05
7.05163e-05
7.05163e-05
7.05163e-05
0.000282065
0.000282065
7.05163e-05
0.000282065
7.05163e-05
7.05163e-05
4.14329e-05
7.05163e-05
4.03088e-05
4.10749e-05
0.000282065
0.000282065
7.05163e-05
7.05163e-05
7.05163e-05
4.07042e-05
4.03299e-05
7.05163e-05
0.000282065
7.05163e-05
7.05163e-05
7.05163e-05
0.000282065
0.000282065
0.000282065
7.05163e-05
4.55529e-05
5.00501e-05
0.000282065
0.000282065
7.05163e-05
7.05163e-05
4.07697e-05
0.000282065
0.000282065
0.000282065
0.000282065
7.05163e-05
0.000282065
7.05163e-05
7.05163e-05
0.000282065
7.05163e-05
4.14513e-05
0.000282065
0.000282065
7.05163e-05
7.05163e-05
4.03222e-05
0.000282065
0.000282065
0.000282065
7.05163e-05
0.000282065
7.05163e-05
4.31679e-05
0.000282065
0.000282065
7.05163e-05
7.05163e-05
7.05163e-05
7.05163e-05
7.05163e-05
0.000282065
7.05163e-05
0.000282065
4.11664e-05
4.08736e-05
7.05163e-05
7.05163e-05
7.05163e-05
4.03609e-05
7.05163e-05
0.000282065
0.000282065
0.000282065
7.05163e-05
0.000282065
0.000282065
0.000282065
7.05163e-05
7.05163e-05
7.05163e-05
0.000282065
0.000282065
0.000282065
7.05163e-05
7.05163e-05
7.05163e-05
0.000282065
7.05163e-05
0.000282065
7.05163e-05
7.05163e-05
0.000282065
4.26427e-05
4.15829e-05
7.05163e-05
7.05163e-05
7.05163e-05
4.03088e-05
0.000282065
7.05163e-05
7.05163e-05
4.06543e-05
0.000282065
7.05163e-05
4.36232e-05
4.61093e-05
0.000282065
7.05163e-05
7.05163e-05
7.05163e-05
7.05163e-05
0.000282065
7.05163e-05
0.000282065
7.05163e-05
7.05163e-05
7.05163e-05
4.03568e-05
7.05163e-05
7.05163e-05
7.05163e-05
0.000282065
0.000282065
7.05163e-05
0.000282065
0.000282065
7.05163e-05
0.000282065
7.05163e-05
0.000282065
0.000282065
0.000282065
7.05163e-05
7.05163e-05
7.05163e-05
0.000282065
7.05163e-05
4.03024e-05
0.000282065
7.05163e-05
7.05163e-05
0.000282065
0.000282065
0.000282065
4.10447e-05
7.05163e-05
4.03182e-05
0.000282065
7.05163e-05
7.05163e-05
4.10055e-05
4.23217e-05
0.000282065
7.05163e-05
7.05163e-05
7.05163e-05
0.000282065
7.05163e-05
7.05163e-05
7.05163e-05
7.05163e-05
7.05163e-05
7.05163e-05
4.02957e-05
7.05163e-05
7.05163e-05
7.05163e-05
7.05163e-05
7.05163e-05
0.000282065
0.000282065
7.05163e-05
0.000282065
7.05163e-05
7.05163e-05
7.05163e-05
4.04683e-05
0.000282065
7.05163e-05
7.05163e-05
0.000282065
7.05163e-05
0.000282065
4.17228e-05
4.07174e-05
7.05163e-05
7.05163e-05
0.000282065
0.000282065
7.05163e-05
7.05163e-05
7.05163e-05
7.05163e-05
7.05163e-05
7.05163e-05
7.05163e-05
0.000282065
0.000282065
7.05163e-05
0.000282065
7.05163e-05
7.05163e-05
7.05163e-05
7.05163e-05
7.05163e-05
4.14011e-05
4.2653e-05
0.000282065
0.000282065
0.000282065
0.000282065
0.000282065
0.000282065
0.000282065
0.000282065
0.000282065
0.000282065
0.000282065
0.000282065
)
;

boundaryField
{
    inlet
    {
        type            calculated;
        value           uniform 0;
    }
    outlet
    {
        type            calculated;
        value           uniform 0;
    }
    sideWall
    {
        type            empty;
    }
}


// ************************************************************************* //
