/*--------------------------------*- C++ -*----------------------------------*\
| =========                 |                                                 |
| \\      /  F ield         | foam-extend: Open Source CFD                    |
|  \\    /   O peration     | Version:     3.2                                |
|   \\  /    A nd           | Web:         http://www.foam-extend.org         |
|    \\/     M anipulation  | For copyright notice see file Copyright         |
\*---------------------------------------------------------------------------*/
FoamFile
{
    version     2.0;
    format      ascii;
    class       surfaceScalarField;
    location    "50";
    object      AdSS1;
}
// * * * * * * * * * * * * * * * * * * * * * * * * * * * * * * * * * * * * * //

dimensions      [0 3 -1 0 0 0 0];

internalField   nonuniform List<scalar> 
10482
(
9.98338e-06
1.15378e-05
7.13338e-06
1.03777e-06
6.76712e-06
-1.44597e-06
6.72544e-06
-1.77055e-06
6.7004e-06
-1.78719e-06
6.65418e-06
-1.76601e-06
6.63655e-06
-1.7946e-06
6.61638e-06
-1.79206e-06
6.61501e-06
-1.81086e-06
6.61381e-06
-1.81102e-06
6.62212e-06
-1.82054e-06
6.63013e-06
-1.82024e-06
6.64609e-06
-1.82819e-06
6.66222e-06
-1.82837e-06
6.68164e-06
-1.83165e-06
6.70285e-06
-1.83343e-06
6.72628e-06
-1.83566e-06
6.7503e-06
-1.83625e-06
6.77586e-06
-1.83779e-06
6.80361e-06
-1.83998e-06
6.8327e-06
-1.84132e-06
6.86265e-06
-1.84217e-06
6.89343e-06
-1.84301e-06
6.92442e-06
-1.84321e-06
6.95624e-06
-1.84405e-06
6.9875e-06
-1.84349e-06
7.01614e-06
-1.84087e-06
7.04063e-06
-1.83672e-06
7.06134e-06
-1.83294e-06
7.07856e-06
-1.82945e-06
7.09297e-06
-1.82664e-06
7.1049e-06
-1.82415e-06
7.11485e-06
-1.82219e-06
7.12307e-06
-1.82045e-06
7.12994e-06
-1.8191e-06
7.13562e-06
-1.81791e-06
7.14039e-06
-1.817e-06
7.14435e-06
-1.81619e-06
7.1477e-06
-1.81558e-06
7.15049e-06
-1.81502e-06
7.15289e-06
-1.81462e-06
7.15488e-06
-1.81422e-06
7.15664e-06
-1.814e-06
7.15807e-06
-1.81366e-06
7.1594e-06
-1.81356e-06
7.16039e-06
-1.81322e-06
7.16158e-06
-1.81342e-06
7.16231e-06
-1.81296e-06
7.16321e-06
-1.81313e-06
7.1634e-06
-1.81242e-06
7.16464e-06
-1.81347e-06
7.16362e-06
-1.81121e-06
7.16623e-06
-1.81483e-06
7.16278e-06
-1.80879e-06
7.16905e-06
-1.81849e-06
7.1596e-06
-1.80278e-06
7.17798e-06
-1.83061e-06
7.16503e-06
-1.79928e-06
7.17321e-06
-1.82041e-06
6.20353e-06
-9.68018e-07
5.67545e-06
-1.67044e-06
6.05778e-06
-2.72753e-06
6.11413e-06
-2.41459e-06
6.14905e-06
-2.39521e-06
6.11722e-06
-2.32877e-06
6.09081e-06
-2.33409e-06
6.05232e-06
-2.32174e-06
5.99706e-06
-2.30465e-06
5.99714e-06
-2.08583e-06
5.98428e-06
-1.71626e-06
6.04488e-06
-1.77775e-06
6.08249e-06
-1.85766e-06
6.02682e-06
-2.41073e-06
5.95379e-06
-2.69273e-06
5.9638e-06
-2.02404e-06
5.89897e-06
-2.38441e-06
5.77667e-06
-3.19394e-06
5.77371e-06
-2.42914e-06
5.81421e-06
-1.37054e-06
5.8803e-06
-1.20026e-06
5.8651e-06
-1.14389e-06
6.04411e-06
-1.55375e-06
5.7966e-06
-1.7452e-06
5.9434e-06
-3.01373e-06
5.74011e-06
-2.95733e-06
5.55511e-06
-2.66696e-06
5.73403e-06
-2.91314e-06
5.61519e-06
-1.87585e-06
5.84934e-06
-8.35267e-07
5.68486e-06
-2.77689e-07
5.83567e-06
-1.50948e-06
5.81933e-06
-1.44342e-06
5.92559e-06
-1.56168e-06
5.80032e-06
-2.57809e-06
5.60153e-06
-3.31335e-06
5.67299e-06
-2.39196e-06
5.73246e-06
-1.07975e-06
5.77744e-06
-1.40458e-06
5.64965e-06
-2.42121e-06
5.65842e-06
-2.73336e-06
5.70874e-06
-1.07883e-06
6.027e-06
-3.30328e-07
5.59054e-06
-7.52765e-07
5.80175e-06
-3.10535e-06
6.27962e-06
-3.80465e-06
5.66166e-06
-1.37935e-06
5.52869e-06
-6.35912e-07
5.80885e-06
-1.04746e-06
5.80641e-06
-1.40328e-06
5.80077e-06
-2.40754e-06
5.81079e-06
-2.56822e-06
5.87564e-06
-9.44142e-07
6.06075e-06
-2.19702e-08
6.03793e-06
-8.09234e-07
5.98197e-06
-1.61845e-06
5.99631e-06
-1.55134e-06
6.0998e-06
-1.61843e-06
6.02639e-06
-1.4491e-06
6.19756e-06
-1.34561e-06
6.17515e-06
-1.3998e-06
5.99296e-06
-2.41841e-06
6.23552e-06
-2.99664e-06
6.16333e-06
-9.43902e-07
6.07573e-06
-3.74102e-07
6.09723e-06
-2.1676e-06
6.0335e-06
-3.06799e-06
6.00358e-06
-1.95248e-06
6.15857e-06
-8.39915e-07
6.21331e-06
-1.07615e-06
6.1726e-06
-1.42394e-06
6.27245e-06
-1.24144e-06
6.3026e-06
-1.61836e-06
5.98892e-06
-2.72833e-06
6.52265e-06
-3.48156e-06
6.2738e-06
-5.80988e-07
6.06809e-06
-2.73917e-08
6.28414e-06
-1.52065e-06
6.26515e-06
-1.79703e-06
6.27348e-06
-2.27458e-06
6.20841e-06
-2.13867e-06
6.31747e-06
-1.43813e-06
6.33333e-06
-1.18906e-06
6.37704e-06
-1.24521e-06
6.42309e-06
-1.33859e-06
6.4666e-06
-2.29389e-06
6.2459e-06
-2.08365e-06
6.41866e-06
-1.47202e-06
6.39163e-06
-1.30753e-06
6.42486e-06
-2.07487e-06
6.41037e-06
-1.9174e-06
6.45687e-06
-1.15017e-06
6.58173e-06
-6.6661e-07
6.66679e-06
-9.25869e-07
6.54468e-06
-1.54819e-06
6.62838e-06
-2.01147e-06
6.62236e-06
-1.42558e-06
6.72524e-06
-1.18732e-06
6.70486e-06
-1.3638e-06
6.73041e-06
-1.77354e-06
6.71316e-06
-1.58282e-06
6.77785e-06
-1.48191e-06
6.77362e-06
-1.42555e-06
6.82328e-06
-1.47584e-06
6.79458e-06
-1.64645e-06
6.75439e-06
-2.19892e-06
6.73049e-06
-2.26345e-06
6.71763e-06
-1.93312e-06
6.79544e-06
-1.70326e-06
6.71651e-06
-1.12527e-06
6.90416e-06
-1.40472e-06
6.78988e-06
-1.21157e-06
7.01515e-06
-1.23515e-06
7.06091e-06
-1.41811e-06
6.97329e-06
-2.45979e-06
6.74114e-06
-2.2611e-06
6.87622e-06
-1.62083e-06
6.90252e-06
-1.52179e-06
6.83821e-06
-2.16676e-06
6.8762e-06
-1.98891e-06
6.86201e-06
-1.24249e-06
6.84341e-06
-2.41714e-06
6.66647e-06
-3.44153e-06
6.67128e-06
-2.78388e-06
6.53449e-06
-1.63747e-06
6.5493e-06
-2.28979e-06
7.06624e-06
-3.51435e-06
6.42387e-06
-1.49701e-06
6.51094e-06
-1.09733e-06
6.61505e-06
-9.87138e-07
6.71327e-06
-1.31855e-06
6.69927e-06
-1.28048e-06
6.79791e-06
-1.21581e-06
6.83236e-06
-1.33792e-06
6.76409e-06
-1.51755e-06
6.88144e-06
-1.84578e-06
6.72722e-06
-1.91514e-06
6.85897e-06
-2.24737e-06
6.68974e-06
-1.74641e-06
6.86309e-06
-2.08464e-06
6.6196e-06
-2.04988e-06
6.73241e-06
-2.91038e-06
6.54404e-06
-1.85174e-06
6.81546e-06
-1.29212e-06
6.69212e-06
-9.14077e-07
6.90367e-06
-1.38654e-06
6.88539e-06
-1.30767e-06
6.72754e-06
-1.20823e-06
7.03859e-06
-1.37947e-06
6.91793e-06
-1.30525e-06
6.71983e-06
-2.05557e-06
7.355e-06
-2.15124e-06
7.24677e-06
4.2859e-08
6.89923e-06
-3.43908e-07
7.11777e-06
-2.64739e-06
6.93386e-06
-2.31281e-06
7.15913e-06
-1.52051e-06
7.07294e-06
-1.24357e-06
7.06612e-06
-2.25899e-06
7.04687e-06
-1.9433e-06
7.12692e-06
-1.35605e-06
7.03824e-06
-2.3072e-06
6.92667e-06
-3.15583e-06
6.998e-06
-1.77859e-06
7.0987e-06
-3.79155e-07
7.26875e-06
-1.24006e-06
6.96906e-06
-2.73093e-06
6.85471e-06
-3.39823e-06
6.92339e-06
-2.05687e-06
6.95685e-06
-1.0243e-06
6.99334e-06
-1.47298e-06
6.88436e-06
-2.4036e-06
6.92608e-06
-3.21563e-06
6.84429e-06
-2.28415e-06
6.78039e-06
-9.22517e-07
6.91894e-06
-1.085e-06
6.88977e-06
-2.12738e-06
6.84901e-06
-2.27443e-06
6.89082e-06
-1.39641e-06
6.91208e-06
-1.21278e-06
6.9562e-06
-1.47945e-06
6.96192e-06
-1.66329e-06
6.93845e-06
-2.24253e-06
6.88793e-06
-2.37209e-06
6.88085e-06
-2.13464e-06
6.87877e-06
-1.87937e-06
6.86585e-06
-1.64232e-06
6.79751e-06
-2.42113e-06
6.657e-06
-3.23949e-06
6.58785e-06
-3.05276e-06
6.53673e-06
-2.60183e-06
6.61657e-06
-1.88797e-06
6.67626e-06
-1.05931e-06
6.72608e-06
-1.18032e-06
6.74365e-06
-1.42302e-06
6.76459e-06
-1.42582e-06
6.80731e-06
-1.62869e-06
6.75609e-06
-1.96085e-06
6.83034e-06
-1.98059e-06
6.75455e-06
-1.24514e-06
6.90444e-06
-1.25042e-06
6.84911e-06
-1.05208e-06
7.02262e-06
-1.41e-06
6.91085e-06
-1.08033e-06
7.12516e-06
-1.74991e-06
6.96032e-06
-2.82632e-06
6.64374e-06
-3.42092e-06
6.70866e-06
-3.29519e-06
6.54408e-06
-2.48399e-06
6.6677e-06
-1.91608e-06
6.65054e-06
-1.0737e-06
6.75356e-06
-1.49167e-06
6.59818e-06
-2.02183e-06
6.69474e-06
-2.28262e-06
6.6089e-06
-1.66604e-06
6.63849e-06
-2.60292e-06
6.41704e-06
-3.27531e-06
6.51366e-06
-2.66896e-06
6.62367e-06
-9.06492e-07
6.52873e-06
-1.85472e-07
6.71698e-06
-1.16355e-06
6.67077e-06
-1.4776e-06
6.75203e-06
-1.76974e-06
6.72278e-06
-1.39321e-06
6.81427e-06
-1.45793e-06
6.64511e-06
-2.40647e-06
6.55794e-06
-3.47231e-06
6.57563e-06
-2.9762e-06
6.52539e-06
-2.02923e-06
6.58886e-06
-1.6009e-06
6.67053e-06
-1.34791e-06
6.69297e-06
-1.28901e-06
6.73425e-06
-1.30775e-06
6.75125e-06
-1.2835e-06
6.82348e-06
-1.33916e-06
6.86139e-06
-1.31278e-06
7.82448e-06
-2.38172e-06
8.32067e-06
-2.17967e-06
7.64079e-06
-1.13236e-06
7.63576e-06
-1.80719e-06
-1.79693e-06
1.75317e-05
1.73393e-05
1.45917e-05
3.97775e-06
1.35747e-05
-4.29014e-07
1.32956e-05
-1.4914e-06
1.30999e-05
-1.59148e-06
1.29529e-05
-1.619e-06
1.2862e-05
-1.70375e-06
1.2804e-05
-1.73403e-06
1.27739e-05
-1.78081e-06
1.2763e-05
-1.80009e-06
1.27643e-05
-1.82183e-06
1.27736e-05
-1.82958e-06
1.27948e-05
-1.84936e-06
1.282e-05
-1.85355e-06
1.28518e-05
-1.86354e-06
1.28882e-05
-1.86977e-06
1.29291e-05
-1.87658e-06
1.29724e-05
-1.87959e-06
1.30182e-05
-1.88353e-06
1.30682e-05
-1.89003e-06
1.31213e-05
-1.89439e-06
1.31765e-05
-1.89737e-06
1.32335e-05
-1.90004e-06
1.32913e-05
-1.90102e-06
1.3351e-05
-1.90379e-06
1.34103e-05
-1.90274e-06
1.34647e-05
-1.89527e-06
1.3512e-05
-1.88407e-06
1.35526e-05
-1.87348e-06
1.35869e-05
-1.86377e-06
1.36159e-05
-1.85562e-06
1.36402e-05
-1.84846e-06
1.36606e-05
-1.84258e-06
1.36776e-05
-1.83749e-06
1.36919e-05
-1.83337e-06
1.37038e-05
-1.82984e-06
1.37138e-05
-1.82698e-06
1.37222e-05
-1.82457e-06
1.37292e-05
-1.82261e-06
1.37352e-05
-1.82097e-06
1.37402e-05
-1.81962e-06
1.37444e-05
-1.81849e-06
1.37481e-05
-1.81764e-06
1.37512e-05
-1.81676e-06
1.37539e-05
-1.81628e-06
1.37561e-05
-1.81537e-06
1.37578e-05
-1.8152e-06
1.37595e-05
-1.81461e-06
1.3761e-05
-1.81467e-06
1.37621e-05
-1.81344e-06
1.37633e-05
-1.81475e-06
1.37635e-05
-1.8114e-06
1.37652e-05
-1.81653e-06
1.37639e-05
-1.8075e-06
1.37672e-05
-1.82173e-06
1.37638e-05
-1.79939e-06
1.37755e-05
-1.84233e-06
1.38014e-05
-1.82518e-06
1.38004e-05
-1.8194e-06
1.23995e-05
4.32825e-07
1.13404e-05
-6.11277e-07
1.16656e-05
-3.05279e-06
1.18168e-05
-2.56578e-06
1.1891e-05
-2.4694e-06
1.18902e-05
-2.32793e-06
1.18787e-05
-2.32256e-06
1.18494e-05
-2.29244e-06
1.17978e-05
-2.25305e-06
1.18136e-05
-2.10171e-06
1.1814e-05
-1.71666e-06
1.18744e-05
-1.83809e-06
1.19167e-05
-1.89993e-06
1.18913e-05
-2.38539e-06
1.18482e-05
-2.64957e-06
1.18618e-05
-2.03765e-06
1.18003e-05
-2.32296e-06
1.16851e-05
-3.07873e-06
1.16749e-05
-2.41891e-06
1.17176e-05
-1.41321e-06
1.176e-05
-1.24269e-06
1.17924e-05
-1.1763e-06
1.1973e-05
-1.73438e-06
1.17102e-05
-1.48239e-06
1.18692e-05
-3.17271e-06
1.16786e-05
-2.76677e-06
1.14844e-05
-2.47275e-06
1.16295e-05
-3.0582e-06
1.15526e-05
-1.79894e-06
1.17812e-05
-1.06385e-06
1.16029e-05
-9.94676e-08
1.1728e-05
-1.63453e-06
1.17158e-05
-1.43119e-06
1.18214e-05
-1.66731e-06
1.1717e-05
-2.47366e-06
1.1509e-05
-3.10538e-06
1.15387e-05
-2.42167e-06
1.16001e-05
-1.14114e-06
1.16488e-05
-1.45327e-06
1.15398e-05
-2.31219e-06
1.15161e-05
-2.7097e-06
1.16067e-05
-1.1694e-06
1.19445e-05
-6.68129e-07
1.14159e-05
-2.2418e-07
1.17299e-05
-3.41933e-06
1.24202e-05
-4.49503e-06
1.17043e-05
-6.63386e-07
1.13698e-05
-3.0149e-07
1.16412e-05
-1.31883e-06
1.16745e-05
-1.43655e-06
1.16755e-05
-2.40854e-06
1.16743e-05
-2.56702e-06
1.17481e-05
-1.018e-06
1.19636e-05
-2.37418e-07
1.19417e-05
-7.87373e-07
1.18433e-05
-1.52005e-06
1.18466e-05
-1.55458e-06
1.19672e-05
-1.73907e-06
1.19133e-05
-1.39519e-06
1.20862e-05
-1.51853e-06
1.20437e-05
-1.35728e-06
1.19041e-05
-2.27878e-06
1.22197e-05
-3.31224e-06
1.21307e-05
-8.54951e-07
1.19602e-05
-2.03565e-07
1.1974e-05
-2.18141e-06
1.19239e-05
-3.01791e-06
1.18809e-05
-1.90942e-06
1.20319e-05
-9.90952e-07
1.20993e-05
-1.14352e-06
1.20425e-05
-1.36714e-06
1.21644e-05
-1.36341e-06
1.2135e-05
-1.58889e-06
1.19088e-05
-2.50216e-06
1.25948e-05
-4.16756e-06
1.23166e-05
-3.02782e-07
1.19717e-05
3.17534e-07
1.213e-05
-1.67901e-06
1.21345e-05
-1.80147e-06
1.21553e-05
-2.29537e-06
1.20984e-05
-2.08187e-06
1.21921e-05
-1.53178e-06
1.22079e-05
-1.2049e-06
1.22341e-05
-1.27136e-06
1.23282e-05
-1.43275e-06
1.2391e-05
-2.35666e-06
1.21469e-05
-1.83955e-06
1.22856e-05
-1.61071e-06
1.22726e-05
-1.29456e-06
1.23071e-05
-2.10938e-06
1.22976e-05
-1.90789e-06
1.23257e-05
-1.17822e-06
1.24601e-05
-8.01025e-07
1.25445e-05
-1.01028e-06
1.24211e-05
-1.42482e-06
1.24975e-05
-2.08789e-06
1.24989e-05
-1.42694e-06
1.26066e-05
-1.29503e-06
1.26097e-05
-1.36689e-06
1.26363e-05
-1.80018e-06
1.26281e-05
-1.57457e-06
1.2678e-05
-1.53177e-06
1.26602e-05
-1.40777e-06
1.27066e-05
-1.52222e-06
1.26928e-05
-1.63266e-06
1.26626e-05
-2.16875e-06
1.26276e-05
-2.22843e-06
1.26328e-05
-1.9383e-06
1.26879e-05
-1.75845e-06
1.26026e-05
-1.03993e-06
1.27834e-05
-1.58556e-06
1.26748e-05
-1.10295e-06
1.28849e-05
-1.44519e-06
1.30178e-05
-1.55104e-06
1.29563e-05
-2.39832e-06
1.26664e-05
-1.97118e-06
1.27604e-05
-1.71479e-06
1.27961e-05
-1.55748e-06
1.27506e-05
-2.12133e-06
1.2773e-05
-2.01129e-06
1.27421e-05
-1.21158e-06
1.27447e-05
-2.41975e-06
1.25871e-05
-3.28395e-06
1.25903e-05
-2.78707e-06
1.2356e-05
-1.40311e-06
1.24825e-05
-2.41633e-06
1.31526e-05
-4.18448e-06
1.24612e-05
-8.05549e-07
1.23904e-05
-1.02655e-06
1.2473e-05
-1.06974e-06
1.25791e-05
-1.42466e-06
1.25717e-05
-1.27309e-06
1.26777e-05
-1.32182e-06
1.2715e-05
-1.37522e-06
1.26761e-05
-1.4786e-06
1.27575e-05
-1.92723e-06
1.26245e-05
-1.78219e-06
1.27432e-05
-2.36604e-06
1.26066e-05
-1.60983e-06
1.2761e-05
-2.23902e-06
1.25362e-05
-1.82508e-06
1.26363e-05
-3.0105e-06
1.24383e-05
-1.65369e-06
1.26851e-05
-1.53892e-06
1.25776e-05
-8.06629e-07
1.28125e-05
-1.62143e-06
1.2812e-05
-1.30715e-06
1.26285e-05
-1.02477e-06
1.29376e-05
-1.68857e-06
1.27688e-05
-1.13642e-06
1.26236e-05
-1.9104e-06
1.34117e-05
-2.93934e-06
1.32794e-05
1.75191e-07
1.28215e-05
1.1403e-07
1.29994e-05
-2.8253e-06
1.28264e-05
-2.13987e-06
1.30283e-05
-1.72237e-06
1.29763e-05
-1.19155e-06
1.29726e-05
-2.25527e-06
1.29492e-05
-1.91991e-06
1.30187e-05
-1.42557e-06
1.29459e-05
-2.23439e-06
1.28399e-05
-3.04985e-06
1.28743e-05
-1.81299e-06
1.30021e-05
-5.0691e-07
1.3223e-05
-1.46103e-06
1.29342e-05
-2.44212e-06
1.27908e-05
-3.2548e-06
1.28342e-05
-2.10032e-06
1.28662e-05
-1.05627e-06
1.28837e-05
-1.49049e-06
1.2785e-05
-2.30488e-06
1.2878e-05
-3.30864e-06
1.2792e-05
-2.19811e-06
1.26726e-05
-8.0315e-07
1.28061e-05
-1.21847e-06
1.28139e-05
-2.13526e-06
1.27645e-05
-2.22496e-06
1.27752e-05
-1.40709e-06
1.27956e-05
-1.23322e-06
1.28487e-05
-1.53252e-06
1.28602e-05
-1.67484e-06
1.2839e-05
-2.2213e-06
1.2787e-05
-2.32014e-06
1.2776e-05
-2.12355e-06
1.27662e-05
-1.86963e-06
1.2765e-05
-1.64108e-06
1.27233e-05
-2.37942e-06
1.25775e-05
-3.0937e-06
1.24842e-05
-2.95951e-06
1.24247e-05
-2.54233e-06
1.24855e-05
-1.94878e-06
1.25287e-05
-1.10245e-06
1.25953e-05
-1.24701e-06
1.26346e-05
-1.46229e-06
1.26674e-05
-1.45858e-06
1.27045e-05
-1.66585e-06
1.26812e-05
-1.93752e-06
1.27415e-05
-2.04089e-06
1.26746e-05
-1.17824e-06
1.28013e-05
-1.37705e-06
1.27509e-05
-1.00177e-06
1.29309e-05
-1.58999e-06
1.28199e-05
-9.69327e-07
1.30617e-05
-1.99169e-06
1.2934e-05
-2.6986e-06
1.26035e-05
-3.09043e-06
1.26279e-05
-3.31958e-06
1.24598e-05
-2.31585e-06
1.25397e-05
-1.99602e-06
1.25337e-05
-1.06775e-06
1.26455e-05
-1.60343e-06
1.25074e-05
-1.88375e-06
1.2587e-05
-2.36217e-06
1.25035e-05
-1.5826e-06
1.25431e-05
-2.64247e-06
1.2339e-05
-3.07121e-06
1.24439e-05
-2.77384e-06
1.25329e-05
-9.95481e-07
1.24109e-05
-6.35434e-08
1.2608e-05
-1.36063e-06
1.26047e-05
-1.47431e-06
1.26824e-05
-1.8474e-06
1.26537e-05
-1.36453e-06
1.27352e-05
-1.53942e-06
1.25902e-05
-2.2615e-06
1.25347e-05
-3.41677e-06
1.25728e-05
-3.01427e-06
1.24987e-05
-1.95521e-06
1.25401e-05
-1.64231e-06
1.26144e-05
-1.42221e-06
1.26386e-05
-1.31315e-06
1.26769e-05
-1.34602e-06
1.26968e-05
-1.30342e-06
1.27215e-05
-1.36392e-06
1.28285e-05
-1.41978e-06
1.42588e-05
-3.81202e-06
1.52197e-05
-3.14051e-06
1.4542e-05
-4.54686e-07
1.43683e-05
-1.63352e-06
-1.76085e-06
2.13301e-05
1.93426e-05
1.89019e-05
6.40594e-06
1.76081e-05
8.64797e-07
1.70305e-05
-9.13803e-07
1.66262e-05
-1.18723e-06
1.6389e-05
-1.38175e-06
1.62289e-05
-1.54365e-06
1.61291e-05
-1.63426e-06
1.60677e-05
-1.71938e-06
1.60384e-05
-1.7708e-06
1.60258e-05
-1.80923e-06
1.60296e-05
-1.8334e-06
1.60465e-05
-1.86625e-06
1.60709e-05
-1.87795e-06
1.6105e-05
-1.89758e-06
1.61452e-05
-1.91003e-06
1.61919e-05
-1.92328e-06
1.62426e-05
-1.93028e-06
1.62964e-05
-1.93727e-06
1.63555e-05
-1.94919e-06
1.64188e-05
-1.95763e-06
1.6485e-05
-1.96363e-06
1.65538e-05
-1.96883e-06
1.6624e-05
-1.97116e-06
1.66967e-05
-1.97652e-06
1.67689e-05
-1.97491e-06
1.68351e-05
-1.96152e-06
1.68933e-05
-1.94219e-06
1.69434e-05
-1.92362e-06
1.69862e-05
-1.90656e-06
1.70225e-05
-1.89196e-06
1.70532e-05
-1.87914e-06
1.7079e-05
-1.86842e-06
1.71007e-05
-1.85919e-06
1.71189e-05
-1.85157e-06
1.71342e-05
-1.84511e-06
1.7147e-05
-1.83978e-06
1.71578e-05
-1.83535e-06
1.71668e-05
-1.83165e-06
1.71745e-05
-1.82864e-06
1.71809e-05
-1.82605e-06
1.71864e-05
-1.824e-06
1.71911e-05
-1.82231e-06
1.71951e-05
-1.82077e-06
1.71986e-05
-1.81975e-06
1.72014e-05
-1.81817e-06
1.72039e-05
-1.81777e-06
1.72061e-05
-1.81677e-06
1.7208e-05
-1.81657e-06
1.72094e-05
-1.81489e-06
1.72108e-05
-1.81607e-06
1.72116e-05
-1.81224e-06
1.72129e-05
-1.81781e-06
1.72134e-05
-1.80805e-06
1.72151e-05
-1.82343e-06
1.72148e-05
-1.7991e-06
1.72222e-05
-1.8497e-06
1.72649e-05
-1.86785e-06
1.72409e-05
-1.7954e-06
1.58212e-05
1.85252e-06
1.45803e-05
6.29598e-07
1.47138e-05
-3.18631e-06
1.48579e-05
-2.70988e-06
1.49446e-05
-2.55612e-06
1.49621e-05
-2.34543e-06
1.49665e-05
-2.32697e-06
1.49528e-05
-2.27868e-06
1.49116e-05
-2.21184e-06
1.49298e-05
-2.11998e-06
1.49352e-05
-1.72203e-06
1.49895e-05
-1.89239e-06
1.50322e-05
-1.94264e-06
1.50275e-05
-2.3807e-06
1.5007e-05
-2.62904e-06
1.50227e-05
-2.05338e-06
1.49726e-05
-2.27287e-06
1.48767e-05
-2.98282e-06
1.4866e-05
-2.40822e-06
1.49063e-05
-1.45353e-06
1.49466e-05
-1.28293e-06
1.49882e-05
-1.21796e-06
1.51364e-05
-1.88254e-06
1.49112e-05
-1.25721e-06
1.505e-05
-3.3115e-06
1.49045e-05
-2.62124e-06
1.4712e-05
-2.28021e-06
1.48071e-05
-3.15339e-06
1.47747e-05
-1.76646e-06
1.49765e-05
-1.26565e-06
1.48218e-05
5.51553e-08
1.49089e-05
-1.72162e-06
1.4899e-05
-1.42132e-06
1.49905e-05
-1.75878e-06
1.49126e-05
-2.39573e-06
1.47304e-05
-2.92317e-06
1.47345e-05
-2.42575e-06
1.47822e-05
-1.18892e-06
1.48291e-05
-1.50018e-06
1.47449e-05
-2.22797e-06
1.4708e-05
-2.67276e-06
1.48014e-05
-1.2628e-06
1.51084e-05
-9.75174e-07
1.46696e-05
2.1466e-07
1.49481e-05
-3.69783e-06
1.55891e-05
-5.13607e-06
1.50097e-05
-8.39482e-08
1.4632e-05
7.6258e-08
1.48044e-05
-1.49128e-06
1.48434e-05
-1.47558e-06
1.48437e-05
-2.40877e-06
1.48381e-05
-2.56144e-06
1.49205e-05
-1.10038e-06
1.5132e-05
-4.48896e-07
1.51191e-05
-7.74563e-07
1.5013e-05
-1.41394e-06
1.5003e-05
-1.54459e-06
1.51118e-05
-1.84783e-06
1.50752e-05
-1.3586e-06
1.52267e-05
-1.66999e-06
1.51886e-05
-1.31924e-06
1.50831e-05
-2.17326e-06
1.53761e-05
-3.6052e-06
1.53269e-05
-8.05788e-07
1.51524e-05
-2.90439e-08
1.51243e-05
-2.15335e-06
1.50801e-05
-2.97364e-06
1.50414e-05
-1.8707e-06
1.51738e-05
-1.12341e-06
1.52412e-05
-1.21089e-06
1.51863e-05
-1.31222e-06
1.52888e-05
-1.46595e-06
1.52505e-05
-1.55063e-06
1.51078e-05
-2.35938e-06
1.57481e-05
-4.80787e-06
1.5547e-05
-1.01722e-07
1.51959e-05
6.68641e-07
1.52675e-05
-1.7506e-06
1.52723e-05
-1.80631e-06
1.52925e-05
-2.31552e-06
1.52475e-05
-2.03687e-06
1.53228e-05
-1.60715e-06
1.5338e-05
-1.22001e-06
1.53617e-05
-1.29508e-06
1.5457e-05
-1.52805e-06
1.55169e-05
-2.4166e-06
1.53048e-05
-1.62739e-06
1.54079e-05
-1.71385e-06
1.5404e-05
-1.29069e-06
1.54295e-05
-2.13479e-06
1.54231e-05
-1.90148e-06
1.54433e-05
-1.19849e-06
1.55676e-05
-9.25292e-07
1.56508e-05
-1.09345e-06
1.55477e-05
-1.32171e-06
1.56039e-05
-2.14416e-06
1.56092e-05
-1.43226e-06
1.57049e-05
-1.39064e-06
1.57159e-05
-1.37793e-06
1.57405e-05
-1.82484e-06
1.57421e-05
-1.57614e-06
1.57779e-05
-1.56762e-06
1.57552e-05
-1.38497e-06
1.57915e-05
-1.55858e-06
1.57836e-05
-1.62475e-06
1.5762e-05
-2.14715e-06
1.57317e-05
-2.19814e-06
1.57364e-05
-1.94297e-06
1.57846e-05
-1.80666e-06
1.57243e-05
-9.79617e-07
1.58724e-05
-1.73368e-06
1.57876e-05
-1.01814e-06
1.59602e-05
-1.61779e-06
1.61157e-05
-1.70656e-06
1.6081e-05
-2.36366e-06
1.5802e-05
-1.69213e-06
1.58547e-05
-1.76753e-06
1.5888e-05
-1.5908e-06
1.58504e-05
-2.08365e-06
1.58669e-05
-2.02781e-06
1.5846e-05
-1.1907e-06
1.58519e-05
-2.42559e-06
1.57139e-05
-3.14598e-06
1.5713e-05
-2.78621e-06
1.54995e-05
-1.18956e-06
1.56306e-05
-2.54749e-06
1.62582e-05
-4.812e-06
1.56877e-05
-2.35118e-07
1.55399e-05
-8.78675e-07
1.55918e-05
-1.12168e-06
1.56833e-05
-1.5162e-06
1.56818e-05
-1.27155e-06
1.57756e-05
-1.41565e-06
1.58203e-05
-1.41992e-06
1.57871e-05
-1.44539e-06
1.5841e-05
-1.98112e-06
1.57486e-05
-1.68975e-06
1.58426e-05
-2.46001e-06
1.57438e-05
-1.51109e-06
1.58601e-05
-2.35533e-06
1.56805e-05
-1.64548e-06
1.57537e-05
-3.08371e-06
1.55824e-05
-1.48232e-06
1.578e-05
-1.73653e-06
1.57011e-05
-7.27737e-07
1.58969e-05
-1.81728e-06
1.59275e-05
-1.33769e-06
1.57795e-05
-8.76762e-07
1.60298e-05
-1.93887e-06
1.58678e-05
-9.74459e-07
1.57555e-05
-1.79811e-06
1.64764e-05
-3.66019e-06
1.64236e-05
2.27941e-07
1.60022e-05
5.35432e-07
1.60732e-05
-2.89632e-06
1.59323e-05
-1.99892e-06
1.60971e-05
-1.88717e-06
1.60647e-05
-1.15916e-06
1.60562e-05
-2.2468e-06
1.60368e-05
-1.90049e-06
1.6095e-05
-1.4837e-06
1.60359e-05
-2.17531e-06
1.5943e-05
-2.95698e-06
1.5965e-05
-1.83494e-06
1.60906e-05
-6.32541e-07
1.62984e-05
-1.6688e-06
1.60544e-05
-2.19816e-06
1.59067e-05
-3.10708e-06
1.59324e-05
-2.12608e-06
1.59595e-05
-1.08333e-06
1.59702e-05
-1.50115e-06
1.58935e-05
-2.22824e-06
1.59849e-05
-3.40004e-06
1.59283e-05
-2.14154e-06
1.5815e-05
-6.89823e-07
1.59102e-05
-1.31365e-06
1.59247e-05
-2.14974e-06
1.58823e-05
-2.18254e-06
1.58835e-05
-1.40835e-06
1.59061e-05
-1.25583e-06
1.59578e-05
-1.5842e-06
1.59642e-05
-1.68122e-06
1.59359e-05
-2.193e-06
1.58813e-05
-2.26549e-06
1.58692e-05
-2.11154e-06
1.58605e-05
-1.8609e-06
1.58646e-05
-1.64517e-06
1.58395e-05
-2.35433e-06
1.57114e-05
-2.96554e-06
1.56137e-05
-2.86186e-06
1.55511e-05
-2.47969e-06
1.55924e-05
-1.99009e-06
1.56295e-05
-1.13952e-06
1.57024e-05
-1.31996e-06
1.57509e-05
-1.51074e-06
1.57857e-05
-1.49346e-06
1.582e-05
-1.70013e-06
1.58031e-05
-1.92056e-06
1.58511e-05
-2.08892e-06
1.58087e-05
-1.13588e-06
1.59086e-05
-1.4769e-06
1.58702e-05
-9.63357e-07
1.60183e-05
-1.7381e-06
1.59267e-05
-8.77766e-07
1.61361e-05
-2.20112e-06
1.60553e-05
-2.61774e-06
1.57607e-05
-2.79584e-06
1.57452e-05
-3.30405e-06
1.56165e-05
-2.18717e-06
1.56655e-05
-2.04505e-06
1.56605e-05
-1.06277e-06
1.57634e-05
-1.70625e-06
1.56554e-05
-1.77584e-06
1.57071e-05
-2.41387e-06
1.5632e-05
-1.50748e-06
1.56618e-05
-2.67226e-06
1.54898e-05
-2.89916e-06
1.5573e-05
-2.85709e-06
1.56719e-05
-1.09436e-06
1.55862e-05
2.21056e-08
1.57432e-05
-1.51758e-06
1.57436e-05
-1.47474e-06
1.58015e-05
-1.9053e-06
1.57826e-05
-1.34559e-06
1.58489e-05
-1.60572e-06
1.5731e-05
-2.14359e-06
1.56918e-05
-3.37763e-06
1.5735e-05
-3.05747e-06
1.5674e-05
-1.89421e-06
1.57041e-05
-1.67238e-06
1.57681e-05
-1.48619e-06
1.57917e-05
-1.33675e-06
1.58229e-05
-1.37729e-06
1.5846e-05
-1.32652e-06
1.58488e-05
-1.36669e-06
1.59828e-05
-1.55375e-06
1.74552e-05
-5.28441e-06
1.85696e-05
-4.25489e-06
1.8113e-05
1.9019e-09
1.79121e-05
-1.43269e-06
-1.69572e-06
2.32819e-05
1.93941e-05
2.18361e-05
7.85176e-06
2.06517e-05
2.04915e-06
1.97911e-05
-5.31636e-08
1.91821e-05
-5.78239e-07
1.8828e-05
-1.02767e-06
1.85866e-05
-1.30219e-06
1.84382e-05
-1.48589e-06
1.83411e-05
-1.62229e-06
1.82866e-05
-1.71629e-06
1.8255e-05
-1.7776e-06
1.82472e-05
-1.82563e-06
1.82549e-05
-1.87397e-06
1.82735e-05
-1.89655e-06
1.83042e-05
-1.92827e-06
1.8343e-05
-1.94877e-06
1.83901e-05
-1.97045e-06
1.84427e-05
-1.98287e-06
1.84992e-05
-1.99378e-06
1.85619e-05
-2.01191e-06
1.86296e-05
-2.02531e-06
1.87011e-05
-2.03507e-06
1.87756e-05
-2.04337e-06
1.88522e-05
-2.04772e-06
1.89318e-05
-2.05614e-06
1.90104e-05
-2.05347e-06
1.9082e-05
-2.03317e-06
1.91451e-05
-2.00526e-06
1.91998e-05
-1.97831e-06
1.92467e-05
-1.95352e-06
1.92868e-05
-1.93206e-06
1.93208e-05
-1.91312e-06
1.93495e-05
-1.89715e-06
1.93738e-05
-1.8834e-06
1.93941e-05
-1.87194e-06
1.94113e-05
-1.86226e-06
1.94257e-05
-1.85417e-06
1.94378e-05
-1.8475e-06
1.9448e-05
-1.84184e-06
1.94567e-05
-1.8373e-06
1.94639e-05
-1.8333e-06
1.94701e-05
-1.83022e-06
1.94754e-05
-1.82756e-06
1.94799e-05
-1.8253e-06
1.94838e-05
-1.82363e-06
1.9487e-05
-1.82136e-06
1.94899e-05
-1.82065e-06
1.94923e-05
-1.81922e-06
1.94944e-05
-1.8187e-06
1.94961e-05
-1.81657e-06
1.94975e-05
-1.81743e-06
1.94986e-05
-1.8134e-06
1.94998e-05
-1.81892e-06
1.95006e-05
-1.80891e-06
1.95016e-05
-1.82446e-06
1.95027e-05
-1.80016e-06
1.95074e-05
-1.85445e-06
1.95546e-05
-1.91504e-06
1.95162e-05
-1.75698e-06
1.82087e-05
3.16006e-06
1.69447e-05
1.89356e-06
1.68858e-05
-3.12744e-06
1.69737e-05
-2.79777e-06
1.70574e-05
-2.63979e-06
1.70797e-05
-2.36773e-06
1.70912e-05
-2.33849e-06
1.70867e-05
-2.27421e-06
1.70534e-05
-2.17846e-06
1.70651e-05
-2.13173e-06
1.70708e-05
-1.72775e-06
1.7124e-05
-1.94558e-06
1.71694e-05
-1.98801e-06
1.71758e-05
-2.3871e-06
1.71663e-05
-2.61956e-06
1.71849e-05
-2.07198e-06
1.71467e-05
-2.23463e-06
1.70638e-05
-2.89992e-06
1.70516e-05
-2.39603e-06
1.70904e-05
-1.49235e-06
1.7135e-05
-1.32753e-06
1.71765e-05
-1.25944e-06
1.72968e-05
-2.00286e-06
1.7115e-05
-1.07545e-06
1.72231e-05
-3.41959e-06
1.71074e-05
-2.50548e-06
1.69296e-05
-2.1025e-06
1.69907e-05
-3.21447e-06
1.69818e-05
-1.7575e-06
1.71649e-05
-1.44881e-06
1.70436e-05
1.76514e-07
1.70969e-05
-1.77501e-06
1.7088e-05
-1.41238e-06
1.71636e-05
-1.83436e-06
1.71019e-05
-2.33408e-06
1.69432e-05
-2.76439e-06
1.69379e-05
-2.42045e-06
1.69774e-05
-1.22841e-06
1.70179e-05
-1.54076e-06
1.69491e-05
-2.15912e-06
1.69122e-05
-2.63583e-06
1.6999e-05
-1.34967e-06
1.72681e-05
-1.24429e-06
1.69375e-05
5.45314e-07
1.71588e-05
-3.91914e-06
1.76973e-05
-5.6746e-06
1.72569e-05
3.56463e-07
1.69019e-05
4.31242e-07
1.69957e-05
-1.58501e-06
1.70243e-05
-1.50421e-06
1.70228e-05
-2.40727e-06
1.70154e-05
-2.55403e-06
1.70993e-05
-1.18429e-06
1.72981e-05
-6.47702e-07
1.73007e-05
-7.77124e-07
1.7203e-05
-1.31623e-06
1.7187e-05
-1.52863e-06
1.72772e-05
-1.93809e-06
1.72504e-05
-1.33173e-06
1.73783e-05
-1.79794e-06
1.73564e-05
-1.29731e-06
1.72681e-05
-2.08498e-06
1.75135e-05
-3.85054e-06
1.75042e-05
-7.96565e-07
1.73502e-05
1.24964e-07
1.72945e-05
-2.09763e-06
1.7249e-05
-2.92818e-06
1.7216e-05
-1.8377e-06
1.73308e-05
-1.23814e-06
1.73935e-05
-1.27358e-06
1.73461e-05
-1.26491e-06
1.74362e-05
-1.556e-06
1.74076e-05
-1.52199e-06
1.73049e-05
-2.25669e-06
1.78657e-05
-5.36869e-06
1.77362e-05
2.77711e-08
1.7414e-05
9.90798e-07
1.74307e-05
-1.76728e-06
1.743e-05
-1.80558e-06
1.74459e-05
-2.33145e-06
1.74105e-05
-2.00144e-06
1.74694e-05
-1.66605e-06
1.74852e-05
-1.2358e-06
1.75102e-05
-1.32009e-06
1.7594e-05
-1.61189e-06
1.76483e-05
-2.47087e-06
1.74756e-05
-1.45468e-06
1.75519e-05
-1.7902e-06
1.75512e-05
-1.28998e-06
1.75674e-05
-2.15098e-06
1.75621e-05
-1.89618e-06
1.75788e-05
-1.21521e-06
1.76905e-05
-1.03698e-06
1.77721e-05
-1.17504e-06
1.7691e-05
-1.24062e-06
1.77306e-05
-2.18367e-06
1.7742e-05
-1.44368e-06
1.78248e-05
-1.47348e-06
1.7839e-05
-1.39204e-06
1.78604e-05
-1.84632e-06
1.78663e-05
-1.58202e-06
1.78943e-05
-1.59559e-06
1.78736e-05
-1.36426e-06
1.79018e-05
-1.5868e-06
1.78955e-05
-1.61845e-06
1.78787e-05
-2.13042e-06
1.78545e-05
-2.17387e-06
1.78569e-05
-1.94539e-06
1.79015e-05
-1.85126e-06
1.78627e-05
-9.40826e-07
1.79795e-05
-1.8505e-06
1.79201e-05
-9.5867e-07
1.80634e-05
-1.76115e-06
1.82133e-05
-1.85646e-06
1.81987e-05
-2.34909e-06
1.79538e-05
-1.4472e-06
1.79767e-05
-1.79038e-06
1.8003e-05
-1.61716e-06
1.7965e-05
-2.0456e-06
1.79777e-05
-2.0405e-06
1.79758e-05
-1.18881e-06
1.79757e-05
-2.42552e-06
1.78499e-05
-3.02017e-06
1.7847e-05
-2.78334e-06
1.76901e-05
-1.03262e-06
1.78001e-05
-2.65751e-06
1.83223e-05
-5.33422e-06
1.78763e-05
2.10915e-07
1.77101e-05
-7.12446e-07
1.77407e-05
-1.15235e-06
1.78157e-05
-1.59116e-06
1.78178e-05
-1.27364e-06
1.78997e-05
-1.49752e-06
1.79447e-05
-1.465e-06
1.79133e-05
-1.41391e-06
1.79556e-05
-2.02342e-06
1.78876e-05
-1.62177e-06
1.79656e-05
-2.538e-06
1.78933e-05
-1.43887e-06
1.79775e-05
-2.43953e-06
1.78406e-05
-1.50852e-06
1.78892e-05
-3.13235e-06
1.77507e-05
-1.34383e-06
1.79062e-05
-1.89203e-06
1.78476e-05
-6.69145e-07
1.80112e-05
-1.98087e-06
1.80522e-05
-1.37867e-06
1.79305e-05
-7.55099e-07
1.81348e-05
-2.14314e-06
1.80151e-05
-8.54803e-07
1.7919e-05
-1.702e-06
1.85322e-05
-4.27339e-06
1.85382e-05
2.21935e-07
1.81754e-05
8.98251e-07
1.81882e-05
-2.90906e-06
1.80644e-05
-1.87514e-06
1.81966e-05
-2.01944e-06
1.81763e-05
-1.13882e-06
1.81619e-05
-2.23239e-06
1.81462e-05
-1.88482e-06
1.81961e-05
-1.53354e-06
1.8146e-05
-2.12525e-06
1.80626e-05
-2.87361e-06
1.80835e-05
-1.8558e-06
1.8198e-05
-7.47094e-07
1.8377e-05
-1.84774e-06
1.81759e-05
-1.99704e-06
1.80359e-05
-2.96708e-06
1.80528e-05
-2.14303e-06
1.8075e-05
-1.10549e-06
1.80853e-05
-1.51151e-06
1.80306e-05
-2.17349e-06
1.81064e-05
-3.47586e-06
1.80683e-05
-2.10342e-06
1.79686e-05
-5.90139e-07
1.8031e-05
-1.37609e-06
1.80453e-05
-2.16398e-06
1.80126e-05
-2.14992e-06
1.80162e-05
-1.41193e-06
1.80407e-05
-1.28026e-06
1.80901e-05
-1.6336e-06
1.80953e-05
-1.68651e-06
1.80604e-05
-2.15805e-06
1.8003e-05
-2.2081e-06
1.7988e-05
-2.09651e-06
1.79786e-05
-1.85151e-06
1.79838e-05
-1.65036e-06
1.79636e-05
-2.33414e-06
1.78524e-05
-2.85437e-06
1.77625e-05
-2.77199e-06
1.77011e-05
-2.41822e-06
1.77279e-05
-2.01691e-06
1.7764e-05
-1.17564e-06
1.78357e-05
-1.39166e-06
1.78854e-05
-1.56047e-06
1.79191e-05
-1.52709e-06
1.79493e-05
-1.73041e-06
1.79321e-05
-1.90338e-06
1.79725e-05
-2.12927e-06
1.79504e-05
-1.11377e-06
1.80308e-05
-1.55735e-06
1.80027e-05
-9.35199e-07
1.81164e-05
-1.85186e-06
1.80518e-05
-8.13111e-07
1.82289e-05
-2.37825e-06
1.81691e-05
-2.55797e-06
1.79059e-05
-2.53259e-06
1.78715e-05
-3.26967e-06
1.77769e-05
-2.0926e-06
1.78219e-05
-2.09002e-06
1.78253e-05
-1.06616e-06
1.79097e-05
-1.79068e-06
1.78189e-05
-1.68507e-06
1.78477e-05
-2.44265e-06
1.77867e-05
-1.44645e-06
1.78014e-05
-2.687e-06
1.765e-05
-2.74773e-06
1.77131e-05
-2.92024e-06
1.78193e-05
-1.20049e-06
1.7773e-05
6.83663e-08
1.7895e-05