/*--------------------------------*- C++ -*----------------------------------*\
| =========                 |                                                 |
| \\      /  F ield         | foam-extend: Open Source CFD                    |
|  \\    /   O peration     | Version:     3.2                                |
|   \\  /    A nd           | Web:         http://www.foam-extend.org         |
|    \\/     M anipulation  | For copyright notice see file Copyright         |
\*---------------------------------------------------------------------------*/
FoamFile
{
    version     2.0;
    format      ascii;
    class       surfaceScalarField;
    location    "50";
    object      AdSS2;
}
// * * * * * * * * * * * * * * * * * * * * * * * * * * * * * * * * * * * * * //

dimensions      [0 3 -1 0 0 0 0];

internalField   nonuniform List<scalar> 
10482
(
9.98338e-06
1.10271e-05
7.13338e-06
5.27138e-07
6.76712e-06
-1.95661e-06
6.72544e-06
-2.28118e-06
6.7004e-06
-2.29782e-06
6.65418e-06
-2.27664e-06
6.63655e-06
-2.30523e-06
6.61638e-06
-2.3027e-06
6.61501e-06
-2.32149e-06
6.61381e-06
-2.32166e-06
6.62212e-06
-2.33117e-06
6.63013e-06
-2.33088e-06
6.64609e-06
-2.33882e-06
6.66222e-06
-2.339e-06
6.68164e-06
-2.34228e-06
6.70285e-06
-2.34406e-06
6.72628e-06
-2.34629e-06
6.7503e-06
-2.34688e-06
6.77586e-06
-2.34842e-06
6.80361e-06
-2.35061e-06
6.8327e-06
-2.35196e-06
6.86265e-06
-2.3528e-06
6.89343e-06
-2.35365e-06
6.92442e-06
-2.35385e-06
6.95624e-06
-2.35468e-06
6.9875e-06
-2.35412e-06
7.01614e-06
-2.3515e-06
7.04063e-06
-2.34735e-06
7.06134e-06
-2.34357e-06
7.07856e-06
-2.34008e-06
7.09297e-06
-2.33728e-06
7.1049e-06
-2.33478e-06
7.11485e-06
-2.33282e-06
7.12307e-06
-2.33108e-06
7.12994e-06
-2.32973e-06
7.13562e-06
-2.32854e-06
7.14039e-06
-2.32763e-06
7.14435e-06
-2.32682e-06
7.1477e-06
-2.32621e-06
7.15049e-06
-2.32565e-06
7.15289e-06
-2.32525e-06
7.15488e-06
-2.32485e-06
7.15664e-06
-2.32463e-06
7.15807e-06
-2.32429e-06
7.1594e-06
-2.32419e-06
7.16039e-06
-2.32385e-06
7.16158e-06
-2.32405e-06
7.16231e-06
-2.32359e-06
7.16321e-06
-2.32377e-06
7.1634e-06
-2.32305e-06
7.16464e-06
-2.32411e-06
7.16362e-06
-2.32184e-06
7.16623e-06
-2.32547e-06
7.16278e-06
-2.31942e-06
7.16905e-06
-2.32912e-06
7.1596e-06
-2.31342e-06
7.17798e-06
-2.34124e-06
7.16503e-06
-2.30991e-06
7.17321e-06
-2.33104e-06
6.20353e-06
-1.47865e-06
5.67545e-06
-2.18107e-06
6.05778e-06
-3.23816e-06
6.11413e-06
-2.92522e-06
6.14905e-06
-2.90584e-06
6.11722e-06
-2.8394e-06
6.09081e-06
-2.84472e-06
6.05232e-06
-2.83237e-06
5.99706e-06
-2.81528e-06
5.99714e-06
-2.59646e-06
5.98428e-06
-2.22689e-06
6.04488e-06
-2.28838e-06
6.08249e-06
-2.36829e-06
6.02682e-06
-2.92136e-06
5.95379e-06
-3.20336e-06
5.9638e-06
-2.53468e-06
5.89897e-06
-2.89504e-06
5.77667e-06
-3.70457e-06
5.77371e-06
-2.93977e-06
5.81421e-06
-1.88117e-06
5.8803e-06
-1.71089e-06
5.8651e-06
-1.65452e-06
6.04411e-06
-2.06438e-06
5.7966e-06
-2.25583e-06
5.9434e-06
-3.52436e-06
5.74011e-06
-3.46796e-06
5.55511e-06
-3.17759e-06
5.73403e-06
-3.42377e-06
5.61519e-06
-2.38648e-06
5.84934e-06
-1.3459e-06
5.68486e-06
-7.88321e-07
5.83567e-06
-2.02011e-06
5.81933e-06
-1.95405e-06
5.92559e-06
-2.07231e-06
5.80032e-06
-3.08872e-06
5.60153e-06
-3.82399e-06
5.67299e-06
-2.90259e-06
5.73246e-06
-1.59039e-06
5.77744e-06
-1.91522e-06
5.64965e-06
-2.93184e-06
5.65842e-06
-3.24399e-06
5.70874e-06
-1.58946e-06
6.027e-06
-8.4096e-07
5.59054e-06
-1.2634e-06
5.80175e-06
-3.61598e-06
6.27962e-06
-4.31528e-06
5.66166e-06
-1.88998e-06
5.52869e-06
-1.14654e-06
5.80885e-06
-1.55809e-06
5.80641e-06
-1.91391e-06
5.80077e-06
-2.91817e-06
5.81079e-06
-3.07885e-06
5.87564e-06
-1.45477e-06
6.06075e-06
-5.32602e-07
6.03793e-06
-1.31987e-06
5.98197e-06
-2.12908e-06
5.99631e-06
-2.06197e-06
6.0998e-06
-2.12906e-06
6.02639e-06
-1.95974e-06
6.19756e-06
-1.85624e-06
6.17515e-06
-1.91043e-06
5.99296e-06
-2.92904e-06
6.23552e-06
-3.50727e-06
6.16333e-06
-1.45453e-06
6.07573e-06
-8.84734e-07
6.09723e-06
-2.67823e-06
6.0335e-06
-3.57862e-06
6.00358e-06
-2.46311e-06
6.15857e-06
-1.35055e-06
6.21331e-06
-1.58678e-06
6.1726e-06
-1.93457e-06
6.27245e-06
-1.75207e-06
6.3026e-06
-2.12899e-06
5.98892e-06
-3.23897e-06
6.52265e-06
-3.99219e-06
6.2738e-06
-1.09162e-06
6.06809e-06
-5.38023e-07
6.28414e-06
-2.03128e-06
6.26515e-06
-2.30766e-06
6.27348e-06
-2.78521e-06
6.20841e-06
-2.6493e-06
6.31747e-06
-1.94876e-06
6.33333e-06
-1.69969e-06
6.37704e-06
-1.75584e-06
6.42309e-06
-1.84923e-06
6.4666e-06
-2.80453e-06
6.2459e-06
-2.59428e-06
6.41866e-06
-1.98265e-06
6.39163e-06
-1.81816e-06
6.42486e-06
-2.5855e-06
6.41037e-06
-2.42803e-06
6.45687e-06
-1.6608e-06
6.58173e-06
-1.17724e-06
6.66679e-06
-1.4365e-06
6.54468e-06
-2.05883e-06
6.62838e-06
-2.5221e-06
6.62236e-06
-1.93621e-06
6.72524e-06
-1.69795e-06
6.70486e-06
-1.87443e-06
6.73041e-06
-2.28417e-06
6.71316e-06
-2.09345e-06
6.77785e-06
-1.99254e-06
6.77362e-06
-1.93618e-06
6.82328e-06
-1.98647e-06
6.79458e-06
-2.15708e-06
6.75439e-06
-2.70955e-06
6.73049e-06
-2.77408e-06
6.71763e-06
-2.44375e-06
6.79544e-06
-2.21389e-06
6.71651e-06
-1.6359e-06
6.90416e-06
-1.91536e-06
6.78988e-06
-1.7222e-06
7.01515e-06
-1.74578e-06
7.06091e-06
-1.92874e-06
6.97329e-06
-2.97042e-06
6.74114e-06
-2.77173e-06
6.87622e-06
-2.13146e-06
6.90252e-06
-2.03242e-06
6.83821e-06
-2.6774e-06
6.8762e-06
-2.49954e-06
6.86201e-06
-1.75312e-06
6.84341e-06
-2.92778e-06
6.66647e-06
-3.95216e-06
6.67128e-06
-3.29452e-06
6.53449e-06
-2.14811e-06
6.5493e-06
-2.80043e-06
7.06624e-06
-4.02498e-06
6.42387e-06
-2.00764e-06
6.51094e-06
-1.60796e-06
6.61505e-06
-1.49777e-06
6.71327e-06
-1.82918e-06
6.69927e-06
-1.79111e-06
6.79791e-06
-1.72644e-06
6.83236e-06
-1.84855e-06
6.76409e-06
-2.02818e-06
6.88144e-06
-2.35641e-06
6.72722e-06
-2.42577e-06
6.85897e-06
-2.758e-06
6.68974e-06
-2.25704e-06
6.86309e-06
-2.59527e-06
6.6196e-06
-2.56051e-06
6.73241e-06
-3.42101e-06
6.54404e-06
-2.36237e-06
6.81546e-06
-1.80276e-06
6.69212e-06
-1.42471e-06
6.90367e-06
-1.89718e-06
6.88539e-06
-1.8183e-06
6.72754e-06
-1.71886e-06
7.03859e-06
-1.8901e-06
6.91793e-06
-1.81588e-06
6.71983e-06
-2.56621e-06
7.355e-06
-2.66187e-06
7.24677e-06
-4.67773e-07
6.89923e-06
-8.54539e-07
7.11777e-06
-3.15803e-06
6.93386e-06
-2.82345e-06
7.15913e-06
-2.03114e-06
7.07294e-06
-1.7542e-06
7.06612e-06
-2.76962e-06
7.04687e-06
-2.45393e-06
7.12692e-06
-1.86668e-06
7.03824e-06
-2.81783e-06
6.92667e-06
-3.66646e-06
6.998e-06
-2.28922e-06
7.0987e-06
-8.89787e-07
7.26875e-06
-1.75069e-06
6.96906e-06
-3.24156e-06
6.85471e-06
-3.90886e-06
6.92339e-06
-2.56751e-06
6.95685e-06
-1.53494e-06
6.99334e-06
-1.98361e-06
6.88436e-06
-2.91423e-06
6.92608e-06
-3.72627e-06
6.84429e-06
-2.79479e-06
6.78039e-06
-1.43315e-06
6.91894e-06
-1.59563e-06
6.88977e-06
-2.63801e-06
6.84901e-06
-2.78506e-06
6.89082e-06
-1.90704e-06
6.91208e-06
-1.72341e-06
6.9562e-06
-1.99008e-06
6.96192e-06
-2.17392e-06
6.93845e-06
-2.75317e-06
6.88793e-06
-2.88273e-06
6.88085e-06
-2.64527e-06
6.87877e-06
-2.39e-06
6.86585e-06
-2.15295e-06
6.79751e-06
-2.93177e-06
6.657e-06
-3.75012e-06
6.58785e-06
-3.5634e-06
6.53673e-06
-3.11246e-06
6.61657e-06
-2.3986e-06
6.67626e-06
-1.56995e-06
6.72608e-06
-1.69095e-06
6.74365e-06
-1.93365e-06
6.76459e-06
-1.93645e-06
6.80731e-06
-2.13932e-06
6.75609e-06
-2.47148e-06
6.83034e-06
-2.49122e-06
6.75455e-06
-1.75578e-06
6.90444e-06
-1.76105e-06
6.84911e-06
-1.56271e-06
7.02262e-06
-1.92063e-06
6.91085e-06
-1.59096e-06
7.12516e-06
-2.26054e-06
6.96032e-06
-3.33696e-06
6.64374e-06
-3.93155e-06
6.70866e-06
-3.80582e-06
6.54408e-06
-2.99462e-06
6.6677e-06
-2.42672e-06
6.65054e-06
-1.58433e-06
6.75356e-06
-2.0023e-06
6.59818e-06
-2.53246e-06
6.69474e-06
-2.79325e-06
6.6089e-06
-2.17667e-06
6.63849e-06
-3.11355e-06
6.41704e-06
-3.78594e-06
6.51366e-06
-3.1796e-06
6.62367e-06
-1.41712e-06
6.52873e-06
-6.96104e-07
6.71698e-06
-1.67418e-06
6.67077e-06
-1.98823e-06
6.75203e-06
-2.28037e-06
6.72278e-06
-1.90384e-06
6.81427e-06
-1.96856e-06
6.64511e-06
-2.9171e-06
6.55794e-06
-3.98294e-06
6.57563e-06
-3.48684e-06
6.52539e-06
-2.53987e-06
6.58886e-06
-2.11154e-06
6.67053e-06
-1.85854e-06
6.69297e-06
-1.79964e-06
6.73425e-06
-1.81838e-06
6.75125e-06
-1.79413e-06
6.82348e-06
-1.84979e-06
6.86139e-06
-1.82341e-06
7.82448e-06
-2.89235e-06
8.32067e-06
-2.69031e-06
7.64079e-06
-1.64299e-06
7.63576e-06
-2.31783e-06
-2.30756e-06
1.75317e-05
1.68287e-05
1.45917e-05
3.46711e-06
1.35747e-05
-9.39645e-07
1.32956e-05
-2.00203e-06
1.30999e-05
-2.10211e-06
1.29529e-05
-2.12963e-06
1.2862e-05
-2.21439e-06
1.2804e-05
-2.24466e-06
1.27739e-05
-2.29144e-06
1.2763e-05
-2.31072e-06
1.27643e-05
-2.33246e-06
1.27736e-05
-2.34021e-06
1.27948e-05
-2.35999e-06
1.282e-05
-2.36418e-06
1.28518e-05
-2.37417e-06
1.28882e-05
-2.3804e-06
1.29291e-05
-2.38721e-06
1.29724e-05
-2.39022e-06
1.30182e-05
-2.39416e-06
1.30682e-05
-2.40066e-06
1.31213e-05
-2.40502e-06
1.31765e-05
-2.408e-06
1.32335e-05
-2.41067e-06
1.32913e-05
-2.41165e-06
1.3351e-05
-2.41442e-06
1.34103e-05
-2.41337e-06
1.34647e-05
-2.4059e-06
1.3512e-05
-2.3947e-06
1.35526e-05
-2.38411e-06
1.35869e-05
-2.3744e-06
1.36159e-05
-2.36626e-06
1.36402e-05
-2.35909e-06
1.36606e-05
-2.35322e-06
1.36776e-05
-2.34812e-06
1.36919e-05
-2.344e-06
1.37038e-05
-2.34047e-06
1.37138e-05
-2.33761e-06
1.37222e-05
-2.3352e-06
1.37292e-05
-2.33324e-06
1.37352e-05
-2.3316e-06
1.37402e-05
-2.33025e-06
1.37444e-05
-2.32912e-06
1.37481e-05
-2.32827e-06
1.37512e-05
-2.32739e-06
1.37539e-05
-2.32691e-06
1.37561e-05
-2.326e-06
1.37578e-05
-2.32583e-06
1.37595e-05
-2.32524e-06
1.3761e-05
-2.3253e-06
1.37621e-05
-2.32407e-06
1.37633e-05
-2.32538e-06
1.37635e-05
-2.32203e-06
1.37652e-05
-2.32717e-06
1.37639e-05
-2.31813e-06
1.37672e-05
-2.33236e-06
1.37638e-05
-2.31003e-06
1.37755e-05
-2.35297e-06
1.38014e-05
-2.33582e-06
1.38004e-05
-2.33004e-06
1.23995e-05
-7.78064e-08
1.13404e-05
-1.12191e-06
1.16656e-05
-3.56342e-06
1.18168e-05
-3.07641e-06
1.1891e-05
-2.98003e-06
1.18902e-05
-2.83856e-06
1.18787e-05
-2.8332e-06
1.18494e-05
-2.80308e-06
1.17978e-05
-2.76368e-06
1.18136e-05
-2.61234e-06
1.1814e-05
-2.22729e-06
1.18744e-05
-2.34872e-06
1.19167e-05
-2.41056e-06
1.18913e-05
-2.89602e-06
1.18482e-05
-3.16021e-06
1.18618e-05
-2.54828e-06
1.18003e-05
-2.83359e-06
1.16851e-05
-3.58937e-06
1.16749e-05
-2.92954e-06
1.17176e-05
-1.92385e-06
1.176e-05
-1.75332e-06
1.17924e-05
-1.68693e-06
1.1973e-05
-2.24501e-06
1.17102e-05
-1.99302e-06
1.18692e-05
-3.68334e-06
1.16786e-05
-3.2774e-06
1.14844e-05
-2.98338e-06
1.16295e-05
-3.56884e-06
1.15526e-05
-2.30957e-06
1.17812e-05
-1.57448e-06
1.16029e-05
-6.10099e-07
1.1728e-05
-2.14517e-06
1.17158e-05
-1.94183e-06
1.18214e-05
-2.17794e-06
1.1717e-05
-2.98429e-06
1.1509e-05
-3.61601e-06
1.15387e-05
-2.9323e-06
1.16001e-05
-1.65177e-06
1.16488e-05
-1.9639e-06
1.15398e-05
-2.82282e-06
1.15161e-05
-3.22033e-06
1.16067e-05
-1.68003e-06
1.19445e-05
-1.17876e-06
1.14159e-05
-7.34812e-07
1.17299e-05
-3.92996e-06
1.24202e-05
-5.00566e-06
1.17043e-05
-1.17402e-06
1.13698e-05
-8.12121e-07
1.16412e-05
-1.82946e-06
1.16745e-05
-1.94718e-06
1.16755e-05
-2.91917e-06
1.16743e-05
-3.07765e-06
1.17481e-05
-1.52863e-06
1.19636e-05
-7.4805e-07
1.19417e-05
-1.29801e-06
1.18433e-05
-2.03068e-06
1.18466e-05
-2.06521e-06
1.19672e-05
-2.2497e-06
1.19133e-05
-1.90582e-06
1.20862e-05
-2.02916e-06
1.20437e-05
-1.86791e-06
1.19041e-05
-2.78941e-06
1.22197e-05
-3.82287e-06
1.21307e-05
-1.36558e-06
1.19602e-05
-7.14197e-07
1.1974e-05
-2.69204e-06
1.19239e-05
-3.52854e-06
1.18809e-05
-2.42005e-06
1.20319e-05
-1.50158e-06
1.20993e-05
-1.65415e-06
1.20425e-05
-1.87777e-06
1.21644e-05
-1.87404e-06
1.2135e-05
-2.09952e-06
1.19088e-05
-3.0128e-06
1.25948e-05
-4.67819e-06
1.23166e-05
-8.13413e-07
1.19717e-05
-1.93098e-07
1.213e-05
-2.18964e-06
1.21345e-05
-2.3121e-06
1.21553e-05
-2.806e-06
1.20984e-05
-2.5925e-06
1.21921e-05
-2.04241e-06
1.22079e-05
-1.71553e-06
1.22341e-05
-1.78199e-06
1.23282e-05
-1.94338e-06
1.2391e-05
-2.86729e-06
1.21469e-05
-2.35018e-06
1.22856e-05
-2.12134e-06
1.22726e-05
-1.80519e-06
1.23071e-05
-2.62001e-06
1.22976e-05
-2.41852e-06
1.23257e-05
-1.68885e-06
1.24601e-05
-1.31166e-06
1.25445e-05
-1.52091e-06
1.24211e-05
-1.93545e-06
1.24975e-05
-2.59852e-06
1.24989e-05
-1.93757e-06
1.26066e-05
-1.80566e-06
1.26097e-05
-1.87752e-06
1.26363e-05
-2.31081e-06
1.26281e-05
-2.0852e-06
1.2678e-05
-2.0424e-06
1.26602e-05
-1.9184e-06
1.27066e-05
-2.03285e-06
1.26928e-05
-2.14329e-06
1.26626e-05
-2.67938e-06
1.26276e-05
-2.73906e-06
1.26328e-05
-2.44893e-06
1.26879e-05
-2.26908e-06
1.26026e-05
-1.55056e-06
1.27834e-05
-2.09619e-06
1.26748e-05
-1.61359e-06
1.28849e-05
-1.95582e-06
1.30178e-05
-2.06167e-06
1.29563e-05
-2.90896e-06
1.26664e-05
-2.48181e-06
1.27604e-05
-2.22543e-06
1.27961e-05
-2.06811e-06
1.27506e-05
-2.63196e-06
1.2773e-05
-2.52192e-06
1.27421e-05
-1.72221e-06
1.27447e-05
-2.93038e-06
1.25871e-05
-3.79458e-06
1.25903e-05
-3.2977e-06
1.2356e-05
-1.91375e-06
1.24825e-05
-2.92696e-06
1.31526e-05
-4.69511e-06
1.24612e-05
-1.31618e-06
1.23904e-05
-1.53718e-06
1.2473e-05
-1.58037e-06
1.25791e-05
-1.93529e-06
1.25717e-05
-1.78372e-06
1.26777e-05
-1.83245e-06
1.2715e-05
-1.88585e-06
1.26761e-05
-1.98923e-06
1.27575e-05
-2.43786e-06
1.26245e-05
-2.29282e-06
1.27432e-05
-2.87667e-06
1.26066e-05
-2.12046e-06
1.2761e-05
-2.74966e-06
1.25362e-05
-2.33572e-06
1.26363e-05
-3.52113e-06
1.24383e-05
-2.16432e-06
1.26851e-05
-2.04955e-06
1.25776e-05
-1.31726e-06
1.28125e-05
-2.13207e-06
1.2812e-05
-1.81778e-06
1.26285e-05
-1.5354e-06
1.29376e-05
-2.1992e-06
1.27688e-05
-1.64705e-06
1.26236e-05
-2.42103e-06
1.34117e-05
-3.44997e-06
1.32794e-05
-3.35441e-07
1.28215e-05
-3.96602e-07
1.29994e-05
-3.33593e-06
1.28264e-05
-2.65051e-06
1.30283e-05
-2.233e-06
1.29763e-05
-1.70218e-06
1.29726e-05
-2.7659e-06
1.29492e-05
-2.43054e-06
1.30187e-05
-1.9362e-06
1.29459e-05
-2.74502e-06
1.28399e-05
-3.56048e-06
1.28743e-05
-2.32362e-06
1.30021e-05
-1.01754e-06
1.3223e-05
-1.97166e-06
1.29342e-05
-2.95275e-06
1.27908e-05
-3.76543e-06
1.28342e-05
-2.61096e-06
1.28662e-05
-1.5669e-06
1.28837e-05
-2.00112e-06
1.2785e-05
-2.81552e-06
1.2878e-05
-3.81927e-06
1.2792e-05
-2.70874e-06
1.26726e-05
-1.31378e-06
1.28061e-05
-1.7291e-06
1.28139e-05
-2.64589e-06
1.27645e-05
-2.73559e-06
1.27752e-05
-1.91772e-06
1.27956e-05
-1.74385e-06
1.28487e-05
-2.04315e-06
1.28602e-05
-2.18547e-06
1.2839e-05
-2.73193e-06
1.2787e-05
-2.83077e-06
1.2776e-05
-2.63419e-06
1.27662e-05
-2.38026e-06
1.2765e-05
-2.15171e-06
1.27233e-05
-2.89005e-06
1.25775e-05
-3.60433e-06
1.24842e-05
-3.47014e-06
1.24247e-05
-3.05297e-06
1.24855e-05
-2.45941e-06
1.25287e-05
-1.61308e-06
1.25953e-05
-1.75764e-06
1.26346e-05
-1.97292e-06
1.26674e-05
-1.96921e-06
1.27045e-05
-2.17648e-06
1.26812e-05
-2.44815e-06
1.27415e-05
-2.55152e-06
1.26746e-05
-1.68887e-06
1.28013e-05
-1.88768e-06
1.27509e-05
-1.5124e-06
1.29309e-05
-2.10062e-06
1.28199e-05
-1.47996e-06
1.30617e-05
-2.50233e-06
1.2934e-05
-3.20923e-06
1.26035e-05
-3.60106e-06
1.26279e-05
-3.83021e-06
1.24598e-05
-2.82648e-06
1.25397e-05
-2.50665e-06
1.25337e-05
-1.57838e-06
1.26455e-05
-2.11406e-06
1.25074e-05
-2.39438e-06
1.2587e-05
-2.8728e-06
1.25035e-05
-2.09323e-06
1.25431e-05
-3.1531e-06
1.2339e-05
-3.58184e-06
1.24439e-05
-3.28448e-06
1.25329e-05
-1.50611e-06
1.24109e-05
-5.74175e-07
1.2608e-05
-1.87126e-06
1.26047e-05
-1.98494e-06
1.26824e-05
-2.35803e-06
1.26537e-05
-1.87516e-06
1.27352e-05
-2.05005e-06
1.25902e-05
-2.77214e-06
1.25347e-05
-3.9274e-06
1.25728e-05
-3.52491e-06
1.24987e-05
-2.46584e-06
1.25401e-05
-2.15295e-06
1.26144e-05
-1.93284e-06
1.26386e-05
-1.82379e-06
1.26769e-05
-1.85665e-06
1.26968e-05
-1.81405e-06
1.27215e-05
-1.87455e-06
1.28285e-05
-1.93042e-06
1.42588e-05
-4.32265e-06
1.52197e-05
-3.65114e-06
1.4542e-05
-9.65318e-07
1.43683e-05
-2.14415e-06
-2.27148e-06
2.13301e-05
1.8832e-05
1.89019e-05
5.8953e-06
1.76081e-05
3.54165e-07
1.70305e-05
-1.42443e-06
1.66262e-05
-1.69786e-06
1.6389e-05
-1.89238e-06
1.62289e-05
-2.05428e-06
1.61291e-05
-2.14489e-06
1.60677e-05
-2.23001e-06
1.60384e-05
-2.28144e-06
1.60258e-05
-2.31986e-06
1.60296e-05
-2.34403e-06
1.60465e-05
-2.37688e-06
1.60709e-05
-2.38858e-06
1.6105e-05
-2.40821e-06
1.61452e-05
-2.42066e-06
1.61919e-05
-2.43392e-06
1.62426e-05
-2.44091e-06
1.62964e-05
-2.44791e-06
1.63555e-05
-2.45982e-06
1.64188e-05
-2.46827e-06
1.6485e-05
-2.47426e-06
1.65538e-05
-2.47946e-06
1.6624e-05
-2.48179e-06
1.66967e-05
-2.48715e-06
1.67689e-05
-2.48555e-06
1.68351e-05
-2.47215e-06
1.68933e-05
-2.45282e-06
1.69434e-05
-2.43425e-06
1.69862e-05
-2.41719e-06
1.70225e-05
-2.40259e-06
1.70532e-05
-2.38977e-06
1.7079e-05
-2.37905e-06
1.71007e-05
-2.36982e-06
1.71189e-05
-2.3622e-06
1.71342e-05
-2.35575e-06
1.7147e-05
-2.35041e-06
1.71578e-05
-2.34599e-06
1.71668e-05
-2.34228e-06
1.71745e-05
-2.33927e-06
1.71809e-05
-2.33668e-06
1.71864e-05
-2.33463e-06
1.71911e-05
-2.33294e-06
1.71951e-05
-2.3314e-06
1.71986e-05
-2.33038e-06
1.72014e-05
-2.3288e-06
1.72039e-05
-2.3284e-06
1.72061e-05
-2.3274e-06
1.7208e-05
-2.32721e-06
1.72094e-05
-2.32553e-06
1.72108e-05
-2.3267e-06
1.72116e-05
-2.32287e-06
1.72129e-05
-2.32844e-06
1.72134e-05
-2.31868e-06
1.72151e-05
-2.33406e-06
1.72148e-05
-2.30973e-06
1.72222e-05
-2.36033e-06
1.72649e-05
-2.37848e-06
1.72409e-05
-2.30603e-06
1.58212e-05
1.34189e-06
1.45803e-05
1.18966e-07
1.47138e-05
-3.69694e-06
1.48579e-05
-3.22051e-06
1.49446e-05
-3.06675e-06
1.49621e-05
-2.85606e-06
1.49665e-05
-2.8376e-06
1.49528e-05
-2.78931e-06
1.49116e-05
-2.72247e-06
1.49298e-05
-2.63061e-06
1.49352e-05
-2.23266e-06
1.49895e-05
-2.40302e-06
1.50322e-05
-2.45327e-06
1.50275e-05
-2.89134e-06
1.5007e-05
-3.13967e-06
1.50227e-05
-2.56402e-06
1.49726e-05
-2.78351e-06
1.48767e-05
-3.49346e-06
1.4866e-05
-2.91885e-06
1.49063e-05
-1.96416e-06
1.49466e-05
-1.79356e-06
1.49882e-05
-1.72859e-06
1.51364e-05
-2.39317e-06
1.49112e-05
-1.76784e-06
1.505e-05
-3.82213e-06
1.49045e-05
-3.13187e-06
1.4712e-05
-2.79084e-06
1.48071e-05
-3.66402e-06
1.47747e-05
-2.2771e-06
1.49765e-05
-1.77628e-06
1.48218e-05
-4.55476e-07
1.49089e-05
-2.23225e-06
1.4899e-05
-1.93195e-06
1.49905e-05
-2.26941e-06
1.49126e-05
-2.90636e-06
1.47304e-05
-3.4338e-06
1.47345e-05
-2.93638e-06
1.47822e-05
-1.69955e-06
1.48291e-05
-2.01081e-06
1.47449e-05
-2.73861e-06
1.4708e-05
-3.18339e-06
1.48014e-05
-1.77344e-06
1.51084e-05
-1.48581e-06
1.46696e-05
-2.95972e-07
1.49481e-05
-4.20846e-06
1.55891e-05
-5.64671e-06
1.50097e-05
-5.9458e-07
1.4632e-05
-4.34374e-07
1.48044e-05
-2.00191e-06
1.48434e-05
-1.98621e-06
1.48437e-05
-2.9194e-06
1.48381e-05
-3.07207e-06
1.49205e-05
-1.61101e-06
1.5132e-05
-9.59527e-07
1.51191e-05
-1.2852e-06
1.5013e-05
-1.92458e-06
1.5003e-05
-2.05522e-06
1.51118e-05
-2.35846e-06
1.50752e-05
-1.86923e-06
1.52267e-05
-2.18062e-06
1.51886e-05
-1.82987e-06
1.50831e-05
-2.68389e-06
1.53761e-05
-4.11583e-06
1.53269e-05
-1.31642e-06
1.51524e-05
-5.39676e-07
1.51243e-05
-2.66398e-06
1.50801e-05
-3.48427e-06
1.50414e-05
-2.38133e-06
1.51738e-05
-1.63405e-06
1.52412e-05
-1.72152e-06
1.51863e-05
-1.82285e-06
1.52888e-05
-1.97658e-06
1.52505e-05
-2.06126e-06
1.51078e-05
-2.87001e-06
1.57481e-05
-5.3185e-06
1.5547e-05
-6.12354e-07
1.51959e-05
1.58009e-07
1.52675e-05
-2.26123e-06
1.52723e-05
-2.31695e-06
1.52925e-05
-2.82615e-06
1.52475e-05
-2.5475e-06
1.53228e-05
-2.11778e-06
1.5338e-05
-1.73064e-06
1.53617e-05
-1.80572e-06
1.5457e-05
-2.03869e-06
1.55169e-05
-2.92723e-06
1.53048e-05
-2.13802e-06
1.54079e-05
-2.22448e-06
1.5404e-05
-1.80132e-06
1.54295e-05
-2.64543e-06
1.54231e-05
-2.41212e-06
1.54433e-05
-1.70912e-06
1.55676e-05
-1.43592e-06
1.56508e-05
-1.60408e-06
1.55477e-05
-1.83234e-06
1.56039e-05
-2.65479e-06
1.56092e-05
-1.94289e-06
1.57049e-05
-1.90127e-06
1.57159e-05
-1.88856e-06
1.57405e-05
-2.33547e-06
1.57421e-05
-2.08677e-06
1.57779e-05
-2.07825e-06
1.57552e-05
-1.8956e-06
1.57915e-05
-2.06921e-06
1.57836e-05
-2.13538e-06
1.5762e-05
-2.65779e-06
1.57317e-05
-2.70877e-06
1.57364e-05
-2.4536e-06
1.57846e-05
-2.31729e-06
1.57243e-05
-1.49025e-06
1.58724e-05
-2.24431e-06
1.57876e-05
-1.52877e-06
1.59602e-05
-2.12842e-06
1.61157e-05
-2.21719e-06
1.6081e-05
-2.87429e-06
1.5802e-05
-2.20276e-06
1.58547e-05
-2.27816e-06
1.5888e-05
-2.10143e-06
1.58504e-05
-2.59429e-06
1.58669e-05
-2.53845e-06
1.5846e-05
-1.70133e-06
1.58519e-05
-2.93622e-06
1.57139e-05
-3.65661e-06
1.5713e-05
-3.29684e-06
1.54995e-05
-1.70019e-06
1.56306e-05
-3.05812e-06
1.62582e-05
-5.32263e-06
1.56877e-05
-7.4575e-07
1.55399e-05
-1.38931e-06
1.55918e-05
-1.63231e-06
1.56833e-05
-2.02684e-06
1.56818e-05
-1.78218e-06
1.57756e-05
-1.92628e-06
1.58203e-05
-1.93055e-06
1.57871e-05
-1.95602e-06
1.5841e-05
-2.49176e-06
1.57486e-05
-2.20038e-06
1.58426e-05
-2.97065e-06
1.57438e-05
-2.02173e-06
1.58601e-05
-2.86596e-06
1.56805e-05
-2.15611e-06
1.57537e-05
-3.59434e-06
1.55824e-05
-1.99296e-06
1.578e-05
-2.24716e-06
1.57011e-05
-1.23837e-06
1.58969e-05
-2.32791e-06
1.59275e-05
-1.84832e-06
1.57795e-05
-1.38739e-06
1.60298e-05
-2.44951e-06
1.58678e-05
-1.48509e-06
1.57555e-05
-2.30874e-06
1.64764e-05
-4.17082e-06
1.64236e-05
-2.82691e-07
1.60022e-05
2.48003e-08
1.60732e-05
-3.40695e-06
1.59323e-05
-2.50956e-06
1.60971e-05
-2.39781e-06
1.60647e-05
-1.66979e-06
1.60562e-05
-2.75743e-06
1.60368e-05
-2.41112e-06
1.6095e-05
-1.99433e-06
1.60359e-05
-2.68594e-06
1.5943e-05
-3.46761e-06
1.5965e-05
-2.34557e-06
1.60906e-05
-1.14317e-06
1.62984e-05
-2.17944e-06
1.60544e-05
-2.70879e-06
1.59067e-05
-3.61771e-06
1.59324e-05
-2.63671e-06
1.59595e-05
-1.59396e-06
1.59702e-05
-2.01178e-06
1.58935e-05
-2.73887e-06
1.59849e-05
-3.91068e-06
1.59283e-05
-2.65217e-06
1.5815e-05
-1.20045e-06
1.59102e-05
-1.82428e-06
1.59247e-05
-2.66038e-06
1.58823e-05
-2.69317e-06
1.58835e-05
-1.91898e-06
1.59061e-05
-1.76646e-06
1.59578e-05
-2.09484e-06
1.59642e-05
-2.19185e-06
1.59359e-05
-2.70363e-06
1.58813e-05
-2.77612e-06
1.58692e-05
-2.62217e-06
1.58605e-05
-2.37154e-06
1.58646e-05
-2.1558e-06
1.58395e-05
-2.86496e-06
1.57114e-05
-3.47618e-06
1.56137e-05
-3.37249e-06
1.55511e-05
-2.99033e-06
1.55924e-05
-2.50072e-06
1.56295e-05
-1.65015e-06
1.57024e-05
-1.83059e-06
1.57509e-05
-2.02137e-06
1.57857e-05
-2.00409e-06
1.582e-05
-2.21076e-06
1.58031e-05
-2.4312e-06
1.58511e-05
-2.59956e-06
1.58087e-05
-1.64651e-06
1.59086e-05
-1.98753e-06
1.58702e-05
-1.47399e-06
1.60183e-05
-2.24873e-06
1.59267e-05
-1.3884e-06
1.61361e-05
-2.71175e-06
1.60553e-05
-3.12838e-06
1.57607e-05
-3.30647e-06
1.57452e-05
-3.81468e-06
1.56165e-05
-2.69781e-06
1.56655e-05
-2.55568e-06
1.56605e-05
-1.5734e-06
1.57634e-05
-2.21688e-06
1.56554e-05
-2.28647e-06
1.57071e-05
-2.92451e-06
1.5632e-05
-2.01811e-06
1.56618e-05
-3.18289e-06
1.54898e-05
-3.40979e-06
1.5573e-05
-3.36772e-06
1.56719e-05
-1.60499e-06
1.55862e-05
-4.88526e-07
1.57432e-05
-2.02821e-06
1.57436e-05
-1.98537e-06
1.58015e-05
-2.41594e-06
1.57826e-05
-1.85622e-06
1.58489e-05
-2.11635e-06
1.5731e-05
-2.65422e-06
1.56918e-05
-3.88826e-06
1.5735e-05
-3.5681e-06
1.5674e-05
-2.40484e-06
1.57041e-05
-2.18301e-06
1.57681e-05
-1.99682e-06
1.57917e-05
-1.84739e-06
1.58229e-05
-1.88792e-06
1.5846e-05
-1.83715e-06
1.58488e-05
-1.87733e-06
1.59828e-05
-2.06438e-06
1.74552e-05
-5.79505e-06
1.85696e-05
-4.76552e-06
1.8113e-05
-5.0873e-07
1.79121e-05
-1.94332e-06
-2.20635e-06
2.32819e-05
1.88835e-05
2.18361e-05
7.34113e-06
2.06517e-05
1.53852e-06
1.97911e-05
-5.63795e-07
1.91821e-05
-1.08887e-06
1.8828e-05
-1.5383e-06
1.85866e-05
-1.81282e-06
1.84382e-05
-1.99652e-06
1.83411e-05
-2.13292e-06
1.82866e-05
-2.22692e-06
1.8255e-05
-2.28823e-06
1.82472e-05
-2.33626e-06
1.82549e-05
-2.38461e-06
1.82735e-05
-2.40718e-06
1.83042e-05
-2.4389e-06
1.8343e-05
-2.4594e-06
1.83901e-05
-2.48108e-06
1.84427e-05
-2.4935e-06
1.84992e-05
-2.50441e-06
1.85619e-05
-2.52254e-06
1.86296e-05
-2.53594e-06
1.87011e-05
-2.54571e-06
1.87756e-05
-2.554e-06
1.88522e-05
-2.55835e-06
1.89318e-05
-2.56677e-06
1.90104e-05
-2.5641e-06
1.9082e-05
-2.5438e-06
1.91451e-05
-2.51589e-06
1.91998e-05
-2.48894e-06
1.92467e-05
-2.46415e-06
1.92868e-05
-2.44269e-06
1.93208e-05
-2.42376e-06
1.93495e-05
-2.40778e-06
1.93738e-05
-2.39404e-06
1.93941e-05
-2.38258e-06
1.94113e-05
-2.37289e-06
1.94257e-05
-2.3648e-06
1.94378e-05
-2.35813e-06
1.9448e-05
-2.35247e-06
1.94567e-05
-2.34793e-06
1.94639e-05
-2.34393e-06
1.94701e-05
-2.34085e-06
1.94754e-05
-2.3382e-06
1.94799e-05
-2.33593e-06
1.94838e-05
-2.33427e-06
1.9487e-05
-2.33199e-06
1.94899e-05
-2.33128e-06
1.94923e-05
-2.32985e-06
1.94944e-05
-2.32933e-06
1.94961e-05
-2.3272e-06
1.94975e-05
-2.32807e-06
1.94986e-05
-2.32403e-06
1.94998e-05
-2.32955e-06
1.95006e-05
-2.31954e-06
1.95016e-05
-2.33509e-06
1.95027e-05
-2.31079e-06
1.95074e-05
-2.36508e-06
1.95546e-05
-2.42567e-06
1.95162e-05
-2.26761e-06
1.82087e-05
2.64943e-06
1.69447e-05
1.38293e-06
1.68858e-05
-3.63807e-06
1.69737e-05
-3.3084e-06
1.70574e-05
-3.15042e-06
1.70797e-05
-2.87836e-06
1.70912e-05
-2.84912e-06
1.70867e-05
-2.78484e-06
1.70534e-05
-2.68909e-06
1.70651e-05
-2.64236e-06
1.70708e-05
-2.23838e-06
1.7124e-05
-2.45621e-06
1.71694e-05
-2.49864e-06
1.71758e-05
-2.89773e-06
1.71663e-05
-3.13019e-06
1.71849e-05
-2.58261e-06
1.71467e-05
-2.74526e-06
1.70638e-05
-3.41055e-06
1.70516e-05
-2.90666e-06
1.70904e-05
-2.00298e-06
1.7135e-05
-1.83816e-06
1.71765e-05
-1.77007e-06
1.72968e-05
-2.5135e-06
1.7115e-05
-1.58608e-06
1.72231e-05
-3.93022e-06
1.71074e-05
-3.01611e-06
1.69296e-05
-2.61313e-06
1.69907e-05
-3.7251e-06
1.69818e-05
-2.26813e-06
1.71649e-05
-1.95944e-06
1.70436e-05
-3.34118e-07
1.70969e-05
-2.28564e-06
1.7088e-05
-1.92301e-06
1.71636e-05
-2.34499e-06
1.71019e-05
-2.84471e-06
1.69432e-05
-3.27502e-06
1.69379e-05
-2.93108e-06
1.69774e-05
-1.73904e-06
1.70179e-05
-2.05139e-06
1.69491e-05
-2.66976e-06
1.69122e-05
-3.14647e-06
1.6999e-05
-1.8603e-06
1.72681e-05
-1.75492e-06
1.69375e-05
3.46822e-08
1.71588e-05
-4.42977e-06
1.76973e-05
-6.18523e-06
1.72569e-05
-1.54168e-07
1.69019e-05
-7.93898e-08
1.69957e-05
-2.09565e-06
1.70243e-05
-2.01484e-06
1.70228e-05
-2.9179e-06
1.70154e-05
-3.06466e-06
1.70993e-05
-1.69492e-06
1.72981e-05
-1.15833e-06
1.73007e-05
-1.28776e-06
1.7203e-05
-1.82686e-06
1.7187e-05
-2.03926e-06
1.72772e-05
-2.44872e-06
1.72504e-05
-1.84236e-06
1.73783e-05
-2.30857e-06
1.73564e-05
-1.80794e-06
1.72681e-05
-2.59561e-06
1.75135e-05
-4.36117e-06
1.75042e-05
-1.3072e-06
1.73502e-05
-3.85668e-07
1.72945e-05
-2.60827e-06
1.7249e-05
-3.43881e-06
1.7216e-05
-2.34833e-06
1.73308e-05
-1.74877e-06
1.73935e-05
-1.78421e-06
1.73461e-05
-1.77554e-06
1.74362e-05
-2.06663e-06
1.74076e-05
-2.03262e-06
1.73049e-05
-2.76732e-06
1.78657e-05
-5.87932e-06
1.77362e-05
-4.82861e-07
1.7414e-05
4.80166e-07
1.74307e-05
-2.27791e-06
1.743e-05
-2.31621e-06
1.74459e-05
-2.84208e-06
1.74105e-05
-2.51207e-06
1.74694e-05
-2.17668e-06
1.74852e-05
-1.74644e-06
1.75102e-05
-1.83072e-06
1.7594e-05
-2.12252e-06
1.76483e-05
-2.9815e-06
1.74756e-05
-1.96531e-06
1.75519e-05
-2.30083e-06
1.75512e-05
-1.80061e-06
1.75674e-05
-2.66161e-06
1.75621e-05
-2.40681e-06
1.75788e-05
-1.72585e-06
1.76905e-05
-1.54762e-06
1.77721e-05
-1.68568e-06
1.7691e-05
-1.75126e-06
1.77306e-05
-2.6943e-06
1.7742e-05
-1.95432e-06
1.78248e-05
-1.98412e-06
1.7839e-05
-1.90268e-06
1.78604e-05
-2.35695e-06
1.78663e-05
-2.09265e-06
1.78943e-05
-2.10622e-06
1.78736e-05
-1.87489e-06
1.79018e-05
-2.09743e-06
1.78955e-05
-2.12908e-06
1.78787e-05
-2.64105e-06
1.78545e-05
-2.6845e-06
1.78569e-05
-2.45602e-06
1.79015e-05
-2.36189e-06
1.78627e-05
-1.45146e-06
1.79795e-05
-2.36113e-06
1.79201e-05
-1.4693e-06
1.80634e-05
-2.27179e-06
1.82133e-05
-2.36709e-06
1.81987e-05
-2.85972e-06
1.79538e-05
-1.95783e-06
1.79767e-05
-2.30101e-06
1.8003e-05
-2.12779e-06
1.7965e-05
-2.55623e-06
1.79777e-05
-2.55113e-06
1.79758e-05
-1.69944e-06
1.79757e-05
-2.93615e-06
1.78499e-05
-3.5308e-06
1.7847e-05
-3.29397e-06
1.76901e-05
-1.54325e-06
1.78001e-05
-3.16815e-06
1.83223e-05
-5.84485e-06
1.78763e-05
-2.99717e-07
1.77101e-05
-1.22308e-06
1.77407e-05
-1.66299e-06
1.78157e-05
-2.10179e-06
1.78178e-05
-1.78427e-06
1.78997e-05
-2.00815e-06
1.79447e-05
-1.97563e-06
1.79133e-05
-1.92454e-06
1.79556e-05
-2.53405e-06
1.78876e-05
-2.1324e-06
1.79656e-05
-3.04863e-06
1.78933e-05
-1.9495e-06
1.79775e-05
-2.95016e-06
1.78406e-05
-2.01915e-06
1.78892e-05
-3.64298e-06
1.77507e-05
-1.85446e-06
1.79062e-05
-2.40266e-06
1.78476e-05
-1.17978e-06
1.80112e-05
-2.4915e-06
1.80522e-05
-1.8893e-06
1.79305e-05
-1.26573e-06
1.81348e-05
-2.65377e-06
1.80151e-05
-1.36544e-06
1.7919e-05
-2.21263e-06
1.85322e-05
-4.78402e-06
1.85382e-05
-2.88697e-07
1.81754e-05
3.87619e-07
1.81882e-05
-3.41969e-06
1.80644e-05
-2.38577e-06
1.81966e-05
-2.53008e-06
1.81763e-05
-1.64945e-06
1.81619e-05
-2.74302e-06
1.81462e-05
-2.39545e-06
1.81961e-05
-2.04417e-06
1.8146e-05
-2.63588e-06
1.80626e-05
-3.38425e-06
1.80835e-05
-2.36643e-06
1.8198e-05
-1.25773e-06
1.8377e-05
-2.35837e-06
1.81759e-05
-2.50767e-06
1.80359e-05
-3.47772e-06
1.80528e-05
-2.65367e-06
1.8075e-05
-1.61612e-06
1.80853e-05
-2.02214e-06
1.80306e-05
-2.68412e-06
1.81064e-05
-3.98649e-06
1.80683e-05
-2.61405e-06
1.79686e-05
-1.10077e-06
1.8031e-05
-1.88673e-06
1.80453e-05
-2.67461e-06
1.80126e-05
-2.66056e-06
1.80162e-05
-1.92256e-06
1.80407e-05
-1.79089e-06
1.80901e-05
-2.14423e-06
1.80953e-05
-2.19715e-06
1.80604e-05
-2.66868e-06
1.8003e-05
-2.71874e-06
1.7988e-05
-2.60714e-06
1.79786e-05
-2.36215e-06
1.79838e-05
-2.16099e-06
1.79636e-05
-2.84478e-06
1.78524e-05
-3.365e-06
1.77625e-05
-3.28263e-06
1.77011e-05
-2.92885e-06
1.77279e-05
-2.52754e-06
1.7764e-05
-1.68627e-06
1.78357e-05
-1.90229e-06
1.78854e-05
-2.0711e-06
1.79191e-05
-2.03772e-06
1.79493e-05
-2.24104e-06
1.79321e-05
-2.41401e-06
1.79725e-05
-2.6399e-06
1.79504e-05
-1.6244e-06
1.80308e-05
-2.06799e-06
1.80027e-05
-1.44583e-06
1.81164e-05
-2.36249e-06
1.80518e-05
-1.32374e-06
1.82289e-05
-2.88888e-06
1.81691e-05
-3.0686e-06
1.79059e-05
-3.04323e-06
1.78715e-05
-3.7803e-06
1.77769e-05
-2.60323e-06
1.78219e-05
-2.60066e-06
1.78253e-05
-1.57679e-06
1.79097e-05
-2.30132e-06
1.78189e-05
-2.1957e-06
1.78477e-05
-2.95328e-06
1.77867e-05
-1.95708e-06
1.78014e-05
-3.19763e-06
1.765e-05
-3.25836e-06
1.77131e-05
-3.43087e-06
1.78193e-05
-1.71113e-06
1.7773e-05
-4.42265e-07