/*--------------------------------*- C++ -*----------------------------------*\
| =========                 |                                                 |
| \\      /  F ield         | foam-extend: Open Source CFD                    |
|  \\    /   O peration     | Version:     3.2                                |
|   \\  /    A nd           | Web:         http://www.foam-extend.org         |
|    \\/     M anipulation  | For copyright notice see file Copyright         |
\*---------------------------------------------------------------------------*/
FoamFile
{
    version     2.0;
    format      ascii;
    class       areaVectorField;
    location    "50";
    object      aMeshCentreN;
}
// * * * * * * * * * * * * * * * * * * * * * * * * * * * * * * * * * * * * * //

dimensions      [0 0 0 0 0 0 0];

internalField   nonuniform List<vector> 
300
(
(0.025 0.01 -0.000125)
(0.075 0.01 -0.000375)
(0.125 0.01 -0.000625)
(0.175 0.01 -0.000875)
(0.225 0.01 -0.001125)
(0.275 0.01 -0.001375)
(0.325 0.01 -0.001625)
(0.375 0.01 -0.001875)
(0.425 0.01 -0.002125)
(0.475 0.01 -0.002375)
(0.525 0.01 -0.002625)
(0.575 0.01 -0.002875)
(0.625 0.01 -0.003125)
(0.675 0.01 -0.003375)
(0.725 0.01 -0.003625)
(0.775 0.01 -0.003875)
(0.825 0.01 -0.004125)
(0.875 0.01 -0.004375)
(0.925 0.01 -0.004625)
(0.975 0.01 -0.004875)
(1.025 0.01 -0.005125)
(1.075 0.01 -0.005375)
(1.125 0.01 -0.005625)
(1.175 0.01 -0.005875)
(1.225 0.01 -0.006125)
(1.275 0.01 -0.006375)
(1.325 0.01 -0.006625)
(1.375 0.01 -0.006875)
(1.425 0.01 -0.007125)
(1.475 0.01 -0.007375)
(1.525 0.01 -0.007625)
(1.575 0.01 -0.007875)
(1.625 0.01 -0.008125)
(1.675 0.01 -0.008375)
(1.725 0.01 -0.008625)
(1.775 0.01 -0.008875)
(1.825 0.01 -0.009125)
(1.875 0.01 -0.009375)
(1.925 0.01 -0.009625)
(1.975 0.01 -0.009875)
(2.025 0.01 -0.010125)
(2.075 0.01 -0.010375)
(2.125 0.01 -0.010625)
(2.175 0.01 -0.010875)
(2.225 0.01 -0.011125)
(2.275 0.01 -0.011375)
(2.325 0.01 -0.011625)
(2.375 0.01 -0.011875)
(2.425 0.01 -0.012125)
(2.475 0.01 -0.012375)
(2.525 0.01 -0.012625)
(2.575 0.01 -0.012875)
(2.625 0.01 -0.013125)
(2.675 0.01 -0.013375)
(2.725 0.01 -0.013625)
(2.775 0.01 -0.013875)
(2.825 0.01 -0.014125)
(2.875 0.01 -0.014375)
(2.925 0.01 -0.014625)
(2.975 0.01 -0.015398)
(3.025 0.01 -0.0168116)
(3.075 0.01 -0.017873)
(3.125 0.01 -0.0183434)
(3.175 0.01 -0.0186496)
(3.225 0.01 -0.0189118)
(3.275 0.01 -0.0191672)
(3.325 0.01 -0.0194164)
(3.375 0.01 -0.0196712)
(3.425 0.01 -0.0199184)
(3.475 0.01 -0.0201861)
(3.525 0.01 -0.0204637)
(3.575 0.01 -0.0207173)
(3.625 0.01 -0.020969)
(3.675 0.01 -0.0212169)
(3.725 0.01 -0.0214628)
(3.775 0.01 -0.021718)
(3.825 0.01 -0.0219732)
(3.875 0.01 -0.022212)
(3.925 0.01 -0.0224574)
(3.975 0.01 -0.0227027)
(4.025 0.01 -0.0229693)
(4.075 0.01 -0.0231707)
(4.125 0.01 -0.0234682)
(4.175 0.01 -0.0237248)
(4.225 0.01 -0.0238676)
(4.275 0.01 -0.0242101)
(4.325 0.01 -0.0244572)
(4.375 0.01 -0.0246456)
(4.425 0.01 -0.0248313)
(4.475 0.01 -0.0251204)
(4.525 0.01 -0.0254691)
(4.575 0.01 -0.0257158)
(4.625 0.01 -0.0259593)
(4.675 0.01 -0.0261751)
(4.725 0.01 -0.0264555)
(4.775 0.01 -0.0267131)
(4.825 0.01 -0.0269537)
(4.875 0.01 -0.0272099)
(4.925 0.01 -0.0274751)
(4.975 0.01 -0.0277162)
(5.025 0.01 -0.0279467)
(5.075 0.01 -0.0280948)
(5.125 0.01 -0.0284493)
(5.175 0.01 -0.0288333)
(5.225 0.01 -0.0285768)
(5.275 0.01 -0.0285641)
(5.325 0.01 -0.0292129)
(5.375 0.01 -0.0297029)
(5.425 0.01 -0.0299744)
(5.475 0.01 -0.0302245)
(5.525 0.01 -0.0304199)
(5.575 0.01 -0.0306335)
(5.625 0.01 -0.0308385)
(5.675 0.01 -0.031066)
(5.725 0.01 -0.0313835)
(5.775 0.01 -0.0317103)
(5.825 0.01 -0.0319491)
(5.875 0.01 -0.0322126)
(5.925 0.01 -0.0324609)
(5.975 0.01 -0.0326588)
(6.025 0.01 -0.0329756)
(6.075 0.01 -0.0331161)
(6.125 0.01 -0.0331981)
(6.175 0.01 -0.0335785)
(6.225 0.01 -0.0339763)
(6.275 0.01 -0.0342201)
(6.325 0.01 -0.0344561)
(6.375 0.01 -0.0347029)
(6.425 0.01 -0.0349241)
(6.475 0.01 -0.0352063)
(6.525 0.01 -0.0354753)
(6.575 0.01 -0.0356701)
(6.625 0.01 -0.0359906)
(6.675 0.01 -0.0359883)
(6.725 0.01 -0.0359524)
(6.775 0.01 -0.0365012)
(6.825 0.01 -0.0369699)
(6.875 0.01 -0.03722)
(6.925 0.01 -0.0374633)
(6.975 0.01 -0.0377107)
(7.025 0.01 -0.0379597)
(7.075 0.01 -0.0382028)
(7.125 0.01 -0.0384642)
(7.175 0.01 -0.0387074)
(7.225 0.01 -0.0388884)
(7.275 0.01 -0.0391615)
(7.325 0.01 -0.039465)
(7.375 0.01 -0.0397125)
(7.425 0.01 -0.0399729)
(7.475 0.01 -0.0402029)
(7.525 0.01 -0.0404599)
(7.575 0.01 -0.0407)
(7.625 0.01 -0.0409138)
(7.675 0.01 -0.0411981)
(7.725 0.01 -0.0414667)
(7.775 0.01 -0.0417049)
(7.825 0.01 -0.0419574)
(7.875 0.01 -0.042204)
(7.925 0.01 -0.0424587)
(7.975 0.01 -0.042711)
(8.025 0.01 -0.042959)
(8.075 0.01 -0.0432049)
(8.125 0.01 -0.0434556)
(8.175 0.01 -0.0437076)
(8.225 0.01 -0.0439659)
(8.275 0.01 -0.0442095)
(8.325 0.01 -0.0444637)
(8.375 0.01 -0.0446862)
(8.425 0.01 -0.0449599)
(8.475 0.01 -0.0452064)
(8.525 0.01 -0.0454605)
(8.575 0.01 -0.045717)
(8.625 0.01 -0.0458588)
(8.675 0.01 -0.0460263)
(8.725 0.01 -0.046356)
(8.775 0.01 -0.0467143)
(8.825 0.01 -0.0469593)
(8.875 0.01 -0.0472206)
(8.925 0.01 -0.0474572)
(8.975 0.01 -0.0477062)
(9.025 0.01 -0.0479638)
(9.075 0.01 -0.0482145)
(9.125 0.01 -0.0484291)
(9.175 0.01 -0.0487046)
(9.225 0.01 -0.0490573)
(9.275 0.01 -0.0489561)
(9.325 0.01 -0.0490415)
(9.375 0.01 -0.0495976)
(9.425 0.01 -0.0499648)
(9.475 0.01 -0.0502116)
(9.525 0.01 -0.0504617)
(9.575 0.01 -0.0507155)
(9.625 0.01 -0.0509327)
(9.675 0.01 -0.0512111)
(9.725 0.01 -0.0514583)
(9.775 0.01 -0.0517199)
(9.825 0.01 -0.0519598)
(9.875 0.01 -0.0522096)
(9.925 0.01 -0.0524533)
(9.975 0.01 -0.0527172)
(10.025 0.01 -0.0529654)
(10.075 0.01 -0.0532098)
(10.125 0.01 -0.0534552)
(10.175 0.01 -0.0537047)
(10.225 0.01 -0.0539612)
(10.275 0.01 -0.0541117)
(10.325 0.01 -0.0544554)
(10.375 0.01 -0.0547133)
(10.425 0.01 -0.0549)
(10.475 0.01 -0.0553065)
(10.525 0.01 -0.0553377)
(10.575 0.01 -0.0552718)
(10.625 0.01 -0.0557833)
(10.675 0.01 -0.0562127)
(10.725 0.01 -0.0564619)
(10.775 0.01 -0.05671)
(10.825 0.01 -0.0569363)
(10.875 0.01 -0.057215)
(10.925 0.01 -0.0574577)
(10.975 0.01 -0.0577075)
(11.025 0.01 -0.0579618)
(11.075 0.01 -0.0582216)
(11.125 0.01 -0.0584514)
(11.175 0.01 -0.0587034)
(11.225 0.01 -0.0589021)
(11.275 0.01 -0.059148)
(11.325 0.01 -0.0594715)
(11.375 0.01 -0.0597064)
(11.425 0.01 -0.0599549)
(11.475 0.01 -0.0602154)
(11.525 0.01 -0.0604715)
(11.575 0.01 -0.0606511)
(11.625 0.01 -0.0608)
(11.675 0.01 -0.061118)
(11.725 0.01 -0.0614584)
(11.775 0.01 -0.0617145)
(11.825 0.01 -0.0619605)
(11.875 0.01 -0.0622056)
(11.925 0.01 -0.062465)
(11.975 0.01 -0.0627199)
(12.025 0.01 -0.0629659)
(12.075 0.01 -0.0632133)
(12.125 0.01 -0.0634642)
(12.175 0.01 -0.0637167)
(12.225 0.01 -0.0639583)
(12.275 0.01 -0.0642106)
(12.325 0.01 -0.0644671)
(12.375 0.01 -0.0647215)
(12.425 0.01 -0.0649662)
(12.475 0.01 -0.0652155)
(12.525 0.01 -0.0654568)
(12.575 0.01 -0.0657016)
(12.625 0.01 -0.0659598)
(12.675 0.01 -0.0662068)
(12.725 0.01 -0.0664648)
(12.775 0.01 -0.0667113)
(12.825 0.01 -0.0669664)
(12.875 0.01 -0.0671942)
(12.925 0.01 -0.067454)
(12.975 0.01 -0.0677137)
(13.025 0.01 -0.0679686)
(13.075 0.01 -0.0681944)
(13.125 0.01 -0.068463)
(13.175 0.01 -0.0687044)
(13.225 0.01 -0.0688452)
(13.275 0.01 -0.069174)
(13.325 0.01 -0.06947)
(13.375 0.01 -0.0697106)
(13.425 0.01 -0.0699558)
(13.475 0.01 -0.0702051)
(13.525 0.01 -0.0704623)
(13.575 0.01 -0.0707175)
(13.625 0.01 -0.0709584)
(13.675 0.01 -0.0712109)
(13.725 0.01 -0.0714702)
(13.775 0.01 -0.0717248)
(13.825 0.01 -0.0719612)
(13.875 0.01 -0.0721073)
(13.925 0.01 -0.0724114)
(13.975 0.01 -0.0727164)
(14.025 0.01 -0.072955)
(14.075 0.01 -0.0732086)
(14.125 0.01 -0.0734607)
(14.175 0.01 -0.0737119)
(14.225 0.01 -0.0739657)
(14.275 0.01 -0.0742229)
(14.325 0.01 -0.07437)
(14.375 0.01 -0.0745256)
(14.425 0.01 -0.0747459)
(14.475 0.01 -0.0749693)
(14.525 0.01 -0.0752077)
(14.575 0.01 -0.0754551)
(14.625 0.01 -0.0757035)
(14.675 0.01 -0.0759406)
(14.725 0.01 -0.0761609)
(14.775 0.01 -0.0757726)
(14.825 0.01 -0.0747619)
(14.875 0.01 -0.074375)
(14.925 0.01 -0.074625)
(14.975 0.01 -0.074875)
)
;

boundaryField
{
    inlet
    {
        type            calculated;
        value           uniform (0 0 0);
    }
    outlet
    {
        type            calculated;
        value           uniform (0 0 0);
    }
    sideWall
    {
        type            empty;
    }
}


// ************************************************************************* //
