/*--------------------------------*- C++ -*----------------------------------*\
| =========                 |                                                 |
| \\      /  F ield         | foam-extend: Open Source CFD                    |
|  \\    /   O peration     | Version:     3.2                                |
|   \\  /    A nd           | Web:         http://www.foam-extend.org         |
|    \\/     M anipulation  | For copyright notice see file Copyright         |
\*---------------------------------------------------------------------------*/
FoamFile
{
    version     2.0;
    format      ascii;
    class       areaScalarField;
    location    "50";
    object      angBeta;
}
// * * * * * * * * * * * * * * * * * * * * * * * * * * * * * * * * * * * * * //

dimensions      [0 0 0 0 0 0 0];

internalField   nonuniform List<scalar> 
300
(
0.00499996
0.00499996
0.00499996
0.00499996
0.00499996
0.00499996
0.00499996
0.00499996
0.00499996
0.00499996
0.00499996
0.00499996
0.00499996
0.00499996
0.00499996
0.00499996
0.00499996
0.00499996
0.00499996
0.00499996
0.00499996
0.00499996
0.00499996
0.00499996
0.00499996
0.00499996
0.00499996
0.00499996
0.00499996
0.00499996
0.00499996
0.00499996
0.00499996
0.00499996
0.00499996
0.00499996
0.00499996
0.00499996
0.00499996
0.00499996
0.00499996
0.00499996
0.00499996
0.00499996
0.00499996
0.00499996
0.00499996
0.00499996
0.00499996
0.00499996
0.00499996
0.00499996
0.00499996
0.00499996
0.00499996
0.00499996
0.00499996
0.00499996
0.00499996
0.0259156
0.0306132
0.0118304
0.00698561
0.0052627
0.00522483
0.00499299
0.00497308
0.00521824
0.00467143
0.00603722
0.00506581
0.00507513
0.00499416
0.0049223
0.00491366
0.00529531
0.00491311
0.00463671
0.00517936
0.00463396
0.00602744
0.00202786
0.00987377
0.000388334
0.00532331
0.00837862
0.00150522
0.0060293
0.00139924
0.0101631
0.00378462
0.00608506
0.00365483
0.00497714
0.00623785
0.00406545
0.00556128
0.00468696
0.00592078
0.00372184
0.00549684
0.000427044
0.0137544
0.00160182
0.0118599
0.0113507
0.0145997
0.00500156
0.00585837
0.00414664
0.00366556
0.00488186
0.0033164
0.00578549
0.00691275
0.00616042
0.00338999
0.00714996
0.00278029
0.00513788
0.00753371
0.00191346
0.00519345
0.0100213
0.00589186
0.00385671
0.00558501
0.00428768
0.00455869
0.00673096
0.00402678
0.00376687
0.0090517
0.00914155
0.00770286
0.0142505
0.0044958
0.00550878
0.00422036
0.00567688
0.00428162
0.00544454
0.0050094
0.00471784
0.00252262
0.00840439
0.00373228
0.00616899
0.00424513
0.00495809
0.00532026
0.00428257
0.004272
0.00709821
0.00364497
0.00588251
0.00421933
0.00564244
0.00454496
0.00554737
0.00437442
0.00546313
0.00456391
0.00551529
0.00481636
0.00492594
0.00524309
0.00365872
0.00728821
0.00257241
0.00759084
0.00266864
0.00300354
0.00369785
0.00948605
0.00484747
0.00495263
0.00549781
0.0039677
0.0059912
0.00431142
0.00571745
0.00286836
0.00815228
0.00595251
0.0099974
0.0134117
0.00883007
0.00585655
0.00401569
0.00598892
0.00416377
0.00452561
0.00660852
0.00327991
0.00718542
0.00240994
0.00758089
0.00216586
0.00839057
0.00153785
0.00823765
0.00157915
0.00839988
0.0018597
0.00416185
0.00958463
0.000730945
0.00673726
0.00952082
0.00827255
0.00563601
0.0148237
0.00235
0.00762112
0.00229977
0.00675189
0.00439954
0.00530766
0.00468497
0.00548387
0.00490798
0.00428704
0.0057898
0.00216006
0.00767367
0.00526691
0.00413101
0.00580872
0.00460891
0.00563672
0.00154513
0.00441396
0.00830363
0.0053119
0.00493299
0.00490829
0.00489424
0.0054822
0.00471304
0.00512882
0.00476524
0.00526893
0.00483372
0.00482822
0.00526652
0.00499351
0.0051824
0.00460325
0.00537069
0.00428107
0.00550792
0.00482113
0.00505853
0.00525993
0.00460044
0.00560427
0.00350747
0.00688637
0.00349945
0.00669593
0.00233769
0.00840781
0.00124466
0.00438927
0.0087638
0.00307413
0.00654809
0.00326134
0.00671024
0.00357825
0.00662814
0.00301098
0.00708754
0.00328462
0.00689966
0.00255323
0.00329102
0.00887325
0.00332786
0.00621582
0.00392614
0.00616099
0.0038853
0.00626603
0.00402114
0.00186518
0.00435758
0.00445264
0.00448589
0.00504786
0.00485001
0.00508711
0.00439372
0.00441963
0.0199508
0.0204715
0.00499996
0.00499996
0.00499996
)
;

boundaryField
{
    inlet
    {
        type            calculated;
        value           uniform 0;
    }
    outlet
    {
        type            calculated;
        value           uniform 0;
    }
    sideWall
    {
        type            empty;
    }
}


// ************************************************************************* //
