/*--------------------------------*- C++ -*----------------------------------*\
| =========                 |                                                 |
| \\      /  F ield         | foam-extend: Open Source CFD                    |
|  \\    /   O peration     | Version:     3.2                                |
|   \\  /    A nd           | Web:         http://www.foam-extend.org         |
|    \\/     M anipulation  | For copyright notice see file Copyright         |
\*---------------------------------------------------------------------------*/
FoamFile
{
    version     2.0;
    format      ascii;
    class       areaVectorField;
    location    "50";
    object      aUf;
}
// * * * * * * * * * * * * * * * * * * * * * * * * * * * * * * * * * * * * * //

dimensions      [0 1 -1 0 0 0 0];

internalField   nonuniform List<vector> 
300
(
(1.00714 -1.72671e-25 0.0234798)
(0.805957 2.62999e-25 0.000106846)
(0.694254 1.06234e-25 -0.0037119)
(0.695069 0 -0.0037274)
(0.684496 -1.30685e-26 -0.00359646)
(0.684266 -1.05064e-26 -0.00346473)
(0.679002 -1.35658e-26 -0.00345898)
(0.678705 -4.18937e-27 -0.00340716)
(0.676838 0 -0.00342004)
(0.677526 -1.0884e-27 -0.00339889)
(0.677717 0 -0.00341461)
(0.678929 6.33833e-29 -0.00340954)
(0.680186 -7.70708e-28 -0.00342518)
(0.682142 -9.9616e-28 -0.00342983)
(0.683995 0 -0.00344116)
(0.686317 0 -0.00345223)
(0.688687 -2.10453e-27 -0.0034652)
(0.691336 2.26317e-27 -0.00347708)
(0.693963 0 -0.00349201)
(0.696826 0 -0.00350735)
(0.699847 0 -0.00352257)
(0.702956 3.1693e-27 -0.00353787)
(0.706156 0 -0.00355399)
(0.709387 0 -0.00356966)
(0.71264 0 -0.00358583)
(0.715953 3.70408e-27 -0.00360066)
(0.719058 -3.48108e-27 -0.00361372)
(0.72178 0 -0.00362327)
(0.724077 0 -0.00363179)
(0.725999 2.29545e-27 -0.00363862)
(0.7276 -1.95818e-27 -0.00364488)
(0.728927 0 -0.00364985)
(0.730035 0 -0.0036544)
(0.730945 0 -0.00365794)
(0.731712 -9.85401e-28 -0.00366123)
(0.732336 0 -0.00366372)
(0.732872 0 -0.00366611)
(0.733299 -5.8211e-28 -0.00366783)
(0.733681 0 -0.00366962)
(0.733974 0 -0.00367076)
(0.734255 0 -0.00367218)
(0.734453 -1.04801e-42 -0.00367286)
(0.734668 0 -0.00367408)
(0.734799 1.26004e-40 -0.00367438)
(0.734973 0 -0.00367544)
(0.735051 0 -0.00367549)
(0.735195 1.40453e-28 -0.00367658)
(0.735222 9.95088e-29 -0.00367616)
(0.735392 1.1128e-28 -0.00367788)
(0.735309 0 -0.00367558)
(0.735604 0 -0.00368054)
(0.735256 -1.24626e-29 -0.00367231)
(0.735914 0 -0.00368633)
(0.734938 -2.32457e-28 -0.00366386)
(0.736596 0 -0.00370057)
(0.733967 3.4224e-28 -0.00364103)
(0.738317 1.02467e-27 -0.00373953)
(0.731701 0 -0.00357677)
(0.744806 0 -0.00383467)
(0.719238 0 -0.0179433)
(0.613699 3.97946e-24 -0.0192954)
(0.622059 -9.47052e-25 -0.00892121)
(0.644432 1.06693e-24 -0.00531903)
(0.643438 0 -0.0042869)
(0.650387 0 -0.00417227)
(0.647566 5.80349e-25 -0.00405541)
(0.650549 -5.91515e-25 -0.00404755)
(0.647615 0 -0.00417425)
(0.648935 0 -0.00337199)
(0.64814 8.61924e-26 -0.00373181)
(0.647668 0 -0.00340178)
(0.652112 7.37919e-26 -0.00344753)
(0.652978 0 -0.00436684)
(0.65398 -5.92335e-30 -0.00488204)
(0.652675 -5.68455e-25 -0.00341705)
(0.654509 -6.37779e-25 -0.00449861)
(0.651811 1.17399e-24 -0.00606244)
(0.654872 -5.59464e-25 -0.0041424)
(0.649981 3.24737e-25 -0.00211506)
(0.659102 0 -0.00169838)
(0.645893 -7.51913e-25 -0.00269805)
(0.663514 -9.83967e-25 -0.00145817)
(0.650602 9.73423e-25 -0.00691976)
(0.644256 8.07457e-29 -0.00279523)
(0.67079 -1.06004e-28 -0.00571105)
(0.633754 0 -0.00655918)
(0.657892 0 -0.00276493)
(0.651164 -5.97791e-25 -0.00356772)
(0.661579 -2.1937e-25 0.000933901)
(0.653416 0 -0.0040864)
(0.644185 0 -0.00274307)
(0.652354 -9.76924e-25 -0.00379128)
(0.645193 0 -0.00198559)
(0.658167 0 -0.0049683)
(0.64351 -2.74717e-24 -0.00724189)
(0.647777 0 -0.00344412)
(0.646889 0 -0.00160957)
(0.652635 2.50662e-25 -0.00214283)
(0.644212 0 -0.00520154)
(0.654103 8.23377e-25 -0.00431596)
(0.642342 4.45704e-25 -0.00159065)
(0.662862 -1.80169e-25 0.00269706)
(0.65389 2.69602e-24 -0.00736834)
(0.613519 2.28219e-25 -0.00377461)
(0.694246 -4.30263e-24 0.00440056)
(0.685866 -2.20662e-24 -0.00639323)
(0.626269 0 -0.0060566)
(0.64374 0 -0.00194044)
(0.648673 0 -0.00376523)
(0.644509 -1.58034e-25 -0.00428423)
(0.652228 -1.03647e-24 -0.00332917)
(0.65126 -1.32837e-25 -0.000799392)
(0.655429 1.82986e-24 0.00089274)
(0.654305 1.3011e-24 -0.00232361)
(0.649891 -2.05682e-25 -0.00391693)
(0.643975 0 -0.00324318)
(0.652761 -3.40801e-25 -0.00182883)
(0.650444 -9.5284e-25 -0.00418273)
(0.646367 -8.54863e-25 -0.00114484)
(0.66067 0 -0.00250361)
(0.640546 2.84823e-28 -0.00571421)
(0.659446 0 -0.000760153)
(0.672064 0 -0.00145526)
(0.64644 2.2432e-24 -0.0039589)
(0.644246 -8.82082e-25 -0.00504235)
(0.652819 -8.52116e-25 -0.00497635)
(0.648231 0 -0.00350752)
(0.649031 0 -0.000758262)
(0.654164 1.13361e-24 -0.00152729)
(0.653361 0 -0.0036174)
(0.644334 1.24726e-24 -0.0016243)
(0.666446 0 -0.00235301)
(0.632136 -2.09353e-28 -0.00722664)
(0.666329 -3.21568e-24 0.00313001)
(0.693919 0 -0.00276264)
(0.633989 -4.31742e-24 -0.00557415)
(0.647487 -1.14968e-24 -0.00300178)
(0.649945 0 -0.00405165)
(0.651151 1.41412e-25 -0.00372957)
(0.650694 0 -0.00415792)
(0.6522 -3.91913e-25 -0.00208221)
(0.652925 6.18716e-25 -0.00247941)
(0.65373 0 -0.00237961)
(0.647511 1.50813e-24 -0.00237446)
(0.661843 0 -0.0026932)
(0.651113 0 -0.00592583)
(0.648271 -9.21853e-26 -0.00161913)
(0.654176 0 -0.00335994)
(0.64922 -3.69225e-25 -0.00371823)
(0.653223 1.06156e-25 -0.00342702)
(0.650763 2.61529e-29 -0.00205639)
(0.650097 -1.15011e-24 -0.000995209)
(0.658411 0 -0.00164098)
(0.648725 0 -0.00401912)
(0.650426 1.45106e-25 -0.00264713)
(0.653606 0 -0.00316335)
(0.652124 5.4343e-25 -0.00152511)
(0.654535 0 -0.00275334)
(0.653169 0 -0.00266743)
(0.65438 0 -0.00301191)
(0.653788 -1.28679e-25 -0.00222365)
(0.654377 6.69418e-26 -0.00271772)
(0.652962 0 -0.0020179)
(0.656028 -1.61216e-25 -0.00300163)
(0.651759 4.50511e-25 -0.00365308)
(0.657898 0 -0.00393722)
(0.649521 3.4201e-25 -0.00339812)
(0.663145 0 -0.00221975)
(0.648138 -1.12685e-24 -0.00348668)
(0.656338 1.12841e-25 -0.000847057)
(0.654726 -1.1508e-24 -0.00418293)
(0.652346 6.14354e-25 -0.00135774)
(0.662478 -3.47164e-25 -0.00145322)
(0.667019 0 -0.00352917)
(0.655314 -1.41769e-24 -0.00680186)
(0.64686 0 -0.00244825)
(0.659398 -6.27299e-26 -0.00256332)
(0.65174 4.39623e-25 -0.00419352)
(0.658061 2.0912e-25 -0.00289487)
(0.652827 -4.3246e-25 -0.00294413)
(0.653778 6.9932e-25 -0.0037851)
(0.656769 -3.1781e-24 -0.00615387)
(0.652585 5.43793e-25 -0.00325032)
(0.66367 1.5212e-25 -0.00528605)
(0.622361 0 -0.0046693)
(0.689319 3.26216e-24 0.00397477)
(0.678664 0 -0.00806345)
(0.636826 -3.93556e-25 -0.00418513)
(0.653456 0 -0.00247669)
(0.649755 0 -0.00173039)
(0.656546 -3.1138e-25 -0.00309725)
(0.648954 -1.45126e-24 -0.00193125)
(0.662458 7.71453e-25 -0.00254297)
(0.644577 -2.84267e-28 -0.00391138)
(0.65967 0 -0.00246288)
(0.64666 -4.98273e-25 -0.00512957)
(0.658541 0 -0.00235011)
(0.647573 8.72097e-25 -0.00436925)
(0.658587 -1.78624e-28 -0.00163955)
(0.649246 -1.0927e-24 -0.00554992)
(0.655896 3.92118e-25 -0.00284934)
(0.651332 -4.93955e-25 -0.00537512)
(0.651635 4.19373e-25 -9.15769e-05)
(0.65782 0 -0.00383225)
(0.64541 0 -0.000408859)
(0.67076 -6.80096e-29 -0.00193405)
(0.643785 4.02612e-25 -0.00494502)
(0.651066 7.78317e-26 0.000286298)
(0.670027 4.07616e-25 -0.00366079)
(0.632357 -1.11764e-24 -0.00616269)
(0.66556 1.72059e-27 0.00486665)
(0.699659 0 -0.00141897)
(0.634968 0 -0.00725211)
(0.653372 0 -0.00302498)
(0.654956 1.09197e-24 -0.00573969)
(0.653 -1.61731e-25 -0.000957326)
(0.660034 6.90345e-28 -0.00339684)
(0.651422 4.16092e-25 -0.00346315)
(0.658254 1.77966e-25 -0.00361466)
(0.654278 7.62385e-29 -0.00228391)
(0.65942 3.05833e-25 -0.00444791)
(0.653172 1.07507e-24 -0.0053492)
(0.660719 -2.53758e-25 -0.00240979)
(0.651659 -7.36887e-25 -0.00111856)
(0.665021 -3.01288e-25 -0.00064895)
(0.664583 0 -0.00684219)
(0.648912 1.1703e-24 -0.00600856)
(0.659793 3.46734e-25 -0.00275657)
(0.654176 -3.68211e-25 -0.00221089)
(0.657257 0 -0.00263987)
(0.652159 0 -0.00496331)
(0.655456 0 -0.00305476)
(0.668894 1.21831e-29 -0.00331541)
(0.651682 -1.28897e-24 -0.00386789)
(0.649129 0 -0.00227241)
(0.657855 0 -0.00377529)
(0.655089 8.32392e-25 -0.00390833)
(0.654916 -1.67636e-25 -0.00225136)
(0.65456 6.29872e-25 -0.00279328)
(0.655663 8.82501e-25 -0.00315954)
(0.65421 0 -0.00351465)
(0.654031 3.66664e-25 -0.00388228)
(0.655098 -5.52377e-25 -0.00434294)
(0.653622 1.31986e-29 -0.00371995)
(0.655806 0 -0.00323038)
(0.653226 0 -0.00304453)
(0.654335 -3.62864e-25 -0.00434305)
(0.652631 0 -0.00579243)
(0.652249 1.05656e-24 -0.00504126)
(0.651545 -6.41536e-25 -0.00488452)
(0.652303 0 -0.00282488)
(0.65489 3.81436e-25 -0.00199662)
(0.654011 0 -0.00203842)
(0.657597 8.60355e-25 -0.00310613)
(0.651834 8.10465e-25 -0.00311229)
(0.658631 0 -0.00302347)
(0.650323 -3.77757e-25 -0.00409978)
(0.660423 2.14612e-28 -0.00245572)
(0.650331 -2.38218e-25 -0.00306025)
(0.657982 0 -0.00137915)
(0.651395 1.45403e-24 -0.00347349)
(0.656986 0 -0.00133111)
(0.656527 0 -0.00466112)
(0.648061 -1.38138e-25 -0.000815917)
(0.674708 0 -0.00479345)
(0.645494 -2.87479e-24 -0.00849655)
(0.653812 4.0378e-28 -0.00446252)
(0.650167 -1.53075e-24 -0.00524395)
(0.652344 -3.44779e-25 -0.00208083)
(0.651496 0 -0.00274601)
(0.654719 0 -0.00190877)
(0.649211 -2.26862e-26 -0.00485924)
(0.651829 -1.94806e-25 -0.00261541)
(0.652478 0 -0.00407904)
(0.650856 6.44978e-25 -0.00345749)
(0.655756 4.21082e-28 -0.00711363)
(0.645746 4.18467e-25 -0.00281687)
(0.668562 3.93745e-25 -0.000332109)
(0.6472 2.80792e-24 -0.00324761)
(0.650632 1.26774e-24 -0.00158216)
(0.65317 0 -0.00342708)
(0.652966 0 -0.00224138)
(0.655713 -3.56324e-28 -0.00334898)
(0.65305 -4.49424e-25 -0.00208274)
(0.655417 -8.79037e-25 -0.00518682)
(0.647623 1.32521e-24 -0.00540969)
(0.661087 0 -0.00313179)
(0.659902 2.86684e-25 -0.00325134)
(0.654662 2.71465e-25 -0.0025979)
(0.659312 5.35668e-25 -0.00220786)
(0.657546 0 -0.0024563)
(0.66147 -5.35119e-25 -0.00238028)
(0.656317 -3.96242e-29 -0.00245659)
(0.66406 0 -0.00219268)
(0.652435 -1.12369e-24 -0.00198204)
(0.675878 4.341e-27 0.0131111)
(0.790182 0 0.0161604)
(0.763407 1.47098e-25 -0.00256182)
(0.726091 -2.0259e-26 -0.00387325)
(0.735478 0 -0.0036905)
)
;

boundaryField
{
    inlet
    {
        type            calculated;
        value           uniform (0 0 0);
    }
    outlet
    {
        type            calculated;
        value           uniform (0 0 0);
    }
    sideWall
    {
        type            empty;
    }
}


// ************************************************************************* //
