/*--------------------------------*- C++ -*----------------------------------*\
| =========                 |                                                 |
| \\      /  F ield         | foam-extend: Open Source CFD                    |
|  \\    /   O peration     | Version:     3.2                                |
|   \\  /    A nd           | Web:         http://www.foam-extend.org         |
|    \\/     M anipulation  | For copyright notice see file Copyright         |
\*---------------------------------------------------------------------------*/
FoamFile
{
    version     2.0;
    format      ascii;
    class       volScalarField;
    location    "50";
    object      C;
}
// * * * * * * * * * * * * * * * * * * * * * * * * * * * * * * * * * * * * * //

dimensions      [1 -3 0 0 0 0 0];

internalField   nonuniform List<scalar> 
5400
(
0.198
0.198
0.198
0.198
0.198
0.198
0.198
0.198
0.198
0.198
0.198
0.198
0.198
0.198
0.198
0.198
0.198
0.198
0.198
0.198
0.198
0.198
0.198
0.198
0.198
0.198
0.198
0.198
0.198
0.198
0.198
0.198
0.198
0.198
0.198
0.198
0.198
0.198
0.198
0.198
0.198
0.198
0.198
0.198
0.198
0.198
0.198
0.198
0.198
0.198
0.198
0.198
0.198
0.198
0.198
0.198
0.198
0.198
0.198
0.198
0.198502
0.198753
0.198833
0.19886
0.198851
0.19885
0.198841
0.198828
0.198839
0.195685
0.19946
0.195928
0.200198
0.201365
0.195415
0.196208
0.203561
0.199627
0.193994
0.198429
0.194334
0.197303
0.198247
0.192558
0.198471
0.194847
0.202394
0.195314
0.203509
0.194337
0.201223
0.199813
0.199739
0.196166
0.204646
0.200071
0.191712
0.198009
0.194775
0.198135
0.199207
0.194546
0.203563
0.18959
0.19623
0.193126
0.19694
0.196173
0.196736
0.199736
0.200345
0.19724
0.195881
0.197053
0.196433
0.194709
0.20216
0.191512
0.199601
0.200554
0.191208
0.198792
0.195826
0.194659
0.195945
0.197496
0.201176
0.194264
0.197094
0.197662
0.187524
0.201274
0.188414
0.198046
0.194584
0.194796
0.198227
0.19753
0.200935
0.199132
0.194281
0.198177
0.193697
0.196516
0.197099
0.198941
0.194087
0.196617
0.20012
0.200704
0.19375
0.199423
0.197713
0.197189
0.195797
0.19845
0.194302
0.197109
0.194129
0.195444
0.195867
0.198083
0.192936
0.196154
0.193288
0.199124
0.193368
0.197659
0.198504
0.195911
0.196946
0.196904
0.196401
0.19471
0.198806
0.19374
0.195449
0.194791
0.203971
0.193642
0.192041
0.197653
0.19673
0.206916
0.191218
0.19855
0.193528
0.200444
0.19684
0.197285
0.196851
0.196009
0.197283
0.19915
0.195195
0.195631
0.198244
0.193643
0.198554
0.192372
0.202729
0.198913
0.197526
0.196914
0.195863
0.197744
0.194963
0.188093
0.201117
0.190123
0.195913
0.193389
0.196452
0.198882
0.200462
0.194847
0.196591
0.19292
0.196773
0.191021
0.198478
0.193321
0.195989
0.193408
0.198551
0.19739
0.20098
0.196385
0.195813
0.195002
0.19936
0.197822
0.197271
0.197523
0.194236
0.195116
0.200729
0.193794
0.196302
0.199806
0.198584
0.197857
0.200143
0.195914
0.199059
0.193436
0.195644
0.199836
0.197219
0.198529
0.200939
0.191228
0.195842
0.196924
0.196053
0.195957
0.198611
0.200499
0.193974
0.192774
0.198914
0.196603
0.198205
0.198426
0.195703
0.20024
0.199704
0.203368
0.198504
0.194096
0.19387
0.200746
0.198546
0.196035
0.193172
0.203093
0.198597
0.198176
0.195698
0.199659
0.196202
0.194959
0.196952
0.19748
0.196465
0.200881
0.198621
0.198643
0.19669
0.196841
0.196869
0.196887
0.196951
0.196961
0.197012
0.197451
0.198137
0.198149
0.198171
0.198193
0.198
0.198
0.198
0.198
0.198
0.198
0.198
0.198
0.198
0.198
0.198
0.198
0.198
0.198
0.198
0.198
0.198
0.198
0.198
0.198
0.198
0.198
0.198
0.198
0.198
0.198
0.198
0.198
0.198
0.198
0.198
0.198
0.198
0.198
0.198
0.198
0.198
0.198
0.198
0.198
0.198
0.198
0.198
0.198
0.198
0.198
0.198
0.198
0.198
0.198
0.198
0.198
0.198
0.198
0.198
0.198
0.198
0.198
0.198
0.198
0.197975
0.197959
0.197947
0.197938
0.197932
0.197927
0.197922
0.197917
0.197917
0.197962
0.198164
0.19798
0.198751
0.197157
0.197649
0.198158
0.197456
0.197431
0.197177
0.198875
0.197319
0.19754
0.197442
0.19539
0.196463
0.195887
0.197768
0.19697
0.199058
0.197546
0.199087
0.198801
0.198228
0.19774
0.199336
0.197894
0.19654
0.198498
0.196699
0.196445
0.197292
0.197777
0.199947
0.195104
0.195202
0.194744
0.196161
0.196965
0.196674
0.197496
0.197958
0.19706
0.197779
0.197221
0.197659
0.197127
0.199453
0.196242
0.197885
0.19919
0.195849
0.196925
0.19606
0.196775
0.195692
0.196247
0.197395
0.196813
0.197231
0.197884
0.194059
0.198229
0.194299
0.195709
0.1951
0.196246
0.197032
0.197263
0.198197
0.197032
0.196576
0.19739
0.196638
0.19689
0.197664
0.19717
0.196426
0.197274
0.197372
0.19755
0.195822
0.198655
0.197663
0.198109
0.197377
0.197527
0.197091
0.197396
0.196981
0.197244
0.19733
0.197941
0.196709
0.197964
0.196494
0.1969
0.195924
0.196678
0.19815
0.197207
0.197497
0.19599
0.196937
0.196297
0.197096
0.196505
0.197218
0.196383
0.197888
0.1958
0.195019
0.19646
0.19669
0.200163
0.195956
0.196553
0.195157
0.197412
0.196861
0.197213
0.197145
0.196718
0.197287
0.197264
0.196959
0.196082
0.196612
0.196406
0.196854
0.196123
0.198606
0.196815
0.197599
0.197632
0.197742
0.197723
0.196822
0.194659
0.19888
0.195249
0.195838
0.195834
0.196521
0.197221
0.197891
0.196619
0.197094
0.196235
0.195526
0.195114
0.197078
0.194314
0.195298
0.19578
0.198046
0.197533
0.19775
0.196507
0.197473
0.197337
0.197547
0.1965
0.196658
0.196712
0.196038
0.196178
0.196366
0.196698
0.197294
0.197353
0.19739
0.196974
0.197106
0.196629
0.196643
0.196335
0.196501
0.196547
0.195976
0.196299
0.196648
0.195574
0.19685
0.196785
0.196038
0.196722
0.19703
0.197807
0.196696
0.196515
0.197521
0.197255
0.196669
0.198072
0.19711
0.197812
0.197545
0.19849
0.197177
0.196952
0.197008
0.198159
0.197021
0.197314
0.1965
0.197508
0.196922
0.197414
0.197537
0.197782
0.197224
0.19742
0.197613
0.197486
0.197102
0.197382
0.19757
0.197619
0.197705
0.197766
0.197804
0.197853
0.197909
0.197956
0.198006
0.19806
0.198073
0.198105
0.198133
0.198159
0.198
0.198
0.198
0.198
0.198
0.198
0.198
0.198
0.198
0.198
0.198
0.198
0.198
0.198
0.198
0.198
0.198
0.198
0.198
0.198
0.198
0.198
0.198
0.198
0.198
0.198
0.198
0.198
0.198
0.198
0.198
0.198
0.198
0.198
0.198
0.198
0.198
0.198
0.198
0.198
0.198
0.198
0.198
0.198
0.198
0.198
0.198
0.198
0.198
0.198
0.198
0.198
0.198
0.198
0.198
0.198
0.198
0.198
0.198
0.198
0.197997
0.197994
0.19799
0.197986
0.197981
0.197978
0.197974
0.19797
0.197971
0.197979
0.198
0.198045
0.19823
0.19777
0.197887
0.198103
0.197605
0.197748
0.197632
0.198375
0.197695
0.197542
0.197508
0.196486
0.196824
0.196642
0.197496
0.197479
0.19827
0.19784
0.198375
0.198328
0.198
0.197837
0.198576
0.19813
0.197395
0.198003
0.197101
0.196901
0.197463
0.197904
0.198734
0.196513
0.19601
0.195728
0.196348
0.19684
0.196827
0.197262
0.197647
0.197384
0.197618
0.197299
0.197568
0.197342
0.198352
0.197154
0.197568
0.198344
0.19692
0.197061
0.19669
0.19691
0.196306
0.196595
0.197196
0.196917
0.197026
0.197457
0.195759
0.197316
0.195771
0.196042
0.195743
0.196283
0.196754
0.197078
0.197569
0.197209
0.196867
0.197197
0.196971
0.196964
0.197383
0.197178
0.196742
0.197092
0.197022
0.197239
0.196358
0.197721
0.197473
0.197812
0.197371
0.197336
0.197289
0.197382
0.197241
0.197316
0.197357
0.197637
0.197217
0.197706
0.19691
0.196858
0.196428
0.196769
0.197615
0.19724
0.197256
0.196502
0.196902
0.19665
0.196999
0.196802
0.197027
0.196529
0.197139
0.196295
0.195905
0.196566
0.196832
0.198547
0.196837
0.196655
0.195946
0.196863
0.196638
0.196894
0.196936
0.196801
0.197044
0.197064
0.196991
0.196592
0.19685
0.196719
0.196825
0.196691
0.197639
0.196876
0.197175
0.197335
0.197497
0.197376
0.196975
0.196057
0.197822
0.196374
0.19632
0.196156
0.19647
0.196888
0.197449
0.196822
0.196972
0.196691
0.196075
0.19594
0.196636
0.195497
0.195789
0.196062
0.197147
0.197154
0.197487
0.19695
0.197288
0.197239
0.197116
0.196688
0.196767
0.196714
0.19629
0.196274
0.196426
0.196788
0.196995
0.196974
0.197101
0.196914
0.197008
0.196724
0.196748
0.196669
0.196667
0.196616
0.196338
0.196486
0.196587
0.196269
0.196674
0.196646
0.196374
0.196764
0.196919
0.197466
0.197008
0.196946
0.197101
0.197127
0.196726
0.197549
0.197215
0.197466
0.197416
0.197878
0.197372
0.197193
0.197189
0.197574
0.197245
0.197266
0.1969
0.197276
0.19715
0.197465
0.197469
0.197521
0.197362
0.197519
0.197462
0.197359
0.19726
0.197462
0.197573
0.197617
0.197646
0.197687
0.197726
0.197776
0.197831
0.197882
0.197934
0.197986
0.198022
0.198061
0.198095
0.198125
0.198
0.198
0.198
0.198
0.198
0.198
0.198
0.198
0.198
0.198
0.198
0.198
0.198
0.198
0.198
0.198
0.198
0.198
0.198
0.198
0.198
0.198
0.198
0.198
0.198
0.198
0.198
0.198
0.198
0.198
0.198
0.198
0.198
0.198
0.198
0.198
0.198
0.198
0.198
0.198
0.198
0.198
0.198
0.198
0.198
0.198
0.198
0.198
0.198
0.198
0.198
0.198
0.198
0.198
0.198
0.198
0.198
0.198
0.198
0.197999
0.197998
0.197997
0.197995
0.197992
0.197989
0.197987
0.197984
0.197981
0.197983
0.197982
0.19798
0.198027
0.198094
0.197957
0.197974
0.198041
0.197746
0.197837
0.197783
0.198145
0.197818
0.197649
0.197606
0.197033
0.197095
0.197024
0.197461
0.197622
0.198
0.197902
0.198121
0.19812
0.197957
0.197876
0.198266
0.198117
0.197692
0.197846
0.197344
0.197205
0.197575
0.197894
0.198275
0.197103
0.196562
0.1963
0.19659
0.196898
0.196985
0.197254
0.197536
0.197479
0.197563
0.197397
0.197525
0.197421
0.197922
0.197428
0.19752
0.197972
0.197305
0.197209
0.196991
0.197035
0.196692
0.196804
0.197123
0.196979
0.197026
0.197298
0.196473
0.197119
0.196409
0.196355
0.196147
0.19641
0.196705
0.196991
0.197328
0.197222
0.197017
0.197175
0.197071
0.197049
0.197263
0.19719
0.196928
0.197072
0.196993
0.19713
0.196678
0.197369
0.197386
0.197615
0.197366
0.197327
0.197331
0.197388
0.197321
0.197349
0.197374
0.19753
0.19736
0.197548
0.19708
0.196932
0.196722
0.196882
0.197388
0.197252
0.197204
0.196829
0.196978
0.196852
0.197004
0.196912
0.196973
0.196679
0.196958
0.196573
0.196338
0.196635
0.196847
0.197809
0.197063
0.196762
0.196312
0.196701
0.196619
0.196811
0.196888
0.196867
0.196986
0.197024
0.197018
0.196839
0.196939
0.196835
0.196859
0.196854
0.19723
0.19687
0.197007
0.19716
0.197286
0.19723
0.197034
0.196583
0.197412
0.196774
0.196578
0.196393
0.196544
0.19681
0.197173
0.196912
0.19696
0.196823
0.196407
0.196303
0.196566
0.196014
0.196095
0.196244
0.196808
0.196941
0.19722
0.19701
0.197141
0.197106
0.196979
0.196773
0.196775
0.196724
0.196454
0.196402
0.196501
0.19674
0.196848
0.19688
0.19698
0.196903
0.196948
0.196795
0.196797
0.196767
0.196731
0.196642
0.196499
0.196573
0.196619
0.196511
0.196652
0.196651
0.196565
0.196792
0.196906
0.197262
0.19708
0.197057
0.197045
0.197087
0.196868
0.197323
0.197211
0.197302
0.197291
0.197555
0.197336
0.197222
0.197203
0.197368
0.197251
0.197233
0.197039
0.197208
0.19722
0.197417
0.197426
0.197459
0.197416
0.197501
0.197435
0.197372
0.197346
0.197463
0.197546
0.19759
0.197618
0.197652
0.197689
0.197735
0.197788
0.19784
0.197893
0.197939
0.197977
0.19802
0.198058
0.198093
0.198
0.198
0.198
0.198
0.198
0.198
0.198
0.198
0.198
0.198
0.198
0.198
0.198
0.198
0.198
0.198
0.198
0.198
0.198
0.198
0.198
0.198
0.198
0.198
0.198
0.198
0.198
0.198
0.198
0.198
0.198
0.198
0.198
0.198
0.198
0.198
0.198
0.198
0.198
0.198
0.198
0.198
0.198
0.198
0.198
0.198
0.198
0.198
0.198
0.198
0.198
0.198
0.198
0.198
0.198
0.198
0.198
0.198
0.198
0.197999
0.197997
0.197995
0.197994
0.197992
0.19799
0.197988
0.197987
0.197984
0.197988
0.197987
0.19798
0.198014
0.198048
0.198014
0.198012
0.19801
0.197834
0.197881
0.197858
0.198042
0.197875
0.197736
0.197681
0.197333
0.197294
0.19726
0.197504
0.19768
0.197904
0.197915
0.198009
0.198019
0.197948
0.197894
0.198108
0.19807
0.197818
0.197812
0.1975
0.197405
0.197652
0.197873
0.198064
0.197388
0.196918
0.196683
0.196822
0.197014
0.197117
0.197294
0.197508
0.197529
0.19756
0.197465
0.197517
0.197462
0.197726
0.197513
0.197515
0.197786
0.197459
0.197316
0.197172
0.19715
0.196926
0.19695
0.197127
0.197054
0.197077
0.19725
0.196827
0.197107
0.196745
0.1966
0.196441
0.196563
0.196734
0.196955
0.197208
0.197208
0.197102
0.197181
0.197122
0.197105
0.197211
0.197196
0.197044
0.197089
0.197016
0.197095
0.196867
0.197234
0.197325
0.197487
0.197356
0.197336
0.197351
0.197388
0.197356
0.197369
0.197384
0.197481
0.197407
0.197469
0.197174
0.197029
0.196911
0.196984
0.197288
0.197253
0.197206
0.197008
0.197056
0.196975
0.197037
0.196984
0.196986
0.196802
0.196933
0.196739
0.196577
0.196701
0.196854
0.197432
0.197095
0.196821
0.196514
0.196674
0.196646
0.196792
0.196875
0.196897
0.196966
0.197008
0.197031
0.196948
0.196979
0.196901
0.196901
0.196911
0.197051
0.196863
0.196933
0.197054
0.19715
0.197144
0.197056
0.196812
0.197227
0.196929
0.196726
0.196566
0.196636
0.196798
0.19703
0.196947
0.196966
0.19688
0.196611
0.196516
0.196597
0.196299
0.196313
0.196387
0.196683
0.196812
0.197028
0.196974
0.197038
0.197008
0.19691
0.196801
0.196774
0.196734
0.196558
0.196497
0.196552
0.196703
0.196772
0.196826
0.196905
0.19688
0.196905
0.196819
0.196813
0.196799
0.196752
0.196665
0.196586
0.196626
0.196658
0.196626
0.196677
0.196682
0.196669
0.196809
0.196897
0.197137
0.197089
0.197081
0.197043
0.197068
0.196959
0.197214
0.197177
0.197204
0.197204
0.197364
0.197274
0.197211
0.19719
0.197264
0.19722
0.197207
0.197096
0.197184
0.197241
0.197379
0.197398
0.197428
0.197431
0.197477
0.19743
0.197395
0.197387
0.197454
0.19752
0.197564
0.197595
0.197627
0.197662
0.197705
0.197755
0.197806
0.197858
0.197901
0.19794
0.197984
0.198024
0.198062
0.198
0.198
0.198
0.198
0.198
0.198
0.198
0.198
0.198
0.198
0.198
0.198
0.198
0.198
0.198
0.198
0.198
0.198
0.198
0.198
0.198
0.198
0.198
0.198
0.198
0.198
0.198
0.198
0.198
0.198
0.198
0.198
0.198
0.198
0.198
0.198
0.198
0.198
0.198
0.198
0.198
0.198
0.198
0.198
0.198
0.198
0.198
0.198
0.198
0.198
0.198
0.198
0.198
0.198
0.198
0.198
0.198
0.198
0.198
0.197998
0.197995
0.197994
0.197993
0.197992
0.197991
0.197989
0.197988
0.197986
0.197991
0.197991
0.197984
0.198008
0.198028
0.198028
0.198027
0.197997
0.197885
0.197913
0.197907
0.198
0.197906
0.197795
0.197737
0.197513
0.197442
0.197423
0.19757
0.197718
0.197873
0.197917
0.197954
0.197968
0.197946
0.197903
0.198018
0.198025
0.197876
0.197816
0.197604
0.19754
0.197708
0.197856
0.197955
0.197536
0.197152
0.196957
0.197026
0.197142
0.197229
0.197353
0.197523
0.197573
0.197578
0.197514
0.197526
0.197489
0.19763
0.197537
0.197516
0.197688
0.197523
0.19739
0.197292
0.197245
0.19708
0.197063
0.197166
0.19713
0.197142
0.197251
0.197023
0.197146
0.196947
0.196787
0.196665
0.196712
0.196793
0.196952
0.197148
0.197195
0.197151
0.197194
0.197157
0.197143
0.197193
0.197201
0.197116
0.197112
0.197046
0.197093
0.196981
0.197182
0.197282
0.197403
0.19734
0.19734
0.197361
0.197387
0.197373
0.19738
0.197391
0.197455
0.197423
0.19743
0.197234
0.197114
0.19704
0.197067
0.197249
0.197255
0.197219
0.197109
0.197118
0.197059
0.197078
0.197044
0.197021
0.196896
0.196952
0.196847
0.196725
0.196765
0.196866
0.197226
0.197069
0.196849
0.196636
0.196694
0.196684
0.196795
0.196873
0.196909
0.196957
0.197
0.197035
0.196995
0.196999
0.196943
0.196936
0.196936
0.196969
0.196861
0.1969
0.196991
0.197064
0.197086
0.19706
0.196917
0.197132
0.196988
0.196809
0.196683
0.196719
0.196815
0.196962
0.19696
0.196976
0.196915
0.196742
0.196659
0.196659
0.196482
0.196474
0.196504
0.196646
0.196738
0.1969
0.19692
0.196962
0.196933
0.196861
0.196803
0.196773
0.196739
0.196622
0.196561
0.196588
0.196684
0.196729
0.19678
0.196848
0.196851
0.196867
0.196817
0.196812
0.196807
0.196757
0.196683
0.19664
0.196664
0.196694
0.196696
0.196711
0.196716
0.19673
0.196821
0.19689
0.197062
0.19708
0.197078
0.197042
0.197056
0.197007
0.197157
0.197141
0.19714
0.197145
0.197247
0.197221
0.197192
0.197169
0.1972
0.197188
0.197186
0.197122
0.197174
0.197248
0.197354
0.197376
0.197403
0.197428
0.197457
0.197425
0.197409
0.197407
0.197447
0.1975
0.197544
0.197577
0.197608
0.197641
0.197681
0.197727
0.197776
0.197827
0.197868
0.197906
0.197951
0.197993
0.198033
0.198
0.198
0.198
0.198
0.198
0.198
0.198
0.198
0.198
0.198
0.198
0.198
0.198
0.198
0.198
0.198
0.198
0.198
0.198
0.198
0.198
0.198
0.198
0.198
0.198
0.198
0.198
0.198
0.198
0.198
0.198
0.198
0.198
0.198
0.198
0.198
0.198
0.198
0.198
0.198
0.198
0.198
0.198
0.198
0.198
0.198
0.198
0.198
0.198
0.198
0.198
0.198
0.198
0.198
0.198
0.198
0.198
0.198
0.198
0.197998
0.197994
0.197992
0.197992
0.197991
0.197991
0.19799
0.197989
0.197987
0.197994
0.197995
0.197988
0.198004
0.198014
0.198027
0.198032
0.197989
0.197912
0.197939
0.197943
0.197988
0.197927
0.197835
0.197778
0.197625
0.197551
0.19754
0.197636
0.197753
0.197871
0.197917
0.197923
0.197941
0.197945
0.197904
0.197962
0.197992
0.197906
0.197829
0.197673
0.197633
0.197757
0.197849
0.197891
0.197613
0.197305
0.197159
0.197203
0.197269
0.197327
0.197414
0.19756
0.197623
0.197608
0.197552
0.197543
0.19751
0.197584
0.197543
0.197518
0.197633
0.197549
0.197442
0.197381
0.197324
0.197184
0.197152
0.19722
0.197204
0.197206
0.197276
0.197144
0.197194
0.197076
0.19693
0.196841
0.196848
0.196863
0.196967
0.19712
0.197188
0.197182
0.197209
0.197186
0.197169
0.197189
0.197209
0.197166
0.197134
0.197071
0.197103
0.197055
0.197167
0.197253
0.197346
0.197323
0.197339
0.197366
0.197384
0.197381
0.197387
0.197395
0.197442
0.197429
0.197412
0.197273
0.197182
0.197133
0.197135
0.197241
0.197261
0.197236
0.197169
0.197164
0.197118
0.197119
0.197097
0.19706
0.196966
0.196987
0.196924
0.196823
0.196821
0.196886
0.197112
0.197029
0.196854
0.196715
0.196732
0.196724
0.196808
0.196877
0.196915
0.196953
0.196996
0.197034
0.197013
0.19701
0.196972
0.196961
0.196947
0.196931
0.196865
0.196889
0.196955
0.197009
0.197045
0.197055
0.196965
0.197077
0.197005
0.196856
0.196763
0.196787
0.196842
0.196939
0.19697
0.196986
0.196941
0.196831
0.196762
0.196723
0.19661
0.196601
0.196603
0.196649
0.196695
0.196818
0.19687
0.196905
0.196873
0.196816
0.196792
0.196772
0.196743
0.196659
0.196601
0.196615
0.19668
0.196704
0.196742
0.196801
0.196819
0.196833
0.196803
0.196803
0.196803
0.196752
0.196694
0.196675
0.196692
0.196725
0.196745
0.196744
0.196745
0.19677
0.196832
0.196886
0.197019
0.197067
0.197068
0.197038
0.197046
0.197031
0.197122
0.197108
0.197094
0.197104
0.197174
0.197183
0.197175
0.197146
0.197155
0.197162
0.19717
0.197129
0.197166
0.19725
0.197341
0.197359
0.19738
0.197417
0.197442
0.197421
0.197415
0.197414
0.197439
0.197486
0.19753
0.197563
0.197593
0.197624
0.197661
0.197704
0.197751
0.1978
0.197839
0.197876
0.197921
0.197964
0.198006
0.198
0.198
0.198
0.198
0.198
0.198
0.198
0.198
0.198
0.198
0.198
0.198
0.198
0.198
0.198
0.198
0.198
0.198
0.198
0.198
0.198
0.198
0.198
0.198
0.198
0.198
0.198
0.198
0.198
0.198
0.198
0.198
0.198
0.198
0.198
0.198
0.198
0.198
0.198
0.198
0.198
0.198
0.198
0.198
0.198
0.198
0.198
0.198
0.198
0.198
0.198
0.198
0.198
0.198
0.198
0.198
0.198
0.198
0.198
0.197996
0.197991
0.197989
0.197988
0.197988
0.197987
0.197987
0.197986
0.197986
0.197995
0.197998
0.197991
0.198002
0.198003
0.198018
0.198029
0.19798
0.197922
0.197954
0.19797
0.19799
0.197944
0.197866
0.197811
0.197699
0.197627
0.197621
0.197689
0.197781
0.19788
0.197924
0.197912
0.197931
0.197949
0.197902
0.19792
0.197961
0.197919
0.197841
0.197718
0.197694
0.197796
0.197853
0.19786
0.197655
0.1974
0.197304
0.19735
0.197389
0.197421
0.197479
0.197605
0.197674
0.197649
0.197593
0.197569
0.197531
0.197565
0.197545
0.197524
0.197606
0.19756
0.197473
0.197445
0.197392
0.197264
0.197223
0.197273
0.197272
0.197269
0.197314
0.19723
0.197243
0.197162
0.197032
0.196978
0.196972
0.196942
0.196998
0.197113
0.197187
0.197205
0.197227
0.197214
0.197192
0.197193
0.197216
0.1972
0.197155
0.197093
0.197118
0.197107
0.197173
0.197241
0.197311
0.197307
0.197335
0.197371
0.197384
0.197385
0.197391
0.197398
0.197436
0.197433
0.197404
0.197299
0.197232
0.197199
0.19719
0.19725
0.197271
0.197254
0.197212
0.197204
0.197164
0.197155
0.19714
0.197097
0.197017
0.197022
0.196984
0.196894
0.196865
0.196902
0.197045
0.19699
0.196846
0.196762
0.19677
0.196766
0.19683
0.19689
0.196926
0.196956
0.196998
0.197034
0.19702
0.197016
0.196991
0.196978
0.196951
0.196908
0.196867
0.196889
0.196939
0.196977
0.197016
0.197049
0.196989
0.197043
0.197004
0.196878
0.196819
0.196849
0.196877
0.196938
0.196981
0.196999
0.196964
0.196895
0.196842
0.196783
0.196702
0.196698
0.196687
0.196674
0.196676
0.19676
0.196826
0.19686
0.196825
0.196776
0.196769
0.196762
0.196743
0.196684
0.196627
0.196634
0.196683
0.19669
0.196714
0.196766
0.196789
0.196799
0.196782
0.19679
0.196794
0.196742
0.196695
0.196691
0.196708
0.196749
0.196783
0.196775
0.196773
0.196803
0.196845
0.196885
0.196994
0.197057
0.197057
0.197033
0.197042
0.197048
0.197106
0.19708
0.197053
0.197065
0.19712
0.197152
0.197159
0.197128
0.197122
0.197141
0.197156
0.197127
0.197153
0.197243
0.197332
0.197349
0.197367
0.19741
0.19743
0.197417
0.197419
0.197416
0.197428
0.197469
0.197515
0.197552
0.197583
0.197612
0.197647
0.197687
0.197732
0.197779
0.197816
0.197852
0.197895
0.197939
0.197982
0.198
0.198
0.198
0.198
0.198
0.198
0.198
0.198
0.198
0.198
0.198
0.198
0.198
0.198
0.198
0.198
0.198
0.198
0.198
0.198
0.198
0.198
0.198
0.198
0.198
0.198
0.198
0.198
0.198
0.198
0.198
0.198
0.198
0.198
0.198
0.198
0.198
0.198
0.198
0.198
0.198
0.198
0.198
0.198
0.198
0.198
0.198
0.198
0.198
0.198
0.198
0.198
0.198
0.198
0.198
0.198
0.198
0.198
0.198
0.197996
0.197989
0.197985
0.197984
0.197984
0.197984
0.197984
0.197984
0.197984
0.197995
0.198
0.197994
0.198
0.197994
0.198009
0.198025
0.197975
0.197924
0.197964
0.197992
0.197998
0.197957
0.197887
0.197838
0.197749
0.197682
0.197681
0.197734
0.197806
0.197893
0.197932
0.197907
0.197927
0.197953
0.1979
0.197889
0.197936
0.197924
0.197851
0.197748
0.197735
0.197827
0.197863
0.197845
0.197677
0.19746
0.19741
0.197472
0.197496
0.197508
0.197544
0.197654
0.197723
0.197691
0.197634
0.197597
0.197549
0.197559
0.197547
0.19753
0.197596
0.197566
0.197494
0.197491
0.197449
0.197328
0.197281
0.197322
0.197332
0.197329
0.197355
0.197293
0.19729
0.197227
0.197108
0.197084
0.197079
0.197017
0.197035
0.19712
0.197191
0.197223
0.197245
0.197238
0.197212
0.1972
0.197224
0.197224
0.197174
0.197112
0.197134
0.197142
0.197183
0.197238
0.197289
0.19729
0.197329
0.197373
0.197385
0.197386
0.197392
0.1974
0.197434
0.197437
0.197402
0.197316
0.197268
0.197247
0.197232
0.197266
0.197284
0.197268
0.197242
0.197237
0.197201
0.197187
0.197176
0.19713
0.197055
0.197053
0.197033
0.196952
0.196903
0.196915
0.197007
0.19696
0.196833
0.19679
0.196805
0.196805
0.196857
0.196906
0.196937
0.196962
0.197003
0.197035
0.197022
0.19702
0.197003
0.196989
0.196954
0.196894
0.196868
0.196895
0.196933
0.196958
0.196996
0.197041
0.196997
0.197021
0.196994
0.19688
0.196853
0.1969
0.196914
0.196948
0.196995
0.197016
0.196985
0.196941
0.196904
0.196837
0.196771
0.196773
0.196759
0.196708
0.196672
0.196723
0.196789
0.196825
0.196786
0.19674
0.196745
0.196748
0.196738
0.196699
0.196646
0.196647
0.196687
0.196681
0.196691
0.196737
0.196762
0.196768
0.196759
0.196775
0.196783
0.196733
0.196692
0.196698
0.196717
0.196767
0.196813
0.1968
0.196796
0.196827
0.196857
0.196887
0.19698
0.197048
0.197046
0.197026
0.197038
0.197057
0.197097
0.197059
0.197019
0.197033
0.197082
0.197129
0.197147
0.197112
0.197098
0.197124
0.197145
0.197121
0.19714
0.197233
0.197325
0.197342
0.197357
0.197403
0.197421
0.197411
0.197419
0.197417
0.197418
0.197453
0.197502
0.197543
0.197575
0.197604
0.197636
0.197674
0.197716
0.197761
0.197797
0.197831
0.197872
0.197916
0.19796
0.198
0.198
0.198
0.198
0.198
0.198
0.198
0.198
0.198
0.198
0.198
0.198
0.198
0.198
0.198
0.198
0.198
0.198
0.198
0.198
0.198
0.198
0.198
0.198
0.198
0.198
0.198
0.198
0.198
0.198
0.198
0.198
0.198
0.198
0.198
0.198
0.198
0.198
0.198
0.198
0.198
0.198
0.198
0.198
0.198
0.198
0.198
0.198
0.198
0.198
0.198
0.198
0.198
0.198
0.198
0.198
0.198
0.198
0.197999
0.197995
0.197988
0.197984
0.197984
0.197984
0.197984
0.197984
0.197984
0.197985
0.197998
0.198002
0.197995
0.197997
0.197987
0.198003
0.198025
0.197973
0.197926
0.197975
0.198012
0.198008
0.197964
0.197896
0.197853
0.197783
0.197726
0.197733
0.197779
0.197834
0.197907
0.197934
0.197896
0.197918
0.197953
0.197896
0.197869
0.197923
0.197929
0.197857
0.197765
0.197766
0.197856
0.197873
0.197832
0.197685
0.197498
0.197494
0.197576
0.197589
0.197578
0.1976
0.197707
0.197775
0.19773
0.197664
0.19762
0.197566
0.19756
0.197549
0.197532
0.197591
0.197572
0.197513
0.197531
0.197493
0.197372
0.197327
0.197369
0.197386
0.197381
0.197393
0.19734
0.197329
0.197277
0.197169
0.197172
0.19717
0.19708
0.197069
0.197133
0.1972
0.197239
0.197261
0.197255
0.197226
0.197207
0.197234
0.197245
0.197189
0.197124
0.197147
0.197169
0.197192
0.197234
0.197272
0.197276
0.197322
0.197373
0.197383
0.197386
0.197391
0.197401
0.197434
0.197441
0.197403
0.19733
0.197297
0.197286
0.197267
0.197283
0.197295
0.197277
0.197258
0.197258
0.197229
0.197217
0.197211
0.197159
0.197086
0.197081
0.197074
0.196998
0.196941
0.196937
0.196991
0.196936
0.196819
0.196812
0.196838
0.196839
0.196881
0.196921
0.196945
0.196966
0.197006
0.197033
0.197021
0.197022
0.197012
0.197
0.196958
0.196888
0.196872
0.196903
0.196932
0.196943
0.19698
0.197033
0.196997
0.197003
0.196981
0.196874
0.196867
0.196933
0.196945
0.196967
0.197013
0.197033
0.197005
0.196978
0.196953
0.196883
0.196829
0.19684
0.19682
0.196738
0.196673
0.196704
0.19677
0.1968
0.19675
0.196704
0.196724
0.196741
0.196735
0.196705
0.196654
0.196659
0.196695
0.196674
0.196667
0.196709
0.196736
0.196742
0.196738
0.196761
0.196772
0.196722
0.196689
0.196706
0.196729
0.196786
0.196838
0.196819
0.19681
0.196841
0.196863
0.196888
0.196974
0.197045
0.197036
0.197013
0.197028
0.197056
0.197088
0.197041
0.196995
0.197013
0.197061
0.197117
0.197138
0.197096
0.197078
0.197112
0.197138
0.197116
0.197131
0.197231
0.197324
0.197332
0.197341
0.197392
0.197413
0.197404
0.197415
0.197414
0.197411
0.197446
0.197496
0.197536
0.197568
0.197594
0.197625
0.19766
0.1977
0.197743
0.197778
0.19781
0.197851
0.197896
0.197941
0.198
0.198
0.198
0.198
0.198
0.198
0.198
0.198
0.198
0.198
0.198
0.198
0.198
0.198
0.198
0.198
0.198
0.198
0.198
0.198
0.198
0.198
0.198
0.198
0.198
0.198
0.198
0.198
0.198
0.198
0.198
0.198
0.198
0.198
0.198
0.198
0.198
0.198
0.198
0.198
0.198
0.198
0.198
0.198
0.198
0.198
0.198
0.198
0.198
0.198
0.198
0.198
0.198
0.198
0.198
0.198
0.198
0.198
0.197999
0.197994
0.197987
0.197983
0.197983
0.197983
0.197984
0.197984
0.197984
0.197986
0.198001
0.198004
0.197994
0.197993
0.19798
0.197999
0.198025
0.197969
0.197925
0.197986
0.198031
0.198019
0.19797
0.1979
0.197859
0.197803
0.197756
0.197772
0.197818
0.197863
0.197924
0.197935
0.197883
0.19791
0.197951
0.197889
0.197854
0.197917
0.197934
0.197856
0.197771
0.197788
0.197886
0.197885
0.197821
0.197682
0.197519
0.19756
0.197667
0.197669
0.197637
0.197648
0.197762
0.197834
0.197768
0.197688
0.197642
0.197585
0.197566
0.197552
0.197535
0.197589
0.197577
0.197531
0.197568
0.197528
0.197401
0.197364
0.197416
0.197436
0.197424
0.197431
0.197379
0.197359
0.197315
0.19722
0.197247
0.197247
0.197134
0.197099
0.197149
0.197215
0.197257
0.197277
0.197271
0.197235
0.197212
0.197245
0.197265
0.197199
0.19713
0.19716
0.197194
0.197203
0.197231
0.197261
0.197266
0.197317
0.197373
0.197382
0.197386
0.197392
0.197401
0.197435
0.197447
0.197406
0.197339
0.197318
0.197317
0.197297
0.197301
0.197308
0.197287
0.197268
0.197272
0.197251
0.197247
0.197244
0.197183
0.197109
0.197108
0.197108
0.197032
0.196973
0.196962
0.196986
0.196915
0.196803
0.196829
0.19687
0.196869
0.196904
0.19694
0.196956
0.196969
0.197009
0.197033
0.197018
0.197022
0.19702
0.197008
0.196961
0.196886
0.196878
0.196912
0.196934
0.196935
0.196969
0.197029
0.196995
0.196987
0.196968
0.196865
0.196871
0.196952
0.19697
0.196992
0.197034
0.197049
0.197023
0.19701
0.196992
0.196918
0.196876
0.1969
0.196874
0.196762
0.196674
0.196695
0.196761
0.196782
0.196717
0.196667
0.196704
0.196737
0.196734
0.196704
0.196656
0.196669
0.196706
0.196669
0.196645
0.196682
0.196712
0.196719
0.19672
0.196749
0.196761
0.196709
0.196682
0.19671
0.196738
0.196802
0.19686
0.196835
0.196819
0.19685
0.196867
0.196888
0.196974
0.197047
0.19703
0.197001
0.197017
0.197052
0.197079
0.197023
0.196973
0.196997
0.197046
0.19711
0.197133
0.197081
0.197059
0.197103
0.197134
0.197107
0.197121
0.197233
0.197328
0.197322
0.197323
0.197382
0.197408
0.197399
0.197408
0.197406
0.197405
0.197442
0.197492
0.197531
0.197561
0.197587
0.197615
0.197649
0.197687
0.197727
0.197761
0.197793
0.197833
0.197878
0.197924
0.198
0.198
0.198
0.198
0.198
0.198
0.198
0.198
0.198
0.198
0.198
0.198
0.198
0.198
0.198
0.198
0.198
0.198
0.198
0.198
0.198
0.198
0.198
0.198
0.198
0.198
0.198
0.198
0.198
0.198
0.198
0.198
0.198
0.198
0.198
0.198
0.198
0.198
0.198
0.198
0.198
0.198
0.198
0.198
0.198
0.198
0.198
0.198
0.198
0.198
0.198
0.198
0.198
0.198
0.198
0.198
0.198
0.198
0.197999
0.197993
0.197983
0.197979
0.197978
0.197978
0.197979
0.197979
0.19798
0.197982
0.198001
0.198005
0.197994
0.19799
0.19797
0.197991
0.198023
0.197959
0.197914
0.197989
0.198044
0.198031
0.197979
0.197906
0.197865
0.197813
0.197771
0.197793
0.19784
0.197884
0.197943
0.197944
0.19788
0.197909
0.197954
0.19788
0.197835
0.197907
0.197936
0.197856
0.19777
0.1978
0.197913
0.197904
0.197819
0.197674
0.19752
0.197603
0.197743
0.197744
0.197694
0.197691
0.197811
0.197892
0.197812
0.197719
0.19767
0.197606
0.197575
0.197559
0.197542
0.197594
0.19758
0.197541
0.197599
0.197563
0.197425
0.197391
0.197455
0.19748
0.197466
0.197471
0.197417
0.197387
0.197342
0.197253
0.197307
0.197319
0.197189
0.197132
0.197166
0.197231
0.197275
0.197294
0.197291
0.197247
0.197216
0.197254
0.197282
0.19721
0.197135
0.197172
0.197217
0.197219
0.197237
0.197258
0.19726
0.197314
0.197376
0.197384
0.197388
0.197394
0.197402
0.197439
0.197454
0.19741
0.197344
0.197331
0.197338
0.19732
0.197319
0.197323
0.197299
0.197281
0.197286
0.197268
0.197269
0.197269
0.197201
0.197124
0.197131
0.197139
0.197058
0.196993
0.196977
0.196981
0.196893
0.196782
0.196837
0.196897
0.196899
0.196933
0.196965
0.196973
0.196979
0.197017
0.197038
0.197016
0.197021
0.197025
0.197013
0.196959
0.196878
0.19688
0.196921
0.196942
0.196935
0.196965
0.19703
0.196996
0.196976
0.196955
0.196854