/*--------------------------------*- C++ -*----------------------------------*\
| =========                 |                                                 |
| \\      /  F ield         | foam-extend: Open Source CFD                    |
|  \\    /   O peration     | Version:     3.2                                |
|   \\  /    A nd           | Web:         http://www.foam-extend.org         |
|    \\/     M anipulation  | For copyright notice see file Copyright         |
\*---------------------------------------------------------------------------*/
FoamFile
{
    version     2.0;
    format      ascii;
    class       areaScalarField;
    location    "50";
    object      Ce1;
}
// * * * * * * * * * * * * * * * * * * * * * * * * * * * * * * * * * * * * * //

dimensions      [1 -3 0 0 0 0 0];

internalField   nonuniform List<scalar> 
300
(
4.32063
2.20556
1.40558
1.41058
1.34669
1.34532
1.31427
1.31253
1.30164
1.30565
1.30676
1.31384
1.32121
1.33273
1.34371
1.35755
1.37177
1.38779
1.4038
1.42138
1.44009
1.45951
1.47969
1.50024
1.52113
1.5426
1.56291
1.58085
1.5961
1.60893
1.61968
1.62862
1.63611
1.64228
1.64749
1.65174
1.65539
1.65831
1.66092
1.66292
1.66484
1.6662
1.66768
1.66858
1.66977
1.6703
1.67129
1.67145
1.67262
1.67205
1.67408
1.67169
1.67621
1.6695
1.6809
1.66284
1.69279
1.64739
1.73803
0.344291
0.0601139
0.0511365
0.0566231
0.0571005
0.0588985
0.0583525
0.0593673
0.0581625
0.0594302
1.12979
0.138426
0.141282
0.142333
0.143698
0.142979
0.143135
0.143282
0.146695
1.17657
1.24022
0.135336
1.34576
0.127063
0.154701
0.0675706
0.122106
0.0671737
0.0600639
1.36955
1.07159
0.141969
0.139516
0.14252
0.0621143
0.055644
0.144165
1.15115
0.144779
0.135406
0.150027
1.1302
1.40488
0.995663
0.128907
0.0719843
0.085823
0.865015
1.14434
0.137749
0.140908
0.0625836
1.18828
1.25143
1.17039
1.11774
0.13257
1.2282
0.133518
0.144957
1.21519
0.126188
0.0682338
1.28336
1.02155
0.132983
0.146028
0.0569019
1.17835
1.19656
1.13126
0.138496
1.28401
0.116709
0.0612228
1.33064
0.882705
0.138714
0.137003
0.142199
0.13722
0.142669
1.15694
0.140646
1.14348
0.0666445
0.0546459
0.141208
0.136797
0.139893
0.0582708
0.137053
1.16227
1.2052
1.07865
0.141422
1.13324
1.1683
1.141
0.1397
0.137118
0.140423
1.14184
1.15743
1.14757
0.137517
0.141486
0.134984
1.24437
0.127693
1.23391
0.130392
0.144475
1.24954
0.0685872
0.0547815
0.133632
0.141415
0.134755
0.0597722
1.11423
0.140121
0.138217
0.0611879
1.12739
0.11664
0.0663655
0.0676409
0.984047
0.136136
0.139381
0.137205
0.137853
1.21053
0.127109
1.2297
0.126802
0.150539
0.126442
0.0629717
0.125436
0.152798
0.127647
1.24553
1.08711
0.143271
1.26678
0.988371
0.151137
1.18274
0.112078
1.08198
1.37642
0.844285
0.145371
0.129594
0.145325
1.12257
0.136859
0.0574302
1.14709
0.138701
0.137117
1.20092
1.10557
1.282
0.0578475
0.133438
0.0600193
1.12372
0.140533
0.134198
0.0645463
0.0675281
1.05478
0.133444
0.140518
0.138937
1.15485
0.136336
0.139445
0.136953
0.138148
0.137416
0.137957
0.0578049
0.136301
0.138262
0.137178
0.13933
0.136765
1.17282
1.14962
0.139437
1.17265
0.136281
0.142794
0.134091
0.0617985
1.08357
0.145767
0.130705
1.239
0.128592
1.21939
0.0674944
0.0513532
0.145147
0.131754
1.20007
1.09922
0.1439
0.130651
0.144428
0.131478
0.142892
0.135089
0.143192
1.29796
1.03024
0.142491
1.12007
0.141636
0.135974
0.141393
0.135518
0.138427
0.0677726
0.0664587
1.1833
1.20461
1.17702
1.20303
1.16657
1.22679
1.15983
0.8639
1.37208
1.83615
1.57567
1.63864
)
;

boundaryField
{
    inlet
    {
        type            calculated;
        value           uniform 0;
    }
    outlet
    {
        type            calculated;
        value           uniform 0;
    }
    sideWall
    {
        type            empty;
    }
}


// ************************************************************************* //
