/*--------------------------------*- C++ -*----------------------------------*\
| =========                 |                                                 |
| \\      /  F ield         | foam-extend: Open Source CFD                    |
|  \\    /   O peration     | Version:     3.2                                |
|   \\  /    A nd           | Web:         http://www.foam-extend.org         |
|    \\/     M anipulation  | For copyright notice see file Copyright         |
\*---------------------------------------------------------------------------*/
FoamFile
{
    version     2.0;
    format      ascii;
    class       areaScalarField;
    location    "50";
    object      Ce2;
}
// * * * * * * * * * * * * * * * * * * * * * * * * * * * * * * * * * * * * * //

dimensions      [1 -3 0 0 0 0 0];

internalField   nonuniform List<scalar> 
300
(
1.92951
0.983436
0.625794
0.628026
0.599474
0.598862
0.584985
0.584206
0.579341
0.58113
0.581627
0.584793
0.588086
0.593235
0.598142
0.604326
0.610683
0.617842
0.624996
0.632853
0.641215
0.649897
0.658915
0.668102
0.677441
0.687036
0.696113
0.704135
0.71095
0.716686
0.721491
0.725487
0.728835
0.731593
0.733922
0.735821
0.737454
0.73876
0.739926
0.740823
0.74168
0.742287
0.742947
0.74335
0.743882
0.74412
0.744563
0.744634
0.745158
0.7449
0.745807
0.744739
0.746762
0.743762
0.748859
0.740787
0.754175
0.733877
0.774399
0.152476
0.0260209
0.0218287
0.0241613
0.0243364
0.0251277
0.0248822
0.0253289
0.0248033
0.0253501
0.502608
0.0603189
0.0615868
0.0620508
0.0626544
0.0623351
0.0624156
0.0624695
0.0639762
0.523463
0.551872
0.0589749
0.598859
0.0553996
0.067388
0.0289538
0.0531651
0.0286863
0.0256581
0.609444
0.476812
0.0618535
0.0608314
0.0620936
0.0265396
0.0237148
0.0628362
0.512123
0.0631272
0.0590027
0.065427
0.502761
0.62516
0.443039
0.055991
0.0310326
0.0371465
0.384696
0.509052
0.060041
0.0613931
0.0267167
0.528677
0.556797
0.520733
0.49727
0.0577513
0.54642
0.0581981
0.0631474
0.540716
0.0549553
0.0291638
0.571182
0.454447
0.0579271
0.0636567
0.0242556
0.524204
0.532355
0.503301
0.0603197
0.571384
0.0507867
0.0262299
0.592455
0.392586
0.0604307
0.0597
0.0619684
0.0598009
0.0621788
0.514707
0.0613025
0.508646
0.0284791
0.0233165
0.061514
0.0596271
0.0609459
0.0248454
0.0597169
0.517016
0.5362
0.479817
0.0616062
0.504139
0.519708
0.507596
0.0608691
0.0597521
0.0611851
0.50796
0.514872
0.510522
0.0599082
0.0616727
0.0587969
0.553664
0.0556167
0.548918
0.0568219
0.0629298
0.555931
0.0293647
0.0233957
0.0581857
0.0616421
0.0587022
0.025485
0.495653
0.0610491
0.0602446
0.0260829
0.50165
0.0506803
0.0285159
0.0291386
0.437635
0.0593251
0.0607118
0.059803
0.0600384
0.538596
0.0553399
0.547086
0.0552187
0.065612
0.055069
0.0268517
0.0546425
0.0665848
0.05562
0.55404
0.483664
0.0623687
0.563711
0.439602
0.0658193
0.526308
0.0487438
0.481364
0.612797
0.375443
0.0633174
0.0564685
0.0632947
0.499422
0.0596045
0.0244825
0.510261
0.060453
0.0597335
0.53429
0.491774
0.570378
0.0247139
0.0581116
0.0255975
0.499882
0.0612408
0.058459
0.0275294
0.0289143
0.469211
0.0581154
0.0612436
0.0605411
0.513738
0.0594034
0.0607609
0.059667
0.0601868
0.0598765
0.0601043
0.0246374
0.0593819
0.0602442
0.0597685
0.0607065
0.0595905
0.521733
0.511438
0.0607606
0.521702
0.0593728
0.0622438
0.0584106
0.0263672
0.482002
0.0635297
0.0569376
0.551177
0.0560436
0.542338
0.0288989
0.0218725
0.0632412
0.0573995
0.533845
0.488984
0.0627036
0.0569119
0.06292
0.0572911
0.062247
0.0588888
0.0623568
0.577588
0.458273
0.0620708
0.498277
0.0617098
0.0592617
0.0616004
0.0590619
0.0602889
0.0289597
0.0284414
0.526425
0.535949
0.523652
0.535265
0.518989
0.545854
0.515938
0.384379
0.611546
0.818261
0.701819
0.729966
)
;

boundaryField
{
    inlet
    {
        type            calculated;
        value           uniform 0;
    }
    outlet
    {
        type            calculated;
        value           uniform 0;
    }
    sideWall
    {
        type            empty;
    }
}


// ************************************************************************* //
