/*--------------------------------*- C++ -*----------------------------------*\
| =========                 |                                                 |
| \\      /  F ield         | foam-extend: Open Source CFD                    |
|  \\    /   O peration     | Version:     3.2                                |
|   \\  /    A nd           | Web:         http://www.foam-extend.org         |
|    \\/     M anipulation  | For copyright notice see file Copyright         |
\*---------------------------------------------------------------------------*/
FoamFile
{
    version     2.0;
    format      ascii;
    class       areaScalarField;
    location    "50";
    object      Cpre;
}
// * * * * * * * * * * * * * * * * * * * * * * * * * * * * * * * * * * * * * //

dimensions      [1 -3 0 0 0 0 0];

internalField   nonuniform List<scalar> 
300
(
0.198
0.198
0.198
0.198
0.198
0.198
0.198
0.198
0.198
0.198
0.198
0.198
0.198
0.198
0.198
0.198
0.198
0.198
0.198
0.198
0.198
0.198
0.198
0.198
0.198
0.198
0.198
0.198
0.198
0.198
0.198
0.198
0.198
0.198
0.198
0.198
0.198
0.198
0.198
0.198
0.198
0.198
0.198
0.198
0.198
0.198
0.198
0.198
0.198
0.198
0.198
0.198
0.198
0.198
0.198
0.198
0.198
0.198
0.198
0.198
0.197577
0.197339
0.197233
0.197183
0.197173
0.197162
0.197153
0.197152
0.19714
0.197328
0.200604
0.196811
0.201193
0.194613
0.19634
0.197223
0.197432
0.195328
0.194931
0.199754
0.195351
0.199163
0.199241
0.194031
0.196563
0.193311
0.198111
0.194097
0.201101
0.195817
0.202686
0.201066
0.200945
0.197858
0.202384
0.195744
0.192973
0.199286
0.195956
0.195563
0.196781
0.196435
0.204955
0.190607
0.194805
0.19193
0.195884
0.197415
0.197972
0.200801
0.199132
0.194929
0.197663
0.198688
0.198057
0.195904
0.203917
0.192552
0.200954
0.202245
0.192109
0.197469
0.193563
0.196163
0.196938
0.195948
0.197004
0.195523
0.19881
0.198655
0.188729
0.203063
0.189564
0.196156
0.193027
0.19614
0.199445
0.198787
0.202061
0.195433
0.195461
0.199467
0.194693
0.197981
0.198894
0.197629
0.195319
0.197955
0.201174
0.198946
0.194727
0.20088
0.19943
0.198815
0.196953
0.19973
0.19543
0.198701
0.195324
0.196569
0.197153
0.199171
0.194124
0.197417
0.194478
0.196666
0.194483
0.196259
0.199597
0.1972
0.198135
0.197923
0.198216
0.196389
0.197777
0.194714
0.196869
0.195903
0.200716
0.194782
0.193695
0.195416
0.194897
0.204015
0.192208
0.197205
0.192397
0.198778
0.197981
0.198506
0.198039
0.19713
0.199032
0.200155
0.19663
0.196691
0.196404
0.194671
0.196732
0.193393
0.200193
0.195766
0.19884
0.198086
0.196954
0.199508
0.195883
0.189579
0.20275
0.191168
0.194334
0.194984
0.197799
0.200563
0.197581
0.195922
0.198213
0.193886
0.194478
0.192076
0.200107
0.190274
0.19366
0.194616
0.200349
0.198991
0.196772
0.193863
0.1969
0.196233
0.200541
0.196507
0.195096
0.196313
0.195524
0.196404
0.196674
0.194966
0.197444
0.200982
0.199766
0.199013
0.196693
0.197009
0.196296
0.194484
0.19697
0.195581
0.19434
0.19514
0.197162
0.192455
0.197024
0.198302
0.19717
0.197388
0.199644
0.198863
0.194928
0.1942
0.200024
0.198449
0.199211
0.20029
0.197372
0.199032
0.196671
0.199796
0.195042
0.195149
0.195252
0.201838
0.195064
0.197048
0.194536
0.197973
0.195458
0.195812
0.197245
0.200814
0.197794
0.196027
0.198211
0.198599
0.198024
0.19629
0.196828
0.196951
0.198398
0.198544
0.198546
0.198574
0.198627
0.198666
0.198714
0.198591
0.198137
0.198149
0.198171
0.198193
)
;

boundaryField
{
    inlet
    {
        type            calculated;
        value           uniform 0;
    }
    outlet
    {
        type            calculated;
        value           uniform 0;
    }
    sideWall
    {
        type            empty;
    }
}


// ************************************************************************* //
