/*--------------------------------*- C++ -*----------------------------------*\
| =========                 |                                                 |
| \\      /  F ield         | foam-extend: Open Source CFD                    |
|  \\    /   O peration     | Version:     3.2                                |
|   \\  /    A nd           | Web:         http://www.foam-extend.org         |
|    \\/     M anipulation  | For copyright notice see file Copyright         |
\*---------------------------------------------------------------------------*/
FoamFile
{
    version     2.0;
    format      ascii;
    class       areaScalarField;
    location    "50";
    object      Cs;
}
// * * * * * * * * * * * * * * * * * * * * * * * * * * * * * * * * * * * * * //

dimensions      [0 0 0 0 0 0 0];

internalField   nonuniform List<scalar> 
300
(
0.500804
0.500804
0.500804
0.500804
0.500804
0.500804
0.500804
0.500804
0.500804
0.500804
0.500804
0.500804
0.500804
0.500804
0.500804
0.500804
0.500804
0.500804
0.500804
0.500804
0.500804
0.500804
0.500804
0.500804
0.500804
0.500804
0.500804
0.500804
0.500804
0.500804
0.500804
0.500804
0.500804
0.500804
0.500804
0.500804
0.500804
0.500804
0.500804
0.500804
0.500804
0.500804
0.500804
0.500804
0.500804
0.500804
0.500804
0.500804
0.500804
0.500804
0.500804
0.500804
0.500804
0.500804
0.500804
0.500804
0.500804
0.500804
0.500804
0.237618
0.109544
0.0796211
0.0741207
0.0728374
0.072565
0.0724439
0.0724626
0.0723566
0.0724176
0.500804
0.125201
0.125201
0.125201
0.125201
0.125201
0.125201
0.125201
0.125201
0.500804
0.500804
0.125201
0.500804
0.125201
0.125201
0.0735637
0.125201
0.0715678
0.0729281
0.500804
0.500804
0.125201
0.125201
0.125201
0.07227
0.0716053
0.125201
0.500804
0.125201
0.125201
0.125201
0.500804
0.500804
0.500804
0.125201
0.0808787
0.0888634
0.500804
0.500804
0.125201
0.125201
0.0723861
0.500804
0.500804
0.500804
0.500804
0.125201
0.500804
0.125201
0.125201
0.500804
0.125201
0.0735964
0.500804
0.500804
0.125201
0.125201
0.0715917
0.500804
0.500804
0.500804
0.125201
0.500804
0.125201
0.0766442
0.500804
0.500804
0.125201
0.125201
0.125201
0.125201
0.125201
0.500804
0.125201
0.500804
0.0730906
0.0725706
0.125201
0.125201
0.125201
0.0716604
0.125201
0.500804
0.500804
0.500804
0.125201
0.500804
0.500804
0.500804
0.125201
0.125201
0.125201
0.500804
0.500804
0.500804
0.125201
0.125201
0.125201
0.500804
0.125201
0.500804
0.125201
0.125201
0.500804
0.0757117
0.0738301
0.125201
0.125201
0.125201
0.0715678
0.500804
0.125201
0.125201
0.0721813
0.500804
0.125201
0.0774526
0.0818667
0.500804
0.125201
0.125201
0.125201
0.125201
0.500804
0.125201
0.500804
0.125201
0.125201
0.125201
0.0716531
0.125201
0.125201
0.125201
0.500804
0.500804
0.125201
0.500804
0.500804
0.125201
0.500804
0.125201
0.500804
0.500804
0.500804
0.125201
0.125201
0.125201
0.500804
0.125201
0.0715566
0.500804
0.125201
0.125201
0.500804
0.500804
0.500804
0.0728744
0.125201
0.0715846
0.500804
0.125201
0.125201
0.0728049
0.0751418
0.500804
0.125201
0.125201
0.125201
0.500804
0.125201
0.125201
0.125201
0.125201
0.125201
0.125201
0.0715447
0.125201
0.125201
0.125201
0.125201
0.125201
0.500804
0.500804
0.125201
0.500804
0.125201
0.125201
0.125201
0.0718511
0.500804
0.125201
0.125201
0.500804
0.125201
0.500804
0.0740785
0.0722933
0.125201
0.125201
0.500804
0.500804
0.125201
0.125201
0.125201
0.125201
0.125201
0.125201
0.125201
0.500804
0.500804
0.125201
0.500804
0.125201
0.125201
0.125201
0.125201
0.125201
0.0735072
0.07573
0.500804
0.500804
0.500804
0.500804
0.500804
0.500804
0.500804
0.500804
0.500804
0.500804
0.500804
0.500804
)
;

boundaryField
{
    inlet
    {
        type            calculated;
        value           uniform 0;
    }
    outlet
    {
        type            calculated;
        value           uniform 0;
    }
    sideWall
    {
        type            empty;
    }
}


// ************************************************************************* //
