/*--------------------------------*- C++ -*----------------------------------*\
| =========                 |                                                 |
| \\      /  F ield         | foam-extend: Open Source CFD                    |
|  \\    /   O peration     | Version:     3.2                                |
|   \\  /    A nd           | Web:         http://www.foam-extend.org         |
|    \\/     M anipulation  | For copyright notice see file Copyright         |
\*---------------------------------------------------------------------------*/
FoamFile
{
    version     2.0;
    format      ascii;
    class       areaScalarField;
    location    "50";
    object      Dbed;
}
// * * * * * * * * * * * * * * * * * * * * * * * * * * * * * * * * * * * * * //

dimensions      [0 0 0 0 0 0 0];

internalField   nonuniform List<scalar> 
300
(
0.000423
0.000423
0.000423
0.000423
0.000423
0.000423
0.000423
0.000423
0.000423
0.000423
0.000423
0.000423
0.000423
0.000423
0.000423
0.000423
0.000423
0.000423
0.000423
0.000423
0.000423
0.000423
0.000423
0.000423
0.000423
0.000423
0.000423
0.000423
0.000423
0.000423
0.000423
0.000423
0.000423
0.000423
0.000423
0.000423
0.000423
0.000423
0.000423
0.000423
0.000423
0.000423
0.000423
0.000423
0.000423
0.000423
0.000423
0.000423
0.000423
0.000423
0.000423
0.000423
0.000423
0.000423
0.000423
0.000423
0.000423
0.000423
0.000423
0.000423
0.000664781
0.000830673
0.000908831
0.000920005
0.000930476
0.000928123
0.00093264
0.000926751
0.000931694
0.000918169
0.000659832
0.000476527
0.000540022
0.000436553
0.000524095
0.000609069
0.000500029
0.000718591
0.00054394
0.000838331
0.000604797
0.000980274
0.000593231
0.000886135
0.000941658
0.000892572
0.000801551
0.000967535
0.000938176
0.000929054
0.000874246
0.000784564
0.000704049
0.000947873
0.000852027
0.000718574
0.00084374
0.000801864
0.000746915
0.000884965
0.000853205
0.000975423
0.000746022
0.000504881
0.00093575
0.000968165
0.000867758
0.000770556
0.000785611
0.000584482
0.000983548
0.000888186
0.000982434
0.000895116
0.000941662
0.000758217
0.000817957
0.000679232
0.000796681
0.000882755
0.000511715
0.000998994
0.000920343
0.000953073
0.000559579
0.000960811
0.000688385
0.000805944
0.000928672
0.000577082
0.000801923
0.000931654
0.000793626
0.000881129
0.000976123
0.000851346
0.000731656
0.000791648
0.000644125
0.000743444
0.000751436
0.000817831
0.000615983
0.000937619
0.000936169
0.000934348
0.000775607
0.000881379
0.000584923
0.000933073
0.000589175
0.000903971
0.000915435
0.000935488
0.000701745
0.000812654
0.000710988
0.000780848
0.000763582
0.000709859
0.000815448
0.000652162
0.000765171
0.000815404
0.00076037
0.000878786
0.000696955
0.000982312
0.000645428
0.000792279
0.000768205
0.000572059
0.0010012
0.000900411
0.00095218
0.000554294
0.000927368
0.000684855
0.000816595
0.000736533
0.000888681
0.000879152
0.000943945
0.00079015
0.000508936
0.000946488
0.00094429
0.000862667
0.000703035
0.000727364
0.000744452
0.000654949
0.000974638
0.00051234
0.000907481
0.000625435
0.000955456
0.000624634
0.000958367
0.000644986
0.000907215
0.000733013
0.000771275
0.000770883
0.000603643
0.000984237
0.000477254
0.000930729
0.000872903
0.000642916
0.000914377
0.0009768
0.000839773
0.000653701
0.000772712
0.00062624
0.000917918
0.000549348
0.000878919
0.000667293
0.000800647
0.000808801
0.000896944
0.000776088
0.000882804
0.000941628
0.000663601
0.000883503
0.000659124
0.000780048
0.000699199
0.000992289
0.000917869
0.000938439
0.000824339
0.000822397
0.000709439
0.000737917
0.000694927
0.000686887
0.000708686
0.000685535
0.000766971
0.000650265
0.000841306
0.000640949
0.000845184
0.000683854
0.000833271
0.000769486
0.000755601
0.00082035
0.000729662
0.000882635
0.000676731
0.000923048
0.000573785
0.000960612
0.000555994
0.000920641
0.000654798
0.000979906
0.000595754
0.000891648
0.000912445
0.000925019
0.000852553
0.000723123
0.000816016
0.000662115
0.000886132
0.000619992
0.000816103
0.000610978
0.000867939
0.000557711
0.000837233
0.000927869
0.000931399
0.000664998
0.000832041
0.000642822
0.000811347
0.000665286
0.000768127
0.000674041
0.000970455
0.000951797
0.00094132
0.000943688
0.000938855
0.00094717
0.000938201
0.000952838
0.000936682
0.000839099
0.000423
0.000423
0.000423
0.000423
)
;

boundaryField
{
    inlet
    {
        type            calculated;
        value           uniform 0;
    }
    outlet
    {
        type            calculated;
        value           uniform 0;
    }
    sideWall
    {
        type            empty;
    }
}


// ************************************************************************* //
