/*--------------------------------*- C++ -*----------------------------------*\
| =========                 |                                                 |
| \\      /  F ield         | foam-extend: Open Source CFD                    |
|  \\    /   O peration     | Version:     3.2                                |
|   \\  /    A nd           | Web:         http://www.foam-extend.org         |
|    \\/     M anipulation  | For copyright notice see file Copyright         |
\*---------------------------------------------------------------------------*/
FoamFile
{
    version     2.0;
    format      ascii;
    class       areaScalarField;
    location    "50";
    object      dd;
}
// * * * * * * * * * * * * * * * * * * * * * * * * * * * * * * * * * * * * * //

dimensions      [0 1 0 0 0 0 0];

internalField   nonuniform List<scalar> 
300
(
0.00425
0.00425
0.00425
0.00425
0.00425
0.00425
0.00425
0.00425
0.00425
0.00425
0.00425
0.00425
0.00425
0.00425
0.00425
0.00425
0.00425
0.00425
0.00425
0.00425
0.00425
0.00425
0.00425
0.00425
0.00425
0.00425
0.00425
0.00425
0.00425
0.00425
0.00425
0.00425
0.00425
0.00425
0.00425
0.00425
0.00425
0.00425
0.00425
0.00425
0.00425
0.00425
0.00425
0.00425
0.00425
0.00425
0.00425
0.00425
0.00425
0.00425
0.00425
0.00425
0.00425
0.00425
0.00425
0.00425
0.00425
0.00425
0.00425
0.00372696
0.00256336
0.00175202
0.0015316
0.00147539
0.0014632
0.00145775
0.0014586
0.00145381
0.00145657
0.00143885
0.00141127
0.00140775
0.00140601
0.0014081
0.0014122
0.00140697
0.00140176
0.00141301
0.00141761
0.00142227
0.00140573
0.00145435
0.0014068
0.00140024
0.00150745
0.00141489
0.00141779
0.00147943
0.00154371
0.00150465
0.00140594
0.0014092
0.0014157
0.0014499
0.00141952
0.00141194
0.00142127
0.00141506
0.00139986
0.00140879
0.00142833
0.00153023
0.00142567
0.00129174
0.00179821
0.00206094
0.00166214
0.00142208
0.00140058
0.00140045
0.00145515
0.00149146
0.0015365
0.00155895
0.00149149
0.00141466
0.0014259
0.0014124
0.00141414
0.00146618
0.00139939
0.00150888
0.00167688
0.0015465
0.00139866
0.00140494
0.00141889
0.00142208
0.00145091
0.00141867
0.00139972
0.00145488
0.00138441
0.00163666
0.00192263
0.00162377
0.00140508
0.00140497
0.00141174
0.0014143
0.00141534
0.00142218
0.00141083
0.00141765
0.00148664
0.00146346
0.00141003
0.0014125
0.00140214
0.00142206
0.0014151
0.00142503
0.00146116
0.0014269
0.00140832
0.00142013
0.00141758
0.00142104
0.00141635
0.00141404
0.00141599
0.00142005
0.00141937
0.00141739
0.0014091
0.00141554
0.00141131
0.00143876
0.00141509
0.00141857
0.00141448
0.00140799
0.00151619
0.00159865
0.00151905
0.0014107
0.0014157
0.00140443
0.00141779
0.00141882
0.00141125
0.00141053
0.00144588
0.00142036
0.00131773
0.00166886
0.00183349
0.00152742
0.00141025
0.00141344
0.00141332
0.0014095
0.00144227
0.00141391
0.0014167
0.00140506
0.00141517
0.0014154
0.00142173
0.00140781
0.00140959
0.0014152
0.00141978
0.0014203
0.0014138
0.00151326
0.00141959
0.0014117
0.00147499
0.00131853
0.00153732
0.00185323
0.00159171
0.00141234
0.00141306
0.00141504
0.00143874
0.00140995
0.00141727
0.00141745
0.00141323
0.00140343
0.00142356
0.00142163
0.00147289
0.00147704
0.00140352
0.00141857
0.00142007
0.00140963
0.00140349
0.00147394
0.00157496
0.00150702
0.00141662
0.0014105
0.00141446
0.0014194
0.00140998
0.0014051
0.00140905
0.0014117
0.00141084
0.00140827
0.00141672
0.00141435
0.00140785
0.00140345
0.00140881
0.00140946
0.00141816
0.00142343
0.00141521
0.00141821
0.00141025
0.00141374
0.00140862
0.00143082
0.00142097
0.00141132
0.00140644
0.00143059
0.00141195
0.00142063
0.00152979
0.00145095
0.001405
0.00141444
0.0014192
0.00141991
0.00141269
0.00140753
0.00141655
0.00141408
0.00140478
0.00140017
0.00141384
0.00151774
0.00146362
0.00140859
0.00141999
0.00141644
0.00141426
0.0014131
0.00140932
0.00140213
0.00150498
0.00159941
0.00162915
0.00165568
0.00166734
0.00166989
0.00167146
0.00168444
0.0017141
0.00235245
0.00361314
0.00425
0.00425
0.00425
)
;

boundaryField
{
    inlet
    {
        type            calculated;
        value           uniform 0;
    }
    outlet
    {
        type            calculated;
        value           uniform 0;
    }
    sideWall
    {
        type            empty;
    }
}


// ************************************************************************* //
