/*--------------------------------*- C++ -*----------------------------------*\
| =========                 |                                                 |
| \\      /  F ield         | foam-extend: Open Source CFD                    |
|  \\    /   O peration     | Version:     3.2                                |
|   \\  /    A nd           | Web:         http://www.foam-extend.org         |
|    \\/     M anipulation  | For copyright notice see file Copyright         |
\*---------------------------------------------------------------------------*/
FoamFile
{
    version     2.0;
    format      ascii;
    class       areaScalarField;
    location    "50";
    object      deltaHs1;
}
// * * * * * * * * * * * * * * * * * * * * * * * * * * * * * * * * * * * * * //

dimensions      [0 1 -1 0 0 0 0];

internalField   nonuniform List<scalar> 
300
(
-9.71382e-05
-4.66092e-05
-2.74978e-05
-2.7617e-05
-2.60908e-05
-2.60581e-05
-2.53163e-05
-2.52746e-05
-2.50146e-05
-2.51102e-05
-2.51368e-05
-2.5306e-05
-2.54821e-05
-2.57573e-05
-2.60196e-05
-2.63502e-05
-2.669e-05
-2.70726e-05
-2.74551e-05
-2.78751e-05
-2.8322e-05
-2.8786e-05
-2.92681e-05
-2.97591e-05
-3.02582e-05
-3.0771e-05
-3.12562e-05
-3.1685e-05
-3.20491e-05
-3.23557e-05
-3.26125e-05
-3.2826e-05
-3.3005e-05
-3.31524e-05
-3.32769e-05
-3.33783e-05
-3.34656e-05
-3.35354e-05
-3.35977e-05
-3.36456e-05
-3.36915e-05
-3.37239e-05
-3.37592e-05
-3.37807e-05
-3.38091e-05
-3.38219e-05
-3.38455e-05
-3.38493e-05
-3.38773e-05
-3.38635e-05
-3.3912e-05
-3.38549e-05
-3.3963e-05
-3.38027e-05
-3.40751e-05
-3.36437e-05
-3.43592e-05
-3.32744e-05
-3.54399e-05
-2.1434e-06
5.0211e-06
5.43274e-06
5.50233e-06
5.51883e-06
5.52027e-06
5.52118e-06
5.51954e-06
5.51978e-06
5.51699e-06
-5.71703e-06
3.63029e-06
2.8182e-06
3.14366e-06
2.79669e-06
2.92725e-06
3.25388e-06
3.08751e-06
3.72277e-06
-1.87727e-05
-9.91519e-06
3.33248e-06
-5.10806e-06
3.57607e-06
4.14879e-06
5.44716e-06
4.61624e-06
5.27478e-06
5.47459e-06
-7.06271e-06
-4.77138e-06
4.50674e-06
4.11087e-06
3.73699e-06
5.44165e-06
5.59108e-06
3.77788e-06
-8.78006e-06
4.05326e-06
3.86779e-06
4.36785e-06
-7.95205e-06
-5.91715e-06
-9.324e-06
2.99095e-06
5.32179e-06
5.18423e-06
-4.32705e-06
-1.10663e-05
4.04626e-06
3.31649e-06
5.64141e-06
-7.42712e-06
-4.27596e-06
-6.9702e-06
-4.7026e-06
3.95312e-06
-1.04074e-05
3.5447e-06
4.07728e-06
-7.84085e-06
3.12121e-06
5.58403e-06
-7.21557e-06
-3.44316e-06
3.27504e-06
4.75746e-06
5.19723e-06
-1.04012e-05
-5.95437e-06
-1.67694e-05
3.81948e-06
-6.57726e-06
4.12328e-06
5.37458e-06
-5.25561e-06
-5.05716e-06
3.86189e-06
4.10591e-06
3.54793e-06
3.95967e-06
3.75767e-06
-9.57007e-06
3.25024e-06
-5.10102e-06
5.40174e-06
5.57246e-06
3.87328e-06
4.45712e-06
3.35014e-06
5.58845e-06
3.22614e-06
-6.47564e-06
-6.54513e-06
-4.52522e-06
3.62536e-06
-9.41773e-06
-1.34651e-05
-1.06441e-05
3.84794e-06
3.7181e-06
4.10572e-06
-1.47414e-05
-1.15425e-05
-9.58941e-06
3.84238e-06
4.46829e-06
3.64161e-06
-4.16853e-06
3.74536e-06
-1.16245e-05
4.09288e-06
3.11268e-06
-3.43078e-06
5.22917e-06
5.59956e-06
3.17632e-06
4.57809e-06
3.64444e-06
5.45399e-06
-1.17851e-05
4.31072e-06
4.46277e-06
5.45966e-06
-9.83461e-06
3.3219e-06
5.47185e-06
5.30057e-06
-5.80428e-06
3.75156e-06
3.80534e-06
3.89378e-06
3.51659e-06
-4.22035e-06
3.34698e-06
-7.19699e-06
3.60662e-06
4.71281e-06
3.54972e-06
5.52914e-06
3.59711e-06
4.5864e-06
4.06551e-06
-1.25099e-05
-1.01784e-05
3.22059e-06
-4.26627e-06
-1.638e-05
4.27092e-06
-7.81855e-06
3.76802e-06
-5.34767e-06
-5.64684e-06
-4.82732e-06
3.46342e-06
4.22987e-06
3.23467e-06
-5.62348e-06
3.06728e-06
5.37534e-06
-1.45881e-05
4.14779e-06
4.04508e-06
-7.27213e-06
-1.03936e-05
-8.67013e-06
5.50727e-06
3.78046e-06
5.34203e-06
-1.42712e-05
3.92965e-06
3.84735e-06
5.56736e-06
5.35771e-06
-4.17745e-06
4.18647e-06
4.11088e-06
3.84851e-06
-1.23814e-05
3.7011e-06
3.72483e-06
3.81283e-06
3.68229e-06
4.08077e-06
3.49452e-06
5.37333e-06
3.41493e-06
4.25368e-06
3.75359e-06
4.23752e-06
4.051e-06
-1.18536e-05
-9.5968e-06
3.76917e-06
-7.46665e-06
3.62652e-06
4.55952e-06
3.38194e-06
5.60421e-06
-1.64939e-05
4.41988e-06
3.73513e-06
-4.25927e-06
3.55283e-06
-7.60875e-06
5.29794e-06
5.62899e-06
4.32407e-06
4.0998e-06
-1.02095e-05
-1.37933e-05
4.31236e-06
3.67221e-06
4.13639e-06
3.48091e-06
4.22018e-06
3.44484e-06
4.24678e-06
-6.97313e-06
-4.23537e-06
3.5829e-06
-8.64829e-06
3.36986e-06
4.18278e-06
3.53672e-06
4.0009e-06
3.727e-06
5.51558e-06
5.48563e-06
-5.33793e-06
-5.44315e-06
-5.36851e-06
-5.28675e-06
-5.29005e-06
-5.27517e-06
-5.28113e-06
-5.06688e-06
-2.66931e-05
-3.77794e-05
-3.15559e-05
-3.30595e-05
)
;

boundaryField
{
    inlet
    {
        type            zeroGradient;
    }
    outlet
    {
        type            zeroGradient;
    }
    sideWall
    {
        type            empty;
    }
}


// ************************************************************************* //
