/*--------------------------------*- C++ -*----------------------------------*\
| =========                 |                                                 |
| \\      /  F ield         | foam-extend: Open Source CFD                    |
|  \\    /   O peration     | Version:     3.2                                |
|   \\  /    A nd           | Web:         http://www.foam-extend.org         |
|    \\/     M anipulation  | For copyright notice see file Copyright         |
\*---------------------------------------------------------------------------*/
FoamFile
{
    version     2.0;
    format      ascii;
    class       areaScalarField;
    location    "50";
    object      deltaHb;
}
// * * * * * * * * * * * * * * * * * * * * * * * * * * * * * * * * * * * * * //

dimensions      [0 1 -1 0 0 0 0];

internalField   nonuniform List<scalar> 
300
(
0
0
0
0
0
0
0
0
0
0
0
0
0
0
0
0
0
0
0
0
0
0
0
0
0
0
0
0
0
0
0
0
0
0
0
0
0
0
0
0
0
0
0
0
0
0
0
0
0
0
0
0
0
0
0
0
0
0
0
0
0
0
0
0
0
0
0
0
0
0
8.21379e-06
-2.30096e-07
-1.31314e-07
-1.33671e-08
-4.90399e-08
-1.03105e-08
-6.59568e-08
-9.40825e-06
-6.6822e-06
1.22967e-05
-2.35599e-07
-6.14971e-07
8.47098e-06
6.62859e-06
8.21739e-07
1.56251e-06
5.78952e-06
-2.53455e-05
-2.33449e-05
1.58429e-05
1.28211e-05
-2.19924e-08
5.87907e-06
9.37013e-06
-7.34648e-06
-1.6028e-05
-4.11905e-07
1.1325e-05
-1.73439e-07
-1.25879e-05
-1.29674e-05
-1.4043e-06
1.38865e-05
7.42022e-06
-2.20641e-06
-1.53464e-05
-1.33e-05
8.63098e-06
1.07131e-05
4.55754e-06
-1.58209e-05
-2.17769e-05
-2.57709e-07
6.11036e-07
1.52763e-05
-1.98342e-07
-5.73724e-07
9.33207e-06
-1.19243e-05
4.52289e-07
9.97244e-06
-1.93336e-05
-2.12591e-05
1.7686e-05
6.37968e-06
9.16913e-06
-8.70119e-06
-1.92091e-05
-4.6782e-07
7.63369e-06
-1.16377e-06
1.13188e-06
1.80162e-05
-1.91542e-05
-2.04182e-05
1.69511e-05
8.55553e-06
-3.12498e-07
-7.08245e-08
-8.07088e-08
-1.03415e-05
-8.92902e-08
3.8855e-07
8.51818e-06
2.25964e-05
-7.83772e-06
-7.10017e-06
-8.08757e-08
4.88089e-06
-1.49276e-07
-1.19019e-05
-1.4085e-05
1.74658e-07
1.50208e-05
-3.63342e-07
-1.15874e-05
-3.98594e-08
1.07477e-05
1.05152e-05
-1.95581e-08
-1.14981e-05
-8.33538e-06
-1.29207e-07
1.16123e-05
1.02559e-05
1.76055e-07
-9.6466e-06
1.53238e-07
5.18199e-07
-5.10832e-07
1.10116e-05
-7.40612e-06
7.84598e-06
2.23277e-05
-6.75616e-06
-4.36327e-06
-5.34125e-07
6.16794e-06
-1.16339e-05
-6.41359e-06
1.2528e-05
8.42636e-06
-1.51744e-05
-4.81643e-06
8.61192e-06
1.14682e-06
-1.75058e-05
-3.88158e-06
8.38868e-06
-1.87688e-07
1.05746e-07
-8.8364e-06
4.92592e-07
1.5812e-07
-2.31518e-07
8.03501e-06
-1.37512e-07
5.3503e-06
-2.35719e-07
-5.46474e-06
-2.84461e-07
-9.58588e-06
-1.11167e-05
1.12251e-05
-7.66856e-07
-1.49864e-05
6.39148e-06
-2.98972e-06
1.59282e-06
3.59127e-07
-2.0769e-05
3.84462e-06
1.67028e-05
6.99465e-06
3.35982e-08
-8.24899e-06
1.24487e-07
1.1204e-05
-1.31663e-05
-5.92453e-06
1.1265e-05
-1.16327e-05
-1.30172e-05
-2.80115e-07
2.01445e-05
1.59328e-05
4.28923e-07
-1.34668e-05
-5.56916e-06
1.0996e-05
6.10767e-06
7.63971e-06
-2.22679e-05
-6.71749e-06
1.11897e-05
-5.615e-07
-9.25645e-06
6.8936e-08
9.18137e-06
5.45287e-08
1.22974e-07
-9.26645e-08
2.10143e-09
5.5561e-06
2.80804e-08
-5.42821e-06
-5.67403e-08
5.38883e-08
-4.40677e-09
-1.06283e-05
-1.05605e-05
1.15209e-05
-1.84564e-07
2.44687e-07
8.83021e-06
1.69466e-07
4.66627e-06
-1.46021e-05
-4.39324e-06
1.36728e-05
-8.37877e-06
-5.81998e-07
5.864e-07
6.85551e-06
2.21319e-05
-7.01147e-06
-8.27498e-06
-9.66e-06
-1.16026e-05
8.47408e-06
1.32024e-05
1.48916e-07
-3.13943e-07
4.60147e-08
-4.39146e-07
2.02201e-07
-1.31838e-05
-1.39578e-05
1.61613e-05
-3.89341e-07
-1.86869e-07
8.0852e-06
3.94959e-08
1.32568e-08
3.29001e-07
5.2953e-06
0
0
0
0
0
0
0
0
0
0
0
0
0
0
)
;

boundaryField
{
    inlet
    {
        type            zeroGradient;
    }
    outlet
    {
        type            zeroGradient;
    }
    sideWall
    {
        type            empty;
    }
}


// ************************************************************************* //
