/*--------------------------------*- C++ -*----------------------------------*\
| =========                 |                                                 |
| \\      /  F ield         | foam-extend: Open Source CFD                    |
|  \\    /   O peration     | Version:     3.2                                |
|   \\  /    A nd           | Web:         http://www.foam-extend.org         |
|    \\/     M anipulation  | For copyright notice see file Copyright         |
\*---------------------------------------------------------------------------*/
FoamFile
{
    version     2.0;
    format      ascii;
    class       volScalarField;
    location    "50";
    object      DiSS;
}
// * * * * * * * * * * * * * * * * * * * * * * * * * * * * * * * * * * * * * //

dimensions      [0 2 -1 0 0 0 0];

internalField   nonuniform List<scalar> 
5400
(
3.51855e-05
2.82457e-05
2.43846e-05
2.44128e-05
2.40466e-05
2.40386e-05
2.38562e-05
2.38459e-05
2.37812e-05
2.38051e-05
2.38117e-05
2.38537e-05
2.38973e-05
2.3965e-05
2.40292e-05
2.41097e-05
2.41918e-05
2.42835e-05
2.43745e-05
2.44736e-05
2.45782e-05
2.46859e-05
2.47967e-05
2.49085e-05
2.50211e-05
2.51357e-05
2.52432e-05
2.53374e-05
2.54168e-05
2.54833e-05
2.55387e-05
2.55846e-05
2.56229e-05
2.56544e-05
2.56809e-05
2.57025e-05
2.5721e-05
2.57358e-05
2.5749e-05
2.57592e-05
2.57688e-05
2.57757e-05
2.57831e-05
2.57877e-05
2.57937e-05
2.57964e-05
2.58016e-05
2.58027e-05
2.58087e-05
2.58058e-05
2.5816e-05
2.58039e-05
2.58267e-05
2.57929e-05
2.58503e-05
2.57593e-05
2.59097e-05
2.56816e-05
2.61264e-05
2.52422e-05
2.15977e-05
2.18784e-05
2.26332e-05
2.25853e-05
2.28138e-05
2.27044e-05
2.27962e-05
2.26818e-05
2.2721e-05
2.2694e-05
2.26794e-05
2.28368e-05
2.28576e-05
2.28714e-05
2.28188e-05
2.28731e-05
2.27481e-05
2.28356e-05
2.26731e-05
2.30033e-05
2.25624e-05
2.31776e-05
2.27389e-05
2.24997e-05
2.33815e-05
2.20906e-05
2.29053e-05
2.26649e-05
2.30403e-05
2.27884e-05
2.24832e-05
2.27784e-05
2.25452e-05
2.29742e-05
2.24347e-05
2.25731e-05
2.25555e-05
2.27664e-05
2.24631e-05
2.27821e-05
2.23913e-05
2.3129e-05
2.28415e-05
2.14355e-05
2.41718e-05
2.38876e-05
2.18525e-05
2.24786e-05
2.26542e-05
2.24966e-05
2.27546e-05
2.27382e-05
2.29203e-05
2.28981e-05
2.2746e-05
2.25521e-05
2.28606e-05
2.27867e-05
2.26567e-05
2.31664e-05
2.24493e-05
2.3072e-05
2.35275e-05
2.26746e-05
2.2592e-05
2.28583e-05
2.2698e-05
2.27473e-05
2.29373e-05
2.29241e-05
2.26197e-05
2.33957e-05
2.21906e-05
2.33248e-05
2.43049e-05
2.22753e-05
2.27457e-05
2.28314e-05
2.28666e-05
2.28444e-05
2.29042e-05
2.29441e-05
2.29859e-05
2.27829e-05
2.32704e-05
2.28871e-05
2.2801e-05
2.30217e-05
2.28446e-05
2.29825e-05
2.29133e-05
2.29156e-05
2.32205e-05
2.28882e-05
2.29507e-05
2.30645e-05
2.30266e-05
2.31182e-05
2.30703e-05
2.3118e-05
2.31046e-05
2.31317e-05
2.30903e-05
2.31992e-05
2.30391e-05
2.32399e-05
2.29465e-05
2.34193e-05
2.2914e-05
2.32138e-05
2.31702e-05
2.31021e-05
2.34622e-05
2.36061e-05
2.31855e-05
2.28991e-05
2.33401e-05
2.30678e-05
2.32834e-05
2.31132e-05
2.3129e-05
2.31987e-05
2.30286e-05
2.34179e-05
2.19839e-05
2.4268e-05
2.38979e-05
2.24612e-05
2.30567e-05
2.29424e-05
2.31897e-05
2.29399e-05
2.34196e-05
2.28075e-05
2.33366e-05
2.28778e-05
2.32813e-05
2.28992e-05
2.32827e-05
2.29476e-05
2.31557e-05
2.29912e-05
2.30109e-05
2.32462e-05
2.28314e-05
2.37146e-05
2.27913e-05
2.30521e-05
2.37253e-05
2.24071e-05
2.35514e-05
2.47901e-05
2.25749e-05
2.31851e-05
2.32247e-05
2.31694e-05
2.34256e-05
2.31179e-05
2.33498e-05
2.32225e-05
2.33901e-05
2.31406e-05
2.34004e-05
2.3123e-05
2.36039e-05
2.35651e-05
2.2982e-05
2.33487e-05
2.31746e-05
2.32952e-05
2.31031e-05
2.31852e-05
2.36373e-05
2.30578e-05
2.29868e-05
2.32836e-05
2.3179e-05
2.3183e-05
2.31802e-05
2.32244e-05
2.31825e-05
2.31697e-05
2.31969e-05
2.31406e-05
2.32141e-05
2.31261e-05
2.31475e-05
2.30568e-05
2.30176e-05
2.29734e-05
2.30011e-05
2.31107e-05
2.30948e-05
2.32281e-05
2.30343e-05
2.32791e-05
2.29889e-05
2.33362e-05
2.2998e-05
2.32773e-05
2.30656e-05
2.32705e-05
2.32661e-05
2.29815e-05
2.38821e-05
2.28315e-05
2.3099e-05
2.29508e-05
2.3018e-05
2.30034e-05
2.31322e-05
2.29313e-05
2.30088e-05
2.30379e-05
2.297e-05
2.31035e-05
2.27375e-05
2.35452e-05
2.28355e-05
2.29669e-05
2.30638e-05
2.30648e-05
2.31689e-05
2.30892e-05
2.31564e-05
2.28485e-05
2.32846e-05
2.32367e-05
2.30691e-05
2.32504e-05
2.32008e-05
2.33434e-05
2.31748e-05
2.3456e-05
2.30772e-05
2.39081e-05
2.78569e-05
2.69361e-05
2.56557e-05
2.59793e-05
3.34573e-05
4.43056e-05
4.81516e-05
5.10202e-05
5.28849e-05
5.37646e-05
5.44351e-05
5.48388e-05
5.52589e-05
5.55839e-05
5.59151e-05
5.62311e-05
5.65457e-05
5.68707e-05
5.71836e-05
5.74976e-05
5.78148e-05
5.81307e-05
5.84503e-05
5.87686e-05
5.90833e-05
5.93951e-05
5.9701e-05
5.99989e-05
6.0288e-05
6.05546e-05
6.07835e-05
6.09662e-05
6.1108e-05
6.12177e-05
6.13025e-05
6.13688e-05
6.14204e-05
6.14615e-05
6.14937e-05
6.15202e-05
6.15409e-05
6.15587e-05
6.15725e-05
6.15852e-05
6.15946e-05
6.16043e-05
6.16107e-05
6.16184e-05
6.16228e-05
6.16287e-05
6.16324e-05
6.16364e-05
6.16407e-05
6.16413e-05
6.16485e-05
6.1642e-05
6.16566e-05
6.16357e-05
6.16708e-05
6.16131e-05
6.17034e-05
6.15674e-05
6.166e-05
5.96212e-05
5.8648e-05
5.80873e-05
5.7114e-05
5.66823e-05
5.63408e-05
5.61679e-05
5.60833e-05
5.59524e-05
5.59085e-05
5.57426e-05
5.5735e-05
5.59031e-05
5.58658e-05
5.56265e-05
5.55174e-05
5.54815e-05
5.53117e-05
5.53463e-05
5.5235e-05
5.54875e-05
5.52338e-05
5.54195e-05
5.49982e-05
5.48978e-05
5.52615e-05
5.43662e-05
5.50825e-05
5.49824e-05
5.52e-05
5.51068e-05
5.49503e-05
5.5111e-05
5.50238e-05
5.51952e-05
5.46793e-05
5.49724e-05
5.51726e-05
5.5263e-05
5.49879e-05
5.51472e-05
5.51745e-05
5.54295e-05
5.4704e-05
5.45543e-05
5.59312e-05
5.5013e-05
5.45473e-05
5.546e-05
5.51247e-05
5.49499e-05
5.51021e-05
5.53685e-05
5.55239e-05
5.53798e-05
5.52945e-05
5.52936e-05
5.54471e-05
5.52141e-05
5.51861e-05
5.54482e-05
5.50802e-05
5.52883e-05
5.53496e-05
5.49999e-05
5.52607e-05
5.51957e-05
5.51104e-05
5.53162e-05
5.54338e-05
5.53134e-05
5.53072e-05
5.55092e-05
5.51445e-05
5.54558e-05
5.54603e-05
5.45504e-05
5.54083e-05
5.53896e-05
5.53017e-05
5.52213e-05
5.53755e-05
5.54702e-05
5.55256e-05
5.55267e-05
5.55027e-05
5.51892e-05
5.53849e-05
5.54632e-05
5.53432e-05
5.54014e-05
5.54025e-05
5.55318e-05
5.55602e-05
5.54378e-05
5.55392e-05
5.55409e-05
5.56327e-05
5.55498e-05
5.55018e-05
5.54727e-05
5.54618e-05
5.5517e-05
5.55647e-05
5.55475e-05
5.53781e-05
5.55148e-05
5.53792e-05
5.55762e-05
5.53521e-05
5.56018e-05
5.54431e-05
5.57147e-05
5.56314e-05
5.54709e-05
5.53893e-05
5.55149e-05
5.57081e-05
5.54741e-05
5.55727e-05
5.55183e-05
5.55652e-05
5.52695e-05
5.53168e-05
5.53145e-05
5.52897e-05
5.58971e-05
5.49474e-05
5.48076e-05
5.55499e-05
5.54991e-05
5.55285e-05
5.54823e-05
5.55566e-05
5.52524e-05
5.55706e-05
5.53985e-05
5.54514e-05
5.53177e-05
5.53065e-05
5.5267e-05
5.52264e-05
5.52143e-05
5.5459e-05
5.52951e-05
5.5336e-05
5.55254e-05
5.49725e-05
5.55144e-05
5.53897e-05
5.516e-05
5.57089e-05
5.54654e-05
5.46531e-05
5.55655e-05
5.53035e-05
5.5573e-05
5.54101e-05
5.53515e-05
5.55196e-05
5.56061e-05
5.55566e-05
5.53361e-05
5.56184e-05
5.56686e-05
5.5819e-05
5.53669e-05
5.50032e-05
5.5451e-05
5.54242e-05
5.55204e-05
5.55061e-05
5.53744e-05
5.54472e-05
5.52282e-05
5.54134e-05
5.54061e-05
5.51676e-05
5.54377e-05
5.55575e-05
5.5541e-05
5.5544e-05
5.54638e-05
5.54846e-05
5.55182e-05
5.54962e-05
5.54823e-05
5.52997e-05
5.50236e-05
5.50865e-05
5.51665e-05
5.52922e-05
5.55255e-05
5.558e-05
5.55806e-05
5.54565e-05
5.55961e-05
5.53474e-05
5.54359e-05
5.53407e-05
5.54568e-05
5.54213e-05
5.56051e-05
5.53493e-05
5.54127e-05
5.53959e-05
5.4746e-05
5.50652e-05
5.50519e-05
5.52625e-05
5.54291e-05
5.55068e-05
5.52648e-05
5.52735e-05
5.54032e-05
5.53437e-05
5.51239e-05
5.50022e-05
5.54887e-05
5.51559e-05
5.53632e-05
5.5206e-05
5.52481e-05
5.53226e-05
5.53391e-05
5.51903e-05
5.48839e-05
5.50508e-05
5.51123e-05
5.53454e-05
5.56534e-05
5.57823e-05
5.59132e-05
5.5762e-05
5.59299e-05
5.59273e-05
5.67944e-05
5.89383e-05
5.84766e-05
5.91173e-05
6.02246e-05
3.04446e-05
4.79806e-05
5.63922e-05
6.57565e-05
7.29112e-05
7.64933e-05
7.88762e-05
8.07786e-05
8.22363e-05
8.35291e-05
8.45805e-05
8.55636e-05
8.64575e-05
8.72802e-05
8.80684e-05
8.8805e-05
8.95171e-05
9.02075e-05
9.08742e-05
9.15188e-05
9.21399e-05
9.27372e-05
9.33071e-05
9.38453e-05
9.43526e-05
9.48006e-05
9.51393e-05
9.53792e-05
9.55471e-05
9.56633e-05
9.57444e-05
9.57996e-05
9.58382e-05
9.58638e-05
9.58823e-05
9.58943e-05
9.59039e-05
9.59102e-05
9.59161e-05
9.59201e-05
9.59247e-05
9.59277e-05
9.5932e-05
9.59345e-05
9.59386e-05
9.59401e-05
9.5944e-05
9.59459e-05
9.59486e-05
9.5951e-05
9.5951e-05
9.59531e-05
9.59527e-05
9.59539e-05
9.59509e-05
9.5952e-05
9.59458e-05
9.60252e-05
9.5787e-05
9.10904e-05
9.16981e-05
9.27795e-05
9.1481e-05
9.07617e-05
8.98926e-05
8.94424e-05
8.90505e-05
8.88105e-05
8.87527e-05
8.84353e-05
8.8429e-05
8.83604e-05
8.81592e-05
8.79104e-05
8.76672e-05
8.74007e-05
8.72428e-05
8.71386e-05
8.70691e-05
8.68733e-05
8.68765e-05
8.66962e-05
8.58968e-05
8.68282e-05
8.5978e-05
8.53936e-05
8.64239e-05
8.60591e-05
8.6475e-05
8.56756e-05
8.63595e-05
8.60979e-05
8.65091e-05
8.61259e-05
8.59503e-05
8.62395e-05
8.65007e-05
8.64507e-05
8.62861e-05
8.63471e-05
8.62538e-05
8.64858e-05
8.4741e-05
8.45365e-05
8.69452e-05
8.44575e-05
8.41129e-05
8.64765e-05
8.62721e-05
8.64441e-05
8.64602e-05
8.64989e-05
8.67301e-05
8.6428e-05
8.63892e-05
8.6634e-05
8.67821e-05
8.63133e-05
8.6627e-05
8.62107e-05
8.65852e-05
8.69007e-05
8.57161e-05
8.59663e-05
8.64631e-05
8.63546e-05
8.64092e-05
8.67001e-05
8.6556e-05
8.63424e-05
8.67273e-05
8.63034e-05
8.6744e-05
8.76243e-05
8.52748e-05
8.55489e-05
8.62381e-05
8.62702e-05
8.65324e-05
8.64048e-05
8.65766e-05
8.64697e-05
8.65297e-05
8.68263e-05
8.65608e-05
8.60464e-05
8.66445e-05
8.63537e-05
8.65415e-05
8.64482e-05
8.64353e-05
8.65796e-05
8.6398e-05
8.63028e-05
8.67248e-05
8.64726e-05
8.66336e-05
8.64722e-05
8.66013e-05
8.65377e-05
8.66036e-05
8.64594e-05
8.65867e-05
8.65058e-05
8.65997e-05
8.65294e-05
8.66768e-05
8.6368e-05
8.63721e-05
8.67589e-05
8.63012e-05
8.68198e-05
8.65939e-05
8.63872e-05
8.60687e-05
8.67551e-05
8.66499e-05
8.66328e-05
8.65574e-05
8.64248e-05
8.66884e-05
8.64009e-05
8.66397e-05
8.57287e-05
8.70894e-05
8.68831e-05
8.43855e-05
8.58028e-05
8.62127e-05
8.65695e-05
8.63323e-05
8.65688e-05
8.63019e-05
8.64225e-05
8.62854e-05
8.62805e-05
8.63716e-05
8.61375e-05
8.63155e-05
8.59504e-05
8.6464e-05
8.58847e-05
8.65714e-05
8.58384e-05
8.65841e-05
8.60159e-05
8.60446e-05
8.66807e-05
8.56745e-05
8.63613e-05
8.72205e-05
8.50466e-05
8.52647e-05
8.63271e-05
8.58808e-05
8.65083e-05
8.60425e-05
8.64101e-05
8.63238e-05
8.65292e-05
8.63966e-05
8.64611e-05
8.64356e-05
8.6731e-05
8.66832e-05
8.57724e-05
8.61631e-05
8.62484e-05
8.63002e-05
8.64026e-05
8.65082e-05
8.6876e-05
8.61007e-05
8.60329e-05
8.64834e-05
8.64014e-05
8.63795e-05
8.66145e-05
8.65896e-05
8.65634e-05
8.66132e-05
8.65473e-05
8.64536e-05
8.65147e-05
8.63996e-05
8.63508e-05
8.63182e-05
8.6151e-05
8.62099e-05
8.61449e-05
8.62866e-05
8.63639e-05
8.64942e-05
8.64354e-05
8.64953e-05
8.64021e-05
8.64045e-05
8.63089e-05
8.63079e-05
8.63675e-05
8.62027e-05
8.65603e-05
8.58465e-05
8.65083e-05
8.56978e-05
8.55049e-05
8.58775e-05
8.58579e-05
8.6381e-05
8.61912e-05
8.6514e-05
8.61434e-05
8.63889e-05
8.60127e-05
8.62892e-05
8.57851e-05
8.63228e-05
8.59294e-05
8.56285e-05
8.60704e-05
8.59076e-05
8.62336e-05
8.5964e-05
8.61596e-05
8.57779e-05
8.62187e-05
8.61231e-05
8.59174e-05
8.63041e-05
8.66678e-05
8.68495e-05
8.67669e-05
8.66702e-05
8.66561e-05
8.71004e-05
8.98578e-05
9.00638e-05
8.85817e-05
9.07263e-05
9.20086e-05
2.86959e-05
4.156e-05
5.26473e-05
6.64432e-05
7.81392e-05
8.67757e-05
9.35677e-05
9.78441e-05
0.000101259
0.000104178
0.000106588
0.000108723
0.000110609
0.000112321
0.000113893
0.000115328
0.00011668
0.000117952
0.000119154
0.000120291
0.000121362
0.000122371
0.000123311
0.000124178
0.000124973
0.000125642
0.000126122
0.000126442
0.000126648
0.000126774
0.000126847
0.000126884
0.000126898
0.000126898
0.000126891
0.000126879
0.000126867
0.000126854
0.000126844
0.000126834
0.000126827
0.000126821
0.000126817
0.000126814
0.000126812
0.00012681
0.00012681
0.00012681
0.00012681
0.000126811
0.000126809
0.000126813
0.000126808
0.000126815
0.000126803
0.000126817
0.000126788
0.00012693
0.000126401
0.000119901
0.000118901
0.000123296
0.000122927
0.000122483
0.000121482
0.000120887
0.00012023
0.000119826
0.000119675
0.000119215
0.000119141
0.000118939
0.000118553
0.000117999
0.00011746
0.000116936
0.000116457
0.000115989
0.000115683
0.000115807
0.000114997
0.000115387
0.000114334
0.000115068
0.000114415
0.000113138
0.00011457
0.000113712
0.000114408
0.000112979
0.000113973
0.000114273
0.000114863
0.000114446
0.000113663
0.00011389
0.000113962
0.000114815
0.00011388
0.000114123
0.000113183
0.000114781
0.000112581
0.000110827
0.00011553
0.000112073
0.000110266
0.000114065
0.000114388
0.000114549
0.00011483
0.000114706
0.000115116
0.00011467
0.00011451
0.000114939
0.000115197
0.000114571
0.000114948
0.000114467
0.00011449
0.000115315
0.000113814
0.00011384
0.000114585
0.000114614
0.000114743
0.000115137
0.000114906
0.00011462
0.000115133
0.000114637
0.000114047
0.000116063
0.000112999
0.000112863
0.000113968
0.000114327
0.000114778
0.000114726
0.00011492
0.000114842
0.000114893
0.000115254
0.000114923
0.000114213
0.000114889
0.000114584
0.000114824
0.000114739
0.000114718
0.000114954
0.000114694
0.000114456
0.000114995
0.000114717
0.000114893
0.000114728
0.000114894
0.000114817
0.00011489
0.000114745
0.000114897
0.00011483
0.000114959
0.000114851
0.00011499
0.000114624
0.00011456
0.000115046
0.000114453
0.000115053
0.000114958
0.00011449
0.000113936
0.000114812
0.000114828
0.000114869
0.000114803
0.000114625
0.000114915
0.000114632
0.000114918
0.000113644
0.000113248
0.00011511
0.000111707
0.000113219
0.000113958
0.000114565
0.000114371
0.000114697
0.000114408
0.000114453
0.00011439
0.00011433
0.000114376
0.000114122
0.000114242
0.00011386
0.000114374
0.000113747
0.000114572
0.0001137
0.000114588
0.000113999
0.000113859
0.000114643
0.000113354
0.000114144
0.000115262
0.000112655
0.000112509
0.000114034
0.000113697
0.000114477
0.000113959
0.000114403
0.000114359
0.000114621
0.000114494
0.000114565
0.000114522
0.000114876
0.000114752
0.000113573
0.000114015
0.000114182
0.000114276
0.000114439
0.000114534
0.00011499
0.000114014
0.000113728
0.000114368
0.000114465
0.000114518
0.000114804
0.000114764
0.000114669
0.000114688
0.000114619
0.000114529
0.000114603
0.000114459
0.000114369
0.000114287
0.000114175
0.000114281
0.000114118
0.000114262
0.000114373
0.000114541
0.000114496
0.000114572
0.000114454
0.000114447
0.000114383
0.000114322
0.000114324
0.000114219
0.000114572
0.000113661
0.000114497
0.000113575
0.000113043
0.000113651
0.000113791
0.000114283
0.000114086
0.000114409
0.000113929
0.000114194
0.000113742
0.000114099
0.00011356
0.000114272
0.000113828
0.000113213
0.000113649
0.000113531
0.000113989
0.000113707
0.00011394
0.000113472
0.00011404
0.000114058
0.000113787
0.000114155
0.000114625
0.000114821
0.000114621
0.00011453
0.000114565
0.000115421
0.000119295
0.000118624
0.000115765
0.000117405
0.000119129
2.95366e-05
3.54505e-05
4.88704e-05
6.12654e-05
7.22162e-05
8.45627e-05
9.54598e-05
0.000104055
0.000111255
0.000117148
0.000121388
0.000125113
0.00012839
0.000131342
0.000134003
0.000136413
0.000138648
0.00014072
0.000142654
0.000144457
0.000146133
0.000147691
0.000149122
0.000150424
0.000151594
0.00015256
0.000153253
0.000153722
0.00015403
0.000154222
0.000154335
0.000154393
0.000154418
0.000154421
0.000154413
0.000154398
0.000154381
0.000154365
0.00015435
0.000154338
0.000154328
0.000154322
0.000154316
0.000154314
0.000154311
0.00015431
0.00015431
0.000154311
0.000154311
0.000154313
0.000154311
0.000154318
0.000154313
0.000154324
0.000154308
0.000154332
0.00015429
0.000154472
0.000153683
0.000145964
0.000140873
0.000149735
0.000150583
0.000150731
0.000149972
0.000149479
0.000148739
0.00014827
0.000148067
0.000147577
0.000147459
0.000147092
0.000146492
0.000145632
0.000144793
0.000143969
0.000143005
0.000142211
0.000141667
0.000142003
0.00014083
0.000141563
0.000140034
0.000140419
0.000140329
0.000138204
0.0001398
0.000138581
0.00014002
0.000138082
0.0001387
0.000139484
0.000139799
0.000140091
0.00013864
0.000138803
0.000138736
0.000139782
0.000138811
0.000139103
0.000137545
0.000140432
0.000138013
0.000135614
0.000141422
0.000137511
0.00013418
0.000138357
0.000139594
0.000139155
0.000139596
0.000139281
0.000140698
0.000140177
0.000139634
0.000139738
0.000140621
0.000139981
0.000140446
0.000139987
0.000138903
0.000140921
0.00013936
0.000139113
0.00013991
0.000140063
0.000140261
0.000140701
0.00014042
0.000140085
0.000140657
0.00014015
0.000136512
0.000141565
0.000138229
0.00013763
0.000138918
0.000139551
0.00014014
0.000140199
0.000140426
0.000140383
0.000140406
0.000140792
0.000140496
0.000139603
0.000140251
0.000139988
0.000140276
0.000140229
0.000140224
0.000140491
0.00014021
0.000139842
0.000140395
0.000140136
0.000140346
0.000140185
0.000140357
0.000140267
0.000140359
0.000140231
0.000140367
0.000140318
0.000140454
0.000140327
0.000140444
0.000140101
0.000139953
0.000140454
0.000139769
0.000140399
0.000140503
0.000139924
0.000139112
0.000140015
0.000140157
0.000140262
0.000140234
0.000140063
0.000140356
0.000140091
0.000140373
0.000138891
0.000137835
0.000140631
0.00013676
0.000138022
0.000138904
0.000139676
0.00013956
0.00013995
0.000139695
0.000139691
0.000139715
0.000139587
0.000139648
0.000139383
0.000139447
0.000138994
0.000139474
0.000138816
0.00013969
0.000138793
0.000139744
0.000139217
0.000138941
0.000139769
0.000138337
0.000138062
0.000140389
0.000137766
0.000137201
0.000138924
0.000138684
0.000139522
0.00013904
0.000139514
0.000139524
0.000139816
0.000139716
0.000139794
0.000139751
0.000140098
0.000139961
0.000138645
0.000139029
0.000139249
0.000139358
0.000139525
0.000139558
0.000140109
0.000139135
0.000138663
0.000139382
0.000139637
0.000139789
0.000140068
0.000140035
0.000139914
0.000139903
0.000139853
0.000139753
0.000139812
0.000139625
0.000139484
0.000139379
0.000139348
0.000139468
0.000139241
0.000139364
0.00013944
0.000139646
0.00013969
0.000139809
0.000139712
0.000139734
0.000139739
0.000139596
0.000139587
0.000139493
0.000139744
0.000138708
0.00013964
0.000138718
0.000137962
0.000138767
0.000138998
0.00013937
0.000139165
0.000139374
0.000138839
0.00013913
0.00013867
0.000139086
0.000138578
0.000139392
0.000138992
0.000138159
0.00013853
0.000138401
0.000138896
0.000138642
0.000138895
0.000138398
0.000139021
0.000139218
0.000138999
0.000139287
0.000139738
0.000139845
0.000139567
0.000139594
0.000139738
0.000140942
0.000144467
0.000144627
0.000140863
0.000141841
0.000143206
3.55278e-05
3.27918e-05
4.12078e-05
5.46382e-05
6.28883e-05
7.58833e-05
8.83071e-05
9.98158e-05
0.000110297
0.00011922
0.000126955
0.00013339
0.000139276
0.000144047
0.000148064
0.000151701
0.000155047
0.000158135
0.000160995
0.000163637
0.000166077
0.000168327
0.000170378
0.000172231
0.000173884
0.000175259
0.000176281
0.000177013
0.000177529
0.000177884
0.000178125
0.000178284
0.000178388
0.000178455
0.000178497
0.000178524
0.000178543
0.000178556
0.000178566
0.000178577
0.000178585
0.000178596
0.000178605
0.000178616
0.000178624
0.000178635
0.000178642
0.000178652
0.000178658
0.000178668
0.000178672
0.000178684
0.000178683
0.000178701
0.000178686
0.000178719
0.000178671
0.000178877
0.000177868
0.000169451
0.000160463
0.000172913
0.000174713
0.000175471
0.000175147
0.000174948
0.00017433
0.000173938
0.000173371
0.00017331
0.000173195
0.00017267
0.000171854
0.000170724
0.000169617
0.000168522
0.000167633
0.000166442
0.000165676
0.000166068
0.000164848
0.000165333
0.000163893
0.000163884
0.000163832
0.000161355
0.000162877
0.000161494
0.000164149
0.000161808
0.000161601
0.000162405
0.000162613
0.000163217
0.000161524
0.000161612
0.000161452
0.00016259
0.000161755
0.000162041
0.000160103
0.000163583
0.000161134
0.000159183
0.000164701
0.000160674
0.000156535
0.000160698
0.000161975
0.000161409
0.000161994
0.000161603
0.000163225
0.000163135
0.000162595
0.00016204
0.000163351
0.000162774
0.00016334
0.000162948
0.000161883
0.000163913
0.000162437
0.000161996
0.000162746
0.00016296
0.000162979
0.000163621
0.000163312
0.000162954
0.000163546
0.00016306
0.000157893
0.000164443
0.000161082
0.000160141
0.000161474
0.000162245
0.00016289
0.000163067
0.000163327
0.000163304
0.000163295
0.000163706
0.000163439
0.000162456
0.000163043
0.000162824
0.00016317
0.00016315
0.000163147
0.000163427
0.000163123
0.000162661
0.000163191
0.000162978
0.000163215
0.000163061
0.000163217
0.000163123
0.000163253
0.000163172
0.000163295
0.000163227
0.000163342
0.000163184
0.000163311
0.000163011
0.000162821
0.000163277
0.000162546
0.000163195
0.00016352
0.000162921
0.000161904
0.000162762
0.000162952
0.00016311
0.000163116
0.000162999
0.000163296
0.000163065
0.000163292
0.000161693
0.000162359
0.000163611
0.000159614
0.000160529
0.000161407
0.00016224
0.000162193
0.000162627
0.000162416
0.000162399
0.000162485
0.000162348
0.000162435
0.000162202
0.000162211
0.000161718
0.00016212
0.000161425
0.000162295
0.000161425
0.000162408
0.000161936
0.000161574
0.000162394
0.000160903
0.000161596
0.000162946
0.000160481
0.000159636
0.000161362
0.000161171
0.000162006
0.00016158
0.000162059
0.000162109
0.000162415
0.000162349
0.000162445
0.000162403
0.00016273
0.000162585
0.000161214
0.000161515
0.000161763
0.000161876
0.000162007
0.000162073
0.000162684
0.000161793
0.000161184
0.000161874
0.000162217
0.000162452
0.000162691
0.000162688
0.000162601
0.000162582
0.000162543
0.000162415
0.000162452
0.00016222
0.000162023
0.000161877
0.000161885
0.000162027
0.000161849
0.000161975
0.000161985
0.000162198
0.000162326
0.000162501
0.000162478
0.000162583
0.000162666
0.000162466
0.000162456
0.000162311
0.000162414
0.000161304
0.000162271
0.000161346
0.000160512
0.00016143
0.000161642
0.000161877
0.000161717
0.000161789
0.000161217
0.000161578
0.000161158
0.000161612
0.000161145
0.000162006
0.000161664
0.000160723
0.000161022
0.000160848
0.000161315
0.000161092
0.000161355
0.000160866
0.000161499
0.000161828
0.0001617
0.000161928
0.000162299
0.00016229
0.000162001
0.00016223
0.000162502
0.000163987
0.00016815
0.000168077
0.000163868
0.000164023
0.000165001
5.00038e-05
3.47921e-05
3.57364e-05
4.44023e-05
5.67877e-05
6.74382e-05
7.74582e-05
8.95913e-05
0.000101845
0.000112939
0.000123465
0.000132483
0.000140839
0.000147989
0.000154407
0.000159928
0.000165001
0.000169867
0.000174056
0.000177695
0.000181048
0.000184127
0.000186928
0.000189454
0.000191726
0.000193677
0.000195183
0.000196325
0.000197186
0.000197831
0.000198316
0.000198682
0.00019896
0.000199174
0.000199342
0.000199476
0.000199586
0.000199678
0.000199756
0.000199825
0.000199883
0.000199938
0.000199984
0.00020003
0.000200066
0.000200102
0.00020013
0.00020016
0.000200181
0.000200206
0.000200222
0.000200247
0.000200256
0.000200284
0.000200275
0.000200318
0.000200271
0.00020049
0.000199315
0.000190599
0.000179857
0.00019242
0.000195902
0.000197104
0.000197251
0.00019742
0.000197085
0.00019688
0.00019618
0.000196463
0.000196374
0.000195716
0.0001947
0.000193358
0.000192032
0.000190744
0.000189773
0.000189003
0.000188292
0.0001878
0.000187505
0.000186901
0.000185389
0.000186082
0.000185142
0.000183239
0.000184652
0.000183317
0.00018538
0.000183481
0.000183226
0.000183594
0.00018399
0.000184087
0.000182954
0.000183041
0.000182823
0.000184018
0.000183313
0.00018355
0.000181487
0.000184473
0.000182125
0.000181442
0.000185619
0.000181645
0.000177537
0.000181531
0.000182425
0.000182353
0.000182769
0.000182544
0.000184324
0.000183818
0.000183347
0.000182916
0.000183753
0.000183267
0.000183925
0.000183624
0.000183681
0.000184574
0.00018327
0.000182721
0.000183402
0.000183622
0.000183692
0.000184217
0.000183894
0.000183534
0.000184116
0.000183676
0.000180126
0.000185014
0.000181783
0.000180642
0.000181932
0.000182717
0.000183368
0.000183661
0.000183948
0.000183927
0.000183883
0.000184301
0.000184061
0.000183065
0.000183593
0.000183423
0.000183808
0.000183795
0.000183774
0.000184069
0.000183724
0.000183222
0.000183705
0.000183521
0.000183773
0.00018364
0.000183784
0.000183698
0.000183888
0.000183866
0.000183975
0.000183865
0.000183928
0.000183733
0.000183873
0.000183636
0.000183435
0.000183845
0.000183119
0.000183783
0.000184316
0.000183776
0.000182593
0.000183334
0.000183538
0.000183733
0.000183765
0.000183715
0.000184004
0.000183835
0.000183976
0.000182315
0.000183738
0.000184287
0.000180415
0.000180981
0.000181765
0.000182584
0.000182581
0.000183038
0.000182872
0.000182865
0.000182998
0.000182871
0.000183006
0.000182808
0.000182824
0.000182278
0.000182616
0.000181906
0.000182723
0.000181907
0.000182877
0.000182462
0.000182055
0.000182842
0.000181348
0.000181862
0.000183223
0.000181026
0.000180048
0.000181675
0.000181494
0.000182284
0.000181911
0.000182372
0.000182452
0.000182764
0.000182735
0.000182844
0.000182801
0.000183102
0.000182952
0.000181587
0.000181806
0.000182064
0.00018218
0.00018229
0.00018241
0.000183109
0.000182337
0.000181619
0.000182198
0.000182556
0.000182839
0.000183022
0.000183045
0.000183028
0.000183025
0.000182995
0.000182806
0.000182793
0.000182549
0.000182326
0.000182109
0.00018212
0.000182311
0.000182257
0.00018244
0.000182432
0.000182646
0.000182771
0.000182993
0.000183085
0.000183312
0.000183473
0.000183248
0.00018322
0.00018297
0.00018293
0.000181782
0.000182684
0.00018177
0.00018093
0.00018185
0.000181945
0.000182064
0.000181959
0.000181988
0.00018142
0.000181859
0.000181513
0.000181996
0.000181582
0.000182434
0.000182141
0.000181171
0.000181379
0.000181184
0.000181609
0.000181409
0.000181667
0.000181208
0.000181806
0.000182195
0.000182153
0.000182357
0.000182651
0.000182579
0.000182363
0.000182782
0.000183152
0.000184852
0.000190402
0.000189135
0.00018474
0.000184204
0.000184776
7.70591e-05
4.50928e-05
3.70171e-05
3.87502e-05
4.74446e-05
6.0139e-05
6.79471e-05
7.8947e-05
9.00548e-05
0.000101679
0.000113715
0.000124599
0.000135053
0.00014436
0.00015304
0.00016065
0.000167446
0.000173902
0.00017971
0.000185004
0.000189787
0.000193933
0.000197592
0.000200581
0.000203822
0.00020792
0.00021008
0.000211791
0.000213149
0.000214228
0.000215092
0.000215786
0.000216351
0.000216813
0.000217195
0.000217514
0.000217784
0.000218014
0.00021821
0.000218383
0.00021853
0.000218662
0.000218774
0.000218878
0.000218963
0.000219042
0.000219107
0.00021917
0.000219219
0.000219268
0.000219306
0.000219349
0.000219375
0.000219418
0.000219421
0.000219477
0.000219437
0.00021966
0.000218393
0.000209644
0.000201149
0.000210625
0.000214684
0.00021613
0.000216689
0.000217213
0.000217232
0.000217271
0.000217344
0.00021696
0.000217035
0.000216355
0.000215241
0.000213681
0.000212205
0.000210819
0.000209728
0.000208816
0.000208134
0.000207441
0.000207099
0.000206474
0.000204942
0.000205745
0.000204487
0.000204014
0.00020444
0.000204659
0.000204453
0.000202479
0.000202686
0.000202431
0.000203115
0.000202967
0.000202852
0.00020315
0.00020314
0.000203045
0.000202926
0.00020295
0.000202287
0.000203349
0.000201192
0.000202608
0.000204446
0.000200599
0.000197451
0.000200166
0.000200664
0.000201525
0.000202232
0.000202625
0.000202932
0.000202472
0.000201932
0.000202047
0.00020215
0.000201759
0.000202481
0.000202285
0.000202642
0.0002032
0.000202111
0.00020152
0.000202121
0.000202329
0.000202494
0.000202797
0.000202465
0.000202116
0.000202658
0.000202277
0.000202709
0.000203531
0.000200562
0.000199331
0.000200512
0.000201244
0.000201888
0.000202291
0.000202596
0.000202558
0.000202457
0.000202847
0.000202662
0.000201709
0.000202188
0.000202077
0.000202466
0.000202441
0.000202387
0.000202668
0.000202281
0.000201785
0.000202207
0.000202036
0.000202291
0.000202196
0.000202341
0.000202297
0.00020255
0.00020258
0.000202671
0.000202507
0.000202492
0.00020227
0.000202409
0.000202256
0.000202076
0.000202458
0.000201784
0.000202466
0.000203158
0.000202737
0.000201432
0.000201987
0.000202193
0.000202409
0.000202466
0.000202461
0.000202745
0.000202648
0.000202685
0.000201008
0.000202241
0.000202925
0.000199352
0.000199578
0.000200214
0.000200975
0.000200999
0.000201461
0.000201342
0.000201352
0.000201529
0.000201417
0.000201616
0.00020146
0.000201511
0.000200924
0.000201215
0.000200523
0.000201255
0.000200501
0.000201411
0.000201062
0.000200645
0.000201382
0.000199924
0.000200162
0.000201505
0.00019964
0.000198647
0.000200129
0.000199942
0.000200656
0.00020032
0.00020075
0.000200855
0.000201171
0.000201181
0.000201292
0.000201246
0.000201509
0.000201353
0.000200051
0.000200204
0.000200457
0.000200577
0.000200696
0.000200877
0.000201681
0.000201055
0.000200245
0.000200647
0.000200963
0.000201252
0.000201378
0.000201403
0.000201452
0.000201489
0.000201492
0.000201207
0.000201095
0.000200872
0.000200663
0.000200389
0.000200409
0.000200659
0.000200737
0.000200983
0.000201009
0.000201245
0.000201339
0.000201596
0.000201832
0.000202198
0.00020243
0.000202194
0.000202123
0.000201738
0.000201574
0.000200397
0.000201146
0.000200274
0.00019946
0.000200269
0.000200178
0.00020023
0.000200214
0.000200262
0.000199765
0.000200261
0.000200044
0.000200554
0.000200173
0.000200965
0.000200692
0.000199751
0.000199853
0.000199646
0.000200046
0.000199873
0.00020012
0.000199706
0.000200254
0.000200641
0.000200651
0.000200871
0.000201113
0.000201071
0.000201002
0.000201558
0.000201946
0.000203736
0.000209232
0.000208027
0.000203603
0.000202528
0.000202737
0.00012717
6.62687e-05
4.77783e-05
4.0635e-05
4.18541e-05
4.9895e-05
6.17536e-05
7.15828e-05
7.96369e-05
8.99216e-05
0.000101095
0.000112423
0.000124079
0.000134903
0.000145386
0.000154965
0.000163661
0.000171539
0.000178804
0.000185678
0.000191794
0.000196991
0.000201659
0.000205962
0.000211822
0.000218233
0.0002212
0.000223635
0.000225644
0.000227307
0.00022869
0.000229844
0.000230813
0.00023163
0.000232321
0.00023291
0.000233413
0.000233846
0.000234217
0.000234541
0.000234819
0.000235065
0.000235275
0.000235463
0.00023562
0.000235763
0.000235882
0.000235992
0.000236082
0.000236166