/*--------------------------------*- C++ -*----------------------------------*\
| =========                 |                                                 |
| \\      /  F ield         | foam-extend: Open Source CFD                    |
|  \\    /   O peration     | Version:     3.2                                |
|   \\  /    A nd           | Web:         http://www.foam-extend.org         |
|    \\/     M anipulation  | For copyright notice see file Copyright         |
\*---------------------------------------------------------------------------*/
FoamFile
{
    version     2.0;
    format      ascii;
    class       areaScalarField;
    location    "50";
    object      Fi;
}
// * * * * * * * * * * * * * * * * * * * * * * * * * * * * * * * * * * * * * //

dimensions      [0 1 -1 0 0 0 0];

internalField   nonuniform List<scalar> 
300
(
-9.71382e-05
-4.66092e-05
-2.74978e-05
-2.7617e-05
-2.60908e-05
-2.60581e-05
-2.53163e-05
-2.52746e-05
-2.50146e-05
-2.51102e-05
-2.51368e-05
-2.5306e-05
-2.54821e-05
-2.57573e-05
-2.60196e-05
-2.63502e-05
-2.669e-05
-2.70726e-05
-2.74551e-05
-2.78751e-05
-2.8322e-05
-2.8786e-05
-2.92681e-05
-2.97591e-05
-3.02582e-05
-3.0771e-05
-3.12562e-05
-3.1685e-05
-3.20491e-05
-3.23557e-05
-3.26125e-05
-3.2826e-05
-3.3005e-05
-3.31524e-05
-3.32769e-05
-3.33783e-05
-3.34656e-05
-3.35354e-05
-3.35977e-05
-3.36456e-05
-3.36915e-05
-3.37239e-05
-3.37592e-05
-3.37807e-05
-3.38091e-05
-3.38219e-05
-3.38455e-05
-3.38493e-05
-3.38773e-05
-3.38635e-05
-3.3912e-05
-3.38549e-05
-3.3963e-05
-3.38027e-05
-3.40751e-05
-3.36437e-05
-3.43592e-05
-3.32744e-05
-3.54399e-05
-2.1434e-06
5.0211e-06
5.43274e-06
5.50233e-06
5.51883e-06
5.52027e-06
5.52118e-06
5.51954e-06
5.51978e-06
5.51699e-06
-5.71703e-06
1.18441e-05
2.5881e-06
3.01235e-06
2.78332e-06
2.87821e-06
3.24357e-06
3.02155e-06
-5.68548e-06
-2.54549e-05
2.38153e-06
3.09688e-06
-5.72304e-06
1.20471e-05
1.07774e-05
6.2689e-06
6.17875e-06
1.10643e-05
-1.98709e-05
-3.04076e-05
1.10715e-05
1.73278e-05
4.08887e-06
9.61606e-06
1.48118e-05
-1.7554e-06
-1.22501e-05
-9.19196e-06
1.53782e-05
3.69435e-06
-8.22002e-06
-2.09195e-05
-7.32146e-06
4.56249e-06
1.04112e-05
3.11538e-06
-1.01622e-05
-1.7627e-05
-2.43532e-06
1.47593e-05
7.87403e-06
-1.01795e-05
-2.9204e-05
-4.53367e-06
-6.35916e-06
1.05737e-05
3.75478e-06
-1.09811e-05
1.28768e-05
-7.84703e-06
-7.38856e-06
1.30936e-05
-1.37495e-05
-2.84747e-05
1.42429e-05
9.65471e-06
1.39266e-05
-3.50396e-06
-2.96103e-05
-6.42219e-06
-9.13572e-06
2.65571e-06
-5.44538e-06
2.21394e-05
-1.37797e-05
-2.56738e-05
1.18939e-05
1.24174e-05
3.79341e-06
3.47711e-06
3.87896e-06
-6.58381e-06
-9.65936e-06
3.63879e-06
3.41716e-06
2.79981e-05
-2.26526e-06
-3.22689e-06
4.37624e-06
8.23103e-06
5.43917e-06
-8.67581e-06
-2.05607e-05
-6.37047e-06
1.04956e-05
3.26202e-06
-2.10051e-05
-1.3505e-05
1.03643e-07
1.43632e-05
3.69855e-06
-7.39237e-06
-2.30768e-05
-1.16717e-05
2.02287e-06
1.40983e-05
4.64434e-06
-6.00499e-06
-4.01529e-06
4.26355e-06
-1.21353e-05
1.51044e-05
-4.29343e-06
4.4152e-06
2.75569e-05
-1.1566e-06
-1.18696e-06
4.04397e-06
9.81237e-06
-6.17991e-06
-1.81986e-05
1.68387e-05
1.28891e-05
-9.7147e-06
-1.4651e-05
1.19338e-05
6.61867e-06
-1.22053e-05
-9.68586e-06
1.21402e-05
3.61765e-06
3.99953e-06
-5.31981e-06
-3.72776e-06
3.5051e-06
-7.42851e-06
1.16416e-05
4.57529e-06
8.90002e-06
5.29342e-06
-1.86763e-06
4.30194e-06
-5.52037e-06
-2.36266e-05
1.04663e-06
2.45374e-06
-1.92526e-05
-9.98851e-06
1.28119e-06
-6.22573e-06
4.12715e-06
-2.61167e-05
-1.80221e-06
1.18755e-05
1.04581e-05
4.26347e-06
-5.01432e-06
-5.49899e-06
1.42713e-05
-7.79098e-06
-2.05127e-05
1.54128e-05
-7.58758e-06
-2.02893e-05
-1.06737e-05
1.14744e-05
2.14401e-05
4.20938e-06
-8.12476e-06
-1.98403e-05
1.49256e-05
9.95501e-06
1.32071e-05
-1.69102e-05
-1.08949e-05
1.53762e-05
3.54938e-06
-5.40794e-06
-1.23124e-05
1.28825e-05
3.77935e-06
3.93581e-06
3.58963e-06
4.08287e-06
9.05061e-06
5.40141e-06
-2.01328e-06
4.19694e-06
3.80748e-06
4.23311e-06
-6.5773e-06
-2.24141e-05
1.92414e-06
3.5846e-06
-7.22196e-06
1.24567e-05
4.72898e-06
8.04821e-06
-8.99787e-06
-2.08872e-05
1.80927e-05
-4.64364e-06
-4.84127e-06
4.13923e-06
-7.5324e-07
2.74298e-05
-1.38248e-06
-3.95091e-06
-5.5602e-06
-2.18121e-05
-5.31923e-06
1.75148e-05
3.82113e-06
3.82245e-06
3.52693e-06
3.78103e-06
3.64704e-06
-8.93699e-06
-2.0931e-05
1.19259e-05
3.19356e-06
-8.83516e-06
1.14551e-05
4.22228e-06
3.54998e-06
4.3299e-06
9.0223e-06
5.51558e-06
5.48563e-06
-5.33793e-06
-5.44315e-06
-5.36851e-06
-5.28675e-06
-5.29005e-06
-5.27517e-06
-5.28113e-06
-5.06688e-06
-2.66931e-05
-3.77794e-05
-3.15559e-05
-3.30595e-05
)
;

boundaryField
{
    inlet
    {
        type            calculated;
        value           uniform -0.000115027;
    }
    outlet
    {
        type            calculated;
        value           uniform -3.6266e-05;
    }
    sideWall
    {
        type            empty;
    }
}


// ************************************************************************* //
