/*--------------------------------*- C++ -*----------------------------------*\
| =========                 |                                                 |
| \\      /  F ield         | foam-extend: Open Source CFD                    |
|  \\    /   O peration     | Version:     3.2                                |
|   \\  /    A nd           | Web:         http://www.foam-extend.org         |
|    \\/     M anipulation  | For copyright notice see file Copyright         |
\*---------------------------------------------------------------------------*/
FoamFile
{
    version     2.0;
    format      ascii;
    class       areaScalarField;
    location    "50";
    object      Fi1;
}
// * * * * * * * * * * * * * * * * * * * * * * * * * * * * * * * * * * * * * //

dimensions      [0 1 -1 0 0 0 0];

internalField   nonuniform List<scalar> 
300
(
-9.71382e-05
-4.66092e-05
-2.74978e-05
-2.7617e-05
-2.60908e-05
-2.60581e-05
-2.53163e-05
-2.52746e-05
-2.50146e-05
-2.51102e-05
-2.51368e-05
-2.5306e-05
-2.54821e-05
-2.57573e-05
-2.60196e-05
-2.63502e-05
-2.669e-05
-2.70726e-05
-2.74551e-05
-2.78751e-05
-2.8322e-05
-2.8786e-05
-2.92681e-05
-2.97591e-05
-3.02582e-05
-3.0771e-05
-3.12562e-05
-3.1685e-05
-3.20491e-05
-3.23557e-05
-3.26125e-05
-3.2826e-05
-3.3005e-05
-3.31524e-05
-3.32769e-05
-3.33783e-05
-3.34656e-05
-3.35354e-05
-3.35977e-05
-3.36456e-05
-3.36915e-05
-3.37239e-05
-3.37592e-05
-3.37807e-05
-3.38091e-05
-3.38219e-05
-3.38455e-05
-3.38493e-05
-3.38773e-05
-3.38635e-05
-3.3912e-05
-3.38549e-05
-3.3963e-05
-3.38027e-05
-3.40751e-05
-3.36437e-05
-3.43592e-05
-3.32746e-05
-3.54406e-05
-1.9389e-05
-5.01893e-06
-5.41412e-06
-5.47137e-06
-5.48368e-06
-5.48366e-06
-5.48382e-06
-5.47916e-06
-5.47785e-06
-5.4724e-06
5.48209e-06
-2.1674e-06
2.65611e-06
-3.45785e-06
-2.19072e-05
9.13134e-06
-4.42785e-06
-2.57558e-05
-4.22092e-06
9.40285e-06
4.70275e-06
8.31411e-06
4.79444e-06
-4.03062e-07
-1.12073e-05
-1.93704e-05
-3.98739e-06
-1.42436e-05
-4.40439e-06
1.57537e-05
2.13417e-05
-3.63405e-06
4.06922e-06
9.59427e-06
-8.98491e-06
-2.727e-05
-4.47163e-06
1.5882e-05
4.38555e-06
-6.54789e-06
-2.07607e-05
1.15751e-05
2.89591e-05
2.51219e-06
-9.06399e-06
-2.76604e-05
3.80193e-06
1.26538e-05
1.26245e-05
3.89433e-06
-4.15261e-06
-1.9627e-05
1.3568e-05
2.98084e-05
5.82981e-06
-2.26112e-06
4.20556e-06
4.85893e-06
-2.03167e-06
1.07931e-05
5.95695e-06
-7.10651e-06
-2.32787e-05
1.59908e-05
2.31428e-05
-8.25456e-06
-1.9988e-05
-4.54892e-06
2.22792e-05
5.08278e-06
-8.12e-07
1.04445e-05
6.74824e-06
-1.49806e-05
-2.59787e-05
2.15138e-05
2.22468e-05
-2.8415e-06
3.74253e-06
-4.79497e-06
-1.23131e-05
1.37604e-05
4.11875e-06
3.56326e-06
1.31838e-05
-9.14317e-06
-1.24237e-05
1.43054e-05
4.33131e-06
-3.86171e-06
-5.78389e-06
1.0643e-05
1.28406e-05
1.44949e-05
-2.97394e-06
-2.87002e-06
4.09282e-06
9.90955e-06
5.19985e-06
-3.187e-06
3.74384e-06
4.18583e-06
3.68474e-06
3.74302e-06
4.27112e-06
-6.80205e-06
-7.74195e-06
3.28088e-06
-4.16948e-06
1.25291e-05
3.43253e-06
4.41214e-06
7.19868e-06
1.32843e-05
-1.61722e-05
-1.03468e-05
9.62461e-06
4.15626e-06
-5.2674e-06
-1.0375e-05
2.04697e-05
-8.34183e-06
-2.87266e-05
-6.4546e-06
2.96223e-06
2.04891e-06
-2.55705e-05
1.68503e-06
9.11481e-06
1.21642e-05
3.72477e-06
4.06199e-06
8.86144e-06
6.01727e-06
-5.45695e-07
4.1306e-06
-4.36373e-06
-5.68843e-06
3.60544e-06
-5.65875e-06
3.75008e-06
-2.10867e-05
-9.89768e-07
1.39515e-05
4.74751e-06
7.54581e-06
5.64995e-06
6.054e-07
1.09852e-05
7.17654e-06
-9.88595e-06
-5.06249e-06
3.1857e-05
1.1222e-05
-9.46962e-06
-1.69468e-05
1.5983e-05
5.66008e-06
-8.00411e-06
-7.79524e-06
1.75821e-05
-5.91982e-06
-2.90885e-05
5.88999e-06
2.15072e-05
1.24468e-05
-1.67122e-05
-2.77579e-05
4.21388e-06
1.22916e-05
4.05841e-06
-5.37871e-06
-2.13146e-05
-6.45918e-06
1.20846e-05
1.53228e-05
-8.09938e-06
-1.28969e-05
1.37749e-05
3.65234e-06
3.74901e-06
3.92578e-06
-5.41398e-06
-1.12488e-05
3.49629e-06
-8.92341e-06
1.15816e-05
-7.95983e-06
-2.27519e-05
-9.24735e-06
-1.11408e-05
-2.10017e-06
1.55052e-05
3.59399e-06
4.57611e-06
3.52535e-06
4.66736e-06
-3.81e-06
-5.04066e-06
1.01268e-05
4.43932e-06
9.46272e-06
4.8284e-06
3.91001e-06
1.21565e-05
-1.71579e-05
-2.49983e-05
-9.85673e-06
-1.20099e-05
4.22484e-07
1.19558e-05
4.52076e-06
-4.05418e-06
-1.10115e-05
1.1124e-05
-8.82194e-06
-2.39241e-05
-1.0711e-05
1.49414e-05
2.14583e-05
3.41535e-06
5.18865e-06
-2.25557e-06
4.27222e-06
9.30232e-06
-5.04544e-06
-2.97473e-05
-5.34969e-06
-5.4049e-06
5.46992e-06
5.45685e-06
5.45578e-06
5.45819e-06
5.45827e-06
5.45431e-06
5.44525e-06
5.14946e-06
-3.06739e-06
-3.87794e-05
-3.24439e-05
-3.39649e-05
)
;

boundaryField
{
    inlet
    {
        type            calculated;
        value           uniform -0.000115027;
    }
    outlet
    {
        type            calculated;
        value           uniform -3.6266e-05;
    }
    sideWall
    {
        type            empty;
    }
}


// ************************************************************************* //
