/*--------------------------------*- C++ -*----------------------------------*\
| =========                 |                                                 |
| \\      /  F ield         | foam-extend: Open Source CFD                    |
|  \\    /   O peration     | Version:     3.2                                |
|   \\  /    A nd           | Web:         http://www.foam-extend.org         |
|    \\/     M anipulation  | For copyright notice see file Copyright         |
\*---------------------------------------------------------------------------*/
FoamFile
{
    version     2.0;
    format      ascii;
    class       areaScalarField;
    location    "50";
    object      Fi2;
}
// * * * * * * * * * * * * * * * * * * * * * * * * * * * * * * * * * * * * * //

dimensions      [0 1 -1 0 0 0 0];

internalField   nonuniform List<scalar> 
300
(
-9.71382e-05
-4.66092e-05
-2.74978e-05
-2.7617e-05
-2.60908e-05
-2.60581e-05
-2.53163e-05
-2.52746e-05
-2.50146e-05
-2.51102e-05
-2.51368e-05
-2.5306e-05
-2.54821e-05
-2.57573e-05
-2.60196e-05
-2.63502e-05
-2.669e-05
-2.70726e-05
-2.74551e-05
-2.78751e-05
-2.8322e-05
-2.8786e-05
-2.92681e-05
-2.97591e-05
-3.02582e-05
-3.0771e-05
-3.12562e-05
-3.1685e-05
-3.20491e-05
-3.23557e-05
-3.26125e-05
-3.2826e-05
-3.3005e-05
-3.31524e-05
-3.32769e-05
-3.33783e-05
-3.34656e-05
-3.35354e-05
-3.35977e-05
-3.36456e-05
-3.36915e-05
-3.37239e-05
-3.37592e-05
-3.37807e-05
-3.38091e-05
-3.38219e-05
-3.38455e-05
-3.38493e-05
-3.38773e-05
-3.38635e-05
-3.3912e-05
-3.38549e-05
-3.3963e-05
-3.38027e-05
-3.40751e-05
-3.36437e-05
-3.43592e-05
-3.32744e-05
-3.54399e-05
-2.14339e-06
5.02111e-06
5.43274e-06
5.50234e-06
5.51884e-06
5.5203e-06
5.52121e-06
5.51955e-06
5.51985e-06
5.51929e-06
5.52839e-06
-2.0623e-05
7.97743e-06
3.08688e-06
2.54323e-06
2.96697e-06
3.3458e-06
2.88178e-06
3.73461e-06
2.85592e-06
4.69995e-06
-4.54871e-06
-2.08296e-05
-1.40222e-05
-1.11582e-05
8.39232e-06
1.91679e-05
9.75642e-06
1.465e-05
5.03589e-06
-1.586e-05
-2.86527e-05
-1.09769e-05
-1.48131e-05
-5.54434e-06
5.20185e-06
1.28241e-05
3.82746e-06
4.34837e-06
3.67828e-06
4.47622e-06
1.1671e-05
-1.08747e-05
-1.25134e-05
9.81145e-07
-7.75781e-06
3.55052e-05
1.25918e-05
-1.29605e-05
-2.91612e-05
-1.78709e-05
2.0071e-05
2.60294e-05
-1.99991e-05
-2.82628e-05
1.05251e-05
3.87668e-06
-1.12781e-05
3.99296e-06
-2.31671e-05
5.08974e-06
3.11549e-06
1.48762e-06
2.84223e-05
-1.47181e-05
-2.87959e-05
8.81687e-06
1.28832e-05
-7.64779e-06
-6.43862e-06
1.10256e-05
-8.7069e-06
-5.53589e-06
4.0648e-06
-6.6943e-06
3.20806e-05
-8.52335e-06
-2.93852e-05
-1.09442e-05
-8.0473e-06
1.37309e-05
-6.59436e-06
-9.96654e-06
3.60043e-06
-2.03662e-05
-7.04221e-06
1.08243e-05
1.43308e-05
-8.62299e-06
-2.46057e-05
8.03812e-06
1.5314e-05
-8.77502e-06
-2.9332e-05
1.0471e-05
3.36418e-06
-9.81524e-06
3.62767e-06
-1.09994e-05
1.45232e-05
3.75762e-06
4.17631e-06
3.76434e-06
3.86204e-06
4.41864e-06
3.77439e-06
4.67331e-06
9.60412e-06
5.64535e-06
-1.32987e-06
1.08061e-05
-5.10732e-06
-3.102e-05
-5.50775e-06
-7.10831e-06
1.29895e-05
9.68806e-06
4.23082e-06
3.79872e-06
1.16969e-05
-4.55029e-06
-1.64438e-05
2.58105e-05
1.43698e-05
7.87099e-07
-8.25198e-06
-3.68756e-06
3.36103e-05
1.50226e-06
-2.52045e-06
3.68279e-06
3.98884e-06
-5.35395e-06
-1.86108e-05
-7.49554e-06
5.06622e-06
-2.77903e-05
8.16826e-06
1.14773e-05
4.59649e-06
3.81484e-06
4.38229e-06
4.22638e-06
3.37358e-06
4.7469e-06
-5.04185e-06
-4.2386e-06
9.64897e-06
-1.23964e-05
-6.25837e-06
1.77387e-05
5.70039e-06
-1.58101e-05
-1.90863e-05
-9.55705e-06
1.47916e-05
-4.85352e-06
-5.64543e-06
9.81643e-06
4.08751e-06
-5.31382e-06
-1.03449e-05
1.51864e-05
4.69145e-06
1.08019e-05
-8.99471e-06
-1.26894e-05
1.25525e-05
3.88958e-06
3.89624e-06
-6.71521e-06
-2.20541e-05
1.88945e-05
2.76724e-05
-1.30295e-06
-3.67986e-06
3.63949e-06
4.03702e-06
3.90445e-06
-5.56814e-06
-2.32333e-05
-1.31973e-05
-5.40125e-06
1.42912e-05
3.4421e-06
4.25491e-06
-4.69461e-06
-8.90061e-06
1.25855e-05
4.19214e-06
3.91452e-06
3.75585e-06
4.03757e-06
-6.25986e-06
-2.03105e-05
-1.44376e-05
-6.2694e-06
-1.70585e-05
9.19388e-06
1.00864e-05
4.34848e-06
-4.67458e-06
-2.01767e-05
-1.51094e-05
-1.00575e-05
-7.57735e-06
1.17008e-05
1.58037e-05
4.02276e-06
3.92957e-06
3.55405e-06
-8.44469e-06
-1.47975e-05
1.51066e-05
3.65059e-06
3.94596e-06
3.59501e-06
1.10939e-05
1.39001e-05
-1.60743e-05
-2.99041e-05
2.77941e-06
1.15186e-05
4.2378e-06
-5.12234e-06
-1.08765e-05
1.75652e-05
5.51366e-06
5.47979e-06
-5.4388e-06
-5.51305e-06
-5.43986e-06
-5.38017e-06
-5.38921e-06
-5.36763e-06
-5.3684e-06
-5.15405e-06
-2.69649e-05
-3.81994e-05
-3.19269e-05
-3.34321e-05
)
;

boundaryField
{
    inlet
    {
        type            calculated;
        value           uniform -0.000115027;
    }
    outlet
    {
        type            calculated;
        value           uniform -3.6266e-05;
    }
    sideWall
    {
        type            empty;
    }
}


// ************************************************************************* //
