/*--------------------------------*- C++ -*----------------------------------*\
| =========                 |                                                 |
| \\      /  F ield         | foam-extend: Open Source CFD                    |
|  \\    /   O peration     | Version:     3.2                                |
|   \\  /    A nd           | Web:         http://www.foam-extend.org         |
|    \\/     M anipulation  | For copyright notice see file Copyright         |
\*---------------------------------------------------------------------------*/
FoamFile
{
    version     2.0;
    format      ascii;
    class       areaScalarField;
    location    "50";
    object      He;
}
// * * * * * * * * * * * * * * * * * * * * * * * * * * * * * * * * * * * * * //

dimensions      [0 0 0 0 0 0 0];

internalField   nonuniform List<scalar> 
300
(
0
0
0
0
0
0
0
0
0
0
0
0
0
0
0
0
0
0
0
0
0
0
0
0
0
0
0
0
0
0
0
0
0
0
0
0
0
0
0
0
0
0
0
0
0
0
0
0
0
0
0
0
0
0
0
0
0
0
0
1.25466e-06
3.86294e-06
5.32965e-06
5.46014e-06
5.4806e-06
5.4837e-06
5.48262e-06
5.48e-06
5.47682e-06
2.73515e-06
0
0
3.61754e-06
6.5417e-06
9.53523e-06
2.0181e-06
6.37004e-06
1.50401e-05
6.1987e-06
0
0
0
0
1.68128e-05
1.75336e-05
1.34839e-05
1.03973e-05
9.21983e-06
1.82466e-06
0
0
0
0
0
1.40864e-05
1.69991e-05
5.0828e-06
0
0
7.36774e-06
9.12359e-06
0
0
0
1.53961e-05
1.51456e-05
1.85071e-06
0
0
0
1.72175e-05
7.45968e-06
0
0
0
0
0
0
0
0
0
7.88371e-06
9.41837e-06
0
0
1.9212e-05
1.31949e-05
1.70166e-06
0
0
0
0
0
1.3323e-05
1.1356e-05
0
0
0
1.48681e-05
7.8671e-06
3.91514e-06
0
0
0
0
1.02882e-05
4.92119e-06
0
0
1.47431e-05
1.19663e-06
0
0
0
0
1.1553e-06
0
0
0
0
0
0
0
0
0
4.26874e-06
4.75127e-06
1.33742e-06
0
0
0
0
0
0
9.03555e-06
6.81024e-06
0
0
4.18838e-06
1.38695e-06
0
9.14205e-06
1.80624e-05
9.6684e-06
0
9.47866e-06
1.18518e-05
3.2715e-06
0
0
0
0
0
0
0
0
1.31577e-05
3.03382e-06
1.03413e-06
9.90555e-07
4.81144e-06
9.85344e-06
2.27871e-06
0
0
0
0
0
0
0
4.41441e-06
0
0
0
1.20184e-05
6.84494e-06
0
0
4.53586e-06
1.50312e-06
0
8.54078e-06
1.45517e-05
0
0
0
1.7639e-05
1.70035e-05
1.75963e-06
0
0
1.49856e-05
1.36168e-05
5.53717e-06
0
0
3.44322e-06
5.02959e-06
0
0
0
0
6.96489e-06
6.10382e-06
3.2949e-06
6.92228e-07
0
9.25005e-06
1.56777e-05
1.30968e-05
8.40729e-06
0
0
0
0
0
0
9.79643e-06
9.41157e-07
0
0
0
0
0
0
1.51672e-05
1.92527e-05
1.41804e-05
8.36351e-06
0
0
0
9.38294e-06
3.73835e-06
0
7.61102e-06
1.68452e-05
7.60117e-06
0
0
0
0
0
0
0
9.96145e-06
1.74725e-05
1.14629e-05
2.67239e-06
0
0
0
0
0
0
0
0
0
0
0
0
)
;

boundaryField
{
    inlet
    {
        type            calculated;
        value           uniform 0;
    }
    outlet
    {
        type            calculated;
        value           uniform 0;
    }
    sideWall
    {
        type            empty;
    }
}


// ************************************************************************* //
