/*--------------------------------*- C++ -*----------------------------------*\
| =========                 |                                                 |
| \\      /  F ield         | foam-extend: Open Source CFD                    |
|  \\    /   O peration     | Version:     3.2                                |
|   \\  /    A nd           | Web:         http://www.foam-extend.org         |
|    \\/     M anipulation  | For copyright notice see file Copyright         |
\*---------------------------------------------------------------------------*/
FoamFile
{
    version     2.0;
    format      ascii;
    class       volScalarField;
    location    "50";
    object      k;
}
// * * * * * * * * * * * * * * * * * * * * * * * * * * * * * * * * * * * * * //

dimensions      [0 2 -2 0 0 0 0];

internalField   nonuniform List<scalar> 
5400
(
0.0338293
0.0216522
0.0160668
0.0161045
0.0156182
0.0156077
0.0153685
0.0153551
0.0152707
0.0153018
0.0153104
0.0153652
0.0154222
0.015511
0.0155954
0.0157014
0.01581
0.0159319
0.0160532
0.016186
0.0163266
0.016472
0.0166223
0.0167747
0.016929
0.0170867
0.0172353
0.017366
0.0174767
0.0175696
0.0176472
0.0177116
0.0177655
0.0178098
0.0178472
0.0178776
0.0179038
0.0179247
0.0179434
0.0179577
0.0179714
0.0179811
0.0179917
0.0179981
0.0180066
0.0180104
0.0180175
0.0180188
0.0180272
0.0180231
0.0180376
0.0180205
0.0180528
0.0180049
0.0180862
0.0179573
0.0181708
0.0178466
0.0184915
0.017258
0.0125786
0.0129267
0.0138859
0.0138583
0.0141746
0.0140677
0.0142137
0.0141018
0.0141675
0.0141328
0.0141234
0.0143354
0.0143843
0.0144341
0.014386
0.0144817
0.014367
0.0144811
0.0142279
0.0146162
0.0140392
0.0148114
0.014274
0.0140225
0.0152203
0.0136219
0.0146832
0.0143444
0.0147393
0.0143847
0.0140139
0.0144019
0.0141183
0.0147154
0.0140709
0.0142292
0.0141789
0.0144572
0.0141072
0.0145136
0.0139587
0.0148306
0.0144495
0.0127412
0.0163132
0.0159307
0.013233
0.0139581
0.0142056
0.0140436
0.0143606
0.0142602
0.014407
0.0143531
0.0141685
0.013918
0.0142928
0.0141967
0.0140097
0.0146408
0.0137584
0.0145394
0.015072
0.013949
0.0138812
0.0142816
0.0140737
0.0140587
0.0142403
0.0141956
0.0137904
0.0147762
0.0133134
0.0147468
0.0159776
0.0133369
0.0139219
0.014052
0.0141156
0.0140998
0.0141497
0.0141666
0.0141977
0.0139538
0.0146236
0.014164
0.0140326
0.014303
0.0141047
0.0142935
0.0141662
0.0140942
0.0144367
0.0140262
0.0141038
0.0142039
0.0141029
0.0142046
0.0141652
0.0142319
0.0141854
0.0141679
0.0140713
0.0142046
0.0140397
0.0143191
0.0139493
0.0145308
0.0138787
0.0142306
0.0141681
0.0140669
0.0145303
0.0147716
0.0142708
0.0139045
0.0144592
0.0141384
0.0144002
0.0141574
0.0142123
0.0143703
0.0141702
0.0146439
0.0128903
0.015825
0.0153347
0.0134708
0.0141998
0.0140598
0.0143566
0.0140165
0.0145995
0.0138207
0.0144761
0.0139202
0.014456
0.013998
0.0144915
0.0140877
0.0143767
0.014163
0.0141342
0.0143952
0.0138512
0.0149264
0.0137214
0.0140174
0.014861
0.013205
0.0145771
0.0161314
0.0133025
0.0140915
0.0141704
0.0140799
0.0143863
0.0140209
0.0143022
0.0141082
0.0143343
0.0140499
0.0143361
0.0139271
0.0145257
0.0145485
0.0138823
0.01433
0.0140638
0.014212
0.0140277
0.0141849
0.0147502
0.0139821
0.0138915
0.0142795
0.0141461
0.0141306
0.0141209
0.0141829
0.014139
0.01414
0.0141991
0.0141543
0.0142595
0.0141506
0.014202
0.014141
0.0141358
0.0140857
0.0140883
0.0141943
0.0141533
0.014308
0.0140686
0.0143891
0.0140393
0.0144574
0.0139946
0.0143308
0.0140544
0.0142884
0.0142617
0.0139142
0.0151217
0.0138572
0.0142237
0.0140428
0.0140913
0.0140418
0.0142118
0.0139921
0.0141085
0.0141507
0.0140925
0.0143099
0.0138529
0.0148223
0.0138898
0.0140394
0.0141489
0.0141511
0.0142838
0.0141825
0.0142992
0.0139724
0.0145754
0.0145367
0.0143098
0.0145081
0.0144153
0.0145652
0.0143226
0.014648
0.014126
0.0151514
0.0207034
0.0193038
0.0174589
0.0179148
0.0126155
0.0156167
0.0151859
0.0153797
0.015086
0.0150735
0.0149359
0.014941
0.014911
0.0149608
0.0149994
0.0150733
0.0151565
0.0152521
0.0153568
0.0154717
0.0155919
0.0157225
0.015855
0.0159927
0.0161356
0.016282
0.016431
0.0165806
0.0167301
0.0168783
0.0170119
0.017126
0.0172215
0.0173008
0.0173667
0.017421
0.0174664
0.0175035
0.0175349
0.0175604
0.0175823
0.0175998
0.0176154
0.0176275
0.017639
0.0176473
0.017656
0.0176617
0.0176685
0.0176723
0.0176776
0.01768
0.0176848
0.0176855
0.0176906
0.0176875
0.0176969
0.0176854
0.0177071
0.0176742
0.0177302
0.0176522
0.0178591
0.0171782
0.0152376
0.0142963
0.0141568
0.0140738
0.014096
0.0140542
0.0140954
0.014057
0.0140802
0.0140762
0.0140735
0.0141175
0.0141272
0.0141903
0.0141866
0.0141962
0.0141731
0.0142119
0.0141716
0.0142281
0.0141357
0.0142956
0.014128
0.0140539
0.0143023
0.0140559
0.0141405
0.0141011
0.0143112
0.0142051
0.0140913
0.0141212
0.0140522
0.0141675
0.0140847
0.0141078
0.0140687
0.0141172
0.0140701
0.0141427
0.0140443
0.0142747
0.0141092
0.0138257
0.0146137
0.0147326
0.0141709
0.0140384
0.0140501
0.0140152
0.0140782
0.0140709
0.0142176
0.0142295
0.0141658
0.0140268
0.0140948
0.0140849
0.0140567
0.0141666
0.014006
0.0142314
0.0143727
0.0141906
0.0140499
0.0140907
0.0140638
0.0140776
0.0141344
0.0141132
0.0140179
0.0141971
0.013893
0.0143975
0.0147027
0.0142001
0.0140746
0.014043
0.014084
0.0140717
0.0141078
0.0140921
0.014108
0.0140673
0.0142234
0.0141152
0.0140776
0.0141007
0.0140713
0.014099
0.01408
0.0140603
0.0141564
0.0140812
0.014087
0.0141
0.0141043
0.0141278
0.0141171
0.0141269
0.0141302
0.0141031
0.0140749
0.0140964
0.0140671
0.0141295
0.0140685
0.0141696
0.01405
0.0141193
0.014095
0.0140963
0.0141497
0.0143389
0.0142261
0.0140902
0.0141567
0.0140952
0.0141429
0.0140884
0.0141118
0.0141174
0.0140944
0.0141854
0.0138607
0.0145104
0.0145233
0.0141004
0.0140882
0.0140596
0.0141027
0.0140423
0.014157
0.0140562
0.0141317
0.0140209
0.0141517
0.0140267
0.0141615
0.0140256
0.0141525
0.0140616
0.0140863
0.0140988
0.0140115
0.0142411
0.0140789
0.0140905
0.0142145
0.0138727
0.0142595
0.0146333
0.0141573
0.0140962
0.0140478
0.0140496
0.0141014
0.0140599
0.0141099
0.014088
0.014128
0.0140871
0.0141505
0.0140781
0.0142303
0.0142256
0.0140776
0.0141353
0.0140891
0.014112
0.0140659
0.0141319
0.0142581
0.0141487
0.0140616
0.0141124
0.0141037
0.014111
0.0140871
0.0141161
0.0141292
0.014106
0.0140968
0.0140826
0.0140893
0.0140566
0.0141024
0.0140758
0.014054
0.0140405
0.0140546
0.0140627
0.0140619
0.0141391
0.0141147
0.0141636
0.0141005
0.0141755
0.0140979
0.0141754
0.0140743
0.0141606
0.0141313
0.0140399
0.014276
0.0141002
0.0140818
0.0140479
0.0141415
0.0140534
0.0141404
0.0140866
0.0141209
0.0140842
0.0140737
0.0141124
0.0140331
0.0142326
0.0140915
0.0141121
0.0141282
0.0141331
0.0141379
0.0141182
0.0141207
0.0140916
0.0142182
0.0142693
0.0142546
0.0143242
0.0143314
0.0143784
0.0143177
0.014382
0.0142162
0.0147297
0.0169732
0.0175851
0.017491
0.017573
0.00575084
0.00974994
0.0118317
0.0127762
0.0129792
0.0131898
0.0132307
0.0133324
0.0133916
0.0134931
0.0135745
0.0136824
0.0137924
0.0139059
0.0140278
0.0141519
0.0142809
0.0144161
0.0145529
0.0146911
0.0148312
0.0149724
0.0151134
0.0152529
0.0153901
0.0155206
0.0156303
0.0157191
0.0157906
0.015848
0.0158945
0.015932
0.0159628
0.0159875
0.0160082
0.0160248
0.016039
0.0160504
0.0160604
0.0160683
0.0160757
0.0160812
0.0160868
0.0160907
0.0160951
0.0160977
0.0161011
0.0161031
0.0161058
0.0161073
0.016109
0.0161097
0.0161117
0.0161111
0.0161143
0.0161107
0.0161176
0.0161112
0.0161413
0.0156377
0.0151308
0.0141648
0.0135767
0.0133799
0.0132571
0.0131904
0.0131632
0.0131402
0.0131313
0.0130907
0.0130782
0.0130795
0.0130695
0.0130869
0.0130687
0.0130494
0.013041
0.0130325
0.0130233
0.0130012
0.0130625
0.0129609
0.0129667
0.012952
0.0129546
0.0130274
0.0128825
0.0129343
0.0129684
0.0129869
0.0129624
0.0129276
0.0129208
0.0129144
0.0129596
0.012968
0.0129507
0.0129185
0.0129567
0.0129185
0.0129821
0.0129078
0.0128937
0.013095
0.0129072
0.0130461
0.0132207
0.0130026
0.0129144
0.0129136
0.0129051
0.0129199
0.0129995
0.0130216
0.0130246
0.0129806
0.0129578
0.0129389
0.0129259
0.0129133
0.0129949
0.0129528
0.0129312
0.0130766
0.0129893
0.0129223
0.0129385
0.0129538
0.0129525
0.0129437
0.0129459
0.0129073
0.0130453
0.0130439
0.013058
0.0131718
0.0129944
0.012933
0.0129481
0.0129477
0.0129552
0.0129382
0.0129531
0.0129913
0.0129349
0.0129723
0.0129706
0.0129435
0.0129427
0.0129312
0.0129256
0.0129284
0.0129229
0.0129713
0.0129736
0.0129529
0.0129613
0.0129558
0.0129575
0.0129579
0.0129643
0.0129473
0.0129404
0.0129286
0.0129339
0.0129429
0.0129667
0.0129067
0.0129864
0.0129623
0.0129638
0.0129751
0.0129359
0.0129982
0.0130491
0.0130123
0.0129727
0.0129678
0.0129398
0.0129545
0.0129864
0.0129518
0.0129552
0.0129313
0.0131186
0.0128886
0.0130137
0.0130365
0.0129624
0.0129465
0.0129289
0.0129289
0.0129162
0.0129786
0.0128744
0.0129684
0.0129069
0.0129644
0.0128982
0.0129336
0.0129468
0.0129479
0.0129528
0.0129123
0.0129183
0.0128909
0.0130143
0.0129546
0.0129081
0.0130088
0.0129382
0.0129078
0.0131448
0.0129734
0.0129127
0.0129185
0.0129041
0.0129186
0.0129167
0.0129344
0.0129348
0.0129474
0.0129454
0.0129962
0.0129528
0.0129407
0.0129434
0.0129251
0.0129387
0.01294
0.0129898
0.0130058
0.0129521
0.0130351
0.0129742
0.0129292
0.0129385
0.0129816
0.0129768
0.0129808
0.0130026
0.0129744
0.012944
0.0129331
0.0129163
0.0129076
0.0129212
0.0129147
0.0129179
0.0129122
0.0129045
0.0129064
0.0129236
0.0129534
0.0129758
0.0129585
0.01298
0.0129216
0.0129898
0.0129497
0.0129711
0.0129549
0.0129271
0.0129155
0.0128766
0.0129557
0.012858
0.0129115
0.0129894
0.0129746
0.0129861
0.0130069
0.0129833
0.0129415
0.012927
0.0129053
0.0129119
0.0128762
0.0129869
0.0129733
0.0129409
0.012933
0.012924
0.012928
0.0129062
0.0129515
0.0129237
0.0129888
0.0130502
0.0130998
0.0131469
0.0131432
0.0131291
0.0131337
0.013136
0.0134195
0.0141342
0.0149899
0.0155654
0.0157272
0.00294459
0.00552384
0.00822346
0.00984878
0.010763
0.0113258
0.0116236
0.0118592
0.0120269
0.0121932
0.0123334
0.0124828
0.012624
0.0127665
0.0129092
0.0130484
0.0131907
0.0133348
0.013479
0.0136218
0.0137632
0.0139033
0.0140403
0.0141732
0.014301
0.0144158
0.0145043
0.0145701
0.0146192
0.0146559
0.0146838
0.0147048
0.0147211
0.0147334
0.0147432
0.0147507
0.014757
0.0147619
0.0147662
0.0147696
0.0147728
0.0147752
0.0147777
0.0147795
0.0147815
0.0147828
0.0147844
0.0147855
0.0147866
0.0147878
0.014788
0.0147895
0.0147888
0.0147914
0.0147885
0.0147939
0.0147848
0.0147971
0.0147456
0.0143897
0.0145341
0.0137918
0.0131147
0.0128294
0.0126209
0.012519
0.0124365
0.0124017
0.0123739
0.0123108
0.012285
0.0122622
0.0122323
0.0122037
0.0121614
0.0121205
0.0121004
0.0120664
0.0120538
0.0120128
0.0120881
0.0119201
0.0119771
0.0119795
0.0119129
0.0120378
0.0118965
0.01196
0.0119054
0.0119551
0.0119623
0.0119283
0.0119402
0.0119028
0.0119652
0.0119749
0.0119757
0.0119309
0.011969
0.011915
0.0120177
0.0118441
0.0118858
0.0121541
0.0117593
0.0118549
0.0121863
0.0120564
0.0119572
0.0119596
0.0119358
0.011954
0.0119713
0.0119938
0.0120223
0.0120351
0.0119935
0.0119593
0.0119388
0.0119021
0.012052
0.0119048
0.0118417
0.0120353
0.0120207
0.0119461
0.0119682
0.0119822
0.0119558
0.0119507
0.0119803
0.011909
0.0121713
0.0119371
0.0118703
0.0120978
0.012
0.0119605
0.0119657
0.0119753
0.0119677
0.0119565
0.011968
0.0120169
0.011906
0.0119784
0.0119904
0.0119572
0.0119597
0.0119404
0.0119375
0.011954
0.0119124
0.0119778
0.0119893
0.0119684
0.0119689
0.0119544
0.0119591
0.0119535
0.0119572
0.0119574
0.0119619
0.0119452
0.0119552
0.0119457
0.011981
0.0118927
0.0120045
0.0119654
0.0119706
0.0119791
0.011931
0.0119054
0.0120078
0.0120227
0.0119722
0.0119793
0.011934
0.0119644
0.0119921
0.0119514
0.0119596
0.0119107
0.012189
0.0117468
0.0118339
0.0120005
0.0119674
0.0119604
0.011932
0.0119438
0.0119002
0.0119727
0.0118643
0.0119867
0.011872
0.0119793
0.0118517
0.0119537
0.0119064
0.0119579
0.0119529
0.0119061
0.0119239
0.0118482
0.0119822
0.011928
0.0118515
0.0120944
0.0118394
0.0117251
0.0120456
0.0119675
0.0119261
0.0119207
0.0118919
0.0119154
0.0119055
0.0119277
0.0119191
0.0119393
0.0119217
0.0120003
0.0118886
0.0118694
0.0119195
0.0118971
0.01193
0.0119401
0.0120203
0.0120058
0.0118978
0.0119971
0.0119731
0.0119156
0.0119183
0.0119773
0.0119866
0.0119715
0.0119926
0.0119713
0.0119468
0.0119372
0.0119121
0.011907
0.0118982
0.0118989
0.0119278
0.0119327
0.0119156
0.011922
0.0119339
0.0119354
0.0119609
0.0119272
0.0119596
0.0118804
0.0119656
0.0118954
0.0119608
0.0119147
0.0118948
0.0118999
0.0118004
0.0118854
0.0118132
0.011898
0.0119532
0.0119973
0.0119687
0.0119978
0.0119593
0.0119301
0.0119088
0.0118719
0.0118939
0.0118093
0.0119371
0.0119252
0.0118818
0.0118761
0.0118757
0.0118826
0.0118609
0.0119097
0.0118401
0.0119024
0.0119816
0.012035
0.0120907
0.0120678
0.0120656
0.0120611
0.0121518
0.0122993
0.0123115
0.0130623
0.013739
0.0140307
0.00168528
0.00310406
0.00515831
0.00690105
0.00837364
0.00935159
0.00997055
0.0104078
0.0107208
0.0109816
0.011191
0.0113903
0.0115679
0.0117437
0.011912
0.0120715
0.0122305
0.0123866
0.0125407
0.0126906
0.0128362
0.0129777
0.013113
0.0132413
0.0133606
0.0134598
0.013528
0.0135727
0.0136014
0.0136192
0.0136298
0.0136354
0.013638
0.0136385
0.013638
0.0136368
0.0136355
0.0136341
0.0136329
0.0136319
0.013631
0.0136304
0.0136299
0.0136296
0.0136293
0.0136292
0.0136291
0.0136292
0.013629
0.0136295
0.0136288
0.0136301
0.0136284
0.0136315
0.0136268
0.0136343
0.0136205
0.0136353
0.0135439
0.0133051
0.0137352
0.0132327
0.0126414
0.0123096
0.0120554
0.0119256
0.0118032
0.0117506
0.0117109
0.0116438
0.0116065
0.0115614
0.0115091
0.0114433
0.0113785
0.0113128
0.011273
0.0112259
0.0112044
0.0111547
0.0112088
0.0110441
0.0110979
0.0111051
0.0110255
0.0111422
0.011036
0.011097
0.0110096
0.011048
0.011065
0.0110431
0.0110607
0.0110208
0.011076
0.0110857
0.0110943
0.0110535
0.0110803
0.0110328
0.011128
0.010951
0.0110002
0.0112192
0.0108314
0.0109107
0.011224
0.0111668
0.0110981
0.0110992
0.0110759
0.0110899
0.011074
0.0110891
0.0111219
0.0111588
0.0111174
0.0110788
0.011057
0.0110195
0.0111628
0.0110027
0.0109326
0.011103
0.0111324
0.0110749
0.0110987
0.0111096
0.0110735
0.0110684
0.0111013
0.011034
0.0113
0.0109957
0.010897
0.0111261
0.0110875
0.0110819
0.0110839
0.0110986
0.0110865
0.0110801
0.0110863
0.0111264
0.011018
0.0110838
0.0110984
0.0110719
0.011075
0.011058
0.0110607
0.011082
0.0110315
0.0110819
0.0110972
0.011083
0.0110783
0.0110622
0.0110649
0.0110561
0.0110582
0.0110718
0.011081
0.0110674
0.0110756
0.0110589
0.0110873
0.0110062
0.0111032
0.0110672
0.0110701
0.0110739
0.0110375
0.0109725
0.0110684
0.0111089
0.0110732
0.0110852
0.0110436
0.0110742
0.0110861
0.0110541
0.0110615
0.0110138
0.0112368
0.0108185
0.0108623
0.0110528
0.0110584
0.0110611
0.0110368
0.0110481
0.0110015
0.0110603
0.010977
0.0110776
0.0109677
0.0110628
0.0109387
0.0110388
0.0109764
0.0110385
0.0110332
0.0109995
0.0110131
0.0109377
0.0110461
0.0110029
0.0109311
0.0111651
0.0108892
0.0107644
0.0110546
0.011043
0.0110276
0.0110159
0.0109881
0.0110094
0.0110017
0.0110203
0.0110105
0.0110281
0.0110089
0.0110791
0.0109611
0.010937
0.0109934
0.0109761
0.0110134
0.0110329
0.0111026
0.0110803
0.0109746
0.0110557
0.011061
0.0110102
0.011005
0.0110582
0.0110709
0.0110488
0.0110647
0.011052
0.0110344
0.0110268
0.0110064
0.0110046
0.0109858
0.0109909
0.0110269
0.0110387
0.0110286
0.0110382
0.0110416
0.0110243
0.0110406
0.011006
0.0110338
0.0109668
0.0110319
0.0109617
0.0110273
0.0109859
0.0109734
0.0109752
0.0108731
0.0109364
0.0108961
0.0109835
0.0110119
0.0110681
0.0110257
0.0110509
0.0110239
0.0110031
0.0109784
0.0109479
0.010969
0.0108841
0.0109819
0.0109676
0.0109309
0.0109289
0.0109341
0.0109406
0.0109256
0.0109633
0.0108961
0.0109496
0.0110223
0.0110788
0.0111273
0.0110983
0.0111016
0.0111049
0.0112383
0.0112881
0.0109905
0.0115737
0.0121489
0.0124947
0.00113183
0.00183559
0.0030261
0.00444892
0.00598485
0.00721554
0.00817842
0.00886796
0.00936771
0.00975845
0.0100641
0.0103318
0.0105619
0.0107769
0.0109752
0.0111606
0.0113392
0.0115098
0.0116759
0.0118351
0.0119868
0.0121316
0.0122667
0.0123913
0.0125014
0.0125835
0.0126324
0.0126582
0.0126691
0.0126702
0.0126656
0.0126576
0.0126481
0.012638
0.0126283
0.0126192
0.0126111
0.012604
0.0125978
0.0125927
0.0125882
0.0125847
0.0125816
0.0125793
0.012577
0.0125756
0.012574
0.0125731
0.0125718
0.0125715
0.0125703
0.012571
0.012569
0.0125716
0.0125667
0.0125739
0.0125597
0.0125715
0.0124611
0.0123165
0.0128441
0.0125554
0.01209
0.0117582
0.0114905
0.011346
0.0112026
0.0111361
0.0110864
0.0110237
0.0109794
0.0109152
0.0108404
0.0107472
0.0106632
0.0105758
0.0105179
0.0104607
0.010428
0.0103731
0.0104009
0.0102599
0.0102967
0.0102979
0.0102238
0.0103181
0.0102422
0.0102956
0.010204
0.0102255
0.010239
0.0102283
0.0102463
0.0102133
0.0102577
0.0102652
0.0102751
0.0102412
0.0102581
0.0102208
0.0102952
0.0101462
0.0101947
0.0103461
0.0100035
0.0100873
0.0103428
0.0103266
0.0102901
0.0102935
0.0102764
0.0102858
0.0102541
0.0102617
0.0102911
0.0103329
0.0102947
0.0102611
0.0102424
0.0102116
0.0103233
0.0101824
0.0101189
0.0102561
0.0103039
0.0102662
0.0102908
0.0102978
0.0102594
0.0102541
0.0102816
0.0102261
0.0104395
0.010149
0.0100452
0.0102468
0.0102489
0.010268
0.0102672
0.0102827
0.0102698
0.0102663
0.0102674
0.0102961
0.0102059
0.0102562
0.0102673
0.0102504
0.0102544
0.010244
0.0102527
0.0102719
0.0102239
0.0102576
0.0102686
0.0102588
0.0102509
0.0102366
0.0102372
0.0102289
0.0102317
0.0102531
0.010263
0.0102535
0.010258
0.0102396
0.0102584
0.0101929
0.0102671
0.0102366
0.0102367
0.0102346
0.0102127
0.0101413
0.0102137
0.0102586
0.0102397
0.010255
0.0102228
0.0102497
0.0102482
0.0102274
0.0102311
0.0101913
0.0103344
0.00999009
0.0100156
0.0101843
0.0102118
0.0102217
0.010206
0.0102141
0.0101738
0.0102187
0.0101594
0.010232
0.0101429
0.0102125
0.010108
0.010182
0.0101223
0.0101764
0.0101736
0.0101586
0.0101659
0.0101044
0.0101909
0.0101547
0.0100958
0.0102663
0.0100312
0.00992042
0.0101646
0.0101843
0.0101906
0.0101763
0.0101548
0.0101704
0.0101666
0.0101803
0.0101721
0.010185
0.0101676
0.0102197
0.0101155
0.0100917
0.0101381
0.0101271
0.0101605
0.0101781
0.0102304
0.0102104
0.0101307
0.0101936
0.0102112
0.0101757
0.0101711
0.0102053
0.0102141
0.0101936
0.0102046
0.0101985
0.0101819
0.0101758
0.0101662
0.0101708
0.0101491
0.0101537
0.0101805
0.0101976
0.010201
0.010213
0.0102109
0.0101823
0.0101874
0.0101575
0.0101806
0.0101347
0.0101779
0.010116
0.01017
0.0101338
0.0101255
0.0101188
0.0100314
0.0100813
0.0100679
0.0101403
0.0101422
0.0101882
0.0101463
0.0101704
0.0101549
0.0101415
0.0101192
0.0101003
0.0101149
0.0100432
0.0101084
0.010087
0.0100627
0.0100606
0.0100671
0.0100727
0.010066
0.0100927
0.0100429
0.0100873
0.0101451
0.0101953
0.0102318
0.0102071
0.0102193
0.0102343
0.0103762
0.010351
0.0099402
0.0103479
0.0107906
0.0111246
0.000890406
0.00118157
0.00175591
0.00269898
0.00397153
0.00516231
0.00628549
0.00718541
0.00790292
0.00845781
0.00889031
0.00925028
0.00955136
0.00981924
0.0100576
0.0102767
0.0104815
0.0106724
0.0108541
0.0110245
0.0111839
0.0113333
0.0114689
0.0115899
0.0116883
0.0117508
0.0117824
0.0117925
0.0117887
0.0117764
0.0117595
0.0117404
0.011721
0.0117024
0.0116852
0.0116696
0.0116559
0.0116441
0.0116339
0.0116254
0.0116179
0.0116121
0.0116068
0.0116029
0.011599
0.0115964
0.0115936
0.0115918
0.0115896
0.0115887
0.0115871
0.0115873
0.0115851
0.0115872
0.0115826
0.0115886
0.0115756
0.0115834
0.0114667
0.0113949
0.0119188
0.0117986
0.011459
0.0111551
0.0108997
0.0107518
0.0106075
0.0105343
0.0104772
0.0104219
0.0103718
0.0102917
0.0101994
0.0100857
0.00998507
0.0098846
0.00981392
0.00974789
0.00970423
0.00964494
0.00965113
0.00953325
0.00955486
0.00954543
0.00947999
0.00955193
0.00949598
0.00953936
0.00945615
0.00946472
0.00947006
0.00946631
0.00948254
0.00945796
0.00949347
0.00949806
0.0095063
0.009479
0.00948914
0.00946052
0.00951387
0.00939664
0.00944573
0.00954183
0.00924354
0.00932985
0.00953285
0.00953678
0.00952144
0.00952803
0.00951935
0.00952579
0.00948843
0.00949165
0.00951613
0.00955194
0.00951707
0.0094921
0.00947764
0.0094554
0.00953603
0.0094169
0.00936599
0.0094749
0.00952642
0.009505
0.0095304
0.00953251
0.00949507
0.0094906
0.00951033
0.00946627
0.00961579
0.00936531
0.00927288
0.00944438
0.00947243
0.00950366
0.00950031
0.00951425
0.00950221
0.00950079
0.00949779
0.00951721
0.009445
0.00948197
0.00948849
0.0094796
0.00948451
0.00948016
0.00949195
0.00950742
0.00946594
0.00948771
0.0094915
0.00948341
0.00947324
0.00946155
0.00946077
0.00945552
0.00946072
0.00948579
0.00949533
0.00948922
0.00948955
0.00947107
0.00948229
0.00943161
0.00948682
0.00946102
0.00946029
0.00945327
0.00944287
0.00938224
0.00943175
0.00946828
0.00945983
0.00947675
0.00945348
0.00947669
0.00946853
0.00945766
0.00945604
0.00942457
0.00950616
0.00922256
0.00925072
0.00938706
0.0094215
0.0094347
0.00942755
0.00943281
0.00940098
0.00943539
0.00939356
0.00944387
0.00937524
0.00942351
0.00934183
0.00938942
0.00933294
0.00937645
0.00937483
0.00937499
0.00937718
0.00933066
0.00940081
0.00936826
0.00932322
0.0094328
0.00923979
0.00915179
0.00935474
0.00938739
0.00940831
0.00939277
0.00937793
0.00938804
0.00938713
0.00939686
0.00939074
0.00939928
0.00938365
0.00941903
0.00933047
0.00930977
0.00934409
0.00933762
0.00936268
0.00937313
0.00941376
0.00939921
0.00934816
0.00939856
0.00941701
0.0093976
0.00939752
0.00941314
0.00941754
0.00940105
0.00940797
0.00940632
0.00939161
0.00938541
0.00938265
0.00939293
0.00937146
0.00937128
0.00938573
0.00940604
0.00941769
0.00942928
0.00942527
0.0093952
0.0093928
0.00936974
0.00939149
0.00936385
0.0093923
0.0093422
0.00938512
0.00934747
0.00933879
0.00932542
0.00925373
0.00929839
0.0093023
0.00935391
0.00933646
0.00936804
0.0093319
0.00935467
0.0093456
0.00934226
0.0093259
0.00931643
0.00932382
0.00926597
0.00930656
0.00927834
0.00926516
0.00926048
0.0092663
0.00927137
0.00927189
0.0092904
0.0092548
0.00929145
0.00933661
0.00937496
0.00940209
0.00939035
0.00941179
0.00943536
0.00956485
0.00948755
0.00905416
0.00931953
0.00964666
0.00993718
0.00078822
0.000904457
0.0011322
0.00162583
0.00246579
0.00347438
0.00452395
0.0054755
0.00632753
0.00703795
0.00762286
0.00809929
0.00849348
0.00883254
0.00912578
0.00938806
0.00962666
0.00984562
0.0100483
0.0102342
0.0104043
0.0105598
0.0106958
0.0108104
0.0108939
0.0109402
0.0109585
0.0109572
0.0109432
0.0109214
0.0108959
0.0108692
0.010843
0.0108183
0.0107959
0.0107759
0.0107584
0.0107433
0.0107302
0.0107194
0.0107099
0.0107024
0.0106956
0.0106905
0.0106855
0.0106821
0.0106785
0.0106761
0.0106734
0.010672
0.0106701
0.0106699
0.0106678
0.0106692
0.0106652
0.01067
0.0106587
0.010663
0.0105511
0.0105275
0.0110043
0.0109998
0.0107695
0.0105073
0.0102814
0.0101396
0.0100087
0.00993491
0.00987518
0.00982886
0.00977204
0.00967795
0.00957388
0.00944379
0.00933015
0.00922515
0.0091476
0.00907472
0.00902194
0.00895957
0.00894951
0.00884981
0.00886073
0.0088402
0.00878257
0.00883662
0.00879187
0.00882637
0.00875371
0.008753
0.00874991
0.00874944
0.00876324
0.0087462
0.0087755
0.00877772
0.00878394
0.00876115
0.0087671
0.00874467
0.00878186
0.00869062
0.00874163
0.00879922
0.00853958
0.00861745
0.00878278
0.00879499
0.00878955
0.00879966
0.00879969
0.00880581
0.0087679
0.00877097
0.00879
0.00881578
0.00878309
0.00876633
0.0087555
0.00874163
0.00879866
0.00869751
0.00866036
0.00874798
0.00879614
0.00878628
0.00881207
0.00880916
0.00877416
0.00877128
0.0087832
0.00874838
0.0088487
0.00863447
0.0085602
0.0087056
0.00874531
0.00878051
0.00877634
0.008789
0.00877952
0.0087797
0.00877436
0.00878655
0.00872827
0.00875639
0.00875847
0.00875493
0.00876032
0.00875923
0.00877085
0.00878357
0.00874897
0.0087634
0.00876083
0.00875289
0.00874145
0.00873212
0.0087304
0.00872802
0.00873496
0.00876175
0.00877215
0.00876864
0.00876549
0.00874731
0.00875334
0.00871457
0.00875713
0.00873495
0.00873507
0.00872539
0.0087228
0.0086777
0.00871045
0.00873331
0.00872905
0.00874603
0.00872964
0.00874958
0.0087398
0.00873689
0.00873054
0.00870562
0.00874841
0.00850697
0.008548
0.0086535
0.00868501
0.00869822
0.0086974
0.00870118
0.0086769
0.0087043
0.00867406
0.00870926
0.00865638
0.00869098
0.00863066
0.0086601
0.00860617
0.00864027
0.00863699
0.0086456
0.00864412
0.00860968
0.00866679
0.00863538
0.0086031
0.00867128
0.00850602
0.00844124
0.00861209
0.00864788
0.0086765
0.00866105
0.0086517
0.00865782
0.0086586
0.00866557
0.00866145
0.0086666
0.00865218
0.0086751
0.00859918
0.00858229
0.00860717
0.00860298
0.00861967
0.0086238
0.00865741
0.00864836
0.00862055
0.00866355
0.00867771
0.00866784
0.008673
0.00867935
0.00868198
0.0086668
0.00866869
0.00867087
0.0086612
0.00865426
0.00865236
0.00866355
0.00864325
0.00863961
0.00864615
0.00866553
0.00867801
0.00868672
0.00868285
0.00865793
0.00865358
0.00863805
0.00866072
0.00864588
0.00866687
0.00862781
0.00865991
0.00861951
0.00860945
0.00859115
0.00853197
0.0085741
0.00858541
0.00861652
0.00858688
0.00860618
0.00857578
0.00859709
0.0085928
0.00860118
0.00859243
0.0085897
0.00859145
0.00854446
0.00857003
0.00853649
0.00852923
0.00852265
0.00852763
0.00853211
0.00853771
0.00855115
0.00852327
0.00855265
0.00859016
0.00861759
0.00864116
0.00864458
0.00867326
0.00870026
0.00880809
0.00870303
0.00828768
0.00844761
0.00868309
0.00892168
0.000746545
0.000794577
0.000875092
0.00108328
0.00151876
0.00221877
0.00308388
0.00395791
0.00479995
0.00556835
0.006257
0.00684928
0.0073545
0.00778179
0.00814746
0.00846682
0.00874925
0.00900447
0.00923468
0.0094416
0.00962608
0.00978859
0.00992399
0.0100294
0.0100994
0.0101388
0.0101504
0.0101433
0.0101242
0.0100979
0.0100683
0.0100378
0.0100085
0.00998106
0.00995624
0.00993417
0.00991484
0.00989823
0.00988388
0.00987193
0.00986152
0.00985323
0.00984577
0.00984011
0.00983469
0.00983085
0.00982695
0.00982427
0.00982143
0.00981973
0.00981785
0.00981735
0.00981542
0.00981637
0.00981302
0.00981667
0.00980733
0.00980891
0.00971036
0.00971141
0.0101378
0.0101957
0.0100494
0.00983464
0.00964591
0.00951795
0.0094058
0.00933487
0.00927642
0.00923763
0.00917418
0.00906847
0.00895763
0.00881754
0.00869582
0.0085919
0.00851175
0.00843549
0.00837685
0.00831306
0.00829135
0.00820526
0.00820888
0.00817862
0.00812725
0.0081669
0.00812843
0.0081546
0.00809181
0.00808514
0.00807466
0.00807536
0.0080865
0.0080755
0.00810012
0.00810075
0.00810519
0.00808587
0.00808877
0.00807035
0.00809584
0.00802448
0.00807765
0.00810971
0.00788365
0.00794781
0.00808523
0.00809829
0.00809729
0.00810946
0.00811672
0.00812421
0.00808999
0.00809436
0.00810803
0.00812377
0.00809327
0.00808269
0.00807449
0.00806784
0.00810871
0.00802236
0.00799735
0.00806926
0.00811109
0.00810841
0.00813259
0.00812662
0.00809551
0.00809438
0.00809932
0.00807129
0.008137
0.00795285
0.00789807
0.00802179
0.00806242
0.00809641
0.00809274
0.00810622
0.00810058
0.00810193
0.00809584
0.00810198
0.00805483
0.0080778
0.00807571
0.00807507
0.00808018
0.00807994
0.00808882
0.00809932
0.00807151
0.00808121
0.00807425
0.00806642
0.00805435
0.00804681
0.0080445
0.00804419
0.00805083
0.00807831
0.00809063
0.00808973
0.00808422
0.0080666
0.00806919
0.00803959
0.00807438
0.00805578
0.0080578
0.00804769
0.00804975
0.00801822
0.00804029
0.00804943
0.00804551
0.00806106
0.0080495
0.00806676
0.00805786
0.00806059
0.00805086
0.00803129
0.00805101
0.00784226
0.00789685
0.00797592
0.00799959
0.00801057
0.00801367
0.00801691
0.00799881
0.00802166
0.00799913
0.0080248
0.00798352
0.00800995
0.00796602
0.00798556
0.00793654
0.00796242
0.00795559
0.00796742
0.00796358
0.00793791
0.00798417
0.00795238
0.0079307
0.00797358
0.00782692
0.00778187
0.00792748
0.00795986
0.00799149
0.00797803
0.00797292
0.00797668
0.00797843
0.00798376
0.00798142
0.00798417
0.00797057
0.0079845
0.00791808
0.00790507
0.00792364
0.00792033
0.00793126
0.00793125
0.00795961
0.00795482
0.00794416
0.00798274
0.00799179
0.00798532
0.00799391
0.00799866
0.00800276
0.00798618
0.00798196
0.00798737
0.00798307
0.00797595
0.0079726
0.00797971
0.00796092
0.00795858
0.00796114
0.00797592
0.0079853
0.00799065
0.0079878
0.00797027
0.00796798
0.00795992
0.00798371
0.00797721
0.00799488
0.00796407
0.00798504
0.00794429
0.00793412
0.0079116
0.00786187
0.00790207
0.00791452
0.00792665
0.00788879
0.00790019
0.00787377
0.0078945
0.00789543
0.00791362
0.00791261
0.00791494
0.00791301
0.00787405
0.00789085
0.00785387
0.0078494
0.00784182
0.00784568
0.0078495
0.00785845
0.00786896
0.00784503
0.00786813
0.00790126
0.00792298
0.00794737
0.0079622
0.0079954
0.00802164
0.00810718
0.00799491
0.00761364
0.00769852
0.00786406
0.00805338
0.000729981
0.000751626
0.000779686
0.000856059
0.00104075
0.00142238
0.00200704
0.00271696
0.00348007
0.00420881
0.00490828
0.00555056
0.00613259
0.00664646
0.00709712
0.00748735
0.00782567
0.00812584
0.00839039
0.00862411
0.00882668
0.0089971
0.00913173
0.00923021
0.00929841
0.00934111
0.00935382
0.00934767
0.00932944
0.0093041
0.00927546
0.00924602
0.00921754
0.00919094
0.00916682
0.00914537
0.00912658
0.00911041
0.00909644
0.0090848
0.00907469
0.00906661
0.00905938
0.00905385
0.00904864
0.00904483
0.00904121
0.00903853
0.00903594
0.00903424
0.00903253
0.00903198
0.00903037
0.00903104
0.0090284
0.00903119
0.00902366
0.00902352
0.00894222
0.00894975
0.00932666
0.00941109
0.00932383
0.00915619
0.00900545
0.00889412
0.00880059
0.00873556
0.00868122
0.00864614
0.00857634
0.0084633
0.00835011
0.00820886
0.00808569
0.00798566
0.00790588
0.00782984
0.00776879
0.00770538
0.0076756
0.00759972
0.00759791
0.0075601
0.00751376
0.00754156
0.0075066
0.00752494
0.00747052
0.00746071
0.00744413
0.00744475
0.00745331
0.0074468
0.00746758
0.00746739
0.00747042
0.00745396
0.00745423
0.00743824
0.00745498
0.0073989
0.00745344
0.00746813
0.00727266
0.00732359
0.00743719
0.00744807
0.0074493
0.00746129
0.00747336
0.00748313
0.00745571
0.00745988
0.00746888
0.00747676
0.00744911
0.00744257
0.00743612
0.00743531
0.0074655
0.00739231
0.00737682
0.00743676
0.00747125
0.00747114
0.00749177
0.00748556
0.00746005
0.00746056
0.00745968
0.00743654
0.00747854
0.00732023
0.00728339
0.00738918
0.00742478
0.00745386
0.00745153
0.00746713
0.00746539
0.00746759
0.00746185
0.00746308
0.00742531
0.00744526
0.00743971
0.0074405
0.00744462
0.00744389
0.00744845