/*--------------------------------*- C++ -*----------------------------------*\
| =========                 |                                                 |
| \\      /  F ield         | foam-extend: Open Source CFD                    |
|  \\    /   O peration     | Version:     3.2                                |
|   \\  /    A nd           | Web:         http://www.foam-extend.org         |
|    \\/     M anipulation  | For copyright notice see file Copyright         |
\*---------------------------------------------------------------------------*/
FoamFile
{
    version     2.0;
    format      ascii;
    class       areaScalarField;
    location    "50";
    object      kTempA;
}
// * * * * * * * * * * * * * * * * * * * * * * * * * * * * * * * * * * * * * //

dimensions      [0 2 -2 0 0 0 0];

internalField   nonuniform List<scalar> 
300
(
0.0338293
0.0216522
0.0160668
0.0161045
0.0156182
0.0156077
0.0153685
0.0153551
0.0152707
0.0153018
0.0153104
0.0153652
0.0154222
0.015511
0.0155954
0.0157014
0.01581
0.0159319
0.0160532
0.016186
0.0163266
0.016472
0.0166223
0.0167747
0.016929
0.0170867
0.0172353
0.017366
0.0174767
0.0175696
0.0176472
0.0177116
0.0177655
0.0178098
0.0178472
0.0178776
0.0179038
0.0179247
0.0179434
0.0179577
0.0179714
0.0179811
0.0179917
0.0179981
0.0180066
0.0180104
0.0180175
0.0180188
0.0180272
0.0180231
0.0180376
0.0180205
0.0180528
0.0180049
0.0180862
0.0179573
0.0181708
0.0178466
0.0184917
0.0172542
0.0125666
0.0129012
0.013844
0.013801
0.0141007
0.0139786
0.0141077
0.0139807
0.0140376
0.0140033
0.0139828
0.0141754
0.0142133
0.0142571
0.0141999
0.0142801
0.0141632
0.0142958
0.0140827
0.0144806
0.0139061
0.0146751
0.014111
0.0138358
0.0149997
0.0133896
0.0144276
0.0141343
0.0145896
0.0142323
0.0138327
0.014186
0.0138759
0.0144403
0.0138052
0.0139876
0.0139489
0.0141979
0.0138345
0.0142623
0.0137535
0.0146464
0.0142542
0.0125473
0.0160666
0.0156818
0.013075
0.0138135
0.0140264
0.013847
0.0141804
0.014138
0.0143196
0.0142707
0.0140791
0.0138238
0.0142033
0.0141032
0.0139264
0.0145497
0.0136777
0.0144956
0.0150557
0.01393
0.013836
0.0142066
0.0140072
0.0140414
0.0142644
0.0142298
0.013839
0.0148052
0.0133216
0.0148001
0.016051
0.0133991
0.0139749
0.0140815
0.0141337
0.014114
0.014179
0.0142106
0.0142456
0.0139759
0.0146014
0.0141328
0.0140086
0.0142653
0.01405
0.0142237
0.0141165
0.0140876
0.0144502
0.0140287
0.014102
0.0142404
0.0141756
0.0142808
0.0142212
0.0142741
0.0142481
0.0142739
0.0142121
0.0143461
0.0141601
0.0144282
0.014063
0.0146589
0.0140032
0.0143593
0.0142894
0.0141853
0.0146293
0.0148309
0.0143161
0.0139478
0.0144938
0.0141594
0.0144351
0.0142064
0.014248
0.0143795
0.0141959
0.0146829
0.0129118
0.0158392
0.015355
0.0135188
0.0142337
0.0140728
0.0143688
0.0140382
0.0146286
0.0138498
0.0145057
0.0139398
0.0144561
0.013979
0.014458
0.0140517
0.0143403
0.0141421
0.0141543
0.0144247
0.0138852
0.0149974
0.0138161
0.0141296
0.014965
0.0133305
0.0147665
0.0163175
0.0134412
0.0142302
0.0143
0.0142137
0.0145219
0.0141454
0.0144437
0.0142695
0.0144952
0.0142221
0.0145519
0.0141554
0.0147418
0.0147239
0.0140374
0.0145112
0.014265
0.0143998
0.0141779
0.0143211
0.0149143
0.0141568
0.0140458
0.0144262
0.0143052
0.0142973
0.0142819
0.0143301
0.0142668
0.0142591
0.0143057
0.0142412
0.0143364
0.0142238
0.0142724
0.0141987
0.0141818
0.0141511
0.0141836
0.0142962
0.0142578
0.0144148
0.0141632
0.0144601
0.0140979
0.0145388
0.014098
0.0144314
0.0141443
0.0143878
0.0143683
0.0139995
0.0151751
0.0138912
0.0142497
0.0140915
0.0141852
0.0141485
0.0142887
0.0140499
0.0141629
0.0141915
0.0141208
0.0143355
0.0138999
0.0148992
0.0139626
0.0141108
0.0142214
0.0142123
0.0143324
0.014216
0.0143199
0.0139815
0.0145682
0.014516
0.0142863
0.0144899
0.0144124
0.0145849
0.0143586
0.0146994
0.0141892
0.0152328
0.0208216
0.0194265
0.0175741
0.0180314
)
;

boundaryField
{
    inlet
    {
        type            calculated;
        value           uniform 0;
    }
    outlet
    {
        type            calculated;
        value           uniform 0;
    }
    sideWall
    {
        type            empty;
    }
}


// ************************************************************************* //
