/*--------------------------------*- C++ -*----------------------------------*\
| =========                 |                                                 |
| \\      /  F ield         | foam-extend: Open Source CFD                    |
|  \\    /   O peration     | Version:     3.2                                |
|   \\  /    A nd           | Web:         http://www.foam-extend.org         |
|    \\/     M anipulation  | For copyright notice see file Copyright         |
\*---------------------------------------------------------------------------*/
FoamFile
{
    version     2.0;
    format      ascii;
    class       volScalarField;
    location    "50";
    object      Ktemp;
}
// * * * * * * * * * * * * * * * * * * * * * * * * * * * * * * * * * * * * * //

dimensions      [0 2 -2 0 0 0 0];

internalField   nonuniform List<scalar> 
5400
(
0.0338293
0.0216522
0.0160668
0.0161045
0.0156182
0.0156077
0.0153685
0.0153551
0.0152707
0.0153018
0.0153104
0.0153652
0.0154222
0.015511
0.0155954
0.0157014
0.01581
0.0159319
0.0160532
0.016186
0.0163266
0.016472
0.0166223
0.0167747
0.016929
0.0170867
0.0172353
0.017366
0.0174767
0.0175696
0.0176472
0.0177116
0.0177655
0.0178098
0.0178472
0.0178776
0.0179038
0.0179247
0.0179434
0.0179577
0.0179714
0.0179811
0.0179917
0.0179981
0.0180066
0.0180104
0.0180175
0.0180188
0.0180272
0.0180231
0.0180376
0.0180205
0.0180528
0.0180049
0.0180862
0.0179573
0.0181708
0.0178466
0.0184917
0.0172542
0.0125666
0.0129012
0.013844
0.013801
0.0141007
0.0139786
0.0141077
0.0139807
0.0140376
0.0140033
0.0139828
0.0141754
0.0142133
0.0142571
0.0141999
0.0142801
0.0141632
0.0142958
0.0140827
0.0144806
0.0139061
0.0146751
0.014111
0.0138358
0.0149997
0.0133896
0.0144276
0.0141343
0.0145896
0.0142323
0.0138327
0.014186
0.0138759
0.0144403
0.0138052
0.0139876
0.0139489
0.0141979
0.0138345
0.0142623
0.0137535
0.0146464
0.0142542
0.0125473
0.0160666
0.0156818
0.013075
0.0138135
0.0140264
0.013847
0.0141804
0.014138
0.0143196
0.0142707
0.0140791
0.0138238
0.0142033
0.0141032
0.0139264
0.0145497
0.0136777
0.0144956
0.0150557
0.01393
0.013836
0.0142066
0.0140072
0.0140414
0.0142644
0.0142298
0.013839
0.0148052
0.0133216
0.0148001
0.016051
0.0133991
0.0139749
0.0140815
0.0141337
0.014114
0.014179
0.0142106
0.0142456
0.0139759
0.0146014
0.0141328
0.0140086
0.0142653
0.01405
0.0142237
0.0141165
0.0140876
0.0144502
0.0140287
0.014102
0.0142404
0.0141756
0.0142808
0.0142212
0.0142741
0.0142481
0.0142739
0.0142121
0.0143461
0.0141601
0.0144282
0.014063
0.0146589
0.0140032
0.0143593
0.0142894
0.0141853
0.0146293
0.0148309
0.0143161
0.0139478
0.0144938
0.0141594
0.0144351
0.0142064
0.014248
0.0143795
0.0141959
0.0146829
0.0129118
0.0158392
0.015355
0.0135188
0.0142337
0.0140728
0.0143688
0.0140382
0.0146286
0.0138498
0.0145057
0.0139398
0.0144561
0.013979
0.014458
0.0140517
0.0143403
0.0141421
0.0141543
0.0144247
0.0138852
0.0149974
0.0138161
0.0141296
0.014965
0.0133305
0.0147665
0.0163175
0.0134412
0.0142302
0.0143
0.0142137
0.0145219
0.0141454
0.0144437
0.0142695
0.0144952
0.0142221
0.0145519
0.0141554
0.0147418
0.0147239
0.0140374
0.0145112
0.014265
0.0143998
0.0141779
0.0143211
0.0149143
0.0141568
0.0140458
0.0144262
0.0143052
0.0142973
0.0142819
0.0143301
0.0142668
0.0142591
0.0143057
0.0142412
0.0143364
0.0142238
0.0142724
0.0141987
0.0141818
0.0141511
0.0141836
0.0142962
0.0142578
0.0144148
0.0141632
0.0144601
0.0140979
0.0145388
0.014098
0.0144314
0.0141443
0.0143878
0.0143683
0.0139995
0.0151751
0.0138912
0.0142497
0.0140915
0.0141852
0.0141485
0.0142887
0.0140499
0.0141629
0.0141915
0.0141208
0.0143355
0.0138999
0.0148992
0.0139626
0.0141108
0.0142214
0.0142123
0.0143324
0.014216
0.0143199
0.0139815
0.0145682
0.014516
0.0142863
0.0144899
0.0144124
0.0145849
0.0143586
0.0146994
0.0141892
0.0152328
0.0208216
0.0194265
0.0175741
0.0180314
0.0126155
0.0156167
0.0151859
0.0153797
0.015086
0.0150735
0.0149359
0.014941
0.014911
0.0149608
0.0149994
0.0150733
0.0151565
0.0152521
0.0153568
0.0154717
0.0155919
0.0157225
0.015855
0.0159927
0.0161356
0.016282
0.016431
0.0165806
0.0167301
0.0168783
0.0170119
0.017126
0.0172215
0.0173008
0.0173667
0.017421
0.0174664
0.0175035
0.0175349
0.0175604
0.0175823
0.0175998
0.0176154
0.0176275
0.017639
0.0176473
0.017656
0.0176617
0.0176685
0.0176723
0.0176776
0.01768
0.0176848
0.0176855
0.0176906
0.0176875
0.0176969
0.0176854
0.0177071
0.0176742
0.0177302
0.0176522
0.017859
0.0171788
0.0152391
0.0142993
0.0141607
0.0140783
0.0141012
0.0140596
0.0141017
0.0140642
0.0140872
0.0140817
0.0140808
0.0141254
0.0141363
0.0142038
0.0141975
0.0142084
0.0141918
0.0142242
0.0141757
0.0142329
0.0141424
0.0143009
0.0141376
0.0140741
0.0143215
0.0140782
0.0141592
0.0141071
0.0143083
0.014211
0.0141094
0.0141375
0.0140675
0.0141896
0.0141111
0.0141204
0.0140743
0.0141325
0.0140933
0.0141617
0.0140509
0.0142759
0.0141148
0.0138462
0.0146406
0.0147413
0.0141764
0.0140445
0.0140628
0.0140349
0.0140918
0.0140718
0.0142163
0.0142331
0.0141747
0.0140333
0.0140996
0.0140936
0.0140634
0.0141691
0.014016
0.0142419
0.0143694
0.014189
0.0140616
0.0141092
0.0140728
0.0140751
0.0141327
0.0141141
0.0140205
0.0142025
0.013905
0.0144128
0.0146989
0.0141961
0.0140809
0.0140511
0.0140929
0.0140789
0.0141105
0.0140924
0.014109
0.0140726
0.0142357
0.0141246
0.0140799
0.0141031
0.0140783
0.0141049
0.014079
0.0140541
0.0141528
0.014083
0.0140881
0.0140972
0.0140978
0.0141227
0.0141165
0.0141261
0.0141238
0.01409
0.0140608
0.0140879
0.0140647
0.0141272
0.0140626
0.0141637
0.0140429
0.0141098
0.0140881
0.0140864
0.0141464
0.0143411
0.0142265
0.0140822
0.0141491
0.0140892
0.0141343
0.014076
0.014108
0.014118
0.0140904
0.0141781
0.0138607
0.0145158
0.0145153
0.0140917
0.0140847
0.0140558
0.0140968
0.0140333
0.0141502
0.0140488
0.0141248
0.0140178
0.0141522
0.0140249
0.0141583
0.0140229
0.0141524
0.0140558
0.0140729
0.0140882
0.0140016
0.0142307
0.0140649
0.0140796
0.0142053
0.013862
0.0142499
0.0146183
0.0141386
0.0140893
0.0140415
0.0140338
0.0140881
0.0140491
0.0140956
0.0140695
0.0141153
0.0140781
0.0141347
0.0140608
0.0142173
0.0142193
0.0140738
0.0141234
0.0140722
0.0140986
0.01406
0.014127
0.0142457
0.014134
0.0140497
0.0141022
0.0140906
0.0140957
0.0140759
0.0141091
0.0141199
0.0140973
0.0140913
0.0140772
0.014081
0.0140462
0.0140963
0.0140744
0.0140535
0.014038
0.0140465
0.0140558
0.0140582
0.0141334
0.0141096
0.0141595
0.0140967
0.0141676
0.0140875
0.0141683
0.0140681
0.0141525
0.0141244
0.0140315
0.0142773
0.0141042
0.0140829
0.0140478
0.0141365
0.0140475
0.014139
0.0140878
0.0141226
0.014083
0.0140751
0.0141191
0.0140346
0.0142261
0.0140856
0.0141098
0.014125
0.014132
0.0141343
0.0141124
0.0141196
0.014097
0.0142244
0.0142708
0.0142534
0.0143187
0.0143252
0.0143727
0.0143114
0.0143745
0.0142103
0.0147226
0.0169652
0.01758
0.0174853
0.0175658
0.00575084
0.00974994
0.0118317
0.0127762
0.0129792
0.0131898
0.0132307
0.0133324
0.0133916
0.0134931
0.0135745
0.0136824
0.0137924
0.0139059
0.0140278
0.0141519
0.0142809
0.0144161
0.0145529
0.0146911
0.0148312
0.0149724
0.0151134
0.0152529
0.0153901
0.0155206
0.0156303
0.0157191
0.0157906
0.015848
0.0158945
0.015932
0.0159628
0.0159875
0.0160082
0.0160248
0.016039
0.0160504
0.0160604
0.0160683
0.0160757
0.0160812
0.0160868
0.0160907
0.0160951
0.0160977
0.0161011
0.0161031
0.0161058
0.0161073
0.016109
0.0161097
0.0161117
0.0161111
0.0161143
0.0161107
0.0161176
0.0161112
0.0161412
0.0156379
0.0151324
0.014168
0.0135818
0.0133864
0.0132651
0.0131998
0.0131746
0.0131537
0.0131446
0.0131021
0.0130915
0.0130958
0.0130874
0.0131071
0.0130879
0.0130694
0.0130631
0.0130527
0.0130384
0.0130163
0.0130786
0.0129758
0.0129851
0.0129731
0.012978
0.0130585
0.0129105
0.0129584
0.0129826
0.0130032
0.0129837
0.0129507
0.0129461
0.0129426
0.0129902
0.0129921
0.0129723
0.012948
0.0129901
0.0129485
0.0130075
0.012928
0.0129145
0.0131252
0.0129362
0.0130777
0.0132453
0.0130212
0.0129362
0.0129367
0.012926
0.0129352
0.0130105
0.0130319
0.013036
0.0129923
0.01297
0.0129505
0.0129357
0.012923
0.0130057
0.0129594
0.0129327
0.0130783
0.0129971
0.012934
0.0129487
0.0129575
0.0129509
0.0129426
0.0129446
0.0129096
0.0130494
0.013044
0.0130542
0.0131641
0.0129922
0.0129343
0.0129506
0.0129491
0.0129538
0.0129356
0.0129504
0.0129915
0.012941
0.0129788
0.0129746
0.0129479
0.0129498
0.0129396
0.0129307
0.012928
0.0129199
0.012972
0.0129756
0.0129493
0.0129529
0.0129476
0.012953
0.0129553
0.0129584
0.0129348
0.0129242
0.0129143
0.0129239
0.0129344
0.0129558
0.0128948
0.0129739
0.0129495
0.0129526
0.0129629
0.0129261
0.0129937
0.0130465
0.0130069
0.0129678
0.0129647
0.0129356
0.0129475
0.0129833
0.0129525
0.0129525
0.0129263
0.0131112
0.0128881
0.0130108
0.0130302
0.0129596
0.0129456
0.0129273
0.0129254
0.0129123
0.0129733
0.0128695
0.0129649
0.0129074
0.0129646
0.0128987
0.0129364
0.0129503
0.0129497
0.0129476
0.0129067
0.0129126
0.0128827
0.0130004
0.0129412
0.0128964
0.0129952
0.0129195
0.012889
0.0131205
0.0129581
0.0128995
0.0129031
0.0128888
0.0129052
0.0129013
0.0129162
0.0129187
0.0129312
0.0129227
0.0129701
0.0129305
0.0129254
0.0129301
0.0129062
0.0129137
0.0129197
0.012976
0.0129932
0.012935
0.0130152
0.0129584
0.0129145
0.0129225
0.0129647
0.0129603
0.0129674
0.0129908
0.0129611
0.0129351
0.0129264
0.0129078
0.0128987
0.0129136
0.0129088
0.0129135
0.0129039
0.0128924
0.0128971
0.0129158
0.0129446
0.0129674
0.0129521
0.0129739
0.0129127
0.0129772
0.0129382
0.0129621
0.0129471
0.0129162
0.0129059
0.0128714
0.0129515
0.0128559
0.0129081
0.0129787
0.012962
0.0129794
0.0130024
0.0129789
0.0129379
0.0129238
0.0129045
0.0129076
0.0128691
0.0129777
0.0129631
0.0129314
0.012928
0.0129197
0.0129236
0.0129036
0.0129514
0.0129248
0.0129894
0.0130502
0.0131007
0.0131473
0.0131406
0.0131235
0.0131262
0.0131284
0.0134071
0.0141233
0.0149759
0.0155415
0.0157097
0.00294459
0.00552384
0.00822346
0.00984878
0.010763
0.0113258
0.0116236
0.0118592
0.0120269
0.0121932
0.0123334
0.0124828
0.012624
0.0127665
0.0129092
0.0130484
0.0131907
0.0133348
0.013479
0.0136218
0.0137632
0.0139033
0.0140403
0.0141732
0.014301
0.0144158
0.0145043
0.0145701
0.0146192
0.0146559
0.0146838
0.0147048
0.0147211
0.0147334
0.0147432
0.0147507
0.014757
0.0147619
0.0147662
0.0147696
0.0147728
0.0147752
0.0147777
0.0147795
0.0147815
0.0147828
0.0147844
0.0147855
0.0147866
0.0147878
0.014788
0.0147895
0.0147888
0.0147914
0.0147885
0.0147939
0.0147848
0.0147971
0.0147455
0.0143897
0.0145354
0.0137941
0.0131184
0.0128342
0.0126268
0.0125263
0.0124451
0.0124117
0.0123834
0.0123195
0.0122956
0.0122736
0.0122444
0.0122172
0.0121752
0.0121359
0.0121167
0.0120826
0.0120671
0.0120239
0.0121014
0.0119328
0.0119915
0.011995
0.0119291
0.0120602
0.0119187
0.0119839
0.0119199
0.011968
0.0119771
0.0119442
0.011958
0.0119224
0.011987
0.0119946
0.0119946
0.0119515
0.0119925
0.0119367
0.0120397
0.0118587
0.0119023
0.0121753
0.0117805
0.0118801
0.0122047
0.0120697
0.0119746
0.0119761
0.011951
0.0119662
0.0119789
0.0120008
0.0120299
0.0120439
0.012003
0.0119658
0.0119442
0.0119087
0.0120603
0.0119086
0.0118434
0.0120364
0.0120247
0.0119525
0.0119756
0.0119858
0.0119538
0.0119491
0.0119779
0.0119094
0.0121739
0.0119342
0.0118671
0.012092
0.0119967
0.011959
0.0119659
0.0119752
0.0119654
0.0119534
0.0119644
0.0120147
0.0119085
0.011982
0.0119927
0.0119592
0.0119634
0.0119455
0.0119408
0.0119536
0.0119092
0.0119764
0.0119896
0.0119641
0.0119603
0.0119469
0.0119546
0.0119512
0.0119532
0.0119492
0.0119502
0.011934
0.0119469
0.0119384
0.0119724
0.0118826
0.0119935
0.0119559
0.0119624
0.0119696
0.0119221
0.0118994
0.0120036
0.0120184
0.0119684
0.0119769
0.0119309
0.0119593
0.0119881
0.0119511
0.0119576
0.011907
0.0121809
0.0117443
0.0118326
0.0119964
0.0119644
0.0119586
0.0119302
0.0119407
0.0118969
0.0119677
0.0118599
0.0119824
0.0118693
0.0119762
0.0118514
0.0119539
0.0119079
0.0119595
0.0119501
0.011902
0.0119188
0.0118424
0.0119723
0.0119165
0.0118421
0.0120794
0.0118236
0.0117124
0.0120304
0.0119549
0.0119152
0.011909
0.0118801
0.0119049
0.0118944
0.0119146
0.0119068
0.0119267
0.0119051
0.0119804
0.011871
0.0118567
0.0119092
0.0118834
0.0119121
0.0119255
0.0120088
0.0119947
0.0118838
0.0119813
0.0119602
0.0119051
0.0119084
0.011966
0.0119731
0.0119598
0.0119826
0.01196
0.0119396
0.0119321
0.0119056
0.0118998
0.0118911
0.011894
0.0119244
0.0119253
0.0119055
0.0119132
0.0119246
0.0119269
0.0119533
0.0119214
0.0119535
0.0118732
0.0119551
0.0118847
0.0119532
0.0119083
0.0118855
0.0118913
0.0117951
0.0118804
0.0118107
0.0118954
0.0119439
0.0119849
0.0119618
0.0119914
0.0119522
0.0119235
0.0119035
0.0118688
0.0118894
0.011803
0.0119272
0.0119125
0.0118724
0.0118709
0.0118716
0.0118787
0.0118577
0.0119085
0.0118406
0.0119024
0.0119804
0.012036
0.0120912
0.0120647
0.0120597
0.0120543
0.012144
0.0122877
0.0123045
0.0130519
0.0137199
0.0140159
0.00168528
0.00310406
0.00515831
0.00690105
0.00837364
0.00935159
0.00997055
0.0104078
0.0107208
0.0109816
0.011191
0.0113903
0.0115679
0.0117437
0.011912
0.0120715
0.0122305
0.0123866
0.0125407
0.0126906
0.0128362
0.0129777
0.013113
0.0132413
0.0133606
0.0134598
0.013528
0.0135727
0.0136014
0.0136192
0.0136298
0.0136354
0.013638
0.0136385
0.013638
0.0136368
0.0136355
0.0136341
0.0136329
0.0136319
0.013631
0.0136304
0.0136299
0.0136296
0.0136293
0.0136292
0.0136291
0.0136292
0.013629
0.0136295
0.0136288
0.0136301
0.0136284
0.0136315
0.0136268
0.0136343
0.0136205
0.0136353
0.0135439
0.0133051
0.013736
0.0132342
0.0126439
0.012313
0.0120596
0.0119308
0.0118092
0.0117576
0.0117181
0.0116518
0.0116156
0.0115693
0.0115167
0.0114517
0.0113878
0.0113231
0.0112841
0.0112375
0.0112141
0.0111622
0.0112184
0.0110524
0.0111073
0.011116
0.0110364
0.0111577
0.0110513
0.011116
0.011021
0.0110569
0.0110753
0.0110539
0.0110734
0.0110338
0.0110912
0.0111001
0.0111075
0.0110667
0.0110956
0.0110471
0.0111435
0.0109593
0.0110112
0.0112335
0.0108455
0.0109272
0.0112344
0.0111741
0.0111092
0.0111108
0.0110868
0.0110986
0.0110785
0.0110932
0.0111267
0.0111647
0.0111224
0.0110817
0.0110599
0.0110237
0.0111684
0.0110044
0.0109336
0.0111038
0.0111341
0.0110783
0.011103
0.0111114
0.0110711
0.0110664
0.0110986
0.0110333
0.0113008
0.0109919
0.0108941
0.0111213
0.0110842
0.0110798
0.0110828
0.0110977
0.011084
0.0110771
0.0110828
0.0111233
0.0110189
0.0110852
0.0110986
0.0110722
0.0110764
0.0110608
0.0110627
0.0110812
0.0110292
0.0110797
0.0110958
0.0110786
0.0110708
0.0110563
0.0110612
0.0110541
0.0110554
0.0110661
0.0110718
0.0110588
0.0110688
0.011053
0.0110802
0.0109986
0.0110947
0.0110599
0.0110633
0.0110659
0.0110301
0.0109667
0.0110635
0.0111045
0.0110699
0.0110829
0.011041
0.0110699
0.0110815
0.0110525
0.0110591
0.0110103
0.0112294
0.0108162
0.0108616
0.0110499
0.0110557
0.0110592
0.0110349
0.0110451
0.0109985
0.0110563
0.010974
0.0110735
0.0109646
0.0110587
0.0109375
0.0110364
0.0109757
0.0110387
0.0110306
0.010996
0.0110084
0.0109334
0.0110395
0.0109943
0.0109238
0.011152
0.0108771
0.0107563
0.0110459
0.0110351
0.01102
0.0110068
0.0109791
0.0110013
0.0109935
0.0110106
0.0110013
0.0110185
0.0109973
0.0110647
0.0109483
0.0109277
0.0109854
0.0109666
0.0110013
0.0110229
0.0110929
0.0110707
0.0109639
0.0110436
0.011051
0.0110029
0.0109989
0.0110516
0.0110625
0.0110402
0.0110567
0.0110431
0.0110282
0.0110225
0.0110012
0.010998
0.0109789
0.0109874
0.0110242
0.0110323
0.0110203
0.0110297
0.0110321
0.0110167
0.0110343
0.011001
0.0110288
0.0109616
0.0110237
0.0109533
0.0110216
0.0109794
0.0109654
0.0109677
0.0108687
0.0109325
0.0108952
0.0109828
0.0110059
0.0110584
0.01102
0.0110451
0.0110168
0.0109958
0.0109726
0.0109445
0.0109648
0.0108791
0.0109729
0.0109564
0.0109236
0.010924
0.0109301
0.010937
0.0109222
0.0109613
0.010897
0.0109499
0.0110212
0.0110797
0.011127
0.0110942
0.0110959
0.0110995
0.0112319
0.0112796
0.0109869
0.0115663
0.0121353
0.0124833
0.00113183
0.00183559
0.0030261
0.00444892
0.00598485
0.00721554
0.00817842
0.00886796
0.00936771
0.00975845
0.0100641
0.0103318
0.0105619
0.0107769
0.0109752
0.0111606
0.0113392
0.0115098
0.0116759
0.0118351
0.0119868
0.0121316
0.0122667
0.0123913
0.0125014
0.0125835
0.0126324
0.0126582
0.0126691
0.0126702
0.0126656
0.0126576
0.0126481
0.012638
0.0126283
0.0126192
0.0126111
0.012604
0.0125978
0.0125927
0.0125882
0.0125847
0.0125816
0.0125793
0.012577
0.0125756
0.012574
0.0125731
0.0125718
0.0125715
0.0125703
0.012571
0.012569
0.0125716
0.0125667
0.0125739
0.0125597
0.0125715
0.0124611
0.0123165
0.0128447
0.0125563
0.0120915
0.0117606
0.0114935
0.0113498
0.0112068
0.0111411
0.0110925
0.0110304
0.0109862
0.0109216
0.0108464
0.0107529
0.0106695
0.0105826
0.010525
0.0104687
0.010435
0.0103782
0.0104076
0.0102648
0.0103022
0.0103057
0.0102314
0.0103292
0.010253
0.0103095
0.0102122
0.0102317
0.0102464
0.0102359
0.0102554
0.0102222
0.0102686
0.0102757
0.0102844
0.01025
0.0102687
0.0102308
0.010306
0.0101514
0.0102025
0.0103565
0.0100127
0.0100978
0.0103496
0.0103307
0.010297
0.010302
0.0102843
0.010292
0.0102569
0.010264
0.0102936
0.0103363
0.0102966
0.0102624
0.0102441
0.0102144
0.0103267
0.0101827
0.0101194
0.0102566
0.0103045
0.0102681
0.0102932
0.0102981
0.010257
0.010252
0.0102789
0.0102249
0.0104389
0.0101447
0.0100427
0.0102434
0.0102463
0.010266
0.0102655
0.0102816
0.0102675
0.0102635
0.0102638
0.0102928
0.0102055
0.0102559
0.0102662
0.0102498
0.0102547
0.0102455
0.0102538
0.0102707
0.0102219
0.0102551
0.0102664
0.0102548
0.0102448
0.010232
0.0102341
0.0102269
0.0102296
0.010249
0.0102559
0.0102467
0.0102524
0.0102348
0.0102527
0.0101872
0.0102608
0.0102306
0.0102306
0.010228
0.0102069
0.0101364
0.0102091
0.0102547
0.0102371
0.0102529
0.0102205
0.0102456
0.010244
0.0102258
0.0102286
0.0101882
0.0103279
0.00998848
0.0100153
0.0101821
0.0102097
0.0102199
0.0102042
0.0102113
0.0101713
0.0102155
0.0101569
0.0102285
0.0101406
0.0102093
0.0101064
0.0101794
0.0101209
0.0101751
0.0101709
0.0101556
0.0101619
0.010101
0.0101864
0.0101486
0.0100903
0.0102553
0.0100223
0.00991501
0.0101602
0.0101806
0.0101853
0.0101692
0.0101479
0.0101641
0.0101603
0.0101729
0.0101649
0.0101776
0.010159
0.0102087
0.0101059
0.0100847
0.0101318
0.01012
0.0101521
0.0101705
0.0102222
0.0102026
0.0101227
0.0101844
0.0102034
0.0101702
0.010167
0.0102007
0.010208
0.0101873
0.0101989
0.0101916
0.0101764
0.0101724
0.0101623
0.0101649
0.0101427
0.0101508
0.0101779
0.0101921
0.0101946
0.0102055
0.0102021
0.0101755
0.0101821
0.0101534
0.0101767
0.010131
0.0101717
0.0101102
0.0101654
0.0101275
0.0101186
0.0101126
0.0100276
0.0100783
0.0100681
0.0101405
0.0101383
0.0101827
0.0101428
0.0101662
0.01015
0.010136
0.0101145
0.0100972
0.0101113
0.0100392
0.0101014
0.0100786
0.0100575
0.0100562
0.0100632
0.0100695
0.0100629
0.0100906
0.0100439
0.0100881
0.0101442
0.0101958
0.0102304
0.0102022
0.0102145
0.0102304
0.0103714
0.0103451
0.00993784
0.0103421
0.0107809
0.0111156
0.000890406
0.00118157
0.00175591
0.00269898
0.00397153
0.00516231
0.00628549
0.00718541
0.00790292
0.00845781
0.00889031
0.00925028
0.00955136
0.00981924
0.0100576
0.0102767
0.0104815
0.0106724
0.0108541
0.0110245
0.0111839
0.0113333
0.0114689
0.0115899
0.0116883
0.0117508
0.0117824
0.0117925
0.0117887
0.0117764
0.0117595
0.0117404
0.011721
0.0117024
0.0116852
0.0116696
0.0116559
0.0116441
0.0116339
0.0116254
0.0116179
0.0116121
0.0116068
0.0116029
0.011599
0.0115964
0.0115936
0.0115918
0.0115896
0.0115887
0.0115871
0.0115873
0.0115851
0.0115872
0.0115826
0.0115886
0.0115756
0.0115834
0.0114667
0.0113949
0.0119193
0.0117992
0.0114598
0.0111567
0.0109017
0.0107544
0.0106104
0.0105379
0.0104819
0.0104256
0.0103755
0.0102965
0.0102038
0.0100895
0.00998932
0.00988917
0.00981887
0.00975305
0.00970852
0.00964829
0.00965507
0.00953626
0.00955841
0.0095506
0.0094853
0.00955982
0.00950364
0.00954957
0.00946223
0.00946883
0.00947503
0.00947145
0.0094887
0.00946409
0.00950115
0.00950553
0.00951277
0.00948447
0.00949618
0.00946754
0.00952164
0.00940005
0.00945146
0.00954961
0.00924964
0.00933663
0.00953869
0.00953973
0.00952589
0.00953423
0.0095253
0.00953036
0.00948988
0.00949264
0.00951734
0.00955344
0.00951732
0.00949259
0.00947874
0.00945734
0.0095376
0.00941664
0.00936638
0.00947538
0.00952655
0.00950615
0.0095316
0.009532
0.00949287
0.00948857
0.00950775
0.00946492
0.0096148
0.00936136
0.00927096
0.00944239
0.00947084
0.00950187
0.00949836
0.00951324
0.00950039
0.00949827
0.00949447
0.00951423
0.00944373
0.0094808
0.00948699
0.00947863
0.00948439
0.00948109
0.00949246
0.00950608
0.00946396
0.00948513
0.00948912
0.00948024
0.00946897
0.00945815
0.00945819
0.0094535
0.00945916
0.00948315
0.00949016
0.00948406
0.0094851
0.00946719
0.009478
0.00942753
0.00948247
0.00945641
0.00945533
0.00944807
0.00943869
0.00937844
0.00942805
0.0094653
0.00945777
0.00947519
0.00945164
0.00947307
0.0094651
0.00945678
0.00945407
0.00942183
0.00950147
0.0092218
0.00925062
0.00938546
0.00941994
0.00943332
0.00942612
0.00943057
0.0093989
0.0094329
0.0093914
0.00944112
0.00937352
0.00942172
0.00934083
0.0093878
0.00933198
0.00937488
0.00937265
0.00937266
0.00937427
0.00932817
0.00939783
0.00936403
0.00931917
0.00942558
0.00923321
0.00914824
0.00935313
0.00938548
0.00940397
0.00938747
0.00937278
0.00938327
0.0093824
0.00939119
0.00938528
0.00939374
0.00937731
0.00941059
0.00932297
0.00930439
0.00933938
0.00933247
0.00935666
0.00936707
0.00940736
0.00939355
0.00934247
0.00939179
0.00941089
0.00939336
0.0093946
0.00940926
0.00941242
0.00939636
0.00940431
0.00940176
0.00938743
0.00938283
0.00937983
0.00938825
0.0093661
0.00936834
0.00938345
0.00940215
0.00941323
0.00942335
0.00941818
0.0093896
0.0093886
0.00936672
0.00938901
0.00936136
0.00938813
0.00933879
0.00938176
0.00934215
0.00933339
0.00932078
0.00925057
0.00929611
0.0093026
0.00935375
0.00933392
0.00936533
0.00933028
0.00935186
0.00934272
0.0093389
0.00932263
0.0093141
0.00932116
0.00926291
0.00930147
0.00927274
0.00926158
0.00925712
0.00926332
0.00926883
0.00926946
0.00928856
0.00925519
0.00929196
0.00933581
0.00937475
0.00940035
0.00938585
0.00940815
0.00943276
0.00956135
0.00948325
0.0090522
0.00931532
0.00964082
0.00993136
0.00078822
0.000904457
0.0011322
0.00162583
0.00246579
0.00347438
0.00452395
0.0054755
0.00632753
0.00703795
0.00762286
0.00809929
0.00849348
0.00883254
0.00912578
0.00938806
0.00962666
0.00984562
0.0100483
0.0102342
0.0104043
0.0105598
0.0106958
0.0108104
0.0108939
0.0109402
0.0109585
0.0109572
0.0109432
0.0109214
0.0108959
0.0108692
0.010843
0.0108183
0.0107959
0.0107759
0.0107584
0.0107433
0.0107302
0.0107194
0.0107099
0.0107024
0.0106956
0.0106905
0.0106855
0.0106821
0.0106785
0.0106761
0.0106734
0.010672
0.0106701
0.0106699
0.0106678
0.0106692
0.0106652
0.01067
0.0106587
0.010663
0.010551
0.0105275
0.0110047
0.011
0.0107698
0.0105081
0.0102825
0.0101412
0.0100106
0.00993733
0.00987808
0.00983033
0.00977371
0.00968098
0.00957609
0.0094456
0.00933189
0.00922739
0.00915101
0.00907806
0.00902455
0.00896187
0.00895189
0.00885185
0.00886336
0.00884341
0.00878612
0.00884139
0.00879724
0.00883319
0.00875803
0.00875569
0.00875294
0.00875291
0.00876721
0.00875028
0.00878034
0.0087824
0.00878773
0.00876437
0.00877132
0.00874919
0.00878701
0.00869305
0.00874598
0.00880438
0.00854371
0.00862192
0.00878733
0.00879698
0.00879249
0.00880395
0.00880372
0.00880871
0.00876908
0.0087716
0.00879046
0.00881605
0.00878254
0.00876641
0.0087563
0.00874305
0.00879923
0.00869704
0.00866083
0.00874855
0.00879616
0.00878693
0.00881248
0.00880833
0.00877235
0.00876961
0.00878104
0.00874709
0.00884708
0.00863108
0.00855903
0.00870476
0.00874452
0.00877882
0.00877444
0.00878831
0.00877837
0.00877783
0.00877168
0.0087841
0.00872654
0.00875481
0.00875702
0.00875394
0.00876009
0.00875967
0.00877106
0.00878278
0.00874734
0.00876133
0.00875888
0.00875066
0.00873891
0.00872979
0.00872845
0.00872619
0.008734
0.0087605
0.00876894
0.00876487
0.00876196
0.00874416
0.00875015
0.00871172
0.00875435
0.00873164
0.00873125
0.00872163
0.00871999
0.00867507
0.00870771
0.00873118
0.00872756
0.0087451
0.00872852
0.00874701
0.00873735
0.00873649
0.00872905
0.00870332
0.00874536
0.00850675
0.00854803
0.0086525
0.00868401
0.00869735
0.00869645
0.00869967
0.00867545
0.00870263
0.00867244
0.0087073
0.00865519
0.00869037
0.0086306
0.00865955
0.00860591
0.00863954
0.00863578
0.00864418
0.00864233
0.00860819
0.00866508
0.00863295
0.0086005
0.00866671
0.00850121
0.00843921
0.00861178
0.00864597
0.00867257
0.00865725
0.00864808
0.00865448
0.00865529
0.00866152
0.00865747
0.00866262
0.00864769
0.00866908
0.00859352
0.00857826
0.00860373
0.00859938
0.00861551
0.00861956
0.00865311
0.0086448
0.00861691
0.00865895
0.00867315
0.00866466
0.00867107
0.00867646
0.00867801
0.0086635
0.00866654
0.00866877
0.0086586
0.00865188
0.00864999
0.00866028
0.00863912
0.00863671
0.00864421
0.00866302
0.00867519
0.00868289
0.00867813
0.0086539
0.00865046
0.00863597
0.00865944
0.00864453
0.00866465
0.00862623
0.00865772
0.00861565
0.00860561
0.00858776
0.00852936
0.00857222
0.00858476
0.00861531
0.00858491
0.00860456
0.00857495
0.00859544
0.00859121
0.0085993
0.00859039
0.00858811
0.00858973
0.00854239
0.008567
0.00853342
0.00852707
0.00852057
0.00852586
0.00853056
0.00853608
0.00854973
0.00852303
0.00855265
0.00858952
0.00861714
0.00863954
0.00864164
0.00867123
0.00869894
0.00880568
0.00870053
0.00828665
0.00844497
0.00867973
0.00891827
0.000746545
0.000794577
0.000875092
0.00108328
0.00151876
0.00221877
0.00308388
0.00395791
0.00479995
0.00556835
0.006257
0.00684928
0.0073545
0.00778179
0.00814746
0.00846682
0.00874925
0.00900447
0.00923468
0.0094416
0.00962608
0.00978859
0.00992399
0.0100294
0.0100994
0.0101388
0.0101504
0.0101433
0.0101242
0.0100979
0.0100683
0.0100378
0.0100085
0.00998106
0.00995624
0.00993417
0.00991484
0.00989823
0.00988388
0.00987193
0.00986152
0.00985323
0.00984577
0.00984011
0.00983469
0.00983085
0.00982695
0.00982427
0.00982143
0.00981973
0.00981785
0.00981735
0.00981542
0.00981637
0.00981302
0.00981668
0.00980733
0.00980891
0.00971034
0.00971137
0.0101379
0.0101958
0.0100494
0.0098349
0.00964644
0.00951864
0.0094068
0.00933644
0.00927831
0.00923944
0.00917595
0.00907029
0.00895814
0.00881709
0.00869508
0.00859183
0.00851369
0.00843762
0.00837855
0.00831473
0.00829289
0.00820681
0.00821093
0.00818057
0.00812951
0.00816966
0.00813242
0.00815947
0.00809482
0.00808686
0.0080764
0.00807765
0.00808904
0.00807818
0.00810304
0.00810358
0.00810733
0.00808774
0.00809115
0.00807312
0.00809884
0.00802649
0.00808116
0.00811276
0.0078863
0.0079507
0.0080877
0.00809905
0.00809915
0.00811239
0.00811945
0.00812598
0.00809127
0.0080949
0.00810788
0.00812334
0.00809245
0.00808258
0.00807512
0.00806898
0.00810887
0.00802181
0.00799795
0.00807
0.00811116
0.00810876
0.00813259
0.00812587
0.00809419
0.0080931
0.00809758
0.00807021
0.00813523
0.00794998
0.00789757
0.00802175
0.00806195
0.00809478
0.00809124
0.00810595
0.00810005
0.00810082
0.0080939
0.00809997
0.00805302
0.00807619
0.00807447
0.00807431
0.00807995
0.00807998
0.00808889
0.00809902
0.0080703
0.00807966
0.0080727
0.00806483
0.0080528
0.00804523
0.00804302
0.00804282
0.00805038
0.008078
0.00808895
0.00808713
0.0080814
0.00806403
0.00806683
0.00803768
0.00807274
0.00805358
0.00805507
0.00804519
0.00804807
0.00801663
0.00803841
0.00804798
0.00804455
0.00806071
0.00804908
0.00806558
0.00805658
0.0080604
0.00804963
0.00802949
0.00804912
0.0078425
0.00789715
0.00797536
0.00799901
0.00801009
0.0080131
0.00801603
0.00799797
0.00802069
0.00799807
0.00802354
0.00798281
0.00801014
0.00796658
0.00798575
0.00793698
0.00796264
0.0079553
0.00796685
0.00796271
0.00793726
0.00798334
0.00795121
0.00792932
0.00797072
0.00782344
0.00778101
0.00792781
0.00795845
0.00798868
0.00797554
0.0079706
0.00797454
0.00797627
0.00798115
0.00797879
0.00798145
0.00796754
0.00798047
0.00791408
0.00790225
0.00792123
0.00791793
0.00792873
0.00792882
0.00795717
0.00795298
0.00794221
0.00797995
0.00798871
0.00798312
0.00799275
0.007997
0.00800032
0.00798397
0.0079807
0.00798697
0.00798123
0.00797302
0.00797024
0.00797731
0.00795785
0.00795617
0.00795952
0.0079743
0.00798358
0.00798834
0.00798504
0.00796781
0.00796587
0.00795864
0.00798336
0.00797682
0.00799409
0.00796351
0.00798359
0.00794179
0.00793163
0.00790923
0.00785986
0.00790064
0.00791323
0.00792429
0.00788669
0.00789876
0.00787317
0.00789382
0.00789485
0.00791288
0.00791163
0.00791404
0.00791202
0.0078728
0.00788951
0.00785278
0.00784827
0.00784073
0.00784499
0.00784893
0.00785766
0.00786805
0.00784449
0.00786789
0.00790097
0.00792284
0.00794661
0.00796107
0.00799493
0.00802136
0.0081059
0.00799358
0.00761293
0.00769675
0.00786197
0.0080513
0.000729981
0.000751626
0.000779686
0.000856059
0.00104075
0.00142238
0.00200704
0.00271696
0.00348007
0.00420881
0.00490828
0.00555056
0.00613259
0.00664646
0.00709712
0.00748735
0.00782567
0.00812584
0.00839039
0.00862411
0.00882668
0.0089971
0.00913173
0.00923021
0.00929841
0.00934111
0.00935382
0.00934767
0.00932944
0.0093041
0.00927546
0.00924602
0.00921754
0.00919094
0.00916682
0.00914537
0.00912658
0.00911041
0.00909644
0.0090848
0.00907469
0.00906661
0.00905938
0.00905385
0.00904864
0.00904483
0.00904121
0.00903853
0.00903594
0.00903424
0.00903253
0.00903198
0.00903037
0.00903104
0.0090284
0.00903119
0.00902366
0.00902352
0.00894219
0.00894969
0.00932667
0.00941107
0.00932378
0.00915621
0.00900571
0.00889431
0.00880088
0.00873658
0.00868259
0.00864789
0.00857764
0.00846397
0.00834941
0.0082067
0.00808386
0.0079848
0.00790675
0.00783113
0.00776994
0.00770652
0.00767655
0.00760081
0.00759941
0.0075613
0.00751522
0.00754333
0.00750961
0.00752855
0.00747236
0.00746141
0.00744491
0.0074462
0.00745495
0.00744857
0.00746949
0.00746927
0.00747171
0.00745492
0.00745548
0.00743996
0.00745668
0.00740044
0.00745608
0.00746983
0.00727424
0.00732565
0.00743829
0.00744802
0.00745027
0.00746324
0.00747537
0.00748428
0.00745674
0.00745997
0.00746817
0.007476
0.00744828
0.0074424
0.00743661
0.00743624
0.00746555
0.00739191
0.0073775
0.00743749
0.00747131
0.00747134
0.00749171
0.00748499
0.00745905
0.00745952
0.00745819
0.00743563
0.00747708
0.00731795
0.00728343
0.00738952
0.00742431
0.00745242
0.00745055
0.00746729
0.00746531
0.00746705
0.00746046
0.00746137
0.00742376
0.00744397
0.00743884
0.00743999