/*--------------------------------*- C++ -*----------------------------------*\
| =========                 |                                                 |
| \\      /  F ield         | foam-extend: Open Source CFD                    |
|  \\    /   O peration     | Version:     3.2                                |
|   \\  /    A nd           | Web:         http://www.foam-extend.org         |
|    \\/     M anipulation  | For copyright notice see file Copyright         |
\*---------------------------------------------------------------------------*/
FoamFile
{
    version     2.0;
    format      ascii;
    class       volVectorField;
    location    "50";
    object      meshCentreN;
}
// * * * * * * * * * * * * * * * * * * * * * * * * * * * * * * * * * * * * * //

dimensions      [0 1 0 0 0 0 0];

internalField   nonuniform List<vector> 
5400
(
(0.025 0.01 0.000708335)
(0.075 0.01 0.000458335)
(0.125 0.01 0.000208334)
(0.175 0.01 -4.16665e-05)
(0.225 0.01 -0.000291667)
(0.275 0.01 -0.000541666)
(0.325 0.01 -0.000791667)
(0.375 0.01 -0.00104167)
(0.425 0.01 -0.00129167)
(0.475 0.01 -0.00154167)
(0.525 0.01 -0.00179167)
(0.575 0.01 -0.00204166)
(0.625 0.01 -0.00229166)
(0.675 0.01 -0.00254167)
(0.725 0.01 -0.00279166)
(0.775 0.01 -0.00304167)
(0.825 0.01 -0.00329167)
(0.875 0.01 -0.00354166)
(0.925 0.01 -0.00379166)
(0.975 0.01 -0.00404166)
(1.025 0.01 -0.00429167)
(1.075 0.01 -0.00454167)
(1.125 0.01 -0.00479167)
(1.175 0.01 -0.00504167)
(1.225 0.01 -0.00529166)
(1.275 0.01 -0.00554167)
(1.325 0.01 -0.00579167)
(1.375 0.01 -0.00604167)
(1.425 0.01 -0.00629167)
(1.475 0.01 -0.00654167)
(1.525 0.01 -0.00679166)
(1.575 0.01 -0.00704166)
(1.625 0.01 -0.00729167)
(1.675 0.01 -0.00754167)
(1.725 0.01 -0.00779166)
(1.775 0.01 -0.00804167)
(1.825 0.01 -0.00829166)
(1.875 0.01 -0.00854167)
(1.925 0.01 -0.00879166)
(1.975 0.01 -0.00904166)
(2.025 0.01 -0.00929166)
(2.075 0.01 -0.00954166)
(2.125 0.01 -0.00979166)
(2.175 0.01 -0.0100417)
(2.225 0.01 -0.0102917)
(2.275 0.01 -0.0105417)
(2.325 0.01 -0.0107917)
(2.375 0.01 -0.0110417)
(2.425 0.01 -0.0112916)
(2.475 0.01 -0.0115417)
(2.525 0.01 -0.0117916)
(2.575 0.01 -0.0120417)
(2.625 0.01 -0.0122917)
(2.675 0.01 -0.0125416)
(2.725 0.01 -0.0127917)
(2.775 0.01 -0.0130416)
(2.825 0.01 -0.0132917)
(2.875 0.01 -0.0135416)
(2.925 0.01 -0.0137919)
(2.975 0.01 -0.0145649)
(3.025 0.01 -0.0159778)
(3.075 0.01 -0.017039)
(3.125 0.01 -0.0175098)
(3.175 0.01 -0.0178161)
(3.225 0.01 -0.0180783)
(3.275 0.01 -0.0183337)
(3.325 0.01 -0.0185829)
(3.375 0.01 -0.0188377)
(3.425 0.01 -0.0190849)
(3.475 0.01 -0.0193527)
(3.525 0.01 -0.0196302)
(3.575 0.01 -0.0198838)
(3.625 0.01 -0.0201355)
(3.675 0.01 -0.0203834)
(3.725 0.01 -0.0206293)
(3.775 0.01 -0.0208846)
(3.825 0.01 -0.0211398)
(3.875 0.01 -0.0213785)
(3.925 0.01 -0.0216239)
(3.975 0.01 -0.0218693)
(4.025 0.01 -0.0221358)
(4.075 0.01 -0.0223373)
(4.125 0.01 -0.0226347)
(4.175 0.01 -0.0228912)
(4.225 0.01 -0.0230343)
(4.275 0.01 -0.0233766)
(4.325 0.01 -0.0236237)
(4.375 0.01 -0.0238122)
(4.425 0.01 -0.0239979)
(4.475 0.01 -0.024287)
(4.525 0.01 -0.0246355)
(4.575 0.01 -0.0248824)
(4.625 0.01 -0.0251258)
(4.675 0.01 -0.0253417)
(4.725 0.01 -0.025622)
(4.775 0.01 -0.0258796)
(4.825 0.01 -0.0261203)
(4.875 0.01 -0.0263765)
(4.925 0.01 -0.0266417)
(4.975 0.01 -0.0268828)
(5.025 0.01 -0.0271132)
(5.075 0.01 -0.0272615)
(5.125 0.01 -0.027616)
(5.175 0.01 -0.0279993)
(5.22499 0.01 -0.0277436)
(5.275 0.01 -0.0277311)
(5.325 0.01 -0.0283793)
(5.375 0.01 -0.0288693)
(5.425 0.01 -0.029141)
(5.475 0.01 -0.0293911)
(5.525 0.01 -0.0295864)
(5.575 0.01 -0.0298001)
(5.625 0.01 -0.0300051)
(5.675 0.01 -0.0302327)
(5.725 0.01 -0.0305501)
(5.775 0.01 -0.0308768)
(5.825 0.01 -0.0311157)
(5.875 0.01 -0.0313791)
(5.925 0.01 -0.0316274)
(5.975 0.01 -0.0318255)
(6.025 0.01 -0.0321421)
(6.075 0.01 -0.0322827)
(6.125 0.01 -0.0323649)
(6.175 0.01 -0.0327451)
(6.225 0.01 -0.0331428)
(6.275 0.01 -0.0333866)
(6.325 0.01 -0.0336227)
(6.375 0.01 -0.0338694)
(6.425 0.01 -0.0340907)
(6.475 0.01 -0.0343729)
(6.525 0.01 -0.0346418)
(6.575 0.01 -0.0348368)
(6.625 0.01 -0.035157)
(6.67499 0.01 -0.0351549)
(6.725 0.01 -0.0351193)
(6.775 0.01 -0.0356677)
(6.825 0.01 -0.0361363)
(6.875 0.01 -0.0363866)
(6.925 0.01 -0.0366298)
(6.975 0.01 -0.0368772)
(7.025 0.01 -0.0371262)
(7.075 0.01 -0.0373694)
(7.125 0.01 -0.0376307)
(7.175 0.01 -0.0378739)
(7.225 0.01 -0.038055)
(7.275 0.01 -0.0383281)
(7.325 0.01 -0.0386315)
(7.375 0.01 -0.0388791)
(7.425 0.01 -0.0391394)
(7.475 0.01 -0.0393695)
(7.525 0.01 -0.0396264)
(7.575 0.01 -0.0398665)
(7.625 0.01 -0.0400804)
(7.675 0.01 -0.0403646)
(7.725 0.01 -0.0406332)
(7.775 0.01 -0.0408714)
(7.825 0.01 -0.0411239)
(7.875 0.01 -0.0413705)
(7.925 0.01 -0.0416252)
(7.975 0.01 -0.0418775)
(8.025 0.01 -0.0421255)
(8.075 0.01 -0.0423715)
(8.125 0.01 -0.0426222)
(8.175 0.01 -0.0428742)
(8.225 0.01 -0.0431324)
(8.275 0.01 -0.043376)
(8.325 0.01 -0.0436302)
(8.375 0.01 -0.0438528)
(8.425 0.01 -0.0441264)
(8.475 0.01 -0.044373)
(8.525 0.01 -0.0446271)
(8.575 0.01 -0.0448835)
(8.625 0.01 -0.0450254)
(8.675 0.01 -0.045193)
(8.725 0.01 -0.0455225)
(8.775 0.01 -0.0458807)
(8.825 0.01 -0.0461259)
(8.875 0.01 -0.0463871)
(8.925 0.01 -0.0466238)
(8.975 0.01 -0.0468727)
(9.025 0.01 -0.0471303)
(9.075 0.01 -0.047381)
(9.125 0.01 -0.0475957)
(9.175 0.01 -0.0478713)
(9.225 0.01 -0.0482235)
(9.27499 0.01 -0.0481229)
(9.32501 0.01 -0.0482084)
(9.375 0.01 -0.0487639)
(9.425 0.01 -0.0491312)
(9.475 0.01 -0.0493781)
(9.525 0.01 -0.0496282)
(9.575 0.01 -0.049882)
(9.625 0.01 -0.0500993)
(9.675 0.01 -0.0503776)
(9.725 0.01 -0.0506249)
(9.775 0.01 -0.0508865)
(9.825 0.01 -0.0511264)
(9.875 0.01 -0.0513761)
(9.925 0.01 -0.0516198)
(9.975 0.01 -0.0518837)
(10.025 0.01 -0.0521319)
(10.075 0.01 -0.0523764)
(10.125 0.01 -0.0526218)
(10.175 0.01 -0.0528713)
(10.225 0.01 -0.0531277)
(10.275 0.01 -0.0532784)
(10.325 0.01 -0.0536219)
(10.375 0.01 -0.0538798)
(10.425 0.01 -0.0540667)
(10.475 0.01 -0.0544728)
(10.525 0.01 -0.0545042)
(10.575 0.01 -0.0544387)
(10.625 0.01 -0.0549498)
(10.675 0.01 -0.055379)
(10.725 0.01 -0.0556285)
(10.775 0.01 -0.0558765)
(10.825 0.01 -0.0561028)
(10.875 0.01 -0.0563815)
(10.925 0.01 -0.0566243)
(10.975 0.01 -0.0568741)
(11.025 0.01 -0.0571283)
(11.075 0.01 -0.0573881)
(11.125 0.01 -0.057618)
(11.175 0.01 -0.0578699)
(11.225 0.01 -0.0580687)
(11.275 0.01 -0.0583146)
(11.325 0.01 -0.0586379)
(11.375 0.01 -0.058873)
(11.425 0.01 -0.0591215)
(11.475 0.01 -0.0593819)
(11.525 0.01 -0.059638)
(11.575 0.01 -0.0598176)
(11.625 0.01 -0.0599667)
(11.675 0.01 -0.0602846)
(11.725 0.01 -0.0606249)
(11.775 0.01 -0.060881)
(11.825 0.01 -0.0611271)
(11.875 0.01 -0.0613721)
(11.925 0.01 -0.0616315)
(11.975 0.01 -0.0618864)
(12.025 0.01 -0.0621325)
(12.075 0.01 -0.0623798)
(12.125 0.01 -0.0626307)
(12.175 0.01 -0.0628833)
(12.225 0.01 -0.0631248)
(12.275 0.01 -0.0633772)
(12.325 0.01 -0.0636337)
(12.375 0.01 -0.0638881)
(12.425 0.01 -0.0641327)
(12.475 0.01 -0.0643821)
(12.525 0.01 -0.0646234)
(12.575 0.01 -0.0648681)
(12.625 0.01 -0.0651263)
(12.675 0.01 -0.0653733)
(12.725 0.01 -0.0656313)
(12.775 0.01 -0.0658778)
(12.825 0.01 -0.0661329)
(12.875 0.01 -0.0663607)
(12.925 0.01 -0.0666206)
(12.975 0.01 -0.0668802)
(13.025 0.01 -0.0671351)
(13.075 0.01 -0.067361)
(13.125 0.01 -0.0676296)
(13.175 0.01 -0.0678709)
(13.225 0.01 -0.0680119)
(13.275 0.01 -0.0683406)
(13.325 0.01 -0.0686365)
(13.375 0.01 -0.0688771)
(13.425 0.01 -0.0691223)
(13.475 0.01 -0.0693717)
(13.525 0.01 -0.0696288)
(13.575 0.01 -0.069884)
(13.625 0.01 -0.070125)
(13.675 0.01 -0.0703775)
(13.725 0.01 -0.0706367)
(13.775 0.01 -0.0708914)
(13.825 0.01 -0.0711276)
(13.875 0.01 -0.0712739)
(13.925 0.01 -0.0715779)
(13.975 0.01 -0.0718829)
(14.025 0.01 -0.0721216)
(14.075 0.01 -0.0723751)
(14.125 0.01 -0.0726273)
(14.175 0.01 -0.0728784)
(14.225 0.01 -0.0731322)
(14.275 0.01 -0.0733893)
(14.325 0.01 -0.0735365)
(14.375 0.01 -0.0736922)
(14.425 0.01 -0.0739124)
(14.475 0.01 -0.0741358)
(14.525 0.01 -0.0743742)
(14.575 0.01 -0.0746216)
(14.625 0.01 -0.07487)
(14.675 0.01 -0.0751071)
(14.725 0.01 -0.075327)
(14.775 0.01 -0.0749387)
(14.825 0.01 -0.0739289)
(14.875 0.01 -0.073542)
(14.925 0.01 -0.0737916)
(14.975 0.01 -0.0740417)
(0.025 0.01 0.002375)
(0.075 0.01 0.002125)
(0.125 0.01 0.001875)
(0.175 0.01 0.001625)
(0.225 0.01 0.001375)
(0.275 0.01 0.001125)
(0.325 0.01 0.000874998)
(0.375 0.01 0.000624998)
(0.425 0.01 0.000374999)
(0.475 0.01 0.000124999)
(0.525 0.01 -0.000124999)
(0.575 0.01 -0.000374998)
(0.625 0.01 -0.000624998)
(0.675 0.01 -0.000874998)
(0.725 0.01 -0.001125)
(0.775 0.01 -0.001375)
(0.825 0.01 -0.001625)
(0.875 0.01 -0.001875)
(0.925 0.01 -0.002125)
(0.975 0.01 -0.002375)
(1.025 0.01 -0.002625)
(1.075 0.01 -0.002875)
(1.125 0.01 -0.003125)
(1.175 0.01 -0.003375)
(1.225 0.01 -0.003625)
(1.275 0.01 -0.003875)
(1.325 0.01 -0.004125)
(1.375 0.01 -0.004375)
(1.425 0.01 -0.004625)
(1.475 0.01 -0.004875)
(1.525 0.01 -0.005125)
(1.575 0.01 -0.005375)
(1.625 0.01 -0.005625)
(1.675 0.01 -0.005875)
(1.725 0.01 -0.006125)
(1.775 0.01 -0.006375)
(1.825 0.01 -0.006625)
(1.875 0.01 -0.006875)
(1.925 0.01 -0.007125)
(1.975 0.01 -0.007375)
(2.025 0.01 -0.007625)
(2.075 0.01 -0.007875)
(2.125 0.01 -0.008125)
(2.175 0.01 -0.008375)
(2.225 0.01 -0.008625)
(2.275 0.01 -0.008875)
(2.325 0.01 -0.00912499)
(2.375 0.01 -0.00937499)
(2.425 0.01 -0.00962498)
(2.475 0.01 -0.00987498)
(2.525 0.01 -0.010125)
(2.575 0.01 -0.010375)
(2.625 0.01 -0.010625)
(2.675 0.01 -0.010875)
(2.725 0.01 -0.011125)
(2.775 0.01 -0.011375)
(2.825 0.01 -0.011625)
(2.875 0.01 -0.0118749)
(2.92499 0.01 -0.012126)
(2.97501 0.01 -0.0128988)
(3.02501 0.01 -0.0143091)
(3.07499 0.01 -0.0153696)
(3.125 0.01 -0.0158414)
(3.175 0.01 -0.0161478)
(3.225 0.01 -0.01641)
(3.275 0.01 -0.0166655)
(3.325 0.01 -0.0169147)
(3.375 0.01 -0.0171694)
(3.425 0.01 -0.0174168)
(3.475 0.01 -0.0176845)
(3.525 0.01 -0.017962)
(3.575 0.01 -0.0182156)
(3.625 0.01 -0.0184673)
(3.675 0.01 -0.0187152)
(3.725 0.01 -0.0189612)
(3.775 0.01 -0.0192164)
(3.825 0.01 -0.0194716)
(3.875 0.01 -0.0197104)
(3.925 0.01 -0.0199558)
(3.975 0.01 -0.0202012)
(4.025 0.01 -0.0204675)
(4.075 0.01 -0.0206693)
(4.12501 0.01 -0.0209666)
(4.17499 0.01 -0.0212229)
(4.225 0.01 -0.0213667)
(4.275 0.01 -0.0217083)
(4.325 0.01 -0.0219556)
(4.375 0.01 -0.0221441)
(4.42499 0.01 -0.0223301)
(4.47501 0.01 -0.022619)
(4.525 0.01 -0.0229672)
(4.575 0.01 -0.0232142)
(4.625 0.01 -0.0234577)
(4.675 0.01 -0.0236738)
(4.725 0.01 -0.0239539)
(4.775 0.01 -0.0242115)
(4.825 0.01 -0.0244523)
(4.875 0.01 -0.0247084)
(4.925 0.01 -0.0249735)
(4.975 0.01 -0.0252146)
(5.025 0.01 -0.0254449)
(5.07499 0.01 -0.0255938)
(5.12501 0.01 -0.025948)
(5.175 0.01 -0.0263298)
(5.22499 0.01 -0.0260761)
(5.27501 0.01 -0.0260645)
(5.325 0.01 -0.0267109)
(5.375 0.01 -0.0272008)
(5.425 0.01 -0.0274728)
(5.475 0.01 -0.0277228)
(5.525 0.01 -0.0279184)
(5.575 0.01 -0.028132)
(5.625 0.01 -0.0283371)
(5.675 0.01 -0.0285648)
(5.725 0.01 -0.028882)
(5.775 0.01 -0.0292085)
(5.825 0.01 -0.0294476)
(5.875 0.01 -0.029711)
(5.925 0.01 -0.0299591)
(5.975 0.01 -0.0301576)
(6.025 0.01 -0.0304736)
(6.07499 0.01 -0.0306145)
(6.125 0.01 -0.0306975)
(6.175 0.01 -0.031077)
(6.225 0.01 -0.0314743)
(6.275 0.01 -0.0317185)
(6.325 0.01 -0.0319545)
(6.375 0.01 -0.0322012)
(6.425 0.01 -0.0324227)
(6.475 0.01 -0.0327047)
(6.525 0.01 -0.0329735)
(6.575 0.01 -0.033169)
(6.62501 0.01 -0.0334882)
(6.67499 0.01 -0.0334868)
(6.725 0.01 -0.0334525)
(6.77501 0.01 -0.0339994)
(6.825 0.01 -0.0344677)
(6.875 0.01 -0.0347184)
(6.925 0.01 -0.0349617)
(6.975 0.01 -0.0352091)
(7.025 0.01 -0.035458)
(7.075 0.01 -0.0357013)
(7.125 0.01 -0.0359626)
(7.175 0.01 -0.0362057)
(7.225 0.01 -0.0363871)
(7.275 0.01 -0.0366601)
(7.325 0.01 -0.0369632)
(7.375 0.01 -0.037211)
(7.425 0.01 -0.0374711)
(7.475 0.01 -0.0377014)
(7.525 0.01 -0.0379583)
(7.575 0.01 -0.0381983)
(7.625 0.01 -0.0384125)
(7.675 0.01 -0.0386965)
(7.725 0.01 -0.038965)
(7.775 0.01 -0.0392033)
(7.825 0.01 -0.0394558)
(7.875 0.01 -0.0397024)
(7.925 0.01 -0.039957)
(7.975 0.01 -0.0402093)
(8.025 0.01 -0.0404574)
(8.075 0.01 -0.0407034)
(8.125 0.01 -0.0409541)
(8.175 0.01 -0.0412061)
(8.225 0.01 -0.0414643)
(8.275 0.01 -0.0417079)
(8.325 0.01 -0.041962)
(8.375 0.01 -0.0421848)
(8.425 0.01 -0.0424582)
(8.475 0.01 -0.0427048)
(8.525 0.01 -0.042959)
(8.575 0.01 -0.0432151)
(8.625 0.01 -0.0433574)
(8.675 0.01 -0.0435253)
(8.725 0.01 -0.0438545)
(8.775 0.01 -0.0442123)
(8.825 0.01 -0.0444577)
(8.875 0.01 -0.0447189)
(8.925 0.01 -0.0449556)
(8.975 0.01 -0.0452046)
(9.025 0.01 -0.0454622)
(9.075 0.01 -0.0457129)
(9.125 0.01 -0.0459277)
(9.175 0.01 -0.0462034)
(9.22501 0.01 -0.0465544)
(9.27499 0.01 -0.0464552)
(9.32501 0.01 -0.0465414)
(9.375 0.01 -0.0470954)
(9.425 0.01 -0.0474628)
(9.475 0.01 -0.04771)
(9.525 0.01 -0.0479601)
(9.575 0.01 -0.0482138)
(9.625 0.01 -0.0484313)
(9.675 0.01 -0.0487094)
(9.725 0.01 -0.0489568)
(9.775 0.01 -0.0492183)
(9.825 0.01 -0.0494582)
(9.875 0.01 -0.049708)
(9.925 0.01 -0.0499517)
(9.97501 0.01 -0.0502155)
(10.025 0.01 -0.0504637)
(10.075 0.01 -0.0507082)
(10.125 0.01 -0.0509536)
(10.175 0.01 -0.0512031)
(10.225 0.01 -0.0514593)
(10.275 0.01 -0.0516107)
(10.325 0.01 -0.0519536)
(10.375 0.01 -0.0522115)
(10.425 0.01 -0.0523991)
(10.475 0.01 -0.0528039)
(10.525 0.01 -0.052836)
(10.575 0.01 -0.0527719)
(10.625 0.01 -0.0532815)
(10.675 0.01 -0.0537105)
(10.725 0.01 -0.0539604)
(10.775 0.01 -0.0542083)
(10.825 0.01 -0.0544348)
(10.875 0.01 -0.0547133)
(10.925 0.01 -0.0549562)
(10.975 0.01 -0.055206)
(11.025 0.01 -0.0554602)
(11.075 0.01 -0.0557199)
(11.125 0.01 -0.05595)
(11.175 0.01 -0.0562016)
(11.225 0.01 -0.0564007)
(11.275 0.01 -0.0566466)
(11.325 0.01 -0.0569696)
(11.375 0.01 -0.0572049)
(11.425 0.01 -0.0574533)
(11.475 0.01 -0.0577137)
(11.525 0.01 -0.0579698)
(11.575 0.01 -0.0581495)
(11.625 0.01 -0.0582991)
(11.675 0.01 -0.0586166)
(11.725 0.01 -0.0589566)
(11.775 0.01 -0.0592129)
(11.825 0.01 -0.0594589)
(11.875 0.01 -0.059704)
(11.925 0.01 -0.0599634)
(11.975 0.01 -0.0602182)
(12.025 0.01 -0.0604643)
(12.075 0.01 -0.0607117)
(12.125 0.01 -0.0609625)
(12.175 0.01 -0.0612151)
(12.225 0.01 -0.0614567)
(12.275 0.01 -0.061709)
(12.325 0.01 -0.0619655)
(12.375 0.01 -0.0622199)
(12.425 0.01 -0.0624646)
(12.475 0.01 -0.0627139)
(12.525 0.01 -0.0629552)
(12.575 0.01 -0.0632)
(12.625 0.01 -0.0634581)
(12.675 0.01 -0.0637052)
(12.725 0.01 -0.0639631)
(12.775 0.01 -0.0642097)
(12.825 0.01 -0.0644647)
(12.875 0.01 -0.0646926)
(12.925 0.01 -0.0649524)
(12.975 0.01 -0.065212)
(13.025 0.01 -0.0654669)
(13.075 0.01 -0.0656929)
(13.125 0.01 -0.0659614)
(13.175 0.01 -0.0662025)
(13.225 0.01 -0.0663443)
(13.275 0.01 -0.0666724)
(13.325 0.01 -0.0669682)
(13.375 0.01 -0.067209)
(13.425 0.01 -0.0674542)
(13.475 0.01 -0.0677035)
(13.525 0.01 -0.0679607)
(13.575 0.01 -0.0682158)
(13.625 0.01 -0.0684568)
(13.675 0.01 -0.0687093)
(13.725 0.01 -0.0689685)
(13.775 0.01 -0.0692232)
(13.825 0.01 -0.0694593)
(13.875 0.01 -0.0696062)
(13.925 0.01 -0.0699098)
(13.975 0.01 -0.0702146)
(14.025 0.01 -0.0704534)
(14.075 0.01 -0.0707069)
(14.125 0.01 -0.0709591)
(14.175 0.01 -0.0712102)
(14.225 0.01 -0.071464)
(14.275 0.01 -0.0717208)
(14.325 0.01 -0.0718684)
(14.375 0.01 -0.0720241)
(14.425 0.01 -0.0722442)
(14.475 0.01 -0.0724677)
(14.525 0.01 -0.072706)
(14.575 0.01 -0.0729535)
(14.625 0.01 -0.0732019)
(14.675 0.01 -0.073439)
(14.725 0.01 -0.0736578)
(14.775 0.01 -0.0732697)
(14.825 0.01 -0.072263)
(14.875 0.01 -0.0718765)
(14.925 0.01 -0.0721249)
(14.975 0.01 -0.072375)
(0.025 0.01 0.00404167)
(0.075 0.01 0.00379166)
(0.125 0.01 0.00354166)
(0.175 0.01 0.00329167)
(0.225 0.01 0.00304167)
(0.275 0.01 0.00279167)
(0.325 0.01 0.00254167)
(0.375 0.01 0.00229167)
(0.425 0.01 0.00204166)
(0.475 0.01 0.00179167)
(0.525 0.01 0.00154167)
(0.575 0.01 0.00129167)
(0.625 0.01 0.00104167)
(0.675 0.01 0.000791667)
(0.725 0.01 0.000541667)
(0.775 0.01 0.000291666)
(0.825 0.01 4.16665e-05)
(0.875 0.01 -0.000208334)
(0.925 0.01 -0.000458335)
(0.975 0.01 -0.000708335)
(1.025 0.01 -0.000958335)
(1.075 0.01 -0.00120833)
(1.125 0.01 -0.00145833)
(1.175 0.01 -0.00170834)
(1.225 0.01 -0.00195833)
(1.275 0.01 -0.00220834)
(1.325 0.01 -0.00245834)
(1.375 0.01 -0.00270834)
(1.425 0.01 -0.00295833)
(1.475 0.01 -0.00320834)
(1.525 0.01 -0.00345834)
(1.575 0.01 -0.00370834)
(1.625 0.01 -0.00395833)
(1.675 0.01 -0.00420834)
(1.725 0.01 -0.00445833)
(1.775 0.01 -0.00470833)
(1.825 0.01 -0.00495834)
(1.875 0.01 -0.00520833)
(1.925 0.01 -0.00545833)
(1.975 0.01 -0.00570834)
(2.025 0.01 -0.00595833)
(2.075 0.01 -0.00620833)
(2.125 0.01 -0.00645834)
(2.175 0.01 -0.00670833)
(2.225 0.01 -0.00695834)
(2.275 0.01 -0.00720834)
(2.325 0.01 -0.00745833)
(2.375 0.01 -0.00770834)
(2.425 0.01 -0.00795833)
(2.475 0.01 -0.00820834)
(2.525 0.01 -0.00845833)
(2.575 0.01 -0.00870833)
(2.625 0.01 -0.00895834)
(2.675 0.01 -0.00920834)
(2.725 0.01 -0.00945835)
(2.775 0.01 -0.00970835)
(2.825 0.01 -0.00995836)
(2.875 0.01 -0.0102082)
(2.92499 0.01 -0.0104606)
(2.97502 0.01 -0.0112326)
(3.02502 0.01 -0.0126377)
(3.07499 0.01 -0.0136962)
(3.125 0.01 -0.0141691)
(3.175 0.01 -0.0144756)
(3.225 0.01 -0.014738)
(3.275 0.01 -0.0149934)
(3.325 0.01 -0.0152426)
(3.375 0.01 -0.0154973)
(3.425 0.01 -0.0157448)
(3.475 0.01 -0.0160125)
(3.525 0.01 -0.0162898)
(3.575 0.01 -0.0165435)
(3.625 0.01 -0.0167952)
(3.675 0.01 -0.0170432)
(3.725 0.01 -0.0172892)
(3.775 0.01 -0.0175443)
(3.825 0.01 -0.0177995)
(3.875 0.01 -0.0180384)
(3.925 0.01 -0.0182838)
(3.975 0.01 -0.0185293)
(4.025 0.01 -0.0187953)
(4.07499 0.01 -0.0189977)
(4.12501 0.01 -0.0192944)
(4.17499 0.01 -0.0195505)
(4.225 0.01 -0.0196955)
(4.27501 0.01 -0.020036)
(4.32499 0.01 -0.0202835)
(4.37501 0.01 -0.0204723)
(4.42499 0.01 -0.0206586)
(4.47501 0.01 -0.0209474)
(4.525 0.01 -0.0212948)
(4.575 0.01 -0.0215423)
(4.625 0.01 -0.0217856)
(4.675 0.01 -0.0220021)
(4.725 0.01 -0.0222818)
(4.775 0.01 -0.0225394)
(4.825 0.01 -0.0227803)
(4.875 0.01 -0.0230365)
(4.925 0.01 -0.0233015)
(4.975 0.01 -0.0235426)
(5.025 0.01 -0.0237726)
(5.07499 0.01 -0.0239226)
(5.12501 0.01 -0.0242762)
(5.175 0.01 -0.0246556)
(5.22498 0.01 -0.0244056)
(5.27501 0.01 -0.0243955)
(5.32501 0.01 -0.0250387)
(5.37499 0.01 -0.0255281)
(5.425 0.01 -0.0258008)
(5.475 0.01 -0.0260507)
(5.525 0.01 -0.0262466)
(5.575 0.01 -0.0264602)
(5.625 0.01 -0.0266654)
(5.675 0.01 -0.0268934)
(5.725 0.01 -0.0272102)
(5.775 0.01 -0.0275363)
(5.825 0.01 -0.0277757)
(5.875 0.01 -0.0280389)
(5.925 0.01 -0.0282869)
(5.975 0.01 -0.0284861)
(6.02501 0.01 -0.0288011)
(6.07499 0.01 -0.0289425)
(6.125 0.01 -0.0290269)
(6.17501 0.01 -0.0294053)
(6.225 0.01 -0.0298019)
(6.275 0.01 -0.0300465)
(6.325 0.01 -0.0302826)
(6.375 0.01 -0.0305291)
(6.425 0.01 -0.0307509)
(6.475 0.01 -0.0310327)
(6.525 0.01 -0.0313012)
(6.575 0.01 -0.0314975)
(6.62501 0.01 -0.0318152)
(6.67498 0.01 -0.031815)
(6.72501 0.01 -0.0317831)
(6.77501 0.01 -0.0323274)
(6.82499 0.01 -0.032795)
(6.875 0.01 -0.0330465)
(6.925 0.01 -0.0332897)
(6.975 0.01 -0.0335371)
(7.025 0.01 -0.033786)
(7.075 0.01 -0.0340294)
(7.125 0.01 -0.0342905)
(7.175 0.01 -0.0345335)
(7.225 0.01 -0.0347155)
(7.27501 0.01 -0.0349883)
(7.325 0.01 -0.035291)
(7.375 0.01 -0.035539)
(7.425 0.01 -0.035799)
(7.475 0.01 -0.0360295)
(7.525 0.01 -0.0362862)
(7.575 0.01 -0.0365263)
(7.625 0.01 -0.0367408)
(7.675 0.01 -0.0370245)
(7.725 0.01 -0.0372929)
(7.775 0.01 -0.0375314)
(7.825 0.01 -0.0377837)
(7.875 0.01 -0.0380304)
(7.925 0.01 -0.038285)
(7.975 0.01 -0.0385373)
(8.025 0.01 -0.0387854)
(8.075 0.01 -0.0390314)
(8.125 0.01 -0.0392821)
(8.175 0.01 -0.0395341)
(8.225 0.01 -0.0397922)
(8.275 0.01 -0.0400359)
(8.325 0.01 -0.0402899)
(8.375 0.01 -0.040513)
(8.425 0.01 -0.0407861)
(8.47499 0.01 -0.0410328)
(8.52501 0.01 -0.041287)
(8.575 0.01 -0.0415428)
(8.625 0.01 -0.0416857)
(8.675 0.01 -0.0418541)
(8.72501 0.01 -0.0421827)
(8.775 0.01 -0.0425399)
(8.825 0.01 -0.0427858)
(8.875 0.01 -0.0430468)
(8.925 0.01 -0.0432837)
(8.975 0.01 -0.0435327)
(9.025 0.01 -0.0437902)
(9.075 0.01 -0.0440408)
(9.125 0.01 -0.044256)
(9.175 0.01 -0.0445317)
(9.22501 0.01 -0.0448808)
(9.27498 0.01 -0.0447842)
(9.32502 0.01 -0.0448714)
(9.375 0.01 -0.0454229)
(9.425 0.01 -0.0457905)
(9.475 0.01 -0.046038)
(9.525 0.01 -0.0462881)
(9.575 0.01 -0.0465416)
(9.625 0.01 -0.0467595)
(9.675 0.01 -0.0470373)
(9.725 0.01 -0.0472848)
(9.77501 0.01 -0.0475462)
(9.82499 0.01 -0.0477862)
(9.87501 0.01 -0.0480359)
(9.92499 0.01 -0.0482797)
(9.97501 0.01 -0.0485434)
(10.025 0.01 -0.0487917)
(10.075 0.01 -0.0490362)
(10.125 0.01 -0.0492816)
(10.175 0.01 -0.0495312)
(10.225 0.01 -0.0497869)
(10.275 0.01 -0.0499395)
(10.325 0.01 -0.0502813)
(10.375 0.01 -0.0505392)
(10.425 0.01 -0.050728)
(10.475 0.01 -0.0511306)
(10.525 0.01 -0.0511639)
(10.575 0.01 -0.0511024)
(10.625 0.01 -0.0516094)
(10.675 0.01 -0.0520379)
(10.725 0.01 -0.0522884)
(10.775 0.01 -0.0525362)
(10.825 0.01 -0.052763)
(10.875 0.01 -0.0530411)
(10.925 0.01 -0.0532842)
(10.975 0.01 -0.053534)
(11.025 0.01 -0.0537883)
(11.075 0.01 -0.0540478)
(11.125 0.01 -0.054278)
(11.175 0.01 -0.0545295)
(11.225 0.01 -0.0547289)
(11.275 0.01 -0.0549749)
(11.325 0.01 -0.0552972)
(11.375 0.01 -0.0555329)
(11.425 0.01 -0.0557813)
(11.475 0.01 -0.0560417)
(11.525 0.01 -0.0562976)
(11.575 0.01 -0.0564775)
(11.625 0.01 -0.0566279)
(11.675 0.01 -0.0569448)
(11.725 0.01 -0.0572843)
(11.775 0.01 -0.0575408)
(11.825 0.01 -0.0577868)
(11.875 0.01 -0.058032)
(11.925 0.01 -0.0582913)
(11.975 0.01 -0.0585462)
(12.025 0.01 -0.0587923)
(12.075 0.01 -0.0590397)
(12.125 0.01 -0.0592905)
(12.175 0.01 -0.059543)
(12.225 0.01 -0.0597847)
(12.275 0.01 -0.060037)
(12.325 0.01 -0.0602935)
(12.375 0.01 -0.0605478)
(12.425 0.01 -0.0607925)
(12.475 0.01 -0.0610418)
(12.525 0.01 -0.0612832)
(12.575 0.01 -0.061528)
(12.625 0.01 -0.0617861)
(12.675 0.01 -0.0620332)
(12.725 0.01 -0.062291)
(12.775 0.01 -0.0625376)
(12.825 0.01 -0.0627925)
(12.875 0.01 -0.0630207)
(12.925 0.01 -0.0632804)
(12.975 0.01 -0.06354)
(13.025 0.01 -0.0637947)
(13.075 0.01 -0.064021)
(13.125 0.01 -0.0642894)
(13.175 0.01 -0.0645302)
(13.225 0.01 -0.064673)
(13.275 0.01 -0.0650003)
(13.325 0.01 -0.065296)
(13.375 0.01 -0.0655369)
(13.425 0.01 -0.0657821)
(13.475 0.01 -0.0660315)
(13.525 0.01 -0.0662886)
(13.575 0.01 -0.0665437)
(13.625 0.01 -0.0667848)
(13.675 0.01 -0.0670372)
(13.725 0.01 -0.0672964)
(13.775 0.01 -0.0675511)
(13.825 0.01 -0.0677869)
(13.875 0.01 -0.0679348)
(13.925 0.01 -0.0682378)
(13.975 0.01 -0.0685422)
(14.025 0.01 -0.0687814)
(14.075 0.01 -0.0690347)
(14.125 0.01 -0.0692869)
(14.175 0.01 -0.0695381)
(14.225 0.01 -0.0697919)
(14.275 0.01 -0.0700483)
(14.325 0.01 -0.0701964)
(14.375 0.01 -0.0703525)
(14.425 0.01 -0.0705724)
(14.475 0.01 -0.070796)
(14.525 0.01 -0.0710343)
(14.575 0.01 -0.0712817)
(14.625 0.01 -0.0715301)
(14.675 0.01 -0.0717674)
(14.725 0.01 -0.0719844)
(14.775 0.01 -0.0715973)
(14.825 0.01 -0.0705969)
(14.875 0.01 -0.0702115)
(14.925 0.01 -0.0704581)
(14.975 0.01 -0.0707084)
(0.025 0.01 0.00570834)
(0.075 0.01 0.00545833)
(0.125 0.01 0.00520834)
(0.175 0.01 0.00495833)
(0.225 0.01 0.00470834)
(0.275 0.01 0.00445833)
(0.325 0.01 0.00420834)
(0.375 0.01 0.00395834)
(0.425 0.01 0.00370833)
(0.475 0.01 0.00345833)
(0.525 0.01 0.00320833)
(0.575 0.01 0.00295833)
(0.625 0.01 0.00270834)
(0.675 0.01 0.00245833)
(0.725 0.01 0.00220834)
(0.775 0.01 0.00195833)
(0.825 0.01 0.00170833)
(0.875 0.01 0.00145833)
(0.925 0.01 0.00120833)
(0.975 0.01 0.000958335)
(1.025 0.01 0.000708335)
(1.075 0.01 0.000458335)
(1.125 0.01 0.000208334)
(1.175 0.01 -4.16665e-05)
(1.225 0.01 -0.000291666)
(1.275 0.01 -0.000541667)
(1.325 0.01 -0.000791667)
(1.375 0.01 -0.00104167)
(1.425 0.01 -0.00129167)
(1.475 0.01 -0.00154167)
(1.525 0.01 -0.00179167)
(1.575 0.01 -0.00204167)
(1.625 0.01 -0.00229167)
(1.675 0.01 -0.00254167)
(1.725 0.01 -0.00279166)
(1.775 0.01 -0.00304166)
(1.825 0.01 -0.00329167)
(1.875 0.01 -0.00354167)
(1.925 0.01 -0.00379166)
(1.975 0.01 -0.00404167)
(2.025 0.01 -0.00429167)
(2.075 0.01 -0.00454167)
(2.125 0.01 -0.00479167)
(2.175 0.01 -0.00504166)
(2.225 0.01 -0.00529167)
(2.275 0.01 -0.00554166)
(2.325 0.01 -0.00579167)
(2.375 0.01 -0.00604166)
(2.425 0.01 -0.00629166)
(2.475 0.01 -0.00654167)
(2.525 0.01 -0.00679167)
(2.575 0.01 -0.00704166)
(2.625 0.01 -0.00729167)
(2.675 0.01 -0.00754166)
(2.725 0.01 -0.00779167)
(2.775 0.01 -0.00804166)
(2.825 0.01 -0.00829169)
(2.875 0.01 -0.00854135)
(2.92499 0.01 -0.00879549)
(2.97502 0.01 -0.00956557)
(3.02503 0.01 -0.010962)
(3.075 0.01 -0.0120166)
(3.125 0.01 -0.0124905)
(3.175 0.01 -0.0127971)
(3.225 0.01 -0.0130596)
(3.275 0.01 -0.0133149)
(3.325 0.01 -0.0135642)
(3.375 0.01 -0.0138188)
(3.425 0.01 -0.0140664)
(3.475 0.01 -0.0143341)
(3.525 0.01 -0.0146112)
(3.575 0.01 -0.0148649)
(3.625 0.01 -0.0151167)
(3.675 0.01 -0.0153646)
(3.725 0.01 -0.0156106)
(3.775 0.01 -0.0158658)
(3.825 0.01 -0.0161208)
(3.875 0.01 -0.0163599)
(3.925 0.01 -0.0166053)
(3.975 0.01 -0.0168509)
(4.025 0.01 -0.0171164)
(4.07499 0.01 -0.0173197)
(4.12501 0.01 -0.0176157)
(4.17499 0.01 -0.0178714)
(4.225 0.01 -0.0180181)
(4.27501 0.01 -0.0183571)
(4.32499 0.01 -0.0186048)
(4.37501 0.01 -0.018794)
(4.42499 0.01 -0.018981)
(4.47501 0.01 -0.0192694)
(4.52499 0.01 -0.0196158)
(4.575 0.01 -0.0198637)
(4.625 0.01 -0.0201069)
(4.675 0.01 -0.020324)
(4.725 0.01 -0.0206033)
(4.775 0.01 -0.0208608)
(4.825 0.01 -0.0211019)
(4.875 0.01 -0.021358)
(4.925 0.01 -0.0216228)
(4.975 0.01 -0.0218641)
(5.02501 0.01 -0.0220938)
(5.07499 0.01 -0.0222452)
(5.12502 0.01 -0.0225979)
(5.175 0.01 -0.0229742)
(5.22497 0.01 -0.0227295)
(5.27502 0.01 -0.0227218)
(5.32501 0.01 -0.0233603)
(5.37499 0.01 -0.0238489)
(5.425 0.01 -0.0241223)
(5.475 0.01 -0.0243719)
(5.525 0.01 -0.0245683)
(5.575 0.01 -0.0247819)
(5.625 0.01 -0.0249874)
(5.675 0.01 -0.0252157)
(5.725 0.01 -0.025532)
(5.775 0.01 -0.0258574)
(5.825 0.01 -0.0260973)
(5.87501 0.01 -0.0263603)
(5.92499 0.01 -0.0266081)
(5.975 0.01 -0.0268083)
(6.02501 0.01 -0.0271218)
(6.07499 0.01 -0.0272641)
(6.125 0.01 -0.0273505)
(6.17501 0.01 -0.0277273)
(6.225 0.01 -0.0281227)
(6.275 0.01 -0.0283679)
(6.325 0.01 -0.0286041)
(6.375 0.01 -0.0288505)
(6.425 0.01 -0.0290728)
(6.475 0.01 -0.0293542)
(6.525 0.01 -0.0296224)
(6.575 0.01 -0.0298198)
(6.62502 0.01 -0.0301353)
(6.67497 0.01 -0.0301371)
(6.72501 0.01 -0.0301087)
(6.77501 0.01 -0.0306493)
(6.82499 0.01 -0.0311156)
(6.875 0.01 -0.0313679)
(6.925 0.01 -0.0316111)
(6.975 0.01 -0.0318586)
(7.025 0.01 -0.0321075)
(7.075 0.01 -0.032351)
(7.125 0.01 -0.032612)
(7.175 0.01 -0.0328548)
(7.22499 0.01 -0.0330375)
(7.27501 0.01 -0.0333099)
(7.32499 0.01 -0.0336122)
(7.375 0.01 -0.0338606)
(7.425 0.01 -0.0341204)
(7.475 0.01 -0.0343512)
(7.525 0.01 -0.0346076)
(7.575 0.01 -0.0348477)
(7.625 0.01 -0.0350628)
(7.675 0.01 -0.035346)
(7.725 0.01 -0.0356143)
(7.775 0.01 -0.0358529)
(7.825 0.01 -0.0361052)
(7.875 0.01 -0.0363519)
(7.925 0.01 -0.0366065)
(7.975 0.01 -0.0368588)
(8.025 0.01 -0.0371069)
(8.075 0.01 -0.037353)
(8.125 0.01 -0.0376036)
(8.175 0.01 -0.0378556)
(8.225 0.01 -0.0381136)
(8.275 0.01 -0.0383575)
(8.325 0.01 -0.0386112)
(8.375 0.01 -0.0388348)
(8.42501 0.01 -0.0391075)
(8.47499 0.01 -0.0393544)
(8.52501 0.01 -0.0396085)
(8.575 0.01 -0.0398638)
(8.625 0.01 -0.0400077)
(8.675 0.01 -0.0401768)
(8.72501 0.01 -0.0405046)
(8.775 0.01 -0.0408609)
(8.825 0.01 -0.0411074)
(8.875 0.01 -0.0413681)
(8.925 0.01 -0.0416053)
(8.975 0.01 -0.0418543)
(9.025 0.01 -0.0421117)
(9.075 0.01 -0.0423621)
(9.12499 0.01 -0.0425777)
(9.17501 0.01 -0.0428536)
(9.22501 0.01 -0.0432002)
(9.27497 0.01 -0.0431074)
(9.32502 0.01 -0.0431963)
(9.375 0.01 -0.0437439)
(9.425 0.01 -0.0441116)
(9.475 0.01 -0.0443594)
(9.525 0.01 -0.0446096)
(9.575 0.01 -0.0448629)
(9.625 0.01 -0.0450813)
(9.675 0.01 -0.0453586)
(9.72499 0.01 -0.0456064)
(9.77501 0.01 -0.0458675)
(9.82499 0.01 -0.0461077)
(9.87501 0.01 -0.0463574)
(9.92499 0.01 -0.0466013)
(9.97501 0.01 -0.0468648)
(10.025 0.01 -0.0471131)
(10.075 0.01 -0.0473577)
(10.125 0.01 -0.047603)
(10.175 0.01 -0.0478527)
(10.225 0.01 -0.0481078)
(10.275 0.01 -0.0482621)
(10.325 0.01 -0.0486024)
(10.375 0.01 -0.0488603)
(10.425 0.01 -0.0490506)
(10.475 0.01 -0.0494503)
(10.525 0.01 -0.0494855)
(10.575 0.01 -0.0494277)
(10.625 0.01 -0.0499311)
(10.675 0.01 -0.0503586)
(10.725 0.01 -0.0506099)
(10.775 0.01 -0.0508575)
(10.825 0.01 -0.0510848)
(10.875 0.01 -0.0513624)
(10.925 0.01 -0.0516057)
(10.975 0.01 -0.0518555)
(11.025 0.01 -0.0521098)
(11.075 0.01 -0.0523691)
(11.125 0.01 -0.0525996)
(11.175 0.01 -0.0528507)
(11.225 0.01 -0.0530507)
(11.275 0.01 -0.0532969)
(11.325 0.01 -0.0536183)
(11.375 0.01 -0.0538544)
(11.425 0.01 -0.0541029)
(11.475 0.01 -0.0543632)
(11.525 0.01 -0.0546187)
(11.575 0.01 -0.054799)
(11.625 0.01 -0.0549505)
(11.675 0.01 -0.0552666)
(11.725 0.01 -0.0556054)
(11.775 0.01 -0.0558622)
(11.825 0.01 -0.0561082)
(11.875 0.01 -0.0563535)
(11.925 0.01 -0.0566127)
(11.975 0.01 -0.0568675)
(12.025 0.01 -0.0571137)
(12.075 0.01 -0.0573611)
(12.125 0.01 -0.0576119)
(12.175 0.01 -0.0578643)
(12.225 0.01 -0.0581061)
(12.275 0.01 -0.0583584)
(12.325 0.01 -0.0586148)
(12.375 0.01 -0.0588691)
(12.425 0.01 -0.0591139)
(12.475 0.01 -0.0593632)
(12.525 0.01 -0.0596046)
(12.575 0.01 -0.0598495)
(12.625 0.01 -0.0601074)
(12.675 0.01 -0.0603547)
(12.725 0.01 -0.0606123)
(12.775 0.01 -0.060859)
(12.825 0.01 -0.0611138)
(12.875 0.01 -0.0613423)
(12.925 0.01 -0.0616018)
(12.975 0.01 -0.0618613)
(13.025 0.01 -0.0621159)
(13.075 0.01 -0.0623426)
(13.125 0.01 -0.0626107)
(13.175 0.01 -0.0628512)
(13.225 0.01 -0.0629956)
(13.275 0.01 -0.0633216)
(13.325 0.01 -0.063617)
(13.375 0.01 -0.0638583)
(13.425 0.01 -0.0641035)
(13.475 0.01 -0.064353)
(13.525 0.01 -0.06461)
(13.575 0.01 -0.0648649)
(13.625 0.01 -0.0651061)
(13.675 0.01 -0.0653586)
(13.725 0.01 -0.0656177)
(13.775 0.01 -0.0658723)
(13.825 0.01 -0.0661079)
(13.875 0.01 -0.0662571)
(13.925 0.01 -0.0665593)
(13.975 0.01 -0.0668633)
(14.025 0.01 -0.0671028)
(14.075 0.01 -0.067356)
(14.125 0.01 -0.0676082)
(14.175 0.01 -0.0678594)
(14.225 0.01 -0.0681132)
(14.275 0.01 -0.0683691)
(14.325 0.01 -0.068518)
(14.375 0.01 -0.0686747)