/*--------------------------------*- C++ -*----------------------------------*\
| =========                 |                                                 |
| \\      /  F ield         | foam-extend: Open Source CFD                    |
|  \\    /   O peration     | Version:     3.2                                |
|   \\  /    A nd           | Web:         http://www.foam-extend.org         |
|    \\/     M anipulation  | For copyright notice see file Copyright         |
\*---------------------------------------------------------------------------*/
FoamFile
{
    version     2.0;
    format      ascii;
    class       surfaceScalarField;
    location    "50";
    object      meshPhi;
}
// * * * * * * * * * * * * * * * * * * * * * * * * * * * * * * * * * * * * * //

dimensions      [0 3 -1 0 0 0 0];

internalField   nonuniform List<scalar> 
10482
(
0
0
0
0
0
0
0
0
0
0
0
0
0
0
0
0
0
0
0
0
0
0
0
0
0
0
0
0
0
0
0
0
0
0
0
0
0
0
0
0
0
0
0
0
0
0
0
0
0
0
0
0
0
0
0
0
0
0
0
0
0
0
0
0
0
0
0
0
0
0
0
0
0
0
0
0
0
0
0
0
0
0
0
0
0
0
0
-1.73472e-19
0
1.15648e-19
0
0
0
-9.25186e-19
0
5.72459e-18
0
-2.50957e-17
4.93442e-19
1.00094e-16
-4.93442e-19
-4.0253e-16
0
1.63629e-15
-4.93442e-19
-6.17365e-15
4.93442e-19
1.77704e-14
0
-1.33173e-14
-4.93442e-19
-2.41498e-13
-4.9344e-19
1.77131e-12
4.93467e-19
-9.18226e-12
0
1.00732e-10
0
1.25476e-07
-4.94019e-19
3.8639e-07
0
5.34311e-07
5.55738e-25
5.4872e-07
-5.15029e-25
5.51326e-07
0
5.51839e-07
5.54337e-25
5.51872e-07
4.93531e-19
5.51859e-07
-4.93546e-19
5.51362e-07
4.93502e-19
2.71035e-07
4.93548e-19
1.488e-07
-4.93514e-19
5.1332e-07
-4.93524e-19
5.00478e-07
-4.9352e-19
2.85112e-07
-3.95176e-25
2.86233e-07
1.30885e-25
2.94494e-07
-4.93511e-19
3.0935e-07
4.93503e-19
8.90007e-08
4.9349e-19
-8.44443e-07
0
-1.35314e-06
-4.93463e-19
-4.40383e-07
-9.87201e-19
7.06777e-08
0
9.32692e-08
-1.97484e-18
7.27879e-07
-9.86744e-19
9.95687e-07
0
7.37465e-07
0
7.41373e-07
0
2.09293e-07
0
-1.47485e-06
-9.866e-19
-1.7371e-06
0
2.24966e-07
0
1.24325e-06
-9.87108e-19
8.78574e-07
-9.86914e-19
9.53052e-07
0
9.35707e-07
0
-2.36489e-08
9.8691e-19
-8.84333e-07
0
-3.80694e-07
0
6.29745e-07
0
3.62507e-07
1.07531e-23
-8.40682e-07
9.87231e-19
-1.43257e-06
-9.86437e-19
-7.74223e-07
9.87513e-19
3.04383e-07
-9.87585e-19
7.10903e-07
9.8606e-19
1.61018e-07
0
-8.69862e-07
-1.04612e-23
-1.19425e-06
-9.47228e-24
-1.9336e-07
0
8.7195e-07
0
5.06625e-07
-1.91553e-23
-1.04099e-06
-8.72946e-24
-1.82567e-06
0
-1.11518e-06
-1.32586e-24
-1.67227e-07
-9.87019e-19
4.62254e-07
0
1.77547e-07
2.64398e-24
-1.32292e-07
9.87207e-19
1.72033e-07
-1.97384e-18
-2.54445e-07
-1.09458e-23
-2.37616e-07
0
1.23937e-07
-2.88077e-23
-1.07093e-06
1.97359e-18
-1.40877e-06
-1.7424e-23
2.40369e-07
0
1.1851e-06
-9.86924e-19
8.48554e-07
-9.87097e-19
-5.66764e-07
9.87013e-19
-1.72603e-06
0
-1.28912e-06
0
-5.51466e-07
-9.87005e-19
-2.31338e-07
9.86722e-19
3.473e-07
-9.87815e-19
6.23686e-07
-9.86291e-19
-7.76726e-07
-9.86806e-19
-1.32825e-06
0
2.61706e-07
0
1.01126e-06
3.21383e-24
5.87307e-07
0
3.65539e-07
0
1.1578e-07
0
-4.72872e-07
-1.81986e-25
-5.55645e-07
4.42215e-24
2.62738e-08
-1.36547e-23
9.61003e-07
1.97343e-18
1.42661e-06
-9.87219e-19
5.06482e-07
-9.86886e-19
-1.07079e-07
-9.87114e-19
3.43633e-07
9.86976e-19
6.55952e-07
0
2.59995e-07
1.9741e-18
-8.10902e-07
9.86992e-19
-1.40193e-06
-8.47768e-24
-5.6976e-07
9.87138e-19
4.44929e-07
9.86903e-19
-1.00407e-07
0
-1.30426e-06
-1.9739e-18
-1.19614e-06
9.87058e-19
2.59806e-08
9.86958e-19
8.11494e-07
9.87065e-19
3.58327e-07
0
-8.53176e-07
0
-1.6284e-06
0
-1.10885e-06
0
1.60942e-07
0
8.69901e-07
-1.97398e-18
4.34126e-07
0
-2.83389e-07
0
-2.44259e-07
0
-1.90476e-07
1.97358e-18
-1.21898e-07
1.97446e-18
3.43592e-07
-3.7128e-23
2.74093e-07
1.97389e-18
8.02433e-07
1.97353e-18
1.45699e-06
0
6.01817e-07
1.974e-18
1.42138e-08
0
4.17297e-07
0
4.35865e-07
0
-5.17513e-07
0
-6.41402e-07
0
7.07322e-07
1.97421e-18
8.20368e-07
0
-5.28201e-07
0
-6.75478e-07
0
3.94021e-07
0
3.22538e-07
0
-6.85251e-07
1.97423e-18
-4.84892e-07
1.97417e-18
4.54128e-07
0
5.83694e-07
0
1.57504e-07
0
-2.58465e-07
-1.97385e-18
-2.31557e-07
0
-1.03689e-07
1.97363e-18
7.74072e-09
3.94893e-18
5.10144e-07
1.97356e-18
7.41746e-07
0
6.91313e-07
-3.94698e-18
4.40327e-07
0
1.46781e-07
3.94682e-18
2.94749e-08
-3.94941e-18
-7.5857e-07
1.84336e-23
-1.29099e-06
0
-4.77861e-07
0
-3.33657e-07
1.97356e-18
-1.14933e-06
1.53289e-23
-9.48129e-07
-3.94695e-18
-3.41793e-07
0
-1.76622e-07
0
-6.02358e-07
1.97276e-18
-1.24561e-06
0
-4.45593e-07
3.95038e-18
8.08433e-07
0
9.25331e-07
0
3.49071e-07
-1.97361e-18
-2.804e-07
0
-4.3198e-08
-1.97394e-18
3.79398e-07
-5.17555e-23
-5.44575e-07
0
-8.33251e-07
-1.97402e-18
6.60817e-08
-1.97406e-18
-5.01754e-07
2.81957e-23
-1.46856e-06
-1.28617e-24
-7.5281e-07
-3.32501e-23
8.4153e-07
1.97426e-18
1.46186e-06
1.97412e-18
5.42637e-07
4.02326e-23
-7.95193e-07
-4.18709e-24
-8.20116e-07
1.9739e-18
4.98171e-07
-2.22408e-23
1.19897e-06
0
4.85521e-07
0
-7.85733e-07
-1.97421e-18
-5.81829e-07
0
5.83306e-07
1.97404e-18
4.25703e-07
0
-4.8812e-07
1.97401e-18
-4.27686e-07
-1.9741e-18
4.29764e-07
7.86436e-24
6.08834e-07
-1.85649e-24
3.81269e-07
0
3.79964e-07
0
5.20014e-07
-1.97402e-18
6.88906e-07
-1.974e-18
4.45843e-07
5.17999e-24
1.39855e-07
1.974e-18
2.54616e-07
1.97407e-18
4.00419e-07
1.97395e-18
1.41425e-07
-3.94827e-18
-7.82649e-07
-1.9739e-18
-1.23504e-06
2.98326e-23
-3.75125e-07
0
4.62511e-08
-4.47054e-25
4.06797e-08
-1.97409e-18
5.59906e-07
-5.60254e-24
7.48211e-07
-1.97422e-18
2.94856e-07
4.87457e-23
-7.69403e-07
3.9487e-18
-8.15352e-07
-1.97372e-18
2.6461e-07
0
9.90825e-08
0
-2.53684e-07
0
6.74925e-08
2.1827e-23
7.51352e-07
1.9736e-18
1.31601e-06
2.48182e-23
5.17731e-07
0
-3.70592e-07
0
-9.21895e-07
1.9737e-18
-1.36048e-06
1.9743e-18
-3.73172e-07
-1.85692e-23
8.36338e-07
1.97437e-18
7.2414e-07
-2.27639e-24
3.75162e-07
-3.91556e-25
3.66354e-07
0
3.67972e-07
-1.97441e-18
5.25083e-08
-3.92834e-23
-8.77788e-07
-3.94704e-18
-9.70011e-07
1.97454e-18
1.5139e-07
1.97379e-18
2.3644e-07
1.8755e-24
-7.43418e-08
-1.97385e-18
4.56715e-07
7.02059e-24
5.85738e-07
-1.97388e-18
3.91729e-07
-7.09191e-24
5.30633e-07
-1.97429e-18
6.96633e-07
0
6.37837e-07
-1.97409e-18
2.78432e-07
-1.13748e-23
-2.65325e-07
0
-5.39265e-07
1.97414e-18
-5.36508e-07
-1.89428e-24
-5.30629e-07
-1.97419e-18
-5.28382e-07
-1.97395e-18
-5.27876e-07
-1.97617e-18
-5.22239e-07
1.97428e-18
-3.8494e-07
-3.94376e-18
-1.2666e-07
-1.97391e-18
-1.21266e-10
8.00901e-26
-5.89992e-13
-3.3815e-12
0
0
0
0
0
0
0
0
0
0
0
0
0
0
0
0
0
0
0
0
0
0
0
0
0
0
0
0
0
0
0
0
0
0
0
0
0
0
0
0
0
0
0
0
0
0
0
0
0
0
0
0
0
0
0
0
0
0
0
0
0
0
0
0
0
0
0
0
0
0
0
0
0
0
0
0
0
0
0
0
0
0
0
0
-5.13581e-34
5.78241e-20
0
-2.89121e-19
0
4.91505e-19
4.9343e-19
-5.78241e-19
0
-1.6769e-18
0
8.55797e-18
4.93422e-19
-1.4456e-18
4.93422e-19
-2.05606e-16
0
1.60635e-15
-7.18259e-29
-8.15777e-15
-4.93422e-19
3.26453e-14
-4.93413e-19
-1.10343e-13
4.93413e-19
3.24667e-13
6.26186e-27
-7.81985e-13
4.54772e-27
1.48182e-12
0
-1.50256e-11
4.92738e-19
2.92252e-10
0
1.25306e-07
4.9495e-19
3.85296e-07
-2.02608e-24
5.33243e-07
2.16455e-24
5.48012e-07
-4.94251e-19
5.50595e-07
4.94266e-19
5.51112e-07
4.94258e-19
5.5114e-07
-1.93522e-24
5.51162e-07
9.88558e-19
5.5005e-07
4.94195e-19
2.71188e-07
0
1.49724e-07
-9.88475e-19
5.11658e-07
9.88509e-19
4.99372e-07
4.9425e-19
2.85143e-07
-4.94244e-19
2.85947e-07
-2.50235e-24
2.94096e-07
4.62376e-24
3.08146e-07
9.88489e-19
8.73603e-08
0
-8.42082e-07
0
-1.3483e-06
0
-4.41266e-07
9.88838e-19
6.94842e-08
0
9.45775e-08
0
7.2558e-07
0
9.93026e-07
9.88166e-19
7.37345e-07
9.89044e-19
7.39249e-07
0
2.06546e-07
0
-1.46913e-06
-9.87616e-19
-1.73012e-06
0
2.21351e-07
0
1.23856e-06
-1.97739e-18
8.79141e-07
0
9.51452e-07
0
9.3214e-07
9.88634e-19
-2.30206e-08
0
-8.79871e-07
0
-3.79442e-07
-9.88337e-19
6.25683e-07
-9.88656e-19
3.602e-07
0
-8.37648e-07
-9.88947e-19
-1.42771e-06
0
-7.72818e-07
-9.89509e-19
3.01831e-07
9.89538e-19
7.07626e-07
-6.03698e-24
1.59998e-07
0
-8.66718e-07
9.89218e-19
-1.18989e-06
0
-1.93509e-07
0
8.67427e-07
-9.8847e-19
5.03583e-07
-9.88343e-19
-1.03727e-06
9.88528e-19
-1.81976e-06
-9.88163e-19
-1.11389e-06
-3.67256e-24
-1.68041e-07
0
4.59756e-07
9.88712e-19
1.77644e-07
6.41182e-24
-1.30549e-07
-1.74274e-23
1.7002e-07
-9.88258e-19
-2.52875e-07
-2.55256e-23
-2.36729e-07
9.89252e-19
1.19731e-07
9.87735e-19
-1.0672e-06
-9.87989e-19
-1.4026e-06
0
2.3726e-07
-9.88603e-19
1.1805e-06
0
8.45735e-07
-9.88638e-19
-5.64673e-07
0
-1.72025e-06
9.88268e-19
-1.28754e-06
0
-5.51848e-07
9.88477e-19
-2.30343e-07
-9.8789e-19
3.4596e-07
-3.17332e-23
6.18682e-07
0
-7.73573e-07
-9.87854e-19
-1.32202e-06
9.89294e-19
2.58249e-07
2.97226e-24
1.00729e-06
9.88608e-19
5.87411e-07
1.97667e-18
3.64994e-07
9.88603e-19
1.15092e-07
-1.97675e-18
-4.70963e-07
-9.88511e-19
-5.53701e-07
5.16411e-24
2.68325e-08
0
9.58502e-07
9.8792e-19
1.42175e-06
-9.88928e-19
5.07406e-07
-9.88231e-19
-1.04365e-07
-1.29998e-23
3.42402e-07
-1.97678e-18
6.53617e-07
0
2.58668e-07
-9.88577e-19
-8.0832e-07
1.9769e-18
-1.39705e-06
0
-5.69187e-07
-9.88768e-19
4.40708e-07
1.97652e-18
-1.01208e-07
-1.97734e-18
-1.29933e-06
-1.97669e-18
-1.1926e-06
-9.88579e-19
2.44722e-08
0
8.07964e-07
0
3.56837e-07
0
-8.50772e-07
1.97709e-18
-1.62358e-06
0
-1.10628e-06
0
1.59037e-07
-1.97691e-18
8.66342e-07
0
4.33388e-07
0
-2.81041e-07
-2.7806e-23
-2.43992e-07
0
-1.90165e-07
0
-1.20747e-07
0
3.41823e-07
-1.9768e-18
2.75273e-07
0
8.01407e-07
0
1.45162e-06
0
6.02569e-07
1.97689e-18
1.66661e-08
0
4.15549e-07
0
4.33223e-07
0
-5.14522e-07
0
-6.37659e-07
0
7.02736e-07
0
8.16348e-07
8.48766e-23
-5.24221e-07
0
-6.72395e-07
0
3.8999e-07
0
3.20021e-07
0
-6.81095e-07
0
-4.82828e-07
0
4.51427e-07
0
5.82102e-07
0
1.57732e-07
1.97689e-18
-2.57017e-07
0
-2.31224e-07
0
-1.03723e-07
0
8.51737e-09
0
5.08608e-07
0
7.40307e-07
0
6.90187e-07
0
4.39708e-07
0
1.46945e-07
-1.9757e-18
2.79724e-08
0
-7.56558e-07
1.97574e-18
-1.28624e-06
1.97815e-18
-4.79247e-07
1.97652e-18
-3.35361e-07
-1.97596e-18
-1.14531e-06
0
-9.46297e-07
1.97586e-18
-3.42496e-07
1.97637e-18
-1.77726e-07
1.98004e-18
-6.01922e-07
0
-1.24032e-06
0
-4.44487e-07
1.9791e-18
8.04122e-07
1.97589e-18
9.22835e-07
1.97796e-18
3.49097e-07
-1.97608e-18
-2.77921e-07
0
-4.31395e-08
-4.40311e-23
3.75732e-07
-1.09885e-22
-5.41794e-07
0
-8.29746e-07
-7.42204e-23
6.18134e-08
-1.97701e-18
-5.01525e-07
1.97664e-18
-1.46246e-06
-1.97758e-18
-7.50457e-07
-1.97585e-18
8.37591e-07
-3.96478e-23
1.45664e-06
0
5.4177e-07
1.97674e-18
-7.90872e-07
-1.30793e-24
-8.16548e-07
-1.97672e-18
4.95447e-07
-1.97756e-18
1.19421e-06
1.97627e-18
4.84034e-07
1.97624e-18
-7.80956e-07
0
-5.79237e-07
0
5.78988e-07
1.55947e-23
4.23728e-07
1.97699e-18
-4.84843e-07
0
-4.25519e-07
0
4.27327e-07
1.10704e-23
6.07316e-07
-1.02889e-23
3.81302e-07
0
3.79612e-07
-1.53258e-23
5.19449e-07
2.59205e-23
6.87165e-07
-3.95381e-18
4.45392e-07
-1.97703e-18
1.40531e-07
-1.97694e-18
2.5389e-07
-1.97708e-18
3.98951e-07
-1.9768e-18
1.39826e-07
0
-7.80438e-07
3.46853e-23
-1.23048e-06
1.97709e-18
-3.76158e-07
1.97696e-18
4.51592e-08
2.57772e-24
4.19774e-08
0
5.583e-07
-1.97682e-18
7.45962e-07
-3.95472e-18
2.93269e-07
1.97645e-18
-7.65882e-07
2.17917e-23
-8.11917e-07
3.95267e-18
2.61099e-07
-1.97775e-18
9.89945e-08
0
-2.51726e-07
0
6.79975e-08
1.97627e-18
7.49848e-07
-5.77491e-23
1.31102e-06
3.95604e-18
5.17461e-07
3.95265e-18
-3.69194e-07
1.97768e-18
-9.20698e-07
-6.97969e-23
-1.35557e-06
6.02873e-23
-3.7277e-07
-4.45696e-23
8.31911e-07
0
7.23089e-07
1.97625e-18
3.75788e-07
9.37072e-24
3.65753e-07
1.97632e-18
3.66539e-07
1.97774e-18
5.10886e-08
-1.97687e-18
-8.74344e-07
1.97593e-18
-9.66018e-07
7.84357e-23
1.48245e-07
5.193e-23
2.35321e-07
1.97747e-18
-7.21405e-08
0
4.55109e-07
-1.97746e-18
5.84585e-07
-1.9766e-18
3.91935e-07
0
5.29537e-07
-1.38008e-23
6.9521e-07
1.9765e-18
6.3658e-07
0
2.77865e-07
-2.38143e-23
-2.64213e-07
0
-5.37987e-07
-1.9769e-18
-5.35878e-07
1.97681e-18
-5.29924e-07
-3.95397e-18
-5.27673e-07
0
-5.27168e-07
1.55176e-23
-5.21236e-07
-1.97569e-18
-3.84071e-07
5.65843e-24
-1.26685e-07
1.97394e-18
-3.21299e-10
-3.53336e-26
3.97747e-11
-1.88967e-12
0
0
0
0
0
0
0
0
0
0
0
0
0
0
0
0
0
0
0
0
0
0
0
0
0
0
0
0
0
0
0
0
0
0
0
0
0
0
0
-7.89952e-33
0
-7.89952e-33
0
0
0
0
0
0
0
0
0
0
0
0
0
0
0
0
0
0
0
0
0
0
0
0
0
0
0
0
0
0
0
0
0
0
0
0
0
0
0
0
0
0
4.93433e-19
2.02384e-19
0
-3.46945e-19
-9.86867e-19
1.06975e-18
0
-1.6769e-18
0
-3.96095e-18
0
4.89643e-17
-9.86867e-19
-2.8107e-16
4.93433e-19
1.27201e-15
0
-5.058e-15
-4.93433e-19
1.82692e-14
0
-5.91686e-14
2.34972e-27
1.59786e-13
0
-2.86245e-13
4.93443e-19
-1.81492e-13
0
5.83024e-12
0
-5.72269e-11
-4.92496e-19
5.6272e-10
-4.94367e-19
1.25021e-07
-9.93013e-19
3.83139e-07
-4.95869e-19
5.30415e-07
0
5.45434e-07
-4.95781e-19
5.47988e-07
0
5.48506e-07
4.95795e-19
5.48532e-07
-4.95777e-19
5.487e-07
9.91652e-19
5.46542e-07
6.8659e-24
2.69999e-07
-4.9586e-19
1.50532e-07
-4.95786e-19
5.08609e-07
-4.95811e-19
4.96909e-07
-4.95803e-19
2.84574e-07
-4.95808e-19
2.84069e-07
4.95781e-19
2.92208e-07
-4.95824e-19
3.06186e-07
-9.91639e-19
8.38598e-08
4.95786e-19
-8.39554e-07
0
-1.33931e-06
0
-4.40167e-07
0
6.84841e-08
-9.90515e-19
9.68487e-08
0
7.21948e-07
0
9.87168e-07
9.91127e-19
7.34447e-07
-9.92418e-19
7.33911e-07
0
2.00683e-07
0
-1.46085e-06
0
-1.71662e-06
0
2.19255e-07
-9.91223e-19
1.23114e-06
9.91911e-19
8.77748e-07
9.91308e-19
9.47823e-07
9.91341e-19
9.25602e-07
0
-2.4212e-08
-9.91425e-19
-8.74248e-07
0
-3.76426e-07
0
6.20715e-07
6.02054e-25
3.56348e-07
-4.39371e-23
-8.33887e-07
-9.923e-19
-1.41948e-06
9.89775e-19
-7.67549e-07
1.98624e-18
3.00645e-07
-3.63098e-23
7.02625e-07
0
1.56407e-07
9.90715e-19
-8.63036e-07
-5.04829e-23
-1.18142e-06
0
-1.91121e-07
-9.91809e-19
8.6135e-07
1.50559e-23
4.98111e-07
0
-1.03238e-06
0
-1.80915e-06
9.9109e-19
-1.10785e-06
9.91308e-19
-1.65946e-07
0
4.56391e-07
9.91935e-19
1.76982e-07
-9.9107e-19
-1.27702e-07
9.92154e-19
1.67076e-07
5.93462e-23
-2.5045e-07
9.91181e-19
-2.33792e-07
-9.92693e-19
1.14225e-07
-1.01127e-22
-1.06209e-06
9.90773e-19
-1.39188e-06
-9.92011e-19
2.35297e-07
9.91775e-19
1.17395e-06
-9.91298e-19
8.38915e-07
9.91758e-19
-5.6367e-07
-9.9152e-19
-1.70944e-06
-9.91265e-19
-1.2808e-06
0
-5.50134e-07
9.91601e-19
-2.27964e-07
-9.90733e-19
3.4505e-07
-5.96562e-23
6.10733e-07
0
-7.70446e-07
2.88244e-23
-1.31142e-06
0
2.55864e-07
1.98275e-18
1.00144e-06
9.91783e-19
5.86318e-07
1.98275e-18
3.63278e-07
0
1.12881e-07
0
-4.68199e-07
9.91612e-19
-5.4942e-07
-9.91561e-19
2.86195e-08
9.91784e-19
9.54756e-07
0
1.41262e-06
9.92201e-19
5.05792e-07
-9.91207e-19
-1.0123e-07
-9.91834e-19
3.41194e-07
9.91446e-19
6.49722e-07
-9.9154e-19
2.55367e-07
0
-8.04451e-07
9.91532e-19
-1.38708e-06
-1.1382e-23
-5.64855e-07
0
4.35648e-07
9.91294e-19
-1.03007e-07
0
-1.29113e-06
-2.70183e-23
-1.18442e-06
-1.98344e-18
2.43638e-08
9.91397e-19
8.02335e-07
0
3.53374e-07
0
-8.46697e-07
1.98338e-18
-1.61374e-06
3.96574e-18
-1.0993e-06
0
1.57854e-07
-1.98315e-18
8.60211e-07
1.98306e-18
4.30393e-07
0
-2.78131e-07
0
-2.43212e-07
0
-1.89138e-07
0
-1.18047e-07
0
3.39208e-07
0
2.76552e-07
0
7.99966e-07
0
1.44174e-06
-1.98433e-18
6.00329e-07
0
1.91034e-08
0
4.13391e-07
-1.98357e-18
4.28685e-07
-3.96529e-18
-5.11008e-07
1.98363e-18
-6.30685e-07
-1.98273e-18
6.97142e-07
0
8.08004e-07
-1.98176e-18
-5.20721e-07
0
-6.67032e-07
0
3.85102e-07
0
3.15061e-07
-1.98409e-18
-6.75967e-07
0
-4.7867e-07
0
4.48465e-07
0
5.79508e-07
0
1.576e-07
1.98305e-18
-2.54392e-07
0
-2.29638e-07
0
-1.03163e-07
-3.9642e-18
9.97963e-09
0
5.05912e-07
0
7.36642e-07
1.98463e-18
6.86796e-07
0
4.37616e-07
0
1.46929e-07
0
2.51225e-08
-1.98518e-18
-7.54204e-07
0
-1.27716e-06
1.98488e-18
-4.7848e-07
0
-3.36483e-07
1.98162e-18
-1.13738e-06
0
-9.41139e-07
1.98158e-18
-3.41793e-07
0
-1.77844e-07
0
-6.00487e-07
1.97881e-18
-1.23167e-06
-1.98011e-18
-4.40637e-07
0
7.99516e-07
1.98164e-18
9.18356e-07
0
3.46674e-07
1.98198e-18
-2.75051e-07
-1.9838e-18
-4.16159e-08
0
3.70354e-07
1.98337e-18
-5.38562e-07
0
-8.2285e-07
-1.98331e-18
5.73931e-08
-1.98344e-18
-5.01815e-07
1.1741e-22
-1.45332e-06
-2.54873e-23
-7.44424e-07
1.17838e-22
8.33692e-07
-9.92067e-23
1.44747e-06
0
5.36804e-07
0
-7.86183e-07
-3.57227e-23
-8.09574e-07
0
4.92963e-07
-9.67093e-23
1.18613e-06
0
4.79272e-07
0
-7.75242e-07
1.98384e-18
-5.74243e-07
0
5.73979e-07
9.00015e-24
4.20497e-07
-1.98331e-18
-4.80746e-07
7.38136e-25
-4.21771e-07
1.98344e-18
4.24276e-07
-1.98313e-18
6.04399e-07
-1.82909e-23
3.80695e-07
1.98308e-18
3.78443e-07
1.98336e-18
5.17316e-07
1.9833e-18
6.82891e-07
-1.98312e-18
4.43092e-07
0
1.41017e-07
1.98318e-18
2.52912e-07
1.98339e-18
3.95626e-07
5.07815e-23
1.35585e-07
0
-7.77874e-07
7.74748e-23
-1.2225e-06
0
-3.75807e-07
5.48117e-23
4.45537e-08
1.73263e-24
4.42184e-08
0
5.55654e-07
-3.70105e-23
7.41827e-07
0
2.89909e-07
1.65074e-22
-7.60711e-07
1.9842e-18
-8.05123e-07
0
2.57012e-07
0
9.8944e-08
-1.98152e-18
-2.48344e-07
0
6.91815e-08
3.96434e-18
7.47716e-07
-1.98183e-18
1.30195e-06
3.9697e-18
5.13923e-07
1.98233e-18
-3.68855e-07
7.33259e-23
-9.19e-07
-1.9824e-18
-1.34689e-06
1.98404e-18
-3.70057e-07
0
8.2581e-07
-7.59375e-24
7.20179e-07
-3.96437e-18
3.74962e-07
1.44967e-23
3.63994e-07
0
3.643e-07
0
4.78044e-08
-1.98308e-18
-8.70435e-07
1.98169e-18
-9.58788e-07
1.98478e-18
1.45676e-07
-1.98246e-18
2.34485e-07
-1.98396e-18
-6.83538e-08
7.03735e-23
4.52527e-07
-1.98398e-18
5.81636e-07
1.9827e-18
3.9177e-07
-3.87247e-23
5.27715e-07
-5.74197e-23
6.91151e-07
-1.98231e-18
6.31801e-07
0
2.75115e-07
0
-2.6281e-07
0
-5.34958e-07
3.03909e-23
-5.33363e-07
-1.98264e-18
-5.27366e-07
0
-5.25127e-07
-2.90471e-23
-5.24671e-07
0
-5.18312e-07
3.95766e-18
-3.81439e-07
0
-1.25915e-07
0
-4.53558e-10
1.28386e-25
6.65989e-11
-7.31027e-12
0
0
0
0
0
0
0
0
0
0
0
0
0
0
0
0
0
0
0
0
0
0
0
0
0
0
0
0
0
0
0
0
0
0
0
0
0
0
0
0
0
0
0
0
0
0
0
0
0
0
0
0
0
0
0
0
0
0
0
0
0
0
0
0
0
0
0
0
0
0
0
0
0
0
0
0
0
0
0
0
0
-1.4456e-20
-4.93433e-19
-1.28129e-34
4.93433e-19
4.33681e-20
4.93433e-19
-6.36065e-19
-4.93433e-19
2.92012e-18
0
-1.14492e-17
-4.93433e-19
3.63679e-17
1.1892e-30
-9.98044e-17
-4.93433e-19
2.62142e-16
0
-9.04485e-16
0
4.5224e-15
-4.93433e-19
-2.36964e-14
-4.93433e-19
1.06018e-13
-9.86867e-19
-3.85061e-13
0
1.14281e-12
2.98579e-26
-3.03048e-12
-4.93425e-19
9.51e-12
-4.9353e-19
-5.43612e-11
4.8938e-25
6.39512e-10
0
1.23816e-07
1.36977e-23
3.79538e-07
0
5.26246e-07
0
5.41783e-07
-4.98027e-19
5.44403e-07
4.98053e-19
5.44958e-07
1.07712e-23
5.44955e-07
0
5.45202e-07
0
5.42579e-07
-4.97934e-19
2.69209e-07
4.98157e-19
1.51174e-07
2.09934e-23
5.04211e-07
-4.98118e-19
4.92546e-07
0
2.83162e-07
4.98093e-19
2.82791e-07
0
2.89318e-07
-4.98148e-19
3.02714e-07
-9.96266e-19
8.22047e-08
4.98046e-19
-8.32351e-07
3.01604e-23
-1.32662e-06
0
-4.38942e-07
-1.97096e-23
6.62791e-08
0
9.73869e-08
9.97841e-19
7.14634e-07
-2.98414e-23
9.7846e-07
0
7.30552e-07
0
7.27668e-07
0
1.97289e-07
0
-1.44522e-06
0
-1.69939e-06
9.97242e-19
2.13061e-07
9.95792e-19
1.21934e-06
0
8.74124e-07
9.959e-19
9.40266e-07
-3.30541e-23
9.1634e-07
0
-2.24575e-08
0
-8.63967e-07
9.96362e-19
-3.73297e-07
0
6.12089e-07
-9.96578e-19
3.51843e-07
0
-8.24713e-07
0
-1.40605e-06
-9.9381e-19
-7.62834e-07
-9.98249e-19
2.94979e-07
9.97977e-19
6.9453e-07
9.90912e-19
1.54975e-07
-8.1399e-23
-8.54107e-07
9.97366e-19
-1.16977e-06
-4.92924e-23
-1.90504e-07
9.96459e-19
8.50593e-07
-3.30875e-24
4.91796e-07
-9.9588e-19
-1.02121e-06
-7.12666e-23
-1.79224e-06
-9.954e-19
-1.10151e-06
0
-1.66351e-07
0
4.50994e-07
-9.96703e-19
1.75812e-07
4.57393e-24
-1.24591e-07
-9.9696e-19
1.64309e-07
9.95729e-19
-2.47528e-07
9.95702e-19
-2.32239e-07
9.97685e-19
1.08367e-07
-9.945e-19
-1.05114e-06
1.80818e-23
-1.3773e-06
-9.38962e-23
2.28895e-07
1.99296e-18
1.16204e-06
0
8.32202e-07
-1.04857e-22
-5.5755e-07
9.96175e-19
-1.69384e-06
1.99149e-18
-1.27237e-06
0
-5.47934e-07
-9.9622e-19
-2.26698e-07
6.39634e-23
3.40401e-07
1.99805e-18
6.01752e-07
-1.98487e-18
-7.61202e-07
-2.13985e-23
-1.29679e-06
8.93157e-23
2.50129e-07
2.57713e-23
9.9172e-07
-1.27701e-23
5.83063e-07
-9.95934e-19
3.60981e-07
9.96448e-19
1.12213e-07
-4.91985e-23
-4.63493e-07
9.96199e-19
-5.43916e-07
-9.96149e-19
2.90703e-08
-9.28542e-23
9.46017e-07
0
1.39995e-06
0
5.05408e-07
9.95748e-19
-9.72353e-08
0
3.3794e-07
0
6.44084e-07
-9.96117e-19
2.53261e-07
9.96344e-19
-7.96531e-07
-6.8567e-23
-1.3741e-06
-9.95625e-19
-5.61957e-07
-5.64669e-23
4.27987e-07
0
-1.03277e-07
-9.9658e-19
-1.27849e-06
0
-1.17454e-06
9.96337e-19
2.19091e-08
-4.77569e-23
7.94114e-07
0
3.5018e-07
0
-8.39053e-07
-1.99284e-18
-1.59959e-06
1.99198e-18
-1.09135e-06
0
1.53707e-07
0
8.51352e-07
0
4.27516e-07
0
-2.7335e-07
-1.991e-18
-2.41009e-07
0
-1.87828e-07
1.99058e-18
-1.15708e-07
0
3.35791e-07
1.99191e-18
2.7621e-07
1.99119e-18
7.94058e-07
0
1.42821e-06
0
5.99027e-07
0
2.22502e-08
0
4.0924e-07
-1.99291e-18
4.24083e-07
0
-5.04328e-07
-1.99292e-18
-6.24224e-07
0
6.87158e-07
1.99344e-18
7.99345e-07
0
-5.13115e-07
1.99314e-18
-6.60503e-07
0
3.77769e-07
0
3.10982e-07
-1.58246e-22
-6.66867e-07
1.99279e-18
-4.73427e-07
0
4.43177e-07
0
5.75224e-07
0
1.57678e-07
1.99224e-18
-2.51225e-07
1.99157e-18
-2.28081e-07
-1.99355e-18
-1.02957e-07
3.98204e-18
1.03431e-08
0
5.01292e-07
3.97138e-23
7.31287e-07
0
6.82274e-07
0
4.3465e-07
-1.99492e-18
1.46255e-07
0
2.39198e-08
-1.70879e-22
-7.47639e-07
0
-1.26493e-06
1.99462e-18
-4.77466e-07
1.9914e-18
-3.3716e-07
-1.73736e-22
-1.12672e-06
0
-9.34019e-07
1.99025e-18
-3.41711e-07
-1.99147e-18
-1.79008e-07
0
-5.96312e-07
-1.9862e-18
-1.2182e-06
0
-4.3775e-07
0
7.89262e-07
-3.98071e-18
9.11093e-07
0
3.45694e-07
-1.99083e-18
-2.70888e-07
0
-4.14697e-08
0
3.64639e-07
0
-5.32291e-07
-1.99215e-18
-8.15651e-07
-1.05844e-22
5.11778e-08
-1.91383e-22
-4.98204e-07
0
-1.43827e-06
2.6711e-23
-7.38579e-07
-1.99004e-18
8.23342e-07
-1.12561e-22
1.4335e-06
3.98555e-18
5.33933e-07
-1.99178e-18
-7.76586e-07
-1.99287e-18
-8.01188e-07
-1.99202e-18
4.86467e-07
1.9935e-18
1.17369e-06
1.99092e-18
4.75643e-07
-1.99055e-18
-7.64464e-07
6.8941e-23
-5.68021e-07
0
5.65246e-07
1.99253e-18
4.16367e-07
-1.25348e-22
-4.73762e-07
-1.99228e-18
-4.17248e-07
1.99283e-18
4.19233e-07
0
5.99534e-07
1.99261e-18
3.78403e-07
1.99237e-18
3.76096e-07
0
5.14098e-07
-1.99241e-18
6.77573e-07
1.99232e-18
4.40866e-07
1.99259e-18
1.40587e-07
1.99246e-18
2.5015e-07
-1.99276e-18
3.91715e-07
1.99229e-18
1.32558e-07
0
-7.70858e-07
1.01266e-22
-1.21028e-06
0
-3.75516e-07
0
4.28627e-08
1.99241e-18
4.56663e-08
-1.99269e-18
5.50637e-07
1.99213e-18
7.35215e-07
0
2.86937e-07
1.99146e-18
-7.52095e-07
1.55725e-23
-7.96633e-07
1.99135e-18
2.51462e-07
-1.99405e-18
9.83996e-08
-1.99033e-18
-2.4434e-07
-3.98993e-18
6.90031e-08
1.67939e-22
7.40791e-07
0
1.28866e-06
0
5.10942e-07
-1.99136e-18
-3.65297e-07
1.99392e-18
-9.12545e-07
-1.99145e-18
-1.33389e-06
0
-3.68167e-07
-3.983e-18
8.15523e-07
-1.99393e-18
7.15505e-07
0
3.74294e-07
4.9347e-23
3.60625e-07
1.99131e-18
3.60293e-07
-1.99411e-18
4.6441e-08
0
-8.61109e-07
1.9903e-18
-9.48695e-07
1.40466e-22
1.41072e-07
1.99163e-18
2.3196e-07
-3.98697e-18
-6.52687e-08
8.66578e-23
4.48548e-07
0
5.77478e-07
-1.9918e-18
3.89309e-07
-1.99339e-18
5.23188e-07
-1.99317e-18
6.86096e-07
1.99107e-18
6.27152e-07
1.59003e-23
2.73626e-07
-6.56539e-23
-2.59366e-07
0
-5.30311e-07
0
-5.29738e-07
-4.10439e-23
-5.23883e-07
1.99158e-18
-5.2165e-07
1.99063e-18
-5.2121e-07
3.99382e-18
-5.14672e-07
1.92071e-23
-3.78704e-07
1.96799e-18
-1.25483e-07
-1.97427e-18
-8.8053e-10
1.97373e-18
9.36962e-12
-1.6037e-11
0
0
0
0
0
0
0
0
0
0
0
0
0
0
0
0
0
0
0
0
0
0
0
0
0
0
0
0
0
0
0
0
0
0
0
0
0
0
0
0
0
0
0
0
0
0
0
0
0
0
0
0
0
0
0
0
0
0
0
0
0
0
0
0
0
0
0
0
0
0
0
0
0
0
0
0
0
0
0
7.22801e-21
0
-3.61401e-20
4.9343e-19
1.37332e-19
0
-2.60209e-19
0
2.89121e-20
4.9343e-19
2.34188e-18
-4.9343e-19
-1.37332e-17
4.9343e-19
4.97108e-17
0
-1.21819e-16
0
1.31738e-16
4.9343e-19
5.33803e-16
0
-4.27346e-15
0
1.99586e-14
4.9343e-19
-8.43055e-14
5.75377e-27
3.42357e-13
0
-1.19782e-12
-4.93431e-19
3.09427e-12
-4.93421e-19
-4.46028e-12
0
-2.81013e-11
3.16186e-25
7.42578e-10
-4.96431e-19
1.21599e-07
-5.01243e-19
3.73043e-07
-2.44165e-23
5.17898e-07
2.48069e-23
5.3347e-07
-2.47055e-23
5.36041e-07
5.01091e-19
5.36564e-07
2.43477e-23
5.36621e-07
0
5.36786e-07
-1.00227e-18
5.3377e-07
6.28792e-24
2.65766e-07
5.01222e-19
1.50171e-07
2.95865e-23
4.97149e-07
0
4.85331e-07
5.01191e-19
2.78421e-07
5.01157e-19
2.78268e-07
0
2.83364e-07
2.15285e-23
2.95127e-07
-5.01226e-19
7.72382e-08
-6.47392e-23
-8.22749e-07
-5.01208e-19
-1.30721e-06
0
-4.33352e-07
0
6.63818e-08
0
9.8887e-08
0
7.03532e-07
0
9.62635e-07
0
7.19393e-07
-1.00365e-18
7.1343e-07
0
1.89402e-07
0
-1.42295e-06
0
-1.67127e-06
0
2.09507e-07
-1.00181e-18
1.20419e-06
0
8.67008e-07
0
9.27357e-07
1.00188e-18
8.99947e-07
0
-2.41223e-08
-1.00213e-18
-8.51415e-07
0
-3.67877e-07
1.00199e-18
6.01501e-07
9.23914e-24
3.44551e-07
-1.00198e-18
-8.12817e-07
0
-1.38423e-06
-9.99374e-19
-7.50509e-07
0
2.90975e-07
1.0043e-18
6.822e-07
0
1.49765e-07
-1.22777e-22
-8.4225e-07
1.00358e-18
-1.15074e-06
-4.60436e-23
-1.85729e-07
0
8.37432e-07
-1.00233e-18
4.81979e-07
0
-1.00604e-06
0
-1.76456e-06
5.36415e-23
-1.085e-06
-1.00164e-18
-1.61558e-07
1.00225e-18
4.457e-07
-5.30791e-23
1.74737e-07
-1.00148e-18
-1.20697e-07
1.00323e-18
1.61661e-07
-1.00174e-18
-2.41688e-07
0
-2.2897e-07
0
1.01142e-07
1.00002e-18
-1.03548e-06
2.001e-18
-1.35451e-06
1.00273e-18
2.24176e-07
-1.0027e-18
1.14487e-06
1.00193e-18
8.18923e-07
1.00256e-18
-5.50078e-07
1.46066e-22
-1.66867e-06
1.00181e-18
-1.25458e-06
1.00283e-18
-5.39629e-07
0
-2.21584e-07
0
3.34547e-07
1.0056e-18
5.87791e-07
2.05939e-22
-7.4966e-07
9.99403e-19
-1.27483e-06
0
2.46104e-07
3.86042e-23
9.7986e-07
-1.00265e-18
5.7705e-07
-3.52893e-23
3.55248e-07
2.00519e-18
1.10138e-07
0
-4.56406e-07
-1.00236e-18
-5.34348e-07
0
3.19107e-08
-1.00264e-18
9.33406e-07
0
1.37929e-06
-1.00335e-18
5.01123e-07
5.96131e-24
-9.34257e-08
1.00263e-18
3.33354e-07
1.00203e-18
6.35068e-07
1.00219e-18
2.49315e-07
0
-7.83665e-07
0
-1.35112e-06
0
-5.52815e-07
-1.00297e-18
4.20176e-07
-1.00178e-18
-1.02382e-07
0
-1.25849e-06
-5.6267e-23
-1.15654e-06
-5.99103e-23
2.16015e-08
0
7.82989e-07
0
3.45368e-07
0
-8.26701e-07
-2.00522e-18
-1.5757e-06
0
-1.07544e-06
0
1.50358e-07
2.00461e-18
8.38e-07
0
4.21266e-07
-2.00532e-18
-2.68495e-07
2.00286e-18
-2.37484e-07
0
-1.8409e-07
0
-1.11489e-07
0
3.32485e-07
-2.004e-18
2.76482e-07
-3.09385e-22
7.84354e-07
0
1.40619e-06
0
5.92694e-07
0
2.40968e-08
0
4.02661e-07
0
4.16682e-07
0
-4.94907e-07
0
-6.143e-07
2.00404e-18
6.72678e-07
-2.00586e-18
7.83905e-07
2.00266e-18
-5.06029e-07
0
-6.52232e-07
0
3.67281e-07
0
3.03613e-07
-2.00457e-18
-6.55618e-07
-2.00501e-18
-4.65095e-07
0
4.37933e-07
0
5.69769e-07
0
1.58267e-07
0
-2.45382e-07
0
-2.23996e-07
0
-1.00776e-07
-2.00299e-18
1.10988e-08
-1.36407e-22
4.93827e-07
0
7.21392e-07
2.00686e-18
6.73038e-07
-2.00199e-18
4.28597e-07
2.00778e-18
1.42967e-07
0
2.04565e-08
-2.58894e-22
-7.37835e-07
0
-1.24538e-06
0
-4.71541e-07
2.00349e-18
-3.3321e-07
0
-1.10838e-06
0
-9.19816e-07
0
-3.37096e-07
0
-1.78027e-07
0
-5.88604e-07
-3.99298e-18
-1.19682e-06
1.99822e-18
-4.29175e-07
0
7.78168e-07
-2.00222e-18
8.99323e-07
0
3.41669e-07
-2.00256e-18
-2.65594e-07
1.0032e-22
-4.10342e-08
0
3.57033e-07
2.00499e-18
-5.22918e-07
2.0044e-18
-8.042e-07
-1.38697e-22
4.40288e-08
2.00492e-18
-4.93367e-07
2.72166e-22
-1.41609e-06
-2.00604e-18
-7.2623e-07
-2.00164e-18
8.11367e-07
-2.33663e-22
1.4108e-06
0
5.24622e-07
0
-7.65384e-07
-2.0053e-18
-7.88234e-07
2.00431e-18
4.79048e-07
-2.30103e-22
1.15425e-06
2.00265e-18
4.66537e-07
0
-7.51841e-07
-2.00553e-18
-5.58358e-07
-2.00472e-18
5.55295e-07
2.00484e-18
4.10404e-07
0
-4.64796e-07
0
-4.10452e-07
1.27211e-22
4.1333e-07
0
5.92935e-07
-2.005e-18
3.74111e-07
0
3.70925e-07
-1.23457e-22
5.06778e-07
-2.00475e-18
6.66988e-07
-2.00466e-18
4.35557e-07
2.00491e-18
1.38762e-07
2.00478e-18
2.44421e-07
0
3.82892e-07
-2.00462e-18
1.24918e-07
-2.00537e-18
-7.62645e-07
1.67799e-22
-1.19233e-06
-2.00498e-18
-3.71727e-07
-2.00469e-18
4.33694e-08
-2.00474e-18
4.84447e-08
2.00503e-18
5.43973e-07
2.00429e-18
7.24965e-07
4.01131e-18
2.81802e-07
4.0069e-18
-7.39644e-07
-4.86955e-24
-7.83451e-07
-1.15745e-22
2.46781e-07
2.00692e-18
9.94159e-08
-4.00435e-18
-2.37608e-07
-2.00776e-18
7.06393e-08
-2.00272e-18
7.30452e-07
2.00227e-18
1.26656e-06
2.00739e-18
5.01016e-07
-2.00358e-18
-3.65016e-07
2.00637e-18
-9.04179e-07
0
-1.31415e-06
-2.0061e-18
-3.62799e-07
2.00353e-18
8.02706e-07
-2.00662e-18
7.06885e-07
0
3.7069e-07
2.0067e-18
3.54421e-07
-1.05513e-22
3.5217e-07
-1.11046e-23
4.15172e-08
-2.00452e-18
-8.49388e-07
-2.00203e-18
-9.32964e-07
-2.0071e-18
1.38971e-07
0
2.31566e-07
2.00595e-18
-6.04737e-08
0
4.42906e-07
0
5.7133e-07
-2.00395e-18
3.85051e-07
-2.00593e-18
5.14368e-07
-2.00557e-18
6.74287e-07
-2.00263e-18
6.1537e-07
0
2.68161e-07
-2.00306e-18
-2.55101e-07
0
-5.22048e-07
1.94477e-22
-5.21607e-07
-2.00274e-18
-5.15689e-07
0
-5.13486e-07
-9.75754e-23
-5.13015e-07
0
-5.06314e-07
5.2281e-23
-3.72258e-07
0
-1.23209e-07
1.9742e-18
-7.69351e-10
-1.14229e-25
5.91834e-11
-1.12141e-11
0
0
0
0
0
0
0
0
0
0
0
0
0
0
0
0
0
0
0
0
0
0
0
0
0
0
0
0
0
0
0
0
0
0
0
0
0
0
0
0
0
0
0
0
0
0
0
0
0
0
0
0
0
0
0
0
0
0
0
0
0
0
0
0
0
0
0
0
0
0
0
0
0
0
0
0
-2.46717e-19
-3.61401e-21
0
1.88108e-20
0
-8.41884e-20
4.93433e-19
2.94542e-19
-4.93433e-19
-9.14344e-19
0
2.44307e-18
0
-6.1149e-18
-4.93433e-19
1.78749e-17
0
-7.70596e-17
0
4.073e-16
-4.93433e-19
-2.04689e-15
4.93433e-19
8.92251e-15
0
-3.28899e-14
0
9.99281e-14
4.93433e-19
-2.33259e-13
-4.93433e-19
3.13483e-13
-4.93433e-19
4.03003e-13
5.0187e-26
-4.02067e-12
-4.93424e-19
1.39077e-11
0
-6.27331e-11
4.92264e-19
6.86394e-10
4.97956e-19
1.18949e-07
3.22199e-23
3.64946e-07
0
5.06897e-07
5.04968e-19
5.22298e-07
-3.31659e-23
5.24828e-07
-5.04975e-19
5.25375e-07
-5.04927e-19
5.25334e-07
5.049e-19
5.25802e-07
-5.05029e-19
5.22217e-07
0
2.59924e-07
1.2411e-23
1.48501e-07
0
4.8793e-07
0
4.75615e-07
5.05118e-19
2.73183e-07
-2.34616e-23
2.7166e-07
5.05088e-19
2.74735e-07
5.05238e-19
2.875e-07
-1.43696e-23
7.18517e-08
0
-8.12397e-07
7.24938e-23
-1.28219e-06
5.0491e-19
-4.2422e-07
0
6.63022e-08
0
1.00273e-07
0
6.90516e-07
0
9.42614e-07
0
7.0381e-07
-1.01179e-18
6.95811e-07
0
1.79618e-07
0
-1.39743e-06
1.00744e-18
-1.63563e-06
0
2.08501e-07
0
1.18483e-06
0
8.5477e-07
1.00975e-18