/*--------------------------------*- C++ -*----------------------------------*\
| =========                 |                                                 |
| \\      /  F ield         | foam-extend: Open Source CFD                    |
|  \\    /   O peration     | Version:     3.2                                |
|   \\  /    A nd           | Web:         http://www.foam-extend.org         |
|    \\/     M anipulation  | For copyright notice see file Copyright         |
\*---------------------------------------------------------------------------*/
FoamFile
{
    version     2.0;
    format      ascii;
    class       tetPointVectorField;
    location    "50";
    object      motionU;
}
// * * * * * * * * * * * * * * * * * * * * * * * * * * * * * * * * * * * * * //

dimensions      [0 1 -1 0 0 0 0];

internalField   nonuniform List<vector> 
38756
(
(0 0 0)
(0 0 0)
(0 0 0)
(0 0 0)
(0 0 0)
(0 0 0)
(0 0 0)
(0 0 0)
(0 0 0)
(0 0 0)
(0 0 0)
(0 0 0)
(0 0 0)
(0 0 0)
(0 0 0)
(0 0 0)
(0 0 0)
(0 0 0)
(0 0 0)
(0 0 0)
(0 0 0)
(0 0 0)
(0 0 0)
(0 0 0)
(0 0 0)
(0 0 0)
(0 0 0)
(0 0 0)
(0 0 0)
(0 0 0)
(0 0 0)
(0 0 0)
(0 0 0)
(0 0 0)
(0 0 0)
(0 0 0)
(0 0 0)
(0 0 0)
(0 0 0)
(0 0 0)
(0 0 0)
(0 0 0)
(0 0 0)
(0 0 0)
(0 0 0)
(0 0 0)
(0 0 0)
(0 0 0)
(0 0 0)
(0 0 0)
(0 0 0)
(0 0 0)
(0 0 0)
(0 0 0)
(0 0 0)
(0 0 0)
(0 0 0)
(0 0 0)
(0 0 0)
(0 0 0)
(0 0 0.000251041)
(0 0 0.000522696)
(0 0 0.000546753)
(0 0 0.000551058)
(0 0 0.000551955)
(0 0 0.000552073)
(0 0 0.000552036)
(0 0 0.000551966)
(0 0 0.000551839)
(0 0 -1.00002e-05)
(0 0 0.000306354)
(0 0 0.000721609)
(0 0 0.000280023)
(0 0 0.000289784)
(0 0 0.000283076)
(0 0 0.000306089)
(0 0 0.000313256)
(0 0 -0.000133197)
(0 0 -0.00155702)
(0 0 -0.00115367)
(0 0 0.00027392)
(0 0 -0.000131311)
(0 0 0.000316183)
(0 0 0.00114122)
(0 0 0.000852315)
(0 0 0.000622382)
(0 0 0.000862156)
(0 0 -0.000440317)
(0 0 -0.00251393)
(0 0 -0.000966851)
(0 0 0.00141997)
(0 0 0.00107084)
(0 0 0.000685248)
(0 0 0.00122139)
(0 0 0.000652821)
(0 0 -0.000700277)
(0 0 -0.0010721)
(0 0 0.000309316)
(0 0 0.000953631)
(0 0 -0.000226286)
(0 0 -0.00145697)
(0 0 -0.00141204)
(0 0 -0.000137973)
(0 0 0.000748695)
(0 0 0.000676339)
(0 0 -0.00035234)
(0 0 -0.00138945)
(0 0 -0.00100309)
(0 0 0.000616199)
(0 0 0.00113167)
(0 0 -0.000115272)
(0 0 -0.00196917)
(0 0 -0.00168688)
(0 0 -0.000544641)
(0 0 0.000210726)
(0 0 0.000716425)
(0 0 -0.00036132)
(0 0 9.47732e-05)
(0 0 0.000251477)
(0 0 -0.00076178)
(0 0 0.000285247)
(0 0 -3.28106e-05)
(0 0 -0.00211121)
(0 0 -0.000711626)
(0 0 0.00119488)
(0 0 0.00117907)
(0 0 0.000521134)
(0 0 -0.00165572)
(0 0 -0.00180163)
(0 0 -0.000777895)
(0 0 -0.000323997)
(0 0 -0.000139484)
(0 0 0.000834683)
(0 0 0.00041799)
(0 0 -0.00197268)
(0 0 -0.000689053)
(0 0 0.00121557)
(0 0 0.000810542)
(0 0 0.000363526)
(0 0 0.000367803)
(0 0 -0.000135244)
(0 0 -0.000812158)
(0 0 -0.000301028)
(0 0 0.000352798)
(0 0 0.00157077)
(0 0 0.00128666)
(0 0 -0.000274608)
(0 0 5.74656e-05)
(0 0 0.000630365)
(0 0 0.00068351)
(0 0 -0.000161831)
(0 0 -0.00146182)
(0 0 -0.00134656)
(0 0 0.000206252)
(0 0 0.000687879)
(0 0 -0.00088715)
(0 0 -0.0017255)
(0 0 -0.000670069)
(0 0 0.000723342)
(0 0 0.000903086)
(0 0 -0.000184692)
(0 0 -0.00152346)
(0 0 -0.00173742)
(0 0 -0.000482441)
(0 0 0.000806061)
(0 0 0.000937133)
(0 0 -6.80322e-05)
(0 0 -0.000501014)
(0 0 1.24097e-05)
(0 0 -0.000393597)
(0 0 0.000148441)
(0 0 0.00054054)
(0 0 6.08821e-06)
(0 0 0.0015986)
(0 0 0.00132004)
(0 0 -0.000117178)
(0 0 0.000142851)
(0 0 0.000692817)
(0 0 0.000181621)
(0 0 -0.00121892)
(0 0 -6.7991e-05)
(0 0 0.00148639)
(0 0 0.000158716)
(0 0 -0.00121828)
(0 0 -0.000135852)
(0 0 0.000927628)
(0 0 -0.000279313)
(0 0 -0.00109455)
(0 0 0.000122729)
(0 0 0.000787893)
(0 0 0.000380859)
(0 0 -6.60161e-05)
(0 0 -0.000452378)
(0 0 -1.11344e-05)
(0 0 -0.000196174)
(0 0 0.000210648)
(0 0 0.000810843)
(0 0 0.000673763)
(0 0 0.00070967)
(0 0 0.000171295)
(0 0 0.00012172)
(0 0 -6.09148e-05)
(0 0 -0.00145736)
(0 0 -0.00112902)
(0 0 0.000175019)
(0 0 -0.000839942)
(0 0 -0.00146206)
(0 0 -0.000435355)
(0 0 -0.000247223)
(0 0 -0.000104934)
(0 0 -0.00109948)
(0 0 -0.00139593)
(0 0 0.000503636)
(0 0 0.00111667)
(0 0 0.00073608)
(0 0 -3.75481e-05)
(0 0 -0.000525666)
(0 0 0.000438622)
(0 0 0.000324019)
(0 0 -0.00141518)
(0 0 -0.000254995)
(0 0 0.000391261)
(0 0 -0.00139384)
(0 0 -0.00154815)
(0 0 4.00414e-05)
(0 0 0.00164572)
(0 0 0.00128247)
(0 0 -0.00019577)
(0 0 -0.00139825)
(0 0 -0.000245731)
(0 0 0.00124403)
(0 0 0.00115811)
(0 0 -0.000185152)
(0 0 -0.00139026)
(0 0 0.000224075)
(0 0 0.000946279)
(0 0 -9.29278e-05)
(0 0 -0.000886019)
(0 0 2.84996e-05)
(0 0 0.000833091)
(0 0 0.000385758)
(0 0 0.000376272)
(0 0 0.000383625)
(0 0 0.000656674)
(0 0 0.000722601)
(0 0 0.000169407)
(0 0 0.000109183)
(0 0 0.000400221)
(0 0 0.00040203)
(0 0 -0.000117209)
(0 0 -0.00144957)
(0 0 -0.0010245)
(0 0 0.000275437)
(0 0 -0.000181868)
(0 0 0.000261738)
(0 0 0.000859285)
(0 0 0.000638859)
(0 0 -4.74866e-05)
(0 0 -0.00149425)
(0 0 -0.00013971)
(0 0 0.00067246)
(0 0 -0.000474245)
(0 0 -3.51079e-05)
(0 0 0.000169296)
(0 0 0.00133382)
(0 0 0.00130238)
(0 0 -0.000266672)
(0 0 -0.000475555)
(0 0 -0.00136862)
(0 0 -0.00135657)
(0 0 0.000609785)
(0 0 0.0010668)
(0 0 0.000382179)
(0 0 0.000367469)
(0 0 0.000365398)
(0 0 0.000371403)
(0 0 -0.000264503)
(0 0 -0.0014934)
(0 0 -0.000450275)
(0 0 0.000755968)
(0 0 -0.000282076)
(0 0 0.000131)
(0 0 0.000783868)
(0 0 0.000388613)
(0 0 0.000393994)
(0 0 0.000667611)
(0 0 0.000726894)
(0 0 0.000550061)
(0 0 7.38503e-06)
(0 0 -0.000539054)
(0 0 -0.000540583)
(0 0 -0.000532763)
(0 0 -0.00052884)
(0 0 -0.000528261)
(0 0 -0.000527815)
(0 0 -0.000517402)
(0 0 -0.000253345)
(0 0 0)
(0 0 0)
(0 0 0)
(0 0 0)
(0 0 0)
(0 0 0)
(0 0 0)
(0 0 0)
(0 0 0)
(0 0 0)
(0 0 0)
(0 0 0)
(0 0 0)
(0 0 0)
(0 0 0)
(0 0 0)
(0 0 0)
(0 0 0)
(0 0 0)
(0 0 0)
(0 0 0)
(0 0 0)
(0 0 0)
(0 0 0)
(0 0 0)
(0 0 0)
(0 0 0)
(0 0 0)
(0 0 0)
(0 0 0)
(0 0 0)
(0 0 0)
(0 0 0)
(0 0 0)
(0 0 0)
(0 0 0)
(0 0 0)
(0 0 0)
(0 0 0)
(0 0 0)
(0 0 0)
(0 0 0)
(0 0 0)
(0 0 0)
(0 0 0)
(0 0 0)
(0 0 0)
(0 0 0)
(0 0 0)
(0 0 0)
(0 0 0)
(0 0 0)
(0 0 0)
(0 0 0)
(0 0 0)
(0 0 0)
(0 0 0)
(0 0 0)
(0 0 0)
(0 0 0)
(0 0 0)
(0 0 0)
(0 0 0)
(0 0 0)
(0 0 0.000251041)
(0 0 0.000522696)
(0 0 0.000546753)
(0 0 0.000551058)
(0 0 0.000551955)
(0 0 0.000552073)
(0 0 0.000552036)
(0 0 0.000551966)
(0 0 0.000551839)
(0 0 -1.00002e-05)
(0 0 0.000306354)
(0 0 0.000721609)
(0 0 0.000280023)
(0 0 0.000289784)
(0 0 0.000283076)
(0 0 0.000306089)
(0 0 0.000313256)
(0 0 -0.000133197)
(0 0 -0.00155702)
(0 0 -0.00115367)
(0 0 0.00027392)
(0 0 -0.000131311)
(0 0 0.000316183)
(0 0 0.00114122)
(0 0 0.000852315)
(0 0 0.000622382)
(0 0 0.000862156)
(0 0 -0.000440317)
(0 0 -0.00251393)
(0 0 -0.000966851)
(0 0 0.00141997)
(0 0 0.00107084)
(0 0 0.000685248)
(0 0 0.00122139)
(0 0 0.000652821)
(0 0 -0.000700277)
(0 0 -0.0010721)
(0 0 0.000309316)
(0 0 0.000953631)
(0 0 -0.000226286)
(0 0 -0.00145697)
(0 0 -0.00141204)
(0 0 -0.000137973)
(0 0 0.000748695)
(0 0 0.000676339)
(0 0 -0.00035234)
(0 0 -0.00138945)
(0 0 -0.00100309)
(0 0 0.000616199)
(0 0 0.00113167)
(0 0 -0.000115272)
(0 0 -0.00196917)
(0 0 -0.00168688)
(0 0 -0.000544641)
(0 0 0.000210726)
(0 0 0.000716425)
(0 0 -0.00036132)
(0 0 9.47732e-05)
(0 0 0.000251477)
(0 0 -0.00076178)
(0 0 0.000285247)
(0 0 -3.28106e-05)
(0 0 -0.00211121)
(0 0 -0.000711626)
(0 0 0.00119488)
(0 0 0.00117907)
(0 0 0.000521134)
(0 0 -0.00165572)
(0 0 -0.00180163)
(0 0 -0.000777895)
(0 0 -0.000323997)
(0 0 -0.000139484)
(0 0 0.000834683)
(0 0 0.00041799)
(0 0 -0.00197268)
(0 0 -0.000689053)
(0 0 0.00121557)
(0 0 0.000810542)
(0 0 0.000363526)
(0 0 0.000367803)
(0 0 -0.000135244)
(0 0 -0.000812158)
(0 0 -0.000301028)
(0 0 0.000352798)
(0 0 0.00157077)
(0 0 0.00128666)
(0 0 -0.000274608)
(0 0 5.74656e-05)
(0 0 0.000630365)
(0 0 0.00068351)
(0 0 -0.000161831)
(0 0 -0.00146182)
(0 0 -0.00134656)
(0 0 0.000206252)
(0 0 0.000687879)
(0 0 -0.00088715)
(0 0 -0.0017255)
(0 0 -0.000670069)
(0 0 0.000723342)
(0 0 0.000903086)
(0 0 -0.000184692)
(0 0 -0.00152346)
(0 0 -0.00173742)
(0 0 -0.000482441)
(0 0 0.000806061)
(0 0 0.000937133)
(0 0 -6.80322e-05)
(0 0 -0.000501014)
(0 0 1.24097e-05)
(0 0 -0.000393597)
(0 0 0.000148441)
(0 0 0.00054054)
(0 0 6.08821e-06)
(0 0 0.0015986)
(0 0 0.00132004)
(0 0 -0.000117178)
(0 0 0.000142851)
(0 0 0.000692817)
(0 0 0.000181621)
(0 0 -0.00121892)
(0 0 -6.7991e-05)
(0 0 0.00148639)
(0 0 0.000158716)
(0 0 -0.00121828)
(0 0 -0.000135852)
(0 0 0.000927628)
(0 0 -0.000279313)
(0 0 -0.00109455)
(0 0 0.000122729)
(0 0 0.000787893)
(0 0 0.000380859)
(0 0 -6.60161e-05)
(0 0 -0.000452378)
(0 0 -1.11344e-05)
(0 0 -0.000196174)
(0 0 0.000210648)
(0 0 0.000810843)
(0 0 0.000673763)
(0 0 0.00070967)
(0 0 0.000171295)
(0 0 0.00012172)
(0 0 -6.09148e-05)
(0 0 -0.00145736)
(0 0 -0.00112902)
(0 0 0.000175019)
(0 0 -0.000839942)
(0 0 -0.00146206)
(0 0 -0.000435355)
(0 0 -0.000247223)
(0 0 -0.000104934)
(0 0 -0.00109948)
(0 0 -0.00139593)
(0 0 0.000503636)
(0 0 0.00111667)
(0 0 0.00073608)
(0 0 -3.75481e-05)
(0 0 -0.000525666)
(0 0 0.000438622)
(0 0 0.000324019)
(0 0 -0.00141518)
(0 0 -0.000254995)
(0 0 0.000391261)
(0 0 -0.00139384)
(0 0 -0.00154815)
(0 0 4.00414e-05)
(0 0 0.00164572)
(0 0 0.00128247)
(0 0 -0.00019577)
(0 0 -0.00139825)
(0 0 -0.000245731)
(0 0 0.00124403)
(0 0 0.00115811)
(0 0 -0.000185152)
(0 0 -0.00139026)
(0 0 0.000224075)
(0 0 0.000946279)
(0 0 -9.29278e-05)
(0 0 -0.000886019)
(0 0 2.84996e-05)
(0 0 0.000833091)
(0 0 0.000385758)
(0 0 0.000376272)
(0 0 0.000383625)
(0 0 0.000656674)
(0 0 0.000722601)
(0 0 0.000169407)
(0 0 0.000109183)
(0 0 0.000400221)
(0 0 0.00040203)
(0 0 -0.000117209)
(0 0 -0.00144957)
(0 0 -0.0010245)
(0 0 0.000275437)
(0 0 -0.000181868)
(0 0 0.000261738)
(0 0 0.000859285)
(0 0 0.000638859)
(0 0 -4.74866e-05)
(0 0 -0.00149425)
(0 0 -0.00013971)
(0 0 0.00067246)
(0 0 -0.000474245)
(0 0 -3.51079e-05)
(0 0 0.000169296)
(0 0 0.00133382)
(0 0 0.00130238)
(0 0 -0.000266672)
(0 0 -0.000475555)
(0 0 -0.00136862)
(0 0 -0.00135657)
(0 0 0.000609785)
(0 0 0.0010668)
(0 0 0.000382179)
(0 0 0.000367469)
(0 0 0.000365398)
(0 0 0.000371403)
(0 0 -0.000264503)
(0 0 -0.0014934)
(0 0 -0.000450275)
(0 0 0.000755968)
(0 0 -0.000282076)
(0 0 0.000131)
(0 0 0.000783868)
(0 0 0.000388613)
(0 0 0.000393994)
(0 0 0.000667611)
(0 0 0.000726894)
(0 0 0.000550061)
(0 0 7.38503e-06)
(0 0 -0.000539054)
(0 0 -0.000540583)
(0 0 -0.000532763)
(0 0 -0.00052884)
(0 0 -0.000528261)
(0 0 -0.000527815)
(0 0 -0.000517402)
(0 0 -0.000253345)
(0 0 0)
(0 0 0)
(0 0 0)
(0 0 0)
(0 0 0)
(0 0 -5.35593e-40)
(0 0 2.64825e-39)
(0 0 -1.09805e-38)
(0 0 4.23599e-38)
(0 0 -1.52705e-37)
(0 0 5.11644e-37)
(0 0 -1.57033e-36)
(0 0 4.26707e-36)
(0 0 -9.33517e-36)
(0 0 1.00747e-35)
(0 0 4.81581e-35)
(0 0 -4.55164e-34)
(0 0 2.52301e-33)
(0 0 -1.17363e-32)
(0 0 5.01082e-32)
(0 0 -2.04621e-31)
(0 0 8.18939e-31)
(0 0 -3.25839e-30)
(0 0 1.29545e-29)
(0 0 -5.12939e-29)
(0 0 2.00313e-28)
(0 0 -7.61066e-28)
(0 0 2.76782e-27)
(0 0 -9.44298e-27)
(0 0 2.93282e-26)
(0 0 -7.80828e-26)
(0 0 1.47634e-25)
(0 0 3.44108e-26)
(0 0 -2.25908e-24)
(0 0 1.52846e-23)
(0 0 -7.57187e-23)
(0 0 3.1975e-22)
(0 0 -1.20196e-21)
(0 0 4.0608e-21)
(0 0 -1.21549e-20)
(0 0 3.04969e-20)
(0 0 -5.19804e-20)
(0 0 -3.01468e-20)
(0 0 8.09661e-19)
(0 0 -4.72957e-18)
(0 0 1.98052e-17)
(0 0 -6.60274e-17)
(0 0 1.70985e-16)
(0 0 -2.80151e-16)
(0 0 -1.55998e-16)
(0 0 3.32464e-15)
(0 0 -1.457e-14)
(0 0 3.95762e-14)
(0 0 -6.34479e-14)
(0 0 -4.30542e-15)
(0 0 4.90704e-13)
(0 0 -3.37741e-12)
(0 0 2.28998e-11)
(0 0 -1.30704e-10)
(0 0 5.20627e-10)
(0 0 -1.10042e-09)
(0 0 -6.16582e-10)
(0 0 2.65501e-09)
(0 0 1.68611e-07)
(0 0 0.000250418)
(0 0 0.000521507)
(0 0 0.000545922)
(0 0 0.000550228)
(0 0 0.000551145)
(0 0 0.000551262)
(0 0 0.000551219)
(0 0 0.000551167)
(0 0 0.000550416)
(0 0 -8.93e-06)
(0 0 0.00030622)
(0 0 0.000720091)
(0 0 0.000280192)
(0 0 0.000288841)
(0 0 0.000282565)
(0 0 0.000305563)
(0 0 0.00031178)
(0 0 -0.000134996)
(0 0 -0.00155357)
(0 0 -0.00115118)
(0 0 0.000271882)
(0 0 -0.000129652)
(0 0 0.000316286)
(0 0 0.00113837)
(0 0 0.000850864)
(0 0 0.000621642)
(0 0 0.000858893)
(0 0 -0.000441166)
(0 0 -0.00250693)
(0 0 -0.000964591)
(0 0 0.0014158)
(0 0 0.00107035)
(0 0 0.000686069)
(0 0 0.00121892)
(0 0 0.000650576)
(0 0 -0.000699328)
(0 0 -0.0010691)
(0 0 0.000308621)
(0 0 0.000950752)
(0 0 -0.000226717)
(0 0 -0.00145441)
(0 0 -0.00140842)
(0 0 -0.000137528)
(0 0 0.000746685)
(0 0 0.000673321)
(0 0 -0.000352817)
(0 0 -0.0013862)
(0 0 -0.00100018)
(0 0 0.000614844)
(0 0 0.00112863)
(0 0 -0.000116418)
(0 0 -0.00196492)
(0 0 -0.00168354)
(0 0 -0.000543667)
(0 0 0.000210618)
(0 0 0.000713937)
(0 0 -0.000358817)
(0 0 9.44197e-05)
(0 0 0.000250194)
(0 0 -0.000758171)
(0 0 0.000283134)
(0 0 -3.576e-05)
(0 0 -0.00210554)
(0 0 -0.000710116)
(0 0 0.00119181)
(0 0 0.00117689)
(0 0 0.000518298)
(0 0 -0.00165127)
(0 0 -0.0017982)
(0 0 -0.00077765)
(0 0 -0.000323787)
(0 0 -0.000138073)
(0 0 0.000832062)
(0 0 0.000413814)
(0 0 -0.00196721)
(0 0 -0.000687484)
(0 0 0.00121227)
(0 0 0.000810218)
(0 0 0.000363488)
(0 0 0.000366595)
(0 0 -0.00013523)
(0 0 -0.000809692)
(0 0 -0.00030032)
(0 0 0.000353609)
(0 0 0.00156757)
(0 0 0.00128393)
(0 0 -0.000271851)
(0 0 5.79119e-05)
(0 0 0.000629387)
(0 0 0.00068177)
(0 0 -0.000161952)
(0 0 -0.00145814)
(0 0 -0.00134301)
(0 0 0.000205064)
(0 0 0.000684837)
(0 0 -0.00088535)
(0 0 -0.0017215)
(0 0 -0.00066889)
(0 0 0.000721371)
(0 0 0.000901056)
(0 0 -0.000184463)
(0 0 -0.00152054)
(0 0 -0.00173408)
(0 0 -0.000482027)
(0 0 0.000803836)
(0 0 0.000934754)
(0 0 -6.74247e-05)
(0 0 -0.000499438)
(0 0 1.15458e-05)
(0 0 -0.000391592)
(0 0 0.000148395)
(0 0 0.000539337)
(0 0 9.24178e-06)
(0 0 0.00159474)
(0 0 0.00131733)
(0 0 -0.000114965)
(0 0 0.000143256)
(0 0 0.000691066)
(0 0 0.000180199)
(0 0 -0.00121464)
(0 0 -6.76591e-05)
(0 0 0.00148088)
(0 0 0.000157685)
(0 0 -0.00121479)
(0 0 -0.000136013)
(0 0 0.000923221)
(0 0 -0.000279244)
(0 0 -0.00109106)
(0 0 0.000122365)
(0 0 0.000786591)
(0 0 0.000380957)
(0 0 -6.54667e-05)
(0 0 -0.000450549)
(0 0 -1.17318e-05)
(0 0 -0.000195136)
(0 0 0.000210491)
(0 0 0.000809002)
(0 0 0.000673369)
(0 0 0.000708323)
(0 0 0.00017169)
(0 0 0.0001209)
(0 0 -6.26752e-05)
(0 0 -0.00145368)
(0 0 -0.00112653)
(0 0 0.000172447)
(0 0 -0.000838304)
(0 0 -0.00145877)
(0 0 -0.000435812)
(0 0 -0.000246521)
(0 0 -0.00010625)
(0 0 -0.00109782)
(0 0 -0.00139161)
(0 0 0.000502406)
(0 0 0.00111476)
(0 0 0.000734514)
(0 0 -3.72191e-05)
(0 0 -0.000523106)
(0 0 0.000436908)
(0 0 0.000321631)
(0 0 -0.00141019)
(0 0 -0.000255614)
(0 0 0.000387312)
(0 0 -0.00139116)
(0 0 -0.00154448)
(0 0 4.09278e-05)
(0 0 0.00164193)
(0 0 0.00127913)
(0 0 -0.000195945)
(0 0 -0.00139405)
(0 0 -0.0002448)
(0 0 0.00124105)
(0 0 0.00115491)
(0 0 -0.00018561)
(0 0 -0.00138568)
(0 0 0.000223183)
(0 0 0.000943754)
(0 0 -9.28307e-05)
(0 0 -0.000883351)
(0 0 2.85699e-05)
(0 0 0.000831297)
(0 0 0.000386277)
(0 0 0.000375763)
(0 0 0.000383263)
(0 0 0.000655506)
(0 0 0.000721152)
(0 0 0.000170076)
(0 0 0.000109332)
(0 0 0.000398736)
(0 0 0.000400129)
(0 0 -0.000118863)
(0 0 -0.00144645)
(0 0 -0.00102243)
(0 0 0.000273502)
(0 0 -0.000180123)
(0 0 0.000261808)
(0 0 0.000857833)
(0 0 0.000637942)
(0 0 -4.85282e-05)
(0 0 -0.00148951)
(0 0 -0.000140112)
(0 0 0.000670186)
(0 0 -0.000471308)
(0 0 -3.52049e-05)
(0 0 0.00017082)
(0 0 0.00133093)
(0 0 0.00129859)
(0 0 -0.000265711)
(0 0 -0.000476907)
(0 0 -0.00136656)
(0 0 -0.00135301)
(0 0 0.00060766)
(0 0 0.00106472)
(0 0 0.000382449)
(0 0 0.000367079)
(0 0 0.000364983)
(0 0 0.000369525)
(0 0 -0.000265958)
(0 0 -0.00148936)
(0 0 -0.000448945)
(0 0 0.000753395)
(0 0 -0.000279584)
(0 0 0.000131052)
(0 0 0.000782159)
(0 0 0.000389252)
(0 0 0.000393857)
(0 0 0.000665866)
(0 0 0.000724952)
(0 0 0.000548678)
(0 0 7.51765e-06)
(0 0 -0.000537573)
(0 0 -0.00053978)
(0 0 -0.000531938)
(0 0 -0.000528067)
(0 0 -0.000527463)
(0 0 -0.000527025)
(0 0 -0.000516262)
(0 0 -0.000252788)
(0 0 -1.86637e-07)
(0 0 -1.44528e-08)
(0 0 -1.17833e-08)
(0 0 0)
(0 0 0)
(0 0 3.81147e-40)
(0 0 -1.56826e-39)
(0 0 5.17792e-39)
(0 0 -1.47458e-38)
(0 0 3.12862e-38)
(0 0 -8.14338e-39)
(0 0 -4.21509e-37)
(0 0 3.30301e-36)
(0 0 -1.84291e-35)
(0 0 8.84496e-35)
(0 0 -3.86673e-34)
(0 0 1.57913e-33)
(0 0 -6.1066e-33)
(0 0 2.25463e-32)
(0 0 -7.9919e-32)
(0 0 2.73033e-31)
(0 0 -9.01226e-31)
(0 0 2.87488e-30)
(0 0 -8.82682e-30)
(0 0 2.5736e-29)
(0 0 -6.87552e-29)
(0 0 1.51526e-28)
(0 0 -1.54288e-28)
(0 0 -1.03488e-27)
(0 0 1.00215e-26)
(0 0 -5.97504e-26)
(0 0 2.9745e-25)
(0 0 -1.32652e-24)
(0 0 5.43428e-24)
(0 0 -2.06454e-23)
(0 0 7.28315e-23)
(0 0 -2.37095e-22)
(0 0 6.99213e-22)
(0 0 -1.77963e-21)
(0 0 3.32308e-21)
(0 0 -2.52135e-22)
(0 0 -3.96915e-20)
(0 0 2.68121e-19)
(0 0 -1.28057e-18)
(0 0 5.05429e-18)
(0 0 -1.68556e-17)
(0 0 4.57065e-17)
(0 0 -8.56822e-17)
(0 0 9.39863e-18)
(0 0 7.83797e-16)
(0 0 -3.97948e-15)
(0 0 1.14496e-14)
(0 0 -1.35648e-14)
(0 0 -6.29976e-14)
(0 0 5.31772e-13)
(0 0 -2.62816e-12)
(0 0 1.20603e-11)
(0 0 -5.62773e-11)
(0 0 2.35163e-10)
(0 0 -6.78355e-10)
(0 0 2.92155e-10)
(0 0 8.51009e-09)
(0 0 -4.72776e-08)
(0 0 2.78937e-07)
(0 0 0.000251037)
(0 0 0.000522597)
(0 0 0.000547216)
(0 0 0.000551512)
(0 0 0.000552417)
(0 0 0.00055253)
(0 0 0.000552478)
(0 0 0.000552573)
(0 0 0.000551293)
(0 0 -8.6388e-06)
(0 0 0.000306548)
(0 0 0.00072042)
(0 0 0.000281209)
(0 0 0.000290205)
(0 0 0.000283321)
(0 0 0.000306527)
(0 0 0.00031353)
(0 0 -0.00013431)
(0 0 -0.0015549)
(0 0 -0.00115293)
(0 0 0.000270699)
(0 0 -0.000130218)
(0 0 0.000316662)
(0 0 0.0011402)
(0 0 0.000853312)
(0 0 0.000624041)
(0 0 0.000860917)
(0 0 -0.000441471)
(0 0 -0.00250983)
(0 0 -0.000967042)
(0 0 0.00141569)
(0 0 0.00107114)
(0 0 0.000686734)
(0 0 0.00122048)
(0 0 0.000652845)
(0 0 -0.000698689)
(0 0 -0.00107021)
(0 0 0.000307916)
(0 0 0.000951693)
(0 0 -0.000225701)
(0 0 -0.0014559)
(0 0 -0.00141153)
(0 0 -0.000139411)
(0 0 0.000747787)
(0 0 0.00067582)
(0 0 -0.000352253)
(0 0 -0.00138818)
(0 0 -0.00100246)
(0 0 0.000614355)
(0 0 0.00112997)
(0 0 -0.000115687)
(0 0 -0.00196695)
(0 0 -0.00168727)
(0 0 -0.000546245)
(0 0 0.000210386)
(0 0 0.000714074)
(0 0 -0.000359005)
(0 0 9.42337e-05)
(0 0 0.000249285)
(0 0 -0.000759089)
(0 0 0.000283663)
(0 0 -3.52892e-05)
(0 0 -0.00210715)
(0 0 -0.000712275)
(0 0 0.00119205)
(0 0 0.00117963)
(0 0 0.000519401)
(0 0 -0.00165348)
(0 0 -0.00180118)
(0 0 -0.000779456)
(0 0 -0.000324972)
(0 0 -0.000138519)
(0 0 0.000833729)
(0 0 0.000415138)
(0 0 -0.00196865)
(0 0 -0.000689642)
(0 0 0.00121168)
(0 0 0.000810871)
(0 0 0.000364649)
(0 0 0.000367423)
(0 0 -0.00013567)
(0 0 -0.000810895)
(0 0 -0.000301674)
(0 0 0.00035348)
(0 0 0.00156936)
(0 0 0.00128559)
(0 0 -0.000271736)
(0 0 5.7359e-05)
(0 0 0.000629873)
(0 0 0.000682775)
(0 0 -0.000162614)
(0 0 -0.00146091)
(0 0 -0.00134567)
(0 0 0.000204577)
(0 0 0.000685238)
(0 0 -0.000886355)
(0 0 -0.00172384)
(0 0 -0.000670323)
(0 0 0.000721763)
(0 0 0.000901786)
(0 0 -0.000185069)
(0 0 -0.00152263)
(0 0 -0.00173636)
(0 0 -0.000482917)
(0 0 0.000804878)
(0 0 0.000936137)
(0 0 -6.69629e-05)
(0 0 -0.000499729)
(0 0 1.05847e-05)
(0 0 -0.000392444)
(0 0 0.000148047)
(0 0 0.000538589)
(0 0 9.205e-06)
(0 0 0.00159655)
(0 0 0.00131935)
(0 0 -0.000114451)
(0 0 0.000143016)
(0 0 0.000691852)
(0 0 0.000180344)
(0 0 -0.00121595)
(0 0 -6.73549e-05)
(0 0 0.00148342)
(0 0 0.000159485)
(0 0 -0.00121518)
(0 0 -0.000135923)
(0 0 0.0009248)
(0 0 -0.000278624)
(0 0 -0.00109208)
(0 0 0.000121202)
(0 0 0.000786354)
(0 0 0.000380873)
(0 0 -6.63462e-05)
(0 0 -0.0004515)
(0 0 -1.24466e-05)
(0 0 -0.000195442)
(0 0 0.00021105)
(0 0 0.000810031)
(0 0 0.000674581)
(0 0 0.000708981)
(0 0 0.000172313)
(0 0 0.000122222)
(0 0 -6.25479e-05)
(0 0 -0.00145538)
(0 0 -0.00112839)
(0 0 0.00017103)
(0 0 -0.000839799)
(0 0 -0.00146045)
(0 0 -0.000437487)
(0 0 -0.000247355)
(0 0 -0.000106361)
(0 0 -0.001099)
(0 0 -0.001394)
(0 0 0.000500827)
(0 0 0.00111573)
(0 0 0.000736312)
(0 0 -3.73237e-05)
(0 0 -0.000523952)
(0 0 0.000437359)
(0 0 0.000321695)
(0 0 -0.00141144)
(0 0 -0.000255762)
(0 0 0.000388391)
(0 0 -0.00139156)
(0 0 -0.00154706)
(0 0 3.93722e-05)
(0 0 0.00164389)
(0 0 0.00128247)
(0 0 -0.000195117)
(0 0 -0.00139566)
(0 0 -0.000245955)
(0 0 0.00124239)
(0 0 0.00115755)
(0 0 -0.000184762)
(0 0 -0.00138688)
(0 0 0.00022206)
(0 0 0.000944228)
(0 0 -9.23406e-05)
(0 0 -0.000883957)
(0 0 2.79932e-05)
(0 0 0.000831195)
(0 0 0.000386567)
(0 0 0.000376467)
(0 0 0.000384362)
(0 0 0.000656923)
(0 0 0.000722043)
(0 0 0.000170102)
(0 0 0.000109909)
(0 0 0.000400488)
(0 0 0.000402324)
(0 0 -0.000117891)
(0 0 -0.00144739)
(0 0 -0.0010239)
(0 0 0.000272334)
(0 0 -0.000180709)
(0 0 0.000261743)
(0 0 0.000858239)
(0 0 0.00063883)
(0 0 -4.8821e-05)
(0 0 -0.00149075)
(0 0 -0.000141034)
(0 0 0.000669398)
(0 0 -0.000471946)
(0 0 -3.62758e-05)
(0 0 0.000170631)
(0 0 0.00133302)
(0 0 0.00130149)
(0 0 -0.00026344)
(0 0 -0.000476311)
(0 0 -0.0013678)
(0 0 -0.00135456)
(0 0 0.000607227)
(0 0 0.00106575)
(0 0 0.000383647)
(0 0 0.000367475)
(0 0 0.000365879)
(0 0 0.000371502)
(0 0 -0.000265036)
(0 0 -0.0014908)
(0 0 -0.000450939)
(0 0 0.000752049)
(0 0 -0.000280101)
(0 0 0.000131265)
(0 0 0.000782383)
(0 0 0.000389159)
(0 0 0.00039465)
(0 0 0.000668159)
(0 0 0.000727557)
(0 0 0.000550162)
(0 0 7.36916e-06)
(0 0 -0.000538614)
(0 0 -0.000541094)
(0 0 -0.000533218)
(0 0 -0.000529294)
(0 0 -0.000528703)
(0 0 -0.000528313)
(0 0 -0.000517356)
(0 0 -0.000253355)
(0 0 -3.09592e-07)
(0 0 2.56189e-08)
(0 0 -1.74276e-09)
(0 0 0)
(0 0 0)
(0 0 -3.1788e-39)
(0 0 1.60087e-38)
(0 0 -6.6194e-38)
(0 0 2.51037e-37)
(0 0 -8.7562e-37)
(0 0 2.77309e-36)
(0 0 -7.70489e-36)
(0 0 1.70022e-35)
(0 0 -1.73393e-35)
(0 0 -9.82109e-35)
(0 0 8.85794e-34)
(0 0 -4.77985e-33)
(0 0 2.14387e-32)
(0 0 -8.69386e-32)
(0 0 3.32003e-31)
(0 0 -1.22977e-30)
(0 0 4.5364e-30)
(0 0 -1.70322e-29)
(0 0 6.58081e-29)
(0 0 -2.60523e-28)
(0 0 1.03883e-27)
(0 0 -4.07901e-27)
(0 0 1.54163e-26)
(0 0 -5.48178e-26)
(0 0 1.78276e-25)
(0 0 -5.04353e-25)
(0 0 1.08112e-24)
(0 0 -5.71878e-25)
(0 0 -1.11489e-23)
(0 0 8.67806e-23)
(0 0 -4.56357e-22)
(0 0 2.00709e-21)
(0 0 -7.79735e-21)
(0 0 2.71014e-20)
(0 0 -8.31472e-20)
(0 0 2.13119e-19)
(0 0 -3.70974e-19)
(0 0 -1.9875e-19)
(0 0 5.73174e-18)
(0 0 -3.35632e-17)
(0 0 1.39604e-16)
(0 0 -4.57658e-16)
(0 0 1.1403e-15)
(0 0 -1.61764e-15)
(0 0 -2.66771e-15)
(0 0 2.92539e-14)
(0 0 -1.20662e-13)
(0 0 3.18856e-13)
(0 0 -4.67372e-13)
(0 0 -2.78491e-13)
(0 0 3.2374e-12)
(0 0 -3.06635e-12)
(0 0 -5.00823e-11)
(0 0 4.06489e-10)
(0 0 -2.08591e-09)
(0 0 8.15682e-09)
(0 0 -2.08468e-08)
(0 0 -7.19806e-09)
(0 0 6.13158e-07)
(0 0 0.000249775)
(0 0 0.000520267)
(0 0 0.000545545)
(0 0 0.000549847)
(0 0 0.000550757)
(0 0 0.000550837)
(0 0 0.000550895)
(0 0 0.000550765)
(0 0 0.000548712)
(0 0 -6.38601e-06)
(0 0 0.000305766)
(0 0 0.000717371)
(0 0 0.000281067)
(0 0 0.00028839)
(0 0 0.000282943)
(0 0 0.000305153)
(0 0 0.000310362)
(0 0 -0.000136577)
(0 0 -0.00154698)
(0 0 -0.00114832)
(0 0 0.000266396)
(0 0 -0.000127234)
(0 0 0.000316409)
(0 0 0.00113395)
(0 0 0.000850653)
(0 0 0.000622928)
(0 0 0.000854519)
(0 0 -0.000441875)
(0 0 -0.0024949)
(0 0 -0.00096331)
(0 0 0.00140623)
(0 0 0.00106996)
(0 0 0.000687985)
(0 0 0.00121458)
(0 0 0.000648335)
(0 0 -0.000695272)
(0 0 -0.00106375)
(0 0 0.000305757)
(0 0 0.000945318)
(0 0 -0.000225975)
(0 0 -0.00144909)
(0 0 -0.00140446)
(0 0 -0.000139615)
(0 0 0.000743018)
(0 0 0.000670497)
(0 0 -0.000351472)
(0 0 -0.00138092)
(0 0 -0.00099718)
(0 0 0.000610772)
(0 0 0.00112332)
(0 0 -0.000117149)
(0 0 -0.0019568)
(0 0 -0.00168053)
(0 0 -0.000545342)
(0 0 0.000209334)
(0 0 0.00070959)
(0 0 -0.000354107)
(0 0 9.31449e-05)
(0 0 0.000247056)
(0 0 -0.00075204)
(0 0 0.000278667)
(0 0 -4.00602e-05)
(0 0 -0.00209395)
(0 0 -0.000709585)
(0 0 0.00118471)
(0 0 0.00117466)
(0 0 0.000515258)
(0 0 -0.00164359)
(0 0 -0.00179476)
(0 0 -0.000779267)
(0 0 -0.000324227)
(0 0 -0.000135908)
(0 0 0.000827353)
(0 0 0.000408502)
(0 0 -0.00195531)
(0 0 -0.000686905)
(0 0 0.00120401)
(0 0 0.000809972)
(0 0 0.00036426)
(0 0 0.000365125)
(0 0 -0.000134911)
(0 0 -0.0008063)
(0 0 -0.000300358)
(0 0 0.000354455)
(0 0 0.00156175)
(0 0 0.00128038)
(0 0 -0.000265861)
(0 0 5.78112e-05)
(0 0 0.000627109)
(0 0 0.000679303)
(0 0 -0.000162167)
(0 0 -0.00145311)
(0 0 -0.0013391)
(0 0 0.000201263)
(0 0 0.000679465)
(0 0 -0.000881877)
(0 0 -0.00171542)
(0 0 -0.000668534)
(0 0 0.000717322)
(0 0 0.00089785)
(0 0 -0.000184181)
(0 0 -0.0015163)
(0 0 -0.00172947)
(0 0 -0.000482296)
(0 0 0.0007999)
(0 0 0.000931698)
(0 0 -6.52636e-05)
(0 0 -0.000496589)
(0 0 9.04281e-06)
(0 0 -0.000388735)
(0 0 0.000147373)
(0 0 0.00053639)
(0 0 1.46004e-05)
(0 0 0.00158755)
(0 0 0.00131417)
(0 0 -0.000109618)
(0 0 0.000143568)
(0 0 0.000687409)
(0 0 0.000178252)
(0 0 -0.00120657)
(0 0 -6.80001e-05)
(0 0 0.0014721)
(0 0 0.000158832)
(0 0 -0.00120704)
(0 0 -0.000136939)
(0 0 0.000916029)
(0 0 -0.000276961)
(0 0 -0.00108465)
(0 0 0.000119995)
(0 0 0.000783063)
(0 0 0.000380868)
(0 0 -6.50626e-05)
(0 0 -0.000448307)
(0 0 -1.38313e-05)
(0 0 -0.000193403)
(0 0 0.000210252)
(0 0 0.000806401)
(0 0 0.000673526)
(0 0 0.000706376)
(0 0 0.000173038)
(0 0 0.000120274)
(0 0 -6.4958e-05)
(0 0 -0.00144732)
(0 0 -0.0011238)
(0 0 0.000165934)
(0 0 -0.000836121)
(0 0 -0.00145365)
(0 0 -0.000438073)
(0 0 -0.000246287)
(0 0 -0.000109244)
(0 0 -0.0010945)
(0 0 -0.00138491)
(0 0 0.000497318)
(0 0 0.00111073)
(0 0 0.000733412)
(0 0 -3.56494e-05)
(0 0 -0.000519173)
(0 0 0.000432983)
(0 0 0.000317736)
(0 0 -0.00140067)
(0 0 -0.000257993)
(0 0 0.000380835)
(0 0 -0.00138448)
(0 0 -0.00153908)
(0 0 3.98264e-05)
(0 0 0.00163479)
(0 0 0.00127612)
(0 0 -0.000193737)
(0 0 -0.00138693)
(0 0 -0.000244908)
(0 0 0.00123548)
(0 0 0.00115117)
(0 0 -0.000184136)
(0 0 -0.00137705)
(0 0 0.000219726)
(0 0 0.000938154)
(0 0 -9.14884e-05)
(0 0 -0.000877943)
(0 0 2.75212e-05)
(0 0 0.00082717)
(0 0 0.000387265)
(0 0 0.000375031)
(0 0 0.000383686)
(0 0 0.000654503)
(0 0 0.000719154)
(0 0 0.000171636)
(0 0 0.000109512)
(0 0 0.000397512)
(0 0 0.00039911)
(0 0 -0.000120315)
(0 0 -0.00144011)
(0 0 -0.00101982)
(0 0 0.000268162)
(0 0 -0.00017755)
(0 0 0.000261488)
(0 0 0.000855034)
(0 0 0.000636351)
(0 0 -5.01022e-05)
(0 0 -0.00148083)
(0 0 -0.000142343)
(0 0 0.000664845)
(0 0 -0.000466634)
(0 0 -3.64132e-05)
(0 0 0.00017294)
(0 0 0.00132595)
(0 0 0.00129429)
(0 0 -0.000260702)
(0 0 -0.000478138)
(0 0 -0.00136267)
(0 0 -0.00134739)
(0 0 0.000602376)
(0 0 0.00106092)
(0 0 0.000384292)
(0 0 0.000367026)
(0 0 0.000364509)
(0 0 0.000367635)
(0 0 -0.00026657)
(0 0 -0.00148151)
(0 0 -0.000449032)
(0 0 0.000746251)
(0 0 -0.000275407)
(0 0 0.00013104)
(0 0 0.000778854)
(0 0 0.000390341)
(0 0 0.000393542)
(0 0 0.000664477)
(0 0 0.000724372)
(0 0 0.000547829)
(0 0 7.9632e-06)
(0 0 -0.00053574)
(0 0 -0.000539525)
(0 0 -0.000531599)
(0 0 -0.000527682)
(0 0 -0.000527088)
(0 0 -0.000526648)
(0 0 -0.000515225)
(0 0 -0.000252575)
(0 0 -7.65089e-07)
(0 0 5.01272e-08)
(0 0 1.04767e-08)
(0 0 0)
(0 0 0)
(0 0 2.17855e-39)
(0 0 -9.88225e-39)
(0 0 3.48357e-38)
(0 0 -1.05991e-37)
(0 0 2.53342e-37)
(0 0 -2.59349e-37)
(0 0 -1.93999e-36)
(0 0 1.83327e-35)
(0 0 -1.06664e-34)
(0 0 5.15761e-34)
(0 0 -2.23496e-33)
(0 0 8.95284e-33)
(0 0 -3.37011e-32)
(0 0 1.20503e-31)
(0 0 -4.1304e-31)
(0 0 1.37071e-30)
(0 0 -4.45827e-30)
(0 0 1.4418e-29)
(0 0 -4.69823e-29)
(0 0 1.55094e-28)
(0 0 -5.13467e-28)
(0 0 1.65396e-27)
(0 0 -4.89195e-27)
(0 0 1.1657e-26)
(0 0 -1.10047e-26)
(0 0 -1.05962e-25)
(0 0 9.97773e-25)
(0 0 -5.93085e-24)
(0 0 2.9189e-23)
(0 0 -1.27289e-22)
(0 0 5.04095e-22)
(0 0 -1.82578e-21)
(0 0 6.01124e-21)
(0 0 -1.75437e-20)
(0 0 4.216e-20)
(0 0 -6.1102e-20)
(0 0 -1.24131e-19)
(0 0 1.58792e-18)
(0 0 -8.84123e-18)
(0 0 3.74755e-17)
(0 0 -1.30487e-16)
(0 0 3.66425e-16)
(0 0 -7.21247e-16)
(0 0 2.10775e-16)
(0 0 6.2288e-15)
(0 0 -3.50338e-14)
(0 0 1.2022e-13)
(0 0 -2.84316e-13)
(0 0 4.26804e-13)
(0 0 -5.03843e-13)
(0 0 3.9696e-12)
(0 0 -3.67717e-11)
(0 0 2.20501e-10)
(0 0 -1.01828e-09)
(0 0 3.99638e-09)
(0 0 -1.31952e-08)
(0 0 3.18124e-08)
(0 0 -6.387e-08)
(0 0 6.26917e-07)
(0 0 0.000250208)
(0 0 0.000520935)
(0 0 0.000546225)
(0 0 0.000550432)
(0 0 0.000551344)
(0 0 0.000551511)
(0 0 0.000551319)
(0 0 0.000551669)
(0 0 0.000549056)
(0 0 -6.6315e-06)
(0 0 0.000306149)
(0 0 0.000717344)
(0 0 0.000281704)
(0 0 0.000289412)
(0 0 0.000283043)
(0 0 0.000305246)
(0 0 0.000311824)
(0 0 -0.000136168)
(0 0 -0.0015486)
(0 0 -0.00114929)
(0 0 0.000266149)
(0 0 -0.000127374)
(0 0 0.000316509)
(0 0 0.00113545)
(0 0 0.000852049)
(0 0 0.000623749)
(0 0 0.000855801)
(0 0 -0.000442261)
(0 0 -0.00249748)
(0 0 -0.000964792)
(0 0 0.00140728)
(0 0 0.00107077)
(0 0 0.00068784)
(0 0 0.0012154)
(0 0 0.00065024)
(0 0 -0.000695385)
(0 0 -0.00106508)
(0 0 0.000305303)
(0 0 0.000946355)
(0 0 -0.000224898)
(0 0 -0.00145063)
(0 0 -0.00140666)
(0 0 -0.000140542)
(0 0 0.000744464)
(0 0 0.000672524)
(0 0 -0.000351559)
(0 0 -0.00138292)
(0 0 -0.000998547)
(0 0 0.00061092)
(0 0 0.0011247)
(0 0 -0.000116532)
(0 0 -0.00195861)
(0 0 -0.00168312)
(0 0 -0.000546587)
(0 0 0.00021043)
(0 0 0.000709669)
(0 0 -0.000354577)
(0 0 9.33428e-05)
(0 0 0.000246537)
(0 0 -0.000753053)
(0 0 0.000279508)
(0 0 -3.91908e-05)
(0 0 -0.00209558)
(0 0 -0.000711277)
(0 0 0.00118519)
(0 0 0.00117744)
(0 0 0.000515586)
(0 0 -0.00164594)
(0 0 -0.00179672)
(0 0 -0.000779407)
(0 0 -0.000324491)
(0 0 -0.000136747)
(0 0 0.000829141)
(0 0 0.000409732)
(0 0 -0.00195721)
(0 0 -0.000688651)
(0 0 0.00120455)
(0 0 0.000810615)
(0 0 0.000364798)
(0 0 0.000365794)
(0 0 -0.00013564)
(0 0 -0.000807002)
(0 0 -0.000301145)
(0 0 0.000354378)
(0 0 0.00156342)
(0 0 0.00128144)
(0 0 -0.000266338)
(0 0 5.69266e-05)
(0 0 0.000627761)
(0 0 0.000680295)
(0 0 -0.000162757)
(0 0 -0.00145525)
(0 0 -0.00134076)
(0 0 0.000201846)
(0 0 0.000680257)
(0 0 -0.000882675)
(0 0 -0.00171734)
(0 0 -0.000669104)
(0 0 0.000718205)
(0 0 0.000898478)
(0 0 -0.000184798)
(0 0 -0.0015178)
(0 0 -0.00173073)
(0 0 -0.00048261)
(0 0 0.000801154)
(0 0 0.000932618)
(0 0 -6.54984e-05)
(0 0 -0.000496812)
(0 0 8.3917e-06)
(0 0 -0.00038936)
(0 0 0.000147736)
(0 0 0.000535792)
(0 0 1.43098e-05)
(0 0 0.00158917)
(0 0 0.00131561)
(0 0 -0.000109883)