/*--------------------------------*- C++ -*----------------------------------*\
| =========                 |                                                 |
| \\      /  F ield         | foam-extend: Open Source CFD                    |
|  \\    /   O peration     | Version:     3.2                                |
|   \\  /    A nd           | Web:         http://www.foam-extend.org         |
|    \\/     M anipulation  | For copyright notice see file Copyright         |
\*---------------------------------------------------------------------------*/
FoamFile
{
    version     2.0;
    format      ascii;
    class       pointVectorField;
    location    "50";
    object      newMeshPoints;
}
// * * * * * * * * * * * * * * * * * * * * * * * * * * * * * * * * * * * * * //

dimensions      [0 1 0 0 0 0 0];

internalField   nonuniform List<vector> 
11438
(
(0 0 0)
(0.05 0 -0.00025)
(0.1 0 -0.0005)
(0.15 0 -0.00075)
(0.2 0 -0.001)
(0.25 0 -0.00125)
(0.3 0 -0.0015)
(0.35 0 -0.00175)
(0.4 0 -0.002)
(0.45 0 -0.00225)
(0.5 0 -0.0025)
(0.55 0 -0.00275)
(0.6 0 -0.003)
(0.65 0 -0.00325)
(0.7 0 -0.0035)
(0.75 0 -0.00375)
(0.8 0 -0.004)
(0.85 0 -0.00425)
(0.9 0 -0.0045)
(0.95 0 -0.00475)
(1 0 -0.005)
(1.05 0 -0.00525)
(1.1 0 -0.0055)
(1.15 0 -0.00575)
(1.2 0 -0.006)
(1.25 0 -0.00625)
(1.3 0 -0.0065)
(1.35 0 -0.00675)
(1.4 0 -0.007)
(1.45 0 -0.00725)
(1.5 0 -0.0075)
(1.55 0 -0.00775)
(1.6 0 -0.008)
(1.65 0 -0.00825)
(1.7 0 -0.0085)
(1.75 0 -0.00875)
(1.8 0 -0.009)
(1.85 0 -0.00925)
(1.9 0 -0.0095)
(1.95 0 -0.00975)
(2 0 -0.01)
(2.05 0 -0.01025)
(2.1 0 -0.0105)
(2.15 0 -0.01075)
(2.2 0 -0.011)
(2.25 0 -0.01125)
(2.3 0 -0.0115)
(2.35 0 -0.01175)
(2.4 0 -0.012)
(2.45 0 -0.01225)
(2.5 0 -0.0125)
(2.55 0 -0.01275)
(2.6 0 -0.013)
(2.65 0 -0.01325)
(2.7 0 -0.0135)
(2.75 0 -0.01375)
(2.8 0 -0.014)
(2.85 0 -0.01425)
(2.9 0 -0.0145)
(2.95 0 -0.01475)
(3 0 -0.0160461)
(3.05 0 -0.0175772)
(3.1 0 -0.0181688)
(3.15 0 -0.018518)
(3.2 0 -0.0187812)
(3.25 0 -0.0190424)
(3.3 0 -0.0192921)
(3.35 0 -0.0195407)
(3.4 0 -0.0198016)
(3.45 0 -0.0200352)
(3.5 0 -0.0203371)
(3.55 0 -0.0205904)
(3.6 0 -0.0208441)
(3.65 0 -0.0210938)
(3.7 0 -0.02134)
(3.75 0 -0.0215856)
(3.8 0 -0.0218504)
(3.85 0 -0.0220961)
(3.9 0 -0.0223279)
(3.95 0 -0.0225869)
(4 0 -0.0228186)
(4.05 0 -0.02312)
(4.1 0 -0.0232213)
(4.15 0 -0.0237151)
(4.2 0 -0.0237345)
(4.25 0 -0.0240006)
(4.3 0 -0.0244196)
(4.35 0 -0.0244948)
(4.4 0 -0.0247963)
(4.45 0 -0.0248663)
(4.5 0 -0.0253744)
(4.55 0 -0.0255637)
(4.6 0 -0.0258679)
(4.65 0 -0.0260507)
(4.7 0 -0.0262995)
(4.75 0 -0.0266114)
(4.8 0 -0.0268147)
(4.85 0 -0.0270928)
(4.9 0 -0.0273271)
(4.95 0 -0.0276232)
(5 0 -0.0278093)
(5.05 0 -0.0280841)
(5.1 0 -0.0281054)
(5.15 0 -0.0287932)
(5.2 0 -0.0288733)
(5.25 0 -0.0282803)
(5.3 0 -0.0288478)
(5.35 0 -0.0295779)
(5.4 0 -0.029828)
(5.45 0 -0.0301209)
(5.5 0 -0.0303282)
(5.55 0 -0.0305115)
(5.6 0 -0.0307556)
(5.65 0 -0.0309214)
(5.7 0 -0.0312107)
(5.75 0 -0.0315563)
(5.8 0 -0.0318644)
(5.85 0 -0.0320339)
(5.9 0 -0.0323914)
(5.95 0 -0.0325304)
(6 0 -0.0327873)
(6.05 0 -0.033164)
(6.1 0 -0.0330683)
(6.15 0 -0.033328)
(6.2 0 -0.033829)
(6.25 0 -0.0341236)
(6.3 0 -0.0343165)
(6.35 0 -0.0345957)
(6.4 0 -0.0348101)
(6.45 0 -0.0350381)
(6.5 0 -0.0353746)
(6.55 0 -0.0355759)
(6.6 0 -0.0357643)
(6.65 0 -0.0362169)
(6.7 0 -0.0357598)
(6.75 0 -0.0361449)
(6.8 0 -0.0368575)
(6.85 0 -0.0370823)
(6.9 0 -0.0373578)
(6.95 0 -0.0375688)
(7 0 -0.0378526)
(7.05 0 -0.0380667)
(7.1 0 -0.0383389)
(7.15 0 -0.0385894)
(7.2 0 -0.0388253)
(7.25 0 -0.0389514)
(7.3 0 -0.0393717)
(7.35 0 -0.0395583)
(7.4 0 -0.0398667)
(7.45 0 -0.040079)
(7.5 0 -0.0403269)
(7.55 0 -0.0405929)
(7.6 0 -0.040807)
(7.65 0 -0.0410206)
(7.7 0 -0.0413756)
(7.75 0 -0.0415578)
(7.8 0 -0.0418519)
(7.85 0 -0.0420629)
(7.9 0 -0.042345)
(7.95 0 -0.0425723)
(8 0 -0.0428496)
(8.05 0 -0.0430684)
(8.1 0 -0.0433415)
(8.15 0 -0.0435697)
(8.2 0 -0.0438455)
(8.25 0 -0.0440863)
(8.3 0 -0.0443326)
(8.35 0 -0.0445948)
(8.4 0 -0.0447777)
(8.45 0 -0.0451421)
(8.5 0 -0.0452707)
(8.55 0 -0.0456503)
(8.6 0 -0.0457837)
(8.65 0 -0.0459339)
(8.7 0 -0.0461188)
(8.75 0 -0.0465931)
(8.8 0 -0.0468355)
(8.85 0 -0.0470831)
(8.9 0 -0.047358)
(8.95 0 -0.0475564)
(9 0 -0.047856)
(9.05 0 -0.0480715)
(9.1 0 -0.0483574)
(9.15 0 -0.0485008)
(9.2 0 -0.0489085)
(9.25 0 -0.0492061)
(9.3 0 -0.0487062)
(9.35 0 -0.0493768)
(9.4 0 -0.0498183)
(9.45 0 -0.0501112)
(9.5 0 -0.050312)
(9.55 0 -0.0506114)
(9.6 0 -0.0508196)
(9.65 0 -0.0510459)
(9.7 0 -0.0513763)
(9.75 0 -0.0515403)
(9.8 0 -0.0518996)
(9.85 0 -0.0520201)
(9.9 0 -0.0523991)
(9.95 0 -0.0525074)
(10 0 -0.052927)
(10.05 0 -0.0530039)
(10.1 0 -0.0534157)
(10.15 0 -0.0534947)
(10.2 0 -0.0539147)
(10.25 0 -0.0540077)
(10.3 0 -0.0542158)
(10.35 0 -0.054695)
(10.4 0 -0.0547316)
(10.45 0 -0.0550684)
(10.5 0 -0.0555445)
(10.55 0 -0.0551309)
(10.6 0 -0.0554127)
(10.65 0 -0.0561539)
(10.7 0 -0.0562714)
(10.75 0 -0.0566525)
(10.8 0 -0.0567675)
(10.85 0 -0.0571051)
(10.9 0 -0.057325)
(10.95 0 -0.0575904)
(11 0 -0.0578247)
(11.05 0 -0.0580989)
(11.1 0 -0.0583443)
(11.15 0 -0.0585586)
(11.2 0 -0.0588481)
(11.25 0 -0.0589561)
(11.3 0 -0.0593398)
(11.35 0 -0.0596032)
(11.4 0 -0.0598097)
(11.45 0 -0.0601001)
(11.5 0 -0.0603306)
(11.55 0 -0.0606124)
(11.6 0 -0.0606897)
(11.65 0 -0.0609104)
(11.7 0 -0.0613256)
(11.75 0 -0.0615912)
(11.8 0 -0.0618378)
(11.85 0 -0.0620832)
(11.9 0 -0.062328)
(11.95 0 -0.0626021)
(12 0 -0.0628377)
(12.05 0 -0.0630942)
(12.1 0 -0.0633324)
(12.15 0 -0.0635959)
(12.2 0 -0.0638376)
(12.25 0 -0.064079)
(12.3 0 -0.0643423)
(12.35 0 -0.064592)
(12.4 0 -0.0648511)
(12.45 0 -0.0650813)
(12.5 0 -0.0653498)
(12.55 0 -0.0655639)
(12.6 0 -0.0658393)
(12.65 0 -0.0660803)
(12.7 0 -0.0663333)
(12.75 0 -0.0665963)
(12.8 0 -0.0668263)
(12.85 0 -0.0671065)
(12.9 0 -0.0672819)
(12.95 0 -0.0676262)
(13 0 -0.0678012)
(13.05 0 -0.068136)
(13.1 0 -0.0682528)
(13.15 0 -0.0686732)
(13.2 0 -0.0687355)
(13.25 0 -0.0689549)
(13.3 0 -0.0693931)
(13.35 0 -0.0695469)
(13.4 0 -0.0698743)
(13.45 0 -0.0700373)
(13.5 0 -0.0703728)
(13.55 0 -0.0705518)
(13.6 0 -0.0708832)
(13.65 0 -0.0710337)
(13.7 0 -0.0713881)
(13.75 0 -0.0715523)
(13.8 0 -0.0718973)
(13.85 0 -0.072025)
(13.9 0 -0.0721895)
(13.95 0 -0.0726332)
(14 0 -0.0727996)
(14.05 0 -0.0731104)
(14.1 0 -0.0733067)
(14.15 0 -0.0736148)
(14.2 0 -0.073809)
(14.25 0 -0.0741223)
(14.3 0 -0.0743234)
(14.35 0 -0.0744167)
(14.4 0 -0.0746345)
(14.45 0 -0.0748572)
(14.5 0 -0.0750815)
(14.55 0 -0.0753339)
(14.6 0 -0.0755764)
(14.65 0 -0.0758307)
(14.7 0 -0.0760504)
(14.75 0 -0.0762714)
(14.8 0 -0.0752737)
(14.85 0 -0.07425)
(14.9 0 -0.0745)
(14.95 0 -0.07475)
(15 0 -0.075)
(0 0.02 0)
(0.05 0.02 -0.00025)
(0.1 0.02 -0.0005)
(0.15 0.02 -0.00075)
(0.2 0.02 -0.001)
(0.25 0.02 -0.00125)
(0.3 0.02 -0.0015)
(0.35 0.02 -0.00175)
(0.4 0.02 -0.002)
(0.45 0.02 -0.00225)
(0.5 0.02 -0.0025)
(0.55 0.02 -0.00275)
(0.6 0.02 -0.003)
(0.65 0.02 -0.00325)
(0.7 0.02 -0.0035)
(0.75 0.02 -0.00375)
(0.8 0.02 -0.004)
(0.85 0.02 -0.00425)
(0.9 0.02 -0.0045)
(0.95 0.02 -0.00475)
(1 0.02 -0.005)
(1.05 0.02 -0.00525)
(1.1 0.02 -0.0055)
(1.15 0.02 -0.00575)
(1.2 0.02 -0.006)
(1.25 0.02 -0.00625)
(1.3 0.02 -0.0065)
(1.35 0.02 -0.00675)
(1.4 0.02 -0.007)
(1.45 0.02 -0.00725)
(1.5 0.02 -0.0075)
(1.55 0.02 -0.00775)
(1.6 0.02 -0.008)
(1.65 0.02 -0.00825)
(1.7 0.02 -0.0085)
(1.75 0.02 -0.00875)
(1.8 0.02 -0.009)
(1.85 0.02 -0.00925)
(1.9 0.02 -0.0095)
(1.95 0.02 -0.00975)
(2 0.02 -0.01)
(2.05 0.02 -0.01025)
(2.1 0.02 -0.0105)
(2.15 0.02 -0.01075)
(2.2 0.02 -0.011)
(2.25 0.02 -0.01125)
(2.3 0.02 -0.0115)
(2.35 0.02 -0.01175)
(2.4 0.02 -0.012)
(2.45 0.02 -0.01225)
(2.5 0.02 -0.0125)
(2.55 0.02 -0.01275)
(2.6 0.02 -0.013)
(2.65 0.02 -0.01325)
(2.7 0.02 -0.0135)
(2.75 0.02 -0.01375)
(2.8 0.02 -0.014)
(2.85 0.02 -0.01425)
(2.9 0.02 -0.0145)
(2.95 0.02 -0.01475)
(3 0.02 -0.0160461)
(3.05 0.02 -0.0175772)
(3.1 0.02 -0.0181688)
(3.15 0.02 -0.018518)
(3.2 0.02 -0.0187812)
(3.25 0.02 -0.0190424)
(3.3 0.02 -0.0192921)
(3.35 0.02 -0.0195407)
(3.4 0.02 -0.0198016)
(3.45 0.02 -0.0200352)
(3.5 0.02 -0.0203371)
(3.55 0.02 -0.0205904)
(3.6 0.02 -0.0208441)
(3.65 0.02 -0.0210938)
(3.7 0.02 -0.02134)
(3.75 0.02 -0.0215856)
(3.8 0.02 -0.0218504)
(3.85 0.02 -0.0220961)
(3.9 0.02 -0.0223279)
(3.95 0.02 -0.0225869)
(4 0.02 -0.0228186)
(4.05 0.02 -0.02312)
(4.1 0.02 -0.0232213)
(4.15 0.02 -0.0237151)
(4.2 0.02 -0.0237345)
(4.25 0.02 -0.0240006)
(4.3 0.02 -0.0244196)
(4.35 0.02 -0.0244948)
(4.4 0.02 -0.0247963)
(4.45 0.02 -0.0248663)
(4.5 0.02 -0.0253744)
(4.55 0.02 -0.0255637)
(4.6 0.02 -0.0258679)
(4.65 0.02 -0.0260507)
(4.7 0.02 -0.0262995)
(4.75 0.02 -0.0266114)
(4.8 0.02 -0.0268147)
(4.85 0.02 -0.0270928)
(4.9 0.02 -0.0273271)
(4.95 0.02 -0.0276232)
(5 0.02 -0.0278093)
(5.05 0.02 -0.0280841)
(5.1 0.02 -0.0281054)
(5.15 0.02 -0.0287932)
(5.2 0.02 -0.0288733)
(5.25 0.02 -0.0282803)
(5.3 0.02 -0.0288478)
(5.35 0.02 -0.0295779)
(5.4 0.02 -0.029828)
(5.45 0.02 -0.0301209)
(5.5 0.02 -0.0303282)
(5.55 0.02 -0.0305115)
(5.6 0.02 -0.0307556)
(5.65 0.02 -0.0309214)
(5.7 0.02 -0.0312107)
(5.75 0.02 -0.0315563)
(5.8 0.02 -0.0318644)
(5.85 0.02 -0.0320339)
(5.9 0.02 -0.0323914)
(5.95 0.02 -0.0325304)
(6 0.02 -0.0327873)
(6.05 0.02 -0.033164)
(6.1 0.02 -0.0330683)
(6.15 0.02 -0.033328)
(6.2 0.02 -0.033829)
(6.25 0.02 -0.0341236)
(6.3 0.02 -0.0343165)
(6.35 0.02 -0.0345957)
(6.4 0.02 -0.0348101)
(6.45 0.02 -0.0350381)
(6.5 0.02 -0.0353746)
(6.55 0.02 -0.0355759)
(6.6 0.02 -0.0357643)
(6.65 0.02 -0.0362169)
(6.7 0.02 -0.0357598)
(6.75 0.02 -0.0361449)
(6.8 0.02 -0.0368575)
(6.85 0.02 -0.0370823)
(6.9 0.02 -0.0373578)
(6.95 0.02 -0.0375688)
(7 0.02 -0.0378526)
(7.05 0.02 -0.0380667)
(7.1 0.02 -0.0383389)
(7.15 0.02 -0.0385894)
(7.2 0.02 -0.0388253)
(7.25 0.02 -0.0389514)
(7.3 0.02 -0.0393717)
(7.35 0.02 -0.0395583)
(7.4 0.02 -0.0398667)
(7.45 0.02 -0.040079)
(7.5 0.02 -0.0403269)
(7.55 0.02 -0.0405929)
(7.6 0.02 -0.040807)
(7.65 0.02 -0.0410206)
(7.7 0.02 -0.0413756)
(7.75 0.02 -0.0415578)
(7.8 0.02 -0.0418519)
(7.85 0.02 -0.0420629)
(7.9 0.02 -0.042345)
(7.95 0.02 -0.0425723)
(8 0.02 -0.0428496)
(8.05 0.02 -0.0430684)
(8.1 0.02 -0.0433415)
(8.15 0.02 -0.0435697)
(8.2 0.02 -0.0438455)
(8.25 0.02 -0.0440863)
(8.3 0.02 -0.0443326)
(8.35 0.02 -0.0445948)
(8.4 0.02 -0.0447777)
(8.45 0.02 -0.0451421)
(8.5 0.02 -0.0452707)
(8.55 0.02 -0.0456503)
(8.6 0.02 -0.0457837)
(8.65 0.02 -0.0459339)
(8.7 0.02 -0.0461188)
(8.75 0.02 -0.0465931)
(8.8 0.02 -0.0468355)
(8.85 0.02 -0.0470831)
(8.9 0.02 -0.047358)
(8.95 0.02 -0.0475564)
(9 0.02 -0.047856)
(9.05 0.02 -0.0480715)
(9.1 0.02 -0.0483574)
(9.15 0.02 -0.0485008)
(9.2 0.02 -0.0489085)
(9.25 0.02 -0.0492061)
(9.3 0.02 -0.0487062)
(9.35 0.02 -0.0493768)
(9.4 0.02 -0.0498183)
(9.45 0.02 -0.0501112)
(9.5 0.02 -0.050312)
(9.55 0.02 -0.0506114)
(9.6 0.02 -0.0508196)
(9.65 0.02 -0.0510459)
(9.7 0.02 -0.0513763)
(9.75 0.02 -0.0515403)
(9.8 0.02 -0.0518996)
(9.85 0.02 -0.0520201)
(9.9 0.02 -0.0523991)
(9.95 0.02 -0.0525074)
(10 0.02 -0.052927)
(10.05 0.02 -0.0530039)
(10.1 0.02 -0.0534157)
(10.15 0.02 -0.0534947)
(10.2 0.02 -0.0539147)
(10.25 0.02 -0.0540077)
(10.3 0.02 -0.0542158)
(10.35 0.02 -0.054695)
(10.4 0.02 -0.0547316)
(10.45 0.02 -0.0550684)
(10.5 0.02 -0.0555445)
(10.55 0.02 -0.0551309)
(10.6 0.02 -0.0554127)
(10.65 0.02 -0.0561539)
(10.7 0.02 -0.0562714)
(10.75 0.02 -0.0566525)
(10.8 0.02 -0.0567675)
(10.85 0.02 -0.0571051)
(10.9 0.02 -0.057325)
(10.95 0.02 -0.0575904)
(11 0.02 -0.0578247)
(11.05 0.02 -0.0580989)
(11.1 0.02 -0.0583443)
(11.15 0.02 -0.0585586)
(11.2 0.02 -0.0588481)
(11.25 0.02 -0.0589561)
(11.3 0.02 -0.0593398)
(11.35 0.02 -0.0596032)
(11.4 0.02 -0.0598097)
(11.45 0.02 -0.0601001)
(11.5 0.02 -0.0603306)
(11.55 0.02 -0.0606124)
(11.6 0.02 -0.0606897)
(11.65 0.02 -0.0609104)
(11.7 0.02 -0.0613256)
(11.75 0.02 -0.0615912)
(11.8 0.02 -0.0618378)
(11.85 0.02 -0.0620832)
(11.9 0.02 -0.062328)
(11.95 0.02 -0.0626021)
(12 0.02 -0.0628377)
(12.05 0.02 -0.0630942)
(12.1 0.02 -0.0633324)
(12.15 0.02 -0.0635959)
(12.2 0.02 -0.0638376)
(12.25 0.02 -0.064079)
(12.3 0.02 -0.0643423)
(12.35 0.02 -0.064592)
(12.4 0.02 -0.0648511)
(12.45 0.02 -0.0650813)
(12.5 0.02 -0.0653498)
(12.55 0.02 -0.0655639)
(12.6 0.02 -0.0658393)
(12.65 0.02 -0.0660803)
(12.7 0.02 -0.0663333)
(12.75 0.02 -0.0665963)
(12.8 0.02 -0.0668263)
(12.85 0.02 -0.0671065)
(12.9 0.02 -0.0672819)
(12.95 0.02 -0.0676262)
(13 0.02 -0.0678012)
(13.05 0.02 -0.068136)
(13.1 0.02 -0.0682528)
(13.15 0.02 -0.0686732)
(13.2 0.02 -0.0687355)
(13.25 0.02 -0.0689549)
(13.3 0.02 -0.0693931)
(13.35 0.02 -0.0695469)
(13.4 0.02 -0.0698743)
(13.45 0.02 -0.0700373)
(13.5 0.02 -0.0703728)
(13.55 0.02 -0.0705518)
(13.6 0.02 -0.0708832)
(13.65 0.02 -0.0710337)
(13.7 0.02 -0.0713881)
(13.75 0.02 -0.0715523)
(13.8 0.02 -0.0718973)
(13.85 0.02 -0.072025)
(13.9 0.02 -0.0721895)
(13.95 0.02 -0.0726332)
(14 0.02 -0.0727996)
(14.05 0.02 -0.0731104)
(14.1 0.02 -0.0733067)
(14.15 0.02 -0.0736148)
(14.2 0.02 -0.073809)
(14.25 0.02 -0.0741223)
(14.3 0.02 -0.0743234)
(14.35 0.02 -0.0744167)
(14.4 0.02 -0.0746345)
(14.45 0.02 -0.0748572)
(14.5 0.02 -0.0750815)
(14.55 0.02 -0.0753339)
(14.6 0.02 -0.0755764)
(14.65 0.02 -0.0758307)
(14.7 0.02 -0.0760504)
(14.75 0.02 -0.0762714)
(14.8 0.02 -0.0752737)
(14.85 0.02 -0.07425)
(14.9 0.02 -0.0745)
(14.95 0.02 -0.07475)
(15 0.02 -0.075)
(0 0 0.00166667)
(0.05 0 0.00141667)
(0.1 0 0.00116667)
(0.15 0 0.000916667)
(0.2 0 0.000666667)
(0.25 0 0.000416667)
(0.3 0 0.000166667)
(0.35 0 -8.33333e-05)
(0.4 0 -0.000333333)
(0.45 0 -0.000583333)
(0.5 0 -0.000833333)
(0.55 0 -0.00108333)
(0.6 0 -0.00133333)
(0.65 0 -0.00158333)
(0.7 0 -0.00183333)
(0.75 0 -0.00208333)
(0.8 0 -0.00233333)
(0.85 0 -0.00258333)
(0.9 0 -0.00283333)
(0.95 0 -0.00308333)
(1 0 -0.00333333)
(1.05 0 -0.00358333)
(1.1 0 -0.00383333)
(1.15 0 -0.00408333)
(1.2 0 -0.00433333)
(1.25 0 -0.00458333)
(1.3 0 -0.00483333)
(1.35 0 -0.00508333)
(1.4 0 -0.00533333)
(1.45 0 -0.00558333)
(1.5 0 -0.00583333)
(1.55 0 -0.00608333)
(1.6 0 -0.00633333)
(1.65 0 -0.00658333)
(1.7 0 -0.00683333)
(1.75 0 -0.00708333)
(1.8 0 -0.00733333)
(1.85 0 -0.00758333)
(1.9 0 -0.00783333)
(1.95 0 -0.00808333)
(2 0 -0.00833333)
(2.05 0 -0.00858333)
(2.1 0 -0.00883333)
(2.15 0 -0.00908333)
(2.2 0 -0.00933333)
(2.25 0 -0.00958333)
(2.3 0 -0.00983333)
(2.35 0 -0.0100833)
(2.4 0 -0.0103333)
(2.45 0 -0.0105833)
(2.5 0 -0.0108333)
(2.55 0 -0.0110833)
(2.6 0 -0.0113333)
(2.65 0 -0.0115833)
(2.7 0 -0.0118333)
(2.75 0 -0.0120833)
(2.8 0 -0.0123333)
(2.85 0 -0.0125833)
(2.9 0 -0.0128332)
(2.95 0 -0.0130844)
(3 0 -0.0143789)
(3.05 0 -0.0159086)
(3.1 0 -0.0165015)
(3.15 0 -0.0168509)
(3.2 0 -0.0171142)
(3.25 0 -0.0173754)
(3.3 0 -0.0176251)
(3.35 0 -0.0178737)
(3.4 0 -0.0181346)
(3.45 0 -0.0183683)
(3.5 0 -0.01867)
(3.55 0 -0.0189234)
(3.6 0 -0.0191772)
(3.65 0 -0.0194269)
(3.7 0 -0.019673)
(3.75 0 -0.0199187)
(3.8 0 -0.0201835)
(3.85 0 -0.0204292)
(3.9 0 -0.020661)
(3.95 0 -0.0209199)
(4 0 -0.0211518)
(4.05 0 -0.0214527)
(4.1 0 -0.021555)
(4.15 0 -0.0220474)
(4.2 0 -0.022068)
(4.25 0 -0.022334)
(4.3 0 -0.0227522)
(4.35 0 -0.0228284)
(4.4 0 -0.0231291)
(4.45 0 -0.0232)
(4.5 0 -0.023707)
(4.55 0 -0.023897)
(4.6 0 -0.0242009)
(4.65 0 -0.0243839)
(4.7 0 -0.0246328)
(4.75 0 -0.0249444)
(4.8 0 -0.025148)
(4.85 0 -0.0254258)
(4.9 0 -0.0256603)
(4.95 0 -0.0259561)
(5 0 -0.0261425)
(5.05 0 -0.0264168)
(5.1 0 -0.0264395)
(5.15 0 -0.0271254)
(5.2 0 -0.0272054)
(5.25 0 -0.026615)
(5.3 0 -0.027181)
(5.35 0 -0.0279103)
(5.4 0 -0.0281612)
(5.45 0 -0.0284539)
(5.5 0 -0.0286613)
(5.55 0 -0.0288447)
(5.6 0 -0.0290886)
(5.65 0 -0.0292547)
(5.7 0 -0.0295439)
(5.75 0 -0.0298894)
(5.8 0 -0.0301972)
(5.85 0 -0.0303672)
(5.9 0 -0.0307241)
(5.95 0 -0.0308636)
(6 0 -0.0311206)
(6.05 0 -0.0314964)
(6.1 0 -0.031402)
(6.15 0 -0.0316614)
(6.2 0 -0.0321618)
(6.25 0 -0.0324566)
(6.3 0 -0.0326497)
(6.35 0 -0.0329287)
(6.4 0 -0.0331432)
(6.45 0 -0.0333713)
(6.5 0 -0.0337075)
(6.55 0 -0.0339091)
(6.6 0 -0.0340979)
(6.65 0 -0.0345486)
(6.7 0 -0.0340941)
(6.75 0 -0.0344784)
(6.8 0 -0.0351898)
(6.85 0 -0.0354155)
(6.9 0 -0.0356907)
(6.95 0 -0.035902)
(7 0 -0.0361856)
(7.05 0 -0.0363999)
(7.1 0 -0.036672)
(7.15 0 -0.0369225)
(7.2 0 -0.0371583)
(7.25 0 -0.037285)
(7.3 0 -0.0377044)
(7.35 0 -0.0378916)
(7.4 0 -0.0381996)
(7.45 0 -0.0384121)
(7.5 0 -0.03866)
(7.55 0 -0.0389259)
(7.6 0 -0.0391402)
(7.65 0 -0.039354)
(7.7 0 -0.0397084)
(7.75 0 -0.0398911)
(7.8 0 -0.0401849)
(7.85 0 -0.0403961)
(7.9 0 -0.040678)
(7.95 0 -0.0409054)
(8 0 -0.0411826)
(8.05 0 -0.0414015)
(8.1 0 -0.0416746)
(8.15 0 -0.0419029)
(8.2 0 -0.0421785)
(8.25 0 -0.0424194)
(8.3 0 -0.0426657)
(8.35 0 -0.0429277)
(8.4 0 -0.0431111)
(8.45 0 -0.0434748)
(8.5 0 -0.0436042)
(8.55 0 -0.043983)
(8.6 0 -0.0441169)
(8.65 0 -0.0442671)
(8.7 0 -0.0444523)
(8.75 0 -0.0449258)
(8.8 0 -0.0451686)
(8.85 0 -0.0454162)
(8.9 0 -0.045691)
(8.95 0 -0.0458897)
(9 0 -0.046189)
(9.05 0 -0.0464048)
(9.1 0 -0.0466903)
(9.15 0 -0.0468343)
(9.2 0 -0.0472414)
(9.25 0 -0.047538)
(9.3 0 -0.0470409)
(9.35 0 -0.0477094)
(9.4 0 -0.0481512)
(9.45 0 -0.0484441)
(9.5 0 -0.0486452)
(9.55 0 -0.0489443)
(9.6 0 -0.0491527)
(9.65 0 -0.0493791)
(9.7 0 -0.0497091)
(9.75 0 -0.0498737)
(9.8 0 -0.0502323)
(9.85 0 -0.0503536)
(9.9 0 -0.0507318)
(9.95 0 -0.050841)
(10 0 -0.0512595)
(10.05 0 -0.0513374)
(10.1 0 -0.0517483)
(10.15 0 -0.0518283)
(10.2 0 -0.0522473)
(10.25 0 -0.052341)
(10.3 0 -0.0525493)
(10.35 0 -0.0530274)
(10.4 0 -0.0530651)
(10.45 0 -0.0534018)
(10.5 0 -0.0538763)
(10.55 0 -0.053465)
(10.6 0 -0.0537463)
(10.65 0 -0.054486)
(10.7 0 -0.0546049)
(10.75 0 -0.0549851)
(10.8 0 -0.0551009)
(10.85 0 -0.0554379)
(10.9 0 -0.0556582)
(10.95 0 -0.0559235)
(11 0 -0.0561578)
(11.05 0 -0.056432)
(11.1 0 -0.0566773)
(11.15 0 -0.0568918)
(11.2 0 -0.0571809)
(11.25 0 -0.0572896)
(11.3 0 -0.0576727)
(11.35 0 -0.0579362)
(11.4 0 -0.0581429)
(11.45 0 -0.0584331)
(11.5 0 -0.0586638)
(11.55 0 -0.0589453)
(11.6 0 -0.0590231)
(11.65 0 -0.0592438)
(11.7 0 -0.0596585)
(11.75 0 -0.0599243)
(11.8 0 -0.0601709)
(11.85 0 -0.0604163)
(11.9 0 -0.0606611)
(11.95 0 -0.0609351)
(12 0 -0.0611708)
(12.05 0 -0.0614272)
(12.1 0 -0.0616656)
(12.15 0 -0.0619289)
(12.2 0 -0.0621706)
(12.25 0 -0.0624121)
(12.3 0 -0.0626754)
(12.35 0 -0.0629251)
(12.4 0 -0.0631841)
(12.45 0 -0.0634144)
(12.5 0 -0.0636828)
(12.55 0 -0.0638971)
(12.6 0 -0.0641723)
(12.65 0 -0.0644134)
(12.7 0 -0.0646663)
(12.75 0 -0.0649293)
(12.8 0 -0.0651594)
(12.85 0 -0.0654394)
(12.9 0 -0.0656152)
(12.95 0 -0.065959)
(13 0 -0.0661345)
(13.05 0 -0.0664687)
(13.1 0 -0.0665864)
(13.15 0 -0.0670058)
(13.2 0 -0.0670689)
(13.25 0 -0.0672884)
(13.3 0 -0.0677258)
(13.35 0 -0.0678802)
(13.4 0 -0.0682071)
(13.45 0 -0.0683707)
(13.5 0 -0.0687057)
(13.55 0 -0.0688851)
(13.6 0 -0.069216)
(13.65 0 -0.0693671)
(13.7 0 -0.0697209)
(13.75 0 -0.0698857)
(13.8 0 -0.0702301)
(13.85 0 -0.0703582)
(13.9 0 -0.0705231)
(13.95 0 -0.0709659)
(14 0 -0.0711329)
(14.05 0 -0.0714433)
(14.1 0 -0.0716399)
(14.15 0 -0.0719476)
(14.2 0 -0.0721422)
(14.25 0 -0.0724552)
(14.3 0 -0.0726563)
(14.35 0 -0.0727499)
(14.4 0 -0.0729676)
(14.45 0 -0.0731902)
(14.5 0 -0.0734145)
(14.55 0 -0.0736668)
(14.6 0 -0.0739094)
(14.65 0 -0.0741637)
(14.7 0 -0.0743836)
(14.75 0 -0.0746027)
(14.8 0 -0.0736066)
(14.85 0 -0.0725849)
(14.9 0 -0.0728332)
(14.95 0 -0.0730833)
(15 0 -0.0733333)
(0 0.02 0.00166667)
(0.05 0.02 0.00141667)
(0.1 0.02 0.00116667)
(0.15 0.02 0.000916667)
(0.2 0.02 0.000666667)
(0.25 0.02 0.000416667)
(0.3 0.02 0.000166667)
(0.35 0.02 -8.33333e-05)
(0.4 0.02 -0.000333333)
(0.45 0.02 -0.000583333)
(0.5 0.02 -0.000833333)
(0.55 0.02 -0.00108333)
(0.6 0.02 -0.00133333)
(0.65 0.02 -0.00158333)
(0.7 0.02 -0.00183333)
(0.75 0.02 -0.00208333)
(0.8 0.02 -0.00233333)
(0.85 0.02 -0.00258333)
(0.9 0.02 -0.00283333)
(0.95 0.02 -0.00308333)
(1 0.02 -0.00333333)
(1.05 0.02 -0.00358333)
(1.1 0.02 -0.00383333)
(1.15 0.02 -0.00408333)
(1.2 0.02 -0.00433333)
(1.25 0.02 -0.00458333)
(1.3 0.02 -0.00483333)
(1.35 0.02 -0.00508333)
(1.4 0.02 -0.00533333)
(1.45 0.02 -0.00558333)
(1.5 0.02 -0.00583333)
(1.55 0.02 -0.00608333)
(1.6 0.02 -0.00633333)
(1.65 0.02 -0.00658333)
(1.7 0.02 -0.00683333)
(1.75 0.02 -0.00708333)
(1.8 0.02 -0.00733333)
(1.85 0.02 -0.00758333)
(1.9 0.02 -0.00783333)
(1.95 0.02 -0.00808333)
(2 0.02 -0.00833333)
(2.05 0.02 -0.00858333)
(2.1 0.02 -0.00883333)
(2.15 0.02 -0.00908333)
(2.2 0.02 -0.00933333)
(2.25 0.02 -0.00958333)
(2.3 0.02 -0.00983333)
(2.35 0.02 -0.0100833)
(2.4 0.02 -0.0103333)
(2.45 0.02 -0.0105833)
(2.5 0.02 -0.0108333)
(2.55 0.02 -0.0110833)
(2.6 0.02 -0.0113333)
(2.65 0.02 -0.0115833)
(2.7 0.02 -0.0118333)
(2.75 0.02 -0.0120833)
(2.8 0.02 -0.0123333)
(2.85 0.02 -0.0125833)
(2.9 0.02 -0.0128332)
(2.95 0.02 -0.0130844)
(3 0.02 -0.0143789)
(3.05 0.02 -0.0159086)
(3.1 0.02 -0.0165015)
(3.15 0.02 -0.0168509)
(3.2 0.02 -0.0171142)
(3.25 0.02 -0.0173754)
(3.3 0.02 -0.0176251)
(3.35 0.02 -0.0178737)
(3.4 0.02 -0.0181346)
(3.45 0.02 -0.0183683)
(3.5 0.02 -0.01867)
(3.55 0.02 -0.0189234)
(3.6 0.02 -0.0191772)
(3.65 0.02 -0.0194269)
(3.7 0.02 -0.019673)
(3.75 0.02 -0.0199187)
(3.8 0.02 -0.0201835)
(3.85 0.02 -0.0204292)
(3.9 0.02 -0.020661)
(3.95 0.02 -0.0209199)
(4 0.02 -0.0211518)
(4.05 0.02 -0.0214527)
(4.1 0.02 -0.021555)
(4.15 0.02 -0.0220474)
(4.2 0.02 -0.022068)
(4.25 0.02 -0.022334)
(4.3 0.02 -0.0227522)
(4.35 0.02 -0.0228284)
(4.4 0.02 -0.0231291)
(4.45 0.02 -0.0232)
(4.5 0.02 -0.023707)
(4.55 0.02 -0.023897)
(4.6 0.02 -0.0242009)
(4.65 0.02 -0.0243839)
(4.7 0.02 -0.0246328)
(4.75 0.02 -0.0249444)
(4.8 0.02 -0.025148)
(4.85 0.02 -0.0254258)
(4.9 0.02 -0.0256603)
(4.95 0.02 -0.0259561)
(5 0.02 -0.0261425)
(5.05 0.02 -0.0264168)
(5.1 0.02 -0.0264395)
(5.15 0.02 -0.0271254)
(5.2 0.02 -0.0272054)
(5.25 0.02 -0.026615)
(5.3 0.02 -0.027181)
(5.35 0.02 -0.0279103)
(5.4 0.02 -0.0281612)
(5.45 0.02 -0.0284539)
(5.5 0.02 -0.0286613)
(5.55 0.02 -0.0288447)
(5.6 0.02 -0.0290886)
(5.65 0.02 -0.0292547)
(5.7 0.02 -0.0295439)
(5.75 0.02 -0.0298894)
(5.8 0.02 -0.0301972)
(5.85 0.02 -0.0303672)
(5.9 0.02 -0.0307241)
(5.95 0.02 -0.0308636)
(6 0.02 -0.0311206)
(6.05 0.02 -0.0314964)
(6.1 0.02 -0.031402)
(6.15 0.02 -0.0316614)
(6.2 0.02 -0.0321618)
(6.25 0.02 -0.0324566)
(6.3 0.02 -0.0326497)
(6.35 0.02 -0.0329287)
(6.4 0.02 -0.0331432)
(6.45 0.02 -0.0333713)
(6.5 0.02 -0.0337075)
(6.55 0.02 -0.0339091)
(6.6 0.02 -0.0340979)
(6.65 0.02 -0.0345486)
(6.7 0.02 -0.0340941)
(6.75 0.02 -0.0344784)
(6.8 0.02 -0.0351898)
(6.85 0.02 -0.0354155)
(6.9 0.02 -0.0356907)
(6.95 0.02 -0.035902)
(7 0.02 -0.0361856)
(7.05 0.02 -0.0363999)
(7.1 0.02 -0.036672)
(7.15 0.02 -0.0369225)
(7.2 0.02 -0.0371583)
(7.25 0.02 -0.037285)
(7.3 0.02 -0.0377044)
(7.35 0.02 -0.0378916)
(7.4 0.02 -0.0381996)
(7.45 0.02 -0.0384121)
(7.5 0.02 -0.03866)
(7.55 0.02 -0.0389259)
(7.6 0.02 -0.0391402)
(7.65 0.02 -0.039354)
(7.7 0.02 -0.0397084)
(7.75 0.02 -0.0398911)
(7.8 0.02 -0.0401849)
(7.85 0.02 -0.0403961)
(7.9 0.02 -0.040678)
(7.95 0.02 -0.0409054)
(8 0.02 -0.0411826)
(8.05 0.02 -0.0414015)
(8.1 0.02 -0.0416746)
(8.15 0.02 -0.0419029)
(8.2 0.02 -0.0421785)
(8.25 0.02 -0.0424194)
(8.3 0.02 -0.0426657)
(8.35 0.02 -0.0429277)
(8.4 0.02 -0.0431111)
(8.45 0.02 -0.0434748)
(8.5 0.02 -0.0436042)
(8.55 0.02 -0.043983)
(8.6 0.02 -0.0441169)
(8.65 0.02 -0.0442671)
(8.7 0.02 -0.0444523)
(8.75 0.02 -0.0449258)
(8.8 0.02 -0.0451686)
(8.85 0.02 -0.0454162)
(8.9 0.02 -0.045691)
(8.95 0.02 -0.0458897)
(9 0.02 -0.046189)
(9.05 0.02 -0.0464048)
(9.1 0.02 -0.0466903)
(9.15 0.02 -0.0468343)
(9.2 0.02 -0.0472414)
(9.25 0.02 -0.047538)
(9.3 0.02 -0.0470409)
(9.35 0.02 -0.0477094)
(9.4 0.02 -0.0481512)
(9.45 0.02 -0.0484441)
(9.5 0.02 -0.0486452)
(9.55 0.02 -0.0489443)
(9.6 0.02 -0.0491527)
(9.65 0.02 -0.0493791)
(9.7 0.02 -0.0497091)
(9.75 0.02 -0.0498737)
(9.8 0.02 -0.0502323)
(9.85 0.02 -0.0503536)
(9.9 0.02 -0.0507318)
(9.95 0.02 -0.050841)
(10 0.02 -0.0512595)
(10.05 0.02 -0.0513374)
(10.1 0.02 -0.0517483)
(10.15 0.02 -0.0518283)
(10.2 0.02 -0.0522473)
(10.25 0.02 -0.052341)
(10.3 0.02 -0.0525493)
(10.35 0.02 -0.0530274)
(10.4 0.02 -0.0530651)
(10.45 0.02 -0.0534018)
(10.5 0.02 -0.0538763)
(10.55 0.02 -0.053465)
(10.6 0.02 -0.0537463)
(10.65 0.02 -0.054486)
(10.7 0.02 -0.0546049)
(10.75 0.02 -0.0549851)
(10.8 0.02 -0.0551009)
(10.85 0.02 -0.0554379)
(10.9 0.02 -0.0556582)
(10.95 0.02 -0.0559235)
(11 0.02 -0.0561578)
(11.05 0.02 -0.056432)
(11.1 0.02 -0.0566773)
(11.15 0.02 -0.0568918)
(11.2 0.02 -0.0571809)
(11.25 0.02 -0.0572896)
(11.3 0.02 -0.0576727)
(11.35 0.02 -0.0579362)
(11.4 0.02 -0.0581429)
(11.45 0.02 -0.0584331)
(11.5 0.02 -0.0586638)
(11.55 0.02 -0.0589453)
(11.6 0.02 -0.0590231)
(11.65 0.02 -0.0592438)
(11.7 0.02 -0.0596585)
(11.75 0.02 -0.0599243)
(11.8 0.02 -0.0601709)
(11.85 0.02 -0.0604163)
(11.9 0.02 -0.0606611)
(11.95 0.02 -0.0609351)
(12 0.02 -0.0611708)
(12.05 0.02 -0.0614272)
(12.1 0.02 -0.0616656)
(12.15 0.02 -0.0619289)
(12.2 0.02 -0.0621706)
(12.25 0.02 -0.0624121)
(12.3 0.02 -0.0626754)
(12.35 0.02 -0.0629251)
(12.4 0.02 -0.0631841)
(12.45 0.02 -0.0634144)
(12.5 0.02 -0.0636828)
(12.55 0.02 -0.0638971)
(12.6 0.02 -0.0641723)
(12.65 0.02 -0.0644134)
(12.7 0.02 -0.0646663)
(12.75 0.02 -0.0649293)
(12.8 0.02 -0.0651594)
(12.85 0.02 -0.0654394)
(12.9 0.02 -0.0656152)
(12.95 0.02 -0.065959)
(13 0.02 -0.0661345)
(13.05 0.02 -0.0664687)
(13.1 0.02 -0.0665864)
(13.15 0.02 -0.0670058)
(13.2 0.02 -0.0670689)
(13.25 0.02 -0.0672884)
(13.3 0.02 -0.0677258)
(13.35 0.02 -0.0678802)
(13.4 0.02 -0.0682071)
(13.45 0.02 -0.0683707)
(13.5 0.02 -0.0687057)
(13.55 0.02 -0.0688851)
(13.6 0.02 -0.069216)
(13.65 0.02 -0.0693671)
(13.7 0.02 -0.0697209)
(13.75 0.02 -0.0698857)
(13.8 0.02 -0.0702301)
(13.85 0.02 -0.0703582)
(13.9 0.02 -0.0705231)
(13.95 0.02 -0.0709659)
(14 0.02 -0.0711329)
(14.05 0.02 -0.0714433)
(14.1 0.02 -0.0716399)
(14.15 0.02 -0.0719476)
(14.2 0.02 -0.0721422)
(14.25 0.02 -0.0724552)
(14.3 0.02 -0.0726563)
(14.35 0.02 -0.0727499)
(14.4 0.02 -0.0729676)
(14.45 0.02 -0.0731902)
(14.5 0.02 -0.0734145)
(14.55 0.02 -0.0736668)
(14.6 0.02 -0.0739094)
(14.65 0.02 -0.0741637)
(14.7 0.02 -0.0743836)
(14.75 0.02 -0.0746027)
(14.8 0.02 -0.0736066)
(14.85 0.02 -0.0725849)
(14.9 0.02 -0.0728332)
(14.95 0.02 -0.0730833)
(15 0.02 -0.0733333)
(0 0 0.00333333)
(0.05 0 0.00308333)
(0.1 0 0.00283333)
(0.15 0 0.00258333)
(0.2 0 0.00233333)
(0.25 0 0.00208333)
(0.3 0 0.00183333)
(0.35 0 0.00158333)
(0.4 0 0.00133333)
(0.45 0 0.00108333)
(0.5 0 0.000833333)
(0.55 0 0.000583333)
(0.6 0 0.000333333)
(0.65 0 8.33333e-05)
(0.7 0 -0.000166667)
(0.75 0 -0.000416667)
(0.8 0 -0.000666667)
(0.85 0 -0.000916667)
(0.9 0 -0.00116667)
(0.95 0 -0.00141667)
(1 0 -0.00166667)
(1.05 0 -0.00191667)
(1.1 0 -0.00216667)
(1.15 0 -0.00241667)
(1.2 0 -0.00266667)
(1.25 0 -0.00291667)
(1.3 0 -0.00316667)
(1.35 0 -0.00341667)
(1.4 0 -0.00366667)
(1.45 0 -0.00391667)
(1.5 0 -0.00416667)
(1.55 0 -0.00441667)
(1.6 0 -0.00466667)
(1.65 0 -0.00491667)
(1.7 0 -0.00516667)
(1.75 0 -0.00541667)
(1.8 0 -0.00566667)
(1.85 0 -0.00591667)
(1.9 0 -0.00616667)
(1.95 0 -0.00641667)
(2 0 -0.00666667)
(2.05 0 -0.00691667)
(2.1 0 -0.00716667)
(2.15 0 -0.00741667)
(2.2 0 -0.00766667)
(2.25 0 -0.00791667)
(2.3 0 -0.00816667)
(2.35 0 -0.00841667)
(2.4 0 -0.00866667)
(2.45 0 -0.00891667)
(2.5 0 -0.00916667)
(2.55 0 -0.00941667)
(2.6 0 -0.00966667)
(2.65 0 -0.00991667)
(2.7 0 -0.0101667)
(2.75 0 -0.0104167)
(2.8 0 -0.0106667)
(2.85 0 -0.0109167)
(2.9 0 -0.0111664)
(2.95 0 -0.0114201)
(3 0 -0.012711)
(3.05 0 -0.0142368)
(3.1 0 -0.0148317)
(3.15 0 -0.0151813)
(3.2 0 -0.0154447)
(3.25 0 -0.0157059)
(3.3 0 -0.0159556)
(3.35 0 -0.0162043)
(3.4 0 -0.016465)
(3.45 0 -0.0166991)
(3.5 0 -0.0170005)
(3.55 0 -0.017254)
(3.6 0 -0.0175077)
(3.65 0 -0.0177575)
(3.7 0 -0.0180036)
(3.75 0 -0.0182494)
(3.8 0 -0.018514)
(3.85 0 -0.0187597)
(3.9 0 -0.0189918)
(3.95 0 -0.0192505)
(4 0 -0.0194826)
(4.05 0 -0.0197827)
(4.1 0 -0.0198869)
(4.15 0 -0.0203766)
(4.2 0 -0.0203995)
(4.25 0 -0.0206651)
(4.3 0 -0.0210819)
(4.35 0 -0.0211598)
(4.4 0 -0.0214591)
(4.45 0 -0.0215321)
(4.5 0 -0.0220367)
(4.55 0 -0.022228)
(4.6 0 -0.0225311)
(4.65 0 -0.0227148)
(4.7 0 -0.0229636)
(4.75 0 -0.0232747)
(4.8 0 -0.0234789)
(4.85 0 -0.0237563)
(4.9 0 -0.0239912)
(4.95 0 -0.0242864)
(5 0 -0.0244735)
(5.05 0 -0.0247467)
(5.1 0 -0.0247721)
(5.15 0 -0.0254543)
(5.2 0 -0.0255342)
(5.25 0 -0.0249493)
(5.3 0 -0.0255123)
(5.35 0 -0.0262396)
(5.4 0 -0.0264921)
(5.45 0 -0.0267842)
(5.5 0 -0.0269919)
(5.55 0 -0.0271756)
(5.6 0 -0.0274192)
(5.65 0 -0.0275859)
(5.7 0 -0.0278748)
(5.75 0 -0.02822)
(5.8 0 -0.0285275)
(5.85 0 -0.0286984)
(5.9 0 -0.029054)
(5.95 0 -0.0291946)
(6 0 -0.0294516)
(6.05 0 -0.0298257)
(6.1 0 -0.0297339)
(6.15 0 -0.0299928)
(6.2 0 -0.0304919)
(6.25 0 -0.030787)
(6.3 0 -0.0309806)
(6.35 0 -0.0312591)
(6.4 0 -0.0314739)
(6.45 0 -0.0317022)
(6.5 0 -0.0320378)
(6.55 0 -0.0322397)
(6.6 0 -0.0324294)
(6.65 0 -0.0328766)
(6.7 0 -0.0324275)
(6.75 0 -0.03281)
(6.8 0 -0.0335191)
(6.85 0 -0.0337464)
(6.9 0 -0.0340211)
(6.95 0 -0.0342328)
(7 0 -0.034516)
(7.05 0 -0.0347307)
(7.1 0 -0.0350025)
(7.15 0 -0.0352532)
(7.2 0 -0.0354886)
(7.25 0 -0.0356166)
(7.3 0 -0.0360343)
(7.35 0 -0.0362226)
(7.4 0 -0.03653)
(7.45 0 -0.0367429)
(7.5 0 -0.0369907)
(7.55 0 -0.0372564)
(7.6 0 -0.0374708)
(7.65 0 -0.0376851)
(7.7 0 -0.0380385)
(7.75 0 -0.0382221)
(7.8 0 -0.0385152)
(7.85 0 -0.0387269)
(7.9 0 -0.0390085)
(7.95 0 -0.0392362)
(8 0 -0.0395131)
(8.05 0 -0.0397324)
(8.1 0 -0.0400051)
(8.15 0 -0.0402337)
(8.2 0 -0.0405091)
(8.25 0 -0.0407501)
(8.3 0 -0.0409964)
(8.35 0 -0.0412581)
(8.4 0 -0.0414423)
(8.45 0 -0.0418047)
(8.5 0 -0.0419356)
(8.55 0 -0.0423129)
(8.6 0 -0.0424477)
(8.65 0 -0.0425979)
(8.7 0 -0.0427839)
(8.75 0 -0.0432557)
(8.8 0 -0.0434993)
(8.85 0 -0.0437469)
(8.9 0 -0.0440213)
(8.95 0 -0.0442206)
(9 0 -0.0445194)
(9.05 0 -0.0447357)
(9.1 0 -0.0450206)
(9.15 0 -0.0451658)
(9.2 0 -0.0455718)
(9.25 0 -0.0458662)
(9.3 0 -0.0453752)
(9.35 0 -0.0460394)
(9.4 0 -0.0464816)
(9.45 0 -0.0467745)
(9.5 0 -0.0469761)
(9.55 0 -0.0472747)
(9.6 0 -0.0474834)
(9.65 0 -0.04771)
(9.7 0 -0.0480393)
(9.75 0 -0.048205)
(9.8 0 -0.0485621)
(9.85 0 -0.048685)
(9.9 0 -0.0490615)
(9.95 0 -0.0491725)
(10 0 -0.049589)
(10.05 0 -0.0496691)