/*--------------------------------*- C++ -*----------------------------------*\
| =========                 |                                                 |
| \\      /  F ield         | foam-extend: Open Source CFD                    |
|  \\    /   O peration     | Version:     3.2                                |
|   \\  /    A nd           | Web:         http://www.foam-extend.org         |
|    \\/     M anipulation  | For copyright notice see file Copyright         |
\*---------------------------------------------------------------------------*/
FoamFile
{
    version     2.0;
    format      ascii;
    class       pointVectorField;
    location    "50";
    object      newPoints;
}
// * * * * * * * * * * * * * * * * * * * * * * * * * * * * * * * * * * * * * //

dimensions      [0 1 0 0 0 0 0];

internalField   nonuniform List<vector> 
602
(
(0 0 0)
(0.05 0 -0.00025)
(0.1 0 -0.0005)
(0.15 0 -0.00075)
(0.2 0 -0.001)
(0.25 0 -0.00125)
(0.3 0 -0.0015)
(0.35 0 -0.00175)
(0.4 0 -0.002)
(0.45 0 -0.00225)
(0.5 0 -0.0025)
(0.55 0 -0.00275)
(0.6 0 -0.003)
(0.65 0 -0.00325)
(0.7 0 -0.0035)
(0.75 0 -0.00375)
(0.8 0 -0.004)
(0.85 0 -0.00425)
(0.9 0 -0.0045)
(0.95 0 -0.00475)
(1 0 -0.005)
(1.05 0 -0.00525)
(1.1 0 -0.0055)
(1.15 0 -0.00575)
(1.2 0 -0.006)
(1.25 0 -0.00625)
(1.3 0 -0.0065)
(1.35 0 -0.00675)
(1.4 0 -0.007)
(1.45 0 -0.00725)
(1.5 0 -0.0075)
(1.55 0 -0.00775)
(1.6 0 -0.008)
(1.65 0 -0.00825)
(1.7 0 -0.0085)
(1.75 0 -0.00875)
(1.8 0 -0.009)
(1.85 0 -0.00925)
(1.9 0 -0.0095)
(1.95 0 -0.00975)
(2 0 -0.01)
(2.05 0 -0.01025)
(2.1 0 -0.0105)
(2.15 0 -0.01075)
(2.2 0 -0.011)
(2.25 0 -0.01125)
(2.3 0 -0.0115)
(2.35 0 -0.01175)
(2.4 0 -0.012)
(2.45 0 -0.01225)
(2.5 0 -0.0125)
(2.55 0 -0.01275)
(2.6 0 -0.013)
(2.65 0 -0.01325)
(2.7 0 -0.0135)
(2.75 0 -0.01375)
(2.8 0 -0.014)
(2.85 0 -0.01425)
(2.9 0 -0.0145)
(2.95 0 -0.01475)
(3 0 -0.0160461)
(3.05 0 -0.0175772)
(3.1 0 -0.0181688)
(3.15 0 -0.018518)
(3.2 0 -0.0187812)
(3.25 0 -0.0190424)
(3.3 0 -0.0192921)
(3.35 0 -0.0195407)
(3.4 0 -0.0198016)
(3.45 0 -0.0200352)
(3.5 0 -0.0203371)
(3.55 0 -0.0205904)
(3.6 0 -0.0208441)
(3.65 0 -0.0210938)
(3.7 0 -0.02134)
(3.75 0 -0.0215856)
(3.8 0 -0.0218504)
(3.85 0 -0.0220961)
(3.9 0 -0.0223279)
(3.95 0 -0.0225869)
(4 0 -0.0228186)
(4.05 0 -0.02312)
(4.1 0 -0.0232213)
(4.15 0 -0.0237151)
(4.2 0 -0.0237345)
(4.25 0 -0.0240006)
(4.3 0 -0.0244196)
(4.35 0 -0.0244948)
(4.4 0 -0.0247963)
(4.45 0 -0.0248663)
(4.5 0 -0.0253744)
(4.55 0 -0.0255637)
(4.6 0 -0.0258679)
(4.65 0 -0.0260507)
(4.7 0 -0.0262995)
(4.75 0 -0.0266114)
(4.8 0 -0.0268147)
(4.85 0 -0.0270928)
(4.9 0 -0.0273271)
(4.95 0 -0.0276232)
(5 0 -0.0278093)
(5.05 0 -0.0280841)
(5.1 0 -0.0281054)
(5.15 0 -0.0287932)
(5.2 0 -0.0288733)
(5.25 0 -0.0282803)
(5.3 0 -0.0288478)
(5.35 0 -0.0295779)
(5.4 0 -0.029828)
(5.45 0 -0.0301209)
(5.5 0 -0.0303282)
(5.55 0 -0.0305115)
(5.6 0 -0.0307556)
(5.65 0 -0.0309214)
(5.7 0 -0.0312107)
(5.75 0 -0.0315563)
(5.8 0 -0.0318644)
(5.85 0 -0.0320339)
(5.9 0 -0.0323914)
(5.95 0 -0.0325304)
(6 0 -0.0327873)
(6.05 0 -0.033164)
(6.1 0 -0.0330683)
(6.15 0 -0.033328)
(6.2 0 -0.033829)
(6.25 0 -0.0341236)
(6.3 0 -0.0343165)
(6.35 0 -0.0345957)
(6.4 0 -0.0348101)
(6.45 0 -0.0350381)
(6.5 0 -0.0353746)
(6.55 0 -0.0355759)
(6.6 0 -0.0357643)
(6.65 0 -0.0362169)
(6.7 0 -0.0357598)
(6.75 0 -0.0361449)
(6.8 0 -0.0368575)
(6.85 0 -0.0370823)
(6.9 0 -0.0373578)
(6.95 0 -0.0375688)
(7 0 -0.0378526)
(7.05 0 -0.0380667)
(7.1 0 -0.0383389)
(7.15 0 -0.0385894)
(7.2 0 -0.0388253)
(7.25 0 -0.0389514)
(7.3 0 -0.0393717)
(7.35 0 -0.0395583)
(7.4 0 -0.0398667)
(7.45 0 -0.040079)
(7.5 0 -0.0403269)
(7.55 0 -0.0405929)
(7.6 0 -0.040807)
(7.65 0 -0.0410206)
(7.7 0 -0.0413756)
(7.75 0 -0.0415578)
(7.8 0 -0.0418519)
(7.85 0 -0.0420629)
(7.9 0 -0.042345)
(7.95 0 -0.0425723)
(8 0 -0.0428496)
(8.05 0 -0.0430684)
(8.1 0 -0.0433415)
(8.15 0 -0.0435697)
(8.2 0 -0.0438455)
(8.25 0 -0.0440863)
(8.3 0 -0.0443326)
(8.35 0 -0.0445948)
(8.4 0 -0.0447777)
(8.45 0 -0.0451421)
(8.5 0 -0.0452707)
(8.55 0 -0.0456503)
(8.6 0 -0.0457837)
(8.65 0 -0.0459339)
(8.7 0 -0.0461188)
(8.75 0 -0.0465931)
(8.8 0 -0.0468355)
(8.85 0 -0.0470831)
(8.9 0 -0.047358)
(8.95 0 -0.0475564)
(9 0 -0.047856)
(9.05 0 -0.0480715)
(9.1 0 -0.0483574)
(9.15 0 -0.0485008)
(9.2 0 -0.0489085)
(9.25 0 -0.0492061)
(9.3 0 -0.0487062)
(9.35 0 -0.0493768)
(9.4 0 -0.0498183)
(9.45 0 -0.0501112)
(9.5 0 -0.050312)
(9.55 0 -0.0506114)
(9.6 0 -0.0508196)
(9.65 0 -0.0510459)
(9.7 0 -0.0513763)
(9.75 0 -0.0515403)
(9.8 0 -0.0518996)
(9.85 0 -0.0520201)
(9.9 0 -0.0523991)
(9.95 0 -0.0525074)
(10 0 -0.052927)
(10.05 0 -0.0530039)
(10.1 0 -0.0534157)
(10.15 0 -0.0534947)
(10.2 0 -0.0539147)
(10.25 0 -0.0540077)
(10.3 0 -0.0542158)
(10.35 0 -0.054695)
(10.4 0 -0.0547316)
(10.45 0 -0.0550684)
(10.5 0 -0.0555445)
(10.55 0 -0.0551309)
(10.6 0 -0.0554127)
(10.65 0 -0.0561539)
(10.7 0 -0.0562714)
(10.75 0 -0.0566525)
(10.8 0 -0.0567675)
(10.85 0 -0.0571051)
(10.9 0 -0.057325)
(10.95 0 -0.0575904)
(11 0 -0.0578247)
(11.05 0 -0.0580989)
(11.1 0 -0.0583443)
(11.15 0 -0.0585586)
(11.2 0 -0.0588481)
(11.25 0 -0.0589561)
(11.3 0 -0.0593398)
(11.35 0 -0.0596032)
(11.4 0 -0.0598097)
(11.45 0 -0.0601001)
(11.5 0 -0.0603306)
(11.55 0 -0.0606124)
(11.6 0 -0.0606897)
(11.65 0 -0.0609104)
(11.7 0 -0.0613256)
(11.75 0 -0.0615912)
(11.8 0 -0.0618378)
(11.85 0 -0.0620832)
(11.9 0 -0.062328)
(11.95 0 -0.0626021)
(12 0 -0.0628377)
(12.05 0 -0.0630942)
(12.1 0 -0.0633324)
(12.15 0 -0.0635959)
(12.2 0 -0.0638376)
(12.25 0 -0.064079)
(12.3 0 -0.0643423)
(12.35 0 -0.064592)
(12.4 0 -0.0648511)
(12.45 0 -0.0650813)
(12.5 0 -0.0653498)
(12.55 0 -0.0655639)
(12.6 0 -0.0658393)
(12.65 0 -0.0660803)
(12.7 0 -0.0663333)
(12.75 0 -0.0665963)
(12.8 0 -0.0668263)
(12.85 0 -0.0671065)
(12.9 0 -0.0672819)
(12.95 0 -0.0676262)
(13 0 -0.0678012)
(13.05 0 -0.068136)
(13.1 0 -0.0682528)
(13.15 0 -0.0686732)
(13.2 0 -0.0687355)
(13.25 0 -0.0689549)
(13.3 0 -0.0693931)
(13.35 0 -0.0695469)
(13.4 0 -0.0698743)
(13.45 0 -0.0700373)
(13.5 0 -0.0703728)
(13.55 0 -0.0705518)
(13.6 0 -0.0708832)
(13.65 0 -0.0710337)
(13.7 0 -0.0713881)
(13.75 0 -0.0715523)
(13.8 0 -0.0718973)
(13.85 0 -0.072025)
(13.9 0 -0.0721895)
(13.95 0 -0.0726332)
(14 0 -0.0727996)
(14.05 0 -0.0731104)
(14.1 0 -0.0733067)
(14.15 0 -0.0736148)
(14.2 0 -0.073809)
(14.25 0 -0.0741223)
(14.3 0 -0.0743234)
(14.35 0 -0.0744167)
(14.4 0 -0.0746345)
(14.45 0 -0.0748572)
(14.5 0 -0.0750815)
(14.55 0 -0.0753339)
(14.6 0 -0.0755764)
(14.65 0 -0.0758307)
(14.7 0 -0.0760504)
(14.75 0 -0.0762714)
(14.8 0 -0.0752737)
(14.85 0 -0.07425)
(14.9 0 -0.0745)
(14.95 0 -0.07475)
(15 0 -0.075)
(0 0.02 0)
(0.05 0.02 -0.00025)
(0.1 0.02 -0.0005)
(0.15 0.02 -0.00075)
(0.2 0.02 -0.001)
(0.25 0.02 -0.00125)
(0.3 0.02 -0.0015)
(0.35 0.02 -0.00175)
(0.4 0.02 -0.002)
(0.45 0.02 -0.00225)
(0.5 0.02 -0.0025)
(0.55 0.02 -0.00275)
(0.6 0.02 -0.003)
(0.65 0.02 -0.00325)
(0.7 0.02 -0.0035)
(0.75 0.02 -0.00375)
(0.8 0.02 -0.004)
(0.85 0.02 -0.00425)
(0.9 0.02 -0.0045)
(0.95 0.02 -0.00475)
(1 0.02 -0.005)
(1.05 0.02 -0.00525)
(1.1 0.02 -0.0055)
(1.15 0.02 -0.00575)
(1.2 0.02 -0.006)
(1.25 0.02 -0.00625)
(1.3 0.02 -0.0065)
(1.35 0.02 -0.00675)
(1.4 0.02 -0.007)
(1.45 0.02 -0.00725)
(1.5 0.02 -0.0075)
(1.55 0.02 -0.00775)
(1.6 0.02 -0.008)
(1.65 0.02 -0.00825)
(1.7 0.02 -0.0085)
(1.75 0.02 -0.00875)
(1.8 0.02 -0.009)
(1.85 0.02 -0.00925)
(1.9 0.02 -0.0095)
(1.95 0.02 -0.00975)
(2 0.02 -0.01)
(2.05 0.02 -0.01025)
(2.1 0.02 -0.0105)
(2.15 0.02 -0.01075)
(2.2 0.02 -0.011)
(2.25 0.02 -0.01125)
(2.3 0.02 -0.0115)
(2.35 0.02 -0.01175)
(2.4 0.02 -0.012)
(2.45 0.02 -0.01225)
(2.5 0.02 -0.0125)
(2.55 0.02 -0.01275)
(2.6 0.02 -0.013)
(2.65 0.02 -0.01325)
(2.7 0.02 -0.0135)
(2.75 0.02 -0.01375)
(2.8 0.02 -0.014)
(2.85 0.02 -0.01425)
(2.9 0.02 -0.0145)
(2.95 0.02 -0.01475)
(3 0.02 -0.0160461)
(3.05 0.02 -0.0175772)
(3.1 0.02 -0.0181688)
(3.15 0.02 -0.018518)
(3.2 0.02 -0.0187812)
(3.25 0.02 -0.0190424)
(3.3 0.02 -0.0192921)
(3.35 0.02 -0.0195407)
(3.4 0.02 -0.0198016)
(3.45 0.02 -0.0200352)
(3.5 0.02 -0.0203371)
(3.55 0.02 -0.0205904)
(3.6 0.02 -0.0208441)
(3.65 0.02 -0.0210938)
(3.7 0.02 -0.02134)
(3.75 0.02 -0.0215856)
(3.8 0.02 -0.0218504)
(3.85 0.02 -0.0220961)
(3.9 0.02 -0.0223279)
(3.95 0.02 -0.0225869)
(4 0.02 -0.0228186)
(4.05 0.02 -0.02312)
(4.1 0.02 -0.0232213)
(4.15 0.02 -0.0237151)
(4.2 0.02 -0.0237345)
(4.25 0.02 -0.0240006)
(4.3 0.02 -0.0244196)
(4.35 0.02 -0.0244948)
(4.4 0.02 -0.0247963)
(4.45 0.02 -0.0248663)
(4.5 0.02 -0.0253744)
(4.55 0.02 -0.0255637)
(4.6 0.02 -0.0258679)
(4.65 0.02 -0.0260507)
(4.7 0.02 -0.0262995)
(4.75 0.02 -0.0266114)
(4.8 0.02 -0.0268147)
(4.85 0.02 -0.0270928)
(4.9 0.02 -0.0273271)
(4.95 0.02 -0.0276232)
(5 0.02 -0.0278093)
(5.05 0.02 -0.0280841)
(5.1 0.02 -0.0281054)
(5.15 0.02 -0.0287932)
(5.2 0.02 -0.0288733)
(5.25 0.02 -0.0282803)
(5.3 0.02 -0.0288478)
(5.35 0.02 -0.0295779)
(5.4 0.02 -0.029828)
(5.45 0.02 -0.0301209)
(5.5 0.02 -0.0303282)
(5.55 0.02 -0.0305115)
(5.6 0.02 -0.0307556)
(5.65 0.02 -0.0309214)
(5.7 0.02 -0.0312107)
(5.75 0.02 -0.0315563)
(5.8 0.02 -0.0318644)
(5.85 0.02 -0.0320339)
(5.9 0.02 -0.0323914)
(5.95 0.02 -0.0325304)
(6 0.02 -0.0327873)
(6.05 0.02 -0.033164)
(6.1 0.02 -0.0330683)
(6.15 0.02 -0.033328)
(6.2 0.02 -0.033829)
(6.25 0.02 -0.0341236)
(6.3 0.02 -0.0343165)
(6.35 0.02 -0.0345957)
(6.4 0.02 -0.0348101)
(6.45 0.02 -0.0350381)
(6.5 0.02 -0.0353746)
(6.55 0.02 -0.0355759)
(6.6 0.02 -0.0357643)
(6.65 0.02 -0.0362169)
(6.7 0.02 -0.0357598)
(6.75 0.02 -0.0361449)
(6.8 0.02 -0.0368575)
(6.85 0.02 -0.0370823)
(6.9 0.02 -0.0373578)
(6.95 0.02 -0.0375688)
(7 0.02 -0.0378526)
(7.05 0.02 -0.0380667)
(7.1 0.02 -0.0383389)
(7.15 0.02 -0.0385894)
(7.2 0.02 -0.0388253)
(7.25 0.02 -0.0389514)
(7.3 0.02 -0.0393717)
(7.35 0.02 -0.0395583)
(7.4 0.02 -0.0398667)
(7.45 0.02 -0.040079)
(7.5 0.02 -0.0403269)
(7.55 0.02 -0.0405929)
(7.6 0.02 -0.040807)
(7.65 0.02 -0.0410206)
(7.7 0.02 -0.0413756)
(7.75 0.02 -0.0415578)
(7.8 0.02 -0.0418519)
(7.85 0.02 -0.0420629)
(7.9 0.02 -0.042345)
(7.95 0.02 -0.0425723)
(8 0.02 -0.0428496)
(8.05 0.02 -0.0430684)
(8.1 0.02 -0.0433415)
(8.15 0.02 -0.0435697)
(8.2 0.02 -0.0438455)
(8.25 0.02 -0.0440863)
(8.3 0.02 -0.0443326)
(8.35 0.02 -0.0445948)
(8.4 0.02 -0.0447777)
(8.45 0.02 -0.0451421)
(8.5 0.02 -0.0452707)
(8.55 0.02 -0.0456503)
(8.6 0.02 -0.0457837)
(8.65 0.02 -0.0459339)
(8.7 0.02 -0.0461188)
(8.75 0.02 -0.0465931)
(8.8 0.02 -0.0468355)
(8.85 0.02 -0.0470831)
(8.9 0.02 -0.047358)
(8.95 0.02 -0.0475564)
(9 0.02 -0.047856)
(9.05 0.02 -0.0480715)
(9.1 0.02 -0.0483574)
(9.15 0.02 -0.0485008)
(9.2 0.02 -0.0489085)
(9.25 0.02 -0.0492061)
(9.3 0.02 -0.0487062)
(9.35 0.02 -0.0493768)
(9.4 0.02 -0.0498183)
(9.45 0.02 -0.0501112)
(9.5 0.02 -0.050312)
(9.55 0.02 -0.0506114)
(9.6 0.02 -0.0508196)
(9.65 0.02 -0.0510459)
(9.7 0.02 -0.0513763)
(9.75 0.02 -0.0515403)
(9.8 0.02 -0.0518996)
(9.85 0.02 -0.0520201)
(9.9 0.02 -0.0523991)
(9.95 0.02 -0.0525074)
(10 0.02 -0.052927)
(10.05 0.02 -0.0530039)
(10.1 0.02 -0.0534157)
(10.15 0.02 -0.0534947)
(10.2 0.02 -0.0539147)
(10.25 0.02 -0.0540077)
(10.3 0.02 -0.0542158)
(10.35 0.02 -0.054695)
(10.4 0.02 -0.0547316)
(10.45 0.02 -0.0550684)
(10.5 0.02 -0.0555445)
(10.55 0.02 -0.0551309)
(10.6 0.02 -0.0554127)
(10.65 0.02 -0.0561539)
(10.7 0.02 -0.0562714)
(10.75 0.02 -0.0566525)
(10.8 0.02 -0.0567675)
(10.85 0.02 -0.0571051)
(10.9 0.02 -0.057325)
(10.95 0.02 -0.0575904)
(11 0.02 -0.0578247)
(11.05 0.02 -0.0580989)
(11.1 0.02 -0.0583443)
(11.15 0.02 -0.0585586)
(11.2 0.02 -0.0588481)
(11.25 0.02 -0.0589561)
(11.3 0.02 -0.0593398)
(11.35 0.02 -0.0596032)
(11.4 0.02 -0.0598097)
(11.45 0.02 -0.0601001)
(11.5 0.02 -0.0603306)
(11.55 0.02 -0.0606124)
(11.6 0.02 -0.0606897)
(11.65 0.02 -0.0609104)
(11.7 0.02 -0.0613256)
(11.75 0.02 -0.0615912)
(11.8 0.02 -0.0618378)
(11.85 0.02 -0.0620832)
(11.9 0.02 -0.062328)
(11.95 0.02 -0.0626021)
(12 0.02 -0.0628377)
(12.05 0.02 -0.0630942)
(12.1 0.02 -0.0633324)
(12.15 0.02 -0.0635959)
(12.2 0.02 -0.0638376)
(12.25 0.02 -0.064079)
(12.3 0.02 -0.0643423)
(12.35 0.02 -0.064592)
(12.4 0.02 -0.0648511)
(12.45 0.02 -0.0650813)
(12.5 0.02 -0.0653498)
(12.55 0.02 -0.0655639)
(12.6 0.02 -0.0658393)
(12.65 0.02 -0.0660803)
(12.7 0.02 -0.0663333)
(12.75 0.02 -0.0665963)
(12.8 0.02 -0.0668263)
(12.85 0.02 -0.0671065)
(12.9 0.02 -0.0672819)
(12.95 0.02 -0.0676262)
(13 0.02 -0.0678012)
(13.05 0.02 -0.068136)
(13.1 0.02 -0.0682528)
(13.15 0.02 -0.0686732)
(13.2 0.02 -0.0687355)
(13.25 0.02 -0.0689549)
(13.3 0.02 -0.0693931)
(13.35 0.02 -0.0695469)
(13.4 0.02 -0.0698743)
(13.45 0.02 -0.0700373)
(13.5 0.02 -0.0703728)
(13.55 0.02 -0.0705518)
(13.6 0.02 -0.0708832)
(13.65 0.02 -0.0710337)
(13.7 0.02 -0.0713881)
(13.75 0.02 -0.0715523)
(13.8 0.02 -0.0718973)
(13.85 0.02 -0.072025)
(13.9 0.02 -0.0721895)
(13.95 0.02 -0.0726332)
(14 0.02 -0.0727996)
(14.05 0.02 -0.0731104)
(14.1 0.02 -0.0733067)
(14.15 0.02 -0.0736148)
(14.2 0.02 -0.073809)
(14.25 0.02 -0.0741223)
(14.3 0.02 -0.0743234)
(14.35 0.02 -0.0744167)
(14.4 0.02 -0.0746345)
(14.45 0.02 -0.0748572)
(14.5 0.02 -0.0750815)
(14.55 0.02 -0.0753339)
(14.6 0.02 -0.0755764)
(14.65 0.02 -0.0758307)
(14.7 0.02 -0.0760504)
(14.75 0.02 -0.0762714)
(14.8 0.02 -0.0752737)
(14.85 0.02 -0.07425)
(14.9 0.02 -0.0745)
(14.95 0.02 -0.07475)
(15 0.02 -0.075)
)
;

boundaryField
{
    inlet
    {
        type            zeroGradient;
    }
    outlet
    {
        type            zeroGradient;
    }
    sideWall
    {
        type            empty;
    }
    bed
    {
        type            zeroGradient;
    }
    topWall
    {
        type            zeroGradient;
    }
}


// ************************************************************************* //
