/*--------------------------------*- C++ -*----------------------------------*\
| =========                 |                                                 |
| \\      /  F ield         | foam-extend: Open Source CFD                    |
|  \\    /   O peration     | Version:     3.2                                |
|   \\  /    A nd           | Web:         http://www.foam-extend.org         |
|    \\/     M anipulation  | For copyright notice see file Copyright         |
\*---------------------------------------------------------------------------*/
FoamFile
{
    version     2.0;
    format      ascii;
    class       volScalarField;
    location    "50";
    object      nut;
}
// * * * * * * * * * * * * * * * * * * * * * * * * * * * * * * * * * * * * * //

dimensions      [0 2 -1 0 0 0 0];

internalField   nonuniform List<scalar> 
5400
(
3.41855e-05
2.72457e-05
2.33846e-05
2.34128e-05
2.30466e-05
2.30386e-05
2.28562e-05
2.28459e-05
2.27812e-05
2.28051e-05
2.28117e-05
2.28537e-05
2.28973e-05
2.2965e-05
2.30292e-05
2.31097e-05
2.31918e-05
2.32835e-05
2.33745e-05
2.34736e-05
2.35782e-05
2.36859e-05
2.37967e-05
2.39085e-05
2.40211e-05
2.41357e-05
2.42432e-05
2.43374e-05
2.44168e-05
2.44833e-05
2.45387e-05
2.45846e-05
2.46229e-05
2.46544e-05
2.46809e-05
2.47025e-05
2.4721e-05
2.47358e-05
2.4749e-05
2.47592e-05
2.47688e-05
2.47757e-05
2.47831e-05
2.47877e-05
2.47937e-05
2.47964e-05
2.48016e-05
2.48027e-05
2.48087e-05
2.48058e-05
2.4816e-05
2.48039e-05
2.48267e-05
2.47929e-05
2.48503e-05
2.47593e-05
2.49097e-05
2.46815e-05
2.5126e-05
2.42501e-05
2.06267e-05
2.09394e-05
2.17303e-05
2.17184e-05
2.19838e-05
2.191e-05
2.2039e-05
2.19615e-05
2.20199e-05
2.19918e-05
2.19933e-05
2.21755e-05
2.22224e-05
2.22661e-05
2.22348e-05
2.23216e-05
2.22331e-05
2.23085e-05
2.20788e-05
2.23767e-05
2.19203e-05
2.25282e-05
2.21283e-05
2.19488e-05
2.29025e-05
2.16611e-05
2.25197e-05
2.22192e-05
2.24819e-05
2.22056e-05
2.19375e-05
2.22692e-05
2.2066e-05
2.25572e-05
2.20459e-05
2.21531e-05
2.21034e-05
2.23451e-05
2.20801e-05
2.2384e-05
2.19115e-05
2.25767e-05
2.22887e-05
2.09174e-05
2.37409e-05
2.34514e-05
2.12874e-05
2.1867e-05
2.20861e-05
2.19716e-05
2.22092e-05
2.20864e-05
2.21755e-05
2.21276e-05
2.1988e-05
2.17936e-05
2.20875e-05
2.20147e-05
2.18592e-05
2.23607e-05
2.16556e-05
2.22489e-05
2.2637e-05
2.17587e-05
2.17279e-05
2.2068e-05
2.1896e-05
2.18481e-05
2.19602e-05
2.19179e-05
2.15825e-05
2.2377e-05
2.12268e-05
2.234e-05
2.32581e-05
2.12008e-05
2.16883e-05
2.18063e-05
2.18659e-05
2.18561e-05
2.18854e-05
2.18873e-05
2.19095e-05
2.17337e-05
2.22958e-05
2.19401e-05
2.18323e-05
2.20567e-05
2.19127e-05
2.20731e-05
2.19577e-05
2.1868e-05
2.21231e-05
2.18056e-05
2.18719e-05
2.19227e-05
2.18157e-05
2.18937e-05
2.18774e-05
2.19409e-05
2.18887e-05
2.18424e-05
2.1739e-05
2.1845e-05
2.17287e-05
2.19604e-05
2.16617e-05
2.21141e-05
2.15962e-05
2.18761e-05
2.18307e-05
2.17543e-05
2.21347e-05
2.2351e-05
2.19687e-05
2.16802e-05
2.21267e-05
2.18826e-05
2.20801e-05
2.1876e-05
2.19293e-05
2.20749e-05
2.19026e-05
2.22669e-05
2.08682e-05
2.31924e-05
2.28094e-05
2.1325e-05
2.19234e-05
2.18251e-05
2.20624e-05
2.17849e-05
2.22408e-05
2.16209e-05
2.21438e-05
2.17079e-05
2.21502e-05
2.17996e-05
2.22033e-05
2.18846e-05
2.2115e-05
2.1933e-05
2.18803e-05
2.20797e-05
2.16438e-05
2.24633e-05
2.14917e-05
2.17187e-05
2.23867e-05
2.10483e-05
2.2108e-05
2.32943e-05
2.11137e-05
2.17608e-05
2.18265e-05
2.17521e-05
2.19938e-05
2.17114e-05
2.19234e-05
2.17536e-05
2.1934e-05
2.16986e-05
2.18958e-05
2.1559e-05
2.20459e-05
2.20924e-05
2.15778e-05
2.19168e-05
2.16886e-05
2.18175e-05
2.16974e-05
2.18332e-05
2.22574e-05
2.16407e-05
2.15848e-05
2.19015e-05
2.17861e-05
2.17678e-05
2.17644e-05
2.18243e-05
2.18032e-05
2.18103e-05
2.18668e-05
2.1846e-05
2.1937e-05
2.18529e-05
2.18962e-05
2.18569e-05
2.18612e-05
2.18069e-05
2.17868e-05
2.18662e-05
2.18319e-05
2.19536e-05
2.17714e-05
2.20446e-05
2.17751e-05
2.2091e-05
2.17054e-05
2.19765e-05
2.17637e-05
2.19432e-05
2.19167e-05
2.16553e-05
2.26263e-05
2.16461e-05
2.19476e-05
2.17846e-05
2.17905e-05
2.17402e-05
2.18989e-05
2.17373e-05
2.18335e-05
2.18771e-05
2.18404e-05
2.20154e-05
2.1635e-05
2.23784e-05
2.16428e-05
2.17666e-05
2.18522e-05
2.18628e-05
2.19779e-05
2.19088e-05
2.20111e-05
2.1761e-05
2.22506e-05
2.22287e-05
2.20529e-05
2.22057e-05
2.2121e-05
2.22228e-05
2.20192e-05
2.22641e-05
2.18525e-05
2.26439e-05
2.65408e-05
2.56024e-05
2.43273e-05
2.46511e-05
3.24573e-05
4.33056e-05
4.71516e-05
5.00202e-05
5.18849e-05
5.27646e-05
5.34351e-05
5.38388e-05
5.42589e-05
5.45839e-05
5.49151e-05
5.52311e-05
5.55457e-05
5.58707e-05
5.61836e-05
5.64976e-05
5.68148e-05
5.71307e-05
5.74503e-05
5.77686e-05
5.80833e-05
5.83951e-05
5.8701e-05
5.89989e-05
5.9288e-05
5.95546e-05
5.97835e-05
5.99662e-05
6.0108e-05
6.02177e-05
6.03025e-05
6.03688e-05
6.04204e-05
6.04615e-05
6.04937e-05
6.05202e-05
6.05409e-05
6.05587e-05
6.05725e-05
6.05852e-05
6.05946e-05
6.06043e-05
6.06107e-05
6.06184e-05
6.06228e-05
6.06287e-05
6.06324e-05
6.06364e-05
6.06407e-05
6.06413e-05
6.06485e-05
6.0642e-05
6.06566e-05
6.06357e-05
6.06708e-05
6.06131e-05
6.07034e-05
6.05671e-05
6.06566e-05
5.86295e-05
5.76705e-05
5.7113e-05
5.61477e-05
5.57228e-05
5.53939e-05
5.52253e-05
5.51562e-05
5.50606e-05
5.50751e-05
5.49651e-05
5.50056e-05
5.50332e-05
5.49806e-05
5.49802e-05
5.49246e-05
5.48645e-05
5.48181e-05
5.47919e-05
5.4432e-05
5.47204e-05
5.44945e-05
5.45979e-05
5.4281e-05
5.45471e-05
5.44959e-05
5.41317e-05
5.46241e-05
5.42993e-05
5.4173e-05
5.42877e-05
5.44551e-05
5.44953e-05
5.45271e-05
5.45388e-05
5.44397e-05
5.44517e-05
5.44441e-05
5.46253e-05
5.45658e-05
5.45973e-05
5.4401e-05
5.44402e-05
5.38063e-05
5.41684e-05
5.53581e-05
5.41463e-05
5.37205e-05
5.4638e-05
5.44992e-05
5.45131e-05
5.45027e-05
5.43906e-05
5.43777e-05
5.44117e-05
5.45066e-05
5.44889e-05
5.45869e-05
5.44256e-05
5.43008e-05
5.44795e-05
5.43498e-05
5.44993e-05
5.42668e-05
5.39381e-05
5.45016e-05
5.45486e-05
5.43149e-05
5.41678e-05
5.42665e-05
5.42575e-05
5.42181e-05
5.45173e-05
5.43709e-05
5.46368e-05
5.44022e-05
5.33787e-05
5.44286e-05
5.44566e-05
5.4421e-05
5.43532e-05
5.43303e-05
5.43394e-05
5.44072e-05
5.45031e-05
5.47096e-05
5.43377e-05
5.4364e-05
5.44856e-05
5.44595e-05
5.45219e-05
5.42921e-05
5.4234e-05
5.43511e-05
5.43414e-05
5.44623e-05
5.43326e-05
5.42648e-05
5.42598e-05
5.43543e-05
5.43558e-05
5.41922e-05
5.40597e-05
5.40528e-05
5.41931e-05
5.41889e-05
5.43534e-05
5.41119e-05
5.43247e-05
5.40478e-05
5.42444e-05
5.41839e-05
5.42657e-05
5.45474e-05
5.44479e-05
5.43298e-05
5.42229e-05
5.45057e-05
5.43039e-05
5.43157e-05
5.41397e-05
5.44188e-05
5.43988e-05
5.42387e-05
5.41748e-05
5.41877e-05
5.49963e-05
5.38821e-05
5.35332e-05
5.44019e-05
5.43185e-05
5.43542e-05
5.41641e-05
5.43983e-05
5.39507e-05
5.42968e-05
5.42416e-05
5.43794e-05
5.42722e-05
5.42194e-05
5.42247e-05
5.42552e-05
5.40998e-05
5.40723e-05
5.40717e-05
5.39855e-05
5.42749e-05
5.35459e-05
5.40724e-05
5.42696e-05
5.37765e-05
5.42093e-05
5.43135e-05
5.30611e-05
5.42643e-05
5.41021e-05
5.40386e-05
5.40512e-05
5.39702e-05
5.40559e-05
5.39793e-05
5.41564e-05
5.40075e-05
5.4074e-05
5.4037e-05
5.42739e-05
5.41479e-05
5.38453e-05
5.40512e-05
5.38548e-05
5.40576e-05
5.42703e-05
5.42534e-05
5.41515e-05
5.37706e-05
5.39897e-05
5.4098e-05
5.38342e-05
5.39982e-05
5.41991e-05
5.42614e-05
5.42078e-05
5.41899e-05
5.42714e-05
5.42754e-05
5.42282e-05
5.41343e-05
5.40731e-05
5.40241e-05
5.41251e-05
5.4072e-05
5.39947e-05
5.42412e-05
5.43559e-05
5.42962e-05
5.4182e-05
5.4389e-05
5.41677e-05
5.4171e-05
5.39717e-05
5.41539e-05
5.41798e-05
5.42174e-05
5.4047e-05
5.40293e-05
5.43952e-05
5.37633e-05
5.40532e-05
5.39613e-05
5.40029e-05
5.42309e-05
5.43343e-05
5.42183e-05
5.42371e-05
5.42651e-05
5.42716e-05
5.42372e-05
5.39639e-05
5.42549e-05
5.3849e-05
5.41197e-05
5.39946e-05
5.40947e-05
5.41345e-05
5.40926e-05
5.41079e-05
5.40044e-05
5.42552e-05
5.41811e-05
5.42754e-05
5.44697e-05
5.45554e-05
5.46505e-05
5.44776e-05
5.46508e-05
5.47038e-05
5.54721e-05
5.76577e-05
5.72397e-05
5.78447e-05
5.89187e-05
2.94446e-05
4.69806e-05
5.53922e-05
6.47565e-05
7.19112e-05
7.54933e-05
7.78762e-05
7.97786e-05
8.12363e-05
8.25291e-05
8.35805e-05
8.45636e-05
8.54575e-05
8.62802e-05
8.70684e-05
8.7805e-05
8.85171e-05
8.92075e-05
8.98742e-05
9.05188e-05
9.11399e-05
9.17372e-05
9.23071e-05
9.28453e-05
9.33526e-05
9.38006e-05
9.41393e-05
9.43792e-05
9.45471e-05
9.46633e-05
9.47444e-05
9.47996e-05
9.48382e-05
9.48638e-05
9.48823e-05
9.48943e-05
9.49039e-05
9.49102e-05
9.49161e-05
9.49201e-05
9.49247e-05
9.49277e-05
9.4932e-05
9.49345e-05
9.49386e-05
9.49401e-05
9.4944e-05
9.49459e-05
9.49486e-05
9.4951e-05
9.4951e-05
9.49531e-05
9.49527e-05
9.49539e-05
9.49509e-05
9.4952e-05
9.49458e-05
9.50251e-05
9.47866e-05
9.00997e-05
9.07231e-05
9.18086e-05
9.05198e-05
8.98076e-05
8.89507e-05
8.85062e-05
8.8126e-05
8.78973e-05
8.78227e-05
8.74986e-05
8.75137e-05
8.74402e-05
8.72483e-05
8.70323e-05
8.67813e-05
8.65148e-05
8.63711e-05
8.61991e-05
8.60805e-05
8.5937e-05
8.61171e-05
8.5776e-05
8.50268e-05
8.59582e-05
8.51377e-05
8.54883e-05
8.55637e-05
8.52726e-05
8.54965e-05
8.47658e-05
8.54934e-05
8.52539e-05
8.56483e-05
8.53028e-05
8.529e-05
8.55643e-05
8.55934e-05
8.55961e-05
8.55897e-05
8.54642e-05
8.57056e-05
8.55459e-05
8.38491e-05
8.61368e-05
8.61094e-05
8.34879e-05
8.46238e-05
8.55526e-05
8.5408e-05
8.55748e-05
8.55225e-05
8.5469e-05
8.57304e-05
8.54784e-05
8.54848e-05
8.56871e-05
8.5827e-05
8.5376e-05
8.56651e-05
8.52354e-05
8.56294e-05
8.59208e-05
8.46663e-05
8.49852e-05
8.5537e-05
8.5458e-05
8.54105e-05
8.56347e-05
8.55116e-05
8.53186e-05
8.57134e-05
8.53096e-05
8.57803e-05
8.66299e-05
8.4195e-05
8.44134e-05
8.52649e-05
8.53007e-05
8.55595e-05
8.54314e-05
8.55643e-05
8.54282e-05
8.55167e-05
8.58584e-05
8.5622e-05
8.50808e-05
8.56535e-05
8.53857e-05
8.55966e-05
8.54907e-05
8.54019e-05
8.55116e-05
8.53751e-05
8.5328e-05
8.57194e-05
8.53864e-05
8.55615e-05
8.5445e-05
8.55958e-05
8.55124e-05
8.55254e-05
8.53198e-05
8.5472e-05
8.54357e-05
8.5566e-05
8.54903e-05
8.56051e-05
8.53042e-05
8.5296e-05
8.56853e-05
8.52458e-05
8.57529e-05
8.5574e-05
8.53986e-05
8.50525e-05
8.5703e-05
8.56146e-05
8.56194e-05
8.54957e-05
8.5351e-05
8.5694e-05
8.54335e-05
8.55981e-05
8.46723e-05
8.52829e-05
8.59026e-05
8.33127e-05
8.47539e-05
8.52023e-05
8.5561e-05
8.53077e-05
8.553e-05
8.52673e-05
8.53899e-05
8.52462e-05
8.52903e-05
8.53848e-05
8.51732e-05
8.53166e-05
8.49491e-05
8.54782e-05
8.48444e-05
8.55095e-05
8.47937e-05
8.55362e-05
8.49e-05
8.4796e-05
8.56065e-05
8.45949e-05
8.49831e-05
8.6105e-05
8.39317e-05
8.27311e-05
8.52665e-05
8.48229e-05
8.54087e-05
8.49534e-05
8.5339e-05
8.5195e-05
8.53899e-05
8.53084e-05
8.53593e-05
8.52608e-05
8.50828e-05
8.55816e-05
8.47501e-05
8.51132e-05
8.51172e-05
8.50534e-05
8.53109e-05
8.54852e-05
8.58358e-05
8.49794e-05
8.46983e-05
8.5415e-05
8.53308e-05
8.52782e-05
8.55033e-05
8.55208e-05
8.55205e-05
8.55647e-05
8.55005e-05
8.54195e-05
8.5479e-05
8.53524e-05
8.52854e-05
8.52853e-05
8.51588e-05
8.52129e-05
8.50951e-05
8.52076e-05
8.52915e-05
8.5438e-05
8.5394e-05
8.54761e-05
8.53858e-05
8.53918e-05
8.52334e-05
8.52146e-05
8.53251e-05
8.51616e-05
8.54928e-05
8.47896e-05
8.54804e-05
8.47284e-05
8.45404e-05
8.48629e-05
8.47977e-05
8.53213e-05
8.51629e-05
8.55055e-05
8.51756e-05
8.54059e-05
8.50083e-05
8.52965e-05
8.48087e-05
8.53032e-05
8.48543e-05
8.46249e-05
8.50809e-05
8.48821e-05
8.52165e-05
8.49624e-05
8.51479e-05
8.47918e-05
8.52639e-05
8.51675e-05
8.49611e-05
8.53187e-05
8.56501e-05
8.58171e-05
8.5732e-05
8.56349e-05
8.562e-05
8.60639e-05
8.8309e-05
8.89892e-05
8.75306e-05
8.80408e-05
9.06893e-05
2.76959e-05
4.056e-05
5.16473e-05
6.54432e-05
7.71392e-05
8.57757e-05
9.25677e-05
9.68441e-05
0.000100259
0.000103178
0.000105588
0.000107723
0.000109609
0.000111321
0.000112893
0.000114328
0.00011568
0.000116952
0.000118154
0.000119291
0.000120362
0.000121371
0.000122311
0.000123178
0.000123973
0.000124642
0.000125122
0.000125442
0.000125648
0.000125774
0.000125847
0.000125884
0.000125898
0.000125898
0.000125891
0.000125879
0.000125867
0.000125854
0.000125844
0.000125834
0.000125827
0.000125821
0.000125817
0.000125814
0.000125812
0.00012581
0.00012581
0.00012581
0.00012581
0.000125811
0.000125809
0.000125813
0.000125808
0.000125815
0.000125803
0.000125817
0.000125788
0.00012593
0.000125401
0.00011891
0.000118096
0.000122328
0.00012197
0.000121536
0.000120545
0.00011996
0.000119317
0.000118926
0.000118752
0.000118282
0.000118239
0.000118034
0.000117657
0.000117131
0.000116591
0.000116065
0.000115715
0.000115373
0.000115126
0.000114873
0.000114993
0.000114484
0.000113476
0.000114613
0.000113578
0.000113814
0.00011409
0.000113915
0.000113957
0.000112833
0.00011365
0.00011344
0.000114011
0.000113629
0.000113533
0.000113886
0.000113961
0.000113979
0.000113913
0.000113783
0.000114162
0.000113862
0.000111698
0.000113788
0.000114688
0.000111124
0.000111935
0.000113373
0.000113542
0.000113873
0.000113935
0.000113935
0.000114126
0.000113734
0.000113625
0.000114001
0.000114261
0.000113647
0.000113995
0.000113503
0.000114019
0.00011433
0.000112768
0.000112864
0.000113666
0.000113721
0.00011375
0.000114078
0.000113865
0.000113595
0.00011412
0.000113654
0.000113567
0.000115059
0.000111924
0.000111844
0.000112993
0.000113354
0.000113806
0.000113754
0.000113906
0.000113796
0.000113881
0.000114295
0.000113994
0.00011326
0.000113914
0.00011363
0.000113897
0.000113799
0.0001137
0.000113901
0.000113678
0.000113497
0.000114004
0.00011364
0.000113829
0.000113707
0.000113902
0.000113804
0.000113823
0.000113619
0.000113797
0.000113771
0.000113938
0.000113823
0.000113935
0.000113569
0.000113071
0.000113987
0.000113419
0.000114014
0.000113953
0.000113513
0.000112939
0.000113788
0.000113821
0.000113885
0.000113765
0.000113581
0.000113954
0.000113683
0.000113901
0.000112606
0.000110885
0.000114139
0.000110647
0.000112177
0.00011297
0.000113587
0.000113378
0.00011369
0.000113398
0.000113444
0.000113372
0.000113374
0.000113412
0.000113192
0.000113273
0.000112898
0.000113416
0.00011274
0.000113542
0.000112683
0.000113574
0.000112903
0.000112596
0.000113587
0.000112298
0.000110413
0.000114153
0.000111552
0.00011004
0.0001129
0.000112652
0.000113374
0.000112894
0.000113358
0.000113251
0.000113348
0.000113422
0.000113372
0.000113122
0.000112095
0.000113674
0.000112568
0.000112976
0.000113058
0.000112244
0.000112958
0.000112645
0.000113665
0.000112911
0.00011184
0.000113221
0.000113402
0.000113418
0.000113406
0.000113185
0.000113555
0.000113598
0.000113594
0.000113524
0.000113604
0.000113444
0.000113338
0.000113275
0.000113185
0.000113297
0.000113095
0.000113207
0.000113327
0.000113508
0.000113471
0.000113571
0.00011346
0.000113455
0.000113314
0.000113011
0.000113292
0.000113187
0.000113527
0.000112622
0.000113496
0.000112613
0.000112083
0.000112632
0.000112721
0.00011322
0.000112207
0.000113423
0.000112979
0.000113225
0.00011276
0.000113126
0.000112584
0.00011325
0.000112757
0.000111943
0.000112329
0.000112501
0.000112979
0.000112726
0.000112951
0.000112506
0.000113093
0.000113091
0.00011283
0.00011318
0.000113626
0.000113814
0.000113611
0.000113512
0.000113537
0.0001142
0.000116017
0.000117557
0.000114727
0.000113511
0.000116549
2.85366e-05
3.44505e-05
4.78704e-05
6.02654e-05
7.12162e-05
8.35627e-05
9.44598e-05
0.000103055
0.000110255
0.000116148
0.000120388
0.000124113
0.00012739
0.000130342
0.000133003
0.000135413
0.000137648
0.00013972
0.000141654
0.000143457
0.000145133
0.000146691
0.000148122
0.000149424
0.000150594
0.00015156
0.000152253
0.000152722
0.00015303
0.000153222
0.000153335
0.000153393
0.000153418
0.000153421
0.000153413
0.000153398
0.000153381
0.000153365
0.00015335
0.000153338
0.000153328
0.000153322
0.000153316
0.000153314
0.000153311
0.00015331
0.00015331
0.000153311
0.000153311
0.000153313
0.000153311
0.000153318
0.000153313
0.000153324
0.000153308
0.000153332
0.00015329
0.000153472
0.000152683
0.000144973
0.000140073
0.000148765
0.000149624
0.000149783
0.000149033
0.000148552
0.000147824
0.000147371
0.000147145
0.000146654
0.000146569
0.000146198
0.000145601
0.000144766
0.000143931
0.000143104
0.000142521
0.000142014
0.000141633
0.000141253
0.000141268
0.000140661
0.000139424
0.000140616
0.000139485
0.000139525
0.000139938
0.000139912
0.000139871
0.000138413
0.000139137
0.000138929
0.000139594
0.000139261
0.000139116
0.000139484
0.000139564
0.000139568
0.000139485
0.000139384
0.000139824
0.000139506
0.000137114
0.000139491
0.000140559
0.000136569
0.000136697
0.00013829
0.000138741
0.000139246
0.000139466
0.000139553
0.000139709
0.000139243
0.000139
0.000139385
0.000139694
0.000139055
0.000139489
0.000139023
0.000139532
0.000139929
0.000138317
0.000138133
0.000138993
0.000139167
0.000139267
0.000139648
0.000139386
0.000139064
0.000139647
0.000139176
0.000136066
0.000140555
0.00013716
0.000136511
0.000137931
0.000138571
0.000139165
0.000139226
0.000139412
0.000139338
0.0001394
0.000139834
0.000139569
0.000138664
0.000139286
0.000139037
0.000139353
0.000139293
0.000139213
0.000139455
0.000139204
0.000138882
0.000139406
0.00013906
0.00013913
0.000139163
0.00013937
0.000139263
0.000139301
0.000139121
0.000138707
0.000139107
0.000139362
0.000139309
0.000139171
0.000139053
0.000137899
0.000139407
0.00013875
0.000138882
0.000139504
0.000138948
0.00013812
0.000139002
0.000139158
0.000139288
0.000139208
0.000139027
0.000139385
0.000139141
0.000139364
0.000137862
0.000135067
0.000139655
0.000135704
0.000136809
0.000137916
0.000138702
0.000138574
0.00013895
0.000138692
0.000138686
0.000138706
0.000138469
0.000138684
0.000138347
0.000138482
0.000138031
0.000138513
0.00013781
0.000138663
0.000137784
0.000138734
0.000138132
0.000137734
0.000138671
0.000137294
0.000133225
0.000139277
0.000136673
0.000134835
0.000137479
0.000137649
0.000137893
0.000137987
0.000138018
0.00013843
0.000137986
0.000138398
0.00013804
0.000137938
0.000136438
0.000138637
0.000137654
0.000137414
0.000137887
0.000136698
0.000137106
0.000136648
0.000137933
0.000138047
0.000136343
0.00013741
0.000138581
0.000138697
0.000138641
0.000138278
0.000138633
0.000138473
0.000138407
0.000138743
0.000138819
0.000138632
0.000138477
0.000138373
0.000138356
0.000138488
0.000137995
0.000138012
0.0001379
0.000137922
0.000138661
0.000138738
0.000138719
0.000138738
0.000138673
0.000138149
0.00013855
0.000138449
0.000138712
0.000137683
0.000138056
0.000137754
0.000136997
0.000137732
0.000137917
0.000138295
0.000136428
0.00013839
0.00013788
0.000138121
0.000137674
0.000138096
0.000137592
0.000138359
0.00013792
0.000136424
0.000136557
0.000137359
0.000137886
0.00013766
0.000137906
0.000137431
0.000138065
0.000138241
0.000138023
0.000138302
0.000138748
0.000138854
0.000138563
0.000138561
0.000138692
0.000138248
0.000140013
0.00014357
0.000139242
0.000137341
0.000139526
3.45278e-05
3.17918e-05
4.02078e-05
5.36382e-05
6.18883e-05
7.48833e-05
8.73071e-05
9.88158e-05
0.000109297
0.00011822
0.000125955
0.00013239
0.000138276
0.000143047
0.000147064
0.000150701
0.000154047
0.000157135
0.000159995
0.000162637
0.000165077
0.000167327
0.000169378
0.000171231
0.000172884
0.000174259
0.000175281
0.000176013
0.000176529
0.000176884
0.000177125
0.000177284
0.000177388
0.000177455
0.000177497
0.000177524
0.000177543
0.000177556
0.000177566
0.000177577
0.000177585
0.000177596
0.000177605
0.000177616
0.000177624
0.000177635
0.000177642
0.000177652
0.000177658
0.000177668
0.000177672
0.000177684
0.000177683
0.000177701
0.000177686
0.000177719
0.000177671
0.000177877
0.000176867
0.00016846
0.000159689
0.000171936
0.000173749
0.000174519
0.000174204
0.000174016
0.000173408
0.000173032
0.000172825
0.000172394
0.000172303
0.000171786
0.000170974
0.000169857
0.000168753
0.000167652
0.000166858
0.000166196
0.000165688
0.000165182
0.000165085
0.000164419
0.000163027
0.000164177
0.000162975
0.00016284
0.0001633
0.000163379
0.000163292
0.000161615
0.000162185
0.000161946
0.000162651
0.000162368
0.000162219
0.00016257
0.000162632
0.000162616
0.000162525
0.000162462
0.000162923
0.000162641
0.000160215
0.000163241
0.000163814
0.000159729
0.000159215
0.000160722
0.000161295
0.000161965
0.00016234
0.000162547
0.00016268
0.000162193
0.000161851
0.000162161
0.000162421
0.000161839
0.000162371
0.000161979
0.000162478
0.000162914
0.000161392
0.000161005
0.000161822
0.000162057
0.000162189
0.000162569
0.000162282
0.000161934
0.000162533
0.000162088
0.000157524
0.000163424
0.000160013
0.000159112
0.000160472
0.000161256
0.000161908
0.000162087
0.000162309
0.000162261
0.000162287
0.000162737
0.000162512
0.000161512
0.000162069
0.000161866
0.000162234
0.000162208
0.000162141
0.000162394
0.000162123
0.000161702
0.000162193
0.000161889
0.000161704
0.000162032
0.00016223
0.000162119
0.000162199
0.00016207
0.000161266
0.000161712
0.000161968
0.00016217
0.000161886
0.000161964
0.000160792
0.000162223
0.000161528
0.000161606
0.000162339
0.00016194
0.000160905
0.000161731
0.000161948
0.000162129
0.000162088
0.000161946
0.000162297
0.0001621
0.000162277
0.000160664
0.000159249
0.000162623
0.000158554
0.000159466
0.000160405
0.000161253
0.000161196
0.000161615
0.000161407
0.000161384
0.000161474
0.000161371
0.00016146
0.000161222
0.000161234
0.00016072
0.000161137
0.000160395
0.000161248
0.000160407
0.000161375
0.000160847
0.000160492
0.000161351
0.000159864
0.000156515
0.00016183
0.00015939
0.000157856
0.000160324
0.000160139
0.00016038
0.000160527
0.000160514
0.000161019
0.000160494
0.000161014
0.000160653
0.000160573
0.000158813
0.00016117
0.000160229
0.000159917
0.000160505
0.000159241
0.000159418
0.00015911
0.000160634
0.000160707
0.00015885
0.000159577
0.000161165
0.000161371
0.000161617
0.000161577
0.000161569
0.000161553
0.000161389
0.000161383
0.000161444
0.000161232
0.000161013
0.00016087
0.000160894
0.000161036
0.000160454
0.000159962
0.000159338
0.000159356
0.000161153
0.000161476
0.000161468
0.000161566
0.000161594
0.000161375
0.000161411
0.000161258
0.000161382
0.000160277
0.00016078
0.000160377
0.00015953
0.000160384
0.000160556
0.00016079
0.00016018
0.000160803
0.000160254
0.000160584
0.000160136
0.000160596
0.000160142
0.000160953
0.000160585
0.00015936
0.000159623
0.000159794
0.000160297
0.000160096
0.000160352
0.000159886
0.000160525
0.000160847
0.000160714
0.00016093
0.000161309
0.000161302
0.000160988
0.000161167
0.000161429
0.000160389
0.00016296
0.000167021
0.000162783
0.000161069
0.000162174
4.90038e-05
3.37921e-05
3.47364e-05
4.34023e-05
5.57877e-05
6.64382e-05
7.64582e-05
8.85913e-05
0.000100845
0.000111939
0.000122465
0.000131483
0.000139839
0.000146989
0.000153407
0.000158928
0.000164001
0.000168867
0.000173056
0.000176695
0.000180048
0.000183127
0.000185928
0.000188454
0.000190726
0.000192677
0.000194183
0.000195325
0.000196186
0.000196831
0.000197316
0.000197682
0.00019796
0.000198174
0.000198342
0.000198476
0.000198586
0.000198678
0.000198756
0.000198825
0.000198883
0.000198938
0.000198984
0.00019903
0.000199066
0.000199102
0.00019913
0.00019916
0.000199181
0.000199206
0.000199222
0.000199247
0.000199256
0.000199284
0.000199275
0.000199318
0.000199271
0.00019949
0.000198314
0.000189607
0.000179141
0.000191879
0.00019493
0.000196145
0.0001963
0.000196479
0.000196152
0.000195964
0.000195869
0.000195529
0.000195454
0.000194826
0.000193839
0.000192483
0.000191155
0.000189859
0.000188895
0.000188081
0.000187454
0.000186846
0.000186635
0.000185965
0.000184487
0.00018551
0.000184269
0.000183988
0.000184429
0.000184572
0.000184407
0.000182592
0.000183003
0.000182739
0.000183441
0.000183213
0.000183088
0.00018341
0.000183447
0.00018339
0.000183294
0.000183264
0.000183742
0.000183513
0.000181185
0.000184111
0.000184717
0.000180699
0.000179695
0.000180962
0.000181542
0.000182335
0.000182856
0.000183191
0.000183331
0.000182859
0.000182437
0.000182647
0.000182815
0.000182318
0.000182941
0.000182644
0.000183098
0.000183572
0.000182222
0.000181717
0.00018246
0.000182711
0.000182839
0.000183166
0.000182862
0.000182511
0.000183095
0.000182695
0.000179846
0.000183992
0.000180712
0.000179602
0.000180921
0.000181722
0.000182375
0.000182668
0.000182924
0.000182884
0.000182868
0.000183317
0.000183125
0.000182107
0.000182604
0.000182449
0.000182854
0.000182848
0.00018277
0.000183027
0.000182723
0.00018225
0.000182692
0.000182426
0.000182675
0.000182605
0.00018279
0.000182692
0.000182833
0.00018277
0.000182416
0.000182776
0.00018292
0.000182721
0.000182817
0.000182591
0.000182344
0.000182806
0.000182098
0.000182739
0.000183286
0.000182785
0.00018159
0.000182293
0.000182524
0.000182742
0.000182732
0.000182639
0.000182981
0.000182858
0.000182957
0.000181284
0.000182118
0.000183286
0.000179354
0.000179906
0.00018075
0.000181583
0.000181574
0.000182013
0.000181856
0.00018184
0.000181978
0.000181874
0.000182018
0.000181813
0.000181834
0.000181265
0.000181614
0.000180855
0.000181663
0.000180878
0.000181828
0.00018137
0.000180974
0.000181795
0.000180308
0.000179509
0.000182114
0.000179934
0.000178995
0.000180641
0.00018046
0.000181222
0.000180854
0.000181333
0.000181364
0.000181583
0.000181673
0.000181759
0.000181659
0.000179907
0.000181898
0.000180599
0.000180777
0.000180957
0.000180723
0.000180974
0.000180669
0.000182072
0.00018125
0.000180162
0.00018064
0.000181508
0.00018177
0.000181952
0.000181991
0.000181985
0.000181991
0.000181956
0.000181774
0.000181783
0.000181563
0.000181332
0.000181105
0.000181128
0.000181307
0.000181207
0.00018095
0.000179988
0.000179882
0.000181701
0.000181947
0.000182054
0.000182275
0.000182395
0.000182155
0.000182175
0.000181925
0.000181895
0.000180744
0.000181646
0.000180792
0.000179937
0.000180805
0.000180866
0.00018098
0.000180903
0.000181003
0.000180457
0.000180851
0.000180482
0.000180969
0.000180568
0.000181371
0.000181058
0.000180116
0.000180309
0.00018012
0.000180576
0.000180398
0.000180649
0.000180215
0.00018082
0.000181212
0.00018116
0.000181353
0.000181654
0.000181584
0.000181337
0.000181699
0.000182062
0.000181509
0.000186321
0.000188077
0.000183646
0.000183075
0.000183655
7.60591e-05
4.40928e-05
3.60171e-05
3.77502e-05
4.64446e-05
5.9139e-05
6.69471e-05
7.7947e-05
8.90548e-05
0.000100679
0.000112715
0.000123599
0.000134053
0.00014336
0.00015204
0.00015965
0.000166446
0.000172902
0.00017871
0.000184004
0.000188787
0.000192933
0.000196592
0.000199581
0.000202822
0.00020692
0.00020908
0.000210791
0.000212149
0.000213228
0.000214092
0.000214786
0.000215351
0.000215813
0.000216195
0.000216514
0.000216784
0.000217014
0.00021721
0.000217383
0.00021753
0.000217662
0.000217774
0.000217878
0.000217963
0.000218042
0.000218107
0.00021817
0.000218219
0.000218268
0.000218306
0.000218349
0.000218375
0.000218418
0.000218421
0.000218477
0.000218437
0.00021866
0.000217392
0.00020865
0.000200508
0.000210027
0.000213701
0.000215156
0.000215722
0.000216253
0.000216281
0.000216338
0.000216414
0.000216204
0.000216143
0.00021544
0.000214332
0.00021278
0.000211291
0.000209896
0.000208828
0.000207875
0.000207145
0.000206477
0.000206149
0.000205517
0.000204017
0.000204832
0.000203588
0.000203167
0.00020356
0.000203715
0.00020348
0.000201574
0.000201813
0.000201549
0.000202218
0.00020206
0.000201951
0.00020224
0.000202249
0.000202149
0.000202037
0.000202026
0.00020251
0.000202377
0.000200232
0.000202943
0.000203529
0.000199651
0.000198297
0.000199243
0.000199772
0.000200634
0.000201292
0.000201743
0.000201933
0.000201512
0.000201015
0.000201109
0.0002012
0.000200797
0.000201487
0.000201296
0.00020167
0.000202193
0.000201062
0.000200508
0.000201164
0.000201405
0.000201499
0.00020175
0.000201438
0.000201096
0.000201636
0.000201286
0.00020186
0.000202506
0.000199491
0.000198285
0.0001995
0.000200244
0.00020088
0.000201281
0.000201568
0.000201522
0.000201449
0.000201862
0.000201709
0.000200734
0.000201185
0.000201086
0.0002015
0.00020149
0.000201387
0.000201637
0.000201294
0.000200805
0.000201188
0.000200952
0.000201211
0.000201168
0.000201345
0.000201282
0.000201491
0.0002015
0.000201609
0.000201479
0.00020149
0.000201258
0.000201358
0.000201213
0.000201024
0.000201426
0.000200763
0.000201416
0.000202119
0.000201729
0.000200425
0.000200947
0.000201168
0.000201409
0.00020143
0.000201377
0.000201707
0.000201656
0.000201664
0.000199977
0.00020122
0.000201912
0.000198294
0.000198507
0.0001992
0.000199971
0.000199992
0.000200436
0.000200327
0.000200327
0.000200504
0.000200412
0.000200612
0.000200458
0.000200516
0.00019991
0.000200203
0.000199469
0.000200199
0.000199474
0.000200368
0.000199977
0.000199569
0.000200336
0.00019889
0.000199062
0.000200415
0.000198555
0.000197595
0.000199086
0.000198901
0.000199594
0.000199263
0.000199711
0.000199773
0.000200078
0.000200118
0.000200214
0.000200119
0.000200173
0.000200302
0.000199055
0.000199169
0.000199355
0.000199461
0.000199642
0.000199853
0.000200626
0.000199968
0.000199179
0.000199606
0.000199921
0.000200197
0.000200321
0.000200363
0.000200411
0.000200453
0.000200464
0.000200195
0.000200095
0.000199886
0.00019967
0.000199392
0.000199409
0.000199637
0.000199674
0.000199913
0.000199939
0.000200159
0.000200261
0.00020054
0.000200783
0.000201147
0.00020135
0.000201108
0.000201092
0.000200711
0.000200543
0.000199359
0.000200116
0.000199284
0.000198456
0.00019923
0.000199112
0.00019915
0.000199155
0.00019927
0.000198791
0.000199242
0.000199003
0.000199517
0.000199152
0.000199902
0.000199618
0.000198699
0.000198796
0.000198585
0.000199003
0.000198854
0.000199095
0.000198702
0.000199257
0.000199645
0.000199648
0.000199864
0.000200114
0.000200067
0.000199968
0.000200469
0.000200858
0.000201913
0.0002081
0.00020697
0.000202531
0.000201443
0.000201649
0.00012617
6.52687e-05
4.67783e-05
3.9635e-05
4.08541e-05
4.8895e-05
6.07536e-05
7.05828e-05
7.86369e-05
8.89216e-05
0.000100095
0.000111423
0.000123079
0.000133903
0.000144386
0.000153965
0.000162661
0.000170539
0.000177804
0.000184678
0.000190794
0.000195991
0.000200659
0.000204962
0.000210822
0.000217233
0.0002202
0.000222635
0.000224644
0.000226307
0.00022769
0.000228844
0.000229813
0.00023063
0.000231321
0.00023191
0.000232413
0.000232846
0.000233217
0.000233541
0.000233819
0.000234065
0.000234275
0.000234463
0.00023462
0.000234763
0.000234882
0.000234992
0.000235082
0.000235166
0.000235235
0.000235305
0.000235354