/*--------------------------------*- C++ -*----------------------------------*\
| =========                 |                                                 |
| \\      /  F ield         | foam-extend: Open Source CFD                    |
|  \\    /   O peration     | Version:     3.2                                |
|   \\  /    A nd           | Web:         http://www.foam-extend.org         |
|    \\/     M anipulation  | For copyright notice see file Copyright         |
\*---------------------------------------------------------------------------*/
FoamFile
{
    version     2.0;
    format      ascii;
    class       areaScalarField;
    location    "50";
    object      Pa;
}
// * * * * * * * * * * * * * * * * * * * * * * * * * * * * * * * * * * * * * //

dimensions      [0 0 0 0 0 0 0];

internalField   nonuniform List<scalar> 
300
(
0.3
0.3
0.3
0.3
0.3
0.3
0.3
0.3
0.3
0.3
0.3
0.3
0.3
0.3
0.3
0.3
0.3
0.3
0.3
0.3
0.3
0.3
0.3
0.3
0.3
0.3
0.3
0.3
0.3
0.3
0.3
0.3
0.3
0.3
0.3
0.3
0.3
0.3
0.3
0.3
0.3
0.3
0.3
0.3
0.3
0.3
0.3
0.3
0.3
0.3
0.3
0.3
0.3
0.3
0.3
0.3
0.3
0.3
0.3
0.3
0.517821
0.667273
0.737686
0.747752
0.757185
0.755066
0.759135
0.753829
0.758283
0.746098
0.513362
0.348222
0.405426
0.31221
0.391076
0.46763
0.369396
0.566298
0.408955
0.674172
0.463781
0.802048
0.453361
0.717239
0.76726
0.723038
0.641037
0.790572
0.764123
0.755905
0.706528
0.625733
0.553197
0.772859
0.686511
0.566283
0.679045
0.641319
0.591815
0.716185
0.687572
0.797678
0.591011
0.373766
0.761937
0.791139
0.700683
0.613113
0.626677
0.445479
0.804998
0.719086
0.803995
0.72533
0.767263
0.601998
0.655817
0.53084
0.63665
0.714193
0.379923
0.818914
0.748057
0.777543
0.423044
0.784515
0.539085
0.644994
0.75556
0.438813
0.641372
0.758247
0.633897
0.712729
0.798309
0.685897
0.578069
0.632115
0.499212
0.588688
0.595889
0.655703
0.473858
0.76362
0.762314
0.760673
0.617664
0.712954
0.445876
0.759525
0.449707
0.733307
0.743635
0.761701
0.551121
0.65104
0.559449
0.622386
0.60683
0.558431
0.653556
0.506452
0.608262
0.653517
0.603937
0.710618
0.546807
0.803884
0.500386
0.632684
0.610996
0.434287
0.820902
0.7301
0.776739
0.418283
0.754385
0.535906
0.65459
0.582462
0.719532
0.710948
0.76932
0.630766
0.37742
0.771611
0.769631
0.696096
0.552284
0.574202
0.589596
0.508963
0.796971
0.380486
0.736469
0.482374
0.77969
0.481652
0.782312
0.499987
0.736229
0.579291
0.613761
0.613408
0.462741
0.805619
0.348878
0.757413
0.705318
0.498123
0.742682
0.798919
0.675472
0.507838
0.615056
0.483099
0.745872
0.413827
0.710738
0.520083
0.640223
0.647568
0.726977
0.618097
0.714238
0.767232
0.516758
0.714867
0.512725
0.621665
0.548827
0.812873
0.745828
0.764359
0.661566
0.659817
0.558053
0.583709
0.54498
0.537736
0.557375
0.536518
0.609884
0.504743
0.676853
0.49635
0.680346
0.535004
0.669613
0.61215
0.59964
0.657973
0.576272
0.714086
0.528586
0.750494
0.435842
0.784335
0.419815
0.748326
0.508827
0.801717
0.455634
0.722205
0.740942
0.75227
0.686985
0.570381
0.654069
0.515418
0.717236
0.47747
0.654147
0.46935
0.700846
0.421361
0.673183
0.754837
0.758018
0.518016
0.668505
0.498038
0.649862
0.518275
0.610926
0.526163
0.793203
0.776393
0.766955
0.769088
0.764734
0.772225
0.764145
0.777332
0.762777
0.674864
0.3
0.3
0.3
0.3
)
;

boundaryField
{
    inlet
    {
        type            calculated;
        value           uniform 0;
    }
    outlet
    {
        type            calculated;
        value           uniform 0;
    }
    sideWall
    {
        type            empty;
    }
}


// ************************************************************************* //
