/*--------------------------------*- C++ -*----------------------------------*\
| =========                 |                                                 |
| \\      /  F ield         | foam-extend: Open Source CFD                    |
|  \\    /   O peration     | Version:     3.2                                |
|   \\  /    A nd           | Web:         http://www.foam-extend.org         |
|    \\/     M anipulation  | For copyright notice see file Copyright         |
\*---------------------------------------------------------------------------*/
FoamFile
{
    version     2.0;
    format      ascii;
    class       areaScalarField;
    location    "50";
    object      Pc;
}
// * * * * * * * * * * * * * * * * * * * * * * * * * * * * * * * * * * * * * //

dimensions      [0 0 0 0 0 0 0];

internalField   nonuniform List<scalar> 
300
(
0.7
0.7
0.7
0.7
0.7
0.7
0.7
0.7
0.7
0.7
0.7
0.7
0.7
0.7
0.7
0.7
0.7
0.7
0.7
0.7
0.7
0.7
0.7
0.7
0.7
0.7
0.7
0.7
0.7
0.7
0.7
0.7
0.7
0.7
0.7
0.7
0.7
0.7
0.7
0.7
0.7
0.7
0.7
0.7
0.7
0.7
0.7
0.7
0.7
0.7
0.7
0.7
0.7
0.7
0.7
0.7
0.7
0.7
0.7
0.7
0.482179
0.332727
0.262314
0.252248
0.242815
0.244934
0.240865
0.246171
0.241717
0.253902
0.486638
0.651778
0.594574
0.68779
0.608924
0.53237
0.630604
0.433702
0.591045
0.325828
0.536219
0.197952
0.546639
0.282761
0.23274
0.276962
0.358963
0.209428
0.235877
0.244095
0.293472
0.374267
0.446803
0.227141
0.313489
0.433717
0.320955
0.358681
0.408185
0.283815
0.312428
0.202322
0.408989
0.626234
0.238063
0.208861
0.299317
0.386887
0.373323
0.554521
0.195002
0.280914
0.196005
0.27467
0.232737
0.398002
0.344183
0.46916
0.36335
0.285807
0.620077
0.181086
0.251943
0.222457
0.576956
0.215485
0.460915
0.355006
0.24444
0.561187
0.358628
0.241753
0.366103
0.287271
0.201691
0.314103
0.421931
0.367885
0.500788
0.411312
0.404111
0.344297
0.526142
0.23638
0.237686
0.239327
0.382336
0.287046
0.554124
0.240475
0.550293
0.266693
0.256365
0.238299
0.448879
0.34896
0.440551
0.377614
0.39317
0.441569
0.346444
0.493548
0.391738
0.346483
0.396063
0.289382
0.453193
0.196116
0.499614
0.367316
0.389004
0.565713
0.179098
0.2699
0.223261
0.581717
0.245615
0.464094
0.34541
0.417538
0.280468
0.289052
0.23068
0.369234
0.62258
0.228389
0.230369
0.303904
0.447716
0.425798
0.410404
0.491037
0.203029
0.619514
0.263531
0.517626
0.22031
0.518348
0.217688
0.500013
0.263771
0.420709
0.386239
0.386592
0.537259
0.194381
0.651122
0.242587
0.294682
0.501877
0.257318
0.201081
0.324528
0.492162
0.384944
0.516901
0.254128
0.586173
0.289262
0.479917
0.359777
0.352432
0.273023
0.381903
0.285762
0.232768
0.483242
0.285133
0.487275
0.378335
0.451173
0.187127
0.254172
0.235641
0.338434
0.340183
0.441947
0.416291
0.45502
0.462264
0.442625
0.463482
0.390116
0.495257
0.323147
0.50365
0.319654
0.464996
0.330387
0.38785
0.40036
0.342027
0.423728
0.285914
0.471414
0.249506
0.564158
0.215665
0.580185
0.251674
0.491173
0.198283
0.544366
0.277795
0.259058
0.24773
0.313015
0.429619
0.345931
0.484582
0.282764
0.52253
0.345853
0.53065
0.299154
0.578639
0.326817
0.245163
0.241982
0.481984
0.331495
0.501962
0.350138
0.481725
0.389074
0.473837
0.206797
0.223607
0.233045
0.230912
0.235266
0.227775
0.235855
0.222668
0.237223
0.325136
0.7
0.7
0.7
0.7
)
;

boundaryField
{
    inlet
    {
        type            calculated;
        value           uniform 0;
    }
    outlet
    {
        type            calculated;
        value           uniform 0;
    }
    sideWall
    {
        type            empty;
    }
}


// ************************************************************************* //
