/*--------------------------------*- C++ -*----------------------------------*\
| =========                 |                                                 |
| \\      /  F ield         | foam-extend: Open Source CFD                    |
|  \\    /   O peration     | Version:     3.2                                |
|   \\  /    A nd           | Web:         http://www.foam-extend.org         |
|    \\/     M anipulation  | For copyright notice see file Copyright         |
\*---------------------------------------------------------------------------*/
FoamFile
{
    version     2.0;
    format      ascii;
    class       volScalarField;
    location    "50";
    object      pd;
}
// * * * * * * * * * * * * * * * * * * * * * * * * * * * * * * * * * * * * * //

dimensions      [1 -1 -2 0 0 0 0];

internalField   nonuniform List<scalar> 
5400
(
-7744.93
-7808.31
-7799.33
-7821.3
-7825.28
-7838.71
-7845.53
-7856.22
-7863.7
-7873.05
-7880.74
-7889.35
-7897.08
-7905.24
-7912.98
-7920.87
-7928.59
-7936.38
-7944.06
-7951.76
-7959.48
-7967.26
-7975.06
-7982.96
-7990.91
-7998.99
-8007.17
-8015.51
-8023.96
-8032.54
-8041.19
-8049.94
-8058.73
-8067.59
-8076.49
-8085.44
-8094.4
-8103.41
-8112.42
-8121.46
-8130.51
-8139.58
-8148.65
-8157.75
-8166.83
-8175.95
-8185.02
-8194.17
-8203.22
-8212.45
-8221.36
-8230.85
-8239.37
-8249.49
-8256.99
-8268.76
-8273.6
-8289.68
-8287.52
-8312.91
-8298.06
-8299.95
-8354.71
-8414.66
-8510.44
-8621.08
-8756.59
-8914.42
-9093.44
-9283.45
-9467.2
-9666.98
-9875.13
-10098.1
-10344.4
-10605.3
-10884.7
-11191.5
-11499.5
-11757.4
-12015.9
-12233.4
-12480.8
-12709.6
-13014
-13346
-13695.9
-14107.4
-14436.3
-14750.5
-15004.5
-15317
-15611.9
-15937.9
-16293.8
-16664.9
-17034.7
-17375.4
-17745.4
-18114.4
-18503.8
-18816.1
-19121.5
-19380
-19693.3
-20087.5
-20402.7
-20671.3
-20935
-21213.7
-21520.4
-21811.1
-22032.5
-22209.6
-22359.4
-22526.2
-22676.5
-22833.7
-22975.7
-23109.2
-23236.7
-23362.2
-23506.9
-23584.3
-23648.3
-23751.5
-23902.7
-24031.5
-24107.8
-24139.7
-24158.9
-24146.7
-24178.8
-24193.1
-24272.2
-24260
-24224.2
-24222.9
-24218.4
-24242.2
-24259.3
-24269.7
-24242
-24214.8
-24188.6
-24226.4
-24243.2
-24274.7
-24283.8
-24331.5
-24376.6
-24389.9
-24341.9
-24281.4
-24213.4
-24161.2
-24053.5
-23923.5
-23777
-23661.7
-23538
-23396.9
-23202.8
-22985.3
-22769.5
-22582.5
-22419.1
-22234.7
-22066.5
-21853.4
-21658.6
-21425.4
-21213.8
-20996.8
-20837.8
-20675.8
-20524.5
-20371.7
-20232.9
-20088.2
-19913.8
-19783.7
-19693.3
-19603.5
-19513.6
-19409.7
-19415.2
-19316.1
-19245
-19148.5
-19068.2
-18966.9
-18847.8
-18725.5
-18572.1
-18448.9
-18304.8
-18228.9
-18116.2
-18067
-17973.6
-17957.5
-17873.3
-17797.3
-17658.8
-17530.4
-17358.5
-17146.5
-16936
-16718.1
-16461
-16206.2
-15901.8
-15573.7
-15321.7
-15039.7
-14778.6
-14479.1
-14218.5
-13928.6
-13623
-13334.7
-13054.6
-12749.3
-12387.2
-12055.6
-11758.4
-11511.2
-11246.5
-10939.8
-10652.5
-10398.5
-10188.3
-9956.04
-9698.22
-9451.9
-9210.33
-8965.42
-8707.19
-8447.39
-8197.08
-7948.14
-7715.41
-7500.43
-7305.99
-7120.57
-6933.58
-6768.91
-6640.06
-6545.6
-6439.72
-6313.27
-6165.12
-6002.11
-5833.46
-5665.44
-5521.09
-5370.79
-5221.29
-5016.5
-4842.58
-4624.46
-4420.76
-4169.69
-3958
-3793.35
-3654.63
-3566.16
-3440.73
-3314.15
-3140.16
-3010.89
-2870.88
-2774.43
-2653.2
-2581.89
-2523.84
-2467.44
-2378.39
-2248.75
-2135.81
-1987.25
-1867.28
-1729.45
-1610.97
-1502.04
-1446.48
-1430.55
-1420.42
-1399.44
-1358.63
-1290.63
-1208.95
-1093.8
-975.643
-808.775
-655.742
-508.49
-284.243
-105.169
-7745.04
-7808.18
-7799.28
-7821.28
-7825.27
-7838.7
-7845.52
-7856.22
-7863.7
-7873.05
-7880.74
-7889.35
-7897.08
-7905.24
-7912.98
-7920.88
-7928.59
-7936.38
-7944.06
-7951.76
-7959.48
-7967.26
-7975.07
-7982.96
-7990.91
-7998.99
-8007.17
-8015.52
-8023.97
-8032.54
-8041.19
-8049.94
-8058.73
-8067.6
-8076.49
-8085.44
-8094.4
-8103.41
-8112.42
-8121.46
-8130.51
-8139.58
-8148.65
-8157.75
-8166.83
-8175.95
-8185.02
-8194.17
-8203.22
-8212.45
-8221.36
-8230.85
-8239.37
-8249.49
-8256.99
-8268.76
-8273.61
-8289.68
-8287.49
-8312.88
-8298.22
-8300.26
-8355
-8414.95
-8510.72
-8621.36
-8756.87
-8914.7
-9093.57
-9283.48
-9467.37
-9667.13
-9875.35
-10098.4
-10344.5
-10605.5
-10885.1
-11191.4
-11498.9
-11757.1
-12015.8
-12233.4
-12481.1
-12710.2
-13014.5
-13346.4
-13696.1
-14107
-14435.5
-14750.3
-15004.8
-15317.2
-15612.1
-15938.4
-16294.2
-16664.7
-17034.4
-17375.4
-17745.6
-18114.3
-18503.2
-18815.5
-19121.5
-19380.6
-19693.7
-20087.2
-20402.1
-20671.1
-20935.2
-21214
-21520.2
-21810.4
-22031.8
-22209.4
-22359.5
-22526.2
-22676.5
-22833.7
-22975.5
-23109.1
-23236.9
-23362.1
-23506.2
-23584.1
-23648.8
-23752
-23902.5
-24030.7
-24107.3
-24139.4
-24158.7
-24146.8
-24179.2
-24193.2
-24271.5
-24259.7
-24224.5
-24223.1
-24218.6
-24242.3
-24259
-24269.4
-24241.9
-24215.1
-24189.1
-24226.6
-24243
-24274.7
-24284.1
-24331.6
-24376.2
-24389.2
-24341.5
-24281.5
-24213.4
-24160.7
-24053
-23923.4
-23777.2
-23661.7
-23537.7
-23396.3
-23202.4
-22985.3
-22769.9
-22582.7
-22419.1
-22234.6
-22066.3
-21853.2
-21658.6
-21425.4
-21214
-20997.4
-20838.1
-20675.7
-20524.5
-20371.9
-20232.8
-20087.9
-19914.1
-19784.3
-19693.3
-19603.3
-19513.8
-19410.1
-19415
-19315.8
-19245
-19148.6
-19068.1
-18966.7
-18847.6
-18725.4
-18572.2
-18449.1
-18305.1
-18229.1
-18116.4
-18067.1
-17973.8
-17957.3
-17872.8
-17797
-17658.5
-17529.9
-17358.1
-17146.3
-16935.8
-16718
-16460.7
-16205.7
-15901.8
-15574.2
-15322
-15039.5
-14778.5
-14479.3
-14218.4
-13928.3
-13623.1
-13334.8
-13054.2
-12748.8
-12387.3
-12056.3
-11758.9
-11511
-11246
-10939.9
-10653.1
-10398.9
-10188.1
-9955.7
-9698.23
-9452.09
-9210.27
-8965.19
-8707.21
-8447.53
-8197.2
-7948.36
-7715.69
-7500.72
-7306.13
-7120.58
-6933.81
-6769.35
-6640.36
-6545.53
-6439.36
-6312.98
-6164.98
-6002.08
-5833.59
-5665.65
-5521.23
-5370.55
-5220.93
-5016.43
-4842.46
-4624.32
-4420.67
-4169.93
-3958.65
-3793.87
-3654.82
-3566.04
-3440.31
-3313.89
-3140.34
-3011.19
-2871.07
-2774.5
-2653.47
-2582.25
-2523.71
-2466.92
-2378.13
-2248.68
-2135.72
-1987.35
-1867.36
-1729.49
-1611.29
-1502.63
-1446.91
-1430.68
-1420.29
-1399.17
-1358.35
-1290.35
-1208.68
-1093.53
-975.396
-808.679
-655.684
-508.414
-284.235
-105.166
-7745.39
-7807.99
-7799.19
-7821.24
-7825.25
-7838.69
-7845.51
-7856.21
-7863.69
-7873.05
-7880.73
-7889.35
-7897.08
-7905.24
-7912.98
-7920.88
-7928.59
-7936.38
-7944.06
-7951.76
-7959.48
-7967.26
-7975.07
-7982.97
-7990.92
-7998.99
-8007.17
-8015.52
-8023.97
-8032.54
-8041.2
-8049.94
-8058.73
-8067.6
-8076.49
-8085.44
-8094.4
-8103.41
-8112.42
-8121.46
-8130.51
-8139.58
-8148.65
-8157.75
-8166.83
-8175.95
-8185.02
-8194.17
-8203.22
-8212.46
-8221.36
-8230.85
-8239.37
-8249.49
-8256.99
-8268.76
-8273.6
-8289.68
-8287.42
-8312.8
-8298.39
-8300.64
-8355.35
-8415.3
-8511.06
-8621.7
-8757.2
-8915.02
-9093.72
-9283.52
-9467.52
-9667.28
-9875.62
-10098.8
-10344.6
-10605.8
-10885.5
-11191.3
-11498.4
-11756.8
-12015.6
-12233.3
-12481.3
-12710.9
-13015.1
-13346.9
-13696.4
-14106.6
-14434.7
-14750
-15005.1
-15317.4
-15612.4
-15938.9
-16294.6
-16664.6
-17034.1
-17375.5
-17745.9
-18114.3
-18502.6
-18814.7
-19121.3
-19381.2
-19694.1
-20086.9
-20401.4
-20670.8
-20935.4
-21214.3
-21520.1
-21809.5
-22030.9
-22209.1
-22359.5
-22526.2
-22676.3
-22833.7
-22975.3
-23108.9
-23237.2
-23362
-23505.6
-23583.8
-23649.2
-23752.6
-23902.3
-24029.9
-24106.6
-24139.1
-24158.4
-24146.9
-24179.7
-24193.3
-24270.8
-24259.4
-24224.6
-24223.3
-24218.8
-24242.4
-24258.8
-24269
-24241.8
-24215.2
-24189.6
-24226.8
-24242.9
-24274.7
-24284.4
-24331.7
-24375.7
-24388.5
-24341.1
-24281.6
-24213.3
-24160.2
-24052.5
-23923.3
-23777.4
-23661.7
-23537.3
-23395.6
-23201.9
-22985.3
-22770.2
-22582.9
-22419
-22234.4
-22066.1
-21853
-21658.5
-21425.3
-21214.2
-20998
-20838.4
-20675.7
-20524.6
-20372.1
-20232.6
-20087.6
-19914.6
-19785
-19693.4
-19603
-19514.1
-19410.5
-19414.7
-19315.4
-19244.9
-19148.6
-19068
-18966.4
-18847.4
-18725.3
-18572.2
-18449.4
-18305.4
-18229.4
-18116.5
-18067.3
-17974.1
-17957.1
-17872.2
-17796.6
-17658.2
-17529.4
-17357.7
-17146
-16935.6
-16717.9
-16460.3
-16205.1
-15901.6
-15574.6
-15322.2
-15039.3
-14778.3
-14479.5
-14218.2
-13927.9
-13623.3
-13335
-13053.7
-12748.2
-12387.4
-12057
-11759.5
-11510.8
-11245.6
-10940
-10653.6
-10399.4
-10188
-9955.31
-9698.18
-9452.28
-9210.24
-8964.96
-8707.18
-8447.62
-8197.29
-7948.6
-7716.03
-7501.03
-7306.28
-7120.59
-6934.1
-6769.91
-6640.77
-6545.53
-6439.01
-6312.66
-6164.79
-6002
-5833.68
-5665.82
-5521.36
-5370.32
-5220.56
-5016.3
-4842.25
-4624.13
-4420.5
-4170.17
-3959.37
-3794.51
-3655.12
-3566
-3439.92
-3313.62
-3140.48
-3011.49
-2871.29
-2774.57
-2653.81
-2582.71
-2523.67
-2466.36
-2377.75
-2248.51
-2135.62
-1987.45
-1867.4
-1729.5
-1611.67
-1503.35
-1447.44
-1430.82
-1420.13
-1398.85
-1358.03
-1290.03
-1208.36
-1093.21
-975.139
-808.608
-655.683
-508.272
-284.21
-105.158
-7745.73
-7807.77
-7799.1
-7821.19
-7825.22
-7838.67
-7845.5
-7856.2
-7863.68
-7873.04
-7880.73
-7889.35
-7897.08
-7905.24
-7912.98
-7920.88
-7928.59
-7936.38
-7944.06
-7951.77
-7959.49
-7967.26
-7975.07
-7982.97
-7990.92
-7998.99
-8007.17
-8015.52
-8023.97
-8032.55
-8041.2
-8049.94
-8058.74
-8067.6
-8076.49
-8085.44
-8094.41
-8103.41
-8112.42
-8121.46
-8130.51
-8139.58
-8148.65
-8157.75
-8166.83
-8175.95
-8185.02
-8194.17
-8203.22
-8212.46
-8221.36
-8230.85
-8239.37
-8249.49
-8256.99
-8268.76
-8273.6
-8289.69
-8287.36
-8312.76
-8298.57
-8301
-8355.71
-8415.66
-8511.4
-8622.04
-8757.54
-8915.35
-9093.88
-9283.55
-9467.67
-9667.43
-9875.9
-10099.1
-10344.8
-10606.1
-10886
-11191.2
-11497.9
-11756.5
-12015.4
-12233.2
-12481.6
-12711.5
-13015.7
-13347.5
-13696.7
-14106.2
-14433.9
-14749.6
-15005.3
-15317.5
-15612.6
-15939.4
-16295.1
-16664.5
-17033.8
-17375.5
-17746.1
-18114.3
-18501.9
-18814
-19121.2
-19381.7
-19694.7
-20086.5
-20400.7
-20670.5
-20935.5
-21214.6
-21519.9
-21808.8
-22030.1
-22208.7
-22359.6
-22526.1
-22676.2
-22833.6
-22975
-23108.7
-23237.4
-23361.9
-23505
-23583.5
-23649.7
-23753.2
-23902.2
-24029.1
-24106
-24138.8
-24158.2
-24146.9
-24180.2
-24193.4
-24270.1
-24259
-24224.8
-24223.5
-24219.1
-24242.5
-24258.5
-24268.7
-24241.6
-24215.4
-24190.1
-24227.1
-24242.7
-24274.7
-24284.7
-24331.8
-24375.2
-24387.7
-24340.7
-24281.6
-24213.3
-24159.7
-24052
-23923.3
-23777.6
-23661.7
-23536.9
-23395
-23201.5
-22985.4
-22770.6
-22583.2
-22418.9
-22234.3
-22065.8
-21852.8
-21658.5
-21425.2
-21214.4
-20998.6
-20838.7
-20675.6
-20524.6
-20372.3
-20232.5
-20087.3
-19915
-19785.7
-19693.6
-19602.9
-19514.4
-19411
-19414.5
-19315.1
-19244.7
-19148.6
-19067.9
-18966.1
-18847.2
-18725.2
-18572.2
-18449.6
-18305.8
-18229.6
-18116.6
-18067.4
-17974.4
-17956.9
-17871.6
-17796.2
-17658
-17528.9
-17357.3
-17145.8
-16935.4
-16717.8
-16459.9
-16204.4
-15901.4
-15575.1
-15322.5
-15039.1
-14778.2
-14479.8
-14218
-13927.6
-13623.5
-13335.2
-13053.2
-12747.6
-12387.5
-12057.7
-11760.2
-11510.6
-11245.2
-10940
-10654.2
-10399.9
-10187.9
-9954.93
-9698.13
-9452.47
-9210.21
-8964.73
-8707.14
-8447.67
-8197.37
-7948.84
-7716.36
-7501.34
-7306.42
-7120.59
-6934.38
-6770.47
-6641.17
-6545.52
-6438.67
-6312.35
-6164.59
-6001.9
-5833.74
-5665.97
-5521.48
-5370.1
-5220.21
-5016.18
-4842.03
-4623.91
-4420.31
-4170.4
-3960.08
-3795.13
-3655.46
-3565.95
-3439.55
-3313.36
-3140.61
-3011.77
-2871.52
-2774.67
-2654.16
-2583.17
-2523.64
-2465.83
-2377.36
-2248.32
-2135.5
-1987.56
-1867.43
-1729.51
-1612.03
-1504.08
-1447.99
-1430.97
-1419.97
-1398.53
-1357.7
-1289.71
-1208.03
-1092.88
-974.893
-808.548
-655.741
-508.058
-284.176
-105.149
-7746.21
-7807.46
-7798.97
-7821.14
-7825.19
-7838.64
-7845.48
-7856.18
-7863.67
-7873.03
-7880.72
-7889.35
-7897.07
-7905.24
-7912.98
-7920.87
-7928.59
-7936.38
-7944.06
-7951.77
-7959.49
-7967.26
-7975.07
-7982.97
-7990.92
-7999
-8007.18
-8015.52
-8023.97
-8032.55
-8041.2
-8049.94
-8058.74
-8067.6
-8076.5
-8085.44
-8094.41
-8103.41
-8112.42
-8121.46
-8130.51
-8139.58
-8148.65
-8157.75
-8166.83
-8175.95
-8185.02
-8194.17
-8203.22
-8212.46
-8221.36
-8230.85
-8239.37
-8249.49
-8256.99
-8268.76
-8273.6
-8289.69
-8287.29
-8312.72
-8298.74
-8301.34
-8356.1
-8416.01
-8511.75
-8622.38
-8757.88
-8915.67
-9094.04
-9283.59
-9467.82
-9667.58
-9876.17
-10099.5
-10345
-10606.4
-10886.4
-11191.1
-11497.4
-11756.2
-12015.2
-12233.2
-12481.9
-12712.2
-13016.2
-13348
-13697
-14105.8
-14433.2
-14749.3
-15005.5
-15317.6
-15612.8
-15939.9
-16295.5
-16664.4
-17033.5
-17375.6
-17746.4
-18114.3
-18501.3
-18813.4
-19121
-19382.2
-19695.2
-20086.2
-20400.1
-20670.2
-20935.6
-21214.9
-21519.8
-21808
-22029.3
-22208.4
-22359.7
-22526
-22676.2
-22833.6
-22974.8
-23108.6
-23237.6
-23361.9
-23504.4
-23583.2
-23650.1
-23753.8
-23902
-24028.3
-24105.5
-24138.5
-24157.9
-24147
-24180.7
-24193.5
-24269.4
-24258.6
-24225
-24223.6
-24219.3
-24242.7
-24258.2
-24268.4
-24241.5
-24215.6
-24190.7
-24227.3
-24242.6
-24274.6
-24284.9
-24331.8
-24374.7
-24387
-24340.3
-24281.7
-24213.3
-24159.1
-24051.5
-23923.2
-23777.8
-23661.7
-23536.5
-23394.4
-23201.1
-22985.4
-22771
-22583.4
-22418.9
-22234.3
-22065.6
-21852.6
-21658.4
-21425.1
-21214.5
-20999.2
-20839
-20675.6
-20524.7
-20372.5
-20232.3
-20087
-19915.4
-19786.4
-19693.7
-19602.7
-19514.7
-19411.5
-19414.2
-19314.8
-19244.6
-19148.6
-19067.7
-18965.9
-18847
-18725
-18572.2
-18449.8
-18306.1
-18229.8
-18116.8
-18067.6
-17974.6
-17956.7
-17871.1
-17795.8
-17657.7
-17528.4
-17356.8
-17145.5
-16935.2
-16717.7
-16459.6
-16203.8
-15901.2
-15575.6
-15322.7
-15039
-14778
-14480
-14217.8
-13927.2
-13623.7
-13335.4
-13052.8
-12747
-12387.6
-12058.4
-11760.8
-11510.4
-11244.7
-10940.1
-10654.7
-10400.5
-10187.8
-9954.57
-9698.08
-9452.65
-9210.18
-8964.51
-8707.11
-8447.73
-8197.44
-7949.07
-7716.68
-7501.66
-7306.56
-7120.6
-6934.66
-6771.02
-6641.57
-6545.51
-6438.34
-6312.05
-6164.39
-6001.8
-5833.79
-5666.12
-5521.58
-5369.88
-5219.85
-5016.07
-4841.8
-4623.71
-4420.11
-4170.64
-3960.76
-3795.74
-3655.79
-3565.91
-3439.2
-3313.11
-3140.74
-3012.04
-2871.75
-2774.75
-2654.51
-2583.61
-2523.61
-2465.31
-2376.96
-2248.13
-2135.38
-1987.68
-1867.47
-1729.53
-1612.39
-1504.79
-1448.53
-1431.13
-1419.81
-1398.22
-1357.37
-1289.39
-1207.71
-1092.57
-974.659
-808.5
-655.73
-507.923
-284.142
-105.139
-7746.54
-7807.3
-7798.81
-7821.12
-7825.18
-7838.62
-7845.46
-7856.17
-7863.66
-7873.02
-7880.71
-7889.34
-7897.07
-7905.23
-7912.98
-7920.87
-7928.59
-7936.38
-7944.06
-7951.77
-7959.49
-7967.26
-7975.07
-7982.97
-7990.92
-7999
-8007.18
-8015.53
-8023.97
-8032.55
-8041.2
-8049.94
-8058.74
-8067.6
-8076.5
-8085.44
-8094.41
-8103.41
-8112.42
-8121.47
-8130.51
-8139.58
-8148.65
-8157.75
-8166.83
-8175.95
-8185.02
-8194.17
-8203.22
-8212.46
-8221.36
-8230.85
-8239.37
-8249.49
-8256.99
-8268.76
-8273.6
-8289.69
-8287.22
-8312.69
-8298.92
-8301.67
-8356.48
-8416.36
-8512.08
-8622.72
-8758.21
-8915.99
-9094.19
-9283.63
-9467.97
-9667.73
-9876.44
-10099.9
-10345.2
-10606.6
-10886.8
-11191
-11496.9
-11755.9
-12015
-12233.1
-12482.1
-12712.8
-13016.8
-13348.5
-13697.3
-14105.3
-14432.4
-14749
-15005.8
-15317.8
-15613
-15940.4
-16295.9
-16664.3
-17033.2
-17375.7
-17746.7
-18114.2
-18500.7
-18812.8
-19120.9
-19382.8
-19695.7
-20085.9
-20399.5
-20669.9
-20935.8
-21215.2
-21519.6
-21807.2
-22028.5
-22208
-22359.7
-22526
-22676.1
-22833.5
-22974.5
-23108.4
-23237.8
-23361.8
-23503.8
-23583
-23650.5
-23754.3
-23901.9
-24027.6
-24104.9
-24138.2
-24157.7
-24147.1
-24181.1
-24193.6
-24268.8
-24258.2
-24225.1
-24223.8
-24219.5
-24242.8
-24257.9
-24268
-24241.3
-24215.8
-24191.2
-24227.5
-24242.5
-24274.6
-24285.2
-24331.9
-24374.3
-24386.2
-24339.9
-24281.7
-24213.2
-24158.7
-24051
-23923.1
-23778.1
-23661.7
-23536.1
-23393.8
-23200.8
-22985.4
-22771.4
-22583.7
-22418.8
-22234.2
-22065.3
-21852.5
-21658.3
-21424.9
-21214.7
-20999.7
-20839.3
-20675.6
-20524.7
-20372.7
-20232.2
-20086.7
-19915.8
-19787.1
-19693.9
-19602.5
-19515
-19412.1
-19413.9
-19314.5
-19244.5
-19148.5
-19067.6
-18965.6
-18846.8
-18724.9
-18572.2
-18450
-18306.4
-18230
-18117
-18067.7
-17974.9
-17956.5
-17870.6
-17795.4
-17657.4
-17527.9
-17356.4
-17145.3
-16935
-16717.5
-16459.3
-16203.2
-15901
-15576
-15323
-15038.8
-14777.9
-14480.2
-14217.7
-13926.9
-13623.8
-13335.6
-13052.4
-12746.4
-12387.7
-12059.1
-11761.3
-11510.3
-11244.3
-10940.2
-10655.2
-10401
-10187.7
-9954.22
-9698.03
-9452.82
-9210.15
-8964.3
-8707.08
-8447.78
-8197.51
-7949.3
-7717
-7501.96
-7306.7
-7120.6
-6934.93
-6771.56
-6641.96
-6545.51
-6438.03
-6311.76
-6164.19
-6001.7
-5833.85
-5666.26
-5521.68
-5369.66
-5219.5
-5015.97
-4841.57
-4623.51
-4419.92
-4170.88
-3961.43
-3796.32
-3656.11
-3565.86
-3438.86
-3312.87
-3140.86
-3012.3
-2872
-2774.83
-2654.86
-2584.04
-2523.59
-2464.81
-2376.57
-2247.94
-2135.26
-1987.8
-1867.51
-1729.56
-1612.74
-1505.48
-1449.07
-1431.27
-1419.65
-1397.91
-1357.05
-1289.07
-1207.39
-1092.26
-974.437
-808.467
-655.669
-507.851
-284.109
-105.127
-7746.76
-7807.23
-7798.65
-7821.1
-7825.16
-7838.6
-7845.44
-7856.15
-7863.64
-7873.01
-7880.7
-7889.33
-7897.06
-7905.22
-7912.97
-7920.87
-7928.58
-7936.38
-7944.06
-7951.76
-7959.48
-7967.26
-7975.07
-7982.97
-7990.92
-7999
-8007.18
-8015.53
-8023.98
-8032.55
-8041.2
-8049.94
-8058.74
-8067.6
-8076.5
-8085.44
-8094.41
-8103.41
-8112.42
-8121.47
-8130.51
-8139.58
-8148.65
-8157.75
-8166.83
-8175.95
-8185.02
-8194.17
-8203.22
-8212.46
-8221.36
-8230.85
-8239.37
-8249.49
-8256.99
-8268.76
-8273.6
-8289.69
-8287.15
-8312.66
-8299.09
-8302
-8356.84
-8416.7
-8512.41
-8623.05
-8758.53
-8916.3
-9094.34
-9283.68
-9468.12
-9667.87
-9876.7
-10100.2
-10345.3
-10606.9
-10887.3
-11191
-11496.4
-11755.6
-12014.8
-12233.1
-12482.3
-12713.4
-13017.4
-13349
-13697.6
-14104.9
-14431.7
-14748.7
-15006
-15317.9
-15613.2
-15940.9
-16296.3
-16664.3
-17032.9
-17375.7
-17746.9
-18114.2
-18500.1
-18812.1
-19120.7
-19383.3
-19696.1
-20085.6
-20399
-20669.6
-20935.9
-21215.5
-21519.5
-21806.5
-22027.7
-22207.7
-22359.8
-22525.9
-22676
-22833.5
-22974.3
-23108.3
-23238
-23361.8
-23503.2
-23582.7
-23650.9
-23754.9
-23901.7
-24026.8
-24104.3
-24138
-24157.5
-24147.2
-24181.5
-24193.8
-24268.1
-24257.9
-24225.2
-24223.9
-24219.7
-24242.9
-24257.7
-24267.7
-24241.2
-24215.9
-24191.7
-24227.6
-24242.4
-24274.6
-24285.4
-24332
-24373.8
-24385.5
-24339.5
-24281.8
-24213.2
-24158.2
-24050.5
-23923
-23778.3
-23661.7
-23535.8
-23393.2
-23200.4
-22985.5
-22771.7
-22583.9
-22418.8
-22234.1
-22065.1
-21852.3
-21658.2
-21424.8
-21214.8
-21000.3
-20839.6
-20675.5
-20524.8
-20372.9
-20232.1
-20086.5
-19916.2
-19787.7
-19694
-19602.4
-19515.2
-19412.6
-19413.6
-19314.2
-19244.5
-19148.5
-19067.4
-18965.3
-18846.6
-18724.8
-18572.2
-18450.2
-18306.8
-18230.2
-18117.2
-18067.9
-17975.2
-17956.3
-17870.1
-17795
-17657.1
-17527.4
-17355.9
-17145.1
-16934.8
-16717.4
-16459.1
-16202.6
-15900.8
-15576.4
-15323.2
-15038.6
-14777.7
-14480.4
-14217.5
-13926.6
-13624
-13335.8
-13052
-12745.9
-12387.7
-12059.7
-11761.9
-11510.1
-11243.9
-10940.3
-10655.7
-10401.5
-10187.6
-9953.88
-9697.99
-9452.98
-9210.11
-8964.1
-8707.05
-8447.83
-8197.57
-7949.52
-7717.31
-7502.25
-7306.83
-7120.61
-6935.2
-6772.07
-6642.34
-6545.5
-6437.73
-6311.49
-6164
-6001.61
-5833.9
-5666.4
-5521.77
-5369.46
-5219.16
-5015.88
-4841.34
-4623.33
-4419.73
-4171.13
-3962.07
-3796.88
-3656.41
-3565.82
-3438.54
-3312.63
-3140.99
-3012.54
-2872.24
-2774.91
-2655.19
-2584.44
-2523.56
-2464.33
-2376.18
-2247.77
-2135.14
-1987.91
-1867.54
-1729.59
-1613.07
-1506.14
-1449.59
-1431.42
-1419.5
-1397.61
-1356.74
-1288.77
-1207.09
-1091.96
-974.229
-808.445
-655.636
-507.774
-284.074
-105.116
-7746.99
-7807.1
-7798.56
-7821.09
-7825.14
-7838.59
-7845.43
-7856.13
-7863.62
-7872.99
-7880.69
-7889.31
-7897.05
-7905.21
-7912.96
-7920.86
-7928.58
-7936.37
-7944.05
-7951.76
-7959.48
-7967.26
-7975.07
-7982.97
-7990.92
-7999
-8007.18
-8015.53
-8023.98
-8032.55
-8041.2
-8049.94
-8058.74
-8067.6
-8076.5
-8085.44
-8094.41
-8103.41
-8112.42
-8121.47
-8130.51
-8139.58
-8148.65
-8157.75
-8166.83
-8175.95
-8185.02
-8194.17
-8203.22
-8212.46
-8221.36
-8230.85
-8239.37
-8249.49
-8256.99
-8268.77
-8273.6
-8289.68
-8287.1
-8312.63
-8299.25
-8302.34
-8357.17
-8417.03
-8512.72
-8623.36
-8758.84
-8916.59
-9094.48
-9283.72
-9468.27
-9668.01
-9876.95
-10100.5
-10345.5
-10607.1
-10887.7
-11190.9
-11495.9
-11755.4
-12014.6
-12233
-12482.5
-12714
-13017.9
-13349.4
-13697.9
-14104.5
-14431.1
-14748.4
-15006.2
-15318
-15613.4
-15941.4
-16296.7
-16664.2
-17032.7
-17375.8
-17747.1
-18114.2
-18499.6
-18811.6
-19120.6
-19383.7
-19696.6
-20085.4
-20398.5
-20669.4
-20936
-21215.7
-21519.3
-21805.8
-22027
-22207.4
-22359.8
-22525.9
-22675.9
-22833.4
-22974.1
-23108.1
-23238.1
-23361.7
-23502.7
-23582.5
-23651.3
-23755.4
-23901.6
-24026.1
-24103.8
-24137.7
-24157.3
-24147.3
-24181.9
-24193.9
-24267.5
-24257.6
-24225.3
-24224
-24219.9
-24243
-24257.5
-24267.4
-24241
-24216.1
-24192.2
-24227.8
-24242.3
-24274.5
-24285.7
-24332
-24373.4
-24384.9
-24339.2
-24281.8
-24213.1
-24157.7
-24050
-23922.9
-23778.4
-23661.7
-23535.4
-23392.6
-23200
-22985.5
-22772.1
-22584.1
-22418.7
-22234
-22064.8
-21852.2
-21658.1
-21424.7
-21215
-21000.8
-20839.8
-20675.5
-20524.9
-20373
-20232
-20086.2
-19916.5
-19788.3
-19694.1
-19602.2
-19515.5
-19413.1
-19413.4
-19313.9
-19244.4
-19148.5
-19067.3
-18965.1
-18846.4
-18724.6
-18572.2
-18450.4
-18307.1
-18230.4
-18117.3
-18068
-17975.4
-17956.1
-17869.6
-17794.7
-17656.9
-17526.9
-17355.5
-17144.9
-16934.6
-16717.2
-16458.8
-16202
-15900.6
-15576.8
-15323.4
-15038.5
-14777.6
-14480.6
-14217.4
-13926.3
-13624.2
-13335.9
-13051.6
-12745.3
-12387.8
-12060.3
-11762.5
-11510
-11243.6
-10940.4
-10656.2
-10401.9
-10187.5
-9953.56
-9697.95
-9453.13
-9210.08
-8963.91
-8707.02
-8447.88
-8197.64
-7949.73
-7717.61
-7502.53
-7306.96
-7120.61
-6935.45
-6772.57
-6642.7
-6545.49
-6437.44
-6311.23
-6163.82
-6001.52
-5833.95
-5666.53
-5521.86
-5369.26
-5218.83
-5015.79
-4841.12
-4623.15
-4419.55
-4171.37
-3962.68
-3797.4
-3656.7
-3565.78
-3438.23
-3312.41
-3141.11
-3012.77
-2872.46
-2774.99
-2655.51
-2584.83
-2523.54
-2463.88
-2375.8
-2247.6
-2135.02
-1988.02
-1867.57
-1729.62
-1613.4
-1506.78
-1450.08
-1431.56
-1419.36
-1397.33
-1356.44
-1288.48
-1206.79
-1091.68
-974.031
-808.434
-655.62
-507.702
-284.04
-105.106
-7747.26
-7806.95
-7798.52
-7821.08
-7825.13
-7838.58
-7845.41
-7856.12
-7863.61
-7872.98
-7880.67
-7889.3
-7897.04
-7905.2
-7912.95
-7920.85
-7928.57
-7936.37
-7944.04
-7951.75
-7959.48
-7967.26
-7975.07
-7982.97
-7990.92
-7998.99
-8007.18
-8015.53
-8023.98
-8032.55
-8041.2
-8049.94
-8058.74
-8067.6
-8076.5
-8085.44
-8094.41
-8103.41
-8112.42
-8121.47
-8130.51
-8139.58
-8148.65
-8157.75
-8166.83
-8175.95
-8185.02
-8194.17
-8203.22
-8212.46
-8221.36
-8230.85
-8239.37
-8249.49
-8256.99
-8268.77
-8273.6
-8289.68
-8287.07
-8312.59
-8299.4
-8302.67
-8357.48
-8417.33
-8513.02
-8623.67
-8759.14
-8916.87
-9094.62
-9283.77
-9468.4
-9668.14
-9877.19
-10100.9
-10345.6
-10607.4
-10888
-11190.8
-11495.5
-11755.1
-12014.4
-12233
-12482.7
-12714.5
-13018.4
-13349.9
-13698.2
-14104.2
-14430.4
-14748.1
-15006.4
-15318.1
-15613.6
-15941.8
-16297.1
-16664.1
-17032.4
-17375.9
-17747.3
-18114.2
-18499
-18811
-19120.4
-19384.2
-19696.9
-20085.2
-20398
-20669.1
-20936.1
-21216
-21519.2
-21805.1
-22026.3
-22207.1
-22359.8
-22525.8
-22675.8
-22833.3
-22973.8
-23108
-23238.3
-23361.7
-23502.2
-23582.2
-23651.6
-23755.8
-23901.4
-24025.5
-24103.3
-24137.4
-24157.1
-24147.3
-24182.2
-24194.1
-24266.9
-24257.3
-24225.4
-24224.2
-24220.1
-24243.1
-24257.2
-24267.1
-24240.9
-24216.2
-24192.6
-24228
-24242.2
-24274.5
-24285.9
-24332.1
-24373
-24384.3
-24338.8
-24281.8
-24213.1
-24157.3
-24049.6
-23922.8
-23778.6
-23661.7
-23535.1
-23392.1
-23199.7
-22985.6
-22772.4
-22584.3
-22418.7
-22233.9
-22064.6
-21852
-21658.1
-21424.7
-21215.2
-21001.3
-20840
-20675.5
-20524.9
-20373.2
-20231.8
-20086
-19916.9
-19788.9
-19694.3
-19602.1
-19515.7
-19413.5
-19413.1
-19313.7
-19244.3
-19148.5
-19067.2
-18964.9
-18846.3
-18724.5
-18572.3
-18450.6
-18307.4
-18230.5
-18117.5
-18068.1
-17975.7
-17955.9
-17869.2
-17794.3
-17656.7
-17526.5
-17355.1
-17144.7
-16934.5
-16717
-16458.6
-16201.5
-15900.5
-15577.2
-15323.6
-15038.4
-14777.5
-14480.8
-14217.2
-13926
-13624.3
-13336.1
-13051.3
-12744.8
-12387.9
-12060.9
-11763
-11509.8
-11243.2
-10940.5
-10656.6
-10402.4
-10187.4
-9953.26
-9697.91
-9453.26
-9210.04
-8963.72
-8707
-8447.93
-8197.7
-7949.93
-7717.89
-7502.79
-7307.07
-7120.62
-6935.69
-6773.04
-6643.04
-6545.47
-6437.18
-6310.98
-6163.64
-6001.42
-5834
-5666.65
-5521.94
-5369.07
-5218.51
-5015.7
-4840.91
-4622.99
-4419.38
-4171.61
-3963.26
-3797.9
-3656.97
-3565.73
-3437.95
-3312.21
-3141.22
-3012.98
-2872.68
-2775.06
-2655.82
-2585.19
-2523.52
-2463.45
-2375.44
-2247.44
-2134.91
-1988.12
-1867.59
-1729.65
-1613.7
-1507.39
-1450.55
-1431.69
-1419.22
-1397.07
-1356.17
-1288.2
-1206.51
-1091.42
-973.836
-808.442
-655.618
-507.64
-284.006
-105.095
-7747.48
-7806.85
-7798.47
-7821.06
-7825.13
-7838.57
-7845.39
-7856.11
-7863.6
-7872.97
-7880.66
-7889.29
-7897.02
-7905.19
-7912.94
-7920.84
-7928.56
-7936.36
-7944.04
-7951.75
-7959.47
-7967.25
-7975.06
-7982.96
-7990.91
-7998.99
-8007.18
-8015.53
-8023.97
-8032.55
-8041.2
-8049.94
-8058.74
-8067.6
-8076.5
-8085.44
-8094.41
-8103.41
-8112.42
-8121.47
-8130.51
-8139.58
-8148.65
-8157.75
-8166.83
-8175.95
-8185.02
-8194.17
-8203.22
-8212.46
-8221.36
-8230.85
-8239.37
-8249.49
-8256.99
-8268.77
-8273.6
-8289.67
-8287.06
-8312.53
-8299.54
-8302.99
-8357.77
-8417.61
-8513.3
-8623.95
-8759.42
-8917.13
-9094.75
-9283.81
-9468.53
-9668.27
-9877.42
-10101.1
-10345.8
-10607.6
-10888.4
-11190.7
-11495.1
-11754.9
-12014.3
-12232.9
-12482.9
-12715
-13018.9
-13350.3
-13698.4
-14103.8
-14429.9
-14747.9
-15006.5
-15318.2
-15613.8
-15942.2
-16297.5
-16664
-17032.2
-17375.9
-17747.5
-18114.1
-18498.5
-18810.5
-19120.3
-19384.6
-19697.2
-20085
-20397.5
-20668.9
-20936.2
-21216.2
-21519
-21804.5
-22025.6
-22206.8
-22359.9
-22525.8
-22675.8
-22833.3
-22973.6
-23107.9
-23238.4
-23361.6
-23501.7
-23582
-23651.9
-23756.3
-23901.3
-24024.9
-24102.8
-24137.2
-24156.9
-24147.4
-24182.6
-24194.2
-24266.4
-24257
-24225.6
-24224.3
-24220.2
-24243.2
-24257
-24266.9
-24240.8
-24216.4
-24193
-24228.1
-24242.1
-24274.5
-24286.1
-24332.1
-24372.6
-24383.7
-24338.5
-24281.8
-24213.1
-24156.8
-24049.2
-23922.7
-23778.8
-23661.7
-23534.7
-23391.6
-23199.4
-22985.6
-22772.7
-22584.5
-22418.6
-22233.9
-22064.3
-21851.9
-21658
-21424.6
-21215.3
-21001.8
-20840.2
-20675.5
-20525
-20373.3
-20231.7
-20085.8
-19917.2
-19789.4
-19694.4
-19601.9
-19515.9
-19413.9
-19412.9
-19313.4
-19244.2
-19148.5
-19067.1
-18964.6
-18846.1
-18724.4
-18572.3
-18450.7
-18307.7
-18230.7
-18117.7
-18068.2
-17976
-17955.7
-17868.8
-17794
-17656.4
-17526
-17354.7
-17144.5
-16934.3
-16716.9
-16458.5
-16201
-15900.3
-15577.6
-15323.8
-15038.2
-14777.3
-14481
-14217
-13925.8
-13624.4
-13336.2
-13050.9
-12744.4
-12388
-12061.5
-11763.4
-11509.7
-11242.9
-10940.5
-10657
-10402.8
-10187.3
-9952.98
-9697.88
-9453.39
-9210
-8963.55
-8706.99
-8447.98
-8197.76
-7950.13
-7718.15
-7503.03
-7307.18
-7120.62
-6935.92
-6773.48
-6643.36
-6545.46
-6436.93
-6310.76
-6163.47
-6001.34
-5834.04
-5666.77
-5522.01
-5368.89
-5218.22
-5015.62
-4840.71
-4622.84
-4419.22
-4171.83
-3963.79
-3798.36
-3657.23
-3565.69
-3437.69
-3312.01
-3141.32
-3013.18
-2872.89
-2775.13
-2656.11
-2585.52
-2523.5
-2463.05
-2375.1
-2247.3
-2134.8
-1988.21
-1867.62
-1729.69
-1613.99
-1507.95
-1450.99
-1431.81
-1419.09
-1396.82
-1355.9
-1287.94
-1206.25
-1091.17
-973.64
-808.474
-655.631
-507.586
-283.975
-105.084
-7747.61
-7806.8
-7798.44
-7821.06
-7825.13
-7838.58
-7845.38
-7856.1
-7863.59
-7872.96
-7880.66
-7889.28
-7897.02
-7905.18
-7912.93
-7920.83
-7928.55
-7936.35
-7944.03
-7951.74
-7959.46
-7967.24
-7975.05
-7982.95
-7990.9
-7998.99
-8007.17
-8015.52
-8023.97
-8032.55
-8041.2
-8049.94
-8058.74
-8067.6
-8076.5
-8085.44
-8094.41
-8103.41
-8112.42
-8121.47
-8130.51
-8139.58
-8148.65
-8157.75
-8166.83
-8175.95
-8185.02
-8194.17
-8203.22
-8212.46
-8221.36
-8230.85
-8239.37
-8249.49
-8256.99
-8268.77
-8273.59
-8289.67
-8287.05
-8312.47
-8299.68
-8303.28
-8358.05
-8417.87
-8513.56
-8624.21
-8759.67
-8917.37
-9094.87
-9283.85
-9468.66
-9668.39
-9877.63
-10101.4
-10345.9
-10607.8
-10888.7
-11190.6
-11494.7
-11754.7
-12014.1
-12232.9
-12483.1
-12715.5
-13019.3
-13350.7
-13698.7
-14103.5
-14429.3
-14747.6
-15006.7
-15318.3
-15614
-15942.6
-16297.8
-16664
-17032
-17376
-17747.7
-18114.1
-18498
-18810.1
-19120.1
-19384.9
-19697.5
-20084.8
-20397.1
-20668.7
-20936.3
-21216.4
-21518.9
-21803.9
-22025
-22206.6
-22359.9
-22525.7
-22675.7
-22833.2
-22973.5
-23107.8
-23238.6
-23361.5
-23501.3
-23581.8
-23652.3
-23756.7
-23901.1
-24024.3
-24102.4
-24137
-24156.8
-24147.5
-24182.9
-24194.3
-24265.9
-24256.8
-24225.6
-24224.4
-24220.4
-24243.2
-24256.8
-24266.6
-24240.7
-24216.5
-24193.4
-24228.3
-24242.1
-24274.5
-24286.3
-24332.1
-24372.2
-24383.1
-24338.2
-24281.8
-24213
-24156.4
-24048.8
-23922.6
-23778.9
-23661.7
-23534.4
-23391.1
-23199.1
-22985.7
-22773
-22584.6
-22418.6
-22233.8
-22064.1
-21851.8
-21657.9
-21424.5
-21215.4
-21002.2
-20840.4
-20675.5
-20525
-20373.5
-20231.6
-20085.6
-19917.5
-19789.9
-19694.5
-19601.8
-19516.1
-19414.3
-19412.8
-19313.2
-19244.1
-19148.5
-19066.9
-18964.4
-18845.9
-18724.3
-18572.3
-18450.9
-18307.9
-18230.8
-18117.8
-18068.3
-17976.2
-17955.5
-17868.4
-17793.7
-17656.2
-17525.6
-17354.3
-17144.4
-16934.2
-16716.7
-16458.3
-16200.5
-15900.1
-15577.9
-15323.9
-15038.1
-14777.2
-14481.1
-14216.9
-13925.6
-13624.6
-13336.3
-13050.6
-12743.9
-12388.1
-12062
-11763.9
-11509.6
-11242.6
-10940.6
-10657.4
-10403.2
-10187.2
-9952.72
-9697.85
-9453.5
-9209.96
-8963.39
-8706.98
-8448.03
-8197.81
-7950.31
-7718.39
-7503.25
-7307.27
-7120.63
-6936.13
-6773.89
-6643.65
-6545.45
-6436.71
-6310.55
-6163.31
-6001.26
-5834.08
-5666.87
-5522.07
-5368.73
-5217.94
-5015.54
-4840.52
-4622.7
-4419.07
-4172.05
-3964.29
-3798.79
-3657.47
-3565.65
-3437.45
-3311.83
-3141.42
-3013.36
-2873.08
-2775.19
-2656.38
-2585.83
-2523.48
-2462.68
-2374.79
-2247.16
-2134.71
-1988.3
-1867.64
-1729.72
-1614.25
-1508.47
-1451.4
-1431.92
-1418.97
-1396.59
-1355.65
-1287.7
-1206
-1090.94
-973.449
-808.524