/*--------------------------------*- C++ -*----------------------------------*\
| =========                 |                                                 |
| \\      /  F ield         | foam-extend: Open Source CFD                    |
|  \\    /   O peration     | Version:     3.2                                |
|   \\  /    A nd           | Web:         http://www.foam-extend.org         |
|    \\/     M anipulation  | For copyright notice see file Copyright         |
\*---------------------------------------------------------------------------*/
FoamFile
{
    version     2.0;
    format      ascii;
    class       areaScalarField;
    location    "50";
    object      Pef;
}
// * * * * * * * * * * * * * * * * * * * * * * * * * * * * * * * * * * * * * //

dimensions      [0 0 0 0 0 0 0];

internalField   nonuniform List<scalar> 
300
(
0.99043
0.944078
0.8468
0.847859
0.833667
0.833347
0.825907
0.825478
0.822777
0.823775
0.824052
0.825802
0.827601
0.830374
0.83297
0.83618
0.839408
0.842959
0.846419
0.850121
0.85395
0.857807
0.861692
0.865524
0.869293
0.873039
0.876468
0.879408
0.881841
0.883844
0.885491
0.88684
0.887955
0.888864
0.889625
0.890241
0.890767
0.891185
0.891558
0.891843
0.892115
0.892307
0.892515
0.892642
0.892809
0.892884
0.893023
0.893048
0.893212
0.893132
0.893415
0.893081
0.893713
0.892775
0.894362
0.891835
0.895988
0.889613
0.901913
0.837573
0.426669
0.268932
0.28365
0.268021
0.287192
0.278424
0.288553
0.280229
0.284687
0.782573
0.560953
0.572365
0.575368
0.579675
0.576772
0.58257
0.577936
0.587192
0.789848
0.80369
0.561316
0.809227
0.5748
0.55443
0.370932
0.534757
0.31184
0.309984
0.809537
0.795949
0.557276
0.578894
0.557485
0.31746
0.271548
0.569617
0.785266
0.580591
0.560177
0.586894
0.778086
0.809257
0.795259
0.473541
0.487804
0.533424
0.749778
0.778489
0.568839
0.558091
0.300541
0.790814
0.795524
0.793014
0.785933
0.55171
0.789592
0.568455
0.55437
0.800799
0.542237
0.321598
0.819597
0.777891
0.549946
0.573799
0.275359
0.782717
0.790531
0.788739
0.546909
0.808268
0.518259
0.361052
0.848906
0.754915
0.554468
0.561158
0.564172
0.564288
0.566857
0.786093
0.568962
0.775588
0.317828
0.288194
0.553516
0.569104
0.55549
0.279993
0.558847
0.777686
0.790602
0.774558
0.553094
0.78234
0.779021
0.782786
0.558865
0.562153
0.559358
0.781527
0.778662
0.783772
0.553876
0.571104
0.549404
0.796559
0.545615
0.783859
0.56097
0.550911
0.792178
0.34391
0.299801
0.538611
0.571192
0.551899
0.280371
0.777137
0.557292
0.568821
0.274526
0.798687
0.479491
0.423009
0.446447
0.754794
0.562387
0.550254
0.568385
0.546245
0.794344
0.53439
0.789053
0.540439
0.569892
0.54389
0.282556
0.549627
0.565201
0.557337
0.777895
0.787775
0.534441
0.80696
0.762339
0.546854
0.804288
0.502017
0.797241
0.84491
0.742045
0.549859
0.557949
0.548764
0.786127
0.545547
0.276907
0.776463
0.567648
0.55351
0.789479
0.77257
0.793639
0.311505
0.54345
0.285446
0.778679
0.563044
0.551454
0.282596
0.348293
0.77616
0.544068
0.567401
0.560804
0.78074
0.558133
0.560166
0.555849
0.555702
0.55961
0.555881
0.273532
0.555082
0.559279
0.557487
0.558188
0.558352
0.780956
0.784351
0.561612
0.787639
0.554915
0.571752
0.550591
0.292375
0.774464
0.567785
0.550829
0.783154
0.563538
0.766814
0.352488
0.256922
0.559367
0.55331
0.78014
0.778219
0.561753
0.549724
0.555672
0.559138
0.553703
0.5717
0.544292
0.807884
0.772061
0.552803
0.780918
0.557891
0.565682
0.556365
0.565208
0.546571
0.315336
0.334819
0.785658
0.792292
0.788882
0.794939
0.786043
0.797919
0.778119
0.813231
0.9317
0.91322
0.878588
0.888332
)
;

boundaryField
{
    inlet
    {
        type            calculated;
        value           uniform 0;
    }
    outlet
    {
        type            calculated;
        value           uniform 0;
    }
    sideWall
    {
        type            empty;
    }
}


// ************************************************************************* //
