/*--------------------------------*- C++ -*----------------------------------*\
| =========                 |                                                 |
| \\      /  F ield         | foam-extend: Open Source CFD                    |
|  \\    /   O peration     | Version:     3.2                                |
|   \\  /    A nd           | Web:         http://www.foam-extend.org         |
|    \\/     M anipulation  | For copyright notice see file Copyright         |
\*---------------------------------------------------------------------------*/
FoamFile
{
    version     2.0;
    format      ascii;
    class       surfaceScalarField;
    location    "50";
    object      phi;
}
// * * * * * * * * * * * * * * * * * * * * * * * * * * * * * * * * * * * * * //

dimensions      [0 3 -1 0 0 0 0];

internalField   nonuniform List<scalar> 
10482
(
9.98338e-06
1.335e-05
7.13338e-06
2.85e-06
6.76712e-06
3.66256e-07
6.72544e-06
4.16781e-08
6.7004e-06
2.50432e-08
6.65418e-06
4.62196e-08
6.63655e-06
1.76288e-08
6.61638e-06
2.01662e-08
6.61501e-06
1.37062e-09
6.61381e-06
1.20672e-09
6.62212e-06
-8.30954e-09
6.63013e-06
-8.01466e-09
6.64609e-06
-1.59572e-08
6.66222e-06
-1.61355e-08
6.68164e-06
-1.9421e-08
6.70285e-06
-2.1203e-08
6.72628e-06
-2.34299e-08
6.7503e-06
-2.40221e-08
6.77586e-06
-2.55604e-08
6.80361e-06
-2.77516e-08
6.8327e-06
-2.90937e-08
6.86265e-06
-2.99431e-08
6.89343e-06
-3.07835e-08
6.92442e-06
-3.09835e-08
6.95624e-06
-3.18224e-08
6.9875e-06
-3.12631e-08
7.01614e-06
-2.864e-08
7.04063e-06
-2.4489e-08
7.06134e-06
-2.07092e-08
7.07856e-06
-1.72205e-08
7.09297e-06
-1.44144e-08
7.1049e-06
-1.19224e-08
7.11485e-06
-9.95525e-09
7.12307e-06
-8.21971e-09
7.12994e-06
-6.87118e-09
7.13562e-06
-5.68253e-09
7.14039e-06
-4.7669e-09
7.14435e-06
-3.96037e-09
7.1477e-06
-3.35012e-09
7.15049e-06
-2.79117e-09
7.15289e-06
-2.3917e-09
7.15488e-06
-1.99064e-09
7.15664e-06
-1.76673e-09
7.15807e-06
-1.42954e-09
7.1594e-06
-1.3251e-09
7.16039e-06
-9.90311e-10
7.16158e-06
-1.19036e-09
7.16231e-06
-7.32163e-10
7.16321e-06
-9.03739e-10
7.1634e-06
-1.86371e-10
7.16464e-06
-1.24464e-09
7.16362e-06
1.02158e-09
7.16623e-06
-2.60347e-09
7.16278e-06
3.44195e-09
7.16905e-06
-6.26392e-09
7.15961e-06
9.44163e-09
7.17798e-06
-1.83726e-08
7.16484e-06
1.31495e-08
7.17205e-06
-7.31678e-09
6.22848e-06
9.43615e-07
5.76837e-06
4.60596e-07
6.23222e-06
-4.63436e-07
6.36707e-06
-1.34664e-07
6.48194e-06
-1.14689e-07
6.52791e-06
-4.5798e-08
6.57854e-06
-5.04483e-08
6.62033e-06
-4.16519e-08
6.64894e-06
-2.80727e-08
6.66857e-06
-1.97395e-08
6.64397e-06
2.39787e-08
6.73409e-06
-8.9464e-08
6.79545e-06
-6.10171e-08
6.82181e-06
-2.65741e-08
6.84896e-06
-2.69541e-08
6.87534e-06
-2.62894e-08
6.88882e-06
-1.31526e-08
6.89656e-06
-6.71641e-09
6.82472e-06
7.11761e-08
6.70977e-06
1.12758e-07
6.73568e-06
-2.53985e-08
6.68056e-06
5.57436e-08
6.84034e-06
-1.60609e-07
6.67839e-06
1.62771e-07
6.99877e-06
-3.19302e-07
6.94561e-06
5.30476e-08
6.88185e-06
6.46572e-08
7.12004e-06
-2.36563e-07
6.82266e-06
2.95105e-07
6.83883e-06
-1.94631e-08
6.64926e-06
1.91164e-07
6.88999e-06
-2.38574e-07
6.88759e-06
1.87195e-09
7.0375e-06
-1.4965e-07
7.06202e-06
-2.31118e-08
6.95574e-06
1.06198e-07
6.94562e-06
8.265e-09
6.9326e-06
1.23154e-08
7.03806e-06
-1.03728e-07
6.99774e-06
4.14818e-08
6.98521e-06
1.15888e-08
6.82143e-06
1.61841e-07
6.95811e-06
-1.37466e-07
6.54444e-06
4.14645e-07
6.94619e-06
-4.00141e-07
7.56861e-06
-6.21436e-07
6.8199e-06
7.47679e-07
6.4759e-06
3.41985e-07
6.71337e-06
-2.37557e-07
6.78217e-06
-6.68097e-08
6.84847e-06
-6.47346e-08
6.7963e-06
5.09431e-08
6.62483e-06
1.69113e-07
6.58989e-06
3.437e-08
6.53301e-06
5.71406e-08
6.54985e-06
-1.55169e-08
6.53689e-06
1.29681e-08
6.61079e-06
-7.48853e-08
6.53452e-06
7.7365e-08
6.60559e-06
-7.17803e-08
6.55395e-06
5.09968e-08
6.47387e-06
8.236e-08
6.67842e-06
-2.0563e-07
6.42548e-06
2.50292e-07
6.28882e-06
1.37918e-07
6.46657e-06
-1.75873e-07
6.58033e-06
-1.12218e-07
6.44226e-06
1.37549e-07
6.33334e-06
1.06284e-07
6.2736e-06
5.91006e-08
6.21052e-06
6.35967e-08
6.24342e-06
-3.32993e-08
6.3084e-06
-6.46822e-08
6.16861e-06
1.42438e-07
6.68103e-06
-5.13029e-07
6.22581e-06
4.52602e-07
5.96391e-06
2.63447e-07
6.24048e-06
-2.7478e-07
6.25134e-06
-1.11265e-08
6.32429e-06
-7.28321e-08
6.28904e-06
3.57547e-08
6.28802e-06
1.86747e-10
6.22003e-06
6.70471e-08
6.23829e-06
-1.86465e-08
6.33924e-06
-1.00172e-07
6.54335e-06
-2.02003e-07
6.35938e-06
1.83514e-07
6.4544e-06
-9.65167e-08
6.42715e-06
2.7536e-08
6.53924e-06
-1.11106e-07
6.5348e-06
5.28853e-09
6.42951e-06
1.0436e-07
6.33851e-06
8.87408e-08
6.34436e-06
-6.24248e-09
6.29755e-06
4.89476e-08
6.3643e-06
-6.59788e-08
6.19471e-06
1.67521e-07
6.16725e-06
2.58182e-08
6.16549e-06
2.41576e-09
6.27494e-06
-1.0773e-07
6.24712e-06
2.86894e-08
6.18267e-06
6.35469e-08
6.02637e-06
1.54267e-07
5.9963e-06
2.89798e-08
6.01306e-06
-1.58964e-08
6.09366e-06
-7.89029e-08
6.11441e-06
-2.03244e-08
6.06623e-06
4.70491e-08
6.11434e-06
-4.8158e-08
5.96907e-06
1.45156e-07
6.11714e-06
-1.48747e-07
6.00972e-06
1.08312e-07
6.16424e-06
-1.55291e-07
6.26573e-06
-1.01587e-07
6.36548e-06
-9.74193e-08
6.19544e-06
1.69655e-07
6.27405e-06
-7.99886e-08
6.31593e-06
-4.13463e-08
6.33127e-06
-1.39782e-08
6.30487e-06
2.52598e-08
6.19802e-06
1.04787e-07
6.34148e-06
-1.41578e-07
6.37186e-06
-2.81915e-08
6.34924e-06
2.10354e-08
6.14552e-06
2.02134e-07
6.26358e-06
-1.16198e-07
6.88928e-06
-6.24079e-07
6.1809e-06
7.067e-07
6.17382e-06
6.05203e-09
6.26415e-06
-8.91467e-08
6.36618e-06
-1.01348e-07
6.31752e-06
4.85773e-08
6.3277e-06
-1.09056e-08
6.31286e-06
1.46392e-08
6.22716e-06
8.57295e-08
6.34486e-06
-1.182e-07
6.26579e-06
7.9669e-08
6.47464e-06
-2.0829e-07
6.35937e-06
1.15675e-07
6.55441e-06
-1.94884e-07
6.36144e-06
1.92699e-07
6.56247e-06
-2.00102e-07
6.28783e-06
2.74065e-07
6.37996e-06
-9.43216e-08
6.20918e-06
1.71643e-07
6.34275e-06
-1.32379e-07
6.19269e-06
1.48389e-07
5.97131e-06
2.20797e-07
6.20119e-06
-2.29372e-07
6.04991e-06
1.51822e-07
5.86188e-06
1.88186e-07
6.33839e-06
-4.78614e-07
6.06981e-06
2.68023e-07
5.76199e-06
3.0954e-07
6.12455e-06
-3.61511e-07
5.99818e-06
1.26563e-07
6.10964e-06
-1.1266e-07
6.00387e-06
1.05437e-07
6.09272e-06
-8.69201e-08
6.00408e-06
8.76242e-08
5.97015e-06
3.20941e-08
5.97871e-06
-6.50237e-09
5.93652e-06
4.2648e-08
5.84788e-06
8.62097e-08
5.78761e-06
5.90209e-08
6.01361e-06
-2.24642e-07
5.95917e-06
5.66738e-08
5.99037e-06
-3.04881e-08
5.93943e-06
4.91157e-08
5.84253e-06
9.50263e-08
5.93386e-06
-9.03449e-08
5.99147e-06
-5.55227e-08
6.15155e-06
-1.59116e-07
6.01224e-06
1.37332e-07
5.85229e-06
1.58682e-07
5.98534e-06
-1.31175e-07
6.02095e-06
-3.46398e-08
5.9697e-06
4.99011e-08
5.94879e-06
1.98308e-08
5.98141e-06
-3.15835e-08
6.03473e-06
-5.27336e-08
6.04201e-06
-7.53096e-09
6.08906e-06
-4.70684e-08
6.12856e-06
-3.93613e-08
6.18406e-06
-5.47714e-08
6.19907e-06
-1.48482e-08
6.16957e-06
2.89375e-08
6.1936e-06
-2.39358e-08
6.22473e-06
-3.0428e-08
6.24292e-06
-1.72073e-08
6.15013e-06
9.20486e-08
6.11969e-06
2.84536e-08
6.11268e-06
7.59916e-09
6.12047e-06
-7.25229e-09
6.11527e-06
4.4538e-09
6.15728e-06
-4.14004e-08
6.23459e-06
-7.64505e-08
6.20665e-06
2.87744e-08
6.19369e-06
1.14937e-08
6.04044e-06
1.5162e-07
6.19417e-06
-1.51965e-07
6.08575e-06
1.08448e-07
6.19071e-06
-1.05958e-07
6.0343e-06
1.56013e-07
6.2946e-06
-2.60096e-07
6.35094e-06
-5.4239e-08
6.21056e-06
1.405e-07
6.32681e-06
-1.16768e-07
6.12477e-06
2.01851e-07
6.12055e-06
2.09997e-09
6.05527e-06
6.50636e-08
6.21399e-06
-1.56764e-07
6.13999e-06
7.43475e-08
6.28192e-06
-1.4227e-07
6.20146e-06
8.05366e-08
6.32904e-06
-1.27142e-07
6.24791e-06
8.20677e-08
6.28988e-06
-4.31334e-08
6.23429e-06
5.37676e-08
6.06298e-06
1.72763e-07
6.20198e-06
-1.38492e-07
6.13992e-06
6.08636e-08
6.27289e-06
-1.32254e-07
6.24648e-06
2.69131e-08
6.31658e-06
-7.0525e-08
6.26969e-06
4.70652e-08
6.39147e-06
-1.21161e-07
6.5238e-06
-1.31692e-07
6.4755e-06
4.85912e-08
6.4634e-06
1.15841e-08
6.45316e-06
9.68972e-09
6.39914e-06
5.38522e-08
6.36407e-06
3.49009e-08
6.3046e-06
5.92988e-08
6.30168e-06
2.76665e-09
6.26419e-06
3.71144e-08
7.14108e-06
-8.77317e-07
7.59045e-06
-4.49386e-07
6.90552e-06
6.85054e-07
6.89675e-06
8.76758e-09
1.36555e-08
1.75317e-05
1.91516e-05
1.45917e-05
5.78998e-06
1.35747e-05
1.38322e-06
1.32956e-05
3.20834e-07
1.30999e-05
2.20753e-07
1.29529e-05
1.93233e-07
1.2862e-05
1.08477e-07
1.2804e-05
7.81997e-08
1.27739e-05
3.14194e-08
1.2763e-05
1.2143e-08
1.27643e-05
-9.59572e-09
1.27736e-05
-1.73496e-08
1.27948e-05
-3.71286e-08
1.282e-05
-4.13151e-08
1.28518e-05
-5.13052e-08
1.28882e-05
-5.75405e-08
1.29291e-05
-6.4349e-08
1.29724e-05
-6.73552e-08
1.30182e-05
-7.12959e-08
1.30682e-05
-7.77996e-08
1.31213e-05
-8.21567e-08
1.31765e-05
-8.51354e-08
1.32335e-05
-8.78113e-08
1.32913e-05
-8.87911e-08
1.3351e-05
-9.15551e-08
1.34103e-05
-9.0507e-08
1.34647e-05
-8.30411e-08
1.3512e-05
-7.18398e-08
1.35526e-05
-6.12531e-08
1.35869e-05
-5.15389e-08
1.36159e-05
-4.33937e-08
1.36402e-05
-3.62321e-08
1.36606e-05
-3.03538e-08
1.36776e-05
-2.52624e-08
1.36919e-05
-2.11384e-08
1.37038e-05
-1.76084e-08
1.37138e-05
-1.47475e-08
1.37222e-05
-1.23431e-08
1.37292e-05
-1.03811e-08
1.37352e-05
-8.74038e-09
1.37402e-05
-7.39157e-09
1.37444e-05
-6.25933e-09
1.37481e-05
-5.41032e-09
1.37512e-05
-4.53134e-09
1.37539e-05
-4.05046e-09
1.37561e-05
-3.13937e-09
1.37578e-05
-2.97241e-09
1.37595e-05
-2.37958e-09
1.3761e-05
-2.44213e-09
1.37621e-05
-1.21292e-09
1.37633e-05
-2.52038e-09
1.37635e-05
8.28938e-10
1.37652e-05
-4.30464e-09
1.37639e-05
4.73512e-09
1.37672e-05
-9.49789e-09
1.37638e-05
1.28301e-08
1.37755e-05
-3.00889e-08
1.38013e-05
-1.26108e-08
1.37986e-05
-4.83934e-09
1.2421e-05
2.32134e-06
1.14241e-05
1.45857e-06
1.18271e-05
-8.65336e-07
1.20583e-05
-3.65178e-07
1.22113e-05
-2.66939e-07
1.22908e-05
-1.24502e-07
1.23585e-05
-1.1746e-07
1.24106e-05
-9.31091e-08
1.24446e-05
-6.068e-08
1.24868e-05
-6.21058e-08
1.24795e-05
3.0307e-08
1.25673e-05
-1.75596e-07
1.26341e-05
-1.2664e-07
1.26846e-05
-7.71591e-08
1.27402e-05
-8.22266e-08
1.27759e-05
-6.15986e-08
1.27855e-05
-2.15351e-08
1.28023e-05
-2.19437e-08
1.27569e-05
1.142e-07
1.26586e-05
2.06225e-07
1.26489e-05
-1.48109e-08
1.26377e-05
6.81649e-08
1.27896e-05
-3.13842e-07
1.25875e-05
3.6722e-07
1.29014e-05
-6.30551e-07
1.28612e-05
9.32994e-08
1.28025e-05
1.25511e-07
1.30393e-05
-4.70604e-07
1.28251e-05
5.03573e-07
1.2836e-05
-3.73693e-08
1.25912e-05
4.39665e-07
1.27803e-05
-4.23076e-07
1.27874e-05
-5.71017e-09
1.29307e-05
-2.91337e-07
1.29584e-05
-4.72644e-08
1.28569e-05
2.07001e-07
1.28441e-05
1.65981e-08
1.28375e-05
1.77182e-08
1.2924e-05
-1.86197e-07
1.28985e-05
6.93569e-08
1.28776e-05
2.93677e-08
1.27846e-05
2.5e-07
1.2933e-05
-2.87277e-07
1.23845e-05
9.6576e-07
1.28616e-05
-8.74013e-07
1.37186e-05
-1.47745e-06
1.29037e-05
1.55946e-06
1.23662e-05
8.75129e-07
1.2575e-05
-4.46148e-07
1.26539e-05
-1.41252e-07
1.27227e-05
-1.30465e-07
1.26906e-05
7.93206e-08
1.25568e-05
2.97038e-07
1.25433e-05
4.65209e-08
1.24606e-05
1.40696e-07
1.24179e-05
2.96125e-08
1.24019e-05
2.89423e-08
1.24913e-05
-1.66028e-07
1.24282e-05
1.42444e-07
1.25122e-05
-1.57327e-07
1.24327e-05
1.29555e-07
1.23796e-05
1.397e-07
1.26754e-05
-5.05165e-07
1.24221e-05
4.97403e-07
1.21812e-05
3.81932e-07
1.2321e-05
-3.11086e-07
1.24514e-05
-2.39781e-07
1.2339e-05
2.4785e-07
1.22457e-05
1.93836e-07
1.21825e-05
1.20671e-07
1.20876e-05
1.58867e-07
1.21417e-05
-8.83003e-08
1.21305e-05
-5.22311e-08
1.20615e-05
2.16444e-07
1.27511e-05
-1.20579e-06
1.22911e-05
9.06405e-07
1.18712e-05
6.86831e-07
1.20745e-05
-4.74102e-07
1.21071e-05
-4.38892e-08
1.21901e-05
-1.55262e-07
1.21691e-05
5.74595e-08
1.21694e-05
-2.06685e-09
1.21006e-05
1.33976e-07
1.20919e-05
-1.05143e-08
1.22255e-05
-2.31317e-07
1.24368e-05
-4.08409e-07
1.22436e-05
3.75786e-07
1.2323e-05
-1.78633e-07
1.23035e-05
4.83177e-08
1.24076e-05
-2.12908e-07
1.24196e-05
-5.36511e-09
1.23177e-05
2.03657e-07
1.22436e-05
1.57944e-07
1.22308e-05
6.02504e-09
1.21605e-05
1.23403e-07
1.22284e-05
-1.33024e-07
1.20809e-05
3.10016e-07
1.20558e-05
4.74221e-08
1.20607e-05
-9.63088e-10
1.21597e-05
-2.03176e-07
1.21491e-05
4.0701e-08
1.20862e-05
1.24119e-07
1.1925e-05
3.10615e-07
1.18835e-05
6.79579e-08
1.18957e-05
-2.62439e-08
1.19745e-05
-1.54147e-07
1.19914e-05
-3.64888e-08
1.19705e-05
6.56339e-08
1.19959e-05
-7.38368e-08
1.18483e-05
2.92451e-07
1.19906e-05
-2.92208e-07
1.18863e-05
2.14365e-07
1.20324e-05
-3.02609e-07
1.21993e-05
-2.67389e-07
1.23075e-05
-2.00271e-07
1.20989e-05
3.77545e-07
1.21566e-05
-1.40141e-07
1.22026e-05
-8.56467e-08
1.22287e-05
-3.74428e-08
1.2203e-05
4.79423e-08
1.2083e-05
2.21073e-07
1.22165e-05
-2.70534e-07
1.22598e-05
-6.74484e-08
1.22629e-05
1.39571e-08
1.19691e-05
4.92833e-07
1.21777e-05
-3.20679e-07
1.29573e-05
-1.40117e-06
1.22248e-05
1.43501e-06
1.20681e-05
1.60688e-07
1.21294e-05
-1.47762e-07
1.22373e-05
-2.07622e-07
1.21998e-05
8.58114e-08
1.22226e-05
-3.50955e-08
1.22053e-05
3.15665e-08
1.21406e-05
1.50484e-07
1.22157e-05
-1.94083e-07
1.21475e-05
1.49368e-07
1.2341e-05
-4.00292e-07
1.22626e-05
1.95149e-07
1.24437e-05
-3.75383e-07
1.22681e-05
3.68167e-07
1.24566e-05
-3.87085e-07
1.21964e-05
5.32247e-07
1.22776e-05
-1.80321e-07
1.21124e-05
3.38249e-07
1.22682e-05
-2.86457e-07
1.21356e-05
2.76957e-07
1.18782e-05
4.76412e-07
1.21085e-05
-4.59042e-07
1.19054e-05
3.56038e-07
1.17589e-05
3.34275e-07
1.24041e-05
-1.12909e-06
1.21167e-05
5.54274e-07
1.16711e-05
7.59442e-07
1.19756e-05
-6.63505e-07
1.18733e-05
2.28827e-07
1.19872e-05
-2.29006e-07
1.19077e-05
1.84836e-07
1.19851e-05
-1.60651e-07
1.19076e-05
1.62361e-07
1.18701e-05
6.61672e-08
1.18723e-05
-4.51394e-09
1.18334e-05
8.13216e-08
1.1726e-05
1.87522e-07
1.16873e-05
9.5358e-08
1.19455e-05
-4.78875e-07
1.18852e-05
1.22219e-07
1.18945e-05
-3.8916e-08
1.1843e-05
9.6289e-08
1.17452e-05
1.8923e-07
1.18042e-05
-1.46667e-07
1.18612e-05
-1.07706e-07
1.20763e-05
-3.72757e-07
1.1953e-05
2.5585e-07
1.17469e-05
3.62206e-07
1.18697e-05
-2.4965e-07
1.19332e-05
-9.61718e-08
1.18821e-05
9.77797e-08
1.1834e-05
6.57615e-08
1.18527e-05
-4.78513e-08
1.19146e-05
-1.13117e-07
1.19289e-05
-2.19112e-08
1.19701e-05
-8.7918e-08
1.20074e-05
-7.6077e-08
1.2064e-05
-1.09647e-07
1.20787e-05
-2.90777e-08
1.20643e-05
4.26035e-08
1.20978e-05
-5.66637e-08
1.21145e-05
-4.56627e-08
1.21181e-05
-1.91801e-08
1.20348e-05
1.73148e-07
1.19993e-05
5.9399e-08
1.1973e-05
3.48545e-08
1.19925e-05
-2.56277e-08
1.20062e-05
-1.05243e-08
1.20527e-05
-8.63014e-08
1.21188e-05
-1.40307e-07
1.21211e-05
2.80102e-08
1.21036e-05
2.55148e-08
1.19567e-05
2.95069e-07
1.208e-05
-2.71705e-07
1.1982e-05
2.06508e-07
1.20968e-05
-2.22677e-07
1.19414e-05
3.10871e-07
1.2214e-05
-5.31188e-07
1.22821e-05
-1.17329e-07
1.213e-05
2.92803e-07
1.22206e-05
-2.08691e-07
1.20307e-05
3.90564e-07
1.19951e-05
3.26998e-08
1.19297e-05
1.30093e-07
1.20826e-05
-3.05189e-07
1.20217e-05
1.36231e-07
1.21542e-05
-2.7532e-07
1.20829e-05
1.5239e-07
1.22093e-05
-2.52147e-07
1.21427e-05
1.50105e-07
1.22193e-05
-1.23133e-07
1.21583e-05
1.10768e-07
1.19502e-05
3.83983e-07
1.20929e-05
-2.801e-07
1.20634e-05
8.81986e-08
1.2187e-05
-2.54248e-07
1.21683e-05
4.67705e-08
1.22291e-05
-1.3152e-07
1.21868e-05
9.04889e-08
1.23258e-05
-2.58786e-07
1.24898e-05
-2.94479e-07
1.24392e-05
9.97653e-08
1.24215e-05
2.82469e-08
1.24105e-05
1.93535e-08
1.23567e-05
1.07017e-07
1.23163e-05
7.4614e-08
1.22585e-05
1.16433e-07
1.22074e-05
5.30872e-08
1.22309e-05
1.26829e-08
1.35681e-05
-2.21544e-06
1.44719e-05
-1.35317e-06
1.37852e-05
1.372e-06
1.36131e-05
1.80858e-07
4.65162e-08
2.13301e-05
2.11549e-05
1.89019e-05
8.21817e-06
1.76081e-05
2.67703e-06
1.70305e-05
8.98427e-07
1.66262e-05
6.25003e-07
1.6389e-05
4.30483e-07
1.62289e-05
2.68579e-07
1.61291e-05
1.77971e-07
1.60677e-05
9.28493e-08
1.60384e-05
4.14257e-08
1.60258e-05
3.00197e-09
1.60296e-05
-2.11716e-08
1.60465e-05
-5.40164e-08
1.60709e-05
-6.57219e-08
1.6105e-05
-8.5349e-08
1.61452e-05
-9.77969e-08
1.61919e-05
-1.11053e-07
1.62426e-05
-1.18051e-07
1.62964e-05
-1.25043e-07
1.63555e-05
-1.36961e-07
1.64188e-05
-1.45404e-07
1.6485e-05
-1.51398e-07
1.65538e-05
-1.56601e-07
1.6624e-05
-1.58929e-07
1.66967e-05
-1.64285e-07
1.67689e-05
-1.62685e-07
1.68351e-05
-1.49291e-07
1.68933e-05
-1.2996e-07
1.69434e-05
-1.11386e-07
1.69862e-05
-9.43284e-08
1.70225e-05
-7.97266e-08
1.70532e-05
-6.69056e-08
1.7079e-05
-5.61893e-08
1.71007e-05
-4.69563e-08
1.71189e-05
-3.93415e-08
1.71342e-05
-3.28847e-08
1.7147e-05
-2.75452e-08
1.71578e-05
-2.31248e-08
1.71668e-05
-1.94183e-08
1.71745e-05
-1.64109e-08
1.71809e-05
-1.3818e-08
1.71864e-05
-1.17685e-08
1.71911e-05
-1.00759e-08
1.71951e-05
-8.54173e-09
1.71986e-05
-7.51982e-09
1.72014e-05
-5.93886e-09
1.72039e-05
-5.538e-09
1.72061e-05
-4.5371e-09
1.7208e-05
-4.34314e-09
1.72094e-05
-2.66485e-09
1.72108e-05
-3.83561e-09
1.72116e-05
-1.08458e-11
1.72129e-05
-5.57585e-09
1.72134e-05
4.17793e-09
1.72151e-05
-1.12003e-08
1.72148e-05
1.3124e-08
1.72222e-05
-3.74576e-08
1.72648e-05
-5.5169e-08
1.72397e-05
2.00127e-08
1.584e-05
3.72133e-06
1.46533e-05
2.64734e-06
1.48567e-05
-1.0659e-06
1.50736e-05
-5.79484e-07
1.52323e-05
-4.22978e-07
1.53237e-05
-2.13277e-07
1.53994e-05
-1.90626e-07
1.54585e-05
-1.4967e-07
1.5494e-05
-9.27669e-08
1.55395e-05
-1.06389e-07
1.55422e-05
2.6833e-08
1.56218e-05
-2.52133e-07
1.56889e-05
-1.91299e-07
1.57483e-05
-1.35996e-07
1.58132e-05
-1.45295e-07
1.58563e-05
-1.02779e-07
1.58697e-05
-3.29348e-08
1.58883e-05
-3.71077e-08
1.58541e-05
1.45942e-07
1.57716e-05
2.79679e-07
1.57578e-05
-2.0738e-09
1.57655e-05
6.14904e-08
1.58905e-05
-4.41159e-07
1.57135e-05
5.47888e-07
1.59856e-05
-8.96833e-07
1.59779e-05
1.03875e-07
1.59083e-05
2.00497e-07
1.60924e-05
-6.48839e-07
1.5953e-05
6.34672e-07
1.59578e-05
-5.5608e-08
1.57308e-05
6.68683e-07
1.58692e-05
-5.54049e-07
1.58811e-05
-1.61772e-08
1.60068e-05
-4.13445e-07
1.60428e-05
-7.67519e-08
1.59602e-05
2.90891e-07
1.59399e-05
3.12096e-08
1.59239e-05
3.07534e-08
1.59914e-05
-2.48773e-07
1.5978e-05
8.66349e-08
1.59489e-05
5.46595e-08
1.5894e-05
2.96746e-07
1.60285e-05
-4.27107e-07
1.55643e-05
1.43119e-06
1.5977e-05
-1.28175e-06
1.6758e-05
-2.25485e-06
1.61065e-05
2.2073e-06
1.55526e-05
1.42051e-06
1.56639e-05
-5.59833e-07
1.57398e-05
-2.11011e-07
1.57997e-05
-1.84925e-07
1.57725e-05
1.01611e-07
1.5676e-05
3.82937e-07
1.56797e-05
3.67369e-08
1.56035e-05
2.14846e-07
1.55402e-05
9.62355e-08
1.55139e-05
5.59015e-08
1.5592e-05
-2.46988e-07
1.55462e-05
1.91283e-07
1.56224e-05
-2.3596e-07
1.55503e-05
1.98681e-07
1.55156e-05
1.79911e-07
1.57937e-05
-7.88425e-07
1.56018e-05
6.78581e-07
1.53601e-05
6.25625e-07
1.5438e-05
-3.82445e-07
1.55512e-05
-3.46116e-07
1.54636e-05
3.34467e-07
1.53839e-05
2.62678e-07
1.53266e-05
1.71231e-07
1.5229e-05
2.54742e-07
1.52704e-05
-1.32076e-07
1.52459e-05
-2.67779e-08
1.52351e-05
2.35117e-07
1.58852e-05
-1.85894e-06
1.55304e-05
1.25061e-06
1.51091e-05
1.11048e-06
1.52101e-05
-5.69277e-07
1.52434e-05
-7.61232e-08
1.53193e-05
-2.29371e-07
1.53089e-05
7.00154e-08
1.53061e-05
-1.98837e-09
1.52445e-05
1.91311e-07
1.52341e-05
-1.92338e-09
1.53616e-05
-3.55081e-07
1.55507e-05
-5.88414e-07
1.53913e-05
5.36882e-07
1.5447e-05
-2.37497e-07
1.54355e-05
6.10158e-08
1.55217e-05
-2.95258e-07
1.55374e-05
-1.77386e-08
1.54457e-05
2.9154e-07
1.53839e-05
2.09738e-07
1.53743e-05
1.12852e-08
1.53112e-05
1.91552e-07
1.53599e-05
-1.79955e-07
1.52362e-05
4.25586e-07
1.52117e-05
6.37044e-08
1.52183e-05
-7.43303e-09
1.53015e-05
-2.80752e-07
1.53021e-05
4.35529e-08
1.52453e-05
1.76813e-07
1.50967e-05
4.49381e-07
1.50475e-05
1.10208e-07
1.50541e-05
-3.16837e-08
1.51259e-05
-2.19785e-07
1.51467e-05
-5.43195e-08
1.51325e-05
7.6988e-08
1.51511e-05
-9.32951e-08
1.50338e-05
4.08787e-07
1.51469e-05
-4.0806e-07
1.50672e-05
2.96695e-07
1.51837e-05
-4.2034e-07
1.53603e-05
-4.42538e-07
1.54733e-05
-3.03433e-07
1.52772e-05
5.75924e-07
1.53069e-05
-1.7228e-07
1.53487e-05
-1.25322e-07
1.53715e-05
-5.5731e-08
1.53497e-05
6.62071e-08
1.52485e-05
3.15335e-07
1.53596e-05
-3.76013e-07
1.54017e-05
-1.01251e-07
1.54123e-05
-1.12089e-10
1.51478e-05
7.51954e-07
1.53467e-05
-5.14634e-07
1.60715e-05
-2.12103e-06
1.54729e-05
2.02851e-06
1.52488e-05
3.80544e-07
1.5278e-05
-1.73953e-07
1.53697e-05
-2.96703e-07
1.5342e-05
1.13558e-07
1.53642e-05
-5.9873e-08
1.53593e-05
3.486e-08
1.53009e-05
2.08377e-07
1.53491e-05
-2.43788e-07
1.53101e-05
1.91046e-07
1.54675e-05
-5.54026e-07
1.54224e-05
2.43629e-07
1.5567e-05
-5.17853e-07
1.54303e-05
5.04914e-07
1.5582e-05
-5.35957e-07
1.53647e-05
7.47203e-07
1.54209e-05
-2.45642e-07
1.52801e-05
4.78268e-07
1.54045e-05
-4.09747e-07
1.53182e-05
3.55346e-07
1.50958e-05
6.93706e-07
1.52742e-05
-6.3821e-07
1.50794e-05
5.51015e-07
1.49583e-05
4.5392e-07
1.55567e-05
-1.73614e-06
1.53733e-05
7.33835e-07
1.49551e-05
1.18223e-06
1.51267e-05
-8.30643e-07
1.5052e-05
3.05963e-07
1.51485e-05
-3.28409e-07
1.5088e-05
2.43828e-07
1.51468e-05
-2.1406e-07
1.50846e-05
2.2136e-07
1.50489e-05
9.49362e-08
1.5049e-05
-1.61527e-10
1.50158e-05
1.14773e-07
1.49184e-05
2.75869e-07
1.48958e-05
1.11867e-07
1.51296e-05
-7.08781e-07
1.50793e-05
1.81662e-07
1.50729e-05
-2.74947e-08
1.5028e-05
1.36489e-07
1.49424e-05
2.67856e-07
1.49781e-05
-1.79922e-07
1.50346e-05
-1.56096e-07
1.52405e-05
-5.73942e-07
1.51557e-05
3.34996e-07
1.49653e-05
5.47631e-07
1.50484e-05
-3.27828e-07
1.5111e-05
-1.55453e-07
1.5067e-05
1.37642e-07
1.50121e-05
1.1689e-07
1.50263e-05
-5.8979e-08
1.50885e-05
-1.72429e-07
1.5104e-05
-3.67539e-08
1.51312e-05
-1.1395e-07
1.51582e-05
-1.00956e-07
1.52119e-05
-1.59086e-07
1.52299e-05
-4.47605e-08
1.52256e-05
4.64112e-08
1.52616e-05
-9.1686e-08
1.52718e-05
-5.25009e-08
1.52662e-05
-9.36029e-09
1.51931e-05
2.43627e-07
1.51519e-05
9.26507e-08
1.51203e-05
6.61269e-08
1.51481e-05
-5.28105e-08
1.51739e-05
-3.85951e-08
1.52212e-05
-1.3092e-07
1.52831e-05
-1.98089e-07
1.52892e-05
2.52211e-08
1.52712e-05
3.83522e-08
1.51549e-05
4.04606e-07
1.52443e-05
-3.57047e-07
1.51632e-05
2.87637e-07
1.52564e-05
-3.19237e-07
1.51263e-05
4.39853e-07
1.53624e-05
-7.65187e-07
1.54531e-05
-1.98948e-07
1.53174e-05
4.31966e-07
1.53646e-05
-2.56159e-07
1.52178e-05
5.35661e-07
1.51668e-05
7.49944e-08
1.51054e-05
1.88773e-07
1.52426e-05
-4.36289e-07
1.52014e-05
1.8035e-07
1.53055e-05
-3.78559e-07
1.52462e-05
2.13463e-07
1.53521e-05
-3.55839e-07
1.53008e-05
2.04676e-07
1.53658e-05
-1.92022e-07
1.53345e-05
1.34858e-07
1.5167e-05
5.5399e-07
1.52731e-05
-3.85337e-07
1.52488e-05
1.08692e-07
1.53457e-05
-3.48497e-07
1.53384e-05
5.69784e-08
1.53893e-05
-1.82289e-07
1.53595e-05
1.22171e-07
1.54873e-05
-3.82608e-07
1.5649e-05
-4.51309e-07
1.56174e-05
1.34055e-07
1.55992e-05
4.50546e-08
1.55883e-05
2.72006e-08
1.55412e-05
1.51613e-07
1.5501e-05
1.12277e-07
1.5453e-05
1.61874e-07
1.53837e-05
1.19906e-07
1.54376e-05
-4.41822e-08
1.68287e-05
-3.60912e-06
1.78957e-05
-2.42096e-06
1.74284e-05
1.83946e-06
1.72281e-05
3.81111e-07
1.07645e-07
2.32819e-05
2.12063e-05
2.18361e-05
9.66399e-06
2.06517e-05
3.86138e-06
1.97911e-05
1.75907e-06
1.91821e-05
1.23399e-06
1.8828e-05
7.84562e-07
1.85866e-05
5.10038e-07
1.84382e-05
3.26339e-07
1.83411e-05
1.89938e-07
1.82866e-05
9.59377e-08
1.8255e-05
3.4627e-08
1.82472e-05
-1.33983e-08
1.82549e-05
-6.17436e-08
1.82735e-05
-8.43151e-08
1.83042e-05
-1.16038e-07
1.8343e-05
-1.36538e-07
1.83901e-05
-1.58221e-07
1.84427e-05
-1.70642e-07
1.84992e-05
-1.81546e-07
1.85619e-05
-1.99679e-07
1.86296e-05
-2.13079e-07
1.87011e-05
-2.22844e-07
1.87756e-05
-2.31139e-07
1.88522e-05
-2.35491e-07
1.89318e-05
-2.4391e-07
1.90104e-05
-2.41243e-07
1.9082e-05
-2.20935e-07
1.91451e-05
-1.9303e-07
1.91998e-05
-1.66076e-07
1.92467e-05
-1.4129e-07
1.92868e-05
-1.19827e-07
1.93208e-05
-1.00895e-07
1.93495e-05
-8.49197e-08
1.93738e-05
-7.11737e-08
1.93941e-05
-5.97147e-08
1.94113e-05
-5.00305e-08
1.94257e-05
-4.19354e-08
1.94378e-05
-3.52699e-08
1.9448e-05
-2.96075e-08
1.94567e-05
-2.50685e-08
1.94639e-05
-2.10707e-08
1.94701e-05
-1.79901e-08
1.94754e-05
-1.53333e-08
1.94799e-05
-1.30722e-08
1.94838e-05
-1.14037e-08
1.9487e-05
-9.12601e-09
1.94899e-05
-8.42135e-09
1.94923e-05
-6.9853e-09
1.94944e-05
-6.46625e-09
1.94961e-05
-4.33522e-09
1.94975e-05
-5.20448e-09
1.94986e-05
-1.17251e-09
1.94998e-05
-6.68679e-09
1.95006e-05
3.3228e-09
1.95016e-05
-1.22349e-08
1.95027e-05
1.20672e-08
1.95075e-05
-4.22107e-08
1.95546e-05
-1.02334e-07
1.95154e-05
5.91476e-08
1.82258e-05
5.0121e-06
1.70113e-05
3.86547e-06
1.70138e-05
-1.06425e-06
1.71674e-05
-7.29413e-07
1.73186e-05
-5.70533e-07
1.74088e-05
-2.9993e-07
1.74853e-05
-2.63557e-07
1.75471e-05
-2.08049e-07
1.75852e-05
-1.26911e-07
1.76258e-05
-1.46138e-07
1.76297e-05
2.22373e-08
1.77047e-05
-3.22717e-07
1.77723e-05
-2.54522e-07
1.78347e-05
-1.96995e-07
1.79029e-05
-2.12194e-07
1.79498e-05
-1.46747e-07
1.79691e-05
-4.88052e-08
1.79869e-05
-5.32618e-08
1.79545e-05
1.71102e-07
1.78837e-05
3.37841e-07
1.7876e-05
4.37606e-09
1.78852e-05
5.45517e-08
1.79852e-05
-5.41734e-07
1.78513e-05
6.89141e-07
1.80821e-05
-1.11896e-06
1.80917e-05
9.81948e-08
1.80212e-05
2.7719e-07
1.81607e-05
-7.8491e-07
1.80604e-05
7.19354e-07
1.80625e-05
-7.49634e-08
1.78789e-05
8.5848e-07
1.79799e-05
-6.43231e-07
1.79941e-05
-2.67751e-08
1.81027e-05
-5.14517e-07
1.81444e-05
-1.09135e-07
1.8078e-05
3.55537e-07
1.80515e-05
4.73598e-08
1.8028e-05
5.1163e-08
1.80825e-05
-2.94689e-07
1.80757e-05
9.7999e-08
1.80464e-05
7.47803e-08
1.80012e-05
3.28503e-07
1.81125e-05
-5.43171e-07
1.77623e-05
1.78706e-06
1.80996e-05
-1.61088e-06
1.8757e-05
-2.91089e-06
1.826e-05
2.69541e-06
1.77485e-05
1.92031e-06
1.77818e-05
-5.93671e-07
1.78468e-05
-2.65312e-07
1.79024e-05
-2.34195e-07
1.78744e-05
1.18473e-07
1.7799e-05
4.41374e-07
1.78096e-05
1.97853e-08
1.7749e-05
2.7589e-07
1.76847e-05
1.65896e-07
1.76524e-05
8.93842e-08
1.77155e-05
-3.13148e-07
1.76828e-05
2.26753e-07
1.77465e-05
-3.02605e-07
1.76919e-05
2.51758e-07
1.76636e-05
2.14072e-07
1.7895e-05
-1.03083e-06
1.77586e-05
8.00368e-07
1.75436e-05
8.47114e-07
1.75823e-05
-4.09239e-07
1.76757e-05
-4.32862e-07
1.76014e-05
4.02699e-07
1.75303e-05
3.1812e-07
1.74762e-05
2.16961e-07
1.73853e-05
3.43443e-07
1.74195e-05
-1.67616e-07
1.74025e-05
-5.08306e-09
1.74169e-05
2.29684e-07
1.7988e-05
-2.4393e-06
1.7721e-05
1.50296e-06
1.73328e-05
1.50441e-06
1.73758e-05
-6.02521e-07
1.74029e-05
-9.9983e-08
1.74702e-05
-2.94368e-07
1.74656e-05
7.52875e-08
1.74572e-05
1.68875e-09
1.74031e-05
2.39895e-07
1.73956e-05
5.1243e-09
1.75097e-05
-4.60388e-07
1.76784e-05
-7.44414e-07
1.75575e-05
6.58127e-07
1.75927e-05
-2.76715e-07
1.75853e-05
7.17191e-08
1.76564e-05
-3.60765e-07
1.76719e-05
-3.11275e-08
1.75891e-05
3.66445e-07
1.75342e-05
2.51657e-07
1.75297e-05
1.28279e-08
1.74798e-05
2.49157e-07
1.75116e-05
-2.11497e-07
1.74066e-05
5.17913e-07
1.73795e-05
8.09593e-08
1.73865e-05
-1.19672e-08
1.74578e-05
-3.43828e-07
1.74632e-05
4.13271e-08
1.74101e-05
2.22294e-07
1.72751e-05
5.70245e-07
1.72221e-05
1.55205e-07
1.72253e-05
-3.06773e-08
1.72913e-05
-2.76927e-07
1.73154e-05
-7.56195e-08
1.73043e-05
8.33722e-08
1.7323e-05
-1.14259e-07
1.72321e-05
4.9837e-07
1.73164e-05
-4.94686e-07
1.72566e-05
3.5998e-07
1.73503e-05
-5.1379e-07
1.75184e-05
-6.04721e-07
1.76368e-05
-4.08258e-07
1.74707e-05
7.43309e-07
1.74761e-05
-1.80851e-07
1.75105e-05
-1.55552e-07
1.75284e-05
-6.90277e-08
1.75072e-05
8.07753e-08
1.74254e-05
3.90642e-07
1.75204e-05
-4.60993e-07
1.75578e-05
-1.30009e-07
1.75693e-05
-1.92721e-08
1.7368e-05
9.46769e-07
1.75384e-05
-6.77697e-07
1.81491e-05
-2.72769e-06
1.76781e-05
2.4904e-06
1.74417e-05
6.11708e-07
1.74504e-05
-1.77336e-07
1.7525e-05
-3.66965e-07
1.75035e-05
1.3496e-07
1.75216e-05
-8.12008e-08
1.75227e-05
3.22406e-08
1.74705e-05
2.60351e-07
1.75091e-05
-2.82759e-07
1.74883e-05
2.16537e-07
1.76202e-05
-6.80598e-07
1.75979e-05
2.7048e-07
1.77092e-05
-6.26281e-07
1.76102e-05
6.04601e-07
1.77291e-05
-6.53671e-07
1.75507e-05
9.1911e-07
1.75797e-05
-2.86927e-07
1.74603e-05
5.96683e-07
1.75594e-05
-5.0815e-07
1.74967e-05
4.07395e-07
1.73066e-05
8.76687e-07
1.74434e-05
-7.75146e-07
1.72881e-05
7.07542e-07
1.71815e-05
5.56324e-07
1.76869e-05
-2.25501e-06
1.75771e-05
8.40721e-07
1.72134e-05
1.55618e-06
1.73099e-05
-9.19913e-07
1.72476e-05
3.69315e-07
1.73232e-05
-4.08215e-07
1.72763e-05
2.90573e-07
1.73203e-05
-2.52363e-07
1.7268e-05
2.67382e-07
1.72338e-05
1.21939e-07
1.72335e-05
6.39474e-09
1.72051e-05
1.39529e-07
1.71222e-05
3.43729e-07
1.71032e-05
1.25035e-07
1.7303e-05
-8.98188e-07
1.7271e-05
2.27551e-07
1.72601e-05
-1.37185e-08
1.72226e-05
1.64474e-07
1.71472e-05
3.34795e-07
1.71779e-05
-2.04067e-07
1.72379e-05
-2.03632e-07
1.74152e-05
-7.47655e-07
1.73548e-05
3.84584e-07
1.7181e-05
7.15234e-07
1.72313e-05
-3.69357e-07
1.72889e-05
-2.08925e-07
1.72569e-05
1.62603e-07
1.72123e-05
1.57025e-07
1.72246e-05
-6.62335e-08
1.72807e-05
-2.23708e-07
1.72975e-05
-5.1239e-08
1.73127e-05
-1.26812e-07
1.73287e-05
-1.13753e-07
1.73774e-05
-2.02468e-07
1.73964e-05
-6.1556e-08
1.73962e-05
4.70555e-08
1.74303e-05
-1.23008e-07
1.74406e-05
-5.89365e-08
1.74363e-05
-2.0159e-09
1.73703e-05
3.02631e-07
1.73223e-05
1.2847e-07
1.7292e-05
9.6149e-08
1.73218e-05
-8.09153e-08
1.73515e-05
-6.98224e-08
1.73971e-05
-1.71495e-07
1.74557e-05
-2.50011e-07
1.7463e-05
2.08374e-08
1.74463e-05
4.64614e-08
1.73548e-05
4.87606e-07
1.74217e-05
-4.18438e-07
1.73549e-05
3.55033e-07
1.74191e-05
-3.87487e-07
1.73178e-05
5.41388e-07
1.75207e-05
-9.61148e-07
1.76179e-05
-2.82894e-07
1.74997e-05
5.53167e-07
1.75215e-05
-2.81519e-07
1.74132e-05
6.37541e-07
1.73665e-05
1.08657e-07
1.73145e-05
2.38867e-07
1.74313e-05
-5.42748e-07
1.7404e-05
2.1225e-07
1.7478e-05
-4.51871e-07
1.74327e-05
2.62148e-07
1.75172e-05
-4.36387e-07
1.74737e-05
2.49631e-07
1.75229e-05
-2.50612e-07
1.75115e-05
1.36181e-07
1.73885e-05
6.8155e-07
1.74642e-05
-4.58512e-07
1.74359e-05
1.33902e-07
1.75108e-05
-4.19333e-07
1.75143e-05
5.76348e-08
1.75561e-05
-2.21667e-07
1.75359e-05
1.46941e-07
1.76479e-05
-4.89555e-07
1.77978e-05
-5.966e-07
1.7789e-05
1.4438e-07
1.77745e-05
5.6093e-08
1.77627e-05
3.43522e-08
1.77219e-05
1.88818e-07
1.76847e-05
1.45954e-07
1.7645e-05
1.9809e-07
1.75724e-05
1.89018e-07
1.76462e-05
-1.21551e-07
1.89567e-05
-4.92244e-06
2.00434e-05
-3.50803e-06
1.97896e-05
2.0937e-06
1.96333e-05
5.37441e-07
1.76812e-07
2.42703e-05