/*--------------------------------*- C++ -*----------------------------------*\
| =========                 |                                                 |
| \\      /  F ield         | foam-extend: Open Source CFD                    |
|  \\    /   O peration     | Version:     3.2                                |
|   \\  /    A nd           | Web:         http://www.foam-extend.org         |
|    \\/     M anipulation  | For copyright notice see file Copyright         |
\*---------------------------------------------------------------------------*/
FoamFile
{
    version     2.0;
    format      ascii;
    class       areaVectorField;
    location    "50";
    object      PointNormalVector;
}
// * * * * * * * * * * * * * * * * * * * * * * * * * * * * * * * * * * * * * //

dimensions      [0 0 0 0 0 0 0];

internalField   nonuniform List<vector> 
300
(
(5e-06 -0 0.001)
(5e-06 -0 0.001)
(5e-06 -0 0.001)
(5e-06 -0 0.001)
(5e-06 -4.23516e-22 0.001)
(5e-06 -4.23516e-22 0.001)
(5e-06 -4.23516e-22 0.001)
(5e-06 -4.23516e-22 0.001)
(5e-06 -0 0.001)
(5e-06 -4.23516e-22 0.001)
(5e-06 -0 0.001)
(5e-06 4.23516e-22 0.001)
(5e-06 -0 0.001)
(5e-06 4.23516e-22 0.001)
(5e-06 -0 0.001)
(5e-06 -0 0.001)
(5e-06 4.23516e-22 0.001)
(5e-06 -4.23516e-22 0.001)
(5e-06 4.23516e-22 0.001)
(5e-06 -0 0.001)
(5e-06 -0 0.001)
(5e-06 -4.23516e-22 0.001)
(5e-06 -0 0.001)
(5e-06 -0 0.001)
(5e-06 -0 0.001)
(5e-06 -4.23516e-22 0.001)
(5e-06 -0 0.001)
(5e-06 -0 0.001)
(5e-06 -0 0.001)
(5e-06 -4.23516e-22 0.001)
(5e-06 -0 0.001)
(5e-06 -0 0.001)
(5e-06 -0 0.001)
(5e-06 -0 0.001)
(5e-06 -0 0.001)
(5e-06 -0 0.001)
(5e-06 -0 0.001)
(5e-06 -0 0.001)
(5e-06 -0 0.001)
(5e-06 -0 0.001)
(5e-06 -0 0.001)
(5e-06 -4.23516e-22 0.001)
(5e-06 -0 0.001)
(5e-06 -4.23516e-22 0.001)
(5e-06 -0 0.001)
(5e-06 -0 0.001)
(5e-06 -4.23516e-22 0.001)
(5e-06 -0 0.001)
(5e-06 -4.23516e-22 0.001)
(5e-06 -0 0.001)
(5e-06 -0 0.001)
(5e-06 -4.23516e-22 0.001)
(5e-06 -0 0.001)
(5e-06 -4.23516e-22 0.001)
(5e-06 -0 0.001)
(5e-06 -0 0.001)
(5e-06 -4.23516e-22 0.001)
(5e-06 -0 0.001)
(5e-06 -0 0.001)
(2.59214e-05 -0 0.001)
(3.06227e-05 -0 0.001)
(1.18309e-05 -8.47033e-22 0.001)
(6.98572e-06 8.47033e-22 0.001)
(5.26275e-06 -0 0.001)
(5.22488e-06 -0 0.001)
(4.99303e-06 -0 0.001)
(4.97312e-06 -0 0.001)
(5.21828e-06 -0 0.001)
(4.67147e-06 -0 0.001)
(6.03729e-06 -4.23516e-22 0.001)
(5.06585e-06 -0 0.001)
(5.07518e-06 -4.23516e-22 0.001)
(4.99421e-06 -0 0.001)
(4.92233e-06 4.23516e-22 0.001)
(4.9137e-06 -4.23516e-22 0.001)
(5.29536e-06 -4.23516e-22 0.001)
(4.91315e-06 -0 0.001)
(4.63675e-06 -4.23516e-22 0.001)
(5.1794e-06 -4.23516e-22 0.001)
(4.63399e-06 -0 0.001)
(6.02751e-06 4.23516e-22 0.001)
(2.02786e-06 2.11758e-22 0.001)
(9.87409e-06 -8.47033e-22 0.001)
(3.88334e-07 -5.29396e-23 0.001)
(5.32336e-06 -4.23516e-22 0.001)
(8.37882e-06 -0 0.001)
(1.50522e-06 -0 0.001)
(6.02938e-06 -0 0.001)
(1.39924e-06 1.05879e-22 0.001)
(1.01635e-05 -0 0.001)
(3.78464e-06 -0 0.001)
(6.08513e-06 4.23516e-22 0.001)
(3.65485e-06 -0 0.001)
(4.97718e-06 -0 0.001)
(6.23793e-06 -0 0.001)
(4.06547e-06 -0 0.001)
(5.56134e-06 -0 0.001)
(4.68699e-06 -4.23516e-22 0.001)
(5.92084e-06 -0 0.001)
(3.72185e-06 4.23516e-22 0.001)
(5.4969e-06 -4.23516e-22 0.001)
(4.27044e-07 5.29396e-23 0.001)
(1.37553e-05 -1.69407e-21 0.001)
(1.60182e-06 -0 0.001)
(-1.18604e-05 -8.47033e-22 0.001)
(1.13511e-05 -0 0.001)
(1.46007e-05 -0 0.001)
(5.0016e-06 -0 0.001)
(5.85844e-06 -0 0.001)
(4.14666e-06 4.23516e-22 0.001)
(3.66558e-06 -0 0.001)
(4.8819e-06 4.23516e-22 0.001)
(3.31641e-06 -4.23516e-22 0.001)
(5.78555e-06 -0 0.001)
(6.91286e-06 8.47033e-22 0.001)
(6.1605e-06 -0 0.001)
(3.39e-06 4.23516e-22 0.001)
(7.15008e-06 8.47033e-22 0.001)
(2.78029e-06 2.11758e-22 0.001)
(5.13793e-06 -0 0.001)
(7.53385e-06 8.47033e-22 0.001)
(-1.91346e-06 -0 0.001)
(5.19349e-06 -0 0.001)
(1.00217e-05 -0 0.001)
(5.89193e-06 4.23516e-22 0.001)
(3.85673e-06 -0 0.001)
(5.58507e-06 -0 0.001)
(4.28771e-06 -0 0.001)
(4.55873e-06 -4.23516e-22 0.001)
(6.73106e-06 -0 0.001)
(4.0268e-06 -4.23516e-22 0.001)
(3.76689e-06 -0 0.001)
(9.05195e-06 -8.47033e-22 0.001)
(-9.1418e-06 -8.47033e-22 0.001)
(7.70301e-06 -0 0.001)
(1.42514e-05 -0 0.001)
(4.49583e-06 -0 0.001)
(5.50884e-06 -0 0.001)
(4.22039e-06 -0 0.001)
(5.67694e-06 -0 0.001)
(4.28165e-06 4.23516e-22 0.001)
(5.4446e-06 -0 0.001)
(5.00944e-06 -0 0.001)
(4.71787e-06 -4.23516e-22 0.001)
(2.52262e-06 -0 0.001)
(8.40459e-06 -0 0.001)
(3.73229e-06 4.23516e-22 0.001)
(6.16907e-06 -0 0.001)
(4.24516e-06 -0 0.001)
(4.95813e-06 -0 0.001)
(5.32031e-06 -4.23516e-22 0.001)
(4.2826e-06 -0 0.001)
(4.27202e-06 -0 0.001)
(7.09833e-06 -0 0.001)
(3.64499e-06 4.23516e-22 0.001)
(5.88258e-06 -0 0.001)
(4.21935e-06 -4.23516e-22 0.001)
(5.6425e-06 -0 0.001)
(4.545e-06 -0 0.001)
(5.54742e-06 -0 0.001)
(4.37445e-06 4.23516e-22 0.001)
(5.46318e-06 -0 0.001)
(4.56395e-06 -0 0.001)
(5.51535e-06 -4.23516e-22 0.001)
(4.8164e-06 -0 0.001)
(4.92598e-06 -0 0.001)
(5.24314e-06 -0 0.001)
(3.65873e-06 -0 0.001)
(7.28834e-06 8.47033e-22 0.001)
(2.57241e-06 -0 0.001)
(7.59099e-06 8.47033e-22 0.001)
(2.66865e-06 -2.11758e-22 0.001)
(3.00355e-06 -0 0.001)
(3.69787e-06 -0 0.001)
(9.48633e-06 -8.47033e-22 0.001)
(4.84751e-06 -0 0.001)
(4.95267e-06 -4.23516e-22 0.001)
(5.49787e-06 -0 0.001)
(3.96772e-06 4.23516e-22 0.001)
(5.99127e-06 -0 0.001)
(4.31144e-06 4.23516e-22 0.001)
(5.71751e-06 -4.23516e-22 0.001)
(2.86837e-06 -0 0.001)
(8.15247e-06 -0 0.001)
(5.95259e-06 -0 0.001)
(-9.99773e-06 8.47033e-22 0.001)
(1.34125e-05 -0 0.001)
(8.8303e-06 -0 0.001)
(5.85661e-06 -0 0.001)
(4.01571e-06 -0 0.001)
(5.98899e-06 4.23516e-22 0.001)
(4.16379e-06 4.23516e-22 0.001)
(4.52564e-06 -0 0.001)
(6.60862e-06 8.47033e-22 0.001)
(3.27993e-06 -0 0.001)
(7.18555e-06 -0 0.001)
(2.40995e-06 -0 0.001)
(7.58103e-06 8.47033e-22 0.001)
(2.16586e-06 -2.11758e-22 0.001)
(8.39077e-06 -8.47033e-22 0.001)
(1.53786e-06 -0 0.001)
(8.23784e-06 -8.47033e-22 0.001)
(1.57915e-06 -2.11758e-22 0.001)
(8.40007e-06 -0 0.001)
(1.85971e-06 -0 0.001)
(4.16188e-06 -4.23516e-22 0.001)
(9.58492e-06 -0 0.001)
(7.30945e-07 -5.29396e-23 0.001)
(6.73736e-06 -0 0.001)
(9.5211e-06 -0 0.001)
(-8.27274e-06 8.47033e-22 0.001)
(5.63606e-06 -0 0.001)
(1.48248e-05 -0 0.001)
(2.35e-06 -0 0.001)
(7.62126e-06 -0 0.001)
(2.29977e-06 2.11758e-22 0.001)
(6.75199e-06 -8.47033e-22 0.001)
(4.39957e-06 4.23516e-22 0.001)
(5.30771e-06 4.23516e-22 0.001)
(4.685e-06 4.23516e-22 0.001)
(5.48392e-06 4.23516e-22 0.001)
(4.90802e-06 4.23516e-22 0.001)
(4.28706e-06 -0 0.001)
(5.78986e-06 4.23516e-22 0.001)
(2.16006e-06 2.11758e-22 0.001)
(7.67382e-06 -0 0.001)
(5.26696e-06 -0 0.001)
(4.13103e-06 4.23516e-22 0.001)
(5.80878e-06 4.23516e-22 0.001)
(4.60895e-06 -0 0.001)
(5.63678e-06 -0 0.001)
(1.54513e-06 -0 0.001)
(4.41399e-06 4.23516e-22 0.001)
(8.30382e-06 8.47033e-22 0.001)
(5.31195e-06 -0 0.001)
(4.93303e-06 -0 0.001)
(4.90833e-06 4.23516e-22 0.001)
(4.89428e-06 -0 0.001)
(5.48225e-06 -0 0.001)
(4.71307e-06 -0 0.001)
(5.12887e-06 -0 0.001)
(4.76527e-06 4.23516e-22 0.001)
(5.26898e-06 -4.23516e-22 0.001)
(4.83376e-06 4.23516e-22 0.001)
(4.82826e-06 -0 0.001)
(5.26657e-06 -0 0.001)
(4.99355e-06 -4.23516e-22 0.001)
(5.18245e-06 -0 0.001)
(4.60328e-06 -0 0.001)
(5.37074e-06 -0 0.001)
(4.2811e-06 -0 0.001)
(5.50798e-06 -4.23516e-22 0.001)
(4.82117e-06 -0 0.001)
(5.05857e-06 -4.23516e-22 0.001)
(5.25998e-06 -4.23516e-22 0.001)
(4.60047e-06 -0 0.001)
(5.60433e-06 4.23516e-22 0.001)
(3.50748e-06 4.23516e-22 0.001)
(6.88648e-06 -8.47033e-22 0.001)
(3.49947e-06 -0 0.001)
(6.69603e-06 -8.47033e-22 0.001)
(2.3377e-06 -0 0.001)
(8.40801e-06 -0 0.001)
(1.24466e-06 1.05879e-22 0.001)
(4.3893e-06 -0 0.001)
(8.76403e-06 -8.47033e-22 0.001)
(3.07413e-06 4.23516e-22 0.001)
(6.54818e-06 -8.47033e-22 0.001)
(3.26136e-06 -4.23516e-22 0.001)
(6.71035e-06 -0 0.001)
(3.57826e-06 -0 0.001)
(6.62824e-06 -0 0.001)
(3.01098e-06 -2.11758e-22 0.001)
(7.08765e-06 -0 0.001)
(3.28464e-06 -0 0.001)
(6.89977e-06 -8.47033e-22 0.001)
(2.55324e-06 -0 0.001)
(3.29103e-06 -4.23516e-22 0.001)
(8.87349e-06 -8.47033e-22 0.001)
(3.32787e-06 -0 0.001)
(6.2159e-06 -0 0.001)
(3.92616e-06 -0 0.001)
(6.16106e-06 8.47033e-22 0.001)
(3.88532e-06 -0 0.001)
(6.26611e-06 -8.47033e-22 0.001)
(4.02116e-06 -0 0.001)
(1.86519e-06 -0 0.001)
(4.35761e-06 -0 0.001)
(4.45267e-06 -0 0.001)
(4.48592e-06 -0 0.001)
(5.0479e-06 -0 0.001)
(4.85005e-06 -0 0.001)
(5.08715e-06 4.23516e-22 0.001)
(4.39375e-06 -0 0.001)
(4.41966e-06 4.23516e-22 0.001)
(-1.99534e-05 1.69407e-21 0.001)
(-2.04744e-05 -0 0.001)
(5e-06 -0 0.001)
(5e-06 -0 0.001)
(5e-06 -0 0.001)
)
;

boundaryField
{
    inlet
    {
        type            calculated;
        value           uniform (0 0 0);
    }
    outlet
    {
        type            calculated;
        value           uniform (0 0 0);
    }
    sideWall
    {
        type            empty;
    }
}


// ************************************************************************* //
