/*--------------------------------*- C++ -*----------------------------------*\
| =========                 |                                                 |
| \\      /  F ield         | foam-extend: Open Source CFD                    |
|  \\    /   O peration     | Version:     3.2                                |
|   \\  /    A nd           | Web:         http://www.foam-extend.org         |
|    \\/     M anipulation  | For copyright notice see file Copyright         |
\*---------------------------------------------------------------------------*/
FoamFile
{
    version     2.0;
    format      ascii;
    class       areaScalarField;
    location    "50";
    object      Pva;
}
// * * * * * * * * * * * * * * * * * * * * * * * * * * * * * * * * * * * * * //

dimensions      [0 0 0 0 0 0 0];

internalField   nonuniform List<scalar> 
300
(
0.222222
0.222222
0.222222
0.222222
0.222222
0.222222
0.222222
0.222222
0.222222
0.222222
0.222222
0.222222
0.222222
0.222222
0.222222
0.222222
0.222222
0.222222
0.222222
0.222222
0.222222
0.222222
0.222222
0.222222
0.222222
0.222222
0.222222
0.222222
0.222222
0.222222
0.222222
0.222222
0.222222
0.222222
0.222222
0.222222
0.222222
0.222222
0.222222
0.222222
0.222222
0.222222
0.222222
0.222222
0.222222
0.222222
0.222222
0.222222
0.222222
0.222222
0.222222
0.222222
0.222222
0.222222
0.222222
0.222222
0.222222
0.222222
0.222222
0.222222
0.417231
0.572097
0.652151
0.664005
0.67521
0.672685
0.677537
0.671213
0.67652
0.66205
0.412897
0.262633
0.312518
0.232317
0.299799
0.369322
0.280845
0.46538
0.315668
0.579726
0.365726
0.729814
0.356046
0.628396
0.687281
0.63509
0.54349
0.715635
0.683511
0.673683
0.616121
0.527096
0.45218
0.694037
0.593485
0.465365
0.585143
0.543795
0.491503
0.627183
0.594675
0.724398
0.490671
0.284641
0.680889
0.716333
0.60947
0.513735
0.528101
0.348777
0.733483
0.630525
0.732234
0.637745
0.687285
0.502083
0.559527
0.429976
0.538769
0.624894
0.290009
0.750923
0.664366
0.699715
0.328328
0.70821
0.438118
0.547764
0.673273
0.342664
0.543852
0.676477
0.535815
0.623213
0.725178
0.592797
0.477362
0.533907
0.399244
0.488272
0.495725
0.559403
0.375164
0.682908
0.681342
0.679377
0.518536
0.623471
0.349142
0.678004
0.352671
0.647028
0.659144
0.680606
0.450101
0.554321
0.458461
0.523538
0.507135
0.457436
0.557061
0.40621
0.508636
0.557018
0.504108
0.620795
0.445792
0.732096
0.400371
0.534516
0.511507
0.338532
0.753433
0.643288
0.698738
0.324034
0.671874
0.434972
0.558189
0.481864
0.631039
0.621172
0.689763
0.532464
0.287823
0.692528
0.690138
0.604275
0.451265
0.473413
0.48921
0.408636
0.723523
0.290501
0.650726
0.383198
0.702326
0.382515
0.705521
0.399987
0.650445
0.478613
0.514417
0.514045
0.364757
0.734257
0.263192
0.675482
0.614742
0.398199
0.658021
0.725933
0.581169
0.407548
0.515782
0.383884
0.661783
0.320031
0.620932
0.419436
0.542613
0.550552
0.639656
0.518995
0.624945
0.687248
0.416196
0.625668
0.412278
0.522773
0.447808
0.743324
0.661731
0.683795
0.56582
0.563902
0.457056
0.483144
0.443972
0.436782
0.456374
0.435577
0.510338
0.404562
0.582703
0.396501
0.586592
0.434081
0.57468
0.512721
0.499625
0.561884
0.475525
0.62477
0.42776
0.667252
0.33995
0.707991
0.325414
0.664684
0.408504
0.729403
0.358151
0.634127
0.655974
0.669359
0.594017
0.469523
0.557619
0.414894
0.628392
0.378565
0.557705
0.370932
0.609656
0.326809
0.57863
0.672412
0.676203
0.417421
0.573456
0.398118
0.553042
0.417674
0.511433
0.425382
0.718873
0.698319
0.686914
0.689483
0.684244
0.69327
0.683538
0.699458
0.681896
0.580494
0.222222
0.222222
0.222222
0.222222
)
;

boundaryField
{
    inlet
    {
        type            calculated;
        value           uniform 0;
    }
    outlet
    {
        type            calculated;
        value           uniform 0;
    }
    sideWall
    {
        type            empty;
    }
}


// ************************************************************************* //
