/*--------------------------------*- C++ -*----------------------------------*\
| =========                 |                                                 |
| \\      /  F ield         | foam-extend: Open Source CFD                    |
|  \\    /   O peration     | Version:     3.2                                |
|   \\  /    A nd           | Web:         http://www.foam-extend.org         |
|    \\/     M anipulation  | For copyright notice see file Copyright         |
\*---------------------------------------------------------------------------*/
FoamFile
{
    version     2.0;
    format      ascii;
    class       areaScalarField;
    location    "50";
    object      Pvc;
}
// * * * * * * * * * * * * * * * * * * * * * * * * * * * * * * * * * * * * * //

dimensions      [0 0 0 0 0 0 0];

internalField   nonuniform List<scalar> 
300
(
0.777778
0.777778
0.777778
0.777778
0.777778
0.777778
0.777778
0.777778
0.777778
0.777778
0.777778
0.777778
0.777778
0.777778
0.777778
0.777778
0.777778
0.777778
0.777778
0.777778
0.777778
0.777778
0.777778
0.777778
0.777778
0.777778
0.777778
0.777778
0.777778
0.777778
0.777778
0.777778
0.777778
0.777778
0.777778
0.777778
0.777778
0.777778
0.777778
0.777778
0.777778
0.777778
0.777778
0.777778
0.777778
0.777778
0.777778
0.777778
0.777778
0.777778
0.777778
0.777778
0.777778
0.777778
0.777778
0.777778
0.777778
0.777778
0.777778
0.777778
0.582769
0.427903
0.347849
0.335995
0.32479
0.327315
0.322463
0.328787
0.32348
0.33795
0.587103
0.737367
0.687482
0.767683
0.700201
0.630678
0.719155
0.53462
0.684332
0.420274
0.634274
0.270186
0.643954
0.371604
0.312719
0.36491
0.45651
0.284365
0.316489
0.326317
0.383879
0.472904
0.54782
0.305963
0.406515
0.534635
0.414857
0.456205
0.508497
0.372817
0.405325
0.275602
0.509329
0.715359
0.319111
0.283667
0.39053
0.486265
0.471899
0.651223
0.266517
0.369475
0.267766
0.362255
0.312715
0.497917
0.440473
0.570024
0.461231
0.375106
0.709991
0.249077
0.335634
0.300285
0.671672
0.29179
0.561882
0.452236
0.326727
0.657336
0.456148
0.323523
0.464185
0.376787
0.274822
0.407203
0.522638
0.466093
0.600756
0.511728
0.504275
0.440597
0.624836
0.317092
0.318658
0.320623
0.481464
0.376529
0.650858
0.321996
0.647329
0.352972
0.340856
0.319394
0.549899
0.445679
0.541539
0.476462
0.492865
0.542564
0.442939
0.59379
0.491364
0.442982
0.495892
0.379205
0.554208
0.267904
0.599629
0.465484
0.488493
0.661468
0.246567
0.356712
0.301262
0.675966
0.328126
0.565028
0.441811
0.518136
0.368961
0.378828
0.310237
0.467536
0.712177
0.307472
0.309862
0.395725
0.548735
0.526587
0.51079
0.591364
0.276477
0.709499
0.349274
0.616802
0.297674
0.617485
0.294479
0.600013
0.349555
0.521387
0.485583
0.485955
0.635243
0.265743
0.736808
0.324518
0.385258
0.601801
0.341979
0.274067
0.418831
0.592452
0.484218
0.616116
0.338217
0.679969
0.379068
0.580564
0.457387
0.449448
0.360344
0.481005
0.375055
0.312752
0.583804
0.374332
0.587722
0.477227
0.552192
0.256676
0.338269
0.316205
0.43418
0.436098
0.542944
0.516856
0.556028
0.563218
0.543626
0.564423
0.489662
0.595438
0.417297
0.603499
0.413408
0.565919
0.42532
0.487279
0.500375
0.438116
0.524475
0.37523
0.57224
0.332748
0.66005
0.292009
0.674586
0.335316
0.591496
0.270597
0.641849
0.365873
0.344026
0.330641
0.405983
0.530477
0.442381
0.585106
0.371608
0.621435
0.442295
0.629068
0.390344
0.673191
0.42137
0.327588
0.323797
0.582579
0.426544
0.601882
0.446958
0.582326
0.488567
0.574618
0.281127
0.301681
0.313086
0.310517
0.315756
0.30673
0.316462
0.300542
0.318104
0.419506
0.777778
0.777778
0.777778
0.777778
)
;

boundaryField
{
    inlet
    {
        type            calculated;
        value           uniform 0;
    }
    outlet
    {
        type            calculated;
        value           uniform 0;
    }
    sideWall
    {
        type            empty;
    }
}


// ************************************************************************* //
