/*--------------------------------*- C++ -*----------------------------------*\
| =========                 |                                                 |
| \\      /  F ield         | foam-extend: Open Source CFD                    |
|  \\    /   O peration     | Version:     3.2                                |
|   \\  /    A nd           | Web:         http://www.foam-extend.org         |
|    \\/     M anipulation  | For copyright notice see file Copyright         |
\*---------------------------------------------------------------------------*/
FoamFile
{
    version     2.0;
    format      ascii;
    class       edgeScalarField;
    location    "50";
    object      q_f;
}
// * * * * * * * * * * * * * * * * * * * * * * * * * * * * * * * * * * * * * //

dimensions      [0 3 -1 0 0 0 0];

internalField   nonuniform List<scalar> 
299
(
9.27086e-06
6.82966e-06
5.84016e-06
5.74381e-06
5.63719e-06
5.58244e-06
5.52699e-06
5.50532e-06
5.49352e-06
5.50232e-06
5.51637e-06
5.54107e-06
5.57313e-06
5.61108e-06
5.65257e-06
5.69907e-06
5.74866e-06
5.80062e-06
5.85448e-06
5.91196e-06
5.97159e-06
6.03269e-06
6.09465e-06
6.15682e-06
6.21943e-06
6.28031e-06
6.33531e-06
6.38246e-06
6.42193e-06
6.45479e-06
6.48202e-06
6.5046e-06
6.52329e-06
6.53879e-06
6.55162e-06
6.56231e-06
6.57119e-06
6.57864e-06
6.58484e-06
6.59011e-06
6.59451e-06
6.59831e-06
6.60149e-06
6.60429e-06
6.60659e-06
6.60863e-06
6.6102e-06
6.61201e-06
6.6128e-06
6.61474e-06
6.61426e-06
6.61711e-06
6.61418e-06
6.62042e-06
6.6115e-06
6.62722e-06
6.60635e-06
6.66517e-06
6.08038e-06
3.51351e-06
1.26101e-06
9.09006e-07
9.12907e-07
9.22078e-07
9.45142e-07
9.47851e-07
9.51429e-07
9.42275e-07
2.94813e-06
3.72899e-06
2.55528e-06
2.60698e-06
2.63177e-06
2.63516e-06
2.64481e-06
2.64646e-06
2.66032e-06
3.85309e-06
5.10205e-06
3.85057e-06
3.88858e-06
3.93829e-06
2.53451e-06
1.91215e-06
1.84161e-06
1.69644e-06
1.06795e-06
3.15757e-06
5.17269e-06
3.78512e-06
2.55736e-06
2.55982e-06
1.79272e-06
9.96159e-07
1.72651e-06
3.75859e-06
3.80012e-06
2.57138e-06
2.5922e-06
3.77637e-06
5.06293e-06
5.17731e-06
3.50739e-06
1.96933e-06
2.16054e-06
3.42461e-06
4.71225e-06
3.72101e-06
2.52412e-06
1.75314e-06
3.02575e-06
5.06351e-06
5.08427e-06
5.02774e-06
3.71631e-06
3.73962e-06
3.80012e-06
2.51957e-06
3.82539e-06
3.78268e-06
1.75382e-06
3.27286e-06
5.16083e-06
3.66947e-06
2.52303e-06
1.75916e-06
2.93094e-06
4.99998e-06
5.04098e-06
3.72657e-06
3.85283e-06
3.75411e-06
1.77022e-06
3.58364e-06
5.2449e-06
3.55762e-06
2.50018e-06
2.53472e-06
2.54518e-06
2.55494e-06
3.78577e-06
3.79518e-06
3.73408e-06
2.99814e-06
1.04143e-06
1.72211e-06
2.52999e-06
2.53764e-06
1.71283e-06
1.72582e-06
3.71699e-06
5.00136e-06
4.98572e-06
3.68357e-06
3.7312e-06
4.96454e-06
4.96967e-06
3.75844e-06
2.53509e-06
2.53761e-06
3.75542e-06
4.96611e-06
4.9811e-06
3.75109e-06
2.55074e-06
2.53401e-06
3.81074e-06
3.79839e-06
3.72203e-06
3.77841e-06
2.50824e-06
3.799e-06
3.18459e-06
1.13676e-06
1.70727e-06
2.50174e-06
2.54864e-06
1.712e-06
2.94171e-06
3.72701e-06
2.55567e-06
1.75531e-06
3.05328e-06
3.58698e-06
1.82162e-06
1.72391e-06
3.22062e-06
3.59963e-06
2.50284e-06
2.52623e-06
2.51348e-06
3.78931e-06
3.74915e-06
3.71703e-06
3.73802e-06
2.50086e-06
2.51241e-06
1.68714e-06
1.70686e-06
2.51296e-06
2.53876e-06
3.72048e-06
4.99549e-06
3.70707e-06
3.83111e-06
5.03533e-06
3.60248e-06
3.86362e-06
3.71075e-06
3.65753e-06
5.5198e-06
5.20733e-06
3.51148e-06
2.49887e-06
2.49503e-06
3.76284e-06
3.75174e-06
1.68617e-06
2.93724e-06
3.77062e-06
2.54572e-06
3.79235e-06
4.99302e-06
5.02487e-06
3.12305e-06
1.75519e-06
1.69438e-06
2.9643e-06
3.7613e-06
2.52029e-06
1.71557e-06
1.10918e-06
3.09461e-06
3.67424e-06
2.50743e-06
2.56618e-06
3.76108e-06
3.75266e-06
2.53252e-06
2.52515e-06
2.50925e-06
2.5218e-06
2.52156e-06
1.71127e-06
1.70843e-06
2.51616e-06
2.52187e-06
2.51455e-06
2.515e-06
3.73804e-06
4.98513e-06
3.77536e-06
3.79826e-06
3.77516e-06
2.55721e-06
2.54223e-06
1.73236e-06
2.94922e-06
3.74577e-06
2.53211e-06
3.74227e-06
3.78935e-06
3.69275e-06
3.0549e-06
1.06428e-06
1.68233e-06
2.50423e-06
3.71813e-06
4.94577e-06
3.74069e-06
2.5011e-06
2.47789e-06
2.5111e-06
2.50379e-06
2.54628e-06
2.50978e-06
3.85407e-06
5.07879e-06
3.66863e-06
3.72366e-06
3.74288e-06
2.54467e-06
2.54046e-06
2.53858e-06
2.50063e-06
1.76617e-06
1.14593e-06
3.10353e-06
5.05963e-06
5.08349e-06
5.1024e-06
5.08669e-06
5.10827e-06
5.06263e-06
5.15849e-06
6.4368e-06
7.28463e-06
6.73149e-06
6.47916e-06
)
;

boundaryField
{
    inlet
    {
        type            calculated;
        value           uniform -1.04564e-05;
    }
    outlet
    {
        type            calculated;
        value           uniform 6.37468e-06;
    }
    sideWall
    {
        type            empty;
    }
}


// ************************************************************************* //
