/*--------------------------------*- C++ -*----------------------------------*\
| =========                 |                                                 |
| \\      /  F ield         | foam-extend: Open Source CFD                    |
|  \\    /   O peration     | Version:     3.2                                |
|   \\  /    A nd           | Web:         http://www.foam-extend.org         |
|    \\/     M anipulation  | For copyright notice see file Copyright         |
\*---------------------------------------------------------------------------*/
FoamFile
{
    version     2.0;
    format      ascii;
    class       areaScalarField;
    location    "50";
    object      SSd1;
}
// * * * * * * * * * * * * * * * * * * * * * * * * * * * * * * * * * * * * * //

dimensions      [0 1 -2 -1 0 0 0];

internalField   nonuniform List<scalar> 
300
(
0.000358822
0.000358822
0.000358822
0.000358822
0.000358822
0.000358822
0.000358822
0.000358822
0.000358822
0.000358822
0.000358822
0.000358822
0.000358822
0.000358822
0.000358822
0.000358822
0.000358822
0.000358822
0.000358822
0.000358822
0.000358822
0.000358822
0.000358822
0.000358822
0.000358822
0.000358822
0.000358822
0.000358822
0.000358822
0.000358822
0.000358822
0.000358822
0.000358822
0.000358822
0.000358822
0.000358822
0.000358822
0.000358822
0.000358822
0.000358822
0.000358822
0.000358822
0.000358822
0.000358822
0.000358822
0.000358822
0.000358822
0.000358822
0.000358822
0.000358822
0.000358822
0.000358822
0.000358822
0.000358822
0.000358822
0.000358822
0.000358822
0.000358822
0.000358822
0.000358821
0.000359732
0.000360186
0.000360332
0.000360379
0.000360363
0.000360363
0.000360346
0.000360322
0.000360342
0.000354626
0.000361467
0.000355066
0.000362805
0.00036492
0.000354137
0.000355573
0.000368899
0.00036177
0.000351562
0.000359599
0.000352178
0.000357559
0.000359269
0.000348959
0.000359676
0.000353107
0.000366785
0.000353954
0.000368805
0.000352184
0.000364663
0.000362108
0.000361973
0.000355498
0.000370867
0.000362574
0.000347427
0.000358838
0.000352978
0.000359065
0.000361009
0.000352562
0.000368902
0.000343581
0.000355615
0.000349989
0.000356901
0.000355511
0.000356531
0.000361967
0.00036307
0.000357443
0.000354981
0.000357105
0.000355981
0.000352858
0.000366361
0.000347064
0.000361723
0.00036345
0.000346513
0.000360258
0.000354881
0.000352767
0.000355097
0.000357908
0.000364577
0.00035205
0.000357179
0.000358208
0.000339837
0.000364754
0.00034145
0.000358905
0.00035263
0.000353015
0.000359234
0.00035797
0.000364141
0.000360874
0.000352082
0.000359142
0.000351024
0.000356132
0.000357189
0.000360527
0.000351731
0.000356315
0.000362663
0.000363721
0.00035112
0.0003614
0.000358301
0.000357352
0.00035483
0.000359637
0.000352119
0.000357207
0.000351807
0.000354189
0.000354956
0.000358971
0.000349645
0.000355476
0.000350283
0.000360859
0.000350427
0.000358203
0.000359736
0.000355036
0.000356911
0.000356835
0.000355923
0.000352859
0.000360282
0.000351102
0.000354198
0.000353005
0.000369643
0.000350923
0.000348023
0.000358193
0.000356521
0.000374979
0.000346531
0.000359818
0.000350716
0.000363251
0.00035672
0.000357526
0.000356739
0.000355214
0.000357523
0.000360905
0.000353737
0.000354528
0.000359264
0.000350925
0.000359825
0.000348623
0.000367391
0.000360475
0.000357963
0.000356853
0.000354949
0.000358358
0.000353318
0.000340868
0.00036447
0.000344546
0.00035504
0.000350465
0.000356016
0.000360421
0.000363283
0.000353107
0.000356268
0.000349616
0.000356597
0.000346174
0.000359688
0.000350342
0.000355178
0.000350501
0.00035982
0.000357715
0.000364222
0.000355895
0.000354858
0.000353389
0.000361285
0.000358498
0.000357501
0.000357957
0.000352
0.000353595
0.000363768
0.000351199
0.000355744
0.000362094
0.00035988
0.000358562
0.000362706
0.000355042
0.000360741
0.000350551
0.000354552
0.000362148
0.000357406
0.000359781
0.000364148
0.000346549
0.000354912
0.000356871
0.000355293
0.000355119
0.000359929
0.000363351
0.000351525
0.000349351
0.000360478
0.000356289
0.000359193
0.000359594
0.000354658
0.000362881
0.00036191
0.00036855
0.000359734
0.000351746
0.000351337
0.000363797
0.000359812
0.000355261
0.000350071
0.000368051
0.000359904
0.00035914
0.00035465
0.000361829
0.000355564
0.000353311
0.000356922
0.000357879
0.00035604
0.000364043
0.000359947
0.000359986
0.000356447
0.000356722
0.000356772
0.000356805
0.00035692
0.000356938
0.000357031
0.000357827
0.00035907
0.000359091
0.000359131
0.000359171
)
;

boundaryField
{
    inlet
    {
        type            calculated;
        value           uniform 0;
    }
    outlet
    {
        type            calculated;
        value           uniform 0;
    }
    sideWall
    {
        type            empty;
    }
}


// ************************************************************************* //
