/*--------------------------------*- C++ -*----------------------------------*\
| =========                 |                                                 |
| \\      /  F ield         | foam-extend: Open Source CFD                    |
|  \\    /   O peration     | Version:     3.2                                |
|   \\  /    A nd           | Web:         http://www.foam-extend.org         |
|    \\/     M anipulation  | For copyright notice see file Copyright         |
\*---------------------------------------------------------------------------*/
FoamFile
{
    version     2.0;
    format      ascii;
    class       areaScalarField;
    location    "50";
    object      SSe1;
}
// * * * * * * * * * * * * * * * * * * * * * * * * * * * * * * * * * * * * * //

dimensions      [0 1 -2 -1 0 0 0];

internalField   nonuniform List<scalar> 
300
(
0.00608998
0.00310876
0.00198119
0.00198823
0.00189818
0.00189625
0.00185248
0.00185003
0.00183468
0.00184032
0.00184189
0.00185188
0.00186226
0.0018785
0.00189398
0.00191348
0.00193353
0.00195611
0.00197867
0.00200345
0.00202982
0.0020572
0.00208564
0.00211461
0.00214406
0.00217431
0.00220294
0.00222823
0.00224972
0.00226781
0.00228296
0.00229556
0.00230611
0.00231481
0.00232216
0.00232814
0.00233329
0.00233741
0.00234109
0.00234391
0.00234662
0.00234853
0.00235061
0.00235188
0.00235356
0.00235431
0.00235571
0.00235593
0.00235758
0.00235677
0.00235963
0.00235626
0.00236264
0.00235318
0.00236925
0.0023438
0.00238601
0.00232201
0.00244978
0.000485282
6.34871e-05
3.96542e-05
3.56942e-05
3.47685e-05
3.46674e-05
3.4613e-05
3.46929e-05
3.46554e-05
3.48392e-05
0.000691931
0.00014728
0.000188792
0.000177329
0.000199915
0.00018143
0.000163594
0.000186736
0.000142126
0.00145915
0.000944595
0.000155562
0.000658935
0.000148281
0.000104181
3.82936e-05
8.07488e-05
5.55728e-05
3.09531e-05
0.000785505
0.000633696
9.8765e-05
0.000119567
0.000141491
3.44409e-05
4.09928e-05
0.000139679
0.00086545
0.000119696
0.000124778
0.000101363
0.00083018
0.000701674
0.000919018
0.000167115
4.16286e-05
4.41191e-05
0.000612197
0.00100842
0.000117802
0.000166294
3.02272e-05
0.000795644
0.000607263
0.000768347
0.000633435
0.000119624
0.000980396
0.000137927
0.000121164
0.00082606
0.000162362
3.07997e-05
0.0007806
0.000555913
0.00016187
7.72184e-05
5.79409e-05
0.000965723
0.000708487
0.0013476
0.000114487
0.000752812
9.81764e-05
4.18044e-05
0.000662711
0.000651387
0.000131382
0.000115722
0.000154813
0.000127253
0.00013038
0.000923776
0.00015926
0.000657091
3.8486e-05
3.17516e-05
0.000123208
9.33445e-05
0.000165004
3.40028e-05
0.000160778
0.000743463
0.000744463
0.00062434
0.000140934
0.000915283
0.00114656
0.000985208
0.000124778
0.000134821
0.000112719
0.00122872
0.00103065
0.000921251
0.000123582
9.72301e-05
0.000135572
0.000604146
0.00013876
0.00104088
0.000115431
0.000173187
0.000558339
4.43378e-05
2.99083e-05
0.000163699
8.40909e-05
0.000137984
4.78575e-05
0.00104624
9.36909e-05
9.48891e-05
3.44011e-05
0.000955221
0.000150539
3.69796e-05
3.79832e-05
0.000705704
0.000135378
0.000133011
0.000127006
0.000147736
0.000606523
0.000163433
0.00077836
0.000141738
8.12088e-05
0.000141492
3.36058e-05
0.000136394
9.67934e-05
0.00012061
0.00109605
0.000957381
0.000164934
0.000610068
0.00131974
8.8884e-05
0.000825764
0.000122233
0.000670553
0.000683628
0.000640828
0.000156079
0.00011372
0.000162261
0.000688054
0.000168647
3.94522e-05
0.00120687
0.000114968
0.000111682
0.000784234
0.000963721
0.000871357
3.27867e-05
0.000141176
4.07157e-05
0.00119686
0.00012154
0.000134292
3.0024e-05
4.13961e-05
0.000604427
0.000104998
0.000111053
0.000136705
0.0010817
0.000137379
0.000142329
0.000134923
0.000141306
0.00012194
0.000148866
4.37143e-05
0.00014907
0.000103585
0.000140686
0.000107392
0.000120772
0.00106351
0.00091276
0.000132531
0.000797404
0.000141328
8.61071e-05
0.000160395
3.2703e-05
0.00132467
8.85784e-05
0.000140106
0.000607586
0.000149575
0.00080851
4.20797e-05
3.07707e-05
0.00010679
0.000126662
0.000962092
0.00116555
9.6908e-05
0.000147137
0.000115765
0.000149887
0.000101081
0.000164806
0.000109344
0.000770555
0.000604537
0.000150438
0.000865813
0.00015449
0.000110138
0.000149213
0.000119987
0.00014415
3.45279e-05
3.6334e-05
0.000671385
0.000677868
0.000673514
0.000668723
0.000669033
0.000668173
0.000668618
0.000656773
0.00193396
0.00258807
0.00222093
0.00230968
)
;

boundaryField
{
    inlet
    {
        type            calculated;
        value           uniform 0;
    }
    outlet
    {
        type            calculated;
        value           uniform 0;
    }
    sideWall
    {
        type            empty;
    }
}


// ************************************************************************* //
