/*--------------------------------*- C++ -*----------------------------------*\
| =========                 |                                                 |
| \\      /  F ield         | foam-extend: Open Source CFD                    |
|  \\    /   O peration     | Version:     3.2                                |
|   \\  /    A nd           | Web:         http://www.foam-extend.org         |
|    \\/     M anipulation  | For copyright notice see file Copyright         |
\*---------------------------------------------------------------------------*/
FoamFile
{
    version     2.0;
    format      ascii;
    class       areaScalarField;
    location    "50";
    object      tau;
}
// * * * * * * * * * * * * * * * * * * * * * * * * * * * * * * * * * * * * * //

dimensions      [1 1 2 0 0 0 0];

internalField   nonuniform List<scalar> 
300
(
10.1082
6.46969
4.80075
4.81202
4.66673
4.66359
4.59212
4.58809
4.56289
4.57217
4.57474
4.59113
4.60815
4.63468
4.6599
4.69158
4.72404
4.76045
4.79671
4.83636
4.87839
4.92182
4.96674
5.01229
5.05838
5.10551
5.1499
5.18896
5.22203
5.24979
5.27298
5.29222
5.30832
5.32157
5.33274
5.34184
5.34966
5.35591
5.36148
5.36577
5.36987
5.37277
5.37592
5.37784
5.38038
5.38152
5.38363
5.38402
5.38652
5.38529
5.38962
5.38453
5.39417
5.37986
5.40416
5.36565
5.42945
5.33257
5.52526
5.15668
3.75848
3.86248
4.14908
4.14088
4.23541
4.20345
4.24672
4.21385
4.23322
4.22265
4.21601
4.27227
4.28741
4.3091
4.29463
4.32259
4.30043
4.34761
4.2804
4.39437
4.2152
4.44352
4.27138
4.19675
4.56028
4.08013
4.40192
4.31585
4.44663
4.32628
4.20147
4.30205
4.20284
4.38048
4.20292
4.26139
4.24394
4.31431
4.2099
4.34858
4.18855
4.44486
4.31821
3.81176
4.89074
4.7692
3.97707
4.19195
4.2527
4.20448
4.3081
4.28832
4.32743
4.3054
4.24826
4.16793
4.27957
4.24731
4.19
4.36974
4.11836
4.37588
4.53355
4.184
4.16009
4.28269
4.22311
4.22495
4.28627
4.27053
4.15041
4.43406
3.99982
4.46155
4.82141
4.01314
4.18585
4.21582
4.23411
4.23074
4.24717
4.2505
4.2556
4.17013
4.35964
4.22468
4.18328
4.25317
4.19151
4.24325
4.20501
4.18632
4.28704
4.16076
4.18146
4.22095
4.19655
4.22457
4.20719
4.2206
4.21007
4.21495
4.19357
4.23232
4.1821
4.26643
4.15921
4.33567
4.13533
4.23497
4.20927
4.17348
4.30053
4.36494
4.21928
4.10817
4.26679
4.17064
4.2535
4.181
4.20013
4.25299
4.20742
4.35015
3.82738
4.70989
4.56398
4.01597
4.22091
4.16665
4.2501
4.14682
4.31702
4.08317
4.27536
4.11064
4.26722
4.1262
4.26786
4.15177
4.24641
4.18973
4.18974
4.26177
4.09624
4.42254
4.06916
4.15903
4.398
3.92222
4.3493
4.78037
3.92402
4.16923
4.19439
4.16406
4.24989
4.14281
4.23262
4.17677
4.24782
4.18007
4.27806
4.14676
4.3129
4.31702
4.13034
4.27404
4.19286
4.22751
4.1681
4.22267
4.40277
4.17203
4.1332
4.2481
4.21571
4.20927
4.20108
4.21311
4.19087
4.19114
4.20888
4.19183
4.22076
4.18676
4.20801
4.19873
4.20372
4.20245
4.21135
4.23683
4.21991
4.26295
4.18596
4.27052
4.16399
4.29578
4.1602
4.25386
4.1622
4.22965
4.21967
4.10729
4.46288
4.09887
4.21362
4.17466
4.20576
4.18874
4.22395
4.15701
4.19573
4.20165
4.1854
4.26404
4.14173
4.43107
4.14087
4.1809
4.20974
4.2041
4.2363
4.19675
4.23368
4.14878
4.33486
4.3215
4.24777
4.30045
4.27281
4.32163
4.25035
4.34635
4.18953
4.49328
6.14382
5.72659
5.17796
5.3138
)
;

boundaryField
{
    inlet
    {
        type            calculated;
        value           uniform 0;
    }
    outlet
    {
        type            calculated;
        value           uniform 0;
    }
    sideWall
    {
        type            empty;
    }
}


// ************************************************************************* //
