/*--------------------------------*- C++ -*----------------------------------*\
| =========                 |                                                 |
| \\      /  F ield         | foam-extend: Open Source CFD                    |
|  \\    /   O peration     | Version:     3.2                                |
|   \\  /    A nd           | Web:         http://www.foam-extend.org         |
|    \\/     M anipulation  | For copyright notice see file Copyright         |
\*---------------------------------------------------------------------------*/
FoamFile
{
    version     2.0;
    format      ascii;
    class       areaScalarField;
    location    "50";
    object      tauCSS2;
}
// * * * * * * * * * * * * * * * * * * * * * * * * * * * * * * * * * * * * * //

dimensions      [1 1 2 0 0 0 0];

internalField   nonuniform List<scalar> 
300
(
0.0552126
0.0552126
0.0552126
0.0552126
0.0552126
0.0552126
0.0552126
0.0552126
0.0552126
0.0552126
0.0552126
0.0552126
0.0552126
0.0552126
0.0552126
0.0552126
0.0552126
0.0552126
0.0552126
0.0552126
0.0552126
0.0552126
0.0552126
0.0552126
0.0552126
0.0552126
0.0552126
0.0552126
0.0552126
0.0552126
0.0552126
0.0552126
0.0552126
0.0552126
0.0552126
0.0552126
0.0552126
0.0552126
0.0552126
0.0552126
0.0552126
0.0552126
0.0552126
0.0552126
0.0552126
0.0552126
0.0552126
0.0552126
0.0552126
0.0552126
0.0552126
0.0552126
0.0552126
0.0552126
0.0552126
0.0552126
0.0552126
0.0552126
0.0552126
0.112555
0.242278
0.343581
0.371897
0.379467
0.380914
0.381689
0.381602
0.382015
0.382018
0.0551235
0.220828
0.220825
0.220852
0.220877
0.22088
0.220749
0.22088
0.220975
0.0551972
0.055244
0.220497
0.0554676
0.219174
0.222432
0.375685
0.219689
0.388454
0.378543
0.0555215
0.0547685
0.221268
0.220478
0.221312
0.382616
0.385411
0.221171
0.0551644
0.220958
0.220534
0.221289
0.0551699
0.0556048
0.0544587
0.222017
0.350795
0.30808
0.0543857
0.0552125
0.220556
0.221144
0.382782
0.0552228
0.0553571
0.0551451
0.0550482
0.220452
0.0553508
0.220111
0.221612
0.0552008
0.219979
0.379738
0.055196
0.0547807
0.220544
0.221243
0.385876
0.0552738
0.0552505
0.0550639
0.221185
0.0553185
0.219457
0.368666
0.0549803
0.0544158
0.221024
0.220676
0.221118
0.220618
0.221097
0.0551744
0.220847
0.0552368
0.379764
0.378998
0.221286
0.220449
0.22111
0.385883
0.22074
0.0552742
0.0552751
0.0550323
0.221316
0.0551368
0.0552796
0.0551574
0.221007
0.220662
0.221065
0.0551728
0.0552501
0.0551684
0.220914
0.220876
0.220767
0.0553278
0.220064
0.0554209
0.21996
0.221651
0.055384
0.36595
0.371901
0.220903
0.220867
0.220679
0.386977
0.0551275
0.221087
0.220604
0.384342
0.0549416
0.220523
0.365289
0.333322
0.0548833
0.220556
0.221188
0.220511
0.221138
0.0552533
0.220298
0.0553603
0.220099
0.221739
0.219963
0.387596
0.219684
0.222038
0.219737
0.0555061
0.0549203
0.221928
0.0552846
0.0548183
0.222315
0.0550633
0.219295
0.0563476
0.055158
0.0543663
0.22176
0.219949
0.221777
0.0550621
0.221057
0.386233
0.0552397
0.220684
0.220882
0.0552738
0.0551448
0.0554563
0.37785
0.220759
0.386788
0.0551431
0.220985
0.220632
0.381831
0.368316
0.0549286
0.220743
0.220873
0.220882
0.0552217
0.220685
0.220949
0.220806
0.220931
0.220758
0.220908
0.386585
0.220759
0.220853
0.220788
0.220987
0.220723
0.0552743
0.055169
0.220912
0.0552076
0.220761
0.220988
0.220643
0.385726
0.0550505
0.221366
0.220268
0.0554411
0.219679
0.0555347
0.373617
0.380238
0.221512
0.220318
0.0553618
0.0550657
0.221339
0.220291
0.221533
0.220133
0.221439
0.220197
0.22169
0.0553593
0.0548796
0.221425
0.0551082
0.221219
0.220451
0.221233
0.220415
0.221187
0.377995
0.365487
0.0552596
0.0552568
0.0552085
0.0552255
0.0552051
0.0552647
0.0552624
0.057338
0.0573819
0.0552126
0.0552126
0.0552126
)
;

boundaryField
{
    inlet
    {
        type            calculated;
        value           uniform 0;
    }
    outlet
    {
        type            calculated;
        value           uniform 0;
    }
    sideWall
    {
        type            empty;
    }
}


// ************************************************************************* //
