/*--------------------------------*- C++ -*----------------------------------*\
| =========                 |                                                 |
| \\      /  F ield         | foam-extend: Open Source CFD                    |
|  \\    /   O peration     | Version:     3.2                                |
|   \\  /    A nd           | Web:         http://www.foam-extend.org         |
|    \\/     M anipulation  | For copyright notice see file Copyright         |
\*---------------------------------------------------------------------------*/
FoamFile
{
    version     2.0;
    format      ascii;
    class       areaScalarField;
    location    "50";
    object      tauCSS1;
}
// * * * * * * * * * * * * * * * * * * * * * * * * * * * * * * * * * * * * * //

dimensions      [1 1 2 0 0 0 0];

internalField   nonuniform List<scalar> 
300
(
0.0368752
0.0368752
0.0368752
0.0368752
0.0368752
0.0368752
0.0368752
0.0368752
0.0368752
0.0368752
0.0368752
0.0368752
0.0368752
0.0368752
0.0368752
0.0368752
0.0368752
0.0368752
0.0368752
0.0368752
0.0368752
0.0368752
0.0368752
0.0368752
0.0368752
0.0368752
0.0368752
0.0368752
0.0368752
0.0368752
0.0368752
0.0368752
0.0368752
0.0368752
0.0368752
0.0368752
0.0368752
0.0368752
0.0368752
0.0368752
0.0368752
0.0368752
0.0368752
0.0368752
0.0368752
0.0368752
0.0368752
0.0368752
0.0368752
0.0368752
0.0368752
0.0368752
0.0368752
0.0368752
0.0368752
0.0368752
0.0368752
0.0368752
0.0368752
0.0751731
0.161812
0.22947
0.248381
0.253437
0.254404
0.254921
0.254863
0.255139
0.255141
0.0368157
0.147486
0.147484
0.147502
0.147519
0.147521
0.147433
0.147521
0.147584
0.0368649
0.0368962
0.147265
0.0370455
0.146381
0.148557
0.250911
0.146725
0.259439
0.25282
0.0370815
0.0365786
0.147779
0.147252
0.147809
0.25554
0.257407
0.147715
0.036843
0.147573
0.147289
0.147794
0.0368467
0.0371371
0.0363717
0.14828
0.234288
0.205759
0.0363229
0.0368751
0.147304
0.147696
0.255651
0.036882
0.0369717
0.0368301
0.0367654
0.147234
0.0369675
0.147007
0.14801
0.0368673
0.146919
0.253618
0.0368641
0.0365867
0.147296
0.147763
0.257718
0.036916
0.0369005
0.0367759
0.147724
0.0369459
0.14657
0.246223
0.03672
0.036343
0.147616
0.147384
0.14768
0.147345
0.147666
0.0368497
0.147499
0.0368914
0.253635
0.253124
0.147791
0.147232
0.147674
0.257722
0.147427
0.0369163
0.0369169
0.0367548
0.147812
0.0368246
0.03692
0.0368383
0.147605
0.147375
0.147644
0.0368486
0.0369002
0.0368456
0.147543
0.147518
0.147445
0.0369521
0.146975
0.0370143
0.146906
0.148035
0.0369896
0.244409
0.248384
0.147536
0.147512
0.147387
0.258453
0.0368183
0.147659
0.147336
0.256693
0.0366942
0.147282
0.243968
0.222618
0.0366552
0.147304
0.147727
0.147274
0.147693
0.0369024
0.147132
0.0369738
0.146999
0.148094
0.146908
0.258866
0.146722
0.148294
0.146757
0.0370712
0.03668
0.14822
0.0369233
0.0366118
0.148479
0.0367755
0.146462
0.0376332
0.0368387
0.03631
0.148108
0.146899
0.14812
0.0367747
0.147638
0.257955
0.0368933
0.14739
0.147522
0.0369161
0.0368299
0.0370379
0.252357
0.14744
0.258326
0.0368288
0.14759
0.147355
0.255016
0.245989
0.0366855
0.147429
0.147516
0.147522
0.0368813
0.14739
0.147567
0.147471
0.147555
0.147439
0.147539
0.258191
0.14744
0.147502
0.147459
0.147592
0.147416
0.0369164
0.0368461
0.147542
0.0368718
0.147441
0.147592
0.147362
0.257617
0.0367669
0.147845
0.147111
0.0370278
0.146718
0.0370903
0.24953
0.253952
0.147942
0.147145
0.0369749
0.036777
0.147827
0.147127
0.147957
0.147022
0.147894
0.147065
0.148062
0.0369732
0.0366528
0.147884
0.0368054
0.147747
0.147234
0.147756
0.14721
0.147725
0.252454
0.2441
0.0369066
0.0369047
0.0368724
0.0368838
0.0368702
0.03691
0.0369085
0.0382947
0.038324
0.0368752
0.0368752
0.0368752
)
;

boundaryField
{
    inlet
    {
        type            calculated;
        value           uniform 0;
    }
    outlet
    {
        type            calculated;
        value           uniform 0;
    }
    sideWall
    {
        type            empty;
    }
}


// ************************************************************************* //
