/*--------------------------------*- C++ -*----------------------------------*\
| =========                 |                                                 |
| \\      /  F ield         | foam-extend: Open Source CFD                    |
|  \\    /   O peration     | Version:     3.2                                |
|   \\  /    A nd           | Web:         http://www.foam-extend.org         |
|    \\/     M anipulation  | For copyright notice see file Copyright         |
\*---------------------------------------------------------------------------*/
FoamFile
{
    version     2.0;
    format      ascii;
    class       areaScalarField;
    location    "50";
    object      tauCB;
}
// * * * * * * * * * * * * * * * * * * * * * * * * * * * * * * * * * * * * * //

dimensions      [1 1 2 0 0 0 0];

internalField   nonuniform List<scalar> 
300
(
0.246313
0.246313
0.246313
0.246313
0.246313
0.246313
0.246313
0.246313
0.246313
0.246313
0.246313
0.246313
0.246313
0.246313
0.246313
0.246313
0.246313
0.246313
0.246313
0.246313
0.246313
0.246313
0.246313
0.246313
0.246313
0.246313
0.246313
0.246313
0.246313
0.246313
0.246313
0.246313
0.246313
0.246313
0.246313
0.246313
0.246313
0.246313
0.246313
0.246313
0.246313
0.246313
0.246313
0.246313
0.246313
0.246313
0.246313
0.246313
0.246313
0.246313
0.246313
0.246313
0.246313
0.246313
0.246313
0.246313
0.246313
0.246313
0.246313
0.502129
1.08084
1.53277
1.6591
1.69287
1.69932
1.70278
1.70239
1.70424
1.70425
0.245915
0.985151
0.985137
0.985261
0.985371
0.985384
0.984799
0.985385
0.985808
0.246244
0.246453
0.983677
0.247451
0.977771
0.992309
1.676
0.980069
1.73296
1.68875
0.247691
0.244332
0.987114
0.983588
0.987312
1.70692
1.71938
0.986684
0.246098
0.985732
0.98384
0.98721
0.246123
0.248062
0.24295
0.990454
1.56496
1.3744
0.242624
0.246312
0.983936
0.986559
1.70765
0.246358
0.246958
0.246012
0.24558
0.983473
0.246929
0.981955
0.988651
0.24626
0.981366
1.69408
0.246239
0.244386
0.983885
0.987003
1.72146
0.246586
0.246482
0.245649
0.986743
0.246785
0.979035
1.64468
0.245277
0.242758
0.986024
0.984472
0.986446
0.984214
0.986352
0.246143
0.985237
0.246421
1.69419
1.69077
0.987194
0.98346
0.986408
1.72149
0.984761
0.246588
0.246592
0.245509
0.987327
0.245975
0.246612
0.246067
0.985949
0.984413
0.98621
0.246135
0.24648
0.246116
0.985533
0.985365
0.984879
0.246827
0.981743
0.247242
0.981278
0.988822
0.247077
1.63257
1.65911
0.985486
0.985324
0.984489
1.72637
0.245933
0.986307
0.984152
1.71462
0.245104
0.983792
1.62962
1.48701
0.244844
0.983939
0.98676
0.983736
0.986533
0.246495
0.982786
0.246972
0.9819
0.989218
0.981293
1.72913
0.98005
0.990552
0.980285
0.247622
0.245009
0.990059
0.246634
0.244554
0.991785
0.245647
0.978314
0.251376
0.246069
0.242537
0.989309
0.981232
0.989386
0.245641
0.986172
1.72305
0.246434
0.98451
0.985393
0.246586
0.24601
0.2474
1.68566
0.984843
1.72553
0.246003
0.985851
0.984276
1.70341
1.64312
0.245046
0.984774
0.985355
0.985392
0.246353
0.984513
0.985692
0.985054
0.985612
0.98484
0.985507
1.72462
0.984843
0.985262
0.984972
0.98586
0.984684
0.246588
0.246118
0.985526
0.246291
0.984853
0.985864
0.984326
1.72079
0.24559
0.98755
0.982651
0.247332
0.980024
0.24775
1.66677
1.69631
0.988201
0.982878
0.246979
0.245657
0.98743
0.982755
0.988298
0.982051
0.987879
0.982339
0.988999
0.246967
0.244827
0.987813
0.245847
0.986897
0.983472
0.986959
0.983311
0.986751
1.6863
1.6305
0.246523
0.24651
0.246295
0.24637
0.24628
0.246545
0.246535
0.255794
0.255991
0.246313
0.246313
0.246313
)
;

boundaryField
{
    inlet
    {
        type            calculated;
        value           uniform 0;
    }
    outlet
    {
        type            calculated;
        value           uniform 0;
    }
    sideWall
    {
        type            empty;
    }
}


// ************************************************************************* //
