/*--------------------------------*- C++ -*----------------------------------*\
| =========                 |                                                 |
| \\      /  F ield         | foam-extend: Open Source CFD                    |
|  \\    /   O peration     | Version:     3.2                                |
|   \\  /    A nd           | Web:         http://www.foam-extend.org         |
|    \\/     M anipulation  | For copyright notice see file Copyright         |
\*---------------------------------------------------------------------------*/
FoamFile
{
    version     2.0;
    format      ascii;
    class       areaScalarField;
    location    "50";
    object      thetaC2SS1;
}
// * * * * * * * * * * * * * * * * * * * * * * * * * * * * * * * * * * * * * //

dimensions      [0 0 0 0 0 0 0];

internalField   nonuniform List<scalar> 
300
(
0.0947979
0.0947979
0.0947979
0.0947979
0.0947979
0.0947979
0.0947979
0.0947979
0.0947979
0.0947979
0.0947979
0.0947979
0.0947979
0.0947979
0.0947979
0.0947979
0.0947979
0.0947979
0.0947979
0.0947979
0.0947979
0.0947979
0.0947979
0.0947979
0.0947979
0.0947979
0.0947979
0.0947979
0.0947979
0.0947979
0.0947979
0.0947979
0.0947979
0.0947979
0.0947979
0.0947979
0.0947979
0.0947979
0.0947979
0.0947979
0.0947979
0.0947979
0.0947979
0.0947979
0.0947979
0.0947979
0.0947979
0.0947979
0.0947979
0.0947979
0.0947979
0.0947979
0.0947979
0.0947979
0.0947979
0.0947979
0.0947979
0.0947979
0.0947979
0.199797
0.433389
0.596264
0.640512
0.651797
0.654244
0.655338
0.655168
0.656128
0.655575
0.0947979
0.379192
0.379192
0.379192
0.379192
0.379192
0.379192
0.379192
0.379192
0.0947979
0.0947979
0.379192
0.0947979
0.379192
0.379192
0.645361
0.379192
0.663359
0.650986
0.0947979
0.0947979
0.379192
0.379192
0.379192
0.656914
0.663013
0.379192
0.0947979
0.379192
0.379192
0.379192
0.0947979
0.0947979
0.0947979
0.379192
0.586992
0.534249
0.0947979
0.0947979
0.379192
0.379192
0.65586
0.0947979
0.0947979
0.0947979
0.0947979
0.379192
0.0947979
0.379192
0.379192
0.0947979
0.379192
0.645075
0.0947979
0.0947979
0.379192
0.379192
0.663138
0.0947979
0.0947979
0.0947979
0.379192
0.0947979
0.379192
0.619423
0.0947979
0.0947979
0.379192
0.379192
0.379192
0.379192
0.379192
0.0947979
0.379192
0.0947979
0.649539
0.654193
0.379192
0.379192
0.379192
0.662503
0.379192
0.0947979
0.0947979
0.0947979
0.379192
0.0947979
0.0947979
0.0947979
0.379192
0.379192
0.379192
0.0947979
0.0947979
0.0947979
0.379192
0.379192
0.379192
0.0947979
0.379192
0.0947979
0.379192
0.379192
0.0947979
0.627052
0.643033
0.379192
0.379192
0.379192
0.66336
0.0947979
0.379192
0.379192
0.657721
0.0947979
0.379192
0.612958
0.579909
0.0947979
0.379192
0.379192
0.379192
0.379192
0.0947979
0.379192
0.0947979
0.379192
0.379192
0.379192
0.66257
0.379192
0.379192
0.379192
0.0947979
0.0947979
0.379192
0.0947979
0.0947979
0.379192
0.0947979
0.379192
0.0947979
0.0947979
0.0947979
0.379192
0.379192
0.379192
0.0947979
0.379192
0.663464
0.0947979
0.379192
0.379192
0.0947979
0.0947979
0.0947979
0.651466
0.379192
0.663204
0.0947979
0.379192
0.379192
0.652088
0.631808
0.0947979
0.379192
0.379192
0.379192
0.0947979
0.379192
0.379192
0.379192
0.379192
0.379192
0.379192
0.663574
0.379192
0.379192
0.379192
0.379192
0.379192
0.0947979
0.0947979
0.379192
0.0947979
0.379192
0.379192
0.379192
0.660744
0.0947979
0.379192
0.379192
0.0947979
0.379192
0.0947979
0.640877
0.656703
0.379192
0.379192
0.0947979
0.0947979
0.379192
0.379192
0.379192
0.379192
0.379192
0.379192
0.379192
0.0947979
0.0947979
0.379192
0.0947979
0.379192
0.379192
0.379192
0.379192
0.379192
0.645858
0.626901
0.0947979
0.0947979
0.0947979
0.0947979
0.0947979
0.0947979
0.0947979
0.0947979
0.0947979
0.0947979
0.0947979
0.0947979
)
;

boundaryField
{
    inlet
    {
        type            calculated;
        value           uniform 0;
    }
    outlet
    {
        type            calculated;
        value           uniform 0;
    }
    sideWall
    {
        type            empty;
    }
}


// ************************************************************************* //
