/*--------------------------------*- C++ -*----------------------------------*\
| =========                 |                                                 |
| \\      /  F ield         | foam-extend: Open Source CFD                    |
|  \\    /   O peration     | Version:     3.2                                |
|   \\  /    A nd           | Web:         http://www.foam-extend.org         |
|    \\/     M anipulation  | For copyright notice see file Copyright         |
\*---------------------------------------------------------------------------*/
FoamFile
{
    version     2.0;
    format      ascii;
    class       areaScalarField;
    location    "50";
    object      thetaCB;
}
// * * * * * * * * * * * * * * * * * * * * * * * * * * * * * * * * * * * * * //

dimensions      [0 0 0 0 0 0 0];

internalField   nonuniform List<scalar> 
300
(
0.0317025
0.0317025
0.0317025
0.0317025
0.0317025
0.0317025
0.0317025
0.0317025
0.0317025
0.0317025
0.0317025
0.0317025
0.0317025
0.0317025
0.0317025
0.0317025
0.0317025
0.0317025
0.0317025
0.0317025
0.0317025
0.0317025
0.0317025
0.0317025
0.0317025
0.0317025
0.0317025
0.0317025
0.0317025
0.0317025
0.0317025
0.0317025
0.0317025
0.0317025
0.0317025
0.0317025
0.0317025
0.0317025
0.0317025
0.0317025
0.0317025
0.0317025
0.0317025
0.0317025
0.0317025
0.0317025
0.0317025
0.0317025
0.0317025
0.0317025
0.0317025
0.0317025
0.0317025
0.0317025
0.0317025
0.0317025
0.0317025
0.0317025
0.0317025
0.0646281
0.139113
0.19728
0.213539
0.217886
0.218717
0.219161
0.219111
0.219349
0.21935
0.0316513
0.126797
0.126795
0.126811
0.126825
0.126827
0.126752
0.126827
0.126882
0.0316936
0.0317205
0.126607
0.0318489
0.125847
0.127718
0.215714
0.126143
0.223046
0.217355
0.0318798
0.0314474
0.12705
0.126596
0.127075
0.219694
0.221299
0.126994
0.0316748
0.126872
0.126628
0.127062
0.031678
0.0319276
0.0312696
0.127479
0.201423
0.176896
0.0312276
0.0317024
0.126641
0.126978
0.219789
0.0317083
0.0317854
0.0316637
0.0316081
0.126581
0.0317818
0.126386
0.127247
0.0316957
0.12631
0.218041
0.0316929
0.0314545
0.126634
0.127035
0.221566
0.0317376
0.0317242
0.0316171
0.127002
0.0317633
0.12601
0.211684
0.0315691
0.031245
0.126909
0.12671
0.126964
0.126676
0.126952
0.0316805
0.126808
0.0317164
0.218056
0.217616
0.12706
0.126579
0.126959
0.22157
0.126747
0.0317378
0.0317384
0.0315989
0.127077
0.0316589
0.031741
0.0316708
0.1269
0.126702
0.126933
0.0316796
0.031724
0.0316771
0.126846
0.126824
0.126762
0.0317686
0.126358
0.0318221
0.126298
0.127269
0.0318009
0.210124
0.213541
0.12684
0.126819
0.126712
0.222198
0.0316536
0.126946
0.126668
0.220685
0.0315469
0.126622
0.209745
0.19139
0.0315134
0.126641
0.127004
0.126615
0.126975
0.0317259
0.126492
0.0317872
0.126379
0.12732
0.1263
0.222554
0.12614
0.127492
0.126171
0.031871
0.0315346
0.127429
0.0317438
0.0314761
0.127651
0.0316168
0.125917
0.0323541
0.0316711
0.0312165
0.127332
0.126292
0.127342
0.031616
0.126928
0.22177
0.031718
0.126714
0.126828
0.0317376
0.0316635
0.0318424
0.216957
0.126757
0.222089
0.0316626
0.126887
0.126684
0.219243
0.211483
0.0315394
0.126748
0.126823
0.126828
0.0317077
0.126715
0.126866
0.126784
0.126856
0.126757
0.126843
0.221973
0.126757
0.126811
0.126774
0.126888
0.126737
0.0317379
0.0316774
0.126845
0.0316996
0.126759
0.126889
0.126691
0.22148
0.0316094
0.127106
0.126475
0.0318336
0.126137
0.0318874
0.214527
0.218328
0.12719
0.126504
0.0317882
0.0316181
0.12709
0.126489
0.127202
0.126398
0.127148
0.126435
0.127292
0.0317867
0.0315112
0.12714
0.0316425
0.127022
0.126581
0.12703
0.12656
0.127003
0.217041
0.209859
0.0317295
0.0317278
0.0317001
0.0317099
0.0316982
0.0317324
0.0317311
0.0329228
0.0329481
0.0317025
0.0317025
0.0317025
)
;

boundaryField
{
    inlet
    {
        type            calculated;
        value           uniform 0;
    }
    outlet
    {
        type            calculated;
        value           uniform 0;
    }
    sideWall
    {
        type            empty;
    }
}


// ************************************************************************* //
