/*--------------------------------*- C++ -*----------------------------------*\
| =========                 |                                                 |
| \\      /  F ield         | foam-extend: Open Source CFD                    |
|  \\    /   O peration     | Version:     3.2                                |
|   \\  /    A nd           | Web:         http://www.foam-extend.org         |
|    \\/     M anipulation  | For copyright notice see file Copyright         |
\*---------------------------------------------------------------------------*/
FoamFile
{
    version     2.0;
    format      ascii;
    class       areaScalarField;
    location    "50";
    object      thetaB;
}
// * * * * * * * * * * * * * * * * * * * * * * * * * * * * * * * * * * * * * //

dimensions      [0 0 0 0 0 0 0];

internalField   nonuniform List<scalar> 
300
(
0.737684
0.47215
0.350353
0.351175
0.340572
0.340343
0.335127
0.334833
0.332995
0.333671
0.333859
0.335055
0.336297
0.338234
0.340074
0.342386
0.344755
0.347412
0.350058
0.352952
0.356019
0.359189
0.362467
0.365791
0.369154
0.372594
0.375833
0.378684
0.381098
0.383123
0.384816
0.38622
0.387395
0.388362
0.389177
0.389841
0.390412
0.390868
0.391275
0.391587
0.391886
0.392098
0.392328
0.392468
0.392654
0.392737
0.392891
0.392919
0.393102
0.393012
0.393328
0.392956
0.39366
0.392616
0.394389
0.391579
0.396235
0.389164
0.403227
0.376328
0.274289
0.281879
0.302795
0.302196
0.309095
0.306763
0.309921
0.307522
0.308935
0.308164
0.30768
0.311786
0.31289
0.314473
0.313417
0.315457
0.313841
0.317284
0.312378
0.320696
0.30762
0.324283
0.31172
0.306274
0.332804
0.297763
0.321247
0.314966
0.32451
0.315726
0.306618
0.313958
0.306719
0.319682
0.306724
0.310991
0.309718
0.314853
0.307233
0.317354
0.305675
0.324381
0.315138
0.278178
0.35692
0.348051
0.290242
0.305924
0.310357
0.306838
0.3144
0.312956
0.315811
0.314203
0.310033
0.30417
0.312318
0.309963
0.305782
0.318899
0.300553
0.319346
0.330853
0.305343
0.303598
0.312545
0.308197
0.308332
0.312807
0.311658
0.302892
0.323592
0.291902
0.325599
0.351861
0.292874
0.305478
0.307666
0.309
0.308755
0.309953
0.310197
0.310569
0.304331
0.318161
0.308312
0.305291
0.310391
0.305892
0.309667
0.306877
0.305513
0.312863
0.303647
0.305158
0.30804
0.306259
0.308304
0.307036
0.308014
0.307246
0.307602
0.306042
0.308869
0.305204
0.311359
0.303534
0.316412
0.301792
0.309063
0.307187
0.304575
0.313848
0.318548
0.307918
0.29981
0.311385
0.304368
0.310416
0.305124
0.30652
0.310378
0.307053
0.317469
0.279318
0.343722
0.333074
0.293081
0.308037
0.304077
0.310167
0.30263
0.315051
0.297985
0.31201
0.29999
0.311417
0.301125
0.311463
0.302991
0.309898
0.305762
0.305762
0.311019
0.298939
0.322751
0.296963
0.303521
0.320961
0.286239
0.317406
0.348866
0.28637
0.304265
0.306102
0.303888
0.310152
0.302338
0.308892
0.304816
0.310001
0.305056
0.312208
0.302625
0.31475
0.315051
0.301427
0.311914
0.30599
0.308519
0.304183
0.308165
0.321309
0.30447
0.301636
0.310021
0.307657
0.307187
0.30659
0.307468
0.305845
0.305864
0.307159
0.305915
0.308026
0.305545
0.307095
0.306418
0.306783
0.30669
0.307339
0.309199
0.307964
0.311105
0.305487
0.311657
0.303883
0.313501
0.303606
0.310442
0.303752
0.308675
0.307946
0.299745
0.325695
0.299131
0.307505
0.304662
0.306932
0.305689
0.308259
0.303374
0.306199
0.306631
0.305445
0.311185
0.302259
0.323374
0.302196
0.305117
0.307222
0.30681
0.30916
0.306274
0.308969
0.302773
0.316353
0.315378
0.309997
0.313842
0.311824
0.315387
0.310186
0.317192
0.305747
0.327914
0.448369
0.41792
0.377882
0.387794
)
;

boundaryField
{
    inlet
    {
        type            calculated;
        value           uniform 0;
    }
    outlet
    {
        type            calculated;
        value           uniform 0;
    }
    sideWall
    {
        type            empty;
    }
}


// ************************************************************************* //
