/*--------------------------------*- C++ -*----------------------------------*\
| =========                 |                                                 |
| \\      /  F ield         | foam-extend: Open Source CFD                    |
|  \\    /   O peration     | Version:     3.2                                |
|   \\  /    A nd           | Web:         http://www.foam-extend.org         |
|    \\/     M anipulation  | For copyright notice see file Copyright         |
\*---------------------------------------------------------------------------*/
FoamFile
{
    version     2.0;
    format      ascii;
    class       areaScalarField;
    location    "50";
    object      thetaSS1init;
}
// * * * * * * * * * * * * * * * * * * * * * * * * * * * * * * * * * * * * * //

dimensions      [0 0 0 0 0 0 0];

internalField   nonuniform List<scalar> 
300
(
25.7922
16.4775
12.2653
12.3022
11.9451
11.9237
11.7267
11.7084
11.6441
11.6647
11.6722
11.7121
11.7578
11.8227
11.8898
11.9683
12.0529
12.1446
12.2377
12.3385
12.4459
12.5566
12.6712
12.7873
12.9048
13.0251
13.1381
13.2377
13.3218
13.3927
13.4515
13.5008
13.5415
13.5755
13.6036
13.6271
13.6467
13.663
13.6767
13.6883
13.698
13.7062
13.7133
13.7193
13.7247
13.7287
13.7328
13.7354
13.7389
13.7401
13.744
13.7427
13.7499
13.7416
13.7589
13.7327
13.7796
13.7059
13.855
13.536
12.7292
12.9158
13.0829
12.9736
13.0112
12.9857
12.9825
12.9614
12.9493
12.9306
12.9169
12.8974
12.8785
12.8576
12.8367
12.8163
12.796
12.7705
12.7534
12.7318
12.6961
12.6887
12.6747
12.648
12.6333
12.5957
12.5334
12.5101
12.5057
12.4977
12.4581
12.4093
12.389
12.3632
12.2964
12.2631
12.2584
12.2664
12.2713
12.256
12.1999
12.134
12.1102
12.083
12.0547
12.0367
12.0135
11.9838
11.9528
11.9234
11.8936
11.8637
11.8382
11.807
11.7728
11.7433
11.713
11.6794
11.6439
11.6096
11.5762
11.5434
11.5099
11.4789
11.4469
11.4158
11.3855
11.3496
11.3247
11.299
11.2627
11.2241
11.2101
11.2017
11.1672
11.1287
11.0938
11.0619
11.0338
11.0071
10.9793
10.9551
10.9264
10.9049
10.8741
10.8429
10.8249
10.7929
10.7726
10.7566
10.7279
10.6974
10.6662
10.6411
10.616
10.5928
10.5685
10.5453
10.5221
10.5006
10.4774
10.4543
10.4341
10.4167
10.3927
10.3661
10.3477
10.3274
10.3063
10.2859
10.2646
10.2422
10.2208
10.1999
10.1793
10.1607
10.1445
10.1238
10.1095
10.0985
10.0806
10.0591
10.0294
10.008
9.98977
9.96863
9.94818
9.92564
9.90674
9.85792
9.73416
9.61434
9.53755
9.45694
9.3761
9.28988
9.20809
9.10711
9.08126
9.10387
8.97929
8.9201
8.92781
8.87331
8.81569
8.77421
8.74685
8.60719
8.51814
8.48053
8.43294
8.39825
8.35799
8.32307
8.27508
8.21377
8.14941
8.14934
8.16449
7.99914
7.96096
7.96808
7.86573
7.78173
7.70564
7.63505
7.56795
7.51507
7.44994
7.40636
7.34099
7.27493
7.26138
7.11157
7.00011
6.95908
6.9029
6.83598
6.77022
6.7207
6.68396
6.62882
6.55317
6.50946
6.48356
6.43459
6.38298
6.38268
6.34775
6.32337
6.33907
6.36763
6.48156
6.47356
6.41873
6.45746
6.47743
6.48564
6.52935
6.60147
6.62514
6.66528
6.71819
6.80906
6.84756
6.95741
7.14453
7.10768
7.11858
7.2354
7.28498
7.3564
7.48015
7.64068
7.72831
7.73826
7.78569
7.82666
7.90295
7.91952
8.06227
8.5118
8.56769
8.51317
8.59715
8.57568
8.89992
9.56477
9.83404
8.99573
7.86155
8.34833
8.97176
9.26954
11.2017
14.3139
20.4492
31.0089
27.1192
28.3938
)
;

boundaryField
{
    inlet
    {
        type            calculated;
        value           uniform 0;
    }
    outlet
    {
        type            calculated;
        value           uniform 0;
    }
    sideWall
    {
        type            empty;
    }
}


// ************************************************************************* //
