/*--------------------------------*- C++ -*----------------------------------*\
| =========                 |                                                 |
| \\      /  F ield         | foam-extend: Open Source CFD                    |
|  \\    /   O peration     | Version:     3.2                                |
|   \\  /    A nd           | Web:         http://www.foam-extend.org         |
|    \\/     M anipulation  | For copyright notice see file Copyright         |
\*---------------------------------------------------------------------------*/
FoamFile
{
    version     2.0;
    format      ascii;
    class       areaScalarField;
    location    "50";
    object      thetaC2SS2;
}
// * * * * * * * * * * * * * * * * * * * * * * * * * * * * * * * * * * * * * //

dimensions      [0 0 0 0 0 0 0];

internalField   nonuniform List<scalar> 
300
(
0.0940613
0.0940613
0.0940613
0.0940613
0.0940613
0.0940613
0.0940613
0.0940613
0.0940613
0.0940613
0.0940613
0.0940613
0.0940613
0.0940613
0.0940613
0.0940613
0.0940613
0.0940613
0.0940613
0.0940613
0.0940613
0.0940613
0.0940613
0.0940613
0.0940613
0.0940613
0.0940613
0.0940613
0.0940613
0.0940613
0.0940613
0.0940613
0.0940613
0.0940613
0.0940613
0.0940613
0.0940613
0.0940613
0.0940613
0.0940613
0.0940613
0.0940613
0.0940613
0.0940613
0.0940613
0.0940613
0.0940613
0.0940613
0.0940613
0.0940613
0.0940613
0.0940613
0.0940613
0.0940613
0.0940613
0.0940613
0.0940613
0.0940613
0.0940613
0.198244
0.430021
0.591631
0.635535
0.646732
0.64916
0.650245
0.650077
0.65103
0.650481
0.0940613
0.376245
0.376245
0.376245
0.376245
0.376245
0.376245
0.376245
0.376245
0.0940613
0.0940613
0.376245
0.0940613
0.376245
0.376245
0.640347
0.376245
0.658205
0.645928
0.0940613
0.0940613
0.376245
0.376245
0.376245
0.65181
0.657861
0.376245
0.0940613
0.376245
0.376245
0.376245
0.0940613
0.0940613
0.0940613
0.376245
0.582431
0.530098
0.0940613
0.0940613
0.376245
0.376245
0.650764
0.0940613
0.0940613
0.0940613
0.0940613
0.376245
0.0940613
0.376245
0.376245
0.0940613
0.376245
0.640062
0.0940613
0.0940613
0.376245
0.376245
0.657985
0.0940613
0.0940613
0.0940613
0.376245
0.0940613
0.376245
0.61461
0.0940613
0.0940613
0.376245
0.376245
0.376245
0.376245
0.376245
0.0940613
0.376245
0.0940613
0.644492
0.649109
0.376245
0.376245
0.376245
0.657355
0.376245
0.0940613
0.0940613
0.0940613
0.376245
0.0940613
0.0940613
0.0940613
0.376245
0.376245
0.376245
0.0940613
0.0940613
0.0940613
0.376245
0.376245
0.376245
0.0940613
0.376245
0.0940613
0.376245
0.376245
0.0940613
0.62218
0.638036
0.376245
0.376245
0.376245
0.658205
0.0940613
0.376245
0.376245
0.652611
0.0940613
0.376245
0.608195
0.575403
0.0940613
0.376245
0.376245
0.376245
0.376245
0.0940613
0.376245
0.0940613
0.376245
0.376245
0.376245
0.657422
0.376245
0.376245
0.376245
0.0940613
0.0940613
0.376245
0.0940613
0.0940613
0.376245
0.0940613
0.376245
0.0940613
0.0940613
0.0940613
0.376245
0.376245
0.376245
0.0940613
0.376245
0.658309
0.0940613
0.376245
0.376245
0.0940613
0.0940613
0.0940613
0.646404
0.376245
0.65805
0.0940613
0.376245
0.376245
0.647021
0.626899
0.0940613
0.376245
0.376245
0.376245
0.0940613
0.376245
0.376245
0.376245
0.376245
0.376245
0.376245
0.658418
0.376245
0.376245
0.376245
0.376245
0.376245
0.0940613
0.0940613
0.376245
0.0940613
0.376245
0.376245
0.376245
0.65561
0.0940613
0.376245
0.376245
0.0940613
0.376245
0.0940613
0.635897
0.6516
0.376245
0.376245
0.0940613
0.0940613
0.376245
0.376245
0.376245
0.376245
0.376245
0.376245
0.376245
0.0940613
0.0940613
0.376245
0.0940613
0.376245
0.376245
0.376245
0.376245
0.376245
0.640839
0.62203
0.0940613
0.0940613
0.0940613
0.0940613
0.0940613
0.0940613
0.0940613
0.0940613
0.0940613
0.0940613
0.0940613
0.0940613
)
;

boundaryField
{
    inlet
    {
        type            calculated;
        value           uniform 0;
    }
    outlet
    {
        type            calculated;
        value           uniform 0;
    }
    sideWall
    {
        type            empty;
    }
}


// ************************************************************************* //
