/*--------------------------------*- C++ -*----------------------------------*\
| =========                 |                                                 |
| \\      /  F ield         | foam-extend: Open Source CFD                    |
|  \\    /   O peration     | Version:     3.2                                |
|   \\  /    A nd           | Web:         http://www.foam-extend.org         |
|    \\/     M anipulation  | For copyright notice see file Copyright         |
\*---------------------------------------------------------------------------*/
FoamFile
{
    version     2.0;
    format      ascii;
    class       areaScalarField;
    location    "50";
    object      thetaSS1;
}
// * * * * * * * * * * * * * * * * * * * * * * * * * * * * * * * * * * * * * //

dimensions      [0 0 0 0 0 0 0];

internalField   nonuniform List<scalar> 
300
(
25.7857
16.504
12.2466
12.2753
11.9047
11.8967
11.7144
11.7041
11.6398
11.6635
11.67
11.7118
11.7552
11.8229
11.8873
11.9681
12.0509
12.1438
12.2363
12.3374
12.4446
12.5554
12.67
12.7862
12.9038
13.024
13.1372
13.2369
13.3212
13.3921
13.4512
13.5003
13.5414
13.5752
13.6037
13.6269
13.6468
13.6628
13.677
13.6879
13.6984
13.7058
13.7138
13.7187
13.7252
13.7281
13.7335
13.7345
13.7409
13.7377
13.7488
13.7358
13.7604
13.7239
13.7859
13.6876
13.8504
13.6032
14.0948
13.1545
9.58778
9.85306
10.5842
10.5633
10.8044
10.7229
10.8333
10.7494
10.7988
10.7718
10.7549
10.8984
10.9371
10.9924
10.9555
11.0268
10.9703
11.0906
10.9192
11.2099
10.7528
11.3353
10.8962
10.7058
11.6331
10.4083
11.2292
11.0096
11.3432
11.0362
10.7178
10.9744
10.7213
11.1745
10.7215
10.8707
10.8262
11.0057
10.7393
11.0931
10.6849
11.3387
11.0156
9.7237
12.4761
12.1661
10.1454
10.6935
10.8485
10.7255
10.9898
10.9394
11.0392
10.9829
10.8372
10.6323
10.9171
10.8348
10.6886
11.1471
10.5058
11.1627
11.565
10.6733
10.6123
10.925
10.773
10.7777
10.9342
10.894
10.5876
11.3111
10.2034
11.3813
12.2993
10.2374
10.678
10.7544
10.8011
10.7925
10.8344
10.8429
10.8559
10.6379
11.1213
10.777
10.6714
10.8497
10.6924
10.8244
10.7269
10.6792
10.9361
10.614
10.6668
10.7675
10.7053
10.7768
10.7324
10.7666
10.7398
10.7522
10.6977
10.7965
10.6684
10.8835
10.61
11.0602
10.5491
10.8033
10.7377
10.6464
10.9705
11.1348
10.7633
10.4798
10.8845
10.6392
10.8506
10.6656
10.7144
10.8493
10.733
11.0971
9.76353
12.0148
11.6426
10.2446
10.7674
10.629
10.8419
10.5784
11.0126
10.416
10.9063
10.4861
10.8856
10.5258
10.8872
10.5911
10.8325
10.6879
10.6879
10.8716
10.4494
11.2818
10.3803
10.6096
11.2192
10.0055
11.0949
12.1946
10.0101
10.6356
10.6998
10.6224
10.8413
10.5682
10.7973
10.6548
10.8361
10.6632
10.9132
10.5783
11.0021
11.0126
10.5364
10.903
10.6959
10.7843
10.6327
10.7719
11.2313
10.6427
10.5437
10.8368
10.7542
10.7377
10.7168
10.7475
10.6908
10.6915
10.7367
10.6932
10.767
10.6803
10.7345
10.7108
10.7236
10.7203
10.743
10.808
10.7649
10.8746
10.6783
10.894
10.6222
10.9584
10.6125
10.8515
10.6176
10.7897
10.7642
10.4776
11.3847
10.4561
10.7488
10.6494
10.7288
10.6854
10.7752
10.6044
10.7032
10.7183
10.6768
10.8774
10.5654
11.3035
10.5632
10.6654
10.7389
10.7245
10.8067
10.7058
10.8
10.5834
11.0581
11.024
10.8359
10.9703
10.8998
11.0243
10.8425
11.0874
10.6874
11.4622
15.6727
14.6084
13.2088
13.5553
)
;

boundaryField
{
    inlet
    {
        type            calculated;
        value           uniform 0;
    }
    outlet
    {
        type            calculated;
        value           uniform 0;
    }
    sideWall
    {
        type            empty;
    }
}


// ************************************************************************* //
