/*--------------------------------*- C++ -*----------------------------------*\
| =========                 |                                                 |
| \\      /  F ield         | foam-extend: Open Source CFD                    |
|  \\    /   O peration     | Version:     3.2                                |
|   \\  /    A nd           | Web:         http://www.foam-extend.org         |
|    \\/     M anipulation  | For copyright notice see file Copyright         |
\*---------------------------------------------------------------------------*/
FoamFile
{
    version     2.0;
    format      ascii;
    class       areaScalarField;
    location    "50";
    object      thetaC2B;
}
// * * * * * * * * * * * * * * * * * * * * * * * * * * * * * * * * * * * * * //

dimensions      [0 0 0 0 0 0 0];

internalField   nonuniform List<scalar> 
300
(
0.0319486
0.0319486
0.0319486
0.0319486
0.0319486
0.0319486
0.0319486
0.0319486
0.0319486
0.0319486
0.0319486
0.0319486
0.0319486
0.0319486
0.0319486
0.0319486
0.0319486
0.0319486
0.0319486
0.0319486
0.0319486
0.0319486
0.0319486
0.0319486
0.0319486
0.0319486
0.0319486
0.0319486
0.0319486
0.0319486
0.0319486
0.0319486
0.0319486
0.0319486
0.0319486
0.0319486
0.0319486
0.0319486
0.0319486
0.0319486
0.0319486
0.0319486
0.0319486
0.0319486
0.0319486
0.0319486
0.0319486
0.0319486
0.0319486
0.0319486
0.0319486
0.0319486
0.0319486
0.0319486
0.0319486
0.0319486
0.0319486
0.0319486
0.0319486
0.0673351
0.14606
0.200952
0.215864
0.219667
0.220492
0.220861
0.220803
0.221127
0.220941
0.0319486
0.127794
0.127794
0.127794
0.127794
0.127794
0.127794
0.127794
0.127794
0.0319486
0.0319486
0.127794
0.0319486
0.127794
0.127794
0.217498
0.127794
0.223564
0.219394
0.0319486
0.0319486
0.127794
0.127794
0.127794
0.221392
0.223447
0.127794
0.0319486
0.127794
0.127794
0.127794
0.0319486
0.0319486
0.0319486
0.127794
0.197827
0.180052
0.0319486
0.0319486
0.127794
0.127794
0.221037
0.0319486
0.0319486
0.0319486
0.0319486
0.127794
0.0319486
0.127794
0.127794
0.0319486
0.127794
0.217402
0.0319486
0.0319486
0.127794
0.127794
0.22349
0.0319486
0.0319486
0.0319486
0.127794
0.0319486
0.127794
0.208757
0.0319486
0.0319486
0.127794
0.127794
0.127794
0.127794
0.127794
0.0319486
0.127794
0.0319486
0.218907
0.220475
0.127794
0.127794
0.127794
0.223275
0.127794
0.0319486
0.0319486
0.0319486
0.127794
0.0319486
0.0319486
0.0319486
0.127794
0.127794
0.127794
0.0319486
0.0319486
0.0319486
0.127794
0.127794
0.127794
0.0319486
0.127794
0.0319486
0.127794
0.127794
0.0319486
0.211328
0.216714
0.127794
0.127794
0.127794
0.223564
0.0319486
0.127794
0.127794
0.221664
0.0319486
0.127794
0.206578
0.19544
0.0319486
0.127794
0.127794
0.127794
0.127794
0.0319486
0.127794
0.0319486
0.127794
0.127794
0.127794
0.223298
0.127794
0.127794
0.127794
0.0319486
0.0319486
0.127794
0.0319486
0.0319486
0.127794
0.0319486
0.127794
0.0319486
0.0319486
0.0319486
0.127794
0.127794
0.127794
0.0319486
0.127794
0.223599
0.0319486
0.127794
0.127794
0.0319486
0.0319486
0.0319486
0.219556
0.127794
0.223512
0.0319486
0.127794
0.127794
0.219766
0.212931
0.0319486
0.127794
0.127794
0.127794
0.0319486
0.127794
0.127794
0.127794
0.127794
0.127794
0.127794
0.223636
0.127794
0.127794
0.127794
0.127794
0.127794
0.0319486
0.0319486
0.127794
0.0319486
0.127794
0.127794
0.127794
0.222683
0.0319486
0.127794
0.127794
0.0319486
0.127794
0.0319486
0.215987
0.221321
0.127794
0.127794
0.0319486
0.0319486
0.127794
0.127794
0.127794
0.127794
0.127794
0.127794
0.127794
0.0319486
0.0319486
0.127794
0.0319486
0.127794
0.127794
0.127794
0.127794
0.127794
0.217666
0.211277
0.0319486
0.0319486
0.0319486
0.0319486
0.0319486
0.0319486
0.0319486
0.0319486
0.0319486
0.0319486
0.0319486
0.0319486
)
;

boundaryField
{
    inlet
    {
        type            calculated;
        value           uniform 0;
    }
    outlet
    {
        type            calculated;
        value           uniform 0;
    }
    sideWall
    {
        type            empty;
    }
}


// ************************************************************************* //
