/*--------------------------------*- C++ -*----------------------------------*\
| =========                 |                                                 |
| \\      /  F ield         | foam-extend: Open Source CFD                    |
|  \\    /   O peration     | Version:     3.2                                |
|   \\  /    A nd           | Web:         http://www.foam-extend.org         |
|    \\/     M anipulation  | For copyright notice see file Copyright         |
\*---------------------------------------------------------------------------*/
FoamFile
{
    version     2.0;
    format      ascii;
    class       areaScalarField;
    location    "50";
    object      thetaCSS2;
}
// * * * * * * * * * * * * * * * * * * * * * * * * * * * * * * * * * * * * * //

dimensions      [0 0 0 0 0 0 0];

internalField   nonuniform List<scalar> 
300
(
0.0933366
0.0933366
0.0933366
0.0933366
0.0933366
0.0933366
0.0933366
0.0933366
0.0933366
0.0933366
0.0933366
0.0933366
0.0933366
0.0933366
0.0933366
0.0933366
0.0933366
0.0933366
0.0933366
0.0933366
0.0933366
0.0933366
0.0933366
0.0933366
0.0933366
0.0933366
0.0933366
0.0933366
0.0933366
0.0933366
0.0933366
0.0933366
0.0933366
0.0933366
0.0933366
0.0933366
0.0933366
0.0933366
0.0933366
0.0933366
0.0933366
0.0933366
0.0933366
0.0933366
0.0933366
0.0933366
0.0933366
0.0933366
0.0933366
0.0933366
0.0933366
0.0933366
0.0933366
0.0933366
0.0933366
0.0933366
0.0933366
0.0933366
0.0933366
0.190274
0.40957
0.580822
0.62869
0.641487
0.643933
0.645242
0.645095
0.645795
0.645799
0.093186
0.373308
0.373303
0.37335
0.373392
0.373397
0.373175
0.373397
0.373557
0.0933106
0.0933897
0.37275
0.0937677
0.370512
0.37602
0.635093
0.371382
0.65668
0.639925
0.0938587
0.0925858
0.374052
0.372716
0.374127
0.646811
0.651535
0.373889
0.0932551
0.373528
0.372812
0.374088
0.0932645
0.0939995
0.0920621
0.375318
0.593017
0.520807
0.0919387
0.0933364
0.372848
0.373842
0.64709
0.0933538
0.0935809
0.0932225
0.0930587
0.372672
0.0935702
0.372097
0.374635
0.0933166
0.371874
0.641945
0.0933085
0.0926064
0.372828
0.37401
0.652322
0.09344
0.0934007
0.0930852
0.373911
0.0935156
0.37099
0.623228
0.0929439
0.0919897
0.373639
0.373051
0.373799
0.372953
0.373763
0.0932721
0.373341
0.0933776
0.641989
0.640694
0.374082
0.372667
0.373785
0.652332
0.37316
0.0934407
0.0934423
0.0930318
0.374133
0.0932084
0.0934499
0.0932433
0.373611
0.373028
0.37371
0.0932694
0.0933999
0.0932618
0.373453
0.373389
0.373205
0.0935312
0.372017
0.0936888
0.371841
0.374699
0.0936263
0.618636
0.628696
0.373435
0.373374
0.373057
0.654182
0.0931927
0.373746
0.37293
0.649728
0.0928785
0.372793
0.617519
0.563479
0.0927799
0.372849
0.373918
0.372772
0.373832
0.0934055
0.372412
0.0935862
0.372076
0.374849
0.371846
0.655229
0.371375
0.375355
0.371464
0.0938327
0.0928425
0.375168
0.0934583
0.09267
0.375822
0.0930842
0.370717
0.0952552
0.0932442
0.0919059
0.374884
0.371823
0.374913
0.0930821
0.373695
0.652924
0.0933823
0.373065
0.3734
0.0934401
0.0932219
0.0937485
0.638754
0.373191
0.653863
0.0932192
0.373573
0.372977
0.645482
0.622636
0.0928565
0.373165
0.373385
0.3734
0.093352
0.373066
0.373513
0.373272
0.373483
0.37319
0.373443
0.653519
0.373192
0.37335
0.37324
0.373577
0.373131
0.093441
0.0932629
0.37345
0.0933281
0.373195
0.373578
0.372995
0.652068
0.0930626
0.374217
0.372361
0.0937228
0.371365
0.0938811
0.631597
0.64279
0.374464
0.372447
0.0935889
0.0930882
0.374172
0.3724
0.374501
0.372133
0.374342
0.372243
0.374766
0.0935846
0.0927736
0.374317
0.09316
0.37397
0.372672
0.373993
0.372611
0.373915
0.638999
0.617854
0.0934161
0.0934112
0.0933297
0.0933584
0.093324
0.0934246
0.0934208
0.0969295
0.0970038
0.0933366
0.0933366
0.0933366
)
;

boundaryField
{
    inlet
    {
        type            calculated;
        value           uniform 0;
    }
    outlet
    {
        type            calculated;
        value           uniform 0;
    }
    sideWall
    {
        type            empty;
    }
}


// ************************************************************************* //
