/*--------------------------------*- C++ -*----------------------------------*\
| =========                 |                                                 |
| \\      /  F ield         | foam-extend: Open Source CFD                    |
|  \\    /   O peration     | Version:     3.2                                |
|   \\  /    A nd           | Web:         http://www.foam-extend.org         |
|    \\/     M anipulation  | For copyright notice see file Copyright         |
\*---------------------------------------------------------------------------*/
FoamFile
{
    version     2.0;
    format      ascii;
    class       areaScalarField;
    location    "50";
    object      thetaBinit;
}
// * * * * * * * * * * * * * * * * * * * * * * * * * * * * * * * * * * * * * //

dimensions      [0 0 0 0 0 0 0];

internalField   nonuniform List<scalar> 
300
(
0.737869
0.471393
0.350888
0.351945
0.34173
0.341117
0.335479
0.334958
0.333117
0.333707
0.333922
0.335064
0.336369
0.338228
0.340148
0.342393
0.344811
0.347436
0.350099
0.352983
0.356055
0.359221
0.3625
0.365823
0.369185
0.372626
0.375857
0.378707
0.381113
0.383141
0.384825
0.386233
0.387399
0.388371
0.389176
0.389848
0.390407
0.390875
0.391268
0.391597
0.391877
0.392111
0.392315
0.392484
0.392639
0.392754
0.392872
0.392944
0.393047
0.393081
0.393191
0.393155
0.393361
0.393124
0.393618
0.392869
0.394209
0.392101
0.396368
0.387241
0.364161
0.369499
0.374279
0.371151
0.372229
0.371497
0.371406
0.370804
0.370457
0.369922
0.36953
0.368973
0.368432
0.367832
0.367237
0.366652
0.366072
0.365343
0.364852
0.364235
0.363214
0.363002
0.3626
0.361838
0.361416
0.360341
0.35856
0.357892
0.357766
0.357536
0.356404
0.355008
0.354427
0.35369
0.351779
0.350827
0.350691
0.35092
0.35106
0.350623
0.349018
0.347133
0.346451
0.345674
0.344865
0.344349
0.343684
0.342836
0.341947
0.341109
0.340256
0.339399
0.33867
0.337778
0.3368
0.335957
0.33509
0.334126
0.333113
0.332131
0.331174
0.330236
0.329277
0.328391
0.327477
0.326586
0.325718
0.324691
0.323981
0.323244
0.322206
0.321102
0.3207
0.320461
0.319474
0.318374
0.317375
0.316462
0.315658
0.314893
0.314099
0.313406
0.312586
0.311971
0.311088
0.310198
0.309682
0.308765
0.308186
0.307727
0.306907
0.306035
0.305142
0.304423
0.303704
0.303042
0.302345
0.301682
0.30102
0.300404
0.29974
0.29908
0.298501
0.298004
0.297316
0.296556
0.296029
0.29545
0.294844
0.29426
0.293651
0.29301
0.292399
0.291801
0.291213
0.290679
0.290216
0.289623
0.289215
0.288901
0.288389
0.287773
0.286924
0.286312
0.28579
0.285185
0.2846
0.283955
0.283415
0.282018
0.278477
0.275049
0.272853
0.270546
0.268234
0.265767
0.263427
0.260539
0.259799
0.260446
0.256882
0.255188
0.255409
0.25385
0.252201
0.251015
0.250232
0.246237
0.243689
0.242613
0.241252
0.240259
0.239107
0.238108
0.236735
0.234982
0.23314
0.233138
0.233572
0.228841
0.227749
0.227953
0.225025
0.222622
0.220445
0.218425
0.216506
0.214993
0.21313
0.211883
0.210013
0.208123
0.207735
0.20345
0.200261
0.199087
0.19748
0.195566
0.193684
0.192267
0.191216
0.189639
0.187475
0.186224
0.185483
0.184082
0.182606
0.182597
0.181598
0.180901
0.18135
0.182167
0.185426
0.185197
0.183629
0.184737
0.185308
0.185543
0.186793
0.188857
0.189534
0.190682
0.192196
0.194795
0.195897
0.199039
0.204393
0.203338
0.20365
0.206992
0.208411
0.210454
0.213994
0.218586
0.221093
0.221378
0.222735
0.223907
0.22609
0.226564
0.230647
0.243508
0.245107
0.243547
0.245949
0.245335
0.254611
0.273631
0.281335
0.257352
0.224905
0.238831
0.256666
0.265185
0.32046
0.409497
0.585015
0.887109
0.775832
0.812297
)
;

boundaryField
{
    inlet
    {
        type            calculated;
        value           uniform 0;
    }
    outlet
    {
        type            calculated;
        value           uniform 0;
    }
    sideWall
    {
        type            empty;
    }
}


// ************************************************************************* //
