/*--------------------------------*- C++ -*----------------------------------*\
| =========                 |                                                 |
| \\      /  F ield         | foam-extend: Open Source CFD                    |
|  \\    /   O peration     | Version:     3.2                                |
|   \\  /    A nd           | Web:         http://www.foam-extend.org         |
|    \\/     M anipulation  | For copyright notice see file Copyright         |
\*---------------------------------------------------------------------------*/
FoamFile
{
    version     2.0;
    format      ascii;
    class       areaScalarField;
    location    "50";
    object      thetaSS2;
}
// * * * * * * * * * * * * * * * * * * * * * * * * * * * * * * * * * * * * * //

dimensions      [0 0 0 0 0 0 0];

internalField   nonuniform List<scalar> 
300
(
17.0878
10.937
8.11563
8.13469
7.88908
7.88377
7.76295
7.75614
7.71354
7.72922
7.73357
7.76128
7.79004
7.83491
7.87753
7.93109
7.98596
8.04752
8.10881
8.17585
8.24689
8.32032
8.39625
8.47325
8.55116
8.63083
8.70587
8.77191
8.82781
8.87474
8.91394
8.94648
8.97369
8.99609
9.01497
9.03035
9.04356
9.05413
9.06355
9.0708
9.07773
9.08263
9.08796
9.09121
9.0955
9.09742
9.101
9.10166
9.10588
9.10381
9.11112
9.10251
9.11881
9.09462
9.13571
9.0706
9.17845
9.01467
9.34042
8.71734
6.35369
6.52949
7.014
7.00013
7.15993
7.10591
7.17906
7.12349
7.15623
7.13836
7.12715
7.22226
7.24785
7.28451
7.26004
7.30731
7.26986
7.34961
7.23599
7.42865
7.12576
7.51175
7.22075
7.09458
7.70913
6.89744
7.44141
7.29592
7.51701
7.31355
7.10256
7.27258
7.10488
7.40517
7.10501
7.20385
7.17436
7.29332
7.11681
7.35125
7.08072
7.51402
7.2999
6.44376
8.26777
8.06231
6.72322
7.08647
7.18916
7.10765
7.28283
7.24938
7.3155
7.27825
7.18165
7.04586
7.23459
7.18005
7.08318
7.38702
6.96206
7.3974
7.66394
7.07303
7.0326
7.23986
7.13914
7.14225
7.24592
7.21931
7.01624
7.49575
6.76167
7.54223
8.15057
6.78419
7.07615
7.12682
7.15774
7.15205
7.17981
7.18545
7.19407
7.04958
7.36995
7.1418
7.07181
7.18995
7.08573
7.17319
7.10855
7.07696
7.24721
7.03374
7.06873
7.1355
7.09424
7.14161
7.11223
7.1349
7.11709
7.12535
7.08921
7.15471
7.06981
7.21237
7.03112
7.32942
6.99075
7.1592
7.11574
7.05524
7.27002
7.3789
7.13266
6.94484
7.21298
7.05044
7.19052
7.06795
7.10029
7.18965
7.11262
7.35391
6.47016
7.96205
7.71538
6.78898
7.13543
7.04369
7.18477
7.01018
7.29789
6.90257
7.22746
6.94901
7.21371
6.97532
7.21479
7.01855
7.17854
7.08271
7.08273
7.20449
6.92467
7.47627
6.87889
7.03082
7.4348
6.63049
7.35246
8.08119
6.63353
7.04806
7.09059
7.03931
7.18441
7.0034
7.15522
7.06081
7.18092
7.06638
7.23204
7.01007
7.29093
7.2979
6.98231
7.22524
7.088
7.14659
7.04614
7.13839
7.44285
7.0528
6.98715
7.18138
7.12663
7.11574
7.1019
7.12224
7.08465
7.0851
7.11509
7.08626
7.13517
7.07769
7.11361
7.09793
7.10637
7.10422
7.11926
7.16234
7.13373
7.20648
7.07635
7.21929
7.03921
7.26199
7.03279
7.19113
7.03617
7.1502
7.13332
6.94335
7.54447
6.92912
7.12311
7.05724
7.10982
7.08105
7.14057
7.02741
7.09286
7.10287
7.07539
7.20834
7.00158
7.49069
7.00012
7.06778
7.11655
7.10701
7.16143
7.09458
7.15701
7.0135
7.32805
7.30548
7.18082
7.26989
7.22315
7.30569
7.1852
7.34748
7.08237
7.59587
10.3861
9.68077
8.75332
8.98294
)
;

boundaryField
{
    inlet
    {
        type            calculated;
        value           uniform 0;
    }
    outlet
    {
        type            calculated;
        value           uniform 0;
    }
    sideWall
    {
        type            empty;
    }
}


// ************************************************************************* //
