/*--------------------------------*- C++ -*----------------------------------*\
| =========                 |                                                 |
| \\      /  F ield         | foam-extend: Open Source CFD                    |
|  \\    /   O peration     | Version:     3.2                                |
|   \\  /    A nd           | Web:         http://www.foam-extend.org         |
|    \\/     M anipulation  | For copyright notice see file Copyright         |
\*---------------------------------------------------------------------------*/
FoamFile
{
    version     2.0;
    format      ascii;
    class       areaScalarField;
    location    "50";
    object      thetaCSS1;
}
// * * * * * * * * * * * * * * * * * * * * * * * * * * * * * * * * * * * * * //

dimensions      [0 0 0 0 0 0 0];

internalField   nonuniform List<scalar> 
300
(
0.0940675
0.0940675
0.0940675
0.0940675
0.0940675
0.0940675
0.0940675
0.0940675
0.0940675
0.0940675
0.0940675
0.0940675
0.0940675
0.0940675
0.0940675
0.0940675
0.0940675
0.0940675
0.0940675
0.0940675
0.0940675
0.0940675
0.0940675
0.0940675
0.0940675
0.0940675
0.0940675
0.0940675
0.0940675
0.0940675
0.0940675
0.0940675
0.0940675
0.0940675
0.0940675
0.0940675
0.0940675
0.0940675
0.0940675
0.0940675
0.0940675
0.0940675
0.0940675
0.0940675
0.0940675
0.0940675
0.0940675
0.0940675
0.0940675
0.0940675
0.0940675
0.0940675
0.0940675
0.0940675
0.0940675
0.0940675
0.0940675
0.0940675
0.0940675
0.191764
0.412777
0.58537
0.633613
0.64651
0.648976
0.650295
0.650147
0.650852
0.650856
0.0939157
0.376232
0.376226
0.376274
0.376316
0.376321
0.376097
0.376321
0.376483
0.0940413
0.0941211
0.375669
0.094502
0.373413
0.378965
0.640067
0.374291
0.661823
0.644936
0.0945938
0.0933108
0.376981
0.375635
0.377057
0.651876
0.656637
0.376817
0.0939854
0.376453
0.375731
0.377018
0.0939948
0.0947356
0.092783
0.378257
0.597661
0.524886
0.0926586
0.0940673
0.375768
0.376769
0.652157
0.0940848
0.0943137
0.0939526
0.0937875
0.375591
0.094303
0.375011
0.377568
0.0940474
0.374786
0.646972
0.0940392
0.0933317
0.375748
0.376939
0.65743
0.0941717
0.0941321
0.0938141
0.37684
0.0942479
0.373896
0.628108
0.0936717
0.09271
0.376565
0.375972
0.376726
0.375874
0.37669
0.0940025
0.376265
0.0941088
0.647016
0.645711
0.377012
0.375586
0.376712
0.657441
0.376083
0.0941725
0.094174
0.0937603
0.377063
0.0939384
0.0941817
0.0939735
0.376536
0.37595
0.376636
0.0939998
0.0941313
0.0939921
0.376378
0.376313
0.376128
0.0942637
0.37493
0.0944225
0.374753
0.377634
0.0943595
0.623481
0.63362
0.376359
0.376298
0.375979
0.659305
0.0939225
0.376673
0.37585
0.654816
0.0936058
0.375713
0.622355
0.567891
0.0935065
0.375769
0.376846
0.375691
0.376759
0.0941369
0.375328
0.0943191
0.37499
0.377785
0.374758
0.660361
0.374284
0.378294
0.374373
0.0945675
0.0935695
0.378106
0.0941901
0.0933958
0.378765
0.0938132
0.37362
0.0960012
0.0939745
0.0926257
0.37782
0.374735
0.377849
0.0938111
0.376622
0.658037
0.0941136
0.375987
0.376324
0.0941718
0.093952
0.0944827
0.643756
0.376114
0.658983
0.0939492
0.376499
0.375897
0.650537
0.627512
0.0935837
0.376088
0.376309
0.376324
0.094083
0.375988
0.376438
0.376195
0.376408
0.376113
0.376367
0.658637
0.376114
0.376274
0.376163
0.376502
0.376053
0.0941727
0.0939932
0.376375
0.094059
0.376118
0.376504
0.375916
0.657174
0.0937914
0.377148
0.375277
0.0944567
0.374274
0.0946163
0.636543
0.647824
0.377397
0.375364
0.0943218
0.0938172
0.377102
0.375317
0.377434
0.375048
0.377274
0.375158
0.377701
0.0943175
0.0935001
0.377248
0.0938896
0.376898
0.37559
0.376922
0.375529
0.376843
0.644003
0.622692
0.0941476
0.0941427
0.0940605
0.0940895
0.0940548
0.0941562
0.0941524
0.0976886
0.0977635
0.0940675
0.0940675
0.0940675
)
;

boundaryField
{
    inlet
    {
        type            calculated;
        value           uniform 0;
    }
    outlet
    {
        type            calculated;
        value           uniform 0;
    }
    sideWall
    {
        type            empty;
    }
}


// ************************************************************************* //
