/*--------------------------------*- C++ -*----------------------------------*\
| =========                 |                                                 |
| \\      /  F ield         | foam-extend: Open Source CFD                    |
|  \\    /   O peration     | Version:     3.2                                |
|   \\  /    A nd           | Web:         http://www.foam-extend.org         |
|    \\/     M anipulation  | For copyright notice see file Copyright         |
\*---------------------------------------------------------------------------*/
FoamFile
{
    version     2.0;
    format      ascii;
    class       areaScalarField;
    location    "50";
    object      thetaSS2init;
}
// * * * * * * * * * * * * * * * * * * * * * * * * * * * * * * * * * * * * * //

dimensions      [0 0 0 0 0 0 0];

internalField   nonuniform List<scalar> 
300
(
17.0921
10.9194
8.12802
8.15253
7.91588
7.90169
7.7711
7.75902
7.71638
7.73004
7.73503
7.76147
7.79172
7.83478
7.87924
7.93124
7.98726
8.04808
8.10976
8.17655
8.24773
8.32107
8.39701
8.47399
8.55187
8.63157
8.70642
8.77245
8.82818
8.87515
8.91416
8.94678
8.97377
8.99629
9.01494
9.03051
9.04346
9.05431
9.0634
9.07103
9.0775
9.08294
9.08765
9.09158
9.09515
9.09783
9.10056
9.10223
9.1046
9.10539
9.10794
9.10712
9.11188
9.1064
9.11784
9.10048
9.13154
9.08269
9.18153
8.97012
8.4355
8.55914
8.66987
8.5974
8.62237
8.60542
8.60331
8.58936
8.58133
8.56893
8.55986
8.54695
8.53443
8.52053
8.50674
8.49318
8.47975
8.46286
8.4515
8.4372
8.41356
8.40865
8.39932
8.38168
8.3719
8.347
8.30574
8.29029
8.28735
8.28204
8.2558
8.22346
8.21002
8.19294
8.14868
8.12662
8.12348
8.12877
8.13201
8.12188
8.08473
8.04106
8.02524
8.00725
7.98852
7.97656
7.96116
7.94153
7.92093
7.9015
7.88176
7.8619
7.84501
7.82434
7.8017
7.78216
7.76208
7.73977
7.71629
7.69354
7.67137
7.64964
7.62743
7.60692
7.58574
7.5651
7.54499
7.5212
7.50475
7.48767
7.46363
7.43807
7.42875
7.42321
7.40036
7.37487
7.35173
7.33059
7.31195
7.29424
7.27584
7.2598
7.24079
7.22656
7.2061
7.18548
7.17353
7.15229
7.13887
7.12823
7.10926
7.08905
7.06837
7.05171
7.03506
7.01972
7.00357
6.98822
6.97287
6.9586
6.94323
6.92793
6.91454
6.90302
6.88708
6.86948
6.85726
6.84385
6.82982
6.8163
6.80218
6.78734
6.77317
6.75932
6.7457
6.73334
6.72262
6.70888
6.69943
6.69215
6.68028
6.66603
6.64635
6.63219
6.62008
6.60607
6.59253
6.57759
6.56507
6.53271
6.4507
6.37129
6.32041
6.26699
6.21342
6.15628
6.10208
6.03516
6.01803
6.03301
5.95045
5.91123
5.91634
5.88022
5.84204
5.81455
5.79642
5.70387
5.64486
5.61994
5.5884
5.56541
5.53873
5.51558
5.48378
5.44316
5.40051
5.40046
5.4105
5.30092
5.27562
5.28034
5.21252
5.15685
5.10642
5.05965
5.01518
4.98014
4.93697
4.9081
4.86477
4.821
4.81202
4.71274
4.63888
4.61169
4.57446
4.53011
4.48653
4.45372
4.42937
4.39283
4.3427
4.31373
4.29657
4.26412
4.22992
4.22971
4.20657
4.19041
4.20081
4.21974
4.29524
4.28994
4.25361
4.27927
4.29251
4.29795
4.32691
4.37471
4.39039
4.41699
4.45206
4.51227
4.53779
4.61058
4.73458
4.71016
4.71738
4.7948
4.82766
4.87499
4.95699
5.06338
5.12145
5.12804
5.15947
5.18662
5.23718
5.24816
5.34276
5.64065
5.67769
5.64157
5.69721
5.68299
5.89786
6.33844
6.51689
5.96135
5.20974
5.53233
5.94547
6.1428
7.4232
9.48566
13.5514
20.5492
17.9715
18.8162
)
;

boundaryField
{
    inlet
    {
        type            calculated;
        value           uniform 0;
    }
    outlet
    {
        type            calculated;
        value           uniform 0;
    }
    sideWall
    {
        type            empty;
    }
}


// ************************************************************************* //
