/*--------------------------------*- C++ -*----------------------------------*\
| =========                 |                                                 |
| \\      /  F ield         | foam-extend: Open Source CFD                    |
|  \\    /   O peration     | Version:     3.2                                |
|   \\  /    A nd           | Web:         http://www.foam-extend.org         |
|    \\/     M anipulation  | For copyright notice see file Copyright         |
\*---------------------------------------------------------------------------*/
FoamFile
{
    version     2.0;
    format      ascii;
    class       areaScalarField;
    location    "50";
    object      totH;
}
// * * * * * * * * * * * * * * * * * * * * * * * * * * * * * * * * * * * * * //

dimensions      [0 0 0 0 0 0 0];

internalField   nonuniform List<scalar> 
300
(
0
0
0
0
0
0
0
0
0
0
0
0
0
0
0
0
0
0
0
0
0
0
0
0
0
0
0
0
0
0
0
0
0
0
0
0
0
0
0
0
0
0
0
0
0
0
0
0
0
0
0
0
0
0
0
0
0
0
0
-0.000523036
-0.00168664
-0.00249798
-0.0027184
-0.00277461
-0.0027868
-0.00279225
-0.0027914
-0.00279619
-0.00279343
-0.00281115
-0.00283873
-0.00284225
-0.00284399
-0.0028419
-0.0028378
-0.00284303
-0.00284824
-0.00283699
-0.00283239
-0.00282773
-0.00284427
-0.00279565
-0.0028432
-0.00284976
-0.00274255
-0.00283511
-0.00283221
-0.00277057
-0.00270629
-0.00274535
-0.00284406
-0.0028408
-0.0028343
-0.0028001
-0.00283048
-0.00283806
-0.00282873
-0.00283494
-0.00285014
-0.00284121
-0.00282167
-0.00271977
-0.00282433
-0.00295826
-0.00245179
-0.00218906
-0.00258786
-0.00282792
-0.00284942
-0.00284955
-0.00279485
-0.00275854
-0.0027135
-0.00269105
-0.00275851
-0.00283534
-0.0028241
-0.0028376
-0.00283586
-0.00278382
-0.00285061
-0.00274112
-0.00257312
-0.0027035
-0.00285134
-0.00284506
-0.00283111
-0.00282792
-0.00279909
-0.00283133
-0.00285028
-0.00279512
-0.00286559
-0.00261334
-0.00232737
-0.00262623
-0.00284492
-0.00284503
-0.00283826
-0.0028357
-0.00283466
-0.00282782
-0.00283917
-0.00283235
-0.00276336
-0.00278654
-0.00283997
-0.0028375
-0.00284786
-0.00282794
-0.0028349
-0.00282497
-0.00278884
-0.0028231
-0.00284168
-0.00282987
-0.00283242
-0.00282896
-0.00283365
-0.00283596
-0.00283401
-0.00282995
-0.00283063
-0.00283261
-0.0028409
-0.00283446
-0.00283869
-0.00281124
-0.00283491
-0.00283143
-0.00283552
-0.00284201
-0.00273381
-0.00265135
-0.00273095
-0.0028393
-0.0028343
-0.00284557
-0.00283221
-0.00283118
-0.00283875
-0.00283947
-0.00280412
-0.00282964
-0.00293227
-0.00258114
-0.00241651
-0.00272258
-0.00283975
-0.00283656
-0.00283668
-0.0028405
-0.00280773
-0.00283609
-0.0028333
-0.00284494
-0.00283483
-0.0028346
-0.00282827
-0.00284219
-0.00284041
-0.0028348
-0.00283022
-0.0028297
-0.0028362
-0.00273674
-0.00283041
-0.0028383
-0.00277501
-0.00293147
-0.00271268
-0.00239677
-0.00265829
-0.00283766
-0.00283694
-0.00283496
-0.00281126
-0.00284005
-0.00283273
-0.00283255
-0.00283677
-0.00284657
-0.00282644
-0.00282837
-0.00277711
-0.00277296
-0.00284648
-0.00283143
-0.00282993
-0.00284037
-0.00284651
-0.00277606
-0.00267504
-0.00274298
-0.00283338
-0.0028395
-0.00283554
-0.0028306
-0.00284002
-0.0028449
-0.00284095
-0.0028383
-0.00283916
-0.00284173
-0.00283328
-0.00283565
-0.00284215
-0.00284655
-0.00284119
-0.00284054
-0.00283184
-0.00282657
-0.00283479
-0.00283179
-0.00283975
-0.00283626
-0.00284138
-0.00281918
-0.00282903
-0.00283868
-0.00284356
-0.00281941
-0.00283805
-0.00282937
-0.00272021
-0.00279905
-0.002845
-0.00283556
-0.0028308
-0.00283009
-0.00283731
-0.00284247
-0.00283345
-0.00283592
-0.00284522
-0.00284983
-0.00283616
-0.00273226
-0.00278638
-0.00284141
-0.00283001
-0.00283356
-0.00283574
-0.0028369
-0.00284068
-0.00284787
-0.00274502
-0.00265059
-0.00262085
-0.00259432
-0.00258266
-0.00258011
-0.00257854
-0.00256556
-0.0025359
-0.00189755
-0.000636859
0
0
0
)
;

boundaryField
{
    inlet
    {
        type            calculated;
        value           uniform 0;
    }
    outlet
    {
        type            calculated;
        value           uniform 0;
    }
    sideWall
    {
        type            empty;
    }
}


// ************************************************************************* //
