/*--------------------------------*- C++ -*----------------------------------*\
| =========                 |                                                 |
| \\      /  F ield         | foam-extend: Open Source CFD                    |
|  \\    /   O peration     | Version:     3.2                                |
|   \\  /    A nd           | Web:         http://www.foam-extend.org         |
|    \\/     M anipulation  | For copyright notice see file Copyright         |
\*---------------------------------------------------------------------------*/
FoamFile
{
    version     2.0;
    format      ascii;
    class       areaScalarField;
    location    "50";
    object      totH1;
}
// * * * * * * * * * * * * * * * * * * * * * * * * * * * * * * * * * * * * * //

dimensions      [0 0 0 0 0 0 0];

internalField   nonuniform List<scalar> 
300
(
0
0
0
0
0
0
0
0
0
0
0
0
0
0
0
0
0
0
0
0
0
0
0
0
0
0
0
0
0
0
0
0
0
0
0
0
0
0
0
0
0
0
0
0
0
0
0
0
0
0
0
0
0
0
0
0
0
0
0
-0.000521781
-0.00168278
-0.00249265
-0.00271294
-0.00276913
-0.00278132
-0.00278676
-0.00278592
-0.00279071
-0.0027907
-0.00281198
-0.00283968
-0.00284218
-0.00283745
-0.00283237
-0.00283578
-0.00283666
-0.0028332
-0.00283079
-0.00283722
-0.00283451
-0.0028508
-0.00280003
-0.00284139
-0.00283921
-0.00272907
-0.00282471
-0.00282299
-0.00276875
-0.0027184
-0.00275906
-0.00284859
-0.00284433
-0.00283787
-0.00279119
-0.00281348
-0.00283298
-0.00283665
-0.00283947
-0.00284277
-0.00283208
-0.00282951
-0.00273777
-0.00283056
-0.00294744
-0.00243665
-0.00218721
-0.00259829
-0.00283837
-0.00285348
-0.00284354
-0.00278739
-0.00276787
-0.00273325
-0.00270085
-0.00275988
-0.00283809
-0.00282708
-0.0028405
-0.00284224
-0.00278772
-0.00284273
-0.0027317
-0.00258109
-0.00271701
-0.002848
-0.00283187
-0.0028294
-0.0028392
-0.00280699
-0.00283481
-0.00285698
-0.00279736
-0.00285329
-0.00260199
-0.0023372
-0.00264203
-0.00284999
-0.002845
-0.00283372
-0.00283178
-0.00283949
-0.00283421
-0.00284528
-0.00283755
-0.00275898
-0.00278162
-0.0028451
-0.00284228
-0.00284556
-0.00282674
-0.00284199
-0.00283768
-0.00279855
-0.00282452
-0.00284052
-0.00283368
-0.00283969
-0.00283324
-0.00283429
-0.00283808
-0.00283796
-0.00283377
-0.00283449
-0.00283398
-0.00283663
-0.00282971
-0.00283735
-0.0028131
-0.00284099
-0.00283738
-0.00284038
-0.00285003
-0.00273821
-0.002644
-0.00272414
-0.00284256
-0.00283747
-0.00284138
-0.00283082
-0.00283674
-0.00283252
-0.00282141
-0.00279445
-0.00283002
-0.00292764
-0.00256929
-0.00241324
-0.0027306
-0.00284904
-0.00284248
-0.00284186
-0.00284745
-0.00281282
-0.00283835
-0.00283414
-0.00284237
-0.00283179
-0.00283357
-0.00282728
-0.00283738
-0.00283055
-0.00283252
-0.00283814
-0.00283745
-0.00284257
-0.0027416
-0.00283487
-0.00284574
-0.00277887
-0.00292706
-0.00271564
-0.00241423
-0.00266949
-0.00283149
-0.00283009
-0.00284013
-0.00281608
-0.00283551
-0.00283122
-0.00283791
-0.00283093
-0.00283201
-0.00282749
-0.0028437
-0.00278454
-0.00276078
-0.00282948
-0.00282967
-0.00283814
-0.00284413
-0.00283951
-0.00276244
-0.0026695
-0.00275124
-0.00284204
-0.00283606
-0.00283051
-0.00283518
-0.00284622
-0.00284867
-0.00284249
-0.00283376
-0.00283305
-0.00283843
-0.00283258
-0.00283722
-0.00283538
-0.00283087
-0.0028281
-0.00283214
-0.00283188
-0.00283469
-0.00284161
-0.00283586
-0.00284383
-0.00283853
-0.00283938
-0.00281824
-0.00283394
-0.00284579
-0.00285061
-0.00282516
-0.00284425
-0.00283213
-0.00270843
-0.0027798
-0.00283082
-0.0028272
-0.002831
-0.0028373
-0.00284154
-0.00283882
-0.00282971
-0.00283652
-0.00283761
-0.00283299
-0.00282856
-0.00274242
-0.0028017
-0.00284978
-0.00283289
-0.00283479
-0.00283964
-0.00284136
-0.00283305
-0.00283039
-0.00273356
-0.00264792
-0.0026236
-0.00259978
-0.00258812
-0.00258557
-0.002584
-0.00257102
-0.00254127
-0.00190149
-0.000638147
0
0
0
)
;

boundaryField
{
    inlet
    {
        type            calculated;
        value           uniform 0;
    }
    outlet
    {
        type            calculated;
        value           uniform 0;
    }
    sideWall
    {
        type            empty;
    }
}


// ************************************************************************* //
