/*--------------------------------*- C++ -*----------------------------------*\
| =========                 |                                                 |
| \\      /  F ield         | foam-extend: Open Source CFD                    |
|  \\    /   O peration     | Version:     3.2                                |
|   \\  /    A nd           | Web:         http://www.foam-extend.org         |
|    \\/     M anipulation  | For copyright notice see file Copyright         |
\*---------------------------------------------------------------------------*/
FoamFile
{
    version     2.0;
    format      ascii;
    class       areaScalarField;
    location    "50";
    object      tVolA;
}
// * * * * * * * * * * * * * * * * * * * * * * * * * * * * * * * * * * * * * //

dimensions      [0 3 0 0 0 0 0];

internalField   nonuniform List<scalar> 
300
(
0
0
0
0
0
0
0
0
0
0
0
0
0
0
0
0
0
0
0
0
0
0
0
0
0
0
0
0
0
0
0
0
0
0
0
0
0
0
0
0
0
0
0
0
0
0
0
0
0
0
0
0
0
0
0
0
0
0
0
0
1.06792e-06
9.99297e-07
9.95293e-07
9.76039e-07
9.84278e-07
9.76931e-07
9.84555e-07
9.72155e-07
9.81706e-07
9.56238e-07
5.81822e-07
3.70423e-07
4.38329e-07
3.2204e-07
4.26118e-07
5.17997e-07
3.86448e-07
6.5563e-07
4.50467e-07
8.27263e-07
5.17164e-07
1.06491e-06
5.00767e-07
8.72863e-07
1.02274e-06
8.96084e-07
7.62816e-07
1.0556e-06
1.06591e-06
1.02808e-06
8.63998e-07
7.44942e-07
6.44493e-07
1.00006e-06
8.26296e-07
6.5499e-07
8.4095e-07
7.71894e-07
6.8483e-07
8.70557e-07
8.56286e-07
1.12947e-06
7.00833e-07
3.65102e-07
1.20563e-06
1.47914e-06
1.02085e-06
7.37068e-07
7.41717e-07
4.87002e-07
1.05294e-06
9.4897e-07
1.14691e-06
9.9795e-07
1.02355e-06
7.12401e-07
8.00551e-07
6.06438e-07
7.67711e-07
9.19942e-07
4.03785e-07
1.11557e-06
1.1247e-06
1.09836e-06
4.56516e-07
9.80844e-07
6.1966e-07
7.91173e-07
9.80294e-07
4.85859e-07
7.66929e-07
9.88766e-07
7.33792e-07
1.00384e-06
1.40989e-06
9.75851e-07
6.69384e-07
7.52131e-07
5.61718e-07
6.84563e-07
7.08446e-07
7.97889e-07
5.30636e-07
9.77137e-07
1.00668e-06
9.85832e-07
7.38577e-07
8.8337e-07
4.88204e-07
9.60254e-07
5.02825e-07
9.30349e-07
9.7268e-07
9.6916e-07
6.32599e-07
7.89492e-07
6.54455e-07
7.46701e-07
7.16672e-07
6.48555e-07
7.91134e-07
5.78345e-07
7.23855e-07
7.91904e-07
7.06916e-07
8.73962e-07
6.30621e-07
1.05027e-06
5.7159e-07
7.60084e-07
7.25795e-07
4.79088e-07
1.15236e-06
1.018e-06
1.05423e-06
4.6024e-07
9.53974e-07
6.08606e-07
7.8561e-07
6.93553e-07
8.85298e-07
8.58349e-07
9.92866e-07
7.57892e-07
3.7987e-07
1.13808e-06
1.26664e-06
9.28527e-07
6.41896e-07
6.70909e-07
6.9341e-07
5.79599e-07
1.04788e-06
4.10593e-07
9.24574e-07
5.36757e-07
9.8992e-07
5.42805e-07
9.99067e-07
5.64626e-07
9.03149e-07
6.76883e-07
7.37535e-07
7.32563e-07
5.18447e-07
1.11528e-06
3.73803e-07
9.60996e-07
9.11169e-07
5.21124e-07
1.00829e-06
1.36847e-06
9.31678e-07
5.71741e-07
7.20113e-07
5.49348e-07
9.55904e-07
4.48671e-07
8.75201e-07
6.01913e-07
7.63637e-07
7.56658e-07
9.14363e-07
7.48995e-07
9.28253e-07
1.00364e-06
5.72594e-07
8.90197e-07
5.90543e-07
7.39046e-07
6.26094e-07
1.07977e-06
1.03794e-06
1.03879e-06
8.10234e-07
7.90825e-07
6.40602e-07
6.92438e-07
6.27624e-07
6.15367e-07
6.44855e-07
6.12553e-07
7.14276e-07
5.71156e-07
8.20339e-07
5.65393e-07
8.21175e-07
5.99343e-07
8.04308e-07
7.16956e-07
7.07507e-07
8.08529e-07
6.74683e-07
8.88927e-07
6.04765e-07
9.46443e-07
4.77571e-07
1.00945e-06
4.65712e-07
9.4104e-07
5.78414e-07
1.047e-06
5.0711e-07
9.08572e-07
9.92253e-07
9.54512e-07
8.28742e-07
6.58487e-07
7.91614e-07
5.94085e-07
8.90572e-07
5.31319e-07
7.8388e-07
5.28669e-07
8.51057e-07
4.49779e-07
8.11896e-07
1.0306e-06
1.00426e-06
5.89403e-07
8.17296e-07
5.63017e-07
7.84524e-07
5.94105e-07
7.18205e-07
5.83794e-07
1.07804e-06
1.11313e-06
1.12285e-06
1.14534e-06
1.14461e-06
1.16148e-06
1.14625e-06
1.18202e-06
1.17256e-06
1.36884e-06
0
0
0
0
)
;

boundaryField
{
    inlet
    {
        type            calculated;
        value           uniform 0;
    }
    outlet
    {
        type            calculated;
        value           uniform 0;
    }
    sideWall
    {
        type            empty;
    }
}


// ************************************************************************* //
