/*--------------------------------*- C++ -*----------------------------------*\
| =========                 |                                                 |
| \\      /  F ield         | foam-extend: Open Source CFD                    |
|  \\    /   O peration     | Version:     3.2                                |
|   \\  /    A nd           | Web:         http://www.foam-extend.org         |
|    \\/     M anipulation  | For copyright notice see file Copyright         |
\*---------------------------------------------------------------------------*/
FoamFile
{
    version     2.0;
    format      ascii;
    class       areaScalarField;
    location    "50";
    object      tVol;
}
// * * * * * * * * * * * * * * * * * * * * * * * * * * * * * * * * * * * * * //

dimensions      [0 3 0 0 0 0 0];

internalField   nonuniform List<scalar> 
300
(
4.25005e-06
4.25005e-06
4.25005e-06
4.25005e-06
4.25005e-06
4.25005e-06
4.25005e-06
4.25005e-06
4.25005e-06
4.25005e-06
4.25005e-06
4.25005e-06
4.25005e-06
4.25005e-06
4.25005e-06
4.25005e-06
4.25005e-06
4.25005e-06
4.25005e-06
4.25005e-06
4.25005e-06
4.25005e-06
4.25005e-06
4.25005e-06
4.25005e-06
4.25005e-06
4.25005e-06
4.25005e-06
4.25005e-06
4.25005e-06
4.25005e-06
4.25005e-06
4.25005e-06
4.25005e-06
4.25005e-06
4.25005e-06
4.25005e-06
4.25005e-06
4.25005e-06
4.25005e-06
4.25005e-06
4.25005e-06
4.25005e-06
4.25005e-06
4.25005e-06
4.25005e-06
4.25005e-06
4.25005e-06
4.25005e-06
4.25005e-06
4.25005e-06
4.25005e-06
4.25005e-06
4.25005e-06
4.25005e-06
4.25005e-06
4.25005e-06
4.25005e-06
4.25005e-06
3.72822e-06
2.56456e-06
1.75214e-06
1.53164e-06
1.47541e-06
1.46322e-06
1.45777e-06
1.45862e-06
1.45383e-06
1.45659e-06
1.43888e-06
1.41129e-06
1.40776e-06
1.40603e-06
1.40812e-06
1.41221e-06
1.40699e-06
1.40177e-06
1.41303e-06
1.41763e-06
1.42229e-06
1.40576e-06
1.45435e-06
1.40687e-06
1.40024e-06
1.50747e-06
1.41494e-06
1.41779e-06
1.47946e-06
1.54371e-06
1.50472e-06
1.40595e-06
1.40922e-06
1.41571e-06
1.44992e-06
1.41955e-06
1.41195e-06
1.42129e-06
1.41507e-06
1.39989e-06
1.4088e-06
1.42835e-06
1.53023e-06
1.4258e-06
1.29174e-06
1.79833e-06
2.06107e-06
1.66232e-06
1.4221e-06
1.40061e-06
1.40047e-06
1.45516e-06
1.49148e-06
1.53651e-06
1.55898e-06
1.49153e-06
1.41469e-06
1.42591e-06
1.41243e-06
1.41414e-06
1.4662e-06
1.39943e-06
1.50888e-06
1.6769e-06
1.54657e-06
1.39868e-06
1.40495e-06
1.41892e-06
1.42209e-06
1.45093e-06
1.4187e-06
1.39973e-06
1.45489e-06
1.38447e-06
1.63672e-06
1.92268e-06
1.62393e-06
1.4051e-06
1.40499e-06
1.41175e-06
1.41433e-06
1.41535e-06
1.4222e-06
1.41085e-06
1.41766e-06
1.48664e-06
1.46351e-06
1.41004e-06
1.41253e-06
1.40216e-06
1.42208e-06
1.41512e-06
1.42504e-06
1.46118e-06
1.42694e-06
1.40833e-06
1.42016e-06
1.4176e-06
1.42106e-06
1.41636e-06
1.41406e-06
1.41601e-06
1.42007e-06
1.41939e-06
1.41741e-06
1.40911e-06
1.41555e-06
1.41133e-06
1.43877e-06
1.41512e-06
1.41857e-06
1.41452e-06
1.408e-06
1.51619e-06
1.59866e-06
1.51911e-06
1.41072e-06
1.41571e-06
1.40445e-06
1.4178e-06
1.41884e-06
1.41126e-06
1.41055e-06
1.44588e-06
1.42041e-06
1.31776e-06
1.66894e-06
1.83366e-06
1.52748e-06
1.41027e-06
1.41345e-06
1.41335e-06
1.40951e-06
1.44228e-06
1.41394e-06
1.4167e-06
1.4051e-06
1.41518e-06
1.41544e-06
1.42173e-06
1.40786e-06
1.4096e-06
1.41525e-06
1.41978e-06
1.42035e-06
1.4138e-06
1.51328e-06
1.41966e-06
1.4117e-06
1.47502e-06
1.31859e-06
1.53737e-06
1.85326e-06
1.59189e-06
1.41235e-06
1.4131e-06
1.41504e-06
1.43878e-06
1.40997e-06
1.41729e-06
1.41747e-06
1.41325e-06
1.40345e-06
1.42357e-06
1.42166e-06
1.47289e-06
1.47708e-06
1.40354e-06
1.41858e-06
1.4201e-06
1.40964e-06
1.40351e-06
1.47394e-06
1.57498e-06
1.50707e-06
1.41664e-06
1.41051e-06
1.41448e-06
1.41942e-06
1.41001e-06
1.40512e-06
1.40907e-06
1.41172e-06
1.41086e-06
1.40829e-06
1.41674e-06
1.41437e-06
1.40787e-06
1.40347e-06
1.40882e-06
1.40948e-06
1.41817e-06
1.42346e-06
1.41522e-06
1.41823e-06
1.41027e-06
1.41375e-06
1.40864e-06
1.43083e-06
1.42101e-06
1.41133e-06
1.40647e-06
1.4306e-06
1.412e-06
1.42064e-06
1.5298e-06
1.45101e-06
1.405e-06
1.41447e-06
1.41921e-06
1.41994e-06
1.4127e-06
1.40756e-06
1.41656e-06
1.41412e-06
1.40478e-06
1.4002e-06
1.41385e-06
1.51774e-06
1.46368e-06
1.4086e-06
1.42002e-06
1.41645e-06
1.41429e-06
1.41311e-06
1.40934e-06
1.40215e-06
1.50498e-06
1.59942e-06
1.62917e-06
1.6557e-06
1.66736e-06
1.66991e-06
1.67148e-06
1.68445e-06
1.71412e-06
2.35291e-06
3.6139e-06
4.25005e-06
4.25005e-06
4.25005e-06
)
;

boundaryField
{
    inlet
    {
        type            calculated;
        value           uniform 0;
    }
    outlet
    {
        type            calculated;
        value           uniform 0;
    }
    sideWall
    {
        type            empty;
    }
}


// ************************************************************************* //
