/*--------------------------------*- C++ -*----------------------------------*\
| =========                 |                                                 |
| \\      /  F ield         | foam-extend: Open Source CFD                    |
|  \\    /   O peration     | Version:     3.2                                |
|   \\  /    A nd           | Web:         http://www.foam-extend.org         |
|    \\/     M anipulation  | For copyright notice see file Copyright         |
\*---------------------------------------------------------------------------*/
FoamFile
{
    version     2.0;
    format      ascii;
    class       volVectorField;
    location    "50";
    object      U;
}
// * * * * * * * * * * * * * * * * * * * * * * * * * * * * * * * * * * * * * //

dimensions      [0 1 -1 0 0 0 0];

internalField   nonuniform List<vector> 
5400
(
(0.359589 -6.16505e-26 0.00838325)
(0.233336 7.61421e-26 3.09335e-05)
(0.19946 3.05211e-26 -0.00106643)
(0.204309 0 -0.00109564)
(0.200467 -3.82735e-27 -0.00105329)
(0.200826 -3.08354e-27 -0.00101687)
(0.198902 -3.97387e-27 -0.00101325)
(0.198968 -1.22815e-27 -0.00099884)
(0.198246 0 -0.00100173)
(0.198493 -3.18865e-28 -0.000995766)
(0.198454 0 -0.000999889)
(0.198789 1.85585e-29 -0.000998304)
(0.19908 -2.25574e-28 -0.0010025)
(0.199645 -2.91549e-28 -0.00100382)
(0.200114 0 -0.00100677)
(0.200769 0 -0.00100988)
(0.201413 -6.1549e-28 -0.00101343)
(0.202154 6.61773e-28 -0.00101673)
(0.20287 0 -0.00102084)
(0.20368 0 -0.00102519)
(0.204538 0 -0.00102951)
(0.205422 9.26152e-28 -0.00103386)
(0.206338 0 -0.00103847)
(0.207265 0 -0.00104296)
(0.208203 0 -0.00104762)
(0.20917 1.08217e-27 -0.00105195)
(0.210082 -1.01704e-27 -0.00105579)
(0.210882 0 -0.00105861)
(0.211556 0 -0.00106111)
(0.212121 6.70681e-28 -0.00106313)
(0.212592 -5.72146e-28 -0.00106497)
(0.212983 0 -0.00106644)
(0.21331 0 -0.00106779)
(0.213579 0 -0.00106883)
(0.213805 -2.87933e-28 -0.00106981)
(0.213989 0 -0.00107054)
(0.214148 0 -0.00107125)
(0.214274 -1.70095e-28 -0.00107176)
(0.214387 0 -0.00107229)
(0.214473 0 -0.00107262)
(0.214557 0 -0.00107305)
(0.214614 -3.06238e-43 -0.00107324)
(0.21468 0 -0.00107362)
(0.214716 1.24899e-28 -0.00107369)
(0.21477 0 -0.00107402)
(0.214789 0 -0.00107401)
(0.214838 2.12321e-31 -0.00107437)
(0.21484 0 -0.00107422)
(0.214903 3.25193e-29 -0.00107478)
(0.214858 0 -0.00107401)
(0.214979 0 -0.00107563)
(0.214821 -1.81945e-30 -0.00107295)
(0.215103 0 -0.00107749)
(0.214674 -6.79597e-29 -0.00107021)
(0.215391 0 -0.0010821)
(0.214246 1.01887e-28 -0.00106282)
(0.21613 -5.32303e-32 -0.00109468)
(0.213231 0 -0.00104224)
(0.218684 0 -0.00112532)
(0.208812 -1.41455e-25 -0.00509415)
(0.167423 0 -0.00491833)
(0.179981 3.75848e-25 -0.00209672)
(0.191553 3.46275e-25 -0.00108545)
(0.191771 0 -0.000776086)
(0.1961 -1.65226e-25 -0.000755821)
(0.195949 1.65279e-25 -0.000721336)
(0.198577 0 -0.000728158)
(0.198526 0 -0.000771635)
(0.199835 -7.57446e-26 -0.000805717)
(0.199413 -2.12409e-26 -0.00108361)
(0.200158 0 -0.000759431)
(0.203465 0 -0.00079407)
(0.204484 -2.61062e-25 -0.000938322)
(0.205157 -1.73679e-25 -0.000955557)
(0.20531 1.54765e-25 -0.000842189)
(0.207316 1.30069e-25 -0.000989604)
(0.206375 2.06454e-25 -0.00117641)
(0.206133 -1.62091e-25 -0.00151799)
(0.200894 3.06967e-25 -0.00164427)
(0.203995 3.30371e-25 -0.00106285)
(0.198165 0 -0.00105823)
(0.205861 -8.63585e-27 -0.000468633)
(0.202383 0 -0.00157338)
(0.202446 8.44889e-26 0.000190131)
(0.215333 0 -0.000838143)
(0.200969 5.0257e-25 -0.00127049)
(0.213838 1.34446e-28 -0.000424124)
(0.206612 -1.06004e-24 -0.00196357)
(0.205797 1.11262e-25 -0.00114325)
(0.202536 0 -0.00163307)
(0.201743 0 -0.000240159)
(0.208144 0 -0.000792317)
(0.207249 -1.46733e-25 -0.00022389)
(0.214938 0 -0.000675967)
(0.208085 0 -0.00154264)
(0.208388 -9.86522e-26 -0.00138634)
(0.207028 4.3814e-29 -0.00114663)
(0.211601 5.04415e-29 -0.000591699)
(0.209231 2.93565e-25 -0.00115996)
(0.211546 4.22256e-26 -0.00143338)
(0.20296 -1.58855e-28 -0.00168997)
(0.209471 1.10921e-26 -0.000334733)
(0.206335 0 -0.00241816)
(0.190837 1.53804e-25 -0.000225099)
(0.22684 0 0.00224156)
(0.220152 8.05275e-25 -0.00263586)
(0.190496 -1.48285e-24 -0.00309769)
(0.199797 -1.36425e-25 -0.00108436)
(0.203923 0 -0.00074716)
(0.203515 0 -0.000747105)
(0.205312 -1.26788e-25 -0.00140422)
(0.199965 0 -0.00173182)
(0.198614 0 -0.00107863)
(0.197555 1.41761e-25 -0.00111156)
(0.196465 1.00992e-25 -0.00103563)
(0.194901 -3.77977e-26 -0.00105489)
(0.198298 5.27362e-26 -0.000727784)
(0.197325 0 -0.00125909)
(0.194932 5.57307e-26 -0.000710861)
(0.201484 -9.28146e-26 -0.00104483)
(0.191932 0 -0.00138137)
(0.197289 2.02105e-26 -0.000502341)
(0.199503 -3.66507e-25 -0.00154261)
(0.188525 6.81612e-29 -0.00147859)
(0.191147 -2.8458e-25 -0.000642781)
(0.197207 -6.31562e-25 -0.000513796)
(0.194258 -1.07757e-25 -0.00137313)
(0.19078 -8.98007e-25 -0.00160601)
(0.189567 0 -0.00143902)
(0.188307 0 -0.00149727)
(0.183374 -1.13709e-25 -0.000808127)
(0.19466 -4.1e-26 -0.000552752)
(0.181013 0 -0.00129853)
(0.192595 0 0.000858598)
(0.201302 0 -0.00190104)
(0.175333 0 -0.00195355)
(0.185021 -1.43613e-25 -0.000425027)
(0.187618 0 -0.000774728)
(0.188849 1.29731e-25 -0.000694749)
(0.188943 5.93928e-26 -0.00102471)
(0.188325 0 -0.00103854)
(0.187466 0 -0.0012156)
(0.187452 0 -0.000853385)
(0.186821 1.34054e-25 -0.000283549)
(0.196442 0 0.000144673)
(0.192198 2.52505e-25 -0.00133797)
(0.190907 -1.07074e-29 -0.00073502)
(0.194638 0 -0.000938126)
(0.193694 -4.80178e-30 -0.000595118)
(0.196729 5.21688e-26 -0.000861546)
(0.193945 0 -0.00137022)
(0.190353 -3.98774e-25 -0.00143821)
(0.192195 -1.95338e-25 -0.00104729)
(0.188691 9.91733e-26 -0.00100189)
(0.19015 -1.88805e-26 -0.000834576)
(0.188393 2.14403e-29 -0.00175301)
(0.184724 2.96333e-25 -0.00131033)
(0.185556 0 -0.000905836)
(0.186488 0 -0.000380066)
(0.188152 -1.18226e-26 -0.000787112)
(0.186177 0 -0.00125732)
(0.183114 3.5568e-25 -0.00180537)
(0.179757 0 -0.00130626)
(0.181152 6.95767e-27 -0.000804924)
(0.180813 2.02477e-25 -0.000426113)
(0.184525 0 -0.000742503)
(0.180226 -4.56293e-26 -0.00107655)
(0.185412 0 -0.00081664)
(0.178568 0 -0.00125902)
(0.18241 0 -0.000513268)
(0.182017 -1.04606e-26 -0.00108259)
(0.181219 7.75625e-27 -0.000413442)
(0.18734 -6.00167e-26 -4.56115e-05)
(0.191567 3.42372e-25 -1.49394e-06)
(0.18752 3.21086e-25 -0.00144274)
(0.184693 -4.33661e-26 -0.000832135)
(0.191138 2.85197e-26 -0.000636987)
(0.188495 0 -0.000857888)
(0.190362 2.74267e-29 -0.00110347)
(0.186807 -1.72068e-25 -0.00133192)
(0.188439 0 -0.000485781)
(0.191827 3.42393e-25 -0.000817848)
(0.188571 7.91528e-27 -0.00093615)
(0.192386 6.64116e-29 -0.00187959)
(0.175618 1.65643e-25 -0.000903494)
(0.205657 -4.22348e-25 0.00172837)
(0.198069 0 -0.00268867)
(0.178749 3.77109e-25 -0.00174065)
(0.189106 2.81667e-26 -0.000754217)
(0.188576 -4.91953e-26 -0.000398583)
(0.191673 0 -0.000989943)
(0.187434 1.23353e-25 -0.000890799)
(0.192837 0 -0.000968915)
(0.184597 -8.97725e-29 -0.00122949)
(0.191798 0 -0.000710997)
(0.186513 2.93716e-25 -0.00105471)
(0.193495 0 -0.000194833)
(0.190056 2.32962e-25 -0.000911586)
(0.196084 0 -0.000261232)
(0.192145 1.39943e-25 -0.00142438)
(0.195093 6.2292e-26 -0.000503011)
(0.191855 2.42559e-25 -0.00193391)
(0.188818 0 -0.00100223)
(0.190803 0 -0.00162717)
(0.184902 -6.89874e-26 -0.000540131)
(0.193175 2.84073e-25 -0.00135775)
(0.178532 4.63384e-25 -0.00203484)
(0.181503 0 -0.000345676)
(0.190215 3.90092e-25 -0.00125046)
(0.171255 0 -0.00191496)
(0.182105 -4.35552e-25 0.00057017)
(0.196003 0 -0.00107861)
(0.169407 2.09343e-27 -0.00175932)
(0.180773 0 -0.000175042)
(0.181722 0 -0.00120526)
(0.180413 0 -0.000578064)
(0.183462 1.4269e-25 -0.00109181)
(0.180206 -1.16324e-25 -0.000647431)
(0.182203 0 -0.00128403)
(0.178594 0 -0.0012)
(0.181089 1.79313e-25 -0.00100652)
(0.177181 0 -0.00133683)
(0.177381 2.88727e-25 -0.00151346)
(0.171984 0 -0.00109988)
(0.179265 3.89706e-26 9.32078e-05)
(0.181759 0 -0.000707429)
(0.176395 0 -0.000856603)
(0.179839 0 -0.00116812)
(0.175334 0 -0.00126141)
(0.178023 -6.23343e-26 -0.000522247)
(0.178615 3.1521e-25 -0.000469844)
(0.181243 0 -0.000211754)
(0.184828 0 -0.00124052)
(0.175739 0 -0.00157802)
(0.177057 -6.54233e-27 -0.00053778)
(0.181695 2.17812e-25 -0.00072539)
(0.17913 3.73029e-26 -0.00120501)
(0.178526 -1.35313e-25 -0.000991609)
(0.178895 0 -0.000674864)
(0.180436 0 -0.00058358)
(0.18122 0 -0.00075216)
(0.181931 -1.2874e-25 -0.00072657)
(0.183438 0 -0.000746284)
(0.184328 0 -0.000565136)
(0.186139 0 -0.000662047)
(0.185262 0 -0.000833811)
(0.185962 1.36848e-25 -0.000863778)
(0.186237 -2.63879e-25 -0.000929144)
(0.187114 1.80181e-25 -0.000936503)
(0.185281 0 -0.00154074)
(0.183235 2.14674e-25 -0.00146417)
(0.183859 0 -0.00103702)
(0.183155 1.63409e-25 -0.000766497)
(0.184452 0 -0.000902002)
(0.182699 -7.5375e-26 -0.00063214)
(0.187758 -2.43831e-25 -0.000484652)
(0.18488 8.36613e-26 -0.000913884)
(0.187746 0 -0.00112858)
(0.181224 1.31659e-28 -0.00147194)
(0.185146 8.23244e-29 -0.000482555)
(0.182974 0 -0.0011061)
(0.184783 -7.10363e-29 -0.000627865)
(0.183881 0 -0.00138871)
(0.181974 -3.80735e-29 0.000137642)
(0.196103 0 -0.000279629)
(0.184032 0 -0.00153731)
(0.189593 -1.10724e-25 -0.00102082)
(0.1859 0 -0.00173927)
(0.183159 2.45514e-25 -0.00135287)
(0.181929 3.03752e-25 -0.00119569)
(0.185594 -1.06976e-25 -0.00021118)
(0.184628 3.5256e-25 -0.000850928)
(0.186187 0 -0.000437891)
(0.187576 8.00994e-26 -0.00101961)
(0.187843 1.60224e-25 -0.000544041)
(0.190197 4.19748e-25 -0.00146142)
(0.18401 0 -0.00106894)
(0.191758 -2.09462e-29 -0.000986721)
(0.181932 0 -0.00124745)
(0.184391 4.17992e-26 -0.000545271)
(0.185288 -1.96109e-25 -0.00109523)
(0.185984 0 -0.000463102)
(0.188221 0 -0.000774362)
(0.188177 0 -0.000507536)
(0.190337 3.84322e-25 -0.000946758)
(0.187789 6.95859e-25 -0.000598176)
(0.194968 1.29039e-25 -0.000173761)
(0.19483 0 -0.000716663)
(0.192851 0 -0.00100228)
(0.194479 -6.79421e-31 -0.00111975)
(0.192289 1.64138e-25 -0.00118825)
(0.192205 1.61812e-25 -0.00115701)
(0.188651 0 -0.00116619)
(0.190948 0 -0.00109087)
(0.184991 -1.44738e-25 -0.000998554)
(0.193296 0 0.00342324)
(0.23466 2.65054e-25 0.0047109)
(0.217396 -4.429e-26 -0.000691123)
(0.202478 0 -0.00108697)
(0.207879 0 -0.00104393)
(0.572507 -2.74209e-25 0.0138459)
(0.473146 1.85383e-25 0.00223882)
(0.407117 7.87451e-26 -0.00120624)
(0.405166 0 -0.00189357)
(0.39377 1.72221e-26 -0.00188227)
(0.391528 1.02254e-26 -0.00185538)
(0.386102 1.93164e-33 -0.00188024)
(0.385314 4.84151e-27 -0.00188527)
(0.383143 3.35573e-27 -0.00190523)
(0.383147 0 -0.0019124)
(0.382739 0 -0.00192461)
(0.383043 0 -0.00192855)
(0.383431 2.38631e-28 -0.00194405)
(0.384221 1.25705e-28 -0.00194943)
(0.385003 5.13316e-28 -0.00195934)
(0.386096 0 -0.00196846)
(0.387208 0 -0.00197814)
(0.388532 1.23387e-27 -0.00198624)
(0.389823 1.35113e-27 -0.00199527)
(0.391269 0 -0.00200665)
(0.392829 0 -0.00201708)
(0.39445 0 -0.00202693)
(0.396144 0 -0.00203702)
(0.397868 0 -0.00204614)
(0.399617 0 -0.00205658)
(0.401448 0 -0.00206499)
(0.403175 -2.40785e-27 -0.00206885)
(0.404707 0 -0.00206913)
(0.40602 0 -0.00206883)
(0.407136 0 -0.0020681)
(0.408082 -1.44316e-27 -0.00206763)
(0.408872 0 -0.00206699)
(0.409543 -1.04384e-27 -0.00206664)
(0.410094 0 -0.00206617)
(0.410567 -7.42594e-28 -0.00206596)
(0.410949 0 -0.00206564)
(0.411284 -5.24261e-28 -0.00206555)
(0.411546 -4.42098e-28 -0.00206535)
(0.411789 0 -0.00206537)
(0.411966 -3.14123e-28 -0.00206522)
(0.412148 0 -0.00206531)
(0.412264 -2.22805e-41 -0.00206517)
(0.412407 0 -0.0020654)
(0.412479 1.11622e-41 -0.00206518)
(0.412597 -1.42394e-28 -0.00206551)
(0.412637 0 -0.00206511)
(0.412734 1.92644e-31 -0.00206553)
(0.412747 0 -0.00206519)
(0.412852 -7.13728e-29 -0.00206584)
(0.412807 -6.00265e-29 -0.00206465)
(0.412971 0 -0.0020667)
(0.412785 -5.56911e-29 -0.0020629)
(0.413147 0 -0.00206922)
(0.412617 -1.77002e-31 -0.00205896)
(0.413523 0 -0.00207566)
(0.412097 -1.58579e-28 -0.00204896)
(0.414479 1.12601e-31 -0.00209726)
(0.410924 -2.16752e-27 -0.00205039)
(0.418933 4.69494e-26 -0.00209213)
(0.407336 -4.33086e-25 -0.00869812)
(0.339757 0 -0.00909969)
(0.345123 7.39197e-25 -0.00435193)
(0.361168 6.78049e-25 -0.00228897)
(0.362298 0 -0.00159906)
(0.368318 -3.20959e-25 -0.001507)
(0.368296 3.20522e-25 -0.00142091)
(0.371875 -3.16779e-25 -0.00141634)
(0.371491 0 -0.00148489)
(0.373499 0 -0.00157967)
(0.373854 -7.16674e-26 -0.00204765)
(0.374513 0 -0.00149779)
(0.377994 0 -0.0015484)
(0.379063 -2.62693e-25 -0.00170827)
(0.381102 -7.03803e-25 -0.00172966)
(0.381699 -9.93792e-30 -0.00164563)
(0.383768 0 -0.00179007)
(0.382423 -8.24104e-30 -0.00196359)
(0.383409 -1.13468e-29 -0.00267934)
(0.378626 -5.62178e-25 -0.00308132)
(0.381723 6.24365e-25 -0.00206954)
(0.374351 1.50621e-25 -0.00209947)
(0.38542 -4.77442e-26 -0.000878062)
(0.379197 0 -0.0027002)
(0.378053 1.61765e-25 0.000198814)
(0.393214 -5.67754e-25 -0.0014052)
(0.377053 9.94614e-25 -0.00240297)
(0.391314 1.38621e-25 -0.000906863)
(0.383971 -9.37919e-25 -0.00352359)
(0.386897 2.15423e-25 -0.00206982)
(0.380737 0 -0.0030346)
(0.378024 3.23617e-25 -0.000555635)
(0.384641 0 -0.00147284)
(0.383182 2.51336e-25 -0.000640716)
(0.39146 -5.23259e-25 -0.00118165)
(0.384302 0 -0.00249611)
(0.385069 -2.88525e-25 -0.00251142)
(0.383234 3.33789e-25 -0.00233377)
(0.388205 6.95581e-26 -0.00124266)
(0.3848 3.22437e-28 -0.00199563)
(0.388631 4.56531e-26 -0.00243579)
(0.378749 2.8764e-28 -0.00324003)
(0.389733 0 -0.000921963)
(0.384216 4.11852e-25 -0.00413061)
(0.361147 2.97001e-25 -0.000675339)
(0.409604 -9.42933e-25 0.00381611)
(0.407146 7.41889e-25 -0.00436412)
(0.367465 2.82032e-24 -0.00588249)
(0.374501 0 -0.00222704)
(0.379737 2.17411e-25 -0.00140938)
(0.378684 0 -0.00132683)
(0.381645 1.94031e-25 -0.00256503)
(0.376406 0 -0.0033118)
(0.376782 0 -0.00205663)
(0.37552 -3.04964e-29 -0.00211145)
(0.372892 1.76707e-25 -0.00207696)
(0.36956 1.04552e-28 -0.00213357)
(0.374147 0 -0.00147824)
(0.37342 0 -0.00234846)
(0.371086 -1.13773e-25 -0.00143765)
(0.37866 -1.7356e-25 -0.00198834)
(0.366421 0 -0.00261568)
(0.375492 2.77968e-26 -0.000931839)
(0.380718 2.53483e-29 -0.00279224)
(0.365993 5.29519e-25 -0.00293044)
(0.365666 1.48769e-29 -0.001306)
(0.372712 4.86951e-29 -0.000934497)
(0.370292 -1.85078e-25 -0.00259732)
(0.367456 -8.54194e-25 -0.00305466)
(0.366459 6.22324e-25 -0.00272437)
(0.364788 -5.79475e-25 -0.00282613)
(0.358386 0 -0.00167495)
(0.372039 0 -0.00102306)
(0.352397 0 -0.00252624)
(0.372479 -1.70201e-25 0.0014696)
(0.386077 0 -0.00335165)
(0.353385 -1.40072e-24 -0.00408869)
(0.359647 -2.35231e-25 -0.00101393)
(0.362148 0 -0.00148297)
(0.364355 2.51879e-25 -0.00133648)
(0.36445 0 -0.00196949)
(0.364443 0 -0.00204382)
(0.36328 0 -0.00234644)
(0.363159 0 -0.00172411)
(0.361207 0 -0.000809019)
(0.37374 0 0.000102065)
(0.368062 4.74173e-25 -0.0024252)
(0.366534 1.52526e-25 -0.0015517)
(0.370283 0 -0.00182199)
(0.369075 -3.04794e-25 -0.00111309)
(0.372557 9.18121e-26 -0.00165324)
(0.370222 5.01904e-25 -0.00263495)
(0.366281 -7.77992e-25 -0.00273056)
(0.369215 0 -0.00196715)
(0.363836 0 -0.00200604)
(0.365415 -3.37605e-26 -0.00165691)
(0.364282 -5.36182e-25 -0.00321511)
(0.360641 -5.53392e-25 -0.00255376)
(0.361861 -9.12326e-26 -0.00188788)
(0.362486 0 -0.000984076)
(0.36437 0 -0.00167626)
(0.362944 0 -0.00239926)
(0.35969 0 -0.00331942)
(0.355772 0 -0.00256493)
(0.357166 1.99614e-26 -0.00173284)
(0.356486 3.8071e-25 -0.000999527)
(0.360645 -2.3448e-25 -0.00147514)
(0.35586 0 -0.00212615)
(0.362641 0 -0.00157266)
(0.353562 0 -0.00251413)
(0.35859 0 -0.00118516)
(0.357592 4.17024e-26 -0.00214274)
(0.35664 0 -0.000908224)
(0.363072 9.99389e-26 -0.000350994)
(0.370499 0 -0.000158168)
(0.36459 0 -0.00272486)
(0.360428 8.56751e-29 -0.00180364)
(0.367279 4.60721e-26 -0.00139455)
(0.364352 0 -0.00165141)
(0.367271 3.17251e-25 -0.00204029)
(0.362862 0 -0.00253096)
(0.363904 4.29673e-25 -0.00104692)
(0.367852 -6.89735e-25 -0.00157918)
(0.36477 6.40617e-26 -0.0017251)
(0.370117 -4.34652e-25 -0.00323635)
(0.346134 3.16961e-25 -0.00187025)
(0.387613 -4.24168e-28 0.00304688)
(0.381164 0 -0.00478291)
(0.356346 -7.07282e-25 -0.00341775)
(0.364229 8.28178e-26 -0.00169477)
(0.363952 -1.77374e-26 -0.00102354)
(0.367703 1.13607e-25 -0.00195084)
(0.363107 -2.53503e-25 -0.00176888)
(0.369653 0 -0.00181686)
(0.360441 3.71096e-25 -0.00237112)
(0.369195 0 -0.00133445)
(0.360621 5.41719e-25 -0.00196493)
(0.370561 0 -0.000506399)
(0.364516 4.53555e-25 -0.00190725)
(0.373999 7.56191e-26 -0.000722168)
(0.367184 0 -0.00268276)
(0.372437 1.32584e-25 -0.0009506)
(0.36796 0 -0.0034923)
(0.36545 0 -0.00191175)
(0.367517 0 -0.00312736)
(0.360603 0 -0.00125083)
(0.37224 5.3495e-25 -0.00244558)
(0.355133 0 -0.00389313)
(0.357614 0 -0.000903952)
(0.367756 3.8196e-25 -0.00235159)
(0.344243 2.47736e-25 -0.00368397)
(0.360821 0 0.000917913)
(0.381038 -6.02309e-25 -0.00181309)
(0.346446 0 -0.00373242)
(0.356205 0 -0.000546953)
(0.357013 0 -0.00228641)
(0.356011 0 -0.00127235)
(0.35989 2.8798e-25 -0.00221002)
(0.356383 -2.26421e-25 -0.00137486)
(0.35888 0 -0.00244573)
(0.354918 0 -0.00233217)
(0.357496 -3.13843e-29 -0.00191842)
(0.353317 0 -0.00241327)
(0.354128 0 -0.00284126)
(0.346991 6.35284e-25 -0.00244752)
(0.356614 -5.56849e-26 -0.000109533)
(0.359447 0 -0.00134262)
(0.352965 0 -0.00161048)
(0.356727 0 -0.00229646)
(0.351704 0 -0.00257433)
(0.354382 -1.00226e-28 -0.00114347)
(0.35336 0 -0.0009545)
(0.357364 2.4298e-25 -0.000554534)
(0.363591 0 -0.00227864)
(0.352516 7.94904e-25 -0.00305711)
(0.352549 2.07276e-26 -0.00138849)
(0.358194 1.98002e-25 -0.00151185)
(0.356306 0 -0.00225284)
(0.355024 0 -0.00202581)
(0.35434 0 -0.00145881)
(0.35609 0 -0.00116595)
(0.357299 1.15999e-25 -0.00147177)
(0.357859 -2.47803e-25 -0.0014484)
(0.359264 3.2873e-25 -0.00146514)
(0.360066 3.11045e-25 -0.00115744)
(0.36214 0 -0.00137)
(0.360989 0 -0.00172838)
(0.362641 2.71605e-25 -0.00164145)
(0.362639 0 -0.00165296)
(0.36297 3.87594e-25 -0.00170354)
(0.361022 0 -0.00274562)
(0.359424 -3.8157e-25 -0.00270121)
(0.359368 0 -0.00218476)
(0.358097 1.74646e-25 -0.00168462)
(0.360677 0 -0.00173587)
(0.358781 -1.10319e-25 -0.00134486)
(0.364099 -3.92745e-25 -0.00106024)
(0.360678 0 -0.0017735)
(0.36557 0 -0.00213991)
(0.357227 -1.59957e-24 -0.00290437)
(0.362468 1.08354e-25 -0.00110288)
(0.358157 3.55976e-25 -0.00214683)
(0.361775 -8.92849e-26 -0.001211)
(0.360717 0 -0.00266209)
(0.357685 1.23391e-25 -3.77213e-05)
(0.374549 -7.18756e-25 -0.000507229)
(0.360673 0 -0.00268568)
(0.366625 0 -0.00180064)
(0.361873 0 -0.00311824)
(0.360096 -4.41506e-25 -0.00252082)
(0.356634 5.8105e-25 -0.00247599)
(0.361741 -1.06055e-28 -0.000646478)
(0.359856 6.53978e-25 -0.0016343)
(0.362312 0 -0.000986296)
(0.36317 1.51762e-25 -0.00206797)
(0.36343 3.24722e-25 -0.00108469)
(0.366621 8.73469e-25 -0.002533)
(0.360005 0 -0.00203097)
(0.370569 4.11234e-29 -0.00192027)
(0.357699 0 -0.00254252)
(0.360249 0 -0.00120635)
(0.362124 -2.01069e-25 -0.00219596)
(0.362997 -1.07207e-25 -0.00111577)
(0.365243 0 -0.00160842)
(0.365014 2.99573e-26 -0.00110605)
(0.367246 7.28083e-25 -0.0017506)
(0.364403 6.91295e-25 -0.00111719)
(0.373261 -2.59729e-25 -0.000381628)
(0.373649 0 -0.00132901)
(0.370816 1.56089e-25 -0.00191246)
(0.372934 1.72458e-30 -0.00215665)
(0.370237 0 -0.00228068)
(0.370533 0 -0.00223295)
(0.366473 -3.11866e-25 -0.00226356)
(0.369085 0 -0.00209117)
(0.360407 -5.36158e-25 -0.00203151)
(0.373548 -3.57956e-25 0.00553917)
(0.439359 -2.02828e-27 0.00809318)
(0.427076 -1.18143e-25 -0.00111914)
(0.405062 -1.70838e-26 -0.00194563)
(0.408665 -5.65502e-27 -0.00201485)
(0.6673 0 0.0179017)
(0.606344 0 0.00396477)
(0.53235 0 -0.000687868)
(0.522042 0 -0.00207461)
(0.500914 5.63943e-26 -0.00213321)
(0.496019 1.68917e-26 -0.00219454)
(0.48773 2.44129e-26 -0.00226931)
(0.485728 8.15394e-27 -0.00231137)
(0.482213 1.22086e-26 -0.00235716)
(0.481712 0 -0.00238728)
(0.48069 0 -0.00241148)
(0.480792 0 -0.00242551)
(0.481034 1.41111e-27 -0.00245252)
(0.481726 -8.73753e-28 -0.00246346)
(0.482551 -3.08483e-28 -0.00248159)
(0.483736 -8.38969e-29 -0.00249642)
(0.484987 0 -0.00251226)
(0.486522 7.79568e-28 -0.00252457)
(0.48804 0 -0.00253743)
(0.48974 -1.23073e-27 -0.00255491)
(0.491592 3.02817e-27 -0.00257033)
(0.493533 1.73861e-27 -0.00258432)
(0.49557 0 -0.00259829)
(0.497657 0 -0.00261022)
(0.499782 0 -0.00262476)
(0.502017 0 -0.00263467)
(0.504116 0 -0.00263499)
(0.505988 2.38533e-27 -0.00262923)
(0.507607 0 -0.00262288)
(0.508993 0 -0.00261656)
(0.510177 0 -0.00261126)
(0.511171 0 -0.00260637)
(0.512019 -1.20561e-27 -0.00260246)
(0.512719 0 -0.00259892)
(0.513322 0 -0.00259617)
(0.51381 0 -0.00259372)
(0.51424 -6.15572e-28 -0.00259185)
(0.514577 -5.20036e-28 -0.0025902)
(0.514888 -4.35519e-28 -0.00258899)
(0.515117 -3.69599e-28 -0.00258786)
(0.51535 0 -0.0025871)
(0.515501 -1.90554e-41 -0.0025863)
(0.515683 0 -0.00258598)
(0.515778 -3.7927e-28 -0.00258526)
(0.515928 -1.6413e-28 -0.00258529)
(0.515981 1.3369e-28 -0.00258433)
(0.516102 1.18358e-28 -0.00258466)
(0.516125 9.85724e-29 -0.002584)
(0.516248 -7.56586e-29 -0.00258456)
(0.516211 -8.39669e-29 -0.00258293)
(0.516384 -2.52826e-29 -0.00258508)
(0.516206 -1.0535e-28 -0.00258052)
(0.516574 0 -0.00258786)
(0.516053 -3.94279e-28 -0.00257576)
(0.516964 0 -0.00259538)
(0.515546 0 -0.00256429)
(0.517933 -1.46948e-31 -0.00262443)
(0.514395 -2.22389e-27 -0.00259954)
(0.522877 5.67572e-26 -0.00266102)
(0.511062 -4.3361e-25 -0.00999639)
(0.439531 0 -0.010955)
(0.435532 1.35127e-24 -0.00569582)
(0.449779 0 -0.00306606)
(0.451296 0 -0.00218042)
(0.457597 0 -0.0020133)
(0.457783 0 -0.00189438)
(0.461705 -2.96136e-25 -0.00187155)
(0.461379 0 -0.00193775)
(0.463446 0 -0.00204301)
(0.464067 -6.00412e-26 -0.00258457)
(0.464658 0 -0.00201661)
(0.467947 -1.34232e-25 -0.00207188)
(0.469088 0 -0.00216564)
(0.471572 6.72706e-31 -0.00215558)
(0.472425 -3.00084e-25 -0.00211673)
(0.474565 0 -0.00223717)
(0.473287 -4.04219e-25 -0.00232073)
(0.474578 7.85798e-26 -0.00305603)
(0.470358 -9.47223e-25 -0.00349844)
(0.473076 9.78587e-29 -0.00251698)
(0.466634 -2.019e-28 -0.00268416)
(0.476851 -2.02535e-28 -0.00122201)
(0.471276 0 -0.00331785)
(0.469166 -6.77833e-29 -3.50477e-05)
(0.484474 -5.33892e-25 -0.00176508)
(0.469736 9.21152e-25 -0.0029947)
(0.480989 0 -0.00128311)
(0.475425 0 -0.00393667)
(0.479163 0 -0.00233664)
(0.473268 -5.83876e-25 -0.00374019)
(0.469574 2.28471e-25 -0.00107057)
(0.475757 -2.76952e-25 -0.00202664)
(0.473986 1.99273e-25 -0.00108899)
(0.482033 -9.31886e-25 -0.00157959)
(0.475668 0 -0.00286016)
(0.476556 -8.63212e-26 -0.00285811)
(0.474431 0 -0.00286442)
(0.478427 0 -0.00178727)
(0.47562 -4.11028e-28 -0.00247307)
(0.478984 0 -0.00271319)
(0.470154 1.14356e-24 -0.00370877)
(0.480809 4.13776e-26 -0.00125233)
(0.476583 4.98901e-25 -0.00486365)
(0.455015 2.62071e-25 -0.00111138)
(0.498494 -9.11034e-25 0.00390293)
(0.500225 0 -0.00464653)
(0.463509 -2.29399e-27 -0.00670647)
(0.465653 0 -0.00294569)
(0.470623 1.40674e-25 -0.00197964)
(0.469525 0 -0.00171223)
(0.472432 5.54361e-29 -0.00287586)
(0.467708 0 -0.00373083)
(0.469166 7.91815e-25 -0.00250511)
(0.468175 -3.12269e-25 -0.00260136)
(0.465442 0 -0.0026486)
(0.461355 8.76304e-26 -0.00272392)
(0.465554 9.5205e-26 -0.00188528)
(0.465186 0 -0.00293504)
(0.462887 -1.11781e-25 -0.00183732)
(0.470339 -1.53079e-25 -0.0023897)
(0.458684 0 -0.00318209)
(0.467587 0 -0.00108177)
(0.473536 5.7812e-25 -0.00313176)
(0.460756 5.40092e-25 -0.00365953)
(0.457952 8.23446e-25 -0.00185398)
(0.464061 5.49826e-25 -0.00132349)
(0.462323 0 -0.0030542)
(0.4598 7.49805e-25 -0.0034868)
(0.459125 5.50849e-25 -0.00314185)
(0.457504 3.38637e-29 -0.00336412)
(0.45095 2.1721e-25 -0.00213867)
(0.463536 0 -0.0013743)
(0.445368 -9.43619e-25 -0.0031485)
(0.465358 4.5077e-28 0.00160325)
(0.4802 -1.29073e-24 -0.00377863)
(0.450612 -1.40927e-24 -0.00500008)
(0.452672 1.59506e-25 -0.0016271)
(0.454499 0 -0.00198801)
(0.456734 -2.2174e-25 -0.00176147)
(0.456931 0 -0.00245899)
(0.457111 0 -0.0024975)
(0.455872 0 -0.00281253)
(0.455796 1.42338e-25 -0.00219402)
(0.453919 0 -0.00135071)
(0.465482 0 -0.000293357)
(0.460863 4.27897e-25 -0.0030231)
(0.45894 0 -0.00202461)
(0.462478 0 -0.00237423)
(0.461137 0 -0.0015513)
(0.464421 -7.48135e-26 -0.0021326)
(0.462416 4.50212e-25 -0.00313708)
(0.458681 0 -0.00315047)
(0.461725 0 -0.00237824)
(0.456882 0 -0.00258724)
(0.457922 -5.7423e-26 -0.00209226)
(0.457029 -4.72144e-25 -0.0036751)
(0.453717 -4.84821e-25 -0.00296582)
(0.454996 -8.70796e-26 -0.00241406)
(0.455305 1.95977e-25 -0.00150341)
(0.457202 4.83567e-28 -0.00222917)
(0.456116 0 -0.00281956)
(0.453145 0 -0.00373072)
(0.449223 0 -0.00297393)
(0.450321 2.9167e-26 -0.00224597)
(0.449498 0 -0.00148515)
(0.453624 -2.16888e-25 -0.00194237)
(0.449347 5.30079e-26 -0.00259815)
(0.455376 9.91231e-26 -0.00196698)
(0.447632 0 -0.00310103)
(0.451815 0 -0.00161817)
(0.451249 0 -0.00274172)
(0.450074 5.24624e-26 -0.00132925)
(0.455777 7.63313e-26 -0.000763823)
(0.464075 0 -0.000554934)
(0.458574 -5.81097e-25 -0.00337697)
(0.453664 4.6672e-26 -0.00235254)
(0.459955 -4.1503e-26 -0.00192727)
(0.457184 -1.9084e-25 -0.00217232)
(0.459899 1.28604e-25 -0.00241613)
(0.456116 2.81725e-25 -0.0029637)
(0.456805 8.28361e-29 -0.00147778)
(0.46046 -6.55599e-25 -0.0020393)
(0.45757 0 -0.00199727)
(0.463375 0 -0.00369513)
(0.440371 0 -0.00252625)
(0.478637 8.69573e-25 0.0030284)
(0.476862 9.46408e-25 -0.00526218)
(0.451348 -6.23787e-25 -0.00410222)
(0.457101 0 -0.00232159)
(0.456489 0 -0.00154479)
(0.460248 1.25178e-25 -0.00251754)
(0.455793 -4.98672e-25 -0.00222727)
(0.462201 1.81452e-25 -0.0022376)
(0.454262 2.08469e-25 -0.00290819)
(0.461168 0 -0.00170943)
(0.454041 4.26898e-25 -0.00248097)
(0.462852 0 -0.000900619)
(0.457571 0 -0.00253471)
(0.466449 7.08499e-26 -0.00111345)
(0.459881 0 -0.00324459)
(0.46512 0 -0.0012312)
(0.460915 0 -0.0039816)
(0.458457 2.53347e-25 -0.0022444)
(0.460652 0 -0.0037749)
(0.453566 0 -0.00165016)
(0.464762 -4.64395e-25 -0.00282951)
(0.450665 7.71765e-25 -0.00455132)
(0.451207 0 -0.00123932)
(0.461309 0 -0.00280227)
(0.438317 1.8501e-25 -0.00442114)
(0.454395 0 0.000959149)
(0.474737 -1.14768e-24 -0.0022551)
(0.445541 0 -0.00463009)
(0.449672 0 -0.001013)
(0.450494 0 -0.00285557)
(0.449534 0 -0.00167013)
(0.453476 0 -0.00277899)
(0.449874 -2.09571e-25 -0.00182245)
(0.452406 0 -0.00289948)
(0.448716 0 -0.00274908)
(0.451098 -1.71352e-25 -0.00235505)
(0.447199 1.91195e-25 -0.00276714)
(0.448239 -4.06897e-25 -0.00317846)
(0.441587 1.117e-24 -0.00304718)
(0.450598 -3.4975e-26 -0.000614344)
(0.453688 0 -0.00187051)
(0.447077 5.62505e-25 -0.00199986)
(0.450555 0 -0.00266225)
(0.446081 -4.00129e-25 -0.00307359)
(0.448177 6.85698e-26 -0.00159725)
(0.44688 0 -0.00144298)
(0.450894 2.41386e-25 -0.000842469)
(0.457353 0 -0.00262783)
(0.448044 7.09915e-25 -0.00366874)
(0.446608 4.88777e-26 -0.00202212)
(0.451736 0 -0.00201912)
(0.450325 -2.40147e-26 -0.00264687)
(0.448987 0 -0.00246347)
(0.447896 -3.31484e-26 -0.00199277)
(0.449714 -6.56857e-26 -0.00167262)
(0.451018 1.52749e-25 -0.00194096)
(0.451365 0 -0.00187433)
(0.452281 3.04109e-25 -0.00193293)
(0.452892 2.79491e-25 -0.00163576)
(0.455078 1.29521e-25 -0.00184193)
(0.454037 0 -0.00220576)
(0.455907 5.06475e-25 -0.00207447)
(0.455926 0 -0.00202634)
(0.455911 3.84556e-25 -0.00204082)
(0.454087 0 -0.00312924)
(0.452645 -3.07704e-25 -0.00306328)
(0.452167 2.89063e-25 -0.00269827)
(0.450914 0 -0.00219979)
(0.453976 0 -0.00221546)
(0.45232 6.38679e-26 -0.0018521)
(0.457313 -1.46052e-25 -0.00153779)
(0.454367 -1.10622e-25 -0.00226773)
(0.458633 0 -0.00249379)
(0.451561 -6.67807e-25 -0.00343686)
(0.456061 0 -0.00159076)
(0.45187 4.03623e-25 -0.00274212)
(0.45513 0 -0.0015604)
(0.454472 0 -0.00329353)
(0.450956 5.27207e-26 -0.000387983)
(0.467128 -6.39427e-25 -0.0009154)
(0.455541 0 -0.00322307)
(0.459287 0 -0.00209207)
(0.455387 0 -0.00349799)
(0.454196 1.27005e-28 -0.00281772)
(0.450086 -4.98564e-25 -0.00304574)
(0.454937 2.54304e-25 -0.00113331)
(0.453567 5.54153e-25 -0.00215849)
(0.45569 0 -0.00134687)
(0.456222 1.54666e-25 -0.00266849)
(0.45628 3.09764e-25 -0.00147951)
(0.459554 0 -0.00298716)
(0.453197 1.56799e-26 -0.00233672)
(0.463231 4.89344e-25 -0.00229376)
(0.452763 -7.14062e-25 -0.00321732)
(0.454314 0 -0.00171197)
(0.456118 0 -0.00275413)
(0.4564 -1.95547e-25 -0.00159937)
(0.458545 0 -0.00220222)
(0.458345 1.04438e-26 -0.00155046)
(0.460467 6.62721e-25 -0.00220632)
(0.457885 6.47729e-25 -0.00147988)
(0.466224 -4.9582e-25 -0.000655881)
(0.467442 0 -0.00168274)
(0.46471 -2.02051e-31 -0.00234797)
(0.466667 2.83884e-25 -0.00260302)
(0.464179 0 -0.00273713)
(0.464512 2.86489e-25 -0.00268197)
(0.46067 -2.87479e-25 -0.00271734)
(0.463303 -2.85903e-25 -0.00247695)
(0.454114 -3.97783e-28 -0.00247214)
(0.467939 -2.39178e-25 0.00597996)
(0.538821 1.02098e-25 0.0088818)
(0.53472 0 -0.000840192)
(0.51498 -2.60583e-26 -0.00228817)
(0.516068 -7.47287e-27 -0.00250834)
(0.704543 0 0.0177446)
(0.686547 0 0.0059545)
(0.627995 0 0.000187591)
(0.609046 0 -0.0017571)
(0.579526 5.6696e-26 -0.00200727)
(0.570782 2.21976e-26 -0.00227558)
(0.559288 3.25168e-26 -0.00242877)
(0.555649 1.12971e-26 -0.0025411)
(0.550823 1.73948e-26 -0.00262378)
(0.549519 6.28939e-27 -0.00268637)
(0.547766 0 -0.00272494)
(0.547469 0 -0.00275821)
(0.547407 2.41141e-27 -0.00279758)
(0.54786 -2.02391e-27 -0.00281607)
(0.548569 0 -0.00284512)
(0.549672 8.63454e-28 -0.00286645)
(0.550912 0 -0.0028896)
(0.552487 0 -0.00290686)
(0.554079 0 -0.00292356)
(0.555872 -4.86789e-28 -0.00294738)
(0.557844 1.62513e-27 -0.00296795)
(0.559931 1.07889e-27 -0.00298609)
(0.562133 0 -0.00300373)
(0.564402 1.5124e-27 -0.00301823)
(0.56673 1.7684e-27 -0.00303667)
(0.569176 2.03161e-27 -0.00304699)
(0.571446 -2.11525e-27 -0.00304176)
(0.573471 2.03941e-27 -0.00302832)
(0.575233 1.87031e-27 -0.00301439)
(0.57675 1.67324e-27 -0.00300107)
(0.578053 0 -0.00298957)
(0.579152 0 -0.00297924)
(0.580094 1.10258e-27 -0.00297064)
(0.580875 0 -0.0029631)
(0.581549 0 -0.00295697)
(0.582096 0 -0.00295167)
(0.582579 0 -0.00294741)
(0.582958 -4.85956e-28 -0.00294379)
(0.583309 -4.07713e-28 -0.00294089)
(0.583568 0 -0.00293844)
(0.58383 0 -0.00293647)
(0.584002 -4.89762e-28 -0.00293478)
(0.584205 0 -0.00293364)