/*--------------------------------*- C++ -*----------------------------------*\
| =========                 |                                                 |
| \\      /  F ield         | foam-extend: Open Source CFD                    |
|  \\    /   O peration     | Version:     3.2                                |
|   \\  /    A nd           | Web:         http://www.foam-extend.org         |
|    \\/     M anipulation  | For copyright notice see file Copyright         |
\*---------------------------------------------------------------------------*/
FoamFile
{
    version     2.0;
    format      ascii;
    class       areaVectorField;
    location    "50";
    object      Ub2;
}
// * * * * * * * * * * * * * * * * * * * * * * * * * * * * * * * * * * * * * //

dimensions      [0 1 -1 0 0 0 0];

internalField   nonuniform List<vector> 
300
(
(0.860867 -1.47614e-25 -0.00430433)
(0.659751 2.15295e-25 -0.00329875)
(0.548068 8.38646e-26 -0.00274034)
(0.548882 0 -0.00274441)
(0.538309 -5.79568e-23 -0.00269154)
(0.538078 -1.44617e-23 -0.00269039)
(0.532815 -2.12699e-23 -0.00266407)
(0.532517 -4.53604e-24 -0.00266258)
(0.530651 0 -0.00265325)
(0.531338 -3.74168e-24 -0.00265669)
(0.531529 0 -0.00265764)
(0.532742 4.94875e-24 -0.00266371)
(0.533999 -6.05065e-28 -0.00266999)
(0.535954 6.36164e-24 -0.00267977)
(0.537808 0 -0.00268904)
(0.540129 0 -0.00270064)
(0.542499 7.26087e-24 -0.00271249)
(0.545148 -6.81218e-24 -0.00272574)
(0.547776 7.41961e-24 -0.00273888)
(0.550638 0 -0.00275319)
(0.553659 0 -0.0027683)
(0.556768 -7.74407e-24 -0.00278384)
(0.559968 0 -0.00279984)
(0.563199 0 -0.00281599)
(0.566453 0 -0.00283226)
(0.569765 -7.03974e-24 -0.00284882)
(0.57287 -2.77336e-27 -0.00286435)
(0.575593 0 -0.00287796)
(0.577889 0 -0.00288944)
(0.579811 -2.91551e-24 -0.00289905)
(0.581413 -1.56474e-27 -0.00290706)
(0.582739 0 -0.0029137)
(0.583847 0 -0.00291924)
(0.584757 0 -0.00292379)
(0.585524 -7.88529e-28 -0.00292762)
(0.586148 0 -0.00293074)
(0.586684 0 -0.00293342)
(0.587112 -4.66062e-28 -0.00293556)
(0.587493 0 -0.00293747)
(0.587787 0 -0.00293893)
(0.588067 0 -0.00294033)
(0.588265 -2.03632e-25 -0.00294132)
(0.58848 0 -0.0029424)
(0.588612 -1.2926e-25 -0.00294306)
(0.588785 0 -0.00294393)
(0.588863 0 -0.00294431)
(0.589007 -2.03768e-25 -0.00294504)
(0.589034 7.9723e-29 -0.00294517)
(0.589205 -3.12476e-25 -0.00294602)
(0.589121 0 -0.0029456)
(0.589416 0 -0.00294708)
(0.589068 1.34585e-24 -0.00294534)
(0.589726 0 -0.00294863)
(0.58875 3.67338e-24 -0.00294375)
(0.590408 0 -0.00295204)
(0.587779 2.74074e-28 -0.00293889)
(0.592129 -1.62854e-23 -0.00296065)
(0.585513 0 -0.00292756)
(0.598618 0 -0.00299309)
(0.510585 0 -0.0132351)
(0.307769 1.99564e-24 -0.00942473)
(0.257782 -5.48472e-22 -0.0030498)
(0.265609 2.85721e-22 -0.00185547)
(0.26099 0 -0.00137352)
(0.267418 0 -0.00139723)
(0.264423 2.36975e-25 -0.00132027)
(0.267651 -2.43361e-25 -0.00133106)
(0.264752 0 -0.00138155)
(0.266168 0 -0.0012434)
(0.502736 5.95894e-23 -0.00303517)
(0.356626 0 -0.00180662)
(0.361011 -3.23027e-23 -0.0018322)
(0.36199 0 -0.00180785)
(0.363265 3.9119e-22 -0.00178811)
(0.362046 -4.965e-23 -0.00177898)
(0.364096 -2.4366e-22 -0.00192802)
(0.36177 6.51579e-25 -0.00177743)
(0.364987 -2.61351e-22 -0.00169235)
(0.505051 4.12077e-22 -0.00261586)
(0.513995 0 -0.00238185)
(0.355834 -2.79246e-22 -0.00214479)
(0.517957 1.78543e-23 -0.00105034)
(0.361235 -2.32546e-22 -0.00356687)
(0.353032 -7.38296e-23 -0.000137094)
(0.292762 -3.95579e-22 -0.00155848)
(0.345015 0 -0.00289082)
(0.274159 0 -0.000412668)
(0.27251 -2.50174e-25 -0.00164307)
(0.516425 -1.53866e-22 -0.000722601)
(0.509043 0 -0.00517363)
(0.35392 0 -0.00133946)
(0.362382 -4.25067e-23 -0.00220514)
(0.35449 0 -0.00129561)
(0.27624 0 -0.0013749)
(0.260897 -1.11375e-24 -0.00162746)
(0.358017 0 -0.00145551)
(0.50207 0 -0.00279218)
(0.362634 2.15709e-22 -0.00169966)
(0.35471 0 -0.00210018)
(0.364386 4.44349e-22 -0.00135619)
(0.497586 6.36878e-22 -0.00273518)
(0.517289 -1.2326e-22 -0.000220905)
(0.50969 2.14902e-21 -0.00701094)
(0.322795 1.20074e-25 -0.000517059)
(0.329151 -1.54142e-21 0.00390388)
(0.343583 -1.10543e-24 -0.00390006)
(0.482438 0 -0.00704394)
(0.498675 0 -0.00249417)
(0.358619 0 -0.00210094)
(0.354286 3.75109e-22 -0.00146911)
(0.270497 -4.29851e-25 -0.000991529)
(0.506141 -7.83461e-22 -0.00247093)
(0.509867 1.01169e-21 -0.00169093)
(0.508902 1.01198e-24 -0.00294428)
(0.504632 -3.78775e-22 -0.00348845)
(0.353174 0 -0.00217572)
(0.506998 -1.26587e-22 -0.00171872)
(0.359704 -2.19737e-22 -0.00257192)
(0.354492 -7.62181e-23 -0.000985591)
(0.514867 0 -0.00264535)
(0.349876 4.11017e-22 -0.00263591)
(0.278013 0 0.000531969)
(0.526452 0 -0.00273413)
(0.501185 1.73922e-24 -0.00502271)
(0.352994 2.88756e-22 -0.00207982)
(0.361487 -4.71837e-25 -0.00139416)
(0.263493 0 -0.00147163)
(0.503263 0 -0.00215785)
(0.50833 4.79673e-22 -0.00231734)
(0.507686 0 -0.00341727)
(0.352273 2.25351e-22 -0.00141853)
(0.520286 0 -0.00195986)
(0.341412 -6.88239e-22 -0.00309044)
(0.290229 -1.09394e-21 0.00265322)
(0.548407 0 -0.00422439)
(0.488997 -3.3303e-24 -0.00696891)
(0.355351 -6.30962e-25 -0.0015976)
(0.357976 0 -0.00197203)
(0.358981 7.79602e-26 -0.00151504)
(0.358942 0 -0.00203769)
(0.360019 -1.66266e-22 -0.00154147)
(0.506858 4.80306e-25 -0.00275964)
(0.361319 0 -0.00181)
(0.501185 2.24211e-22 -0.00236453)
(0.278301 0 -0.000702049)
(0.268197 0 -0.00225409)
(0.355516 -1.8595e-22 -0.00132689)
(0.361746 0 -0.00223164)
(0.356445 -2.02717e-25 -0.00151316)
(0.266441 4.32996e-26 -0.00132105)
(0.358002 3.27543e-22 -0.00190468)
(0.503418 -8.90624e-25 -0.00215594)
(0.511612 0 -0.00218562)
(0.502231 0 -0.00356501)
(0.356616 6.42453e-23 -0.00129986)
(0.506927 0 -0.00298204)
(0.505161 4.02774e-22 -0.00213145)
(0.507682 0 -0.00286459)
(0.359228 0 -0.00163269)
(0.36059 0 -0.00200035)
(0.359629 -1.48308e-22 -0.00157318)
(0.507372 5.19038e-26 -0.00277186)
(0.505799 0 -0.00230844)
(0.508962 2.02468e-22 -0.0028071)
(0.357638 2.47207e-25 -0.00172253)
(0.363981 0 -0.00179296)
(0.355701 1.87297e-25 -0.00186499)
(0.516056 0 -0.00188811)
(0.354561 -5.73856e-22 -0.00258417)
(0.508913 8.74952e-26 -0.00130913)
(0.360853 -3.68061e-22 -0.00273923)
(0.357163 4.47578e-23 -0.000953143)
(0.514862 -2.69808e-25 -0.00154641)
(0.287804 0 -0.00106426)
(0.27331 -2.07351e-22 -0.00259271)
(0.352339 0 -0.00170797)
(0.364826 1.64563e-22 -0.00180686)
(0.357381 2.41065e-25 -0.00196483)
(0.268333 4.91067e-23 -0.00106467)
(0.505636 -3.34957e-25 -0.0030294)
(0.359265 2.25283e-22 -0.00154895)
(0.36308 -5.63357e-22 -0.00207591)
(0.265315 2.21084e-25 -0.000761022)
(0.517223 1.18553e-25 -0.00421665)
(0.329041 0 -0.00195865)
(0.312376 1.12104e-21 0.00312306)
(0.318542 0 -0.00427245)
(0.490641 -3.03221e-25 -0.00433251)
(0.36016 0 -0.00210932)
(0.355809 0 -0.00142883)
(0.362909 -1.95593e-22 -0.00217346)
(0.354704 -1.79232e-22 -0.00147691)
(0.515302 6.00087e-25 -0.00233207)
(0.350602 -1.60502e-22 -0.002317)
(0.512282 0 -0.00168025)
(0.352858 -2.71887e-25 -0.00253548)
(0.363789 0 -0.000876712)
(0.353998 -2.4956e-22 -0.00268367)
(0.268892 -1.84276e-23 -0.000582383)
(0.356009 -4.8084e-23 -0.00298719)
(0.361412 2.16064e-25 -0.000555799)
(0.358453 -4.72463e-24 -0.00295288)
(0.504366 1.53974e-22 -0.000796469)
(0.511184 0 -0.00429399)
(0.350441 0 -0.000651717)
(0.523505 2.83458e-22 -0.00217876)
(0.497059 3.10858e-25 -0.00476427)
(0.35551 2.20754e-23 -0.000259858)
(0.522817 3.18063e-25 -0.00352241)
(0.33877 -5.98746e-25 -0.00322546)
(0.516811 4.20494e-22 0.00427544)
(0.552081 0 -0.00311157)
(0.488193 0 -0.00723734)
(0.357504 0 -0.000840135)
(0.360472 6.00987e-25 -0.00274726)
(0.357102 -6.31342e-23 -0.000821254)
(0.512515 6.96967e-22 -0.0034605)
(0.355967 1.38429e-22 -0.0015661)
(0.267827 2.08945e-23 -0.00142155)
(0.506536 -2.56197e-22 -0.00237312)
(0.364307 1.94762e-22 -0.00199783)
(0.358367 4.98626e-22 -0.00175887)
(0.513256 -1.97123e-25 -0.00220036)
(0.504095 -8.70197e-22 -0.00291864)
(0.516955 -1.29871e-22 -0.00111665)
(0.278538 0 -0.00213745)
(0.354356 6.39061e-25 -0.00186638)
(0.270074 5.50608e-24 -0.00111568)
(0.506865 -5.21724e-22 -0.00294427)
(0.362202 0 -0.00166937)
(0.357554 0 -0.00201545)
(0.268456 0 -0.0004148)
(0.289028 6.64133e-23 -0.00127576)
(0.504851 -1.01382e-21 -0.00419219)
(0.354576 0 -0.00188349)
(0.363325 0 -0.00179229)
(0.360668 1.62026e-22 -0.00177028)
(0.507625 -1.29935e-25 -0.00248446)
(0.359992 3.46417e-25 -0.00197356)
(0.360846 4.85687e-25 -0.0017007)
(0.359363 0 -0.00184312)
(0.359192 1.78281e-22 -0.00171165)
(0.360517 -2.08019e-22 -0.00189956)
(0.359007 1.30381e-22 -0.00173535)
(0.266107 0 -0.00128483)
(0.358708 0 -0.00188916)
(0.360004 -2.50818e-22 -0.0017977)
(0.35879 0 -0.00185941)
(0.35862 5.80913e-25 -0.00165083)
(0.358362 -3.52854e-25 -0.00192467)
(0.50557 0 -0.0021644)
(0.508152 5.29531e-22 -0.00279889)
(0.360196 0 -0.00173656)
(0.510659 7.31435e-23 -0.00258321)
(0.357914 7.40086e-23 -0.00188262)
(0.364451 0 -0.00167665)
(0.356393 1.05431e-22 -0.00199734)
(0.271854 2.42837e-23 -0.000953524)
(0.503436 9.29738e-22 -0.0034669)
(0.363264 0 -0.00127123)
(0.357163 4.13323e-22 -0.00239157)
(0.509297 0 -0.00119058)
(0.362396 0 -0.00304703)
(0.5001 6.53208e-25 -0.000622456)
(0.291403 0 -0.00127905)
(0.25948 -9.67854e-22 -0.00227409)
(0.359475 5.71092e-22 -0.00110508)
(0.356901 -4.59526e-22 -0.00233705)
(0.505388 1.50532e-23 -0.00164825)
(0.504819 0 -0.00338751)
(0.360445 0 -0.00128977)
(0.355772 -1.24321e-26 -0.00235814)
(0.357742 -7.59697e-23 -0.00107716)
(0.359234 0 -0.00254613)
(0.35691 3.53684e-25 -0.00117232)
(0.363172 -1.21445e-21 -0.0025058)
(0.352408 2.28372e-25 -0.000899782)
(0.52183 6.17852e-22 -0.00171736)
(0.50089 1.63789e-21 -0.00444464)
(0.356636 6.94897e-25 -0.00118684)
(0.506432 0 -0.00314793)
(0.358867 0 -0.00140897)
(0.36201 -3.23085e-22 -0.00223037)
(0.358646 -2.46818e-25 -0.00139346)
(0.361786 -5.05377e-22 -0.00226699)
(0.354021 7.2441e-25 -0.00142357)
(0.277786 0 -0.000518123)
(0.283091 1.22984e-25 -0.0012336)
(0.508049 2.1067e-25 -0.00226218)
(0.512568 4.16446e-25 -0.00229934)
(0.510786 0 -0.0025784)
(0.514648 -4.16344e-25 -0.00249607)
(0.509449 -2.9001e-22 -0.00259164)
(0.517031 0 -0.00227171)
(0.505303 -2.96564e-22 -0.00223327)
(0.525961 4.94107e-22 0.0104947)
(0.64024 0 0.0131085)
(0.61622 1.18738e-25 -0.0030811)
(0.578875 -1.61514e-26 -0.00289437)
(0.588276 0 -0.00294138)
)
;

boundaryField
{
    inlet
    {
        type            calculated;
        value           uniform (0 0 0);
    }
    outlet
    {
        type            calculated;
        value           uniform (0 0 0);
    }
    sideWall
    {
        type            empty;
    }
}


// ************************************************************************* //
