/*--------------------------------*- C++ -*----------------------------------*\
| =========                 |                                                 |
| \\      /  F ield         | foam-extend: Open Source CFD                    |
|  \\    /   O peration     | Version:     3.2                                |
|   \\  /    A nd           | Web:         http://www.foam-extend.org         |
|    \\/     M anipulation  | For copyright notice see file Copyright         |
\*---------------------------------------------------------------------------*/
FoamFile
{
    version     2.0;
    format      ascii;
    class       areaScalarField;
    location    "50";
    object      Uf;
}
// * * * * * * * * * * * * * * * * * * * * * * * * * * * * * * * * * * * * * //

dimensions      [0 1 -1 0 0 0 0];

internalField   nonuniform List<scalar> 
300
(
0.100741
0.0805957
0.0694264
0.0695079
0.0684505
0.0684275
0.0679011
0.0678713
0.0676847
0.0677534
0.0677725
0.0678938
0.0680195
0.0682151
0.0684004
0.0686325
0.0688695
0.0691345
0.0693972
0.0696835
0.0699856
0.0702965
0.0706165
0.0709396
0.0712649
0.0715962
0.0719067
0.072179
0.0724086
0.0726008
0.0727609
0.0728936
0.0730044
0.0730954
0.0731721
0.0732345
0.0732881
0.0733309
0.073369
0.0733984
0.0734264
0.0734462
0.0734677
0.0734809
0.0734982
0.073506
0.0735204
0.0735231
0.0735402
0.0735318
0.0735613
0.0735265
0.0735923
0.0734947
0.0736605
0.0733976
0.0738326
0.073171
0.0744816
0.0719462
0.0614003
0.0622123
0.0644454
0.0643452
0.06504
0.0647578
0.0650561
0.0647628
0.0648944
0.064815
0.0647677
0.0652121
0.0652992
0.0653998
0.0652684
0.0654524
0.065184
0.0654885
0.0649985
0.0659104
0.0645898
0.0663515
0.0650638
0.0644262
0.0670814
0.0633788
0.0657898
0.0651174
0.066158
0.0653428
0.0644191
0.0652365
0.0645196
0.0658186
0.064355
0.0647786
0.0646891
0.0652638
0.0644233
0.0654117
0.0642344
0.0662867
0.0653932
0.0613531
0.069426
0.0685895
0.0626298
0.0643742
0.0648684
0.0644523
0.0652236
0.065126
0.065543
0.0654309
0.0649903
0.0643983
0.0652763
0.0650458
0.0646368
0.0660674
0.0640571
0.0659446
0.0672066
0.0646452
0.0644266
0.0652838
0.064824
0.0649032
0.0654165
0.0653371
0.0644336
0.066645
0.0632177
0.0666336
0.0693925
0.0634013
0.0647494
0.0649958
0.0651162
0.0650707
0.0652203
0.065293
0.0653735
0.0647515
0.0661848
0.065114
0.0648273
0.0654185
0.064923
0.0653232
0.0650766
0.0650098
0.0658413
0.0648738
0.0650431
0.0653614
0.0652125
0.0654541
0.0653174
0.0654387
0.0653792
0.0654382
0.0652965
0.0656035
0.065177
0.065791
0.064953
0.0663148
0.0648147
0.0656338
0.0654739
0.0652348
0.0662479
0.0667028
0.065535
0.0646865
0.0659403
0.0651754
0.0658067
0.0652834
0.0653789
0.0656798
0.0652593
0.0663691
0.0622379
0.0689331
0.0678712
0.0636839
0.065346
0.0649757
0.0656554
0.0648957
0.0662463
0.0644589
0.0659675
0.064668
0.0658545
0.0647588
0.0658589
0.064927
0.0655903
0.0651354
0.0651635
0.0657831
0.0645411
0.0670762
0.0643804
0.0651067
0.0670037
0.0632387
0.0665578
0.069966
0.0635009
0.0653379
0.0654982
0.0653001
0.0660043
0.0651431
0.0658264
0.0654282
0.0659435
0.0653194
0.0660724
0.065166
0.0665022
0.0664618
0.064894
0.0659799
0.065418
0.0657262
0.0652178
0.0655463
0.0668902
0.0651693
0.0649133
0.0657865
0.0655101
0.065492
0.0654566
0.0655671
0.065422
0.0654043
0.0655112
0.0653632
0.0655814
0.0653233
0.0654349
0.0652657
0.0652268
0.0651563
0.0652309
0.0654893
0.0654014
0.0657604
0.0651842
0.0658638
0.0650336
0.0660427
0.0650338
0.0657984
0.0651404
0.0656988
0.0656544
0.0648062
0.0674725
0.064555
0.0653827
0.0650188
0.0652347
0.0651502
0.0654722
0.0649229
0.0651834
0.0652491
0.0650865
0.0655794
0.0645752
0.0668562
0.0647209
0.0650634
0.0653179
0.065297
0.0655721
0.0653053
0.0655437
0.0647645
0.0661094
0.065991
0.0654667
0.0659316
0.0657551
0.0661474
0.0656322
0.0664064
0.0652438
0.0676005
0.0790348
0.0763411
0.0726101
0.0735488
)
;

boundaryField
{
    inlet
    {
        type            calculated;
        value           uniform 0;
    }
    outlet
    {
        type            calculated;
        value           uniform 0;
    }
    sideWall
    {
        type            empty;
    }
}


// ************************************************************************* //
