/*--------------------------------*- C++ -*----------------------------------*\
| =========                 |                                                 |
| \\      /  F ield         | foam-extend: Open Source CFD                    |
|  \\    /   O peration     | Version:     3.2                                |
|   \\  /    A nd           | Web:         http://www.foam-extend.org         |
|    \\/     M anipulation  | For copyright notice see file Copyright         |
\*---------------------------------------------------------------------------*/
FoamFile
{
    version     2.0;
    format      ascii;
    class       areaScalarField;
    location    "50";
    object      Uf2;
}
// * * * * * * * * * * * * * * * * * * * * * * * * * * * * * * * * * * * * * //

dimensions      [0 1 -1 0 0 0 0];

internalField   nonuniform List<scalar> 
300
(
0.0359687
0.0233336
0.0199462
0.0204312
0.020047
0.0200828
0.0198905
0.0198971
0.0198249
0.0198496
0.0198456
0.0198791
0.0199082
0.0199647
0.0200117
0.0200771
0.0201416
0.0202156
0.0202873
0.0203682
0.0204541
0.0205425
0.0206341
0.0207267
0.0208205
0.0209173
0.0210085
0.0210885
0.0211559
0.0212124
0.0212595
0.0212986
0.0213313
0.0213581
0.0213808
0.0213992
0.0214151
0.0214276
0.021439
0.0214475
0.021456
0.0214616
0.0214682
0.0214718
0.0214773
0.0214792
0.0214841
0.0214843
0.0214906
0.021486
0.0214982
0.0214824
0.0215105
0.0214677
0.0215393
0.0214248
0.0216133
0.0213238
0.0218708
0.0208395
0.016555
0.017588
0.0185134
0.0182994
0.0184962
0.018247
0.0182729
0.0180192
0.0180286
0.0179956
0.017989
0.0182138
0.0181478
0.0179761
0.0178509
0.0178484
0.0174284
0.0174033
0.0172491
0.0177984
0.0173342
0.0182011
0.0176606
0.0172467
0.0181081
0.0162694
0.0172899
0.0168606
0.0174516
0.0173532
0.0170932
0.0176219
0.017423
0.0178247
0.0168208
0.0169826
0.0170715
0.0174279
0.0169187
0.0171617
0.0167663
0.0179659
0.0177309
0.0157998
0.0189697
0.0184262
0.016026
0.017267
0.0175071
0.0171757
0.0174513
0.0175449
0.0180499
0.0181482
0.017963
0.0178377
0.0182873
0.0182059
0.0181392
0.0189242
0.0177833
0.0183643
0.0190523
0.0181894
0.0181282
0.0182397
0.0180045
0.0182521
0.0185908
0.0186672
0.0183651
0.0194525
0.0176926
0.018782
0.0201211
0.0178156
0.018688
0.0187992
0.0187696
0.0186892
0.0188186
0.0189928
0.0191474
0.0189946
0.019541
0.0189271
0.0189566
0.0193804
0.0190863
0.019277
0.0193072
0.0195329
0.0200425
0.0196262
0.0197664
0.0199346
0.0199796
0.020161
0.0200866
0.0201965
0.0202339
0.0203367
0.0203541
0.0205093
0.0201999
0.0203546
0.0199515
0.0205629
0.0200207
0.0205678
0.0205886
0.0206125
0.0211465
0.0211353
0.0204815
0.0202498
0.0208852
0.0204496
0.0207146
0.0205892
0.0204816
0.0202779
0.0198735
0.0203968
0.018521
0.0211699
0.0204926
0.0188429
0.0199399
0.0198731
0.0202806
0.0200616
0.0207649
0.0200282
0.0207931
0.0201218
0.020573
0.0200686
0.020568
0.0200468
0.0201268
0.0198733
0.0199863
0.0204475
0.0200367
0.0212019
0.0200508
0.0205547
0.0214999
0.0196856
0.0211444
0.0229677
0.0203501
0.0211667
0.0210595
0.0210861
0.021505
0.0210181
0.0212951
0.0212067
0.021328
0.0207357
0.0210614
0.0209961
0.0217351
0.021438
0.0204104
0.0208517
0.0207745
0.0210501
0.0206786
0.0205321
0.0209668
0.0203381
0.0204695
0.0207924
0.0205566
0.0206562
0.0207339
0.0208284
0.0208412
0.0207852
0.0207402
0.0206256
0.0207075
0.0206107
0.0204928
0.0201201
0.019876
0.0196641
0.0197149
0.020012
0.0200944
0.0203182
0.020113
0.020504
0.0201085
0.0205408
0.0201947
0.0206727
0.0205401
0.0208982
0.0209636
0.020706
0.0216323
0.0199169
0.0202097
0.0198337
0.0198413
0.0199647
0.0202378
0.0199041
0.0199078
0.0199977
0.0198138
0.0196767
0.0190569
0.0202395
0.0195196
0.0198514
0.0200401
0.0200899
0.0202917
0.0202895
0.0202586
0.0195403
0.0198563
0.0196877
0.0195903
0.0199836
0.0199937
0.0202176
0.020087
0.0205506
0.0201916
0.0212655
0.0255501
0.0239145
0.0224575
0.0229995
)
;

boundaryField
{
    inlet
    {
        type            calculated;
        value           uniform 0;
    }
    outlet
    {
        type            calculated;
        value           uniform 0;
    }
    sideWall
    {
        type            empty;
    }
}


// ************************************************************************* //
