/*--------------------------------*- C++ -*----------------------------------*\
| =========                 |                                                 |
| \\      /  F ield         | foam-extend: Open Source CFD                    |
|  \\    /   O peration     | Version:     3.2                                |
|   \\  /    A nd           | Web:         http://www.foam-extend.org         |
|    \\/     M anipulation  | For copyright notice see file Copyright         |
\*---------------------------------------------------------------------------*/
FoamFile
{
    version     2.0;
    format      ascii;
    class       areaVectorField;
    location    "50";
    object      uNormal;
}
// * * * * * * * * * * * * * * * * * * * * * * * * * * * * * * * * * * * * * //

dimensions      [0 0 0 0 0 0 0];

internalField   nonuniform List<vector> 
300
(
(0.00499994 -0 0.999988)
(0.00499994 -0 0.999988)
(0.00499994 -0 0.999988)
(0.00499994 -0 0.999988)
(0.00499994 -4.23511e-19 0.999988)
(0.00499994 -4.23511e-19 0.999988)
(0.00499994 -4.23511e-19 0.999988)
(0.00499994 -4.23511e-19 0.999988)
(0.00499994 -0 0.999988)
(0.00499994 -4.23511e-19 0.999988)
(0.00499994 -0 0.999988)
(0.00499994 4.23511e-19 0.999988)
(0.00499994 -0 0.999988)
(0.00499994 4.23511e-19 0.999988)
(0.00499994 -0 0.999988)
(0.00499994 -0 0.999988)
(0.00499994 4.23511e-19 0.999988)
(0.00499994 -4.23511e-19 0.999988)
(0.00499994 4.23511e-19 0.999988)
(0.00499994 -0 0.999988)
(0.00499994 -0 0.999988)
(0.00499994 -4.23511e-19 0.999988)
(0.00499994 -0 0.999988)
(0.00499994 -0 0.999988)
(0.00499994 -0 0.999988)
(0.00499994 -4.23511e-19 0.999988)
(0.00499994 -0 0.999988)
(0.00499994 -0 0.999988)
(0.00499994 -0 0.999988)
(0.00499994 -4.23511e-19 0.999988)
(0.00499994 -0 0.999988)
(0.00499994 -0 0.999988)
(0.00499994 -0 0.999988)
(0.00499994 -0 0.999988)
(0.00499994 -0 0.999988)
(0.00499994 -0 0.999988)
(0.00499994 -0 0.999988)
(0.00499994 -0 0.999988)
(0.00499994 -0 0.999988)
(0.00499994 -0 0.999988)
(0.00499994 -0 0.999988)
(0.00499994 -4.23511e-19 0.999988)
(0.00499994 -0 0.999988)
(0.00499994 -4.23511e-19 0.999988)
(0.00499994 -0 0.999988)
(0.00499994 -0 0.999988)
(0.00499994 -4.23511e-19 0.999988)
(0.00499994 -0 0.999988)
(0.00499994 -4.23511e-19 0.999988)
(0.00499994 -0 0.999988)
(0.00499994 -0 0.999988)
(0.00499994 -4.23511e-19 0.999988)
(0.00499994 -0 0.999988)
(0.00499994 -4.23511e-19 0.999988)
(0.00499994 -0 0.999988)
(0.00499994 -0 0.999988)
(0.00499994 -4.23511e-19 0.999988)
(0.00499994 -0 0.999988)
(0.00499994 -0 0.999988)
(0.0259127 -0 0.999664)
(0.0306084 -0 0.999531)
(0.0118301 -8.46974e-19 0.99993)
(0.00698555 8.47012e-19 0.999976)
(0.00526268 -0 0.999986)
(0.00522481 -0 0.999986)
(0.00499297 -0 0.999988)
(0.00497306 -0 0.999988)
(0.00521821 -0 0.999986)
(0.00467142 -0 0.999989)
(0.00603718 -4.23509e-19 0.999982)
(0.00506579 -0 0.999987)
(0.00507511 -4.23511e-19 0.999987)
(0.00499414 -0 0.999988)
(0.00492228 4.23511e-19 0.999988)
(0.00491364 -4.23511e-19 0.999988)
(0.00529529 -4.23511e-19 0.999986)
(0.00491309 -0 0.999988)
(0.0046367 -4.23512e-19 0.999989)
(0.00517934 -4.23511e-19 0.999987)
(0.00463394 -0 0.999989)
(0.00602741 4.23509e-19 0.999982)
(0.00202786 2.11758e-19 0.999998)
(0.00987361 -8.46992e-19 0.999951)
(0.000388334 -5.29396e-20 1)
(0.00532328 -4.2351e-19 0.999986)
(0.00837852 -0 0.999965)
(0.00150522 -0 0.999999)
(0.00602927 -0 0.999982)
(0.00139924 1.05879e-19 0.999999)
(0.0101629 -0 0.999948)
(0.00378461 -0 0.999993)
(0.00608502 4.23509e-19 0.999981)
(0.00365482 -0 0.999993)
(0.00497712 -0 0.999988)
(0.00623781 -0 0.999981)
(0.00406544 -0 0.999992)
(0.00556125 -0 0.999985)
(0.00468694 -4.23512e-19 0.999989)
(0.00592074 -0 0.999982)
(0.00372183 4.23514e-19 0.999993)
(0.00549681 -4.2351e-19 0.999985)
(0.000427044 5.29396e-20 1)
(0.013754 -1.69391e-18 0.999905)
(0.00160182 -0 0.999999)
(-0.0118596 -8.46973e-19 0.99993)
(0.0113504 -0 0.999936)
(0.0145992 -0 0.999893)
(0.00500154 -0 0.999987)
(0.00585834 -0 0.999983)
(0.00414663 4.23513e-19 0.999991)
(0.00366556 -0 0.999993)
(0.00488184 4.23511e-19 0.999988)
(0.00331639 -4.23514e-19 0.999995)
(0.00578546 -0 0.999983)
(0.0069127 8.47013e-19 0.999976)
(0.00616038 -0 0.999981)
(0.00338998 4.23514e-19 0.999994)
(0.0071499 8.47011e-19 0.999974)
(0.00278028 2.11757e-19 0.999996)
(0.00513786 -0 0.999987)
(0.00753364 8.47009e-19 0.999972)
(-0.00191346 -0 0.999998)
(0.00519342 -0 0.999987)
(0.0100212 -0 0.99995)
(0.00589183 4.23509e-19 0.999983)
(0.0038567 -0 0.999993)
(0.00558498 -0 0.999984)
(0.00428767 -0 0.999991)
(0.00455868 -4.23512e-19 0.99999)
(0.00673091 -0 0.999977)
(0.00402676 -4.23513e-19 0.999992)
(0.00376686 -0 0.999993)
(0.00905158 -8.46998e-19 0.999959)
(-0.00914142 -8.46998e-19 0.999958)
(0.00770278 -0 0.99997)
(0.01425 -0 0.999898)
(0.00449579 -0 0.99999)
(0.00550875 -0 0.999985)
(0.00422035 -0 0.999991)
(0.00567685 -0 0.999984)
(0.00428161 4.23513e-19 0.999991)
(0.00544452 -0 0.999985)
(0.00500938 -0 0.999987)
(0.00471782 -4.23512e-19 0.999989)
(0.00252261 -0 0.999997)
(0.00840429 -0 0.999965)
(0.00373227 4.23514e-19 0.999993)
(0.00616896 -0 0.999981)
(0.00424512 -0 0.999991)
(0.00495807 -0 0.999988)
(0.00532023 -4.2351e-19 0.999986)
(0.00428256 -0 0.999991)
(0.00427198 -0 0.999991)
(0.00709815 -0 0.999975)
(0.00364496 4.23514e-19 0.999993)
(0.00588247 -0 0.999983)
(0.00421931 -4.23513e-19 0.999991)
(0.00564241 -0 0.999984)
(0.00454495 -0 0.99999)
(0.00554734 -0 0.999985)
(0.00437441 4.23512e-19 0.99999)
(0.0054631 -0 0.999985)
(0.0045639 -0 0.99999)
(0.00551527 -4.2351e-19 0.999985)
(0.00481634 -0 0.999988)
(0.00492592 -0 0.999988)
(0.00524306 -0 0.999986)
(0.00365871 -0 0.999993)
(0.00728815 8.4701e-19 0.999973)
(0.00257241 -0 0.999997)
(0.00759077 8.47009e-19 0.999971)
(0.00266864 -2.11757e-19 0.999996)
(0.00300353 -0 0.999995)
(0.00369784 -0 0.999993)
(0.00948591 -8.46995e-19 0.999955)
(0.00484745 -0 0.999988)
(0.00495261 -4.23511e-19 0.999988)
(0.00549779 -0 0.999985)
(0.00396769 4.23513e-19 0.999992)
(0.00599116 -0 0.999982)
(0.0043114 4.23513e-19 0.999991)
(0.00571741 -4.2351e-19 0.999984)
(0.00286835 -0 0.999996)
(0.00815219 -0 0.999967)
(0.00595248 -0 0.999982)
(-0.00999723 8.46991e-19 0.99995)
(0.0134113 -0 0.99991)
(0.00882996 -0 0.999961)
(0.00585651 -0 0.999983)
(0.00401568 -0 0.999992)
(0.00598889 4.23509e-19 0.999982)
(0.00416375 4.23513e-19 0.999991)
(0.0045256 -0 0.99999)
(0.00660847 8.47014e-19 0.999978)
(0.00327991 -0 0.999995)
(0.00718536 -0 0.999974)
(0.00240994 -0 0.999997)
(0.00758081 8.47009e-19 0.999971)
(0.00216586 -2.11758e-19 0.999998)
(0.00839047 -8.47003e-19 0.999965)
(0.00153785 -0 0.999999)
(0.00823756 -8.47004e-19 0.999966)
(0.00157915 -2.11758e-19 0.999999)
(0.00839978 -0 0.999965)
(0.0018597 -0 0.999998)
(0.00416184 -4.23513e-19 0.999991)
(0.00958448 -0 0.999954)
(0.000730945 -5.29395e-20 1)
(0.00673721 -0 0.999977)
(0.00952067 -0 0.999955)
(-0.00827245 8.47004e-19 0.999966)
(0.00563598 -0 0.999984)
(0.0148231 -0 0.99989)
(0.00235 -0 0.999997)
(0.00762104 -0 0.999971)
(0.00229976 2.11758e-19 0.999997)
(0.00675184 -8.47014e-19 0.999977)
(0.00439952 4.23512e-19 0.99999)
(0.00530763 4.23511e-19 0.999986)
(0.00468495 4.23512e-19 0.999989)
(0.00548384 4.2351e-19 0.999985)
(0.00490796 4.23511e-19 0.999988)
(0.00428703 -0 0.999991)
(0.00578976 4.23509e-19 0.999983)
(0.00216006 2.11758e-19 0.999998)
(0.00767359 -0 0.999971)
(0.00526689 -0 0.999986)
(0.004131 4.23513e-19 0.999991)
(0.00580868 4.23509e-19 0.999983)
(0.0046089 -0 0.999989)
(0.00563669 -0 0.999984)
(0.00154513 -0 0.999999)
(0.00441395 4.23512e-19 0.99999)
(0.00830354 8.47004e-19 0.999966)
(0.00531187 -0 0.999986)
(0.00493297 -0 0.999988)
(0.00490827 4.23511e-19 0.999988)
(0.00489422 -0 0.999988)
(0.00548217 -0 0.999985)
(0.00471302 -0 0.999989)
(0.0051288 -0 0.999987)
(0.00476522 4.23512e-19 0.999989)
(0.00526891 -4.23511e-19 0.999986)
(0.0048337 4.23512e-19 0.999988)
(0.0048282 -0 0.999988)
(0.00526649 -0 0.999986)
(0.00499349 -4.23511e-19 0.999988)
(0.00518238 -0 0.999987)
(0.00460323 -0 0.999989)
(0.00537066 -0 0.999986)
(0.00428106 -0 0.999991)
(0.00550789 -4.2351e-19 0.999985)
(0.00482111 -0 0.999988)
(0.00505851 -4.23511e-19 0.999987)
(0.00525991 -4.23511e-19 0.999986)
(0.00460042 -0 0.999989)
(0.00560424 4.2351e-19 0.999984)
(0.00350746 4.23514e-19 0.999994)
(0.00688632 -8.47013e-19 0.999976)
(0.00349944 -0 0.999994)
(0.00669588 -8.47014e-19 0.999978)
(0.00233769 -0 0.999997)
(0.00840771 -0 0.999965)
(0.00124466 1.05879e-19 0.999999)
(0.00438926 -0 0.99999)
(0.00876369 -8.47e-19 0.999962)
(0.00307412 4.23514e-19 0.999995)
(0.00654804 -8.47015e-19 0.999979)
(0.00326134 -4.23514e-19 0.999995)
(0.00671019 -0 0.999977)
(0.00357824 -0 0.999994)
(0.00662809 -0 0.999978)
(0.00301097 -2.11757e-19 0.999995)
(0.00708748 -0 0.999975)
(0.00328462 -0 0.999995)
(0.0068996 -8.47013e-19 0.999976)
(0.00255323 -0 0.999997)
(0.00329101 -4.23514e-19 0.999995)
(0.00887314 -8.47e-19 0.999961)
(0.00332785 -0 0.999994)
(0.00621578 -0 0.999981)
(0.00392613 -0 0.999992)
(0.00616095 8.47017e-19 0.999981)
(0.00388529 -0 0.999992)
(0.00626599 -8.47016e-19 0.99998)
(0.00402113 -0 0.999992)
(0.00186518 -0 0.999998)
(0.00435757 -0 0.999991)
(0.00445263 -0 0.99999)
(0.00448587 -0 0.99999)
(0.00504784 -0 0.999987)
(0.00484999 -0 0.999988)
(0.00508708 4.23511e-19 0.999987)
(0.00439371 -0 0.99999)
(0.00441961 4.23512e-19 0.99999)
(-0.0199494 1.69373e-18 0.999801)
(-0.0204701 -0 0.99979)
(0.00499994 -0 0.999988)
(0.00499994 -0 0.999988)
(0.00499994 -0 0.999988)
)
;

boundaryField
{
    inlet
    {
        type            calculated;
        value           uniform (0 0 0);
    }
    outlet
    {
        type            calculated;
        value           uniform (0 0 0);
    }
    sideWall
    {
        type            empty;
    }
}


// ************************************************************************* //
