/*--------------------------------*- C++ -*----------------------------------*\
| =========                 |                                                 |
| \\      /  F ield         | foam-extend: Open Source CFD                    |
|  \\    /   O peration     | Version:     3.2                                |
|   \\  /    A nd           | Web:         http://www.foam-extend.org         |
|    \\/     M anipulation  | For copyright notice see file Copyright         |
\*---------------------------------------------------------------------------*/
FoamFile
{
    version     2.0;
    format      ascii;
    class       areaVectorField;
    location    "50";
    object      Utau;
}
// * * * * * * * * * * * * * * * * * * * * * * * * * * * * * * * * * * * * * //

dimensions      [0 1 -1 0 0 0 0];

internalField   nonuniform List<vector> 
300
(
(1.007 -1.72671e-25 -0.00503498)
(0.805937 2.62999e-25 -0.00402968)
(0.694255 1.06234e-25 -0.00347128)
(0.69507 0 -0.00347535)
(0.684496 -7.3696e-23 -0.00342248)
(0.684266 -1.83908e-23 -0.00342133)
(0.679003 -2.71056e-23 -0.00339501)
(0.678705 -5.78129e-24 -0.00339352)
(0.676839 0 -0.00338419)
(0.677526 -4.77114e-24 -0.00338763)
(0.677717 0 -0.00338858)
(0.67893 6.30672e-24 -0.00339465)
(0.680187 -7.70708e-28 -0.00340093)
(0.682142 8.09686e-24 -0.00341071)
(0.683995 0 -0.00341998)
(0.686317 0 -0.00343158)
(0.688687 9.21746e-24 -0.00344343)
(0.691336 -8.63894e-24 -0.00345668)
(0.693963 9.39972e-24 -0.00346982)
(0.696826 0 -0.00348413)
(0.699847 0 -0.00349924)
(0.702956 -9.77739e-24 -0.00351478)
(0.706156 0 -0.00353078)
(0.709387 0 -0.00354693)
(0.71264 0 -0.0035632)
(0.715953 -8.84597e-24 -0.00357976)
(0.719058 -3.48108e-27 -0.00359529)
(0.721781 0 -0.0036089)
(0.724077 0 -0.00362038)
(0.725999 -3.6506e-24 -0.00362999)
(0.7276 -1.95818e-27 -0.003638)
(0.728927 0 -0.00364464)
(0.730035 0 -0.00365017)
(0.730945 0 -0.00365473)
(0.731712 -9.85401e-28 -0.00365856)
(0.732336 0 -0.00366168)
(0.732872 0 -0.00366436)
(0.733299 -5.8211e-28 -0.0036665)
(0.733681 0 -0.00366841)
(0.733974 0 -0.00366987)
(0.734255 0 -0.00367127)
(0.734453 -2.54236e-25 -0.00367226)
(0.734668 0 -0.00367334)
(0.734799 -1.61363e-25 -0.003674)
(0.734973 0 -0.00367486)
(0.735051 0 -0.00367525)
(0.735195 -2.54342e-25 -0.00367597)
(0.735222 9.95088e-29 -0.00367611)
(0.735392 -3.90004e-25 -0.00367696)
(0.735309 0 -0.00367654)
(0.735604 0 -0.00367802)
(0.735256 1.67985e-24 -0.00367628)
(0.735914 0 -0.00367957)
(0.734938 4.58549e-24 -0.00367469)
(0.736596 0 -0.00368298)
(0.733966 3.4224e-28 -0.00366983)
(0.738317 -2.0306e-23 -0.00369158)
(0.731701 0 -0.0036585)
(0.744806 0 -0.00372403)
(0.71922 0 -0.0186432)
(0.613715 3.97946e-24 -0.0187936)
(0.622077 -1.32357e-21 -0.00735974)
(0.644438 6.93234e-22 -0.00450186)
(0.643443 0 -0.00338628)
(0.650391 0 -0.00339821)
(0.64757 5.80349e-25 -0.00323334)
(0.650553 -5.91515e-25 -0.00323528)
(0.647619 0 -0.00337946)
(0.648937 0 -0.00303149)
(0.648139 7.68239e-23 -0.003913)
(0.647668 0 -0.00328099)
(0.652112 -5.83499e-23 -0.00330959)
(0.652983 0 -0.00326113)
(0.653988 7.0426e-22 -0.00321915)
(0.652676 -8.95063e-23 -0.00320705)
(0.654514 -4.38012e-22 -0.00346589)
(0.651825 1.17399e-24 -0.00320252)
(0.654877 -4.68928e-22 -0.0030365)
(0.649975 5.30322e-22 -0.00336648)
(0.659096 0 -0.00305424)
(0.645885 -5.06868e-22 -0.00389308)
(0.663514 2.28717e-23 -0.00134551)
(0.650606 -4.18829e-22 -0.00642415)
(0.644257 -1.34733e-22 -0.000250187)
(0.670801 -9.06384e-22 -0.00357091)
(0.633765 0 -0.0053102)
(0.657895 0 -0.000990275)
(0.651162 -5.97791e-25 -0.0039261)
(0.661576 -1.97113e-22 -0.000925702)
(0.65339 0 -0.0066407)
(0.644187 0 -0.00243801)
(0.652352 -7.65197e-23 -0.00396965)
(0.645191 0 -0.00235808)
(0.658175 0 -0.00327585)
(0.64353 -2.74717e-24 -0.00401429)
(0.647781 0 -0.00263353)
(0.646878 0 -0.00359751)
(0.65263 3.88211e-22 -0.00305887)
(0.64422 0 -0.00381433)
(0.65411 7.97651e-22 -0.0024345)
(0.642332 8.22144e-22 -0.00353083)
(0.66286 -1.57947e-22 -0.00028307)
(0.653868 2.75692e-21 -0.00899415)
(0.613524 2.28219e-25 -0.000982754)
(0.694201 -3.25094e-21 0.00823352)
(0.68585 -2.20662e-24 -0.00778518)
(0.626224 0 -0.00914332)
(0.643733 0 -0.0032197)
(0.648673 0 -0.00380021)
(0.644516 6.82397e-22 -0.00267259)
(0.652231 -1.03647e-24 -0.00239081)
(0.651248 -1.00807e-21 -0.00317933)
(0.655419 1.30049e-21 -0.00217364)
(0.654297 1.3011e-24 -0.00378547)
(0.649887 -4.87803e-22 -0.00449258)
(0.64397 0 -0.00396718)
(0.652759 -1.62981e-22 -0.00221286)
(0.650441 -3.97342e-22 -0.0046507)
(0.646365 -1.38973e-22 -0.00179709)
(0.660665 0 -0.00339445)
(0.640553 7.5249e-22 -0.00482583)
(0.659442 0 0.00126182)
(0.672053 0 -0.00349031)
(0.646415 2.2432e-24 -0.00647816)
(0.644254 5.27012e-22 -0.0037959)
(0.652829 -8.52116e-25 -0.00251778)
(0.64823 0 -0.00362041)
(0.649022 0 -0.00278282)
(0.654157 6.17278e-22 -0.00298212)
(0.653356 0 -0.00439778)
(0.64433 4.12181e-22 -0.00259459)
(0.666445 0 -0.00251042)
(0.63215 -1.27432e-21 -0.00572219)
(0.666302 -2.51144e-21 0.0060912)
(0.693899 0 -0.00534511)
(0.633939 -4.31742e-24 -0.00903455)
(0.647487 -1.14968e-24 -0.00291099)
(0.649948 0 -0.00358046)
(0.651156 1.41412e-25 -0.00274813)
(0.650696 0 -0.00369396)
(0.652197 -3.01201e-22 -0.00279248)
(0.652919 6.18716e-25 -0.00355488)
(0.653726 0 -0.0032748)
(0.647508 2.8967e-22 -0.00305486)
(0.661845 0 -0.00166959)
(0.651117 0 -0.00547237)
(0.648268 -3.39072e-22 -0.00241953)
(0.654172 0 -0.00403564)
(0.649224 -3.69225e-25 -0.00275606)
(0.653224 1.06156e-25 -0.00323877)
(0.650755 5.95389e-22 -0.00346222)
(0.65009 -1.15011e-24 -0.00278407)
(0.658406 0 -0.00281272)
(0.648721 0 -0.00460484)
(0.650427 1.17176e-22 -0.0023708)
(0.653602 0 -0.00384486)
(0.652118 5.19945e-22 -0.00275152)
(0.654529 0 -0.00369318)
(0.653168 0 -0.00296864)
(0.654376 0 -0.0036301)
(0.653786 -2.69615e-22 -0.00285995)
(0.654372 6.69418e-26 -0.00357495)
(0.652957 0 -0.00298006)
(0.656024 2.6097e-22 -0.0036182)
(0.651762 4.50511e-25 -0.00313914)
(0.657902 0 -0.00324081)
(0.649521 3.4201e-25 -0.00340553)
(0.663144 0 -0.00242627)
(0.648129 -1.04899e-21 -0.00472378)
(0.656336 1.12841e-25 -0.00168837)
(0.65472 -6.67798e-22 -0.00496997)
(0.652345 8.17485e-23 -0.00174088)
(0.662476 -3.47164e-25 -0.00198978)
(0.667023 0 -0.00246656)
(0.65532 -4.97169e-22 -0.00621658)
(0.646857 0 -0.00313564)
(0.659395 2.97436e-22 -0.00326577)
(0.651744 4.39623e-25 -0.0035832)
(0.658062 1.2043e-22 -0.00261101)
(0.652821 -4.3246e-25 -0.00391123)
(0.653782 4.09964e-22 -0.00281875)
(0.656783 -1.01907e-21 -0.00375516)
(0.652589 5.43793e-25 -0.00187186)
(0.663669 1.5212e-25 -0.00541054)
(0.622367 0 -0.00370469)
(0.68929 2.47369e-21 0.00689134)
(0.67865 0 -0.0091024)
(0.636813 -3.93556e-25 -0.00562325)
(0.653448 0 -0.00382699)
(0.649751 0 -0.00260921)
(0.656541 -3.53849e-22 -0.00393202)
(0.648951 -3.27916e-22 -0.0027021)
(0.662456 7.71453e-25 -0.00299804)
(0.644575 -2.9508e-22 -0.00425975)
(0.659671 0 -0.00216367)
(0.646663 -4.98273e-25 -0.00464663)
(0.658543 0 -0.00158705)
(0.647569 -4.56521e-22 -0.00490924)
(0.658588 -4.5134e-23 -0.00142641)
(0.649247 -8.76898e-23 -0.00544768)
(0.655899 3.92118e-25 -0.00100868)
(0.651332 -8.58494e-24 -0.00536557)
(0.651633 1.98932e-22 -0.00102903)
(0.657806 0 -0.00552561)
(0.645409 0 -0.00120027)
(0.670756 3.63188e-22 -0.0027916)
(0.643773 4.02612e-25 -0.00617051)
(0.651066 4.04279e-23 -0.000475894)
(0.670021 4.07616e-25 -0.00451417)
(0.632359 -1.11764e-24 -0.00602075)
(0.665555 5.41517e-22 0.00550596)
(0.699644 0 -0.00394324)
(0.634935 0 -0.00941276)
(0.653376 0 -0.00153543)
(0.654962 1.09197e-24 -0.00499164)
(0.652999 -1.15447e-22 -0.00150175)
(0.660027 8.97568e-22 -0.0044565)
(0.651424 2.53327e-22 -0.00286598)
(0.658254 5.13538e-23 -0.00349382)
(0.654274 -3.3092e-22 -0.00306528)
(0.659425 3.52534e-22 -0.00361623)
(0.653183 9.08826e-22 -0.00320583)
(0.660717 -2.53758e-25 -0.00283254)
(0.651644 -1.1249e-21 -0.00377293)
(0.66502 -1.67068e-22 -0.00143648)
(0.664596 0 -0.00509999)
(0.648926 1.1703e-24 -0.00341787)
(0.659794 1.34514e-23 -0.00272563)
(0.654167 -6.73344e-22 -0.00379991)
(0.657255 0 -0.00302925)
(0.652166 0 -0.00367612)
(0.655459 0 -0.00101277)
(0.668895 1.537e-22 -0.0029525)
(0.651669 -1.30865e-21 -0.00541135)
(0.649123 0 -0.0034481)
(0.657857 0 -0.00324523)
(0.655093 2.94294e-22 -0.00321541)
(0.654911 -1.67636e-25 -0.00320532)
(0.654555 6.29872e-25 -0.00358844)
(0.655664 8.82501e-25 -0.00309019)
(0.654211 0 -0.00335536)
(0.654035 3.24622e-22 -0.00311665)
(0.655103 -3.77996e-22 -0.00345172)
(0.653625 2.37378e-22 -0.00315946)
(0.655807 0 -0.00316641)
(0.653224 0 -0.00344025)
(0.65434 -4.55885e-22 -0.00326748)
(0.652644 0 -0.00338229)
(0.652258 1.05656e-24 -0.00300253)
(0.651552 -6.41536e-25 -0.00349932)
(0.652304 0 -0.00279257)
(0.654881 6.82433e-22 -0.00360707)
(0.654006 0 -0.00315307)
(0.657596 9.41898e-23 -0.0033265)
(0.651832 1.34784e-22 -0.00342863)
(0.658631 0 -0.00303001)
(0.650325 1.92384e-22 -0.00364464)
(0.660423 5.89931e-23 -0.00231642)
(0.650321 1.201e-21 -0.00447842)
(0.657979 0 -0.00230257)
(0.651389 7.53814e-22 -0.00436172)
(0.656986 0 -0.00153583)
(0.65652 0 -0.00552003)
(0.648061 8.46468e-25 -0.000806618)
(0.674716 0 -0.00296153)
(0.645519 -2.40777e-21 -0.00565735)
(0.653819 1.03871e-21 -0.00200993)
(0.650173 -8.37127e-22 -0.00425745)
(0.652344 1.94303e-23 -0.00212753)
(0.651485 0 -0.00437169)
(0.654717 0 -0.00234275)
(0.649214 -2.26862e-26 -0.00430315)
(0.651831 -1.38422e-22 -0.00196265)
(0.652474 0 -0.00462451)
(0.65086 6.44978e-25 -0.00213784)
(0.655774 -2.19292e-21 -0.00452469)
(0.645749 4.18467e-25 -0.00164875)
(0.668556 7.91577e-22 -0.00220024)
(0.647178 2.11625e-21 -0.00574273)
(0.65063 1.26774e-24 -0.00216521)
(0.653166 0 -0.00406002)
(0.652965 0 -0.00256365)
(0.655709 -5.85204e-22 -0.00403986)
(0.653048 -4.49424e-25 -0.0025373)
(0.655423 -9.15558e-22 -0.00410696)
(0.647634 1.32521e-24 -0.00260424)
(0.66109 0 -0.00123306)
(0.659904 2.86684e-25 -0.0028756)
(0.65466 2.71465e-25 -0.00291499)
(0.659309 5.35668e-25 -0.00295761)
(0.657542 0 -0.00331921)
(0.661466 -5.35119e-25 -0.00320814)
(0.656313 -3.73613e-22 -0.00333876)
(0.664057 0 -0.0029177)
(0.652431 -3.82914e-22 -0.00288352)
(0.67587 6.34938e-22 0.0134859)
(0.790182 0 0.0161785)
(0.7634 1.47098e-25 -0.003817)
(0.726092 -2.0259e-26 -0.00363046)
(0.735478 0 -0.00367739)
)
;

boundaryField
{
    inlet
    {
        type            calculated;
        value           uniform (0 0 0);
    }
    outlet
    {
        type            calculated;
        value           uniform (0 0 0);
    }
    sideWall
    {
        type            empty;
    }
}


// ************************************************************************* //
