/*--------------------------------*- C++ -*----------------------------------*\
| =========                 |                                                 |
| \\      /  F ield         | foam-extend: Open Source CFD                    |
|  \\    /   O peration     | Version:     3.2                                |
|   \\  /    A nd           | Web:         http://www.foam-extend.org         |
|    \\/     M anipulation  | For copyright notice see file Copyright         |
\*---------------------------------------------------------------------------*/
FoamFile
{
    version     2.0;
    format      ascii;
    class       areaScalarField;
    location    "50";
    object      volA;
}
// * * * * * * * * * * * * * * * * * * * * * * * * * * * * * * * * * * * * * //

dimensions      [0 3 0 0 0 0 0];

internalField   nonuniform List<scalar> 
300
(
9.44456e-07
9.44456e-07
9.44456e-07
9.44456e-07
9.44456e-07
9.44456e-07
9.44456e-07
9.44456e-07
9.44456e-07
9.44456e-07
9.44456e-07
9.44456e-07
9.44456e-07
9.44456e-07
9.44456e-07
9.44456e-07
9.44456e-07
9.44456e-07
9.44456e-07
9.44456e-07
9.44456e-07
9.44456e-07
9.44456e-07
9.44456e-07
9.44456e-07
9.44456e-07
9.44456e-07
9.44456e-07
9.44456e-07
9.44456e-07
9.44456e-07
9.44456e-07
9.44456e-07
9.44456e-07
9.44456e-07
9.44456e-07
9.44456e-07
9.44456e-07
9.44456e-07
9.44456e-07
9.44456e-07
9.44456e-07
9.44456e-07
9.44456e-07
9.44456e-07
9.44456e-07
9.44456e-07
9.44456e-07
9.44456e-07
9.44456e-07
9.44456e-07
9.44456e-07
9.44456e-07
9.44456e-07
9.44456e-07
9.44456e-07
9.44456e-07
9.44456e-07
9.44456e-07
8.28492e-07
1.06792e-06
9.99297e-07
9.95293e-07
9.76039e-07
9.84278e-07
9.76931e-07
9.84555e-07
9.72155e-07
9.81706e-07
9.56238e-07
5.87714e-07
3.70644e-07
4.45019e-07
3.22055e-07
4.19986e-07
5.25748e-07
3.92336e-07
6.46017e-07
4.44122e-07
8.26824e-07
5.12243e-07
1.06569e-06
5.04812e-07
8.88283e-07
1.03586e-06
8.94643e-07
7.64408e-07
1.05594e-06
1.04307e-06
1.01219e-06
8.72237e-07
7.45056e-07
6.38681e-07
1.01454e-06
8.45978e-07
6.45747e-07
8.29223e-07
7.71624e-07
6.95304e-07
8.8324e-07
8.36727e-07
1.10592e-06
7.03876e-07
3.77179e-07
1.22784e-06
1.47081e-06
1.0039e-06
7.28479e-07
7.41929e-07
4.94537e-07
1.06876e-06
9.27917e-07
1.12264e-06
9.9754e-07
1.03135e-06
7.12197e-07
8.01162e-07
6.12039e-07
7.61059e-07
9.19499e-07
4.14011e-07
1.1349e-06
1.10132e-06
1.08074e-06
4.68073e-07
9.95951e-07
6.10448e-07
7.7291e-07
9.80722e-07
4.90044e-07
7.603e-07
9.87644e-07
7.52904e-07
1.02302e-06
1.38296e-06
9.59022e-07
6.76132e-07
7.52525e-07
5.70096e-07
6.84644e-07
6.98448e-07
7.98009e-07
5.30308e-07
9.68679e-07
1.02128e-06
9.93616e-07
7.2814e-07
8.83518e-07
4.95423e-07
9.60333e-07
4.95383e-07
9.22156e-07
9.63659e-07
9.77707e-07
6.3909e-07
7.89651e-07
6.48136e-07
7.46761e-07
7.23694e-07
6.4852e-07
7.91059e-07
5.78238e-07
7.23926e-07
7.91792e-07
7.17565e-07
8.73733e-07
6.30985e-07
1.05005e-06
5.62821e-07
7.60574e-07
7.25505e-07
4.74999e-07
1.14467e-06
1.03944e-06
1.06085e-06
4.53766e-07
9.54426e-07
6.17535e-07
7.85693e-07
6.76883e-07
8.98918e-07
8.79674e-07
9.93693e-07
7.44733e-07
3.81117e-07
1.15872e-06
1.26048e-06
9.13458e-07
6.33521e-07
6.71049e-07
6.93306e-07
5.74299e-07
1.04747e-06
4.14542e-07
9.24898e-07
5.44763e-07
9.90031e-07
5.42766e-07
9.99243e-07
5.64483e-07
9.16738e-07
6.66787e-07
7.27472e-07
7.31962e-07
5.14158e-07
1.11524e-06
3.76543e-07
9.54304e-07
9.0954e-07
5.34805e-07
1.00779e-06
1.34188e-06
9.25953e-07
5.86295e-07
7.27062e-07
5.36612e-07
9.55754e-07
4.59765e-07
8.75483e-07
5.87731e-07
7.74917e-07
7.75871e-07
9.01044e-07
7.3149e-07
9.21218e-07
1.02591e-06
5.86582e-07
8.77973e-07
5.81857e-07
7.38945e-07
6.35375e-07
1.0972e-06
1.03744e-06
1.02243e-06
7.99129e-07
8.03101e-07
6.40355e-07
6.8246e-07
6.27729e-07
6.15411e-07
6.44784e-07
6.217e-07
7.14236e-07
5.71199e-07
8.20326e-07
5.57239e-07
8.33442e-07
6.08205e-07
8.04297e-07
7.1698e-07
6.97564e-07
7.97062e-07
6.7491e-07
8.88835e-07
6.04896e-07
9.46376e-07
4.84789e-07
1.00938e-06
4.58839e-07
9.41053e-07
5.72715e-07
1.04776e-06
5.06759e-07
9.01881e-07
1.01475e-06
9.75201e-07
8.29237e-07
6.58424e-07
7.80454e-07
5.85704e-07
8.90377e-07
5.39071e-07
7.84162e-07
5.21013e-07
8.64116e-07
4.56248e-07
8.13056e-07
1.00832e-06
9.8833e-07
5.89577e-07
8.17441e-07
5.68644e-07
7.84467e-07
5.88333e-07
7.28482e-07
5.99002e-07
1.07804e-06
1.11313e-06
1.12285e-06
1.14534e-06
1.14461e-06
1.16148e-06
1.14625e-06
1.18202e-06
1.17256e-06
1.36884e-06
8.03088e-07
9.44456e-07
9.44456e-07
9.44456e-07
)
;

boundaryField
{
    inlet
    {
        type            calculated;
        value           uniform 0;
    }
    outlet
    {
        type            calculated;
        value           uniform 0;
    }
    sideWall
    {
        type            empty;
    }
}


// ************************************************************************* //
