/*--------------------------------*- C++ -*----------------------------------*\
| =========                 |                                                 |
| \\      /  F ield         | foam-extend: Open Source CFD                    |
|  \\    /   O peration     | Version:     3.2                                |
|   \\  /    A nd           | Web:         http://www.foam-extend.org         |
|    \\/     M anipulation  | For copyright notice see file Copyright         |
\*---------------------------------------------------------------------------*/
FoamFile
{
    version     2.0;
    format      ascii;
    class       areaScalarField;
    location    "50";
    object      volC;
}
// * * * * * * * * * * * * * * * * * * * * * * * * * * * * * * * * * * * * * //

dimensions      [0 3 0 0 0 0 0];

internalField   nonuniform List<scalar> 
300
(
3.3056e-06
3.3056e-06
3.3056e-06
3.3056e-06
3.3056e-06
3.3056e-06
3.3056e-06
3.3056e-06
3.3056e-06
3.3056e-06
3.3056e-06
3.3056e-06
3.3056e-06
3.3056e-06
3.3056e-06
3.3056e-06
3.3056e-06
3.3056e-06
3.3056e-06
3.3056e-06
3.3056e-06
3.3056e-06
3.3056e-06
3.3056e-06
3.3056e-06
3.3056e-06
3.3056e-06
3.3056e-06
3.3056e-06
3.3056e-06
3.3056e-06
3.3056e-06
3.3056e-06
3.3056e-06
3.3056e-06
3.3056e-06
3.3056e-06
3.3056e-06
3.3056e-06
3.3056e-06
3.3056e-06
3.3056e-06
3.3056e-06
3.3056e-06
3.3056e-06
3.3056e-06
3.3056e-06
3.3056e-06
3.3056e-06
3.3056e-06
3.3056e-06
3.3056e-06
3.3056e-06
3.3056e-06
3.3056e-06
3.3056e-06
3.3056e-06
3.3056e-06
3.3056e-06
2.89972e-06
1.49664e-06
7.52844e-07
5.36347e-07
4.99372e-07
4.78942e-07
4.8084e-07
4.74062e-07
4.81678e-07
4.74879e-07
4.82638e-07
8.23576e-07
1.03712e-06
9.61011e-07
1.08606e-06
9.92228e-07
8.81243e-07
1.00944e-06
7.67009e-07
9.73504e-07
5.95463e-07
8.93517e-07
3.88666e-07
9.02058e-07
5.11958e-07
4.7161e-07
5.20301e-07
6.53387e-07
4.23511e-07
5.00646e-07
4.92529e-07
5.33717e-07
6.64169e-07
7.77028e-07
4.35378e-07
5.73571e-07
7.662e-07
5.92065e-07
6.4345e-07
7.04582e-07
5.25564e-07
5.9162e-07
4.24309e-07
7.21927e-07
9.14563e-07
5.70497e-07
5.90262e-07
6.58416e-07
6.93622e-07
6.58677e-07
9.05929e-07
3.86394e-07
5.63562e-07
4.13872e-07
5.61441e-07
4.60178e-07
7.02491e-07
6.24744e-07
8.00393e-07
6.53083e-07
5.46702e-07
9.85415e-07
3.73983e-07
5.75579e-07
4.65836e-07
9.30608e-07
4.08999e-07
8.08469e-07
6.49179e-07
4.70207e-07
9.28658e-07
6.39434e-07
4.67248e-07
6.31563e-07
6.13706e-07
5.3972e-07
6.64908e-07
7.28966e-07
6.52463e-07
8.41652e-07
7.29681e-07
7.16904e-07
6.24194e-07
8.80541e-07
4.48985e-07
4.6536e-07
4.69891e-07
6.81903e-07
5.29008e-07
9.06733e-07
4.61745e-07
9.19738e-07
5.02885e-07
4.97516e-07
4.49232e-07
7.6924e-07
6.30505e-07
7.6946e-07
6.74298e-07
6.9267e-07
7.6554e-07
6.24946e-07
8.41834e-07
6.95462e-07
6.2562e-07
6.91548e-07
5.41821e-07
7.80344e-07
3.88722e-07
8.52302e-07
6.57998e-07
6.89017e-07
9.32997e-07
3.71527e-07
5.59222e-07
4.58269e-07
9.56951e-07
4.61287e-07
7.86918e-07
6.3211e-07
7.4196e-07
5.12345e-07
5.30875e-07
4.52192e-07
6.75672e-07
9.36638e-07
5.10227e-07
5.73178e-07
6.14023e-07
7.76751e-07
7.42402e-07
7.20042e-07
8.35216e-07
3.9481e-07
9.994e-07
4.91807e-07
8.60333e-07
4.25146e-07
8.72673e-07
4.22487e-07
8.43376e-07
4.92858e-07
7.48463e-07
6.92308e-07
6.88385e-07
8.99647e-07
3.98039e-07
1.04311e-06
4.57393e-07
5.65482e-07
7.83781e-07
5.29584e-07
5.11384e-07
6.65936e-07
8.26054e-07
6.86042e-07
8.78429e-07
4.83023e-07
9.50203e-07
5.4181e-07
8.2974e-07
6.38336e-07
6.27579e-07
5.22525e-07
6.90167e-07
5.51671e-07
4.51167e-07
8.16956e-07
5.40608e-07
8.3824e-07
6.707e-07
7.68134e-07
3.76739e-07
5.37539e-07
4.84634e-07
6.17512e-07
6.07413e-07
7.74125e-07
7.36955e-07
7.82277e-07
7.89707e-07
7.64288e-07
7.90016e-07
6.96627e-07
8.37092e-07
5.96415e-07
8.57135e-07
5.74426e-07
7.95264e-07
6.04525e-07
6.92498e-07
7.2061e-07
6.26394e-07
7.40313e-07
5.29396e-07
8.05372e-07
4.67376e-07
9.2385e-07
4.21455e-07
9.62168e-07
4.7028e-07
8.33754e-07
3.82839e-07
9.05242e-07
5.18755e-07
5.15053e-07
4.75807e-07
5.75768e-07
7.56046e-07
6.38755e-07
8.34237e-07
5.22326e-07
8.68491e-07
6.32395e-07
8.93107e-07
5.40669e-07
9.43952e-07
6.00791e-07
5.09428e-07
4.7535e-07
8.19019e-07
6.02581e-07
8.47809e-07
6.29822e-07
8.2478e-07
6.80862e-07
8.03144e-07
4.26937e-07
4.86289e-07
5.06311e-07
5.10361e-07
5.22746e-07
5.08427e-07
5.2523e-07
5.02434e-07
5.41555e-07
9.84072e-07
2.81081e-06
3.3056e-06
3.3056e-06
3.3056e-06
)
;

boundaryField
{
    inlet
    {
        type            calculated;
        value           uniform 0;
    }
    outlet
    {
        type            calculated;
        value           uniform 0;
    }
    sideWall
    {
        type            empty;
    }
}


// ************************************************************************* //
