/*--------------------------------*- C++ -*----------------------------------*\
| =========                 |                                                 |
| \\      /  F ield         | foam-extend: Open Source CFD                    |
|  \\    /   O peration     | Version:     3.2                                |
|   \\  /    A nd           | Web:         http://www.foam-extend.org         |
|    \\/     M anipulation  | For copyright notice see file Copyright         |
\*---------------------------------------------------------------------------*/
FoamFile
{
    version     2.0;
    format      ascii;
    class       areaVectorField;
    location    "50";
    object      Wt;
}
// * * * * * * * * * * * * * * * * * * * * * * * * * * * * * * * * * * * * * //

dimensions      [1 1 -2 0 0 0 0];

internalField   nonuniform List<vector> 
300
(
(5.16563e-08 0 -2.58282e-10)
(5.16563e-08 0 -2.58282e-10)
(5.16563e-08 0 -2.58282e-10)
(5.16563e-08 0 -2.58282e-10)
(5.16563e-08 -4.37546e-24 -2.58282e-10)
(5.16563e-08 -4.37546e-24 -2.58282e-10)
(5.16563e-08 -4.37546e-24 -2.58282e-10)
(5.16563e-08 -4.37546e-24 -2.58282e-10)
(5.16563e-08 0 -2.58282e-10)
(5.16563e-08 -4.37546e-24 -2.58282e-10)
(5.16563e-08 0 -2.58282e-10)
(5.16563e-08 4.37546e-24 -2.58282e-10)
(5.16563e-08 0 -2.58282e-10)
(5.16563e-08 4.37546e-24 -2.58282e-10)
(5.16563e-08 0 -2.58282e-10)
(5.16563e-08 0 -2.58282e-10)
(5.16563e-08 4.37546e-24 -2.58282e-10)
(5.16563e-08 -4.37546e-24 -2.58282e-10)
(5.16563e-08 4.37546e-24 -2.58282e-10)
(5.16563e-08 0 -2.58282e-10)
(5.16563e-08 0 -2.58282e-10)
(5.16563e-08 -4.37546e-24 -2.58282e-10)
(5.16563e-08 0 -2.58282e-10)
(5.16563e-08 0 -2.58282e-10)
(5.16563e-08 0 -2.58282e-10)
(5.16563e-08 -4.37546e-24 -2.58282e-10)
(5.16563e-08 0 -2.58282e-10)
(5.16563e-08 0 -2.58282e-10)
(5.16563e-08 0 -2.58282e-10)
(5.16563e-08 -4.37546e-24 -2.58282e-10)
(5.16563e-08 0 -2.58282e-10)
(5.16563e-08 0 -2.58282e-10)
(5.16563e-08 0 -2.58282e-10)
(5.16563e-08 0 -2.58282e-10)
(5.16563e-08 0 -2.58282e-10)
(5.16563e-08 0 -2.58282e-10)
(5.16563e-08 0 -2.58282e-10)
(5.16563e-08 0 -2.58282e-10)
(5.16563e-08 0 -2.58282e-10)
(5.16563e-08 0 -2.58282e-10)
(5.16563e-08 0 -2.58282e-10)
(5.16563e-08 -4.37546e-24 -2.58282e-10)
(5.16563e-08 0 -2.58282e-10)
(5.16563e-08 -4.37546e-24 -2.58282e-10)
(5.16563e-08 0 -2.58282e-10)
(5.16563e-08 0 -2.58282e-10)
(5.16563e-08 -4.37546e-24 -2.58282e-10)
(5.16563e-08 0 -2.58282e-10)
(5.16563e-08 -4.37546e-24 -2.58282e-10)
(5.16563e-08 0 -2.58282e-10)
(5.16563e-08 0 -2.58282e-10)
(5.16563e-08 -4.37546e-24 -2.58282e-10)
(5.16563e-08 0 -2.58282e-10)
(5.16563e-08 -4.37546e-24 -2.58282e-10)
(5.16563e-08 0 -2.58282e-10)
(5.16563e-08 0 -2.58282e-10)
(5.16563e-08 -4.37546e-24 -2.58282e-10)
(5.16563e-08 0 -2.58282e-10)
(5.16563e-08 0 -2.58282e-10)
(2.67628e-07 0 -6.9373e-09)
(3.16083e-07 0 -9.67933e-09)
(1.22214e-07 -8.74992e-24 -1.4459e-09)
(7.21696e-08 8.75071e-24 -5.04157e-10)
(5.43707e-08 0 -2.86139e-10)
(5.39795e-08 0 -2.82036e-10)
(5.15844e-08 0 -2.57562e-10)
(5.13787e-08 0 -2.55512e-10)
(5.39114e-08 0 -2.81325e-10)
(4.82623e-08 0 -2.25456e-10)
(6.23721e-08 -4.37541e-24 -3.76559e-10)
(5.23366e-08 0 -2.6513e-10)
(5.2433e-08 -4.37546e-24 -2.66107e-10)
(5.15965e-08 0 -2.57683e-10)
(5.0854e-08 4.37546e-24 -2.5032e-10)
(5.07648e-08 -4.37546e-24 -2.49443e-10)
(5.47076e-08 -4.37545e-24 -2.89696e-10)
(5.07591e-08 0 -2.49387e-10)
(4.79036e-08 -4.37548e-24 -2.22117e-10)
(5.35097e-08 -4.37545e-24 -2.77148e-10)
(4.78752e-08 0 -2.21853e-10)
(6.22711e-08 4.37541e-24 -3.7534e-10)
(2.09508e-08 2.18778e-24 -4.24853e-11)
(1.02004e-07 -8.75029e-24 -1.0072e-09)
(4.01208e-09 -5.46946e-25 -1.55803e-12)
(5.49968e-08 -4.37545e-24 -2.92768e-10)
(8.65599e-08 0 -7.2527e-10)
(1.55512e-08 0 -2.34079e-11)
(6.22904e-08 0 -3.75572e-10)
(1.44562e-08 1.09389e-24 -2.02277e-11)
(1.04993e-07 0 -1.06709e-09)
(3.91005e-08 0 -1.47981e-10)
(6.28663e-08 4.37541e-24 -3.8255e-10)
(3.77597e-08 0 -1.38006e-10)
(5.14205e-08 0 -2.55929e-10)
(6.44448e-08 0 -4.02002e-10)
(4.20018e-08 0 -1.70757e-10)
(5.74553e-08 0 -3.19528e-10)
(4.84227e-08 -4.37547e-24 -2.26957e-10)
(6.11692e-08 0 -3.62173e-10)
(3.84519e-08 4.37551e-24 -1.43112e-10)
(5.67896e-08 -4.37544e-24 -3.12167e-10)
(4.41201e-09 5.46946e-25 -1.88412e-12)
(1.42086e-07 -1.7499e-23 -1.95444e-09)
(1.65492e-08 0 -2.65088e-11)
(-1.22519e-07 -8.74991e-24 -1.45313e-09)
(1.1726e-07 0 -1.33103e-09)
(1.50816e-07 0 -2.20201e-09)
(5.16729e-08 0 -2.58447e-10)
(6.05245e-08 0 -3.54579e-10)
(4.28406e-08 4.37549e-24 -1.77645e-10)
(3.78705e-08 0 -1.38817e-10)
(5.04362e-08 4.37547e-24 -2.46224e-10)
(3.42632e-08 -4.37552e-24 -1.13631e-10)
(5.97716e-08 0 -3.45812e-10)
(7.1417e-08 8.75072e-24 -4.93696e-10)
(6.36449e-08 0 -3.92084e-10)
(3.50235e-08 4.37552e-24 -1.1873e-10)
(7.38674e-08 8.75069e-24 -5.28158e-10)
(2.87245e-08 2.18777e-24 -7.98625e-11)
(5.30812e-08 0 -2.72728e-10)
(7.78317e-08 8.75064e-24 -5.86373e-10)
(-1.97689e-08 0 -3.78271e-11)
(5.36553e-08 0 -2.78658e-10)
(1.03529e-07 0 -1.03753e-09)
(6.08705e-08 4.37542e-24 -3.58645e-10)
(3.98453e-08 0 -1.53673e-10)
(5.77005e-08 0 -3.22261e-10)
(4.42977e-08 0 -1.89936e-10)
(4.70976e-08 -4.37548e-24 -2.14705e-10)
(6.9539e-08 0 -4.68071e-10)
(4.16023e-08 -4.3755e-24 -1.67524e-10)
(3.89171e-08 0 -1.46597e-10)
(9.35128e-08 -8.75042e-24 -8.46473e-10)
(-9.44408e-08 -8.75041e-24 -8.63359e-10)
(7.95791e-08 0 -6.12999e-10)
(1.47209e-07 0 -2.09794e-09)
(4.64479e-08 0 -2.08822e-10)
(5.6913e-08 0 -3.13524e-10)
(4.36022e-08 0 -1.84018e-10)
(5.86495e-08 0 -3.3295e-10)
(4.42351e-08 4.37549e-24 -1.89399e-10)
(5.62493e-08 0 -3.06255e-10)
(5.17539e-08 0 -2.59258e-10)
(4.87417e-08 -4.37547e-24 -2.29957e-10)
(2.60624e-08 0 -6.57455e-11)
(8.68261e-08 0 -7.29737e-10)
(3.85597e-08 4.37551e-24 -1.43916e-10)
(6.37335e-08 0 -3.93177e-10)
(4.38582e-08 0 -1.86185e-10)
(5.12238e-08 0 -2.53974e-10)
(5.49653e-08 -4.37545e-24 -2.92432e-10)
(4.4245e-08 0 -1.89483e-10)
(4.41357e-08 0 -1.88549e-10)
(7.33329e-08 0 -5.20541e-10)
(3.76578e-08 4.37551e-24 -1.37262e-10)
(6.07739e-08 0 -3.57507e-10)
(4.35915e-08 -4.37549e-24 -1.83928e-10)
(5.82938e-08 0 -3.28922e-10)
(4.69558e-08 0 -2.13414e-10)
(5.73116e-08 0 -3.17931e-10)
(4.51939e-08 4.37549e-24 -1.97699e-10)
(5.64413e-08 0 -3.08349e-10)
(4.71515e-08 0 -2.15197e-10)
(5.69802e-08 -4.37544e-24 -3.14266e-10)
(4.97596e-08 0 -2.39662e-10)
(5.08916e-08 0 -2.50691e-10)
(5.41681e-08 0 -2.84011e-10)
(3.77998e-08 0 -1.38299e-10)
(7.52957e-08 8.75068e-24 -5.48781e-10)
(2.65768e-08 0 -6.83665e-11)
(7.84219e-08 8.75064e-24 -5.953e-10)
(2.7571e-08 -2.18777e-24 -7.35773e-11)
(3.10309e-08 0 -9.32028e-11)
(3.82041e-08 0 -1.41274e-10)
(9.79995e-08 -8.75035e-24 -9.29656e-10)
(5.00809e-08 0 -2.42768e-10)
(5.11674e-08 -4.37546e-24 -2.53415e-10)
(5.67997e-08 0 -3.12277e-10)
(4.09919e-08 4.3755e-24 -1.62645e-10)
(6.18967e-08 0 -3.7084e-10)
(4.4543e-08 4.37549e-24 -1.92045e-10)
(5.90686e-08 -4.37543e-24 -3.37725e-10)
(2.96343e-08 0 -8.50022e-11)
(8.42218e-08 0 -6.86615e-10)
(6.14971e-08 0 -3.66067e-10)
(-1.03281e-07 8.75027e-24 -1.03258e-09)
(1.38547e-07 0 -1.85826e-09)
(9.12233e-08 0 -8.05529e-10)
(6.05057e-08 0 -3.54358e-10)
(4.14877e-08 0 -1.66603e-10)
(6.18732e-08 4.37541e-24 -3.70558e-10)
(4.30176e-08 4.37549e-24 -1.79116e-10)
(4.67558e-08 0 -2.116e-10)
(6.82741e-08 8.75076e-24 -4.51197e-10)
(3.38863e-08 0 -1.11144e-10)
(7.42338e-08 0 -5.3341e-10)
(2.48983e-08 0 -6.00036e-11)
(7.83191e-08 8.75064e-24 -5.93739e-10)
(2.23765e-08 -2.18777e-24 -4.84645e-11)
(8.66833e-08 -8.75052e-24 -7.27339e-10)
(1.58883e-08 0 -2.4434e-11)
(8.51037e-08 -8.75055e-24 -7.0107e-10)
(1.6315e-08 -2.18778e-24 -2.57638e-11)
(8.67794e-08 0 -7.28953e-10)
(1.92135e-08 0 -3.57316e-11)
(4.29978e-08 -4.37549e-24 -1.78951e-10)
(9.90177e-08 0 -9.49077e-10)
(7.55178e-09 -5.46946e-25 -5.51994e-12)
(6.96041e-08 0 -4.68948e-10)
(9.83586e-08 0 -9.36482e-10)
(-8.54641e-08 8.75054e-24 -7.07022e-10)
(5.82273e-08 0 -3.28173e-10)
(1.53129e-07 0 -2.2701e-09)
(2.4279e-08 0 -5.70556e-11)
(7.87347e-08 0 -6.00058e-10)
(2.376e-08 2.18777e-24 -5.46426e-11)
(6.97552e-08 -8.75074e-24 -4.70986e-10)
(4.54533e-08 4.37549e-24 -1.99975e-10)
(5.48352e-08 4.37545e-24 -2.91049e-10)
(4.84022e-08 4.37547e-24 -2.26764e-10)
(5.66556e-08 4.37544e-24 -3.10695e-10)
(5.07061e-08 4.37546e-24 -2.48866e-10)
(4.42911e-08 0 -1.89879e-10)
(5.98161e-08 4.37542e-24 -3.46327e-10)
(2.23166e-08 2.18777e-24 -4.82053e-11)
(7.92776e-08 0 -6.08362e-10)
(5.44142e-08 0 -2.86598e-10)
(4.26791e-08 4.3755e-24 -1.76309e-10)
(6.00115e-08 4.37542e-24 -3.48594e-10)
(4.76164e-08 0 -2.19462e-10)
(5.82346e-08 0 -3.28256e-10)
(1.59635e-08 0 -2.46658e-11)
(4.56024e-08 4.37548e-24 -2.01288e-10)
(8.57852e-08 8.75054e-24 -7.12346e-10)
(5.48789e-08 0 -2.91514e-10)
(5.09644e-08 0 -2.51409e-10)
(5.07093e-08 4.37546e-24 -2.48898e-10)
(5.05641e-08 0 -2.47475e-10)
(5.66383e-08 0 -3.10506e-10)
(4.86922e-08 0 -2.2949e-10)
(5.29876e-08 0 -2.71766e-10)
(4.92314e-08 4.37547e-24 -2.34601e-10)
(5.44351e-08 -4.37545e-24 -2.86818e-10)
(4.99389e-08 4.37547e-24 -2.41392e-10)
(4.98821e-08 0 -2.40844e-10)
(5.44102e-08 0 -2.86555e-10)
(5.15897e-08 -4.37546e-24 -2.57616e-10)
(5.35411e-08 0 -2.77474e-10)
(4.75579e-08 0 -2.18922e-10)
(5.54863e-08 0 -2.98002e-10)
(4.42294e-08 0 -1.89351e-10)
(5.69041e-08 -4.37544e-24 -3.13426e-10)
(4.98089e-08 0 -2.40137e-10)
(5.22614e-08 -4.37546e-24 -2.64368e-10)
(5.43421e-08 -4.37545e-24 -2.85839e-10)
(4.75288e-08 0 -2.18655e-10)
(5.78995e-08 4.37543e-24 -3.24488e-10)
(3.62372e-08 4.37552e-24 -1.27101e-10)
(7.11445e-08 -8.75073e-24 -4.89935e-10)
(3.61544e-08 0 -1.26521e-10)
(6.9177e-08 -8.75075e-24 -4.63211e-10)
(2.41518e-08 0 -5.64596e-11)
(8.68614e-08 0 -7.30332e-10)
(1.28592e-08 1.09389e-24 -1.60054e-11)
(4.53473e-08 0 -1.99043e-10)
(9.05388e-08 -8.75047e-24 -7.93484e-10)
(3.17602e-08 4.37553e-24 -9.76351e-11)
(6.76498e-08 -8.75077e-24 -4.42983e-10)
(3.36944e-08 -4.37552e-24 -1.09889e-10)
(6.9325e-08 0 -4.65195e-10)
(3.69684e-08 0 -1.32283e-10)
(6.84768e-08 0 -4.53881e-10)
(3.11078e-08 -2.18777e-24 -9.36651e-11)
(7.32226e-08 0 -5.18976e-10)
(3.39349e-08 0 -1.11464e-10)
(7.12817e-08 -8.75072e-24 -4.91827e-10)
(2.63787e-08 0 -6.73511e-11)
(3.4001e-08 -4.37552e-24 -1.11898e-10)
(9.16694e-08 -8.75045e-24 -8.13427e-10)
(3.43816e-08 0 -1.14417e-10)
(6.42173e-08 0 -3.99168e-10)
(4.05626e-08 0 -1.59255e-10)
(6.36508e-08 8.75081e-24 -3.92156e-10)
(4.01407e-08 0 -1.55959e-10)
(6.47359e-08 -8.7508e-24 -4.05642e-10)
(4.1544e-08 0 -1.67055e-10)
(1.92701e-08 0 -3.59424e-11)
(4.50199e-08 0 -1.96179e-10)
(4.6002e-08 0 -2.04832e-10)
(4.63454e-08 0 -2.07902e-10)
(5.21512e-08 0 -2.63254e-10)
(5.01072e-08 0 -2.43023e-10)
(5.25567e-08 4.37546e-24 -2.67364e-10)
(4.53933e-08 0 -1.99447e-10)
(4.56609e-08 4.37548e-24 -2.01806e-10)
(-2.06067e-07 1.74953e-23 -4.11174e-09)
(-2.11443e-07 0 -4.32916e-09)
(5.16563e-08 0 -2.58282e-10)
(5.16563e-08 0 -2.58282e-10)
(5.16563e-08 0 -2.58282e-10)
)
;

boundaryField
{
    inlet
    {
        type            calculated;
        value           uniform (0 0 0);
    }
    outlet
    {
        type            calculated;
        value           uniform (0 0 0);
    }
    sideWall
    {
        type            empty;
    }
}


// ************************************************************************* //
