/*--------------------------------*- C++ -*----------------------------------*\
| =========                 |                                                 |
| \\      /  F ield         | foam-extend: Open Source CFD                    |
|  \\    /   O peration     | Version:     3.2                                |
|   \\  /    A nd           | Web:         http://www.foam-extend.org         |
|    \\/     M anipulation  | For copyright notice see file Copyright         |
\*---------------------------------------------------------------------------*/
FoamFile
{
    version     2.0;
    format      ascii;
    class       areaScalarField;
    location    "50";
    object      zCo;
}
// * * * * * * * * * * * * * * * * * * * * * * * * * * * * * * * * * * * * * //

dimensions      [0 1 0 0 0 0 0];

internalField   nonuniform List<scalar> 
300
(
-0.000125
-0.000375
-0.000625
-0.000875
-0.001125
-0.001375
-0.001625
-0.001875
-0.002125
-0.002375
-0.002625
-0.002875
-0.003125
-0.003375
-0.003625
-0.003875
-0.004125
-0.004375
-0.004625
-0.004875
-0.005125
-0.005375
-0.005625
-0.005875
-0.006125
-0.006375
-0.006625
-0.006875
-0.007125
-0.007375
-0.007625
-0.007875
-0.008125
-0.008375
-0.008625
-0.008875
-0.009125
-0.009375
-0.009625
-0.009875
-0.010125
-0.010375
-0.010625
-0.010875
-0.011125
-0.011375
-0.011625
-0.011875
-0.012125
-0.012375
-0.012625
-0.012875
-0.013125
-0.013375
-0.013625
-0.013875
-0.014125
-0.014375
-0.014625
-0.015398
-0.0168116
-0.017873
-0.0183434
-0.0186496
-0.0189118
-0.0191672
-0.0194164
-0.0196712
-0.0199184
-0.0201861
-0.0204637
-0.0207173
-0.020969
-0.0212169
-0.0214628
-0.021718
-0.0219732
-0.022212
-0.0224574
-0.0227027
-0.0229693
-0.0231707
-0.0234682
-0.0237248
-0.0238676
-0.0242101
-0.0244572
-0.0246456
-0.0248313
-0.0251204
-0.0254691
-0.0257158
-0.0259593
-0.0261751
-0.0264555
-0.0267131
-0.0269537
-0.0272099
-0.0274751
-0.0277162
-0.0279467
-0.0280948
-0.0284493
-0.0288333
-0.0285768
-0.0285641
-0.0292129
-0.0297029
-0.0299744
-0.0302245
-0.0304199
-0.0306335
-0.0308385
-0.031066
-0.0313835
-0.0317103
-0.0319491
-0.0322126
-0.0324609
-0.0326588
-0.0329756
-0.0331161
-0.0331981
-0.0335785
-0.0339763
-0.0342201
-0.0344561
-0.0347029
-0.0349241
-0.0352063
-0.0354753
-0.0356701
-0.0359906
-0.0359883
-0.0359524
-0.0365012
-0.0369699
-0.03722
-0.0374633
-0.0377107
-0.0379597
-0.0382028
-0.0384642
-0.0387074
-0.0388884
-0.0391615
-0.039465
-0.0397125
-0.0399729
-0.0402029
-0.0404599
-0.0407
-0.0409138
-0.0411981
-0.0414667
-0.0417049
-0.0419574
-0.042204
-0.0424587
-0.042711
-0.042959
-0.0432049
-0.0434556
-0.0437076
-0.0439659
-0.0442095
-0.0444637
-0.0446862
-0.0449599
-0.0452064
-0.0454605
-0.045717
-0.0458588
-0.0460263
-0.046356
-0.0467143
-0.0469593
-0.0472206
-0.0474572
-0.0477062
-0.0479638
-0.0482145
-0.0484291
-0.0487046
-0.0490573
-0.0489561
-0.0490415
-0.0495976
-0.0499648
-0.0502116
-0.0504617
-0.0507155
-0.0509327
-0.0512111
-0.0514583
-0.0517199
-0.0519598
-0.0522096
-0.0524533
-0.0527172
-0.0529654
-0.0532098
-0.0534552
-0.0537047
-0.0539612
-0.0541117
-0.0544554
-0.0547133
-0.0549
-0.0553065
-0.0553377
-0.0552718
-0.0557833
-0.0562127
-0.0564619
-0.05671
-0.0569363
-0.057215
-0.0574577
-0.0577075
-0.0579618
-0.0582216
-0.0584514
-0.0587034
-0.0589021
-0.059148
-0.0594715
-0.0597064
-0.0599549
-0.0602154
-0.0604715
-0.0606511
-0.0608
-0.061118
-0.0614584
-0.0617145
-0.0619605
-0.0622056
-0.062465
-0.0627199
-0.0629659
-0.0632133
-0.0634642
-0.0637167
-0.0639583
-0.0642106
-0.0644671
-0.0647215
-0.0649662
-0.0652155
-0.0654568
-0.0657016
-0.0659598
-0.0662068
-0.0664648
-0.0667113
-0.0669664
-0.0671942
-0.067454
-0.0677137
-0.0679686
-0.0681944
-0.068463
-0.0687044
-0.0688452
-0.069174
-0.06947
-0.0697106
-0.0699558
-0.0702051
-0.0704623
-0.0707175
-0.0709584
-0.0712109
-0.0714702
-0.0717248
-0.0719612
-0.0721073
-0.0724114
-0.0727164
-0.072955
-0.0732086
-0.0734607
-0.0737119
-0.0739657
-0.0742229
-0.07437
-0.0745256
-0.0747459
-0.0749693
-0.0752077
-0.0754551
-0.0757035
-0.0759406
-0.0761609
-0.0757726
-0.0747619
-0.074375
-0.074625
-0.074875
)
;

boundaryField
{
    inlet
    {
        type            calculated;
        value           uniform 0;
    }
    outlet
    {
        type            calculated;
        value           uniform 0;
    }
    sideWall
    {
        type            empty;
    }
}


// ************************************************************************* //
