/*--------------------------------*- C++ -*----------------------------------*\
| =========                 |                                                 |
| \\      /  F ield         | foam-extend: Open Source CFD                    |
|  \\    /   O peration     | Version:     3.2                                |
|   \\  /    A nd           | Web:         http://www.foam-extend.org         |
|    \\/     M anipulation  | For copyright notice see file Copyright         |
\*---------------------------------------------------------------------------*/
FoamFile
{
    version     2.0;
    format      ascii;
    class       volScalarField;
    location    "50";
    object      zDim;
}
// * * * * * * * * * * * * * * * * * * * * * * * * * * * * * * * * * * * * * //

dimensions      [0 1 0 0 0 0 0];

internalField   nonuniform List<scalar> 
5400
(
0.00191667
0.00191667
0.00191667
0.00191667
0.00191667
0.00191667
0.00191667
0.00191667
0.00191667
0.00191667
0.00191667
0.00191667
0.00191667
0.00191667
0.00191667
0.00191667
0.00191667
0.00191667
0.00191667
0.00191667
0.00191667
0.00191667
0.00191667
0.00191667
0.00191667
0.00191667
0.00191667
0.00191667
0.00191667
0.00191667
0.00191667
0.00191667
0.00191667
0.00191667
0.00191667
0.00191667
0.00191667
0.00191667
0.00191667
0.00191667
0.00191667
0.00191667
0.00191667
0.00191667
0.00191667
0.00191667
0.00191667
0.0019167
0.0019167
0.0019167
0.0019167
0.0019167
0.0019167
0.0019167
0.0019167
0.0019167
0.0019167
0.00191669
0.00191678
0.00296166
0.00319835
0.0022602
0.00201655
0.00193026
0.00192826
0.00191669
0.00191568
0.00192791
0.00190063
0.00196875
0.00192035
0.00192073
0.00191668
0.00191308
0.00191264
0.00193168
0.0019126
0.00189876
0.00192583
0.00189865
0.00196817
0.00176861
0.00216002
0.00168703
0.00193263
0.00208558
0.00174262
0.00196793
0.00173718
0.00217439
0.00185663
0.00197095
0.00184982
0.00191563
0.00197867
0.00187031
0.00194481
0.00190128
0.00196281
0.00185314
0.00194156
0.00168864
0.00235371
0.00174787
0.00225833
0.00223286
0.00239684
0.00191769
0.00195969
0.00187434
0.00185017
0.00191086
0.00183278
0.00195594
0.00201243
0.00197495
0.00183661
0.00202414
0.00180628
0.00192364
0.0020434
0.00176197
0.00192597
0.00216763
0.00196179
0.00185986
0.00194604
0.00188141
0.00189483
0.00200332
0.00186843
0.00185524
0.00211902
0.00212279
0.00205085
0.00237913
0.00189247
0.00194224
0.00187804
0.00195064
0.00188111
0.00193906
0.00191743
0.00190278
0.00179315
0.00208665
0.00185385
0.00197515
0.00187934
0.00191477
0.00193291
0.0018811
0.00188048
0.00202159
0.00184941
0.00196086
0.00187803
0.00194894
0.00189426
0.00194421
0.00188573
0.00193998
0.00189516
0.00194258
0.00190777
0.0019132
0.00192904
0.00184997
0.00203106
0.00179591
0.00204609
0.00180072
0.00181699
0.00185172
0.00214081
0.00190967
0.00191453
0.00194178
0.00186543
0.00196631
0.00188258
0.0019526
0.00181049
0.00207411
0.00196463
0.00216517
0.00233591
0.00210891
0.00195993
0.00186783
0.00196622
0.00187525
0.00189318
0.0019972
0.00183115
0.00202586
0.00178779
0.00204557
0.00177566
0.002086
0.00174437
0.0020783
0.00174642
0.00208641
0.00176042
0.00187482
0.00214577
0.00170414
0.00200332
0.00214271
0.00207949
0.00194765
0.00240757
0.00178542
0.00204754
0.00178233
0.00200417
0.0018871
0.00193223
0.0019012
0.00194102
0.00191232
0.00188127
0.00195627
0.00177518
0.0020502
0.00193048
0.00187355
0.00195724
0.00189748
0.00194865
0.00174439
0.0018873
0.00208176
0.00193268
0.00191356
0.00191234
0.00191166
0.00194101
0.00190265
0.00192333
0.00190521
0.00193033
0.00190864
0.00190834
0.00193022
0.00191661
0.00192602
0.00189713
0.00193539
0.00188105
0.00194221
0.00190803
0.00191982
0.0019299
0.001897
0.00194707
0.00184247
0.002011
0.00184216
0.00200146
0.00178415
0.00208684
0.00172964
0.00188606
0.00210476
0.00182104
0.00199405
0.00183026
0.00200216
0.00184606
0.00199808
0.00181776
0.00202101
0.00183148
0.00201164
0.0017949
0.00183138
0.00211016
0.00183375
0.00197749
0.00186345
0.00197483
0.0018614
0.00198009
0.0018682
0.0017604
0.00188468
0.00188961
0.00189127
0.00191935
0.00190952
0.00192133
0.00188674
0.00188783
0.0026648
0.00268882
0.0019151
0.00191682
0.00191669
0.00191666
0.00191666
0.00191666
0.00191666
0.00191666
0.00191666
0.00191666
0.00191666
0.00191666
0.00191666
0.00191666
0.00191666
0.00191666
0.00191666
0.00191666
0.00191666
0.00191666
0.00191666
0.00191666
0.00191666
0.00191666
0.00191666
0.00191666
0.00191666
0.00191666
0.00191666
0.00191666
0.00191666
0.00191666
0.00191666
0.00191666
0.00191666
0.00191666
0.00191666
0.00191666
0.00191666
0.00191666
0.00191666
0.00191666
0.00191666
0.00191666
0.00191666
0.00191666
0.00191666
0.00191666
0.00191666
0.00191663
0.00191663
0.00191663
0.00191663
0.00191663
0.00191663
0.00191663
0.00191663
0.0019166
0.0019166
0.00191661
0.0019165
0.00191798
0.00295876
0.00319758
0.00226473
0.00201919
0.00193287
0.00193065
0.00191915
0.00191813
0.00193027
0.00190328
0.00197092
0.00192295
0.00192317
0.00191916
0.00191556
0.00191513
0.0019341
0.00191514
0.00190132
0.00192816
0.00190132
0.00197008
0.0017723
0.00216057
0.0016914
0.00193453
0.00208708
0.0017465
0.00196925
0.00174096
0.00217493
0.00186028
0.00197285
0.0018528
0.00191798
0.00198077
0.00187322
0.00194697
0.001904
0.00196492
0.00185611
0.00194329
0.00169283
0.00235333
0.00175112
0.00225614
0.00223175
0.002398
0.00192156
0.00196181
0.00187707
0.00185279
0.00191298
0.0018356
0.001958
0.00201462
0.00197727
0.00183976
0.00202568
0.00180959
0.00192595
0.00204482
0.00176257
0.00192756
0.002169
0.00196469
0.0018627
0.00194813
0.0018841
0.00189741
0.00200527
0.00187129
0.0018582
0.0021192
0.00212117
0.00205094
0.00237979
0.00189645
0.00194435
0.00188085
0.00195277
0.00188388
0.00194131
0.00191998
0.00190509
0.00179637
0.00208786
0.00185725
0.00197705
0.00188216
0.00191713
0.00193527
0.00188372
0.00188316
0.00202335
0.00185256
0.00196281
0.00188087
0.00195109
0.00189698
0.00194643
0.00188847
0.00194221
0.00189785
0.00194483
0.00191034
0.00191567
0.00193132
0.00185296
0.00203258
0.0017995
0.0020474
0.00180403
0.00181936
0.0018544
0.00214195
0.00191285
0.00191698
0.00194406
0.0018683
0.00196836
0.00188546
0.00195462
0.00181378
0.00207569
0.00196612
0.00216279
0.00233426
0.00211189
0.00196255
0.00187071
0.00196825
0.00187803
0.00189575
0.00199911
0.00183445
0.00202732
0.00179143
0.00204679
0.00177946
0.00208694
0.00174847
0.00207916
0.00175046
0.00208731
0.0017641
0.00187729
0.00214673
0.0017084
0.00200513
0.00214343
0.00207842
0.00194843
0.00240759
0.00179018
0.00204869
0.001786
0.00200573
0.00189004
0.00193451
0.00190385
0.00194335
0.00191483
0.00188393
0.00195821
0.00177861
0.00205159
0.00193325
0.00187628
0.00195935
0.00190027
0.0019507
0.00174769
0.00188955
0.00208338
0.00193554
0.00191603
0.00191481
0.00191418
0.00194335
0.00190529
0.00192572
0.00190779
0.0019327
0.00191119
0.00191084
0.00193263
0.00191916
0.00192844
0.00189978
0.00193767
0.0018838
0.00194444
0.00191063
0.00192228
0.00193229
0.00189967
0.00194923
0.00184554
0.00201268
0.00184544
0.00200308
0.00178783
0.00208788
0.00173349
0.00188831
0.00210612
0.00182464
0.00199572
0.00183358
0.00200386
0.00184929
0.00199979
0.00182112
0.00202256
0.00183488
0.00201325
0.00179814
0.00183413
0.00211133
0.00183732
0.00197931
0.00186649
0.00197679
0.00186444
0.00198205
0.00187087
0.00176336
0.00188672
0.00189194
0.00189361
0.00192157
0.00191188
0.00192354
0.0018893
0.00188812
0.0026644
0.00268524
0.00191183
0.00191698
0.00191657
0.00191667
0.00191667
0.00191667
0.00191667
0.00191667
0.00191667
0.00191667
0.00191667
0.00191667
0.00191667
0.00191667
0.00191667
0.00191667
0.00191667
0.00191667
0.00191667
0.00191667
0.00191667
0.00191667
0.00191667
0.00191667
0.00191667
0.00191667
0.00191667
0.00191667
0.00191667
0.00191667
0.00191667
0.00191667
0.00191667
0.00191667
0.00191667
0.00191667
0.00191667
0.00191667
0.00191667
0.00191667
0.00191667
0.00191667
0.00191667
0.00191667
0.00191667
0.00191667
0.00191667
0.00191667
0.00191667
0.00191667
0.00191667
0.00191667
0.00191667
0.00191667
0.00191667
0.00191667
0.0019167
0.0019167
0.0019167
0.00191672
0.00191639
0.00192063
0.00295439
0.00319563
0.00227204
0.00202446
0.00193828
0.00193577
0.00192438
0.00192337
0.00193532
0.00190884
0.00197565
0.0019284
0.0019284
0.00192443
0.00192084
0.00192046
0.00193926
0.00192049
0.00190676
0.00193322
0.00190695
0.00197436
0.00177969
0.00216257
0.00169968
0.00193907
0.0020906
0.0017541
0.00197264
0.00174854
0.00217699
0.00186736
0.00197715
0.00185886
0.0019231
0.00198539
0.00187925
0.00195177
0.00190967
0.00196953
0.00186226
0.00194729
0.00170119
0.00235378
0.00175716
0.00225347
0.00223153
0.00240053
0.0019288
0.00196649
0.0018827
0.00185835
0.00191769
0.00184147
0.00196266
0.00201936
0.00198215
0.00184619
0.00202939
0.00181622
0.00193107
0.00204812
0.00176451
0.00193164
0.0021723
0.00197042
0.0018686
0.00195279
0.00188969
0.00190289
0.00200962
0.0018771
0.00186442
0.00212041
0.00211927
0.00205274
0.0023816
0.00190383
0.00194902
0.00188667
0.00195746
0.00188964
0.0019462
0.00192534
0.00191004
0.00180299
0.00209101
0.00186395
0.00198136
0.00188796
0.00192226
0.00194032
0.0018892
0.00188879
0.00202736
0.00185893
0.00196726
0.00188673
0.0019558
0.00190265
0.00195125
0.00189416
0.00194706
0.00190346
0.00194973
0.00191578
0.00192098
0.00193624
0.00185913
0.00203621
0.00180662
0.00205076
0.00181056
0.0018245
0.00186012
0.00214496
0.00191913
0.00192222
0.00194896
0.00187423
0.00197289
0.00189137
0.00195911
0.00182048
0.00207953
0.0019694
0.00215985
0.00233297
0.00211753
0.00196792
0.00187665
0.00197278
0.00188374
0.00190122
0.00200337
0.00184111
0.0020309
0.00179864
0.00204996
0.00178696
0.00208966
0.00175643
0.00208178
0.00175836
0.00208998
0.00177125
0.00188278
0.00214934
0.00171657
0.00200951
0.00214543
0.00207741
0.00195145
0.00240844
0.00179897
0.0020518
0.00179323
0.00200952
0.00189602
0.00193949
0.00190941
0.00194836
0.00192016
0.00188959
0.00196256
0.00178549
0.00205512
0.0019389
0.00188205
0.00196403
0.00190603
0.00195518
0.00175433
0.00189461
0.00208717
0.00194134
0.00192133
0.00192007
0.00191953
0.00194836
0.00191082
0.00193087
0.00191324
0.00193779
0.00191659
0.0019162
0.00193777
0.00192453
0.00193358
0.00190537
0.00194265
0.00188957
0.00194931
0.00191607
0.00192754
0.00193744
0.00190529
0.00195394
0.00185183
0.00201664
0.00185206
0.00200694
0.00179513
0.00209069
0.00174091
0.00189342
0.00210949
0.0018318
0.00199969
0.00184025
0.00200784
0.00185579
0.00200382
0.00182794
0.00202632
0.00184169
0.00201708
0.0018046
0.00184007
0.00211442
0.00184436
0.00198352
0.00187269
0.00198123
0.00187066
0.00198647
0.00187642
0.00176955
0.00189136
0.00189698
0.00189865
0.00192636
0.00191691
0.00192829
0.00189468
0.00188952
0.00266297
0.00267944
0.00190751
0.00191745
0.00191664
0.00191667
0.00191667
0.00191667
0.00191667
0.00191667
0.00191667
0.00191667
0.00191667
0.00191667
0.00191667
0.00191667
0.00191667
0.00191667
0.00191667
0.00191667
0.00191667
0.00191667
0.00191667
0.00191667
0.00191667
0.00191667
0.00191667
0.00191667
0.00191667
0.00191667
0.00191667
0.00191667
0.00191667
0.00191667
0.00191667
0.00191667
0.00191667
0.00191667
0.00191667
0.00191667
0.00191667
0.00191667
0.00191667
0.00191667
0.00191667
0.00191667
0.00191667
0.00191667
0.00191667
0.00191667
0.00191667
0.00191667
0.00191667
0.00191667
0.00191667
0.00191667
0.00191667
0.00191667
0.00191667
0.00191667
0.00191667
0.00191672
0.00191606
0.00192412
0.00294747
0.0031913
0.00228126
0.00203192
0.00194613
0.00194327
0.00193204
0.00193104
0.00194276
0.00191698
0.00198266
0.00193636
0.00193611
0.00193224
0.00192859
0.00192827
0.00194688
0.00192838
0.00191479
0.0019407
0.00191523
0.00198072
0.00179042
0.0021658
0.00171161
0.00194602
0.00209584
0.00176508
0.00197789
0.00175946
0.00218025
0.00187749
0.00198371
0.00186783
0.00193074
0.00199216
0.00188797
0.00195892
0.00191806
0.00197643
0.00187118
0.00195325
0.00171337
0.00235494
0.00176594
0.00224977
0.00223186
0.00240381
0.0019389
0.00197348
0.00189106
0.00186659
0.00192463
0.00185005
0.00196958
0.00202635
0.00198937
0.00185563
0.002035
0.00182586
0.00193871
0.00205314
0.00176749
0.00193798
0.00217722
0.00197871
0.0018773
0.00195976
0.00189797
0.00191105
0.00201606
0.00188556
0.00187361
0.0021226
0.00211672
0.0020561
0.00238422
0.00191422
0.00195603
0.00189528
0.00196451
0.00189816
0.00195356
0.0019332
0.0019173
0.00181269
0.00209595
0.00187381
0.00198797
0.00189647
0.00192982
0.00194778
0.00189732
0.00189723
0.00203344
0.0018682
0.00197393
0.00189536
0.00196287
0.00191101
0.00195849
0.00190256
0.0019543
0.00191175
0.001957
0.00192376
0.00192884
0.0019436
0.00186824
0.00204174
0.00181694
0.00205592
0.00182014
0.00183236
0.00186862
0.00214947
0.00192817
0.00193004
0.00195628
0.00188296
0.00197964
0.00189999
0.00196579
0.00183034
0.00208544
0.00197445
0.00215601
0.00233182
0.00212528
0.00197568
0.00188541
0.0019796
0.0018922
0.00190938
0.00200971
0.00185078
0.00203637
0.00180919
0.00205496
0.00179783
0.00209392
0.00176793
0.00208589
0.00176972
0.00209419
0.0017816
0.00189103
0.00215335
0.00172829
0.00201616
0.00214861
0.00207614
0.00195654
0.00240972
0.00181129
0.0020566
0.00180377
0.00201542
0.00190474
0.00194681
0.00191758
0.00195582
0.00192798
0.00189793
0.00196913
0.00179564
0.00206055
0.00194709
0.0018905
0.00197099
0.00191447
0.00196183
0.00176403
0.00190224
0.00209284
0.00194975
0.00192918
0.0019279
0.00192751
0.00195582
0.00191893
0.00193845
0.00192132
0.00194541
0.00192456
0.0019241
0.0019454
0.0019325
0.0019412
0.00191355
0.00195001
0.00189802
0.0019566
0.00192415
0.00193529
0.00194502
0.0019136
0.00196102
0.00186108
0.00202259
0.00186162
0.00201274
0.00180579
0.00209514
0.00175172
0.00190114
0.00211445
0.00184207
0.00200572
0.00184997
0.00201391
0.00186531
0.00200987
0.00183784
0.00203205
0.00185157
0.00202289
0.00181403
0.00184888
0.00211908
0.00185451
0.00198993
0.00188179
0.00198787
0.00187977
0.00199314
0.00188454
0.00177868
0.00189833
0.00190441
0.00190612
0.00193348
0.00192434
0.00193534
0.00190259
0.00189213
0.00265939
0.00267031
0.00190227
0.00191791
0.0019166
0.00191666
0.00191666
0.00191666
0.00191666
0.00191666
0.00191666
0.00191666
0.00191666
0.00191666
0.00191666
0.00191666
0.00191666
0.00191666
0.00191666
0.00191666
0.00191666
0.00191666
0.00191666
0.00191666
0.00191666
0.00191666
0.00191666
0.00191666
0.00191666
0.00191666
0.00191666
0.00191666
0.00191666
0.00191666
0.00191666
0.00191666
0.00191666
0.00191666
0.00191666
0.00191666
0.00191666
0.00191666
0.00191666
0.00191666
0.00191666
0.00191666
0.00191666
0.00191666
0.00191666
0.00191666
0.00191666
0.00191666
0.00191666
0.00191666
0.00191666
0.00191666
0.00191666
0.00191666
0.00191666
0.00191666
0.00191665
0.00191674
0.00191569
0.00192821
0.00293738
0.00318398
0.00229209
0.00204172
0.00195663
0.00195342
0.0019424
0.0019414
0.00195277
0.00192784
0.00199207
0.00194697
0.0019464
0.00194272
0.00193904
0.00193867
0.00195703
0.00193891
0.00192553
0.00195076
0.00192624
0.00198934
0.00180449
0.00217037
0.00172715
0.00195546
0.00210293
0.00177954
0.00198532
0.00177386
0.00218483
0.00189058
0.00199249
0.00187964
0.001941
0.0020013
0.00189955
0.0019685
0.00192915
0.00198573
0.0018831
0.00196147
0.0017292
0.00235672
0.00177767
0.00224504
0.00223298
0.0024078
0.0019518
0.00198279
0.00190218
0.0018777
0.00193405
0.00186146
0.0019788
0.00203551
0.00199892
0.00186809
0.00204265
0.00183857
0.0019489
0.00205993
0.00177143
0.00194658
0.00218357
0.00198942
0.00188879
0.00196908
0.00190888
0.0019219
0.00202473
0.00189675
0.00188567
0.00212598
0.00211348
0.00206101
0.00238738
0.00192743
0.00196533
0.00190659
0.0019739
0.00190935
0.00196336
0.00194363
0.00192698
0.00182538
0.00210253
0.00188657
0.00199682
0.00190772
0.00193992
0.00195766
0.00190802
0.0019083
0.00204155
0.00188038
0.00198288
0.0019067
0.00197227
0.00192199
0.00196809
0.00191364
0.00196392
0.00192269
0.0019667
0.00193431
0.00193925
0.00195338
0.00188024
0.00204922
0.00183043
0.00206292
0.00183262
0.00184294
0.00187989
0.00215551
0.00193989
0.00194038
0.00196602
0.00189448
0.00198867
0.00191135
0.00197475
0.00184326
0.0020933
0.00198144
0.00215133
0.00233102
0.00213502
0.0019858
0.00189692
0.00198869
0.00190332
0.00192019
0.00201821
0.00186344
0.0020438
0.00182292
0.00206182
0.00181201
0.00209989
0.001783
0.00209178
0.00178455
0.00210009
0.00179517
0.00190204
0.00215888
0.00174359
0.00202506
0.00215305
0.00207445
0.00196374
0.00241141
0.0018271
0.00206331
0.00181746
0.00202337
0.00191625
0.00195666
0.00192843
0.00196582
0.00193841
0.00190894
0.00197791
0.00180895
0.00206796
0.00195794
0.00190181
0.00198036
0.00192563
0.00197085
0.00177694
0.00191246
0.00210039
0.00196077
0.00193966
0.00193828
0.00193803
0.00196577
0.00192976
0.00194858
0.00193199
0.0019555
0.0019352
0.0019347
0.00195557
0.00194304
0.00195135
0.00192449
0.00195999
0.00190931
0.00196628
0.00193478
0.00194565
0.00195513
0.00192455
0.00197044
0.00187325
0.00203069
0.00187427
0.00202063
0.00181968
0.00210121
0.00176579
0.00191152
0.00212123
0.00185559
0.00201402
0.00186271
0.002022
0.00187774
0.00201814
0.00185091
0.0020399
0.00186457
0.00203076
0.00182647
0.00186064
0.00212547
0.00186775
0.00199856
0.00189371
0.00199678
0.00189177
0.00200213
0.00189543
0.00179092
0.00190781
0.00191432
0.00191607
0.00194297
0.00193419
0.00194472
0.00191304
0.00189638
0.00265287
0.00265698
0.00189657
0.00191831
0.00191646
0.00191667
0.00191667
0.00191667
0.00191667
0.00191667
0.00191667
0.00191667
0.00191667
0.00191667
0.00191667
0.00191667
0.00191667
0.00191667
0.00191667
0.00191667
0.00191667
0.00191667
0.00191667
0.00191667
0.00191667
0.00191667
0.00191667
0.00191667
0.00191667
0.00191667
0.00191667
0.00191667
0.00191667
0.00191667
0.00191667
0.00191667
0.00191667
0.00191667
0.00191667
0.00191667
0.00191667
0.00191667
0.00191667
0.00191667
0.00191667
0.00191667
0.00191667
0.00191667
0.00191667
0.00191667
0.00191667
0.00191667
0.00191667
0.00191667
0.00191667
0.00191667
0.00191667
0.00191667
0.00191667
0.00191667
0.00191666
0.00191679
0.00191531
0.00193258
0.00292331
0.0031728
0.00230404
0.00205379
0.00196981
0.00196624
0.00195548
0.00195454
0.00196554
0.00194164
0.0020041
0.00196043
0.00195956
0.00195605
0.00195238
0.00195207
0.00197009
0.0019524
0.00193933
0.00196376
0.00194033
0.00200065
0.00182223
0.00217677
0.00174668
0.00196776
0.00211221
0.00179775
0.00199533
0.001792
0.00219119
0.00190699
0.00200405
0.00189474
0.00195417
0.00201306
0.00191435
0.00198098
0.00194333
0.00199775
0.00189825
0.00197246
0.00174915
0.00235959
0.00179287
0.0022394
0.0022352
0.00241255
0.00196775
0.00199492
0.00191643
0.001892
0.00194638
0.00187612
0.00199074
0.00204725
0.00201121
0.00188392
0.00205278
0.00185472
0.00196208
0.00206911
0.00177686
0.00195809
0.0021919
0.00200304
0.00190362
0.00198132
0.00192298
0.00193582
0.00203599
0.00191118
0.0019011
0.00213127
0.00211001
0.00206811
0.0023915
0.00194387
0.00197758
0.00192115
0.00198619
0.00192381
0.00197613
0.0019571
0.0019397
0.00184166
0.00211144
0.00190277
0.00200848
0.00192216
0.00195304
0.00197054
0.00192195
0.00192261
0.00205223
0.00189591
0.00199469
0.0019213
0.00198457
0.00193613
0.00198063
0.00192792
0.00197648
0.00193678
0.00197929
0.00194794
0.00195274
0.00196615
0.00189563
0.0020592
0.00184751
0.00207238
0.00184867
0.00185684
0.00189432
0.00216354
0.00195476
0.00195379
0.00197868
0.00190928
0.00200049
0.00192587
0.00198654
0.00185976
0.0021036
0.00199105
0.00214618
0.00233105
0.00214697
0.00199881
0.00191172
0.00200061
0.00191767
0.00193413
0.00202934
0.00187955
0.00205376
0.00184034
0.00207109
0.00182986
0.00210801
0.00180184
0.00209985
0.00180319
0.00210818
0.00181238
0.00191621
0.00216631
0.00176282
0.00203666
0.00215945
0.0020728
0.00197356
0.00241374
0.0018465
0.00207241
0.00183489
0.0020339
0.00193084
0.00196938
0.00194232
0.00197868
0.00195189
0.00192321
0.00198953
0.00182584
0.00207765
0.00197166
0.0019163
0.00199252
0.00193985
0.00198259
0.00179348
0.00192573
0.00211019
0.00197474
0.00195317
0.00195175
0.00195162
0.00197857
0.00194359
0.00196168
0.00194575
0.00196852
0.00194883
0.0019483
0.0019687
0.0019566
0.00196438
0.00193844
0.00197282
0.0019238
0.00197894
0.00194846
0.00195896
0.00196821
0.00193869
0.00198275
0.00188876
0.00204131
0.00189025
0.00203114
0.00183728
0.00210957
0.00178371
0.00192492
0.00213004
0.00187254
0.00202496
0.00187897
0.00203279
0.00189351
0.00202897
0.00186743
0.00205025
0.00188101
0.00204123
0.00184246
0.00187576
0.00213393
0.00188447
0.00200995
0.00190892
0.00200846
0.00190707
0.00201382
0.00190947
0.00180676
0.00192026
0.00192713
0.0019289
0.00195521
0.00194686
0.00195685
0.0019264
0.00190313
0.00264294
0.00263887
0.0018911
0.00191891
0.00191652
0.0019167
0.0019167
0.0019167
0.0019167
0.0019167
0.0019167
0.0019167
0.00191667
0.00191667
0.00191667
0.00191667
0.00191667
0.00191667
0.00191667
0.00191667
0.00191667
0.00191667
0.00191667
0.00191667
0.00191667
0.00191667
0.00191667
0.00191667
0.00191667
0.00191667
0.00191667
0.00191667
0.00191667
0.00191667
0.00191667
0.00191667
0.00191667
0.00191667
0.00191667
0.00191667
0.00191667
0.00191667
0.00191667
0.00191667
0.00191667
0.00191667
0.00191667
0.00191667
0.00191667
0.00191667
0.00191667
0.00191667
0.00191667
0.00191667
0.00191667
0.00191667
0.00191667
0.00191667
0.00191667
0.00191667
0.00191666
0.00191682
0.00191492
0.00193686
0.00290438
0.00315681
0.00231662
0.00206808
0.00198568
0.00198179
0.00197135
0.00197046
0.00198102
0.00195828
0.00201867
0.00197658
0.0019755
0.00197224
0.00196842
0.0019681
0.00198581
0.00196866
0.00195592
0.00197942
0.00195721
0.0020144
0.00184329
0.00218478
0.00176999
0.00198272
0.00212343
0.00181946
0.00200778
0.00181349
0.00219896
0.0019264
0.00201821
0.00191304
0.00197016
0.00202716
0.00193191
0.00199606
0.00196046
0.00201241
0.00191635
0.00198588
0.00177278
0.00236345
0.00181174
0.00223219
0.00223812
0.00241741
0.00198627
0.00200965
0.00193377
0.00190932
0.00196128
0.00189369
0.00200509
0.00206126
0.00202609
0.00190293
0.00206516
0.00187407
0.00197793
0.00208046
0.00178331
0.00197205
0.00220169
0.00201919
0.00192143
0.00199613
0.00194002
0.00195265
0.00204956
0.00192846
0.00191951
0.00213837
0.00210574
0.00207698
0.00239605
0.00196308
0.00199244
0.00193867
0.00200105
0.00194119
0.00199161
0.00197323
0.00195503
0.0018611
0.00212239
0.0019222
0.00202279
0.00193949
0.00196877
0.00198595
0.00193877
0.00193991
0.00206524
0.00191443
0.00200897
0.00193881
0.00199946
0.00195312
0.00199581
0.0019451
0.00199169
0.00195375
0.00199447
0.00196426
0.00196896
0.00198164
0.0019141
0.00207142
0.0018678
0.00208392
0.00186803
0.00187405
0.00191164
0.00217309
0.00197233
0.00197001
0.00199403
0.00192703
0.00201478
0.0019432
0.00200082
0.00187949
0.00211605
0.0020033
0.00214007
0.00233152
0.00216048
0.00201426
0.0019295
0.00201509
0.00193501
0.00195096
0.0020428
0.00189871
0.00206593
0.00186116
0.00208263
0.00185109
0.00211816
0.00182426
0.00210988
0.00182525
0.00211824
0.00183305
0.00193335
0.00217543
0.0017857
0.00205058
0.00216764
0.0020707
0.00198578
0.00241637
0.00186915
0.00208359
0.00185568
0.00204693
0.00194836
0.00198469
0.00195901
0.00199424
0.00196805
0.00194026
0.00200376
0.00184623
0.00208955
0.00198805
0.00193367
0.00200719
0.00195691
0.00199691
0.00181342
0.00194174
0.00212193
0.00199139
0.00196946
0.00196797
0.00196804
0.0019941
0.00196022
0.00197742
0.00196232
0.00198428
0.00196528
0.00196467
0.00198453
0.00197296
0.00198012
0.00195518
0.00198826
0.0019411
0.00199422
0.00196499
0.001975
0.00198388
0.00195566
0.00199772
0.00190738
0.00205425
0.00190923
0.0020439
0.00185819
0.00211993
0.00180527
0.00194117
0.00214061
0.00189259
0.00203828
0.00189831
0.00204591
0.00191238
0.0020422
0.00188709
0.00206287
0.00190054
0.00205391
0.00186166
0.00189394
0.00214416
0.00190427
0.00202381
0.00192712
0.00202258
0.00192537
0.002028
0.00192641
0.00182588
0.00193534
0.00194251
0.00194433
0.00196997
0.00196208
0.00197147
0.00194238
0.00191248
0.00262837
0.0026147
0.00188591
0.00191938
0.00191648
0.0019166
0.0019166
0.0019166
0.0019166
0.0019166
0.0019166
0.00191663
0.00191663
0.00191663
0.00191663
0.00191663
0.00191663
0.00191663
0.00191663
0.00191666
0.00191666
0.00191666
0.00191666
0.00191666
0.00191666
0.00191666
0.00191666
0.00191666
0.00191666
0.00191666
0.00191666
0.00191666
0.00191666
0.00191666
0.00191666
0.00191666
0.00191666
0.00191666
0.00191666
0.00191666
0.00191666
0.00191666
0.00191666
0.00191666
0.00191666
0.00191666
0.00191666
0.00191666
0.00191666
0.00191666
0.00191666
0.00191666
0.00191666
0.00191666
0.00191666
0.00191666
0.00191666
0.00191666
0.00191666
0.00191666
0.00191665
0.00191685
0.00191456
0.00194078
0.00287971
0.00313506
0.00232945
0.00208465
0.00200441
0.00200026
0.0019902
0.00198937
0.00199946
0.00197798
0.00203602
0.00199571
0.00199437
0.00199151
0.00198761
0.00198714
0.00200449
0.00198805
0.0019757
0.00199813
0.00197719
0.00203094
0.00186793
0.0021946
0.00179737
0.00200065
0.00213693
0.00184507
0.00202311
0.00183863
0.00220824
0.00194877
0.00203498
0.00193453
0.00198916
0.00204397
0.00195262
0.00201388
0.00198051
0.00202985
0.00193778
0.00200212
0.00180006
0.00236798
0.00183456
0.00222325
0.00224196
0.00242231
0.00200737
0.00202696
0.00195427
0.00193002
0.00197911
0.00191438
0.00202189
0.00207746
0.00204351
0.00192522
0.00207993
0.00189678
0.00199654
0.00209406
0.00179062
0.00198854
0.00221271
0.00203779
0.00194233
0.00201358
0.00195998
0.00197245
0.00206562
0.0019488
0.00194087
0.00214748
0.00210048
0.0020876
0.00240066
0.00198491
0.00200988
0.00195915
0.00201858
0.00196145
0.00200983
0.00199217
0.00197315
0.00188371
0.0021352
0.00194463
0.00203968
0.00195987
0.00198732
0.00200403
0.00195844
0.00196005
0.00208056
0.00193607
0.00202584
0.00195925
0.00201698
0.00197292
0.00201366
0.00196521
0.00200956
0.00197362
0.00201237
0.00198342
0.00198797
0.00199992
0.00193569
0.00208595
0.00189141
0.00209758
0.0018906
0.00189457
0.00193196
0.00218425
0.00199265
0.00198904
0.00201213
0.00194787
0.00203164
0.00196349
0.00201774
0.00190251
0.00213056
0.00201841
0.00213288
0.00233262
0.00217552
0.0020322
0.00195025
0.00203211
0.00195531
0.00197071
0.00205871
0.00192102
0.00208043
0.00188532
0.00209648
0.00187578
0.00213046
0.00185049
0.00212223
0.00185094
0.00213041
0.00185727
0.00195349
0.00218636
0.0018124
0.00206683
0.00217771
0.00206785
0.00200038
0.00241914
0.00189515
0.00209715
0.00187981
0.00206236
0.00196893
0.00200288
0.00197865
0.00201267
0.00198719
0.00196022
0.00202056
0.00187005
0.00210373
0.00200738
0.00195426
0.00202461
0.00197692
0.00201408
0.00183707
0.00196065
0.00213567
0.00201078
0.00198871
0.00198703
0.00198726
0.00201242
0.00197989
0.00199603
0.00198173
0.00200281
0.0019847
0.00198407
0.00200323
0.00199219
0.00199873
0.00197502
0.00200676
0.0019616
0.00201214
0.00198431
0.00199394
0.0020024
0.00197552
0.00201537
0.00192913
0.00206972
0.00193156
0.00205917
0.00188245
0.00213224
0.00183043
0.00196043
0.00215324
0.00191613
0.00205437
0.0019209
0.00206136
0.00193431
0.00205807
0.00191021
0.00207805
0.00192342
0.00206907
0.00188431
0.00191536
0.00215635
0.00192732
0.00204024
0.00194832
0.00203929
0.00194677
0.0020449
0.0019466
0.0018487
0.00195343
0.00196067
0.00196251
0.00198734
0.00197993
0.00198867
0.00196104
0.00192486
0.00260823
0.00258349
0.00188133
0.00191969
0.00191635
0.0019167
0.0019167
0.0019167
0.0019167
0.0019167
0.0019167
0.0019167
0.0019167
0.0019167
0.0019167
0.0019167
0.0019167
0.0019167
0.00191667
0.00191667
0.00191667
0.00191667
0.00191667
0.00191667
0.00191667
0.00191667
0.00191667
0.00191667
0.00191667
0.00191667
0.00191667
0.00191667
0.00191667
0.00191667
0.00191667
0.00191667
0.00191667
0.00191667
0.00191667
0.00191667
0.00191667
0.00191667
0.00191667
0.00191667
0.00191667
0.00191667
0.00191667
0.00191667
0.00191667
0.00191667
0.00191667
0.00191667
0.00191667
0.00191667
0.00191667
0.00191667
0.00191667
0.00191667
0.00191667
0.00191667
0.00191665
0.00191688
0.00191426
0.00194414
0.00284839
0.00310643
0.00234208
0.00210352
0.00202609
0.00202177
0.00201217
0.00201139
0.002021
0.00200089
0.00205623
0.00201799
0.00201639
0.00201395
0.00201004
0.00200939
0.00202624
0.00201062
0.00199879
0.00202005
0.00200044
0.00205049
0.00189635
0.0022064
0.00182898
0.00202161
0.00215269
0.00187477
0.00204167
0.00186784
0.00221942
0.00197451
0.00205479
0.00195957
0.00201135
0.0020638
0.001977
0.00203502
0.00200392
0.00205038
0.00196291
0.00202189
0.00183167
0.00237347
0.00186185
0.00221257
0.00224705
0.00242735
0.00203149
0.00204741
0.00197831
0.00195448
0.00200044
0.00193883
0.00204167
0.00209629
0.00206394
0.00195121
0.00209758
0.00192342
0.00201845
0.00211053
0.00179938
0.00200838
0.00222559
0.00205941
0.00196701
0.00203443
0.00198354
0.00199565
0.00208465
0.0019729
0.00196587
0.0021593
0.00209459
0.00210073
0.00240573
0.00200998
0.00203068
0.00198325
0.00203945
0.00198536
0.00203142
0.00201458
0.00199486
0.00191028
0.00215054
0.0019707
0.00205975
0.00198386
0.00200941
0.00202556
0.0019818
0.00198371
0.00209873
0.00196146
0.00204605
0.00198333
0.0020378
0.00199622
0.00203482
0.00198891
0.00203077
0.00199703
0.00203358
0.00200606
0.00201045
0.00202163
0.001961
0.00210339
0.001919
0.00211413
0.00191719
0.00191904
0.00195577
0.00219751
0.00201636
0.00201149
0.00203351
0.00197241
0.00205171
0.00198731
0.00203795
0.00192946
0.00214761
0.00203701
0.00212489
0.00233476
0.00219247
0.00205326
0.00197464
0.00205234
0.00197923
0.00199395
0.00207765
0.0019471
0.0020979
0.00191346
0.00211315
0.0019044
0.00214531
0.00188081
0.00213731
0.00188076
0.00214519
0.00188561
0.00197709
0.00219945
0.00184349
0.00208592
0.00219027
0.00206457
0.00201795
0.00242218
0.00192477
0.00211365
0.00190801
0.00208067
0.00199286
0.0020244
0.00200169
0.00203434
0.00200983
0.00198385
0.00204063
0.00189773
0.00212039
0.0020299
0.0019785
0.00204524
0.00200028
0.00203448
0.00186502
0.00198299
0.00215172
0.0020333
0.00201139
0.00200957
0.00200985
0.00203392
0.00200298
0.00201804
0.00200461
0.00202459
0.00200747
0.00200691
0.00202527
0.00201477
0.00202057
0.00199825
0.00202861
0.0019858
0.00203343
0.00200697
0.0020162
0.00202432
0.00199892
0.0020363
0.00195455
0.0020881
0.00195761
0.00207755
0.00191074
0.00214721
0.00185987
0.00198305
0.0021681
0.00194345
0.00207366
0.00194738
0.00207988
0.00195982
0.00207689
0.00193713
0.00209615