/*--------------------------------*- C++ -*----------------------------------*\
| =========                 |                                                 |
| \\      /  F ield         | foam-extend: Open Source CFD                    |
|  \\    /   O peration     | Version:     3.2                                |
|   \\  /    A nd           | Web:         http://www.foam-extend.org         |
|    \\/     M anipulation  | For copyright notice see file Copyright         |
\*---------------------------------------------------------------------------*/
FoamFile
{
    version     2.0;
    format      ascii;
    class       areaScalarField;
    location    "50";
    object      zDimA;
}
// * * * * * * * * * * * * * * * * * * * * * * * * * * * * * * * * * * * * * //

dimensions      [0 1 0 0 0 0 0];

internalField   nonuniform List<scalar> 
300
(
0.00191667
0.00191667
0.00191667
0.00191667
0.00191667
0.00191667
0.00191667
0.00191667
0.00191667
0.00191667
0.00191667
0.00191667
0.00191667
0.00191667
0.00191667
0.00191667
0.00191667
0.00191667
0.00191667
0.00191667
0.00191667
0.00191667
0.00191667
0.00191667
0.00191667
0.00191667
0.00191667
0.00191667
0.00191667
0.00191667
0.00191667
0.00191667
0.00191667
0.00191667
0.00191667
0.00191667
0.00191667
0.00191667
0.00191667
0.00191667
0.00191667
0.00191667
0.00191667
0.00191667
0.00191667
0.00191667
0.00191667
0.0019167
0.0019167
0.0019167
0.0019167
0.0019167
0.0019167
0.0019167
0.0019167
0.0019167
0.0019167
0.00191669
0.00191678
0.00296166
0.00319835
0.0022602
0.00201655
0.00193026
0.00192826
0.00191669
0.00191568
0.00192791
0.00190063
0.00196875
0.00192035
0.00192073
0.00191668
0.00191308
0.00191264
0.00193168
0.0019126
0.00189876
0.00192583
0.00189865
0.00196817
0.00176861
0.00216002
0.00168703
0.00193263
0.00208558
0.00174262
0.00196793
0.00173718
0.00217439
0.00185663
0.00197095
0.00184982
0.00191563
0.00197867
0.00187031
0.00194481
0.00190128
0.00196281
0.00185314
0.00194156
0.00168864
0.00235371
0.00174787
0.00225833
0.00223286
0.00239684
0.00191769
0.00195969
0.00187434
0.00185017
0.00191086
0.00183278
0.00195594
0.00201243
0.00197495
0.00183661
0.00202414
0.00180628
0.00192364
0.0020434
0.00176197
0.00192597
0.00216763
0.00196179
0.00185986
0.00194604
0.00188141
0.00189483
0.00200332
0.00186843
0.00185524
0.00211902
0.00212279
0.00205085
0.00237913
0.00189247
0.00194224
0.00187804
0.00195064
0.00188111
0.00193906
0.00191743
0.00190278
0.00179315
0.00208665
0.00185385
0.00197515
0.00187934
0.00191477
0.00193291
0.0018811
0.00188048
0.00202159
0.00184941
0.00196086
0.00187803
0.00194894
0.00189426
0.00194421
0.00188573
0.00193998
0.00189516
0.00194258
0.00190777
0.0019132
0.00192904
0.00184997
0.00203106
0.00179591
0.00204609
0.00180072
0.00181699
0.00185172
0.00214081
0.00190967
0.00191453
0.00194178
0.00186543
0.00196631
0.00188258
0.0019526
0.00181049
0.00207411
0.00196463
0.00216517
0.00233591
0.00210891
0.00195993
0.00186783
0.00196622
0.00187525
0.00189318
0.0019972
0.00183115
0.00202586
0.00178779
0.00204557
0.00177566
0.002086
0.00174437
0.0020783
0.00174642
0.00208641
0.00176042
0.00187482
0.00214577
0.00170414
0.00200332
0.00214271
0.00207949
0.00194765
0.00240757
0.00178542
0.00204754
0.00178233
0.00200417
0.0018871
0.00193223
0.0019012
0.00194102
0.00191232
0.00188127
0.00195627
0.00177518
0.0020502
0.00193048
0.00187355
0.00195724
0.00189748
0.00194865
0.00174439
0.0018873
0.00208176
0.00193268
0.00191356
0.00191234
0.00191166
0.00194101
0.00190265
0.00192333
0.00190521
0.00193033
0.00190864
0.00190834
0.00193022
0.00191661
0.00192602
0.00189713
0.00193539
0.00188105
0.00194221
0.00190803
0.00191982
0.0019299
0.001897
0.00194707
0.00184247
0.002011
0.00184216
0.00200146
0.00178415
0.00208684
0.00172964
0.00188606
0.00210476
0.00182104
0.00199405
0.00183026
0.00200216
0.00184606
0.00199808
0.00181776
0.00202101
0.00183148
0.00201164
0.0017949
0.00183138
0.00211016
0.00183375
0.00197749
0.00186345
0.00197483
0.0018614
0.00198009
0.0018682
0.0017604
0.00188468
0.00188961
0.00189127
0.00191935
0.00190952
0.00192133
0.00188674
0.00188783
0.0026648
0.00268882
0.0019151
0.00191682
0.00191669
)
;

boundaryField
{
    inlet
    {
        type            calculated;
        value           uniform 0;
    }
    outlet
    {
        type            calculated;
        value           uniform 0;
    }
    sideWall
    {
        type            empty;
    }
}


// ************************************************************************* //
