/*--------------------------------*- C++ -*----------------------------------*\
| =========                 |                                                 |
| \\      /  F ield         | foam-extend: Open Source CFD                    |
|  \\    /   O peration     | Version:     3.2                                |
|   \\  /    A nd           | Web:         http://www.foam-extend.org         |
|    \\/     M anipulation  | For copyright notice see file Copyright         |
\*---------------------------------------------------------------------------*/
FoamFile
{
    version     2.0;
    format      ascii;
    class       volScalarField;
    location    "200";
    object      k;
}
// * * * * * * * * * * * * * * * * * * * * * * * * * * * * * * * * * * * * * //

dimensions      [0 2 -2 0 0 0 0];

internalField   nonuniform List<scalar> 
2400
(
0.00355452
0.00435548
0.00369772
0.00310145
0.00278237
0.00264013
0.00258955
0.00258293
0.00259193
0.00260988
0.00263197
0.00265385
0.00267548
0.00269787
0.00271963
0.0027417
0.00276485
0.00278812
0.00281175
0.00283562
0.00285946
0.00288341
0.00290806
0.00293334
0.00295774
0.00298017
0.00300039
0.00301819
0.00303364
0.00304688
0.00305823
0.00306791
0.003076
0.0030826
0.00308792
0.0030923
0.00309595
0.00309902
0.00310161
0.00310381
0.00310568
0.00310728
0.00310863
0.00310979
0.00311077
0.00311161
0.00311233
0.00311294
0.00311346
0.0031139
0.00311428
0.00311461
0.00311488
0.00311512
0.00311532
0.0031155
0.00311565
0.00311577
0.00311588
0.00311598
0.00311606
0.00311613
0.00311618
0.00311624
0.00311628
0.00311632
0.00311635
0.00311638
0.0031164
0.00311642
0.00311644
0.00311645
0.00311646
0.00311647
0.00311648
0.00311649
0.0031165
0.0031165
0.00311651
0.00311651
0.00311652
0.00311652
0.00311652
0.00311652
0.00311653
0.00311653
0.00311653
0.00311653
0.00311653
0.00311653
0.00311653
0.00311653
0.00311653
0.00311653
0.00311653
0.00311654
0.00311654
0.00311654
0.00311654
0.00311654
0.00311654
0.00311654
0.00311654
0.00311654
0.00311654
0.00311654
0.00311654
0.00311654
0.00311654
0.00311654
0.00311654
0.00311654
0.00311654
0.00311654
0.00311654
0.00311654
0.00311654
0.00311654
0.00311654
0.00311654
0.00311654
0.00311654
0.00311654
0.00311654
0.00311654
0.00311654
0.00311654
0.00311654
0.00311654
0.00311654
0.00311654
0.00311654
0.00311654
0.00311654
0.00311654
0.00311654
0.00311654
0.00311654
0.00311654
0.00311654
0.00311654
0.00311654
0.00311654
0.00311654
0.00311654
0.00311654
0.00311654
0.00311654
0.00311654
0.00311654
0.00311654
0.00311654
0.00311654
0.00311654
0.00311654
0.00311654
0.00311654
0.00311654
0.00311654
0.00311654
0.00311654
0.00311654
0.00311654
0.00311654
0.00311654
0.00311654
0.00311654
0.00311654
0.00311654
0.00311654
0.00311654
0.00311654
0.00311654
0.00311654
0.00311654
0.00311654
0.00311654
0.00311654
0.00311654
0.00311654
0.00311654
0.00311654
0.00311654
0.00311654
0.00311654
0.00311654
0.00311654
0.00311654
0.00311654
0.00311654
0.00311654
0.00311654
0.00311654
0.00311654
0.00311654
0.00311654
0.00311654
0.00311653
0.00311653
0.00311653
0.00311653
0.00311653
0.00311653
0.00311653
0.00311653
0.00311653
0.00311653
0.00311653
0.00311653
0.00311653
0.00311653
0.00311653
0.00311653
0.00311653
0.00311653
0.00311653
0.00311653
0.00311653
0.00311653
0.00311653
0.00311653
0.00311653
0.00311653
0.00311653
0.00311653
0.00311653
0.00311653
0.00311653
0.00311653
0.00311653
0.00311653
0.00311653
0.00311653
0.00311653
0.00311653
0.00311653
0.00311653
0.00311653
0.00311653
0.00311653
0.00311653
0.00311653
0.00311653
0.00311653
0.00311653
0.00311653
0.00311653
0.00311653
0.00311653
0.00311653
0.00311653
0.00311653
0.00311653
0.00311653
0.00311653
0.00311653
0.00311653
0.00311653
0.00311653
0.00311653
0.00311653
0.00311653
0.00311653
0.00311653
0.00311653
0.00311653
0.00311653
0.00311653
0.00311653
0.00311653
0.00311653
0.00311653
0.00311653
0.00311653
0.00311653
0.00311653
0.00311653
0.00311653
0.00311653
0.00311653
0.00311653
0.00311653
0.00311653
0.00311653
0.00311653
0.00311653
0.00311653
0.00311653
0.00311653
0.00311653
0.00311653
0.00311653
0.00311653
0.00311653
0.00311653
0.00311653
0.00311653
0.00311654
0.00311677
0.00311649
0.000801157
0.00127479
0.00167526
0.00195295
0.00210926
0.00220627
0.00227202
0.0023182
0.00235301
0.00238149
0.00240754
0.00243138
0.00245462
0.00247739
0.00250125
0.00252457
0.00254812
0.00257199
0.00259631
0.00262066
0.00264497
0.00266832
0.00268968
0.00270864
0.00272513
0.00273916
0.00275086
0.00276051
0.00276838
0.00277475
0.0027799
0.00278406
0.00278742
0.00279009
0.00279219
0.00279388
0.00279526
0.00279641
0.00279739
0.00279821
0.00279891
0.0027995
0.0028
0.00280043
0.00280079
0.00280109
0.00280135
0.00280158
0.00280177
0.00280193
0.00280207
0.00280218
0.00280229
0.00280237
0.00280245
0.00280251
0.00280257
0.00280262
0.00280266
0.00280269
0.00280272
0.00280275
0.00280277
0.00280279
0.00280281
0.00280282
0.00280283
0.00280284
0.00280285
0.00280286
0.00280287
0.00280287
0.00280288
0.00280288
0.00280288
0.00280289
0.00280289
0.00280289
0.00280289
0.00280289
0.0028029
0.0028029
0.0028029
0.0028029
0.0028029
0.0028029
0.0028029
0.0028029
0.0028029
0.0028029
0.0028029
0.0028029
0.0028029
0.0028029
0.0028029
0.0028029
0.0028029
0.0028029
0.0028029
0.0028029
0.0028029
0.0028029
0.0028029
0.0028029
0.0028029
0.0028029
0.0028029
0.0028029
0.0028029
0.0028029
0.0028029
0.0028029
0.0028029
0.0028029
0.0028029
0.0028029
0.0028029
0.0028029
0.0028029
0.0028029
0.0028029
0.0028029
0.0028029
0.0028029
0.0028029
0.0028029
0.0028029
0.0028029
0.0028029
0.0028029
0.0028029
0.0028029
0.0028029
0.0028029
0.0028029
0.0028029
0.0028029
0.0028029
0.0028029
0.0028029
0.0028029
0.0028029
0.0028029
0.0028029
0.0028029
0.0028029
0.0028029
0.0028029
0.0028029
0.0028029
0.0028029
0.0028029
0.0028029
0.0028029
0.0028029
0.0028029
0.0028029
0.0028029
0.0028029
0.0028029
0.0028029
0.0028029
0.0028029
0.0028029
0.0028029
0.0028029
0.0028029
0.0028029
0.0028029
0.0028029
0.0028029
0.0028029
0.0028029
0.0028029
0.0028029
0.0028029
0.0028029
0.0028029
0.0028029
0.0028029
0.0028029
0.0028029
0.0028029
0.0028029
0.0028029
0.0028029
0.0028029
0.0028029
0.0028029
0.0028029
0.0028029
0.0028029
0.0028029
0.0028029
0.0028029
0.0028029
0.0028029
0.0028029
0.0028029
0.0028029
0.0028029
0.0028029
0.0028029
0.0028029
0.0028029
0.0028029
0.0028029
0.0028029
0.0028029
0.0028029
0.0028029
0.0028029
0.0028029
0.0028029
0.0028029
0.0028029
0.0028029
0.0028029
0.0028029
0.0028029
0.0028029
0.0028029
0.0028029
0.0028029
0.0028029
0.0028029
0.0028029
0.0028029
0.0028029
0.0028029
0.0028029
0.0028029
0.0028029
0.0028029
0.0028029
0.0028029
0.0028029
0.0028029
0.0028029
0.0028029
0.0028029
0.0028029
0.0028029
0.0028029
0.0028029
0.0028029
0.0028029
0.0028029
0.0028029
0.0028029
0.0028029
0.0028029
0.0028029
0.0028029
0.0028029
0.0028029
0.0028029
0.0028029
0.0028029
0.0028029
0.0028029
0.0028029
0.0028029
0.0028029
0.0028029
0.0028029
0.0028029
0.0028029
0.0028029
0.0028029
0.0028029
0.0028029
0.0028029
0.0028029
0.0028029
0.0028029
0.0028029
0.0028029
0.0028029
0.0028029
0.0028029
0.0028029
0.0028029
0.0028029
0.0028029
0.0028029
0.0028029
0.0028029
0.0028029
0.0028029
0.0028029
0.0028029
0.0028029
0.0028029
0.0028029
0.0028029
0.0028029
0.00280289
0.00280281
0.00280285
0.000290433
0.000422508
0.000601955
0.000818051
0.0010327
0.00124236
0.00141522
0.00155223
0.00166353
0.00175453
0.00182796
0.00188804
0.00193902
0.0019841
0.00202366
0.00205887
0.00209182
0.00212228
0.00215142
0.00217873
0.00220433
0.00222719
0.00224622
0.00226118
0.00227257
0.00228088
0.0022866
0.00229031
0.00229244
0.00229345
0.00229365
0.00229331
0.00229262
0.00229174
0.00229082
0.00228994
0.00228914
0.00228843
0.0022878
0.00228725
0.00228677
0.00228634
0.00228597
0.00228565
0.00228537
0.00228513
0.00228492
0.00228474
0.00228459
0.00228446
0.00228435
0.00228426
0.00228418
0.00228411
0.00228405
0.002284
0.00228396
0.00228393
0.0022839
0.00228387
0.00228385
0.00228383
0.00228382
0.0022838
0.00228379
0.00228378
0.00228377
0.00228377
0.00228376
0.00228376
0.00228375
0.00228375
0.00228374
0.00228374
0.00228374
0.00228374
0.00228374
0.00228373
0.00228373
0.00228373
0.00228373
0.00228373
0.00228373
0.00228373
0.00228373
0.00228373
0.00228373
0.00228373
0.00228373
0.00228373
0.00228372
0.00228372
0.00228372
0.00228372
0.00228372
0.00228372
0.00228372
0.00228372
0.00228372
0.00228372
0.00228372
0.00228372
0.00228372
0.00228372
0.00228372
0.00228372
0.00228372
0.00228372
0.00228372
0.00228372
0.00228372
0.00228372
0.00228372
0.00228372
0.00228372
0.00228372
0.00228372
0.00228372
0.00228372
0.00228372
0.00228372
0.00228372
0.00228372
0.00228372
0.00228372
0.00228372
0.00228372
0.00228372
0.00228372
0.00228372
0.00228372
0.00228372
0.00228372
0.00228372
0.00228372
0.00228372
0.00228372
0.00228372
0.00228372
0.00228372
0.00228372
0.00228372
0.00228372
0.00228372
0.00228372
0.00228372
0.00228372
0.00228372
0.00228372
0.00228372
0.00228372
0.00228372
0.00228372
0.00228372
0.00228372
0.00228372
0.00228372
0.00228372
0.00228372
0.00228372
0.00228372
0.00228372
0.00228372
0.00228372
0.00228372
0.00228372
0.00228372
0.00228372
0.00228372
0.00228372
0.00228372
0.00228372
0.00228372
0.00228372
0.00228372
0.00228372
0.00228372
0.00228372
0.00228372
0.00228372
0.00228372
0.00228372
0.00228372
0.00228372
0.00228372
0.00228372
0.00228372
0.00228372
0.00228372
0.00228372
0.00228372
0.00228372
0.00228372
0.00228372
0.00228372
0.00228372
0.00228372
0.00228372
0.00228372
0.00228372
0.00228372
0.00228372
0.00228372
0.00228372
0.00228372
0.00228372
0.00228372
0.00228372
0.00228372
0.00228372
0.00228372
0.00228372
0.00228372
0.00228372
0.00228372
0.00228372
0.00228372
0.00228372
0.00228372
0.00228372
0.00228372
0.00228372
0.00228372
0.00228372
0.00228372
0.00228372
0.00228372
0.00228372
0.00228372
0.00228372
0.00228372
0.00228372
0.00228372
0.00228372
0.00228372
0.00228372
0.00228372
0.00228372
0.00228372
0.00228372
0.00228372
0.00228372
0.00228372
0.00228372
0.00228372
0.00228372
0.00228372
0.00228372
0.00228372
0.00228372
0.00228372
0.00228372
0.00228372
0.00228372
0.00228372
0.00228372
0.00228372
0.00228372
0.00228372
0.00228372
0.00228372
0.00228372
0.00228372
0.00228372
0.00228372
0.00228372
0.00228372
0.00228372
0.00228372
0.00228372
0.00228372
0.00228372
0.00228372
0.00228372
0.00228372
0.00228372
0.00228372
0.00228372
0.00228372
0.00228372
0.00228372
0.00228372
0.00228372
0.00228372
0.00228372
0.00228372
0.00228372
0.00228372
0.00228372
0.00228372
0.00228372
0.00228372
0.00228372
0.00228372
0.00228372
0.00228372
0.00228372
0.00228371
0.0022837
0.0022837
0.00018167
0.000214184
0.000263442
0.000326873
0.000429346
0.000561057
0.000710998
0.000867416
0.00101287
0.00114307
0.00125738
0.001357
0.00144349
0.00151928
0.00158395
0.00163911
0.00168732
0.00172967
0.00176716
0.00179987
0.00182825
0.00185098
0.00186889
0.00188218
0.00189124
0.00189673
0.00189938
0.00189995
0.00189905
0.00189724
0.00189484
0.00189212
0.00188929
0.00188656
0.00188409
0.0018819
0.00188
0.00187835
0.00187691
0.00187566
0.00187458
0.00187364
0.00187283
0.00187213
0.00187153
0.00187101
0.00187057
0.0018702
0.00186987
0.0018696
0.00186936
0.00186916
0.00186899
0.00186885
0.00186872
0.00186862
0.00186853
0.00186845
0.00186839
0.00186834
0.00186829
0.00186825
0.00186822
0.00186819
0.00186816
0.00186814
0.00186812
0.00186811
0.0018681
0.00186808
0.00186807
0.00186807
0.00186806
0.00186805
0.00186805
0.00186804
0.00186804
0.00186804
0.00186803
0.00186803
0.00186803
0.00186803
0.00186803
0.00186802
0.00186802
0.00186802
0.00186802
0.00186802
0.00186802
0.00186802
0.00186802
0.00186802
0.00186802
0.00186802
0.00186802
0.00186802
0.00186802
0.00186802
0.00186802
0.00186802
0.00186802
0.00186802
0.00186801
0.00186801
0.00186801
0.00186801
0.00186801
0.00186801
0.00186801
0.00186801
0.00186801
0.00186801
0.00186801
0.00186801
0.00186801
0.00186801
0.00186801
0.00186801
0.00186801
0.00186801
0.00186801
0.00186801
0.00186801
0.00186801
0.00186801
0.00186801
0.00186801
0.00186801
0.00186801
0.00186801
0.00186801
0.00186801
0.00186801
0.00186801
0.00186801
0.00186801
0.00186801
0.00186801
0.00186801
0.00186801
0.00186801
0.00186801
0.00186801
0.00186801
0.00186801
0.00186801
0.00186801
0.00186801
0.00186801
0.00186801
0.00186801
0.00186801
0.00186801
0.00186801
0.00186801
0.00186801
0.00186801
0.00186801
0.00186801
0.00186801
0.00186801
0.00186801
0.00186801
0.00186801
0.00186801
0.00186801
0.00186801
0.00186801
0.00186801
0.00186801
0.00186801
0.00186801
0.00186801
0.00186801
0.00186801
0.00186801
0.00186801
0.00186801
0.00186801
0.00186801
0.00186801
0.00186801
0.00186801
0.00186801
0.00186801
0.00186801
0.00186801
0.00186801
0.00186801
0.00186801
0.00186801
0.00186801
0.00186801
0.00186801
0.00186801
0.00186801
0.00186801
0.00186801
0.00186801
0.00186801
0.00186801
0.00186801
0.00186801
0.00186801
0.00186801
0.00186801
0.00186801
0.00186801
0.00186801
0.00186801
0.00186801
0.00186801
0.00186801
0.00186801
0.00186801
0.00186801
0.00186801
0.00186801
0.00186801
0.00186801
0.00186801
0.00186801
0.00186801
0.00186801
0.00186801
0.00186801
0.00186801
0.00186801
0.00186801
0.00186801
0.00186801
0.00186801
0.00186801
0.00186801
0.00186801
0.00186801
0.00186801
0.00186801
0.00186801
0.00186801
0.00186801
0.00186801
0.00186801
0.00186801
0.00186801
0.00186801
0.00186801
0.00186801
0.00186801
0.00186801
0.00186801
0.00186801
0.00186801
0.00186801
0.00186801
0.00186801
0.00186801
0.00186801
0.00186801
0.00186801
0.00186801
0.00186801
0.00186801
0.00186801
0.00186801
0.00186801
0.00186801
0.00186801
0.00186801
0.00186801
0.00186801
0.00186801
0.00186801
0.00186801
0.00186801
0.00186801
0.00186801
0.00186801
0.00186801
0.00186801
0.00186801
0.00186801
0.00186801
0.00186801
0.00186801
0.00186801
0.00186801
0.00186801
0.00186801
0.00186801
0.00186801
0.00186801
0.00186801
0.00186801
0.00186801
0.00186801
0.00186801
0.001868
0.00186801
0.00186801
0.000160701
0.000168804
0.000178565
0.000191529
0.000216035
0.00025405
0.000320247
0.000409724
0.000515007
0.000629931
0.000744325
0.000854886
0.000958065
0.00105287
0.00113915
0.00121564
0.00128258
0.00134078
0.00139065
0.00143289
0.00146803
0.00149717
0.00151951
0.00153544
0.00154619
0.00155284
0.00155638
0.00155771
0.00155752
0.00155639
0.00155462
0.00155247
0.00155017
0.00154795
0.00154596
0.00154422
0.00154271
0.00154139
0.00154024
0.00153923
0.00153836
0.0015376
0.00153695
0.00153638
0.0015359
0.00153548
0.00153513
0.00153482
0.00153457
0.00153434
0.00153416
0.001534
0.00153386
0.00153375
0.00153365
0.00153357
0.0015335
0.00153344
0.00153339
0.00153335
0.00153331
0.00153328
0.00153326
0.00153323
0.00153322
0.0015332
0.00153319
0.00153318
0.00153317
0.00153316
0.00153315
0.00153314
0.00153314
0.00153313
0.00153313
0.00153313
0.00153312
0.00153312
0.00153312
0.00153312
0.00153312
0.00153311
0.00153311
0.00153311
0.00153311
0.00153311
0.00153311
0.00153311
0.00153311
0.00153311
0.00153311
0.00153311
0.00153311
0.00153311
0.00153311
0.00153311
0.00153311
0.00153311
0.00153311
0.0015331
0.0015331
0.0015331
0.0015331
0.0015331
0.0015331
0.0015331
0.0015331
0.0015331
0.0015331
0.0015331
0.0015331
0.0015331
0.0015331
0.0015331
0.0015331
0.0015331
0.0015331
0.0015331
0.0015331
0.0015331
0.0015331
0.0015331
0.0015331
0.0015331
0.0015331
0.0015331
0.0015331
0.0015331
0.0015331
0.0015331
0.0015331
0.0015331
0.0015331
0.0015331
0.0015331
0.0015331
0.0015331
0.0015331
0.0015331
0.0015331
0.0015331
0.0015331
0.0015331
0.0015331
0.0015331
0.0015331
0.0015331
0.0015331
0.0015331
0.0015331
0.0015331
0.0015331
0.0015331
0.0015331
0.0015331
0.0015331
0.0015331
0.0015331
0.0015331
0.0015331
0.0015331
0.0015331
0.0015331
0.0015331
0.0015331
0.0015331
0.0015331
0.0015331
0.0015331
0.0015331
0.0015331
0.0015331
0.0015331
0.0015331
0.0015331
0.0015331
0.0015331
0.0015331
0.0015331
0.0015331
0.0015331
0.0015331
0.0015331
0.0015331
0.0015331
0.0015331
0.0015331
0.0015331
0.0015331
0.0015331
0.0015331
0.0015331
0.0015331
0.0015331
0.0015331
0.0015331
0.0015331
0.0015331
0.0015331
0.0015331
0.0015331
0.0015331
0.0015331
0.0015331
0.0015331
0.0015331
0.0015331
0.0015331
0.0015331
0.0015331
0.0015331
0.0015331
0.0015331
0.0015331
0.0015331
0.0015331
0.0015331
0.0015331
0.0015331
0.0015331
0.0015331
0.0015331
0.0015331
0.0015331
0.0015331
0.0015331
0.0015331
0.0015331
0.0015331
0.0015331
0.0015331
0.0015331
0.0015331
0.0015331
0.0015331
0.0015331
0.0015331
0.0015331
0.0015331
0.0015331
0.0015331
0.0015331
0.0015331
0.0015331
0.0015331
0.0015331
0.0015331
0.0015331
0.0015331
0.0015331
0.0015331
0.0015331
0.0015331
0.0015331
0.0015331
0.0015331
0.0015331
0.0015331
0.0015331
0.0015331
0.0015331
0.0015331
0.0015331
0.0015331
0.0015331
0.0015331
0.0015331
0.0015331
0.0015331
0.0015331
0.0015331
0.0015331
0.0015331
0.0015331
0.0015331
0.0015331
0.0015331
0.0015331
0.0015331
0.0015331
0.0015331
0.0015331
0.0015331
0.0015331
0.0015331
0.0015331
0.0015331
0.0015331
0.0015331
0.0015331
0.0015331
0.0015331
0.0015331
0.0015331
0.0015331
0.0015331
0.0015331
0.0015331
0.0015331
0.0015331
0.000155541
0.000159826
0.000162057
0.000163827
0.000167233
0.000173911
0.000188764
0.000213493
0.000254596
0.000312884
0.000384849
0.00046691
0.000554928
0.000643239
0.000728699
0.000810276
0.000885785
0.000953857
0.00101422
0.00106743
0.00111414
0.00115317
0.0011848
0.00120904
0.00122726
0.00124073
0.00125058
0.00125776
0.00126296
0.00126671
0.00126926
0.00127092
0.00127196
0.00127266
0.00127321
0.00127363
0.00127394
0.00127418
0.00127435
0.00127447
0.00127456
0.00127463
0.00127468
0.00127472
0.00127475
0.00127477
0.00127479
0.00127481
0.00127482
0.00127484
0.00127485
0.00127487
0.00127488
0.00127489
0.0012749
0.00127491
0.00127492
0.00127493
0.00127494
0.00127495
0.00127495
0.00127496
0.00127496
0.00127497
0.00127497
0.00127498
0.00127498
0.00127499
0.00127499
0.00127499
0.00127499
0.00127499
0.001275
0.001275
0.001275
0.001275
0.001275
0.001275
0.001275
0.001275
0.001275
0.001275
0.001275
0.001275
0.001275
0.001275
0.001275
0.001275
0.001275
0.001275
0.001275
0.001275
0.001275
0.001275
0.001275
0.001275
0.001275
0.001275
0.001275
0.001275
0.001275
0.001275
0.001275
0.001275
0.001275
0.001275
0.001275
0.001275
0.001275
0.001275
0.001275
0.001275
0.001275
0.001275
0.001275
0.001275
0.001275
0.001275
0.001275
0.001275
0.001275
0.001275
0.001275
0.001275
0.001275
0.001275
0.001275
0.001275
0.001275
0.001275
0.001275
0.001275
0.001275
0.001275
0.001275
0.001275
0.001275
0.001275
0.001275
0.001275
0.001275
0.001275
0.001275
0.001275
0.001275
0.001275
0.001275
0.001275
0.001275
0.001275
0.001275
0.001275
0.001275
0.001275
0.001275
0.001275
0.001275
0.001275
0.001275
0.001275
0.001275
0.001275
0.001275
0.001275
0.001275
0.001275
0.001275
0.001275
0.001275
0.001275
0.001275
0.001275
0.001275
0.001275
0.001275
0.001275
0.001275
0.001275
0.001275
0.001275
0.001275
0.001275
0.001275
0.001275
0.001275
0.001275
0.001275
0.001275
0.001275
0.001275
0.001275
0.001275
0.001275
0.001275
0.001275
0.001275
0.001275
0.001275
0.001275
0.001275
0.001275
0.001275
0.001275
0.001275
0.001275
0.001275
0.001275
0.001275
0.001275
0.001275
0.001275
0.001275
0.001275
0.001275
0.001275
0.001275
0.001275
0.001275
0.001275
0.001275
0.001275
0.001275
0.001275
0.001275
0.001275
0.001275
0.001275
0.001275
0.001275
0.001275
0.001275
0.001275
0.001275
0.001275
0.001275
0.001275
0.001275
0.001275
0.001275
0.001275
0.001275
0.001275
0.001275
0.001275
0.001275
0.001275
0.001275
0.001275
0.001275
0.001275
0.001275
0.001275
0.001275
0.001275
0.001275
0.001275
0.001275
0.001275
0.001275
0.001275
0.001275
0.001275
0.001275
0.001275
0.001275
0.001275
0.001275
0.001275
0.001275
0.001275
0.001275
0.001275
0.001275
0.001275
0.001275
0.001275
0.001275
0.001275
0.001275
0.001275
0.001275
0.001275
0.001275
0.001275
0.001275
0.001275
0.001275
0.001275
0.001275
0.001275
0.001275
0.001275
0.001275
0.001275
0.001275
0.001275
0.001275
0.00127499
0.00127499
0.001275
0.000153822
0.000157415
0.000159103
0.000159007
0.000158384
0.000158115
0.000159682
0.000163902
0.000173057
0.000189299
0.00021374
0.000249919
0.000297793
0.000354817
0.000418599
0.000485438
0.00055273
0.000618543
0.000681227
0.000740276
0.000795861
0.000845699
0.000889099
0.000925717
0.000956428
0.000981996
0.00100311
0.00102041
0.00103451
0.00104596
0.00105515
0.0010625
0.0010684
0.00107322
0.00107723
0.00108056
0.00108333
0.00108563
0.00108756
0.00108918
0.00109055
0.0010917
0.00109267
0.00109349
0.00109419
0.00109478
0.00109529
0.00109572
0.00109609
0.00109641
0.00109668
0.00109692
0.00109712
0.00109729
0.00109744
0.00109757
0.00109768
0.00109777
0.00109786
0.00109793
0.00109799
0.00109804
0.00109809
0.00109813
0.00109816
0.00109819
0.00109821
0.00109824
0.00109825
0.00109827
0.00109828
0.0010983
0.00109831
0.00109831
0.00109832
0.00109833
0.00109833
0.00109834
0.00109834
0.00109834
0.00109835
0.00109835
0.00109835
0.00109835
0.00109835
0.00109835
0.00109836
0.00109836
0.00109836
0.00109836
0.00109836
0.00109836
0.00109836
0.00109836
0.00109836
0.00109836
0.00109836
0.00109836
0.00109836
0.00109836
0.00109836
0.00109836
0.00109836
0.00109836
0.00109836
0.00109836
0.00109836
0.00109836
0.00109836
0.00109836
0.00109836
0.00109836
0.00109836
0.00109836
0.00109836
0.00109836
0.00109836
0.00109836
0.00109836
0.00109836
0.00109836
0.00109836
0.00109836
0.00109836
0.00109836
0.00109836
0.00109836
0.00109836
0.00109836
0.00109836
0.00109836
0.00109836
0.00109836
0.00109836
0.00109836
0.00109836
0.00109836
0.00109836
0.00109836
0.00109836
0.00109836
0.00109836
0.00109836
0.00109836
0.00109836
0.00109836
0.00109836
0.00109836
0.00109836
0.00109836
0.00109836
0.00109836
0.00109836
0.00109836
0.00109836
0.00109836
0.00109836
0.00109836
0.00109836
0.00109836
0.00109836
0.00109836
0.00109836
0.00109836
0.00109836
0.00109836
0.00109836
0.00109836
0.00109836
0.00109836
0.00109836
0.00109836
0.00109836
0.00109836
0.00109836
0.00109836
0.00109836
0.00109836
0.00109836
0.00109836
0.00109836
0.00109836
0.00109836
0.00109836
0.00109836
0.00109836
0.00109836
0.00109836
0.00109836
0.00109836
0.00109836
0.00109836
0.00109836
0.00109836
0.00109836
0.00109836
0.00109836
0.00109836
0.00109836
0.00109836
0.00109836
0.00109836
0.00109836
0.00109836
0.00109836
0.00109836
0.00109836
0.00109836
0.00109836
0.00109836
0.00109836
0.00109836
0.00109836
0.00109836
0.00109836
0.00109836
0.00109836
0.00109836
0.00109836
0.00109836
0.00109836
0.00109836
0.00109836
0.00109836
0.00109836
0.00109836
0.00109836
0.00109836
0.00109836
0.00109836
0.00109836
0.00109836
0.00109836
0.00109836
0.00109836
0.00109836
0.00109836
0.00109836
0.00109836
0.00109836
0.00109836
0.00109836
0.00109836
0.00109836
0.00109836
0.00109836
0.00109836
0.00109836
0.00109836
0.00109836
0.00109836
0.00109836
0.00109836
0.00109836
0.00109836
0.00109836
0.00109836
0.00109836
0.00109836
0.00109836
0.00109836
0.00109836
0.00109836
0.00109836
0.00109836
0.00109836
0.00109836
0.00109836
0.00109836
0.00109836
0.00109836
0.00109836
0.00109836
0.00109836
0.00109836
0.00109836
0.00109836
0.00109836
0.00109836
0.00109836
0.00109836
0.00109836
0.00109836
0.00109836
0.00109836
0.00109836
0.00109836
0.00109836
0.00109836
0.00109836
0.00109836
0.00109836
0.00109836
0.00109836
0.00109836
0.00109836
0.00109836
0.00109836
0.00109836
0.00109836
0.000153364
0.000156674
0.000158428
0.000158231
0.000156911
0.000155295
0.000154011
0.000153465
0.000154464
0.00015803
0.000165327
0.000177813
0.000197227
0.000224676
0.000258327
0.000299645
0.00034825
0.000402513
0.000461078
0.000522066
0.000583095
0.000641901
0.000696882
0.000746777
0.00078996
0.000826906
0.000858002
0.000883863
0.000905215
0.000922735
0.00093713
0.000948822
0.000958311
0.000966064
0.000972502
0.0009779
0.000982424
0.00098622
0.000989411
0.0009921
0.00099437
0.00099629
0.000997917
0.000999298
0.00100047
0.00100147
0.00100232
0.00100305
0.00100367
0.0010042
0.00100466
0.00100505
0.00100538
0.00100567
0.00100592
0.00100613
0.00100631
0.00100647
0.0010066
0.00100672
0.00100682
0.0010069
0.00100698
0.00100704
0.00100709
0.00100714
0.00100718
0.00100722
0.00100725
0.00100727
0.00100729
0.00100731
0.00100733
0.00100734
0.00100735
0.00100736
0.00100737
0.00100738
0.00100738
0.00100739
0.00100739
0.0010074
0.0010074
0.0010074
0.0010074
0.00100741
0.00100741
0.00100741
0.00100741
0.00100741
0.00100741
0.00100741
0.00100741
0.00100742
0.00100742
0.00100742
0.00100742
0.00100742
0.00100742
0.00100742
0.00100742
0.00100742
0.00100742
0.00100742
0.00100742
0.00100742
0.00100742
0.00100742
0.00100742
0.00100742
0.00100742
0.00100742
0.00100742
0.00100742
0.00100742
0.00100742
0.00100742
0.00100742
0.00100742
0.00100742
0.00100742
0.00100742
0.00100742
0.00100742
0.00100742
0.00100742
0.00100742
0.00100742
0.00100742
0.00100742
0.00100742
0.00100742
0.00100742
0.00100742
0.00100742
0.00100742
0.00100742
0.00100742
0.00100742
0.00100742
0.00100742
0.00100742
0.00100742
0.00100742
0.00100742
0.00100742
0.00100742
0.00100742
0.00100742
0.00100742
0.00100742
0.00100742
0.00100742
0.00100742
0.00100742
0.00100742
0.00100742
0.00100742
0.00100742
0.00100742
0.00100742
0.00100742
0.00100742
0.00100742
0.00100742
0.00100742
0.00100742
0.00100742
0.00100742
0.00100742
0.00100742
0.00100742
0.00100742
0.00100742
0.00100742
0.00100742
0.00100742
0.00100742
0.00100742
0.00100742
0.00100742
0.00100742
0.00100742
0.00100742
0.00100742
0.00100742
0.00100742
0.00100741
0.00100741
0.00100741
0.00100741
0.00100741
0.00100741
0.00100741
0.00100741
0.00100741
0.00100741
0.00100741
0.00100741
0.00100741
0.00100741
0.00100741
0.00100741
0.00100741
0.00100741
0.00100741
0.00100741
0.00100741
0.00100741
0.00100741
0.00100741
0.00100741
0.00100741
0.00100741
0.00100741
0.00100741
0.00100741
0.00100741
0.00100741
0.00100741
0.00100741
0.00100741
0.00100741
0.00100741
0.00100741
0.00100741
0.00100741
0.00100741
0.00100741
0.00100741
0.00100741
0.00100741
0.00100741
0.00100741
0.00100741
0.00100741
0.00100741
0.00100741
0.00100741
0.00100741
0.00100741
0.00100741
0.00100741
0.00100741
0.00100741
0.00100741
0.00100741
0.00100741
0.00100741
0.00100741
0.00100741
0.00100741
0.00100741
0.00100741
0.00100741
0.00100741
0.00100741
0.00100741
0.00100741
0.00100741
0.00100741
0.00100741
0.00100741
0.00100741
0.00100741
0.00100741
0.00100741
0.00100741
0.00100741
0.00100741
0.00100741
0.00100741
0.00100741
0.00100741
0.00100741
0.00100741
0.00100741
0.00100741
0.00100741
0.00100741
0.00100741
0.00100741
0.00100741
0.00100741
0.00100741
0.00100741
0.00100741
0.00100741
0.00100741
0.00100741
0.00100741
0.00100741
0.00100741
0.00100741
0.00100741
0.00100741
0.00100741
0.00100741
0.00100741
0.00100741
)
;

boundaryField
{
    inlet
    {
        type            fixedValue;
        value           uniform 0.00014968;
    }
    outlet
    {
        type            zeroGradient;
    }
    sideWall
    {
        type            empty;
    }
    bed
    {
        type            kqRWallFunction;
        value           nonuniform List<scalar> 
300
(
0.00355452
0.00435548
0.00369772
0.00310145
0.00278237
0.00264013
0.00258955
0.00258293
0.00259193
0.00260988
0.00263197
0.00265385
0.00267548
0.00269787
0.00271963
0.0027417
0.00276485
0.00278812
0.00281175
0.00283562
0.00285946
0.00288341
0.00290806
0.00293334
0.00295774
0.00298017
0.00300039
0.00301819
0.00303364
0.00304688
0.00305823
0.00306791
0.003076
0.0030826
0.00308792
0.0030923
0.00309595
0.00309902
0.00310161
0.00310381
0.00310568
0.00310728
0.00310863
0.00310979
0.00311077
0.00311161
0.00311233
0.00311294
0.00311346
0.0031139
0.00311428
0.00311461
0.00311488
0.00311512
0.00311532
0.0031155
0.00311565
0.00311577
0.00311588
0.00311598
0.00311606
0.00311613
0.00311618
0.00311624
0.00311628
0.00311632
0.00311635
0.00311638
0.0031164
0.00311642
0.00311644
0.00311645
0.00311646
0.00311647
0.00311648
0.00311649
0.0031165
0.0031165
0.00311651
0.00311651
0.00311652
0.00311652
0.00311652
0.00311652
0.00311653
0.00311653
0.00311653
0.00311653
0.00311653
0.00311653
0.00311653
0.00311653
0.00311653
0.00311653
0.00311653
0.00311654
0.00311654
0.00311654
0.00311654
0.00311654
0.00311654
0.00311654
0.00311654
0.00311654
0.00311654
0.00311654
0.00311654
0.00311654
0.00311654
0.00311654
0.00311654
0.00311654
0.00311654
0.00311654
0.00311654
0.00311654
0.00311654
0.00311654
0.00311654
0.00311654
0.00311654
0.00311654
0.00311654
0.00311654
0.00311654
0.00311654
0.00311654
0.00311654
0.00311654
0.00311654
0.00311654
0.00311654
0.00311654
0.00311654
0.00311654
0.00311654
0.00311654
0.00311654
0.00311654
0.00311654
0.00311654
0.00311654
0.00311654
0.00311654
0.00311654
0.00311654
0.00311654
0.00311654
0.00311654
0.00311654
0.00311654
0.00311654
0.00311654
0.00311654
0.00311654
0.00311654
0.00311654
0.00311654
0.00311654
0.00311654
0.00311654
0.00311654
0.00311654
0.00311654
0.00311654
0.00311654
0.00311654
0.00311654
0.00311654
0.00311654
0.00311654
0.00311654
0.00311654
0.00311654
0.00311654
0.00311654
0.00311654
0.00311654
0.00311654
0.00311654
0.00311654
0.00311654
0.00311654
0.00311654
0.00311654
0.00311654
0.00311654
0.00311654
0.00311654
0.00311654
0.00311654
0.00311654
0.00311654
0.00311654
0.00311654
0.00311654
0.00311654
0.00311653
0.00311653
0.00311653
0.00311653
0.00311653
0.00311653
0.00311653
0.00311653
0.00311653
0.00311653
0.00311653
0.00311653
0.00311653
0.00311653
0.00311653
0.00311653
0.00311653
0.00311653
0.00311653
0.00311653
0.00311653
0.00311653
0.00311653
0.00311653
0.00311653
0.00311653
0.00311653
0.00311653
0.00311653
0.00311653
0.00311653
0.00311653
0.00311653
0.00311653
0.00311653
0.00311653
0.00311653
0.00311653
0.00311653
0.00311653
0.00311653
0.00311653
0.00311653
0.00311653
0.00311653
0.00311653
0.00311653
0.00311653
0.00311653
0.00311653
0.00311653
0.00311653
0.00311653
0.00311653
0.00311653
0.00311653
0.00311653
0.00311653
0.00311653
0.00311653
0.00311653
0.00311653
0.00311653
0.00311653
0.00311653
0.00311653
0.00311653
0.00311653
0.00311653
0.00311653
0.00311653
0.00311653
0.00311653
0.00311653
0.00311653
0.00311653
0.00311653
0.00311653
0.00311653
0.00311653
0.00311653
0.00311653
0.00311653
0.00311653
0.00311653
0.00311653
0.00311653
0.00311653
0.00311653
0.00311653
0.00311653
0.00311653
0.00311653
0.00311653
0.00311653
0.00311653
0.00311653