/*--------------------------------*- C++ -*----------------------------------*\
| =========                 |                                                 |
| \\      /  F ield         | foam-extend: Open Source CFD                    |
|  \\    /   O peration     | Version:     3.2                                |
|   \\  /    A nd           | Web:         http://www.foam-extend.org         |
|    \\/     M anipulation  | For copyright notice see file Copyright         |
\*---------------------------------------------------------------------------*/
FoamFile
{
    version     2.0;
    format      ascii;
    class       volScalarField;
    location    "200";
    object      nut;
}
// * * * * * * * * * * * * * * * * * * * * * * * * * * * * * * * * * * * * * //

dimensions      [0 2 -1 0 0 0 0];

internalField   nonuniform List<scalar> 
2400
(
2.47853e-05
2.74998e-05
2.16952e-05
1.80324e-05
1.68344e-05
1.63389e-05
1.62276e-05
1.65378e-05
1.69711e-05
1.74234e-05
1.78167e-05
1.81594e-05
1.84317e-05
1.86958e-05
1.89125e-05
1.91097e-05
1.92953e-05
1.94588e-05
1.96056e-05
1.97418e-05
1.98646e-05
1.99826e-05
2.01086e-05
2.02423e-05
2.03714e-05
2.04884e-05
2.05919e-05
2.06803e-05
2.07543e-05
2.08151e-05
2.0865e-05
2.09054e-05
2.0937e-05
2.09609e-05
2.09788e-05
2.09926e-05
2.10034e-05
2.10118e-05
2.10186e-05
2.10242e-05
2.10287e-05
2.10326e-05
2.10358e-05
2.10384e-05
2.10407e-05
2.10426e-05
2.10442e-05
2.10456e-05
2.10467e-05
2.10477e-05
2.10485e-05
2.10492e-05
2.10498e-05
2.10503e-05
2.10508e-05
2.10511e-05
2.10515e-05
2.10517e-05
2.1052e-05
2.10522e-05
2.10524e-05
2.10525e-05
2.10527e-05
2.10528e-05
2.10529e-05
2.1053e-05
2.1053e-05
2.10531e-05
2.10532e-05
2.10532e-05
2.10533e-05
2.10533e-05
2.10533e-05
2.10533e-05
2.10534e-05
2.10534e-05
2.10534e-05
2.10534e-05
2.10534e-05
2.10534e-05
2.10534e-05
2.10534e-05
2.10534e-05
2.10534e-05
2.10534e-05
2.10534e-05
2.10535e-05
2.10535e-05
2.10535e-05
2.10535e-05
2.10535e-05
2.10535e-05
2.10535e-05
2.10535e-05
2.10535e-05
2.10535e-05
2.10535e-05
2.10535e-05
2.10535e-05
2.10535e-05
2.10535e-05
2.10535e-05
2.10535e-05
2.10535e-05
2.10535e-05
2.10535e-05
2.10535e-05
2.10535e-05
2.10535e-05
2.10535e-05
2.10535e-05
2.10535e-05
2.10535e-05
2.10535e-05
2.10535e-05
2.10535e-05
2.10535e-05
2.10535e-05
2.10535e-05
2.10535e-05
2.10535e-05
2.10535e-05
2.10535e-05
2.10535e-05
2.10535e-05
2.10535e-05
2.10535e-05
2.10535e-05
2.10535e-05
2.10535e-05
2.10535e-05
2.10535e-05
2.10535e-05
2.10535e-05
2.10535e-05
2.10535e-05
2.10535e-05
2.10535e-05
2.10535e-05
2.10535e-05
2.10535e-05
2.10535e-05
2.10535e-05
2.10535e-05
2.10535e-05
2.10535e-05
2.10535e-05
2.10535e-05
2.10535e-05
2.10535e-05
2.10535e-05
2.10535e-05
2.10535e-05
2.10535e-05
2.10535e-05
2.10535e-05
2.10535e-05
2.10535e-05
2.10535e-05
2.10535e-05
2.10535e-05
2.10535e-05
2.10535e-05
2.10535e-05
2.10535e-05
2.10535e-05
2.10535e-05
2.10535e-05
2.10535e-05
2.10535e-05
2.10535e-05
2.10535e-05
2.10535e-05
2.10535e-05
2.10535e-05
2.10535e-05
2.10535e-05
2.10535e-05
2.10534e-05
2.10534e-05
2.10534e-05
2.10534e-05
2.10534e-05
2.10534e-05
2.10534e-05
2.10534e-05
2.10534e-05
2.10534e-05
2.10534e-05
2.10534e-05
2.10534e-05
2.10534e-05
2.10534e-05
2.10534e-05
2.10534e-05
2.10534e-05
2.10534e-05
2.10534e-05
2.10534e-05
2.10534e-05
2.10534e-05
2.10534e-05
2.10534e-05
2.10534e-05
2.10534e-05
2.10534e-05
2.10534e-05
2.10534e-05
2.10534e-05
2.10534e-05
2.10534e-05
2.10534e-05
2.10534e-05
2.10534e-05
2.10534e-05
2.10534e-05
2.10534e-05
2.10534e-05
2.10534e-05
2.10534e-05
2.10534e-05
2.10534e-05
2.10534e-05
2.10534e-05
2.10534e-05
2.10534e-05
2.10534e-05
2.10534e-05
2.10534e-05
2.10534e-05
2.10534e-05
2.10534e-05
2.10534e-05
2.10534e-05
2.10534e-05
2.10534e-05
2.10534e-05
2.10534e-05
2.10534e-05
2.10534e-05
2.10534e-05
2.10534e-05
2.10534e-05
2.10534e-05
2.10534e-05
2.10534e-05
2.10534e-05
2.10534e-05
2.10534e-05
2.10534e-05
2.10534e-05
2.10534e-05
2.10534e-05
2.10534e-05
2.10534e-05
2.10534e-05
2.10534e-05
2.10534e-05
2.10534e-05
2.10534e-05
2.10534e-05
2.10534e-05
2.10534e-05
2.10534e-05
2.10534e-05
2.10534e-05
2.10534e-05
2.10534e-05
2.10534e-05
2.10534e-05
2.10534e-05
2.10534e-05
2.10534e-05
2.10534e-05
2.10534e-05
2.10534e-05
2.10534e-05
2.10534e-05
2.10534e-05
2.10534e-05
2.10534e-05
2.10534e-05
2.10534e-05
2.10534e-05
2.10534e-05
2.10534e-05
2.10534e-05
2.10534e-05
2.10534e-05
2.10534e-05
2.10534e-05
2.10534e-05
2.10534e-05
2.10534e-05
2.10534e-05
2.10534e-05
2.10534e-05
2.10535e-05
2.10579e-05
2.10518e-05
1.68663e-05
1.96334e-05
2.63824e-05
2.97084e-05
3.21929e-05
3.45693e-05
3.67154e-05
3.85405e-05
4.01085e-05
4.14724e-05
4.26131e-05
4.35978e-05
4.44336e-05
4.5191e-05
4.58241e-05
4.64097e-05
4.6939e-05
4.74115e-05
4.78456e-05
4.82489e-05
4.86173e-05
4.8961e-05
4.92828e-05
4.95738e-05
4.98234e-05
5.00298e-05
5.0196e-05
5.03256e-05
5.04244e-05
5.04978e-05
5.05512e-05
5.05889e-05
5.06144e-05
5.06307e-05
5.06405e-05
5.06461e-05
5.0649e-05
5.06503e-05
5.06508e-05
5.06508e-05
5.06505e-05
5.06501e-05
5.06497e-05
5.06492e-05
5.06487e-05
5.06482e-05
5.06478e-05
5.06474e-05
5.06471e-05
5.06468e-05
5.06465e-05
5.06463e-05
5.06461e-05
5.0646e-05
5.06458e-05
5.06457e-05
5.06457e-05
5.06456e-05
5.06455e-05
5.06455e-05
5.06455e-05
5.06455e-05
5.06454e-05
5.06454e-05
5.06454e-05
5.06454e-05
5.06454e-05
5.06454e-05
5.06454e-05
5.06454e-05
5.06454e-05
5.06454e-05
5.06454e-05
5.06454e-05
5.06454e-05
5.06454e-05
5.06454e-05
5.06454e-05
5.06454e-05
5.06454e-05
5.06454e-05
5.06454e-05
5.06454e-05
5.06454e-05
5.06454e-05
5.06454e-05
5.06454e-05
5.06454e-05
5.06454e-05
5.06454e-05
5.06454e-05
5.06454e-05
5.06454e-05
5.06454e-05
5.06454e-05
5.06454e-05
5.06454e-05
5.06454e-05
5.06454e-05
5.06453e-05
5.06453e-05
5.06453e-05
5.06453e-05
5.06453e-05
5.06453e-05
5.06453e-05
5.06453e-05
5.06453e-05
5.06453e-05
5.06453e-05
5.06453e-05
5.06453e-05
5.06453e-05
5.06453e-05
5.06453e-05
5.06453e-05
5.06453e-05
5.06453e-05
5.06453e-05
5.06453e-05
5.06453e-05
5.06453e-05
5.06453e-05
5.06453e-05
5.06453e-05
5.06453e-05
5.06453e-05
5.06453e-05
5.06453e-05
5.06453e-05
5.06453e-05
5.06453e-05
5.06453e-05
5.06453e-05
5.06453e-05
5.06453e-05
5.06453e-05
5.06453e-05
5.06453e-05
5.06453e-05
5.06453e-05
5.06453e-05
5.06453e-05
5.06453e-05
5.06453e-05
5.06453e-05
5.06453e-05
5.06453e-05
5.06453e-05
5.06453e-05
5.06453e-05
5.06453e-05
5.06453e-05
5.06453e-05
5.06453e-05
5.06453e-05
5.06453e-05
5.06453e-05
5.06453e-05
5.06453e-05
5.06453e-05
5.06453e-05
5.06453e-05
5.06453e-05
5.06453e-05
5.06453e-05
5.06453e-05
5.06453e-05
5.06453e-05
5.06453e-05
5.06453e-05
5.06453e-05
5.06453e-05
5.06453e-05
5.06453e-05
5.06453e-05
5.06453e-05
5.06453e-05
5.06453e-05
5.06453e-05
5.06453e-05
5.06453e-05
5.06453e-05
5.06453e-05
5.06453e-05
5.06453e-05
5.06453e-05
5.06453e-05
5.06453e-05
5.06453e-05
5.06453e-05
5.06453e-05
5.06453e-05
5.06453e-05
5.06453e-05
5.06453e-05
5.06453e-05
5.06453e-05
5.06453e-05
5.06453e-05
5.06453e-05
5.06453e-05
5.06453e-05
5.06453e-05
5.06453e-05
5.06453e-05
5.06453e-05
5.06453e-05
5.06453e-05
5.06453e-05
5.06453e-05
5.06453e-05
5.06453e-05
5.06453e-05
5.06453e-05
5.06453e-05
5.06453e-05
5.06453e-05
5.06453e-05
5.06453e-05
5.06453e-05
5.06453e-05
5.06453e-05
5.06453e-05
5.06453e-05
5.06453e-05
5.06453e-05
5.06453e-05
5.06453e-05
5.06453e-05
5.06453e-05
5.06453e-05
5.06453e-05
5.06453e-05
5.06453e-05
5.06453e-05
5.06453e-05
5.06453e-05
5.06453e-05
5.06453e-05
5.06453e-05
5.06453e-05
5.06453e-05
5.06453e-05
5.06453e-05
5.06453e-05
5.06453e-05
5.06453e-05
5.06453e-05
5.06453e-05
5.06453e-05
5.06453e-05
5.06453e-05
5.06453e-05
5.06453e-05
5.06453e-05
5.06453e-05
5.06453e-05
5.06453e-05
5.06453e-05
5.06453e-05
5.06453e-05
5.06453e-05
5.06453e-05
5.06453e-05
5.06453e-05
5.06453e-05
5.06453e-05
5.06453e-05
5.06453e-05
5.06453e-05
5.06453e-05
5.06453e-05
5.06453e-05
5.06453e-05
5.06453e-05
5.06453e-05
5.06453e-05
5.06453e-05
5.06453e-05
5.06453e-05
5.06453e-05
5.06453e-05
5.06453e-05
5.06453e-05
5.06453e-05
5.06453e-05
5.06453e-05
5.06453e-05
5.06453e-05
5.06453e-05
5.06453e-05
5.06453e-05
5.06453e-05
5.06453e-05
5.06453e-05
5.06453e-05
5.06453e-05
5.06496e-05
5.06434e-05
1.80793e-05
1.54758e-05
1.84121e-05
2.30005e-05
2.83618e-05
3.39533e-05
3.85857e-05
4.30587e-05
4.71316e-05
5.07591e-05
5.40198e-05
5.69048e-05
5.94798e-05
6.17215e-05
6.34358e-05
6.49292e-05
6.62798e-05
6.75021e-05
6.86224e-05
6.96449e-05
7.05792e-05
7.14097e-05
7.21247e-05
7.27204e-05
7.32032e-05
7.35863e-05
7.38846e-05
7.41137e-05
7.42872e-05
7.44182e-05
7.45162e-05
7.45882e-05
7.46401e-05
7.46772e-05
7.47052e-05
7.47277e-05
7.47462e-05
7.47618e-05
7.47749e-05
7.47859e-05
7.47952e-05
7.4803e-05
7.48095e-05
7.4815e-05
7.48197e-05
7.48237e-05
7.48271e-05
7.483e-05
7.48325e-05
7.48347e-05
7.48365e-05
7.48382e-05
7.48396e-05
7.48408e-05
7.48419e-05
7.48428e-05
7.48436e-05
7.48443e-05
7.48449e-05
7.48455e-05
7.48459e-05
7.48463e-05
7.48467e-05
7.4847e-05
7.48473e-05
7.48475e-05
7.48477e-05
7.48478e-05
7.4848e-05
7.48481e-05
7.48482e-05
7.48483e-05
7.48484e-05
7.48484e-05
7.48485e-05
7.48485e-05
7.48486e-05
7.48486e-05
7.48486e-05
7.48487e-05
7.48487e-05
7.48487e-05
7.48487e-05
7.48487e-05
7.48487e-05
7.48487e-05
7.48487e-05
7.48487e-05
7.48488e-05
7.48488e-05
7.48488e-05
7.48488e-05
7.48488e-05
7.48488e-05
7.48488e-05
7.48488e-05
7.48488e-05
7.48488e-05
7.48488e-05
7.48488e-05
7.48488e-05
7.48488e-05
7.48488e-05
7.48488e-05
7.48488e-05
7.48488e-05
7.48488e-05
7.48488e-05
7.48488e-05
7.48488e-05
7.48488e-05
7.48488e-05
7.48488e-05
7.48488e-05
7.48488e-05
7.48488e-05
7.48488e-05
7.48488e-05
7.48488e-05
7.48488e-05
7.48488e-05
7.48488e-05
7.48488e-05
7.48488e-05
7.48488e-05
7.48488e-05
7.48488e-05
7.48488e-05
7.48488e-05
7.48488e-05
7.48488e-05
7.48488e-05
7.48488e-05
7.48488e-05
7.48488e-05
7.48488e-05
7.48488e-05
7.48488e-05
7.48488e-05
7.48488e-05
7.48488e-05
7.48488e-05
7.48488e-05
7.48488e-05
7.48488e-05
7.48488e-05
7.48488e-05
7.48488e-05
7.48488e-05
7.48488e-05
7.48488e-05
7.48488e-05
7.48488e-05
7.48488e-05
7.48488e-05
7.48488e-05
7.48488e-05
7.48488e-05
7.48488e-05
7.48488e-05
7.48488e-05
7.48488e-05
7.48488e-05
7.48488e-05
7.48488e-05
7.48488e-05
7.48488e-05
7.48488e-05
7.48487e-05
7.48487e-05
7.48487e-05
7.48487e-05
7.48487e-05
7.48487e-05
7.48487e-05
7.48487e-05
7.48487e-05
7.48487e-05
7.48487e-05
7.48487e-05
7.48487e-05
7.48487e-05
7.48487e-05
7.48487e-05
7.48487e-05
7.48487e-05
7.48487e-05
7.48487e-05
7.48487e-05
7.48487e-05
7.48487e-05
7.48487e-05
7.48487e-05
7.48487e-05
7.48487e-05
7.48487e-05
7.48487e-05
7.48487e-05
7.48487e-05
7.48487e-05
7.48487e-05
7.48487e-05
7.48487e-05
7.48487e-05
7.48487e-05
7.48487e-05
7.48487e-05
7.48487e-05
7.48487e-05
7.48487e-05
7.48487e-05
7.48487e-05
7.48487e-05
7.48487e-05
7.48487e-05
7.48487e-05
7.48487e-05
7.48487e-05
7.48487e-05
7.48487e-05
7.48487e-05
7.48487e-05
7.48487e-05
7.48487e-05
7.48487e-05
7.48487e-05
7.48487e-05
7.48487e-05
7.48487e-05
7.48487e-05
7.48487e-05
7.48487e-05
7.48487e-05
7.48487e-05
7.48487e-05
7.48487e-05
7.48487e-05
7.48487e-05
7.48487e-05
7.48487e-05
7.48487e-05
7.48487e-05
7.48487e-05
7.48487e-05
7.48487e-05
7.48487e-05
7.48487e-05
7.48487e-05
7.48487e-05
7.48487e-05
7.48487e-05
7.48487e-05
7.48487e-05
7.48487e-05
7.48487e-05
7.48487e-05
7.48487e-05
7.48487e-05
7.48487e-05
7.48487e-05
7.48487e-05
7.48487e-05
7.48487e-05
7.48487e-05
7.48487e-05
7.48487e-05
7.48487e-05
7.48487e-05
7.48487e-05
7.48487e-05
7.48487e-05
7.48487e-05
7.48487e-05
7.48487e-05
7.48487e-05
7.48487e-05
7.48487e-05
7.48487e-05
7.48487e-05
7.48487e-05
7.48487e-05
7.48487e-05
7.48487e-05
7.48487e-05
7.48487e-05
7.48487e-05
7.48487e-05
7.48487e-05
7.48487e-05
7.48487e-05
7.48487e-05
7.48487e-05
7.48487e-05
7.48487e-05
7.48487e-05
7.48487e-05
7.48487e-05
7.48487e-05
7.48484e-05
7.48467e-05
3.44374e-05
2.03069e-05
1.75246e-05
1.77306e-05
2.02464e-05
2.43469e-05
2.95577e-05
3.52019e-05
3.97207e-05
4.44685e-05
4.92798e-05
5.38252e-05
5.80993e-05
6.20828e-05
6.58698e-05
6.92514e-05
7.22431e-05
7.50006e-05
7.74874e-05
7.98264e-05
8.19496e-05
8.36399e-05
8.50759e-05
8.63086e-05
8.73484e-05
8.82179e-05
8.89413e-05
8.95425e-05
9.00416e-05
9.04573e-05
9.08028e-05
9.10888e-05
9.13247e-05
9.15208e-05
9.16868e-05
9.1829e-05
9.19511e-05
9.20559e-05
9.21458e-05
9.22227e-05
9.22886e-05
9.23449e-05
9.23931e-05
9.24344e-05
9.24698e-05
9.25e-05
9.2526e-05
9.25482e-05
9.25673e-05
9.25837e-05
9.25978e-05
9.26099e-05
9.26203e-05
9.26292e-05
9.26369e-05
9.26435e-05
9.26491e-05
9.2654e-05
9.26582e-05
9.26618e-05
9.26649e-05
9.26676e-05
9.26699e-05
9.26719e-05
9.26736e-05
9.2675e-05
9.26763e-05
9.26773e-05
9.26783e-05
9.26791e-05
9.26797e-05
9.26803e-05
9.26808e-05
9.26812e-05
9.26816e-05
9.26819e-05
9.26821e-05
9.26823e-05
9.26825e-05
9.26827e-05
9.26828e-05
9.26829e-05
9.2683e-05
9.26831e-05
9.26832e-05
9.26832e-05
9.26833e-05
9.26834e-05
9.26834e-05
9.26835e-05
9.26835e-05
9.26835e-05
9.26836e-05
9.26836e-05
9.26836e-05
9.26836e-05
9.26837e-05
9.26837e-05
9.26837e-05
9.26837e-05
9.26837e-05
9.26837e-05
9.26837e-05
9.26837e-05
9.26837e-05
9.26837e-05
9.26837e-05
9.26837e-05
9.26837e-05
9.26837e-05
9.26837e-05
9.26837e-05
9.26837e-05
9.26837e-05
9.26837e-05
9.26837e-05
9.26837e-05
9.26837e-05
9.26837e-05
9.26837e-05
9.26837e-05
9.26837e-05
9.26837e-05
9.26837e-05
9.26837e-05
9.26837e-05
9.26837e-05
9.26837e-05
9.26837e-05
9.26837e-05
9.26837e-05
9.26837e-05
9.26837e-05
9.26837e-05
9.26837e-05
9.26837e-05
9.26837e-05
9.26837e-05
9.26837e-05
9.26837e-05
9.26837e-05
9.26837e-05
9.26837e-05
9.26837e-05
9.26837e-05
9.26837e-05
9.26837e-05
9.26837e-05
9.26837e-05
9.26837e-05
9.26837e-05
9.26837e-05
9.26837e-05
9.26837e-05
9.26837e-05
9.26837e-05
9.26837e-05
9.26837e-05
9.26837e-05
9.26837e-05
9.26837e-05
9.26837e-05
9.26837e-05
9.26837e-05
9.26837e-05
9.26837e-05
9.26837e-05
9.26837e-05
9.26837e-05
9.26837e-05
9.26837e-05
9.26837e-05
9.26837e-05
9.26837e-05
9.26837e-05
9.26836e-05
9.26836e-05
9.26836e-05
9.26836e-05
9.26836e-05
9.26836e-05
9.26836e-05
9.26836e-05
9.26836e-05
9.26836e-05
9.26836e-05
9.26836e-05
9.26836e-05
9.26836e-05
9.26836e-05
9.26836e-05
9.26836e-05
9.26836e-05
9.26836e-05
9.26836e-05
9.26836e-05
9.26836e-05
9.26836e-05
9.26836e-05
9.26836e-05
9.26836e-05
9.26836e-05
9.26836e-05
9.26836e-05
9.26836e-05
9.26836e-05
9.26836e-05
9.26836e-05
9.26836e-05
9.26836e-05
9.26836e-05
9.26836e-05
9.26836e-05
9.26836e-05
9.26836e-05
9.26836e-05
9.26836e-05
9.26836e-05
9.26836e-05
9.26836e-05
9.26836e-05
9.26836e-05
9.26836e-05
9.26836e-05
9.26836e-05
9.26836e-05
9.26836e-05
9.26836e-05
9.26836e-05
9.26836e-05
9.26836e-05
9.26836e-05
9.26836e-05
9.26836e-05
9.26836e-05
9.26836e-05
9.26836e-05
9.26836e-05
9.26835e-05
9.26835e-05
9.26835e-05
9.26835e-05
9.26835e-05
9.26835e-05
9.26835e-05
9.26835e-05
9.26835e-05
9.26835e-05
9.26835e-05
9.26835e-05
9.26835e-05
9.26835e-05
9.26836e-05
9.26836e-05
9.26836e-05
9.26836e-05
9.26836e-05
9.26836e-05
9.26836e-05
9.26836e-05
9.26836e-05
9.26836e-05
9.26836e-05
9.26836e-05
9.26836e-05
9.26836e-05
9.26836e-05
9.26836e-05
9.26836e-05
9.26835e-05
9.26835e-05
9.26835e-05
9.26835e-05
9.26835e-05
9.26835e-05
9.26835e-05
9.26835e-05
9.26835e-05
9.26835e-05
9.26835e-05
9.26835e-05
9.26835e-05
9.26835e-05
9.26835e-05
9.26835e-05
9.26835e-05
9.26835e-05
9.26835e-05
9.26835e-05
9.26835e-05
9.26835e-05
9.26835e-05
9.26835e-05
9.26835e-05
9.26835e-05
9.26835e-05
9.26835e-05
9.26836e-05
9.26835e-05
9.26822e-05
8.69033e-05
4.21344e-05
2.86042e-05
2.3243e-05
2.09404e-05
2.05596e-05
2.22862e-05
2.54927e-05
2.98058e-05
3.50042e-05
3.94983e-05
4.3706e-05
4.816e-05
5.27831e-05
5.74607e-05
6.20156e-05
6.63754e-05
7.05594e-05
7.47071e-05
7.88056e-05
8.29038e-05
8.69775e-05
8.98915e-05
9.20783e-05
9.39922e-05
9.56694e-05
9.714e-05
9.84285e-05
9.95535e-05
0.000100533
0.000101382
0.000102111
0.000102737
0.000103276
0.000103741
0.000104143
0.000104491
0.00010479
0.000105048
0.000105269
0.000105459
0.000105622
0.000105762
0.000105883
0.000105986
0.000106074
0.00010615
0.000106215
0.00010627
0.000106318
0.000106359
0.000106394
0.000106424
0.00010645
0.000106472
0.000106491
0.000106508
0.000106522
0.000106534
0.000106544
0.000106553
0.000106561
0.000106567
0.000106573
0.000106578
0.000106582
0.000106585
0.000106588
0.000106591
0.000106593
0.000106595
0.000106597
0.000106598
0.000106599
0.0001066
0.000106601
0.000106602
0.000106602
0.000106603
0.000106603
0.000106604
0.000106604
0.000106604
0.000106605
0.000106605
0.000106605
0.000106605
0.000106605
0.000106605
0.000106606
0.000106606
0.000106606
0.000106606
0.000106606
0.000106606
0.000106606
0.000106606
0.000106606
0.000106606
0.000106606
0.000106606
0.000106606
0.000106606
0.000106606
0.000106606
0.000106606
0.000106606
0.000106606
0.000106606
0.000106606
0.000106606
0.000106606
0.000106606
0.000106606
0.000106606
0.000106606
0.000106606
0.000106606
0.000106606
0.000106606
0.000106606
0.000106606
0.000106606
0.000106606
0.000106606
0.000106606
0.000106606
0.000106606
0.000106606
0.000106606
0.000106606
0.000106606
0.000106606
0.000106606
0.000106606
0.000106606
0.000106606
0.000106606
0.000106606
0.000106606
0.000106606
0.000106606
0.000106606
0.000106606
0.000106606
0.000106606
0.000106606
0.000106606
0.000106606
0.000106606
0.000106606
0.000106606
0.000106606
0.000106606
0.000106606
0.000106606
0.000106606
0.000106606
0.000106606
0.000106606
0.000106606
0.000106606
0.000106606
0.000106606
0.000106606
0.000106606
0.000106606
0.000106606
0.000106606
0.000106606
0.000106606
0.000106606
0.000106606
0.000106606
0.000106606
0.000106606
0.000106606
0.000106606
0.000106606
0.000106606
0.000106606
0.000106606
0.000106606
0.000106606
0.000106606
0.000106606
0.000106606
0.000106606
0.000106606
0.000106606
0.000106606
0.000106606
0.000106606
0.000106606
0.000106606
0.000106606
0.000106606
0.000106606
0.000106606
0.000106606
0.000106606
0.000106606
0.000106606
0.000106606
0.000106606
0.000106606
0.000106606
0.000106606
0.000106606
0.000106606
0.000106606
0.000106606
0.000106606
0.000106606
0.000106606
0.000106606
0.000106606
0.000106606
0.000106606
0.000106606
0.000106606
0.000106606
0.000106606
0.000106606
0.000106606
0.000106606
0.000106606
0.000106606
0.000106606
0.000106606
0.000106606
0.000106606
0.000106606
0.000106606
0.000106606
0.000106606
0.000106606
0.000106606
0.000106606
0.000106606
0.000106606
0.000106606
0.000106606
0.000106606
0.000106606
0.000106606
0.000106606
0.000106606
0.000106606
0.000106606
0.000106606
0.000106606
0.000106606
0.000106606
0.000106606
0.000106606
0.000106606
0.000106606
0.000106606
0.000106606
0.000106606
0.000106606
0.000106606
0.000106606
0.000106606
0.000106606
0.000106606
0.000106606
0.000106606
0.000106606
0.000106606
0.000106606
0.000106606
0.000106606
0.000106606
0.000106606
0.000106606
0.000106606
0.000106606
0.000106606
0.000106606
0.000106606
0.000106606
0.000106606
0.000106606
0.000106606
0.000106606
0.000106606
0.000106606
0.000106606
0.000106606
0.000106606
0.000106606
0.000106606
0.000106606
0.000106606
0.000106606
0.000106606
0.000106606
0.000106605
0.000106817
9.64782e-05
6.4672e-05
4.63748e-05
3.59083e-05
2.97025e-05
2.63857e-05
2.47835e-05
2.50662e-05
2.69781e-05
3.00907e-05
3.41128e-05
3.88418e-05
4.34151e-05
4.74195e-05
5.17681e-05
5.64941e-05
6.16287e-05
6.71477e-05
7.29436e-05
7.92694e-05
8.35775e-05
8.74624e-05
9.09477e-05
9.40984e-05
9.69599e-05
9.95501e-05
0.000101873
0.000103935
0.000105751
0.000107337
0.000108714
0.000109907
0.00011094
0.000111836
0.000112612
0.000113282
0.00011386
0.000114357
0.000114785
0.000115153
0.000115469
0.000115741
0.000115974
0.000116174
0.000116345
0.000116492
0.000116618
0.000116727
0.000116819
0.000116899
0.000116967
0.000117025
0.000117076
0.000117118
0.000117155
0.000117187
0.000117214
0.000117237
0.000117257
0.000117274
0.000117289
0.000117301
0.000117312
0.000117321
0.000117329
0.000117336
0.000117342
0.000117347
0.000117351
0.000117355
0.000117358
0.00011736
0.000117363
0.000117365
0.000117366
0.000117368
0.000117369
0.00011737
0.000117371
0.000117372
0.000117372
0.000117373
0.000117373
0.000117374
0.000117374
0.000117374
0.000117375
0.000117375
0.000117375
0.000117375
0.000117375
0.000117376
0.000117376
0.000117376
0.000117376
0.000117376
0.000117376
0.000117376
0.000117376
0.000117376
0.000117376
0.000117376
0.000117376
0.000117376
0.000117376
0.000117377
0.000117377
0.000117377
0.000117377
0.000117377
0.000117377
0.000117377
0.000117377
0.000117377
0.000117377
0.000117377
0.000117377
0.000117377
0.000117377
0.000117377
0.000117377
0.000117377
0.000117377
0.000117377
0.000117377
0.000117376
0.000117376
0.000117376
0.000117376
0.000117376
0.000117376
0.000117376
0.000117376
0.000117376
0.000117376
0.000117376
0.000117376
0.000117376
0.000117376
0.000117376
0.000117376
0.000117376
0.000117377
0.000117377
0.000117377
0.000117377
0.000117377
0.000117377
0.000117377
0.000117377
0.000117377
0.000117377
0.000117377
0.000117377
0.000117377
0.000117377
0.000117377
0.000117377
0.000117377
0.000117377
0.000117377
0.000117377
0.000117377
0.000117377
0.000117377
0.000117377
0.000117377
0.000117377
0.000117377
0.000117377
0.000117377
0.000117377
0.000117377
0.000117376
0.000117376
0.000117376
0.000117376
0.000117376
0.000117376
0.000117376
0.000117376
0.000117376
0.000117376
0.000117376
0.000117376
0.000117376
0.000117376
0.000117376
0.000117376
0.000117376
0.000117376
0.000117376
0.000117376
0.000117376
0.000117376
0.000117376
0.000117376
0.000117376
0.000117376
0.000117376
0.000117376
0.000117376
0.000117376
0.000117376
0.000117376
0.000117376
0.000117376
0.000117376
0.000117376
0.000117376
0.000117376
0.000117376
0.000117376
0.000117376
0.000117376
0.000117376
0.000117376
0.000117376
0.000117376
0.000117376
0.000117376
0.000117376
0.000117376
0.000117376
0.000117376
0.000117376
0.000117376
0.000117376
0.000117376
0.000117376
0.000117376
0.000117376
0.000117376
0.000117376
0.000117376
0.000117376
0.000117376
0.000117376
0.000117376
0.000117376
0.000117376
0.000117376
0.000117376
0.000117376
0.000117376
0.000117376
0.000117376
0.000117376
0.000117376
0.000117376
0.000117376
0.000117376
0.000117376
0.000117376
0.000117376
0.000117376
0.000117376
0.000117376
0.000117376
0.000117376
0.000117376
0.000117376
0.000117376
0.000117376
0.000117376
0.000117376
0.000117376
0.000117376
0.000117376
0.000117376
0.000117376
0.000117376
0.000117376
0.000117376
0.000117376
0.000117376
0.000117376
0.000117376
0.000117376
0.000117376
0.000117376
0.000117376
0.000117376
0.000117376
0.000117376
0.000117376
0.000117376
0.000117376
0.000117376
0.000117376
0.000117376
0.000117376
0.000117376
0.000117376
0.000117376
0.000117376
0.000117376
0.000117376
0.000117376
0.000109981
0.000107612
0.000126835
9.06631e-05
6.94889e-05
5.59747e-05
4.45731e-05
3.69429e-05
3.19834e-05
2.91996e-05
2.82652e-05
2.88889e-05
3.08304e-05
3.38068e-05
3.75708e-05
4.18783e-05
4.65834e-05
5.15719e-05
5.68032e-05
6.22624e-05
6.79333e-05
7.36267e-05
7.92447e-05
8.46526e-05
8.96961e-05
9.42596e-05
9.8308e-05
0.000101871
0.000104998
0.000107733
0.000110115
0.000112183
0.000113973
0.000115522
0.000116864
0.000118024
0.000119026
0.000119889
0.000120633
0.000121273
0.000121824
0.000122297
0.000122703
0.000123051
0.000123351
0.000123607
0.000123827
0.000124016
0.000124178
0.000124317
0.000124435
0.000124537
0.000124625
0.0001247
0.000124764
0.000124819
0.000124866
0.000124906
0.000124941
0.00012497
0.000124996
0.000125018
0.000125036
0.000125052
0.000125066
0.000125078
0.000125088
0.000125097
0.000125104
0.00012511
0.000125116
0.00012512
0.000125124
0.000125128
0.000125131
0.000125133
0.000125135
0.000125137
0.000125139
0.00012514
0.000125141
0.000125142
0.000125143
0.000125144
0.000125144
0.000125145
0.000125145
0.000125146
0.000125146
0.000125146
0.000125147
0.000125147
0.000125147
0.000125147
0.000125147
0.000125147
0.000125148
0.000125148
0.000125148
0.000125148
0.000125148
0.000125148
0.000125148
0.000125148
0.000125148
0.000125148
0.000125148
0.000125148
0.000125148
0.000125148
0.000125148
0.000125148
0.000125148
0.000125148
0.000125148
0.000125148
0.000125148
0.000125148
0.000125148
0.000125148
0.000125148
0.000125148
0.000125148
0.000125148
0.000125148
0.000125148
0.000125148
0.000125148
0.000125148
0.000125148
0.000125148
0.000125148
0.000125148
0.000125148
0.000125148
0.000125148
0.000125148
0.000125148
0.000125148
0.000125148
0.000125148
0.000125148
0.000125148
0.000125148
0.000125148
0.000125148
0.000125148
0.000125148
0.000125148
0.000125148
0.000125148
0.000125148
0.000125148
0.000125148
0.000125148
0.000125148
0.000125148
0.000125148
0.000125148
0.000125148
0.000125148
0.000125148
0.000125148
0.000125148
0.000125148
0.000125148
0.000125148
0.000125148
0.000125148
0.000125148
0.000125148
0.000125148
0.000125148
0.000125148
0.000125148
0.000125148
0.000125148
0.000125148
0.000125148
0.000125148
0.000125148
0.000125148
0.000125148
0.000125148
0.000125148
0.000125148
0.000125148
0.000125148
0.000125148
0.000125148
0.000125148
0.000125148
0.000125148
0.000125148
0.000125148
0.000125148
0.000125148
0.000125148
0.000125148
0.000125148
0.000125148
0.000125148
0.000125148
0.000125148
0.000125148
0.000125148
0.000125148
0.000125148
0.000125148
0.000125148
0.000125148
0.000125148
0.000125148
0.000125148
0.000125148
0.000125148
0.000125148
0.000125148
0.000125148
0.000125148
0.000125148
0.000125148
0.000125148
0.000125148
0.000125148
0.000125148
0.000125148
0.000125148
0.000125148
0.000125148
0.000125148
0.000125148
0.000125148
0.000125148
0.000125148
0.000125148
0.000125148
0.000125148
0.000125148
0.000125148
0.000125148
0.000125148
0.000125148
0.000125148
0.000125148
0.000125148
0.000125148
0.000125148
0.000125148
0.000125148
0.000125148
0.000125148
0.000125148
0.000125148
0.000125148
0.000125148
0.000125148
0.000125148
0.000125148
0.000125148
0.000125148
0.000125148
0.000125148
0.000125148
0.000125148
0.000125148
0.000125148
0.000125148
0.000125148
0.000125148
0.000125148
0.000125148
0.000125148
0.000125148
0.000125148
0.000125148
0.000125148
0.000125148
0.000125148
0.000125148
0.000125148
0.000125148
0.000125148
0.000125148
0.000125148
0.000125148
0.000125148
0.000125148
0.000125148
0.000125148
0.000125148
0.000125148
0.000125148
0.000125148
0.000125148
0.000125148
0.000125148
0.000125148
0.000125148
0.000125148
0.000100036
0.000105415
0.000137656
0.000133064
0.000102474
8.29163e-05
6.68509e-05
5.54901e-05
4.74247e-05
4.13564e-05
3.64617e-05
3.34526e-05
3.22044e-05
3.24753e-05
3.38544e-05
3.63399e-05
3.98495e-05
4.43019e-05
4.94477e-05
5.50775e-05
6.10897e-05
6.73506e-05
7.37228e-05
8.00243e-05
8.60077e-05
9.15321e-05
9.65046e-05
0.000100908
0.000104772
0.000108141
0.00011107
0.000113604
0.000115791
0.000117679
0.000119311
0.000120723
0.000121941
0.00012299
0.000123894
0.000124671
0.000125339
0.000125913
0.000126406
0.000126829
0.000127193
0.000127504
0.000127771
0.000128
0.000128196
0.000128365
0.000128509
0.000128632
0.000128738
0.000128829
0.000128907
0.000128973
0.00012903
0.000129079
0.000129121
0.000129157
0.000129188
0.000129214
0.000129237
0.000129256
0.000129273
0.000129287
0.000129299
0.00012931
0.000129319
0.000129326
0.000129333
0.000129339
0.000129343
0.000129348
0.000129351
0.000129354
0.000129357
0.000129359
0.000129361
0.000129362
0.000129364
0.000129365
0.000129366
0.000129367
0.000129367
0.000129368
0.000129369
0.000129369
0.00012937
0.00012937
0.00012937
0.000129371
0.000129371
0.000129371
0.000129371
0.000129371
0.000129372
0.000129372
0.000129372
0.000129372
0.000129372
0.000129372
0.000129372
0.000129372
0.000129372
0.000129372
0.000129372
0.000129372
0.000129372
0.000129372
0.000129372
0.000129372
0.000129372
0.000129372
0.000129372
0.000129372
0.000129372
0.000129372
0.000129372
0.000129372
0.000129372
0.000129372
0.000129372
0.000129372
0.000129372
0.000129372
0.000129372
0.000129372
0.000129372
0.000129372
0.000129372
0.000129372
0.000129372
0.000129372
0.000129372
0.000129372
0.000129372
0.000129372
0.000129372
0.000129372
0.000129372
0.000129372
0.000129372
0.000129372
0.000129372
0.000129372
0.000129372
0.000129372
0.000129372
0.000129372
0.000129372
0.000129372
0.000129372
0.000129372
0.000129372
0.000129372
0.000129372
0.000129372
0.000129372
0.000129372
0.000129372
0.000129372
0.000129372
0.000129372
0.000129372
0.000129372
0.000129372
0.000129372
0.000129372
0.000129372
0.000129372
0.000129372
0.000129372
0.000129372
0.000129372
0.000129372
0.000129372
0.000129372
0.000129372
0.000129372
0.000129372
0.000129372
0.000129372
0.000129372
0.000129372
0.000129372
0.000129372
0.000129372
0.000129372
0.000129372
0.000129372
0.000129372
0.000129372
0.000129372
0.000129372
0.000129372
0.000129372
0.000129372
0.000129372
0.000129372
0.000129372
0.000129372
0.000129372
0.000129372
0.000129372
0.000129372
0.000129372
0.000129372
0.000129372
0.000129372
0.000129372
0.000129372
0.000129372
0.000129372
0.000129372
0.000129372
0.000129372
0.000129372
0.000129372
0.000129372
0.000129372
0.000129372
0.000129372
0.000129372
0.000129372
0.000129372
0.000129372
0.000129372
0.000129372
0.000129372
0.000129372
0.000129372
0.000129372
0.000129372
0.000129372
0.000129372
0.000129372
0.000129372
0.000129372
0.000129372
0.000129372
0.000129372
0.000129372
0.000129372
0.000129372
0.000129372
0.000129372
0.000129372
0.000129372
0.000129372
0.000129372
0.000129372
0.000129372
0.000129372
0.000129372
0.000129372
0.000129372
0.000129372
0.000129372
0.000129372
0.000129372
0.000129372
0.000129372
0.000129372
0.000129372
0.000129372
0.000129372
0.000129372
0.000129372
0.000129372
0.000129372
0.000129372
0.000129372
0.000129372
0.000129372
0.000129372
0.000129372
0.000129372
0.000129372
0.000129372
0.000129372
0.000129372
0.000129372
0.000129372
0.000129372
0.000129372
0.000129372
0.000129372
0.000129372
0.000129372
0.000129372
0.000129372
0.000129372
0.000129372
0.000129372
0.000129372
0.000129372
0.000129372
0.000129372
0.000129372
)
;

boundaryField
{
    inlet
    {
        type            calculated;
        value           nonuniform List<scalar> 8(1.73717e-06 1.15394e-05 3.31856e-05 7.90139e-05 0.000103117 0.000102515 0.000107027 9.7467e-05);
    }
    outlet
    {
        type            calculated;