/*--------------------------------*- C++ -*----------------------------------*\
| =========                 |                                                 |
| \\      /  F ield         | foam-extend: Open Source CFD                    |
|  \\    /   O peration     | Version:     3.2                                |
|   \\  /    A nd           | Web:         http://www.foam-extend.org         |
|    \\/     M anipulation  | For copyright notice see file Copyright         |
\*---------------------------------------------------------------------------*/
FoamFile
{
    version     2.0;
    format      ascii;
    class       volScalarField;
    location    "200";
    object      omega;
}
// * * * * * * * * * * * * * * * * * * * * * * * * * * * * * * * * * * * * * //

dimensions      [0 0 -1 0 0 0 0];

internalField   nonuniform List<scalar> 
2400
(
143.413
158.383
146.202
134.207
127.326
124.135
122.981
122.829
123.035
123.446
123.95
124.447
124.936
125.44
125.928
126.422
126.937
127.453
127.975
128.5
129.022
129.545
130.08
130.627
131.153
131.634
132.067
132.446
132.775
133.056
133.296
133.501
133.672
133.811
133.923
134.015
134.092
134.156
134.211
134.257
134.296
134.33
134.358
134.383
134.403
134.421
134.436
134.449
134.46
134.469
134.477
134.484
134.489
134.494
134.499
134.502
134.505
134.508
134.51
134.512
134.514
134.515
134.517
134.518
134.519
134.519
134.52
134.521
134.521
134.522
134.522
134.522
134.523
134.523
134.523
134.523
134.523
134.523
134.524
134.524
134.524
134.524
134.524
134.524
134.524
134.524
134.524
134.524
134.524
134.524
134.524
134.524
134.524
134.524
134.524
134.524
134.524
134.524
134.524
134.524
134.524
134.524
134.524
134.524
134.524
134.524
134.524
134.524
134.524
134.524
134.524
134.524
134.524
134.524
134.524
134.524
134.524
134.524
134.524
134.524
134.524
134.524
134.524
134.524
134.524
134.524
134.524
134.524
134.524
134.524
134.524
134.524
134.524
134.524
134.524
134.524
134.524
134.524
134.524
134.524
134.524
134.524
134.524
134.524
134.524
134.524
134.524
134.524
134.524
134.524
134.524
134.524
134.524
134.524
134.524
134.524
134.524
134.524
134.524
134.524
134.524
134.524
134.524
134.524
134.524
134.524
134.524
134.524
134.524
134.524
134.524
134.524
134.524
134.524
134.524
134.524
134.524
134.524
134.524
134.524
134.524
134.524
134.524
134.524
134.524
134.524
134.524
134.524
134.524
134.524
134.524
134.524
134.524
134.524
134.524
134.524
134.524
134.524
134.524
134.524
134.524
134.524
134.524
134.524
134.524
134.524
134.524
134.524
134.524
134.524
134.524
134.524
134.524
134.524
134.524
134.524
134.524
134.524
134.524
134.524
134.524
134.524
134.524
134.524
134.524
134.524
134.524
134.524
134.524
134.524
134.524
134.524
134.524
134.524
134.524
134.524
134.524
134.524
134.524
134.524
134.524
134.524
134.524
134.524
134.524
134.524
134.524
134.524
134.524
134.524
134.524
134.524
134.524
134.524
134.524
134.524
134.524
134.524
134.524
134.524
134.524
134.524
134.524
134.524
134.524
134.524
134.524
134.524
134.524
134.524
134.524
134.524
134.524
134.524
134.524
134.524
134.524
134.524
134.524
134.524
134.524
134.524
134.524
134.524
134.524
134.524
134.524
134.524
134.524
134.524
134.524
134.524
134.524
134.524
134.524
134.524
134.524
134.524
134.529
134.523
47.5004
64.9298
63.4993
61.9837
60.3378
58.7558
57.322
56.089
55.0999
54.3215
53.7384
53.2897
52.958
52.7165
52.5791
52.4958
52.4645
52.4778
52.5273
52.6033
52.7017
52.8098
52.917
53.0223
53.1262
53.2245
53.3153
53.3976
53.471
53.5356
53.592
53.6416
53.685
53.7221
53.753
53.7785
53.8
53.8183
53.8338
53.8471
53.8585
53.8682
53.8765
53.8836
53.8896
53.8948
53.8992
53.903
53.9062
53.9089
53.9112
53.9132
53.9149
53.9164
53.9176
53.9187
53.9196
53.9204
53.9211
53.9216
53.9221
53.9225
53.9229
53.9232
53.9235
53.9237
53.9239
53.924
53.9242
53.9243
53.9244
53.9245
53.9246
53.9246
53.9247
53.9247
53.9248
53.9248
53.9248
53.9249
53.9249
53.9249
53.9249
53.9249
53.9249
53.925
53.925
53.925
53.925
53.925
53.925
53.925
53.925
53.925
53.925
53.925
53.925
53.925
53.925
53.925
53.925
53.925
53.925
53.925
53.925
53.925
53.925
53.925
53.925
53.925
53.925
53.925
53.925
53.925
53.925
53.925
53.925
53.925
53.925
53.925
53.925
53.925
53.925
53.925
53.925
53.925
53.925
53.925
53.925
53.925
53.925
53.925
53.925
53.925
53.925
53.925
53.925
53.925
53.925
53.925
53.925
53.925
53.925
53.925
53.925
53.925
53.925
53.925
53.925
53.925
53.925
53.925
53.925
53.925
53.925
53.925
53.925
53.925
53.925
53.925
53.925
53.925
53.925
53.925
53.925
53.925
53.925
53.925
53.925
53.925
53.925
53.925
53.925
53.925
53.925
53.925
53.925
53.925
53.925
53.925
53.925
53.925
53.925
53.925
53.925
53.925
53.925
53.925
53.925
53.925
53.925
53.925
53.925
53.925
53.925
53.925
53.925
53.925
53.925
53.925
53.925
53.925
53.925
53.925
53.925
53.925
53.925
53.925
53.925
53.925
53.925
53.925
53.925
53.925
53.925
53.925
53.925
53.925
53.925
53.925
53.925
53.925
53.925
53.925
53.925
53.925
53.925
53.925
53.925
53.925
53.925
53.925
53.925
53.925
53.925
53.925
53.925
53.925
53.925
53.925
53.925
53.925
53.925
53.925
53.925
53.925
53.925
53.925
53.925
53.925
53.925
53.925
53.925
53.925
53.925
53.925
53.925
53.925
53.925
53.925
53.925
53.925
53.925
53.925
53.925
53.925
53.925
53.925
53.925
53.925
53.925
53.925
53.925
53.925
53.925
53.925
53.925
53.925
53.925
53.925
53.925
53.925
53.925
53.925
53.925
53.925
53.925
53.925
53.925
53.925
53.925
53.925
53.925
53.925
53.925
53.925
53.925
53.9249
53.9236
53.9263
16.0644
27.3012
32.6935
35.5667
36.4118
35.9344
35.0689
34.4176
33.9286
33.5309
33.1444
32.7637
32.4204
32.1329
31.9009
31.7094
31.5604
31.4402
31.3516
31.2834
31.232
31.189
31.1435
31.0941
31.0447
30.9959
30.9483
30.9026
30.8591
30.8184
30.7806
30.7463
30.7156
30.6886
30.6648
30.6438
30.6255
30.6096
30.5959
30.584
30.5737
30.5648
30.5572
30.5507
30.545
30.5402
30.536
30.5324
30.5294
30.5268
30.5245
30.5226
30.521
30.5196
30.5184
30.5173
30.5164
30.5157
30.515
30.5145
30.514
30.5136
30.5132
30.5129
30.5127
30.5125
30.5123
30.5121
30.512
30.5119
30.5118
30.5117
30.5116
30.5115
30.5115
30.5114
30.5114
30.5114
30.5113
30.5113
30.5113
30.5113
30.5113
30.5112
30.5112
30.5112
30.5112
30.5112
30.5112
30.5112
30.5112
30.5112
30.5112
30.5112
30.5112
30.5112
30.5112
30.5112
30.5112
30.5112
30.5112
30.5112
30.5112
30.5112
30.5111
30.5111
30.5111
30.5111
30.5111
30.5111
30.5111
30.5111
30.5111
30.5111
30.5111
30.5111
30.5111
30.5111
30.5111
30.5111
30.5111
30.5111
30.5111
30.5111
30.5111
30.5111
30.5111
30.5111
30.5111
30.5111
30.5111
30.5111
30.5111
30.5111
30.5111
30.5111
30.5111
30.5111
30.5111
30.5111
30.5111
30.5111
30.5111
30.5111
30.5111
30.5111
30.5111
30.5111
30.5111
30.5111
30.5111
30.5111
30.5111
30.5111
30.5111
30.5111
30.5111
30.5111
30.5111
30.5111
30.5111
30.5111
30.5111
30.5111
30.5111
30.5111
30.5111
30.5111
30.5111
30.5111
30.5111
30.5111
30.5111
30.5111
30.5111
30.5111
30.5111
30.5111
30.5111
30.5111
30.5111
30.5111
30.5111
30.5111
30.5111
30.5111
30.5111
30.5111
30.5111
30.5111
30.5111
30.5112
30.5112
30.5112
30.5112
30.5112
30.5112
30.5112
30.5112
30.5112
30.5112
30.5112
30.5112
30.5112
30.5112
30.5112
30.5112
30.5112
30.5112
30.5112
30.5112
30.5112
30.5112
30.5112
30.5112
30.5112
30.5112
30.5112
30.5112
30.5112
30.5112
30.5112
30.5112
30.5112
30.5112
30.5112
30.5112
30.5112
30.5112
30.5112
30.5112
30.5112
30.5112
30.5112
30.5112
30.5112
30.5112
30.5112
30.5112
30.5112
30.5112
30.5112
30.5112
30.5112
30.5112
30.5112
30.5112
30.5112
30.5112
30.5112
30.5112
30.5112
30.5112
30.5112
30.5112
30.5112
30.5112
30.5112
30.5112
30.5112
30.5112
30.5112
30.5112
30.5112
30.5112
30.5112
30.5112
30.5112
30.5112
30.5112
30.5112
30.5112
30.5112
30.5112
30.5112
30.5112
30.5112
30.5112
30.5112
30.5112
30.5112
30.5112
30.5112
30.5112
30.5112
30.5112
30.5112
30.5112
30.5112
30.5112
30.5112
30.5112
30.5112
30.5112
30.5112
30.5112
30.5111
30.511
30.511
30.5117
5.27538
10.5474
15.0328
18.4356
21.206
23.0443
24.0546
24.5121
24.5254
24.2381
23.9329
23.7272
23.5656
23.4292
23.2751
23.1014
22.9278
22.761
22.604
22.4489
22.294
22.1303
21.9673
21.8076
21.6517
21.5005
21.3555
21.2185
21.0909
20.9738
20.8676
20.7723
20.6877
20.6135
20.5492
20.4936
20.4457
20.4044
20.3689
20.3384
20.3121
20.2896
20.2702
20.2536
20.2394
20.2272
20.2167
20.2078
20.2001
20.1936
20.188
20.1832
20.1791
20.1756
20.1726
20.17
20.1678
20.1659
20.1643
20.163
20.1618
20.1608
20.1599
20.1592
20.1585
20.158
20.1575
20.1571
20.1568
20.1565
20.1562
20.156
20.1558
20.1557
20.1556
20.1554
20.1553
20.1553
20.1552
20.1551
20.1551
20.155
20.155
20.155
20.1549
20.1549
20.1549
20.1549
20.1548
20.1548
20.1548
20.1548
20.1548
20.1548
20.1548
20.1548
20.1548
20.1547
20.1547
20.1547
20.1547
20.1547
20.1547
20.1547
20.1547
20.1547
20.1547
20.1547
20.1547
20.1547
20.1547
20.1547
20.1547
20.1547
20.1547
20.1547
20.1547
20.1547
20.1547
20.1547
20.1547
20.1547
20.1547
20.1547
20.1547
20.1547
20.1547
20.1547
20.1547
20.1547
20.1547
20.1547
20.1547
20.1547
20.1547
20.1547
20.1547
20.1547
20.1547
20.1547
20.1547
20.1547
20.1547
20.1547
20.1547
20.1547
20.1547
20.1547
20.1547
20.1547
20.1547
20.1547
20.1547
20.1547
20.1547
20.1547
20.1547
20.1547
20.1547
20.1547
20.1547
20.1547
20.1547
20.1547
20.1547
20.1547
20.1547
20.1547
20.1547
20.1547
20.1547
20.1547
20.1547
20.1547
20.1547
20.1547
20.1547
20.1547
20.1547
20.1547
20.1547
20.1547
20.1547
20.1547
20.1547
20.1547
20.1547
20.1547
20.1547
20.1547
20.1547
20.1547
20.1547
20.1547
20.1547
20.1547
20.1547
20.1547
20.1547
20.1547
20.1547
20.1547
20.1547
20.1547
20.1547
20.1547
20.1547
20.1547
20.1547
20.1547
20.1547
20.1547
20.1547
20.1547
20.1547
20.1547
20.1547
20.1547
20.1547
20.1547
20.1547
20.1547
20.1547
20.1547
20.1547
20.1547
20.1547
20.1547
20.1547
20.1547
20.1547
20.1547
20.1547
20.1547
20.1547
20.1547
20.1547
20.1547
20.1547
20.1547
20.1547
20.1547
20.1547
20.1547
20.1547
20.1547
20.1547
20.1547
20.1547
20.1547
20.1547
20.1547
20.1547
20.1547
20.1547
20.1547
20.1547
20.1547
20.1547
20.1547
20.1547
20.1547
20.1547
20.1547
20.1547
20.1547
20.1547
20.1547
20.1547
20.1547
20.1547
20.1547
20.1547
20.1547
20.1547
20.1547
20.1547
20.1547
20.1547
20.1547
20.1547
20.1547
20.1547
20.1547
20.1547
20.1547
20.1547
20.1547
20.1547
20.1547
20.1547
20.1547
20.1547
20.1547
20.1547
20.1547
20.1547
20.1547
20.1547
20.155
1.8492
4.00633
6.24261
8.24032
10.3167
12.3568
14.3697
16.0722
17.2787
17.9959
18.3703
18.5436
18.5399
18.4238
18.278
18.1463
18.0253
17.8962
17.7441
17.5643
17.3558
17.1321
16.9038
16.6753
16.4502
16.2314
16.022
15.8258
15.645
15.4813
15.3343
15.2037
15.0887
14.9885
14.9021
14.8279
14.7641
14.7093
14.6622
14.6219
14.5872
14.5575
14.5321
14.5103
14.4916
14.4756
14.4619
14.4502
14.4402
14.4316
14.4243
14.4181
14.4127
14.4081
14.4042
14.4009
14.398
14.3956
14.3935
14.3917
14.3901
14.3888
14.3877
14.3867
14.3859
14.3852
14.3846
14.3841
14.3837
14.3833
14.383
14.3827
14.3824
14.3822
14.3821
14.3819
14.3818
14.3817
14.3816
14.3815
14.3814
14.3814
14.3813
14.3813
14.3812
14.3812
14.3812
14.3812
14.3811
14.3811
14.3811
14.3811
14.3811
14.3811
14.381
14.381
14.381
14.381
14.381
14.381
14.381
14.381
14.381
14.381
14.381
14.381
14.381
14.381
14.381
14.381
14.381
14.381
14.381
14.381
14.381
14.381
14.381
14.381
14.381
14.381
14.381
14.381
14.381
14.381
14.381
14.381
14.381
14.381
14.381
14.381
14.381
14.381
14.381
14.381
14.381
14.381
14.381
14.381
14.381
14.381
14.381
14.381
14.381
14.381
14.381
14.381
14.381
14.381
14.381
14.381
14.381
14.381
14.381
14.381
14.381
14.381
14.381
14.381
14.381
14.381
14.381
14.381
14.381
14.381
14.381
14.381
14.381
14.381
14.381
14.381
14.381
14.381
14.381
14.381
14.381
14.381
14.381
14.381
14.381
14.381
14.381
14.381
14.381
14.381
14.381
14.381
14.381
14.381
14.381
14.381
14.381
14.381
14.381
14.381
14.381
14.381
14.381
14.381
14.381
14.381
14.381
14.381
14.381
14.381
14.381
14.381
14.381
14.381
14.381
14.381
14.381
14.381
14.381
14.381
14.381
14.381
14.381
14.381
14.381
14.381
14.381
14.381
14.381
14.381
14.381
14.381
14.381
14.381
14.381
14.381
14.381
14.381
14.381
14.381
14.381
14.381
14.381
14.381
14.381
14.381
14.381
14.381
14.381
14.381
14.381
14.381
14.381
14.381
14.381
14.381
14.381
14.381
14.381
14.381
14.381
14.381
14.381
14.381
14.381
14.381
14.381
14.381
14.381
14.381
14.381
14.381
14.381
14.381
14.381
14.381
14.381
14.381
14.381
14.381
14.381
14.381
14.381
14.381
14.381
14.381
14.381
14.381
14.381
14.381
14.381
14.381
14.381
14.381
14.381
14.381
14.381
14.381
14.381
14.381
14.381
14.381
14.381
14.3809
14.381
14.3811
0.777464
1.6566
2.50582
3.53268
4.65723
5.85509
7.15404
8.61431
10.1569
11.5977
12.7896
13.6872
14.2869
14.6296
14.7994
14.8574
14.8236
14.7075
14.5258
14.3015
14.0507
13.7977
13.5464
13.2938
13.0423
12.7963
12.5623
12.3464
12.1515
11.9782
11.825
11.6904
11.573
11.4716
11.3846
11.3099
11.2458
11.1908
11.1436
11.1031
11.0684
11.0387
11.0132
10.9914
10.9728
10.9568
10.9431
10.9315
10.9215
10.9129
10.9056
10.8994
10.894
10.8895
10.8856
10.8822
10.8794
10.8769
10.8749
10.8731
10.8716
10.8703
10.8691
10.8682
10.8674
10.8667
10.8661
10.8656
10.8651
10.8648
10.8644
10.8642
10.8639
10.8637
10.8636
10.8634
10.8633
10.8632
10.8631
10.863
10.8629
10.8629
10.8628
10.8628
10.8628
10.8627
10.8627
10.8627
10.8626
10.8626
10.8626
10.8626
10.8626
10.8626
10.8625
10.8625
10.8625
10.8625
10.8625
10.8625
10.8625
10.8625
10.8625
10.8625
10.8625
10.8625
10.8625
10.8625
10.8625
10.8625
10.8625
10.8625
10.8625
10.8625
10.8625
10.8625
10.8625
10.8625
10.8625
10.8625
10.8625
10.8625
10.8625
10.8625
10.8625
10.8625
10.8625
10.8625
10.8625
10.8625
10.8625
10.8625
10.8625
10.8625
10.8625
10.8625
10.8625
10.8625
10.8625
10.8625
10.8625
10.8625
10.8625
10.8625
10.8625
10.8625
10.8625
10.8625
10.8625
10.8625
10.8625
10.8625
10.8625
10.8625
10.8625
10.8625
10.8625
10.8625
10.8625
10.8625
10.8625
10.8625
10.8625
10.8625
10.8625
10.8625
10.8625
10.8625
10.8625
10.8625
10.8625
10.8625
10.8625
10.8625
10.8625
10.8625
10.8625
10.8625
10.8625
10.8625
10.8625
10.8625
10.8625
10.8625
10.8625
10.8625
10.8625
10.8625
10.8625
10.8625
10.8625
10.8625
10.8625
10.8625
10.8625
10.8625
10.8625
10.8625
10.8625
10.8625
10.8625
10.8625
10.8625
10.8625
10.8625
10.8625
10.8625
10.8625
10.8625
10.8625
10.8625
10.8625
10.8625
10.8625
10.8625
10.8625
10.8625
10.8625
10.8625
10.8625
10.8625
10.8625
10.8625
10.8625
10.8625
10.8625
10.8625
10.8625
10.8625
10.8625
10.8625
10.8625
10.8625
10.8625
10.8625
10.8625
10.8625
10.8625
10.8625
10.8625
10.8625
10.8625
10.8625
10.8625
10.8625
10.8625
10.8625
10.8625
10.8625
10.8625
10.8625
10.8625
10.8625
10.8625
10.8625
10.8625
10.8625
10.8625
10.8625
10.8625
10.8625
10.8625
10.8625
10.8625
10.8625
10.8625
10.8625
10.8625
10.8625
10.8625
10.8625
10.8625
10.8625
10.8625
10.8625
10.8625
10.8625
10.8625
10.8625
10.8625
10.8625
10.8625
10.8625
10.8625
10.8625
10.8625
10.8625
10.8625
10.8625
10.8625
10.8625
10.8625
10.8625
10.8625
10.8625
10.8625
10.8625
10.8625
10.8625
10.8625
0.405395
0.804138
1.25441
1.75382
2.27927
2.82475
3.58247
4.43663
5.41084
6.48294
7.56194
8.65105
9.65907
10.4954
11.1416
11.5917
11.8654
11.9938
11.9927
11.8896
11.7153
11.4863
11.2197
10.9355
10.663
10.418
10.2037
10.0166
9.85273
9.70882
9.58221
9.47112
9.37416
9.29021
9.21785
9.15542
9.10162
9.0553
9.01547
8.98124
8.95184
8.92662
8.90498
8.88644
8.87055
8.85694
8.84529
8.83532
8.82679
8.81949
8.81326
8.80792
8.80336
8.79947
8.79613
8.79329
8.79086
8.78878
8.787
8.78549
8.78419
8.78308
8.78214
8.78133
8.78064
8.78004
8.77954
8.7791
8.77873
8.77842
8.77815
8.77791
8.77771
8.77754
8.7774
8.77727
8.77717
8.77707
8.77699
8.77693
8.77687
8.77682
8.77677
8.77674
8.7767
8.77668
8.77665
8.77663
8.77661
8.77659
8.77658
8.77657
8.77655
8.77654
8.77654
8.77653
8.77652
8.77651
8.77651
8.7765
8.7765
8.7765
8.77649
8.77649
8.77649
8.77648
8.77648
8.77648
8.77648
8.77648
8.77648
8.77647
8.77647
8.77647
8.77647
8.77647
8.77647
8.77647
8.77647
8.77647
8.77647
8.77647
8.77647
8.77647
8.77647
8.77647
8.77647
8.77646
8.77646
8.77646
8.77646
8.77646
8.77646
8.77646
8.77646
8.77646
8.77646
8.77646
8.77646
8.77646
8.77646
8.77646
8.77646
8.77646
8.77646
8.77646
8.77646
8.77646
8.77646
8.77646
8.77646
8.77646
8.77646
8.77646
8.77646
8.77646
8.77646
8.77646
8.77646
8.77646
8.77646
8.77646
8.77646
8.77646
8.77646
8.77646
8.77646
8.77646
8.77646
8.77646
8.77646
8.77646
8.77646
8.77646
8.77646
8.77646
8.77646
8.77646
8.77646
8.77646
8.77646
8.77646
8.77646
8.77646
8.77646
8.77646
8.77646
8.77646
8.77646
8.77646
8.77646
8.77646
8.77646
8.77646
8.77646
8.77646
8.77646
8.77646
8.77646
8.77646
8.77646
8.77646
8.77646
8.77646
8.77646
8.77646
8.77646
8.77646
8.77646
8.77646
8.77646
8.77646
8.77646
8.77646
8.77646
8.77646
8.77646
8.77646
8.77646
8.77646
8.77646
8.77646
8.77646
8.77646
8.77646
8.77646
8.77646
8.77646
8.77646
8.77646
8.77646
8.77646
8.77646
8.77646
8.77646
8.77646
8.77646
8.77646
8.77646
8.77646
8.77646
8.77646
8.77646
8.77646
8.77646
8.77646
8.77646
8.77646
8.77646
8.77646
8.77646
8.77646
8.77646
8.77646
8.77646
8.77646
8.77646
8.77646
8.77646
8.77646
8.77646
8.77646
8.77646
8.77646
8.77646
8.77646
8.77646
8.77646
8.77646
8.77646
8.77646
8.77646
8.77646
8.77646
8.77646
8.77646
8.77646
8.77646
8.77646
8.77646
8.77646
8.77646
8.77646
8.77646
8.77646
8.77646
8.77646
8.77646
8.77646
8.77646
8.77646
8.77646
8.77646
8.77646
8.77646
8.77646
8.77646
8.77645
8.77645
8.77648
0.287102
0.504103
0.835392
1.18914
1.53124
1.87291
2.3038
2.76563
3.25703
3.82118
4.53426
5.31536
6.12422
6.91835
7.63054
8.2456
8.73914
9.08569
9.32457
9.47875
9.5449
9.53074
9.45274
9.33189
9.18476
9.03406
8.89079
8.75909
8.63989
8.5327
8.43726
8.35203
8.27623
8.20933
8.15096
8.10038
8.05657
8.01868
7.98596
7.95773
7.93342
7.9125
7.89451
7.87906
7.8658
7.85443
7.84468
7.83633
7.82918
7.82306
7.81782
7.81334
7.80951
7.80624
7.80344
7.80105
7.79901
7.79727
7.79578
7.79451
7.79342
7.79249
7.7917
7.79102
7.79044
7.78995
7.78952
7.78916
7.78885
7.78859
7.78836
7.78817
7.788
7.78786
7.78774
7.78763
7.78754
7.78747
7.7874
7.78734
7.78729
7.78725
7.78722
7.78718
7.78716
7.78713
7.78711
7.78709
7.78708
7.78706
7.78705
7.78704
7.78703
7.78702
7.78702
7.78701
7.787
7.787
7.78699
7.78699
7.78699
7.78698
7.78698
7.78698
7.78697
7.78697
7.78697
7.78697
7.78697
7.78697
7.78696
7.78696
7.78696
7.78696
7.78696
7.78696
7.78696
7.78696
7.78696
7.78696
7.78696
7.78696
7.78695
7.78695
7.78695
7.78695
7.78695
7.78695
7.78695
7.78695
7.78695
7.78695
7.78695
7.78695
7.78695
7.78695
7.78695
7.78695
7.78695
7.78695
7.78695
7.78695
7.78695
7.78695
7.78695
7.78695
7.78695
7.78695
7.78695
7.78695
7.78695
7.78695
7.78695
7.78695
7.78695
7.78695
7.78695
7.78695
7.78695
7.78695
7.78695
7.78695
7.78695
7.78695
7.78695
7.78695
7.78695
7.78695
7.78695
7.78695
7.78695
7.78695
7.78695
7.78695
7.78695
7.78695
7.78695
7.78695
7.78695
7.78695
7.78694
7.78694
7.78694
7.78694
7.78694
7.78694
7.78694
7.78694
7.78694
7.78694
7.78694
7.78694
7.78694
7.78694
7.78694
7.78694
7.78694
7.78694
7.78694
7.78694
7.78694
7.78694
7.78694
7.78695
7.78695
7.78695
7.78695
7.78695
7.78695
7.78695
7.78695
7.78695
7.78695
7.78695
7.78694
7.78694
7.78694
7.78694
7.78694
7.78694
7.78694
7.78694
7.78694
7.78694
7.78694
7.78694
7.78694
7.78694
7.78694
7.78694
7.78694
7.78694
7.78694
7.78694
7.78694
7.78694
7.78694
7.78694
7.78694
7.78694
7.78694
7.78694
7.78694
7.78694
7.78694
7.78694
7.78694
7.78694
7.78694
7.78694
7.78694
7.78694
7.78694
7.78694
7.78694
7.78694
7.78694
7.78694
7.78694
7.78694
7.78694
7.78694
7.78694
7.78694
7.78694
7.78694
7.78694
7.78694
7.78694
7.78694
7.78694
7.78694
7.78694
7.78694
7.78694
7.78694
7.78694
7.78694
7.78694
7.78694
7.78695
7.78695
7.78695
7.78695
7.78695
7.78695
7.78695
7.78695
7.78694
7.78694
7.78694
7.78694
7.78694
7.78694
7.78694
7.78694
7.78694
7.78694
7.78694
7.78695
)
;

boundaryField
{
    inlet
    {
        type            fixedValue;
        value           uniform 0.18449;
    }
    outlet
    {
        type            zeroGradient;
    }
    sideWall
    {
        type            empty;
    }
    bed
    {
        type            omegaWallFunction;
        refValue        nonuniform List<scalar> 
300
(
143.413
158.383
146.202
134.207
127.326
124.135
122.981
122.829
123.035
123.446
123.95
124.447
124.936
125.44
125.928
126.422
126.937
127.453
127.975
128.5
129.022
129.545
130.08
130.627
131.153
131.634
132.067
132.446
132.775
133.056
133.296
133.501
133.672
133.811
133.923
134.015
134.092
134.156
134.211
134.257
134.296
134.33
134.358
134.383
134.403
134.421
134.436
134.449
134.46
134.469
134.477
134.484
134.489
134.494
134.499
134.502
134.505
134.508
134.51
134.512
134.514
134.515
134.517
134.518
134.519
134.519
134.52
134.521
134.521
134.522
134.522
134.522
134.523
134.523
134.523
134.523
134.523
134.523
134.524
134.524
134.524
134.524
134.524
134.524
134.524
134.524
134.524
134.524
134.524
134.524
134.524
134.524
134.524
134.524
134.524
134.524
134.524
134.524
134.524
134.524
134.524
134.524
134.524
134.524
134.524
134.524
134.524
134.524
134.524
134.524
134.524
134.524
134.524
134.524
134.524
134.524
134.524
134.524
134.524
134.524
134.524
134.524
134.524
134.524
134.524
134.524
134.524
134.524
134.524
134.524
134.524
134.524
134.524
134.524
134.524
134.524
134.524
134.524
134.524
134.524
134.524
134.524
134.524
134.524
134.524
134.524
134.524
134.524
134.524
134.524
134.524
134.524
134.524
134.524
134.524
134.524
134.524
134.524
134.524
134.524
134.524
134.524
134.524
134.524
134.524
134.524
134.524
134.524
134.524
134.524
134.524
134.524
134.524
134.524
134.524
134.524
134.524
134.524
134.524
134.524
134.524
134.524
134.524
134.524
134.524
134.524
134.524
134.524
134.524
134.524
134.524
134.524
134.524
134.524
134.524
134.524
134.524
134.524
134.524
134.524
134.524
134.524
134.524
134.524
134.524
134.524
134.524
134.524
134.524
134.524
134.524
134.524
134.524
134.524
134.524
134.524
134.524
134.524
134.524
134.524
134.524
134.524
134.524
134.524
134.524
134.524
134.524
134.524
134.524
134.524
134.524
134.524
134.524
134.524
134.524
134.524
134.524
134.524
134.524
134.524
134.524
134.524
134.524
134.524
134.524
134.524
134.524
134.524
134.524
134.524
134.524
134.524
134.524
134.524
134.524
134.524
134.524
134.524
134.524
134.524
134.524
134.524
134.524
134.524
134.524
134.524
134.524
134.524
134.524
134.524
134.524
134.524
134.524
134.524
134.524
134.524
134.524
134.524
134.524
134.524
134.524
134.524
134.524
134.524
134.524
134.524
134.524
134.524
134.524
134.524
134.524
134.524
134.524
134.524
134.524
134.524
134.524
134.524
134.529
134.523
)
;
        value           nonuniform List<scalar> 
300
(
143.413
158.383
146.202
134.207
127.326
124.135
122.981
122.829
123.035
123.446
123.95
124.447
124.936
125.44
125.928
126.422
126.937
127.453
127.975
128.5
129.022
129.545
130.08
130.627
131.153
131.634
132.067
132.446
132.775
133.056
133.296
133.501
133.672
133.811
133.923
134.015
134.092
134.156
134.211
134.257
134.296
134.33
134.358
134.383
134.403
134.421
134.436
134.449
134.46
134.469
134.477
134.484
134.489
134.494
134.499
134.502
134.505
134.508
134.51
134.512
134.514
134.515
134.517
134.518
134.519
134.519
134.52
134.521
134.521
134.522
134.522
134.522
134.523
134.523
134.523
134.523
134.523
134.523
134.524
134.524
134.524
134.524
134.524
134.524
134.524
134.524
134.524
134.524
134.524
134.524
134.524
134.524
134.524
134.524
134.524
134.524
134.524
134.524
134.524
134.524
134.524
134.524
134.524
134.524
134.524
134.524
134.524
134.524
134.524
134.524
134.524
134.524
134.524
134.524
134.524
134.524
134.524
134.524
134.524
134.524
134.524
134.524
134.524
134.524
134.524
134.524
134.524
134.524
134.524
134.524
134.524
134.524
134.524
134.524
134.524
134.524
134.524
134.524
134.524
134.524
134.524
134.524
134.524
134.524
134.524
134.524
134.524
134.524
134.524
134.524
134.524
134.524
134.524
134.524
134.524
134.524
134.524
134.524
134.524
134.524
134.524
134.524
134.524
134.524
134.524
134.524
134.524
134.524
134.524
134.524
134.524
134.524
134.524
134.524
134.524
134.524
134.524
134.524
134.524
134.524
134.524
134.524
134.524
134.524
134.524
134.524
134.524
134.524
134.524
134.524
134.524
134.524
134.524
134.524
134.524
134.524
134.524
134.524
134.524
134.524
134.524
134.524
134.524
134.524
134.524
134.524
134.524
134.524
134.524
134.524
134.524
134.524
134.524
134.524
134.524
134.524
134.524
134.524
134.524
134.524
134.524
134.524
134.524
134.524
134.524
134.524
134.524
134.524
134.524
134.524
134.524
134.524
134.524
134.524
134.524
134.524
134.524
134.524
134.524
134.524
134.524
134.524
134.524
134.524
134.524
134.524
134.524
134.524
134.524
134.524
134.524
134.524
134.524
134.524
134.524
134.524
134.524
134.524
134.524
134.524
134.524
134.524
134.524
134.524
134.524
134.524
134.524
134.524
134.524
134.524
134.524
134.524
134.524
134.524
134.524
134.524
134.524
134.524
134.524
134.524
134.524
134.524
134.524
134.524
134.524
134.524
134.524
134.524
134.524
134.524
134.524
134.524
134.524
134.524
134.524
134.524
134.524
134.524
134.529
134.523
)
;
        Cmu             0.09;
        kappa           0.41;
        E               9.8;
        beta1           0.075;
    }
    topWall
    {
        type            slip;
        value           nonuniform List<scalar> 
300
(
0.287102
0.504103
0.835392
1.18914
1.53124
1.87291
2.3038
2.76563
3.25703
3.82118
4.53426
5.31536
6.12422
6.91835
7.63054
8.2456
8.73914
9.08569
9.32457
9.47875
9.5449
9.53074
9.45274
9.33189
9.18476
9.03406
8.89079
8.75909
8.63989
8.5327
8.43726
8.35203
8.27623
8.20933
8.15096
8.10038
8.05657
8.01868
7.98596
7.95773
7.93342
7.9125
7.89451
7.87906
7.8658
7.85443
7.84468
7.83633
7.82918
7.82306
7.81782
7.81334
7.80951
7.80624
7.80344
7.80105
7.79901
7.79727
7.79578
7.79451
7.79342
7.79249
7.7917
7.79102
7.79044
7.78995
7.78952
7.78916
7.78885
7.78859
7.78836
7.78817
7.788
7.78786
7.78774
7.78763
7.78754
7.78747
7.7874
7.78734
7.78729
7.78725
7.78722
7.78718
7.78716
7.78713
7.78711
7.78709
7.78708
7.78706
7.78705
7.78704
7.78703
7.78702
7.78702
7.78701
7.787
7.787
7.78699
7.78699
7.78699
7.78698
7.78698
7.78698
7.78697
7.78697
7.78697
7.78697
7.78697
7.78697
7.78696
7.78696
7.78696
7.78696
7.78696
7.78696
7.78696
7.78696
7.78696
7.78696
7.78696
7.78696
7.78695
7.78695
7.78695
7.78695
7.78695
7.78695
7.78695
7.78695
7.78695
7.78695
7.78695
7.78695
7.78695
7.78695
7.78695
7.78695
7.78695
7.78695
7.78695
7.78695
7.78695
7.78695
7.78695
7.78695
7.78695
7.78695
7.78695
7.78695
7.78695
7.78695
7.78695
7.78695
7.78695
7.78695
7.78695
7.78695
7.78695
7.78695
7.78695
7.78695
7.78695
7.78695
7.78695
7.78695
7.78695
7.78695
7.78695
7.78695
7.78695
7.78695
7.78695
7.78695
7.78695
7.78695
7.78695
7.78695
7.78695
7.78695
7.78694
7.78694
7.78694
7.78694
7.78694
7.78694
7.78694
7.78694
7.78694
7.78694
7.78694
7.78694
7.78694
7.78694
7.78694
7.78694
7.78694
7.78694
7.78694
7.78694
7.78694
7.78694
7.78694
7.78695
7.78695
7.78695
7.78695
7.78695
7.78695
7.78695
7.78695
7.78695
7.78695
7.78695
7.78694
7.78694
7.78694
7.78694
7.78694
7.78694
7.78694
7.78694
7.78694
7.78694
7.78694
7.78694
7.78694
7.78694
7.78694
7.78694
7.78694
7.78694
7.78694
7.78694
7.78694
7.78694
7.78694
7.78694
7.78694
7.78694
7.78694
7.78694
7.78694
7.78694
7.78694
7.78694
7.78694
7.78694
7.78694
7.78694
7.78694
7.78694
7.78694
7.78694
7.78694
7.78694
7.78694
7.78694
7.78694
7.78694
7.78694
7.78694
7.78694
7.78694
7.78694
7.78694
7.78694
7.78694
7.78694
7.78694
7.78694
7.78694
7.78694
7.78694
7.78694
7.78694
7.78694
7.78694
7.78694
7.78694
7.78695
7.78695
7.78695
7.78695
7.78695
7.78695
7.78695
7.78695
7.78694
7.78694
7.78694
7.78694
7.78694
7.78694
7.78694
7.78694
7.78694
7.78694
7.78694
7.78695
)
;
    }
}


// ************************************************************************* //
