/*--------------------------------*- C++ -*----------------------------------*\
| =========                 |                                                 |
| \\      /  F ield         | foam-extend: Open Source CFD                    |
|  \\    /   O peration     | Version:     3.2                                |
|   \\  /    A nd           | Web:         http://www.foam-extend.org         |
|    \\/     M anipulation  | For copyright notice see file Copyright         |
\*---------------------------------------------------------------------------*/
FoamFile
{
    version     2.0;
    format      ascii;
    class       volScalarField;
    location    "200";
    object      p;
}
// * * * * * * * * * * * * * * * * * * * * * * * * * * * * * * * * * * * * * //

dimensions      [1 -1 -2 0 0 0 0];

internalField   nonuniform List<scalar> 
2400
(
466.082
462.361
461.813
461.615
462.014
462.754
463.658
464.595
465.596
466.61
467.641
468.675
469.73
470.789
471.851
472.924
473.989
475.056
476.121
477.188
478.253
479.318
480.372
481.404
482.414
483.404
484.374
485.326
486.262
487.182
488.09
488.985
489.87
490.749
491.622
492.49
493.354
494.214
495.07
495.924
496.776
497.626
498.474
499.321
500.167
501.011
501.855
502.698
503.541
504.382
505.224
506.065
506.905
507.746
508.586
509.426
510.265
511.105
511.945
512.784
513.623
514.462
515.301
516.14
516.979
517.818
518.657
519.496
520.335
521.174
522.012
522.851
523.69
524.529
525.367
526.206
527.045
527.884
528.722
529.561
530.4
531.238
532.077
532.916
533.754
534.593
535.432
536.27
537.109
537.948
538.786
539.625
540.464
541.302
542.141
542.98
543.818
544.657
545.496
546.334
547.173
548.012
548.85
549.689
550.528
551.366
552.205
553.044
553.882
554.721
555.56
556.398
557.237
558.076
558.914
559.753
560.592
561.43
562.269
563.108
563.946
564.785
565.624
566.462
567.301
568.14
568.978
569.817
570.656
571.494
572.333
573.172
574.01
574.849
575.688
576.526
577.365
578.204
579.042
579.881
580.72
581.558
582.397
583.236
584.074
584.913
585.752
586.59
587.429
588.268
589.106
589.945
590.784
591.622
592.461
593.3
594.138
594.977
595.816
596.654
597.493
598.332
599.17
600.009
600.848
601.686
602.525
603.364
604.202
605.041
605.88
606.718
607.557
608.396
609.234
610.073
610.912
611.75
612.589
613.428
614.266
615.105
615.944
616.782
617.621
618.46
619.298
620.137
620.976
621.814
622.653
623.492
624.33
625.169
626.008
626.846
627.685
628.524
629.362
630.201
631.04
631.878
632.717
633.556
634.394
635.233
636.072
636.91
637.749
638.588
639.426
640.265
641.104
641.942
642.781
643.62
644.458
645.297
646.136
646.974
647.813
648.652
649.49
650.329
651.168
652.006
652.845
653.684
654.522
655.361
656.2
657.038
657.877
658.716
659.554
660.393
661.232
662.07
662.909
663.748
664.586
665.425
666.264
667.102
667.941
668.78
669.618
670.457
671.296
672.134
672.973
673.812
674.65
675.489
676.328
677.166
678.005
678.844
679.682
680.521
681.36
682.198
683.037
683.876
684.714
685.553
686.392
687.23
688.069
688.908
689.746
690.585
691.424
692.262
693.101
693.94
694.778
695.617
696.456
697.294
698.133
698.972
699.81
700.649
701.488
702.326
703.165
704.004
704.842
705.681
706.52
707.358
708.197
709.036
709.874
710.713
711.552
712.39
713.229
714.062
429.37
425.766
425.188
424.985
425.384
426.122
427.024
427.961
428.96
429.973
431.003
432.036
433.09
434.149
435.211
436.284
437.349
438.415
439.481
440.546
441.612
442.677
443.731
444.763
445.772
446.763
447.733
448.685
449.62
450.541
451.449
452.344
453.23
454.108
454.981
455.85
456.713
457.573
458.43
459.284
460.136
460.986
461.834
462.681
463.526
464.371
465.215
466.058
466.9
467.742
468.583
469.424
470.265
471.105
471.945
472.785
473.625
474.465
475.304
476.143
476.983
477.822
478.661
479.5
480.339
481.178
482.017
482.856
483.694
484.533
485.372
486.211
487.05
487.888
488.727
489.566
490.404
491.243
492.082
492.921
493.759
494.598
495.437
496.275
497.114
497.953
498.791
499.63
500.469
501.307
502.146
502.985
503.823
504.662
505.501
506.339
507.178
508.017
508.855
509.694
510.533
511.371
512.21
513.049
513.887
514.726
515.565
516.403
517.242
518.081
518.919
519.758
520.597
521.435
522.274
523.113
523.951
524.79
525.629
526.467
527.306
528.145
528.983
529.822
530.661
531.499
532.338
533.177
534.015
534.854
535.693
536.531
537.37
538.209
539.047
539.886
540.725
541.563
542.402
543.241
544.079
544.918
545.757
546.595
547.434
548.273
549.111
549.95
550.789
551.627
552.466
553.305
554.143
554.982
555.821
556.659
557.498
558.337
559.175
560.014
560.853
561.691
562.53
563.369
564.207
565.046
565.885
566.723
567.562
568.401
569.239
570.078
570.917
571.755
572.594
573.433
574.271
575.11
575.949
576.787
577.626
578.465
579.303
580.142
580.981
581.819
582.658
583.497
584.335
585.174
586.013
586.851
587.69
588.529
589.367
590.206
591.045
591.883
592.722
593.561
594.399
595.238
596.077
596.915
597.754
598.593
599.431
600.27
601.109
601.947
602.786
603.625
604.463
605.302
606.141
606.979
607.818
608.657
609.495
610.334
611.173
612.011
612.85
613.689
614.527
615.366
616.205
617.043
617.882
618.721
619.559
620.398
621.237
622.075
622.914
623.753
624.591
625.43
626.269
627.107
627.946
628.785
629.623
630.462
631.301
632.139
632.978
633.817
634.655
635.494
636.333
637.171
638.01
638.849
639.687
640.526
641.365
642.203
643.042
643.881
644.719
645.558
646.397
647.235
648.074
648.913
649.751
650.59
651.429
652.267
653.106
653.945
654.783
655.622
656.461
657.299
658.138
658.977
659.815
660.654
661.493
662.331
663.17
664.009
664.847
665.686
666.525
667.363
668.202
669.041
669.879
670.718
671.557
672.395
673.234
674.073
674.911
675.75
676.589
677.43
392.634
389.136
388.576
388.378
388.764
389.494
390.393
391.327
392.326
393.337
394.366
395.398
396.452
397.51
398.572
399.645
400.709
401.775
402.84
403.906
404.971
406.036
407.09
408.122
409.131
410.122
411.092
412.044
412.98
413.9
414.808
415.703
416.589
417.467
418.341
419.209
420.073
420.933
421.789
422.643
423.495
424.345
425.194
426.04
426.886
427.731
428.574
429.417
430.26
431.102
431.943
432.784
433.625
434.465
435.305
436.145
436.985
437.824
438.664
439.503
440.342
441.182
442.021
442.86
443.699
444.538
445.376
446.215
447.054
447.893
448.732
449.57
450.409
451.248
452.087
452.925
453.764
454.603
455.442
456.28
457.119
457.958
458.796
459.635
460.474
461.312
462.151
462.99
463.828
464.667
465.506
466.344
467.183
468.022
468.86
469.699
470.538
471.376
472.215
473.054
473.892
474.731
475.57
476.408
477.247
478.086
478.924
479.763
480.602
481.44
482.279
483.118
483.956
484.795
485.634
486.472
487.311
488.15
488.988
489.827
490.666
491.504
492.343
493.182
494.02
494.859
495.698
496.536
497.375
498.214
499.052
499.891
500.73
501.568
502.407
503.246
504.084
504.923
505.762
506.6
507.439
508.278
509.116
509.955
510.794
511.632
512.471
513.31
514.148
514.987
515.826
516.664
517.503
518.342
519.18
520.019
520.858
521.696
522.535
523.374
524.212
525.051
525.89
526.728
527.567
528.406
529.244
530.083
530.922
531.76
532.599
533.438
534.276
535.115
535.954
536.792
537.631
538.47
539.308
540.147
540.986
541.824
542.663
543.502
544.34
545.179
546.018
546.856
547.695
548.534
549.372
550.211
551.05
551.888
552.727
553.566
554.404
555.243
556.082
556.92
557.759
558.598
559.436
560.275
561.114
561.952
562.791
563.63
564.468
565.307
566.146
566.984
567.823
568.662
569.5
570.339
571.178
572.016
572.855
573.694
574.532
575.371
576.21
577.048
577.887
578.726
579.564
580.403
581.242
582.08
582.919
583.758
584.596
585.435
586.274
587.112
587.951
588.79
589.628
590.467
591.306
592.144
592.983
593.822
594.66
595.499
596.338
597.176
598.015
598.854
599.692
600.531
601.37
602.208
603.047
603.886
604.724
605.563
606.402
607.24
608.079
608.918
609.756
610.595
611.434
612.272
613.111
613.95
614.788
615.627
616.466
617.304
618.143
618.982
619.82
620.659
621.498
622.336
623.175
624.014
624.852
625.691
626.53
627.368
628.207
629.046
629.884
630.723
631.562
632.4
633.239
634.078
634.916
635.755
636.594
637.432
638.271
639.11
639.948
640.788
355.923
352.512
351.957
351.754
352.138
352.865
353.761
354.694
355.691
356.702
357.73
358.763
359.816
360.873
361.934
363.006
364.071
365.137
366.201
367.267
368.332
369.397
370.45
371.482
372.491
373.482
374.451
375.404
376.339
377.26
378.167
379.062
379.948
380.827
381.7
382.568
383.432
384.292
385.149
386.003
386.855
387.705
388.553
389.4
390.246
391.09
391.934
392.777
393.619
394.461
395.303
396.144
396.984
397.825
398.665
399.505
400.344
401.184
402.023
402.863
403.702
404.541
405.38
406.219
407.058
407.897
408.736
409.575
410.414
411.253
412.091
412.93
413.769
414.608
415.446
416.285
417.124
417.963
418.801
419.64
420.479
421.317
422.156
422.995
423.833
424.672
425.511
426.349
427.188
428.027
428.865
429.704
430.543
431.381
432.22
433.059
433.897
434.736
435.575
436.413
437.252
438.091
438.929
439.768
440.607
441.445
442.284
443.123
443.961
444.8
445.639
446.477
447.316
448.155
448.993
449.832
450.671
451.509
452.348
453.187
454.025
454.864
455.703
456.541
457.38
458.219
459.057
459.896
460.735
461.573
462.412
463.251
464.089
464.928
465.767
466.605
467.444
468.283
469.121
469.96
470.799
471.637
472.476
473.315
474.153
474.992
475.831
476.669
477.508
478.347
479.185
480.024
480.863
481.701
482.54
483.379
484.217
485.056
485.895
486.733
487.572
488.411
489.249
490.088
490.927
491.765
492.604
493.443
494.281
495.12
495.959
496.797
497.636
498.475
499.313
500.152
500.991
501.829
502.668
503.507
504.345
505.184
506.023
506.861
507.7
508.539
509.377
510.216
511.055
511.893
512.732
513.571
514.409
515.248
516.087
516.925
517.764
518.603
519.441
520.28
521.119
521.957
522.796
523.635
524.473
525.312
526.151
526.989
527.828
528.667
529.505
530.344
531.183
532.021
532.86
533.699
534.537
535.376
536.215
537.053
537.892
538.731
539.569
540.408
541.247
542.085
542.924
543.763
544.601
545.44
546.279
547.117
547.956
548.795
549.633
550.472
551.311
552.149
552.988
553.827
554.665
555.504
556.343
557.181
558.02
558.859
559.697
560.536
561.375
562.213
563.052
563.891
564.729
565.568
566.407
567.245
568.084
568.923
569.761
570.6
571.439
572.277
573.116
573.955
574.793
575.632
576.471
577.309
578.148
578.987
579.825
580.664
581.503
582.341
583.18
584.019
584.857
585.696
586.535
587.373
588.212
589.051
589.889
590.728
591.567
592.405
593.244
594.083
594.921
595.76
596.599
597.437
598.276
599.115
599.953
600.792
601.631
602.469
603.308
604.148
319.214
315.878
315.328
315.12
315.508
316.232
317.124
318.058
319.055
320.067
321.094
322.126
323.179
324.237
325.298
326.37
327.434
328.499
329.564
330.629
331.694
332.758
333.811
334.843
335.851
336.842
337.812
338.764
339.699
340.62
341.527
342.422
343.308
344.187
345.06
345.928
346.792
347.652
348.509
349.363
350.215
351.065
351.913
352.76
353.605
354.45
355.294
356.137
356.979
357.821
358.662
359.503
360.344
361.184
362.024
362.864
363.704
364.544
365.383
366.222
367.062
367.901
368.74
369.579
370.418
371.257
372.096
372.935
373.773
374.612
375.451
376.29
377.129
377.967
378.806
379.645
380.483
381.322
382.161
383
383.838
384.677
385.516
386.354
387.193
388.032
388.87
389.709
390.548
391.386
392.225
393.064
393.902
394.741
395.58
396.418
397.257
398.096
398.934
399.773
400.612
401.45
402.289
403.128
403.966
404.805
405.644
406.482
407.321
408.16
408.998
409.837
410.676
411.514
412.353
413.192
414.03
414.869
415.708
416.546
417.385
418.224
419.062
419.901
420.74
421.578
422.417
423.256
424.094
424.933
425.772
426.61
427.449
428.288
429.126
429.965
430.804
431.642
432.481
433.32
434.158
434.997
435.836
436.674
437.513
438.352
439.19
440.029
440.868
441.706
442.545
443.384
444.222
445.061
445.9
446.738
447.577
448.416
449.254
450.093
450.932
451.77
452.609
453.448
454.286
455.125
455.964
456.802
457.641
458.48
459.318
460.157
460.996
461.834
462.673
463.512
464.35
465.189
466.028
466.866
467.705
468.544
469.382
470.221
471.06
471.898
472.737
473.576
474.414
475.253
476.092
476.93
477.769
478.608
479.446
480.285
481.124
481.962
482.801
483.64
484.478
485.317
486.156
486.994
487.833
488.672
489.51
490.349
491.188
492.026
492.865
493.704
494.542
495.381
496.22
497.058
497.897
498.736
499.574
500.413
501.252
502.09
502.929
503.768
504.606
505.445
506.284
507.122
507.961
508.8
509.638
510.477
511.316
512.154
512.993
513.832
514.67
515.509
516.348
517.186
518.025
518.864
519.702
520.541
521.38
522.218
523.057
523.896
524.734
525.573
526.412
527.25
528.089
528.928
529.766
530.605
531.444
532.282
533.121
533.96
534.798
535.637
536.476
537.314
538.153
538.992
539.83
540.669
541.508
542.346
543.185
544.024
544.862
545.701
546.54
547.378
548.217
549.056
549.894
550.733
551.572
552.41
553.249
554.088
554.926
555.765
556.604
557.442
558.281
559.12
559.958
560.797
561.636
562.474
563.313
564.152
564.99
565.829
566.668
567.507
282.535
279.232
278.683
278.485
278.872
279.594
280.484
281.42
282.417
283.429
284.456
285.489
286.543
287.6
288.661
289.733
290.797
291.862
292.927
293.992
295.057
296.121
297.173
298.204
299.212
300.203
301.172
302.124
303.059
303.98
304.887
305.782
306.668
307.547
308.42
309.288
310.152
311.012
311.868
312.723
313.574
314.424
315.273
316.119
316.965
317.81
318.653
319.496
320.339
321.181
322.022
322.863
323.704
324.544
325.384
326.224
327.064
327.903
328.743
329.582
330.421
331.26
332.1
332.939
333.778
334.616
335.455
336.294
337.133
337.972
338.811
339.649
340.488
341.327
342.166
343.004
343.843
344.682
345.521
346.359
347.198
348.037
348.875
349.714
350.553
351.391
352.23
353.069
353.907
354.746
355.585
356.423
357.262
358.101
358.939
359.778
360.617
361.455
362.294
363.133
363.971
364.81
365.649
366.487
367.326
368.165
369.003
369.842
370.681
371.519
372.358
373.197
374.035
374.874
375.713
376.551
377.39
378.229
379.067
379.906
380.745
381.583
382.422
383.261
384.099
384.938
385.777
386.615
387.454
388.293
389.131
389.97
390.809
391.647
392.486
393.325
394.163
395.002
395.841
396.679
397.518
398.357
399.195
400.034
400.873
401.711
402.55
403.389
404.227
405.066
405.905
406.743
407.582
408.421
409.259
410.098
410.937
411.775
412.614
413.453
414.291
415.13
415.969
416.807
417.646
418.485
419.323
420.162
421.001
421.839
422.678
423.517
424.355
425.194
426.033
426.871
427.71
428.549
429.387
430.226
431.065
431.903
432.742
433.581
434.419
435.258
436.097
436.935
437.774
438.613
439.451
440.29
441.129
441.967
442.806
443.645
444.483
445.322
446.161
446.999
447.838
448.677
449.515
450.354
451.193
452.031
452.87
453.709
454.547
455.386
456.225
457.063
457.902
458.741
459.579
460.418
461.257
462.095
462.934
463.773
464.611
465.45
466.289
467.127
467.966
468.805
469.643
470.482
471.321
472.159
472.998
473.837
474.675
475.514
476.353
477.191
478.03
478.869
479.707
480.546
481.385
482.223
483.062
483.901
484.739
485.578
486.417
487.255
488.094
488.933
489.771
490.61
491.449
492.287
493.126
493.965
494.803
495.642
496.481
497.319
498.158
498.997
499.835
500.674
501.513
502.351
503.19
504.029
504.867
505.706
506.545
507.383
508.222
509.061
509.899
510.738
511.577
512.415
513.254
514.093
514.931
515.77
516.609
517.447
518.286
519.125
519.963
520.802
521.641
522.479
523.318
524.157
524.995
525.834
526.673
527.511
528.35
529.189
530.027
530.867
245.889
242.592
242.032
241.838
242.228
242.951
243.842
244.778
245.776
246.789
247.816
248.851
249.904
250.962
252.023
253.096
254.16
255.225
256.29
257.355
258.419
259.483
260.535
261.566
262.574
263.564
264.533
265.485
266.42
267.34
268.248
269.142
270.028
270.907
271.78
272.648
273.512
274.372
275.228
276.082
276.934
277.784
278.632
279.479
280.325
281.169
282.013
282.856
283.698
284.54
285.382
286.223
287.063
287.904
288.744
289.584
290.423
291.263
292.102
292.942
293.781
294.62
295.459
296.298
297.137
297.976
298.815
299.654
300.493
301.332
302.17
303.009
303.848
304.687
305.525
306.364
307.203
308.041
308.88
309.719
310.558
311.396
312.235
313.074
313.912
314.751
315.59
316.428
317.267
318.106
318.944
319.783
320.622
321.46
322.299
323.138
323.976
324.815
325.654
326.492
327.331
328.17
329.008
329.847
330.686
331.524
332.363
333.202
334.04
334.879
335.718
336.556
337.395
338.234
339.072
339.911
340.75
341.588
342.427
343.266
344.104
344.943
345.782
346.62
347.459
348.298
349.136
349.975
350.814
351.652
352.491
353.33
354.168
355.007
355.846
356.684
357.523
358.362
359.2
360.039
360.878
361.716
362.555
363.394
364.232
365.071
365.91
366.748
367.587
368.426
369.264
370.103
370.942
371.78
372.619
373.458
374.296
375.135
375.974
376.812
377.651
378.49
379.328
380.167
381.006
381.844
382.683
383.522
384.36
385.199
386.038
386.876
387.715
388.554
389.392
390.231
391.07
391.908
392.747
393.586
394.424
395.263
396.102
396.94
397.779
398.618
399.456
400.295
401.134
401.972
402.811
403.65
404.488
405.327
406.166
407.004
407.843
408.682
409.52
410.359
411.198
412.036
412.875
413.714
414.552
415.391
416.23
417.068
417.907
418.746
419.584
420.423
421.262
422.1
422.939
423.778
424.616
425.455
426.294
427.132
427.971
428.81
429.648
430.487
431.326
432.164
433.003
433.842
434.68
435.519
436.358
437.196
438.035
438.874
439.712
440.551
441.39
442.228
443.067
443.906
444.744
445.583
446.422
447.26
448.099
448.938
449.776
450.615
451.454
452.292
453.131
453.97
454.808
455.647
456.486
457.324
458.163
459.002
459.84
460.679
461.518
462.356
463.195
464.034
464.872
465.711
466.55
467.388
468.227
469.066
469.904
470.743
471.582
472.42
473.259
474.098
474.936
475.775
476.614
477.452
478.291
479.13
479.968
480.807
481.646
482.484
483.323
484.162
485
485.839
486.678
487.516
488.355
489.194
490.032
490.871
491.71
492.548
493.387
494.227
209.272
205.959
205.389
205.191
205.583
206.307
207.199
208.135
209.134
210.147
211.175
212.21
213.264
214.322
215.383
216.457
217.521
218.586
219.651
220.716
221.78
222.844
223.897
224.927
225.935
226.924
227.894
228.845
229.78
230.701
231.608
232.502
233.388
234.266
235.14
236.008
236.871
237.731
238.588
239.442
240.294
241.144
241.992
242.839
243.684
244.529
245.373
246.216
247.058
247.9
248.741
249.582
250.423
251.263
252.103
252.943
253.783
254.623
255.462
256.301
257.141
257.98
258.819
259.658
260.497
261.336
262.175
263.014
263.852
264.691
265.53
266.369
267.207
268.046
268.885
269.724
270.562
271.401
272.24
273.079
273.917
274.756
275.595
276.433
277.272
278.111
278.949
279.788
280.627
281.465
282.304
283.143
283.981
284.82
285.659
286.497
287.336
288.175
289.013
289.852
290.691
291.529
292.368
293.207
294.045
294.884
295.723
296.561
297.4
298.239
299.077
299.916
300.755
301.593
302.432
303.271
304.109
304.948
305.787
306.625
307.464
308.303
309.141
309.98
310.819
311.657
312.496
313.335
314.173
315.012
315.851
316.689
317.528
318.367
319.205
320.044
320.883
321.721
322.56
323.399
324.237
325.076
325.915
326.753
327.592
328.431
329.269
330.108
330.947
331.785
332.624
333.463
334.301
335.14
335.979
336.817
337.656
338.495
339.333
340.172
341.011
341.849
342.688
343.527
344.365
345.204
346.043
346.881
347.72
348.559
349.397
350.236
351.075
351.913
352.752
353.591
354.429
355.268
356.107
356.945
357.784
358.623
359.461
360.3
361.139
361.977
362.816
363.655
364.493
365.332
366.171
367.009
367.848
368.687
369.525
370.364
371.203
372.041
372.88
373.719
374.557
375.396
376.235
377.073
377.912
378.751
379.589
380.428
381.267
382.105
382.944
383.783
384.621
385.46
386.299
387.137
387.976
388.815
389.653
390.492
391.331
392.169
393.008
393.847
394.685
395.524
396.363
397.201
398.04
398.879
399.717
400.556
401.395
402.233
403.072
403.911
404.749
405.588
406.427
407.265
408.104
408.943
409.781
410.62
411.459
412.297
413.136
413.975
414.813
415.652
416.491
417.329
418.168
419.007
419.845
420.684
421.523
422.361
423.2
424.039
424.877
425.716
426.555
427.393
428.232
429.071
429.909
430.748
431.587
432.425
433.264
434.103
434.941
435.78
436.619
437.457
438.296
439.135
439.973
440.812
441.651
442.489
443.328
444.167
445.005
445.844
446.683
447.521
448.36
449.199
450.037
450.876
451.715
452.553
453.392
454.231
455.069
455.908
456.747
457.586
)
;

boundaryField
{
    inlet
    {
        type            calculated;
        value           nonuniform List<scalar> 8(464.861 428.149 391.412 354.701 317.993 281.314 244.668 208.051);
    }
    outlet
    {
        type            calculated;
        value           nonuniform List<scalar> 8(714.487 677.846 641.206 604.566 567.925 531.285 494.645 458.004);
    }
    sideWall
    {
        type            empty;
    }
    bed
    {
        type            calculated;
        value           nonuniform List<scalar> 
300
(
484.402
480.681
480.133
479.935
480.334
481.074
481.978
482.916
483.916
484.93
485.961
486.995
488.05
489.109
490.171
491.244
492.309
493.376
494.442
495.508
496.573
497.638
498.692
499.725
500.734
501.724
502.694
503.646
504.582
505.502
506.41
507.305
508.191
509.069
509.942
510.81
511.674
512.534
513.391
514.245
515.096
515.946
516.795
517.641
518.487
519.332
520.175
521.018
521.861
522.703
523.544
524.385
525.226
526.066
526.906
527.746
528.586
529.425
530.265
531.104
531.943
532.782
533.621
534.461
535.299
536.138
536.977
537.816
538.655
539.494
540.333
541.171
542.01
542.849
543.688
544.526
545.365
546.204
547.042
547.881
548.72
549.559
550.397
551.236
552.075
552.913
553.752
554.591
555.429
556.268
557.107
557.945
558.784
559.623
560.461
561.3
562.139
562.977
563.816
564.655
565.493
566.332
567.171
568.009
568.848
569.687
570.525
571.364
572.203
573.041
573.88
574.719
575.557
576.396
577.235
578.073
578.912
579.751
580.589
581.428
582.267
583.105
583.944
584.783
585.621
586.46
587.299
588.137
588.976
589.815
590.653
591.492
592.331
593.169
594.008
594.847
595.685
596.524
597.363
598.201
599.04
599.879
600.717
601.556
602.395
603.233
604.072
604.911
605.749
606.588
607.427
608.265
609.104
609.943
610.781
611.62
612.459
613.297
614.136
614.975
615.813
616.652
617.491
618.329
619.168
620.007
620.845
621.684
622.523
623.361
624.2
625.039
625.877
626.716
627.555
628.393
629.232
630.071
630.909
631.748
632.587
633.425
634.264
635.103
635.941
636.78
637.619
638.457
639.296
640.135
640.973
641.812
642.651
643.489
644.328
645.167
646.005
646.844
647.683
648.521
649.36
650.199
651.037
651.876
652.715
653.553
654.392
655.231
656.069
656.908
657.747
658.585
659.424
660.263
661.101
661.94
662.779
663.617
664.456
665.295
666.133
666.972
667.811
668.649
669.488
670.327
671.165
672.004
672.843
673.681
674.52
675.359
676.197
677.036
677.875
678.713
679.552
680.391
681.229
682.068
682.907
683.745
684.584
685.423
686.261
687.1
687.939
688.777
689.616
690.455
691.293
692.132
692.971
693.809
694.648
695.487
696.325
697.164
698.003
698.841
699.68
700.519
701.357
702.196
703.035
703.873
704.712
705.551
706.389
707.228
708.067
708.905
709.744
710.583
711.421
712.26
713.099
713.937
714.776
715.615
716.453
717.292
718.131
718.969
719.808
720.647
721.485
722.324
723.163
724.001
724.84
725.679
726.517
727.356
728.195
729.033
729.872
730.711
731.549
732.382
)
;
    }
    topWall
    {
        type            calculated;
        value           nonuniform List<scalar> 
300
(
190.952
187.639
187.069
186.87
187.263
187.987
188.879
189.815
190.814
191.827
192.854
193.89
194.944
196.001
197.062
198.137
199.201
200.266
201.331
202.396
203.46
204.524
205.577
206.607
207.614
208.604
209.573
210.525
211.46
212.38
213.288
214.182
215.068
215.946
216.82
217.688
218.551
219.411
220.268
221.122
221.974
222.824
223.672
224.519
225.364
226.209
227.053
227.896
228.738
229.58
230.421
231.262
232.103
232.943
233.783
234.623
235.463
236.302
237.142
237.981
238.82
239.66
240.499
241.338
242.177
243.016
243.855
244.693
245.532
246.371
247.21
248.049
248.887
249.726
250.565
251.404
252.242
253.081
253.92
254.758
255.597
256.436
257.274
258.113
258.952
259.79
260.629
261.468
262.306
263.145
263.984
264.822
265.661
266.5
267.338
268.177
269.016
269.854
270.693
271.532
272.37
273.209
274.048
274.886
275.725
276.564
277.402
278.241
279.08
279.918
280.757
281.596
282.434
283.273
284.112
284.95
285.789
286.628
287.466
288.305
289.144
289.982
290.821
291.66
292.498
293.337
294.176
295.014
295.853
296.692
297.53
298.369
299.208
300.046
300.885
301.724
302.562
303.401
304.24
305.078
305.917
306.756
307.594
308.433
309.272
310.11
310.949
311.788
312.626
313.465
314.304
315.142
315.981
316.82
317.658
318.497
319.336
320.174
321.013
321.852
322.69
323.529
324.368
325.206
326.045
326.884
327.722
328.561
329.4
330.238
331.077
331.916
332.754
333.593
334.432
335.27
336.109
336.948
337.786
338.625
339.464
340.302
341.141
341.98
342.818
343.657
344.496
345.334
346.173
347.012
347.85
348.689
349.528
350.366
351.205
352.044
352.882
353.721
354.56
355.398
356.237
357.076
357.914
358.753
359.592
360.43
361.269
362.108
362.946
363.785
364.624
365.462
366.301
367.14
367.978
368.817
369.656
370.494
371.333
372.172
373.01
373.849
374.688
375.526
376.365
377.204
378.042
378.881
379.72
380.558
381.397
382.236
383.074
383.913
384.752
385.59
386.429
387.268
388.106
388.945
389.784
390.622
391.461
392.3
393.138
393.977
394.816
395.654
396.493
397.332
398.17
399.009
399.848
400.686
401.525
402.364
403.202
404.041
404.88
405.718
406.557
407.396
408.234
409.073
409.912
410.75
411.589
412.428
413.266
414.105
414.944
415.782
416.621
417.46
418.298
419.137
419.976
420.814
421.653
422.492
423.33
424.169
425.008
425.846
426.685
427.524
428.362
429.201
430.04
430.878
431.717
432.556
433.394
434.233
435.072
435.91
436.749
437.588
438.427
439.266
)
;
    }
}


// ************************************************************************* //
