/*--------------------------------*- C++ -*----------------------------------*\
| =========                 |                                                 |
| \\      /  F ield         | foam-extend: Open Source CFD                    |
|  \\    /   O peration     | Version:     3.2                                |
|   \\  /    A nd           | Web:         http://www.foam-extend.org         |
|    \\/     M anipulation  | For copyright notice see file Copyright         |
\*---------------------------------------------------------------------------*/
FoamFile
{
    version     2.0;
    format      ascii;
    class       areaVectorField;
    location    "910";
    object      aMeshCentreN;
}
// * * * * * * * * * * * * * * * * * * * * * * * * * * * * * * * * * * * * * //

dimensions      [0 0 0 0 0 0 0];

internalField   nonuniform List<vector> 
550
(
(0.0090909 0.01 -1.81818e-05)
(0.0272727 0.01 -5.45454e-05)
(0.0454545 0.01 -9.09091e-05)
(0.0636364 0.01 -0.000127273)
(0.0818182 0.01 -0.000163636)
(0.1 0.01 -0.0002)
(0.118182 0.01 -0.000236364)
(0.136364 0.01 -0.000272727)
(0.154545 0.01 -0.000309091)
(0.172727 0.01 -0.000345454)
(0.190909 0.01 -0.000381818)
(0.209091 0.01 -0.000418182)
(0.227273 0.01 -0.000454546)
(0.245455 0.01 -0.000490909)
(0.263636 0.01 -0.000527273)
(0.281818 0.01 -0.000563637)
(0.3 0.01 -0.0006)
(0.318182 0.01 -0.000636364)
(0.336364 0.01 -0.000672727)
(0.354546 0.01 -0.000709091)
(0.372727 0.01 -0.000745454)
(0.390909 0.01 -0.000781818)
(0.409091 0.01 -0.000818182)
(0.427273 0.01 -0.000854546)
(0.445454 0.01 -0.000890909)
(0.463636 0.01 -0.000927273)
(0.481818 0.01 -0.000963637)
(0.5 0.01 -0.000999999)
(0.518182 0.01 -0.00103637)
(0.536364 0.01 -0.00107273)
(0.554546 0.01 -0.00110909)
(0.572727 0.01 -0.00114546)
(0.590909 0.01 -0.00118182)
(0.609091 0.01 -0.00121818)
(0.627273 0.01 -0.00125454)
(0.645455 0.01 -0.00129091)
(0.663636 0.01 -0.00132727)
(0.681818 0.01 -0.00136363)
(0.7 0.01 -0.0014)
(0.718182 0.01 -0.00143636)
(0.736364 0.01 -0.00147273)
(0.754545 0.01 -0.00150909)
(0.772727 0.01 -0.00154545)
(0.790909 0.01 -0.00158182)
(0.809091 0.01 -0.00161818)
(0.827273 0.01 -0.00165454)
(0.845455 0.01 -0.00169091)
(0.863636 0.01 -0.00172727)
(0.881818 0.01 -0.00176363)
(0.9 0.01 -0.0018)
(0.918182 0.01 -0.00183636)
(0.936364 0.01 -0.00187273)
(0.954545 0.01 -0.00190909)
(0.972727 0.01 -0.00194545)
(0.990909 0.01 -0.00198182)
(1.00909 0.01 -0.00201818)
(1.02727 0.01 -0.00205455)
(1.04545 0.01 -0.00209091)
(1.06364 0.01 -0.00212727)
(1.08182 0.01 -0.00216364)
(1.1 0.01 -0.0022)
(1.11818 0.01 -0.00223637)
(1.13636 0.01 -0.00227273)
(1.15455 0.01 -0.00230909)
(1.17273 0.01 -0.00234546)
(1.19091 0.01 -0.00238182)
(1.20909 0.01 -0.00241818)
(1.22727 0.01 -0.00245454)
(1.24546 0.01 -0.00249091)
(1.26364 0.01 -0.00252727)
(1.28182 0.01 -0.00256363)
(1.3 0.01 -0.0026)
(1.31818 0.01 -0.00263637)
(1.33636 0.01 -0.00267273)
(1.35454 0.01 -0.00270909)
(1.37273 0.01 -0.00274545)
(1.39091 0.01 -0.00278182)
(1.40909 0.01 -0.00281818)
(1.42727 0.01 -0.00285454)
(1.44546 0.01 -0.00289091)
(1.46364 0.01 -0.00292727)
(1.48182 0.01 -0.00296364)
(1.5 0.01 -0.003)
(1.51818 0.01 -0.00303637)
(1.53636 0.01 -0.00307273)
(1.55455 0.01 -0.00310909)
(1.57273 0.01 -0.00314546)
(1.59091 0.01 -0.00318182)
(1.60909 0.01 -0.00321818)
(1.62727 0.01 -0.00325455)
(1.64546 0.01 -0.00329091)
(1.66364 0.01 -0.00332727)
(1.68182 0.01 -0.00336363)
(1.7 0.01 -0.0034)
(1.71818 0.01 -0.00343636)
(1.73636 0.01 -0.00347273)
(1.75454 0.01 -0.00350909)
(1.77273 0.01 -0.00354546)
(1.79091 0.01 -0.00358182)
(1.80909 0.01 -0.00361818)
(1.82727 0.01 -0.00365454)
(1.84545 0.01 -0.00369091)
(1.86364 0.01 -0.00372727)
(1.88182 0.01 -0.00376363)
(1.9 0.01 -0.0038)
(1.91818 0.01 -0.00383637)
(1.93636 0.01 -0.00387273)
(1.95454 0.01 -0.00390909)
(1.97273 0.01 -0.00394545)
(1.99091 0.01 -0.00398221)
(2.00909 0.01 -0.00401941)
(2.02727 0.01 -0.0040557)
(2.04546 0.01 -0.00409026)
(2.06364 0.01 -0.00412561)
(2.08182 0.01 -0.00416473)
(2.1 0.01 -0.00420261)
(2.11818 0.01 -0.00423465)
(2.13636 0.01 -0.00427328)
(2.15454 0.01 -0.00430944)
(2.17273 0.01 -0.00434139)
(2.19091 0.01 -0.00438118)
(2.20909 0.01 -0.00441932)
(2.22727 0.01 -0.0044524)
(2.24545 0.01 -0.0044853)
(2.26364 0.01 -0.00452804)
(2.28182 0.01 -0.00456784)
(2.3 0.01 -0.00459415)
(2.31818 0.01 -0.00461928)
(2.33636 0.01 -0.00465732)
(2.35454 0.01 -0.00470624)
(2.37273 0.01 -0.00475004)
(2.39091 0.01 -0.00478396)
(2.40909 0.01 -0.00481221)
(2.42727 0.01 -0.00484666)
(2.44545 0.01 -0.00488324)
(2.46364 0.01 -0.00491611)
(2.48182 0.01 -0.00495418)
(2.5 0.01 -0.00499903)
(2.51818 0.01 -0.0050419)
(2.53636 0.01 -0.00507252)
(2.55455 0.01 -0.00509058)
(2.57273 0.01 -0.00512682)
(2.59091 0.01 -0.00517311)
(2.60909 0.01 -0.00520676)
(2.62727 0.01 -0.00524707)
(2.64546 0.01 -0.00529056)
(2.66364 0.01 -0.00532876)
(2.68182 0.01 -0.00536124)
(2.7 0.01 -0.00539231)
(2.71818 0.01 -0.00542889)
(2.73636 0.01 -0.00546793)
(2.75454 0.01 -0.0055106)
(2.77273 0.01 -0.00554401)
(2.79091 0.01 -0.00556712)
(2.80909 0.01 -0.00560944)
(2.82727 0.01 -0.00565761)
(2.84545 0.01 -0.00568776)
(2.86364 0.01 -0.00571996)
(2.88182 0.01 -0.00576332)
(2.9 0.01 -0.00580011)
(2.91818 0.01 -0.00582915)
(2.93636 0.01 -0.00586065)
(2.95455 0.01 -0.00589557)
(2.97273 0.01 -0.00593741)
(2.99091 0.01 -0.00597815)
(3.00909 0.01 -0.00600799)
(3.02727 0.01 -0.00604694)
(3.04545 0.01 -0.00609308)
(3.06364 0.01 -0.00612387)
(3.08182 0.01 -0.00615037)
(3.1 0.01 -0.00619125)
(3.11818 0.01 -0.00623411)
(3.13636 0.01 -0.00626969)
(3.15454 0.01 -0.00630447)
(3.17273 0.01 -0.00633813)
(3.19091 0.01 -0.00637183)
(3.20909 0.01 -0.00640946)
(3.22727 0.01 -0.00645383)
(3.24545 0.01 -0.00649111)
(3.26364 0.01 -0.006518)
(3.28182 0.01 -0.0065499)
(3.3 0.01 -0.00658202)
(3.31818 0.01 -0.00661806)
(3.33636 0.01 -0.00666051)
(3.35454 0.01 -0.00670113)
(3.37273 0.01 -0.00674444)
(3.39091 0.01 -0.00677844)
(3.40909 0.01 -0.00680455)
(3.42727 0.01 -0.00684575)
(3.44546 0.01 -0.00688871)
(3.46364 0.01 -0.0069217)
(3.48182 0.01 -0.00695679)
(3.5 0.01 -0.00698392)
(3.51818 0.01 -0.00700393)
(3.53636 0.01 -0.007039)
(3.55454 0.01 -0.0070868)
(3.57273 0.01 -0.0071307)
(3.59091 0.01 -0.00716718)
(3.60909 0.01 -0.00719352)
(3.62727 0.01 -0.00722177)
(3.64546 0.01 -0.00726247)
(3.66364 0.01 -0.00729014)
(3.68182 0.01 -0.00730478)
(3.7 0.01 -0.00732094)
(3.71818 0.01 -0.00733615)
(3.73636 0.01 -0.00735404)
(3.75455 0.01 -0.0073745)
(3.77273 0.01 -0.00740236)
(3.79091 0.01 -0.00742801)
(3.80909 0.01 -0.00745256)
(3.82727 0.01 -0.00748148)
(3.84546 0.01 -0.00750551)
(3.86364 0.01 -0.00753073)
(3.88182 0.01 -0.00755853)
(3.9 0.01 -0.0075843)
(3.91818 0.01 -0.00756553)
(3.93636 0.01 -0.00749758)
(3.95454 0.01 -0.00743521)
(3.97273 0.01 -0.00738058)
(3.99091 0.01 -0.00732343)
(4.00909 0.01 -0.00726816)
(4.02727 0.01 -0.00721143)
(4.04546 0.01 -0.00715574)
(4.06364 0.01 -0.00710011)
(4.08182 0.01 -0.00704634)
(4.1 0.01 -0.0069939)
(4.11818 0.01 -0.00694394)
(4.13636 0.01 -0.00689649)
(4.15454 0.01 -0.00685205)
(4.17273 0.01 -0.00681124)
(4.19091 0.01 -0.006774)
(4.20909 0.01 -0.00674116)
(4.22727 0.01 -0.00671251)
(4.24545 0.01 -0.00668843)
(4.26364 0.01 -0.00666909)
(4.28182 0.01 -0.00665349)
(4.3 0.01 -0.00664332)
(4.31818 0.01 -0.00663385)
(4.33636 0.01 -0.00663293)
(4.35454 0.01 -0.00663918)
(4.37273 0.01 -0.00664678)
(4.39091 0.01 -0.00664792)
(4.40909 0.01 -0.00666823)
(4.42727 0.01 -0.00669994)
(4.44545 0.01 -0.0067172)
(4.46364 0.01 -0.00673079)
(4.48182 0.01 -0.0067275)
(4.5 0.01 -0.00674495)
(4.51818 0.01 -0.00677899)
(4.53636 0.01 -0.00679859)
(4.55454 0.01 -0.00682021)
(4.57273 0.01 -0.00684336)
(4.59091 0.01 -0.00686959)
(4.60909 0.01 -0.0069033)
(4.62727 0.01 -0.00692462)
(4.64546 0.01 -0.00693675)
(4.66364 0.01 -0.00695151)
(4.68182 0.01 -0.00697205)
(4.7 0.01 -0.00699935)
(4.71818 0.01 -0.0070275)
(4.73636 0.01 -0.00705231)
(4.75455 0.01 -0.00708666)
(4.77273 0.01 -0.00713201)
(4.79091 0.01 -0.0071805)
(4.80909 0.01 -0.00722701)
(4.82727 0.01 -0.00727013)
(4.84545 0.01 -0.00731293)
(4.86364 0.01 -0.00735254)
(4.88182 0.01 -0.00739243)
(4.9 0.01 -0.00743312)
(4.91818 0.01 -0.00746904)
(4.93636 0.01 -0.00750129)
(4.95454 0.01 -0.00753165)
(4.97273 0.01 -0.00755694)
(4.99091 0.01 -0.00757933)
(5.00909 0.01 -0.00760076)
(5.02727 0.01 -0.00761936)
(5.04546 0.01 -0.00763349)
(5.06364 0.01 -0.00764624)
(5.08182 0.01 -0.00765954)
(5.1 0.01 -0.00767093)
(5.11818 0.01 -0.0076785)
(5.13636 0.01 -0.00768258)
(5.15455 0.01 -0.00768494)
(5.17273 0.01 -0.00768718)
(5.19091 0.01 -0.00768919)
(5.20909 0.01 -0.00769)
(5.22727 0.01 -0.00768992)
(5.24545 0.01 -0.00769024)
(5.26364 0.01 -0.00769142)
(5.28182 0.01 -0.00769296)
(5.3 0.01 -0.0076941)
(5.31818 0.01 -0.007695)
(5.33636 0.01 -0.00769656)
(5.35454 0.01 -0.00769926)
(5.37273 0.01 -0.00770268)
(5.39091 0.01 -0.00770627)
(5.40909 0.01 -0.0077094)
(5.42727 0.01 -0.00771195)
(5.44545 0.01 -0.00771431)
(5.46364 0.01 -0.00771687)
(5.48182 0.01 -0.00771998)
(5.5 0.01 -0.00772398)
(5.51818 0.01 -0.00772879)
(5.53636 0.01 -0.00773422)
(5.55455 0.01 -0.00774019)
(5.57273 0.01 -0.00774669)
(5.59091 0.01 -0.00775367)
(5.60909 0.01 -0.00776112)
(5.62727 0.01 -0.00776901)
(5.64546 0.01 -0.00777732)
(5.66364 0.01 -0.00778595)
(5.68182 0.01 -0.00779491)
(5.7 0.01 -0.00780414)
(5.71818 0.01 -0.00781363)
(5.73636 0.01 -0.00782329)
(5.75455 0.01 -0.00783298)
(5.77273 0.01 -0.00784252)
(5.79091 0.01 -0.00785178)
(5.80909 0.01 -0.00786059)
(5.82727 0.01 -0.00786892)
(5.84545 0.01 -0.00787673)
(5.86364 0.01 -0.00788402)
(5.88182 0.01 -0.00789074)
(5.9 0.01 -0.00789692)
(5.91818 0.01 -0.00790249)
(5.93636 0.01 -0.00790746)
(5.95454 0.01 -0.00791184)
(5.97273 0.01 -0.00791561)
(5.99091 0.01 -0.00791875)
(6.00909 0.01 -0.00792124)
(6.02727 0.01 -0.00792303)
(6.04545 0.01 -0.00792396)
(6.06364 0.01 -0.00792375)
(6.08182 0.01 -0.00792244)
(6.1 0.01 -0.0079202)
(6.11818 0.01 -0.00791712)
(6.13636 0.01 -0.00791331)
(6.15455 0.01 -0.00790883)
(6.17273 0.01 -0.00790377)
(6.19091 0.01 -0.00789815)
(6.20909 0.01 -0.00789206)
(6.22727 0.01 -0.0078857)
(6.24546 0.01 -0.00787923)
(6.26364 0.01 -0.00787281)
(6.28182 0.01 -0.00786665)
(6.3 0.01 -0.00786105)
(6.31818 0.01 -0.00785621)
(6.33636 0.01 -0.0078524)
(6.35454 0.01 -0.00785009)
(6.37273 0.01 -0.0078493)
(6.39091 0.01 -0.00784998)
(6.40909 0.01 -0.00785272)
(6.42727 0.01 -0.00785793)
(6.44546 0.01 -0.00786561)
(6.46364 0.01 -0.00787584)
(6.48182 0.01 -0.00788872)
(6.5 0.01 -0.00790388)
(6.51818 0.01 -0.00792118)
(6.53636 0.01 -0.00794068)
(6.55454 0.01 -0.00796184)
(6.57273 0.01 -0.00798465)
(6.59091 0.01 -0.00800937)
(6.60909 0.01 -0.00803531)
(6.62727 0.01 -0.00806174)
(6.64545 0.01 -0.00808858)
(6.66364 0.01 -0.00811479)
(6.68182 0.01 -0.0081391)
(6.7 0.01 -0.00816153)
(6.71818 0.01 -0.00818317)
(6.73636 0.01 -0.00820525)
(6.75454 0.01 -0.00822814)
(6.77273 0.01 -0.00825154)
(6.79091 0.01 -0.00827513)
(6.80909 0.01 -0.00829864)
(6.82727 0.01 -0.00832196)
(6.84546 0.01 -0.0083449)
(6.86364 0.01 -0.00836716)
(6.88182 0.01 -0.00838853)
(6.9 0.01 -0.00840884)
(6.91818 0.01 -0.00842777)
(6.93636 0.01 -0.00844505)
(6.95454 0.01 -0.00846081)
(6.97273 0.01 -0.00847507)
(6.99091 0.01 -0.00848811)
(7.00909 0.01 -0.00850042)
(7.02727 0.01 -0.00851228)
(7.04546 0.01 -0.00852396)
(7.06364 0.01 -0.0085357)
(7.08182 0.01 -0.0085477)
(7.1 0.01 -0.00856001)
(7.11818 0.01 -0.0085726)
(7.13636 0.01 -0.00858557)
(7.15455 0.01 -0.00859898)
(7.17273 0.01 -0.00861276)
(7.19091 0.01 -0.00862685)
(7.20909 0.01 -0.00864121)
(7.22727 0.01 -0.00865571)
(7.24546 0.01 -0.00867032)
(7.26364 0.01 -0.00868497)
(7.28182 0.01 -0.00869959)
(7.3 0.01 -0.0087142)
(7.31818 0.01 -0.00872879)
(7.33636 0.01 -0.00874335)
(7.35454 0.01 -0.00875788)
(7.37273 0.01 -0.00877237)
(7.39091 0.01 -0.00878685)
(7.40909 0.01 -0.00880136)
(7.42727 0.01 -0.00881592)
(7.44545 0.01 -0.0088306)
(7.46364 0.01 -0.00884541)
(7.48182 0.01 -0.00886038)
(7.5 0.01 -0.00887549)
(7.51818 0.01 -0.00889067)
(7.53636 0.01 -0.00890605)
(7.55454 0.01 -0.00892159)
(7.57273 0.01 -0.00893726)
(7.59091 0.01 -0.00895307)
(7.60909 0.01 -0.00896902)
(7.62727 0.01 -0.00898515)
(7.64546 0.01 -0.00900139)
(7.66364 0.01 -0.00901771)
(7.68182 0.01 -0.00903408)
(7.7 0.01 -0.00905049)
(7.71818 0.01 -0.00906698)
(7.73636 0.01 -0.00908354)
(7.75454 0.01 -0.00910009)
(7.77273 0.01 -0.00911663)
(7.79091 0.01 -0.00913319)
(7.80909 0.01 -0.00914978)
(7.82727 0.01 -0.00916639)
(7.84545 0.01 -0.00918294)
(7.86364 0.01 -0.00919943)
(7.88182 0.01 -0.0092159)
(7.9 0.01 -0.00923232)
(7.91818 0.01 -0.00924867)
(7.93636 0.01 -0.00926494)
(7.95454 0.01 -0.00928108)
(7.97273 0.01 -0.0092971)
(7.99091 0.01 -0.00931304)
(8.00909 0.01 -0.00932889)
(8.02727 0.01 -0.00934461)
(8.04546 0.01 -0.00936024)
(8.06364 0.01 -0.00937568)
(8.08182 0.01 -0.00939088)
(8.1 0.01 -0.00940593)
(8.11818 0.01 -0.00942068)
(8.13636 0.01 -0.00943513)
(8.15454 0.01 -0.00944933)
(8.17273 0.01 -0.00946323)
(8.19091 0.01 -0.00947683)
(8.20909 0.01 -0.00949009)
(8.22727 0.01 -0.00950304)
(8.24545 0.01 -0.00951571)
(8.26364 0.01 -0.00952801)
(8.28182 0.01 -0.00954006)
(8.3 0.01 -0.00955194)
(8.31818 0.01 -0.00956352)
(8.33636 0.01 -0.00957485)
(8.35454 0.01 -0.009586)
(8.37273 0.01 -0.00959697)
(8.39091 0.01 -0.00960775)
(8.40909 0.01 -0.00961833)
(8.42727 0.01 -0.00962872)
(8.44545 0.01 -0.00963892)
(8.46364 0.01 -0.00964882)
(8.48182 0.01 -0.00965849)
(8.5 0.01 -0.00966782)
(8.51818 0.01 -0.00967671)
(8.53636 0.01 -0.00968509)
(8.55455 0.01 -0.00969278)
(8.57273 0.01 -0.00969967)
(8.59091 0.01 -0.00970572)
(8.60909 0.01 -0.00971074)
(8.62727 0.01 -0.00971448)
(8.64546 0.01 -0.00971678)
(8.66364 0.01 -0.00971717)
(8.68182 0.01 -0.00971544)
(8.7 0.01 -0.00971179)
(8.71818 0.01 -0.00970653)
(8.73636 0.01 -0.00969986)
(8.75454 0.01 -0.00969191)
(8.77273 0.01 -0.00968289)
(8.79091 0.01 -0.00967288)
(8.80909 0.01 -0.00966201)
(8.82727 0.01 -0.00965048)
(8.84546 0.01 -0.00963841)
(8.86364 0.01 -0.00962591)
(8.88182 0.01 -0.00961309)
(8.9 0.01 -0.00960001)
(8.91818 0.01 -0.00958677)
(8.93636 0.01 -0.0095734)
(8.95454 0.01 -0.00955997)
(8.97273 0.01 -0.00954654)
(8.99091 0.01 -0.00953316)
(9.00909 0.01 -0.00951981)
(9.02727 0.01 -0.00950654)
(9.04545 0.01 -0.00949346)
(9.06364 0.01 -0.00948061)
(9.08182 0.01 -0.00946797)
(9.1 0.01 -0.00945559)
(9.11818 0.01 -0.0094435)
(9.13636 0.01 -0.00943161)
(9.15455 0.01 -0.00942)
(9.17273 0.01 -0.00940865)
(9.19091 0.01 -0.00939752)
(9.20909 0.01 -0.00938659)
(9.22727 0.01 -0.0093758)
(9.24545 0.01 -0.00936515)
(9.26364 0.01 -0.00935463)
(9.28182 0.01 -0.00934407)
(9.3 0.01 -0.00933343)
(9.31818 0.01 -0.00932261)
(9.33636 0.01 -0.00931165)
(9.35454 0.01 -0.00930038)
(9.37273 0.01 -0.0092886)
(9.39091 0.01 -0.00927673)
(9.40909 0.01 -0.00926353)
(9.42727 0.01 -0.00925076)
(9.44545 0.01 -0.00923458)
(9.46364 0.01 -0.00922158)
(9.48182 0.01 -0.00919957)
(9.5 0.01 -0.00918697)
(9.51818 0.01 -0.00915799)
(9.53636 0.01 -0.00914866)
(9.55455 0.01 -0.0091203)
(9.57273 0.01 -0.00912363)
(9.59091 0.01 -0.00911017)
(9.60909 0.01 -0.00914071)
(9.62727 0.01 -0.00916552)
(9.64546 0.01 -0.00924365)
(9.66364 0.01 -0.00934159)
(9.68182 0.01 -0.0094932)
(9.7 0.01 -0.00970938)
(9.71818 0.01 -0.00999193)
(9.73636 0.01 -0.0104174)
(9.75455 0.01 -0.011055)
(9.77273 0.01 -0.012083)
(9.79091 0.01 -0.0138928)
(9.80909 0.01 -0.0173995)
(9.82727 0.01 -0.0196545)
(9.84545 0.01 -0.0196909)
(9.86364 0.01 -0.0197273)
(9.88182 0.01 -0.0197636)
(9.9 0.01 -0.0198)
(9.91818 0.01 -0.0198363)
(9.93636 0.01 -0.0198727)
(9.95454 0.01 -0.0199091)
(9.97273 0.01 -0.0199454)
(9.99091 0.01 -0.0199818)
)
;

boundaryField
{
    inlet
    {
        type            calculated;
        value           uniform (0 0 0);
    }
    endWall
    {
        type            calculated;
        value           uniform (0 0 0);
    }
    sideWall
    {
        type            empty;
    }
}


// ************************************************************************* //
