/*--------------------------------*- C++ -*----------------------------------*\
| =========                 |                                                 |
| \\      /  F ield         | foam-extend: Open Source CFD                    |
|  \\    /   O peration     | Version:     3.2                                |
|   \\  /    A nd           | Web:         http://www.foam-extend.org         |
|    \\/     M anipulation  | For copyright notice see file Copyright         |
\*---------------------------------------------------------------------------*/
FoamFile
{
    version     2.0;
    format      ascii;
    class       areaVectorField;
    location    "910";
    object      aMeshCentre;
}
// * * * * * * * * * * * * * * * * * * * * * * * * * * * * * * * * * * * * * //

dimensions      [0 0 0 0 0 0 0];

internalField   nonuniform List<vector> 
550
(
(0.00909091 0.01 -1.81818e-05)
(0.0272727 0.01 -5.45455e-05)
(0.0454545 0.01 -9.09091e-05)
(0.0636364 0.01 -0.000127273)
(0.0818182 0.01 -0.000163636)
(0.1 0.01 -0.0002)
(0.118182 0.01 -0.000236364)
(0.136364 0.01 -0.000272727)
(0.154545 0.01 -0.000309091)
(0.172727 0.01 -0.000345455)
(0.190909 0.01 -0.000381818)
(0.209091 0.01 -0.000418182)
(0.227273 0.01 -0.000454545)
(0.245455 0.01 -0.000490909)
(0.263636 0.01 -0.000527273)
(0.281818 0.01 -0.000563636)
(0.3 0.01 -0.0006)
(0.318182 0.01 -0.000636364)
(0.336364 0.01 -0.000672727)
(0.354545 0.01 -0.000709091)
(0.372727 0.01 -0.000745455)
(0.390909 0.01 -0.000781818)
(0.409091 0.01 -0.000818182)
(0.427273 0.01 -0.000854545)
(0.445455 0.01 -0.000890909)
(0.463636 0.01 -0.000927273)
(0.481818 0.01 -0.000963636)
(0.5 0.01 -0.001)
(0.518182 0.01 -0.00103636)
(0.536364 0.01 -0.00107273)
(0.554545 0.01 -0.00110909)
(0.572727 0.01 -0.00114545)
(0.590909 0.01 -0.00118182)
(0.609091 0.01 -0.00121818)
(0.627273 0.01 -0.00125455)
(0.645455 0.01 -0.00129091)
(0.663636 0.01 -0.00132727)
(0.681818 0.01 -0.00136364)
(0.7 0.01 -0.0014)
(0.718182 0.01 -0.00143636)
(0.736364 0.01 -0.00147273)
(0.754545 0.01 -0.00150909)
(0.772727 0.01 -0.00154545)
(0.790909 0.01 -0.00158182)
(0.809091 0.01 -0.00161818)
(0.827273 0.01 -0.00165455)
(0.845455 0.01 -0.00169091)
(0.863636 0.01 -0.00172727)
(0.881818 0.01 -0.00176364)
(0.9 0.01 -0.0018)
(0.918182 0.01 -0.00183636)
(0.936364 0.01 -0.00187273)
(0.954545 0.01 -0.00190909)
(0.972727 0.01 -0.00194545)
(0.990909 0.01 -0.00198182)
(1.00909 0.01 -0.00201818)
(1.02727 0.01 -0.00205455)
(1.04545 0.01 -0.00209091)
(1.06364 0.01 -0.00212727)
(1.08182 0.01 -0.00216364)
(1.1 0.01 -0.0022)
(1.11818 0.01 -0.00223636)
(1.13636 0.01 -0.00227273)
(1.15455 0.01 -0.00230909)
(1.17273 0.01 -0.00234545)
(1.19091 0.01 -0.00238182)
(1.20909 0.01 -0.00241818)
(1.22727 0.01 -0.00245455)
(1.24545 0.01 -0.00249091)
(1.26364 0.01 -0.00252727)
(1.28182 0.01 -0.00256364)
(1.3 0.01 -0.0026)
(1.31818 0.01 -0.00263636)
(1.33636 0.01 -0.00267273)
(1.35455 0.01 -0.00270909)
(1.37273 0.01 -0.00274545)
(1.39091 0.01 -0.00278182)
(1.40909 0.01 -0.00281818)
(1.42727 0.01 -0.00285455)
(1.44545 0.01 -0.00289091)
(1.46364 0.01 -0.00292727)
(1.48182 0.01 -0.00296364)
(1.5 0.01 -0.003)
(1.51818 0.01 -0.00303636)
(1.53636 0.01 -0.00307273)
(1.55455 0.01 -0.00310909)
(1.57273 0.01 -0.00314545)
(1.59091 0.01 -0.00318182)
(1.60909 0.01 -0.00321818)
(1.62727 0.01 -0.00325455)
(1.64545 0.01 -0.00329091)
(1.66364 0.01 -0.00332727)
(1.68182 0.01 -0.00336364)
(1.7 0.01 -0.0034)
(1.71818 0.01 -0.00343636)
(1.73636 0.01 -0.00347273)
(1.75455 0.01 -0.00350909)
(1.77273 0.01 -0.00354545)
(1.79091 0.01 -0.00358182)
(1.80909 0.01 -0.00361818)
(1.82727 0.01 -0.00365455)
(1.84545 0.01 -0.00369091)
(1.86364 0.01 -0.00372727)
(1.88182 0.01 -0.00376364)
(1.9 0.01 -0.0038)
(1.91818 0.01 -0.00383636)
(1.93636 0.01 -0.00387273)
(1.95455 0.01 -0.00390909)
(1.97273 0.01 -0.00394545)
(1.99091 0.01 -0.00398182)
(2.00909 0.01 -0.00401818)
(2.02727 0.01 -0.00405455)
(2.04545 0.01 -0.00409091)
(2.06364 0.01 -0.00412727)
(2.08182 0.01 -0.00416364)
(2.1 0.01 -0.0042)
(2.11818 0.01 -0.00423636)
(2.13636 0.01 -0.00427273)
(2.15455 0.01 -0.00430909)
(2.17273 0.01 -0.00434545)
(2.19091 0.01 -0.00438182)
(2.20909 0.01 -0.00441818)
(2.22727 0.01 -0.00445455)
(2.24545 0.01 -0.00449091)
(2.26364 0.01 -0.00452727)
(2.28182 0.01 -0.00456364)
(2.3 0.01 -0.0046)
(2.31818 0.01 -0.00463636)
(2.33636 0.01 -0.00467273)
(2.35455 0.01 -0.00470909)
(2.37273 0.01 -0.00474545)
(2.39091 0.01 -0.00478182)
(2.40909 0.01 -0.00481818)
(2.42727 0.01 -0.00485455)
(2.44545 0.01 -0.00489091)
(2.46364 0.01 -0.00492727)
(2.48182 0.01 -0.00496364)
(2.5 0.01 -0.005)
(2.51818 0.01 -0.00503636)
(2.53636 0.01 -0.00507273)
(2.55455 0.01 -0.00510909)
(2.57273 0.01 -0.00514545)
(2.59091 0.01 -0.00518182)
(2.60909 0.01 -0.00521818)
(2.62727 0.01 -0.00525455)
(2.64545 0.01 -0.00529091)
(2.66364 0.01 -0.00532727)
(2.68182 0.01 -0.00536364)
(2.7 0.01 -0.0054)
(2.71818 0.01 -0.00543636)
(2.73636 0.01 -0.00547273)
(2.75455 0.01 -0.00550909)
(2.77273 0.01 -0.00554545)
(2.79091 0.01 -0.00558182)
(2.80909 0.01 -0.00561818)
(2.82727 0.01 -0.00565455)
(2.84545 0.01 -0.00569091)
(2.86364 0.01 -0.00572727)
(2.88182 0.01 -0.00576364)
(2.9 0.01 -0.0058)
(2.91818 0.01 -0.00583636)
(2.93636 0.01 -0.00587273)
(2.95455 0.01 -0.00590909)
(2.97273 0.01 -0.00594545)
(2.99091 0.01 -0.00598182)
(3.00909 0.01 -0.00601818)
(3.02727 0.01 -0.00605455)
(3.04545 0.01 -0.00609091)
(3.06364 0.01 -0.00612727)
(3.08182 0.01 -0.00616364)
(3.1 0.01 -0.0062)
(3.11818 0.01 -0.00623636)
(3.13636 0.01 -0.00627273)
(3.15455 0.01 -0.00630909)
(3.17273 0.01 -0.00634545)
(3.19091 0.01 -0.00638182)
(3.20909 0.01 -0.00641818)
(3.22727 0.01 -0.00645455)
(3.24545 0.01 -0.00649091)
(3.26364 0.01 -0.00652727)
(3.28182 0.01 -0.00656364)
(3.3 0.01 -0.0066)
(3.31818 0.01 -0.00663636)
(3.33636 0.01 -0.00667273)
(3.35455 0.01 -0.00670909)
(3.37273 0.01 -0.00674545)
(3.39091 0.01 -0.00678182)
(3.40909 0.01 -0.00681818)
(3.42727 0.01 -0.00685455)
(3.44545 0.01 -0.00689091)
(3.46364 0.01 -0.00692727)
(3.48182 0.01 -0.00696364)
(3.5 0.01 -0.007)
(3.51818 0.01 -0.00703636)
(3.53636 0.01 -0.00707273)
(3.55455 0.01 -0.00710909)
(3.57273 0.01 -0.00714545)
(3.59091 0.01 -0.00718182)
(3.60909 0.01 -0.00721818)
(3.62727 0.01 -0.00725455)
(3.64545 0.01 -0.00729091)
(3.66364 0.01 -0.00732727)
(3.68182 0.01 -0.00736364)
(3.7 0.01 -0.0074)
(3.71818 0.01 -0.00743636)
(3.73636 0.01 -0.00747273)
(3.75455 0.01 -0.00750909)
(3.77273 0.01 -0.00754545)
(3.79091 0.01 -0.00758182)
(3.80909 0.01 -0.00761818)
(3.82727 0.01 -0.00765455)
(3.84545 0.01 -0.00769091)
(3.86364 0.01 -0.00772727)
(3.88182 0.01 -0.00776364)
(3.9 0.01 -0.0078)
(3.91818 0.01 -0.00783636)
(3.93636 0.01 -0.00787273)
(3.95455 0.01 -0.00790909)
(3.97273 0.01 -0.00794545)
(3.99091 0.01 -0.00798182)
(4.00909 0.01 -0.00801818)
(4.02727 0.01 -0.00805455)
(4.04545 0.01 -0.00809091)
(4.06364 0.01 -0.00812727)
(4.08182 0.01 -0.00816364)
(4.1 0.01 -0.0082)
(4.11818 0.01 -0.00823636)
(4.13636 0.01 -0.00827273)
(4.15455 0.01 -0.00830909)
(4.17273 0.01 -0.00834545)
(4.19091 0.01 -0.00838182)
(4.20909 0.01 -0.00841818)
(4.22727 0.01 -0.00845455)
(4.24545 0.01 -0.00849091)
(4.26364 0.01 -0.00852727)
(4.28182 0.01 -0.00856364)
(4.3 0.01 -0.0086)
(4.31818 0.01 -0.00863636)
(4.33636 0.01 -0.00867273)
(4.35455 0.01 -0.00870909)
(4.37273 0.01 -0.00874545)
(4.39091 0.01 -0.00878182)
(4.40909 0.01 -0.00881818)
(4.42727 0.01 -0.00885455)
(4.44545 0.01 -0.00889091)
(4.46364 0.01 -0.00892727)
(4.48182 0.01 -0.00896364)
(4.5 0.01 -0.009)
(4.51818 0.01 -0.00903636)
(4.53636 0.01 -0.00907273)
(4.55455 0.01 -0.00910909)
(4.57273 0.01 -0.00914545)
(4.59091 0.01 -0.00918182)
(4.60909 0.01 -0.00921818)
(4.62727 0.01 -0.00925455)
(4.64545 0.01 -0.00929091)
(4.66364 0.01 -0.00932727)
(4.68182 0.01 -0.00936364)
(4.7 0.01 -0.0094)
(4.71818 0.01 -0.00943636)
(4.73636 0.01 -0.00947273)
(4.75455 0.01 -0.00950909)
(4.77273 0.01 -0.00954545)
(4.79091 0.01 -0.00958182)
(4.80909 0.01 -0.00961818)
(4.82727 0.01 -0.00965455)
(4.84545 0.01 -0.00969091)
(4.86364 0.01 -0.00972727)
(4.88182 0.01 -0.00976364)
(4.9 0.01 -0.0098)
(4.91818 0.01 -0.00983636)
(4.93636 0.01 -0.00987273)
(4.95455 0.01 -0.00990909)
(4.97273 0.01 -0.00994545)
(4.99091 0.01 -0.00998182)
(5.00909 0.01 -0.0100182)
(5.02727 0.01 -0.0100545)
(5.04545 0.01 -0.0100909)
(5.06364 0.01 -0.0101273)
(5.08182 0.01 -0.0101636)
(5.1 0.01 -0.0102)
(5.11818 0.01 -0.0102364)
(5.13636 0.01 -0.0102727)
(5.15455 0.01 -0.0103091)
(5.17273 0.01 -0.0103455)
(5.19091 0.01 -0.0103818)
(5.20909 0.01 -0.0104182)
(5.22727 0.01 -0.0104545)
(5.24545 0.01 -0.0104909)
(5.26364 0.01 -0.0105273)
(5.28182 0.01 -0.0105636)
(5.3 0.01 -0.0106)
(5.31818 0.01 -0.0106364)
(5.33636 0.01 -0.0106727)
(5.35455 0.01 -0.0107091)
(5.37273 0.01 -0.0107455)
(5.39091 0.01 -0.0107818)
(5.40909 0.01 -0.0108182)
(5.42727 0.01 -0.0108545)
(5.44545 0.01 -0.0108909)
(5.46364 0.01 -0.0109273)
(5.48182 0.01 -0.0109636)
(5.5 0.01 -0.011)
(5.51818 0.01 -0.0110364)
(5.53636 0.01 -0.0110727)
(5.55455 0.01 -0.0111091)
(5.57273 0.01 -0.0111455)
(5.59091 0.01 -0.0111818)
(5.60909 0.01 -0.0112182)
(5.62727 0.01 -0.0112545)
(5.64545 0.01 -0.0112909)
(5.66364 0.01 -0.0113273)
(5.68182 0.01 -0.0113636)
(5.7 0.01 -0.0114)
(5.71818 0.01 -0.0114364)
(5.73636 0.01 -0.0114727)
(5.75455 0.01 -0.0115091)
(5.77273 0.01 -0.0115455)
(5.79091 0.01 -0.0115818)
(5.80909 0.01 -0.0116182)
(5.82727 0.01 -0.0116545)
(5.84545 0.01 -0.0116909)
(5.86364 0.01 -0.0117273)
(5.88182 0.01 -0.0117636)
(5.9 0.01 -0.0118)
(5.91818 0.01 -0.0118364)
(5.93636 0.01 -0.0118727)
(5.95455 0.01 -0.0119091)
(5.97273 0.01 -0.0119455)
(5.99091 0.01 -0.0119818)
(6.00909 0.01 -0.0120182)
(6.02727 0.01 -0.0120545)
(6.04545 0.01 -0.0120909)
(6.06364 0.01 -0.0121273)
(6.08182 0.01 -0.0121636)
(6.1 0.01 -0.0122)
(6.11818 0.01 -0.0122364)
(6.13636 0.01 -0.0122727)
(6.15455 0.01 -0.0123091)
(6.17273 0.01 -0.0123455)
(6.19091 0.01 -0.0123818)
(6.20909 0.01 -0.0124182)
(6.22727 0.01 -0.0124545)
(6.24545 0.01 -0.0124909)
(6.26364 0.01 -0.0125273)
(6.28182 0.01 -0.0125636)
(6.3 0.01 -0.0126)
(6.31818 0.01 -0.0126364)
(6.33636 0.01 -0.0126727)
(6.35455 0.01 -0.0127091)
(6.37273 0.01 -0.0127455)
(6.39091 0.01 -0.0127818)
(6.40909 0.01 -0.0128182)
(6.42727 0.01 -0.0128545)
(6.44545 0.01 -0.0128909)
(6.46364 0.01 -0.0129273)
(6.48182 0.01 -0.0129636)
(6.5 0.01 -0.013)
(6.51818 0.01 -0.0130364)
(6.53636 0.01 -0.0130727)
(6.55455 0.01 -0.0131091)
(6.57273 0.01 -0.0131455)
(6.59091 0.01 -0.0131818)
(6.60909 0.01 -0.0132182)
(6.62727 0.01 -0.0132545)
(6.64545 0.01 -0.0132909)
(6.66364 0.01 -0.0133273)
(6.68182 0.01 -0.0133636)
(6.7 0.01 -0.0134)
(6.71818 0.01 -0.0134364)
(6.73636 0.01 -0.0134727)
(6.75455 0.01 -0.0135091)
(6.77273 0.01 -0.0135455)
(6.79091 0.01 -0.0135818)
(6.80909 0.01 -0.0136182)
(6.82727 0.01 -0.0136545)
(6.84545 0.01 -0.0136909)
(6.86364 0.01 -0.0137273)
(6.88182 0.01 -0.0137636)
(6.9 0.01 -0.0138)
(6.91818 0.01 -0.0138364)
(6.93636 0.01 -0.0138727)
(6.95455 0.01 -0.0139091)
(6.97273 0.01 -0.0139455)
(6.99091 0.01 -0.0139818)
(7.00909 0.01 -0.0140182)
(7.02727 0.01 -0.0140545)
(7.04545 0.01 -0.0140909)
(7.06364 0.01 -0.0141273)
(7.08182 0.01 -0.0141636)
(7.1 0.01 -0.0142)
(7.11818 0.01 -0.0142364)
(7.13636 0.01 -0.0142727)
(7.15455 0.01 -0.0143091)
(7.17273 0.01 -0.0143455)
(7.19091 0.01 -0.0143818)
(7.20909 0.01 -0.0144182)
(7.22727 0.01 -0.0144545)
(7.24545 0.01 -0.0144909)
(7.26364 0.01 -0.0145273)
(7.28182 0.01 -0.0145636)
(7.3 0.01 -0.0146)
(7.31818 0.01 -0.0146364)
(7.33636 0.01 -0.0146727)
(7.35455 0.01 -0.0147091)
(7.37273 0.01 -0.0147455)
(7.39091 0.01 -0.0147818)
(7.40909 0.01 -0.0148182)
(7.42727 0.01 -0.0148545)
(7.44545 0.01 -0.0148909)
(7.46364 0.01 -0.0149273)
(7.48182 0.01 -0.0149636)
(7.5 0.01 -0.015)
(7.51818 0.01 -0.0150364)
(7.53636 0.01 -0.0150727)
(7.55455 0.01 -0.0151091)
(7.57273 0.01 -0.0151455)
(7.59091 0.01 -0.0151818)
(7.60909 0.01 -0.0152182)
(7.62727 0.01 -0.0152545)
(7.64545 0.01 -0.0152909)
(7.66364 0.01 -0.0153273)
(7.68182 0.01 -0.0153636)
(7.7 0.01 -0.0154)
(7.71818 0.01 -0.0154364)
(7.73636 0.01 -0.0154727)
(7.75455 0.01 -0.0155091)
(7.77273 0.01 -0.0155455)
(7.79091 0.01 -0.0155818)
(7.80909 0.01 -0.0156182)
(7.82727 0.01 -0.0156545)
(7.84545 0.01 -0.0156909)
(7.86364 0.01 -0.0157273)
(7.88182 0.01 -0.0157636)
(7.9 0.01 -0.0158)
(7.91818 0.01 -0.0158364)
(7.93636 0.01 -0.0158727)
(7.95455 0.01 -0.0159091)
(7.97273 0.01 -0.0159455)
(7.99091 0.01 -0.0159818)
(8.00909 0.01 -0.0160182)
(8.02727 0.01 -0.0160545)
(8.04545 0.01 -0.0160909)
(8.06364 0.01 -0.0161273)
(8.08182 0.01 -0.0161636)
(8.1 0.01 -0.0162)
(8.11818 0.01 -0.0162364)
(8.13636 0.01 -0.0162727)
(8.15455 0.01 -0.0163091)
(8.17273 0.01 -0.0163455)
(8.19091 0.01 -0.0163818)
(8.20909 0.01 -0.0164182)
(8.22727 0.01 -0.0164545)
(8.24545 0.01 -0.0164909)
(8.26364 0.01 -0.0165273)
(8.28182 0.01 -0.0165636)
(8.3 0.01 -0.0166)
(8.31818 0.01 -0.0166364)
(8.33636 0.01 -0.0166727)
(8.35455 0.01 -0.0167091)
(8.37273 0.01 -0.0167455)
(8.39091 0.01 -0.0167818)
(8.40909 0.01 -0.0168182)
(8.42727 0.01 -0.0168545)
(8.44545 0.01 -0.0168909)
(8.46364 0.01 -0.0169273)
(8.48182 0.01 -0.0169636)
(8.5 0.01 -0.017)
(8.51818 0.01 -0.0170364)
(8.53636 0.01 -0.0170727)
(8.55455 0.01 -0.0171091)
(8.57273 0.01 -0.0171455)
(8.59091 0.01 -0.0171818)
(8.60909 0.01 -0.0172182)
(8.62727 0.01 -0.0172545)
(8.64545 0.01 -0.0172909)
(8.66364 0.01 -0.0173273)
(8.68182 0.01 -0.0173636)
(8.7 0.01 -0.0174)
(8.71818 0.01 -0.0174364)
(8.73636 0.01 -0.0174727)
(8.75455 0.01 -0.0175091)
(8.77273 0.01 -0.0175455)
(8.79091 0.01 -0.0175818)
(8.80909 0.01 -0.0176182)
(8.82727 0.01 -0.0176545)
(8.84545 0.01 -0.0176909)
(8.86364 0.01 -0.0177273)
(8.88182 0.01 -0.0177636)
(8.9 0.01 -0.0178)
(8.91818 0.01 -0.0178364)
(8.93636 0.01 -0.0178727)
(8.95455 0.01 -0.0179091)
(8.97273 0.01 -0.0179455)
(8.99091 0.01 -0.0179818)
(9.00909 0.01 -0.0180182)
(9.02727 0.01 -0.0180545)
(9.04545 0.01 -0.0180909)
(9.06364 0.01 -0.0181273)
(9.08182 0.01 -0.0181636)
(9.1 0.01 -0.0182)
(9.11818 0.01 -0.0182364)
(9.13636 0.01 -0.0182727)
(9.15455 0.01 -0.0183091)
(9.17273 0.01 -0.0183455)
(9.19091 0.01 -0.0183818)
(9.20909 0.01 -0.0184182)
(9.22727 0.01 -0.0184545)
(9.24545 0.01 -0.0184909)
(9.26364 0.01 -0.0185273)
(9.28182 0.01 -0.0185636)
(9.3 0.01 -0.0186)
(9.31818 0.01 -0.0186364)
(9.33636 0.01 -0.0186727)
(9.35455 0.01 -0.0187091)
(9.37273 0.01 -0.0187455)
(9.39091 0.01 -0.0187818)
(9.40909 0.01 -0.0188182)
(9.42727 0.01 -0.0188545)
(9.44545 0.01 -0.0188909)
(9.46364 0.01 -0.0189273)
(9.48182 0.01 -0.0189636)
(9.5 0.01 -0.019)
(9.51818 0.01 -0.0190364)
(9.53636 0.01 -0.0190727)
(9.55455 0.01 -0.0191091)
(9.57273 0.01 -0.0191455)
(9.59091 0.01 -0.0191818)
(9.60909 0.01 -0.0192182)
(9.62727 0.01 -0.0192545)
(9.64545 0.01 -0.0192909)
(9.66364 0.01 -0.0193273)
(9.68182 0.01 -0.0193636)
(9.7 0.01 -0.0194)
(9.71818 0.01 -0.0194364)
(9.73636 0.01 -0.0194727)
(9.75455 0.01 -0.0195091)
(9.77273 0.01 -0.0195455)
(9.79091 0.01 -0.0195818)
(9.80909 0.01 -0.0196182)
(9.82727 0.01 -0.0196545)
(9.84545 0.01 -0.0196909)
(9.86364 0.01 -0.0197273)
(9.88182 0.01 -0.0197636)
(9.9 0.01 -0.0198)
(9.91818 0.01 -0.0198364)
(9.93636 0.01 -0.0198727)
(9.95455 0.01 -0.0199091)
(9.97273 0.01 -0.0199455)
(9.99091 0.01 -0.0199818)
)
;

boundaryField
{
    inlet
    {
        type            calculated;
        value           uniform (0 0 0);
    }
    endWall
    {
        type            calculated;
        value           uniform (0 0 0);
    }
    sideWall
    {
        type            empty;
    }
}


// ************************************************************************* //
