/*--------------------------------*- C++ -*----------------------------------*\
| =========                 |                                                 |
| \\      /  F ield         | foam-extend: Open Source CFD                    |
|  \\    /   O peration     | Version:     3.2                                |
|   \\  /    A nd           | Web:         http://www.foam-extend.org         |
|    \\/     M anipulation  | For copyright notice see file Copyright         |
\*---------------------------------------------------------------------------*/
FoamFile
{
    version     2.0;
    format      ascii;
    class       areaVectorField;
    location    "910";
    object      aUf;
}
// * * * * * * * * * * * * * * * * * * * * * * * * * * * * * * * * * * * * * //

dimensions      [0 1 -1 0 0 0 0];

internalField   nonuniform List<vector> 
550
(
(0.0700383 0 7.75145e-05)
(0.0823042 1.34164e-29 9.27917e-05)
(0.0951074 -2.25582e-29 0.000147946)
(0.108164 -1.4208e-29 0.000181597)
(0.121129 -4.58353e-30 0.000230067)
(0.13365 0 0.00024605)
(0.145424 3.75847e-29 0.000271798)
(0.156188 1.39038e-28 0.000269148)
(0.165777 0 0.000292508)
(0.174071 -4.01771e-29 0.000312055)
(0.181049 1.01229e-28 0.000319537)
(0.18673 0 0.000307747)
(0.191198 -2.29888e-34 0.000295894)
(0.194548 6.50621e-29 0.000275849)
(0.196907 6.9896e-29 0.00024701)
(0.198394 0 0.000212446)
(0.199141 7.68893e-29 0.000166846)
(0.199268 0 0.000123272)
(0.198897 4.10468e-29 8.65977e-05)
(0.198158 2.10841e-29 5.21353e-05)
(0.197127 0 2.3393e-05)
(0.195868 1.23305e-29 -1.59399e-06)
(0.194436 1.07649e-29 -2.30408e-05)
(0.192881 0 -4.42753e-05)
(0.191244 1.48849e-29 -6.5433e-05)
(0.189564 1.73033e-29 -8.65242e-05)
(0.187871 0 -0.000106563)
(0.186196 1.39906e-29 -0.000119632)
(0.184561 0 -0.000126312)
(0.182969 0 -0.000133165)
(0.181424 -1.17506e-29 -0.000140572)
(0.179933 0 -0.000147456)
(0.178502 0 -0.000154015)
(0.177136 0 -0.000161042)
(0.175836 0 -0.000168331)
(0.174604 0 -0.000175456)
(0.173438 0 -0.000182396)
(0.172337 0 -0.000189008)
(0.171299 0 -0.000195382)
(0.17032 0 -0.000201664)
(0.169398 0 -0.000208528)
(0.16853 0 -0.000216188)
(0.167714 0 -0.000223584)
(0.166949 0 -0.000230736)
(0.166231 -1.69397e-29 -0.000237673)
(0.16556 0 -0.000245192)
(0.164933 0 -0.000252901)
(0.164348 0 -0.000260076)
(0.163803 1.89721e-29 -0.000266255)
(0.163295 0 -0.000271695)
(0.16282 1.87092e-29 -0.000276544)
(0.162375 0 -0.000280824)
(0.161957 1.84023e-29 -0.0002848)
(0.161562 -1.81836e-29 -0.000288317)
(0.161189 0 -0.000291399)
(0.160834 0 -0.000294141)
(0.160496 1.81492e-29 -0.000296417)
(0.160174 0 -0.000298026)
(0.159867 -1.76198e-29 -0.000299045)
(0.159575 0 -0.00029974)
(0.159297 -1.69874e-29 -0.00030015)
(0.159032 0 -0.000300438)
(0.158781 0 -0.000300603)
(0.158541 -1.60455e-29 -0.000300791)
(0.158313 1.60911e-29 -0.00030129)
(0.158094 -1.57391e-29 -0.000301554)
(0.157886 0 -0.000301906)
(0.157686 1.54776e-29 -0.000302213)
(0.157494 1.51737e-29 -0.000302295)
(0.15731 -1.51399e-29 -0.000302479)
(0.157134 1.48791e-29 -0.000302495)
(0.156964 -1.42007e-29 -0.000302247)
(0.156799 -1.37399e-29 -0.000302148)
(0.15664 -1.30175e-29 -0.000301837)
(0.156485 -1.24835e-29 -0.000301468)
(0.156333 0 -0.000301387)
(0.156182 1.1401e-29 -0.00030089)
(0.156032 -1.11214e-29 -0.000300368)
(0.155883 0 -0.000300049)
(0.155732 -1.11915e-29 -0.000299755)
(0.155581 0 -0.000299568)
(0.155428 0 -0.000299207)
(0.155275 0 -0.000298775)
(0.155121 1.09731e-29 -0.000298644)
(0.154968 0 -0.000298506)
(0.154816 -1.09691e-29 -0.000298359)
(0.154665 -1.11013e-29 -0.000298577)
(0.154518 0 -0.000298595)
(0.154374 0 -0.000298882)
(0.154234 0 -0.000299365)
(0.1541 0 -0.000299577)
(0.153969 1.9275e-29 -0.000299967)
(0.153843 0 -0.000299955)
(0.153721 7.62712e-30 -0.000299125)
(0.1536 -7.19695e-30 -0.000298597)
(0.153482 0 -0.00029845)
(0.153365 7.45871e-30 -0.000298796)
(0.153248 0 -0.000299271)
(0.153131 -7.65007e-30 -0.000299509)
(0.153014 7.97453e-30 -0.000299707)
(0.152897 -8.26937e-30 -0.000300144)
(0.152779 0 -0.000300167)
(0.15266 0 -0.000299764)
(0.15254 0 -0.000299024)
(0.152418 -7.02939e-30 -0.000298408)
(0.152295 0 -0.000297332)
(0.15217 0 -0.000297287)
(0.152043 1.37802e-29 -0.000295258)
(0.151913 -8.59132e-29 -0.000294189)
(0.151779 0 -0.000275478)
(0.151646 0 -0.000265621)
(0.151508 0 -0.000340454)
(0.151372 0 -0.000334394)
(0.15124 5.44759e-28 -0.000212507)
(0.151099 0 -0.000369787)
(0.15095 0 -0.000587198)
(0.150825 0 -0.000435261)
(0.150673 -3.30204e-27 -0.000387411)
(0.15053 -1.3226e-27 -0.000295137)
(0.15039 0 -0.000346966)
(0.150237 0 -0.000309684)
(0.150085 -5.49045e-31 -0.000395446)
(0.149939 -7.45911e-27 -0.000273722)
(0.149802 -1.0798e-26 5.58919e-07)
(0.14964 0 -0.000345802)
(0.149479 1.46207e-30 -0.000687969)
(0.149336 0 -0.000568857)
(0.149206 5.86524e-27 -0.000266839)
(0.14907 0 1.77908e-05)
(0.148914 -2.47607e-26 0.000169135)
(0.148749 1.02304e-26 -0.000400237)
(0.148593 0 -0.000878752)
(0.148459 0 -0.000631409)
(0.148306 2.35164e-27 -0.000450445)
(0.148155 0 -0.000262145)
(0.148009 0 6.13328e-05)
(0.147861 -1.25008e-26 0.00020412)
(0.147701 1.02366e-26 -0.000363673)
(0.14754 0 -0.000835491)
(0.147379 0 -0.00063657)
(0.147248 0 -0.000214003)
(0.147106 1.52145e-26 -0.000283959)
(0.146948 0 0.000168438)
(0.146805 -2.26053e-26 0.000485356)
(0.146651 1.00749e-30 0.000386571)
(0.146493 1.59866e-30 -0.000241923)
(0.146332 0 -0.000770901)
(0.146184 8.71692e-27 -0.000565732)
(0.146038 -7.29723e-27 -0.000225239)
(0.145889 0 1.7719e-05)
(0.145749 -1.29851e-26 0.00017202)
(0.145587 0 -0.000351548)
(0.145432 -4.30614e-27 -0.000601666)
(0.145307 0 -0.00014211)
(0.145167 0 0.000130083)
(0.145009 0 -0.000289812)
(0.144869 0 -0.000673123)
(0.144734 -6.37906e-27 -0.00058319)
(0.144585 2.80678e-31 -0.000409879)
(0.144438 0 -0.000385116)
(0.144303 2.34463e-34 -0.000328745)
(0.144173 -5.13451e-28 -0.000299911)
(0.144043 0 -0.00023859)
(0.143908 -6.92324e-27 -0.000290622)
(0.143768 0 -0.000227489)
(0.143646 6.87679e-28 8.0518e-05)
(0.143517 1.06272e-26 0.00017866)
(0.143373 9.99541e-27 -0.000253265)
(0.143245 1.59899e-27 -0.000585711)
(0.143132 -1.00411e-28 -0.000225339)
(0.143004 1.23027e-26 0.00012453)
(0.142873 -5.86418e-27 -0.000153996)
(0.142751 6.949e-27 -0.000641313)
(0.142628 3.05046e-32 -0.000559615)
(0.142512 7.0696e-28 -0.000331706)
(0.142403 -2.15091e-32 -0.000315939)
(0.1423 -6.49127e-28 -0.000326281)
(0.142188 0 -0.000379411)
(0.142073 5.87942e-29 -0.000273345)
(0.141966 3.2804e-28 -0.00026878)
(0.141856 0 -0.000286841)
(0.141753 5.94972e-27 -0.00015644)
(0.141658 0 -5.00445e-05)
(0.141563 0 0.000165362)
(0.141464 9.71644e-27 0.000176501)
(0.141351 -1.02855e-26 -0.000278222)
(0.141255 -1.52974e-27 -0.000548741)
(0.141172 -4.5581e-27 -0.000489475)
(0.14107 0 -0.00040879)
(0.140967 0 -0.000283643)
(0.140879 3.386e-28 -0.000265533)
(0.140784 9.49612e-28 -0.000298187)
(0.140703 0 -0.000106437)
(0.140642 -3.12869e-27 0.000184602)
(0.140572 0 0.000373948)
(0.140493 0 -0.000127129)
(0.140421 0 -0.000668463)
(0.140345 0 -0.000538236)
(0.140282 -3.84182e-28 -0.000223331)
(0.14022 7.57205e-29 -0.000310638)
(0.140148 0 -0.000317972)
(0.140102 -1.17404e-28 -0.000154753)
(0.140056 0 -0.000167903)
(0.140004 0 -0.000146478)
(0.139969 0 -0.00014207)
(0.139935 -2.60275e-29 -0.000179448)
(0.139913 -3.03297e-30 -0.000167727)
(0.13986 0 -0.000262784)
(0.139809 0 -0.000147614)
(0.139763 0 -0.000244295)
(0.139694 -1.89982e-29 -0.00018969)
(0.139639 0 -0.000183035)
(0.139576 8.60246e-30 -0.000195527)
(0.139506 0 -0.00017786)
(0.139374 0 -0.000141782)
(0.139297 5.91712e-28 0.00035625)
(0.139375 0 0.000471534)
(0.139474 0 0.000359308)
(0.139593 -7.29296e-29 0.000414991)
(0.139724 0 0.000388879)
(0.13985 2.79582e-29 0.000400794)
(0.139978 -1.66011e-29 0.000408082)
(0.140096 1.54651e-29 0.000393355)
(0.140216 0 0.000408727)
(0.140329 -1.82919e-29 0.000372966)
(0.140446 1.72771e-32 0.000391894)
(0.140559 -2.80217e-29 0.000342217)
(0.140671 0 0.000359142)
(0.140779 -3.62992e-29 0.000299216)
(0.140882 -9.53607e-30 0.000309098)
(0.140979 0 0.000247618)
(0.141067 8.22362e-30 0.000249598)
(0.141146 0 0.000187617)
(0.141217 7.29528e-31 0.000185442)
(0.141272 2.27709e-29 0.000119657)
(0.141327 0 0.000130643)
(0.141357 0 4.10415e-05)
(0.141399 -1.07999e-29 0.000108067)
(0.141418 0 -6.96798e-05)
(0.141427 1.55162e-30 1.97707e-05)
(0.141408 -1.93274e-29 -0.000109116)
(0.141428 2.89796e-29 7.39874e-05)
(0.141422 -5.1061e-28 -0.000323783)
(0.141347 7.99971e-29 -7.10322e-05)
(0.141317 0 -0.000171965)
(0.14125 5.19187e-30 -4.08455e-05)
(0.14127 -5.21351e-30 2.37327e-05)
(0.141264 1.80003e-28 -0.000258443)
(0.141198 2.66894e-29 -0.00017859)
(0.141169 0 -0.000121233)
(0.141128 0 -0.000206412)
(0.141089 -1.94492e-29 -0.000131167)
(0.141051 -1.15583e-28 -0.000237495)
(0.14098 0 -0.000228664)
(0.140929 2.36018e-33 -0.000105581)
(0.140903 0 -0.000119626)
(0.140887 5.1278e-30 -0.000118181)
(0.140864 0 -0.000177979)
(0.14083 0 -0.000208872)
(0.140793 1.71618e-29 -0.000216682)
(0.140779 -4.56084e-30 -0.000169434)
(0.140747 1.3423e-28 -0.000317078)
(0.14069 0 -0.000320715)
(0.140616 0 -0.00037235)
(0.140541 -3.41224e-29 -0.0003093)
(0.140467 1.55137e-29 -0.000332636)
(0.140391 4.90579e-34 -0.000302326)
(0.140323 0 -0.000294202)
(0.140255 8.27901e-30 -0.000299529)
(0.140183 0 -0.000306326)
(0.140119 -4.12368e-29 -0.000240216)
(0.14006 7.93129e-30 -0.000249972)
(0.140004 -2.41339e-29 -0.000210034)
(0.13996 0 -0.000184582)
(0.139922 3.92471e-30 -0.00016829)
(0.139888 1.00488e-31 -0.000165344)
(0.139857 0 -0.000128846)
(0.139838 0 -0.000106782)
(0.139824 0 -0.00010329)
(0.139808 0 -0.00010354)
(0.139792 7.01609e-35 -7.77876e-05)
(0.139784 1.6352e-30 -5.80777e-05)
(0.139785 0 -3.1734e-05)
(0.13979 1.86425e-31 -2.81299e-05)
(0.139797 1.89222e-36 -2.1582e-05)
(0.139802 1.17451e-31 -2.1584e-05)
(0.13981 6.43536e-32 -7.05596e-06)
(0.139821 -2.05265e-33 -8.79597e-06)
(0.139832 -1.61193e-32 -7.99719e-06)
(0.139841 3.00722e-31 -1.72709e-05)
(0.139848 0 -1.32834e-05)
(0.139856 0 -1.34593e-05)
(0.139863 -8.25907e-36 -9.24579e-06)
(0.13987 0 -2.06882e-05)
(0.139874 0 -2.2639e-05)
(0.139875 5.38114e-31 -2.98169e-05)
(0.139875 -9.5486e-36 -2.4945e-05)
(0.139873 0 -2.51685e-05)
(0.139873 -2.61484e-31 -1.82933e-05)
(0.139874 1.60432e-35 -2.19958e-05)
(0.139875 8.56616e-32 -2.0384e-05)
(0.139875 6.33613e-31 -2.84643e-05)
(0.139875 -3.4997e-31 -3.08908e-05)
(0.139872 0 -3.93049e-05)
(0.139869 0 -4.04751e-05)
(0.139864 0 -4.68618e-05)
(0.139858 -2.63913e-31 -4.82751e-05)
(0.139852 0 -5.37725e-05)
(0.139844 0 -5.50962e-05)
(0.139835 -9.32294e-31 -6.01105e-05)
(0.139825 0 -6.12623e-05)
(0.139815 0 -6.52072e-05)
(0.139804 0 -6.60546e-05)
(0.139792 0 -6.92287e-05)
(0.139779 -4.62496e-31 -6.96714e-05)
(0.139766 1.3501e-30 -7.17944e-05)
(0.139752 0 -7.04589e-05)
(0.139739 -6.80384e-31 -7.0348e-05)
(0.139725 -1.39621e-35 -6.70999e-05)
(0.139712 1.99085e-32 -6.46634e-05)
(0.1397 2.98193e-31 -6.04024e-05)
(0.139689 1.41427e-31 -5.74792e-05)
(0.139678 -3.84394e-31 -5.30157e-05)
(0.139669 -1.30044e-31 -4.95185e-05)
(0.139661 -2.04616e-31 -4.51607e-05)
(0.139654 -4.13961e-31 -4.08892e-05)
(0.139648 0 -3.65038e-05)
(0.139643 -1.17387e-35 -3.2115e-05)
(0.139639 -2.80141e-31 -2.74436e-05)
(0.139637 0 -2.28685e-05)
(0.139635 -2.07347e-31 -1.79552e-05)
(0.139634 -1.11066e-31 -1.25077e-05)
(0.139634 0 -5.62664e-06)
(0.139637 0 2.92651e-06)
(0.139641 2.01612e-31 9.7381e-06)
(0.139649 0 1.71112e-05)
(0.139658 3.8263e-31 2.28852e-05)
(0.139668 5.14947e-36 2.83404e-05)
(0.13968 3.80966e-31 3.29962e-05)
(0.139693 3.61908e-31 3.72614e-05)
(0.139708 4.57394e-36 4.13815e-05)
(0.139724 3.06295e-31 4.40948e-05)
(0.13974 -2.48574e-31 4.56923e-05)
(0.139758 0 4.57535e-05)
(0.139777 0 4.51032e-05)
(0.139796 6.90874e-32 4.19874e-05)
(0.139815 2.5438e-35 3.75533e-05)
(0.139834 3.48312e-31 3.14481e-05)
(0.139852 2.76716e-31 2.33319e-05)
(0.139868 -2.79371e-31 1.18069e-05)
(0.139883 -2.33631e-32 9.17003e-07)
(0.139896 0 -1.10655e-05)
(0.139906 5.85141e-36 -2.81474e-05)
(0.139913 0 -4.62065e-05)
(0.139916 -2.41753e-30 -6.44081e-05)
(0.139915 2.34071e-30 -8.33692e-05)
(0.139907 0 -0.000102612)
(0.139895 0 -0.000116986)
(0.139877 0 -0.000133881)
(0.139854 4.94892e-30 -0.000148893)
(0.139827 0 -0.000159257)
(0.139797 0 -0.000173017)
(0.139762 0 -0.000186193)
(0.139724 -2.62825e-30 -0.000191968)
(0.139684 -4.33305e-30 -0.000195771)
(0.139642 3.82471e-30 -0.000198682)
(0.139599 -1.62486e-30 -0.000190196)
(0.139558 -1.54325e-35 -0.000177153)
(0.139522 -2.42845e-30 -0.000166654)
(0.13949 1.98861e-31 -0.000164917)
(0.139458 -1.99896e-30 -0.000169202)
(0.139427 -4.13207e-30 -0.00017366)
(0.139395 1.49997e-30 -0.000176066)
(0.139362 1.02317e-30 -0.000176862)
(0.13933 0 -0.000175769)
(0.139297 4.73729e-31 -0.000174547)
(0.139264 3.42913e-31 -0.000170619)
(0.139232 1.61052e-30 -0.0001654)
(0.139201 0 -0.000158677)
(0.139172 -1.69135e-30 -0.000151004)
(0.139144 0 -0.000140119)
(0.13912 -2.88158e-30 -0.000128867)
(0.139098 2.77916e-30 -0.000118551)
(0.13908 0 -0.000108252)
(0.139065 -1.73401e-30 -0.000101354)
(0.139053 -5.46074e-31 -9.63632e-05)
(0.139043 -1.44907e-35 -9.3587e-05)
(0.139034 9.8486e-32 -9.28675e-05)
(0.139026 0 -9.34584e-05)
(0.139018 -3.77152e-31 -9.57256e-05)
(0.139009 0 -9.72544e-05)
(0.139 0 -9.94515e-05)
(0.138991 -9.81393e-31 -0.000101943)
(0.13898 1.07301e-30 -0.000105274)
(0.138968 -8.80429e-31 -0.000107564)
(0.138956 9.17064e-31 -0.000109876)
(0.138943 8.69747e-31 -0.00011152)
(0.138929 -6.26253e-31 -0.00011213)
(0.138914 -7.26678e-31 -0.000112948)
(0.138899 0 -0.000112865)
(0.138883 -4.73521e-31 -0.000112629)
(0.138868 -5.68236e-31 -0.00011266)
(0.138852 0 -0.000112281)
(0.138837 3.29421e-35 -0.000112198)
(0.138821 0 -0.000111569)
(0.138806 0 -0.000111552)
(0.138791 -6.30685e-31 -0.000111411)
(0.138776 7.62863e-31 -0.000111634)
(0.13876 0 -0.000111933)
(0.138745 0 -0.000112807)
(0.13873 0 -0.000113619)
(0.138714 3.05958e-35 -0.000114794)
(0.138699 -8.98247e-31 -0.0001153)
(0.138682 0 -0.00011591)
(0.138666 -1.26928e-30 -0.000117523)
(0.138649 0 -0.000117874)
(0.138631 0 -0.00011911)
(0.138614 4.14047e-35 -0.000119697)
(0.138595 0 -0.000120709)
(0.138576 0 -0.000121788)
(0.138557 0 -0.000122031)
(0.138537 1.01261e-30 -0.000122612)
(0.138516 0 -0.000122471)
(0.138495 -9.61895e-31 -0.000122911)
(0.138474 -8.71946e-31 -0.000123023)
(0.138452 0 -0.000123427)
(0.138431 5.69396e-31 -0.000122766)
(0.138409 -8.12902e-31 -0.000123048)
(0.138388 -6.03922e-31 -0.000122682)
(0.138366 0 -0.000123138)
(0.138344 0 -0.000122679)
(0.138323 4.59674e-31 -0.000122155)
(0.138302 0 -0.000121745)
(0.138282 0 -0.000121478)
(0.138262 0 -0.0001209)
(0.138242 2.74258e-31 -0.000120421)
(0.138223 0 -0.000119653)
(0.138205 -3.56015e-32 -0.000118606)
(0.138187 0 -0.000117861)
(0.138169 0 -0.000117246)
(0.138152 -7.45248e-32 -0.000116452)
(0.138135 0 -0.000115205)
(0.138119 0 -0.000114952)
(0.138103 0 -0.000112657)
(0.138088 0 -0.000111751)
(0.138074 0 -0.000110399)
(0.13806 5.99194e-31 -0.000107847)
(0.138047 0 -0.000106338)
(0.138034 4.81831e-31 -0.00010423)
(0.138022 0 -0.000102264)
(0.138011 5.34606e-31 -9.99758e-05)
(0.138 0 -9.74831e-05)
(0.137989 -4.61076e-36 -9.54813e-05)
(0.137979 0 -9.32701e-05)
(0.13797 4.14467e-31 -9.03207e-05)
(0.137961 1.50097e-31 -8.92726e-05)
(0.137951 6.12959e-31 -8.72468e-05)
(0.137942 3.47599e-31 -8.50746e-05)
(0.137933 0 -8.33374e-05)
(0.137924 0 -8.19755e-05)
(0.137914 0 -8.02273e-05)
(0.137905 -2.48862e-31 -7.88419e-05)
(0.137895 -3.42884e-31 -7.6736e-05)
(0.137885 -2.24083e-31 -7.54688e-05)
(0.137874 -7.35657e-31 -7.33458e-05)
(0.137864 3.87824e-31 -7.09104e-05)
(0.137854 5.39094e-31 -6.94767e-05)
(0.137844 -6.05017e-31 -6.57539e-05)
(0.137834 -4.7286e-31 -6.30807e-05)
(0.137826 0 -5.85853e-05)
(0.137818 1.91908e-30 -5.36168e-05)
(0.137812 0 -4.73451e-05)
(0.137808 9.07741e-36 -4.14398e-05)
(0.137805 7.08172e-31 -3.24577e-05)
(0.137805 0 -2.38516e-05)
(0.137807 0 -1.35699e-05)
(0.137813 0 1.08971e-06)
(0.137825 -4.56376e-31 1.52247e-05)
(0.137842 -8.57576e-31 2.85105e-05)
(0.137863 1.51128e-30 3.8865e-05)
(0.137888 1.6309e-30 4.92033e-05)
(0.137916 0 5.7409e-05)
(0.137946 1.38718e-30 6.52068e-05)
(0.137979 0 7.1898e-05)
(0.138014 1.23906e-30 7.77172e-05)
(0.138051 1.02499e-30 8.1928e-05)
(0.138089 0 8.58815e-05)
(0.138128 0 8.86053e-05)
(0.138168 0 9.11917e-05)
(0.138209 0 9.29926e-05)
(0.138249 -1.18835e-30 9.45262e-05)
(0.138288 -2.09439e-30 9.55539e-05)
(0.138327 0 9.64445e-05)
(0.138366 0 9.65125e-05)
(0.138403 -1.77364e-35 9.66091e-05)
(0.13844 -7.90221e-31 9.66951e-05)
(0.138475 0 9.62762e-05)
(0.138509 0 9.49265e-05)
(0.138542 -1.73413e-31 9.38745e-05)
(0.138575 1.24942e-31 9.25662e-05)
(0.138606 0 9.0742e-05)
(0.138636 0 8.90432e-05)
(0.138666 -1.37835e-31 8.77119e-05)
(0.138696 -3.177e-32 8.51095e-05)
(0.138726 1.80778e-31 8.39396e-05)
(0.138756 -7.56625e-33 8.1359e-05)
(0.138785 0 8.06762e-05)
(0.138816 -7.41673e-32 7.85462e-05)
(0.138846 0 7.80438e-05)
(0.138877 6.35068e-35 7.63671e-05)
(0.138908 5.28205e-31 7.75629e-05)
(0.13894 -3.20254e-31 7.68781e-05)
(0.138972 9.34846e-31 7.99824e-05)
(0.139006 0 7.88307e-05)
(0.139039 0 8.18947e-05)
(0.139077 1.20761e-30 8.67921e-05)
(0.139106 0 8.2617e-05)
(0.139154 -1.73674e-33 0.000103247)
(0.139177 0 7.59371e-05)
(0.139241 2.39874e-29 0.000149647)
(0.139249 -1.80166e-29 3.34403e-05)
(0.139343 0 0.000264144)
(0.139333 2.68172e-29 -8.59619e-05)
(0.139463 -6.87442e-28 0.000463263)
(0.139443 0 -0.000329078)
(0.139601 2.5337e-27 0.000687382)
(0.139573 5.28054e-27 -0.000725157)
(0.139729 0 0.00086678)
(0.139695 -5.37604e-27 -0.0012847)
(0.139802 2.70347e-27 0.000879978)
(0.139765 1.42765e-26 -0.00198145)
(0.139757 1.57554e-27 0.000536374)
(0.139721 0 -0.00273895)
(0.139554 2.94624e-27 -0.000416337)
(0.139482 0 -0.00376912)
(0.13911 0 -0.00243036)
(0.138733 0 -0.00683119)
(0.137554 -6.18548e-26 -0.00657493)
(0.134642 1.87305e-25 -0.0146483)
(0.124087 0 -0.0225298)
(0.114553 7.37877e-26 0.00022891)
(0.108582 1.11862e-28 -0.000103478)
(0.101599 -7.89274e-28 0.00220415)
(0.0944129 9.67147e-29 0.00328865)
(0.0836334 0 0.00681853)
(0.0687512 -6.21047e-28 0.00641742)
(0.035174 -3.78281e-26 0.0394295)
(-0.0496839 0 0.0105136)
(-0.0645295 0 0.00387559)
(-0.0815074 2.7327e-27 -0.0126165)
)
;

boundaryField
{
    inlet
    {
        type            calculated;
        value           uniform (0 0 0);
    }
    endWall
    {
        type            calculated;
        value           uniform (0 0 0);
    }
    sideWall
    {
        type            empty;
    }
}


// ************************************************************************* //
