/*--------------------------------*- C++ -*----------------------------------*\
| =========                 |                                                 |
| \\      /  F ield         | foam-extend: Open Source CFD                    |
|  \\    /   O peration     | Version:     3.2                                |
|   \\  /    A nd           | Web:         http://www.foam-extend.org         |
|    \\/     M anipulation  | For copyright notice see file Copyright         |
\*---------------------------------------------------------------------------*/
FoamFile
{
    version     2.0;
    format      ascii;
    class       volScalarField;
    location    "910";
    object      C1;
}
// * * * * * * * * * * * * * * * * * * * * * * * * * * * * * * * * * * * * * //

dimensions      [1 -3 0 0 0 0 0];

internalField   nonuniform List<scalar> 
33000
(
0.0197
0.0197
0.0197
0.0197
0.0197
0.0197
0.0197
0.0197
0.0197
0.0197
0.0197
0.0197
0.0197
0.0197
0.0197
0.0197
0.0197
0.0197
0.0197
0.0197
0.0197
0.0197
0.0197
0.0197
0.0197
0.0197
0.0197
0.0197
0.0197
0.0197
0.0197
0.0197
0.0197
0.0197
0.0197
0.0197
0.0197
0.0197
0.0197
0.0197
0.0197
0.0197
0.0197
0.0197
0.0197
0.0197
0.0197
0.0197
0.0197
0.0197
0.0197
0.0197
0.0197
0.0197
0.0197
0.0197
0.0197
0.0197
0.0197
0.0197
0.0197
0.0197
0.0197
0.0197
0.0197
0.0197
0.0197
0.0197
0.0196999
0.0196999
0.0196999
0.0196999
0.0196999
0.0196999
0.0196999
0.0196999
0.0196998
0.0196998
0.0196998
0.0196997
0.0196997
0.0196996
0.0196996
0.0196995
0.0196994
0.0196994
0.0196993
0.0196991
0.019699
0.0196989
0.0196987
0.0196985
0.0196983
0.019698
0.0196978
0.0196974
0.0196971
0.0196967
0.0196963
0.0196959
0.0196954
0.0196948
0.0196942
0.0196936
0.0196928
0.0196921
0.0196912
0.0196903
0.0196893
0.0196887
0.0197002
0.0197256
0.0197401
0.0197544
0.0197667
0.0197788
0.0197901
0.0197955
0.0198064
0.0198197
0.0198178
0.019829
0.0198307
0.0198322
0.019825
0.0198311
0.019837
0.0198448
0.0198373
0.0198292
0.0198276
0.0198304
0.0198264
0.0198283
0.0198232
0.019818
0.0198067
0.0198003
0.0197959
0.0197936
0.019799
0.0197819
0.0197777
0.0197747
0.0197693
0.0197729
0.0197675
0.0197632
0.0197604
0.0197532
0.0197497
0.0197392
0.0197385
0.0197413
0.019724
0.019716
0.0197169
0.019711
0.0196976
0.0196976
0.0196978
0.0196882
0.019683
0.0196674
0.0196635
0.0196724
0.0196544
0.0196448
0.0196427
0.019638
0.0196255
0.0196176
0.019618
0.0196122
0.0196061
0.0195986
0.0195964
0.0195821
0.0195806
0.0195805
0.0195701
0.0195663
0.0195544
0.0195409
0.0195457
0.019535
0.0195338
0.0195302
0.0195239
0.0195183
0.019514
0.0195045
0.0195002
0.019498
0.0194878
0.0194681
0.01947
0.0194593
0.0194618
0.0194627
0.0194529
0.019449
0.0194474
0.0194457
0.0194418
0.0194378
0.0194339
0.01943
0.0194258
0.0194211
0.019416
0.0194101
0.0194032
0.0193956
0.0193878
0.0193766
0.0193635
0.0193511
0.0193386
0.0193267
0.0193153
0.0193049
0.0192959
0.0192885
0.0192827
0.0192781
0.0192746
0.0192714
0.0192687
0.0192656
0.0192627
0.0192593
0.0192559
0.019252
0.0192482
0.0192439
0.0192398
0.0192349
0.0192303
0.0192254
0.0192205
0.0192152
0.0192094
0.0192048
0.0191999
0.0191957
0.0191912
0.019186
0.0191818
0.0191777
0.0191735
0.0191697
0.0191656
0.019162
0.0191587
0.0191554
0.0191519
0.0191482
0.0191444
0.0191409
0.0191372
0.0191332
0.0191293
0.0191255
0.0191221
0.0191186
0.0191152
0.0191118
0.0191083
0.0191048
0.0191014
0.0190979
0.0190944
0.0190909
0.0190873
0.0190835
0.0190797
0.0190759
0.0190719
0.0190679
0.0190639
0.0190598
0.0190557
0.0190516
0.0190474
0.0190431
0.0190389
0.0190346
0.0190303
0.0190259
0.0190216
0.0190173
0.0190131
0.0190088
0.0190045
0.0190002
0.018996
0.0189919
0.0189877
0.0189836
0.0189794
0.0189753
0.0189712
0.0189671
0.018963
0.018959
0.0189549
0.0189509
0.018947
0.0189431
0.0189392
0.0189353
0.0189315
0.0189277
0.0189239
0.0189201
0.0189164
0.0189127
0.0189091
0.0189055
0.0189019
0.0188983
0.0188947
0.0188912
0.0188876
0.0188841
0.0188806
0.018877
0.0188735
0.01887
0.0188665
0.018863
0.0188595
0.018856
0.0188524
0.0188488
0.0188452
0.0188416
0.018838
0.0188344
0.0188308
0.0188272
0.0188236
0.0188201
0.0188165
0.0188129
0.0188094
0.0188059
0.0188024
0.018799
0.0187956
0.0187921
0.0187886
0.018785
0.0187815
0.0187779
0.0187744
0.0187709
0.0187675
0.0187641
0.0187607
0.0187573
0.018754
0.0187507
0.0187475
0.0187443
0.0187411
0.018738
0.0187349
0.0187318
0.0187286
0.0187253
0.0187221
0.0187188
0.0187156
0.0187123
0.0187091
0.0187058
0.0187026
0.0186994
0.0186961
0.0186929
0.0186897
0.0186864
0.0186831
0.0186798
0.0186764
0.018673
0.0186696
0.0186662
0.0186628
0.0186594
0.018656
0.0186525
0.0186492
0.0186458
0.0186425
0.0186392
0.018636
0.0186327
0.0186295
0.0186264
0.0186233
0.0186202
0.0186171
0.0186141
0.0186111
0.0186081
0.0186052
0.0186023
0.0185994
0.0185966
0.0185938
0.0185911
0.0185883
0.0185856
0.018583
0.0185804
0.0185778
0.0185752
0.0185727
0.0185702
0.0185677
0.0185652
0.0185627
0.0185603
0.0185578
0.0185554
0.0185529
0.0185505
0.018548
0.0185455
0.0185429
0.0185403
0.0185377
0.018535
0.0185323
0.0185295
0.0185267
0.0185238
0.0185209
0.018518
0.018515
0.0185119
0.0185089
0.0185057
0.0185025
0.0184993
0.0184961
0.0184927
0.0184894
0.0184859
0.0184824
0.0184789
0.0184752
0.0184715
0.0184677
0.0184638
0.0184598
0.0184556
0.0184514
0.0184471
0.0184426
0.0184381
0.0184334
0.0184287
0.0184238
0.0184189
0.018414
0.018409
0.0184039
0.0183989
0.0183938
0.0183888
0.0183837
0.0183787
0.0183738
0.0183687
0.0183637
0.0183587
0.0183537
0.0183488
0.0183439
0.018339
0.0183343
0.0183295
0.0183249
0.0183202
0.0183157
0.0183111
0.0183067
0.0183022
0.0182978
0.0182934
0.018289
0.0182846
0.0182803
0.0182759
0.0182715
0.0182671
0.0182627
0.0182583
0.0182538
0.0182493
0.0182448
0.0182403
0.0182357
0.018231
0.0182264
0.0182217
0.0182169
0.0182122
0.0182074
0.0182026
0.0181977
0.0181929
0.018188
0.0181831
0.0181782
0.0181731
0.0181685
0.0181628
0.0181585
0.0181518
0.0181476
0.0181399
0.0181358
0.0181274
0.0181233
0.0181149
0.0181107
0.0181039
0.0180989
0.0180943
0.0180873
0.018079
0.0180689
0.0180546
0.0180396
0.018039
0.0180376
0.0180356
0.0180338
0.0180321
0.0180307
0.0180293
0.0180177
0.017994
0.0179889
0.0179874
0.0197
0.0197
0.0197
0.0197
0.0197
0.0197
0.0197
0.0197
0.0197
0.0197
0.0197
0.0197
0.0197
0.0197
0.0197
0.0197
0.0197
0.0197
0.0197
0.0197
0.0197
0.0197
0.0197
0.0197
0.0197
0.0197
0.0197
0.0197
0.0197
0.0197
0.0197
0.0197
0.0197
0.0197
0.0197
0.0197
0.0197
0.0197
0.0197
0.0197
0.0197
0.0197
0.0197
0.0197
0.0197
0.0197
0.0197
0.0197
0.0197
0.0197
0.0197
0.0197
0.0197
0.0197
0.0197
0.0197
0.0197
0.0197
0.0197
0.0197
0.0197
0.0197
0.0196999
0.0196999
0.0196999
0.0196999
0.0196999
0.0196999
0.0196999
0.0196998
0.0196998
0.0196998
0.0196998
0.0196997
0.0196997
0.0196996
0.0196996
0.0196995
0.0196994
0.0196993
0.0196992
0.0196991
0.019699
0.0196988
0.0196986
0.0196984
0.0196982
0.0196979
0.0196976
0.0196973
0.0196969
0.0196964
0.019696
0.0196954
0.0196948
0.0196942
0.0196935
0.0196927
0.0196919
0.019691
0.01969
0.019689
0.0196879
0.0196867
0.0196854
0.0196841
0.0196826
0.0196811
0.0196794
0.0196781
0.019677
0.0196764
0.0196788
0.0196814
0.0196805
0.0196819
0.0196864
0.0196869
0.0196881
0.0196927
0.0196937
0.019693
0.0196969
0.0196998
0.0196957
0.0196933
0.0196967
0.0197017
0.0197028
0.0196967
0.0196918
0.0196931
0.0196941
0.0196923
0.0196897
0.0196885
0.0196866
0.0196813
0.0196749
0.0196728
0.0196778
0.0196752
0.0196656
0.0196645
0.0196637
0.0196563
0.0196525
0.019652
0.0196495
0.0196467
0.0196427
0.0196338
0.0196299
0.019635
0.0196292
0.0196152
0.0196147
0.0196161
0.0196051
0.0195978
0.0195984
0.0195947
0.0195906
0.0195824
0.0195725
0.0195746
0.0195706
0.0195557
0.019552
0.0195537
0.0195455
0.0195345
0.0195302
0.019528
0.0195221
0.0195173
0.0195134
0.0195031
0.0194939
0.0194932
0.0194911
0.0194864
0.0194811
0.0194725
0.0194654
0.0194596
0.019454
0.0194521
0.0194482
0.01944
0.0194338
0.0194279
0.019421
0.0194212
0.0194214
0.0194106
0.019402
0.0193969
0.0193904
0.01939
0.0193867
0.0193772
0.0193723
0.0193694
0.0193648
0.0193599
0.0193553
0.019351
0.0193467
0.0193422
0.0193376
0.0193327
0.0193272
0.0193216
0.0193163
0.0193104
0.0193031
0.0192952
0.0192875
0.0192798
0.0192721
0.0192646
0.0192575
0.0192509
0.0192448
0.0192393
0.0192344
0.01923
0.0192259
0.0192222
0.0192185
0.0192149
0.0192113
0.0192075
0.0192036
0.0191997
0.0191955
0.0191912
0.0191868
0.0191824
0.0191778
0.0191732
0.0191684
0.0191638
0.019159
0.0191544
0.0191498
0.0191452
0.0191408
0.0191365
0.0191322
0.0191282
0.0191241
0.0191202
0.0191164
0.0191126
0.0191089
0.0191053
0.0191017
0.0190981
0.0190945
0.019091
0.0190874
0.0190838
0.0190802
0.0190766
0.019073
0.0190694
0.0190657
0.0190621
0.0190585
0.0190548
0.0190512
0.0190475
0.0190438
0.0190401
0.0190364
0.0190326
0.0190289
0.0190251
0.0190213
0.0190175
0.0190136
0.0190098
0.0190059
0.019002
0.0189981
0.0189942
0.0189903
0.0189864
0.0189825
0.0189786
0.0189746
0.0189707
0.0189668
0.0189629
0.018959
0.0189551
0.0189512
0.0189474
0.0189435
0.0189396
0.0189358
0.018932
0.0189282
0.0189243
0.0189206
0.0189168
0.018913
0.0189093
0.0189055
0.0189018
0.0188981
0.0188944
0.0188907
0.0188871
0.0188835
0.0188798
0.0188762
0.0188726
0.0188691
0.0188655
0.018862
0.0188584
0.0188549
0.0188514
0.0188479
0.0188444
0.018841
0.0188375
0.018834
0.0188306
0.0188271
0.0188237
0.0188203
0.0188168
0.0188134
0.0188099
0.0188065
0.018803
0.0187996
0.0187961
0.0187926
0.0187892
0.0187858
0.0187823
0.0187789
0.0187755
0.0187721
0.0187687
0.0187653
0.0187619
0.0187585
0.0187551
0.0187517
0.0187483
0.018745
0.0187416
0.0187382
0.0187348
0.0187315
0.0187281
0.0187247
0.0187214
0.018718
0.0187147
0.0187113
0.018708
0.0187046
0.0187013
0.018698
0.0186947
0.0186913
0.018688
0.0186847
0.0186814
0.018678
0.0186747
0.0186714
0.0186681
0.0186647
0.0186614
0.0186581
0.0186548
0.0186515
0.0186482
0.0186449
0.0186416
0.0186383
0.018635
0.0186318
0.0186285
0.0186252
0.0186219
0.0186186
0.0186154
0.0186121
0.0186089
0.0186057
0.0186025
0.0185993
0.0185962
0.018593
0.0185899
0.0185868
0.0185837
0.0185807
0.0185777
0.0185747
0.0185717
0.0185688
0.0185659
0.0185631
0.0185602
0.0185574
0.0185547
0.0185519
0.0185492
0.0185466
0.018544
0.0185414
0.0185388
0.0185363
0.0185338
0.0185313
0.0185288
0.0185264
0.0185239
0.0185214
0.0185189
0.0185164
0.0185138
0.0185112
0.0185085
0.0185057
0.0185029
0.0185
0.018497
0.0184939
0.0184908
0.0184876
0.0184843
0.018481
0.0184776
0.0184742
0.0184707
0.0184672
0.0184637
0.0184601
0.0184565
0.0184528
0.0184491
0.0184453
0.0184414
0.0184375
0.0184336
0.0184296
0.0184254
0.0184212
0.0184169
0.0184126
0.0184081
0.0184035
0.0183988
0.018394
0.0183891
0.0183841
0.018379
0.0183738
0.0183686
0.0183633
0.018358
0.0183526
0.0183473
0.0183419
0.0183366
0.0183312
0.0183259
0.0183206
0.0183154
0.0183102
0.018305
0.0182999
0.0182949
0.0182899
0.0182849
0.01828
0.0182751
0.0182703
0.0182655
0.0182608
0.0182561
0.0182515
0.0182469
0.0182423
0.0182378
0.0182332
0.0182287
0.0182243
0.0182198
0.0182153
0.0182109
0.0182064
0.0182019
0.0181974
0.0181929
0.0181884
0.0181838
0.0181792
0.0181746
0.0181699
0.0181652
0.0181604
0.0181556
0.0181508
0.0181459
0.018141
0.018136
0.018131
0.018126
0.018121
0.0181159
0.0181107
0.0181057
0.0181003
0.0180953
0.0180897
0.0180847
0.018079
0.0180739
0.0180681
0.0180631
0.0180575
0.0180527
0.0180474
0.0180425
0.0180375
0.0180332
0.01803
0.0180286
0.0180262
0.0180229
0.018021
0.0180201
0.0180205
0.0180213
0.0180186
0.0180018
0.01799
0.0179867
0.0197
0.0197
0.0197
0.0197
0.0197
0.0197
0.0197
0.0197
0.0197
0.0197
0.0197
0.0197
0.0197
0.0197
0.0197
0.0197
0.0197
0.0197
0.0197
0.0197
0.0197
0.0197
0.0197
0.0197
0.0197
0.0197
0.0197
0.0197
0.0197
0.0197
0.0197
0.0197
0.0197
0.0197
0.0197
0.0197
0.0197
0.0197
0.0197
0.0197
0.0197
0.0197
0.0197
0.0197
0.0197
0.0197
0.0197
0.0197
0.0197
0.0197
0.0197
0.0197
0.0197
0.0197
0.0196999
0.0196999
0.0196999
0.0196999
0.0196999
0.0196999
0.0196999
0.0196999
0.0196998
0.0196998
0.0196998
0.0196998
0.0196997
0.0196997
0.0196996
0.0196996
0.0196995
0.0196994
0.0196994
0.0196993
0.0196992
0.019699
0.0196989
0.0196987
0.0196985
0.0196983
0.019698
0.0196978
0.0196974
0.019697
0.0196966
0.0196961
0.0196956
0.019695
0.0196943
0.0196936
0.0196928
0.0196919
0.0196909
0.0196898
0.0196886
0.0196873
0.0196859
0.0196845
0.0196829
0.0196813
0.0196795
0.0196777
0.0196757
0.0196737
0.0196715
0.0196693
0.0196669
0.0196644
0.0196619
0.0196596
0.0196565
0.0196531
0.0196521
0.0196508
0.0196461
0.0196438
0.019644
0.0196409
0.0196383
0.0196389
0.0196364
0.0196327
0.0196336
0.0196337
0.0196274
0.0196225
0.0196236
0.0196267
0.0196261
0.0196184
0.0196117
0.0196115
0.0196118
0.0196095
0.0196064
0.0196048
0.0196025
0.0195966
0.0195897
0.0195875
0.0195918
0.0195895
0.0195803
0.0195782
0.0195768
0.0195694
0.0195651
0.0195646
0.0195623
0.0195595
0.0195553
0.0195469
0.0195438
0.0195484
0.0195431
0.0195301
0.0195292
0.0195306
0.0195209
0.0195136
0.0195142
0.019512
0.0195082
0.0195003
0.0194912
0.0194925
0.0194892
0.0194757
0.0194722
0.0194742
0.0194668
0.0194558
0.0194514
0.0194497
0.0194447
0.0194403
0.0194361
0.0194262
0.0194169
0.0194158
0.0194151
0.0194117
0.0194065
0.0193981
0.0193905
0.0193846
0.0193798
0.0193783
0.0193748
0.0193672
0.0193608
0.0193549
0.019349
0.0193497
0.0193504
0.019341
0.0193324
0.019327
0.0193208
0.0193197
0.0193168
0.0193083
0.0193032
0.0193002
0.0192959
0.019291
0.0192863
0.0192818
0.0192774
0.0192729
0.0192684
0.0192637
0.0192588
0.0192539
0.0192495
0.019245
0.0192395
0.0192335
0.0192278
0.0192222
0.0192166
0.0192111
0.0192056
0.0192001
0.0191946
0.0191893
0.0191842
0.0191794
0.019175
0.0191708
0.0191669
0.0191632
0.0191596
0.019156
0.0191524
0.0191487
0.0191448
0.019141
0.019137
0.0191329
0.0191287
0.0191246
0.0191203
0.0191161
0.0191118
0.0191075
0.0191032
0.019099
0.0190948
0.0190907
0.0190866
0.0190827
0.0190788
0.019075
0.0190712
0.0190674
0.0190637
0.0190601
0.0190565
0.019053
0.0190494
0.0190459
0.0190424
0.0190389
0.0190354
0.0190319
0.0190283
0.0190248
0.0190212
0.0190176
0.019014
0.0190104
0.0190068
0.0190032
0.0189996
0.0189959
0.0189923
0.0189886
0.018985
0.0189813
0.0189777
0.018974
0.0189703
0.0189666
0.0189629
0.0189592
0.0189555
0.0189517
0.018948
0.0189443
0.0189406
0.0189369
0.0189332
0.0189295
0.0189258
0.0189221
0.0189184
0.0189147
0.0189111
0.0189074
0.0189038
0.0189001
0.0188965
0.0188929
0.0188893
0.0188857
0.0188821
0.0188786
0.018875
0.0188715
0.0188679
0.0188644
0.0188609
0.0188574
0.0188539
0.0188504
0.0188469
0.0188434
0.01884
0.0188365
0.0188331
0.0188296
0.0188262
0.0188228
0.0188193
0.0188159
0.0188125
0.0188091
0.0188057
0.0188023
0.018799
0.0187956
0.0187922
0.0187888
0.0187855
0.0187821
0.0187787
0.0187754
0.018772
0.0187686
0.0187653
0.0187619
0.0187586
0.0187552
0.0187519
0.0187486
0.0187452
0.0187419
0.0187386
0.0187353
0.018732
0.0187287
0.0187254
0.0187222
0.0187189
0.0187156
0.0187124
0.0187091
0.0187059
0.0187026
0.0186993
0.0186961
0.0186928
0.0186895
0.0186862
0.018683
0.0186797
0.0186763
0.018673
0.0186697
0.0186664
0.018663
0.0186597
0.0186563
0.018653
0.0186497
0.0186463
0.018643
0.0186396
0.0186363
0.0186329
0.0186296
0.0186263
0.0186229
0.0186196
0.0186163
0.018613
0.0186097
0.0186064
0.0186031
0.0185999
0.0185966
0.0185934
0.0185902
0.0185869
0.0185837
0.0185805
0.0185774
0.0185742
0.018571
0.0185679
0.0185648
0.0185617
0.0185586
0.0185555
0.0185525
0.0185494
0.0185464
0.0185435
0.0185405
0.0185376
0.0185347
0.0185318
0.0185289
0.0185261
0.0185233
0.0185206
0.0185179
0.0185152
0.0185125
0.0185099
0.0185073
0.0185048
0.0185022
0.0184997
0.0184972
0.0184947
0.0184921
0.0184895
0.0184869
0.0184841
0.0184813
0.0184784
0.0184754
0.0184723
0.0184691
0.0184657
0.0184622
0.0184587
0.018455
0.0184512
0.0184474
0.0184435
0.0184395
0.0184355
0.0184315
0.0184275
0.0184234
0.0184193
0.0184152
0.018411
0.0184069
0.0184027
0.0183984
0.0183942
0.0183899
0.0183855
0.0183811
0.0183766
0.018372
0.0183673
0.0183626
0.0183577
0.0183528
0.0183478
0.0183426
0.0183374
0.0183321
0.0183267
0.0183212
0.0183157
0.0183101
0.0183044
0.0182988
0.0182931
0.0182875
0.0182819
0.0182763
0.0182707
0.0182652
0.0182597
0.0182543
0.0182489
0.0182436
0.0182384
0.0182333
0.0182282
0.0182231
0.0182181
0.0182132
0.0182083
0.0182035
0.0181987
0.018194
0.0181893
0.0181846
0.01818
0.0181755
0.0181709
0.0181664
0.0181619
0.0181574
0.018153
0.0181485
0.018144
0.0181396
0.0181351
0.0181306
0.018126
0.0181215
0.0181168
0.0181122
0.0181075
0.0181028
0.018098
0.0180932
0.0180883
0.0180834
0.0180785
0.0180735
0.0180685
0.0180635
0.0180583
0.0180533
0.0180479
0.0180431
0.0180376
0.0180328
0.0180271
0.0180225
0.0180169
0.0180124
0.0180069
0.0180026
0.0179976
0.0179938
0.0179902
0.0179891
0.0179931
0.0179975
0.0179982
0.0179964
0.0179968
0.0179988
0.0180031
0.0180081
0.0180111
0.0180054
0.0179932
0.017986
0.0197
0.0197
0.0197
0.0197
0.0197
0.0197
0.0197
0.0197
0.0197
0.0197
0.0197
0.0197
0.0197
0.0197
0.0197
0.0197
0.0197
0.0197
0.0197
0.0197
0.0197
0.0197
0.0197
0.0197
0.0197
0.0197
0.0197
0.0197
0.0197
0.0197
0.0197
0.0197
0.0197
0.0197
0.0197
0.0197
0.0197
0.0197
0.0197
0.0197
0.0197
0.0197
0.0197
0.0196999
0.0196999
0.0196999
0.0196999
0.0196999
0.0196999
0.0196999
0.0196999
0.0196999
0.0196998
0.0196998
0.0196998
0.0196998
0.0196997
0.0196997
0.0196997
0.0196996
0.0196996
0.0196995
0.0196995
0.0196994
0.0196993
0.0196992
0.0196991
0.019699
0.0196989
0.0196987
0.0196986
0.0196984
0.0196981
0.0196979
0.0196976
0.0196973
0.0196969
0.0196965
0.019696
0.0196954
0.0196948
0.0196941
0.0196933
0.0196924
0.0196915
0.0196904
0.0196892
0.0196879
0.0196865
0.019685
0.0196833
0.0196815
0.0196795
0.0196775
0.0196753
0.0196729
0.0196704
0.0196679
0.0196652
0.0196623
0.0196594
0.0196563
0.0196532
0.0196499
0.0196466
0.0196431
0.0196396
0.0196359
0.0196322
0.0196286
0.0196244
0.0196197
0.019617
0.0196138
0.0196077
0.0196034
0.0196012
0.0195964
0.0195919
0.0195898
0.0195853
0.01958
0.0195784
0.0195759
0.0195681
0.0195617
0.0195607
0.0195619
0.0195594
0.0195506
0.0195426
0.0195405
0.0195395
0.0195363
0.0195325
0.01953
0.0195265
0.0195198
0.0195126
0.01951
0.0195129
0.0195102
0.0195016
0.0194981
0.0194957
0.0194886
0.019484
0.0194829
0.0194807
0.0194776
0.0194729
0.0194652
0.0194624
0.0194659
0.0194609
0.0194495
0.0194477
0.0194482
0.0194398
0.019433
0.019433
0.0194316
0.0194281
0.0194207
0.0194128
0.0194131
0.0194097
0.0193982
0.0193946
0.0193958
0.0193892
0.019379
0.0193743
0.0193725
0.0193684
0.0193643
0.0193598
0.0193503
0.0193416
0.0193401
0.0193399
0.0193373
0.0193324
0.0193244
0.0193167
0.0193109
0.0193067
0.0193052
0.0193019
0.0192952
0.019289
0.0192833
0.0192785
0.0192793
0.0192798
0.0192717
0.0192634
0.0192578
0.0192524
0.0192509
0.0192481
0.0192409
0.019236
0.0192331
0.0192293
0.0192248
0.0192203
0.0192159
0.0192117
0.0192074
0.0192032
0.0191987
0.0191942
0.0191898
0.0191859
0.019182
0.0191775
0.0191725
0.0191679
0.0191634
0.019159
0.0191547
0.0191503
0.0191458
0.0191412
0.0191365
0.0191317
0.0191271
0.0191227
0.0191186
0.0191148
0.0191112
0.0191078
0.0191044
0.0191011
0.0190977
0.0190943
0.0190908
0.0190872
0.0190835
0.0190797
0.019076
0.0190721
0.0190683
0.0190643
0.0190604
0.0190564
0.0190525
0.0190487
0.0190449
0.019041
0.0190373
0.0190336
0.0190299
0.0190262
0.0190225
0.0190189
0.0190154
0.0190119
0.0190083
0.0190049
0.0190014
0.0189979
0.0189945
0.018991
0.0189876
0.0189841
0.0189806
0.0189771
0.0189735
0.01897
0.0189665
0.0189629
0.0189594
0.0189558
0.0189523
0.0189488
0.0189452
0.0189417
0.0189382
0.0189346
0.0189311
0.0189275
0.018924
0.0189204
0.0189169
0.0189133
0.0189098
0.0189062
0.0189027
0.0188992
0.0188956
0.0188921
0.0188886
0.0188851
0.0188816
0.0188781
0.0188746
0.0188711
0.0188677
0.0188642
0.0188608
0.0188573
0.0188539
0.0188505
0.0188471
0.0188437
0.0188404
0.018837
0.0188337
0.0188303
0.018827
0.0188237
0.0188203
0.018817
0.0188137
0.0188104
0.0188071
0.0188038
0.0188005
0.0187972
0.0187939
0.0187906
0.0187872
0.0187839
0.0187806
0.0187773
0.018774
0.0187707
0.0187674
0.0187641
0.0187608
0.0187576
0.0187543
0.018751
0.0187477
0.0187444
0.0187411
0.0187378
0.0187345
0.0187312
0.0187279
0.0187247
0.0187214
0.0187181
0.0187149
0.0187116
0.0187084
0.0187051
0.0187019
0.0186987
0.0186955
0.0186923
0.0186892
0.018686
0.0186828
0.0186796
0.0186765
0.0186733
0.0186702
0.018667
0.0186639
0.0186607
0.0186575
0.0186543
0.0186511
0.0186478
0.0186446
0.0186413
0.018638
0.0186347
0.0186314
0.0186281
0.0186248
0.0186215
0.0186181
0.0186148
0.0186114
0.0186081
0.0186047
0.0186014
0.018598
0.0185947
0.0185914
0.018588
0.0185847
0.0185814
0.0185782
0.0185749
0.0185716
0.0185684
0.0185652
0.018562
0.0185588
0.0185556
0.0185525
0.0185493
0.0185462
0.0185431
0.01854
0.0185369
0.0185339
0.0185308
0.0185278
0.0185248
0.0185218
0.0185188
0.0185158
0.0185129
0.0185099
0.018507
0.0185041
0.0185013
0.0184985
0.0184957
0.0184929
0.0184901
0.0184874
0.0184847
0.0184821
0.0184795
0.0184769
0.0184743
0.0184717
0.0184691
0.0184665
0.0184638
0.0184611
0.0184583
0.0184554
0.0184523
0.0184492
0.0184458
0.0184423
0.0184386
0.0184348
0.0184308
0.0184266
0.0184223
0.0184179
0.0184133
0.0184087
0.0184041
0.0183994
0.0183947
0.01839
0.0183852
0.0183805
0.0183759
0.0183712
0.0183665
0.0183619
0.0183572
0.0183526
0.0183479
0.0183432
0.0183385
0.0183338
0.018329
0.0183242
0.0183193
0.0183143
0.0183092
0.0183041
0.0182989
0.0182935
0.0182881
0.0182826
0.018277
0.0182714
0.0182656
0.0182599
0.0182541
0.0182482
0.0182424
0.0182365
0.0182307
0.0182249
0.0182191
0.0182134
0.0182078
0.0182022
0.0181967
0.0181912
0.0181859
0.0181806
0.0181754
0.0181702
0.0181651
0.0181601
0.0181551
0.0181502
0.0181454
0.0181406
0.0181359
0.0181312
0.0181265
0.0181219
0.0181174
0.0181129
0.0181084
0.0181039
0.0180994
0.018095
0.0180906
0.0180861
0.0180817
0.0180772
0.0180727
0.0180682
0.0180637
0.0180591
0.0180545
0.0180499
0.0180451
0.0180404
0.0180356
0.0180308
0.0180259
0.018021
0.018016
0.0180111
0.0180059
0.018001
0.0179956
0.0179909
0.0179854
0.0179807
0.0179751
0.0179708
0.0179652
0.017961
0.0179557
0.0179518
0.0179471
0.017944
0.0179413
0.0179422
0.0179495
0.0179574
0.0179616
0.0179617
0.0179646
0.01797
0.0179789
0.0179891
0.017998
0.0180006
0.0179951
0.0179854
0.0197
0.0197
0.0197
0.0197
0.0197
0.0197
0.0197
0.0197
0.0197
0.0197
0.0197
0.0197
0.0197
0.0197
0.0197
0.0197
0.0197
0.0197
0.0197
0.0197
0.0197
0.0197
0.0197
0.0197
0.0197
0.0197
0.0197
0.0197
0.0197
0.0197
0.0197
0.0197
0.0197
0.0196999
0.0196999
0.0196999
0.0196999
0.0196999
0.0196999
0.0196999
0.0196998
0.0196998
0.0196998
0.0196998
0.0196997
0.0196997
0.0196997
0.0196996
0.0196996
0.0196995
0.0196995
0.0196994
0.0196993
0.0196993
0.0196992
0.0196991
0.019699
0.0196989
0.0196988
0.0196986
0.0196985
0.0196983
0.0196981
0.0196979
0.0196976
0.0196974
0.0196971
0.0196967
0.0196963
0.0196959
0.0196954
0.0196948
0.0196942
0.0196935
0.0196927
0.0196918
0.0196908
0.0196897
0.0196885
0.0196871
0.0196856
0.019684
0.0196823
0.0196803
0.0196783
0.019676
0.0196737
0.0196711
0.0196684
0.0196654
0.0196624
0.0196591
0.0196557
0.0196521
0.0196484
0.0196446
0.0196406
0.0196365
0.0196323
0.019628
0.0196237
0.0196192
0.0196147
0.0196101
0.0196055
0.0196008
0.0195961
0.0195912
0.0195864
0.0195817
0.0195764
0.019571
0.019567
0.0195625
0.0195558
0.0195504
0.0195466
0.019541
0.0195356
0.0195319
0.0195264
0.0195203
0.019517
0.0195128
0.0195044
0.0194972
0.0194949
0.0194945
0.0194906
0.0194813
0.0194726
0.0194691
0.0194671
0.0194632
0.019459
0.0194556
0.0194513
0.0194443
0.019437
0.0194342
0.0194356
0.0194326
0.0194247
0.0194204
0.0194169
0.0194102
0.0194055
0.0194039
0.0194016
0.0193983
0.0193934
0.0193865
0.0193839
0.019386
0.0193815
0.0193718
0.0193692
0.0193688
0.0193616
0.0193555
0.019355
0.019354
0.0193507
0.0193439
0.0193372
0.0193365
0.019333
0.0193235
0.0193197
0.01932
0.0193141
0.0193049
0.0193002
0.0192983
0.0192947
0.0192908
0.0192861
0.0192774
0.0192694
0.0192675
0.0192675
0.0192655
0.0192609
0.0192534
0.019246
0.0192402
0.0192365
0.019235
0.0192319
0.019226
0.0192201
0.0192149
0.019211
0.0192118
0.019212
0.0192052
0.0191974
0.0191919
0.0191871
0.0191853
0.0191826
0.0191767
0.0191722
0.0191694
0.0191661
0.0191621
0.019158
0.019154
0.0191501
0.0191461
0.0191422
0.0191381
0.019134
0.01913
0.0191266
0.0191231
0.0191192
0.0191149
0.019111
0.0191073
0.0191037
0.0191002
0.0190967
0.019093
0.0190891
0.0190851
0.0190808
0.0190767
0.0190726
0.0190687
0.0190651
0.0190618
0.0190586
0.0190555
0.0190525
0.0190495
0.0190464
0.0190433
0.01904
0.0190367
0.0190333
0.0190298
0.0190263
0.0190228
0.0190191
0.0190155
0.0190118
0.0190082
0.0190046
0.019001
0.0189973
0.0189938
0.0189902
0.0189867
0.0189831
0.0189796
0.018976
0.0189725
0.0189691
0.0189656
0.0189621
0.0189587
0.0189553
0.0189518
0.0189484
0.0189449
0.0189415
0.018938
0.0189345
0.0189311
0.0189276
0.0189241
0.0189206
0.0189172
0.0189137
0.0189103
0.0189068
0.0189034
0.0189
0.0188966
0.0188932
0.0188898
0.0188864
0.018883
0.0188796
0.0188762
0.0188728
0.0188694
0.0188661
0.0188627
0.0188594
0.018856
0.0188527
0.0188493
0.018846
0.0188427
0.0188394
0.0188361
0.0188328
0.0188295
0.0188262
0.018823
0.0188197
0.0188165
0.0188132
0.01881
0.0188068
0.0188037
0.0188005
0.0187973
0.0187941
0.018791
0.0187878
0.0187847
0.0187815
0.0187784
0.0187752
0.0187721
0.0187689
0.0187658
0.0187626
0.0187594
0.0187562
0.018753
0.0187498
0.0187466
0.0187434
0.0187402
0.018737
0.0187338
0.0187306
0.0187274
0.0187241
0.0187209
0.0187177
0.0187145
0.0187112
0.018708
0.0187048
0.0187015
0.0186983
0.0186951
0.0186919
0.0186887
0.0186854
0.0186822
0.0186791
0.0186759
0.0186727
0.0186696
0.0186664
0.0186633
0.0186602
0.0186571
0.018654
0.0186509
0.0186478
0.0186447
0.0186416
0.0186386
0.0186355
0.0186324
0.0186293
0.0186262
0.018623
0.0186199
0.0186167
0.0186135
0.0186103
0.0186071
0.0186038
0.0186005
0.0185972
0.0185939
0.0185906
0.0185873
0.018584
0.0185806
0.0185773
0.0185739
0.0185706
0.0185673
0.0185639
0.0185606
0.0185573
0.018554
0.0185508
0.0185475
0.0185443
0.018541
0.0185379
0.0185347
0.0185315
0.0185284
0.0185253
0.0185222
0.0185191
0.0185161
0.018513
0.01851
0.018507
0.018504
0.018501
0.0184981
0.0184951
0.0184922
0.0184893
0.0184863
0.0184835
0.0184806
0.0184777
0.0184749
0.0184721
0.0184693
0.0184665
0.0184637
0.018461
0.0184583
0.0184556
0.018453
0.0184503
0.0184477
0.018445
0.0184424
0.0184396
0.0184369
0.018434
0.018431
0.0184278
0.0184245
0.018421
0.0184173
0.0184133
0.0184092
0.0184047
0.0184001
0.0183952
0.0183902
0.018385
0.0183797
0.0183742
0.0183687
0.0183632
0.0183577
0.0183522
0.0183467
0.0183413
0.0183359
0.0183307
0.0183254
0.0183203
0.0183151
0.0183101
0.018305
0.0183
0.018295
0.01829
0.018285
0.01828
0.018275
0.0182699
0.0182647
0.0182595
0.0182542
0.0182489
0.0182434
0.0182379
0.0182323
0.0182266
0.0182208
0.018215
0.0182092
0.0182032
0.0181973
0.0181914
0.0181854
0.0181795
0.0181736
0.0181677
0.0181619
0.0181562
0.0181505
0.018145
0.0181395
0.018134
0.0181287
0.0181234
0.0181182
0.0181131
0.0181081
0.0181031
0.0180982
0.0180933
0.0180885
0.0180838
0.0180791
0.0180745
0.0180699
0.0180654
0.0180609
0.0180564
0.018052
0.0180475
0.0180431
0.0180387
0.0180343
0.0180299
0.0180255
0.0180211
0.0180167
0.0180122
0.0180077
0.0180031
0.0179985
0.0179939
0.0179892
0.0179845
0.0179797
0.0179749
0.01797
0.017965
0.0179602
0.017955
0.0179502
0.0179449
0.0179402
0.0179348
0.0179302
0.0179248
0.0179205
0.0179151
0.0179111
0.017906
0.0179023
0.0178979
0.0178954
0.0178935
0.0178956
0.0179043
0.0179138
0.0179208
0.0179229
0.017928
0.0179364
0.0179494
0.017965
0.0179802
0.01799
0.0179918
0.0179841
0.0197
0.0197
0.0197
0.0197
0.0197
0.0197
0.0197
0.0197
0.0197
0.0197
0.0197
0.0197
0.0197
0.0197
0.0197
0.0197
0.0197
0.0197
0.0197
0.0197
0.0197
0.0197
0.0197
0.0197
0.0197
0.0197
0.0197
0.0197
0.0196999
0.0196999
0.0196999
0.0196999
0.0196999
0.0196998
0.0196998
0.0196998
0.0196997
0.0196997
0.0196996
0.0196996
0.0196995
0.0196995
0.0196994
0.0196993
0.0196992
0.0196991
0.019699
0.0196989
0.0196987
0.0196986
0.0196984
0.0196982
0.019698
0.0196977
0.0196975
0.0196972
0.0196969
0.0196965
0.0196961
0.0196957
0.0196953
0.0196948
0.0196942
0.0196936
0.019693
0.0196922
0.0196914
0.0196905
0.0196894
0.0196883
0.019687
0.0196856
0.019684
0.0196822
0.0196803
0.0196782
0.0196759
0.0196735
0.0196708
0.019668
0.019665
0.0196618
0.0196585
0.019655
0.0196512
0.0196473
0.0196433
0.019639
0.0196345
0.0196299
0.0196251
0.0196202
0.0196151
0.0196099
0.0196046
0.0195992
0.0195938
0.0195882
0.0195827
0.0195771
0.0195714
0.0195658
0.0195602
0.0195545
0.0195489
0.0195433
0.0195377
0.019532
0.0195265
0.019521
0.0195151
0.0195092
0.0195044
0.0194991
0.0194923
0.0194864
0.0194817
0.0194758
0.0194701
0.0194654
0.0194596
0.0194534
0.0194492
0.0194441
0.0194355
0.019428
0.0194249
0.0194234
0.0194189
0.0194099
0.0194012
0.0193967
0.0193939
0.0193898
0.0193854
0.0193816
0.0193769
0.01937
0.0193632
0.0193601
0.0193603
0.019357
0.0193499
0.0193451
0.0193412
0.0193351
0.0193304
0.0193284
0.0193262
0.0193228
0.019318
0.0193119
0.0193095
0.0193104
0.0193062
0.0192982
0.0192952
0.0192939
0.0192878
0.0192823
0.0192815
0.0192807
0.0192777
0.0192718
0.019266
0.0192645
0.019261
0.0192531
0.0192494
0.0192488
0.0192435
0.0192354
0.0192307
0.0192286
0.0192256
0.0192219
0.019217
0.0192091
0.019202
0.0191998
0.0191997
0.0191981
0.0191938
0.0191869
0.0191799
0.0191744
0.0191711
0.0191694
0.0191665
0.0191613
0.0191559
0.0191512
0.0191482
0.0191488
0.0191487
0.019143
0.019136
0.0191306
0.0191263
0.0191244
0.0191219
0.019117
0.019113
0.0191104
0.0191075
0.019104
0.0191003
0.0190967
0.0190932
0.0190897
0.0190861
0.0190824
0.0190787
0.0190752
0.0190721
0.0190691
0.0190656
0.0190619
0.0190585
0.0190553
0.0190524
0.0190495
0.0190467
0.0190436
0.0190404
0.0190369
0.0190332
0.0190295
0.0190258
0.0190222
0.0190189
0.0190158
0.0190129
0.0190102
0.0190075
0.0190048
0.019002
0.0189991
0.0189962
0.0189932
0.01899
0.0189868
0.0189835
0.0189802
0.0189768
0.0189733
0.0189699
0.0189664
0.0189629
0.0189595
0.018956
0.0189526
0.0189491
0.0189457
0.0189422
0.0189387
0.0189352
0.0189317
0.0189283
0.0189248
0.0189214
0.0189179
0.0189145
0.0189111
0.0189077
0.0189042
0.0189008
0.0188973
0.0188939
0.0188904
0.018887
0.0188836
0.0188801
0.0188767
0.0188734
0.01887
0.0188667
0.0188633
0.01886
0.0188568
0.0188535
0.0188502
0.018847
0.0188437