/*--------------------------------*- C++ -*----------------------------------*\
| =========                 |                                                 |
| \\      /  F ield         | foam-extend: Open Source CFD                    |
|  \\    /   O peration     | Version:     3.2                                |
|   \\  /    A nd           | Web:         http://www.foam-extend.org         |
|    \\/     M anipulation  | For copyright notice see file Copyright         |
\*---------------------------------------------------------------------------*/
FoamFile
{
    version     2.0;
    format      ascii;
    class       areaScalarField;
    location    "910";
    object      Cpost;
}
// * * * * * * * * * * * * * * * * * * * * * * * * * * * * * * * * * * * * * //

dimensions      [1 -3 0 0 0 0 0];

internalField   nonuniform List<scalar> 
550
(
0.0197
0.0197
0.0197
0.0197
0.0197
0.0197
0.0197
0.0197
0.0197
0.0197
0.0197
0.0197
0.0197
0.0197
0.0197
0.0197
0.0197
0.0197
0.0197
0.0197
0.0197
0.0197
0.0197
0.0197
0.0197
0.0197
0.0197
0.0197
0.0197
0.0197
0.0197
0.0197
0.0197
0.0197
0.0197
0.0197
0.0197
0.0197
0.0197
0.0197
0.0197
0.0197
0.0197
0.0197
0.0197
0.0197
0.0197
0.0197
0.0197
0.0197
0.0197
0.0197
0.0197
0.0197
0.0197
0.0197
0.0197
0.0197
0.0197
0.0197
0.0197
0.0197
0.0197
0.0197
0.0197
0.0197
0.0197
0.0197
0.0196999
0.0196999
0.0196999
0.0196999
0.0196999
0.0196999
0.0196999
0.0196999
0.0196998
0.0196998
0.0196998
0.0196997
0.0196997
0.0196996
0.0196996
0.0196995
0.0196994
0.0196994
0.0196993
0.0196991
0.019699
0.0196989
0.0196987
0.0196985
0.0196983
0.019698
0.0196978
0.0196974
0.0196971
0.0196967
0.0196963
0.0196959
0.0196954
0.0196948
0.0196942
0.0196936
0.0196928
0.0196921
0.0196912
0.0196903
0.0196893
0.0196887
0.0197002
0.0197256
0.0197401
0.0197544
0.0197667
0.0197788
0.0197901
0.0197955
0.0198064
0.0198197
0.0198178
0.019829
0.0198307
0.0198322
0.019825
0.0198311
0.019837
0.0198448
0.0198373
0.0198292
0.0198276
0.0198304
0.0198264
0.0198283
0.0198232
0.019818
0.0198067
0.0198003
0.0197959
0.0197936
0.019799
0.0197819
0.0197777
0.0197747
0.0197693
0.0197729
0.0197675
0.0197632
0.0197604
0.0197532
0.0197497
0.0197392
0.0197385
0.0197413
0.019724
0.019716
0.0197169
0.019711
0.0196976
0.0196976
0.0196978
0.0196882
0.019683
0.0196674
0.0196635
0.0196724
0.0196544
0.0196448
0.0196427
0.019638
0.0196255
0.0196176
0.019618
0.0196122
0.0196061
0.0195986
0.0195964
0.0195821
0.0195806
0.0195805
0.0195701
0.0195663
0.0195544
0.0195409
0.0195457
0.019535
0.0195338
0.0195302
0.0195239
0.0195183
0.019514
0.0195045
0.0195002
0.019498
0.0194878
0.0194681
0.01947
0.0194593
0.0194618
0.0194627
0.0194529
0.019449
0.0194474
0.0194457
0.0194418
0.0194378
0.0194339
0.01943
0.0194258
0.0194211
0.019416
0.0194101
0.0194032
0.0193956
0.0193878
0.0193766
0.0193635
0.0193511
0.0193386
0.0193267
0.0193153
0.0193049
0.0192959
0.0192885
0.0192827
0.0192781
0.0192746
0.0192714
0.0192687
0.0192656
0.0192627
0.0192593
0.0192559
0.019252
0.0192482
0.0192439
0.0192398
0.0192349
0.0192303
0.0192254
0.0192205
0.0192152
0.0192094
0.0192048
0.0191999
0.0191957
0.0191912
0.019186
0.0191818
0.0191777
0.0191735
0.0191697
0.0191656
0.019162
0.0191587
0.0191554
0.0191519
0.0191482
0.0191444
0.0191409
0.0191372
0.0191332
0.0191293
0.0191255
0.0191221
0.0191186
0.0191152
0.0191118
0.0191083
0.0191048
0.0191014
0.0190979
0.0190944
0.0190909
0.0190873
0.0190835
0.0190797
0.0190759
0.0190719
0.0190679
0.0190639
0.0190598
0.0190557
0.0190516
0.0190474
0.0190431
0.0190389
0.0190346
0.0190303
0.0190259
0.0190216
0.0190173
0.0190131
0.0190088
0.0190045
0.0190002
0.018996
0.0189919
0.0189877
0.0189836
0.0189794
0.0189753
0.0189712
0.0189671
0.018963
0.018959
0.0189549
0.0189509
0.018947
0.0189431
0.0189392
0.0189353
0.0189315
0.0189277
0.0189239
0.0189201
0.0189164
0.0189127
0.0189091
0.0189055
0.0189019
0.0188983
0.0188947
0.0188912
0.0188876
0.0188841
0.0188806
0.018877
0.0188735
0.01887
0.0188665
0.018863
0.0188595
0.018856
0.0188524
0.0188488
0.0188452
0.0188416
0.018838
0.0188344
0.0188308
0.0188272
0.0188236
0.0188201
0.0188165
0.0188129
0.0188094
0.0188059
0.0188024
0.018799
0.0187956
0.0187921
0.0187886
0.018785
0.0187815
0.0187779
0.0187744
0.0187709
0.0187675
0.0187641
0.0187607
0.0187573
0.018754
0.0187507
0.0187475
0.0187443
0.0187411
0.018738
0.0187349
0.0187318
0.0187286
0.0187253
0.0187221
0.0187188
0.0187156
0.0187123
0.0187091
0.0187058
0.0187026
0.0186994
0.0186961
0.0186929
0.0186897
0.0186864
0.0186831
0.0186798
0.0186764
0.018673
0.0186696
0.0186662
0.0186628
0.0186594
0.018656
0.0186525
0.0186492
0.0186458
0.0186425
0.0186392
0.018636
0.0186327
0.0186295
0.0186264
0.0186233
0.0186202
0.0186171
0.0186141
0.0186111
0.0186081
0.0186052
0.0186023
0.0185994
0.0185966
0.0185938
0.0185911
0.0185883
0.0185856
0.018583
0.0185804
0.0185778
0.0185752
0.0185727
0.0185702
0.0185677
0.0185652
0.0185627
0.0185603
0.0185578
0.0185554
0.0185529
0.0185505
0.018548
0.0185455
0.0185429
0.0185403
0.0185377
0.018535
0.0185323
0.0185295
0.0185267
0.0185238
0.0185209
0.018518
0.018515
0.0185119
0.0185089
0.0185057
0.0185025
0.0184993
0.0184961
0.0184927
0.0184894
0.0184859
0.0184824
0.0184789
0.0184752
0.0184715
0.0184677
0.0184638
0.0184598
0.0184556
0.0184514
0.0184471
0.0184426
0.0184381
0.0184334
0.0184287
0.0184238
0.0184189
0.018414
0.018409
0.0184039
0.0183989
0.0183938
0.0183888
0.0183837
0.0183787
0.0183738
0.0183687
0.0183637
0.0183587
0.0183537
0.0183488
0.0183439
0.018339
0.0183343
0.0183295
0.0183249
0.0183202
0.0183157
0.0183111
0.0183067
0.0183022
0.0182978
0.0182934
0.018289
0.0182846
0.0182803
0.0182759
0.0182715
0.0182671
0.0182627
0.0182583
0.0182538
0.0182493
0.0182448
0.0182403
0.0182357
0.018231
0.0182264
0.0182217
0.0182169
0.0182122
0.0182074
0.0182026
0.0181977
0.0181929
0.018188
0.0181831
0.0181782
0.0181731
0.0181685
0.0181628
0.0181585
0.0181518
0.0181476
0.0181399
0.0181358
0.0181274
0.0181233
0.0181149
0.0181107
0.0181039
0.0180989
0.0180943
0.0180873
0.018079
0.0180689
0.0180546
0.0180396
0.018039
0.0180376
0.0180356
0.0180338
0.0180321
0.0180307
0.0180293
0.0180177
0.017994
0.0179889
0.0179874
)
;

boundaryField
{
    inlet
    {
        type            calculated;
        value           uniform 0;
    }
    endWall
    {
        type            calculated;
        value           uniform 0;
    }
    sideWall
    {
        type            empty;
    }
}


// ************************************************************************* //
