/*--------------------------------*- C++ -*----------------------------------*\
| =========                 |                                                 |
| \\      /  F ield         | foam-extend: Open Source CFD                    |
|  \\    /   O peration     | Version:     3.2                                |
|   \\  /    A nd           | Web:         http://www.foam-extend.org         |
|    \\/     M anipulation  | For copyright notice see file Copyright         |
\*---------------------------------------------------------------------------*/
FoamFile
{
    version     2.0;
    format      ascii;
    class       areaScalarField;
    location    "910";
    object      He;
}
// * * * * * * * * * * * * * * * * * * * * * * * * * * * * * * * * * * * * * //

dimensions      [0 0 0 0 0 0 0];

internalField   nonuniform List<scalar> 
550
(
0
0
0
0
0
0
0
0
0
0
0
0
0
0
0
0
0
0
0
0
0
0
0
0
0
0
0
0
0
0
0
0
0
0
0
0
0
0
0
0
0
0
0
0
0
0
0
0
0
0
0
0
0
0
0
0
0
0
0
0
0
0
0
0
0
0
0
0
0
0
0
0
0
0
0
0
0
0
0
0
0
0
0
0
0
0
0
0
0
0
0
0
0
0
0
0
0
0
0
0
0
0
0
0
0
0
0
0
0
0
0
1.50039e-06
1.23063e-06
0
2.32445e-06
7.54442e-06
3.36447e-06
3.63708e-07
2.92588e-07
8.90044e-07
1.20185e-06
1.20177e-06
0
0
0
1.93751e-05
9.26733e-06
1.14748e-06
0
0
0
1.83453e-05
7.8151e-06
2.94108e-06
9.58657e-07
0
0
0
1.38867e-05
7.06513e-06
1.78667e-06
8.57276e-07
0
0
0
0
8.92475e-06
4.90396e-06
7.2783e-07
0
0
0
8.65583e-06
7.23285e-07
0
0
1.02452e-05
4.93224e-06
1.5472e-06
1.69986e-05
9.47822e-06
1.51505e-06
9.74239e-07
9.14354e-07
4.37841e-07
0
0
0
8.61768e-06
8.58394e-07
0
0
1.51825e-05
6.92216e-06
3.83116e-06
1.91317e-06
1.82681e-06
1.62541e-06
1.79728e-05
5.93007e-06
1.08108e-06
2.60454e-07
2.5316e-07
0
0
0
9.3505e-06
5.14203e-06
2.02659e-06
1.12503e-06
1.13393e-06
1.11564e-06
1.64019e-07
0
0
0
1.12171e-05
5.74487e-06
4.66159e-06
3.31405e-06
4.70244e-07
4.04043e-05
2.3947e-05
2.67488e-05
2.77185e-05
2.41191e-05
2.11056e-05
1.62986e-05
1.94472e-05
1.77347e-05
1.26807e-05
1.2226e-05
1.18655e-05
0
0
0
0
1.63836e-05
9.22555e-06
3.9596e-06
2.28675e-06
1.16676e-06
8.5645e-07
6.81786e-07
6.09455e-07
5.16304e-07
4.99594e-07
4.2492e-07
4.33225e-07
3.8618e-07
3.80506e-07
8.07123e-07
7.54865e-07
2.13875e-08
0
0
0
0
0
0
0
0
0
0
0
0
0
0
0
0
0
0
0
0
0
0
0
0
0
0
0
0
0
0
0
0
0
0
0
0
0
0
0
0
2.76157e-08
3.17717e-08
3.77088e-08
5.07011e-08
6.60217e-08
7.83052e-08
9.41427e-08
1.07721e-07
1.03998e-07
8.87682e-08
7.41738e-08
6.42853e-08
6.15478e-08
6.32096e-08
6.33056e-08
6.19763e-08
5.75086e-08
4.54943e-08
3.20654e-08
2.37981e-08
1.77232e-08
9.85612e-09
3.57732e-09
9.49886e-10
5.27488e-11
0
0
0
0
0
0
0
0
0
0
0
0
0
0
0
0
0
0
0
0
0
0
0
0
0
0
0
0
0
0
0
0
0
1.66448e-10
2.12906e-06
2.22452e-06
2.29e-06
2.34713e-06
2.39031e-06
2.4296e-06
2.47541e-06
6.25502e-06
6.44698e-06
6.63165e-06
6.81572e-06
6.994e-06
7.17164e-06
7.34201e-06
7.505e-06
7.6587e-06
7.79591e-06
7.89213e-06
7.95888e-06
8.03829e-06
8.13352e-06
8.20576e-06
8.23071e-06
8.23678e-06
8.25186e-06
8.28464e-06
8.32886e-06
8.37541e-06
8.41484e-06
8.44037e-06
8.4531e-06
8.45944e-06
8.4665e-06
8.47885e-06
8.49858e-06
8.52667e-06
8.56224e-06
8.60286e-06
8.64694e-06
8.69366e-06
8.74315e-06
8.79657e-06
8.85637e-06
8.92597e-06
9.00756e-06
9.10164e-06
9.20649e-06
9.32184e-06
9.44793e-06
9.57619e-06
9.69841e-06
9.816e-06
9.92911e-06
1.00338e-05
1.01305e-05
1.0224e-05
1.03159e-05
1.04065e-05
1.04976e-05
1.059e-05
1.06818e-05
1.07703e-05
1.0857e-05
1.09451e-05
1.10351e-05
1.68289e-05
1.68497e-05
1.68643e-05
1.68681e-05
1.68573e-05
1.68287e-05
1.67792e-05
1.67058e-05
1.66056e-05
1.64761e-05
1.63145e-05
1.61186e-05
1.58871e-05
1.56198e-05
1.53157e-05
1.49731e-05
1.45909e-05
9.4187e-06
9.12452e-06
8.80697e-06
8.46579e-06
8.10237e-06
7.71959e-06
7.32191e-06
6.91506e-06
6.50517e-06
6.09863e-06
5.70145e-06
5.31869e-06
4.9548e-06
4.6136e-06
4.29779e-06
4.00862e-06
3.74574e-06
3.50788e-06
3.29302e-06
0
0
0
0
0
0
0
0
0
0
0
0
0
0
0
0
0
0
0
0
0
0
0
0
0
0
0
0
0
0
0
0
0
0
0
0
0
0
0
0
0
0
0
0
0
0
0
0
0
0
0
0
0
0
0
0
1.24857e-06
1.10902e-06
9.63146e-07
8.17983e-07
0
0
0
0
0
0
0
0
0
0
0
0
0
0
2.37697e-05
2.45359e-05
2.52114e-05
2.57915e-05
2.62889e-05
2.67454e-05
2.71446e-05
2.7481e-05
2.7703e-05
2.79468e-05
2.80818e-05
2.81633e-05
2.81081e-05
2.80649e-05
2.78749e-05
2.83018e-05
2.80763e-05
2.76932e-05
2.73257e-05
2.68063e-05
2.63707e-05
2.57834e-05
2.53686e-05
2.48337e-05
2.44964e-05
2.42491e-05
2.35057e-05
2.27927e-05
2.08995e-05
1.85785e-05
1.30974e-05
4.23982e-06
0
0
0
0
0
0
0
0
0
0
)
;

boundaryField
{
    inlet
    {
        type            calculated;
        value           uniform 0;
    }
    endWall
    {
        type            calculated;
        value           uniform 0;
    }
    sideWall
    {
        type            empty;
    }
}


// ************************************************************************* //
