/*--------------------------------*- C++ -*----------------------------------*\
| =========                 |                                                 |
| \\      /  F ield         | foam-extend: Open Source CFD                    |
|  \\    /   O peration     | Version:     3.2                                |
|   \\  /    A nd           | Web:         http://www.foam-extend.org         |
|    \\/     M anipulation  | For copyright notice see file Copyright         |
\*---------------------------------------------------------------------------*/
FoamFile
{
    version     2.0;
    format      ascii;
    class       volScalarField;
    location    "910";
    object      k;
}
// * * * * * * * * * * * * * * * * * * * * * * * * * * * * * * * * * * * * * //

dimensions      [0 2 -2 0 0 0 0];

internalField   nonuniform List<scalar> 
33000
(
0.000163512
0.0002258
0.000301515
0.000389985
0.00048908
0.000595409
0.000704944
0.000813159
0.000916071
0.00101002
0.00109263
0.00116227
0.00121855
0.00126163
0.00129241
0.001312
0.00132189
0.00132359
0.00131866
0.00130887
0.00129529
0.0012788
0.00126018
0.00124009
0.00121914
0.00119781
0.00117651
0.00115562
0.00113542
0.00111591
0.00109715
0.00107919
0.00106209
0.0010459
0.00103061
0.00101621
0.00100269
0.000990002
0.000978106
0.000966957
0.000956516
0.000946743
0.000937603
0.000929063
0.000921095
0.00091367
0.000906763
0.000900344
0.00089438
0.000888837
0.000883672
0.000878849
0.000874329
0.000870075
0.000866058
0.00086225
0.000858631
0.000855188
0.000851915
0.000848805
0.00084585
0.000843044
0.000840378
0.000837842
0.000835428
0.000833125
0.000830926
0.000828823
0.000826808
0.000824878
0.000823026
0.000821246
0.000819529
0.000817866
0.000816245
0.000814657
0.00081309
0.000811534
0.000809979
0.000808417
0.000806847
0.000805268
0.000803681
0.000802092
0.000800507
0.000798933
0.000797382
0.000795862
0.000794381
0.000792945
0.000791559
0.000790221
0.000788927
0.000787668
0.000786437
0.000785225
0.000784025
0.000782832
0.000781641
0.000780445
0.000779246
0.000778043
0.000776833
0.000775613
0.000774379
0.000773128
0.000771854
0.000770566
0.000769249
0.000767898
0.000766554
0.000765157
0.000763758
0.00076244
0.000761049
0.000759536
0.000758274
0.000756783
0.000755317
0.000753884
0.000752407
0.000750886
0.000749347
0.000747992
0.000746464
0.000744861
0.00074336
0.000742059
0.000740701
0.000739157
0.000737603
0.000736058
0.000734653
0.000733138
0.000731655
0.000730173
0.000728741
0.00072727
0.000725685
0.000723996
0.000722718
0.000721347
0.000719775
0.000718358
0.000716867
0.000715414
0.000713854
0.000712305
0.000710891
0.000709459
0.000708087
0.000706529
0.000705027
0.000703796
0.000702448
0.000700928
0.000699556
0.000698249
0.000696888
0.000695468
0.0006941
0.000692853
0.000691625
0.00069032
0.000688971
0.000687797
0.000686575
0.000685198
0.000683979
0.000682881
0.000681665
0.00068043
0.000679269
0.00067809
0.000676983
0.000675926
0.000674957
0.000673963
0.000672873
0.000671797
0.00067077
0.000669801
0.000668897
0.000667996
0.000667066
0.000666011
0.000665102
0.000664318
0.000663352
0.00066237
0.000661545
0.000660722
0.000659955
0.000659319
0.000658686
0.000657957
0.000657284
0.000656563
0.000655966
0.000655396
0.000654715
0.000654281
0.000653853
0.000653368
0.000653046
0.000652724
0.00065252
0.00065203
0.000651554
0.000651131
0.000650488
0.000649976
0.000649386
0.00064874
0.000647506
0.000646799
0.000647519
0.000648437
0.000649544
0.000650763
0.000651943
0.000653132
0.000654235
0.000655356
0.000656419
0.000657513
0.000658566
0.00065962
0.000660629
0.000661597
0.000662505
0.000663338
0.000664075
0.000664747
0.000665267
0.000665782
0.000666067
0.000666459
0.000666641
0.000666724
0.000666541
0.000666734
0.000666678
0.000665971
0.000665683
0.000665058
0.000665243
0.00066519
0.000664568
0.000664288
0.000663904
0.00066354
0.000663186
0.000662511
0.00066203
0.00066179
0.00066164
0.000661419
0.000661106
0.000660753
0.000660621
0.000660329
0.000659791
0.000659097
0.000658397
0.000657699
0.00065699
0.000656353
0.000655715
0.00065504
0.000654443
0.000653895
0.000653369
0.000652955
0.000652608
0.000652284
0.000651998
0.00065182
0.000651687
0.000651538
0.000651393
0.000651319
0.00065133
0.000651376
0.000651436
0.000651486
0.000651566
0.000651668
0.000651769
0.000651851
0.000651921
0.00065199
0.000652061
0.000652123
0.000652161
0.000652175
0.000652167
0.000652156
0.000652155
0.00065216
0.000652167
0.000652175
0.000652167
0.000652145
0.000652114
0.000652069
0.000652016
0.000651952
0.00065188
0.000651798
0.000651707
0.00065161
0.000651505
0.000651394
0.000651276
0.000651153
0.000651026
0.000650898
0.000650772
0.000650652
0.000650538
0.000650434
0.000650338
0.000650252
0.000650176
0.000650111
0.000650056
0.000650011
0.000649976
0.00064995
0.000649933
0.000649926
0.000649927
0.000649948
0.000649993
0.00065006
0.000650144
0.000650242
0.000650353
0.000650475
0.000650609
0.000650756
0.000650913
0.00065108
0.000651253
0.000651431
0.000651608
0.000651782
0.000651949
0.0006521
0.000652235
0.000652356
0.000652457
0.000652518
0.000652549
0.000652533
0.000652464
0.000652347
0.00065218
0.000651965
0.000651718
0.000651435
0.000651112
0.00065076
0.000650387
0.00064999
0.000649589
0.000649214
0.00064888
0.000648577
0.000648284
0.000647991
0.000647693
0.000647392
0.00064709
0.000646786
0.000646483
0.000646186
0.000645899
0.000645624
0.00064537
0.000645142
0.000644943
0.000644775
0.000644638
0.000644526
0.000644433
0.000644351
0.000644275
0.000644199
0.000644121
0.000644038
0.000643949
0.00064385
0.000643743
0.000643628
0.000643504
0.000643374
0.000643238
0.000643098
0.000642956
0.000642813
0.00064267
0.000642526
0.000642383
0.000642241
0.0006421
0.00064196
0.000641821
0.000641681
0.000641539
0.000641395
0.000641248
0.000641099
0.000640946
0.000640789
0.000640629
0.000640463
0.000640294
0.000640118
0.000639937
0.000639752
0.000639562
0.00063937
0.000639174
0.000638975
0.000638775
0.000638574
0.000638374
0.000638174
0.000637975
0.000637779
0.000637587
0.000637398
0.000637213
0.000637032
0.000636856
0.000636685
0.000636519
0.000636358
0.0006362
0.000636046
0.000635895
0.00063575
0.000635611
0.000635476
0.000635348
0.000635227
0.000635111
0.000635
0.000634895
0.000634795
0.0006347
0.000634608
0.000634521
0.000634435
0.000634349
0.000634265
0.000634181
0.000634096
0.000634009
0.00063392
0.000633829
0.000633736
0.000633642
0.000633548
0.000633454
0.000633363
0.000633276
0.000633196
0.000633126
0.00063307
0.000633029
0.000633003
0.000633003
0.000633023
0.000633082
0.000633188
0.000633343
0.000633536
0.000633765
0.000634021
0.0006343
0.000634602
0.000634925
0.000635264
0.000635617
0.00063598
0.000636348
0.000636718
0.000637087
0.000637454
0.000637815
0.000638169
0.000638513
0.00063885
0.000639177
0.000639494
0.000639799
0.000640096
0.000640383
0.000640666
0.000640944
0.00064122
0.000641494
0.000641769
0.000642043
0.000642322
0.000642602
0.000642887
0.000643175
0.000643472
0.000643772
0.000644083
0.000644385
0.000644743
0.000645011
0.00064545
0.000645665
0.000646263
0.000646339
0.000647207
0.000647114
0.000648332
0.000648142
0.000649623
0.00064936
0.000650828
0.000650535
0.000651502
0.000651268
0.000651072
0.000650977
0.000649174
0.000648972
0.000645245
0.000643117
0.000632142
0.000611429
0.000530172
0.000437414
0.000393002
0.00034424
0.000297488
0.000234703
0.000158931
9.3063e-05
8.59671e-05
0.000139303
0.000226755
0.000113266
0.000116874
0.000122893
0.000130629
0.000141062
0.000153271
0.000166817
0.000181343
0.000196899
0.000212924
0.000229459
0.000245651
0.00026142
0.000276403
0.000290735
0.000304633
0.000318343
0.000332485
0.000347411
0.000363273
0.000380538
0.000399225
0.000417453
0.000435723
0.000454486
0.000474164
0.000495094
0.000516753
0.000537821
0.000558265
0.000577988
0.000596902
0.000614945
0.000632073
0.000648265
0.000663514
0.000677837
0.000691246
0.000703767
0.000715411
0.000726206
0.000736165
0.000745327
0.00075372
0.000761402
0.000768431
0.000774929
0.000780945
0.000786528
0.000791719
0.000796542
0.000801016
0.000805136
0.000808904
0.000812315
0.000815364
0.000818054
0.0008204
0.000822427
0.000824158
0.000825626
0.000826845
0.00082784
0.000828624
0.000829217
0.00082963
0.000829878
0.000829972
0.000829931
0.000829771
0.000829513
0.000829184
0.000828801
0.000828386
0.000827945
0.000827482
0.00082699
0.000826458
0.00082587
0.000825211
0.000824466
0.000823625
0.000822683
0.000821632
0.00082048
0.000819228
0.000817897
0.000816498
0.000815055
0.000813586
0.000812115
0.000810647
0.000809198
0.000807755
0.00080631
0.00080484
0.000803341
0.000801788
0.000800195
0.000798536
0.000796844
0.000795104
0.000793338
0.000791538
0.000789712
0.000787842
0.000785947
0.000783984
0.000781982
0.000779974
0.000777841
0.000775709
0.000773581
0.000771371
0.000769075
0.000766881
0.000764562
0.000762321
0.000759985
0.000757804
0.000755584
0.000753322
0.000751083
0.000748868
0.000746584
0.000744435
0.000742387
0.000740301
0.000738125
0.000735874
0.000733847
0.00073175
0.000729691
0.000727719
0.000725763
0.000723861
0.000722046
0.000720094
0.000718199
0.000716509
0.000714882
0.000712946
0.000711037
0.000709325
0.000707796
0.00070616
0.000704698
0.000703373
0.000702023
0.000700643
0.000699144
0.00069774
0.000696547
0.000695307
0.000693861
0.000692465
0.000691446
0.000690386
0.000689043
0.000687843
0.00068679
0.000685719
0.000684551
0.000683403
0.000682325
0.000681372
0.000680327
0.00067928
0.000678404
0.000677608
0.000676633
0.00067576
0.000675053
0.000674373
0.000673617
0.00067291
0.000672226
0.000671372
0.000670579
0.000670013
0.000669376
0.000668743
0.000668065
0.000667332
0.000666739
0.00066634
0.000665756
0.00066529
0.000664905
0.000664369
0.000664005
0.000663669
0.000663154
0.000662822
0.000662495
0.000661989
0.000661667
0.000661465
0.000661209
0.000661155
0.000660954
0.000660464
0.000660444
0.000660657
0.000660712
0.000660751
0.000660596
0.000660595
0.000660567
0.000660536
0.000660647
0.000660699
0.000660704
0.000660709
0.000661148
0.000661579
0.000661178
0.000661004
0.000660854
0.000660839
0.000660901
0.000661074
0.000661271
0.000661528
0.000661781
0.000662104
0.000662403
0.000662796
0.00066303
0.000663388
0.000663581
0.000663927
0.00066419
0.000664534
0.000664915
0.000665179
0.000665611
0.000665813
0.00066609
0.000666225
0.000666729
0.000666689
0.000666737
0.000667212
0.000667396
0.000668225
0.000668037
0.000667968
0.00066853
0.000668547
0.00066876
0.000668822
0.000668911
0.000669257
0.000669514
0.00066957
0.000669455
0.000669477
0.000669642
0.000669737
0.00066933
0.000669309
0.000669182
0.000669306
0.000669197
0.000669171
0.000669105
0.000668979
0.000668866
0.000668768
0.000668658
0.000668522
0.000668447
0.00066833
0.000668157
0.000668019
0.000667906
0.000667692
0.000667469
0.000667284
0.000667209
0.000667064
0.000666821
0.000666573
0.00066635
0.000666177
0.000665968
0.00066574
0.000665532
0.000665372
0.000665213
0.000665047
0.000664877
0.000664728
0.000664582
0.000664454
0.000664349
0.000664246
0.00066412
0.000663985
0.000663843
0.000663714
0.000663588
0.000663508
0.000663403
0.000663333
0.00066324
0.000663176
0.000663092
0.000663031
0.000662956
0.0006629
0.000662834
0.000662786
0.000662732
0.000662694
0.000662653
0.000662618
0.000662586
0.000662566
0.000662539
0.00066252
0.000662496
0.000662478
0.000662456
0.000662439
0.000662416
0.000662397
0.000662376
0.000662357
0.000662343
0.00066233
0.000662333
0.000662322
0.000662305
0.000662271
0.000662244
0.000662217
0.000662201
0.000662192
0.000662189
0.000662191
0.000662195
0.000662207
0.000662219
0.000662236
0.000662255
0.000662278
0.000662302
0.000662343
0.000662378
0.000662412
0.00066243
0.000662465
0.000662479
0.000662482
0.000662491
0.000662486
0.000662486
0.000662494
0.000662488
0.000662478
0.000662479
0.000662471
0.000662448
0.000662429
0.000662417
0.00066239
0.000662332
0.000662258
0.000662182
0.000662116
0.000662048
0.00066198
0.000661906
0.000661835
0.000661763
0.00066169
0.000661619
0.000661548
0.000661475
0.000661395
0.000661316
0.000661225
0.000661123
0.000661007
0.000660887
0.000660762
0.000660635
0.000660507
0.000660376
0.00066024
0.000660099
0.000659957
0.000659813
0.00065967
0.000659524
0.000659378
0.000659235
0.000659096
0.000658959
0.000658828
0.000658698
0.000658575
0.000658455
0.000658339
0.000658225
0.000658118
0.00065801
0.000657908
0.000657806
0.00065771
0.000657613
0.000657514
0.000657416
0.000657313
0.00065721
0.000657098
0.000656985
0.000656867
0.000656744
0.000656617
0.000656486
0.000656349
0.000656212
0.000656071
0.000655927
0.00065578
0.000655631
0.000655485
0.000655338
0.000655195
0.000655053
0.000654916
0.000654782
0.000654654
0.00065453
0.000654411
0.000654293
0.000654182
0.000654073
0.000653966
0.000653867
0.000653767
0.000653673
0.000653584
0.000653501
0.000653422
0.000653347
0.000653274
0.000653203
0.000653131
0.000653059
0.000652987
0.000652906
0.000652824
0.000652735
0.000652639
0.000652531
0.000652418
0.000652295
0.000652169
0.000652031
0.000651892
0.000651745
0.000651592
0.000651439
0.000651281
0.000651128
0.000650979
0.000650841
0.000650713
0.000650608
0.000650526
0.000650467
0.000650444
0.000650432
0.000650422
0.000650406
0.000650403
0.000650408
0.000650446
0.000650508
0.000650603
0.000650713
0.00065085
0.000650992
0.000651156
0.000651319
0.000651501
0.000651677
0.000651869
0.000652052
0.000652251
0.000652438
0.000652635
0.000652815
0.000653005
0.000653175
0.000653359
0.000653525
0.000653712
0.00065388
0.000654077
0.000654253
0.000654462
0.000654645
0.000654865
0.000655063
0.000655304
0.000655522
0.000655793
0.000656035
0.000656356
0.000656659
0.000656979
0.000657392
0.000657653
0.000658117
0.00065824
0.000658865
0.000658716
0.000659586
0.000659081
0.000660156
0.000659284
0.000660472
0.000659317
0.000660411
0.000659186
0.00065981
0.000658819
0.000658424
0.00065732
0.000655294
0.000651055
0.000644885
0.00062582
0.000606227
0.000605629
0.00061412
0.000610917
0.000601292
0.000581881
0.000540552
0.000512001
0.000432856
0.000245872
0.000190536
0.000266422
0.000111179
0.000111676
0.000112837
0.000114205
0.000115744
0.000117358
0.000119072
0.000120811
0.00012268
0.000124488
0.000126393
0.000128274
0.000130006
0.000131641
0.000133204
0.000134746
0.00013636
0.000138081
0.00013998
0.000142113
0.000144548
0.000147368
0.000150589
0.00015427
0.000158473
0.000163305
0.000168905
0.000175367
0.000182744
0.000191172
0.000200747
0.000211552
0.000223686
0.00023632
0.00024918
0.000262243
0.000275492
0.000288909
0.000302473
0.000316156
0.000329922
0.000343709
0.000357475
0.000371175
0.000384782
0.000398253
0.000411341
0.000424062
0.000436434
0.000448488
0.000460245
0.000471724
0.000482922
0.000493827
0.000504413
0.000514642
0.000524473
0.000533876
0.000542816
0.00055129
0.000559302
0.0005669
0.000574099
0.000580916
0.000587366
0.000593474
0.000599261
0.000604746
0.000609945
0.000614865
0.000619522
0.000623925
0.000628089
0.000632026
0.000635752
0.000639273
0.000642604
0.000645748
0.000648709
0.000651485
0.000654072
0.000656469
0.000658675
0.000660689
0.000662512
0.000664146
0.000665591
0.000666852
0.000667929
0.000668833
0.000669567
0.000670146
0.000670577
0.000670896
0.000671105
0.000671194
0.000671101
0.000670867
0.00067051
0.00067006
0.000669525
0.000668927
0.000668272
0.00066756
0.000666791
0.000665989
0.000665104
0.000664231
0.000663241
0.000662292
0.000661231
0.000660203
0.000659074
0.000657881
0.000656454
0.000655085
0.000653569
0.000652228
0.000650568
0.000649159
0.000647635
0.00064604
0.000644616
0.000642986
0.000641508
0.00063992
0.000638475
0.00063706
0.000635559
0.00063407
0.000632663
0.000631278
0.000629849
0.000628591
0.000627251
0.000626006
0.00062473
0.000623583
0.000622286
0.000621318
0.000620193
0.000619069
0.000617855
0.000616969
0.000615956
0.000615021
0.000614119
0.000613287
0.000612483
0.000611728
0.000610873
0.000610099
0.000609429
0.00060885
0.000608038
0.000607345
0.000606851
0.000606409
0.000605723
0.000605227
0.00060475
0.000604424
0.000604
0.000603469
0.000603086
0.000602799
0.000602456
0.000602089
0.000601909
0.000601716
0.000601477
0.000601306
0.000601286
0.000601277
0.000601199
0.000601119
0.000601021
0.000600833
0.000600744
0.000600843
0.000600955
0.000601001
0.000601046
0.000601033
0.000601139
0.000601405
0.000601549
0.000601749
0.0006021
0.000602316
0.000602593
0.000603014
0.000603254
0.00060365
0.000604166
0.000604468
0.00060487
0.000605351
0.000605717
0.000606494
0.000607195
0.000607388
0.000607863
0.00060853
0.000609091
0.000609658
0.00061012
0.000610786
0.000611379
0.000611978
0.000612747
0.00061342
0.000614081
0.000614859
0.000616048
0.000617528
0.000617956
0.000618319
0.000618646
0.00061882
0.00061914
0.000619452
0.000619956
0.000620494
0.000621094
0.000621675
0.00062222
0.000622738
0.000623233
0.000623745
0.000624222
0.000624734
0.000625219
0.000625744
0.000626281
0.000626827
0.000627419
0.000627944
0.000628446
0.000628999
0.00062967
0.00063
0.000630372
0.000631147
0.000631641
0.000632493
0.000632681
0.000632957
0.000633692
0.000634043
0.000634515
0.00063489
0.000635186
0.00063578
0.00063628
0.000636614
0.000636817
0.000637007
0.000637227
0.000637623
0.00063771
0.000637793
0.000637913
0.000638212
0.000638439
0.000638662
0.000638876
0.000639061
0.000639167
0.000639454
0.00063962
0.000639803
0.000639979
0.000640135
0.00064022
0.000640366
0.000640508
0.000640573
0.000640625
0.000640682
0.000640798
0.00064088
0.0006409
0.000640887
0.000640849
0.00064082
0.000640797
0.000640744
0.000640686
0.000640634
0.000640594
0.000640563
0.000640503
0.000640442
0.000640384
0.000640339
0.000640311
0.000640273
0.000640223
0.000640173
0.00064011
0.000640056
0.000640008
0.000639969
0.00063993
0.000639893
0.000639859
0.00063983
0.000639806
0.000639788
0.000639775
0.000639768
0.000639765
0.000639769
0.000639777
0.000639794
0.000639817
0.000639846
0.000639884
0.000639924
0.000639966
0.000640011
0.000640057
0.000640102
0.000640148
0.000640192
0.000640233
0.000640273
0.00064031
0.000640346
0.000640382
0.000640418
0.00064046
0.000640499
0.000640534
0.000640563
0.00064059
0.000640615
0.000640645
0.000640676
0.000640712
0.000640746
0.000640783
0.000640819
0.000640853
0.000640886
0.000640918
0.00064095
0.000640976
0.000641007
0.000641041
0.000641067
0.000641086
0.000641109
0.000641129
0.000641143
0.000641162
0.000641178
0.000641194
0.00064122
0.000641244
0.000641262
0.000641292
0.000641331
0.000641367
0.000641412
0.000641477
0.000641535
0.000641569
0.000641578
0.00064158
0.000641587
0.000641599
0.000641617
0.000641636
0.000641658
0.000641684
0.000641712
0.000641738
0.000641768
0.000641798
0.000641822
0.000641841
0.000641849
0.000641841
0.000641819
0.000641781
0.000641733
0.000641674
0.000641611
0.000641541
0.000641463
0.000641378
0.000641289
0.000641196
0.000641102
0.000641007
0.000640913
0.000640821
0.000640733
0.000640648
0.000640567
0.00064049
0.000640419
0.000640352
0.00064029
0.000640232
0.00064018
0.000640128
0.000640081
0.000640035
0.000639991
0.000639948
0.000639901
0.000639854
0.000639802
0.000639744
0.000639679
0.000639606
0.000639527
0.000639439
0.000639345
0.000639243
0.000639134
0.000639021
0.000638905
0.000638788
0.000638669
0.000638549
0.000638431
0.000638316
0.000638206
0.0006381
0.000637999
0.000637905
0.000637816
0.000637734
0.000637658
0.000637586
0.000637518
0.000637457
0.000637401
0.000637351
0.000637309
0.000637271
0.000637242
0.000637219
0.0006372
0.000637185
0.000637172
0.000637161
0.000637146
0.000637127
0.000637104
0.000637071
0.000637027
0.000636976
0.000636911
0.000636832
0.000636741
0.000636636
0.00063652
0.000636389
0.000636248
0.000636098
0.000635937
0.000635772
0.000635603
0.000635435
0.000635273
0.000635123
0.000634988
0.000634877
0.000634795
0.000634742
0.000634729
0.000634752
0.000634798
0.000634863
0.000634945
0.000635049
0.000635175
0.000635328
0.000635502
0.000635696
0.000635905
0.000636125
0.00063635
0.000636579
0.000636804
0.000637028
0.000637244
0.000637456
0.000637661
0.000637863
0.000638056
0.000638245
0.000638425
0.000638604
0.000638778
0.000638953
0.000639128
0.000639306
0.000639484
0.000639667
0.000639852
0.000640041
0.000640233
0.00064043
0.000640639
0.000640858
0.000641094
0.000641347
0.000641614
0.000641922
0.00064222
0.000642599
0.000642895
0.00064336
0.000643581
0.000644158
0.000644171
0.000644959
0.000644658
0.000645601
0.000644953
0.000645892
0.000644962
0.00064568
0.000644632
0.000644776
0.000643819
0.000642868
0.000641709
0.000639534
0.000637204
0.000630947
0.000626836
0.000607829
0.000624549
0.000635703
0.000642347
0.000649016
0.000649559
0.000635333
0.000624202
0.000607484
0.000476037
0.000292748
0.000312801
0.000111011
0.000111217
0.000111809
0.000112481
0.000113186
0.000113865
0.000114422
0.000114785
0.000114984
0.000115097
0.000115117
0.000115079
0.000114968
0.000114795
0.000114566
0.000114283
0.000113969
0.000113633
0.000113288
0.000112926
0.000112569
0.000112225
0.000111903
0.000111618
0.000111393
0.000111257
0.000111248
0.000111405
0.000111761
0.000112354
0.000113221
0.000114394
0.000115909
0.000117761
0.000119945
0.000122477
0.000125372
0.000128646
0.000132325
0.000136428
0.000141001
0.000146097
0.000151746
0.000157988
0.000164842
0.00017235
0.000180332
0.000188473
0.000196773
0.000205262
0.000213951
0.000222875
0.000232047
0.000241464
0.000251126
0.000261003
0.000271053
0.00028123
0.00029145
0.00030165
0.000311788
0.000321712
0.000331424
0.000340924
0.000350204
0.00035928
0.000368154
0.00037682
0.000385286
0.000393532
0.000401553
0.000409357
0.000416937
0.000424308
0.000431479
0.000438448
0.000445235
0.000451843
0.000458269
0.000464519
0.000470574
0.000476428
0.000482079
0.00048751
0.000492716
0.000497686
0.000502398
0.000506855
0.000511044
0.000514959
0.000518606
0.000521994
0.000525134
0.000527966
0.000530521
0.000532853
0.000534983
0.000536944
0.00053876
0.000540454
0.000542032
0.000543498
0.000544861
0.000546112
0.000547282
0.000548368
0.000549376
0.000550338
0.000551204
0.000552039
0.000552804
0.000553471
0.000554086
0.00055463
0.000554917
0.000555207
0.000555375
0.000555462
0.00055532
0.000555204
0.000555071
0.000554772
0.000554572
0.000554186
0.000553864
0.000553438
0.000553045
0.000552697
0.000552229
0.000551832
0.000551428
0.00055103
0.00055057
0.000550232
0.00054979
0.000549411
0.000549004
0.000548784
0.000548371
0.000548212
0.000547906
0.000547678
0.000547344
0.000547254
0.000547062
0.000546908
0.000546725
0.000546625
0.000546563
0.000546546
0.000546359
0.000546334
0.000546292
0.000546374
0.0005463
0.000546312
0.000546436
0.000546622
0.000546731
0.000546918
0.000547178
0.000547496
0.000547779
0.000547953
0.00054822
0.000548633
0.00054895
0.000549248
0.000549735
0.000550198
0.000550678
0.000551152
0.000551699
0.000552311
0.000552837
0.000553364
0.000553874
0.000554399
0.000554975
0.000555698
0.000556483
0.000557147
0.000557845
0.00055856
0.000559272
0.000560142
0.000561028
0.000561873
0.000562828
0.000563772
0.00056471
0.000565804
0.000566807
0.000567869
0.000569039
0.000570063
0.000571135
0.00057231
0.000573429
0.000574774
0.00057619
0.000577236
0.000578336
0.000579483
0.000580569
0.000581701
0.000582795
0.000584084
0.0005853
0.000586464
0.000587755
0.000588978
0.000590227
0.00059159
0.000593318
0.000595344
0.000596532
0.000597631
0.000598664
0.000599486
0.000600352
0.000601145
0.000602084
0.00060306
0.000604101
0.000605105
0.00060608
0.000606977
0.000607873
0.000608712
0.000609552
0.000610344
0.00061114
0.000611906
0.000612708
0.000613478
0.000614305
0.000615077
0.000615848
0.000616634
0.000617523
0.000618198
0.000618827
0.00061977
0.000620498
0.000621477
0.000621999
0.000622528
0.000623372
0.000623929
0.000624537
0.000625096
0.000625567
0.000626284
0.000626861
0.000627354
0.000627779
0.000628134
0.000628465
0.000628968
0.000629263
0.000629519
0.000629813
0.000630188
0.000630595
0.000630962
0.000631347
0.000631705
0.000631996
0.000632421
0.000632762
0.000633133
0.000633505
0.000633848
0.000634133
0.000634443
0.000634768
0.000635044
0.000635284
0.000635547
0.000635816
0.000636077
0.000636283
0.000636464
0.000636617
0.00063676
0.000636904
0.000637027
0.000637126
0.000637219
0.000637316
0.000637414
0.000637485
0.00063754
0.000637591
0.000637648
0.000637706
0.00063776
0.000637803
0.000637843
0.000637877
0.000637909
0.000637939
0.00063797
0.000637999
0.000638027
0.000638057
0.000638087
0.000638121
0.000638157
0.000638198
0.000638241
0.000638291
0.000638345
0.000638406
0.000638472
0.000638548
0.000638628
0.000638716
0.000638808
0.000638904
0.000639002
0.000639104
0.000639204
0.000639306
0.000639404
0.0006395
0.000639594
0.000639685
0.000639773
0.000639858
0.000639943
0.000640029
0.000640113
0.000640196
0.00064028
0.000640363
0.000640447
0.000640534
0.000640623
0.000640716
0.00064081
0.000640906
0.000641002
0.000641095
0.000641183
0.000641268
0.000641349
0.000641421
0.000641491
0.00064156
0.000641618
0.000641668
0.000641715
0.000641758
0.000641795
0.000641831
0.000641866
0.000641895
0.000641928
0.000641961
0.000641984
0.000642016
0.000642061
0.000642107
0.000642165
0.000642242
0.00064232
0.000642381
0.000642421
0.000642456
0.000642496
0.000642544
0.000642599
0.000642658
0.000642722
0.000642793
0.000642868
0.000642944
0.000643024
0.000643107
0.000643186
0.00064326
0.000643323
0.00064337
0.000643404
0.000643421
0.000643425
0.000643414
0.000643394
0.000643365
0.000643326
0.000643278
0.000643222
0.000643161
0.000643097
0.000643033
0.00064297
0.00064291
0.000642855
0.000642804
0.000642759
0.00064272
0.000642688
0.000642663
0.000642642
0.000642629
0.00064262
0.000642615
0.000642614
0.000642613
0.000642613
0.000642612
0.000642606
0.000642596
0.00064258
0.000642555
0.00064252
0.000642472
0.000642414
0.000642343
0.000642263
0.000642173
0.000642076
0.000641973
0.000641869
0.000641765
0.000641662
0.000641562
0.000641465
0.000641376
0.000641293
0.000641218
0.000641152
0.000641094
0.000641044
0.000641002
0.000640965
0.000640933
0.000640907
0.000640889
0.000640879
0.000640878
0.000640888
0.000640905
0.000640933
0.000640967
0.000641006
0.000641049
0.000641093
0.000641137
0.000641177
0.000641209
0.000641233
0.000641244
0.000641238
0.000641219
0.000641182
0.000641128
0.000641056
0.000640966
0.000640859
0.000640735
0.000640594
0.000640441
0.000640275
0.000640102
0.000639924
0.000639747
0.000639577
0.000639422
0.000639285
0.000639177
0.000639104
0.000639071
0.000639085
0.000639146
0.000639249
0.000639392
0.000639571
0.000639789
0.000640039
0.000640324
0.000640635
0.000640971
0.000641322
0.000641688
0.000642053
0.00064242
0.000642774
0.000643119
0.000643447
0.000643763
0.000644061
0.000644351
0.000644624
0.000644891
0.000645144
0.000645399
0.000645644
0.000645892
0.000646134
0.00064638
0.000646619
0.000646861
0.000647092
0.000647326
0.00064755
0.000647777
0.000648005
0.000648245
0.000648495
0.000648769
0.000649053
0.000649386
0.000649712
0.00065012
0.000650474
0.000650984
0.000651307
0.000651915
0.000652102
0.000652833
0.000652781
0.000653605
0.000653243
0.000654068
0.000653363
0.000653916
0.000652949
0.000652992
0.000651873
0.000651118
0.000649741
0.000647819
0.000645382
0.000640239
0.000636036
0.000622619
0.00063558
0.000648398
0.000657983
0.000668332
0.000677113
0.00067824
0.000676591
0.000688464
0.00063108
0.000448506
0.000365301
0.00011104
0.000111225
0.00011176
0.000112348
0.00011293
0.000113471
0.000113908
0.000114254
0.000114476
0.000114559
0.000114507
0.000114385
0.000114186
0.000113937
0.00011364
0.000113304
0.000112926
0.000112515
0.000112072
0.0001116
0.0001111
0.000110576
0.000110032
0.000109474
0.000108906
0.000108336
0.000107773
0.000107226
0.000106705
0.000106219
0.00010578
0.000105391
0.000105064
0.000104806
0.000104624
0.000104527
0.000104524
0.000104628
0.000104863
0.000105247
0.000105785
0.000106479
0.000107335
0.000108365
0.000109583
0.000111005
0.000112642
0.00011449
0.000116553
0.000118851
0.000121395
0.000124215
0.000127332
0.000130757
0.000134505
0.000138581
0.000142993
0.00014775
0.000152856
0.000158317
0.000164135
0.000170266
0.000176697
0.000183418
0.000190403
0.000197656
0.000205159
0.000212858
0.000220615
0.00022842
0.000236269
0.000244166
0.000252101
0.000260078
0.000268098
0.00027614
0.00028421
0.000292291
0.000300366
0.000308422
0.000316427
0.00032436
0.000332207
0.000339943
0.000347551
0.000355016
0.000362305
0.000369414
0.000376321
0.000382999
0.000389441
0.000395634
0.00040158
0.000407287
0.000412758
0.00041801
0.000423047
0.000427874
0.0004325
0.000436941
0.000441187
0.000445232
0.0004491
0.000452796
0.000456356
0.000459762
0.000463049
0.000466192
0.0004692
0.000472057
0.000474779
0.000477314
0.000479743
0.000482
0.000484056
0.000485989
0.000487806
0.000489359
0.000490827
0.000492149
0.000493373
0.000494434
0.000495486
0.000496386
0.000497163
0.000497904
0.000498626
0.000499356
0.000499949
0.000500542
0.000501118
0.000501691
0.000502156
0.000502682
0.000503127
0.00050357
0.000504034
0.000504555
0.000504969
0.000505511
0.000506029
0.000506525
0.000506943
0.000507441
0.00050795
0.000508427
0.000508887
0.000509411
0.000509969
0.00051053
0.000511019
0.000511562
0.000512149
0.00051279
0.000513357
0.000513946
0.000514646
0.000515403
0.00051612
0.000516857
0.000517706
0.000518558
0.000519411
0.00052018
0.000521028
0.000522005
0.000522876
0.00052374
0.000524764
0.000525785
0.000526813
0.000527803
0.000528868
0.000529997
0.000531059
0.000532126
0.000533191
0.000534272
0.000535388
0.000536617
0.000537931
0.00053916
0.000540421
0.000541685
0.000542955
0.000544366
0.000545836
0.000547259
0.000548776
0.0005503
0.000551812
0.000553468
0.000555094
0.00055673
0.000558449
0.000560077
0.000561728
0.000563487
0.000565211
0.000567052
0.00056898
0.000570684
0.000572339
0.000573995
0.000575607
0.000577252
0.000578865
0.000580595
0.000582304
0.000583938
0.000585628
0.000587268
0.00058896
0.000590711
0.00059279
0.000595111
0.000596892
0.000598583
0.000600176
0.000601577
0.000602953
0.000604236
0.000605587
0.000606924
0.000608342
0.000609708
0.000611069
0.000612341
0.000613587
0.000614757
0.000615891
0.000616961
0.000618012
0.000619024
0.000620042
0.000621034
0.000622043
0.000623008
0.000623961
0.00062492
0.00062596
0.000626825
0.000627667
0.0006287
0.000629588
0.000630645
0.00063136
0.000632029
0.00063293
0.000633632
0.000634351
0.000635022
0.0006356
0.000636355
0.000637021