/*--------------------------------*- C++ -*----------------------------------*\
| =========                 |                                                 |
| \\      /  F ield         | foam-extend: Open Source CFD                    |
|  \\    /   O peration     | Version:     3.2                                |
|   \\  /    A nd           | Web:         http://www.foam-extend.org         |
|    \\/     M anipulation  | For copyright notice see file Copyright         |
\*---------------------------------------------------------------------------*/
FoamFile
{
    version     2.0;
    format      ascii;
    class       volScalarField;
    location    "910";
    object      Ktemp;
}
// * * * * * * * * * * * * * * * * * * * * * * * * * * * * * * * * * * * * * //

dimensions      [0 2 -2 0 0 0 0];

internalField   nonuniform List<scalar> 
33000
(
0.000163512
0.0002258
0.000301515
0.000389985
0.00048908
0.000595409
0.000704944
0.00081316
0.000916072
0.00101003
0.00109263
0.00116228
0.00121856
0.00126164
0.00129241
0.00131201
0.0013219
0.0013236
0.00131866
0.00130888
0.0012953
0.00127881
0.00126018
0.0012401
0.00121915
0.00119782
0.00117652
0.00115563
0.00113542
0.00111592
0.00109715
0.0010792
0.0010621
0.0010459
0.00103061
0.00101622
0.0010027
0.000990008
0.000978112
0.000966962
0.00095652
0.000946747
0.000937606
0.000929066
0.000921097
0.000913673
0.000906766
0.000900348
0.000894385
0.000888842
0.000883678
0.000878855
0.000874334
0.00087008
0.000866061
0.000862252
0.000858633
0.000855189
0.000851917
0.000848807
0.000845853
0.000843047
0.000840382
0.000837846
0.000835433
0.000833131
0.000830933
0.00082883
0.000826816
0.000824886
0.000823035
0.000821255
0.000819538
0.000817875
0.000816254
0.000814666
0.000813098
0.000811541
0.000809984
0.000808421
0.00080685
0.000805269
0.000803682
0.000802091
0.000800505
0.000798931
0.000797381
0.000795861
0.000794381
0.000792946
0.00079156
0.000790223
0.000788929
0.000787671
0.00078644
0.000785228
0.000784029
0.000782835
0.000781644
0.000780448
0.000779249
0.000778046
0.000776836
0.000775615
0.000774381
0.00077313
0.000771856
0.000770568
0.000769252
0.000767902
0.000766549
0.000765164
0.00076379
0.000762448
0.000761032
0.000759543
0.00075828
0.00075675
0.000755308
0.000753905
0.000752374
0.000750853
0.000749392
0.00074802
0.000746404
0.000744818
0.000743389
0.000742083
0.000740732
0.000739181
0.000737549
0.000736017
0.000734685
0.000733159
0.000731665
0.00073022
0.000728767
0.000727193
0.000725626
0.000724031
0.000722733
0.000721346
0.000719795
0.000718395
0.000716885
0.000715338
0.000713791
0.000712332
0.000710907
0.000709457
0.000708089
0.00070652
0.000705031
0.000703808
0.000702452
0.000700926
0.000699582
0.000698273
0.000696829
0.000695412
0.00069412
0.000692863
0.000691617
0.000690323
0.000688977
0.000687806
0.000686575
0.000685192
0.000683981
0.00068289
0.000681667
0.000680426
0.000679271
0.0006781
0.000676994
0.000675954
0.000674981
0.000673916
0.000672825
0.000671814
0.000670778
0.000669796
0.000668903
0.000668004
0.000667069
0.00066601
0.000665107
0.000664327
0.000663362
0.000662397
0.000661566
0.000660674
0.000659909
0.000659338
0.00065869
0.000657942
0.000657287
0.000656571
0.000655969
0.000655396
0.000654719
0.000654286
0.000653855
0.000653369
0.000653046
0.000652725
0.00065252
0.00065203
0.000651552
0.000651129
0.000650485
0.000649974
0.000649384
0.000648736
0.0006475
0.000646793
0.000647516
0.000648437
0.000649545
0.000650765
0.000651944
0.000653131
0.000654233
0.000655353
0.000656416
0.00065751
0.000658563
0.000659617
0.000660626
0.000661594
0.000662502
0.000663335
0.000664072
0.000664744
0.000665264
0.000665778
0.000666063
0.000666454
0.000666637
0.00066672
0.000666537
0.000666731
0.000666675
0.000665969
0.000665681
0.000665056
0.000665242
0.000665189
0.000664567
0.000664287
0.000663904
0.000663539
0.000663186
0.000662511
0.00066203
0.000661791
0.00066164
0.00066142
0.000661107
0.000660754
0.000660623
0.000660331
0.000659793
0.000659099
0.000658399
0.000657701
0.000656992
0.000656356
0.000655718
0.000655043
0.000654445
0.000653897
0.000653372
0.000652957
0.00065261
0.000652286
0.000652
0.000651822
0.000651688
0.000651539
0.000651394
0.000651319
0.00065133
0.000651376
0.000651435
0.000651486
0.000651565
0.000651667
0.000651767
0.000651849
0.000651919
0.000651988
0.000652059
0.00065212
0.000652157
0.000652171
0.000652163
0.000652152
0.000652151
0.000652157
0.000652164
0.000652171
0.000652164
0.000652142
0.00065211
0.000652066
0.000652013
0.000651949
0.000651877
0.000651795
0.000651705
0.000651607
0.000651502
0.000651391
0.000651273
0.00065115
0.000651024
0.000650896
0.00065077
0.00065065
0.000650536
0.000650431
0.000650335
0.00065025
0.000650173
0.000650108
0.000650053
0.000650008
0.000649973
0.000649947
0.000649931
0.000649923
0.000649924
0.000649946
0.000649991
0.000650058
0.000650142
0.000650241
0.000650351
0.000650473
0.000650608
0.000650755
0.000650913
0.00065108
0.000651254
0.000651432
0.000651609
0.000651783
0.000651951
0.000652102
0.000652238
0.000652358
0.00065246
0.000652521
0.000652552
0.000652537
0.000652467
0.00065235
0.000652183
0.000651968
0.000651721
0.000651438
0.000651116
0.000650763
0.00065039
0.000649994
0.000649593
0.000649218
0.000648883
0.00064858
0.000648288
0.000647994
0.000647697
0.000647396
0.000647093
0.000646789
0.000646486
0.000646189
0.000645902
0.000645627
0.000645373
0.000645145
0.000644945
0.000644777
0.00064464
0.000644528
0.000644434
0.000644352
0.000644276
0.0006442
0.000644121
0.000644038
0.000643948
0.000643849
0.000643742
0.000643626
0.000643503
0.000643372
0.000643236
0.000643095
0.000642953
0.00064281
0.000642666
0.000642522
0.000642379
0.000642237
0.000642096
0.000641956
0.000641816
0.000641676
0.000641534
0.00064139
0.000641243
0.000641094
0.000640941
0.000640784
0.000640624
0.000640458
0.000640289
0.000640113
0.000639932
0.000639747
0.000639558
0.000639365
0.000639169
0.00063897
0.00063877
0.00063857
0.000638371
0.000638171
0.000637972
0.000637776
0.000637584
0.000637395
0.00063721
0.00063703
0.000636854
0.000636684
0.000636519
0.000636357
0.000636199
0.000636046
0.000635896
0.000635751
0.000635612
0.000635478
0.00063535
0.000635229
0.000635113
0.000635003
0.000634897
0.000634798
0.000634702
0.000634611
0.000634524
0.000634438
0.000634352
0.000634268
0.000634184
0.000634098
0.000634011
0.000633922
0.000633832
0.000633739
0.000633644
0.00063355
0.000633456
0.000633365
0.000633278
0.000633197
0.000633128
0.000633072
0.000633031
0.000633005
0.000633004
0.000633024
0.000633084
0.00063319
0.000633345
0.000633538
0.000633767
0.000634023
0.000634303
0.000634605
0.000634927
0.000635267
0.00063562
0.000635983
0.00063635
0.000636721
0.000637089
0.000637456
0.000637817
0.000638171
0.000638515
0.000638852
0.000639179
0.000639495
0.0006398
0.000640098
0.000640386
0.000640668
0.000640946
0.000641223
0.000641497
0.000641773
0.000642047
0.000642327
0.000642607
0.000642892
0.00064318
0.000643478
0.000643779
0.00064409
0.000644391
0.00064475
0.000645018
0.000645457
0.000645673
0.00064627
0.000646347
0.000647215
0.000647122
0.00064834
0.00064815
0.000649631
0.000649368
0.000650835
0.000650543
0.000651509
0.000651274
0.000651078
0.000650983
0.000649179
0.000648977
0.000645249
0.00064312
0.000632145
0.000611431
0.000530174
0.000437415
0.000393002
0.00034424
0.000297487
0.000234701
0.000158931
9.3063e-05
8.59675e-05
0.000139303
0.000226755
0.000113266
0.000116874
0.000122893
0.000130628
0.000141061
0.000153271
0.000166817
0.000181343
0.000196899
0.000212924
0.000229458
0.000245651
0.000261419
0.000276402
0.000290734
0.000304633
0.000318343
0.000332485
0.000347411
0.000363273
0.000380538
0.000399225
0.000417453
0.000435722
0.000454484
0.000474164
0.000495094
0.000516754
0.000537823
0.000558267
0.000577989
0.000596903
0.000614945
0.000632073
0.000648264
0.000663514
0.000677837
0.000691247
0.000703769
0.000715414
0.000726208
0.000736167
0.000745327
0.000753719
0.0007614
0.000768428
0.000774925
0.000780941
0.000786526
0.000791718
0.000796544
0.000801019
0.00080514
0.000808908
0.000812319
0.000815368
0.000818056
0.000820401
0.000822427
0.000824156
0.000825623
0.000826841
0.000827836
0.00082862
0.000829214
0.000829626
0.000829874
0.000829968
0.000829927
0.000829768
0.000829512
0.000829184
0.000828803
0.00082839
0.00082795
0.00082749
0.000826999
0.000826468
0.00082588
0.00082522
0.000824474
0.00082363
0.000822687
0.000821633
0.000820479
0.000819225
0.000817892
0.000816491
0.000815048
0.000813579
0.000812109
0.000810643
0.000809195
0.000807753
0.000806309
0.00080484
0.000803341
0.000801788
0.000800195
0.000798537
0.000796846
0.000795106
0.000793341
0.000791542
0.000789716
0.000787847
0.000785951
0.000783988
0.000781986
0.000779976
0.000777841
0.000775716
0.000773588
0.000771342
0.000769049
0.000766902
0.000764573
0.000762318
0.000760024
0.000757821
0.000755558
0.000753352
0.000751135
0.00074881
0.000746511
0.000744494
0.000742456
0.000740305
0.000738092
0.000735807
0.000733777
0.000731819
0.000729761
0.000727711
0.000725742
0.000723854
0.000721985
0.000720029
0.000718283
0.000716602
0.000714874
0.000712914
0.000711034
0.0007093
0.000707724
0.000706099
0.000704786
0.000703465
0.000702021
0.000700613
0.000699124
0.000697701
0.000696555
0.000695335
0.000693848
0.000692423
0.00069145
0.000690359
0.000689025
0.000687922
0.000686854
0.0006857
0.000684513
0.000683398
0.00068233
0.000681386
0.000680319
0.000679247
0.000678412
0.000677634
0.000676624
0.000675734
0.000675051
0.00067438
0.00067362
0.000672913
0.000672191
0.000671346
0.000670641
0.000670072
0.000669369
0.000668716
0.000668073
0.000667332
0.000666727
0.000666314
0.000665754
0.0006653
0.000664912
0.000664355
0.000663971
0.00066365
0.000663226
0.000662894
0.000662478
0.000661942
0.000661659
0.00066147
0.000661216
0.000661165
0.000660951
0.000660458
0.000660448
0.000660665
0.000660717
0.000660754
0.000660597
0.000660595
0.000660568
0.000660537
0.000660648
0.000660699
0.000660703
0.000660707
0.000661146
0.000661578
0.000661175
0.000661
0.000660849
0.000660836
0.000660899
0.000661073
0.000661271
0.000661528
0.000661781
0.000662105
0.000662403
0.000662797
0.000663031
0.000663388
0.000663581
0.000663927
0.000664191
0.000664535
0.000664916
0.00066518
0.000665611
0.000665814
0.00066609
0.000666225
0.000666729
0.00066669
0.000666738
0.000667213
0.000667397
0.000668226
0.000668038
0.000667969
0.000668531
0.000668548
0.000668761
0.000668824
0.000668913
0.000669259
0.000669516
0.000669572
0.000669457
0.000669478
0.000669643
0.000669738
0.000669331
0.000669311
0.000669184
0.000669307
0.000669198
0.000669172
0.000669106
0.00066898
0.000668867
0.000668769
0.000668659
0.000668523
0.000668448
0.000668331
0.000668157
0.00066802
0.000667906
0.000667692
0.00066747
0.000667284
0.000667209
0.000667064
0.000666821
0.000666573
0.00066635
0.000666177
0.000665968
0.00066574
0.000665531
0.000665371
0.000665212
0.000665045
0.000664875
0.000664726
0.00066458
0.000664452
0.000664347
0.000664244
0.000664117
0.000663982
0.00066384
0.000663711
0.000663586
0.000663506
0.000663401
0.000663331
0.000663238
0.000663175
0.00066309
0.00066303
0.000662955
0.000662898
0.000662833
0.000662785
0.000662732
0.000662693
0.000662652
0.000662618
0.000662586
0.000662566
0.000662538
0.00066252
0.000662496
0.000662478
0.000662456
0.000662438
0.000662416
0.000662397
0.000662376
0.000662357
0.000662343
0.00066233
0.000662333
0.000662322
0.000662305
0.000662271
0.000662245
0.000662217
0.000662202
0.000662192
0.00066219
0.000662192
0.000662196
0.000662208
0.00066222
0.000662237
0.000662256
0.000662279
0.000662303
0.000662344
0.000662379
0.000662413
0.000662431
0.000662466
0.00066248
0.000662483
0.000662491
0.000662486
0.000662486
0.000662494
0.000662488
0.000662478
0.000662479
0.000662471
0.000662448
0.000662429
0.000662417
0.00066239
0.000662332
0.000662258
0.000662182
0.000662116
0.000662048
0.00066198
0.000661906
0.000661835
0.000661763
0.00066169
0.000661619
0.000661548
0.000661474
0.000661395
0.000661316
0.000661225
0.000661122
0.000661007
0.000660886
0.000660761
0.000660634
0.000660506
0.000660375
0.000660239
0.000660097
0.000659956
0.000659811
0.000659668
0.000659523
0.000659376
0.000659234
0.000659094
0.000658958
0.000658827
0.000658697
0.000658574
0.000658454
0.000658339
0.000658225
0.000658118
0.00065801
0.000657908
0.000657806
0.00065771
0.000657613
0.000657514
0.000657417
0.000657314
0.00065721
0.000657098
0.000656985
0.000656867
0.000656745
0.000656617
0.000656486
0.00065635
0.000656213
0.000656071
0.000655928
0.000655781
0.000655632
0.000655485
0.000655339
0.000655196
0.000655053
0.000654917
0.000654783
0.000654655
0.000654531
0.000654412
0.000654294
0.000654183
0.000654074
0.000653967
0.000653868
0.000653768
0.000653674
0.000653586
0.000653502
0.000653423
0.000653348
0.000653276
0.000653204
0.000653133
0.00065306
0.000652988
0.000652907
0.000652825
0.000652736
0.000652639
0.000652531
0.000652418
0.000652295
0.000652168
0.00065203
0.00065189
0.000651743
0.000651591
0.000651437
0.000651279
0.000651126
0.000650977
0.000650839
0.000650712
0.000650607
0.000650526
0.000650467
0.000650444
0.000650433
0.000650423
0.000650407
0.000650405
0.00065041
0.000650448
0.000650511
0.000650606
0.000650716
0.000650853
0.000650995
0.00065116
0.000651322
0.000651504
0.00065168
0.000651872
0.000652055
0.000652254
0.000652441
0.000652638
0.000652817
0.000653007
0.000653176
0.00065336
0.000653526
0.000653712
0.000653881
0.000654077
0.000654253
0.000654462
0.000654645
0.000654866
0.000655063
0.000655305
0.000655523
0.000655794
0.000656037
0.000656358
0.000656661
0.000656982
0.000657395
0.000657656
0.00065812
0.000658242
0.000658867
0.000658718
0.000659588
0.000659083
0.000660158
0.000659286
0.000660473
0.000659318
0.000660412
0.000659187
0.000659811
0.000658819
0.000658424
0.000657319
0.000655293
0.000651053
0.000644883
0.000625819
0.000606226
0.000605628
0.000614118
0.000610914
0.000601289
0.000581878
0.00054055
0.000512001
0.000432852
0.00024587
0.000190536
0.000266422
0.000111179
0.000111676
0.000112837
0.000114205
0.000115744
0.000117358
0.000119072
0.000120811
0.00012268
0.000124488
0.000126392
0.000128274
0.000130005
0.00013164
0.000133204
0.000134746
0.00013636
0.000138081
0.00013998
0.000142114
0.000144548
0.000147368
0.000150588
0.000154269
0.000158472
0.000163304
0.000168905
0.000175367
0.000182745
0.000191173
0.000200749
0.000211553
0.000223687
0.00023632
0.000249179
0.000262241
0.00027549
0.000288908
0.000302473
0.000316157
0.000329925
0.000343712
0.000357479
0.000371178
0.000384783
0.000398252
0.000411338
0.000424057
0.000436429
0.000448483
0.000460241
0.000471722
0.000482922
0.000493829
0.000504416
0.000514646
0.000524478
0.00053388
0.000542819
0.000551291
0.000559301
0.000566899
0.000574096
0.000580912
0.000587361
0.000593469
0.000599257
0.000604741
0.00060994
0.000614861
0.000619517
0.000623921
0.000628086
0.000632024
0.000635751
0.000639274
0.000642606
0.000645752
0.000648714
0.000651491
0.000654078
0.000656476
0.000658681
0.000660695
0.000662517
0.000664151
0.000665594
0.000666854
0.000667929
0.000668832
0.000669564
0.000670142
0.000670572
0.00067089
0.000671099
0.000671188
0.000671095
0.000670862
0.000670505
0.000670056
0.000669522
0.000668925
0.000668271
0.00066756
0.000666792
0.000665991
0.000665106
0.000664234
0.000663244
0.000662294
0.000661233
0.000660212
0.000659072
0.000657859
0.000656441
0.0006551
0.000653577
0.000652226
0.000650592
0.000649174
0.000647617
0.000646054
0.000644643
0.000642956
0.000641468
0.000639949
0.000638525
0.000637062
0.000635525
0.000634024
0.000632639
0.000631317
0.000629896
0.000628582
0.000627229
0.000625984
0.000624692
0.000623555
0.000622337
0.000621381
0.000620196
0.000619047
0.000617831
0.000616952
0.000615925
0.000614998
0.000614171
0.00061335
0.000612478
0.000611696
0.000610858
0.000610095
0.000609436
0.000608855
0.000608027
0.000607335
0.000606853
0.000606386
0.000605692
0.000605271
0.000604816
0.000604426
0.000603978
0.000603462
0.000603081
0.000602802
0.000602453
0.000602084
0.000601917
0.000601722
0.000601472
0.000601304
0.000601291
0.000601276
0.000601196
0.000601116
0.000600994
0.000600799
0.000600777
0.000600905
0.000600959
0.000600985
0.000601043
0.000601024
0.00060113
0.000601402
0.00060155
0.000601751
0.000602097
0.000602303
0.000602566
0.000602989
0.000603293
0.000603699
0.000604171
0.000604442
0.000604858
0.000605342
0.000605716
0.000606506
0.000607192
0.000607377
0.000607862
0.000608533
0.000609093
0.000609658
0.00061012
0.000610786
0.000611379
0.000611978
0.000612747
0.000613421
0.000614081
0.000614858
0.000616048
0.000617531
0.000617958
0.000618318
0.000618642
0.000618814
0.000619135
0.00061945
0.000619956
0.000620497
0.000621097
0.000621677
0.000622221
0.000622739
0.000623234
0.000623746
0.000624223
0.000624734
0.000625219
0.000625745
0.000626282
0.000626829
0.000627421
0.000627946
0.000628448
0.000629001
0.000629672
0.000630002
0.000630375
0.000631149
0.000631643
0.000632495
0.000632683
0.000632959
0.000633694
0.000634045
0.000634516
0.000634892
0.000635188
0.000635782
0.000636282
0.000636616
0.000636818
0.000637009
0.000637228
0.000637624
0.000637711
0.000637794
0.000637915
0.000638213
0.00063844
0.000638663
0.000638877
0.000639062
0.000639168
0.000639455
0.000639621
0.000639804
0.00063998
0.000640136
0.000640221
0.000640367
0.000640508
0.000640574
0.000640626
0.000640683
0.000640799
0.000640881
0.000640901
0.000640887
0.000640849
0.00064082
0.000640797
0.000640743
0.000640685
0.000640633
0.000640593
0.000640562
0.000640502
0.000640441
0.000640383
0.000640338
0.00064031
0.000640271
0.000640222
0.000640171
0.000640108
0.000640054
0.000640007
0.000639967
0.000639929
0.000639892
0.000639857
0.000639829
0.000639804
0.000639786
0.000639773
0.000639767
0.000639765
0.000639768
0.000639777
0.000639794
0.000639817
0.000639846
0.000639884
0.000639924
0.000639967
0.000640012
0.000640057
0.000640103
0.000640148
0.000640192
0.000640233
0.000640273
0.00064031
0.000640346
0.000640382
0.000640418
0.00064046
0.000640498
0.000640534
0.000640563
0.00064059
0.000640616
0.000640645
0.000640677
0.000640713
0.000640747
0.000640783
0.000640819
0.000640854
0.000640887
0.000640919
0.000640951
0.000640977
0.000641008
0.000641041
0.000641067
0.000641086
0.000641109
0.000641129
0.000641143
0.000641162
0.000641178
0.000641193
0.00064122
0.000641244
0.000641262
0.000641292
0.00064133
0.000641366
0.000641412
0.000641476
0.000641534
0.000641568
0.000641577
0.00064158
0.000641587
0.000641599
0.000641617
0.000641636
0.000641658
0.000641683
0.000641712
0.000641738
0.000641768
0.000641797
0.000641822
0.000641841
0.000641848
0.00064184
0.000641818
0.000641781
0.000641732
0.000641673
0.00064161
0.00064154
0.000641462
0.000641377
0.000641287
0.000641195
0.000641101
0.000641006
0.000640912
0.00064082
0.000640733
0.000640648
0.000640567
0.00064049
0.000640419
0.000640352
0.000640291
0.000640233
0.00064018
0.000640129
0.000640082
0.000640036
0.000639992
0.000639949
0.000639902
0.000639855
0.000639803
0.000639745
0.00063968
0.000639607
0.000639527
0.00063944
0.000639345
0.000639243
0.000639134
0.000639021
0.000638906
0.000638788
0.000638669
0.000638549
0.000638431
0.000638317
0.000638206
0.0006381
0.000637999
0.000637905
0.000637816
0.000637735
0.000637658
0.000637586
0.000637518
0.000637457
0.000637401
0.000637351
0.000637309
0.000637272
0.000637243
0.000637219
0.0006372
0.000637186
0.000637173
0.000637161
0.000637146
0.000637127
0.000637104
0.000637071
0.000637027
0.000636975
0.00063691
0.000636831
0.000636739
0.000636634
0.000636517
0.000636387
0.000636245
0.000636095
0.000635934
0.000635769
0.000635599
0.000635431
0.000635269
0.000635119
0.000634985
0.000634875
0.000634792
0.00063474
0.000634729
0.000634752
0.000634799
0.000634864
0.000634947
0.000635052
0.000635178
0.000635332
0.000635506
0.000635701
0.00063591
0.00063613
0.000636355
0.000636583
0.000636809
0.000637032
0.000637247
0.000637459
0.000637664
0.000637866
0.000638058
0.000638246
0.000638426
0.000638605
0.000638779
0.000638954
0.000639128
0.000639305
0.000639483
0.000639666
0.000639851
0.00064004
0.000640232
0.000640429
0.000640637
0.000640857
0.000641094
0.000641347
0.000641615
0.000641922
0.000642221
0.000642601
0.000642898
0.000643363
0.000643583
0.000644161
0.000644174
0.000644961
0.00064466
0.000645604
0.000644955
0.000645894
0.000644964
0.000645681
0.000644633
0.000644777
0.000643819
0.000642868
0.000641708
0.000639533
0.000637202
0.000630945
0.000626833
0.000607827
0.000624548
0.000635702
0.000642345
0.000649014
0.000649557
0.000635331
0.000624201
0.00060748
0.000476033
0.000292747
0.000312801
0.000111011
0.000111217
0.000111809
0.000112481
0.000113186
0.000113864
0.000114422
0.000114784
0.000114983
0.000115097
0.000115117
0.000115079
0.000114968
0.000114795
0.000114566
0.000114283
0.000113969
0.000113633
0.000113288
0.000112926
0.000112569
0.000112225
0.000111903
0.000111617
0.000111393
0.000111257
0.000111248
0.000111406
0.000111761
0.000112355
0.000113221
0.000114394
0.000115909
0.00011776
0.000119944
0.000122476
0.000125371
0.000128645
0.000132325
0.000136429
0.000141003
0.0001461
0.000151749
0.000157991
0.000164844
0.00017235
0.00018033
0.000188469
0.000196769
0.000205257
0.000213947
0.000222872
0.000232046
0.000241465
0.000251129
0.000261008
0.000271058
0.000281236
0.000291455
0.000301654
0.00031179
0.000321712
0.000331422
0.000340921
0.0003502
0.000359276
0.000368149
0.000376815
0.000385281
0.000393527
0.000401547
0.000409351
0.000416931
0.000424303
0.000431475
0.000438445
0.000445234
0.000451843
0.000458272
0.000464523
0.00047058
0.000476434
0.000482086
0.000487518
0.000492724
0.000497693
0.000502404
0.00050686
0.000511047
0.00051496
0.000518604
0.000521991
0.000525129
0.00052796
0.000530513
0.000532845
0.000534975
0.000536937
0.000538754
0.000540449
0.000542027
0.000543495
0.000544858
0.00054611
0.000547282
0.000548368
0.000549377
0.000550341
0.000551207
0.000552041
0.000552806
0.000553476
0.000554086
0.000554616
0.00055491
0.000555218
0.00055538
0.000555462
0.000555335
0.000555215
0.000555062
0.000554781
0.00055459
0.000554171
0.00055384
0.000553453
0.000553075
0.000552696
0.000552207
0.000551804
0.00055141
0.000551052
0.000550598
0.000550229
0.000549771
0.000549395
0.000548981
0.000548762
0.0005484
0.000548254
0.000547913
0.000547665
0.00054733
0.000547248
0.000547043
0.000546888
0.000546758
0.000546671
0.000546567
0.000546526
0.000546348
0.000546332
0.000546293
0.000546374
0.000546294
0.000546306
0.000546436
0.000546604
0.000546706
0.000546945
0.000547228
0.000547502
0.000547767
0.000547948
0.000548217
0.000548636
0.000548952
0.000549249
0.000549741
0.0005502
0.000550677
0.000551154
0.000551701
0.000552308
0.000552833
0.00055336
0.000553853
0.000554368
0.000554994
0.000555747
0.000556493
0.000557136
0.000557841
0.000558555
0.000559268
0.000560144
0.000561026
0.000561871
0.000562826
0.000563764
0.000564688
0.000565781
0.000566832
0.000567918
0.000569051
0.000570052
0.000571129
0.000572302
0.000573427
0.000574783
0.000576191
0.000577229
0.000578332
0.000579482
0.000580567
0.0005817
0.000582795
0.000584084
0.000585298
0.000586463
0.000587754
0.000588977
0.000590226
0.000591589
0.000593318
0.000595347
0.000596536
0.000597633
0.000598663
0.000599482
0.000600347
0.000601142
0.000602083
0.000603062
0.000604103
0.000605107
0.000606082
0.000606978
0.000607874
0.000608712
0.000609552
0.000610344
0.00061114
0.000611907
0.000612709
0.000613479
0.000614307
0.000615079
0.000615851
0.000616637
0.000617526
0.000618201
0.00061883
0.000619773
0.000620501
0.000621479
0.000622002
0.000622531
0.000623374
0.000623931
0.000624539
0.000625098
0.000625569
0.000626286
0.000626863
0.000627355
0.000627781
0.000628136
0.000628467
0.00062897
0.000629265
0.00062952
0.000629814
0.000630189
0.000630596
0.000630963
0.000631349
0.000631706
0.000631998
0.000632423
0.000632764
0.000633135
0.000633506
0.00063385
0.000634134
0.000634444
0.000634769
0.000635045
0.000635285
0.000635548
0.000635817
0.000636078
0.000636283
0.000636464
0.000636617
0.00063676
0.000636903
0.000637026
0.000637125
0.000637218
0.000637315
0.000637413
0.000637484
0.000637539
0.000637589
0.000637646
0.000637704
0.000637757
0.0006378
0.000637841
0.000637874
0.000637907
0.000637937
0.000637968
0.000637997
0.000638025
0.000638055
0.000638085
0.000638119
0.000638155
0.000638196
0.00063824
0.00063829
0.000638344
0.000638405
0.000638472
0.000638547
0.000638628
0.000638716
0.000638807
0.000638904
0.000639002
0.000639104
0.000639204
0.000639306
0.000639404
0.0006395
0.000639594
0.000639684
0.000639772
0.000639857
0.000639942
0.000640029
0.000640112
0.000640196
0.00064028
0.000640363
0.000640447
0.000640534
0.000640623
0.000640717
0.000640811
0.000640907
0.000641003
0.000641096
0.000641184
0.000641269
0.00064135
0.000641422
0.000641491
0.000641561
0.000641619
0.000641668
0.000641715
0.000641758
0.000641795
0.000641831
0.000641866
0.000641894
0.000641928
0.00064196
0.000641984
0.000642016
0.00064206
0.000642106
0.000642164
0.000642242
0.000642319
0.00064238
0.000642421
0.000642455
0.000642496
0.000642544
0.000642599
0.000642658
0.000642722
0.000642793
0.000642867
0.000642943
0.000643024
0.000643107
0.000643185
0.000643259
0.000643323
0.00064337
0.000643403
0.00064342
0.000643424
0.000643413
0.000643393
0.000643364
0.000643325
0.000643276
0.00064322
0.000643159
0.000643095
0.000643032
0.000642969
0.000642909
0.000642854
0.000642803
0.000642759
0.00064272
0.000642688
0.000642663
0.000642643
0.000642629
0.000642621
0.000642616
0.000642615
0.000642614
0.000642614
0.000642613
0.000642607
0.000642597
0.000642581
0.000642556
0.000642521
0.000642473
0.000642414
0.000642343
0.000642263
0.000642173
0.000642075
0.000641973
0.000641869
0.000641765
0.000641661
0.000641561
0.000641465
0.000641376
0.000641293
0.000641218
0.000641151
0.000641094
0.000641044
0.000641002
0.000640965
0.000640933
0.000640907
0.000640889
0.000640879
0.000640877
0.000640888
0.000640905
0.000640933
0.000640967
0.000641006
0.000641049
0.000641093
0.000641137
0.000641177
0.000641209
0.000641232
0.000641243
0.000641236
0.000641217
0.00064118
0.000641125
0.000641053
0.000640963
0.000640855
0.000640731
0.00064059
0.000640437
0.00064027
0.000640096
0.000639919
0.000639741
0.000639572
0.000639417
0.000639281
0.000639173
0.000639101
0.000639068
0.000639083
0.000639145
0.000639249
0.000639393
0.000639573
0.000639792
0.000640043
0.000640329
0.00064064
0.000640977
0.000641328
0.000641694
0.000642059
0.000642425
0.000642779
0.000643124
0.000643451
0.000643767
0.000644064
0.000644353
0.000644626
0.000644892
0.000645146
0.0006454
0.000645644
0.000645892
0.000646134
0.00064638
0.000646618
0.00064686
0.000647091
0.000647324
0.000647548
0.000647775
0.000648003
0.000648243
0.000648494
0.000648768
0.000649052
0.000649387
0.000649714
0.000650122
0.000650477
0.000650988
0.00065131
0.000651919
0.000652106
0.000652838
0.000652785
0.000653608
0.000653246
0.000654071
0.000653365
0.000653918
0.00065295
0.000652992
0.000651873
0.000651118
0.00064974
0.000647817
0.00064538
0.000640237
0.000636034
0.000622617
0.000635578
0.000648396
0.000657981
0.00066833
0.00067711
0.000678238
0.00067659
0.000688461
0.000631077
0.000448506
0.000365301
0.00011104
0.000111225
0.00011176
0.000112348
0.00011293
0.000113471
0.000113908
0.000114254
0.000114475
0.000114559
0.000114506
0.000114385
0.000114186
0.000113937
0.00011364
0.000113304
0.000112926
0.000112515
0.000112072
0.0001116
0.0001111
0.000110576
0.000110032
0.000109474
0.000108906
0.000108336
0.000107773
0.000107226
0.000106705
0.00010622
0.000105781
0.000105391
0.000105064
0.000104806
0.000104624
0.000104526
0.000104523
0.000104627
0.000104863
0.000105247
0.000105786
0.00010648
0.000107335
0.000108365
0.000109583
0.000111005
0.000112641
0.000114489
0.000116551
0.000118849
0.000121393
0.000124214
0.000127332
0.000130758
0.000134506
0.000138584
0.000142996
0.000147753
0.000152859
0.00015832
0.000164137
0.000170267
0.000176696
0.000183417
0.000190401
0.000197653
0.000205156
0.000212855
0.000220612
0.000228417
0.000236266
0.000244163
0.000252098
0.000260076
0.000268095
0.000276138
0.000284209
0.000292291
0.000300367
0.000308424
0.00031643
0.000324363
0.00033221
0.000339947
0.000347555
0.00035502
0.000362308
0.000369416
0.000376322
0.000382998
0.000389438
0.000395629
0.000401574
0.00040728
0.000412751
0.000418004
0.000423041
0.000427869
0.000432496
0.000436938
0.000441185
0.000445231
0.0004491
0.000452796
0.000456356
0.000459763
0.000463051
0.000466195
0.000469203
0.000472058
0.000474781
0.000477317
0.000479744
0.00048199
0.000484051
0.000485995
0.000487805
0.000489356
0.000490835
0.000492156
0.000493365
0.000494438
0.000495498
0.000496375
0.000497143
0.00049791
0.000498648
0.000499359
0.000499933
0.000500519
0.000501103
0.000501703
0.000502177
0.000502685
0.000503114
0.000503557
0.00050402
0.000504535
0.000504984
0.000505545
0.000506044
0.000506518
0.000506932
0.000507437
0.000507936
0.000508409
0.000508905
0.000509447
0.000509978
0.000510518
0.000511011
0.000511563
0.000512151
0.00051279
0.000513353
0.000513943
0.000514646
0.000515389
0.000516097
0.000516873
0.000517747
0.000518571
0.000519405
0.000520177
0.000521027
0.000522007
0.000522879
0.000523744
0.00052477
0.000525787
0.000526813
0.000527804
0.00052887
0.000529994
0.000531056
0.000532123
0.000533173
0.000534243
0.000535397
0.000536656
0.000537945
0.000539154
0.000540417
0.00054168
0.000542953
0.000544369
0.000545836
0.000547258
0.000548776
0.000550294
0.000551794
0.000553446
0.000555107
0.000556768
0.000558466
0.000560074
0.000561721
0.000563481
0.000565209
0.000567057
0.000568981
0.000570678
0.000572334
0.000573992
0.000575604
0.00057725
0.000578863
0.000580593
0.000582302
0.000583935
0.000585626
0.000587266
0.000588958
0.00059071
0.000592789
0.000595113
0.000596895
0.000598585
0.000600176
0.000601574
0.000602949
0.000604232
0.000605585
0.000606925
0.000608344
0.00060971
0.000611071
0.000612342
0.000613588
0.000614757
0.000615891
0.000616961
0.000618012
0.000619024
0.000620042
0.000621035
0.000622044
0.00062301
0.000623964
0.000624924
0.000625964
0.000626829
0.000627671
0.000628704
0.000629592
0.000630649
0.000631363
0.000632032
0.000632933
0.000633635
0.000634353
0.000635024
0.000635602