/*--------------------------------*- C++ -*----------------------------------*\
| =========                 |                                                 |
| \\      /  F ield         | foam-extend: Open Source CFD                    |
|  \\    /   O peration     | Version:     3.2                                |
|   \\  /    A nd           | Web:         http://www.foam-extend.org         |
|    \\/     M anipulation  | For copyright notice see file Copyright         |
\*---------------------------------------------------------------------------*/
FoamFile
{
    version     2.0;
    format      ascii;
    class       surfaceScalarField;
    location    "910";
    object      meshPhi;
}
// * * * * * * * * * * * * * * * * * * * * * * * * * * * * * * * * * * * * * //

dimensions      [0 3 -1 0 0 0 0];

internalField   nonuniform List<scalar> 
65390
(
0
0
0
0
0
0
0
0
0
0
0
0
0
0
0
0
0
0
0
0
0
0
0
0
0
0
0
0
0
0
0
0
0
0
0
0
0
0
0
0
0
0
0
0
0
0
0
0
0
0
0
0
0
0
0
0
0
0
0
0
0
0
0
0
0
0
0
0
0
0
0
0
0
0
0
0
0
0
0
0
0
0
0
0
0
0
0
0
0
0
0
0
0
0
0
0
0
0
0
0
0
0
0
0
0
0
0
0
0
0
0
0
0
0
0
0
0
0
0
0
0
0
0
0
0
0
0
1.31478e-20
0
3.94216e-20
0
5.25621e-20
0
6.57027e-20
0
9.19837e-20
-1.85037e-18
1.70921e-19
0
1.97108e-19
-1.44445e-33
3.02232e-19
-2.08642e-33
4.33638e-19
-1.85037e-18
5.91324e-19
3.85186e-33
8.27853e-19
-5.13581e-33
1.10441e-18
0
1.48488e-18
1.85037e-18
1.95794e-18
1.85037e-18
2.54926e-18
-1.85037e-18
3.29827e-18
-1.92593e-32
4.22043e-18
1.85037e-18
5.36134e-18
-1.85037e-18
6.81994e-18
1.85037e-18
8.63333e-18
0
1.10249e-17
-1.85037e-18
1.43429e-17
8.89138e-32
1.90642e-17
-1.85037e-18
2.58277e-17
1.67957e-31
3.55451e-17
1.85037e-18
4.89813e-17
3.70074e-18
6.63728e-17
-1.85037e-18
8.63873e-17
0
1.04086e-16
0
1.08265e-16
0
7.55778e-17
0
-3.8147e-17
-2.02367e-30
-3.09742e-16
1.85037e-18
-8.59824e-16
-1.01091e-29
-1.85237e-15
-3.70074e-18
-3.47051e-15
1.85037e-18
-5.75327e-15
-3.70074e-18
-8.29683e-15
1.85037e-18
-1.03434e-14
-1.85037e-18
-1.1463e-14
1.85037e-18
1.80891e-14
-1.85037e-18
2.14124e-13
-1.85037e-18
8.25723e-13
-1.85037e-18
3.67556e-12
1.85037e-18
-1.13371e-11
0
7.47402e-10
0
1.15568e-08
3.7007e-18
1.63188e-08
-3.70073e-18
-5.93956e-08
-3.70042e-18
-6.29108e-08
0
1.58607e-07
0
2.585e-07
0
1.29913e-07
0
1.59771e-07
3.70041e-18
2.43207e-07
-3.69809e-18
8.83555e-09
-3.69847e-18
-8.77117e-08
0
1.64529e-07
0
1.22201e-08
0
-3.32465e-07
3.39376e-22
-4.07629e-08
3.69621e-18
3.84219e-07
3.69511e-18
6.14364e-08
0
-4.29511e-07
-3.6911e-18
-3.27954e-07
2.63863e-22
-1.00773e-07
0
1.46042e-07
3.68885e-18
4.22107e-07
0
7.29261e-08
3.6862e-18
-4.31384e-07
0
-3.22001e-07
0
-1.03363e-07
0
-6.46593e-08
-3.68257e-18
2.4888e-07
-3.68133e-18
6.17342e-07
-3.68169e-18
1.31313e-07
0
-5.52593e-07
3.67812e-18
-3.99326e-07
0
-9.89383e-08
-3.68107e-18
-7.2997e-08
0
-5.17491e-08
3.68063e-18
2.47743e-07
0
6.02017e-07
-3.68049e-18
1.3961e-07
3.67972e-18
-5.14528e-07
0
-3.68795e-07
-2.40995e-23
-8.42956e-08
-3.67888e-18
-4.87859e-08
-3.68102e-18
-3.12574e-08
-3.67949e-18
-4.03416e-08
-2.0094e-23
-5.63756e-08
3.68105e-18
-4.56721e-08
-2.36176e-23
-2.91711e-08
3.68018e-18
-1.78331e-08
1.83387e-22
2.47239e-07
0
5.84563e-07
-3.68168e-18
1.66585e-07
3.68211e-18
-4.50476e-07
3.68274e-18
-3.26689e-07
0
-6.329e-08
-2.82705e-24
-4.08547e-08
0
-3.96846e-08
-1.31537e-23
-4.04451e-08
0
-3.19867e-08
0
-1.98896e-08
-3.685e-18
-2.50044e-08
-2.90693e-24
-3.42612e-08
3.68723e-18
-3.36216e-08
3.6872e-18
-3.11357e-08
-8.2357e-25
-3.02185e-08
-6.21072e-25
-2.96173e-08
-3.68827e-18
-2.94963e-08
2.84673e-22
-1.19506e-08
0
2.42114e-07
0
5.68608e-07
7.37956e-18
2.06515e-07
-7.37989e-18
-3.70962e-07
-2.91125e-22
-2.77554e-07
3.69018e-18
-4.10027e-08
0
-2.2332e-08
1.90704e-25
-2.10303e-08
3.6915e-18
-1.92057e-08
0
-1.75535e-08
-7.38392e-18
-1.79891e-08
-3.69164e-18
-1.89609e-08
3.69392e-18
-1.72506e-08
7.38732e-18
1.29889e-09
-3.69307e-18
2.40575e-07
3.69479e-18
5.51781e-07
-4.11855e-22
2.12679e-07
7.38685e-18
-3.38522e-07
-3.69382e-18
-2.54862e-07
-3.69537e-18
-2.92608e-08
-7.39064e-18
-1.01931e-08
-5.42118e-25
-1.03898e-08
-7.38894e-18
-1.18005e-08
3.69547e-18
-1.15074e-08
0
-8.84084e-09
-3.69591e-18
-8.14894e-09
-6.21343e-25
-9.39971e-09
-3.69677e-18
-9.88102e-09
-7.39315e-18
-9.91257e-09
0
-9.8818e-09
-3.69657e-18
-8.93292e-09
0
-7.21016e-09
0
-6.37892e-09
0
-5.80461e-09
3.69799e-18
-4.83599e-09
-3.69808e-18
-4.58761e-09
0
-3.73214e-09
-9.54739e-25
7.53396e-10
-7.38997e-24
8.2442e-09
0
1.02393e-08
-3.69836e-18
3.67498e-09
0
-1.44404e-09
7.39995e-18
-1.58767e-09
0
-1.23843e-09
0
-1.00222e-09
0
-6.64303e-10
0
-4.88853e-10
0
-3.81131e-10
-7.40177e-18
-3.51096e-10
-7.40047e-18
-3.39657e-10
0
-3.51868e-10
-7.40043e-18
-3.47381e-10
-2.50857e-26
-3.58821e-10
0
-3.42131e-10
7.40159e-18
-3.25925e-10
0
-2.75997e-10
-7.4015e-18
-2.00491e-10
-7.40048e-18
-7.9821e-11
7.4017e-18
8.64206e-11
0
1.97767e-10
0
2.25859e-10
0
3.93102e-10
7.40295e-18
6.52436e-10
0
7.28538e-10
7.40458e-18
6.91824e-10
7.39452e-18
6.06529e-10
0
5.1723e-10
7.39968e-18
4.45161e-10
-7.40388e-18
3.66436e-10
7.40247e-18
3.03959e-10
1.47926e-17
2.56588e-10
-7.40333e-18
2.20355e-10
-7.40252e-18
2.08099e-10
-7.39995e-18
2.15968e-10
0
2.40413e-10
7.39966e-18
2.69949e-10
-7.40177e-18
2.80795e-10
0
2.84519e-10
0
3.17417e-10
-7.4013e-18
3.67231e-10
7.4005e-18
4.06211e-10
0
4.17642e-10
-7.40166e-18
4.03184e-10
-7.40193e-18
3.90024e-10
0
3.85987e-10
-7.40168e-18
3.75792e-10
-7.40067e-18
3.54014e-10
7.40268e-18
3.3212e-10
0
3.15609e-10
-7.40206e-18
2.98836e-10
0
2.73242e-10
-7.40137e-18
2.35177e-10
7.40144e-18
1.89778e-10
1.24293e-26
1.44323e-10
7.40119e-18
1.0625e-10
7.40212e-18
7.66012e-11
0
4.61535e-11
0
9.76717e-12
0
-2.40649e-11
-7.40204e-18
-4.93593e-11
1.48037e-17
-7.04193e-11
-7.40139e-18
-9.6079e-11
-7.40139e-18
-1.26063e-10
0
-1.57859e-10
-1.48036e-17
-1.97834e-10
0
-2.39309e-10
7.40142e-18
-2.61611e-10
0
-2.6138e-10
0
-2.50067e-10
0
-2.38581e-10
0
-2.3605e-10
0
-2.42311e-10
0
-2.48988e-10
7.40156e-18
-2.53669e-10
0
-2.50978e-10
0
-2.28468e-10
0
-1.94056e-10
0
-1.66169e-10
-7.40137e-18
-1.41671e-10
-1.48032e-17
-1.04775e-10
-7.40149e-18
-6.27122e-11
0
-3.19047e-11
0
-9.04502e-12
-7.40147e-18
1.2863e-11
-7.40132e-18
3.22192e-11
0
4.94019e-11
-7.40129e-18
6.5842e-11
-7.40147e-18
7.87764e-11
0
8.97516e-11
-7.40139e-18
1.02185e-10
0
1.15052e-10
-7.4015e-18
1.26758e-10
-7.40137e-18
1.36307e-10
-7.40149e-18
1.44531e-10
7.40134e-18
1.52392e-10
2.19923e-27
1.59908e-10
-7.40134e-18
1.66642e-10
-1.4803e-17
1.70696e-10
0
1.70872e-10
9.81563e-29
1.67416e-10
7.40152e-18
1.62467e-10
7.40146e-18
1.56825e-10
0
1.50172e-10
0
1.42169e-10
-7.4015e-18
1.32758e-10
-1.4803e-17
1.22418e-10
0
1.11379e-10
-7.40145e-18
1.00041e-10
7.40148e-18
8.89507e-11
-7.40152e-18
7.80942e-11
-7.40152e-18
6.77297e-11
7.40155e-18
5.67279e-11
-1.48031e-17
4.51754e-11
7.40154e-18
3.33735e-11
7.40152e-18
2.14546e-11
-1.48031e-17
1.03408e-11
7.40155e-18
-8.98304e-12
0
-4.36527e-11
0
-8.23704e-11
7.40159e-18
-1.14946e-10
0
-1.42043e-10
-7.40157e-18
-1.64388e-10
7.40145e-18
-1.86375e-10
1.09844e-26
-2.1092e-10
0
-2.40943e-10
7.40151e-18
-2.76648e-10
0
-3.15036e-10
7.40148e-18
-3.53789e-10
1.48028e-17
-3.90314e-10
0
-4.25871e-10
1.07193e-27
-4.61061e-10
0
-4.9691e-10
0
-5.3485e-10
7.40127e-18
-5.76392e-10
-7.69826e-27
-6.17932e-10
-7.4012e-18
-6.55122e-10
-2.12124e-26
-6.84555e-10
7.39839e-27
-7.18111e-10
-1.48025e-17
-7.63155e-10
0
-7.97758e-10
7.4012e-18
-8.06859e-10
-7.40126e-18
-7.95416e-10
1.29846e-26
-7.78165e-10
7.4013e-18
-7.67748e-10
1.48026e-17
-7.69133e-10
0
-7.79903e-10
-3.5563e-27
-7.98109e-10
8.46199e-27
-8.18073e-10
-7.40142e-18
-8.33565e-10
7.40165e-18
-8.41439e-10
-7.40164e-18
-8.41072e-10
-3.17346e-27
-8.37437e-10
-7.4015e-18
-8.34387e-10
0
-8.35303e-10
1.53485e-27
-8.40828e-10
7.40143e-18
-8.49555e-10
2.24387e-27
-8.57673e-10
-2.58997e-27
-8.64858e-10
2.22043e-17
-8.6987e-10
0
-8.72908e-10
1.4803e-17
-8.76032e-10
7.40154e-18
-8.79915e-10
3.48505e-27
-8.8579e-10
0
-8.90399e-10
1.48032e-17
-8.92083e-10
7.40152e-18
-8.92236e-10
-6.9114e-27
-8.9441e-10
2.60976e-27
-9.00162e-10
-1.48029e-17
-9.10513e-10
-3.4859e-27
-9.20256e-10
-1.48027e-17
-9.26744e-10
-7.40136e-18
-9.31981e-10
-7.40135e-18
-9.35297e-10
7.40138e-18
-9.37752e-10
7.40138e-18
-9.39885e-10
-7.40141e-18
-9.43364e-10
7.40142e-18
-9.49178e-10
-7.40135e-18
-9.58389e-10
-7.40138e-18
-9.67976e-10
3.38869e-27
-9.76798e-10
-7.40149e-18
-9.82979e-10
-7.40141e-18
-9.87586e-10
-7.40146e-18
-9.93413e-10
-7.40139e-18
-1.00003e-09
0
-1.00902e-09
-2.22044e-17
-1.0192e-09
0
-1.02956e-09
-7.40144e-18
-1.03939e-09
7.40148e-18
-1.0494e-09
-6.3864e-28
-1.0583e-09
-1.48028e-17
-1.06771e-09
1.48029e-17
-1.07661e-09
-3.27797e-27
-1.08453e-09
0
-1.09105e-09
6.44837e-27
-1.09269e-09
-5.55222e-27
-1.08984e-09
-7.40142e-18
-1.08185e-09
-4.09522e-27
-1.06978e-09
1.48029e-17
-1.05425e-09
0
-1.03496e-09
-8.75783e-27
-1.00857e-09
7.40142e-18
-9.75428e-10
-7.40143e-18
-9.34539e-10
7.40145e-18
-8.86443e-10
1.04896e-26
-8.32594e-10
1.48029e-17
-7.72594e-10
-7.40142e-18
-7.08651e-10
-7.40145e-18
-6.412e-10
-1.48029e-17
-5.7159e-10
-1.48029e-17
-5.01373e-10
7.40144e-18
-4.31764e-10
7.40145e-18
-3.62667e-10
7.40143e-18
-2.95723e-10
-6.21781e-27
-2.32054e-10
7.40146e-18
-1.73115e-10
0
-1.19839e-10
7.40145e-18
-7.22537e-11
1.48029e-17
-3.04581e-11
0
6.15101e-12
0
3.88537e-11
7.40146e-18
6.94723e-11
-6.21544e-28
9.95997e-11
0
1.29421e-10
0
1.58239e-10
1.48029e-17
1.84504e-10
1.48029e-17
2.06621e-10
0
2.23886e-10
1.48029e-17
2.36572e-10
0
2.46282e-10
1.4803e-17
2.53989e-10
0
2.61058e-10
0
2.69317e-10
1.4803e-17
2.80546e-10
0
2.95285e-10
0
3.14593e-10
-1.48029e-17
3.39208e-10
-1.4803e-17
3.70668e-10
-1.48029e-17
4.11075e-10
0
4.60624e-10
0
5.19457e-10
0
5.86384e-10
1.48029e-17
6.60796e-10
0
7.42667e-10
1.48029e-17
8.32133e-10
0
9.26536e-10
-1.48029e-17
1.02557e-09
0
1.12658e-09
1.48029e-17
1.22688e-09
1.48029e-17
1.32438e-09
1.48029e-17
1.41346e-09
0
1.49282e-09
-1.48029e-17
1.5599e-09
-1.4803e-17
1.61267e-09
0
1.64874e-09
0
1.66728e-09
0
1.66508e-09
1.48031e-17
1.64478e-09
4.43614e-27
1.60072e-09
-1.48032e-17
1.53892e-09
0
1.44901e-09
-1.48033e-17
1.32197e-09
3.65607e-26
1.19229e-09
0
1.06417e-09
1.48032e-17
9.36971e-10
1.48031e-17
8.20311e-10
0
7.13367e-10
-1.48031e-17
6.10393e-10
1.4803e-17
5.05834e-10
0
4.00054e-10
0
2.97388e-10
1.48029e-17
2.04594e-10
0
1.25394e-10
1.48029e-17
6.20348e-11
1.48029e-17
1.5029e-11
0
-1.58714e-11
-1.48029e-17
-3.09043e-11
0
-3.06542e-11
1.48029e-17
-1.47335e-11
0
1.57537e-11
0
5.86225e-11
-1.48028e-17
1.09988e-10
0
1.65542e-10
-1.48028e-17
2.19251e-10
0
2.6561e-10
-1.48028e-17
2.99886e-10
-1.48028e-17
3.18936e-10
-1.48028e-17
3.21238e-10
0
3.06541e-10
3.4421e-26
2.7488e-10
0
2.27326e-10
0
1.64029e-10
-1.48029e-17
8.48187e-11
3.40715e-26
-9.95769e-12
0
-1.19909e-10
-1.48028e-17
-2.45107e-10
0
-3.84259e-10
-1.48028e-17
-5.33219e-10
1.4803e-17
-6.87727e-10
0
-8.41548e-10
0
-9.93574e-10
0
-1.15411e-09
1.48021e-17
-1.32348e-09
0
-1.49464e-09
0
-1.66588e-09
1.481e-17
-1.8255e-09
0
-1.97424e-09
0
-2.1075e-09
-1.4777e-17
-2.23184e-09
1.65562e-26
-2.34215e-09
-2.95125e-17
-2.43483e-09
-3.87292e-26
-2.51042e-09
0
-2.56398e-09
2.97554e-17
-2.60222e-09
0
-2.61757e-09
0
-2.62246e-09
9.81399e-26
-2.60441e-09
-1.48881e-17
-2.57773e-09
0
-2.53778e-09
0
-2.45706e-09
3.90686e-25
-2.35524e-09
-1.48082e-17
-2.15884e-09
-2.91972e-17
-1.88349e-09
-2.94285e-17
-1.34729e-09
-2.95077e-24
-5.16636e-10
-1.4789e-17
-4.48273e-11
-1.48088e-17
2.39169e-13
1.48047e-17
-2.98515e-13
-1.48037e-17
-9.84479e-14
-1.48034e-17
-5.05505e-14
-1.48032e-17
-2.81075e-14
0
-1.64844e-14
-1.48031e-17
-9.63321e-15
0
-5.06899e-15
-1.58375e-15
0
0
0
0
0
0
0
0
0
0
0
0
0
0
0
0
0
0
0
0
0
0
0
0
0
0
0
0
0
0
0
0
0
0
0
0
0
0
0
0
0
0
0
0
0
0
0
0
0
0
0
0
0
0
0
0
0
0
0
0
0
0
0
0
0
0
0
0
0
0
0
0
0
0
0
0
0
0
0
0
0
0
0
0
0
0
0
0
0
0
0
0
0
0
0
0
0
0
0
0
0
0
0
0
0
0
0
0
0
0
0
0
0
0
0
0
0
0
0
0
0
2.62811e-20
-3.20988e-34
5.25621e-20
1.85037e-18
1.57686e-19
1.85037e-18
2.10364e-19
1.85037e-18
3.15373e-19
0
4.9934e-19
-3.20988e-33
6.57027e-19
0
1.07752e-18
-3.70074e-18
1.49884e-18
1.85037e-18
2.15505e-18
-3.70074e-18
3.10117e-18
-3.70074e-18
4.23125e-18
0
5.91324e-18
-3.70074e-18
8.22597e-18
-4.62223e-32
1.10441e-17
0
1.46911e-17
-1.85037e-18
1.95005e-17
-1.85037e-18
2.53875e-17
1.85037e-18
3.27988e-17
-1.85037e-18
4.20991e-17
1.85037e-18
5.35345e-17
-1.85037e-18
6.77526e-17
-3.52606e-31
8.60179e-17
1.85037e-18
1.10039e-16
3.70074e-18
1.43048e-16
-3.70074e-18
1.90011e-16
1.85037e-18
2.57528e-16
-1.85037e-18
3.54164e-16
2.06957e-30
4.88026e-16
-1.85037e-18
6.6131e-16
0
8.61191e-16
1.85037e-18
1.03882e-15
1.85037e-18
1.08288e-15
0
7.62426e-16
4.35437e-30
-3.59643e-16
1.85037e-18
-3.04483e-15
4.41792e-29
-8.49006e-15
3.70074e-18
-1.83272e-14
3.70074e-18
-3.44015e-14
-3.70074e-18
-5.71878e-14
-1.85037e-18
-8.27105e-14
-1.85037e-18
-1.04213e-13
-3.91349e-28
-1.10483e-13
-1.85037e-18
1.36043e-13
-3.70074e-18
2.03677e-12
5.55111e-18
8.2352e-12
1.85037e-18
2.42265e-11
-1.85037e-18
8.77526e-11
1.85034e-18
1.58704e-09
0
1.08163e-08
-3.70077e-18
9.13877e-09
0
-5.22021e-08
0
-4.2268e-08
0
1.46598e-07
7.40095e-18
2.36362e-07
0
1.43129e-07
0
1.63388e-07
2.89616e-22
2.13449e-07
0
2.13229e-08
0
-5.61523e-08
0
1.27312e-07
3.69856e-18
-4.63094e-09
0
-2.733e-07
0
-2.91848e-08
0
3.14064e-07
-4.62063e-22
4.55886e-08
3.69734e-18
-3.73315e-07
-3.69486e-18
-3.13531e-07
-3.69562e-18
-9.84932e-08
3.69547e-18
1.46113e-07
-3.69478e-18
3.62409e-07
-3.69473e-18
5.84723e-08
3.6927e-18
-3.73456e-07
0
-3.09372e-07
1.42209e-23
-1.1816e-07
3.69161e-18
-4.02445e-08
-3.54413e-22
2.50658e-07
9.66563e-22
5.36226e-07
6.67573e-22
1.12953e-07
-3.68906e-18
-4.73597e-07
0
-3.82543e-07
-3.68945e-18
-1.22221e-07
0
-7.28123e-08
-7.37635e-18
-2.67447e-08
0
2.5016e-07
-3.68753e-18
5.24956e-07
0
1.22054e-07
3.68731e-18
-4.39043e-07
-3.68682e-18
-3.53108e-07
3.6877e-18
-1.06006e-07
0
-5.08516e-08
0
-3.36825e-08
0
-4.0603e-08
3.6867e-18
-5.37541e-08
1.11547e-23
-4.48571e-08
-3.69025e-18
-2.88731e-08
0
5.05494e-09
-3.68873e-18
2.51036e-07
0
5.12458e-07
3.69073e-18
1.47555e-07
0
-3.81094e-07
3.68979e-18
-3.11376e-07
-3.68952e-18
-8.42688e-08
0
-4.29134e-08
0
-3.97429e-08
3.68957e-18
-3.93e-08
-3.69186e-18
-3.13894e-08
-3.69307e-18
-2.11131e-08
0
-2.50577e-08
0
-3.32606e-08
-3.69413e-18
-3.34479e-08
0
-3.11858e-08
-3.69379e-18
-3.01445e-08
-2.52617e-24
-2.94194e-08
0
-2.72471e-08
-3.69403e-18
9.41251e-09
-3.69397e-18
2.46142e-07
-3.69532e-18
5.0261e-07
0
1.85956e-07
-3.69567e-18
-3.07911e-07
2.7916e-22
-2.61855e-07
3.6954e-18
-5.97276e-08
3.69704e-18
-2.38834e-08
3.69708e-18
-2.08792e-08
0
-1.8991e-08
1.2192e-25
-1.74512e-08
-3.66073e-24
-1.77568e-08
3.69656e-18
-1.83565e-08
0
-1.49984e-08
2.97053e-22
2.14235e-08
2.25667e-22
2.44958e-07
0
4.89603e-07
-3.69811e-18
1.92552e-07
0
-2.78818e-07
0
-2.39599e-07
0
-4.72397e-08
3.54622e-24
-1.21327e-08
-3.69942e-18
-1.06811e-08
-7.39568e-18
-1.16905e-08
6.74917e-25
-1.13653e-08
4.24086e-24
-9.14286e-09
0
-8.42134e-09
-6.70056e-25
-9.37055e-09
0
-9.84569e-09
-2.87658e-25
-9.90073e-09
-1.21428e-24
-9.78958e-09
0
-8.85883e-09
-3.70044e-18
-7.29133e-09
-3.69847e-18
-6.40465e-09
0
-5.76863e-09
-6.14813e-25
-4.89268e-09
-7.39762e-18
-4.5109e-09
3.69888e-18
-3.37987e-09
7.39984e-18
1.01465e-09
3.70416e-18
7.68683e-09
3.70049e-18
9.39427e-09
-7.39639e-18
3.77844e-09
0
-9.74981e-10
7.39981e-18
-1.51639e-09
0
-1.23532e-09
-7.401e-18
-9.88919e-10
0
-6.78261e-10
0
-4.95721e-10
-7.40062e-18
-3.89122e-10
7.40156e-18
-3.53496e-10
0
-3.42178e-10
0
-3.50429e-10
7.40022e-18
-3.48667e-10
7.40138e-18
-3.55966e-10
0
-3.41631e-10
-7.40115e-18
-3.22153e-10
0
-2.7282e-10
-7.40104e-18
-1.95591e-10
0
-7.52873e-11
0
8.14502e-11
0
1.90344e-10
7.40212e-18
2.38887e-10
0
4.01284e-10
0
6.34402e-10
0
7.16458e-10
7.40383e-18
6.85931e-10
0
6.05466e-10
-7.4058e-18
5.18605e-10
0
4.44611e-10
-7.40419e-18
3.68171e-10
0
3.05644e-10
-7.39549e-18
2.58018e-10
0
2.23003e-10
0
2.10372e-10
0
2.17772e-10
0
2.41012e-10
-7.3994e-18
2.6824e-10
7.40183e-18
2.80203e-10
7.40403e-18
2.8731e-10
0
3.1899e-10
0
3.66083e-10
0
4.03285e-10
-7.40071e-18
4.1489e-10
0
4.03044e-10
-7.40151e-18
3.90691e-10
0
3.85248e-10
0
3.74609e-10
-7.40052e-18
3.53858e-10
0
3.32511e-10
0
3.15449e-10
0
2.9782e-10
0
2.71916e-10
-7.40131e-18
2.34339e-10
0
1.89728e-10
1.67169e-26
1.45037e-10
0
1.07074e-10
7.40228e-18
7.65524e-11
7.40205e-18
4.56314e-11
7.40177e-18
1.00436e-11
1.48031e-17
-2.32123e-11
0
-4.89223e-11
0
-7.08336e-11
0
-9.65183e-11
-7.40142e-18
-1.26256e-10
-7.40201e-18
-1.58572e-10
0
-1.978e-10
4.93238e-26
-2.3724e-10
0
-2.59164e-10
-7.40148e-18
-2.60096e-10
0
-2.49891e-10
7.40168e-18
-2.39364e-10
0
-2.36839e-10
0
-2.42263e-10
7.40115e-18
-2.48649e-10
2.81887e-26
-2.52693e-10
0
-2.48837e-10
0
-2.27102e-10
0
-1.94458e-10
0
-1.66317e-10
0
-1.4041e-10
7.40141e-18
-1.04207e-10
7.40137e-18
-6.37375e-11
0
-3.2677e-11
-7.40127e-18
-9.17196e-12
7.40132e-18
1.26149e-11
0
3.20121e-11
-7.40122e-18
4.93248e-11
-7.40117e-18
6.55168e-11
-2.14765e-27
7.8604e-11
7.40119e-18
8.98988e-11
-3.49171e-28
1.02256e-10
0
1.1495e-10
3.53138e-27
1.26558e-10
0
1.3618e-10
0
1.44487e-10
-7.40123e-18
1.52369e-10
7.40129e-18
1.59807e-10
-7.40125e-18
1.66355e-10
7.40129e-18
1.70286e-10
0
1.70489e-10
0
1.67236e-10
0
1.624e-10
0
1.56711e-10
-7.40137e-18
1.50038e-10
-2.29319e-27
1.42034e-10
-7.40138e-18
1.32668e-10
-7.40143e-18
1.22376e-10
0
1.11364e-10
0
1.00089e-10
0
8.90005e-11
7.40141e-18
7.81639e-11
3.38845e-27
6.76868e-11
-7.4014e-18
5.6693e-11
7.40139e-18
4.51506e-11
-7.40142e-18
3.33419e-11
-7.40142e-18
2.14528e-11
2.6754e-26
9.45506e-12
7.4015e-18
-1.05335e-11
7.40146e-18
-4.41062e-11
-9.65844e-27
-8.17991e-11
-7.40141e-18
-1.14383e-10
0
-1.4156e-10
0
-1.6435e-10
0
-1.86694e-10
7.40137e-18
-2.11521e-10
7.40133e-18
-2.41581e-10
0
-2.76991e-10
0
-3.15114e-10
7.40123e-18
-3.53659e-10
7.40117e-18
-3.90241e-10
0
-4.25881e-10
7.40109e-18
-4.61182e-10
-5.92279e-27
-4.97174e-10
0
-5.35211e-10
0
-5.76472e-10
7.40092e-18
-6.17491e-10
-7.40082e-18
-6.544e-10
7.4008e-18
-6.84934e-10
6.48311e-27
-7.19068e-10
0
-7.62085e-10
0
-7.95079e-10
-7.40087e-18
-8.04694e-10
3.18396e-27
-7.94759e-10
1.91486e-26
-7.78851e-10
0
-7.68969e-10
-7.4009e-18
-7.70275e-10
7.40094e-18
-7.807e-10
0
-7.98334e-10
7.40117e-18
-8.17636e-10
-7.40122e-18
-8.32743e-10
0
-8.40686e-10
-7.40157e-18
-8.40694e-10
-5.06916e-27
-8.37518e-10
0
-8.34828e-10
-7.40112e-18
-8.3582e-10
7.40114e-18
-8.41158e-10
0
-8.4963e-10
-1.48024e-17
-8.57558e-10
-3.62531e-27
-8.64654e-10
-7.40128e-18
-8.69685e-10
0
-8.7288e-10
-7.40138e-18
-8.76207e-10
-7.40142e-18
-8.80062e-10
7.40143e-18
-8.85664e-10
-1.4803e-17
-8.9011e-10
7.40151e-18
-8.91934e-10
0
-8.92394e-10
1.4803e-17
-8.94862e-10
0
-9.00557e-10
1.48027e-17
-9.10436e-10
0
-9.19899e-10
7.40124e-18
-9.26506e-10
-7.40121e-18
-9.31822e-10
-7.40115e-18
-9.35102e-10
0
-9.37667e-10
-7.40116e-18
-9.39969e-10
0
-9.43548e-10
7.40113e-18
-9.49403e-10
7.40118e-18
-9.58457e-10
-5.52945e-27
-9.67764e-10
-1.48024e-17
-9.76443e-10
-7.40119e-18
-9.82724e-10
-7.4012e-18
-9.87552e-10
7.40121e-18
-9.93504e-10
7.40123e-18
-1.00012e-09
0
-1.00904e-09
-7.40121e-18
-1.01911e-09
3.02133e-27
-1.02939e-09
-1.48024e-17
-1.03922e-09
-2.22036e-17
-1.04927e-09
-7.40122e-18
-1.05815e-09
-1.48024e-17
-1.0675e-09
0
-1.07634e-09
-7.40117e-18
-1.08414e-09
-1.09399e-26
-1.09048e-09
7.40118e-18
-1.09197e-09
-7.40119e-18
-1.08911e-09
-7.40118e-18
-1.08121e-09
7.40116e-18
-1.0692e-09
0
-1.05358e-09
-7.40113e-18
-1.03412e-09
7.40113e-18
-1.00759e-09
-7.4012e-18
-9.74402e-10
-7.40118e-18
-9.33575e-10
-7.40115e-18
-8.85596e-10
7.40121e-18
-8.31866e-10
7.40117e-18
-7.71976e-10
0
-7.08156e-10
-1.48023e-17
-6.40871e-10
-9.11484e-28
-5.71447e-10
-7.4012e-18
-5.01362e-10
7.4012e-18
-4.31846e-10
-7.40121e-18
-3.62871e-10
-7.40118e-18
-2.96093e-10
1.48023e-17
-2.32594e-10
7.40113e-18
-1.73763e-10
-1.48024e-17
-1.20522e-10
7.40114e-18
-7.29296e-11
-9.31594e-27
-3.10763e-11
-6.34103e-27
5.67029e-12
7.40126e-18
3.85638e-11
7.40126e-18
6.93398e-11
1.48025e-17
9.95017e-11
7.40118e-18
1.29229e-10
0
1.57884e-10
1.96596e-26
1.83977e-10
0
2.06006e-10
1.48025e-17
2.23335e-10
0
2.36155e-10
-1.48024e-17
2.45996e-10
1.08168e-27
2.53866e-10
0
2.61143e-10
0
2.6959e-10
-1.48023e-17
2.80946e-10
-1.48023e-17
2.95771e-10
-1.48026e-17
3.15193e-10
-2.9605e-17
3.39983e-10
3.53156e-26
3.71642e-10
1.48025e-17
4.12147e-10
0
4.61647e-10
0
5.20379e-10
1.48025e-17
5.87233e-10
1.48025e-17
6.61622e-10
0
7.43433e-10
1.48024e-17
8.32744e-10
0
9.2694e-10
0
1.0257e-09
0
1.12638e-09
0
1.22633e-09
1.48025e-17
1.32343e-09
0
1.41211e-09
-1.48024e-17
1.49122e-09
0
1.55804e-09
-1.48024e-17
1.61054e-09
-1.48024e-17
1.6464e-09
-1.48027e-17
1.66486e-09
0
1.66261e-09
1.06772e-25
1.64186e-09
-1.48026e-17
1.59832e-09
0
1.53551e-09
0
1.44511e-09
-1.4803e-17
1.3212e-09
0
1.19221e-09
-1.48029e-17
1.06419e-09
0
9.37972e-10
0
8.21239e-10
2.32345e-27
7.13854e-10
1.48025e-17
6.10235e-10
-1.48025e-17
5.05765e-10
0
4.00459e-10
5.02056e-26
2.9851e-10
0
2.06186e-10
0
1.2723e-10
-1.48022e-17
6.39711e-11
0
1.69599e-11
0
-1.39606e-11
1.48022e-17
-2.90551e-11
2.96044e-17
-2.87968e-11
2.96045e-17
-1.30188e-11
1.48023e-17
1.71912e-11
1.4802e-17
5.95976e-11
0
1.10425e-10
1.48022e-17
1.65304e-10
0
2.18336e-10
5.80176e-26
2.64135e-10
0
2.98019e-10
0
3.16858e-10
0
3.19081e-10
0
3.04411e-10
-1.48019e-17
2.72794e-10
-1.4802e-17
2.25267e-10
0
1.61955e-10
-1.48021e-17
8.27854e-11
-1.48022e-17
-1.19461e-11
0
-1.21874e-10
0
-2.46896e-10
0
-3.85586e-10
-1.4802e-17
-5.34058e-10
1.48023e-17
-6.87878e-10
1.48022e-17
-8.41707e-10
0
-9.94554e-10
-1.48027e-17
-1.15514e-09
0
-1.32378e-09
1.48042e-17
-1.49457e-09
-1.4799e-17
-1.66487e-09
1.48089e-17
-1.8242e-09
0
-1.97253e-09
0
-2.10634e-09
0
-2.23015e-09
-2.96651e-17
-2.33994e-09
-1.04245e-25
-2.43297e-09
0
-2.50769e-09
1.4731e-17
-2.56195e-09
1.48674e-17
-2.59948e-09
0
-2.61582e-09
0
-2.61996e-09
-1.46883e-17
-2.60277e-09
-1.94718e-25
-2.57568e-09
1.46795e-17
-2.53313e-09
-1.48234e-17
-2.45404e-09
1.46323e-17
-2.34585e-09
9.44655e-26
-2.15224e-09
-1.44864e-17
-1.86768e-09
-1.46567e-17
-1.35059e-09
0
-5.87084e-10
-1.49671e-17
-1.01576e-10
0
-8.05563e-12
-1.48166e-17
-2.33303e-12
-1.87207e-26
-9.81542e-13
0
-4.95436e-13
1.48049e-17
-2.77582e-13
-1.48042e-17
-1.63221e-13
0
-9.55433e-14
-1.48032e-17
-5.03249e-14
-1.57307e-14
0
0
0
0
0
0
0
0
0
0
0
0
0
0
0
0
0
0
0
0
0
0
0
0
0
0
0
0
0
0
0
0
0
0
0
0
0
0
0
0
0
0
0
0
0
0
0
0
0
0
0
0
0
0
0
0
0
0
0
0
0
0
0
0
0
0
0
0
0
0
0
0
0
0
0
0
0
0
0
0
0
0
0
0
0
0
0
0
0
0
0
0
0
0
0
0
0
0
0
0
0
0
0
0
0
0
0
0
0
0
0
0
0
0
0
0
0
0
0
5.25621e-20
-1.85036e-18
1.05124e-19
-1.85039e-18
2.62811e-19
-1.85038e-18
4.20497e-19
0
6.31092e-19
1.85039e-18
1.05124e-18
-6.09878e-33
1.57686e-18
1.85036e-18
2.47042e-18
0
3.67935e-18
0
5.2591e-18
-1.85035e-18
7.56895e-18
1.85038e-18
1.06175e-17
1.85036e-18
1.48751e-17
0
2.06044e-17
-1.85038e-18
2.82784e-17
1.85036e-18
3.82863e-17
-1.85039e-18
5.13006e-17
-2.23408e-31
6.76475e-17
2.90815e-31
8.85146e-17
1.85038e-18
1.14585e-16
0
1.46834e-16
-1.85035e-18
1.86648e-16
1.85038e-18
2.3653e-16
0
2.99972e-16
0
3.83769e-16
3.70075e-18
4.98643e-16
0
6.62121e-16
1.85039e-18
8.97051e-16
4.15487e-30
1.23367e-15
-3.70071e-18
1.70016e-15
7.66777e-30
2.30489e-15
-9.76767e-30
3.00374e-15
-1.85035e-18
3.62742e-15
-1.85038e-18
3.79192e-15
1.85036e-18
2.6967e-15
-1.85039e-18
-1.17081e-15
1.85038e-18
-1.0446e-14
-1.85036e-18
-2.92819e-14
-1.85039e-18
-6.3361e-14
0
-1.19195e-13
1.85036e-18
-1.98709e-13
0
-2.8889e-13
1.85037e-18
-3.64568e-13
-1.85035e-18
-3.90374e-13
-1.85038e-18
3.98809e-13
0
6.49112e-12
1.85039e-18
2.74035e-11
1.85037e-18
7.73761e-11
1.85035e-18
2.92826e-10
-1.85035e-18
2.25328e-09
0
9.33046e-09
0
3.20481e-09
3.70048e-18
-4.37091e-08
0
-2.35926e-08
3.69984e-18
1.34097e-07
-5.78597e-23
2.14085e-07
0
1.51861e-07
0
1.63505e-07
0
1.86259e-07
0
3.28675e-08
0
-2.9506e-08
-3.69917e-18
9.37087e-08
3.69916e-18
-1.74876e-08
-3.69913e-18
-2.17329e-07
0
-1.99337e-08
-3.70248e-18
2.46011e-07
3.70262e-18
2.89117e-08
7.40467e-18
-3.18451e-07
1.11335e-22
-2.90988e-07
0
-9.41599e-08
0
1.37973e-07
-3.70341e-18
3.02033e-07
3.70319e-18
4.42116e-08
-3.70258e-18
-3.16949e-07
1.71537e-22
-2.90207e-07
0
-1.26708e-07
3.70401e-18
-1.91303e-08
-3.70284e-18
2.43447e-07
0
4.54607e-07
0
9.48054e-08
0
-3.96419e-07
0
-3.57254e-07
-3.69995e-18
-1.40443e-07
3.70063e-18
-7.14133e-08
0
-2.81425e-09
0
2.44584e-07
8.55596e-22
4.47723e-07
0
1.05164e-07
-3.69937e-18
-3.65123e-07
-3.69838e-18
-3.29351e-07
0
-1.23632e-07
0
-5.52164e-08
0
-3.62218e-08
-3.7004e-18
-4.05418e-08
3.69989e-18
-5.05926e-08
0
-4.32941e-08
-3.70325e-18
-2.60396e-08
0
2.60988e-08
0
2.46734e-07
0
4.39852e-07
3.70241e-18
1.28384e-07
0
-3.14411e-07
2.19768e-22
-2.89376e-07
0
-1.01397e-07
-3.70145e-18
-4.67195e-08
0
-3.93747e-08
-2.13141e-23
-3.74404e-08
-3.7016e-18
-3.02376e-08
-1.1642e-23
-2.19855e-08
-3.70242e-18
-2.49299e-08
0
-3.17975e-08
0
-3.28546e-08
3.7038e-18
-3.14123e-08
-3.70348e-18
-3.03249e-08
-1.00986e-23
-2.878e-08
3.70313e-18
-2.24152e-08
-3.70326e-18
2.95675e-08
-3.70329e-18
2.42554e-07
0
4.35689e-07
0
1.65422e-07
3.70491e-18
-2.47305e-07
3.70501e-18
-2.39777e-07
-3.70442e-18
-7.43777e-08
3.70555e-18
-2.67194e-08
-1.11176e-17
-2.02287e-08
3.70598e-18
-1.82053e-08
-3.70737e-18
-1.71695e-08
7.41144e-18
-1.74236e-08
2.83578e-23
-1.71462e-08
0
-1.01612e-08
3.70605e-18
4.0664e-08
0
2.42445e-07
-3.70542e-18
4.26993e-07
0
1.72943e-07
-3.70324e-18
-2.21253e-07
0
-2.18442e-07
-7.40911e-18
-6.19067e-08
-3.70466e-18
-1.60423e-08
3.70528e-18
-1.10508e-08
-2.26484e-24
-1.14882e-08
0
-1.13678e-08
1.11162e-17
-9.63552e-09
-1.26739e-24
-8.85e-09
3.70268e-18
-9.42184e-09
-3.70262e-18
-9.81784e-09
-3.70216e-18
-9.87172e-09
0
-9.6866e-09
-7.40406e-18
-8.78339e-09
-3.70328e-18
-7.36132e-09
-3.70153e-18
-6.4344e-09
2.19398e-25
-5.74172e-09
-3.70069e-18
-4.92375e-09
0
-4.38787e-09
-3.94438e-24
-2.99709e-09
-3.70078e-18
1.22482e-09
-1.95784e-23
7.05367e-09
-4.74906e-24
8.50153e-09
-7.39567e-18
3.81397e-09
-2.33484e-24
-5.04197e-10
3.69973e-18
-1.37686e-09
0
-1.20965e-09
7.40107e-18
-9.72243e-10
0
-6.89169e-10
0
-5.04803e-10
0
-3.98361e-10
-7.40127e-18
-3.5752e-10
-7.40018e-18
-3.44979e-10
0
-3.49551e-10
-7.39976e-18
-3.49216e-10
-7.40072e-18
-3.52992e-10
-7.39987e-18
-3.39857e-10
0
-3.17469e-10
-7.39983e-18
-2.6805e-10
1.48008e-17
-1.89407e-10
7.39972e-18
-7.06395e-11
7.40054e-18
7.65867e-11
-7.39956e-18
1.84425e-10
-7.40111e-18
2.51346e-10
2.5654e-25
4.08018e-10
-7.40142e-18
6.15795e-10
0
7.00765e-10
0
6.77526e-10
0
6.03152e-10
-7.40434e-18
5.19384e-10
-5.16869e-27
4.44414e-10
-1.48077e-17
3.70092e-10
-1.56901e-26
3.07888e-10
-7.39575e-18
2.60251e-10
7.40203e-18
2.26352e-10
0
2.13426e-10
2.82033e-26
2.20094e-10
7.40167e-18
2.41736e-10
0
2.66685e-10
0
2.79824e-10
5.80113e-26
2.90124e-10
0
3.20647e-10
0
3.64647e-10
0
3.99723e-10
0
4.11559e-10
7.40109e-18
4.02361e-10
-7.40081e-18
3.90981e-10
7.39822e-18
3.84278e-10
-7.40029e-18
3.73182e-10
0
3.53429e-10
7.40224e-18
3.32666e-10
0
3.15029e-10
7.40188e-18
2.96454e-10
0
2.70206e-10
-1.17649e-26
2.33193e-10
7.40157e-18
1.89553e-10
-7.40253e-18
1.45764e-10
0
1.07926e-10
0
7.65384e-11
7.40212e-18
4.51649e-11
0
1.03655e-11
0
-2.22827e-11
0
-4.84249e-11
7.40189e-18
-7.12191e-11
0
-9.70172e-11
0
-1.26569e-10
7.40196e-18
-1.5919e-10
0
-1.97419e-10
-7.40187e-18
-2.34689e-10
7.40137e-18
-2.56106e-10
-7.40133e-18
-2.5827e-10
1.48025e-17
-2.49464e-10
-7.40147e-18
-2.40059e-10
-7.40112e-18
-2.37575e-10
7.40108e-18
-2.42127e-10
7.40094e-18
-2.47978e-10
0
-2.51167e-10
0
-2.46194e-10
7.40112e-18
-2.25293e-10
0
-1.94438e-10
0
-1.66143e-10
-7.40094e-18
-1.38992e-10
-7.40115e-18
-1.03519e-10
-7.40113e-18
-6.46709e-11
-5.63413e-27
-3.35273e-11
0
-9.40674e-12
-7.40102e-18
1.23544e-11
-7.40086e-18
3.17972e-11
0
4.92094e-11
0
6.5203e-11
7.40094e-18
7.84505e-11
-1.48018e-17
9.00629e-11
7.40094e-18
1.02364e-10
2.93578e-27
1.14865e-10
7.40093e-18
1.26359e-10
0
1.36045e-10
-7.40094e-18
1.44437e-10
-7.40093e-18
1.52332e-10
7.40097e-18
1.59664e-10
0
1.65996e-10
7.40097e-18
1.69783e-10
0
1.70022e-10
-1.77933e-27
1.66987e-10
-7.40105e-18
1.62288e-10
0
1.56576e-10
0
1.49883e-10
-2.34819e-27
1.41885e-10
0
1.32575e-10
0
1.22346e-10
7.40113e-18
1.11381e-10
1.97273e-27
1.00176e-10
0
8.91003e-11
0
7.82669e-11
7.40112e-18
6.76794e-11
1.6194e-27
5.66718e-11
0
4.51248e-11
7.40114e-18
3.32862e-11
0
2.1276e-11
1.48024e-17
8.32695e-12
7.40123e-18
-1.22697e-11
7.40119e-18
-4.47182e-11
-7.40119e-18
-8.12504e-11
-7.40111e-18
-1.13691e-10
0
-1.41005e-10
-7.40106e-18
-1.64309e-10
0
-1.87127e-10
-7.40103e-18
-2.12307e-10
-7.40099e-18
-2.42412e-10
0
-2.77502e-10
-1.12422e-27
-3.15292e-10
0
-3.53598e-10
3.07378e-30
-3.90214e-10
5.09304e-27
-4.25959e-10
-7.40062e-18
-4.61405e-10
7.40054e-18
-4.97561e-10
-1.48009e-17
-5.35663e-10
7.40045e-18
-5.76581e-10
0
-6.17014e-10
7.40023e-18
-6.53718e-10
0
-6.85315e-10
7.40018e-18
-7.19831e-10
-7.40015e-18
-7.60711e-10
5.53313e-26
-7.91932e-10
7.40026e-18
-8.02038e-10
-7.40023e-18
-7.93861e-10
-7.40031e-18
-7.79611e-10
-1.48008e-17
-7.70491e-10
0
-7.7178e-10
7.40041e-18
-7.81771e-10
0
-7.98677e-10
1.37938e-26
-8.17167e-10
7.40081e-18
-8.31789e-10
7.4011e-18
-8.3979e-10
-7.40122e-18
-8.40246e-10
7.40113e-18
-8.37641e-10
2.22026e-17
-8.35396e-10
-1.48014e-17
-8.36498e-10
1.48014e-17
-8.41628e-10
7.40074e-18
-8.4979e-10
7.40079e-18
-8.5747e-10
0
-8.64444e-10
-2.22027e-17
-8.69496e-10
0
-8.7287e-10
7.401e-18
-8.76405e-10
1.48021e-17
-8.80218e-10
5.1413e-27
-8.85523e-10
7.4012e-18
-8.8979e-10
0
-8.91769e-10
7.40117e-18
-8.92587e-10
2.22034e-17
-8.95368e-10
-1.4802e-17
-9.0097e-10
-1.48019e-17
-9.10331e-10
-7.40086e-18
-9.19455e-10
-7.40079e-18
-9.2613e-10
0
-9.31523e-10
-7.40071e-18
-9.34795e-10
0
-9.37486e-10
1.42304e-27
-9.39981e-10
7.40066e-18
-9.43683e-10
7.40064e-18
-9.49561e-10
7.40068e-18
-9.58415e-10
-7.40068e-18
-9.67395e-10
7.40069e-18
-9.75899e-10
-7.40071e-18
-9.8228e-10
0
-9.87351e-10
-1.48015e-17
-9.93453e-10
-1.48015e-17
-1.00007e-09
-7.40074e-18
-1.0089e-09
-7.40073e-18
-1.01884e-09
6.5337e-27
-1.02901e-09
7.40074e-18
-1.03883e-09
7.40071e-18
-1.0489e-09
-7.04401e-27
-1.05775e-09
8.42681e-27
-1.06703e-09
-1.48014e-17
-1.07576e-09
7.40066e-18
-1.08339e-09
1.48014e-17
-1.0895e-09
-2.00039e-26
-1.0908e-09
-7.40068e-18
-1.08791e-09