/*--------------------------------*- C++ -*----------------------------------*\
| =========                 |                                                 |
| \\      /  F ield         | foam-extend: Open Source CFD                    |
|  \\    /   O peration     | Version:     3.2                                |
|   \\  /    A nd           | Web:         http://www.foam-extend.org         |
|    \\/     M anipulation  | For copyright notice see file Copyright         |
\*---------------------------------------------------------------------------*/
FoamFile
{
    version     2.0;
    format      ascii;
    class       areaVectorField;
    location    "910";
    object      PointNormalVector;
}
// * * * * * * * * * * * * * * * * * * * * * * * * * * * * * * * * * * * * * //

dimensions      [0 0 0 0 0 0 0];

internalField   nonuniform List<vector> 
550
(
(7.27272e-07 0 0.000363636)
(7.27274e-07 0 0.000363636)
(7.27274e-07 2.64698e-23 0.000363638)
(7.2728e-07 -2.64698e-23 0.000363636)
(7.2726e-07 -2.64698e-23 0.000363636)
(7.2728e-07 0 0.000363638)
(7.2726e-07 2.64698e-23 0.00036364)
(7.2728e-07 2.64698e-23 0.00036364)
(7.2728e-07 0 0.00036362)
(7.2726e-07 0 0.00036364)
(7.2728e-07 2.64698e-23 0.00036364)
(7.2728e-07 0 0.00036364)
(7.2726e-07 2.64698e-23 0.00036364)
(7.2728e-07 0 0.00036362)
(7.2728e-07 2.64698e-23 0.00036364)
(7.2726e-07 0 0.00036364)
(7.2728e-07 2.64698e-23 0.00036364)
(7.2726e-07 0 0.00036364)
(7.2728e-07 2.64698e-23 0.00036364)
(7.2728e-07 2.64698e-23 0.00036362)
(7.2726e-07 0 0.00036364)
(7.2728e-07 2.64698e-23 0.00036364)
(7.2728e-07 2.64698e-23 0.00036364)
(7.2726e-07 0 0.00036364)
(7.2728e-07 2.64698e-23 0.00036362)
(7.2728e-07 2.64698e-23 0.00036364)
(7.2726e-07 0 0.00036364)
(7.2724e-07 2.64698e-23 0.00036364)
(7.274e-07 0 0.00036364)
(7.272e-07 0 0.00036364)
(7.272e-07 0 0.00036362)
(7.274e-07 0 0.00036364)
(7.272e-07 0 0.00036364)
(7.272e-07 0 0.00036364)
(7.274e-07 0 0.00036364)
(7.272e-07 0 0.00036362)
(7.272e-07 0 0.00036364)
(7.274e-07 0 0.00036364)
(7.272e-07 0 0.00036364)
(7.274e-07 0 0.00036364)
(7.272e-07 0 0.00036364)
(7.272e-07 0 0.00036362)
(7.274e-07 0 0.00036364)
(7.272e-07 0 0.00036364)
(7.272e-07 0 0.00036364)
(7.274e-07 0 0.00036364)
(7.272e-07 0 0.00036362)
(7.272e-07 0 0.00036364)
(7.274e-07 0 0.00036364)
(7.272e-07 0 0.00036364)
(7.274e-07 0 0.00036364)
(7.272e-07 0 0.00036364)
(7.272e-07 0 0.00036362)
(7.274e-07 0 0.00036364)
(7.272e-07 0 0.00036364)
(7.272e-07 0 0.0003636)
(7.274e-07 0 0.0003636)
(7.272e-07 0 0.0003638)
(7.272e-07 0 0.0003636)
(7.274e-07 0 0.0003636)
(7.272e-07 0 0.0003636)
(7.274e-07 0 0.0003636)
(7.272e-07 0 0.0003636)
(7.272e-07 0 0.0003638)
(7.274e-07 0 0.0003636)
(7.272e-07 0 0.0003636)
(7.272e-07 0 0.0003636)
(7.274e-07 0 0.0003636)
(7.272e-07 0 0.0003638)
(7.272e-07 0 0.0003636)
(7.274e-07 0 0.0003636)
(7.272e-07 0 0.0003636)
(7.274e-07 0 0.0003636)
(7.272e-07 0 0.0003636)
(7.272e-07 0 0.0003638)
(7.274e-07 0 0.0003636)
(7.272e-07 0 0.0003636)
(7.272e-07 0 0.0003636)
(7.274e-07 0 0.0003636)
(7.272e-07 0 0.0003638)
(7.272e-07 0 0.0003636)
(7.274e-07 0 0.0003636)
(7.272e-07 0 0.0003636)
(7.274e-07 0 0.0003636)
(7.272e-07 0 0.0003636)
(7.272e-07 0 0.0003638)
(7.274e-07 0 0.0003636)
(7.272e-07 0 0.0003636)
(7.272e-07 0 0.0003636)
(7.274e-07 0 0.0003636)
(7.272e-07 0 0.0003638)
(7.272e-07 2.64698e-23 0.0003636)
(7.274e-07 0 0.0003636)
(7.272e-07 0 0.0003636)
(7.274e-07 0 0.0003636)
(7.272e-07 0 0.0003636)
(7.272e-07 2.64698e-23 0.0003638)
(7.274e-07 0 0.0003636)
(7.272e-07 0 0.0003636)
(7.272e-07 0 0.0003636)
(7.274e-07 0 0.0003636)
(7.272e-07 0 0.0003638)
(7.272e-07 0 0.0003636)
(7.274e-07 0 0.0003636)
(7.272e-07 0 0.0003636)
(7.274e-07 0 0.0003636)
(7.272e-07 0 0.0003636)
(7.272e-07 0 0.0003638)
(7.274e-07 0 0.0003636)
(7.42716e-07 0 0.0003636)
(7.4548e-07 0 0.0003636)
(7.06191e-07 0 0.0003636)
(6.76078e-07 0 0.0003638)
(7.37844e-07 0 0.0003636)
(8.27023e-07 0 0.0003636)
(6.8821e-07 0 0.0003636)
(5.9335e-07 0 0.0003636)
(9.51725e-07 -2.64698e-23 0.0003636)
(4.94794e-07 -1.32349e-23 0.0003638)
(7.83312e-07 0 0.0003636)
(8.08151e-07 0 0.0003636)
(7.1748e-07 2.64698e-23 0.0003636)
(6.05779e-07 0 0.0003636)
(7.10046e-07 0 0.0003638)
(9.99585e-07 0 0.0003636)
(5.92511e-07 2.64698e-23 0.0003636)
(4.59843e-07 0 0.0003636)
(5.45409e-07 0 0.0003636)
(9.76314e-07 0 0.0003636)
(9.80382e-07 2.64698e-23 0.0003638)
(7.71607e-07 0 0.0003636)
(5.85299e-07 0 0.0003636)
(5.44495e-07 0 0.0003636)
(8.33706e-07 0 0.0003636)
(6.29386e-07 0 0.0003638)
(6.85443e-07 0 0.0003636)
(8.37199e-07 0 0.0003636)
(9.56847e-07 0 0.0003636)
(7.57912e-07 0 0.0003636)
(4.66903e-07 0 0.0003636)
(2.55701e-07 0 0.0003638)
(1.19392e-06 5.29396e-23 0.0003636)
(6.57347e-07 0 0.0003636)
(6.889e-07 0 0.0003636)
(9.23431e-07 -2.64698e-23 0.0003636)
(8.16189e-07 2.64698e-23 0.0003638)
(7.11913e-07 0 0.0003636)
(5.87241e-07 0 0.0003636)
(6.55565e-07 0 0.0003636)
(8.07482e-07 0 0.0003636)
(7.54242e-07 0 0.0003636)
(9.5242e-07 0 0.0003638)
(3.84171e-07 -1.32349e-23 0.0003636)
(5.40193e-07 0 0.0003636)
(1.15249e-06 0 0.0003636)
(7.74401e-07 0 0.0003636)
(4.31351e-07 0 0.0003638)
(8.56781e-07 -2.64698e-23 0.0003636)
(8.77843e-07 2.64698e-23 0.0003636)
(5.93421e-07 0 0.0003636)
(5.68465e-07 -2.64698e-23 0.0003636)
(6.916e-07 0 0.0003636)
(7.04918e-07 0 0.0003638)
(9.68847e-07 -2.64698e-23 0.0003636)
(6.60675e-07 0 0.0003636)
(5.33001e-07 2.64698e-23 0.0003636)
(1.02497e-06 0 0.0003636)
(8.20577e-07 -2.64698e-23 0.0003638)
(4.11196e-07 0 0.0003636)
(6.48479e-07 0 0.0003636)
(9.86975e-07 0 0.0003636)
(7.27283e-07 0 0.0003636)
(6.96059e-07 0 0.0003636)
(6.95222e-07 -2.64698e-23 0.0003638)
(6.51053e-07 0 0.0003636)
(6.97005e-07 2.64698e-23 0.0003636)
(8.07944e-07 -2.64698e-23 0.0003636)
(9.66943e-07 0 0.0003636)
(5.24374e-07 0 0.0003638)
(5.51337e-07 0 0.0003636)
(7.24452e-07 0 0.0003636)
(5.60401e-07 0 0.0003636)
(8.81239e-07 0 0.0003636)
(8.16591e-07 0 0.0003636)
(8.08158e-07 -2.64698e-23 0.0003638)
(9.24494e-07 0 0.0003636)
(4.35578e-07 0 0.0003636)
(6.08848e-07 0 0.0003636)
(1.03917e-06 0 0.0003636)
(6.78919e-07 0 0.0003638)
(6.40946e-07 0 0.0003636)
(7.62604e-07 0 0.0003636)
(3.22464e-07 0 0.0003636)
(4.78093e-07 0 0.0003636)
(9.24608e-07 0 0.0003636)
(9.87522e-07 0 0.0003638)
(7.68231e-07 0 0.0003636)
(6.91184e-07 0 0.0003636)
(3.62309e-07 0 0.0003636)
(7.67858e-07 -2.64698e-23 0.0003636)
(8.59904e-07 0 0.0003638)
(2.47039e-07 0 0.0003636)
(3.38443e-07 0 0.0003636)
(3.07916e-07 0 0.0003636)
(3.00637e-07 0 0.0003636)
(4.15043e-07 -1.32349e-23 0.0003636)
(4.03189e-07 0 0.0003638)
(7.11273e-07 0 0.0003636)
(3.14549e-07 0 0.0003636)
(6.67586e-07 0 0.0003636)
(4.89374e-07 1.32349e-23 0.0003636)
(4.71621e-07 0 0.0003638)
(5.37306e-07 2.64698e-23 0.0003636)
(5.74731e-07 0 0.0003636)
(4.56124e-07 0 0.0003636)
(-1.20704e-06 -5.29396e-23 0.0003636)
(-1.51103e-06 0 0.0003636)
(-9.83837e-07 0 0.0003638)
(-1.2013e-06 5.29396e-23 0.0003636)
(-1.08461e-06 0 0.0003636)
(-1.12624e-06 0 0.0003636)
(-1.14299e-06 5.29396e-23 0.0003636)
(-1.08452e-06 5.29396e-23 0.0003638)
(-1.14092e-06 0 0.0003636)
(-1.00969e-06 -2.64698e-23 0.0003636)
(-1.08797e-06 5.29396e-23 0.0003636)
(-9.10399e-07 0 0.0003636)
(-9.87487e-07 0 0.0003636)
(-7.90055e-07 -2.64698e-23 0.0003638)
(-8.42544e-07 2.64698e-23 0.0003636)
(-6.46999e-07 0 0.0003636)
(-6.66615e-07 -2.64698e-23 0.0003636)
(-4.79445e-07 0 0.0003636)
(-4.83629e-07 -1.32349e-23 0.0003638)
(-2.90187e-07 1.32349e-23 0.0003636)
(-3.33722e-07 0 0.0003636)
(-7.29809e-08 0 0.0003636)
(-3.05946e-07 1.32349e-23 0.0003636)
(2.69242e-07 0 0.0003636)
(-1.92712e-08 -8.27181e-25 0.0003638)
(3.23192e-07 0 0.0003636)
(-2.77457e-07 0 0.0003636)
(1.08977e-06 -5.29396e-23 0.0003636)
(1.78492e-07 0 0.0003636)
(5.11875e-07 0 0.0003638)
(3.18818e-08 0 0.0003636)
(-1.63359e-07 0 0.0003636)
(8.61435e-07 0 0.0003636)
(4.99963e-07 -1.32349e-23 0.0003636)
(2.83988e-07 0 0.0003636)
(5.80823e-07 0 0.0003638)
(3.4517e-07 1.32349e-23 0.0003636)
(7.04129e-07 -2.64698e-23 0.0003636)
(6.44129e-07 0 0.0003636)
(2.0895e-07 6.61744e-24 0.0003636)
(2.76155e-07 0 0.0003638)
(3.14083e-07 0 0.0003636)
(5.07532e-07 0 0.0003636)
(5.84677e-07 0 0.0003636)
(5.41168e-07 2.64698e-23 0.0003636)
(4.51139e-07 0 0.0003636)
(9.22851e-07 2.64698e-23 0.0003638)
(8.91141e-07 0 0.0003636)
(1.04857e-06 0 0.0003636)
(8.11882e-07 0 0.0003636)
(9.12895e-07 0 0.0003636)
(7.99105e-07 2.64698e-23 0.0003638)
(7.8536e-07 0 0.0003636)
(8.10022e-07 0 0.0003636)
(8.1793e-07 0 0.0003636)
(6.18882e-07 2.64698e-23 0.0003636)
(6.70857e-07 2.64698e-23 0.0003636)
(5.43731e-07 0 0.0003638)
(4.67636e-07 0 0.0003636)
(4.28101e-07 0 0.0003636)
(4.28989e-07 0 0.0003636)
(3.1495e-07 0 0.0003636)
(2.50253e-07 0 0.0003638)
(2.59907e-07 0 0.0003636)
(2.72161e-07 0 0.0003636)
(1.83183e-07 6.61744e-24 0.0003636)
(1.19847e-07 -3.30872e-24 0.0003636)
(4.31183e-08 0 0.0003636)
(5.13182e-08 -1.65436e-24 0.0003638)
(3.83444e-08 1.65436e-24 0.0003636)
(4.20535e-08 0 0.0003636)
(-9.77282e-09 0 0.0003636)
(6.61477e-09 0 0.0003636)
(6.43776e-09 0 0.0003638)
(4.07527e-08 1.65436e-24 0.0003636)
(2.05949e-08 0 0.0003636)
(2.51911e-08 0 0.0003636)
(1.08353e-08 -4.1359e-25 0.0003636)
(5.14863e-08 0 0.0003636)
(5.66934e-08 0 0.0003638)
(7.99851e-08 3.30872e-24 0.0003636)
(6.34975e-08 -1.65436e-24 0.0003636)
(6.17351e-08 0 0.0003636)
(4.04255e-08 1.65436e-24 0.0003636)
(5.38483e-08 -1.65436e-24 0.0003638)
(4.86649e-08 -1.65436e-24 0.0003636)
(7.5665e-08 0 0.0003636)
(8.43315e-08 0 0.0003636)
(1.07923e-07 0 0.0003636)
(1.09482e-07 0 0.0003636)
(1.29132e-07 0 0.0003638)
(1.30867e-07 -3.30872e-24 0.0003636)
(1.48322e-07 0 0.0003636)
(1.49822e-07 0 0.0003636)
(1.65753e-07 0 0.0003636)
(1.66469e-07 0 0.0003638)
(1.7904e-07 0 0.0003636)
(1.79262e-07 0 0.0003636)
(1.90014e-07 0 0.0003636)
(1.89613e-07 -6.61744e-24 0.0003636)
(1.96791e-07 6.61744e-24 0.0003636)
(1.90792e-07 0 0.0003638)
(1.90722e-07 -6.61744e-24 0.0003636)
(1.7945e-07 -6.61744e-24 0.0003636)
(1.73228e-07 0 0.0003636)
(1.59745e-07 0 0.0003636)
(1.52616e-07 0 0.0003638)
(1.38983e-07 0 0.0003636)
(1.29898e-07 0 0.0003636)
(1.17251e-07 3.30872e-24 0.0003636)
(1.05645e-07 3.30872e-24 0.0003636)
(9.33487e-08 0 0.0003636)
(8.18271e-08 3.30872e-24 0.0003638)
(6.88052e-08 0 0.0003636)
(5.6883e-08 0 0.0003636)
(4.26002e-08 0 0.0003636)
(2.89782e-08 0 0.0003636)
(8.33159e-09 0 0.0003638)
(-1.69092e-08 0 0.0003636)
(-3.52239e-08 -1.65436e-24 0.0003636)
(-5.44216e-08 0 0.0003636)
(-6.89986e-08 -3.30872e-24 0.0003636)
(-8.3303e-08 3.30872e-24 0.0003636)
(-9.56407e-08 0 0.0003638)
(-1.06831e-07 -3.30872e-24 0.0003636)
(-1.18224e-07 -3.30872e-24 0.0003636)
(-1.25134e-07 0 0.0003636)
(-1.29491e-07 3.30872e-24 0.0003636)
(-1.29107e-07 0 0.0003638)
(-1.27874e-07 0 0.0003636)
(-1.18262e-07 0 0.0003636)
(-1.05945e-07 3.30872e-24 0.0003636)
(-8.77979e-08 3.30872e-24 0.0003636)
(-6.43126e-08 0 0.0003636)
(-2.83767e-08 0 0.0003638)
(-2.8892e-09 -1.03398e-25 0.0003636)
(3.00624e-08 0 0.0003636)
(7.93679e-08 3.30872e-24 0.0003636)
(1.28897e-07 0 0.0003636)
(1.7846e-07 0 0.0003638)
(2.30936e-07 6.61744e-24 0.0003636)
(2.83922e-07 0 0.0003636)
(3.22517e-07 0 0.0003636)
(3.69803e-07 0 0.0003636)
(4.09987e-07 0 0.0003636)
(4.36541e-07 0 0.0003638)
(4.75914e-07 0 0.0003636)
(5.12873e-07 0 0.0003636)
(5.24527e-07 0 0.0003636)
(5.32909e-07 -2.64698e-23 0.0003636)
(5.4045e-07 0 0.0003638)
(5.08098e-07 1.32349e-23 0.0003636)
(4.64254e-07 -1.32349e-23 0.0003636)
(4.32812e-07 0 0.0003636)
(4.32945e-07 1.32349e-23 0.0003636)
(4.50322e-07 0 0.0003636)
(4.65203e-07 -1.32349e-23 0.0003638)
(4.7087e-07 1.32349e-23 0.0003636)
(4.72445e-07 0 0.0003636)
(4.67985e-07 0 0.0003636)
(4.64952e-07 0 0.0003636)
(4.52791e-07 0 0.0003638)
(4.37329e-07 -1.32349e-23 0.0003636)
(4.17431e-07 0 0.0003636)
(3.95101e-07 1.32349e-23 0.0003636)
(3.62165e-07 0 0.0003636)
(3.29168e-07 1.32349e-23 0.0003636)
(3.01033e-07 -1.32349e-23 0.0003638)
(2.69463e-07 0 0.0003636)
(2.52188e-07 6.61744e-24 0.0003636)
(2.4019e-07 6.61744e-24 0.0003636)
(2.33945e-07 -6.61744e-24 0.0003636)
(2.33545e-07 -6.61744e-24 0.0003638)
(2.36095e-07 0 0.0003636)
(2.43917e-07 0 0.0003636)
(2.48165e-07 0 0.0003636)
(2.55716e-07 0 0.0003636)
(2.63134e-07 0 0.0003636)
(2.72894e-07 0 0.0003638)
(2.78657e-07 -1.32349e-23 0.0003636)
(2.84947e-07 0 0.0003636)
(2.89389e-07 0 0.0003636)
(2.90693e-07 0 0.0003636)
(2.93464e-07 0 0.0003638)
(2.92687e-07 0 0.0003636)
(2.91924e-07 0 0.0003636)
(2.92475e-07 -1.32349e-23 0.0003636)
(2.91132e-07 0 0.0003636)
(2.91393e-07 -1.32349e-23 0.0003636)
(2.89666e-07 0 0.0003638)
(2.89892e-07 0 0.0003636)
(2.8958e-07 0 0.0003636)
(2.90723e-07 0 0.0003636)
(2.9182e-07 0 0.0003636)
(2.95149e-07 0 0.0003638)
(2.97471e-07 0 0.0003636)
(3.01314e-07 -1.32349e-23 0.0003636)
(3.02769e-07 -1.32349e-23 0.0003636)
(3.04716e-07 0 0.0003636)
(3.10472e-07 -1.32349e-23 0.0003636)
(3.11234e-07 0 0.0003638)
(3.15428e-07 0 0.0003636)
(3.17109e-07 1.32349e-23 0.0003636)
(3.20662e-07 0 0.0003636)
(3.24466e-07 0 0.0003636)
(3.25253e-07 0 0.0003638)
(3.275e-07 1.32349e-23 0.0003636)
(3.27146e-07 0 0.0003636)
(3.29442e-07 -1.32349e-23 0.0003636)
(3.30177e-07 -1.32349e-23 0.0003636)
(3.32099e-07 0 0.0003636)
(3.30069e-07 1.32349e-23 0.0003638)
(3.3157e-07 -1.32349e-23 0.0003636)
(3.30704e-07 0 0.0003636)
(3.32885e-07 0 0.0003636)
(3.31497e-07 0 0.0003636)
(3.30386e-07 0 0.0003638)
(3.29395e-07 0 0.0003636)
(3.29202e-07 0 0.0003636)
(3.27661e-07 0 0.0003636)
(3.26587e-07 1.32349e-23 0.0003636)
(3.24272e-07 0 0.0003636)
(3.21295e-07 -1.32349e-23 0.0003638)
(3.19349e-07 0 0.0003636)
(3.18067e-07 0 0.0003636)
(3.16221e-07 -1.32349e-23 0.0003636)
(3.12492e-07 0 0.0003636)
(3.12813e-07 0 0.0003638)
(3.04873e-07 0 0.0003636)
(3.02909e-07 0 0.0003636)
(2.99085e-07 0 0.0003636)
(2.9095e-07 0 0.0003636)
(2.87019e-07 0 0.0003636)
(2.8094e-07 -1.32349e-23 0.0003638)
(2.75221e-07 0 0.0003636)
(2.68671e-07 -1.32349e-23 0.0003636)
(2.61661e-07 0 0.0003636)
(2.56304e-07 6.61744e-24 0.0003636)
(2.50459e-07 0 0.0003638)
(2.41655e-07 0 0.0003636)
(2.4036e-07 -6.61744e-24 0.0003636)
(2.34695e-07 -6.61744e-24 0.0003636)
(2.28754e-07 -6.61744e-24 0.0003636)
(2.24322e-07 0 0.0003636)
(2.21657e-07 0 0.0003638)
(2.17083e-07 0 0.0003636)
(2.14363e-07 6.61744e-24 0.0003636)
(2.08871e-07 0 0.0003636)
(2.06682e-07 6.61744e-24 0.0003636)
(2.01341e-07 6.61744e-24 0.0003638)
(1.94617e-07 -6.61744e-24 0.0003636)
(1.92197e-07 -6.61744e-24 0.0003636)
(1.80938e-07 0 0.0003636)
(1.7446e-07 6.61744e-24 0.0003636)
(1.60921e-07 0 0.0003636)
(1.46768e-07 -6.61744e-24 0.0003638)
(1.2887e-07 0 0.0003636)
(1.13143e-07 -3.30872e-24 0.0003636)
(8.73737e-08 -3.30872e-24 0.0003636)
(6.23513e-08 0 0.0003636)
(2.97397e-08 0 0.0003638)
(-1.43479e-08 0 0.0003636)
(-5.45932e-08 1.65436e-24 0.0003636)
(-9.14119e-08 3.30872e-24 0.0003636)
(-1.18943e-07 -3.30872e-24 0.0003636)
(-1.48109e-07 0 0.0003636)
(-1.69733e-07 0 0.0003638)
(-1.91177e-07 0 0.0003636)
(-2.09316e-07 0 0.0003636)
(-2.25285e-07 0 0.0003636)
(-2.36003e-07 -6.61744e-24 0.0003636)
(-2.4684e-07 0 0.0003638)
(-2.53158e-07 0 0.0003636)
(-2.59617e-07 0 0.0003636)
(-2.6338e-07 0 0.0003636)
(-2.66518e-07 1.32349e-23 0.0003636)
(-2.67972e-07 1.32349e-23 0.0003636)
(-2.69394e-07 0 0.0003638)
(-2.6797e-07 0 0.0003636)
(-2.67256e-07 -1.32349e-23 0.0003636)
(-2.66646e-07 0 0.0003636)
(-2.64145e-07 0 0.0003636)
(-2.59126e-07 0 0.0003638)
(-2.54926e-07 0 0.0003636)
(-2.50529e-07 -6.61744e-24 0.0003636)
(-2.44453e-07 0 0.0003636)
(-2.39491e-07 0 0.0003636)
(-2.35921e-07 6.61744e-24 0.0003636)
(-2.28315e-07 0 0.0003638)
(-2.2607e-07 -6.61744e-24 0.0003636)
(-2.18786e-07 0 0.0003636)
(-2.18668e-07 0 0.0003636)
(-2.12854e-07 6.61744e-24 0.0003636)
(-2.12932e-07 0 0.0003638)
(-2.08168e-07 -6.61744e-24 0.0003636)
(-2.14103e-07 -6.61744e-24 0.0003636)
(-2.11351e-07 0 0.0003636)
(-2.21625e-07 -6.61744e-24 0.0003636)
(-2.16896e-07 0 0.0003636)
(-2.3362e-07 0 0.0003638)
(-2.37539e-07 -6.61744e-24 0.0003636)
(-2.37479e-07 0 0.0003636)
(-2.90459e-07 -1.32349e-23 0.0003636)
(-2.20518e-07 0 0.0003636)
(-4.2639e-07 -1.32349e-23 0.0003638)
(-9.36437e-08 0 0.0003636)
(-7.8671e-07 0 0.0003636)
(2.82415e-07 0 0.0003636)
(-1.44166e-06 5.29396e-23 0.0003636)
(1.06847e-06 0 0.0003636)
(-2.20264e-06 -1.05879e-22 0.0003638)
(2.33597e-06 1.05879e-22 0.0003636)
(-2.87468e-06 0 0.0003636)
(4.09656e-06 0 0.0003636)
(-3.10417e-06 0 0.0003636)
(6.22921e-06 0 0.0003638)
(-2.31149e-06 0 0.0003636)
(8.37564e-06 0 0.0003636)
(2.71581e-07 0 0.0003636)
(1.10304e-05 0 0.0003636)
(5.98858e-06 0 0.0003636)
(1.95155e-05 0 0.0003638)
(2.16036e-05 -8.47033e-22 0.0003636)
(5.07889e-05 0 0.0003636)
(8.94777e-05 0 0.0003636)
(7.26e-07 0 0.0003636)
(7.28e-07 2.64698e-23 0.0003638)
(7.28e-07 0 0.0003636)
(7.26e-07 -2.64698e-23 0.0003636)
(7.28e-07 0 0.0003636)
(7.26e-07 -2.64698e-23 0.0003636)
(7.28e-07 -2.64698e-23 0.0003636)
(7.28e-07 0 0.0003638)
(7.26e-07 0 0.0003636)
(7.28e-07 -2.64698e-23 0.0003636)
)
;

boundaryField
{
    inlet
    {
        type            calculated;
        value           uniform (0 0 0);
    }
    endWall
    {
        type            calculated;
        value           uniform (0 0 0);
    }
    sideWall
    {
        type            empty;
    }
}


// ************************************************************************* //
