/*--------------------------------*- C++ -*----------------------------------*\
| =========                 |                                                 |
| \\      /  F ield         | foam-extend: Open Source CFD                    |
|  \\    /   O peration     | Version:     3.2                                |
|   \\  /    A nd           | Web:         http://www.foam-extend.org         |
|    \\/     M anipulation  | For copyright notice see file Copyright         |
\*---------------------------------------------------------------------------*/
FoamFile
{
    version     2.0;
    format      ascii;
    class       areaScalarField;
    location    "910";
    object      Te;
}
// * * * * * * * * * * * * * * * * * * * * * * * * * * * * * * * * * * * * * //

dimensions      [0 0 1 0 0 0 0];

internalField   nonuniform List<scalar> 
550
(
0
0
0
0
0
0
0
0
0
0
0
0
0
0
0
0
0
0
0
0
0
0
0
0
0
0
0
0
0
0
0
0
0
0
0
0
0
0
0
0
0
0
0
0
0
0
0
0
0
0
0
0
0
0
0
0
0
0
0
0
0
0
0
0
0
0
0
0
0
0
0
0
0
0
0
0
0
0
0
0
0
0
0
0
0
0
0
0
0
0
0
0
0
0
0
0
0
0
0
0
0
0
0
0
0
0
0
0
0
0
0
0.008
0.008
0
0.016
0.012
0.008
0.004
0.004
0.004
0.004
0.004
0
0
0
0.028
0.016
0.004
0
0
0
0.02
0.016
0.012
0.004
0
0
0
0.02
0.016
0.008
0.004
0
0
0
0
0.012
0.008
0.004
0
0
0
0.02
0.004
0
0
0.012
0.012
0.012
0.028
0.024
0.012
0.008
0.008
0.004
0
0
0
0.008
0.008
0
0
0.052
0.048
0.048
0.024
0.024
0.024
0.088
0.044
0.016
0.004
0.004
0
0
0
0.044
0.044
0.044
0.028
0.028
0.028
0.004
0
0
0
0.012
0.012
0.02
0.02
0.02
0.796
0.796
1.008
0.972
0.9
0.9
0.9
0.908
0.908
0.892
0.808
0.804
0
0
0
0
3.42
3.252
3.088
2.952
1.408
1.288
1.196
1.12
1.02
0.964
0.892
0.908
0.908
1.032
2.44
2.416
0.212
0
0
0
0
0
0
0
0
0
0
0
0
0
0
0
0
0
0
0
0
0
0
0
0
0
0
0
0
0
0
0
0
0
0
0
0
0
0
0
0
0.336
0.308
0.304
0.32
0.324
0.312
0.304
0.292
0.26
0.228
0.204
0.188
0.184
0.18
0.176
0.168
0.156
0.136
0.116
0.1
0.088
0.068
0.044
0.024
0.008
0
0
0
0
0
0
0
0
0
0
0
0
0
0
0
0
0
0
0
0
0
0
0
0
0
0
0
0
0
0
0
0
0
0.02
1.504
1.524
1.54
1.556
1.572
1.604
1.696
4.18
4.164
4.152
4.14
4.128
4.116
4.108
4.1
4.092
4.08
4.072
4.064
4.052
4.036
4.016
4
3.996
4
4.004
4.008
4.012
4.008
3.996
3.984
3.968
3.952
3.924
3.892
3.848
3.804
3.76
3.72
3.684
3.652
3.624
3.604
3.588
3.576
3.568
3.564
3.56
3.556
3.556
3.552
3.552
3.548
3.544
3.548
3.548
3.552
3.556
3.564
3.572
3.58
3.592
3.612
3.648
3.744
6.332
6.248
6.188
6.148
6.116
6.092
6.076
6.06
6.048
6.032
6.02
6.008
5.992
5.98
5.968
5.952
5.936
3.188
3.116
3.06
3.016
2.976
2.94
2.904
2.872
2.844
2.816
2.788
2.764
2.74
2.72
2.696
2.676
2.656
2.636
2.612
0
0
0
0
0
0
0
0
0
0
0
0
0
0
0
0
0
0
0
0
0
0
0
0
0
0
0
0
0
0
0
0
0
0
0
0
0
0
0
0
0
0
0
0
0
0
0
0
0
0
0
0
0
0
0
0
1.292
1.244
1.204
1.164
0
0
0
0
0
0
0
0
0
0
0
0
0
0
7.168
7.136
7.112
7.088
7.068
7.06
7.072
7.076
6.396
6.336
6.296
6.268
6.252
6.252
6.292
7.62
7.644
7.652
7.66
7.652
7.64
7.616
7.592
7.556
7.528
7.5
7.464
7.448
7.456
7.468
7.428
7.348
0
0
0
0
0
0
0
0
0
0
)
;

boundaryField
{
    inlet
    {
        type            calculated;
        value           uniform 0;
    }
    endWall
    {
        type            calculated;
        value           uniform 0;
    }
    sideWall
    {
        type            empty;
    }
}


// ************************************************************************* //
