/*--------------------------------*- C++ -*----------------------------------*\
| =========                 |                                                 |
| \\      /  F ield         | foam-extend: Open Source CFD                    |
|  \\    /   O peration     | Version:     3.2                                |
|   \\  /    A nd           | Web:         http://www.foam-extend.org         |
|    \\/     M anipulation  | For copyright notice see file Copyright         |
\*---------------------------------------------------------------------------*/
FoamFile
{
    version     2.0;
    format      ascii;
    class       volScalarField;
    location    "910";
    object      testS;
}
// * * * * * * * * * * * * * * * * * * * * * * * * * * * * * * * * * * * * * //

dimensions      [0 0 0 0 0 0 0];

internalField   uniform 0;

boundaryField
{
    inlet
    {
        type            calculated;
        value           uniform 0;
    }
    outlet
    {
        type            calculated;
        value           uniform 0;
    }
    sideWall
    {
        type            empty;
    }
    bed
    {
        type            calculated;
        value           nonuniform List<scalar> 
550
(
0.00292491
0.00539723
0.00903497
0.0139963
0.0203513
0.0279988
0.036319
0.0460001
0.0554888
0.0637605
0.0730907
0.0792417
0.0865962
0.0913895
0.0933432
0.0971012
0.0982369
0.0968503
0.0962995
0.095208
0.0936963
0.0933237
0.0898212
0.0889827
0.0866619
0.0843205
0.0820037
0.0785793
0.0775948
0.075531
0.0735627
0.0716954
0.068973
0.0673534
0.0658341
0.0644125
0.0639235
0.0618453
0.0606907
0.0603959
0.0586157
0.0576856
0.0575481
0.0560173
0.0552697
0.0545746
0.0539279
0.053327
0.0527678
0.052248
0.0524387
0.0519894
0.0508941
0.0511752
0.0501353
0.0504527
0.049469
0.0498035
0.0495038
0.0486067
0.0483493
0.0486946
0.0484523
0.0482221
0.0480035
0.0472353
0.0475967
0.0468541
0.0472253
0.0465018
0.0463348
0.0467256
0.0465715
0.0458651
0.0457166
0.0461353
0.0459952
0.0458561
0.0451529
0.0455778
0.0448859
0.044756
0.0451563
0.0450151
0.0448746
0.0447351
0.0445981
0.044017
0.0438991
0.0437827
0.0436674
0.0439674
0.0434408
0.0433287
0.0436352
0.0435289
0.0429973
0.0433193
0.0427808
0.0426737
0.0425672
0.0429005
0.0427951
0.0422508
0.0425812
0.0424724
0.0423617
0.0422496
0.0421358
0.0420169
0.041898
0.0358621
0.041289
0.0411728
0.0292608
0.0305373
0.0408536
0.026206
0.0290014
0.0405043
0.0403792
0.0226709
0.0401719
0.0400519
0.0401862
0.017985
0.0397385
0.039619
0.0394671
0.0393397
0.0395131
0.0169527
0.0390589
0.0389218
0.0388131
0.0387036
0.0385711
0.0384409
0.00967251
0.0382615
0.0381669
0.037958
0.0378586
0.0377468
0.0376081
0.03749
0.00921141
0.0372804
0.0371605
0.0370312
0.0369135
0.0370003
0.0367107
0.036593
0.0364179
0.0365345
0.0362494
0.0361045
0.0359792
0.00673639
0.0357979
0.0356793
0.0355673
0.0354378
0.0353554
0.0352712
0.0351272
0.0351906
0.0349761
0.0348696
0.0347399
0.0346598
0.0345758
0.0344857
0.0344009
0.0343122
0.0342164
0.0341174
0.00247234
0.0340001
0.0339048
0.0338361
0.0337383
0.0336638
0.0335947
0.0335153
0.0334847
0.0334143
0.0333089
0.0332645
0.0332128
0.0331429
0.00186318
0.0330547
0.0329563
0.0328855
0.0328467
0.032803
0.0327793
0.0327022
0.032635
0.0326334
0.0325906
0.0325419
0.0324964
0.0324424
0.0323957
0.0323272
0.0323095
0.0322482
0.0322139
0.0321796
0.0321341
0.0320903
0.0320605
0.0314159
0.0312444
0.0314658
0.0313236
0.0313464
0.0312916
0.0312514
0.0312466
0.0311886
0.0312201
0.0311529
0.0312071
0.0311402
0.0312042
0.0311489
0.0312123
0.0311726
0.0312318
0.0311997
0.0312609
0.03121
0.0313008
0.0311803
0.0312595
0.0312271
0.031245
0.0311637
0.0310465
0.0312804
0.031235
0.0313864
0.031298
0.0311054
0.0312534
0.0312886
0.0312349
0.0312898
0.031185
0.0312572
0.0313494
0.0313227
0.0312607
0.0312127
0.0311681
0.0312174
0.0311865
0.0310991
0.0311076
0.0311309
0.0312023
0.0312087
0.0312408
0.0312555
0.0312366
0.031253
0.0312859
0.0312678
0.0312808
0.0312801
0.0312573
0.031236
0.0312372
0.0312232
0.0311843
0.0311613
0.0311588
0.0311541
0.0311399
0.0311107
0.0310844
0.0310643
0.0310489
0.0310319
0.0310103
0.0309914
0.0309826
0.0309753
0.0309644
0.0309473
0.0309368
0.030929
0.0309265
0.0309249
0.0309204
0.0309118
0.0309019
0.0308893
0.030879
0.0308702
0.030864
0.0308578
0.0308527
0.0308471
0.0308421
0.0308372
0.030833
0.0308287
0.0308247
0.0308202
0.030816
0.0308126
0.0308096
0.0308068
0.0308048
0.0308015
0.0307977
0.0307932
0.0307886
0.0307826
0.0307772
0.0307708
0.0307642
0.0307571
0.0307503
0.0307434
0.0307367
0.0307303
0.0307247
0.0307104
0.0306952
0.0306805
0.0306688
0.030658
0.0306489
0.0306399
0.0306312
0.0306242
0.0306181
0.0306134
0.0306088
0.0306068
0.0306048
0.0306046
0.0306052
0.0306097
0.0306094
0.0305953
0.0305802
0.0305687
0.0305613
0.0305563
0.0305558
0.0305592
0.0305611
0.0305668
0.0305739
0.0305778
0.0305832
0.0305949
0.0306044
0.0306139
0.0306297
0.030643
0.0306462
0.0306374
0.0306246
0.0306149
0.0306077
0.0306029
0.0305997
0.0305962
0.0305943
0.0305922
0.03059
0.0305873
0.0305858
0.0305814
0.0305748
0.0305663
0.0305542
0.0305407
0.0305262
0.0305118
0.030498
0.0304851
0.0304744
0.0304646
0.0304561
0.0304481
0.0304429
0.0304376
0.0304334
0.0304301
0.0304268
0.0304241
0.0304211
0.0304174
0.0304139
0.0304102
0.0304065
0.0304019
0.0303979
0.0303933
0.0303883
0.0303834
0.0303792
0.030374
0.0303702
0.0303654
0.0303605
0.0303563
0.0303515
0.0303472
0.030342
0.0303368
0.0303323
0.0303269
0.0303216
0.0303154
0.0303087
0.0303022
0.0302959
0.0302883
0.0302812
0.030273
0.0302658
0.0302578
0.0302503
0.0302421
0.0302346
0.0302268
0.0302195
0.030212
0.0302045
0.0301963
0.0301892
0.0301817
0.0301741
0.0301679
0.0301603
0.0301536
0.0301472
0.0301402
0.0301335
0.0301264
0.0301195
0.0301124
0.0301042
0.0300967
0.0300886
0.0300787
0.0300697
0.0300602
0.0300498
0.0300391
0.0300278
0.0300164
0.0300049
0.0299921
0.0299803
0.0299676
0.0299546
0.0299431
0.0299308
0.0299193
0.0299087
0.0298976
0.0298873
0.0298779
0.0298699
0.029862
0.029849
0.0298223
0.0298004
0.0297834
0.0297677
0.0297562
0.0297446
0.029736
0.0297278
0.0297222
0.0297163
0.0297122
0.0297078
0.0297043
0.0297005
0.0296971
0.029693
0.0296894
0.0296848
0.0296799
0.0296745
0.0296697
0.0296632
0.0296571
0.0296504
0.0296438
0.0296364
0.0296306
0.0296232
0.0296178
0.0296108
0.0296064
0.0295999
0.0295968
0.0295901
0.0295886
0.0295815
0.0295838
0.0295751
0.0295772
0.0295739
0.0295621
0.0295853
0.0295171
0.0296453
0.0293829
0.0297184
0.0291343
0.0297115
0.0288634
0.029691
0.0286407
0.0296429
0.0285868
0.0295401
0.0289039
0.0293309
0.029359
0.0288651
0.0283936
0.027723
0.0263463
0.0252338
0.0252056
0.0157561
0.0141911
0.0113365
0.00882567
0.00579909
0.00276306
0.000818213
0.000647135
0.000812988
0.00290475
)
;
    }
    endWall
    {
        type            calculated;
        value           uniform 0;
    }
    topWall
    {
        type            calculated;
        value           uniform 0;
    }
}


// ************************************************************************* //
