/*--------------------------------*- C++ -*----------------------------------*\
| =========                 |                                                 |
| \\      /  F ield         | foam-extend: Open Source CFD                    |
|  \\    /   O peration     | Version:     3.2                                |
|   \\  /    A nd           | Web:         http://www.foam-extend.org         |
|    \\/     M anipulation  | For copyright notice see file Copyright         |
\*---------------------------------------------------------------------------*/
FoamFile
{
    version     2.0;
    format      ascii;
    class       areaScalarField;
    location    "910";
    object      thetaSS1;
}
// * * * * * * * * * * * * * * * * * * * * * * * * * * * * * * * * * * * * * //

dimensions      [0 0 0 0 0 0 0];

internalField   nonuniform List<scalar> 
550
(
0.514767
0.71086
0.949225
1.22775
1.53972
1.87446
2.2193
2.55998
2.88397
3.17976
3.43982
3.65908
3.83626
3.97189
4.06878
4.13046
4.16161
4.16695
4.15142
4.12063
4.07786
4.02595
3.96732
3.90409
3.83813
3.77098
3.70393
3.63816
3.57455
3.51315
3.45407
3.39753
3.34371
3.29272
3.24458
3.19927
3.1567
3.11675
3.0793
3.0442
3.01132
2.98055
2.95177
2.92488
2.89979
2.87642
2.85468
2.83448
2.81571
2.79826
2.782
2.76682
2.75258
2.73919
2.72653
2.71454
2.70314
2.6923
2.682
2.67221
2.66291
2.65408
2.64569
2.63771
2.63012
2.62287
2.61595
2.60933
2.60299
2.59692
2.5911
2.58549
2.58009
2.57485
2.56975
2.56475
2.55981
2.5549
2.55
2.54507
2.54012
2.53514
2.53014
2.52513
2.52014
2.51518
2.5103
2.50552
2.50086
2.49634
2.49198
2.48778
2.48371
2.47975
2.47587
2.47206
2.46828
2.46452
2.46077
2.457
2.45323
2.44944
2.44563
2.44179
2.4379
2.43396
2.42995
2.42589
2.42176
2.41749
2.41319
2.40887
2.40459
2.40026
2.39579
2.39123
2.38726
2.38239
2.37786
2.37346
2.36863
2.36389
2.3593
2.35478
2.3497
2.34491
2.34041
2.33635
2.33207
2.32684
2.32175
2.31725
2.31302
2.30815
2.30359
2.29898
2.29408
2.28916
2.28454
2.27948
2.27534
2.27112
2.26626
2.26157
2.25654
2.25184
2.24722
2.24259
2.23815
2.23357
2.22898
2.22409
2.21975
2.21582
2.21121
2.20647
2.20249
2.19833
2.19373
2.18931
2.18524
2.18128
2.17736
2.1733
2.16915
2.16543
2.16129
2.15696
2.15346
2.14997
2.14582
2.14195
2.13854
2.13483
2.13129
2.12805
2.12498
2.12163
2.1182
2.11501
2.11175
2.10869
2.10594
2.10306
2.09989
2.09658
2.09395
2.09146
2.08838
2.08537
2.08276
2.07995
2.07762
2.0758
2.07351
2.07115
2.06931
2.06705
2.0651
2.06332
2.06119
2.05983
2.05847
2.05693
2.05591
2.0549
2.05426
2.05271
2.0512
2.04987
2.04784
2.04623
2.04438
2.04233
2.03844
2.0362
2.03849
2.0414
2.0449
2.04874
2.05244
2.05618
2.05964
2.06316
2.06651
2.06995
2.07327
2.07659
2.07977
2.08281
2.08567
2.08829
2.09061
2.09273
2.09436
2.09598
2.09688
2.09811
2.09868
2.09895
2.09837
2.09898
2.09881
2.09659
2.09568
2.09371
2.0943
2.09413
2.09218
2.0913
2.09009
2.08894
2.08783
2.08571
2.0842
2.08344
2.08297
2.08228
2.08129
2.08018
2.07977
2.07885
2.07716
2.07497
2.07277
2.07057
2.06834
2.06634
2.06433
2.06221
2.06033
2.0586
2.05694
2.05564
2.05455
2.05352
2.05262
2.05206
2.05164
2.05117
2.05071
2.05048
2.05051
2.05065
2.05084
2.051
2.05125
2.05156
2.05188
2.05214
2.05236
2.05257
2.05279
2.05299
2.0531
2.05315
2.05312
2.05309
2.05308
2.0531
2.05312
2.05315
2.05312
2.05305
2.05296
2.05282
2.05265
2.05245
2.05222
2.05196
2.05168
2.05137
2.05104
2.05069
2.05032
2.04994
2.04954
2.04914
2.04874
2.04836
2.048
2.04767
2.04737
2.0471
2.04686
2.04666
2.04648
2.04634
2.04623
2.04615
2.0461
2.04607
2.04608
2.04614
2.04629
2.0465
2.04676
2.04707
2.04742
2.04781
2.04823
2.0487
2.0492
2.04972
2.05027
2.05083
2.05139
2.05194
2.05247
2.05294
2.05337
2.05375
2.05407
2.05427
2.05436
2.05432
2.0541
2.05373
2.0532
2.05253
2.05175
2.05086
2.04984
2.04874
2.04756
2.04631
2.04505
2.04387
2.04282
2.04186
2.04094
2.04002
2.03908
2.03813
2.03718
2.03622
2.03527
2.03433
2.03343
2.03256
2.03176
2.03104
2.03042
2.02989
2.02945
2.0291
2.0288
2.02854
2.0283
2.02806
2.02781
2.02755
2.02727
2.02696
2.02662
2.02625
2.02586
2.02545
2.02502
2.02458
2.02413
2.02368
2.02322
2.02277
2.02232
2.02187
2.02142
2.02098
2.02054
2.0201
2.01966
2.0192
2.01874
2.01827
2.01779
2.01729
2.01679
2.01627
2.01573
2.01518
2.01461
2.01403
2.01343
2.01283
2.01221
2.01158
2.01096
2.01033
2.0097
2.00907
2.00845
2.00783
2.00722
2.00663
2.00605
2.00548
2.00493
2.0044
2.00388
2.00337
2.00287
2.00239
2.00192
2.00147
2.00103
2.00061
2.00021
1.99983
1.99946
1.99912
1.99878
1.99847
1.99817
1.99788
1.99761
1.99734
1.99707
1.9968
1.99654
1.99627
1.996
1.99571
1.99543
1.99514
1.99484
1.99454
1.99424
1.99396
1.99368
1.99343
1.99321
1.99303
1.9929
1.99282
1.99282
1.99289
1.99307
1.99341
1.99389
1.9945
1.99522
1.99603
1.99691
1.99786
1.99888
1.99995
2.00106
2.0022
2.00336
2.00452
2.00568
2.00684
2.00797
2.00909
2.01017
2.01123
2.01226
2.01326
2.01422
2.01515
2.01606
2.01695
2.01783
2.0187
2.01956
2.02043
2.0213
2.02218
2.02306
2.02396
2.02487
2.02581
2.02676
2.02774
2.02869
2.02982
2.03066
2.03204
2.03272
2.03461
2.03485
2.03758
2.03729
2.04112
2.04052
2.04518
2.04436
2.04897
2.04805
2.05109
2.05035
2.04974
2.04943
2.04375
2.04312
2.03138
2.02468
1.99012
1.92491
1.66909
1.37707
1.23725
1.08373
0.936542
0.738879
0.500341
0.29298
0.270643
0.43855
0.713864
)
;

boundaryField
{
    inlet
    {
        type            calculated;
        value           uniform 0;
    }
    endWall
    {
        type            calculated;
        value           uniform 0;
    }
    sideWall
    {
        type            empty;
    }
}


// ************************************************************************* //
