/*--------------------------------*- C++ -*----------------------------------*\
| =========                 |                                                 |
| \\      /  F ield         | foam-extend: Open Source CFD                    |
|  \\    /   O peration     | Version:     3.2                                |
|   \\  /    A nd           | Web:         http://www.foam-extend.org         |
|    \\/     M anipulation  | For copyright notice see file Copyright         |
\*---------------------------------------------------------------------------*/
FoamFile
{
    version     2.0;
    format      ascii;
    class       areaVectorField;
    location    "910";
    object      Utau;
}
// * * * * * * * * * * * * * * * * * * * * * * * * * * * * * * * * * * * * * //

dimensions      [0 1 -1 0 0 0 0];

internalField   nonuniform List<vector> 
550
(
(0.0700379 0 -0.000140076)
(0.0823037 1.34164e-29 -0.000164608)
(0.0951067 -2.46152e-23 -0.000190213)
(0.108164 2.89658e-23 -0.000216329)
(0.121129 3.43811e-23 -0.000242253)
(0.133649 0 -0.000267299)
(0.145423 -4.09549e-23 -0.000290839)
(0.156187 -4.23295e-23 -0.000312374)
(0.165776 0 -0.00033157)
(0.17407 -4.01771e-29 -0.00034813)
(0.181048 -4.96168e-23 -0.000362096)
(0.186729 0 -0.000373458)
(0.191196 -4.93725e-23 -0.000382382)
(0.194547 6.50621e-29 -0.000389115)
(0.196906 -4.6646e-23 -0.000393811)
(0.198393 0 -0.000396774)
(0.199139 -4.11361e-23 -0.000398279)
(0.199267 0 -0.000398524)
(0.198896 -3.52592e-23 -0.000397791)
(0.198157 -3.26465e-23 -0.000396335)
(0.197126 0 -0.000394241)
(0.195867 -2.83987e-23 -0.000391734)
(0.194436 -2.66292e-23 -0.000388872)
(0.19288 0 -0.000385749)
(0.191244 -2.30815e-23 -0.000382508)
(0.189563 -2.12989e-23 -0.000379127)
(0.187871 0 -0.000375731)
(0.186195 -1.83971e-23 -0.00037237)
(0.18456 0 -0.000369182)
(0.182968 0 -0.000365897)
(0.181423 -1.17506e-29 -0.000362827)
(0.179933 0 -0.000359924)
(0.178502 0 -0.000356964)
(0.177135 0 -0.000354232)
(0.175836 0 -0.000351729)
(0.174604 0 -0.000349188)
(0.173438 0 -0.000346838)
(0.172337 0 -0.000344731)
(0.171299 0 -0.000342559)
(0.17032 0 -0.000340695)
(0.169397 0 -0.000338758)
(0.16853 0 -0.000337041)
(0.167714 0 -0.000335484)
(0.166949 0 -0.000333861)
(0.166231 -1.69397e-29 -0.000332426)
(0.16556 0 -0.000331174)
(0.164933 0 -0.000329848)
(0.164348 0 -0.00032866)
(0.163803 1.89721e-29 -0.00032766)
(0.163295 0 -0.000326553)
(0.16282 1.87092e-29 -0.000325693)
(0.162375 0 -0.000324714)
(0.161956 1.84023e-29 -0.000323895)
(0.161562 -1.81836e-29 -0.000323177)
(0.161188 0 -0.000322341)
(0.160834 0 -0.000321667)
(0.160496 1.81492e-29 -0.00032108)
(0.160174 0 -0.000320171)
(0.159867 -1.76198e-29 -0.000319734)
(0.159575 0 -0.000319237)
(0.159297 -1.69874e-29 -0.000318594)
(0.159032 0 -0.000318152)
(0.158781 0 -0.000317562)
(0.158541 -1.60455e-29 -0.000316908)
(0.158313 1.60911e-29 -0.000316712)
(0.158094 -1.57391e-29 -0.000316189)
(0.157886 0 -0.000315771)
(0.157686 1.54776e-29 -0.000315458)
(0.157494 1.51737e-29 -0.000314815)
(0.15731 -1.51399e-29 -0.00031462)
(0.157134 1.48791e-29 -0.000314354)
(0.156964 -1.42007e-29 -0.000313927)
(0.156799 -1.37399e-29 -0.000313685)
(0.15664 -1.30175e-29 -0.00031328)
(0.156485 -1.24835e-29 -0.000312798)
(0.156333 0 -0.000312751)
(0.156182 1.1401e-29 -0.000312364)
(0.156032 -1.11214e-29 -0.000312065)
(0.155883 0 -0.000311851)
(0.155732 -1.11915e-29 -0.000311293)
(0.155581 0 -0.000311162)
(0.155428 0 -0.000310942)
(0.155275 0 -0.00031055)
(0.155121 1.09731e-29 -0.000310328)
(0.154968 0 -0.000309936)
(0.154816 -1.09691e-29 -0.000309461)
(0.154665 -1.11013e-29 -0.000309415)
(0.154518 0 -0.000309035)
(0.154374 0 -0.000308748)
(0.154234 0 -0.000308554)
(0.1541 0 -0.00030803)
(0.153969 -5.803e-25 -0.000307939)
(0.153843 0 -0.000307771)
(0.153721 7.62712e-30 -0.000307441)
(0.1536 -7.19695e-30 -0.000307285)
(0.153482 0 -0.000306964)
(0.153365 -5.6493e-25 -0.000306561)
(0.153248 0 -0.00030658)
(0.153131 -7.65007e-30 -0.000306263)
(0.153014 7.97453e-30 -0.000306028)
(0.152897 -8.26937e-30 -0.000305877)
(0.152779 0 -0.000305389)
(0.15266 0 -0.000305319)
(0.15254 0 -0.000305163)
(0.152418 -7.02939e-30 -0.000304837)
(0.152295 0 -0.000304674)
(0.15217 0 -0.000304339)
(0.152043 1.37802e-29 -0.000303918)
(0.151913 -8.59132e-29 -0.000303909)
(0.151779 0 -0.000310035)
(0.151646 0 -0.000310915)
(0.151509 0 -0.000294263)
(0.151372 0 -0.000281307)
(0.151239 5.44759e-28 -0.000306906)
(0.151099 0 -0.00034368)
(0.150951 0 -0.000285715)
(0.150825 0 -0.000246128)
(0.150673 5.0455e-25 -0.000394387)
(0.15053 -3.29024e-24 -0.000204731)
(0.15039 0 -0.000323988)
(0.150237 0 -0.000333922)
(0.150085 7.22813e-24 -0.000296158)
(0.149939 -7.45911e-27 -0.000249807)
(0.149801 -1.0798e-26 -0.000292374)
(0.149639 0 -0.000411379)
(0.14948 3.23506e-23 -0.000243588)
(0.149337 0 -0.000188866)
(0.149206 5.86524e-27 -0.000223813)
(0.149069 0 -0.00040027)
(0.148913 -4.15288e-23 -0.000401295)
(0.148749 1.02304e-26 -0.000315665)
(0.148594 0 -0.000239196)
(0.14846 0 -0.00022232)
(0.148306 2.35164e-27 -0.000340054)
(0.148155 0 -0.000256313)
(0.148008 0 -0.000279019)
(0.14786 -1.25008e-26 -0.000340452)
(0.147701 1.02366e-26 -0.000388689)
(0.147541 0 -0.000307544)
(0.147379 0 -0.000189252)
(0.147248 0 -0.000103495)
(0.147106 -2.89705e-23 -0.000483039)
(0.146948 0 -0.000265664)
(0.146803 -2.26053e-26 -0.000278143)
(0.146649 5.52556e-23 -0.000372442)
(0.146492 -6.31074e-24 -0.000328657)
(0.146333 0 -0.000286514)
(0.146184 8.71692e-27 -0.000236098)
(0.146038 -7.29723e-27 -0.000263305)
(0.145889 0 -0.000323989)
(0.145748 -1.29851e-26 -0.000302335)
(0.145587 0 -0.000381143)
(0.145433 -1.63115e-23 -0.000153661)
(0.145307 0 -0.00021588)
(0.145165 0 -0.000460127)
(0.145009 0 -0.000308843)
(0.14487 0 -0.000171769)
(0.144734 -1.7634e-23 -0.00034105)
(0.144585 4.42668e-24 -0.000349072)
(0.144438 0 -0.000235733)
(0.144304 -7.50817e-24 -0.000225609)
(0.144173 -5.13451e-28 -0.00027423)
(0.144043 0 -0.000279106)
(0.143908 6.75137e-24 -0.000383457)
(0.143768 0 -0.000261232)
(0.143646 -2.11903e-23 -0.00021057)
(0.143516 1.06272e-26 -0.000404562)
(0.143372 5.11198e-24 -0.000323387)
(0.143245 1.59899e-27 -0.000161997)
(0.143132 -1.00411e-28 -0.000255274)
(0.143002 1.23027e-26 -0.000388172)
(0.142873 -5.86418e-27 -0.000285778)
(0.142751 6.949e-27 -0.000273277)
(0.142628 -2.08857e-23 -0.000272563)
(0.142512 7.0696e-28 -0.000255179)
(0.142403 3.12737e-24 -0.00027298)
(0.1423 -7.34478e-25 -0.000316201)
(0.142188 0 -0.000378128)
(0.142073 5.87942e-29 -0.000204781)
(0.141966 3.2804e-28 -0.000215267)
(0.141857 0 -0.000282641)
(0.141753 5.94972e-27 -0.000218477)
(0.141658 0 -0.000343329)
(0.141562 0 -0.000317927)
(0.141463 3.57164e-23 -0.00031425)
(0.141351 -1.02855e-26 -0.000359401)
(0.141255 -1.52974e-27 -0.000169218)
(0.141173 -4.5581e-27 -0.000236393)
(0.14107 0 -0.00040318)
(0.140968 0 -0.000263072)
(0.140879 3.386e-28 -0.000248339)
(0.140784 9.49612e-28 -0.000295276)
(0.140703 0 -0.000124784)
(0.140641 -3.12869e-27 -0.000184927)
(0.14057 0 -0.00035746)
(0.140492 0 -0.000381361)
(0.140422 0 -0.00029669)
(0.140346 0 -0.00026679)
(0.140282 -3.84182e-28 -0.000139784)
(0.14022 -1.05681e-24 -0.000296121)
(0.140148 0 -0.000331264)
(0.140102 -1.17404e-28 -9.51889e-05)
(0.140056 0 -0.000130366)
(0.140004 0 -0.000118562)
(0.139969 0 -0.000115731)
(0.139935 -7.17655e-25 -0.000159733)
(0.139913 -3.03297e-30 -0.000155061)
(0.13986 0 -0.000273593)
(0.139809 0 -0.000120948)
(0.139763 0 -0.000256612)
(0.139694 6.09143e-26 -0.000188016)
(0.139639 0 -0.000181025)
(0.139576 -7.81131e-25 -0.000206257)
(0.139506 0 -0.000220513)
(0.139374 0 -0.00017484)
(0.139297 -1.5458e-23 0.000462422)
(0.139374 0 0.000579203)
(0.139474 0 0.000377184)
(0.139593 6.72823e-24 0.000461202)
(0.139724 0 0.000416792)
(0.13985 2.79582e-29 0.000433182)
(0.139978 4.65097e-24 0.000440026)
(0.140096 3.53357e-24 0.000417638)
(0.140215 0 0.000439973)
(0.140329 -1.21697e-24 0.000389683)
(0.140446 4.12814e-24 0.000420247)
(0.140559 -2.80217e-29 0.000351938)
(0.140671 0 0.000382043)
(0.140779 -4.73706e-25 0.000305726)
(0.140882 1.26362e-24 0.000326455)
(0.140979 0 0.000250861)
(0.141067 -6.5748e-25 0.000258629)
(0.141146 0 0.000186116)
(0.141217 -8.33016e-26 0.000187732)
(0.141272 -2.51424e-25 0.000112749)
(0.141327 0 0.000129714)
(0.141357 0 2.83729e-05)
(0.141399 3.97134e-25 0.000118978)
(0.141418 0 -0.000104719)
(0.141427 2.79206e-26 7.49165e-06)
(0.141408 -1.93274e-29 -0.000125693)
(0.141428 2.89796e-29 0.000107922)
(0.141422 1.4571e-23 -0.000423863)
(0.141347 7.99971e-29 -6.93876e-05)
(0.141317 0 -0.000198836)
(0.14125 5.19187e-30 -1.23854e-05)
(0.14127 -5.21351e-30 6.34703e-05)
(0.141264 1.80003e-28 -0.00033468)
(0.141198 5.66507e-25 -0.000194153)
(0.141169 0 -0.000110259)
(0.141128 0 -0.000225317)
(0.141089 -1.00883e-25 -0.000133938)
(0.141051 2.59572e-24 -0.000273153)
(0.14098 0 -0.00024975)
(0.140929 4.47589e-25 -8.09876e-05)
(0.140903 0 -0.000106957)
(0.140887 5.1278e-30 -0.0001217)
(0.140864 0 -0.000196625)
(0.14083 0 -0.000226458)
(0.140793 5.19183e-25 -0.00020955)
(0.140779 -4.56084e-30 -0.000174672)
(0.140747 -2.90699e-24 -0.000357033)
(0.14069 0 -0.000344815)
(0.140616 0 -0.000405516)
(0.140541 -3.41224e-29 -0.000313815)
(0.140467 1.55137e-29 -0.000352672)
(0.140391 -4.40229e-25 -0.000308376)
(0.140323 0 -0.000303092)
(0.140255 8.27901e-30 -0.000312457)
(0.140183 0 -0.000315345)
(0.140119 1.25164e-25 -0.000238496)
(0.14006 -6.14778e-25 -0.000258417)
(0.140004 -2.41339e-29 -0.000209248)
(0.13996 0 -0.000180006)
(0.139922 3.92471e-30 -0.000164744)
(0.139888 1.00488e-31 -0.000165045)
(0.139857 0 -0.000121144)
(0.139838 0 -9.61925e-05)
(0.139824 0 -9.99481e-05)
(0.139808 0 -0.000104648)
(0.139792 1.3395e-25 -7.04276e-05)
(0.139784 -1.09226e-25 -4.60745e-05)
(0.139785 0 -1.65767e-05)
(0.13979 -3.82477e-26 -1.9719e-05)
(0.139797 3.11191e-26 -1.47426e-05)
(0.139802 1.17451e-31 -1.61693e-05)
(0.13981 6.43536e-32 3.75782e-06)
(0.139821 -2.05265e-33 -2.54369e-06)
(0.139832 -1.61193e-32 -2.47445e-06)
(0.139841 7.26842e-27 -1.56735e-05)
(0.139848 0 -7.92123e-06)
(0.139856 0 -9.68953e-06)
(0.139863 -5.77598e-27 -4.16795e-06)
(0.13987 0 -1.98058e-05)
(0.139874 0 -2.17975e-05)
(0.139875 -8.67189e-27 -3.07699e-05)
(0.139875 -2.35646e-27 -2.44271e-05)
(0.139873 0 -2.37489e-05)
(0.139873 1.24758e-26 -1.55513e-05)
(0.139874 -5.87642e-27 -2.07036e-05)
(0.139875 -7.56618e-27 -1.87211e-05)
(0.139875 6.33613e-31 -2.9108e-05)
(0.139875 -3.4997e-31 -3.24418e-05)
(0.139872 0 -4.15167e-05)
(0.139869 0 -4.21155e-05)
(0.139864 0 -4.96451e-05)
(0.139858 1.87717e-26 -5.03379e-05)
(0.139852 0 -5.7049e-05)
(0.139844 0 -5.76227e-05)
(0.139835 -9.32294e-31 -6.3746e-05)
(0.139825 0 -6.39819e-05)
(0.139815 0 -6.88463e-05)
(0.139804 0 -6.89258e-05)
(0.139792 0 -7.30539e-05)
(0.139779 5.86331e-26 -7.28931e-05)
(0.139766 -7.00897e-26 -7.56456e-05)
(0.139752 0 -7.32922e-05)
(0.139739 5.36954e-26 -7.32983e-05)
(0.139725 3.38417e-26 -6.89593e-05)
(0.139712 1.99085e-32 -6.65625e-05)
(0.1397 2.98193e-31 -6.13761e-05)
(0.139689 1.41427e-31 -5.86002e-05)
(0.139678 -3.84394e-31 -5.33907e-05)
(0.139669 -1.30044e-31 -4.98976e-05)
(0.139661 1.12614e-27 -4.50369e-05)
(0.139654 2.84048e-27 -4.0577e-05)
(0.139648 0 -3.58525e-05)
(0.139643 6.42036e-27 -3.1409e-05)
(0.139639 -2.80141e-31 -2.64244e-05)
(0.139637 0 -2.18453e-05)
(0.139635 -2.07347e-31 -1.636e-05)
(0.139634 -1.11066e-31 -1.11286e-05)
(0.139634 0 -3.19785e-06)
(0.139637 0 6.4938e-06)
(0.139641 -1.72428e-26 1.35278e-05)
(0.139649 0 2.09018e-05)
(0.139658 -3.29133e-26 2.65022e-05)
(0.139668 3.32916e-26 3.19989e-05)
(0.13968 3.80966e-31 3.6721e-05)
(0.139693 -3.44196e-26 4.10439e-05)
(0.139708 -3.68014e-26 4.54256e-05)
(0.139724 3.06295e-31 4.80864e-05)
(0.13974 3.70746e-26 4.97665e-05)
(0.139758 0 4.95982e-05)
(0.139777 0 4.91579e-05)
(0.139796 6.90874e-32 4.54693e-05)
(0.139815 2.89886e-26 4.07389e-05)
(0.139834 2.10883e-26 3.37655e-05)
(0.139852 2.76716e-31 2.47366e-05)
(0.139868 -2.79371e-31 1.09098e-05)
(0.139883 -5.5339e-29 1.11152e-06)
(0.139896 0 -1.15665e-05)
(0.139906 -2.17652e-26 -3.05392e-05)
(0.139913 0 -4.95995e-05)
(0.139916 -2.41753e-30 -6.86351e-05)
(0.139915 -1.00018e-25 -8.88649e-05)
(0.139907 0 -0.000109248)
(0.139895 0 -0.000124088)
(0.139877 0 -0.000142263)
(0.139854 4.94892e-30 -0.000157695)
(0.139827 0 -0.000167785)
(0.139797 0 -0.000182979)
(0.139762 0 -0.00019714)
(0.139724 -2.62825e-30 -0.000201565)
(0.139684 6.52013e-25 -0.000204728)
(0.139642 3.82471e-30 -0.000207447)
(0.139599 -1.77633e-25 -0.000195076)
(0.139558 3.78148e-26 -0.000178192)
(0.139522 -2.42845e-30 -0.000166081)
(0.13949 -4.2806e-26 -0.000166093)
(0.139458 -1.99896e-30 -0.00017272)
(0.139427 1.68428e-25 -0.00017829)
(0.139395 -1.62092e-25 -0.000180519)
(0.139362 1.02317e-30 -0.000181081)
(0.13933 0 -0.000179329)
(0.139297 4.73729e-31 -0.000178125)
(0.139264 3.42913e-31 -0.000173331)
(0.139232 7.51656e-26 -0.000167465)
(0.139201 0 -0.00015981)
(0.139172 -8.19602e-27 -0.000151229)
(0.139144 0 -0.000138595)
(0.13912 1.06328e-25 -0.000125945)
(0.139098 -1.2556e-25 -0.0001151)
(0.13908 0 -0.000103072)
(0.139065 8.91762e-26 -9.64539e-05)
(0.139053 8.20068e-26 -9.18572e-05)
(0.139043 -7.50684e-26 -8.94623e-05)
(0.139034 -6.57162e-26 -8.92546e-05)
(0.139026 0 -9.02732e-05)
(0.139018 -3.77152e-31 -9.32585e-05)
(0.139009 0 -9.48768e-05)
(0.139 0 -9.77575e-05)
(0.138991 -9.81393e-31 -0.000100586)
(0.13898 1.07301e-30 -0.000104252)
(0.138968 -3.86096e-26 -0.000106503)
(0.138956 9.17064e-31 -0.000108897)
(0.138943 8.69747e-31 -0.000110584)
(0.138929 -6.26253e-31 -0.000111071)
(0.138914 -7.26678e-31 -0.000112057)
(0.138899 0 -0.000111809)
(0.138883 -4.73521e-31 -0.000111505)
(0.138868 -3.48022e-26 -0.000111703)
(0.138852 0 -0.000111178)
(0.138837 -3.39652e-26 -0.000111265)
(0.138821 0 -0.000110533)
(0.138806 0 -0.000110668)
(0.138791 -6.30685e-31 -0.000110536)
(0.138776 7.62863e-31 -0.00011096)
(0.13876 0 -0.000111367)
(0.138745 0 -0.000112563)
(0.13873 0 -0.000113499)
(0.138714 5.77305e-27 -0.000114952)
(0.138699 7.05391e-27 -0.000115494)
(0.138682 0 -0.000116223)
(0.138666 3.20754e-26 -0.000118404)
(0.138649 0 -0.000118615)
(0.138631 0 -0.000120265)
(0.138614 -4.34417e-26 -0.00012089)
(0.138595 0 -0.000122229)
(0.138576 0 -0.000123662)
(0.138557 0 -0.000123876)
(0.138537 -7.89987e-26 -0.000124782)
(0.138516 0 -0.000124629)
(0.138495 9.36742e-26 -0.000125484)
(0.138474 9.91093e-26 -0.000125745)
(0.138452 0 -0.000126458)
(0.138431 -1.02926e-25 -0.000125596)
(0.138409 1.15344e-25 -0.000126217)
(0.138388 -6.03922e-31 -0.000125867)
(0.138366 0 -0.000126678)
(0.138344 0 -0.00012613)
(0.138323 4.59674e-31 -0.000125618)
(0.138302 0 -0.000125292)
(0.138282 0 -0.0001252)
(0.138262 0 -0.000124596)
(0.138242 -1.36469e-25 -0.00012417)
(0.138223 0 -0.000123272)
(0.138205 1.25569e-25 -0.000122057)
(0.138187 0 -0.000121369)
(0.138169 0 -0.000120866)
(0.138152 1.34592e-25 -0.00012015)
(0.138135 0 -0.000118719)
(0.138119 0 -0.000118762)
(0.138103 0 -0.000115797)
(0.138088 0 -0.000115039)
(0.138074 0 -0.000113575)
(0.13806 5.99194e-31 -0.000110474)
(0.138047 0 -0.000108971)
(0.138034 8.6044e-26 -0.000106595)
(0.138022 0 -0.000104474)
(0.138011 7.29043e-26 -0.000101979)
(0.138 0 -9.93102e-05)
(0.137989 -3.25465e-26 -9.72695e-05)
(0.137979 0 -9.49923e-05)
(0.13797 4.14467e-31 -9.16974e-05)
(0.137961 3.50723e-26 -9.11997e-05)
(0.137951 3.27164e-26 -8.90444e-05)
(0.137942 3.11147e-26 -8.67842e-05)
(0.137933 0 -8.50973e-05)
(0.137924 0 -8.40345e-05)
(0.137914 0 -8.23401e-05)
(0.137905 -4.4788e-26 -8.13028e-05)
(0.137895 -3.42884e-31 -7.92141e-05)
(0.137885 -5.29453e-26 -7.83779e-05)
(0.137874 -5.38303e-26 -7.63051e-05)
(0.137864 5.24404e-26 -7.37918e-05)
(0.137854 6.17338e-26 -7.28687e-05)
(0.137844 -6.05017e-31 -6.8595e-05)
(0.137834 -5.55857e-26 -6.61349e-05)
(0.137826 0 -6.09983e-05)
(0.137818 3.60783e-26 -5.56001e-05)
(0.137812 0 -4.88445e-05)
(0.137808 1.31238e-26 -4.2882e-05)
(0.137805 5.97907e-27 -3.31147e-05)
(0.137805 0 -2.36312e-05)
(0.137807 0 -1.12654e-05)
(0.137813 0 5.43822e-06)
(0.137825 2.48843e-26 2.06939e-05)
(0.137842 5.59089e-26 3.46545e-05)
(0.137863 -5.67239e-26 4.50987e-05)
(0.137888 1.6309e-30 5.61673e-05)
(0.137916 0 6.43455e-05)
(0.137946 1.38718e-30 7.25303e-05)
(0.137979 0 7.94312e-05)
(0.138014 1.23906e-30 8.55129e-05)
(0.138051 -1.39717e-25 8.96049e-05)
(0.138089 0 9.3694e-05)
(0.138128 0 9.61724e-05)
(0.138168 0 9.86546e-05)
(0.138209 0 0.000100114)
(0.138249 2.47862e-25 0.000101336)
(0.138288 2.31656e-25 0.000101918)
(0.138327 0 0.000102432)
(0.138366 0 0.000101974)
(0.138403 -1.86406e-25 0.00010173)
(0.13844 -7.90221e-31 0.000101525)
(0.138475 0 0.000100598)
(0.138509 0 9.86568e-05)
(0.138542 -1.73413e-31 9.71343e-05)
(0.138575 -5.30509e-26 9.54811e-05)
(0.138606 0 9.31865e-05)
(0.138636 0 9.13151e-05)
(0.138666 4.11605e-26 8.99735e-05)
(0.138696 -3.177e-32 8.70434e-05)
(0.138726 -4.21116e-26 8.62535e-05)
(0.138756 -7.56625e-33 8.34925e-05)
(0.138785 0 8.34653e-05)
(0.138816 4.9461e-26 8.12638e-05)
(0.138846 0 8.12666e-05)
(0.138877 -5.71909e-26 7.95095e-05)
(0.138908 -7.70164e-26 8.17947e-05)
(0.13894 -3.20254e-31 8.07619e-05)
(0.138972 -8.60044e-26 8.4708e-05)
(0.139006 0 8.29206e-05)
(0.139039 0 8.9286e-05)
(0.139077 -7.40126e-26 9.08588e-05)
(0.139106 0 9.08549e-05)
(0.139154 -2.88094e-25 0.000111162)
(0.139177 0 8.44086e-05)
(0.139241 -4.92932e-25 0.000163197)
(0.139249 -1.80166e-29 3.58631e-05)
(0.139343 0 0.000301491)
(0.139333 2.68172e-29 -0.000108223)
(0.139463 1.306e-23 0.000552967)
(0.139443 0 -0.000409764)
(0.1396 -4.59324e-23 0.000845214)
(0.139571 -4.99437e-23 -0.000896687)
(0.139728 0 0.00110471)
(0.139692 -5.37604e-27 -0.00157386)
(0.139799 2.70347e-27 0.00119351)
(0.139758 1.42765e-26 -0.00239302)
(0.139755 1.57554e-27 0.000888454)
(0.13971 0 -0.00321826)
(0.139554 2.94624e-27 -0.000104236)
(0.139468 0 -0.00423097)
(0.139112 0 -0.00229121)
(0.138701 0 -0.00744038)
(0.137459 3.70938e-21 -0.00816726)
(0.134072 1.87305e-25 -0.0187276)
(0.122229 0 -0.0300792)
(0.114552 7.37877e-26 -0.000228726)
(0.108582 -8.28027e-24 -0.000217283)
(0.101594 -7.89274e-28 -0.000203412)
(0.094406 2.53134e-22 -0.0001885)
(0.0836194 0 -0.000167423)
(0.0687382 4.77174e-22 -0.000137249)
(0.0350949 2.87551e-21 -7.0267e-05)
(-0.0497048 0 9.94642e-05)
(-0.064537 0 0.000128861)
(-0.0814818 -9.30343e-22 0.000163143)
)
;

boundaryField
{
    inlet
    {
        type            calculated;
        value           uniform (0 0 0);
    }
    endWall
    {
        type            calculated;
        value           uniform (0 0 0);
    }
    sideWall
    {
        type            empty;
    }
}


// ************************************************************************* //
