/*--------------------------------*- C++ -*----------------------------------*\
| =========                 |                                                 |
| \\      /  F ield         | foam-extend: Open Source CFD                    |
|  \\    /   O peration     | Version:     3.2                                |
|   \\  /    A nd           | Web:         http://www.foam-extend.org         |
|    \\/     M anipulation  | For copyright notice see file Copyright         |
\*---------------------------------------------------------------------------*/
FoamFile
{
    version     2.0;
    format      ascii;
    class       areaScalarField;
    location    "120";
    object      Cpre;
}
// * * * * * * * * * * * * * * * * * * * * * * * * * * * * * * * * * * * * * //

dimensions      [1 -3 0 0 0 0 0];

internalField   nonuniform List<scalar> 
550
(
0.0197
0.0197
0.0197
0.0197
0.0197
0.0197
0.0197
0.0197
0.0197
0.0197
0.0197
0.0197
0.0197
0.0197
0.0197
0.0197
0.0197
0.0197
0.0197
0.0197
0.0197
0.0197
0.0197
0.0197
0.0197
0.0197
0.0197
0.0197
0.0197
0.0197
0.0197
0.0197
0.0197
0.0197
0.0197
0.0197
0.0197
0.0197
0.0197
0.0197
0.0197
0.0197
0.0197
0.0197
0.0197
0.0197
0.0197
0.0197
0.0197
0.0197
0.0197
0.0197
0.0197
0.0197
0.0197
0.0197
0.0197
0.0197
0.0197
0.0197
0.0197
0.0197
0.0197
0.0197
0.0197
0.0197
0.0197
0.0197
0.0196999
0.0196999
0.0196999
0.0196999
0.0196999
0.0196999
0.0196999
0.0196999
0.0196998
0.0196998
0.0196998
0.0196997
0.0196997
0.0196997
0.0196996
0.0196996
0.0196995
0.0196994
0.0196993
0.0196992
0.0196991
0.019699
0.0196989
0.0196987
0.0196985
0.0196983
0.0196981
0.0196979
0.0196976
0.0196973
0.0196969
0.0196965
0.0196961
0.0196957
0.0196952
0.0196946
0.019694
0.0196933
0.0196926
0.0196919
0.019691
0.0196901
0.0196892
0.0196881
0.019687
0.0196859
0.0196846
0.0196833
0.0196819
0.0196805
0.0196789
0.0196773
0.0196756
0.0196738
0.019672
0.01967
0.019668
0.0196659
0.0196637
0.0196615
0.0196592
0.0196568
0.0196543
0.0196517
0.0196491
0.0196464
0.0196437
0.0196408
0.0196379
0.019635
0.0196319
0.0196288
0.0196257
0.0196225
0.0196192
0.0196159
0.0196125
0.0196091
0.0196056
0.0196021
0.0195985
0.0195949
0.0195912
0.0195874
0.0195837
0.0195799
0.019576
0.0195721
0.0195681
0.0195642
0.0195601
0.0195561
0.019552
0.0195479
0.0195437
0.0195395
0.0195353
0.019531
0.0195268
0.0195224
0.0195181
0.0195138
0.0195094
0.019505
0.0195006
0.0194961
0.0194917
0.0194872
0.0194828
0.0194783
0.0194737
0.0194692
0.0194647
0.0194601
0.0194556
0.019451
0.0194465
0.0194419
0.0194373
0.0194327
0.0194281
0.0194235
0.0194189
0.0194143
0.0194097
0.019405
0.0194004
0.0193958
0.0193912
0.0193866
0.0193819
0.0193773
0.0193727
0.0193681
0.0193634
0.0193588
0.0193542
0.0193496
0.019345
0.0193404
0.0193358
0.0193312
0.0193266
0.019322
0.0193174
0.0193129
0.0193083
0.0193038
0.0192992
0.0192947
0.0192902
0.0192857
0.0192812
0.0192767
0.0192723
0.0192678
0.0192634
0.019259
0.0192546
0.0192502
0.0192458
0.0192415
0.0192372
0.0192329
0.0192286
0.0192244
0.0192201
0.0192159
0.0192123
0.0192088
0.0192052
0.0192015
0.0191978
0.0191941
0.0191902
0.0191864
0.0191824
0.0191784
0.0191744
0.0191703
0.0191661
0.0191619
0.0191577
0.0191535
0.0191492
0.0191449
0.0191406
0.0191363
0.0191319
0.0191275
0.019123
0.0191186
0.0191141
0.0191095
0.019105
0.0191003
0.0190957
0.019091
0.0190862
0.0190814
0.0190766
0.0190717
0.0190667
0.0190617
0.0190566
0.0190515
0.0190463
0.0190411
0.0190358
0.0190304
0.019025
0.0190195
0.019014
0.0190084
0.0190028
0.0189971
0.0189913
0.0189856
0.0189797
0.0189738
0.0189679
0.0189619
0.0189559
0.0189499
0.0189438
0.0189377
0.0189316
0.0189254
0.0189192
0.018913
0.0189068
0.0189005
0.0188942
0.018888
0.0188817
0.0188754
0.018869
0.0188627
0.0188563
0.01885
0.0188436
0.0188372
0.0188308
0.0188245
0.0188181
0.0188117
0.0188053
0.0187989
0.0187925
0.0187861
0.0187798
0.0187734
0.018767
0.0187607
0.0187544
0.0187481
0.0187418
0.0187355
0.0187292
0.018723
0.0187167
0.0187105
0.0187044
0.0186982
0.0186921
0.018686
0.0186799
0.0186738
0.0186678
0.0186618
0.0186558
0.0186499
0.018644
0.0186381
0.0186323
0.0186265
0.0186207
0.0186149
0.0186092
0.0186035
0.0185979
0.0185922
0.0185866
0.018581
0.0185755
0.0185699
0.0185644
0.0185589
0.0185534
0.0185479
0.0185424
0.018537
0.0185315
0.0185261
0.0185207
0.0185153
0.0185099
0.0185045
0.0184992
0.0184938
0.0184885
0.0184831
0.0184778
0.0184725
0.0184672
0.0184618
0.0184565
0.0184512
0.0184459
0.0184406
0.0184353
0.01843
0.0184247
0.0184194
0.0184141
0.0184087
0.0184034
0.0183981
0.0183927
0.0183874
0.018382
0.0183766
0.0183712
0.0183658
0.0183604
0.018355
0.0183496
0.0183442
0.0183388
0.0183333
0.0183279
0.0183224
0.018317
0.0183115
0.018306
0.0183005
0.018295
0.0182895
0.0182839
0.0182784
0.0182728
0.0182672
0.0182616
0.018256
0.0182504
0.0182447
0.018239
0.0182333
0.0182275
0.0182217
0.0182159
0.01821
0.0182041
0.0181982
0.0181922
0.0181862
0.0181801
0.018174
0.0181679
0.0181618
0.0181556
0.0181493
0.0181431
0.0181368
0.0181304
0.0181241
0.0181177
0.0181113
0.0181048
0.0180983
0.0180918
0.0180853
0.0180787
0.0180721
0.0180655
0.0180589
0.0180523
0.0180456
0.0180389
0.0180322
0.0180255
0.0180188
0.0180121
0.0180054
0.0179987
0.017992
0.0179853
0.0179785
0.0179718
0.0179651
0.0179585
0.0179518
0.0179451
0.0179384
0.0179318
0.0179251
0.0179185
0.0179119
0.0179052
0.0178986
0.017892
0.0178854
0.0178788
0.0178722
0.0178656
0.017859
0.0178524
0.0178458
0.0178393
0.0178327
0.0178262
0.0178197
0.0178132
0.0178067
0.0178002
0.0177938
0.0177874
0.017781
0.0177746
0.0177683
0.017762
0.0177557
0.0177494
0.0177432
0.0177369
0.0177307
0.0177245
0.0177184
0.0177122
0.0177061
0.0176999
0.0176938
0.0176877
0.0176817
0.0176756
0.0176696
0.0176636
0.0176575
0.0176515
0.0176455
0.0176396
0.0176336
0.0176276
0.0176216
0.0176156
0.0176097
0.0176037
0.0175977
0.0175917
0.0175858
0.0175798
0.0175738
0.0175679
0.0175619
0.0175559
0.0175499
0.0175439
0.0175379
0.0175319
0.0175258
0.0175197
0.0175134
0.0175071
0.0175005
0.0174937
0.0174864
0.0174786
0.0174699
0.0174601
0.0174491
0.0174356
0.0174538
0.01747
0.0174839
0.017496
0.0175061
0.017515
0.0175222
0.0175307
0.0175833
0.0176279
0.0176299
)
;

boundaryField
{
    inlet
    {
        type            calculated;
        value           uniform 0;
    }
    endWall
    {
        type            calculated;
        value           uniform 0;
    }
    sideWall
    {
        type            empty;
    }
}


// ************************************************************************* //
