/*--------------------------------*- C++ -*----------------------------------*\
| =========                 |                                                 |
| \\      /  F ield         | foam-extend: Open Source CFD                    |
|  \\    /   O peration     | Version:     3.2                                |
|   \\  /    A nd           | Web:         http://www.foam-extend.org         |
|    \\/     M anipulation  | For copyright notice see file Copyright         |
\*---------------------------------------------------------------------------*/
FoamFile
{
    version     2.0;
    format      ascii;
    class       volScalarField;
    location    "120";
    object      deltaHF;
}
// * * * * * * * * * * * * * * * * * * * * * * * * * * * * * * * * * * * * * //

dimensions      [0 1 0 0 0 0 0];

internalField   uniform 0;

boundaryField
{
    inlet
    {
        type            calculated;
        value           uniform 0;
    }
    outlet
    {
        type            calculated;
        value           uniform 0;
    }
    sideWall
    {
        type            empty;
    }
    bed
    {
        type            calculated;
        value           nonuniform List<scalar> 
550
(
0
0
0
0
0
0
0
0
0
0
0
0
0
0
0
0
0
0
0
0
0
0
0
0
0
0
0
0
0
0
0
0
0
0
0
0
0
0
0
0
0
0
0
0
0
0
0
0
0
0
0
0
0
0
0
0
0
0
0
0
0
0
0
0
0
0
0
0
0
0
0
0
0
0
0
0
0
0
0
0
0
0
0
0
0
0
0
0
0
0
0
0
0
0
0
0
0
0
0
0
0
0
0
0
0
0
0
0
0
0
0
0
0
0
0
0
0
0
0
0
0
0
0
0
0
0
0
0
0
0
0
0
0
0
0
0
0
0
0
0
0
0
0
0
0
0
0
0
0
0
0
0
0
0
0
0
0
0
0
0
0
0
0
0
0
0
0
0
0
0
0
0
0
0
0
0
0
0
0
0
0
0
0
0
0
0
0
0
0
0
0
0
0
0
0
0
0
0
0
0
0
0
0
0
0
0
0
0
0
0
0
0
0
0
0
0
0
0
0
0
0
0
0
0
0
0
0
0
0
0
0
0
0
0
0
0
7.01899e-12
1.27567e-10
-5.43786e-12
-6.99913e-11
8.19207e-11
1.15736e-10
1.48316e-10
1.78379e-10
2.07438e-10
2.40594e-10
2.7541e-10
3.08889e-10
3.42479e-10
3.76768e-10
4.11778e-10
4.47494e-10
4.83939e-10
5.21292e-10
5.59616e-10
5.98877e-10
6.3895e-10
6.79668e-10
7.20884e-10
7.62516e-10
8.0455e-10
8.47003e-10
8.89878e-10
9.33131e-10
9.76665e-10
1.02036e-09
1.06412e-09
1.10789e-09
1.15163e-09
1.19531e-09
1.23886e-09
1.28219e-09
1.32517e-09
1.36769e-09
1.40972e-09
1.45129e-09
1.4925e-09
1.5334e-09
1.57402e-09
1.61427e-09
1.65402e-09
1.69309e-09
1.73132e-09
1.76855e-09
1.80472e-09
1.83977e-09
1.87368e-09
1.90648e-09
1.93819e-09
1.96882e-09
1.99837e-09
2.02681e-09
2.05411e-09
2.08021e-09
2.10511e-09
2.12881e-09
2.15139e-09
2.17294e-09
2.1936e-09
2.21353e-09
2.23289e-09
2.25181e-09
2.27042e-09
2.28878e-09
2.3069e-09
2.32475e-09
2.34225e-09
2.35929e-09
2.37576e-09
2.39156e-09
2.40664e-09
2.421e-09
2.43469e-09
2.44776e-09
2.46029e-09
2.47233e-09
2.48391e-09
2.49503e-09
2.50567e-09
2.51579e-09
2.52534e-09
2.5343e-09
2.54264e-09
2.55038e-09
2.55757e-09
2.56429e-09
2.57064e-09
2.5767e-09
2.58252e-09
2.58812e-09
2.59349e-09
2.5986e-09
2.60347e-09
2.60813e-09
2.61263e-09
2.61708e-09
2.62157e-09
2.62619e-09
2.631e-09
2.63607e-09
2.64147e-09
2.64735e-09
2.65385e-09
2.66114e-09
2.66937e-09
2.6787e-09
2.68923e-09
2.70105e-09
2.71422e-09
2.72881e-09
2.74487e-09
2.7624e-09
2.78136e-09
2.80167e-09
2.82319e-09
2.84575e-09
2.86922e-09
2.89351e-09
2.91857e-09
2.94439e-09
2.97103e-09
2.99854e-09
3.02699e-09
3.05642e-09
3.08681e-09
3.11813e-09
3.15033e-09
3.18338e-09
3.21726e-09
3.25198e-09
3.2876e-09
3.3242e-09
3.36188e-09
3.40076e-09
3.44092e-09
3.48238e-09
3.52508e-09
3.56892e-09
3.61379e-09
3.65959e-09
3.70626e-09
3.75376e-09
3.80201e-09
3.85096e-09
3.90053e-09
3.95066e-09
4.00132e-09
4.05248e-09
4.1041e-09
4.15612e-09
4.20842e-09
4.26086e-09
4.31335e-09
4.36585e-09
4.41837e-09
4.47095e-09
4.52363e-09
4.57645e-09
4.62942e-09
4.68253e-09
4.73572e-09
4.7889e-09
4.84195e-09
4.8948e-09
4.94743e-09
4.99983e-09
5.05203e-09
5.1041e-09
5.15608e-09
5.20801e-09
5.25994e-09
5.31192e-09
5.36402e-09
5.41629e-09
5.46876e-09
5.52144e-09
5.57432e-09
5.62738e-09
5.68059e-09
5.73392e-09
5.78731e-09
5.84067e-09
5.89392e-09
5.94703e-09
5.99994e-09
6.0526e-09
6.10494e-09
6.15684e-09
6.20819e-09
6.25886e-09
6.30871e-09
6.35767e-09
6.40564e-09
6.45257e-09
6.49845e-09
6.54329e-09
6.5871e-09
6.62988e-09
6.67158e-09
6.71213e-09
6.75144e-09
6.78945e-09
6.82614e-09
6.86152e-09
6.89565e-09
6.92863e-09
6.9606e-09
6.99171e-09
7.0221e-09
7.0519e-09
7.08119e-09
7.10999e-09
7.13826e-09
7.16593e-09
7.19289e-09
7.21908e-09
7.24451e-09
7.26926e-09
7.29348e-09
7.31736e-09
7.34109e-09
7.36483e-09
7.38867e-09
7.41263e-09
7.43668e-09
7.46068e-09
7.48449e-09
7.50796e-09
7.53101e-09
7.55365e-09
7.57596e-09
7.59804e-09
7.61995e-09
7.64162e-09
7.66293e-09
7.68372e-09
7.70393e-09
7.72353e-09
7.7426e-09
7.76122e-09
7.77951e-09
7.79753e-09
7.81534e-09
7.83301e-09
7.85065e-09
7.8684e-09
7.88645e-09
7.90492e-09
7.92392e-09
7.94347e-09
7.96361e-09
7.98433e-09
8.00563e-09
8.02739e-09
8.04953e-09
8.07186e-09
8.09427e-09
8.11657e-09
8.13881e-09
8.16101e-09
8.18344e-09
8.2063e-09
8.23003e-09
8.2548e-09
8.28097e-09
8.30853e-09
8.33757e-09
8.36777e-09
8.3991e-09
8.43115e-09
8.46401e-09
8.49741e-09
8.53165e-09
8.56644e-09
8.60205e-09
8.63794e-09
8.67434e-09
8.71066e-09
8.74753e-09
8.78475e-09
8.82359e-09
8.86408e-09
8.90774e-09
8.95472e-09
9.00625e-09
9.06455e-09
9.12959e-09
9.20849e-09
9.30175e-09
9.42362e-09
9.57728e-09
9.78745e-09
1.00618e-08
1.04478e-08
1.09548e-08
1.16624e-08
1.26569e-08
1.30172e-08
1.62305e-08
0
0
0
0
0
0
0
0
0
0
0
)
;
    }
    endWall
    {
        type            calculated;
        value           uniform 0;
    }
    topWall
    {
        type            calculated;
        value           uniform 0;
    }
}


// ************************************************************************* //
