/*--------------------------------*- C++ -*----------------------------------*\
| =========                 |                                                 |
| \\      /  F ield         | foam-extend: Open Source CFD                    |
|  \\    /   O peration     | Version:     3.2                                |
|   \\  /    A nd           | Web:         http://www.foam-extend.org         |
|    \\/     M anipulation  | For copyright notice see file Copyright         |
\*---------------------------------------------------------------------------*/
FoamFile
{
    version     2.0;
    format      ascii;
    class       areaScalarField;
    location    "120";
    object      Fi1;
}
// * * * * * * * * * * * * * * * * * * * * * * * * * * * * * * * * * * * * * //

dimensions      [0 1 -1 0 0 0 0];

internalField   nonuniform List<scalar> 
550
(
4.99357e-08
4.56948e-08
3.08957e-08
-4.5795e-09
-4.77194e-08
-8.7074e-08
-1.23506e-07
-1.53656e-07
-1.75228e-07
-1.87388e-07
-1.90736e-07
-1.86759e-07
-1.77438e-07
-1.6462e-07
-1.49996e-07
-1.34878e-07
-1.20285e-07
-1.0683e-07
-9.52591e-08
-8.55152e-08
-7.69655e-08
-6.95274e-08
-6.31315e-08
-5.77181e-08
-5.32137e-08
-4.95083e-08
-4.65464e-08
-4.42526e-08
-4.23341e-08
-4.05721e-08
-3.90056e-08
-3.76507e-08
-3.64705e-08
-3.54296e-08
-3.45022e-08
-3.36708e-08
-3.29213e-08
-3.22399e-08
-3.16171e-08
-3.10456e-08
-3.05174e-08
-3.00252e-08
-2.95618e-08
-2.91236e-08
-2.87082e-08
-2.83161e-08
-2.79477e-08
-2.76005e-08
-2.72723e-08
-2.69609e-08
-2.66643e-08
-2.63803e-08
-2.61067e-08
-2.58403e-08
-2.55787e-08
-2.53209e-08
-2.50678e-08
-2.48201e-08
-2.45763e-08
-2.43362e-08
-2.41008e-08
-2.38707e-08
-2.36456e-08
-2.34244e-08
-2.32067e-08
-2.2992e-08
-2.27799e-08
-2.25703e-08
-2.23629e-08
-2.21572e-08
-2.19526e-08
-2.17487e-08
-2.15455e-08
-2.13433e-08
-2.11413e-08
-2.09391e-08
-2.07372e-08
-2.05364e-08
-2.03381e-08
-2.01437e-08
-1.99526e-08
-1.97635e-08
-1.95766e-08
-1.93919e-08
-1.92095e-08
-1.90294e-08
-1.88515e-08
-1.86757e-08
-1.85015e-08
-1.83285e-08
-1.81558e-08
-1.79815e-08
-1.78055e-08
-1.763e-08
-1.74561e-08
-1.7284e-08
-1.71137e-08
-1.69451e-08
-1.67787e-08
-1.66143e-08
-1.64492e-08
-1.62816e-08
-1.6111e-08
-1.59371e-08
-1.57597e-08
-1.55788e-08
-1.53946e-08
-1.52073e-08
-1.5017e-08
-1.48241e-08
-1.46288e-08
-1.44314e-08
-1.42322e-08
-1.40316e-08
-1.38302e-08
-1.36262e-08
-1.34194e-08
-1.3212e-08
-1.30043e-08
-1.27957e-08
-1.25862e-08
-1.23761e-08
-1.21656e-08
-1.19549e-08
-1.17444e-08
-1.15343e-08
-1.13251e-08
-1.11168e-08
-1.09095e-08
-1.07034e-08
-1.04982e-08
-1.02939e-08
-1.00905e-08
-9.88803e-09
-9.68653e-09
-9.4861e-09
-9.28687e-09
-9.08893e-09
-8.89237e-09
-8.69723e-09
-8.50355e-09
-8.31137e-09
-8.12072e-09
-7.93164e-09
-7.74417e-09
-7.55836e-09
-7.37426e-09
-7.19192e-09
-7.01141e-09
-6.8328e-09
-6.65618e-09
-6.48167e-09
-6.30943e-09
-6.13964e-09
-5.97244e-09
-5.80793e-09
-5.64615e-09
-5.48707e-09
-5.33067e-09
-5.17691e-09
-5.02578e-09
-4.87733e-09
-4.73159e-09
-4.58864e-09
-4.44854e-09
-4.31134e-09
-4.17705e-09
-4.04571e-09
-3.91731e-09
-3.79186e-09
-3.66938e-09
-3.54986e-09
-3.43328e-09
-3.31959e-09
-3.20871e-09
-3.10055e-09
-2.99506e-09
-2.89218e-09
-2.7919e-09
-2.69418e-09
-2.59902e-09
-2.5064e-09
-2.41626e-09
-2.32858e-09
-2.24331e-09
-2.16043e-09
-2.07992e-09
-2.00181e-09
-1.92612e-09
-1.85288e-09
-1.78211e-09
-1.7138e-09
-1.64793e-09
-1.58451e-09
-1.52353e-09
-1.46499e-09
-1.40889e-09
-1.35523e-09
-1.30401e-09
-1.25519e-09
-1.20875e-09
-1.16462e-09
-1.12274e-09
-1.08302e-09
-1.04533e-09
-1.00949e-09
-9.75354e-10
-9.42734e-10
-9.11473e-10
-8.81414e-10
-8.5242e-10
-8.24366e-10
-7.97137e-10
-7.70619e-10
-7.4469e-10
-7.19218e-10
-6.94072e-10
-6.69134e-10
-6.443e-10
-6.19482e-10
-5.94607e-10
-5.69622e-10
-5.44485e-10
-5.19143e-10
-4.93564e-10
-4.65991e-10
-4.35037e-10
-4.01748e-10
-3.66819e-10
-3.3085e-10
-2.94307e-10
-2.57497e-10
-2.20596e-10
-1.83659e-10
-1.46661e-10
-8.95536e-11
1.68807e-11
-9.44289e-12
-6.69087e-11
4.64347e-11
8.14959e-11
1.15309e-10
1.47888e-10
1.77955e-10
2.07022e-10
2.4019e-10
2.7502e-10
3.08518e-10
3.42129e-10
3.76445e-10
4.11486e-10
4.47239e-10
4.83726e-10
5.21122e-10
5.59491e-10
5.98795e-10
6.38906e-10
6.79659e-10
7.20908e-10
7.62575e-10
8.04645e-10
8.47138e-10
8.90056e-10
9.33352e-10
9.76929e-10
1.02067e-09
1.06447e-09
1.10827e-09
1.15205e-09
1.19576e-09
1.23935e-09
1.28271e-09
1.32571e-09
1.36824e-09
1.41028e-09
1.45187e-09
1.49309e-09
1.53401e-09
1.57463e-09
1.61488e-09
1.65463e-09
1.6937e-09
1.73191e-09
1.76914e-09
1.8053e-09
1.84033e-09
1.87423e-09
1.90702e-09
1.93872e-09
1.96933e-09
1.99887e-09
2.02731e-09
2.05459e-09
2.08069e-09
2.10557e-09
2.12926e-09
2.15184e-09
2.17339e-09
2.19406e-09
2.21399e-09
2.23335e-09
2.25229e-09
2.27091e-09
2.28928e-09
2.3074e-09
2.32526e-09
2.34276e-09
2.3598e-09
2.37625e-09
2.39204e-09
2.40711e-09
2.42146e-09
2.43514e-09
2.44821e-09
2.46074e-09
2.47278e-09
2.48436e-09
2.49548e-09
2.50612e-09
2.51624e-09
2.5258e-09
2.53475e-09
2.5431e-09
2.55084e-09
2.55803e-09
2.56475e-09
2.5711e-09
2.57716e-09
2.58298e-09
2.58857e-09
2.59393e-09
2.59903e-09
2.60389e-09
2.60852e-09
2.613e-09
2.61743e-09
2.62191e-09
2.6265e-09
2.63128e-09
2.63631e-09
2.64169e-09
2.64753e-09
2.654e-09
2.66126e-09
2.66946e-09
2.67876e-09
2.68927e-09
2.70106e-09
2.71421e-09
2.72878e-09
2.74481e-09
2.76232e-09
2.78126e-09
2.80155e-09
2.82304e-09
2.84557e-09
2.86902e-09
2.89328e-09
2.9183e-09
2.94411e-09
2.97073e-09
2.99822e-09
3.02666e-09
3.05608e-09
3.08646e-09
3.11777e-09
3.14996e-09
3.18299e-09
3.21685e-09
3.25156e-09
3.28717e-09
3.32375e-09
3.36142e-09
3.4003e-09
3.44045e-09
3.4819e-09
3.5246e-09
3.56843e-09
3.61329e-09
3.65908e-09
3.70575e-09
3.75323e-09
3.80148e-09
3.85043e-09
3.9e-09
3.95013e-09
4.00079e-09
4.05196e-09
4.1036e-09
4.15563e-09
4.20794e-09
4.26039e-09
4.31289e-09
4.36541e-09
4.41795e-09
4.47055e-09
4.52325e-09
4.5761e-09
4.6291e-09
4.68224e-09
4.73545e-09
4.78865e-09
4.84172e-09
4.8946e-09
4.94724e-09
4.99966e-09
5.05188e-09
5.10397e-09
5.15596e-09
5.2079e-09
5.25984e-09
5.31184e-09
5.36395e-09
5.41623e-09
5.46871e-09
5.52139e-09
5.57427e-09
5.62733e-09
5.68054e-09
5.73387e-09
5.78724e-09
5.84059e-09
5.89383e-09
5.94692e-09
5.99982e-09
6.05246e-09
6.10479e-09
6.15668e-09
6.20801e-09
6.25865e-09
6.30849e-09
6.35743e-09
6.40538e-09
6.4523e-09
6.49818e-09
6.54301e-09
6.58682e-09
6.6296e-09
6.67129e-09
6.71184e-09
6.75115e-09
6.78915e-09
6.82584e-09
6.86122e-09
6.89535e-09
6.92834e-09
6.96032e-09
6.99144e-09
7.02184e-09
7.05166e-09
7.08096e-09
7.10977e-09
7.13805e-09
7.16571e-09
7.19267e-09
7.21886e-09
7.24428e-09
7.26901e-09
7.29322e-09
7.3171e-09
7.34083e-09
7.36457e-09
7.38841e-09
7.41238e-09
7.43642e-09
7.46042e-09
7.48423e-09
7.50769e-09
7.53074e-09
7.55338e-09
7.5757e-09
7.5978e-09
7.61972e-09
7.6414e-09
7.66271e-09
7.68351e-09
7.70372e-09
7.72332e-09
7.74238e-09
7.76101e-09
7.7793e-09
7.79732e-09
7.81513e-09
7.83279e-09
7.85043e-09
7.86819e-09
7.88626e-09
7.90474e-09
7.92377e-09
7.94334e-09
7.9635e-09
7.98424e-09
8.00556e-09
8.02734e-09
8.0495e-09
8.07184e-09
8.09425e-09
8.11655e-09
8.13879e-09
8.16099e-09
8.18343e-09
8.2063e-09
8.23004e-09
8.25483e-09
8.28102e-09
8.30859e-09
8.33764e-09
8.36785e-09
8.39918e-09
8.43122e-09
8.46408e-09
8.49748e-09
8.53172e-09
8.56652e-09
8.60213e-09
8.63802e-09
8.67441e-09
8.71072e-09
8.74757e-09
8.78478e-09
8.82361e-09
8.8641e-09
8.90777e-09
8.95475e-09
9.00628e-09
9.06458e-09
9.12961e-09
9.2085e-09
9.30175e-09
9.42362e-09
9.57728e-09
9.78746e-09
1.00618e-08
1.04478e-08
1.09548e-08
1.16625e-08
1.2657e-08
1.30174e-08
1.62307e-08
2.2773e-08
2.68898e-08
3.11941e-08
3.78952e-08
4.37304e-08
3.9867e-08
3.61295e-08
4.34205e-08
4.80713e-08
4.72113e-08
4.31006e-08
)
;

boundaryField
{
    inlet
    {
        type            calculated;
        value           uniform 0;
    }
    endWall
    {
        type            calculated;
        value           uniform 0;
    }
    sideWall
    {
        type            empty;
    }
}


// ************************************************************************* //
