/*--------------------------------*- C++ -*----------------------------------*\
| =========                 |                                                 |
| \\      /  F ield         | foam-extend: Open Source CFD                    |
|  \\    /   O peration     | Version:     3.2                                |
|   \\  /    A nd           | Web:         http://www.foam-extend.org         |
|    \\/     M anipulation  | For copyright notice see file Copyright         |
\*---------------------------------------------------------------------------*/
FoamFile
{
    version     2.0;
    format      ascii;
    class       surfaceScalarField;
    location    "120";
    object      meshPhi;
}
// * * * * * * * * * * * * * * * * * * * * * * * * * * * * * * * * * * * * * //

dimensions      [0 3 -1 0 0 0 0];

internalField   nonuniform List<scalar> 
65390
(
0
0
0
0
0
0
0
0
0
0
0
0
0
0
0
0
0
0
0
0
0
0
0
0
0
0
0
0
0
0
0
0
0
0
0
0
0
0
0
0
0
0
0
0
0
0
0
0
0
0
0
0
0
0
0
0
0
0
0
0
0
0
0
0
0
0
0
0
0
0
0
0
0
0
0
0
0
0
0
0
0
0
0
0
0
0
0
0
0
0
0
0
0
0
0
0
0
0
0
0
0
0
0
0
0
0
0
0
0
0
0
0
0
0
0
0
0
0
0
0
0
0
0
0
0
0
0
0
0
0
0
0
0
0
0
0
0
0
0
0
0
0
0
0
0
0
0
0
0
0
0
0
0
0
0
0
0
0
0
0
0
0
0
0
0
0
0
0
0
0
0
0
0
0
0
0
0
0
0
0
0
0
0
0
0
0
0
0
0
0
0
0
0
0
0
0
0
0
0
0
0
0
0
0
0
0
0
0
0
0
0
0
0
0
0
0
0
0
0
0
0
0
0
0
0
0
0
0
0
0
0
0
0
0
0
0
0
0
0
0
0
0
0
0
0
0
0
0
0
0
0
0
0
0
0
0
0
0
0
0
0
0
0
0
0
0
0
0
0
0
0
0
0
0
0
0
0
0
0
0
0
0
0
0
0
0
0
0
0
0
0
0
0
0
0
0
0
0
0
0
0
0
0
0
0
0
0
0
0
0
0
0
0
0
0
0
0
0
0
0
0
0
0
0
0
0
0
0
0
0
0
0
0
0
0
0
0
0
0
0
0
0
0
0
0
0
0
0
0
0
0
0
0
0
0
0
0
0
0
0
0
0
0
0
0
0
0
0
0
0
0
0
0
0
0
0
0
0
0
0
0
0
0
0
0
0
0
0
0
0
0
0
0
0
0
0
0
0
0
0
0
0
0
0
0
0
-3.20988e-34
1.31418e-20
7.40149e-18
2.62837e-20
7.40149e-18
2.62837e-20
-3.20988e-34
5.25674e-20
-3.70074e-18
5.25674e-20
-3.70074e-18
5.25674e-20
7.40149e-18
1.05135e-19
1.28395e-33
1.31418e-19
-3.70074e-18
1.83986e-19
-3.70074e-18
2.36553e-19
-3.70074e-18
3.02262e-19
0
4.07397e-19
7.40149e-18
5.65099e-19
7.40149e-18
7.35943e-19
7.40149e-18
9.46213e-19
7.40149e-18
1.27476e-18
0
1.6953e-18
0
2.2604e-18
-7.40149e-18
3.04891e-18
0
4.04769e-18
-1.4803e-17
5.41444e-18
-7.40149e-18
7.2543e-18
0
9.75125e-18
7.40149e-18
1.31681e-17
0
1.79386e-17
0
2.50484e-17
0
3.61664e-17
7.40149e-18
5.2252e-17
0
7.64987e-17
0
1.66047e-16
1.4803e-17
6.9062e-16
-7.40149e-18
8.13672e-15
7.40149e-18
3.52687e-13
7.40149e-18
3.19081e-12
0
5.33678e-12
-7.4015e-18
1.21558e-12
0
-8.58509e-13
7.4015e-18
4.72467e-12
0
1.03054e-11
0
1.34159e-11
-7.40149e-18
1.61906e-11
0
1.8963e-11
0
2.19175e-11
-8.76272e-29
2.50038e-11
-7.40149e-18
2.80811e-11
0
3.1152e-11
-7.40149e-18
3.42706e-11
0
3.7453e-11
0
4.07007e-11
0
4.40186e-11
0
4.74161e-11
5.38927e-29
5.08991e-11
0
5.44647e-11
0
5.81029e-11
-1.4803e-17
6.18003e-11
0
6.55448e-11
1.4803e-17
6.93291e-11
0
7.31507e-11
-7.40149e-18
7.70101e-11
0
8.09065e-11
7.40149e-18
8.48358e-11
-7.40149e-18
8.879e-11
0
9.27596e-11
7.40149e-18
9.67361e-11
0
1.00714e-10
-7.40149e-18
1.04689e-10
0
1.08658e-10
-7.40149e-18
1.12615e-10
7.40149e-18
1.1655e-10
0
1.20454e-10
8.73884e-29
1.24319e-10
0
1.28141e-10
7.40149e-18
1.31923e-10
7.00961e-29
1.35671e-10
1.4803e-17
1.39389e-10
-7.40149e-18
1.43079e-10
0
1.46734e-10
-7.40149e-18
1.50343e-10
1.31252e-28
1.5389e-10
0
1.57361e-10
0
1.60744e-10
-7.40148e-18
1.64031e-10
-1.49593e-28
1.67217e-10
7.40148e-18
1.703e-10
-7.40148e-18
1.73283e-10
0
1.76166e-10
-7.40148e-18
1.7895e-10
0
1.81636e-10
0
1.84221e-10
0
1.86701e-10
7.40148e-18
1.89073e-10
0
1.91337e-10
7.40148e-18
1.93494e-10
-1.24615e-28
1.95549e-10
7.40148e-18
1.97513e-10
0
1.99396e-10
7.40148e-18
2.01212e-10
0
2.02976e-10
0
2.047e-10
7.40148e-18
2.06393e-10
5.1891e-29
2.08062e-10
7.40148e-18
2.09708e-10
-7.40148e-18
2.11329e-10
0
2.12917e-10
8.75374e-29
2.14463e-10
0
2.15957e-10
7.40148e-18
2.17392e-10
7.40148e-18
2.18763e-10
0
2.2007e-10
8.09969e-29
2.21316e-10
7.40148e-18
2.22507e-10
-7.40148e-18
2.23647e-10
-7.40148e-18
2.24743e-10
-7.40148e-18
2.25795e-10
7.15008e-29
2.26806e-10
0
2.27772e-10
-7.40149e-18
2.2869e-10
8.08968e-29
2.29558e-10
0
2.30372e-10
-7.40149e-18
2.31131e-10
-7.40149e-18
2.31836e-10
7.40149e-18
2.32492e-10
5.1353e-29
2.33106e-10
-7.40149e-18
2.33685e-10
1.4803e-17
2.34238e-10
-7.40149e-18
2.34767e-10
0
2.35276e-10
-7.40149e-18
2.35763e-10
7.40149e-18
2.36229e-10
7.40149e-18
2.36672e-10
0
2.37097e-10
-1.68686e-29
2.37509e-10
0
2.37917e-10
7.90915e-31
2.38327e-10
0
2.38749e-10
-7.40149e-18
2.39188e-10
0
2.39651e-10
0
2.40147e-10
1.4803e-17
2.40685e-10
7.40149e-18
2.41281e-10
1.4803e-17
2.41948e-10
-9.47635e-29
2.42701e-10
0
2.43552e-10
1.10552e-28
2.44511e-10
-7.40149e-18
2.45587e-10
0
2.46787e-10
-1.21427e-28
2.48115e-10
0
2.49574e-10
1.11016e-28
2.51167e-10
7.40149e-18
2.52888e-10
-7.40149e-18
2.54731e-10
7.40149e-18
2.56682e-10
-7.40149e-18
2.58729e-10
-1.4803e-17
2.6086e-10
7.40149e-18
2.63067e-10
0
2.65344e-10
4.86901e-29
2.67693e-10
7.40149e-18
2.70117e-10
0
2.72619e-10
-5.85945e-29
2.75207e-10
-5.55207e-29
2.77881e-10
-7.40149e-18
2.80643e-10
-7.40149e-18
2.83489e-10
0
2.86416e-10
7.40149e-18
2.8942e-10
0
2.925e-10
-7.40149e-18
2.95658e-10
0
2.98899e-10
0
3.02229e-10
2.96059e-17
3.05657e-10
0
3.09194e-10
7.6765e-29
3.12846e-10
-7.40149e-18
3.16613e-10
-5.59213e-29
3.20492e-10
1.4803e-17
3.24474e-10
0
3.2855e-10
7.40149e-18
3.32712e-10
7.40149e-18
3.36953e-10
0
3.41269e-10
-7.40149e-18
3.45654e-10
-1.4803e-17
3.50102e-10
-7.40149e-18
3.54606e-10
0
3.59162e-10
0
3.63767e-10
0
3.68417e-10
-5.92211e-29
3.73108e-10
-7.40149e-18
3.77833e-10
-1.4803e-17
3.82584e-10
0
3.87348e-10
7.40149e-18
3.92119e-10
-7.40149e-18
3.96892e-10
-7.40149e-18
4.01668e-10
-1.4803e-17
4.06449e-10
-7.40149e-18
4.11239e-10
7.40149e-18
4.16041e-10
-7.40149e-18
4.20856e-10
1.4803e-17
4.25683e-10
-1.4803e-17
4.30516e-10
1.4803e-17
4.35347e-10
-7.40149e-18
4.40167e-10
7.40149e-18
4.44971e-10
-2.22045e-17
4.49755e-10
-8.44251e-29
4.5452e-10
0
4.59268e-10
7.48699e-29
4.64002e-10
-7.40149e-18
4.68729e-10
-7.40149e-18
4.73451e-10
-7.40149e-18
4.78174e-10
0
4.82901e-10
7.40149e-18
4.87639e-10
-7.40149e-18
4.92392e-10
1.4803e-17
4.97162e-10
5.19616e-29
5.01951e-10
7.40149e-18
5.06757e-10
7.40149e-18
5.1158e-10
7.40149e-18
5.16416e-10
-7.40149e-18
5.21263e-10
0
5.26114e-10
1.4803e-17
5.30962e-10
-7.40148e-18
5.35802e-10
-9.57675e-29
5.40629e-10
-7.40148e-18
5.45437e-10
0
5.50222e-10
0
5.54977e-10
7.40148e-18
5.59692e-10
7.40148e-18
5.64357e-10
0
5.68959e-10
7.40148e-18
5.73489e-10
1.73755e-28
5.77937e-10
-7.40148e-18
5.82296e-10
-7.40148e-18
5.86563e-10
-7.40148e-18
5.90734e-10
-7.40148e-18
5.94811e-10
-7.40148e-18
5.98793e-10
-1.4803e-17
6.02681e-10
7.40148e-18
6.0647e-10
0
6.10153e-10
1.4803e-17
6.13725e-10
0
6.1718e-10
0
6.20516e-10
1.4803e-17
6.23734e-10
0
6.2684e-10
1.4803e-17
6.29842e-10
-2.83014e-28
6.32753e-10
0
6.35585e-10
0
6.38352e-10
0
6.41063e-10
-1.4803e-17
6.43726e-10
-1.4803e-17
6.46343e-10
0
6.48911e-10
-1.4803e-17
6.51424e-10
-1.4803e-17
6.53873e-10
1.4803e-17
6.56254e-10
1.4803e-17
6.58569e-10
0
6.60823e-10
0
6.6303e-10
0
6.65206e-10
0
6.67368e-10
0
6.69529e-10
0
6.71697e-10
0
6.73874e-10
1.40064e-28
6.76057e-10
1.4803e-17
6.78235e-10
0
6.80395e-10
1.4803e-17
6.82526e-10
-1.4803e-17
6.84622e-10
0
6.86682e-10
1.4803e-17
6.88713e-10
1.4803e-17
6.90723e-10
1.4803e-17
6.92712e-10
2.02156e-28
6.94679e-10
0
6.96612e-10
0
6.985e-10
0
7.00337e-10
0
7.0212e-10
0
7.03856e-10
-1.4803e-17
7.05552e-10
-1.4803e-17
7.07217e-10
-1.4803e-17
7.08857e-10
0
7.10478e-10
0
7.12087e-10
0
7.13695e-10
-1.4803e-17
7.15314e-10
0
7.16959e-10
0
7.18641e-10
0
7.20369e-10
1.4803e-17
7.22147e-10
0
7.23978e-10
1.4803e-17
7.25861e-10
-1.4803e-17
7.27794e-10
0
7.2977e-10
0
7.31778e-10
1.21072e-28
7.33804e-10
0
7.35836e-10
-1.4803e-17
7.37864e-10
1.4803e-17
7.39887e-10
1.4803e-17
7.41913e-10
0
7.43958e-10
-1.4803e-17
7.46048e-10
0
7.48211e-10
-1.4803e-17
7.50473e-10
-1.4803e-17
7.52852e-10
1.4803e-17
7.55359e-10
9.68409e-29
7.57991e-10
0
7.60734e-10
0
7.63572e-10
1.4803e-17
7.66487e-10
0
7.69467e-10
0
7.72511e-10
-1.4803e-17
7.75617e-10
-1.4803e-17
7.78785e-10
-1.4803e-17
7.82009e-10
-1.4803e-17
7.85276e-10
-1.4803e-17
7.88572e-10
0
7.91889e-10
0
7.95238e-10
1.4803e-17
7.98654e-10
0
8.0219e-10
0
8.0591e-10
0
8.09888e-10
0
8.14194e-10
-1.4803e-17
8.18937e-10
-1.4803e-17
8.24251e-10
0
8.30347e-10
1.4803e-17
8.37566e-10
0
8.46416e-10
-1.48031e-17
8.57635e-10
-1.48032e-17
8.72255e-10
0
8.91664e-10
1.48033e-17
9.17846e-10
-1.48035e-17
9.53347e-10
-1.48037e-17
1.00162e-09
4.79981e-26
1.06672e-09
1.48058e-17
1.13912e-09
-1.4777e-17
1.22677e-09
0
1.00438e-09
1.48279e-17
3.90108e-10
-1.48027e-17
2.50458e-11
-1.48031e-17
-1.65575e-13
-1.4803e-17
1.72468e-13
-1.4803e-17
5.4118e-14
0
2.69764e-14
-1.4803e-17
1.4621e-14
0
8.41278e-15
-1.4803e-17
4.84718e-15
0
2.53012e-15
7.87039e-16
0
0
0
0
0
0
0
0
0
0
0
0
0
0
0
0
0
0
0
0
0
0
0
0
0
0
0
0
0
0
0
0
0
0
0
0
0
0
0
0
0
0
0
0
0
0
0
0
0
0
0
0
0
0
0
0
0
0
0
0
0
0
0
0
0
0
0
0
0
0
0
0
0
0
0
0
0
0
0
0
0
0
0
0
0
0
0
0
0
0
0
0
0
0
0
0
0
0
0
0
0
0
0
0
0
0
0
0
0
0
0
0
0
0
0
0
0
0
0
0
0
0
0
0
0
0
0
0
0
0
0
0
0
0
0
0
0
0
0
0
0
0
0
0
0
0
0
0
0
0
0
0
0
0
0
0
0
0
0
0
0
0
0
0
0
0
0
0
0
0
0
0
0
0
0
0
0
0
0
0
0
0
0
0
0
0
0
0
0
0
0
0
0
0
0
0
0
0
0
0
0
0
0
0
0
0
0
0
0
0
0
0
0
0
0
0
0
0
0
0
0
0
0
0
0
0
0
0
0
0
0
0
0
0
0
0
0
0
0
0
0
0
0
0
0
0
0
0
0
0
0
0
0
0
0
0
0
0
0
0
0
0
0
0
0
0
0
0
0
0
0
0
0
0
0
0
0
0
0
0
0
0
0
0
0
0
0
0
0
0
0
0
0
0
0
0
0
0
0
0
0
0
0
0
0
0
0
0
0
0
0
0
0
0
0
0
0
0
0
0
0
0
0
0
0
0
0
0
0
0
0
0
0
0
0
0
0
0
0
0
0
0
0
0
0
0
0
0
0
0
0
0
0
0
0
0
0
0
0
0
0
0
0
0
0
0
0
0
0
0
0
0
0
0
0
0
0
0
0
0
0
0
0
0
0
0
0
0
0
0
0
1.31418e-20
-3.70074e-18
2.62837e-20
0
5.25674e-20
0
2.62837e-20
0
6.57092e-20
0
7.88511e-20
-7.40149e-18
9.19929e-20
0
1.18277e-19
3.70074e-18
1.97128e-19
1.92593e-33
2.75979e-19
7.40149e-18
3.41688e-19
0
4.59965e-19
3.70074e-18
5.91383e-19
-6.41977e-33
7.49085e-19
-7.40149e-18
1.01192e-18
3.70074e-18
1.32733e-18
-7.40149e-18
1.80043e-18
3.70074e-18
2.36553e-18
0
3.10148e-18
3.43458e-32
4.12654e-18
0
5.48015e-18
0
7.24116e-18
8.02471e-32
9.60669e-18
-3.70074e-18
1.27739e-17
0
1.69793e-17
7.40149e-18
2.26171e-17
-7.40149e-18
3.01605e-17
0
4.03389e-17
-7.40149e-18
5.39933e-17
0
7.23853e-17
0
9.71839e-17
0
1.31096e-16
0
1.78788e-16
-7.40149e-18
2.48999e-16
0
3.59541e-16
0
5.20169e-16
0
7.44124e-16
7.40149e-18
1.63274e-15
-7.40149e-18
6.4701e-15
0
4.86582e-14
0
5.81297e-13
0
3.11166e-12
0
4.75605e-12
0
1.42483e-12
7.40151e-18
-1.19245e-13
-7.40151e-18
4.75042e-12
7.40151e-18
1.00794e-11
7.40151e-18
1.3375e-11
-7.40149e-18
1.61853e-11
7.40148e-18
1.89788e-11
-7.40149e-18
2.19293e-11
-7.40149e-18
2.50021e-11
0
2.80792e-11
0
3.11551e-11
-1.4803e-17
3.42754e-11
0
3.7458e-11
0
4.07063e-11
0
4.4025e-11
0
4.7423e-11
0
5.09055e-11
0
5.44699e-11
0
5.81065e-11
0
6.18024e-11
0
6.55459e-11
7.40149e-18
6.93297e-11
7.40149e-18
7.31511e-11
0
7.70102e-11
0
8.0906e-11
7.40149e-18
8.48342e-11
-7.40149e-18
8.87872e-11
0
9.27557e-11
-7.40148e-18
9.67314e-11
0
1.00709e-10
1.03159e-28
1.04683e-10
-7.40148e-18
1.08651e-10
-7.40148e-18
1.12607e-10
7.40148e-18
1.16541e-10
-7.40148e-18
1.20444e-10
0
1.24308e-10
0
1.2813e-10
0
1.31912e-10
1.4803e-17
1.35661e-10
-1.64815e-28
1.39379e-10
0
1.43069e-10
0
1.46722e-10
0
1.50329e-10
7.40148e-18
1.53875e-10
0
1.57344e-10
0
1.60726e-10
7.40148e-18
1.64012e-10
-3.12726e-28
1.67198e-10
-7.40148e-18
1.70281e-10
-2.22044e-17
1.73264e-10
-7.40148e-18
1.76147e-10
-7.40148e-18
1.78931e-10
0
1.81616e-10
0
1.84201e-10
-3.30105e-28
1.86681e-10
0
1.89053e-10
-7.40148e-18
1.91317e-10
0
1.93475e-10
0
1.95531e-10
7.40148e-18
1.97496e-10
-2.34946e-28
1.9938e-10
2.09081e-28
2.01198e-10
7.40148e-18
2.02964e-10
0
2.04688e-10
-7.40148e-18
2.06383e-10
0
2.08052e-10
-7.40148e-18
2.09698e-10
7.40148e-18
2.11318e-10
-7.40148e-18
2.12904e-10
2.29866e-28
2.14449e-10
0
2.15943e-10
0
2.17377e-10
2.44132e-28
2.18748e-10
-7.40148e-18
2.20055e-10
7.40148e-18
2.21302e-10
0
2.22493e-10
0
2.23634e-10
0
2.2473e-10
-7.40148e-18
2.25783e-10
2.12549e-28
2.26793e-10
0
2.27758e-10
0
2.28677e-10
2.28956e-28
2.29544e-10
7.40148e-18
2.30358e-10
7.40148e-18
2.31117e-10
0
2.31822e-10
7.40148e-18
2.32479e-10
-7.40148e-18
2.33094e-10
7.40148e-18
2.33675e-10
-1.64212e-28
2.34227e-10
-7.40148e-18
2.34757e-10
7.40148e-18
2.35266e-10
1.63436e-28
2.35753e-10
0
2.36219e-10
7.40148e-18
2.36663e-10
7.40148e-18
2.37088e-10
7.40148e-18
2.37501e-10
0
2.3791e-10
-7.40149e-18
2.38321e-10
0
2.38744e-10
-7.40149e-18
2.39184e-10
4.59732e-29
2.39648e-10
7.40149e-18
2.40144e-10
-1.4803e-17
2.40685e-10
0
2.41282e-10
7.40149e-18
2.4195e-10
7.40149e-18
2.42705e-10
9.54311e-29
2.43557e-10
7.40149e-18
2.44518e-10
7.40149e-18
2.45594e-10
-7.40149e-18
2.46794e-10
7.40149e-18
2.48122e-10
7.40149e-18
2.49582e-10
-7.40149e-18
2.51174e-10
7.40149e-18
2.52894e-10
-7.40149e-18
2.54735e-10
-3.31831e-29
2.56685e-10
7.40149e-18
2.5873e-10
0
2.6086e-10
-7.40149e-18
2.63066e-10
1.4803e-17
2.65344e-10
7.40149e-18
2.67693e-10
0
2.70117e-10
9.68679e-30
2.7262e-10
-1.4803e-17
2.75207e-10
7.40149e-18
2.77882e-10
-7.40149e-18
2.80643e-10
7.40149e-18
2.83489e-10
7.40149e-18
2.86415e-10
7.40149e-18
2.89418e-10
0
2.92499e-10
0
2.95657e-10
7.40149e-18
2.98898e-10
7.40149e-18
3.02229e-10
-3.22934e-29
3.05659e-10
-7.40149e-18
3.09196e-10
1.4803e-17
3.12848e-10
-1.57066e-29
3.16614e-10
7.40149e-18
3.20492e-10
-7.40149e-18
3.24473e-10
0
3.28548e-10
-7.40148e-18
3.32709e-10
7.40148e-18
3.36949e-10
-1.4803e-17
3.41264e-10
1.4803e-17
3.45648e-10
-7.40148e-18
3.50095e-10
7.40148e-18
3.54599e-10
7.40148e-18
3.59154e-10
7.40148e-18
3.63758e-10
7.40148e-18
3.68407e-10
7.40148e-18
3.73097e-10
-1.4803e-17
3.77822e-10
0
3.82571e-10
0
3.87334e-10
0
3.92104e-10
2.22044e-17
3.96877e-10
7.40148e-18
4.01653e-10
7.40148e-18
4.06435e-10
-7.40148e-18
4.11225e-10
0
4.16027e-10
7.40148e-18
4.20842e-10
7.40148e-18
4.25668e-10
1.4803e-17
4.30499e-10
7.40148e-18
4.35329e-10
7.40148e-18
4.40149e-10
0
4.44952e-10
-7.40148e-18
4.49736e-10
7.40148e-18
4.54501e-10
7.40148e-18
4.59249e-10
-7.40148e-18
4.63984e-10
-2.22044e-17
4.68711e-10
-7.40148e-18
4.73434e-10
0
4.78157e-10
-1.4803e-17
4.82885e-10
0
4.87623e-10
1.4803e-17
4.92376e-10
7.40148e-18
4.97146e-10
-1.4803e-17
5.01935e-10
7.40148e-18
5.06741e-10
-7.40148e-18
5.11563e-10
-1.4803e-17
5.16399e-10
-3.09125e-28
5.21244e-10
7.40148e-18
5.26094e-10
-3.39056e-28
5.30942e-10
-7.40148e-18
5.35781e-10
0
5.40607e-10
7.40148e-18
5.45414e-10
0
5.50198e-10
-4.19926e-28
5.54952e-10
7.40148e-18
5.59666e-10
0
5.64329e-10
0
5.6893e-10
0
5.73458e-10
7.40148e-18
5.77905e-10
-1.4803e-17
5.82264e-10
7.40148e-18
5.8653e-10
0
5.90701e-10
5.34603e-28
5.94778e-10
5.40639e-28
5.9876e-10
-5.51966e-28
6.02647e-10
1.4803e-17
6.06435e-10
0
6.10118e-10
-1.4803e-17
6.1369e-10
0
6.17144e-10
1.4803e-17
6.2048e-10
-1.4803e-17
6.23699e-10
-1.4803e-17
6.26806e-10
0
6.29809e-10
0
6.32721e-10
0
6.35555e-10
-9.20505e-28
6.38323e-10
-1.4803e-17
6.41035e-10
0
6.43699e-10
1.4803e-17
6.46315e-10
0
6.48883e-10
1.4803e-17
6.51394e-10
1.4803e-17
6.53843e-10
9.71295e-28
6.56224e-10
1.4803e-17
6.58539e-10
0
6.60795e-10
0
6.63004e-10
0
6.65182e-10
-2.96059e-17
6.67346e-10
-7.01675e-28
6.69507e-10
0
6.71676e-10
0
6.73852e-10
0
6.76034e-10
8.31344e-28
6.7821e-10
0
6.80369e-10
1.4803e-17
6.825e-10
1.4803e-17
6.84595e-10
-1.4803e-17
6.86656e-10
0
6.88688e-10
0
6.90697e-10
8.64116e-28
6.92686e-10
0
6.94652e-10
0
6.96583e-10
0
6.98471e-10
1.4803e-17
7.00307e-10
0
7.02092e-10
-1.4803e-17
7.03828e-10
-8.65215e-28
7.05525e-10
1.4803e-17
7.07191e-10
0
7.08832e-10
1.4803e-17
7.10454e-10
-1.4803e-17
7.12064e-10
-1.4803e-17
7.13673e-10
1.4803e-17
7.15294e-10
1.4803e-17
7.1694e-10
-1.4803e-17
7.18623e-10
0
7.20352e-10
0
7.2213e-10
-1.4803e-17
7.23961e-10
0
7.25843e-10
1.4803e-17
7.27775e-10
-1.4803e-17
7.2975e-10
7.29445e-28
7.31756e-10
-1.4803e-17
7.33781e-10
1.4803e-17
7.35812e-10
1.4803e-17
7.3784e-10
-1.4803e-17
7.39864e-10
1.4803e-17
7.41891e-10
-1.4803e-17
7.4394e-10
-1.4803e-17
7.46033e-10
0
7.48198e-10
0
7.50462e-10
0
7.52842e-10
0
7.55349e-10
1.4803e-17
7.57979e-10
-1.4803e-17
7.60721e-10
0
7.63556e-10
5.70553e-28
7.6647e-10
0
7.6945e-10
-1.4803e-17
7.72493e-10
0
7.75599e-10
0
7.78766e-10
0
7.81989e-10
0
7.85254e-10
-7.24627e-28
7.88549e-10
0
7.91868e-10
1.4803e-17
7.95221e-10
0
7.98644e-10
0
8.02187e-10
-1.4803e-17
8.05916e-10
0
8.09903e-10
0
8.14223e-10
0
8.18983e-10
0
8.24323e-10
0
8.3046e-10
0
8.37738e-10
1.48031e-17
8.46672e-10
1.42433e-26
8.58005e-10
-1.48033e-17
8.72773e-10
-2.7115e-26
8.9238e-10
-1.48036e-17
9.18791e-10
-4.29756e-26
9.54535e-10
1.48038e-17
1.00295e-09
0
1.06645e-09
-2.96038e-17
1.13805e-09
1.47706e-17
1.19532e-09
-1.47978e-17
9.6747e-10
-1.48328e-17
4.14627e-10
-2.56899e-25
5.91005e-11
0
4.60618e-12
-1.48033e-17
1.33046e-12
1.48031e-17
5.38948e-13
0
2.63767e-13
0
1.44192e-13
0
8.32157e-14
0
4.80395e-14
0
2.51029e-14
7.81351e-15
0
0
0
0
0
0
0
0
0
0
0
0
0
0
0
0
0
0
0
0
0
0
0
0
0
0
0
0
0
0
0
0
0
0
0
0
0
0
0
0
0
0
0
0
0
0
0
0
0
0
0
0
0
0
0
0
0
0
0
0
0
0
0
0
0
0
0
0
0
0
0
0
0
0
0
0
0
0
0
0
0
0
0
0
0
0
0
0
0
0
0
0
0
0
0
0
0
0
0
0
0
0
0
0
0
0
0
0
0
0
0
0
0
0
0
0
0
0
0
0
0
0
0
0
0
0
0
0
0
0
0
0
0
0
0
0
0
0
0
0
0
0
0
0
0
0
0
0
0
0
0
0
0
0
0
0
0
0
0
0
0
0
0
0
0
0
0
0
0
0
0
0
0
0
0
0
0
0
0
0
0
0
0
0
0
0
0
0
0
0
0
0
0
0
0
0
0
0
0
0
0
0
0
0
0
0
0
0
0
0
0
0
0
0
0
0
0
0
0
0
0
0
0
0
0
0
0
0
0
0
0
0
0
0
0
0
0
0
0
0
0
0
0
0
0
0
0
0
0
0
0
0
0
0
0
0
0
0
0
0
0
0
0
0
0
0
0
0
0
0
0
0
0
0
0
0
0
0
0
0
0
0
0
0
0
0
0
0
0
0
0
0
0
0
0
0
0
0
0
0
0
0
0
0
0
0
0
0
0
0
0
0
0
0
0
0
0
0
0
0
0
0
0
0
0
0
0
0
0
0
0
0
0
0
0
0
0
0
0
0
0
0
0
0
0
0
0
0
0
0
0
0
0
0
0
0
0
0
0
0
0
0
0
0
0
0
0
0
0
0
0
0
0
0
0
0
0
0
0
0
0
0
0
0
0
0
0
0
0
0
-3.70074e-18
1.57702e-19
7.40149e-18
1.05135e-19
7.40149e-18
2.1027e-19
3.70074e-18
1.57702e-19
-7.40149e-18
1.57702e-19
3.70074e-18
2.36553e-19
-3.70074e-18
3.94255e-19
-1.11022e-17
5.25674e-19
-3.70074e-18
6.30809e-19
3.70074e-18
8.41078e-19
-7.40149e-18
1.15648e-18
0
1.60331e-18
3.70074e-18
2.05013e-18
3.70074e-18
2.68094e-18
2.34321e-32
3.49573e-18
0
4.6785e-18
-3.70074e-18
6.20295e-18
-7.40149e-18
8.20051e-18
-7.19014e-32
1.0934e-17
3.70074e-18
1.44035e-17
7.40149e-18
1.9082e-17
-3.70074e-18
2.53375e-17
7.40149e-18
3.35643e-17
7.40149e-18
4.45246e-17
0
5.9112e-17
-1.4803e-17
7.88511e-17
-1.39726e-30
1.05187e-16
0
1.40672e-16
-7.40149e-18
1.88296e-16
-7.40149e-18
2.5235e-16
4.50989e-30
3.3877e-16
0
4.56784e-16
0
6.22767e-16
0
8.66284e-16
0
1.24708e-15
7.40149e-18
1.81105e-15
1.4803e-17
2.56855e-15
0
5.37299e-15
0
2.07727e-14
0
1.18342e-13
0
7.91154e-13
0
2.9903e-12
0
4.22227e-12
0
1.65513e-12
0
6.34229e-13
0
4.85915e-12
-7.40152e-18
9.87216e-12
0
1.33067e-11
1.5326e-28
1.61751e-11
-7.40148e-18
1.8995e-11
-7.40149e-18
2.19432e-11
7.40149e-18
2.50024e-11
-7.40149e-18
2.80778e-11
0
3.11586e-11
-7.40149e-18
3.42812e-11
0
3.74645e-11
0
4.07134e-11
0
4.4033e-11
-7.40149e-18
4.74314e-11
-7.40149e-18
5.09132e-11
-7.40149e-18
5.44758e-11
0
5.81102e-11
0
6.1804e-11
0
6.5546e-11
7.40148e-18
6.93289e-11
0
7.31498e-11
-7.40148e-18
7.70082e-11
-1.4803e-17
8.09028e-11
-7.40148e-18
8.48295e-11
0
8.87807e-11
0
9.27475e-11
0
9.67219e-11
0
1.00698e-10
-7.40148e-18
1.04671e-10
0
1.08638e-10
0
1.12592e-10
0
1.16524e-10
7.40148e-18
1.20426e-10
0
1.24289e-10
-7.40148e-18
1.28111e-10
7.40148e-18
1.31894e-10
0
1.35642e-10
0
1.3936e-10
7.40148e-18
1.43048e-10
0
1.467e-10
0
1.50304e-10
-7.40148e-18
1.53847e-10
7.40148e-18
1.57314e-10
0
1.60694e-10
0
1.63979e-10
-7.40148e-18
1.67164e-10
-1.4803e-17
1.70248e-10
0
1.7323e-10
0
1.76113e-10
-1.4803e-17
1.78897e-10
7.40148e-18
1.81582e-10
7.40148e-18
1.84165e-10
-7.40148e-18
1.86645e-10
-7.40148e-18
1.89017e-10
-7.40148e-18
1.91281e-10
7.40148e-18
1.93439e-10
7.40148e-18
1.95497e-10
-7.40148e-18
1.97464e-10
0
1.99351e-10
4.31463e-28
2.01171e-10
0
2.02938e-10
0
2.04664e-10
-7.40148e-18
2.06359e-10
0
2.08029e-10
-3.92458e-28
2.09674e-10
-7.40148e-18
2.11293e-10
0
2.12878e-10
4.65153e-28
2.14421e-10
0
2.15914e-10
0
2.17347e-10
-7.40148e-18
2.18718e-10
0
2.20026e-10
-7.40148e-18
2.21273e-10
0
2.22465e-10
-1.4803e-17
2.23607e-10
7.40148e-18
2.24703e-10
0
2.25755e-10
4.54179e-28
2.26765e-10
7.40148e-18
2.2773e-10
7.40148e-18
2.28648e-10
4.76737e-28
2.29515e-10
0
2.30328e-10
-4.68498e-28
2.31088e-10
0
2.31794e-10
1.4803e-17
2.32452e-10
7.40148e-18
2.33068e-10
7.40148e-18
2.33649e-10
0
2.34203e-10
-7.40148e-18
2.34733e-10
0
2.35242e-10
3.87059e-28
2.3573e-10
0
2.36195e-10
7.40148e-18
2.3664e-10
-3.50043e-28
2.37066e-10
0
2.3748e-10
0
2.3789e-10
0
2.38303e-10
0
2.38727e-10
-2.45924e-28
2.39168e-10
-7.40148e-18
2.39634e-10
0
2.40132e-10
0
2.40674e-10
0
2.41274e-10
0
2.41945e-10
0
2.42701e-10
7.40148e-18
2.43555e-10
-2.62633e-30
2.44517e-10
-7.40148e-18
2.45595e-10
-7.40148e-18
2.46795e-10
-7.40148e-18
2.48124e-10
0
2.49583e-10
-7.40148e-18
2.51174e-10
0
2.52893e-10
-7.60094e-29
2.54731e-10
1.13336e-28
2.56679e-10
-7.40148e-18
2.58722e-10
0
2.60851e-10
1.78509e-28
2.63056e-10
0
2.65333e-10
7.40148e-18
2.67682e-10
1.4803e-17
2.70106e-10
-1.4803e-17
2.7261e-10
1.65188e-28
2.75197e-10
1.73881e-28
2.77872e-10
-7.40148e-18
2.80632e-10
0
2.83477e-10
-1.4803e-17
2.86402e-10
4.26695e-28
2.89405e-10
-7.40148e-18
2.92486e-10
-2.00681e-28
2.95645e-10
-7.40148e-18
2.98887e-10
0
3.02219e-10
-1.4803e-17
3.05649e-10
0
3.09187e-10
0
3.12838e-10
-1.4803e-17
3.16604e-10
7.40148e-18
3.2048e-10
7.40148e-18
3.24459e-10
7.40148e-18
3.28532e-10
-7.40148e-18
3.32691e-10
-7.40148e-18
3.36931e-10
3.41437e-28
3.41244e-10
-3.66188e-28
3.45626e-10
0
3.50072e-10
-7.40148e-18
3.54574e-10
1.4803e-17
3.59129e-10
-7.40148e-18
3.63731e-10
-7.40148e-18
3.68379e-10
-4.98928e-28
3.73068e-10
0
3.7779e-10
-5.64281e-28
3.82537e-10
0
3.87299e-10
0
3.92068e-10
7.40148e-18
3.9684e-10
-7.40148e-18
4.01616e-10
-7.40148e-18
4.06398e-10
-1.4803e-17
4.11188e-10
-7.40148e-18
4.1599e-10
-7.40148e-18
4.20804e-10
-7.40148e-18
4.25628e-10
6.79888e-28
4.30458e-10
-7.05357e-28
4.35286e-10
-7.40147e-18
4.40105e-10
7.40147e-18
4.44907e-10
0
4.49691e-10
0
4.54456e-10
-7.40147e-18
4.59204e-10
0
4.6394e-10
-1.48029e-17
4.68667e-10
-1.48029e-17
4.7339e-10
7.40147e-18
4.78113e-10
0
4.82842e-10
6.94143e-28
4.8758e-10
-6.95829e-28
4.92333e-10
-7.0243e-28
4.97103e-10
1.48029e-17
5.01891e-10
0
5.06697e-10
-7.40147e-18
5.11518e-10
-7.40147e-18
5.16353e-10
1.48029e-17
5.21197e-10
1.48029e-17
5.26045e-10
0
5.30891e-10
8.57392e-28
5.35729e-10
-7.40147e-18
5.40553e-10
7.40147e-18
5.45359e-10
-1.48029e-17
5.50142e-10
7.40147e-18
5.54893e-10
1.48029e-17
5.59605e-10
0
5.64266e-10
0
5.68864e-10
-7.40147e-18
5.73391e-10
0
5.77836e-10
-1.14923e-27
5.82194e-10
1.15893e-27
5.86459e-10
0
5.9063e-10
-7.40147e-18
5.94706e-10
1.18484e-27
5.98688e-10
1.48029e-17
6.02574e-10
-7.40147e-18
6.06361e-10
1.48029e-17
6.10043e-10
0
6.13613e-10
0
6.17067e-10
-1.48029e-17
6.20403e-10
0
6.23623e-10
-1.48029e-17
6.26731e-10
0
6.29736e-10
1.48029e-17
6.3265e-10
0
6.35485e-10
-2.2025e-27
6.38255e-10
-1.48029e-17
6.40968e-10
-1.48029e-17
6.43631e-10
1.48029e-17
6.46248e-10
1.48029e-17
6.48814e-10
-1.48029e-17
6.51325e-10
2.29672e-27
6.53773e-10
0
6.56154e-10
1.48029e-17
6.5847e-10
0
6.60728e-10
0
6.62939e-10
2.00422e-27
6.65119e-10
0
6.67285e-10
-1.9318e-27
6.69448e-10
0
6.71616e-10
1.48029e-17
6.73792e-10
1.48029e-17
6.75972e-10
0
6.78146e-10
1.48029e-17
6.80303e-10
1.48029e-17
6.82433e-10
-2.17867e-27
6.84528e-10
-1.48029e-17
6.86589e-10
-2.13764e-27
6.88622e-10
-1.48029e-17
6.90631e-10
-1.48029e-17
6.9262e-10
0
6.94584e-10
1.48029e-17
6.96513e-10
-1.48029e-17
6.984e-10
1.48029e-17
7.00236e-10
0
7.02021e-10
0
7.03759e-10
1.48029e-17
7.05457e-10
0
7.07124e-10
0
7.08766e-10
2.08791e-27
7.10389e-10
1.48029e-17
7.12001e-10
1.48029e-17
7.13612e-10
0
7.15235e-10
1.48029e-17
7.16883e-10
1.48029e-17
7.18567e-10
-1.48029e-17
7.20296e-10
-1.48029e-17
7.22075e-10
-1.48029e-17
7.23905e-10
0
7.25788e-10
-1.48029e-17
7.27718e-10
1.48029e-17
7.29691e-10
-1.48029e-17
7.31695e-10
1.48029e-17
7.33718e-10
1.48029e-17
7.35748e-10
1.48029e-17
7.37775e-10
0
7.398e-10
0
7.41831e-10
1.79278e-27
7.43882e-10
1.48029e-17
7.4598e-10
-1.48029e-17
7.48149e-10
-1.47602e-27
7.50416e-10
-1.48029e-17
7.52797e-10
-1.48029e-17
7.55303e-10
-1.59273e-27
7.57932e-10
1.48029e-17
7.6067e-10
0
7.63503e-10
0
7.66414e-10
-1.48029e-17
7.69393e-10
1.48029e-17
7.72436e-10
0
7.75541e-10
1.94193e-27
7.78707e-10
-1.48029e-17
7.81928e-10
-1.48029e-17
7.85192e-10
-2.02973e-27
7.88486e-10
-1.48029e-17
7.91807e-10
0
7.95167e-10
1.4803e-17
7.98598e-10
0
8.02152e-10
1.4803e-17
8.05894e-10
-7.95409e-30
8.09895e-10
0
8.14235e-10
1.4803e-17
8.19021e-10
0
8.244e-10
1.48031e-17
8.30595e-10
0
8.37956e-10
0
8.47004e-10
1.85453e-26
8.58488e-10
-1.48034e-17
8.73444e-10
-1.48035e-17
8.93282e-10
-1.48037e-17
9.19926e-10
0
9.55817e-10
1.48036e-17
1.00389e-09
-1.48021e-17
1.06505e-09
-1.47968e-17
1.13115e-09
-1.47703e-17
1.1585e-09
1.47973e-17
9.29864e-10
1.48316e-17
4.37441e-10
-1.48114e-17
9.63866e-11
1.48051e-17
1.52339e-11
1.48038e-17
4.36636e-12
0
1.82057e-12
1.48032e-17
9.02736e-13
1.48031e-17
4.9656e-13
-1.4803e-17
2.87626e-13
-2.9606e-17
1.66404e-13
1.4803e-17
8.70675e-14
2.71182e-14
0
0
0
0
0
0
0
0
0
0
0
0
0
0
0
0
0
0
0
0
0
0
0
0
0
0
0
0
0
0
0
0
0
0
0
0
0
0
0
0
0
0
0
0
0
0
0
0
0
0
0
0
0
0
0
0
0
0
0
0
0
0
0
0
0
0
0
0
0
0
0
0
0
0
0
0
0
0
0
0
0
0
0
0
0
0
0
0
0
0
0
0
0
0
0
0
0
0
0
0
0
0
0
0
0
0
0
0
0
0
0
0
0
0
0
0
0
0
0
0
0
0
0
0
0
0
0
0
0
0
0
0
0
0
0
0
0
0
0
0
0
0
0
0
0
0
0
0
0
0
0
0
0
0
0
0
0
0
0
0
0
0
0
0
0
0
0
0
0
0
0
0
0
0
0
0
0
0
0
0
0
0
0
0
0
0
0
0
0
0
0
0
0
0
0
0
0
0
0
0
0
0
0
0
0
0
0
0
0
0
0
0
0
0
0
0
0
0
0
0
0
0
0
0
0
0
0
0
0
0
0
0
0
0
0
0
0
0
0
0
0
0
0
0
0
0
0
0
0
0
0
0
0
0
0
0
0
0
0
0
0
0
0
0
0
0
0
0
0
0
0
0
0
0
0
0
0
0
0
0
0
0
0
0
0
0
0
0
0
0
0
0
0
0
0
0
0
0
0
0
0
0
0
0
0
0
0
0
0
0
0
0
0
0
0
0
0
0
0
0
0
0
0
0
0
0
0
0
0
0
0
0
0
0
0
0
0
0
0
0
0
0
0
0
0
0
0
0
0
0
0
0
0
0
0
0
0
0
0
0
0
0
0
0
0
0
0
0
0
0
0
0
0
0
0
0
0
0
0
0
0
0
0
0
-1.28395e-33
1.05135e-19
3.70074e-18
1.05135e-19
3.70074e-18
1.57702e-19
0
1.05135e-19
1.28395e-33
3.15404e-19
3.70074e-18
3.15404e-19
3.70074e-18
4.20539e-19
3.70074e-18
5.78241e-19
-3.70074e-18
7.35943e-19
3.70074e-18
8.93645e-19
3.70074e-18
1.26162e-18
-7.40149e-18
1.68216e-18
1.09136e-32
2.1027e-18
1.47655e-32
2.83864e-18
0
3.78485e-18
7.40149e-18
4.94133e-18
-7.40149e-18
6.46579e-18
7.40149e-18
8.46335e-18
0
1.11443e-17
3.70074e-18
1.4824e-17
-1.05926e-31
1.96602e-17
3.70074e-18
2.60734e-17
-7.40149e-18
3.44316e-17
3.70074e-18
4.56811e-17
-3.70074e-18
6.03999e-17
0
8.00601e-17
-3.70074e-18
1.06291e-16
0
1.4146e-16
7.40149e-18
1.88136e-16
-7.40149e-18
2.51219e-16
0
3.35853e-16
7.40149e-18
4.49451e-16
0
6.02423e-16
7.40149e-18
8.08644e-16
0
1.09014e-15
0
1.48487e-15
0
2.06243e-15
7.40149e-18
2.96196e-15
-7.40149e-18
4.30406e-15
7.40149e-18
6.10129e-15
-7.40149e-18
1.19702e-14
1.4803e-17
4.3627e-14
7.40149e-18
2.05038e-13
0
9.61155e-13
0
2.84397e-12
-7.40151e-18
3.78334e-12
0
1.89674e-12
7.40153e-18
1.34091e-12
-7.40153e-18
5.03282e-12
0
9.70856e-12
6.20915e-28
1.32245e-11
7.4015e-18
1.61599e-11
0
1.901e-11
-7.40149e-18
2.19576e-11
0
2.50042e-11
7.40149e-18
2.80769e-11
0
3.11616e-11
7.40149e-18
3.42868e-11
-7.40149e-18
3.7471e-11
7.40149e-18
4.07206e-11
7.40149e-18
4.40412e-11
0
4.74397e-11
0
5.09204e-11
0
5.44808e-11
0
5.81124e-11
-7.40148e-18
6.18035e-11
5.74325e-29
6.55434e-11
7.40148e-18
6.93248e-11
-7.40148e-18
7.31446e-11
1.14515e-28
7.70018e-11
-7.40148e-18
8.08948e-11
1.84783e-28
8.48194e-11
-7.40148e-18
8.87682e-11
0
9.27327e-11
-7.40148e-18
9.6705e-11
7.40148e-18
1.00679e-10
-7.40148e-18
1.04651e-10
7.40148e-18
1.08616e-10
0
1.12567e-10
0
1.16497e-10
7.40148e-18
1.20396e-10
0
1.24258e-10
0
1.2808e-10
7.40148e-18
1.31862e-10
-7.40148e-18
1.35611e-10
0
1.39328e-10
1.4803e-17
1.43014e-10
0
1.46663e-10
7.40147e-18
1.50263e-10
0
1.53803e-10
0
1.57267e-10
0
1.60645e-10
0
1.63928e-10
0
1.67112e-10
0
1.70195e-10
-7.40147e-18
1.73177e-10
-7.40147e-18
1.76059e-10
0
1.78843e-10
-7.40147e-18
1.81527e-10
0
1.8411e-10
-7.40147e-18
1.86588e-10
-9.26677e-28
1.8896e-10
7.40147e-18
1.91225e-10
0
1.93384e-10
7.40147e-18
1.95443e-10
1.48029e-17
1.97412e-10
0
1.99301e-10
7.4204e-28
2.01124e-10
0
2.02893e-10
-6.86145e-28
2.04621e-10
0
2.06317e-10
0
2.07987e-10
7.40147e-18
2.09632e-10
7.40147e-18
2.11249e-10
-7.40147e-18
2.12832e-10
-7.40147e-18
2.14374e-10
7.40147e-18
2.15864e-10
0
2.17297e-10
0
2.18667e-10
0
2.19975e-10
-7.40147e-18
2.21223e-10
7.40147e-18
2.22416e-10
-7.84085e-28
2.23558e-10
7.81815e-28
2.24655e-10
-7.40147e-18
2.25707e-10
7.94146e-28
2.26716e-10
7.40147e-18
2.27681e-10
7.40147e-18
2.28598e-10
0
2.29465e-10
0
2.30278e-10
1.48029e-17
2.31038e-10
0
2.31745e-10
0
2.32404e-10
-7.40147e-18
2.33021e-10
7.3187e-28
2.33604e-10
7.40147e-18
2.34159e-10
-7.40147e-18
2.34689e-10
7.40147e-18
2.35198e-10
7.40147e-18
2.35686e-10
0
2.36152e-10
-7.40147e-18
2.36597e-10
-1.48029e-17
2.37025e-10
0
2.3744e-10
-7.40147e-18
2.37852e-10
-7.40148e-18
2.38266e-10
-7.40148e-18
2.38692e-10
-5.32423e-28
2.39135e-10
4.97452e-28
2.39602e-10
-1.4803e-17
2.40103e-10
-4.08669e-28
2.40648e-10
0
2.4125e-10
7.40148e-18
2.41924e-10
0
2.42683e-10
-7.40148e-18
2.43539e-10
7.40148e-18
2.44502e-10
7.40148e-18
2.45581e-10
0
2.46782e-10
2.03929e-28
2.48111e-10
0
2.4957e-10
-2.43539e-28
2.5116e-10
7.40148e-18
2.52877e-10
7.40148e-18
2.54713e-10
7.40148e-18
2.56657e-10
-7.40148e-18
2.58698e-10
0
2.60824e-10
-7.40148e-18
2.63027e-10
7.40148e-18
2.65304e-10
0
2.67653e-10
4.67185e-28
2.70077e-10
1.4803e-17
2.72581e-10
-7.40148e-18
2.75169e-10
-7.40148e-18
2.77842e-10
-7.40148e-18
2.80602e-10
0
2.83446e-10
-7.40148e-18
2.8637e-10
-7.40148e-18
2.89372e-10
0
2.92452e-10
0
2.95612e-10
-7.40148e-18
2.98854e-10
0
3.02187e-10
-1.4803e-17
3.05619e-10
7.40147e-18
3.09157e-10
7.40147e-18
3.12808e-10
0
3.16572e-10
0
3.20446e-10
-7.40147e-18
3.24422e-10
0
3.28493e-10
1.48029e-17
3.3265e-10
-7.40147e-18
3.36887e-10
7.59836e-28
3.41198e-10
7.40147e-18
3.45579e-10
-7.40147e-18
3.50022e-10
-7.40147e-18
3.54522e-10
-7.40147e-18
3.59075e-10
-7.40147e-18
3.63676e-10
-9.53492e-28
3.68322e-10
7.40147e-18
3.73008e-10
7.40147e-18
3.77728e-10
0
3.82472e-10
-7.40147e-18
3.87231e-10
0
3.91999e-10
-1.14931e-27
3.9677e-10
0
4.01545e-10
7.40147e-18
4.06326e-10
-1.16935e-27
4.11116e-10
1.18473e-27
4.15917e-10
-1.20925e-27
4.2073e-10
1.24236e-27