/*--------------------------------*- C++ -*----------------------------------*\
| =========                 |                                                 |
| \\      /  F ield         | foam-extend: Open Source CFD                    |
|  \\    /   O peration     | Version:     3.2                                |
|   \\  /    A nd           | Web:         http://www.foam-extend.org         |
|    \\/     M anipulation  | For copyright notice see file Copyright         |
\*---------------------------------------------------------------------------*/
FoamFile
{
    version     2.0;
    format      ascii;
    class       surfaceScalarField;
    location    "120";
    object      phi;
}
// * * * * * * * * * * * * * * * * * * * * * * * * * * * * * * * * * * * * * //

dimensions      [0 3 -1 0 0 0 0];

internalField   nonuniform List<scalar> 
65390
(
3.7389e-05
6.11008e-07
3.68037e-05
5.85281e-07
3.6084e-05
7.19681e-07
3.53728e-05
7.11276e-07
3.46347e-05
7.38038e-07
3.39498e-05
6.84915e-07
3.32763e-05
6.73496e-07
3.26524e-05
6.23922e-07
3.20435e-05
6.08928e-07
3.14677e-05
5.75753e-07
3.09108e-05
5.56931e-07
3.03837e-05
5.27099e-07
2.98772e-05
5.06458e-07
2.93934e-05
4.83846e-07
2.89265e-05
4.66821e-07
2.848e-05
4.46558e-07
2.80536e-05
4.2637e-07
2.7647e-05
4.06585e-07
2.72567e-05
3.90311e-07
2.68819e-05
3.748e-07
2.65221e-05
3.59821e-07
2.61773e-05
3.44812e-07
2.58476e-05
3.29717e-07
2.55336e-05
3.13937e-07
2.52359e-05
2.97756e-07
2.49546e-05
2.81251e-07
2.46895e-05
2.65083e-07
2.44393e-05
2.50288e-07
2.42022e-05
2.37072e-07
2.39774e-05
2.24778e-07
2.37644e-05
2.1299e-07
2.35629e-05
2.01503e-07
2.33724e-05
1.90556e-07
2.31921e-05
1.80239e-07
2.30217e-05
1.70443e-07
2.28607e-05
1.61013e-07
2.27087e-05
1.51977e-07
2.25653e-05
1.43403e-07
2.24301e-05
1.35166e-07
2.23029e-05
1.2726e-07
2.21831e-05
1.19788e-07
2.20703e-05
1.12809e-07
2.1964e-05
1.06307e-07
2.18638e-05
1.00198e-07
2.17693e-05
9.44579e-08
2.16803e-05
8.90023e-08
2.15965e-05
8.38355e-08
2.15175e-05
7.89716e-08
2.14431e-05
7.43965e-08
2.1373e-05
7.00887e-08
2.13069e-05
6.60559e-08
2.12447e-05
6.22743e-08
2.11859e-05
5.87602e-08
2.11304e-05
5.55429e-08
2.10778e-05
5.26044e-08
2.10279e-05
4.98894e-08
2.09806e-05
4.72973e-08
2.09357e-05
4.4898e-08
2.08929e-05
4.27523e-08
2.08521e-05
4.07838e-08
2.08132e-05
3.89032e-08
2.07762e-05
3.70793e-08
2.07408e-05
3.53694e-08
2.0707e-05
3.37738e-08
2.06747e-05
3.22735e-08
2.06439e-05
3.08668e-08
2.06143e-05
2.9551e-08
2.0586e-05
2.8316e-08
2.05588e-05
2.71766e-08
2.05327e-05
2.61312e-08
2.05075e-05
2.51955e-08
2.04831e-05
2.43652e-08
2.04595e-05
2.35932e-08
2.04367e-05
2.28897e-08
2.04144e-05
2.22918e-08
2.03926e-05
2.17691e-08
2.03713e-05
2.12626e-08
2.03506e-05
2.0762e-08
2.03304e-05
2.02115e-08
2.03107e-05
1.96108e-08
2.02917e-05
1.9088e-08
2.0273e-05
1.86485e-08
2.02548e-05
1.82312e-08
2.02369e-05
1.78391e-08
2.02195e-05
1.74542e-08
2.02024e-05
1.70757e-08
2.01857e-05
1.6699e-08
2.01694e-05
1.63253e-08
2.01534e-05
1.59651e-08
2.01378e-05
1.56204e-08
2.01225e-05
1.53392e-08
2.01073e-05
1.5193e-08
2.00922e-05
1.50644e-08
2.00774e-05
1.48371e-08
2.00628e-05
1.45503e-08
2.00486e-05
1.42372e-08
2.00347e-05
1.39206e-08
2.00211e-05
1.35929e-08
2.00079e-05
1.31997e-08
1.99951e-05
1.281e-08
1.99825e-05
1.2571e-08
1.997e-05
1.24394e-08
1.99577e-05
1.23485e-08
1.99454e-05
1.23019e-08
1.99331e-05
1.22918e-08
1.99208e-05
1.23174e-08
1.99084e-05
1.23749e-08
1.9896e-05
1.24625e-08
1.98834e-05
1.25739e-08
1.98707e-05
1.27041e-08
1.98578e-05
1.28485e-08
1.98448e-05
1.29966e-08
1.98317e-05
1.31609e-08
1.98184e-05
1.33051e-08
1.98049e-05
1.34368e-08
1.97912e-05
1.37122e-08
1.97772e-05
1.39982e-08
1.97631e-05
1.416e-08
1.97487e-05
1.43289e-08
1.97342e-05
1.45266e-08
1.97195e-05
1.47261e-08
1.97045e-05
1.49285e-08
1.96894e-05
1.51296e-08
1.96741e-05
1.53281e-08
1.96586e-05
1.55199e-08
1.96429e-05
1.57013e-08
1.9627e-05
1.58686e-08
1.9611e-05
1.6021e-08
1.95948e-05
1.61579e-08
1.95785e-05
1.62829e-08
1.95621e-05
1.63996e-08
1.95456e-05
1.65135e-08
1.9529e-05
1.6627e-08
1.95123e-05
1.67425e-08
1.94954e-05
1.68583e-08
1.94784e-05
1.69741e-08
1.94613e-05
1.70881e-08
1.94441e-05
1.72002e-08
1.94268e-05
1.73103e-08
1.94094e-05
1.74189e-08
1.93919e-05
1.75251e-08
1.93743e-05
1.76277e-08
1.93565e-05
1.77256e-08
1.93387e-05
1.78162e-08
1.93208e-05
1.78992e-08
1.93028e-05
1.79718e-08
1.92848e-05
1.80334e-08
1.92667e-05
1.80808e-08
1.92486e-05
1.81138e-08
1.92305e-05
1.81305e-08
1.92123e-05
1.81296e-08
1.91942e-05
1.81089e-08
1.91762e-05
1.80651e-08
1.91582e-05
1.79964e-08
1.91403e-05
1.79022e-08
1.91225e-05
1.77846e-08
1.91048e-05
1.76462e-08
1.90874e-05
1.74915e-08
1.907e-05
1.7324e-08
1.90529e-05
1.71467e-08
1.90359e-05
1.69604e-08
1.90192e-05
1.67661e-08
1.90026e-05
1.65653e-08
1.89862e-05
1.63581e-08
1.89701e-05
1.61449e-08
1.89542e-05
1.5927e-08
1.89385e-05
1.57055e-08
1.8923e-05
1.54831e-08
1.89077e-05
1.52602e-08
1.88927e-05
1.50387e-08
1.88779e-05
1.48176e-08
1.88633e-05
1.45975e-08
1.88489e-05
1.43774e-08
1.88347e-05
1.4158e-08
1.88208e-05
1.39401e-08
1.88071e-05
1.37245e-08
1.87935e-05
1.35112e-08
1.87802e-05
1.32998e-08
1.87672e-05
1.3089e-08
1.87543e-05
1.28787e-08
1.87416e-05
1.2668e-08
1.87292e-05
1.2457e-08
1.87169e-05
1.22452e-08
1.87049e-05
1.20336e-08
1.86931e-05
1.18223e-08
1.86814e-05
1.16133e-08
1.867e-05
1.14078e-08
1.86588e-05
1.12057e-08
1.86478e-05
1.10076e-08
1.8637e-05
1.08133e-08
1.86264e-05
1.06224e-08
1.86159e-05
1.04367e-08
1.86057e-05
1.02552e-08
1.85956e-05
1.00772e-08
1.85857e-05
9.90398e-09
1.8576e-05
9.73419e-09
1.85664e-05
9.56742e-09
1.8557e-05
9.40021e-09
1.85478e-05
9.23196e-09
1.85387e-05
9.06138e-09
1.85298e-05
8.88754e-09
1.85211e-05
8.70804e-09
1.85126e-05
8.52202e-09
1.85043e-05
8.33051e-09
1.84961e-05
8.13526e-09
1.84882e-05
7.93693e-09
1.84805e-05
7.73728e-09
1.84729e-05
7.53638e-09
1.84656e-05
7.33577e-09
1.84584e-05
7.13778e-09
1.84515e-05
6.94531e-09
1.84447e-05
6.7605e-09
1.84382e-05
6.58501e-09
1.84317e-05
6.41879e-09
1.84255e-05
6.26229e-09
1.84194e-05
6.11673e-09
1.84134e-05
5.98337e-09
1.84075e-05
5.8648e-09
1.84018e-05
5.76174e-09
1.83961e-05
5.67541e-09
1.83905e-05
5.60547e-09
1.83849e-05
5.55129e-09
1.83794e-05
5.51227e-09
1.83739e-05
5.48954e-09
1.83684e-05
5.47971e-09
1.83629e-05
5.53027e-09
1.83573e-05
5.63952e-09
1.83515e-05
5.75015e-09
1.83457e-05
5.85624e-09
1.83397e-05
5.94954e-09
1.83337e-05
6.02603e-09
1.83276e-05
6.08274e-09
1.83215e-05
6.11994e-09
1.83153e-05
6.14016e-09
1.83092e-05
6.15122e-09
1.8303e-05
6.14079e-09
1.82969e-05
6.14164e-09
1.82908e-05
6.08873e-09
1.82848e-05
5.98012e-09
1.8279e-05
5.84862e-09
1.82733e-05
5.69411e-09
1.82677e-05
5.55073e-09
1.82624e-05
5.35701e-09
1.82572e-05
5.22226e-09
1.8252e-05
5.18666e-09
1.82468e-05
5.15618e-09
1.82417e-05
5.10967e-09
1.82367e-05
5.04849e-09
1.82317e-05
5.00136e-09
1.82267e-05
4.96645e-09
1.82218e-05
4.93214e-09
1.82169e-05
4.89939e-09
1.8212e-05
4.87117e-09
1.82071e-05
4.85151e-09
1.82023e-05
4.84307e-09
1.81975e-05
4.84581e-09
1.81926e-05
4.85789e-09
1.81877e-05
4.87552e-09
1.81828e-05
4.89452e-09
1.81779e-05
4.9131e-09
1.8173e-05
4.93025e-09
1.8168e-05
4.94698e-09
1.81631e-05
4.96402e-09
1.81581e-05
4.98217e-09
1.81531e-05
5.00039e-09
1.81481e-05
5.01854e-09
1.8143e-05
5.03575e-09
1.8138e-05
5.0546e-09
1.81329e-05
5.07541e-09
1.81278e-05
5.10098e-09
1.81227e-05
5.13179e-09
1.81175e-05
5.1677e-09
1.81123e-05
5.20666e-09
1.81071e-05
5.24549e-09
1.81018e-05
5.2826e-09
1.80965e-05
5.31744e-09
1.80911e-05
5.35214e-09
1.80857e-05
5.38872e-09
1.80803e-05
5.42984e-09
1.80748e-05
5.47491e-09
1.80693e-05
5.52275e-09
1.80637e-05
5.56717e-09
1.80581e-05
5.60473e-09
1.80525e-05
5.62884e-09
1.80468e-05
5.64109e-09
1.80412e-05
5.63991e-09
1.80356e-05
5.63006e-09
1.803e-05
5.61104e-09
1.80244e-05
5.58499e-09
1.80188e-05
5.55122e-09
1.80133e-05
5.51085e-09
1.80079e-05
5.46323e-09
1.80024e-05
5.4084e-09
1.79971e-05
5.34479e-09
1.79918e-05
5.27111e-09
1.79866e-05
5.18686e-09
1.79815e-05
5.09287e-09
1.79766e-05
4.99158e-09
1.79717e-05
4.88773e-09
1.79669e-05
4.78514e-09
1.79622e-05
4.68737e-09
1.79576e-05
4.59732e-09
1.79531e-05
4.51704e-09
1.79486e-05
4.44754e-09
1.79442e-05
4.38923e-09
1.79399e-05
4.34088e-09
1.79356e-05
4.30205e-09
1.79313e-05
4.26932e-09
1.79271e-05
4.24049e-09
1.79229e-05
4.21074e-09
1.79187e-05
4.17733e-09
1.79146e-05
4.1371e-09
1.79105e-05
4.08997e-09
1.79064e-05
4.03641e-09
1.79025e-05
3.9782e-09
1.78985e-05
3.91624e-09
1.78947e-05
3.85221e-09
1.78909e-05
3.78629e-09
1.78872e-05
3.72048e-09
1.78835e-05
3.65429e-09
1.78799e-05
3.58944e-09
1.78764e-05
3.52391e-09
1.7873e-05
3.45889e-09
1.78696e-05
3.394e-09
1.78662e-05
3.329e-09
1.7863e-05
3.26565e-09
1.78598e-05
3.20612e-09
1.78566e-05
3.15354e-09
1.78535e-05
3.10834e-09
1.78504e-05
3.07191e-09
1.78474e-05
3.04396e-09
1.78444e-05
3.02453e-09
1.78414e-05
3.01156e-09
1.78384e-05
3.00406e-09
1.78353e-05
3.00169e-09
1.78323e-05
3.00467e-09
1.78293e-05
3.01511e-09
1.78263e-05
3.03322e-09
1.78232e-05
3.06035e-09
1.78201e-05
3.09454e-09
1.7817e-05
3.13607e-09
1.78138e-05
3.18194e-09
1.78106e-05
3.23296e-09
1.78073e-05
3.2872e-09
1.7804e-05
3.34553e-09
1.78006e-05
3.40687e-09
1.77971e-05
3.47195e-09
1.77935e-05
3.54091e-09
1.77899e-05
3.61355e-09
1.77862e-05
3.68984e-09
1.77825e-05
3.76925e-09
1.77786e-05
3.85137e-09
1.77747e-05
3.93548e-09
1.77707e-05
4.01964e-09
1.77666e-05
4.1024e-09
1.77624e-05
4.18086e-09
1.77581e-05
4.25393e-09
1.77538e-05
4.31974e-09
1.77494e-05
4.37878e-09
1.7745e-05
4.43081e-09
1.77405e-05
4.47622e-09
1.7736e-05
4.51679e-09
1.77314e-05
4.55525e-09
1.77268e-05
4.59685e-09
1.77222e-05
4.64402e-09
1.77175e-05
4.69929e-09
1.77127e-05
4.76102e-09
1.77079e-05
4.82862e-09
1.7703e-05
4.90065e-09
1.7698e-05
4.97626e-09
1.7693e-05
5.05564e-09
1.76878e-05
5.13729e-09
1.76826e-05
5.22298e-09
1.76773e-05
5.31213e-09
1.76719e-05
5.40723e-09
1.76664e-05
5.5077e-09
1.76608e-05
5.61302e-09
1.76551e-05
5.721e-09
1.76492e-05
5.82864e-09
1.76433e-05
5.93504e-09
1.76373e-05
6.03791e-09
1.76311e-05
6.13794e-09
1.76249e-05
6.23172e-09
1.76186e-05
6.31902e-09
1.76122e-05
6.39454e-09
1.76057e-05
6.45797e-09
1.75992e-05
6.50845e-09
1.75927e-05
6.54844e-09
1.75861e-05
6.58084e-09
1.75795e-05
6.60704e-09
1.75728e-05
6.6282e-09
1.75662e-05
6.64303e-09
1.75595e-05
6.65126e-09
1.75529e-05
6.6534e-09
1.75462e-05
6.65037e-09
1.75396e-05
6.6437e-09
1.7533e-05
6.63408e-09
1.75263e-05
6.6232e-09
1.75197e-05
6.6121e-09
1.75131e-05
6.60314e-09
1.75065e-05
6.59813e-09
1.74999e-05
6.59776e-09
1.74933e-05
6.60108e-09
1.74867e-05
6.609e-09
1.74801e-05
6.62201e-09
1.74735e-05
6.64297e-09
1.74668e-05
6.67027e-09
1.74601e-05
6.70605e-09
1.74533e-05
6.74654e-09
1.74465e-05
6.79375e-09
1.74397e-05
6.84356e-09
1.74328e-05
6.89932e-09
1.74258e-05
6.95907e-09
1.74188e-05
7.0276e-09
1.74117e-05
7.1033e-09
1.74045e-05
7.1877e-09
1.73972e-05
7.27697e-09
1.73899e-05
7.37027e-09
1.73824e-05
7.46498e-09
1.73748e-05
7.56051e-09
1.73672e-05
7.65414e-09
1.73594e-05
7.74471e-09
1.73516e-05
7.82999e-09
1.73437e-05
7.90949e-09
1.73357e-05
7.98258e-09
1.73277e-05
8.04863e-09
1.73196e-05
8.10698e-09
1.73114e-05
8.15559e-09
1.73032e-05
8.1939e-09
1.7295e-05
8.2197e-09
1.72868e-05
8.23335e-09
1.72785e-05
8.23107e-09
1.72703e-05
8.21213e-09
1.72622e-05
8.17147e-09
1.7254e-05
8.11169e-09
1.7246e-05
8.0326e-09
1.72381e-05
7.94129e-09
1.72302e-05
7.84084e-09
1.72225e-05
7.73382e-09
1.72149e-05
7.62073e-09
1.72074e-05
7.50032e-09
1.72e-05
7.3726e-09
1.71928e-05
7.23606e-09
1.71857e-05
7.09148e-09
1.71787e-05
6.94012e-09
1.71719e-05
6.78605e-09
1.71653e-05
6.63316e-09
1.71588e-05
6.48857e-09
1.71525e-05
6.35564e-09
1.71462e-05
6.23757e-09
1.71401e-05
6.13457e-09
1.7134e-05
6.04602e-09
1.71281e-05
5.97203e-09
1.71222e-05
5.90848e-09
1.71163e-05
5.85539e-09
1.71105e-05
5.80758e-09
1.71047e-05
5.76669e-09
1.7099e-05
5.72844e-09
1.70933e-05
5.69423e-09
1.70877e-05
5.66158e-09
1.7082e-05
5.63175e-09
1.70764e-05
5.6046e-09
1.70708e-05
5.58054e-09
1.70653e-05
5.55877e-09
1.70597e-05
5.53785e-09
1.70542e-05
5.51275e-09
1.70487e-05
5.47961e-09
1.70433e-05
5.43101e-09
1.7038e-05
5.36745e-09
1.70327e-05
5.28669e-09
1.70275e-05
5.19767e-09
1.70224e-05
5.1055e-09
1.70173e-05
5.02111e-09
1.70124e-05
4.94529e-09
1.70075e-05
4.88329e-09
1.70027e-05
4.83067e-09
1.69979e-05
4.79051e-09
1.69931e-05
4.75572e-09
1.69884e-05
4.72948e-09
1.69837e-05
4.70309e-09
1.6979e-05
4.6847e-09
1.69744e-05
4.66652e-09
1.69697e-05
4.65668e-09
1.69651e-05
4.64366e-09
1.69604e-05
4.63058e-09
1.69558e-05
4.60541e-09
1.69512e-05
4.57607e-09
1.69467e-05
4.53636e-09
1.69422e-05
4.49573e-09
1.69378e-05
4.44701e-09
1.69334e-05
4.40387e-09
1.6929e-05
4.35824e-09
1.69247e-05
4.32394e-09
1.69204e-05
4.28757e-09
1.69161e-05
4.26559e-09
1.69119e-05
4.24018e-09
1.69077e-05
4.22863e-09
1.69034e-05
4.20905e-09
1.68992e-05
4.2021e-09
1.68951e-05
4.18496e-09
1.68909e-05
4.18655e-09
1.68867e-05
4.18099e-09
1.68825e-05
4.20634e-09
1.68782e-05
4.23241e-09
1.68739e-05
4.30405e-09
1.68696e-05
4.3778e-09
1.68651e-05
4.50079e-09
1.68605e-05
4.60884e-09
1.68557e-05
4.75713e-09
1.68508e-05
4.86658e-09
1.68458e-05
5.01052e-09
1.68407e-05
5.09548e-09
1.68355e-05
5.22558e-09
1.68302e-05
5.2902e-09
1.68248e-05
5.42947e-09
1.68193e-05
5.4999e-09
1.68136e-05
5.67455e-09
1.68078e-05
5.75827e-09
1.68019e-05
5.97531e-09
1.67958e-05
6.07421e-09
1.67894e-05
6.36848e-09
1.67829e-05
6.53075e-09
1.67759e-05
6.98791e-09
1.67686e-05
7.3e-09
1.67606e-05
7.9779e-09
1.67519e-05
8.72064e-09
1.67422e-05
9.71364e-09
1.67307e-05
1.14592e-08
1.67172e-05
1.35601e-08
1.67002e-05
1.6935e-08
1.66786e-05
2.16849e-08
1.66503e-05
2.82139e-08
1.66122e-05
3.81746e-08
1.65611e-05
5.10631e-08
1.64911e-05
6.99648e-08
1.63911e-05
1.00001e-07
1.62656e-05
1.25556e-07
1.6005e-05
2.60554e-07
1.55584e-05
4.46676e-07
1.50246e-05
5.33817e-07
1.4312e-05
7.12498e-07
1.33227e-05
9.8931e-07
1.19075e-05
1.41519e-06
1.01086e-05
1.79892e-06
7.7437e-06
2.36492e-06
4.10669e-06
3.63701e-06
8.47566e-07
3.25912e-06
-1.07391e-06
1.92148e-06
-2.83124e-06
1.75733e-06
-2.83124e-06
3.77928e-05
8.18204e-07
3.74983e-05
8.79793e-07
3.70261e-05
1.19183e-06
3.65667e-05
1.17076e-06
3.61056e-05
1.19907e-06
3.5691e-05
1.09955e-06
3.5302e-05
1.06249e-06
3.49526e-05
9.73338e-07
3.46372e-05
9.24311e-07
3.43819e-05
8.31016e-07
3.41455e-05
7.9341e-07
3.39275e-05
7.45099e-07
3.37134e-05
7.20484e-07
3.35062e-05
6.91027e-07
3.3299e-05
6.74092e-07
3.30924e-05
6.53169e-07
3.28766e-05
6.42184e-07
3.26551e-05
6.28032e-07
3.24331e-05
6.12308e-07
3.22131e-05
5.94801e-07
3.19954e-05
5.77547e-07
3.1779e-05
5.61156e-07
3.15642e-05
5.44527e-07
3.13511e-05
5.27045e-07
3.11402e-05
5.08701e-07
3.09314e-05
4.90063e-07
3.07249e-05
4.71532e-07
3.05223e-05
4.52898e-07
3.03248e-05
4.34532e-07
3.01322e-05
4.17391e-07
2.99445e-05
4.00699e-07
2.97621e-05
3.83965e-07
2.9585e-05
3.6762e-07
2.94131e-05
3.52118e-07
2.92463e-05
3.37303e-07
2.90844e-05
3.22884e-07
2.89275e-05
3.0884e-07
2.87756e-05
2.95367e-07
2.86284e-05
2.82317e-07
2.84859e-05
2.69769e-07
2.83483e-05
2.5736e-07
2.82157e-05
2.45455e-07
2.80876e-05
2.34378e-07
2.79639e-05
2.2388e-07
2.78446e-05
2.13823e-07
2.77293e-05
2.04262e-07
2.76175e-05
1.9562e-07
2.75091e-05
1.87376e-07
2.7404e-05
1.7955e-07
2.7302e-05
1.72042e-07
2.72032e-05
1.64865e-07
2.71074e-05
1.58036e-07
2.70146e-05
1.51567e-07
2.69247e-05
1.45463e-07
2.68376e-05
1.39724e-07
2.67531e-05
1.34339e-07
2.66714e-05
1.29091e-07
2.65922e-05
1.24089e-07
2.65154e-05
1.1953e-07
2.64409e-05
1.15307e-07
2.63686e-05
1.11193e-07
2.62985e-05
1.07186e-07
2.62305e-05
1.03365e-07
2.61645e-05
9.97567e-08
2.61004e-05
9.6309e-08
2.60383e-05
9.30228e-08
2.59779e-05
8.99009e-08
2.59193e-05
8.69258e-08
2.58624e-05
8.41092e-08
2.58071e-05
8.14635e-08
2.57533e-05
7.89877e-08
2.57009e-05
7.67181e-08
2.565e-05
7.45584e-08
2.56003e-05
7.25017e-08
2.5552e-05
7.06361e-08
2.55048e-05
6.89422e-08
2.54588e-05
6.72764e-08
2.54139e-05
6.56357e-08
2.53702e-05
6.39363e-08
2.53277e-05
6.21175e-08
2.52864e-05
6.04127e-08
2.52461e-05
5.89191e-08
2.52069e-05
5.74624e-08
2.51687e-05
5.60678e-08
2.51314e-05
5.46856e-08
2.50952e-05
5.33103e-08
2.506e-05
5.19294e-08
2.50257e-05
5.0544e-08
2.49925e-05
4.91845e-08
2.49603e-05
4.78651e-08
2.4929e-05
4.66492e-08
2.48984e-05
4.57237e-08
2.48685e-05
4.50064e-08
2.48393e-05
4.40719e-08
2.48107e-05
4.31132e-08
2.47827e-05
4.22226e-08
2.47551e-05
4.15088e-08
2.47278e-05
4.09521e-08
2.47007e-05
4.02724e-08
2.4674e-05
3.94754e-08
2.46477e-05
3.89246e-08
2.46215e-05
3.86405e-08
2.45954e-05
3.84207e-08
2.45694e-05
3.82666e-08
2.45435e-05
3.81777e-08
2.45177e-05
3.81486e-08
2.44919e-05
3.81784e-08
2.44661e-05
3.82625e-08
2.44403e-05
3.83912e-08
2.44144e-05
3.85478e-08
2.43886e-05
3.87266e-08
2.43627e-05
3.89099e-08
2.43367e-05
3.91058e-08
2.43107e-05
3.93038e-08
2.42848e-05
3.9399e-08
2.42587e-05
3.97362e-08
2.42325e-05
4.02133e-08
2.42063e-05
4.03926e-08
2.41801e-05
4.05281e-08
2.41539e-05
4.07391e-08
2.41276e-05
4.09455e-08
2.41014e-05
4.11654e-08
2.40752e-05
4.13905e-08
2.40489e-05
4.16158e-08
2.40226e-05
4.18306e-08
2.39962e-05
4.20245e-08
2.39699e-05
4.21871e-08
2.39436e-05
4.23127e-08
2.39174e-05
4.23988e-08
2.38912e-05
4.24529e-08
2.38651e-05
4.24848e-08
2.38391e-05
4.2508e-08
2.38132e-05
4.2532e-08
2.37874e-05
4.25634e-08
2.37617e-05
4.26018e-08
2.3736e-05
4.26466e-08
2.37104e-05
4.26947e-08
2.36848e-05
4.27452e-08
2.36593e-05
4.27967e-08
2.36339e-05
4.28494e-08
2.36085e-05
4.29009e-08
2.35832e-05
4.29488e-08
2.3558e-05
4.29902e-08
2.35328e-05
4.30198e-08
2.35076e-05
4.30369e-08
2.34825e-05
4.30375e-08
2.34576e-05
4.30215e-08
2.34327e-05
4.29832e-08
2.34079e-05
4.29217e-08
2.33831e-05
4.28342e-08
2.33586e-05
4.27191e-08
2.33341e-05
4.25724e-08
2.33098e-05
4.23877e-08
2.32856e-05
4.21592e-08
2.32616e-05
4.18834e-08
2.32379e-05
4.15617e-08
2.32143e-05
4.11971e-08
2.3191e-05
4.07984e-08
2.31679e-05
4.03729e-08
2.31452e-05
3.99277e-08
2.31227e-05
3.94672e-08
2.31004e-05
3.89951e-08
2.30785e-05
3.8514e-08
2.30568e-05
3.80247e-08
2.30354e-05
3.75258e-08
2.30143e-05
3.70203e-08
2.29935e-05
3.65103e-08
2.2973e-05
3.60005e-08
2.29528e-05
3.54924e-08
2.29328e-05
3.49881e-08
2.29132e-05
3.44862e-08
2.28938e-05
3.39853e-08
2.28747e-05
3.34829e-08
2.28559e-05
3.298e-08
2.28373e-05
3.24798e-08
2.2819e-05
3.19854e-08
2.28011e-05
3.14995e-08
2.27833e-05
3.10195e-08
2.27659e-05
3.05449e-08
2.27487e-05
3.00736e-08
2.27318e-05
2.96036e-08
2.27151e-05
2.91357e-08
2.26987e-05
2.86647e-08
2.26825e-05
2.81975e-08
2.26666e-05
2.77294e-08
2.26509e-05
2.72718e-08
2.26355e-05
2.68243e-08
2.26203e-05
2.639e-08
2.26054e-05
2.59657e-08
2.25906e-05
2.55502e-08
2.25761e-05
2.51426e-08
2.25618e-05
2.47436e-08
2.25477e-05
2.43592e-08
2.25338e-05
2.39824e-08
2.25201e-05
2.36212e-08
2.25065e-05
2.327e-08
2.24932e-05
2.29292e-08
2.248e-05
2.2591e-08
2.2467e-05
2.22526e-08
2.24541e-05
2.1913e-08
2.24414e-05
2.15692e-08
2.24289e-05
2.12168e-08
2.24166e-05
2.08542e-08
2.24044e-05
2.04807e-08
2.23925e-05
2.00996e-08
2.23807e-05
1.97109e-08
2.23691e-05
1.93197e-08
2.23577e-05
1.89261e-08
2.23465e-05
1.85349e-08
2.23355e-05
1.8151e-08
2.23247e-05
1.77825e-08
2.2314e-05
1.74308e-08
2.23035e-05
1.70994e-08
2.22931e-05
1.67848e-08
2.22829e-05
1.64888e-08
2.22728e-05
1.62118e-08
2.22628e-05
1.59605e-08
2.2253e-05
1.57363e-08
2.22432e-05
1.55455e-08
2.22335e-05
1.53861e-08
2.22238e-05
1.52624e-08
2.22142e-05
1.5169e-08
2.22046e-05
1.5108e-08
2.2195e-05
1.50752e-08
2.21854e-05
1.50694e-08
2.21758e-05
1.51249e-08
2.21663e-05
1.52151e-08
2.21567e-05
1.53196e-08
2.21471e-05
1.54233e-08
2.21376e-05
1.5511e-08
2.2128e-05
1.5571e-08
2.21185e-05
1.55961e-08
2.2109e-05
1.55873e-08
2.20996e-05
1.55461e-08
2.20903e-05
1.5491e-08
2.2081e-05
1.53964e-08
2.20718e-05
1.53219e-08
2.20628e-05
1.51634e-08
2.20538e-05
1.4924e-08
2.2045e-05
1.46357e-08
2.20364e-05
1.42972e-08
2.2028e-05
1.39803e-08
2.20198e-05
1.35778e-08
2.20117e-05
1.32659e-08
2.20038e-05
1.30991e-08
2.1996e-05
1.29718e-08
2.19883e-05
1.28446e-08
2.19806e-05
1.26833e-08
2.19731e-05
1.25422e-08
2.19657e-05
1.242e-08
2.19583e-05
1.22987e-08
2.1951e-05
1.21789e-08
2.19438e-05
1.20672e-08
2.19367e-05
1.19761e-08
2.19296e-05
1.19144e-08
2.19226e-05
1.18857e-08
2.19155e-05
1.18851e-08
2.19085e-05
1.19011e-08
2.19015e-05
1.19195e-08
2.18945e-05
1.19323e-08
2.18875e-05
1.19359e-08
2.18805e-05
1.19334e-08
2.18735e-05
1.193e-08
2.18666e-05
1.19305e-08
2.18596e-05
1.19338e-08
2.18527e-05
1.19394e-08
2.18458e-05
1.19438e-08
2.18389e-05
1.19525e-08
2.1832e-05
1.19669e-08
2.18251e-05
1.19945e-08
2.18182e-05
1.20396e-08
2.18113e-05
1.21017e-08
2.18043e-05
1.21741e-08
2.17973e-05
1.2245e-08
2.17903e-05
1.23068e-08
2.17833e-05
1.23578e-08
2.17762e-05
1.24042e-08
2.17691e-05
1.24551e-08
2.1762e-05
1.2519e-08
2.17549e-05
1.25961e-08
2.17478e-05
1.26835e-08
2.17406e-05
1.27666e-08
2.17333e-05
1.28363e-08
2.17261e-05
1.28768e-08
2.17188e-05
1.28927e-08
2.17116e-05
1.288e-08
2.17044e-05
1.28491e-08
2.16972e-05
1.2799e-08
2.169e-05
1.27358e-08
2.16829e-05
1.26594e-08
2.16759e-05
1.25743e-08
2.16688e-05
1.24799e-08
2.16619e-05
1.23753e-08
2.1655e-05
1.22552e-08
2.16481e-05
1.21136e-08
2.16414e-05
1.1948e-08
2.16347e-05
1.17579e-08
2.16281e-05
1.15485e-08
2.16217e-05
1.13283e-08
2.16154e-05
1.11063e-08
2.16092e-05
1.08906e-08
2.16031e-05
1.06896e-08
2.15971e-05
1.05078e-08
2.15912e-05
1.03487e-08
2.15854e-05
1.02146e-08
2.15796e-05
1.01053e-08
2.15739e-05
1.00208e-08
2.15682e-05
9.95332e-09
2.15625e-05
9.89651e-09
2.15569e-05
9.83705e-09
2.15513e-05
9.76784e-09
2.15458e-05
9.68046e-09
2.15403e-05
9.57513e-09
2.15349e-05
9.45315e-09
2.15295e-05
9.31955e-09
2.15243e-05
9.17776e-09
2.15191e-05
9.03298e-09
2.1514e-05
8.88655e-09
2.1509e-05
8.7438e-09
2.1504e-05
8.60403e-09
2.14991e-05
8.47081e-09
2.14943e-05
8.33936e-09
2.14896e-05
8.21046e-09
2.14849e-05
8.0808e-09
2.14803e-05
7.94794e-09
2.14757e-05
7.81501e-09
2.14712e-05
7.68727e-09
2.14668e-05
7.57384e-09
2.14625e-05
7.47825e-09
2.14581e-05
7.40471e-09
2.14538e-05
7.35144e-09
2.14495e-05
7.31672e-09
2.14452e-05
7.29458e-09
2.1441e-05
7.2813e-09
2.14367e-05
7.27589e-09
2.14324e-05
7.28149e-09
2.14281e-05
7.30422e-09
2.14238e-05
7.34584e-09
2.14195e-05
7.40857e-09
2.14151e-05
7.4872e-09
2.14106e-05
7.57969e-09
2.14061e-05
7.67822e-09
2.14016e-05
7.78348e-09
2.1397e-05
7.89173e-09
2.13923e-05
8.00609e-09
2.13876e-05
8.125e-09
2.13828e-05
8.25089e-09
2.1378e-05
8.38279e-09
2.13731e-05
8.51971e-09
2.13681e-05
8.66121e-09
2.13631e-05
8.80703e-09
2.1358e-05
8.95909e-09
2.13528e-05
9.11883e-09
2.13475e-05
9.28388e-09
2.13422e-05
9.45162e-09
2.13367e-05
9.61377e-09
2.13312e-05
9.76596e-09
2.13256e-05
9.90153e-09
2.132e-05
1.0019e-08
2.13143e-05
1.0116e-08
2.13086e-05
1.01933e-08
2.13028e-05
1.02555e-08
2.12971e-05
1.03125e-08
2.12913e-05
1.03789e-08
2.12855e-05
1.04612e-08
2.12796e-05
1.05653e-08
2.12737e-05
1.06856e-08
2.12677e-05
1.08201e-08
2.12616e-05
1.09635e-08
2.12555e-05
1.11124e-08
2.12493e-05
1.12648e-08
2.1243e-05
1.1416e-08
2.12367e-05
1.15685e-08
2.12303e-05
1.17246e-08
2.12238e-05
1.18924e-08
2.12172e-05
1.2075e-08
2.12106e-05
1.22721e-08
2.12038e-05
1.24784e-08
2.11969e-05
1.26848e-08
2.119e-05
1.28878e-08
2.11829e-05
1.30821e-08
2.11758e-05
1.32701e-08
2.11686e-05
1.34456e-08
2.11613e-05
1.3608e-08
2.1154e-05
1.37453e-08
2.11466e-05
1.38553e-08
2.11391e-05
1.39376e-08
2.11317e-05
1.39994e-08
2.11242e-05
1.40505e-08
2.11167e-05
1.40964e-08
2.11092e-05
1.41396e-08
2.11017e-05
1.41734e-08
2.10941e-05
1.41937e-08
2.10866e-05
1.41986e-08
2.10791e-05
1.41887e-08
2.10715e-05
1.41673e-08
2.1064e-05
1.41355e-08
2.10566e-05
1.40983e-08
2.10491e-05
1.40608e-08
2.10417e-05
1.40307e-08
2.10343e-05
1.40137e-08
2.10268e-05
1.40117e-08
2.10194e-05
1.40219e-08
2.1012e-05
1.40435e-08
2.10045e-05
1.40748e-08
2.09971e-05
1.41189e-08
2.09896e-05
1.41731e-08
2.0982e-05
1.42427e-08
2.09744e-05
1.43209e-08
2.09668e-05
1.44112e-08
2.09592e-05
1.45055e-08
2.09515e-05
1.46116e-08
2.09437e-05
1.47265e-08
2.09359e-05
1.48609e-08
2.09279e-05
1.50114e-08
2.092e-05
1.51815e-08
2.09119e-05
1.53624e-08
2.09037e-05
1.55517e-08
2.08954e-05
1.57449e-08
2.0887e-05
1.59421e-08
2.08785e-05
1.61378e-08
2.087e-05
1.63282e-08
2.08613e-05
1.65065e-08
2.08525e-05
1.66707e-08
2.08437e-05
1.68207e-08
2.08348e-05
1.69566e-08
2.08258e-05
1.70785e-08
2.08168e-05
1.71833e-08
2.08077e-05
1.72694e-08
2.07986e-05
1.73327e-08
2.07894e-05
1.73737e-08
2.07803e-05
1.73833e-08
2.07711e-05
1.73586e-08
2.0762e-05
1.72862e-08
2.0753e-05
1.71712e-08
2.0744e-05
1.70144e-08
2.07351e-05
1.68324e-08
2.07263e-05
1.66372e-08
2.07176e-05
1.64344e-08
2.0709e-05
1.62255e-08
2.07005e-05
1.60046e-08
2.06921e-05
1.57697e-08
2.06838e-05
1.55143e-08
2.06757e-05
1.52391e-08
2.06677e-05
1.49429e-08
2.06598e-05
1.46353e-08
2.06521e-05
1.43233e-08
2.06446e-05
1.40246e-08
2.06372e-05
1.37466e-08
2.06299e-05
1.34993e-08
2.06228e-05
1.32844e-08
2.06157e-05
1.31052e-08
2.06087e-05
1.29636e-08
2.06018e-05
1.28522e-08
2.05949e-05
1.27659e-08
2.0588e-05
1.26913e-08
2.05811e-05
1.2624e-08
2.05743e-05
1.2556e-08
2.05675e-05
1.24838e-08
2.05608e-05
1.24083e-08
2.05541e-05
1.23314e-08
2.05474e-05
1.22631e-08
2.05408e-05
1.22015e-08
2.05342e-05
1.2153e-08
2.05276e-05
1.21117e-08
2.05211e-05
1.20755e-08
2.05145e-05
1.20248e-08
2.0508e-05
1.19451e-08
2.05016e-05
1.18244e-08
2.04952e-05
1.16625e-08
2.04889e-05
1.14694e-08
2.04827e-05
1.12723e-08
2.04767e-05
1.10886e-08
2.04707e-05
1.09379e-08
2.04647e-05
1.08135e-08
2.04589e-05
1.07185e-08
2.0453e-05
1.06361e-08
2.04472e-05
1.05686e-08
2.04414e-05
1.05024e-08
2.04357e-05
1.04502e-08
2.043e-05
1.04056e-08
2.04242e-05
1.03826e-08
2.04185e-05
1.03601e-08
2.04128e-05
1.03453e-08
2.04072e-05
1.03053e-08
2.04015e-05
1.02575e-08
2.03959e-05
1.0173e-08
2.03904e-05
1.00945e-08
2.03849e-05
9.98551e-09
2.03794e-05
9.89619e-09
2.0374e-05
9.78204e-09
2.03687e-05
9.70853e-09
2.03634e-05
9.61654e-09
2.03581e-05
9.5783e-09
2.03529e-05
9.52321e-09
2.03476e-05
9.52929e-09
2.03423e-05
9.50667e-09
2.0337e-05
9.5361e-09
2.03316e-05
9.51204e-09
2.03263e-05
9.53237e-09
2.0321e-05
9.49143e-09
2.03157e-05
9.51137e-09
2.03104e-05
9.48548e-09
2.03051e-05
9.56091e-09
2.02997e-05
9.61913e-09
2.02943e-05
9.81075e-09
2.02888e-05
9.98746e-09
2.02832e-05
1.02799e-08
2.02774e-05
1.05173e-08
2.02714e-05
1.08204e-08
2.02654e-05
1.10252e-08
2.02593e-05
1.12575e-08
2.02531e-05
1.1404e-08
2.02468e-05
1.15879e-08
2.02404e-05
1.17663e-08
2.0234e-05
1.19881e-08
2.02274e-05
1.22727e-08
2.02206e-05
1.25178e-08
2.02137e-05
1.28747e-08
2.02067e-05
1.30933e-08
2.01995e-05
1.35561e-08
2.01922e-05
1.38719e-08
2.01845e-05
1.46155e-08
2.01766e-05
1.5263e-08
2.01681e-05
1.64457e-08
2.01589e-05
1.79412e-08
2.01489e-05
1.96737e-08
2.01374e-05
2.29839e-08
2.01243e-05
2.66755e-08
2.01083e-05
3.2946e-08
2.00887e-05
4.12041e-08
2.00636e-05
5.34048e-08
2.00308e-05
7.08821e-08
1.99861e-05
9.58338e-08
1.99266e-05
1.29428e-07
1.98357e-05
1.90942e-07
1.97263e-05
2.34891e-07
1.95195e-05
4.67425e-07
1.92122e-05
7.54017e-07
1.87704e-05
9.75589e-07
1.81558e-05
1.32704e-06
1.73187e-05
1.8264e-06
1.61226e-05
2.61127e-06
1.43359e-05
3.58569e-06
1.18854e-05
4.81543e-06
8.3914e-06
7.13098e-06
3.87366e-06
7.77686e-06
2.77323e-07
5.51781e-06
-1.66405e-06
3.6987e-06
-4.49529e-06
3.77846e-05
1.03358e-06
3.75106e-05
1.15381e-06
3.70533e-05
1.64914e-06
3.66225e-05
1.60154e-06
3.61948e-05
1.62682e-06
3.58311e-05
1.46324e-06
3.55165e-05
1.37706e-06
3.5256e-05
1.23379e-06
3.50413e-05
1.13904e-06
3.48567e-05
1.01561e-06
3.47073e-05
9.42835e-07
3.45763e-05
8.7613e-07
3.44539e-05
8.42798e-07
3.43465e-05
7.9844e-07
3.42541e-05
7.66573e-07
3.41752e-05
7.32037e-07
3.40995e-05
7.1788e-07
3.40259e-05
7.01627e-07
3.39527e-05
6.85494e-07
3.38792e-05
6.68341e-07
3.38038e-05
6.52931e-07
3.37266e-05
6.38358e-07
3.36469e-05
6.24213e-07
3.35643e-05
6.09646e-07
3.34781e-05
5.94855e-07
3.33881e-05
5.801e-07
3.32939e-05
5.65757e-07
3.31934e-05
5.53371e-07
3.30868e-05
5.41139e-07
3.29766e-05
5.27599e-07
3.28633e-05
5.14028e-07
3.27473e-05
4.99926e-07
3.26289e-05
4.86011e-07
3.25082e-05
4.7287e-07
3.23852e-05
4.60262e-07
3.22604e-05
4.47644e-07
3.21343e-05
4.34986e-07
3.20071e-05
4.22526e-07
3.18793e-05
4.10179e-07
3.17511e-05
3.97943e-07
3.16232e-05
3.85278e-07
3.14958e-05
3.72821e-07
3.13691e-05
3.61083e-07
3.12434e-05
3.49584e-07
3.11189e-05
3.38322e-07
3.09959e-05
3.27266e-07
3.08748e-05
3.16715e-07
3.07557e-05
3.06448e-07
3.06388e-05
2.96515e-07
3.0524e-05
2.86794e-07
3.04115e-05
2.77336e-07
3.03014e-05
2.68199e-07
3.01935e-05
2.59415e-07
3.0088e-05
2.50955e-07
2.99849e-05
2.42867e-07
2.98841e-05
2.35172e-07
2.97856e-05
2.27565e-07
2.96896e-05
2.20117e-07
2.95958e-05
2.13314e-07
2.95042e-05
2.06929e-07
2.94146e-05
2.00738e-07
2.93268e-05
1.94956e-07
2.92409e-05
1.89322e-07
2.91567e-05
1.83909e-07
2.90744e-05
1.7862e-07
2.8994e-05
1.73466e-07
2.89154e-05
1.68465e-07
2.88387e-05
1.63607e-07
2.87639e-05
1.58919e-07
2.8691e-05
1.5443e-07
2.86198e-05
1.50135e-07
2.85504e-05
1.46109e-07
2.84828e-05
1.42214e-07
2.84168e-05
1.38425e-07
2.83526e-05
1.34906e-07
2.82899e-05
1.3166e-07
2.82287e-05
1.28464e-07
2.8169e-05
1.25316e-07
2.81108e-05
1.22096e-07
2.80543e-05
1.18677e-07
2.79993e-05
1.15423e-07
2.79456e-05
1.12556e-07
2.78933e-05
1.09765e-07
2.78423e-05
1.07096e-07
2.77925e-05
1.04465e-07
2.77439e-05
1.01876e-07
2.76966e-05
9.92827e-08
2.76504e-05
9.67203e-08
2.76054e-05
9.41881e-08
2.75615e-05
9.17751e-08
2.75187e-05
8.95003e-08
2.74767e-05
8.77214e-08
2.74354e-05
8.63055e-08
2.73947e-05
8.47029e-08
2.73544e-05
8.34322e-08
2.73144e-05
8.22715e-08
2.72746e-05
8.12376e-08
2.72353e-05
8.0324e-08
2.71963e-05
7.92237e-08
2.71579e-05
7.78999e-08
2.71199e-05
7.69107e-08
2.70822e-05
7.63273e-08
2.70448e-05
7.58378e-08
2.70076e-05
7.54456e-08
2.69706e-05
7.51495e-08
2.69339e-05
7.49338e-08
2.68972e-05
7.48006e-08
2.68608e-05
7.47396e-08
2.68244e-05
7.47389e-08
2.67882e-05
7.477e-08
2.67521e-05
7.48256e-08
2.67161e-05
7.48785e-08
2.66803e-05
7.49346e-08
2.66446e-05
7.5012e-08
2.66091e-05
7.48744e-08
2.65738e-05
7.5085e-08
2.65384e-05
7.55923e-08
2.65032e-05
7.56063e-08
2.64682e-05
7.55017e-08
2.64334e-05
7.55254e-08
2.63988e-05
7.55378e-08
2.63644e-05
7.55701e-08
2.63302e-05
7.56161e-08
2.62961e-05
7.567e-08
2.62622e-05
7.5717e-08
2.62285e-05
7.57398e-08
2.6195e-05