/*--------------------------------*- C++ -*----------------------------------*\
| =========                 |                                                 |
| \\      /  F ield         | foam-extend: Open Source CFD                    |
|  \\    /   O peration     | Version:     3.2                                |
|   \\  /    A nd           | Web:         http://www.foam-extend.org         |
|    \\/     M anipulation  | For copyright notice see file Copyright         |
\*---------------------------------------------------------------------------*/
FoamFile
{
    version     2.0;
    format      ascii;
    class       areaScalarField;
    location    "120";
    object      thetaSS2init;
}
// * * * * * * * * * * * * * * * * * * * * * * * * * * * * * * * * * * * * * //

dimensions      [0 0 0 0 0 0 0];

internalField   nonuniform List<scalar> 
550
(
0.514727
0.710264
0.947652
1.22437
1.53371
1.86484
2.2054
2.54128
2.86044
3.15155
3.40745
3.62316
3.79753
3.93106
4.02649
4.08732
4.11812
4.12356
4.10839
4.07825
4.03632
3.98538
3.92778
3.86559
3.80066
3.73452
3.66845
3.60365
3.54102
3.48063
3.42257
3.36705
3.31421
3.26412
3.21677
3.17213
3.13013
3.09068
3.05368
3.01902
2.98659
2.95626
2.92793
2.90145
2.87671
2.85361
2.83203
2.8119
2.7931
2.77556
2.75919
2.7439
2.72961
2.71623
2.70368
2.6919
2.6808
2.67033
2.66042
2.65104
2.64212
2.63363
2.62554
2.61781
2.61042
2.60334
2.59654
2.59
2.58371
2.57764
2.57177
2.5661
2.56059
2.55522
2.54998
2.54485
2.53982
2.53488
2.53002
2.52524
2.52054
2.51592
2.51137
2.50689
2.50247
2.49811
2.49381
2.48955
2.48533
2.48116
2.47703
2.47295
2.46889
2.46486
2.46086
2.45689
2.45293
2.44901
2.44511
2.44124
2.43739
2.43356
2.42975
2.42593
2.42211
2.41828
2.41443
2.41055
2.40664
2.4027
2.39873
2.39471
2.39066
2.38658
2.38245
2.3783
2.37411
2.36989
2.36563
2.36134
2.35701
2.35265
2.34826
2.34384
2.33939
2.33491
2.33039
2.32586
2.32129
2.31671
2.31211
2.3075
2.30287
2.29823
2.29358
2.28892
2.28427
2.27961
2.27496
2.27031
2.26568
2.26105
2.25643
2.25183
2.24725
2.24268
2.23814
2.23361
2.22911
2.22464
2.22019
2.21578
2.21139
2.20705
2.20273
2.19846
2.19423
2.19004
2.1859
2.1818
2.17775
2.17376
2.16981
2.16591
2.16207
2.15828
2.15455
2.15087
2.14725
2.14369
2.14019
2.13674
2.13335
2.13002
2.12675
2.12353
2.12037
2.11727
2.11423
2.11125
2.10833
2.10546
2.10265
2.0999
2.09721
2.09458
2.092
2.08948
2.08701
2.08459
2.08222
2.07991
2.07764
2.07542
2.07324
2.07111
2.06903
2.06698
2.06498
2.06302
2.06109
2.05921
2.05736
2.05555
2.05378
2.05205
2.05035
2.04869
2.04706
2.04546
2.04389
2.04236
2.04085
2.03937
2.03792
2.03649
2.03508
2.03369
2.03232
2.03097
2.02963
2.0283
2.02699
2.02569
2.0244
2.0231
2.02179
2.02047
2.01913
2.01779
2.01643
2.01506
2.01368
2.0123
2.01091
2.00951
2.00811
2.00671
2.0053
2.0039
2.00249
2.00108
1.99967
1.99826
1.99686
1.99545
1.99405
1.99266
1.99127
1.98988
1.9885
1.98712
1.98576
1.9844
1.98305
1.98171
1.98038
1.97906
1.97775
1.97646
1.97517
1.9739
1.97263
1.97138
1.97014
1.96891
1.96769
1.96648
1.96529
1.9641
1.96293
1.96177
1.96062
1.95947
1.95835
1.95723
1.95613
1.95504
1.95396
1.95291
1.95187
1.95085
1.94985
1.94886
1.9479
1.94695
1.94602
1.94511
1.94422
1.94335
1.9425
1.94167
1.94086
1.94007
1.93931
1.93856
1.93783
1.93713
1.93643
1.93576
1.9351
1.93445
1.93382
1.93319
1.93258
1.93198
1.93139
1.93081
1.93023
1.92965
1.92907
1.92848
1.92789
1.92729
1.92668
1.92607
1.92544
1.9248
1.92415
1.92348
1.92281
1.92212
1.92142
1.9207
1.91998
1.91924
1.91849
1.91772
1.91695
1.91617
1.91538
1.91458
1.91377
1.91295
1.91211
1.91126
1.91038
1.90949
1.90858
1.90764
1.90668
1.90569
1.90467
1.90363
1.90255
1.90145
1.90032
1.89916
1.89797
1.89675
1.89551
1.89424
1.89294
1.89163
1.89029
1.88893
1.88756
1.88616
1.88475
1.88333
1.88188
1.88042
1.87895
1.87746
1.87596
1.87445
1.87293
1.87139
1.86985
1.8683
1.86674
1.86518
1.86361
1.86203
1.86046
1.85888
1.85731
1.85573
1.85416
1.85259
1.85102
1.84946
1.84791
1.84636
1.84483
1.8433
1.84178
1.84027
1.83878
1.8373
1.83583
1.83438
1.83295
1.83152
1.83011
1.82872
1.82733
1.82596
1.82459
1.82324
1.82189
1.82056
1.81923
1.81791
1.8166
1.81529
1.81399
1.81271
1.81142
1.81015
1.80888
1.80761
1.80635
1.8051
1.80385
1.80261
1.80138
1.80016
1.79894
1.79773
1.79654
1.79535
1.79417
1.793
1.79183
1.79068
1.78954
1.7884
1.78728
1.78616
1.78505
1.78394
1.78284
1.78175
1.78065
1.77957
1.77848
1.7774
1.77632
1.77524
1.77417
1.7731
1.77203
1.77096
1.76989
1.76882
1.76774
1.76666
1.76558
1.76448
1.76338
1.76226
1.76113
1.76
1.75885
1.75769
1.75653
1.75535
1.75417
1.75299
1.75179
1.7506
1.7494
1.7482
1.747
1.74579
1.74459
1.74339
1.74219
1.74097
1.73976
1.73853
1.73729
1.73604
1.73477
1.73349
1.7322
1.73089
1.72956
1.72822
1.72687
1.72551
1.72413
1.72275
1.72136
1.71996
1.71855
1.71713
1.71571
1.71428
1.71285
1.71142
1.70998
1.70853
1.70708
1.70562
1.70414
1.70265
1.70114
1.69961
1.69807
1.69651
1.69493
1.69334
1.69173
1.6901
1.68847
1.68683
1.68518
1.68354
1.6819
1.68026
1.67862
1.67699
1.67536
1.67373
1.6721
1.67049
1.66886
1.66724
1.66561
1.66398
1.66232
1.66066
1.65895
1.65721
1.65539
1.65353
1.65148
1.64933
1.64679
1.64397
1.64034
1.63608
1.63014
1.62277
1.6119
1.59787
1.57658
1.54802
1.50469
1.44514
1.35685
1.23774
1.07531
0.862229
0.536649
0.254925
0.294074
0.516155
)
;

boundaryField
{
    inlet
    {
        type            calculated;
        value           uniform 0;
    }
    endWall
    {
        type            calculated;
        value           uniform 0;
    }
    sideWall
    {
        type            empty;
    }
}


// ************************************************************************* //
