/*--------------------------------*- C++ -*----------------------------------*\
| =========                 |                                                 |
| \\      /  F ield         | foam-extend: Open Source CFD                    |
|  \\    /   O peration     | Version:     3.2                                |
|   \\  /    A nd           | Web:         http://www.foam-extend.org         |
|    \\/     M anipulation  | For copyright notice see file Copyright         |
\*---------------------------------------------------------------------------*/
FoamFile
{
    version     2.0;
    format      ascii;
    class       areaVectorField;
    location    "120";
    object      uNormal;
}
// * * * * * * * * * * * * * * * * * * * * * * * * * * * * * * * * * * * * * //

dimensions      [0 0 0 0 0 0 0];

internalField   nonuniform List<vector> 
550
(
(0.002 0 0.999998)
(0.002 0 0.999998)
(0.002 0 0.999998)
(0.002 0 0.999998)
(0.002 7.27917e-20 0.999998)
(0.002 0 0.999998)
(0.002 0 0.999998)
(0.002 0 0.999998)
(0.002 7.27917e-20 0.999998)
(0.002 0 0.999998)
(0.002 0 0.999998)
(0.002 0 0.999998)
(0.002 7.27917e-20 0.999998)
(0.002 0 0.999998)
(0.002 0 0.999998)
(0.002 7.27917e-20 0.999998)
(0.002 -7.27917e-20 0.999998)
(0.002 7.27917e-20 0.999998)
(0.002 7.27917e-20 0.999998)
(0.002 0 0.999998)
(0.002 7.27917e-20 0.999998)
(0.002 -7.27917e-20 0.999998)
(0.002 0 0.999998)
(0.002 7.27917e-20 0.999998)
(0.002 0 0.999998)
(0.002 0 0.999998)
(0.002 7.27917e-20 0.999998)
(0.002 0 0.999998)
(0.002 0 0.999998)
(0.002 0 0.999998)
(0.002 0 0.999998)
(0.002 0 0.999998)
(0.002 0 0.999998)
(0.002 0 0.999998)
(0.002 0 0.999998)
(0.002 0 0.999998)
(0.002 0 0.999998)
(0.002 0 0.999998)
(0.002 7.27917e-20 0.999998)
(0.002 0 0.999998)
(0.002 0 0.999998)
(0.002 0 0.999998)
(0.002 0 0.999998)
(0.002 0 0.999998)
(0.002 0 0.999998)
(0.002 0 0.999998)
(0.002 0 0.999998)
(0.002 0 0.999998)
(0.002 0 0.999998)
(0.002 0 0.999998)
(0.002 0 0.999998)
(0.002 0 0.999998)
(0.002 0 0.999998)
(0.002 0 0.999998)
(0.002 0 0.999998)
(0.002 -7.27917e-20 0.999998)
(0.002 -7.27917e-20 0.999998)
(0.002 7.27917e-20 0.999998)
(0.002 0 0.999998)
(0.002 0 0.999998)
(0.002 -7.27917e-20 0.999998)
(0.002 -7.27917e-20 0.999998)
(0.002 -7.27917e-20 0.999998)
(0.002 0 0.999998)
(0.002 0 0.999998)
(0.002 -7.27917e-20 0.999998)
(0.002 0 0.999998)
(0.002 0 0.999998)
(0.002 0 0.999998)
(0.002 0 0.999998)
(0.002 -7.27917e-20 0.999998)
(0.002 -7.27917e-20 0.999998)
(0.002 0 0.999998)
(0.002 0 0.999998)
(0.002 0 0.999998)
(0.002 -7.27917e-20 0.999998)
(0.002 0 0.999998)
(0.002 0 0.999998)
(0.002 -7.27917e-20 0.999998)
(0.002 7.27917e-20 0.999998)
(0.002 0 0.999998)
(0.002 0 0.999998)
(0.002 0 0.999998)
(0.002 0 0.999998)
(0.002 -7.27917e-20 0.999998)
(0.002 0 0.999998)
(0.002 0 0.999998)
(0.002 0 0.999998)
(0.002 -7.27917e-20 0.999998)
(0.002 -7.27917e-20 0.999998)
(0.002 0 0.999998)
(0.002 0 0.999998)
(0.002 -7.27917e-20 0.999998)
(0.002 0 0.999998)
(0.002 -7.27917e-20 0.999998)
(0.002 0 0.999998)
(0.002 0 0.999998)
(0.002 0 0.999998)
(0.002 -7.27917e-20 0.999998)
(0.002 0 0.999998)
(0.002 0 0.999998)
(0.002 7.27917e-20 0.999998)
(0.002 0 0.999998)
(0.002 0 0.999998)
(0.002 0 0.999998)
(0.002 0 0.999998)
(0.002 -7.27917e-20 0.999998)
(0.002 7.27917e-20 0.999998)
(0.002 -7.27917e-20 0.999998)
(0.002 0 0.999998)
(0.002 -7.27917e-20 0.999998)
(0.002 -7.27917e-20 0.999998)
(0.002 7.27917e-20 0.999998)
(0.002 7.27917e-20 0.999998)
(0.002 -7.27917e-20 0.999998)
(0.002 -7.27917e-20 0.999998)
(0.002 -7.27917e-20 0.999998)
(0.002 0 0.999998)
(0.002 0 0.999998)
(0.002 0 0.999998)
(0.002 -7.27917e-20 0.999998)
(0.002 7.27917e-20 0.999998)
(0.002 -7.27917e-20 0.999998)
(0.002 7.27917e-20 0.999998)
(0.002 -7.27917e-20 0.999998)
(0.002 -7.27917e-20 0.999998)
(0.002 -7.27917e-20 0.999998)
(0.002 -7.27917e-20 0.999998)
(0.002 -7.27917e-20 0.999998)
(0.002 7.27917e-20 0.999998)
(0.002 -7.27917e-20 0.999998)
(0.002 7.27917e-20 0.999998)
(0.002 -7.27917e-20 0.999998)
(0.002 -7.27917e-20 0.999998)
(0.002 7.27917e-20 0.999998)
(0.002 -7.27917e-20 0.999998)
(0.002 -7.27917e-20 0.999998)
(0.002 0 0.999998)
(0.002 -7.27917e-20 0.999998)
(0.002 -7.27917e-20 0.999998)
(0.002 7.27917e-20 0.999998)
(0.002 -7.27917e-20 0.999998)
(0.002 7.27917e-20 0.999998)
(0.002 -7.27917e-20 0.999998)
(0.002 -7.27917e-20 0.999998)
(0.002 7.27917e-20 0.999998)
(0.002 -7.27917e-20 0.999998)
(0.002 -7.27917e-20 0.999998)
(0.002 -7.27917e-20 0.999998)
(0.002 -7.27917e-20 0.999998)
(0.002 7.27917e-20 0.999998)
(0.002 7.27917e-20 0.999998)
(0.002 -7.27917e-20 0.999998)
(0.002 -7.27917e-20 0.999998)
(0.002 -7.27917e-20 0.999998)
(0.002 0 0.999998)
(0.002 0 0.999998)
(0.002 7.27917e-20 0.999998)
(0.002 -7.27917e-20 0.999998)
(0.002 7.27917e-20 0.999998)
(0.002 0 0.999998)
(0.002 7.27917e-20 0.999998)
(0.002 7.27917e-20 0.999998)
(0.002 -7.27917e-20 0.999998)
(0.002 -7.27917e-20 0.999998)
(0.002 -7.27917e-20 0.999998)
(0.002 -7.27917e-20 0.999998)
(0.002 7.27917e-20 0.999998)
(0.002 -7.27917e-20 0.999998)
(0.002 -7.27917e-20 0.999998)
(0.002 -7.27917e-20 0.999998)
(0.002 -7.27917e-20 0.999998)
(0.002 0 0.999998)
(0.002 0 0.999998)
(0.002 0 0.999998)
(0.002 -7.27917e-20 0.999998)
(0.002 7.27917e-20 0.999998)
(0.002 0 0.999998)
(0.002 7.27917e-20 0.999998)
(0.002 -7.27917e-20 0.999998)
(0.002 -7.27917e-20 0.999998)
(0.002 -7.27917e-20 0.999998)
(0.002 -7.27917e-20 0.999998)
(0.002 -7.27917e-20 0.999998)
(0.002 7.27917e-20 0.999998)
(0.002 -7.27917e-20 0.999998)
(0.002 7.27917e-20 0.999998)
(0.002 -7.27917e-20 0.999998)
(0.002 -7.27917e-20 0.999998)
(0.002 7.27917e-20 0.999998)
(0.002 -7.27917e-20 0.999998)
(0.002 -7.27917e-20 0.999998)
(0.002 0 0.999998)
(0.002 -7.27917e-20 0.999998)
(0.002 -7.27917e-20 0.999998)
(0.002 7.27917e-20 0.999998)
(0.002 -7.27917e-20 0.999998)
(0.002 7.27917e-20 0.999998)
(0.002 -7.27917e-20 0.999998)
(0.002 -7.27917e-20 0.999998)
(0.002 7.27917e-20 0.999998)
(0.002 -7.27917e-20 0.999998)
(0.002 -7.27917e-20 0.999998)
(0.002 7.27917e-20 0.999998)
(0.002 -7.27917e-20 0.999998)
(0.002 7.27917e-20 0.999998)
(0.002 7.27917e-20 0.999998)
(0.002 -7.27917e-20 0.999998)
(0.002 -7.27917e-20 0.999998)
(0.002 -7.27917e-20 0.999998)
(0.002 0 0.999998)
(0.002 0 0.999998)
(0.002 7.27917e-20 0.999998)
(0.002 -7.27917e-20 0.999998)
(0.002 7.27917e-20 0.999998)
(0.002 0 0.999998)
(0.002 -7.27917e-20 0.999998)
(0.002 7.27917e-20 0.999998)
(0.002 0 0.999998)
(0.002 -7.27917e-20 0.999998)
(0.002 0 0.999998)
(0.002 0 0.999998)
(0.002 0 0.999998)
(0.002 0 0.999998)
(0.002 0 0.999998)
(0.002 0 0.999998)
(0.002 0 0.999998)
(0.002 0 0.999998)
(0.002 0 0.999998)
(0.002 0 0.999998)
(0.002 0 0.999998)
(0.002 0 0.999998)
(0.002 0 0.999998)
(0.002 0 0.999998)
(0.00200004 0 0.999998)
(0.00200022 0 0.999998)
(0.00199948 0 0.999998)
(0.00199929 7.27917e-20 0.999998)
(0.00199467 0 0.999998)
(0.00198705 0 0.999998)
(0.0019802 0 0.999998)
(0.0019722 0 0.999998)
(0.00196506 -7.27918e-20 0.999998)
(0.00195631 0 0.999998)
(0.00195402 0 0.999998)
(0.00195737 0 0.999998)
(0.00195682 -7.27918e-20 0.999998)
(0.00195556 0 0.999998)
(0.00195522 7.27918e-20 0.999998)
(0.00195516 7.27918e-20 0.999998)
(0.00195525 0 0.999998)
(0.00195509 7.27918e-20 0.999998)
(0.00195486 0 0.999998)
(0.00195462 0 0.999998)
(0.00195439 0 0.999998)
(0.00195417 0 0.999998)
(0.00195398 0 0.999998)
(0.0019538 0 0.999998)
(0.00195365 7.27918e-20 0.999998)
(0.00195353 0 0.999998)
(0.00195343 0 0.999998)
(0.00195336 0 0.999998)
(0.00195332 0 0.999998)
(0.00195331 0 0.999998)
(0.00195334 0 0.999998)
(0.0019534 0 0.999998)
(0.00195348 0 0.999998)
(0.0019536 0 0.999998)
(0.00195375 0 0.999998)
(0.00195392 0 0.999998)
(0.00195413 -7.27918e-20 0.999998)
(0.00195436 0 0.999998)
(0.00195461 0 0.999998)
(0.0019549 0 0.999998)
(0.00195522 0 0.999998)
(0.00195556 0 0.999998)
(0.00195593 -7.27918e-20 0.999998)
(0.00195633 0 0.999998)
(0.00195676 -7.27918e-20 0.999998)
(0.00195722 0 0.999998)
(0.00195771 -7.27918e-20 0.999998)
(0.00195822 0 0.999998)
(0.00195875 0 0.999998)
(0.00195931 0 0.999998)
(0.00195988 0 0.999998)
(0.00196048 0 0.999998)
(0.0019611 0 0.999998)
(0.00196174 0 0.999998)
(0.0019624 -7.27918e-20 0.999998)
(0.00196309 0 0.999998)
(0.00196382 -7.27918e-20 0.999998)
(0.00196459 7.27918e-20 0.999998)
(0.00196541 0 0.999998)
(0.00196629 0 0.999998)
(0.00196723 0 0.999998)
(0.00196824 7.27918e-20 0.999998)
(0.0019693 0 0.999998)
(0.0019704 -7.27918e-20 0.999998)
(0.00197152 0 0.999998)
(0.00197265 0 0.999998)
(0.00197378 0 0.999998)
(0.0019749 0 0.999998)
(0.001976 -7.27918e-20 0.999998)
(0.0019771 7.27918e-20 0.999998)
(0.00197817 7.27918e-20 0.999998)
(0.00197923 0 0.999998)
(0.00198028 0 0.999998)
(0.0019813 0 0.999998)
(0.00198231 0 0.999998)
(0.00198329 0 0.999998)
(0.00198426 0 0.999998)
(0.0019852 0 0.999998)
(0.00198612 0 0.999998)
(0.00198701 0 0.999998)
(0.00198789 7.27918e-20 0.999998)
(0.00198874 0 0.999998)
(0.00198957 -7.27917e-20 0.999998)
(0.00199038 0 0.999998)
(0.00199115 0 0.999998)
(0.00199189 0 0.999998)
(0.0019926 0 0.999998)
(0.00199326 0 0.999998)
(0.00199388 -7.27917e-20 0.999998)
(0.00199446 0 0.999998)
(0.00199498 0 0.999998)
(0.00199546 0 0.999998)
(0.00199588 0 0.999998)
(0.00199624 0 0.999998)
(0.00199655 7.27917e-20 0.999998)
(0.0019968 0 0.999998)
(0.00199698 0 0.999998)
(0.0019971 7.27917e-20 0.999998)
(0.00199716 0 0.999998)
(0.00199714 -7.27917e-20 0.999998)
(0.00199707 0 0.999998)
(0.00199692 0 0.999998)
(0.00199671 0 0.999998)
(0.00199643 0 0.999998)
(0.00199608 7.27917e-20 0.999998)
(0.00199567 -7.27917e-20 0.999998)
(0.0019952 0 0.999998)
(0.00199467 0 0.999998)
(0.00199408 7.27917e-20 0.999998)
(0.00199343 0 0.999998)
(0.00199273 0 0.999998)
(0.00199199 -7.27918e-20 0.999998)
(0.00199119 7.27918e-20 0.999998)
(0.00199035 7.27918e-20 0.999998)
(0.00198948 -7.27918e-20 0.999998)
(0.00198857 7.27917e-20 0.999998)
(0.00198764 0 0.999998)
(0.00198668 0 0.999998)
(0.00198569 0 0.999998)
(0.00198469 0 0.999998)
(0.00198368 7.27917e-20 0.999998)
(0.00198266 0 0.999998)
(0.00198162 7.27918e-20 0.999998)
(0.00198059 0 0.999998)
(0.00197955 0 0.999998)
(0.00197852 -7.27918e-20 0.999998)
(0.00197749 7.27917e-20 0.999998)
(0.00197647 0 0.999998)
(0.00197547 0 0.999998)
(0.00197448 0 0.999998)
(0.0019735 0 0.999998)
(0.00197253 0 0.999998)
(0.00197159 -7.27918e-20 0.999998)
(0.00197065 7.27918e-20 0.999998)
(0.00196974 -7.27918e-20 0.999998)
(0.00196885 0 0.999998)
(0.00196798 0 0.999998)
(0.00196713 0 0.999998)
(0.00196632 7.27918e-20 0.999998)
(0.00196553 0 0.999998)
(0.00196478 -7.27918e-20 0.999998)
(0.00196405 -7.27918e-20 0.999998)
(0.00196336 0 0.999998)
(0.0019627 0 0.999998)
(0.00196208 7.27918e-20 0.999998)
(0.0019615 0 0.999998)
(0.00196096 0 0.999998)
(0.00196045 0 0.999998)
(0.00195997 0 0.999998)
(0.00195952 0 0.999998)
(0.0019591 0 0.999998)
(0.00195871 -7.27918e-20 0.999998)
(0.00195835 0 0.999998)
(0.00195801 0 0.999998)
(0.0019577 0 0.999998)
(0.00195742 0 0.999998)
(0.00195717 0 0.999998)
(0.00195694 0 0.999998)
(0.00195674 7.27918e-20 0.999998)
(0.00195657 0 0.999998)
(0.00195641 7.27918e-20 0.999998)
(0.00195628 0 0.999998)
(0.00195617 0 0.999998)
(0.00195609 0 0.999998)
(0.00195603 -7.27918e-20 0.999998)
(0.00195599 7.27918e-20 0.999998)
(0.00195598 0 0.999998)
(0.00195599 0 0.999998)
(0.00195602 0 0.999998)
(0.00195607 0 0.999998)
(0.00195615 7.27918e-20 0.999998)
(0.00195625 -7.27918e-20 0.999998)
(0.00195638 0 0.999998)
(0.00195654 0 0.999998)
(0.00195672 0 0.999998)
(0.00195693 7.27918e-20 0.999998)
(0.00195715 0 0.999998)
(0.0019574 -7.27918e-20 0.999998)
(0.00195767 0 0.999998)
(0.00195795 -7.27918e-20 0.999998)
(0.00195824 -7.27918e-20 0.999998)
(0.00195856 7.27918e-20 0.999998)
(0.00195888 0 0.999998)
(0.00195922 0 0.999998)
(0.00195958 0 0.999998)
(0.00195995 0 0.999998)
(0.00196033 0 0.999998)
(0.00196073 0 0.999998)
(0.00196115 7.27918e-20 0.999998)
(0.00196159 0 0.999998)
(0.00196205 0 0.999998)
(0.00196252 0 0.999998)
(0.00196301 -7.27918e-20 0.999998)
(0.00196352 0 0.999998)
(0.00196403 -7.27918e-20 0.999998)
(0.00196456 0 0.999998)
(0.00196511 0 0.999998)
(0.00196567 0 0.999998)
(0.00196626 -7.27918e-20 0.999998)
(0.00196688 0 0.999998)
(0.00196754 0 0.999998)
(0.00196823 7.27918e-20 0.999998)
(0.00196898 0 0.999998)
(0.00196977 0 0.999998)
(0.00197059 -7.27918e-20 0.999998)
(0.00197145 0 0.999998)
(0.00197232 -7.27918e-20 0.999998)
(0.0019732 0 0.999998)
(0.00197408 0 0.999998)
(0.00197495 -7.27918e-20 0.999998)
(0.00197581 0 0.999998)
(0.00197664 0 0.999998)
(0.00197746 -7.27918e-20 0.999998)
(0.00197825 7.27918e-20 0.999998)
(0.00197902 0 0.999998)
(0.00197978 0 0.999998)
(0.00198051 -7.27918e-20 0.999998)
(0.00198123 0 0.999998)
(0.00198194 -7.27918e-20 0.999998)
(0.00198264 0 0.999998)
(0.00198333 0 0.999998)
(0.00198401 0 0.999998)
(0.00198468 -7.27918e-20 0.999998)
(0.00198533 7.27918e-20 0.999998)
(0.00198598 0 0.999998)
(0.00198661 0 0.999998)
(0.00198722 0 0.999998)
(0.00198781 -7.27918e-20 0.999998)
(0.00198838 7.27918e-20 0.999998)
(0.00198893 -7.27918e-20 0.999998)
(0.00198945 0 0.999998)
(0.00198994 0 0.999998)
(0.0019904 0 0.999998)
(0.00199083 -7.27918e-20 0.999998)
(0.00199123 7.27918e-20 0.999998)
(0.0019916 7.27918e-20 0.999998)
(0.00199194 -7.27917e-20 0.999998)
(0.00199225 0 0.999998)
(0.00199253 0 0.999998)
(0.00199278 -7.27918e-20 0.999998)
(0.00199299 7.27918e-20 0.999998)
(0.00199318 0 0.999998)
(0.00199333 0 0.999998)
(0.00199344 0 0.999998)
(0.00199352 0 0.999998)
(0.00199357 7.27917e-20 0.999998)
(0.00199358 0 0.999998)
(0.00199355 0 0.999998)
(0.00199349 0 0.999998)
(0.00199339 0 0.999998)
(0.00199325 0 0.999998)
(0.00199308 0 0.999998)
(0.00199287 0 0.999998)
(0.00199262 0 0.999998)
(0.00199234 0 0.999998)
(0.00199203 7.27918e-20 0.999998)
(0.00199169 7.27918e-20 0.999998)
(0.00199133 7.27918e-20 0.999998)
(0.00199094 -7.27917e-20 0.999998)
(0.00199054 0 0.999998)
(0.00199012 0 0.999998)
(0.00198968 0 0.999998)
(0.00198924 0 0.999998)
(0.00198879 0 0.999998)
(0.00198833 -7.27918e-20 0.999998)
(0.00198786 0 0.999998)
(0.00198739 -7.27918e-20 0.999998)
(0.00198691 0 0.999998)
(0.00198644 0 0.999998)
(0.00198596 0 0.999998)
(0.00198549 0 0.999998)
(0.00198502 -7.27918e-20 0.999998)
(0.00198456 0 0.999998)
(0.0019841 0 0.999998)
(0.00198366 0 0.999998)
(0.00198322 0 0.999998)
(0.00198279 0 0.999998)
(0.00198235 -7.27918e-20 0.999998)
(0.00198192 0 0.999998)
(0.00198146 0 0.999998)
(0.001981 0 0.999998)
(0.00198048 0 0.999998)
(0.00197994 0 0.999998)
(0.00197929 -7.27918e-20 0.999998)
(0.00197855 0 0.999998)
(0.00197761 0 0.999998)
(0.00197643 7.27918e-20 0.999998)
(0.00197484 0 0.999998)
(0.00197271 0 0.999998)
(0.00196996 7.27918e-20 0.999998)
(0.00196567 -7.27918e-20 0.999998)
(0.0019604 0 0.999998)
(0.00195177 -7.27918e-20 0.999998)
(0.00193959 -7.27918e-20 0.999998)
(0.00192137 0 0.999998)
(0.00189568 -7.27918e-20 0.999998)
(0.00185773 0 0.999998)
(0.0018051 0 0.999998)
(0.00172747 0 0.999999)
(0.00162139 7.27918e-20 0.999999)
(0.00146685 7.27918e-20 0.999999)
(0.00124836 0 0.999999)
(0.00114834 0 0.999999)
(0.000421227 0 1)
(0.00763738 2.91159e-19 0.999971)
(0.00880061 0 0.999961)
(0.002 0 0.999998)
(0.002 0 0.999998)
(0.002 0 0.999998)
(0.002 0 0.999998)
(0.002 0 0.999998)
(0.002 -7.27917e-20 0.999998)
(0.002 0 0.999998)
(0.002 0 0.999998)
(0.002 0 0.999998)
(0.002 0 0.999998)
)
;

boundaryField
{
    inlet
    {
        type            calculated;
        value           uniform (0 0 0);
    }
    endWall
    {
        type            calculated;
        value           uniform (0 0 0);
    }
    sideWall
    {
        type            empty;
    }
}


// ************************************************************************* //
