/*--------------------------------*- C++ -*----------------------------------*\
| =========                 |                                                 |
| \\      /  F ield         | foam-extend: Open Source CFD                    |
|  \\    /   O peration     | Version:     3.2                                |
|   \\  /    A nd           | Web:         http://www.foam-extend.org         |
|    \\/     M anipulation  | For copyright notice see file Copyright         |
\*---------------------------------------------------------------------------*/
FoamFile
{
    version     2.0;
    format      ascii;
    class       areaScalarField;
    location    "160";
    object      a;
}
// * * * * * * * * * * * * * * * * * * * * * * * * * * * * * * * * * * * * * //

dimensions      [1 -1 0 0 0 0 0];

internalField   nonuniform List<scalar> 
300
(
0.00216728
0.00216728
0.00216728
0.00216728
0.00216728
0.00216728
0.00216728
0.00216728
0.00216728
0.00216728
0.00216728
0.00216728
0.00216728
0.00216728
0.00216728
0.00216728
0.00216728
0.00216728
0.00216728
0.00216728
0.00216728
0.00216728
0.00216728
0.00216728
0.00216728
0.00216728
0.00216728
0.00216728
0.00216728
0.00216728
0.00216728
0.00216728
0.00216728
0.00216728
0.00216728
0.00216728
0.00216728
0.00216728
0.00216728
0.00216728
0.00216728
0.00216728
0.00216728
0.00216728
0.00216728
0.00216728
0.00216728
0.00216728
0.00216728
0.00216728
0.00216728
0.00216728
0.00216728
0.00216728
0.00216728
0.00216728
0.00216728
0.00216728
0.00216728
0.00216728
0.00216728
0.00216728
0.00216728
0.00216728
0.00216728
0.00216728
0.00216728
0.00216728
0.00216728
0.00216728
0.00216728
0.00216728
0.00216728
0.00216728
0.00216728
0.00216728
0.00216728
0.00216728
0.00216728
0.00216728
0.00216728
0.00216728
0.00216728
0.00216728
0.00216728
0.00216728
0.00216728
0.00216728
0.00216728
0.00216728
0.00216728
0.00216728
0.00216728
0.00216728
0.00216728
0.00216728
0.00216728
0.00216728
0.00216728
0.00216728
0.00216728
0.00216728
0.00216728
0.00216728
0.00216728
0.00216728
0.00216728
0.00216728
0.00216728
0.000574305
0.000552122
0.00216728
0.00216728
0.00216728
0.00216728
0.000495162
0.000482692
0.00047878
0.000478376
0.000468685
0.00216728
0.00216728
0.00216728
0.00216728
0.000448782
0.000450251
0.000450902
0.000452166
0.000453057
0.00216728
0.00216728
0.00216728
0.00216728
0.000452847
0.000455176
0.000453629
0.000455686
0.00216728
0.00216728
0.00216728
0.00216728
0.000461444
0.000464077
0.000473448
0.000483631
0.000492814
0.00216728
0.00216728
0.00216728
0.00216728
0.00216728
0.000491604
0.000499593
0.000506075
0.000505012
0.00216728
0.00216728
0.00216728
0.00216728
0.00216728
0.000498169
0.000498483
0.000495043
0.00049102
0.00216728
0.00216728
0.00216728
0.00216728
0.000508165
0.000506424
0.000501388
0.000496783
0.00216728
0.00216728
0.00216728
0.00216728
0.000494152
0.000488382
0.000482053
0.000482034
0.000479566
0.00216728
0.00216728
0.00216728
0.00216728
0.00216728
0.000502575
0.000498996
0.00049372
0.000487965
0.000482027
0.000482773
0.00216728
0.00216728
0.00216728
0.00216728
0.000498115
0.000500758
0.000495092
0.000493294
0.00216728
0.00216728
0.00216728
0.00216728
0.00049194
0.000490271
0.000491518
0.000491042
0.000495888
0.00216728
0.00216728
0.00216728
0.00216728
0.00216728
0.00216728
0.000516764
0.000515591
0.000513609
0.000508504
0.000505497
0.00216728
0.00216728
0.00216728
0.00216728
0.00216728
0.00050217
0.00050432
0.00050558
0.000508708
0.000512583
0.00216728
0.00216728
0.00216728
0.00216728
0.000488079
0.000491074
0.000496093
0.000503193
0.00216728
0.00216728
0.00216728
0.00216728
0.00216728
0.00216728
0.000511357
0.000512734
0.000521154
0.000525561
0.00216728
0.00216728
0.00216728
0.000508436
0.000505814
0.000503324
0.00050313
0.00216728
0.00216728
0.00216728
0.00216728
0.00216728
0.000524559
0.000529871
0.000538533
0.000538398
0.000535984
0.000528148
0.000527143
0.00052503
0.000529787
0.000533695
0.000533475
0.000529953
0.000529096
0.000531257
0.000532813
0.000534637
0.00053932
0.000546195
0.000555876
0.000570837
0.000581852
0.000590378
0.000585303
0.000587254
0.000586611
0.000580298
0.000582001
0.000593855
0.000611722
0.000635208
0.000665544
0.000706507
0.000761968
0.000844935
0.000971542
0.00124472
0.00180265
0.00216728
0.00216728
0.00216728
)
;

boundaryField
{
    inlet
    {
        type            calculated;
        value           uniform 0;
    }
    outlet
    {
        type            calculated;
        value           uniform 0;
    }
    sideWall
    {
        type            empty;
    }
}


// ************************************************************************* //
