/*--------------------------------*- C++ -*----------------------------------*\
| =========                 |                                                 |
| \\      /  F ield         | foam-extend: Open Source CFD                    |
|  \\    /   O peration     | Version:     3.2                                |
|   \\  /    A nd           | Web:         http://www.foam-extend.org         |
|    \\/     M anipulation  | For copyright notice see file Copyright         |
\*---------------------------------------------------------------------------*/
FoamFile
{
    version     2.0;
    format      ascii;
    class       surfaceScalarField;
    location    "160";
    object      AdSS2;
}
// * * * * * * * * * * * * * * * * * * * * * * * * * * * * * * * * * * * * * //

dimensions      [0 3 -1 0 0 0 0];

internalField   nonuniform List<scalar> 
191380
(
6.20162e-05
-1.62922e-06
4.34317e-05
-2.22785e-05
3.68831e-05
-3.43145e-05
3.4861e-05
-3.8841e-05
3.39662e-05
-3.99682e-05
3.33299e-05
-4.02268e-05
3.27754e-05
-4.03086e-05
3.22528e-05
-4.03404e-05
3.17611e-05
-4.03713e-05
3.13152e-05
-4.04172e-05
3.09158e-05
-4.04637e-05
3.05513e-05
-4.04985e-05
3.0221e-05
-4.05328e-05
2.99228e-05
-4.05648e-05
2.96509e-05
-4.05912e-05
2.94014e-05
-4.06135e-05
2.91694e-05
-4.06311e-05
2.89547e-05
-4.06484e-05
2.87583e-05
-4.06667e-05
2.85779e-05
-4.06826e-05
2.84077e-05
-4.06928e-05
2.82466e-05
-4.07019e-05
2.80941e-05
-4.07106e-05
2.79505e-05
-4.07195e-05
2.78145e-05
-4.0727e-05
2.76852e-05
-4.07337e-05
2.75619e-05
-4.07398e-05
2.74442e-05
-4.07453e-05
2.73324e-05
-4.07513e-05
2.72255e-05
-4.07561e-05
2.71233e-05
-4.07608e-05
2.7025e-05
-4.07647e-05
2.69306e-05
-4.07687e-05
2.68399e-05
-4.07724e-05
2.6753e-05
-4.07761e-05
2.66692e-05
-4.07793e-05
2.65883e-05
-4.07821e-05
2.65103e-05
-4.0785e-05
2.64346e-05
-4.07874e-05
2.63619e-05
-4.07903e-05
2.62913e-05
-4.07925e-05
2.62232e-05
-4.07949e-05
2.6157e-05
-4.07969e-05
2.60928e-05
-4.07988e-05
2.60305e-05
-4.08008e-05
2.597e-05
-4.08026e-05
2.59115e-05
-4.08045e-05
2.58544e-05
-4.08059e-05
2.57989e-05
-4.08076e-05
2.57449e-05
-4.0809e-05
2.56922e-05
-4.08104e-05
2.56411e-05
-4.08119e-05
2.55912e-05
-4.08132e-05
2.55427e-05
-4.08145e-05
2.54952e-05
-4.08156e-05
2.5449e-05
-4.08168e-05
2.54039e-05
-4.08179e-05
2.53594e-05
-4.08186e-05
2.53159e-05
-4.08196e-05
2.52735e-05
-4.08207e-05
2.52321e-05
-4.08216e-05
2.51919e-05
-4.08228e-05
2.51525e-05
-4.08237e-05
2.51143e-05
-4.08248e-05
2.50769e-05
-4.08257e-05
2.50407e-05
-4.08268e-05
2.50052e-05
-4.08276e-05
2.4971e-05
-4.08288e-05
2.49374e-05
-4.08295e-05
2.49053e-05
-4.08309e-05
2.48738e-05
-4.08316e-05
2.48439e-05
-4.08332e-05
2.48148e-05
-4.08339e-05
2.47874e-05
-4.08357e-05
2.47608e-05
-4.08364e-05
2.47364e-05
-4.08387e-05
2.47128e-05
-4.08394e-05
2.46922e-05
-4.08424e-05
2.46724e-05
-4.08433e-05
2.46563e-05
-4.08469e-05
2.46414e-05
-4.08482e-05
2.46314e-05
-4.0853e-05
2.46229e-05
-4.08546e-05
2.46216e-05
-4.08617e-05
2.4622e-05
-4.08634e-05
2.46301e-05
-4.08712e-05
2.46436e-05
-4.08765e-05
2.46683e-05
-4.08877e-05
2.46996e-05
-4.08944e-05
2.47497e-05
-4.09131e-05
2.4809e-05
-4.09224e-05
2.48985e-05
-4.09526e-05
2.5002e-05
-4.09666e-05
2.51626e-05
-4.10236e-05
2.53634e-05
-4.10638e-05
2.56982e-05
-4.11979e-05
2.60196e-05
-4.11845e-05
2.72953e-05
-4.21387e-05
2.80961e-05
-4.16639e-05
1.99393e-05
-3.26104e-05
1.54755e-05
-3.60717e-05
1.76682e-05
-4.25347e-05
1.84268e-05
-4.10086e-05
1.90375e-05
-4.08023e-05
1.93201e-05
-4.04315e-05
1.97157e-05
-4.05125e-05
1.99421e-05
-4.03185e-05
2.01268e-05
-4.02566e-05
2.05942e-05
-4.09155e-05
1.98945e-05
-4.05195e-05
1.99413e-05
-4.17941e-05
2.04597e-05
-4.13275e-05
2.06167e-05
-3.83139e-05
2.13888e-05
-3.80493e-05
2.14035e-05
-3.90117e-05
2.08397e-05
-4.05435e-05
1.93857e-05
-4.25478e-05
2.18384e-05
-4.76739e-05
2.06787e-05
-4.16456e-05
1.97653e-05
-3.99691e-05
2.00633e-05
-4.04611e-05
2.25044e-05
-4.04392e-05
2.09136e-05
-3.5485e-05
1.90935e-05
-3.70078e-05
2.22924e-05
-4.44118e-05
2.05756e-05
-4.24955e-05
2.18237e-05
-4.64081e-05
2.04892e-05
-4.18579e-05
2.18804e-05
-4.29956e-05
1.97485e-05
-3.74042e-05
1.98037e-05
-3.70676e-05
2.23363e-05
-3.97683e-05
2.11246e-05
-3.79529e-05
2.31886e-05
-4.31962e-05
2.06382e-05
-4.15677e-05
2.11995e-05
-4.57076e-05
2.02231e-05
-4.05546e-05
2.05028e-05
-3.77399e-05
2.29379e-05
-3.9572e-05
2.07802e-05
-3.68914e-05
2.20325e-05
-4.12481e-05
2.10026e-05
-4.04044e-05
2.16239e-05
-4.53817e-05
2.22548e-05
-4.65931e-05
2.27739e-05
-4.43518e-05
2.25204e-05
-4.15002e-05
2.10614e-05
-3.80969e-05
2.30957e-05
-3.82693e-05
2.15363e-05
-3.40961e-05
2.19958e-05
-3.8888e-05
2.08694e-05
-3.88692e-05
2.15204e-05
-4.24004e-05
2.34317e-05
-4.76806e-05
2.19789e-05
-4.49398e-05
2.16177e-05
-4.22215e-05
2.03855e-05
-3.80044e-05
2.13429e-05
-3.78008e-05
2.15597e-05
-3.67813e-05
2.20797e-05
-3.92827e-05
2.25193e-05
-4.04113e-05
2.24705e-05
-4.13561e-05
2.18418e-05
-4.38963e-05
2.04228e-05
-4.36418e-05
2.06289e-05
-4.31036e-05
2.10079e-05
-4.11308e-05
2.21527e-05
-3.87073e-05
2.26313e-05
-3.68015e-05
2.34686e-05
-3.94242e-05
2.2859e-05
-4.07789e-05
2.13083e-05
-4.29769e-05
2.08926e-05
-4.4863e-05
2.07705e-05
-4.28359e-05
2.09801e-05
-4.06374e-05
2.15743e-05
-3.80187e-05
2.23886e-05
-3.73267e-05
2.24209e-05
-3.87089e-05
2.23758e-05
-4.10151e-05
2.01555e-05
-4.17899e-05
2.07331e-05
-4.58639e-05
2.06874e-05
-4.31562e-05
2.00312e-05
-4.12045e-05
2.1847e-05
-4.25658e-05
2.12795e-05
-3.69096e-05
2.30797e-05
-3.81989e-05
2.27216e-05
-3.83143e-05
2.26526e-05
-3.99076e-05
2.26746e-05
-4.13483e-05
2.0852e-05
-4.2703e-05
2.10003e-05
-4.51299e-05
1.9726e-05
-4.10522e-05
2.04104e-05
-4.24576e-05
2.1283e-05
-4.20558e-05
2.08778e-05
-3.73039e-05
2.13363e-05
-3.68856e-05
2.24105e-05
-3.97136e-05
2.26687e-05
-4.02566e-05
2.33558e-05
-4.19165e-05
2.15741e-05
-4.23092e-05
1.99203e-05
-4.33718e-05
2.12328e-05
-4.46041e-05
2.0948e-05
-4.05732e-05
2.22498e-05
-3.87625e-05
2.2116e-05
-3.62099e-05
2.18877e-05
-3.84e-05
2.09917e-05
-4.04521e-05
2.13956e-05
-4.46626e-05
2.05806e-05
-4.43917e-05
2.09705e-05
-4.40779e-05
2.23016e-05
-4.35187e-05
2.04409e-05
-3.80678e-05
2.14882e-05
-3.80149e-05
2.08232e-05
-3.59094e-05
2.21253e-05
-4.00584e-05
2.2469e-05
-4.03261e-05
2.32173e-05
-4.07305e-05
2.29215e-05
-4.12619e-05
2.10004e-05
-4.29193e-05
2.16474e-05
-4.56724e-05
1.97515e-05
-4.03697e-05
2.14354e-05
-4.33184e-05
2.10434e-05
-4.04269e-05
2.18729e-05
-3.83914e-05
2.15204e-05
-3.6224e-05
2.06425e-05
-3.78296e-05
2.19224e-05
-4.12484e-05
2.11512e-05
-4.05396e-05
2.22354e-05
-4.54569e-05
2.04381e-05
-4.35518e-05
2.23984e-05
-4.53303e-05
2.10664e-05
-4.04326e-05
2.07809e-05
-3.97396e-05
2.00966e-05
-3.65192e-05
2.03216e-05
-3.68701e-05
2.1385e-05
-3.98401e-05
2.03295e-05
-4.0138e-05
2.18261e-05
-4.56409e-05
2.04798e-05
-4.39852e-05
2.22134e-05
-4.53003e-05
2.12231e-05
-3.97147e-05
2.26848e-05
-3.85044e-05
2.2112e-05
-3.5567e-05
2.20575e-05
-3.85514e-05
2.10591e-05
-3.89834e-05
2.016e-05
-3.90719e-05
2.14322e-05
-4.27689e-05
2.0435e-05
-4.38812e-05
2.30005e-05
-4.79369e-05
2.04551e-05
-3.85379e-05
2.21707e-05
-3.84947e-05
2.06311e-05
-3.49563e-05
2.08023e-05
-3.89825e-05
2.10705e-05
-4.13863e-05
2.04446e-05
-4.30754e-05
2.001e-05
-4.43431e-05
2.04498e-05
-4.27008e-05
2.13789e-05
-3.90865e-05
2.20533e-05
-3.74433e-05
2.28289e-05
-3.94845e-05
1.97507e-05
-3.69475e-05
2.27106e-05
-4.29785e-05
2.04199e-05
-3.91556e-05
2.28268e-05
-4.70478e-05
2.09357e-05
-4.34159e-05
2.15009e-05
-4.30649e-05
1.99118e-05
-3.92858e-05
2.03538e-05
-4.18227e-05
2.067e-05
-4.21175e-05
1.99097e-05
-4.12549e-05
2.22671e-05
-4.46537e-05
2.06785e-05
-4.03772e-05
2.15302e-05
-4.20678e-05
1.94505e-05
-3.89497e-05
2.13926e-05
-4.3462e-05
1.99947e-05
-4.03932e-05
2.12317e-05
-4.2859e-05
1.96962e-05
-4.00451e-05
2.15589e-05
-4.35935e-05
2.01008e-05
-4.04647e-05
2.21387e-05
-4.42507e-05
2.13073e-05
-4.15262e-05
2.24305e-05
-4.30051e-05
2.06462e-05
-3.91632e-05
1.96823e-05
-3.99472e-05
2.14377e-05
-4.31494e-05
1.92771e-05
-3.8891e-05
1.93994e-05
-4.11128e-05
1.96486e-05
-4.17399e-05
2.08284e-05
-4.28473e-05
2.05326e-05
-4.13499e-05
2.13391e-05
-4.24418e-05
2.10286e-05
-4.13067e-05
2.18773e-05
-4.24334e-05
2.1741e-05
-4.14123e-05
2.28082e-05
-4.256e-05
2.35723e-05
-4.21694e-05
3.02505e-05
-4.78827e-05
2.88564e-05
-3.95661e-05
2.25616e-05
-3.45683e-05
2.10154e-05
-3.93169e-05
-4.01019e-05
8.94817e-05
1.01391e-05
7.65994e-05
-9.3963e-06
6.8042e-05
-2.5757e-05
6.32813e-05
-3.40803e-05
6.03139e-05
-3.70008e-05
5.82033e-05
-3.81161e-05
5.65594e-05
-3.86648e-05
5.5187e-05
-3.89679e-05
5.40282e-05
-3.92125e-05
5.30422e-05
-3.94312e-05
5.21841e-05
-3.96056e-05
5.14251e-05
-3.97395e-05
5.07532e-05
-3.98609e-05
5.01583e-05
-3.99699e-05
4.96219e-05
-4.00548e-05
4.91339e-05
-4.01255e-05
4.86864e-05
-4.01837e-05
4.82767e-05
-4.02387e-05
4.78994e-05
-4.02893e-05
4.75473e-05
-4.03305e-05
4.72174e-05
-4.0363e-05
4.69083e-05
-4.03928e-05
4.66186e-05
-4.04209e-05
4.6347e-05
-4.04479e-05
4.60909e-05
-4.04709e-05
4.58485e-05
-4.04913e-05
4.56189e-05
-4.05102e-05
4.54008e-05
-4.05272e-05
4.51944e-05
-4.05449e-05
4.49976e-05
-4.05593e-05
4.48099e-05
-4.05731e-05
4.46302e-05
-4.05851e-05
4.44584e-05
-4.05968e-05
4.42939e-05
-4.06079e-05
4.41363e-05
-4.06186e-05
4.39849e-05
-4.06279e-05
4.38391e-05
-4.06363e-05
4.36988e-05
-4.06448e-05
4.35634e-05
-4.06519e-05
4.34331e-05
-4.06601e-05
4.33073e-05
-4.06667e-05
4.31857e-05
-4.06733e-05
4.3068e-05
-4.06792e-05
4.29539e-05
-4.06847e-05
4.28436e-05
-4.06904e-05
4.27366e-05
-4.06957e-05
4.26331e-05
-4.0701e-05
4.25324e-05
-4.07052e-05
4.24346e-05
-4.07098e-05
4.23396e-05
-4.07139e-05
4.22471e-05
-4.07179e-05
4.21573e-05
-4.07221e-05
4.20699e-05
-4.07257e-05
4.19848e-05
-4.07295e-05
4.19019e-05
-4.07327e-05
4.18211e-05
-4.0736e-05
4.17423e-05
-4.07391e-05
4.16656e-05
-4.07419e-05
4.15911e-05
-4.0745e-05
4.15185e-05
-4.07481e-05
4.14477e-05
-4.07508e-05
4.13788e-05
-4.07539e-05
4.13115e-05
-4.07564e-05
4.1246e-05
-4.07593e-05
4.11821e-05
-4.07619e-05
4.112e-05
-4.07647e-05
4.10595e-05
-4.0767e-05
4.10007e-05
-4.07701e-05
4.09434e-05
-4.07722e-05
4.08881e-05
-4.07756e-05
4.08343e-05
-4.07778e-05
4.07827e-05
-4.07815e-05
4.07326e-05
-4.07838e-05
4.0685e-05
-4.0788e-05
4.0639e-05
-4.07905e-05
4.05961e-05
-4.07958e-05
4.05549e-05
-4.07983e-05
4.05176e-05
-4.08051e-05
4.04825e-05
-4.08082e-05
4.04521e-05
-4.08166e-05
4.04244e-05
-4.08205e-05
4.04032e-05
-4.08318e-05
4.03853e-05
-4.08367e-05
4.03766e-05
-4.0853e-05
4.03726e-05
-4.08594e-05
4.03797e-05
-4.08783e-05
4.03943e-05
-4.08912e-05
4.04244e-05
-4.09178e-05
4.04657e-05
-4.09357e-05
4.05351e-05
-4.09826e-05
4.06181e-05
-4.10053e-05
4.07465e-05
-4.1081e-05
4.08994e-05
-4.11195e-05
4.113e-05
-4.12542e-05
4.1418e-05
-4.13518e-05
4.18767e-05
-4.16566e-05
4.24223e-05
-4.173e-05
4.39418e-05
-4.36582e-05
4.52951e-05
-4.30173e-05
3.72153e-05
-2.45305e-05
3.01898e-05
-2.90463e-05
3.04542e-05
-4.27991e-05
3.08604e-05
-4.14148e-05
3.13378e-05
-4.12797e-05
3.16114e-05
-4.07051e-05
3.20787e-05
-4.09798e-05
3.23671e-05
-4.06068e-05
3.26921e-05
-4.05816e-05
3.32376e-05
-4.14609e-05
3.26739e-05
-3.99558e-05
3.26945e-05
-4.18148e-05
3.31366e-05
-4.17695e-05
3.34618e-05
-3.86391e-05
3.42491e-05
-3.88366e-05
3.45129e-05
-3.92755e-05
3.38226e-05
-3.98533e-05
3.27119e-05
-4.14371e-05
3.48753e-05
-4.98373e-05
3.42424e-05
-4.10127e-05
3.31099e-05
-3.88366e-05
3.31283e-05
-4.04795e-05
3.53423e-05
-4.26532e-05
3.41787e-05
-3.43215e-05
3.28427e-05
-3.56717e-05
3.5248e-05
-4.68172e-05
3.43109e-05
-4.15583e-05
3.52222e-05
-4.73194e-05
3.43836e-05
-4.10192e-05
3.54129e-05
-4.40249e-05
3.34748e-05
-3.54662e-05
3.33321e-05
-3.69248e-05
3.52432e-05
-4.16794e-05
3.4795e-05
-3.75047e-05
3.66253e-05
-4.50265e-05
3.48392e-05
-3.97816e-05
3.49971e-05
-4.58655e-05
3.3925e-05
-3.94825e-05
3.42021e-05
-3.8017e-05
3.62266e-05
-4.15964e-05
3.47507e-05
-3.54155e-05
3.55772e-05
-4.20746e-05
3.49556e-05
-3.97828e-05
3.55278e-05
-4.59539e-05
3.6224e-05
-4.72894e-05
3.70587e-05
-4.51865e-05
3.68179e-05
-4.12594e-05
3.56007e-05
-3.68798e-05
3.70413e-05
-3.97099e-05
3.58092e-05
-3.2864e-05
3.5915e-05
-3.89937e-05
3.48066e-05
-3.77607e-05
3.55203e-05
-4.31141e-05
3.74345e-05
-4.95949e-05
3.66116e-05
-4.41169e-05
3.58872e-05
-4.14972e-05
3.44523e-05
-3.65694e-05
3.49569e-05
-3.83055e-05
3.51816e-05
-3.7006e-05
3.57342e-05
-3.98353e-05
3.62962e-05
-4.09733e-05
3.65321e-05
-4.1592e-05
3.594e-05
-4.33041e-05
3.45651e-05
-4.2267e-05
3.43623e-05
-4.29008e-05
3.45993e-05
-4.13678e-05
3.56291e-05
-3.97371e-05
3.63829e-05
-3.75553e-05
3.75202e-05
-4.05615e-05
3.7242e-05
-4.05007e-05
3.58588e-05
-4.15936e-05
3.50374e-05
-4.40416e-05
3.45992e-05
-4.23977e-05
3.45753e-05
-4.06135e-05
3.51258e-05
-3.85693e-05
3.60027e-05
-3.82035e-05
3.63674e-05
-3.90737e-05
3.62273e-05
-4.0875e-05
3.4188e-05
-3.97506e-05
3.43071e-05
-4.59831e-05
3.41379e-05
-4.2987e-05
3.38215e-05
-4.08881e-05
3.52331e-05
-4.39773e-05
3.50851e-05
-3.67616e-05
3.66586e-05
-3.97725e-05
3.67704e-05
-3.84262e-05
3.70323e-05
-4.01694e-05
3.68916e-05
-4.12076e-05
3.5262e-05
-4.10734e-05
3.4913e-05
-4.47809e-05
3.36374e-05
-3.97765e-05
3.39687e-05
-4.27889e-05
3.46056e-05
-4.26927e-05
3.43309e-05
-3.70292e-05
3.47305e-05
-3.72853e-05
3.58027e-05
-4.07857e-05
3.64969e-05
-4.09508e-05
3.74219e-05
-4.28414e-05
3.59404e-05
-4.08277e-05
3.4291e-05
-4.17225e-05
3.49324e-05
-4.52455e-05
3.47298e-05
-4.03706e-05
3.58322e-05
-3.98649e-05
3.59511e-05
-3.63287e-05
3.56668e-05
-3.81157e-05
3.48278e-05
-3.96132e-05
3.51025e-05
-4.49373e-05
3.43938e-05
-4.3683e-05
3.48432e-05
-4.45274e-05
3.59399e-05
-4.46154e-05
3.44667e-05
-3.65947e-05
3.50221e-05
-3.85703e-05
3.4514e-05
-3.54013e-05
3.56568e-05
-4.12012e-05
3.62959e-05
-4.09652e-05
3.72932e-05
-4.17278e-05
3.70895e-05
-4.10581e-05
3.56455e-05
-4.14753e-05
3.56846e-05
-4.57115e-05
3.38134e-05
-3.84985e-05
3.49797e-05
-4.44847e-05
3.47977e-05
-4.02449e-05
3.54198e-05
-3.90136e-05
3.51469e-05
-3.59511e-05
3.46106e-05
-3.72932e-05
3.52809e-05
-4.19187e-05
3.48477e-05
-4.01064e-05
3.58778e-05
-4.64871e-05
3.45848e-05
-4.22588e-05
3.61124e-05
-4.68578e-05
3.5123e-05
-3.94432e-05
3.45839e-05
-3.92006e-05
3.3649e-05
-3.55842e-05
3.36485e-05
-3.68696e-05
3.42845e-05
-4.04762e-05
3.37561e-05
-3.96095e-05
3.50643e-05
-4.69491e-05
3.43014e-05
-4.32223e-05
3.57853e-05
-4.67841e-05
3.5248e-05
-3.91775e-05
3.64266e-05
-3.9683e-05
3.61201e-05
-3.52604e-05
3.59749e-05
-3.84063e-05
3.48685e-05
-3.7877e-05
3.40199e-05
-3.82232e-05
3.45661e-05
-4.33151e-05
3.41986e-05
-4.35137e-05
3.65958e-05
-5.03341e-05
3.47563e-05
-3.66984e-05
3.57711e-05
-3.95095e-05
3.44797e-05
-3.36648e-05
3.43126e-05
-3.88155e-05
3.4439e-05
-4.15127e-05
3.39561e-05
-4.25925e-05
3.33756e-05
-4.37626e-05
3.36541e-05
-4.29793e-05
3.46832e-05
-4.01156e-05
3.58981e-05
-3.86582e-05
3.61409e-05
-3.97274e-05
3.3625e-05
-3.44316e-05
3.5918e-05
-4.52715e-05
3.4476e-05
-3.77136e-05
3.63922e-05
-4.89639e-05
3.51353e-05
-4.2159e-05
3.53286e-05
-4.32581e-05
3.40328e-05
-3.79901e-05
3.39149e-05
-4.17048e-05
3.36662e-05
-4.18688e-05
3.3548e-05
-4.11366e-05
3.54821e-05
-4.65879e-05
3.45728e-05
-3.94679e-05
3.49649e-05
-4.246e-05
3.30534e-05
-3.70382e-05
3.4412e-05
-4.48207e-05
3.35191e-05
-3.95002e-05
3.43227e-05
-4.36626e-05
3.31527e-05
-3.8875e-05
3.4559e-05
-4.49998e-05
3.37283e-05
-3.9634e-05
3.54545e-05
-4.59769e-05
3.51968e-05
-4.12685e-05
3.60317e-05
-4.38399e-05
3.46471e-05
-3.77786e-05
3.39145e-05
-3.92146e-05
3.48194e-05
-4.40543e-05
3.28571e-05
-3.69287e-05
3.24418e-05
-4.06975e-05
3.25342e-05
-4.18323e-05
3.35941e-05
-4.39072e-05
3.37252e-05
-4.14809e-05
3.4476e-05
-4.31926e-05
3.44938e-05
-4.13245e-05
3.52971e-05
-4.32368e-05
3.56259e-05
-4.17411e-05
3.64701e-05
-4.34042e-05
3.84222e-05
-4.41214e-05
4.58649e-05
-5.53254e-05
4.61364e-05
-3.98376e-05
4.05886e-05
-2.90204e-05
3.7179e-05
-3.59073e-05
-3.82522e-05
9.94287e-05
1.19604e-05
9.34365e-05
-3.40411e-06
8.60997e-05
-1.84201e-05
8.00867e-05
-2.80673e-05
7.57095e-05
-3.26236e-05
7.24369e-05
-3.48436e-05
6.99182e-05
-3.61461e-05
6.79141e-05
-3.69639e-05
6.62808e-05
-3.75792e-05
6.49103e-05
-3.80607e-05
6.37256e-05
-3.84209e-05
6.2691e-05
-3.87049e-05
6.17843e-05
-3.89542e-05
6.0986e-05
-3.91715e-05
6.02685e-05
-3.93372e-05
5.96186e-05
-3.94756e-05
5.9027e-05
-3.95921e-05
5.84879e-05
-3.96996e-05
5.79938e-05
-3.97952e-05
5.7535e-05
-3.98718e-05
5.71075e-05
-3.99354e-05
5.67087e-05
-3.9994e-05
5.63363e-05
-4.00484e-05
5.59877e-05
-4.00993e-05
5.56595e-05
-4.01427e-05
5.53495e-05
-4.01814e-05
5.50567e-05
-4.02174e-05
5.47792e-05
-4.02497e-05
5.45168e-05
-4.02824e-05
5.42669e-05
-4.03095e-05
5.4029e-05
-4.03352e-05
5.38017e-05
-4.03578e-05
5.35845e-05
-4.03796e-05
5.3377e-05
-4.04004e-05
5.31784e-05
-4.04199e-05
5.29877e-05
-4.04372e-05
5.28043e-05
-4.04529e-05
5.26281e-05
-4.04686e-05
5.24583e-05
-4.04821e-05
5.2295e-05
-4.04968e-05
5.21373e-05
-4.05091e-05
5.19851e-05
-4.0521e-05
5.1838e-05
-4.05321e-05
5.16956e-05
-4.05423e-05
5.15579e-05
-4.05528e-05
5.14245e-05
-4.05623e-05
5.12954e-05
-4.05719e-05
5.117e-05
-4.05798e-05
5.10483e-05
-4.05882e-05
5.09301e-05
-4.05957e-05
5.08152e-05
-4.0603e-05
5.07036e-05
-4.06106e-05
5.05951e-05
-4.06172e-05
5.04895e-05
-4.06239e-05
5.03867e-05
-4.06298e-05
5.02865e-05
-4.06358e-05
5.01889e-05
-4.06416e-05
5.0094e-05
-4.0647e-05
5.00017e-05
-4.06528e-05
4.99118e-05
-4.06581e-05
4.98241e-05
-4.06632e-05
4.97388e-05
-4.06685e-05
4.96555e-05
-4.06732e-05
4.95744e-05
-4.06782e-05
4.94955e-05
-4.06829e-05
4.94186e-05
-4.06879e-05
4.93437e-05
-4.06921e-05
4.92709e-05
-4.06973e-05
4.92e-05
-4.07013e-05
4.91314e-05
-4.0707e-05
4.90648e-05
-4.07112e-05
4.90006e-05
-4.07173e-05
4.89385e-05
-4.07217e-05
4.88791e-05
-4.07286e-05
4.88218e-05
-4.07332e-05
4.87679e-05
-4.07419e-05
4.87164e-05
-4.07467e-05
4.8669e-05
-4.07577e-05
4.86245e-05
-4.07636e-05
4.85851e-05
-4.07772e-05
4.85491e-05
-4.07845e-05
4.85202e-05
-4.08028e-05
4.84955e-05
-4.08121e-05
4.84804e-05
-4.08378e-05
4.84717e-05
-4.08508e-05
4.84757e-05
-4.08823e-05
4.84878e-05
-4.09033e-05
4.85165e-05
-4.09465e-05
4.85589e-05
-4.09781e-05
4.8632e-05
-4.10557e-05
4.87209e-05
-4.10942e-05
4.88592e-05
-4.12192e-05
4.90263e-05
-4.12866e-05
4.92761e-05
-4.1504e-05
4.95883e-05
-4.1664e-05
5.00812e-05
-4.21496e-05
5.06771e-05
-4.2326e-05
5.22304e-05
-4.52114e-05
5.32708e-05
-4.40577e-05
4.68843e-05
-1.81439e-05
3.99113e-05
-2.20732e-05
3.82071e-05
-4.10949e-05
3.80045e-05
-4.12123e-05
3.81604e-05
-4.14356e-05
3.82743e-05
-4.0819e-05
3.86653e-05
-4.13707e-05
3.88988e-05
-4.08404e-05
3.92525e-05
-4.09353e-05
3.97246e-05
-4.19331e-05
3.93409e-05
-3.95721e-05
3.93407e-05
-4.18145e-05
3.96424e-05
-4.20713e-05
4.0065e-05
-3.90617e-05
4.07611e-05
-3.95327e-05
4.10565e-05
-3.95709e-05
4.04785e-05
-3.92753e-05
3.98213e-05
-4.07799e-05
4.13465e-05
-5.13624e-05
4.11175e-05
-4.07837e-05
4.00628e-05
-3.7782e-05
3.99957e-05
-4.04124e-05
4.17112e-05
-4.43686e-05
4.1144e-05
-3.37542e-05
4.02945e-05
-3.48223e-05
4.16511e-05
-4.81738e-05
4.13438e-05
-4.1251e-05
4.18754e-05
-4.7851e-05
4.15364e-05
-4.06802e-05
4.2225e-05
-4.47135e-05
4.09733e-05
-3.42145e-05
4.06025e-05
-3.6554e-05
4.16499e-05
-4.27269e-05
4.18984e-05
-3.77532e-05
4.32219e-05
-4.63499e-05
4.21049e-05
-3.86647e-05
4.20317e-05
-4.57922e-05
4.1325e-05
-3.87759e-05
4.14572e-05
-3.81493e-05
4.27175e-05
-4.28567e-05
4.20275e-05
-3.47255e-05
4.24429e-05
-4.24899e-05
4.21208e-05
-3.94607e-05
4.25732e-05
-4.64063e-05
4.32542e-05
-4.79704e-05
4.40507e-05
-4.5983e-05
4.4033e-05
-4.12417e-05
4.33474e-05
-3.61942e-05
4.40478e-05
-4.04103e-05
4.32752e-05
-3.20915e-05
4.31067e-05
-3.88252e-05
4.23491e-05
-3.70032e-05
4.28767e-05
-4.36417e-05
4.42589e-05
-5.09771e-05
4.39257e-05
-4.37837e-05
4.31697e-05
-4.07411e-05
4.19141e-05
-3.53138e-05
4.20907e-05
-3.84821e-05
4.2302e-05
-3.72173e-05
4.2784e-05
-4.03173e-05
4.3305e-05
-4.14943e-05
4.35907e-05
-4.18777e-05
4.3102e-05
-4.28155e-05
4.19801e-05
-4.11451e-05
4.15572e-05
-4.2478e-05
4.16877e-05
-4.14983e-05
4.25684e-05
-4.06178e-05
4.34169e-05
-3.84038e-05
4.44979e-05
-4.16426e-05
4.44413e-05
-4.04441e-05
4.33479e-05
-4.05002e-05
4.23882e-05
-4.3082e-05
4.18596e-05
-4.18691e-05
4.17238e-05
-4.04777e-05
4.21862e-05
-3.90317e-05
4.29485e-05
-3.89658e-05
4.33945e-05
-3.95197e-05
4.31978e-05
-4.06782e-05
4.15668e-05
-3.81196e-05
4.14083e-05
-4.58246e-05
4.12045e-05
-4.27832e-05
4.10368e-05
-4.07204e-05
4.20039e-05
-4.49445e-05
4.22032e-05
-3.69608e-05
4.35021e-05
-4.10714e-05
4.38547e-05
-3.87787e-05
4.41706e-05
-4.04853e-05
4.40087e-05
-4.10457e-05
4.2757e-05
-3.98217e-05
4.21229e-05
-4.41468e-05
4.10111e-05
-3.86648e-05
4.10826e-05
-4.28605e-05
4.15076e-05
-4.31176e-05
4.13669e-05
-3.68885e-05
4.16933e-05
-3.76116e-05
4.26006e-05
-4.1693e-05
4.34667e-05
-4.1817e-05
4.43003e-05
-4.3675e-05
4.32575e-05
-3.97848e-05
4.19201e-05
-4.03851e-05
4.19983e-05
-4.53238e-05
4.19223e-05
-4.02945e-05
4.27682e-05
-4.07109e-05
4.30385e-05
-3.6599e-05
4.27288e-05
-3.7806e-05
4.20298e-05
-3.89142e-05
4.21364e-05
-4.50439e-05
4.16676e-05
-4.32143e-05
4.19445e-05
-4.48042e-05
4.26503e-05
-4.53212e-05
4.18402e-05
-3.57846e-05
4.19786e-05
-3.87088e-05
4.16882e-05
-3.51108e-05
4.25735e-05
-4.20865e-05
4.32921e-05
-4.16838e-05
4.4159e-05
-4.25947e-05
4.41767e-05
-4.10758e-05
4.32855e-05
-4.0584e-05
4.27553e-05
-4.51814e-05
4.12957e-05
-3.70389e-05
4.19701e-05
-4.51592e-05
4.19486e-05
-4.02234e-05
4.23657e-05
-3.94307e-05
4.22905e-05
-3.58759e-05
4.19052e-05
-3.69079e-05
4.20712e-05
-4.20847e-05
4.19662e-05
-4.00015e-05
4.26391e-05
-4.71599e-05
4.20088e-05
-4.16285e-05
4.2965e-05
-4.78141e-05
4.23601e-05
-3.88383e-05
4.17473e-05
-3.85878e-05
4.09432e-05
-3.47801e-05
4.07019e-05
-3.66282e-05
4.08739e-05
-4.06482e-05
4.07711e-05
-3.95067e-05
4.16666e-05
-4.78445e-05
4.14774e-05
-4.30331e-05
4.25422e-05
-4.7849e-05
4.24425e-05
-3.90777e-05
4.33442e-05
-4.05847e-05
4.32561e-05
-3.51723e-05
4.30177e-05
-3.8168e-05
4.21782e-05
-3.70375e-05
4.14247e-05
-3.74697e-05
4.13425e-05
-4.32328e-05
4.14386e-05
-4.36098e-05
4.31906e-05
-5.20861e-05
4.21808e-05
-3.56886e-05
4.26559e-05
-3.99846e-05
4.17108e-05
-3.27197e-05
4.13614e-05
-3.84661e-05
4.1365e-05
-4.15162e-05
4.09404e-05
-4.2168e-05
4.0401e-05
-4.32231e-05
4.05993e-05
-4.31777e-05
4.14821e-05
-4.09984e-05
4.25306e-05
-3.97067e-05
4.27861e-05
-3.99829e-05
4.13739e-05
-3.30194e-05
4.24835e-05
-4.6381e-05
4.18597e-05
-3.70898e-05
4.3051e-05
-5.01553e-05
4.23937e-05
-4.15016e-05
4.23362e-05
-4.32007e-05
4.13141e-05
-3.69681e-05
4.09783e-05
-4.1369e-05
4.06623e-05
-4.15527e-05
4.0696e-05
-4.11704e-05
4.19954e-05
-4.78872e-05
4.17268e-05
-3.91993e-05
4.17313e-05
-4.24645e-05
4.03478e-05
-3.56546e-05
4.09929e-05
-4.54658e-05
4.05976e-05
-3.91049e-05
4.09679e-05
-4.40329e-05
4.02788e-05
-3.81859e-05
4.11128e-05
-4.58338e-05
4.08335e-05
-3.93546e-05
4.20701e-05
-4.72135e-05
4.22492e-05
-4.14476e-05
4.28611e-05
-4.44519e-05
4.20101e-05
-3.69276e-05
4.13321e-05
-3.85366e-05
4.14988e-05
-4.4221e-05
4.00566e-05
-3.54865e-05
3.93729e-05
-4.00138e-05
3.93709e-05
-4.18304e-05
4.01432e-05
-4.46795e-05
4.04834e-05
-4.18211e-05
4.11052e-05
-4.38144e-05
4.14452e-05
-4.16645e-05
4.20787e-05
-4.38702e-05
4.27275e-05
-4.23899e-05
4.33641e-05
-4.40408e-05
4.56607e-05
-4.6418e-05
5.23618e-05
-6.20265e-05
5.3915e-05
-4.13909e-05
5.01645e-05
-2.52699e-05
4.6215e-05
-3.19578e-05
-3.58639e-05
0.000102569
1.06418e-05
0.00010099
-1.82503e-06
9.72211e-05
-1.46517e-05
9.20747e-05
-2.29209e-05
8.73721e-05
-2.7921e-05
8.34179e-05
-3.08894e-05
8.01889e-05
-3.29171e-05
7.75791e-05
-3.43541e-05
7.54536e-05
-3.54536e-05
7.36819e-05
-3.6289e-05
7.2183e-05
-3.69221e-05
7.08943e-05
-3.74162e-05
6.97719e-05
-3.78317e-05
6.87849e-05
-3.81845e-05
6.78983e-05
-3.84507e-05
6.70986e-05
-3.86759e-05
6.63751e-05
-3.88686e-05
6.57184e-05
-3.90429e-05
6.51175e-05
-3.91943e-05
6.45613e-05
-3.93155e-05
6.40455e-05
-3.94196e-05
6.35665e-05
-3.9515e-05
6.31205e-05
-3.96025e-05
6.27036e-05
-3.96824e-05
6.23117e-05
-3.97508e-05
6.19425e-05
-3.98123e-05
6.15946e-05
-3.98694e-05
6.12657e-05
-3.99208e-05
6.09549e-05
-3.99716e-05
6.06594e-05
-4.0014e-05
6.03784e-05
-4.00541e-05
6.01104e-05
-4.00899e-05
5.9855e-05
-4.01242e-05
5.96111e-05
-4.01565e-05
5.93779e-05
-4.01867e-05
5.91542e-05
-4.02135e-05
5.89394e-05
-4.02381e-05
5.87333e-05
-4.02625e-05
5.8535e-05
-4.02837e-05
5.83443e-05
-4.03061e-05
5.81605e-05
-4.03252e-05
5.79831e-05
-4.03436e-05
5.78119e-05
-4.03609e-05
5.76463e-05
-4.03766e-05
5.74864e-05
-4.03929e-05
5.73315e-05
-4.04074e-05
5.71818e-05
-4.04221e-05
5.70364e-05
-4.04344e-05
5.68954e-05
-4.04472e-05
5.67586e-05
-4.04589e-05
5.66258e-05
-4.04701e-05
5.64968e-05
-4.04816e-05
5.63715e-05
-4.04919e-05
5.62495e-05
-4.0502e-05
5.61309e-05
-4.05112e-05
5.60154e-05
-4.05203e-05
5.5903e-05
-4.05291e-05
5.57935e-05
-4.05375e-05
5.56871e-05
-4.05464e-05
5.55833e-05
-4.05544e-05
5.54823e-05
-4.05622e-05
5.53838e-05
-4.057e-05
5.5288e-05
-4.05773e-05
5.51945e-05
-4.05847e-05
5.51036e-05
-4.0592e-05
5.5015e-05
-4.05993e-05
5.49287e-05
-4.06059e-05
5.48448e-05
-4.06134e-05
5.47632e-05
-4.06197e-05
5.46841e-05
-4.06278e-05
5.46073e-05
-4.06344e-05
5.45331e-05
-4.06432e-05
5.44614e-05
-4.065e-05
5.43925e-05
-4.06597e-05
5.43262e-05
-4.06669e-05
5.42635e-05
-4.06792e-05
5.42034e-05
-4.06867e-05
5.41478e-05
-4.0702e-05
5.40953e-05
-4.07111e-05
5.40483e-05
-4.07302e-05
5.40051e-05
-4.07413e-05
5.39691e-05
-4.07668e-05
5.3938e-05
-4.0781e-05
5.39166e-05
-4.08164e-05
5.39021e-05
-4.08363e-05
5.39016e-05
-4.08818e-05
5.39099e-05
-4.09115e-05
5.39344e-05
-4.0971e-05
5.39738e-05
-4.10175e-05
5.40448e-05
-4.11267e-05
5.41328e-05
-4.11823e-05
5.42707e-05
-4.1357e-05
5.44392e-05
-4.14551e-05
5.46909e-05
-4.17558e-05
5.50055e-05
-4.19786e-05
5.5499e-05
-4.2643e-05
5.60992e-05
-4.29262e-05
5.75881e-05
-4.67004e-05
5.82525e-05
-4.47221e-05
5.34196e-05
-1.3311e-05
4.71963e-05
-1.58499e-05
4.42385e-05
-3.81371e-05
4.34262e-05
-4.04e-05
4.31867e-05
-4.1196e-05
4.30842e-05
-4.07166e-05
4.33271e-05
-4.16136e-05
4.34532e-05
-4.09664e-05
4.37744e-05
-4.12565e-05
4.4114e-05
-4.22726e-05
4.38708e-05
-3.93289e-05
4.38709e-05
-4.18146e-05
4.40609e-05
-4.22612e-05
4.45203e-05
-3.95211e-05
4.5087e-05
-4.00994e-05
4.5404e-05
-3.98879e-05
4.49587e-05
-3.883e-05
4.4631e-05
-4.04522e-05
4.5562e-05
-5.22934e-05
4.56203e-05
-4.08419e-05
4.47536e-05
-3.69153e-05
4.46897e-05
-4.03485e-05
4.59558e-05
-4.56347e-05
4.57402e-05
-3.35386e-05
4.52422e-05
-3.43243e-05
4.58706e-05
-4.88021e-05
4.60144e-05
-4.13948e-05
4.62426e-05
-4.80793e-05
4.62829e-05
-4.07204e-05
4.66854e-05
-4.51161e-05
4.58603e-05
-3.33894e-05
4.55153e-05
-3.62091e-05
4.60837e-05
-4.32952e-05
4.66488e-05
-3.83184e-05
4.7457e-05
-4.71581e-05
4.68934e-05
-3.81011e-05
4.66806e-05
-4.55794e-05
4.62415e-05
-3.83368e-05
4.63649e-05
-3.82726e-05
4.70501e-05
-4.35419e-05
4.68508e-05
-3.45262e-05
4.69991e-05
-4.26382e-05
4.69077e-05
-3.93694e-05
4.72553e-05
-4.67539e-05
4.78906e-05
-4.86057e-05
4.86543e-05
-4.67467e-05
4.87113e-05
-4.12987e-05
4.84185e-05
-3.59015e-05
4.86975e-05
-4.06892e-05
4.82659e-05
-3.16599e-05
4.79309e-05
-3.84902e-05
4.7441e-05
-3.65133e-05
4.78471e-05
-4.40478e-05
4.87534e-05
-5.18834e-05
4.87127e-05
-4.3743e-05
4.79966e-05
-4.00251e-05
4.7011e-05
-3.43282e-05
4.69583e-05
-3.84294e-05
4.7151e-05
-3.74099e-05
4.75389e-05
-4.07052e-05
4.79911e-05
-4.19465e-05
4.82453e-05
-4.21318e-05
4.78355e-05
-4.24057e-05
4.69836e-05
-4.02932e-05
4.64691e-05
-4.19635e-05
4.65345e-05
-4.15636e-05
4.72269e-05
-4.13102e-05
4.80861e-05
-3.9263e-05
4.90216e-05
-4.25781e-05
4.91043e-05
-4.05268e-05
4.83097e-05
-3.97056e-05
4.7345e-05
-4.21173e-05
4.68015e-05
-4.13256e-05
4.6617e-05
-4.02931e-05
4.69823e-05
-3.9397e-05
4.75742e-05
-3.95577e-05
4.80068e-05
-3.99523e-05
4.77873e-05
-4.04587e-05
4.65747e-05
-3.6907e-05
4.62374e-05
-4.54872e-05
4.60345e-05
-4.25803e-05
4.59586e-05
-4.06445e-05
4.65069e-05
-4.54928e-05
4.69692e-05
-3.74231e-05
4.80104e-05
-4.21127e-05
4.84881e-05
-3.92564e-05
4.87853e-05
-4.07825e-05
4.86422e-05
-4.09027e-05
4.7779e-05
-3.89584e-05
4.69716e-05
-4.33394e-05
4.60317e-05
-3.77248e-05
4.59267e-05
-4.27555e-05
4.61832e-05
-4.33742e-05
4.61447e-05
-3.685e-05
4.64197e-05
-3.78866e-05
4.71328e-05
-4.24062e-05
4.80519e-05
-4.27361e-05
4.87612e-05
-4.43843e-05
4.80016e-05
-3.90252e-05
4.69769e-05
-3.93604e-05
4.67808e-05
-4.51277e-05
4.67868e-05
-4.03006e-05
4.73831e-05
-4.13071e-05
4.77373e-05
-3.69533e-05
4.74398e-05
-3.75084e-05
4.69013e-05
-3.83757e-05
4.68606e-05
-4.50032e-05
4.65363e-05
-4.289e-05
4.67231e-05
-4.49909e-05
4.70936e-05
-4.56917e-05
4.67215e-05
-3.54126e-05
4.66348e-05
-3.8622e-05
4.65483e-05
-3.50243e-05
4.71982e-05
-4.27364e-05
4.79196e-05
-4.24052e-05
4.86785e-05
-4.33537e-05
4.8738e-05
-4.11353e-05
4.81829e-05
-4.00289e-05
4.74498e-05
-4.44482e-05
4.64431e-05
-3.60322e-05
4.67044e-05
-4.54205e-05
4.67775e-05
-4.02965e-05
4.70519e-05
-3.9705e-05
4.70098e-05
-3.58338e-05
4.67452e-05
-3.66433e-05
4.67245e-05
-4.2064e-05
4.68197e-05
-4.00967e-05
4.70801e-05
-4.74203e-05
4.69072e-05
-4.14557e-05
4.74811e-05
-4.83879e-05
4.71597e-05
-3.85169e-05
4.65371e-05
-3.79652e-05
4.58138e-05
-3.40568e-05
4.55131e-05
-3.63276e-05
4.54751e-05
-4.06102e-05
4.55677e-05
-3.95994e-05
4.60518e-05
-4.83286e-05
4.62519e-05
-4.32333e-05
4.69455e-05
-4.85426e-05
4.71877e-05
-3.93199e-05
4.78602e-05
-4.12572e-05
4.79361e-05
-3.52482e-05
4.76716e-05
-3.79034e-05
4.69711e-05
-3.6337e-05
4.63895e-05
-3.68881e-05
4.61252e-05
-4.29686e-05
4.64358e-05
-4.39203e-05
4.74376e-05
-5.30879e-05
4.70545e-05
-3.53055e-05
4.71812e-05
-4.01113e-05
4.65495e-05
-3.20881e-05
4.61176e-05
-3.80341e-05
4.60325e-05
-4.14311e-05
4.56576e-05
-4.17931e-05
4.51756e-05
-4.27411e-05
4.53196e-05
-4.33217e-05
4.60124e-05
-4.16913e-05
4.69586e-05
-4.06529e-05
4.71414e-05
-4.01657e-05
4.64987e-05
-3.23766e-05
4.68043e-05
-4.66867e-05
4.67495e-05
-3.70351e-05
4.74039e-05
-5.08097e-05
4.71762e-05
-4.12738e-05
4.69515e-05
-4.2976e-05
4.6166e-05
-3.61825e-05
4.57476e-05
-4.09506e-05
4.54666e-05
-4.12718e-05
4.5587e-05
-4.12907e-05
4.63127e-05
-4.86129e-05
4.63755e-05
-3.92622e-05
4.60991e-05
-4.21881e-05
4.53274e-05
-3.48829e-05
4.54757e-05
-4.56141e-05
4.53522e-05
-3.89814e-05
4.5359e-05
-4.40397e-05
4.51476e-05
-3.79746e-05
4.54773e-05