/*--------------------------------*- C++ -*----------------------------------*\
| =========                 |                                                 |
| \\      /  F ield         | foam-extend: Open Source CFD                    |
|  \\    /   O peration     | Version:     3.2                                |
|   \\  /    A nd           | Web:         http://www.foam-extend.org         |
|    \\/     M anipulation  | For copyright notice see file Copyright         |
\*---------------------------------------------------------------------------*/
FoamFile
{
    version     2.0;
    format      ascii;
    class       surfaceScalarField;
    location    "160";
    object      AdSS1;
}
// * * * * * * * * * * * * * * * * * * * * * * * * * * * * * * * * * * * * * //

dimensions      [0 3 -1 0 0 0 0];

internalField   nonuniform List<scalar> 
191380
(
6.20162e-05
2.38444e-05
4.34317e-05
3.19506e-06
3.68831e-05
-8.84088e-06
3.4861e-05
-1.33674e-05
3.39662e-05
-1.44946e-05
3.33299e-05
-1.47532e-05
3.27754e-05
-1.4835e-05
3.22528e-05
-1.48668e-05
3.17611e-05
-1.48978e-05
3.13152e-05
-1.49436e-05
3.09158e-05
-1.49901e-05
3.05513e-05
-1.50249e-05
3.0221e-05
-1.50592e-05
2.99228e-05
-1.50912e-05
2.96509e-05
-1.51176e-05
2.94014e-05
-1.51399e-05
2.91694e-05
-1.51575e-05
2.89547e-05
-1.51748e-05
2.87583e-05
-1.51931e-05
2.85779e-05
-1.52091e-05
2.84077e-05
-1.52193e-05
2.82466e-05
-1.52283e-05
2.80941e-05
-1.5237e-05
2.79505e-05
-1.52459e-05
2.78145e-05
-1.52534e-05
2.76852e-05
-1.52601e-05
2.75619e-05
-1.52662e-05
2.74442e-05
-1.52717e-05
2.73324e-05
-1.52777e-05
2.72255e-05
-1.52825e-05
2.71233e-05
-1.52872e-05
2.7025e-05
-1.52911e-05
2.69306e-05
-1.52951e-05
2.68399e-05
-1.52988e-05
2.6753e-05
-1.53025e-05
2.66692e-05
-1.53057e-05
2.65883e-05
-1.53085e-05
2.65103e-05
-1.53115e-05
2.64346e-05
-1.53138e-05
2.63619e-05
-1.53167e-05
2.62913e-05
-1.53189e-05
2.62232e-05
-1.53213e-05
2.6157e-05
-1.53233e-05
2.60928e-05
-1.53252e-05
2.60305e-05
-1.53272e-05
2.597e-05
-1.5329e-05
2.59115e-05
-1.53309e-05
2.58544e-05
-1.53324e-05
2.57989e-05
-1.5334e-05
2.57449e-05
-1.53354e-05
2.56922e-05
-1.53368e-05
2.56411e-05
-1.53383e-05
2.55912e-05
-1.53396e-05
2.55427e-05
-1.5341e-05
2.54952e-05
-1.5342e-05
2.5449e-05
-1.53432e-05
2.54039e-05
-1.53443e-05
2.53594e-05
-1.5345e-05
2.53159e-05
-1.5346e-05
2.52735e-05
-1.53471e-05
2.52321e-05
-1.5348e-05
2.51919e-05
-1.53492e-05
2.51525e-05
-1.53501e-05
2.51143e-05
-1.53512e-05
2.50769e-05
-1.53521e-05
2.50407e-05
-1.53532e-05
2.50052e-05
-1.5354e-05
2.4971e-05
-1.53552e-05
2.49374e-05
-1.53559e-05
2.49053e-05
-1.53573e-05
2.48738e-05
-1.5358e-05
2.48439e-05
-1.53596e-05
2.48148e-05
-1.53603e-05
2.47874e-05
-1.53621e-05
2.47608e-05
-1.53628e-05
2.47364e-05
-1.53651e-05
2.47128e-05
-1.53658e-05
2.46922e-05
-1.53688e-05
2.46724e-05
-1.53697e-05
2.46563e-05
-1.53733e-05
2.46414e-05
-1.53746e-05
2.46314e-05
-1.53794e-05
2.46229e-05
-1.5381e-05
2.46216e-05
-1.53881e-05
2.4622e-05
-1.53898e-05
2.46301e-05
-1.53976e-05
2.46436e-05
-1.54029e-05
2.46683e-05
-1.54142e-05
2.46996e-05
-1.54208e-05
2.47497e-05
-1.54396e-05
2.4809e-05
-1.54488e-05
2.48985e-05
-1.5479e-05
2.5002e-05
-1.5493e-05
2.51626e-05
-1.555e-05
2.53634e-05
-1.55903e-05
2.56982e-05
-1.57243e-05
2.60196e-05
-1.57109e-05
2.72953e-05
-1.66651e-05
2.80961e-05
-1.61903e-05
1.99393e-05
-7.13676e-06
1.54755e-05
-1.05981e-05
1.76682e-05
-1.70611e-05
1.84268e-05
-1.5535e-05
1.90375e-05
-1.53287e-05
1.93201e-05
-1.49579e-05
1.97157e-05
-1.50389e-05
1.99421e-05
-1.48449e-05
2.01268e-05
-1.4783e-05
2.05942e-05
-1.54419e-05
1.98945e-05
-1.50459e-05
1.99413e-05
-1.63205e-05
2.04597e-05
-1.58539e-05
2.06167e-05
-1.28403e-05
2.13888e-05
-1.25757e-05
2.14035e-05
-1.35381e-05
2.08397e-05
-1.507e-05
1.93857e-05
-1.70742e-05
2.18384e-05
-2.22003e-05
2.06787e-05
-1.61721e-05
1.97653e-05
-1.44955e-05
2.00633e-05
-1.49875e-05
2.25044e-05
-1.49656e-05
2.09136e-05
-1.00114e-05
1.90935e-05
-1.15342e-05
2.22924e-05
-1.89382e-05
2.05756e-05
-1.70219e-05
2.18237e-05
-2.09345e-05
2.04892e-05
-1.63843e-05
2.18804e-05
-1.7522e-05
1.97485e-05
-1.19306e-05
1.98037e-05
-1.1594e-05
2.23363e-05
-1.42947e-05
2.11246e-05
-1.24793e-05
2.31886e-05
-1.77226e-05
2.06382e-05
-1.60942e-05
2.11995e-05
-2.0234e-05
2.02231e-05
-1.5081e-05
2.05028e-05
-1.22663e-05
2.29379e-05
-1.40984e-05
2.07802e-05
-1.14178e-05
2.20325e-05
-1.57745e-05
2.10026e-05
-1.49308e-05
2.16239e-05
-1.99081e-05
2.22548e-05
-2.11195e-05
2.27739e-05
-1.88782e-05
2.25204e-05
-1.60266e-05
2.10614e-05
-1.26233e-05
2.30957e-05
-1.27957e-05
2.15363e-05
-8.62252e-06
2.19958e-05
-1.34144e-05
2.08694e-05
-1.33956e-05
2.15204e-05
-1.69268e-05
2.34317e-05
-2.2207e-05
2.19789e-05
-1.94662e-05
2.16177e-05
-1.67479e-05
2.03855e-05
-1.25308e-05
2.13429e-05
-1.23273e-05
2.15597e-05
-1.13077e-05
2.20797e-05
-1.38091e-05
2.25193e-05
-1.49377e-05
2.24705e-05
-1.58825e-05
2.18418e-05
-1.84227e-05
2.04228e-05
-1.81682e-05
2.06289e-05
-1.763e-05
2.10079e-05
-1.56572e-05
2.21527e-05
-1.32337e-05
2.26313e-05
-1.1328e-05
2.34686e-05
-1.39506e-05
2.2859e-05
-1.53053e-05
2.13083e-05
-1.75033e-05
2.08926e-05
-1.93894e-05
2.07705e-05
-1.73623e-05
2.09801e-05
-1.51638e-05
2.15743e-05
-1.25451e-05
2.23886e-05
-1.18531e-05
2.24209e-05
-1.32353e-05
2.23758e-05
-1.55416e-05
2.01555e-05
-1.63163e-05
2.07331e-05
-2.03903e-05
2.06874e-05
-1.76826e-05
2.00312e-05
-1.57309e-05
2.1847e-05
-1.70922e-05
2.12795e-05
-1.1436e-05
2.30797e-05
-1.27253e-05
2.27216e-05
-1.28407e-05
2.26526e-05
-1.4434e-05
2.26746e-05
-1.58747e-05
2.0852e-05
-1.72294e-05
2.10003e-05
-1.96563e-05
1.9726e-05
-1.55786e-05
2.04104e-05
-1.6984e-05
2.1283e-05
-1.65822e-05
2.08778e-05
-1.18303e-05
2.13363e-05
-1.14121e-05
2.24105e-05
-1.424e-05
2.26687e-05
-1.4783e-05
2.33558e-05
-1.64429e-05
2.15741e-05
-1.68356e-05
1.99203e-05
-1.78983e-05
2.12328e-05
-1.91305e-05
2.0948e-05
-1.50996e-05
2.22498e-05
-1.32889e-05
2.2116e-05
-1.07363e-05
2.18877e-05
-1.29264e-05
2.09917e-05
-1.49785e-05
2.13956e-05
-1.91891e-05
2.05806e-05
-1.89181e-05
2.09705e-05
-1.86044e-05
2.23016e-05
-1.80451e-05
2.04409e-05
-1.25942e-05
2.14882e-05
-1.25413e-05
2.08232e-05
-1.04358e-05
2.21253e-05
-1.45848e-05
2.2469e-05
-1.48525e-05
2.32173e-05
-1.52569e-05
2.29215e-05
-1.57883e-05
2.10004e-05
-1.74457e-05
2.16474e-05
-2.01989e-05
1.97515e-05
-1.48961e-05
2.14354e-05
-1.78448e-05
2.10434e-05
-1.49533e-05
2.18729e-05
-1.29178e-05
2.15204e-05
-1.07504e-05
2.06425e-05
-1.2356e-05
2.19224e-05
-1.57748e-05
2.11512e-05
-1.5066e-05
2.22354e-05
-1.99833e-05
2.04381e-05
-1.80782e-05
2.23984e-05
-1.98567e-05
2.10664e-05
-1.4959e-05
2.07809e-05
-1.42661e-05
2.00966e-05
-1.10456e-05
2.03216e-05
-1.13965e-05
2.1385e-05
-1.43666e-05
2.03295e-05
-1.46644e-05
2.18261e-05
-2.01673e-05
2.04798e-05
-1.85116e-05
2.22134e-05
-1.98267e-05
2.12231e-05
-1.42411e-05
2.26848e-05
-1.30308e-05
2.2112e-05
-1.00934e-05
2.20575e-05
-1.30778e-05
2.10591e-05
-1.35098e-05
2.016e-05
-1.35983e-05
2.14322e-05
-1.72953e-05
2.0435e-05
-1.84076e-05
2.30005e-05
-2.24633e-05
2.04551e-05
-1.30643e-05
2.21707e-05
-1.30211e-05
2.06311e-05
-9.48267e-06
2.08023e-05
-1.3509e-05
2.10705e-05
-1.59127e-05
2.04446e-05
-1.76018e-05
2.001e-05
-1.88695e-05
2.04498e-05
-1.72273e-05
2.13789e-05
-1.36129e-05
2.20533e-05
-1.19698e-05
2.28289e-05
-1.40109e-05
1.97507e-05
-1.14739e-05
2.27106e-05
-1.75049e-05
2.04199e-05
-1.3682e-05
2.28268e-05
-2.15742e-05
2.09357e-05
-1.79423e-05
2.15009e-05
-1.75913e-05
1.99118e-05
-1.38123e-05
2.03538e-05
-1.63491e-05
2.067e-05
-1.66439e-05
1.99097e-05
-1.57813e-05
2.22671e-05
-1.91801e-05
2.06785e-05
-1.49036e-05
2.15302e-05
-1.65942e-05
1.94505e-05
-1.34761e-05
2.13926e-05
-1.79884e-05
1.99947e-05
-1.49196e-05
2.12317e-05
-1.73854e-05
1.96962e-05
-1.45715e-05
2.15589e-05
-1.81199e-05
2.01008e-05
-1.49911e-05
2.21387e-05
-1.87771e-05
2.13073e-05
-1.60526e-05
2.24305e-05
-1.75315e-05
2.06462e-05
-1.36896e-05
1.96823e-05
-1.44736e-05
2.14377e-05
-1.76758e-05
1.92771e-05
-1.34174e-05
1.93994e-05
-1.56392e-05
1.96486e-05
-1.62663e-05
2.08284e-05
-1.73737e-05
2.05326e-05
-1.58763e-05
2.13391e-05
-1.69682e-05
2.10286e-05
-1.58331e-05
2.18773e-05
-1.69598e-05
2.1741e-05
-1.59387e-05
2.28082e-05
-1.70864e-05
2.35723e-05
-1.66958e-05
3.02505e-05
-2.24091e-05
2.88564e-05
-1.40925e-05
2.25616e-05
-9.09468e-06
2.10154e-05
-1.38433e-05
-1.46283e-05
8.94817e-05
3.56127e-05
7.65994e-05
1.60773e-05
6.8042e-05
-2.83421e-07
6.32813e-05
-8.6067e-06
6.03139e-05
-1.15273e-05
5.82033e-05
-1.26425e-05
5.65594e-05
-1.31912e-05
5.5187e-05
-1.34943e-05
5.40282e-05
-1.37389e-05
5.30422e-05
-1.39577e-05
5.21841e-05
-1.4132e-05
5.14251e-05
-1.42659e-05
5.07532e-05
-1.43873e-05
5.01583e-05
-1.44963e-05
4.96219e-05
-1.45812e-05
4.91339e-05
-1.46519e-05
4.86864e-05
-1.47101e-05
4.82767e-05
-1.47651e-05
4.78994e-05
-1.48157e-05
4.75473e-05
-1.48569e-05
4.72174e-05
-1.48894e-05
4.69083e-05
-1.49192e-05
4.66186e-05
-1.49473e-05
4.6347e-05
-1.49743e-05
4.60909e-05
-1.49973e-05
4.58485e-05
-1.50178e-05
4.56189e-05
-1.50366e-05
4.54008e-05
-1.50536e-05
4.51944e-05
-1.50713e-05
4.49976e-05
-1.50857e-05
4.48099e-05
-1.50995e-05
4.46302e-05
-1.51115e-05
4.44584e-05
-1.51232e-05
4.42939e-05
-1.51343e-05
4.41363e-05
-1.5145e-05
4.39849e-05
-1.51543e-05
4.38391e-05
-1.51627e-05
4.36988e-05
-1.51712e-05
4.35634e-05
-1.51783e-05
4.34331e-05
-1.51865e-05
4.33073e-05
-1.51931e-05
4.31857e-05
-1.51997e-05
4.3068e-05
-1.52056e-05
4.29539e-05
-1.52111e-05
4.28436e-05
-1.52169e-05
4.27366e-05
-1.52221e-05
4.26331e-05
-1.52274e-05
4.25324e-05
-1.52316e-05
4.24346e-05
-1.52362e-05
4.23396e-05
-1.52403e-05
4.22471e-05
-1.52443e-05
4.21573e-05
-1.52485e-05
4.20699e-05
-1.52522e-05
4.19848e-05
-1.52559e-05
4.19019e-05
-1.52591e-05
4.18211e-05
-1.52624e-05
4.17423e-05
-1.52655e-05
4.16656e-05
-1.52683e-05
4.15911e-05
-1.52714e-05
4.15185e-05
-1.52745e-05
4.14477e-05
-1.52773e-05
4.13788e-05
-1.52803e-05
4.13115e-05
-1.52828e-05
4.1246e-05
-1.52857e-05
4.11821e-05
-1.52883e-05
4.112e-05
-1.52912e-05
4.10595e-05
-1.52934e-05
4.10007e-05
-1.52965e-05
4.09434e-05
-1.52986e-05
4.08881e-05
-1.5302e-05
4.08343e-05
-1.53042e-05
4.07827e-05
-1.53079e-05
4.07326e-05
-1.53102e-05
4.0685e-05
-1.53144e-05
4.0639e-05
-1.53169e-05
4.05961e-05
-1.53222e-05
4.05549e-05
-1.53247e-05
4.05176e-05
-1.53315e-05
4.04825e-05
-1.53346e-05
4.04521e-05
-1.5343e-05
4.04244e-05
-1.53469e-05
4.04032e-05
-1.53582e-05
4.03853e-05
-1.53631e-05
4.03766e-05
-1.53794e-05
4.03726e-05
-1.53858e-05
4.03797e-05
-1.54047e-05
4.03943e-05
-1.54176e-05
4.04244e-05
-1.54442e-05
4.04657e-05
-1.54621e-05
4.05351e-05
-1.5509e-05
4.06181e-05
-1.55317e-05
4.07465e-05
-1.56074e-05
4.08994e-05
-1.56459e-05
4.113e-05
-1.57806e-05
4.1418e-05
-1.58782e-05
4.18767e-05
-1.6183e-05
4.24223e-05
-1.62565e-05
4.39418e-05
-1.81846e-05
4.52951e-05
-1.75437e-05
3.72153e-05
9.43116e-07
3.01898e-05
-3.57267e-06
3.04542e-05
-1.73255e-05
3.08604e-05
-1.59412e-05
3.13378e-05
-1.58061e-05
3.16114e-05
-1.52315e-05
3.20787e-05
-1.55062e-05
3.23671e-05
-1.51333e-05
3.26921e-05
-1.5108e-05
3.32376e-05
-1.59874e-05
3.26739e-05
-1.44822e-05
3.26945e-05
-1.63412e-05
3.31366e-05
-1.6296e-05
3.34618e-05
-1.31655e-05
3.42491e-05
-1.3363e-05
3.45129e-05
-1.38019e-05
3.38226e-05
-1.43797e-05
3.27119e-05
-1.59635e-05
3.48753e-05
-2.43637e-05
3.42424e-05
-1.55391e-05
3.31099e-05
-1.3363e-05
3.31283e-05
-1.50059e-05
3.53423e-05
-1.71796e-05
3.41787e-05
-8.84787e-06
3.28427e-05
-1.01981e-05
3.5248e-05
-2.13436e-05
3.43109e-05
-1.60847e-05
3.52222e-05
-2.18458e-05
3.43836e-05
-1.55456e-05
3.54129e-05
-1.85513e-05
3.34748e-05
-9.99261e-06
3.33321e-05
-1.14513e-05
3.52432e-05
-1.62058e-05
3.4795e-05
-1.20311e-05
3.66253e-05
-1.95529e-05
3.48392e-05
-1.4308e-05
3.49971e-05
-2.03919e-05
3.3925e-05
-1.40089e-05
3.42021e-05
-1.25434e-05
3.62266e-05
-1.61228e-05
3.47507e-05
-9.9419e-06
3.55772e-05
-1.6601e-05
3.49556e-05
-1.43092e-05
3.55278e-05
-2.04803e-05
3.6224e-05
-2.18158e-05
3.70587e-05
-1.97129e-05
3.68179e-05
-1.57858e-05
3.56007e-05
-1.14062e-05
3.70413e-05
-1.42363e-05
3.58092e-05
-7.39045e-06
3.5915e-05
-1.35202e-05
3.48066e-05
-1.22871e-05
3.55203e-05
-1.76405e-05
3.74345e-05
-2.41213e-05
3.66116e-05
-1.86433e-05
3.58872e-05
-1.60236e-05
3.44523e-05
-1.10958e-05
3.49569e-05
-1.28319e-05
3.51816e-05
-1.15324e-05
3.57342e-05
-1.43617e-05
3.62962e-05
-1.54997e-05
3.65321e-05
-1.61184e-05
3.594e-05
-1.78305e-05
3.45651e-05
-1.67934e-05
3.43623e-05
-1.74272e-05
3.45993e-05
-1.58942e-05
3.56291e-05
-1.42635e-05
3.63829e-05
-1.20817e-05
3.75202e-05
-1.50879e-05
3.7242e-05
-1.50271e-05
3.58588e-05
-1.612e-05
3.50374e-05
-1.8568e-05
3.45992e-05
-1.69241e-05
3.45753e-05
-1.51399e-05
3.51258e-05
-1.30957e-05
3.60027e-05
-1.273e-05
3.63674e-05
-1.36001e-05
3.62273e-05
-1.54014e-05
3.4188e-05
-1.4277e-05
3.43071e-05
-2.05095e-05
3.41379e-05
-1.75134e-05
3.38215e-05
-1.54145e-05
3.52331e-05
-1.85038e-05
3.50851e-05
-1.1288e-05
3.66586e-05
-1.42989e-05
3.67704e-05
-1.29526e-05
3.70323e-05
-1.46959e-05
3.68916e-05
-1.5734e-05
3.5262e-05
-1.55998e-05
3.4913e-05
-1.93073e-05
3.36374e-05
-1.4303e-05
3.39687e-05
-1.73153e-05
3.46056e-05
-1.72191e-05
3.43309e-05
-1.15556e-05
3.47305e-05
-1.18117e-05
3.58027e-05
-1.53122e-05
3.64969e-05
-1.54772e-05
3.74219e-05
-1.73678e-05
3.59404e-05
-1.53541e-05
3.4291e-05
-1.62489e-05
3.49324e-05
-1.9772e-05
3.47298e-05
-1.4897e-05
3.58322e-05
-1.43913e-05
3.59511e-05
-1.08551e-05
3.56668e-05
-1.26421e-05
3.48278e-05
-1.41396e-05
3.51025e-05
-1.94637e-05
3.43938e-05
-1.82094e-05
3.48432e-05
-1.90538e-05
3.59399e-05
-1.91418e-05
3.44667e-05
-1.11211e-05
3.50221e-05
-1.30967e-05
3.4514e-05
-9.92768e-06
3.56568e-05
-1.57276e-05
3.62959e-05
-1.54916e-05
3.72932e-05
-1.62542e-05
3.70895e-05
-1.55845e-05
3.56455e-05
-1.60017e-05
3.56846e-05
-2.02379e-05
3.38134e-05
-1.30249e-05
3.49797e-05
-1.90111e-05
3.47977e-05
-1.47714e-05
3.54198e-05
-1.354e-05
3.51469e-05
-1.04775e-05
3.46106e-05
-1.18196e-05
3.52809e-05
-1.64451e-05
3.48477e-05
-1.46328e-05
3.58778e-05
-2.10135e-05
3.45848e-05
-1.67852e-05
3.61124e-05
-2.13843e-05
3.5123e-05
-1.39696e-05
3.45839e-05
-1.3727e-05
3.3649e-05
-1.01106e-05
3.36485e-05
-1.1396e-05
3.42845e-05
-1.50026e-05
3.37561e-05
-1.41359e-05
3.50643e-05
-2.14755e-05
3.43014e-05
-1.77487e-05
3.57853e-05
-2.13105e-05
3.5248e-05
-1.37039e-05
3.64266e-05
-1.42094e-05
3.61201e-05
-9.78683e-06
3.59749e-05
-1.29327e-05
3.48685e-05
-1.24034e-05
3.40199e-05
-1.27497e-05
3.45661e-05
-1.78415e-05
3.41986e-05
-1.80401e-05
3.65958e-05
-2.48605e-05
3.47563e-05
-1.12248e-05
3.57711e-05
-1.40359e-05
3.44797e-05
-8.19123e-06
3.43126e-05
-1.33419e-05
3.4439e-05
-1.60391e-05
3.39561e-05
-1.71189e-05
3.33756e-05
-1.8289e-05
3.36541e-05
-1.75057e-05
3.46832e-05
-1.4642e-05
3.58981e-05
-1.31846e-05
3.61409e-05
-1.42538e-05
3.3625e-05
-8.958e-06
3.5918e-05
-1.97979e-05
3.4476e-05
-1.224e-05
3.63922e-05
-2.34903e-05
3.51353e-05
-1.66854e-05
3.53286e-05
-1.77846e-05
3.40328e-05
-1.25165e-05
3.39149e-05
-1.62312e-05
3.36662e-05
-1.63952e-05
3.3548e-05
-1.5663e-05
3.54821e-05
-2.11143e-05
3.45728e-05
-1.39943e-05
3.49649e-05
-1.69864e-05
3.30534e-05
-1.15646e-05
3.4412e-05
-1.93471e-05
3.35191e-05
-1.40266e-05
3.43227e-05
-1.8189e-05
3.31527e-05
-1.34014e-05
3.4559e-05
-1.95262e-05
3.37283e-05
-1.41604e-05
3.54545e-05
-2.05033e-05
3.51968e-05
-1.57949e-05
3.60317e-05
-1.83663e-05
3.46471e-05
-1.2305e-05
3.39145e-05
-1.3741e-05
3.48194e-05
-1.85807e-05
3.28571e-05
-1.14551e-05
3.24418e-05
-1.52239e-05
3.25342e-05
-1.63588e-05
3.35941e-05
-1.84336e-05
3.37252e-05
-1.60073e-05
3.4476e-05
-1.7719e-05
3.44938e-05
-1.58509e-05
3.52971e-05
-1.77632e-05
3.56259e-05
-1.62675e-05
3.64701e-05
-1.79306e-05
3.84222e-05
-1.86479e-05
4.58649e-05
-2.98518e-05
4.61364e-05
-1.43641e-05
4.05886e-05
-3.54681e-06
3.7179e-05
-1.04337e-05
-1.27786e-05
9.94287e-05
3.7434e-05
9.34365e-05
2.20695e-05
8.60997e-05
7.05345e-06
8.00867e-05
-2.59371e-06
7.57095e-05
-7.15003e-06
7.24369e-05
-9.36997e-06
6.99182e-05
-1.06725e-05
6.79141e-05
-1.14903e-05
6.62808e-05
-1.21056e-05
6.49103e-05
-1.25871e-05
6.37256e-05
-1.29473e-05
6.2691e-05
-1.32313e-05
6.17843e-05
-1.34806e-05
6.0986e-05
-1.36979e-05
6.02685e-05
-1.38637e-05
5.96186e-05
-1.4002e-05
5.9027e-05
-1.41185e-05
5.84879e-05
-1.4226e-05
5.79938e-05
-1.43216e-05
5.7535e-05
-1.43982e-05
5.71075e-05
-1.44619e-05
5.67087e-05
-1.45204e-05
5.63363e-05
-1.45749e-05
5.59877e-05
-1.46257e-05
5.56595e-05
-1.46691e-05
5.53495e-05
-1.47078e-05
5.50567e-05
-1.47438e-05
5.47792e-05
-1.47761e-05
5.45168e-05
-1.48088e-05
5.42669e-05
-1.48359e-05
5.4029e-05
-1.48616e-05
5.38017e-05
-1.48842e-05
5.35845e-05
-1.49061e-05
5.3377e-05
-1.49268e-05
5.31784e-05
-1.49463e-05
5.29877e-05
-1.49636e-05
5.28043e-05
-1.49793e-05
5.26281e-05
-1.4995e-05
5.24583e-05
-1.50085e-05
5.2295e-05
-1.50232e-05
5.21373e-05
-1.50355e-05
5.19851e-05
-1.50474e-05
5.1838e-05
-1.50585e-05
5.16956e-05
-1.50687e-05
5.15579e-05
-1.50792e-05
5.14245e-05
-1.50887e-05
5.12954e-05
-1.50983e-05
5.117e-05
-1.51062e-05
5.10483e-05
-1.51146e-05
5.09301e-05
-1.51221e-05
5.08152e-05
-1.51294e-05
5.07036e-05
-1.5137e-05
5.05951e-05
-1.51436e-05
5.04895e-05
-1.51503e-05
5.03867e-05
-1.51562e-05
5.02865e-05
-1.51623e-05
5.01889e-05
-1.5168e-05
5.0094e-05
-1.51734e-05
5.00017e-05
-1.51792e-05
4.99118e-05
-1.51845e-05
4.98241e-05
-1.51896e-05
4.97388e-05
-1.51949e-05
4.96555e-05
-1.51996e-05
4.95744e-05
-1.52046e-05
4.94955e-05
-1.52093e-05
4.94186e-05
-1.52143e-05
4.93437e-05
-1.52185e-05
4.92709e-05
-1.52237e-05
4.92e-05
-1.52277e-05
4.91314e-05
-1.52334e-05
4.90648e-05
-1.52376e-05
4.90006e-05
-1.52437e-05
4.89385e-05
-1.52481e-05
4.88791e-05
-1.5255e-05
4.88218e-05
-1.52596e-05
4.87679e-05
-1.52683e-05
4.87164e-05
-1.52731e-05
4.8669e-05
-1.52841e-05
4.86245e-05
-1.529e-05
4.85851e-05
-1.53036e-05
4.85491e-05
-1.53109e-05
4.85202e-05
-1.53292e-05
4.84955e-05
-1.53385e-05
4.84804e-05
-1.53642e-05
4.84717e-05
-1.53772e-05
4.84757e-05
-1.54087e-05
4.84878e-05
-1.54297e-05
4.85165e-05
-1.54729e-05
4.85589e-05
-1.55045e-05
4.8632e-05
-1.55821e-05
4.87209e-05
-1.56207e-05
4.88592e-05
-1.57456e-05
4.90263e-05
-1.5813e-05
4.92761e-05
-1.60304e-05
4.95883e-05
-1.61904e-05
5.00812e-05
-1.6676e-05
5.06771e-05
-1.68524e-05
5.22304e-05
-1.97378e-05
5.32708e-05
-1.85841e-05
4.68843e-05
7.32966e-06
3.99113e-05
3.40036e-06
3.82071e-05
-1.56213e-05
3.80045e-05
-1.57387e-05
3.81604e-05
-1.5962e-05
3.82743e-05
-1.53454e-05
3.86653e-05
-1.58971e-05
3.88988e-05
-1.53668e-05
3.92525e-05
-1.54617e-05
3.97246e-05
-1.64595e-05
3.93409e-05
-1.40985e-05
3.93407e-05
-1.63409e-05
3.96424e-05
-1.65977e-05
4.0065e-05
-1.35881e-05
4.07611e-05
-1.40591e-05
4.10565e-05
-1.40973e-05
4.04785e-05
-1.38017e-05
3.98213e-05
-1.53063e-05
4.13465e-05
-2.58888e-05
4.11175e-05
-1.53101e-05
4.00628e-05
-1.23084e-05
3.99957e-05
-1.49388e-05
4.17112e-05
-1.8895e-05
4.1144e-05
-8.28065e-06
4.02945e-05
-9.34866e-06
4.16511e-05
-2.27002e-05
4.13438e-05
-1.57774e-05
4.18754e-05
-2.23774e-05
4.15364e-05
-1.52066e-05
4.2225e-05
-1.92399e-05
4.09733e-05
-8.74095e-06
4.06025e-05
-1.10804e-05
4.16499e-05
-1.72533e-05
4.18984e-05
-1.22796e-05
4.32219e-05
-2.08763e-05
4.21049e-05
-1.31911e-05
4.20317e-05
-2.03186e-05
4.1325e-05
-1.33023e-05
4.14572e-05
-1.26757e-05
4.27175e-05
-1.73831e-05
4.20275e-05
-9.25189e-06
4.24429e-05
-1.70163e-05
4.21208e-05
-1.39871e-05
4.25732e-05
-2.09327e-05
4.32542e-05
-2.24968e-05
4.40507e-05
-2.05094e-05
4.4033e-05
-1.57681e-05
4.33474e-05
-1.07206e-05
4.40478e-05
-1.49367e-05
4.32752e-05
-6.61787e-06
4.31067e-05
-1.33516e-05
4.23491e-05
-1.15296e-05
4.28767e-05
-1.81681e-05
4.42589e-05
-2.55035e-05
4.39257e-05
-1.83101e-05
4.31697e-05
-1.52675e-05
4.19141e-05
-9.84019e-06
4.20907e-05
-1.30085e-05
4.2302e-05
-1.17437e-05
4.2784e-05
-1.48437e-05
4.3305e-05
-1.60207e-05
4.35907e-05
-1.64041e-05
4.3102e-05
-1.73419e-05
4.19801e-05
-1.56715e-05
4.15572e-05
-1.70044e-05
4.16877e-05
-1.60247e-05
4.25684e-05
-1.51442e-05
4.34169e-05
-1.29302e-05
4.44979e-05
-1.6169e-05
4.44413e-05
-1.49705e-05
4.33479e-05
-1.50266e-05
4.23882e-05
-1.76084e-05
4.18596e-05
-1.63955e-05
4.17238e-05
-1.50041e-05
4.21862e-05
-1.35581e-05
4.29485e-05
-1.34922e-05
4.33945e-05
-1.40461e-05
4.31978e-05
-1.52046e-05
4.15668e-05
-1.2646e-05
4.14083e-05
-2.0351e-05
4.12045e-05
-1.73096e-05
4.10368e-05
-1.52468e-05
4.20039e-05
-1.94709e-05
4.22032e-05
-1.14872e-05
4.35021e-05
-1.55978e-05
4.38547e-05
-1.33051e-05
4.41706e-05
-1.50118e-05
4.40087e-05
-1.55721e-05
4.2757e-05
-1.43481e-05
4.21229e-05
-1.86732e-05
4.10111e-05
-1.31912e-05
4.10826e-05
-1.73869e-05
4.15076e-05
-1.7644e-05
4.13669e-05
-1.14149e-05
4.16933e-05
-1.2138e-05
4.26006e-05
-1.62194e-05
4.34667e-05
-1.63434e-05
4.43003e-05
-1.82014e-05
4.32575e-05
-1.43112e-05
4.19201e-05
-1.49115e-05
4.19983e-05
-1.98502e-05
4.19223e-05
-1.48209e-05
4.27682e-05
-1.52373e-05
4.30385e-05
-1.11254e-05
4.27288e-05
-1.23324e-05
4.20298e-05
-1.34406e-05
4.21364e-05
-1.95703e-05
4.16676e-05
-1.77407e-05
4.19445e-05
-1.93306e-05
4.26503e-05
-1.98476e-05
4.18402e-05
-1.0311e-05
4.19786e-05
-1.32352e-05
4.16882e-05
-9.63725e-06
4.25735e-05
-1.66129e-05
4.32921e-05
-1.62102e-05
4.4159e-05
-1.71211e-05
4.41767e-05
-1.56022e-05
4.32855e-05
-1.51104e-05
4.27553e-05
-1.97078e-05
4.12957e-05
-1.15653e-05
4.19701e-05
-1.96856e-05
4.19486e-05
-1.47498e-05
4.23657e-05
-1.39571e-05
4.22905e-05
-1.04023e-05
4.19052e-05
-1.14343e-05
4.20712e-05
-1.66111e-05
4.19662e-05
-1.45279e-05
4.26391e-05
-2.16863e-05
4.20088e-05
-1.61549e-05
4.2965e-05
-2.23405e-05
4.23601e-05
-1.33647e-05
4.17473e-05
-1.31142e-05
4.09432e-05
-9.30652e-06
4.07019e-05
-1.11546e-05
4.08739e-05
-1.51746e-05
4.07711e-05
-1.40332e-05
4.16666e-05
-2.23709e-05
4.14774e-05
-1.75595e-05
4.25422e-05
-2.23754e-05
4.24425e-05
-1.36041e-05
4.33442e-05
-1.51112e-05
4.32561e-05
-9.69868e-06
4.30177e-05
-1.26944e-05
4.21782e-05
-1.15639e-05
4.14247e-05
-1.19961e-05
4.13425e-05
-1.77592e-05
4.14386e-05
-1.81362e-05
4.31906e-05
-2.66125e-05
4.21808e-05
-1.0215e-05
4.26559e-05
-1.4511e-05
4.17108e-05
-7.24614e-06
4.13614e-05
-1.29925e-05
4.1365e-05
-1.60426e-05
4.09404e-05
-1.66944e-05
4.0401e-05
-1.77495e-05
4.05993e-05
-1.77041e-05
4.14821e-05
-1.55248e-05
4.25306e-05
-1.42331e-05
4.27861e-05
-1.45093e-05
4.13739e-05
-7.54579e-06
4.24835e-05
-2.09075e-05
4.18597e-05
-1.16162e-05
4.3051e-05
-2.46817e-05
4.23937e-05
-1.6028e-05
4.23362e-05
-1.77271e-05
4.13141e-05
-1.14945e-05
4.09783e-05
-1.58954e-05
4.06623e-05
-1.60791e-05
4.0696e-05
-1.56968e-05
4.19954e-05
-2.24136e-05
4.17268e-05
-1.37257e-05
4.17313e-05
-1.69909e-05
4.03478e-05
-1.0181e-05
4.09929e-05
-1.99922e-05
4.05976e-05
-1.36313e-05
4.09679e-05
-1.85593e-05
4.02788e-05
-1.27123e-05
4.11128e-05
-2.03602e-05
4.08335e-05
-1.3881e-05
4.20701e-05
-2.17399e-05
4.22492e-05
-1.5974e-05
4.28611e-05
-1.89783e-05
4.20101e-05
-1.1454e-05
4.13321e-05
-1.3063e-05
4.14988e-05
-1.87474e-05
4.00566e-05
-1.00129e-05
3.93729e-05
-1.45402e-05
3.93709e-05
-1.63568e-05
4.01432e-05
-1.92059e-05
4.04834e-05
-1.63475e-05
4.11052e-05
-1.83408e-05
4.14452e-05
-1.61909e-05
4.20787e-05
-1.83966e-05
4.27275e-05
-1.69163e-05
4.33641e-05
-1.85672e-05
4.56607e-05
-2.09445e-05
5.23618e-05
-3.65529e-05
5.3915e-05
-1.59173e-05
5.01645e-05
2.03687e-07
4.6215e-05
-6.48422e-06
-1.03903e-05
0.000102569
3.61153e-05
0.00010099
2.36486e-05
9.72211e-05
1.08219e-05
9.20747e-05
2.55274e-06
8.73721e-05
-2.44745e-06
8.34179e-05
-5.41577e-06
8.01889e-05
-7.4435e-06
7.75791e-05
-8.88048e-06
7.54536e-05
-9.98002e-06
7.36819e-05
-1.08154e-05
7.2183e-05
-1.14485e-05
7.08943e-05
-1.19426e-05
6.97719e-05
-1.23582e-05
6.87849e-05
-1.27109e-05
6.78983e-05
-1.29771e-05
6.70986e-05
-1.32023e-05
6.63751e-05
-1.3395e-05
6.57184e-05
-1.35693e-05
6.51175e-05
-1.37207e-05
6.45613e-05
-1.3842e-05
6.40455e-05
-1.3946e-05
6.35665e-05
-1.40414e-05
6.31205e-05
-1.41289e-05
6.27036e-05
-1.42088e-05
6.23117e-05
-1.42772e-05
6.19425e-05
-1.43387e-05
6.15946e-05
-1.43958e-05
6.12657e-05
-1.44472e-05
6.09549e-05
-1.44981e-05
6.06594e-05
-1.45404e-05
6.03784e-05
-1.45805e-05
6.01104e-05
-1.46163e-05
5.9855e-05
-1.46506e-05
5.96111e-05
-1.4683e-05
5.93779e-05
-1.47131e-05
5.91542e-05
-1.474e-05
5.89394e-05
-1.47645e-05
5.87333e-05
-1.47889e-05
5.8535e-05
-1.48101e-05
5.83443e-05
-1.48325e-05
5.81605e-05
-1.48517e-05
5.79831e-05
-1.487e-05
5.78119e-05
-1.48873e-05
5.76463e-05
-1.4903e-05
5.74864e-05
-1.49193e-05
5.73315e-05
-1.49339e-05
5.71818e-05
-1.49485e-05
5.70364e-05
-1.49608e-05
5.68954e-05
-1.49736e-05
5.67586e-05
-1.49853e-05
5.66258e-05
-1.49965e-05
5.64968e-05
-1.5008e-05
5.63715e-05
-1.50183e-05
5.62495e-05
-1.50284e-05
5.61309e-05
-1.50376e-05
5.60154e-05
-1.50467e-05
5.5903e-05
-1.50556e-05
5.57935e-05
-1.50639e-05
5.56871e-05
-1.50728e-05
5.55833e-05
-1.50808e-05
5.54823e-05
-1.50886e-05
5.53838e-05
-1.50964e-05
5.5288e-05
-1.51037e-05
5.51945e-05
-1.51111e-05
5.51036e-05
-1.51184e-05
5.5015e-05
-1.51257e-05
5.49287e-05
-1.51323e-05
5.48448e-05
-1.51398e-05
5.47632e-05
-1.51461e-05
5.46841e-05
-1.51542e-05
5.46073e-05
-1.51608e-05
5.45331e-05
-1.51696e-05
5.44614e-05
-1.51764e-05
5.43925e-05
-1.51861e-05
5.43262e-05
-1.51933e-05
5.42635e-05
-1.52056e-05
5.42034e-05
-1.52131e-05
5.41478e-05
-1.52285e-05
5.40953e-05
-1.52375e-05
5.40483e-05
-1.52566e-05
5.40051e-05
-1.52678e-05
5.39691e-05
-1.52932e-05
5.3938e-05
-1.53074e-05
5.39166e-05
-1.53428e-05
5.39021e-05
-1.53627e-05
5.39016e-05
-1.54082e-05
5.39099e-05
-1.54379e-05
5.39344e-05
-1.54974e-05
5.39738e-05
-1.55439e-05
5.40448e-05
-1.56531e-05
5.41328e-05
-1.57087e-05
5.42707e-05
-1.58834e-05
5.44392e-05
-1.59815e-05
5.46909e-05
-1.62822e-05
5.50055e-05
-1.6505e-05
5.5499e-05
-1.71694e-05
5.60992e-05
-1.74526e-05
5.75881e-05
-2.12268e-05
5.82525e-05
-1.92485e-05
5.34196e-05
1.21626e-05
4.71963e-05
9.62372e-06
4.42385e-05
-1.26635e-05
4.34262e-05
-1.49264e-05
4.31867e-05
-1.57225e-05
4.30842e-05
-1.5243e-05
4.33271e-05
-1.614e-05
4.34532e-05
-1.54929e-05
4.37744e-05
-1.57829e-05
4.4114e-05
-1.6799e-05
4.38708e-05
-1.38553e-05
4.38709e-05
-1.6341e-05
4.40609e-05
-1.67876e-05
4.45203e-05
-1.40475e-05
4.5087e-05
-1.46258e-05
4.5404e-05
-1.44143e-05
4.49587e-05
-1.33564e-05
4.4631e-05
-1.49786e-05
4.5562e-05
-2.68198e-05
4.56203e-05
-1.53683e-05
4.47536e-05
-1.14417e-05
4.46897e-05
-1.48749e-05
4.59558e-05
-2.01612e-05
4.57402e-05
-8.06499e-06
4.52422e-05
-8.85071e-06
4.58706e-05
-2.33285e-05
4.60144e-05
-1.59212e-05
4.62426e-05
-2.26057e-05
4.62829e-05
-1.52469e-05
4.66854e-05
-1.96425e-05
4.58603e-05
-7.91576e-06
4.55153e-05
-1.07355e-05
4.60837e-05
-1.78216e-05
4.66488e-05
-1.28448e-05
4.7457e-05
-2.16845e-05
4.68934e-05
-1.26275e-05
4.66806e-05
-2.01058e-05
4.62415e-05
-1.28632e-05
4.63649e-05
-1.27991e-05
4.70501e-05
-1.80683e-05
4.68508e-05
-9.05256e-06
4.69991e-05
-1.71646e-05
4.69077e-05
-1.38958e-05
4.72553e-05
-2.12803e-05
4.78906e-05
-2.31321e-05
4.86543e-05
-2.12731e-05
4.87113e-05
-1.58251e-05
4.84185e-05
-1.04279e-05
4.86975e-05
-1.52156e-05
4.82659e-05
-6.18626e-06
4.79309e-05
-1.30166e-05
4.7441e-05
-1.10397e-05
4.78471e-05
-1.85742e-05
4.87534e-05
-2.64098e-05
4.87127e-05
-1.82694e-05
4.79966e-05
-1.45515e-05
4.7011e-05
-8.8546e-06
4.69583e-05
-1.29558e-05
4.7151e-05
-1.19364e-05
4.75389e-05
-1.52316e-05
4.79911e-05
-1.64729e-05
4.82453e-05
-1.66582e-05
4.78355e-05
-1.69321e-05
4.69836e-05
-1.48196e-05
4.64691e-05
-1.64899e-05
4.65345e-05
-1.609e-05
4.72269e-05
-1.58366e-05
4.80861e-05
-1.37894e-05
4.90216e-05
-1.71045e-05
4.91043e-05
-1.50532e-05
4.83097e-05
-1.4232e-05
4.7345e-05
-1.66437e-05
4.68015e-05
-1.5852e-05
4.6617e-05
-1.48196e-05
4.69823e-05
-1.39234e-05
4.75742e-05
-1.40841e-05
4.80068e-05
-1.44787e-05
4.77873e-05
-1.49851e-05
4.65747e-05
-1.14334e-05
4.62374e-05
-2.00137e-05
4.60345e-05
-1.71067e-05
4.59586e-05
-1.51709e-05
4.65069e-05
-2.00192e-05
4.69692e-05
-1.19495e-05
4.80104e-05
-1.66391e-05
4.84881e-05
-1.37828e-05
4.87853e-05
-1.53089e-05
4.86422e-05
-1.54291e-05
4.7779e-05
-1.34848e-05
4.69716e-05
-1.78658e-05
4.60317e-05
-1.22512e-05
4.59267e-05
-1.72819e-05
4.61832e-05
-1.79006e-05
4.61447e-05
-1.13764e-05
4.64197e-05
-1.2413e-05
4.71328e-05
-1.69326e-05
4.80519e-05
-1.72625e-05
4.87612e-05
-1.89107e-05
4.80016e-05
-1.35517e-05
4.69769e-05
-1.38868e-05
4.67808e-05
-1.96541e-05
4.67868e-05
-1.4827e-05
4.73831e-05
-1.58335e-05
4.77373e-05
-1.14797e-05
4.74398e-05
-1.20349e-05
4.69013e-05
-1.29021e-05
4.68606e-05
-1.95297e-05
4.65363e-05
-1.74164e-05
4.67231e-05
-1.95173e-05
4.70936e-05
-2.02181e-05
4.67215e-05
-9.93898e-06
4.66348e-05
-1.31484e-05
4.65483e-05
-9.55069e-06
4.71982e-05
-1.72629e-05
4.79196e-05
-1.69316e-05
4.86785e-05
-1.78801e-05
4.8738e-05
-1.56617e-05
4.81829e-05
-1.45553e-05
4.74498e-05
-1.89747e-05
4.64431e-05
-1.05587e-05
4.67044e-05
-1.99469e-05
4.67775e-05
-1.48229e-05
4.70519e-05
-1.42314e-05
4.70098e-05
-1.03602e-05
4.67452e-05
-1.11697e-05
4.67245e-05
-1.65904e-05
4.68197e-05
-1.46231e-05
4.70801e-05
-2.19467e-05
4.69072e-05
-1.59821e-05
4.74811e-05
-2.29143e-05
4.71597e-05
-1.30433e-05
4.65371e-05
-1.24916e-05
4.58138e-05
-8.58322e-06
4.55131e-05
-1.0854e-05
4.54751e-05
-1.51366e-05
4.55677e-05
-1.41258e-05
4.60518e-05
-2.2855e-05
4.62519e-05
-1.77597e-05
4.69455e-05
-2.3069e-05
4.71877e-05
-1.38463e-05
4.78602e-05
-1.57836e-05
4.79361e-05
-9.77463e-06
4.76716e-05
-1.24298e-05
4.69711e-05
-1.08634e-05
4.63895e-05
-1.14145e-05
4.61252e-05
-1.7495e-05
4.64358e-05
-1.84467e-05
4.74376e-05
-2.76143e-05
4.70545e-05
-9.83187e-06
4.71812e-05
-1.46377e-05
4.65495e-05
-6.6145e-06
4.61176e-05
-1.25605e-05
4.60325e-05
-1.59575e-05
4.56576e-05
-1.63195e-05
4.51756e-05
-1.72675e-05
4.53196e-05
-1.78481e-05
4.60124e-05
-1.62177e-05
4.69586e-05
-1.51793e-05
4.71414e-05
-1.46922e-05
4.64987e-05
-6.90304e-06
4.68043e-05
-2.12131e-05
4.67495e-05
-1.15615e-05
4.74039e-05
-2.53361e-05
4.71762e-05
-1.58002e-05
4.69515e-05
-1.75024e-05
4.6166e-05
-1.07089e-05
4.57476e-05
-1.5477e-05
4.54666e-05
-1.57982e-05
4.5587e-05
-1.58171e-05
4.63127e-05
-2.31393e-05
4.63755e-05
-1.37886e-05
4.60991e-05
-1.67145e-05
4.53274e-05
-9.4093e-06
4.54757e-05
-2.01405e-05
4.53522e-05
-1.35078e-05
4.5359e-05
-1.85661e-05
4.51476e-05
-1.2501e-05
4.54773e-05
-2.06899e-05
4.55817e-05
-1.39854e-05