/*--------------------------------*- C++ -*----------------------------------*\
| =========                 |                                                 |
| \\      /  F ield         | foam-extend: Open Source CFD                    |
|  \\    /   O peration     | Version:     3.2                                |
|   \\  /    A nd           | Web:         http://www.foam-extend.org         |
|    \\/     M anipulation  | For copyright notice see file Copyright         |
\*---------------------------------------------------------------------------*/
FoamFile
{
    version     2.0;
    format      ascii;
    class       areaVectorField;
    location    "160";
    object      aMeshCentreN;
}
// * * * * * * * * * * * * * * * * * * * * * * * * * * * * * * * * * * * * * //

dimensions      [0 0 0 0 0 0 0];

internalField   nonuniform List<vector> 
300
(
(0.025 0.01 0)
(0.075 0.01 0)
(0.125 0.01 0)
(0.175 0.01 0)
(0.225 0.01 0)
(0.275 0.01 0)
(0.325 0.01 0)
(0.375 0.01 0)
(0.425 0.01 0)
(0.475 0.01 0)
(0.525 0.01 0)
(0.575 0.01 0)
(0.625 0.01 0)
(0.675 0.01 0)
(0.725 0.01 0)
(0.775 0.01 0)
(0.825 0.01 0)
(0.875 0.01 0)
(0.925 0.01 0)
(0.975 0.01 0)
(1.025 0.01 0)
(1.075 0.01 0)
(1.125 0.01 0)
(1.175 0.01 0)
(1.225 0.01 0)
(1.275 0.01 0)
(1.325 0.01 0)
(1.375 0.01 0)
(1.425 0.01 0)
(1.475 0.01 0)
(1.525 0.01 0)
(1.575 0.01 0)
(1.625 0.01 0)
(1.675 0.01 0)
(1.725 0.01 0)
(1.775 0.01 0)
(1.825 0.01 0)
(1.875 0.01 0)
(1.925 0.01 0)
(1.975 0.01 0)
(2.025 0.01 0)
(2.075 0.01 0)
(2.125 0.01 0)
(2.175 0.01 0)
(2.225 0.01 0)
(2.275 0.01 0)
(2.325 0.01 0)
(2.375 0.01 0)
(2.425 0.01 0)
(2.475 0.01 0)
(2.525 0.01 0)
(2.575 0.01 0)
(2.625 0.01 0)
(2.675 0.01 0)
(2.725 0.01 0)
(2.775 0.01 0)
(2.825 0.01 0)
(2.875 0.01 0)
(2.925 0.01 0)
(2.975 0.01 0)
(3.025 0.01 0)
(3.075 0.01 0)
(3.125 0.01 0)
(3.175 0.01 0)
(3.225 0.01 0)
(3.275 0.01 0)
(3.325 0.01 0)
(3.375 0.01 0)
(3.425 0.01 0)
(3.475 0.01 0)
(3.525 0.01 0)
(3.575 0.01 0)
(3.625 0.01 0)
(3.675 0.01 0)
(3.725 0.01 0)
(3.775 0.01 0)
(3.825 0.01 0)
(3.875 0.01 0)
(3.925 0.01 0)
(3.975 0.01 0)
(4.025 0.01 0)
(4.075 0.01 0)
(4.125 0.01 0)
(4.175 0.01 0)
(4.225 0.01 0)
(4.275 0.01 0)
(4.325 0.01 0)
(4.375 0.01 0)
(4.425 0.01 0)
(4.475 0.01 0)
(4.525 0.01 0)
(4.575 0.01 0)
(4.625 0.01 0)
(4.675 0.01 0)
(4.725 0.01 0)
(4.775 0.01 0)
(4.825 0.01 0)
(4.875 0.01 0)
(4.925 0.01 0)
(4.975 0.01 -0.00216269)
(5.025 0.01 -0.00729512)
(5.075 0.01 -0.0120587)
(5.125 0.01 -0.0155169)
(5.175 0.01 -0.0185945)
(5.225 0.01 -0.0212582)
(5.275 0.01 -0.0236382)
(5.325 0.01 -0.0257172)
(5.375 0.01 -0.0276156)
(5.425 0.01 -0.029237)
(5.475 0.01 -0.0308195)
(5.525 0.01 -0.0325041)
(5.575 0.01 -0.0337419)
(5.625 0.01 -0.0348159)
(5.675 0.01 -0.0357327)
(5.725 0.01 -0.0365693)
(5.775 0.01 -0.0375214)
(5.825 0.01 -0.0387777)
(5.875 0.01 -0.0391853)
(5.925 0.01 -0.0392279)
(5.975 0.01 -0.0402686)
(6.025 0.01 -0.0412617)
(6.075 0.01 -0.041338)
(6.125 0.01 -0.0412548)
(6.175 0.01 -0.0423541)
(6.225 0.01 -0.0425473)
(6.275 0.01 -0.0423723)
(6.325 0.01 -0.042295)
(6.375 0.01 -0.0421457)
(6.425 0.01 -0.0420409)
(6.475 0.01 -0.0420199)
(6.525 0.01 -0.0429814)
(6.575 0.01 -0.0428621)
(6.625 0.01 -0.0425505)
(6.675 0.01 -0.0420657)
(6.725 0.01 -0.0417935)
(6.775 0.01 -0.0419739)
(6.825 0.01 -0.0417344)
(6.875 0.01 -0.0420643)
(6.925 0.01 -0.0416477)
(6.975 0.01 -0.0414246)
(7.025 0.01 -0.0413988)
(7.075 0.01 -0.041075)
(7.125 0.01 -0.0407789)
(7.175 0.01 -0.0397518)
(7.225 0.01 -0.0386808)
(7.275 0.01 -0.037753)
(7.325 0.01 -0.037589)
(7.375 0.01 -0.0373325)
(7.425 0.01 -0.0372592)
(7.475 0.01 -0.0376044)
(7.525 0.01 -0.0377098)
(7.575 0.01 -0.0378733)
(7.625 0.01 -0.03709)
(7.675 0.01 -0.0364726)
(7.725 0.01 -0.0365728)
(7.775 0.01 -0.0370776)
(7.825 0.01 -0.0375838)
(7.875 0.01 -0.0376917)
(7.925 0.01 -0.0376881)
(7.975 0.01 -0.0374118)
(8.025 0.01 -0.0372278)
(8.075 0.01 -0.0371973)
(8.125 0.01 -0.037533)
(8.175 0.01 -0.0379316)
(8.225 0.01 -0.0380165)
(8.275 0.01 -0.0377528)
(8.325 0.01 -0.0372926)
(8.375 0.01 -0.0367558)
(8.425 0.01 -0.0362769)
(8.475 0.01 -0.0364398)
(8.525 0.01 -0.0369175)
(8.575 0.01 -0.0373627)
(8.625 0.01 -0.0376613)
(8.675 0.01 -0.0377652)
(8.725 0.01 -0.0376657)
(8.775 0.01 -0.0375924)
(8.825 0.01 -0.0376207)
(8.875 0.01 -0.0381965)
(8.925 0.01 -0.0388439)
(8.975 0.01 -0.0388458)
(9.025 0.01 -0.0391029)
(9.075 0.01 -0.0388637)
(9.125 0.01 -0.0384795)
(9.175 0.01 -0.0380135)
(9.225 0.01 -0.0372411)
(9.275 0.01 -0.0370057)
(9.325 0.01 -0.036804)
(9.375 0.01 -0.0371477)
(9.425 0.01 -0.0376634)
(9.475 0.01 -0.0382386)
(9.525 0.01 -0.0388465)
(9.575 0.01 -0.0387694)
(9.625 0.01 -0.0387492)
(9.675 0.01 -0.03889)
(9.725 0.01 -0.038523)
(9.775 0.01 -0.037881)
(9.825 0.01 -0.037233)
(9.875 0.01 -0.0369778)
(9.925 0.01 -0.0375282)
(9.975 0.01 -0.0377055)
(10.025 0.01 -0.0376294)
(10.075 0.01 -0.0374994)
(10.125 0.01 -0.0373025)
(10.175 0.01 -0.0374558)
(10.225 0.01 -0.0378399)
(10.275 0.01 -0.0380065)
(10.325 0.01 -0.0378818)
(10.375 0.01 -0.0379294)
(10.425 0.01 -0.0374501)
(10.475 0.01 -0.0373947)
(10.525 0.01 -0.0376159)
(10.575 0.01 -0.0377173)
(10.625 0.01 -0.0375554)
(10.675 0.01 -0.0367651)
(10.725 0.01 -0.0361118)
(10.775 0.01 -0.0354884)
(10.825 0.01 -0.0355944)
(10.875 0.01 -0.0357746)
(10.925 0.01 -0.0362453)
(10.975 0.01 -0.0365271)
(11.025 0.01 -0.0362617)
(11.075 0.01 -0.0363444)
(11.125 0.01 -0.0363196)
(11.175 0.01 -0.0367147)
(11.225 0.01 -0.0368188)
(11.275 0.01 -0.0368427)
(11.325 0.01 -0.0366382)
(11.375 0.01 -0.0365192)
(11.425 0.01 -0.0362263)
(11.475 0.01 -0.0358685)
(11.525 0.01 -0.0363785)
(11.575 0.01 -0.0369968)
(11.625 0.01 -0.0378429)
(11.675 0.01 -0.0380833)
(11.725 0.01 -0.0382271)
(11.775 0.01 -0.0379262)
(11.825 0.01 -0.0374301)
(11.875 0.01 -0.0367452)
(11.925 0.01 -0.0359654)
(11.975 0.01 -0.0354285)
(12.025 0.01 -0.0349127)
(12.075 0.01 -0.0350413)
(12.125 0.01 -0.0352516)
(12.175 0.01 -0.0358661)
(12.225 0.01 -0.0359811)
(12.275 0.01 -0.0358547)
(12.325 0.01 -0.0350959)
(12.375 0.01 -0.0347084)
(12.425 0.01 -0.0349104)
(12.475 0.01 -0.0351251)
(12.525 0.01 -0.035962)
(12.575 0.01 -0.0362517)
(12.625 0.01 -0.0364972)
(12.675 0.01 -0.0367327)
(12.725 0.01 -0.0367511)
(12.775 0.01 -0.0363477)
(12.825 0.01 -0.0358516)
(12.875 0.01 -0.0351554)
(12.925 0.01 -0.0353017)
(12.975 0.01 -0.0351341)
(13.025 0.01 -0.0347959)
(13.075 0.01 -0.0343357)
(13.125 0.01 -0.0336047)
(13.175 0.01 -0.0336159)
(13.225 0.01 -0.0338174)
(13.275 0.01 -0.0344839)
(13.325 0.01 -0.0345709)
(13.375 0.01 -0.0347547)
(13.425 0.01 -0.0343429)
(13.475 0.01 -0.0340101)
(13.525 0.01 -0.0340287)
(13.575 0.01 -0.0343287)
(13.625 0.01 -0.0344023)
(13.675 0.01 -0.0342171)
(13.725 0.01 -0.0340848)
(13.775 0.01 -0.0339306)
(13.825 0.01 -0.0335395)
(13.875 0.01 -0.0329775)
(13.925 0.01 -0.0322096)
(13.975 0.01 -0.0310742)
(14.025 0.01 -0.0302756)
(14.075 0.01 -0.0296779)
(14.125 0.01 -0.0300316)
(14.175 0.01 -0.0298949)
(14.225 0.01 -0.0299399)
(14.275 0.01 -0.0303864)
(14.325 0.01 -0.030265)
(14.375 0.01 -0.0294391)
(14.425 0.01 -0.0282547)
(14.475 0.01 -0.0267992)
(14.525 0.01 -0.0250712)
(14.575 0.01 -0.0229734)
(14.625 0.01 -0.0204925)
(14.675 0.01 -0.0173892)
(14.725 0.01 -0.0136752)
(14.775 0.01 -0.00823538)
(14.825 0.01 -0.00224753)
(14.875 0.01 0)
(14.925 0.01 0)
(14.975 0.01 0)
)
;

boundaryField
{
    inlet
    {
        type            calculated;
        value           uniform (0 0 0);
    }
    outlet
    {
        type            calculated;
        value           uniform (0 0 0);
    }
    sideWall
    {
        type            empty;
    }
}


// ************************************************************************* //
