/*--------------------------------*- C++ -*----------------------------------*\
| =========                 |                                                 |
| \\      /  F ield         | foam-extend: Open Source CFD                    |
|  \\    /   O peration     | Version:     3.2                                |
|   \\  /    A nd           | Web:         http://www.foam-extend.org         |
|    \\/     M anipulation  | For copyright notice see file Copyright         |
\*---------------------------------------------------------------------------*/
FoamFile
{
    version     2.0;
    format      ascii;
    class       areaVectorField;
    location    "160";
    object      aUf;
}
// * * * * * * * * * * * * * * * * * * * * * * * * * * * * * * * * * * * * * //

dimensions      [0 1 -1 0 0 0 0];

internalField   nonuniform List<vector> 
300
(
(2.31223 0 0.0560184)
(2.06385 0 0.0276194)
(1.71914 0 0.00543633)
(1.55785 0 -0.00117478)
(1.49252 0 -0.00120527)
(1.4571 0 -0.000527318)
(1.43089 0 -0.000296733)
(1.40756 0 -0.000136721)
(1.38574 0 -3.07956e-05)
(1.36563 0 1.01978e-05)
(1.34743 0 2.29917e-05)
(1.33095 0 4.6151e-05)
(1.31587 0 5.79097e-05)
(1.30226 0 6.51704e-05)
(1.28989 0 6.69548e-05)
(1.27854 0 6.6621e-05)
(1.26807 0 6.89535e-05)
(1.25833 0 6.8469e-05)
(1.24935 0 7.10679e-05)
(1.2411 0 7.17e-05)
(1.23339 0 7.08832e-05)
(1.2261 0 6.94306e-05)
(1.21921 0 6.76399e-05)
(1.21272 0 6.44239e-05)
(1.20659 0 6.20736e-05)
(1.20076 0 5.99395e-05)
(1.19523 0 5.81649e-05)
(1.18994 0 5.64806e-05)
(1.18491 0 5.38066e-05)
(1.18013 0 5.22002e-05)
(1.17554 0 5.026e-05)
(1.17115 0 4.90881e-05)
(1.16693 0 4.74573e-05)
(1.16289 0 4.6005e-05)
(1.15899 0 4.42313e-05)
(1.15527 0 4.30387e-05)
(1.15165 1.66864e-39 4.1891e-05)
(1.14819 0 4.05595e-05)
(1.14482 0 3.98635e-05)
(1.14158 0 3.81267e-05)
(1.13845 0 3.74445e-05)
(1.13542 -1.09458e-38 3.61425e-05)
(1.13248 0 3.54679e-05)
(1.12964 0 3.45024e-05)
(1.12687 -1.96803e-38 3.36246e-05)
(1.1242 0 3.26709e-05)
(1.12159 0 3.17682e-05)
(1.11908 3.56762e-38 3.11825e-05)
(1.11661 0 3.03361e-05)
(1.11423 6.69585e-38 2.9688e-05)
(1.11189 6.50614e-38 2.9098e-05)
(1.10964 6.29835e-38 2.81281e-05)
(1.10742 -1.22435e-37 2.7691e-05)
(1.10529 0 2.68114e-05)
(1.10318 0 2.6541e-05)
(1.10115 -2.24723e-37 2.572e-05)
(1.09914 -2.18413e-37 2.52277e-05)
(1.09721 0 2.56746e-05)
(1.09527 0 2.56264e-05)
(1.09343 0 2.48801e-05)
(1.09157 0 2.44927e-05)
(1.08983 0 2.35752e-05)
(1.08805 0 2.33623e-05)
(1.0864 1.39957e-36 2.23868e-05)
(1.0847 1.36453e-36 2.21362e-05)
(1.08314 0 2.11327e-05)
(1.08152 -2.57998e-36 2.10611e-05)
(1.08005 2.48359e-36 1.98684e-05)
(1.0785 0 1.99213e-05)
(1.07711 0 1.84515e-05)
(1.07565 4.55259e-36 1.85917e-05)
(1.07436 -8.62655e-36 1.69065e-05)
(1.07298 0 1.71094e-05)
(1.07179 0 1.51991e-05)
(1.0705 0 1.54027e-05)
(1.06943 -1.40034e-35 1.2935e-05)
(1.06825 0 1.33818e-05)
(1.06731 0 1.01431e-05)
(1.06627 2.31352e-35 1.06348e-05)
(1.06549 -3.74333e-35 6.70518e-06)
(1.06463 3.57779e-35 7.0813e-06)
(1.06404 0 1.82317e-06)
(1.06342 0 3.40601e-06)
(1.06308 0 -3.91708e-06)
(1.06281 0 -2.46494e-06)
(1.06277 0 -1.16174e-05)
(1.06293 1.01964e-34 -1.4421e-05)
(1.0634 0 -2.56623e-05)
(1.06414 0 -2.83592e-05)
(1.06534 1.87951e-33 -4.46926e-05)
(1.06707 0 -4.97427e-05)
(1.0693 0 -7.53304e-05)
(1.07265 0 -8.06026e-05)
(1.07642 4.61265e-32 -0.000133514)
(1.08299 0 -0.000168582)
(1.08985 0 -0.000285697)
(1.1048 -1.23815e-29 -0.000251571)
(1.11117 0 -0.00129393)
(1.18901 -3.12253e-26 0.00225281)
(1.13912 3.10197e-23 -0.0882487)
(0.834347 -1.55112e-23 -0.09363)
(0.824631 -1.25245e-23 -0.0641629)
(0.848511 7.11454e-28 -0.0575372)
(0.850188 -1.20153e-23 -0.0479061)
(0.864365 0 -0.0427544)
(0.862871 -6.08799e-24 -0.0386623)
(0.878951 5.58073e-24 -0.0328008)
(0.872636 0 -0.0323833)
(0.890362 -4.07252e-24 -0.0240339)
(0.889975 4.25664e-24 -0.0315447)
(0.866924 -8.73572e-24 -0.0275618)
(0.898278 -1.25893e-24 -0.0171662)
(0.883699 1.02259e-23 -0.018087)
(0.906551 0 -0.00731697)
(0.900978 1.34392e-23 -0.0168069)
(0.927622 0 -0.0159315)
(0.852473 1.78873e-26 -0.030251)
(0.904649 0 0.00607548)
(0.939815 0 -0.0169273)
(0.894087 -6.459e-24 -0.0185301)
(0.873442 0 -0.0147501)
(0.903122 7.39258e-24 0.01212)
(0.97092 -3.53946e-24 -0.00267058)
(0.827964 1.73086e-23 -0.0228454)
(0.909262 7.05385e-24 0.0180364)
(0.908555 -7.90553e-24 -0.0183935)
(0.922074 1.04045e-23 0.0129105)
(0.928024 -1.13921e-23 -0.0142747)
(0.916892 0 0.0145761)
(0.950825 0 -0.0129279)
(0.834096 0 -0.0103453)
(0.93469 1.47209e-23 0.023208)
(0.899755 1.85597e-27 -0.00641572)
(0.944859 0 0.0255542)
(0.947087 -8.81149e-24 -0.0191416)
(0.900014 0 0.00495742)
(0.945703 1.64097e-24 -0.0016788)
(0.860245 0 -0.00337319)
(0.956447 0 0.0259972)
(0.925806 -6.44111e-28 -0.0105057)
(0.909709 -8.42681e-24 0.0146322)
(0.929482 -5.4673e-26 -0.00432945)
(0.904689 0 0.00835353)
(0.95827 -1.62807e-23 0.0140543)
(0.952634 0 0.0146438)
(1.00698 -8.42147e-24 0.018825)
(0.940651 0 -0.00542725)
(0.966397 0 0.022478)
(0.954101 8.02769e-24 -0.00762721)
(0.923474 0 0.00606798)
(0.94386 2.91814e-24 -0.00666009)
(0.882019 0 -0.00101801)
(0.975389 0 0.0200776)
(0.980461 3.94319e-24 -0.00878026)
(0.968024 0 -0.000803194)
(0.930887 -1.5962e-24 -0.0139144)
(0.910202 0 0.00381193)
(0.927545 0 0.0015769)
(0.928404 2.36659e-24 0.00489253)
(0.950565 0 0.00488462)
(0.944632 1.07375e-25 0.000200979)
(0.963764 0 -0.00391327)
(0.928199 0 -0.0164335)
(0.909972 1.05471e-24 -0.00451913)
(0.913219 3.19296e-25 0.000276218)
(0.93963 0 0.0136678)
(0.94814 -4.93873e-24 0.0110895)
(0.962747 0 0.0141916)
(0.989696 1.08036e-24 0.00300996)
(0.946744 3.17208e-24 -0.0131123)
(0.928562 0 -0.0123922)
(0.91924 1.25834e-28 -0.00979458)
(0.923483 0 -0.000782267)
(0.921248 -1.22581e-28 0.00263205)
(0.946166 2.42918e-24 0.00933522)
(0.939391 -8.82955e-29 -0.000889364)
(0.965045 0 -5.46041e-05)
(0.918639 1.31138e-23 -0.0230666)
(0.88405 0 -0.00781044)
(0.936755 0 -0.00104289)
(0.880726 0 -0.00901102)
(0.93458 0 0.0167635)
(0.929319 0 0.000305216)
(0.929783 -2.16225e-23 0.025229)
(0.982247 0 0.00965653)
(0.943939 0 0.00189615)
(0.973593 5.63741e-25 0.00367211)
(0.928787 -8.95152e-24 -0.0188993)
(0.929965 1.10278e-24 -0.00716505)
(0.911123 0 -0.0182181)
(0.875617 0 -0.0037126)
(0.928555 5.72096e-25 0.00414686)
(0.925039 0 -0.000220386)
(0.898819 0 0.00461923)
(0.930087 0 0.0143309)
(0.946383 0 0.009842)
(0.960952 0 0.0127912)
(0.985572 0 -0.00654139)
(0.895414 0 -0.0184612)
(0.917166 0 0.00386062)
(0.921939 0 -0.00349478)
(0.937502 2.63594e-24 0.013648)
(0.948242 -4.02052e-24 0.00247538)
(0.937901 9.49301e-25 0.000346498)
(0.919254 0 -0.0126378)
(0.909419 1.44805e-24 -0.000418759)
(0.93095 -1.17196e-24 -0.00558429)
(0.88627 1.46915e-25 -0.00344308)
(0.969995 0 0.016068)
(0.930793 0 -0.0109391)
(0.915384 0 0.0104997)
(0.91427 0 -0.00412248)
(0.908454 0 0.016197)
(0.953797 0 0.0107397)
(0.938414 5.35521e-24 0.0122056)
(0.995135 1.99797e-24 0.0115027)
(0.929369 -8.18822e-24 -0.0165579)
(0.955505 1.92058e-27 0.000655861)
(0.907288 0 -0.0234222)
(0.900855 -4.54475e-24 0.0117707)
(0.940486 1.47103e-24 -0.00264319)
(0.91556 -2.25224e-28 0.00551002)
(0.958955 0 0.00484308)
(0.88158 -8.37874e-24 -0.00952234)
(0.929923 0 0.00725982)
(0.895746 0 -0.00923399)
(0.948729 5.44629e-24 0.0121426)
(0.919147 0 -0.0167101)
(0.927303 1.52317e-23 0.0186882)
(0.9608 0 -0.00862618)
(0.913903 0 -0.00564898)
(0.918596 5.49107e-24 -0.00929277)
(0.855281 0 -0.00880746)
(0.918694 7.07888e-24 0.00731353)
(0.87019 -4.50757e-24 -0.0116499)
(0.922504 -5.23002e-24 0.0157199)
(0.906201 2.2207e-24 -0.0080296)
(0.930456 -1.46797e-23 0.0250074)
(0.948168 7.8992e-25 0.00160828)
(0.938429 -6.97052e-24 0.0240522)
(0.965923 -9.91042e-25 0.00440708)
(0.922698 0 -0.000197414)
(0.95367 -1.39995e-24 -0.00395185)
(0.861102 0 -0.0137534)
(0.926684 0 0.0101643)
(0.86905 -5.0155e-27 -0.0110371)
(0.966783 0 0.0293637)
(0.947132 0 -0.016846)
(0.919226 0 0.0172315)
(0.936137 5.51377e-24 -0.0143059)
(0.87584 0 -0.00646119)
(0.910877 4.94393e-25 -0.00383069)
(0.892189 2.58441e-24 -0.00928505)
(0.897948 1.82384e-29 -0.00605223)
(0.876622 7.02218e-29 -0.000570853)
(0.935038 0 0.0162751)
(0.888593 0 0.00876897)
(0.998187 4.80093e-24 0.0234524)
(0.872733 -4.78244e-24 -0.0183521)
(0.927429 0 0.0281565)
(0.906077 1.63268e-24 -0.0168449)
(0.913304 -7.50287e-24 0.0277438)
(0.95352 -7.25553e-24 -0.0112868)
(0.917172 0 0.00648354)
(0.9291 0 -0.0141551)
(0.854441 1.05804e-24 -0.00911859)
(0.932129 -7.13983e-25 0.00319249)
(0.851393 -1.64937e-24 -0.0104286)
(0.940747 6.10909e-24 0.0210871)
(0.911292 -3.78687e-24 -0.011945)
(0.936614 0 0.0115837)
(0.878696 5.04519e-24 -0.0192665)
(0.899126 2.04096e-24 0.0169368)
(0.890468 0 -0.0124827)
(0.907402 0 0.016165)
(0.879975 0 -0.0112153)
(0.902677 3.59781e-24 0.0242084)
(0.897036 -3.56303e-24 -0.00633626)
(0.906941 -3.78986e-24 0.029973)
(0.94338 -2.58857e-24 0.00585736)
(0.927188 0 0.0202247)
(0.968126 0 0.00187523)
(0.85513 5.21405e-27 -0.008938)
(0.924896 -2.02061e-24 0.0129851)
(0.892948 0 -0.0138887)
(0.857443 -1.08194e-25 0.00103796)
(0.852698 -4.33302e-25 0.00132058)
(0.890073 3.3959e-24 0.0241846)
(0.887306 2.43832e-24 0.0150551)
(0.913711 0 0.0351018)
(0.902379 4.36091e-24 0.0255136)
(0.937092 -1.14139e-23 0.0501814)
(0.916229 3.32576e-24 0.0394328)
(0.976707 1.06055e-26 0.0764584)
(0.933936 -3.26596e-24 0.0618491)
(1.07395 0 0.151263)
(1.26752 -9.11335e-23 0.117864)
(1.12474 8.8435e-26 0.0104739)
(0.979915 0 -0.000435845)
(0.936754 3.59634e-29 0.000134738)
)
;

boundaryField
{
    inlet
    {
        type            calculated;
        value           uniform (0 0 0);
    }
    outlet
    {
        type            calculated;
        value           uniform (0 0 0);
    }
    sideWall
    {
        type            empty;
    }
}


// ************************************************************************* //
