/*--------------------------------*- C++ -*----------------------------------*\
| =========                 |                                                 |
| \\      /  F ield         | foam-extend: Open Source CFD                    |
|  \\    /   O peration     | Version:     3.2                                |
|   \\  /    A nd           | Web:         http://www.foam-extend.org         |
|    \\/     M anipulation  | For copyright notice see file Copyright         |
\*---------------------------------------------------------------------------*/
FoamFile
{
    version     2.0;
    format      ascii;
    class       volScalarField;
    location    "160";
    object      C;
}
// * * * * * * * * * * * * * * * * * * * * * * * * * * * * * * * * * * * * * //

dimensions      [1 -3 0 0 0 0 0];

internalField   nonuniform List<scalar> 
96000
(
0.04
0.04
0.04
0.04
0.04
0.04
0.04
0.04
0.04
0.04
0.04
0.04
0.04
0.04
0.04
0.04
0.04
0.04
0.04
0.04
0.04
0.04
0.04
0.04
0.04
0.04
0.04
0.04
0.04
0.04
0.04
0.04
0.04
0.04
0.04
0.04
0.04
0.04
0.04
0.04
0.04
0.04
0.04
0.04
0.04
0.04
0.04
0.04
0.04
0.04
0.04
0.04
0.04
0.04
0.04
0.04
0.04
0.04
0.04
0.04
0.04
0.04
0.04
0.04
0.04
0.04
0.04
0.04
0.04
0.04
0.04
0.04
0.04
0.04
0.04
0.04
0.04
0.04
0.04
0.04
0.04
0.04
0.04
0.04
0.04
0.04
0.04
0.04
0.04
0.04
0.04
0.04
0.04
0.04
0.04
0.04
0.04
0.04
0.04
0.0400001
0.0398761
0.0397119
0.0397151
0.0396053
0.0396446
0.0394736
0.0396454
0.0393369
0.0396943
0.0404954
0.0389615
0.041144
0.0412631
0.0389687
0.0378977
0.0394871
0.0372274
0.0400371
0.040568
0.0386809
0.0403871
0.0405407
0.0384806
0.0378663
0.0381301
0.0377315
0.039112
0.0395076
0.0395652
0.0405576
0.0387542
0.0373175
0.0374974
0.0379507
0.0381283
0.0401655
0.0417837
0.0394574
0.0369687
0.0373494
0.038504
0.0385755
0.0380534
0.0402851
0.0413633
0.0392945
0.0394929
0.0401297
0.0384598
0.0370084
0.0392497
0.0404968
0.0382793
0.0435861
0.0419789
0.0395098
0.0425976
0.0379023
0.0377098
0.0414413
0.0405188
0.0397956
0.0421921
0.0438755
0.0401075
0.0388308
0.0391793
0.0375349
0.0407395
0.0412812
0.0427493
0.042446
0.0412077
0.0410412
0.0391766
0.0391785
0.0422868
0.0396306
0.042424
0.0439757
0.0397563
0.0391076
0.0421473
0.0375292
0.0375834
0.0408566
0.0426213
0.0392314
0.0421522
0.0409789
0.0405011
0.0396865
0.0419435
0.039051
0.0378034
0.0396136
0.0384915
0.0392932
0.0410243
0.0422621
0.0401981
0.0389627
0.039272
0.037748
0.0387564
0.0411952
0.0446462
0.0424023
0.0392252
0.0390414
0.0411819
0.0367693
0.0365017
0.0398947
0.0402135
0.0385746
0.0380544
0.0435007
0.0399643
0.0410482
0.0420327
0.0407645
0.0390106
0.0388951
0.0405
0.0389337
0.0376983
0.0418216
0.039962
0.0409016
0.0400965
0.0406551
0.0382918
0.0374006
0.0386037
0.0386724
0.0422967
0.0394712
0.0413242
0.0395656
0.040001
0.0400275
0.0412435
0.0389494
0.0396236
0.038384
0.0388137
0.0392987
0.0384239
0.0375429
0.0372466
0.0394188
0.0395837
0.0421167
0.0410902
0.0392815
0.0379245
0.0377695
0.0383227
0.0370328
0.0393239
0.038006
0.0418676
0.0397376
0.0415908
0.0412953
0.042207
0.0407355
0.0391624
0.0417471
0.0413846
0.0395372
0.0400473
0.0401458
0.0408628
0.0397146
0.0398806
0.0400656
0.0389471
0.0408278
0.0399838
0.0433013
0.0405968
0.0399669
0.0411452
0.0422311
0.0412677
0.0407764
0.0406828
0.0404733
0.040643
0.0402838
0.0404802
0.0401614
0.0402756
0.0400443
0.0399518
0.039966
0.0399715
0.0399743
0.04
0.04
0.04
0.04
0.04
0.04
0.04
0.04
0.04
0.04
0.04
0.04
0.04
0.04
0.04
0.04
0.04
0.04
0.04
0.04
0.04
0.04
0.04
0.04
0.04
0.04
0.04
0.04
0.04
0.04
0.04
0.04
0.04
0.04
0.04
0.04
0.04
0.04
0.04
0.04
0.04
0.04
0.04
0.04
0.04
0.04
0.04
0.04
0.04
0.04
0.04
0.04
0.04
0.04
0.04
0.04
0.04
0.04
0.04
0.04
0.04
0.04
0.04
0.04
0.04
0.04
0.04
0.04
0.04
0.04
0.04
0.04
0.04
0.04
0.04
0.04
0.04
0.04
0.04
0.04
0.04
0.04
0.04
0.04
0.04
0.04
0.04
0.04
0.04
0.04
0.04
0.04
0.04
0.04
0.04
0.04
0.04
0.04
0.04
0.04
0.040011
0.0400093
0.0400241
0.0400181
0.0400408
0.0400149
0.0400679
0.0400076
0.0401074
0.0398311
0.0396038
0.0401114
0.0402163
0.0401931
0.0398729
0.0398252
0.0392909
0.0394067
0.0396328
0.0393411
0.0396248
0.0398046
0.0400789
0.0396465
0.0395311
0.0393616
0.0390519
0.0391966
0.0395016
0.0395532
0.0392415
0.03942
0.0397119
0.0394013
0.0393845
0.0393061
0.0400477
0.0397302
0.0393899
0.0395047
0.0395062
0.0396157
0.0395185
0.0394917
0.0396424
0.0394211
0.0395041
0.0397454
0.0398717
0.0395749
0.0396987
0.0401864
0.0397496
0.0398876
0.0400898
0.0398513
0.0403324
0.040159
0.0400455
0.0406929
0.0406714
0.0404664
0.0402148
0.0404955
0.0399118
0.0395565
0.0404164
0.0399523
0.0401627
0.0405028
0.0404275
0.0404531
0.0403162
0.040159
0.0405058
0.0404507
0.0407911
0.0403221
0.0403003
0.0404481
0.0400338
0.0398375
0.0402534
0.0397853
0.0397679
0.0401906
0.0408241
0.0402382
0.0399667
0.0399511
0.0400749
0.0397657
0.0399989
0.0404136
0.0401193
0.0400687
0.0398344
0.0399953
0.0399407
0.0401659
0.0398499
0.0394891
0.0402018
0.0399536
0.0397248
0.0404724
0.0408406
0.0402585
0.0397572
0.0395816
0.0398456
0.0395462
0.0393732
0.0399444
0.0400874
0.0397404
0.0395931
0.0402803
0.0397169
0.0398756
0.0403262
0.039836
0.0401578
0.0403042
0.0405445
0.0399387
0.0394802
0.0398347
0.0396853
0.0397462
0.0396918
0.0399828
0.0400592
0.0399577
0.0397627
0.0396161
0.0398716
0.0395115
0.0397956
0.039725
0.04051
0.0407047
0.0406623
0.0400925
0.0401394
0.0398901
0.0394175
0.0393717
0.0392072
0.0394397
0.0395742
0.0397731
0.0401106
0.0399686
0.0400233
0.0396855
0.0398415
0.0397267
0.0395658
0.0393114
0.0396126
0.0392961
0.0394299
0.0395627
0.0401136
0.0400157
0.040253
0.0401306
0.0397179
0.039994
0.0399817
0.0396361
0.0396661
0.0396716
0.0397802
0.0395815
0.0396214
0.0396186
0.0394324
0.0396441
0.0396278
0.040214
0.0400254
0.0398303
0.0400114
0.0402633
0.040177
0.0401072
0.0400313
0.0399989
0.0400006
0.0399641
0.0399774
0.0399518
0.0399631
0.0399608
0.0399686
0.0399713
0.0399737
0.0399753
0.04
0.04
0.04
0.04
0.04
0.04
0.04
0.04
0.04
0.04
0.04
0.04
0.04
0.04
0.04
0.04
0.04
0.04
0.04
0.04
0.04
0.04
0.04
0.04
0.04
0.04
0.04
0.04
0.04
0.04
0.04
0.04
0.04
0.04
0.04
0.04
0.04
0.04
0.04
0.04
0.04
0.04
0.04
0.04
0.04
0.04
0.04
0.04
0.04
0.04
0.04
0.04
0.04
0.04
0.04
0.04
0.04
0.04
0.04
0.04
0.04
0.04
0.04
0.04
0.04
0.04
0.04
0.04
0.04
0.04
0.04
0.04
0.04
0.04
0.04
0.04
0.04
0.04
0.04
0.04
0.04
0.04
0.04
0.04
0.04
0.04
0.04
0.04
0.04
0.04
0.04
0.04
0.04
0.04
0.04
0.04
0.04
0.04
0.04
0.04
0.0400027
0.040001
0.0400055
0.0400036
0.0400116
0.040003
0.0400211
0.0400025
0.0400352
0.0399598
0.0398687
0.0400468
0.0401004
0.0400757
0.0399562
0.0398703
0.0396555
0.0396611
0.0397482
0.0396474
0.0397232
0.0398294
0.0399743
0.039837
0.039741
0.0396439
0.0395051
0.0395192
0.0396469
0.0396593
0.0395671
0.0396131
0.039759
0.039638
0.0396009
0.0395889
0.0399147
0.039866
0.0396646
0.0396687
0.0396451
0.0396831
0.0396569
0.0396352
0.0396978
0.0396875
0.0397288
0.0397893
0.0398305
0.0397467
0.0397391
0.0399037
0.0398134
0.0398664
0.0399957
0.0399549
0.0401089
0.0401001
0.0400571
0.0402613
0.0403378
0.0402937
0.0401591
0.0402279
0.0400902
0.0399351
0.0401858
0.0400577
0.0400358
0.0401586
0.0402118
0.0402606
0.0402499
0.0401812
0.040276
0.0402466
0.0403248
0.0402247
0.0402392
0.0402924
0.0401664
0.0400565
0.0401565
0.0399682
0.0398891
0.0399644
0.0402187
0.0401365
0.0400476
0.0400159
0.040082
0.0399788
0.0399948
0.0401566
0.0401206
0.040052
0.0399639
0.0400019
0.0399812
0.0400492
0.0399895
0.0398416
0.0399968
0.03997
0.039862
0.0401168
0.0403834
0.0402381
0.0400155
0.0398983
0.0399286
0.0398262
0.0397245
0.0398571
0.039933
0.039852
0.0397805
0.0400039
0.0398784
0.0398971
0.0400851
0.039939
0.0399909
0.0401155
0.0402499
0.0400201
0.0397848
0.0398637
0.0398171
0.0398386
0.0398631
0.0399845
0.040027
0.0400262
0.0399031
0.0397779
0.039869
0.0397718
0.0398621
0.0398452
0.0401111
0.0402698
0.0402891
0.0401128
0.0400769
0.0399892
0.0397885
0.0397047
0.0396316
0.039666
0.0397371
0.0397852
0.0399684
0.0399781
0.0400147
0.0399029
0.0398826
0.0398447
0.0397527
0.0396333
0.0396613
0.039568
0.0396317
0.0397667
0.0399284
0.039946
0.0400863
0.0400892
0.0399157
0.0399626
0.0399515
0.0398081
0.039794
0.0397907
0.0398202
0.0397482
0.0397567
0.0397618
0.0396843
0.0397335
0.0397335
0.0399536
0.0399625
0.0399094
0.0399782
0.0401023
0.0401057
0.0400789
0.040045
0.0400203
0.0400133
0.0399943
0.0399929
0.03998
0.0399792
0.0399758
0.0399753
0.0399752
0.0399757
0.0399764
0.04
0.04
0.04
0.04
0.04
0.04
0.04
0.04
0.04
0.04
0.04
0.04
0.04
0.04
0.04
0.04
0.04
0.04
0.04
0.04
0.04
0.04
0.04
0.04
0.04
0.04
0.04
0.04
0.04
0.04
0.04
0.04
0.04
0.04
0.04
0.04
0.04
0.04
0.04
0.04
0.04
0.04
0.04
0.04
0.04
0.04
0.04
0.04
0.04
0.04
0.04
0.04
0.04
0.04
0.04
0.04
0.04
0.04
0.04
0.04
0.04
0.04
0.04
0.04
0.04
0.04
0.04
0.04
0.04
0.04
0.04
0.04
0.04
0.04
0.04
0.04
0.04
0.04
0.04
0.04
0.04
0.04
0.04
0.04
0.04
0.04
0.04
0.04
0.04
0.04
0.04
0.04
0.04
0.04
0.04
0.04
0.04
0.04
0.04
0.04
0.0400012
0.0400007
0.0400025
0.040002
0.0400057
0.0400026
0.0400104
0.0400038
0.0400171
0.0399952
0.0399516
0.040016
0.04005
0.0400399
0.0399792
0.0399225
0.0398092
0.0397843
0.039814
0.0397722
0.0397927
0.0398543
0.0399379
0.0398962
0.0398428
0.0397824
0.0397061
0.0396829
0.0397295
0.0397398
0.0397131
0.0397217
0.0397874
0.0397464
0.0397195
0.0397137
0.0398609
0.0398722
0.0397729
0.0397514
0.0397378
0.0397499
0.0397338
0.0397209
0.039763
0.0397834
0.039799
0.0398212
0.0398447
0.039815
0.0397962
0.0398547
0.0398317
0.0398662
0.0399411
0.0399447
0.0400154
0.0400401
0.0400261
0.0401171
0.0401879
0.0401856
0.0401183
0.0401388
0.0401
0.0400262
0.0401081
0.0400641
0.0400324
0.0400734
0.0401141
0.0401542
0.0401691
0.0401454
0.0401805
0.0401669
0.0401934
0.0401699
0.0401805
0.0402121
0.0401658
0.040098
0.040121
0.0400301
0.0399491
0.039945
0.0400598
0.0400723
0.040048
0.0400326
0.0400571
0.0400122
0.0400058
0.0400761
0.0400813
0.0400518
0.0400112
0.0400137
0.0399971
0.0400222
0.0400088
0.0399398
0.0399699
0.0399746
0.0399312
0.0400306
0.0401871
0.0401704
0.0400656
0.0399879
0.0399792
0.0399325
0.0398624
0.0398874
0.0399302
0.0399089
0.0398582
0.0399364
0.0399173
0.0399141
0.039985
0.0399395
0.0399551
0.0400342
0.0401254
0.0400418
0.0399072
0.0399015
0.0398807
0.0398872
0.0399112
0.0399802
0.0400114
0.0400207
0.0399593
0.0398757
0.0398989
0.039869
0.0398963
0.0398909
0.0400007
0.0401046
0.0401486
0.0400947
0.0400645
0.0400175
0.0399148
0.0398463
0.0397977
0.0397904
0.0398169
0.0398359
0.0399251
0.0399554
0.0399787
0.0399421
0.0399139
0.039893
0.039847
0.0397796
0.0397587
0.0397218
0.039753
0.0398255
0.0398873
0.0399183
0.0400069
0.0400355
0.0399612
0.0399601
0.0399487
0.0398767
0.039854
0.0398451
0.0398535
0.0398207
0.0398207
0.0398239
0.0397885
0.0397932
0.0397898
0.0398833
0.0399191
0.0399138
0.0399541
0.0400255
0.0400467
0.040042
0.0400282
0.0400139
0.0400072
0.0399964
0.0399924
0.0399851
0.0399822
0.0399794
0.0399782
0.0399774
0.0399773
0.0399774
0.04
0.04
0.04
0.04
0.04
0.04
0.04
0.04
0.04
0.04
0.04
0.04
0.04
0.04
0.04
0.04
0.04
0.04
0.04
0.04
0.04
0.04
0.04
0.04
0.04
0.04
0.04
0.04
0.04
0.04
0.04
0.04
0.04
0.04
0.04
0.04
0.04
0.04
0.04
0.04
0.04
0.04
0.04
0.04
0.04
0.04
0.04
0.04
0.04
0.04
0.04
0.04
0.04
0.04
0.04
0.04
0.04
0.04
0.04
0.04
0.04
0.04
0.04
0.04
0.04
0.04
0.04
0.04
0.04
0.04
0.04
0.04
0.04
0.04
0.04
0.04
0.04
0.04
0.04
0.04
0.04
0.04
0.04
0.04
0.04
0.04
0.04
0.04
0.04
0.04
0.04
0.04
0.04
0.04
0.04
0.04
0.04
0.04
0.04
0.0400001
0.0400008
0.0400008
0.0400016
0.0400016
0.0400036
0.0400025
0.0400063
0.040004
0.0400099
0.0400047
0.0399836
0.0400063
0.0400281
0.0400259
0.0399882
0.0399509
0.0398836
0.0398539
0.039863
0.0398423
0.0398435
0.0398798
0.0399305
0.0399189
0.0398917
0.0398547
0.0398094
0.0397821
0.0397932
0.0398
0.0397946
0.039792
0.0398176
0.0398039
0.0397876
0.039783
0.0398552
0.0398761
0.0398275
0.0398036
0.0397954
0.0397997
0.0397851
0.0397761
0.0398116
0.039837
0.0398397
0.0398495
0.0398679
0.0398533
0.0398337
0.0398531
0.039844
0.0398692
0.0399203
0.0399329
0.0399743
0.0400032
0.0399989
0.0400482
0.0401044
0.0401119
0.0400801
0.0400941
0.0400866
0.0400483
0.0400754
0.0400543
0.040029
0.0400416
0.0400671
0.0400983
0.0401194
0.0401158
0.0401317
0.040123
0.0401329
0.0401298
0.0401361
0.04016
0.0401448
0.0401002
0.0401017
0.0400525
0.0399825
0.0399537
0.0400087
0.040035
0.040032
0.040031
0.0400419
0.040017
0.0400122
0.0400467
0.0400527
0.0400418
0.0400241
0.0400162
0.0400018
0.040015
0.0400141
0.0399773
0.0399761
0.0399801
0.0399595
0.0400013
0.0400939
0.0401143
0.0400672
0.040018
0.0400062
0.0399814
0.0399281
0.0399194
0.0399454
0.0399397
0.039898
0.0399237
0.0399311
0.0399263
0.0399529
0.03994
0.0399485
0.0399958
0.0400587
0.040035
0.0399563
0.039929
0.0399183
0.0399228
0.0399382
0.039981
0.0400054
0.0400108
0.0399768
0.0399242
0.0399258
0.0399171
0.0399254
0.0399226
0.0399721
0.0400342
0.0400763
0.0400677
0.040051
0.0400203
0.0399626
0.0399178
0.0398829
0.0398638
0.0398663
0.0398704
0.0399128
0.0399393
0.0399596
0.039952
0.0399333
0.0399187
0.0398956
0.0398564
0.0398292
0.0398108
0.0398269
0.0398627
0.0398888
0.0399143
0.0399716
0.0400009
0.0399702
0.0399623
0.0399536
0.039913
0.0398909
0.0398798
0.0398813
0.0398638
0.039861
0.0398619
0.0398439
0.0398364
0.0398298
0.0398726
0.039903
0.0399112
0.0399408
0.0399874
0.0400097
0.0400147
0.0400115
0.0400045
0.0400001
0.0399938
0.0399902
0.0399856
0.0399828
0.0399806
0.0399794
0.0399787
0.0399782
0.0399781
0.04
0.04
0.04
0.04
0.04
0.04
0.04
0.04
0.04
0.04
0.04
0.04
0.04
0.04
0.04
0.04
0.04
0.04
0.04
0.04
0.04
0.04
0.04
0.04
0.04
0.04
0.04
0.04
0.04
0.04
0.04
0.04
0.04
0.04
0.04
0.04
0.04
0.04
0.04
0.04
0.04
0.04
0.04
0.04
0.04
0.04
0.04
0.04
0.04
0.04
0.04
0.04
0.04
0.04
0.04
0.04
0.04
0.04
0.04
0.04
0.04
0.04
0.04
0.04
0.04
0.04
0.04
0.04
0.04
0.04
0.04
0.04
0.04
0.04
0.04
0.04
0.04
0.04
0.04
0.04
0.04
0.04
0.04
0.04
0.04
0.04
0.04
0.04
0.04
0.04
0.04
0.04
0.04
0.04
0.04
0.04
0.04
0.04
0.04
0.0400001
0.0400008
0.040001
0.0400015
0.0400017
0.0400029
0.0400026
0.0400046
0.040004
0.0400066
0.040007
0.0399965
0.0400027
0.040018
0.0400201
0.0399935
0.0399675
0.0399237
0.0398956
0.0398974
0.0398861
0.0398805
0.0399029
0.0399353
0.0399325
0.0399183
0.0398953
0.039867
0.0398438
0.0398401
0.0398447
0.0398479
0.0398419
0.0398473
0.0398416
0.0398312
0.0398266
0.0398654
0.0398856
0.0398619
0.0398413
0.0398357
0.0398376
0.0398221
0.0398136
0.0398456
0.0398712
0.0398686
0.039874
0.0398909
0.0398807
0.0398612
0.0398641
0.0398556
0.0398734
0.0399126
0.0399269
0.0399566
0.0399837
0.0399811
0.0400104
0.0400541
0.0400613
0.0400467
0.0400638
0.0400697
0.0400497
0.0400583
0.0400443
0.0400236
0.0400251
0.040041
0.0400664
0.0400883
0.0400941
0.0401032
0.0400952
0.0400978
0.0400997
0.0401025
0.0401222
0.0401206
0.0400902
0.0400874
0.04006
0.0400021
0.0399661
0.0399923
0.0400137
0.0400156
0.0400231
0.0400309
0.0400146
0.0400143
0.0400347
0.0400357
0.0400313
0.0400252
0.0400141
0.0400007
0.0400109
0.0400155
0.0399945
0.0399866
0.0399867
0.0399726
0.0399886
0.040045
0.0400736
0.0400552
0.0400258
0.0400196
0.0400067
0.0399634
0.0399432
0.0399605
0.0399591
0.0399214
0.0399256
0.039939
0.0399355
0.0399456
0.0399454
0.0399514
0.0399782
0.0400217
0.0400226
0.0399751
0.0399454
0.0399407
0.0399467
0.0399561
0.0399847
0.0400046
0.0400053
0.0399824
0.0399483
0.0399445
0.039944
0.039947
0.039946
0.0399697
0.0400043
0.0400369
0.0400449
0.0400375
0.0400147
0.0399796
0.0399542
0.0399313
0.0399108
0.039901
0.0398954
0.0399132
0.0399314
0.0399501
0.0399556
0.039946
0.0399352
0.0399235
0.0399
0.0398758
0.0398646
0.0398734
0.0398899
0.0399006
0.0399193
0.0399568
0.0399806
0.0399692
0.0399632
0.0399583
0.0399343
0.0399153
0.0399038
0.0399027
0.0398923
0.0398885
0.0398879
0.0398775
0.0398671
0.0398592
0.0398799
0.0399012
0.0399109
0.039934
0.0399673
0.0399867
0.0399953
0.0399975
0.0399954
0.0399933
0.0399898
0.0399873
0.0399843
0.0399822
0.0399805
0.0399798
0.0399792
0.0399788
0.0399786
0.04
0.04
0.04
0.04
0.04
0.04
0.04
0.04
0.04
0.04
0.04
0.04
0.04
0.04
0.04
0.04
0.04
0.04
0.04
0.04
0.04
0.04
0.04
0.04
0.04
0.04
0.04
0.04
0.04
0.04
0.04
0.04
0.04
0.04
0.04
0.04
0.04
0.04
0.04
0.04
0.04
0.04
0.04
0.04
0.04
0.04
0.04
0.04
0.04
0.04
0.04
0.04
0.04
0.04
0.04
0.04
0.04
0.04
0.04
0.04
0.04
0.04
0.04
0.04
0.04
0.04
0.04
0.04
0.04
0.04
0.04
0.04
0.04
0.04
0.04
0.04
0.04
0.04
0.04
0.04
0.04
0.04
0.04
0.04
0.04
0.04
0.04
0.04
0.04
0.04
0.04
0.04
0.04
0.04
0.04
0.04
0.04
0.04
0.04
0.0400002
0.0400008
0.0400012
0.0400016
0.0400018
0.0400025
0.0400026
0.0400038
0.0400037
0.0400048
0.0400072
0.040002
0.0400013
0.040013
0.0400171
0.0399961
0.0399769
0.0399471
0.0399228
0.0399227
0.0399165
0.0399084
0.0399228
0.0399438
0.039942
0.0399337
0.0399195
0.0399021
0.0398847
0.0398754
0.0398788
0.0398858
0.0398785
0.0398729
0.0398684
0.0398617
0.0398578
0.0398815
0.039899
0.0398869
0.0398691
0.0398648
0.0398661
0.0398498
0.0398409
0.0398713
0.0398966
0.0398916
0.0398947
0.0399101
0.0399008
0.0398815
0.0398771
0.0398668
0.0398799
0.0399128
0.0399268
0.0399505
0.0399739
0.0399693
0.039987
0.0400213
0.040026
0.04002
0.040042
0.0400555
0.0400455
0.0400471
0.0400344
0.040016
0.0400137
0.0400252
0.0400479
0.0400692
0.0400787
0.0400841
0.0400746
0.0400731
0.0400761
0.0400773
0.040095
0.0400997
0.0400777
0.0400754
0.0400604
0.0400119
0.0399749
0.039987
0.0400015
0.0400033
0.0400155
0.0400236
0.0400115
0.0400144
0.0400286
0.0400245
0.0400214
0.0400212
0.0400097
0.0399976
0.0400084
0.0400165
0.0400038
0.0399952
0.0399913
0.0399782
0.0399815
0.0400176
0.0400464
0.0400422
0.0400257
0.0400255
0.0400196
0.0399822
0.0399581
0.0399711
0.0399714
0.0399367
0.0399316
0.0399461
0.0399445
0.0399484
0.0399535
0.0399574
0.0399699
0.0399996
0.0400107
0.039981
0.0399548
0.0399553
0.0399638
0.0399695
0.0399896
0.0400057
0.0400021
0.0399832
0.0399599
0.0399569
0.0399617
0.0399641
0.0399641
0.0399749
0.0399912
0.0400139
0.0400272
0.0400254
0.0400075
0.0399855
0.0399742
0.039961
0.0399418
0.0399254
0.0399134
0.0399184
0.0399303
0.0399476
0.0399588
0.0399547
0.0399459
0.03994
0.0399253
0.0399054
0.0398984
0.0399046
0.0399116
0.0399145
0.0399274
0.0399522
0.0399698
0.0399665
0.0399633
0.0399619
0.0399478
0.0399321
0.0399212
0.0399192
0.0399126
0.0399087
0.039907
0.0399
0.0398897
0.0398816
0.0398922
0.0399061
0.0399135
0.0399317
0.0399567
0.0399726
0.0399819
0.0399868
0.0399877
0.0399875
0.039986
0.0399845
0.0399828
0.0399812
0.0399801
0.0399798
0.0399795
0.0399791
0.039979
0.04
0.04
0.04
0.04
0.04
0.04
0.04
0.04
0.04
0.04
0.04
0.04
0.04
0.04
0.04
0.04
0.04
0.04
0.04
0.04
0.04
0.04
0.04
0.04
0.04
0.04
0.04
0.04
0.04
0.04
0.04
0.04
0.04
0.04
0.04
0.04
0.04
0.04
0.04
0.04
0.04
0.04
0.04
0.04
0.04
0.04
0.04
0.04
0.04
0.04
0.04
0.04
0.04
0.04
0.04
0.04
0.04
0.04
0.04
0.04
0.04
0.04
0.04
0.04
0.04
0.04
0.04
0.04
0.04
0.04
0.04
0.04
0.04
0.04
0.04
0.04
0.04
0.04
0.04
0.04
0.04
0.04
0.04
0.04
0.04
0.04
0.04
0.04
0.04
0.04
0.04
0.04
0.04
0.04
0.04
0.04
0.04
0.04
0.04
0.0400003
0.0400009
0.0400013
0.0400017
0.0400019
0.0400024
0.0400026
0.0400034
0.0400034
0.0400036
0.0400064
0.0400043
0.0400012
0.0400109
0.0400157
0.0399976
0.0399818
0.0399604
0.0399407
0.0399417
0.0399386
0.0399302
0.0399401
0.0399535
0.0399495
0.0399428
0.0399338
0.0399243
0.039913
0.0399024
0.0399055
0.0399146
0.0399067
0.0398945
0.0398881
0.039883
0.0398814
0.0398993
0.0399145
0.0399069
0.0398908
0.0398867
0.0398875
0.0398703
0.0398611
0.0398908
0.0399167
0.0399114
0.0399129
0.0399264
0.0399165
0.0398971
0.0398885
0.0398762
0.0398869
0.0399174
0.0399311
0.0399509
0.0399702
0.0399624
0.0399717
0.0399985
0.0400002
0.0399987
0.0400254
0.0400448
0.0400413
0.0400394
0.0400255
0.0400072
0.0400033
0.0400139
0.0400362
0.0400577
0.0400686
0.0400712
0.0400589
0.0400536
0.0400563
0.0400576
0.0400746
0.0400826
0.0400664
0.0400659
0.040058
0.0400165
0.0399801
0.0399844
0.0399936
0.0399945
0.0400093
0.0400186
0.0400094
0.0400144
0.0400252
0.0400171
0.0400128
0.0400149
0.0400039
0.0399934
0.0400061
0.0400178
0.0400106
0.0400018
0.0399944
0.0399796
0.0399759
0.0400006
0.0400277
0.0400313
0.0400235
0.0400282
0.0400264
0.0399924
0.0399668
0.0399774
0.0399785
0.0399465
0.0399378
0.0399524
0.0399525
0.0399555
0.0399633
0.0399647
0.039967
0.0399862
0.0400002
0.0399808
0.0399595
0.0399645
0.0399762
0.0399805
0.0399952
0.040008
0.0400007
0.039982
0.0399644
0.0399643
0.0399737
0.0399783
0.0399793
0.0399823
0.0399861
0.0400003
0.0400143
0.0400148
0.0399999
0.0399866
0.0399866
0.0399811
0.0399635
0.039943
0.0399265
0.039924
0.0399323
0.0399495
0.0399636
0.0399616
0.0399532
0.0399503
0.0399406
0.0399235
0.0399187
0.0399258
0.0399292
0.0399276
0.0399359
0.0399522
0.0399644
0.039964
0.0399632
0.0399644
0.0399566
0.0399439
0.0399341
0.0399319
0.0399274
0.0399236
0.0399214
0.039916
0.0399064
0.039899
0.0399048
0.0399137
0.0399181
0.0399322
0.0399515
0.039964
0.0399728
0.0399788
0.0399815
0.0399826
0.0399825
0.039982
0.0399811
0.0399802
0.0399796
0.0399796
0.0399795
0.0399793
0.0399792
0.04
0.04
0.04
0.04
0.04
0.04
0.04
0.04
0.04
0.04
0.04
0.04
0.04
0.04
0.04
0.04
0.04
0.04
0.04
0.04
0.04
0.04
0.04
0.04
0.04
0.04
0.04
0.04
0.04
0.04
0.04
0.04
0.04
0.04
0.04
0.04
0.04
0.04
0.04
0.04
0.04
0.04
0.04
0.04
0.04
0.04
0.04
0.04
0.04
0.04
0.04
0.04
0.04
0.04
0.04
0.04
0.04
0.04
0.04
0.04
0.04
0.04
0.04
0.04
0.04
0.04
0.04
0.04
0.04
0.04
0.04
0.04
0.04
0.04
0.04
0.04
0.04
0.04
0.04
0.04
0.04
0.04
0.04
0.04
0.04
0.04
0.04
0.04
0.04
0.04
0.04
0.04
0.04
0.04
0.04
0.04
0.04
0.04
0.04
0.0400004
0.0400011
0.0400018
0.0400022
0.0400025
0.0400029
0.0400032
0.0400037
0.0400038
0.0400033
0.0400056
0.0400046
0.0400009
0.0400103
0.0400161
0.04
0.0399855
0.039968
0.0399513
0.0399539
0.0399539
0.039947
0.0399554
0.0399646
0.039958
0.0399502
0.0399425
0.0399372
0.0399307
0.0399213
0.0399262
0.0399379
0.0399305
0.0399143
0.0399048
0.0398988
0.0398979
0.039914
0.0399293
0.0399248
0.03991
0.0399054
0.0399048
0.0398858
0.0398752
0.039904
0.0399308
0.0399272
0.0399294
0.039942
0.0399314
0.0399116
0.0398996
0.0398838
0.0398916
0.0399209
0.0399361
0.0399551
0.0399718
0.039961
0.0399636
0.0399834
0.0399811
0.0399808
0.0400104
0.040035
0.0400374
0.0400352
0.0400203
0.0400005
0.0399943
0.0400035
0.0400257
0.0400484
0.0400615
0.0400633
0.0400489
0.0400398
0.04004
0.0400405
0.0400567
0.0400668
0.0400557
0.0400582
0.0400559
0.0400199
0.0399847
0.0399839
0.0399877
0.0399868
0.0400026
0.0400132
0.040007
0.0400147
0.0400248
0.040014
0.0400076
0.0400093
0.0399975
0.0399874
0.0400014
0.0400171
0.0400153
0.0400082
0.0399985
0.039981
0.0399714
0.039988
0.0400126
0.0400207
0.0400198
0.0400295
0.0400314
0.0399998
0.0399735
0.0399823
0.0399831
0.0399519
0.0399415
0.0399563
0.0399584
0.0399624
0.039973
0.0399736
0.0399691
0.03998
0.0399929
0.039978
0.0399599
0.0399682
0.0399831
0.0399884
0.0400012
0.0400121
0.0400022
0.0399819
0.0399659
0.0399672
0.03998
0.0399881
0.0399916
0.0399913
0.039987
0.0399941
0.0400064
0.0400068
0.0399922
0.0399837
0.0399923
0.0399946
0.0399804
0.0399582
0.0399378
0.0399296
0.0399343
0.0399515
0.0399683
0.0399688
0.0399604
0.0399582
0.0399509
0.0399353
0.039931
0.0399385
0.039941
0.0399377
0.0399431
0.039954
0.0399617
0.0399619
0.0399623
0.0399657
0.0399621
0.0399519
0.0399431
0.039941
0.039938
0.0399345
0.039932
0.0399272
0.0399184
0.0399119
0.0399159
0.0399215
0.0399233
0.0399341
0.0399492
0.0399587
0.0399663
0.0399725
0.0399761
0.0399782
0.0399791
0.0399793
0.0399791
0.0399788
0.0399788
0.0399792
0.0399794
0.0399794
0.0399793
0.04
0.04
0.04
0.04
0.04
0.04
0.04
0.04
0.04
0.04
0.04
0.04
0.04
0.04
0.04
0.04
0.04
0.04
0.04
0.04
0.04
0.04
0.04
0.04
0.04
0.04
0.04
0.04
0.04
0.04
0.04
0.04
0.04
0.04
0.04
0.04
0.04
0.04
0.04
0.04
0.04
0.04
0.04
0.04
0.04
0.04
0.04
0.04
0.04
0.04
0.04
0.04
0.04
0.04
0.04
0.04
0.04
0.04
0.04
0.04
0.04
0.04
0.04
0.04
0.04
0.04
0.04
0.04
0.04
0.04
0.04
0.04
0.04
0.04
0.04
0.04
0.04
0.04
0.04
0.04
0.04
0.04
0.04
0.04
0.04
0.04
0.04
0.04
0.04
0.04
0.04
0.04
0.04
0.04
0.04
0.04
0.04
0.04
0.04
0.0400004
0.0400013
0.0400022
0.0400028
0.0400032
0.0400036
0.0400038
0.0400042
0.0400043
0.0400034
0.0400052
0.0400042
0.0400003
0.0400102
0.0400172
0.0400024
0.0399885
0.0399728
0.0399576
0.0399617
0.0399649
0.0399602
0.0399684
0.0399753
0.0399664
0.0399565
0.0399483
0.0399449
0.039942
0.0399351
0.0399424
0.0399568
0.0399503
0.0399314
0.0399191
0.0399115
0.0399101
0.0399259
0.0399428
0.0399408
0.0399266
0.039921
0.039919
0.0398979
0.0398857
0.0399137
0.0399414
0.0399401
0.0399439
0.0399561
0.0399444
0.0399241
0.0399097
0.0398906
0.0398953
0.039924
0.0399415
0.0399612
0.039976
0.0399623
0.0399597
0.0399734
0.039967
0.0399663
0.0399978
0.0400266
0.0400341
0.0400329
0.0400168
0.0399953
0.0399866
0.039994
0.0400166
0.040041
0.0400563
0.0400581
0.040042
0.0400296
0.0400267
0.0400257
0.0400417
0.0400536
0.0400461
0.0400519
0.0400538
0.0400217
0.0399881
0.0399841
0.0399833
0.0399802
0.0399969
0.0400088
0.0400046
0.0400149
0.0400255
0.0400128
0.0400042
0.0400047
0.0399915
0.0399811
0.0399963
0.0400154
0.0400185
0.0400138
0.0400025
0.0399822
0.0399679
0.0399784
0.0400008
0.0400116
0.0400157
0.0400301
0.0400349
0.0400048
0.0399781
0.0399857
0.0399859
0.0399549
0.0399434
0.0399591
0.0399635
0.0399686
0.0399815
0.0399826
0.0399734
0.0399776
0.039988
0.0399748
0.0399585
0.0399693
0.0399868
0.0399939
0.0400068
0.0400168
0.0400045
0.0399822
0.0399661
0.0399679
0.0399832
0.039995
0.0400016
0.0400002
0.0399903
0.0399916
0.0400015
0.0400011
0.039986
0.0399797
0.0399944
0.0400041
0.0399939
0.0399707
0.0399475
0.039935
0.0399365
0.0399534
0.0399729
0.039976
0.0399673
0.0399642
0.0399576
0.0399432
0.0399388
0.0399462
0.039949
0.0399459
0.0399495
0.0399565
0.0399608
0.0399604
0.0399615
0.0399664
0.0399658
0.0399576
0.0399498
0.0399479
0.0399459
0.0399428
0.0399401
0.0399355
0.0399274
0.0399218
0.0399253
0.0399292
0.0399287
0.0399369
0.0399487
0.0399558
0.039962
0.0399678
0.0399719
0.0399745
0.0399761
0.0399769
0.0399773
0.0399774
0.0399779
0.0399788
0.0399793
0.0399794
0.0399794
0.04
0.04
0.04
0.04
0.04
0.04
0.04
0.04
0.04
0.04
0.04
0.04
0.04
0.04
0.04
0.04
0.04
0.04
0.04
0.04
0.04
0.04
0.04
0.04
0.04
0.04
0.04
0.04
0.04
0.04
0.04
0.04
0.04
0.04
0.04
0.04
0.04
0.04
0.04
0.04
0.04
0.04
0.04
0.04
0.04
0.04
0.04
0.04
0.04
0.04
0.04
0.04
0.04
0.04
0.04
0.04
0.04
0.04
0.04
0.04
0.04
0.04
0.04
0.04
0.04
0.04
0.04
0.04
0.04
0.04
0.04
0.04
0.04
0.04
0.04
0.04
0.04
0.04
0.04
0.04
0.04
0.04
0.04
0.04
0.04
0.04
0.04
0.04
0.04
0.04
0.04
0.04
0.04
0.04
0.04
0.04
0.04
0.04
0.0400001
0.0400005
0.0400015
0.0400024
0.0400031
0.0400034
0.0400038
0.040004
0.0400043
0.0400043
0.0400032
0.0400048
0.0400041
0.0400005
0.0400105
0.0400176
0.0400029
0.0399892
0.0399755
0.0399629
0.0399691
0.0399746
0.0399714
0.0399789
0.0399837
0.0399723
0.0399603
0.0399523
0.0399512
0.0399519
0.0399471
0.0399558
0.0399717
0.0399656
0.0399442
0.0399293
0.0399214
0.0399212
0.0399383
0.0399562
0.0399543
0.0399391
0.0399326
0.0399296
0.0399074
0.0398948
0.0399231
0.039952
0.0399525
0.0399565
0.0399669
0.0399536
0.0399329
0.0399173
0.0398968
0.0399007
0.0399299
0.0399491
0.0399681
0.0399801
0.0399632
0.0399562
0.0399654
0.0399564
0.0399559
0.0399896
0.0400217
0.0400325
0.0400308
0.0400119
0.0399886
0.039979
0.0399868
0.0400112
0.040037
0.040053
0.0400536
0.0400347
0.0400195
0.040015
0.0400142
0.0400313
0.0400446
0.0400392
0.0400467
0.0400506
0.0400205
0.039988
0.0399826
0.0399797
0.0399763
0.0399943
0.0400071
0.0400039
0.0400155
0.0400257
0.0400107
0.0399998
0.0399994
0.0399858
0.0399761
0.0399934
0.0400155
0.0400219
0.0400176
0.0400037
0.039981
0.0399644
0.0399718
0.0399936
0.0400064
0.0400134
0.0400302
0.0400362
0.0400063
0.0399793
0.0399861
0.0399866
0.0399568
0.0399454
0.0399624
0.0399694
0.0399756
0.0399896
0.0399902
0.0399765
0.0399753
0.0399835
0.0399715
0.0399576
0.039971
0.0399909
0.0399993
0.0400119
0.0400202
0.0400053
0.039981
0.0399648
0.0399681
0.0399869
0.0400022
0.0400105
0.0400071
0.0399924
0.0399892
0.0399974
0.0399963
0.0399814
0.0399776
0.0399973
0.040012
0.0400038
0.039979
0.0399537
0.0399395
0.0399401
0.0399577
0.0399787
0.0399821
0.0399721
0.0399677
0.0399613
0.0399476
0.0399435
0.0399522
0.0399569
0.039954
0.0399554
0.0399594
0.0399615
0.0399603
0.0399614
0.0399673
0.0399688
0.0399621
0.0399551
0.0399536
0.0399523
0.0399496
0.0399469
0.0399424
0.039935
0.0399302
0.0399337
0.0399365
0.0399344
0.0399404
0.0399498
0.0399548
0.0399597
0.039965
0.0399691
0.039972
0.039974
0.0399752
0.039976
0.0399765
0.0399774
0.0399786
0.0399793
0.0399794
0.0399795
0.04
0.04
0.04
0.04
0.04
0.04
0.04
0.04
0.04
0.04
0.04
0.04
0.04
0.04
0.04
0.04
0.04
0.04
0.04
0.04
0.04
0.04
0.04
0.04
0.04
0.04
0.04
0.04
0.04
0.04
0.04
0.04
0.04
0.04
0.04
0.04
0.04
0.04
0.04
0.04
0.04
0.04
0.04
0.04
0.04
0.04
0.04
0.04
0.04
0.04
0.04
0.04
0.04
0.04
0.04
0.04
0.04
0.04
0.04
0.04
0.04
0.04
0.04
0.04
0.04
0.04
0.04
0.04
0.04
0.04
0.04
0.04
0.04
0.04
0.04
0.04
0.04
0.04
0.04
0.04
0.04
0.04
0.04
0.04
0.04
0.04
0.04
0.04
0.04
0.04
0.04
0.04
0.04
0.04
0.04
0.04
0.04
0.04
0.0400001
0.0400006
0.0400017
0.0400026
0.0400033
0.0400036
0.040004
0.0400042
0.0400045
0.0400042
0.0400027
0.0400042
0.0400044
0.0400018
0.0400116
0.0400179
0.0400025
0.0399881
0.039976
0.0399669
0.0399757
0.0399829
0.0399808
0.0399882
0.0399911
0.0399768
0.0399623
0.0399542
0.039956
0.0399603
0.0399575
0.039967
0.039984
0.0399782
0.0399545
0.0399365
0.0399281
0.0399308
0.0399507
0.0399691
0.0399659
0.0399492
0.0399415
0.0399375
0.0399145
0.039902
0.0399311
0.039962
0.0399645
0.0399681
0.0399759
0.0399608
0.0399396
0.0399226
0.0399011
0.0399059
0.0399371
0.0399578
0.0399756
0.0399845
0.0399647
0.0399537
0.0399587
0.0399479
0.039948
0.0399837
0.0400193
0.0400329
0.0400297
0.0400071
0.0399811
0.0399711
0.0399806
0.0400075
0.0400354
0.0400519
0.0400504
0.040028
0.0400097
0.040004
0.0400047
0.0400234
0.0400381
0.0400348
0.0400432
0.0400476
0.0400185
0.0399863
0.0399796
0.0399759
0.0399737
0.0399929
0.0400066
0.0400048
0.0400171
0.040026
0.0400089
0.0399956
0.0399937
0.0399802
0.0399717
0.0399912
0.0400166
0.0400257
0.0400209
0.0400038
0.0399785
0.0399603
0.0399665
0.0399887
0.0400034
0.0400126
0.0400307
0.0400367
0.0400068
0.0399791
0.0399849
0.0399856
0.0399575
0.0399469
0.039965
0.0399745
0.0399829
0.039998
0.0399972
0.0399795
0.0399735
0.0399792
0.039968
0.0399565
0.0399723
0.0399945
0.0400046
0.0400169
0.0400232