/*--------------------------------*- C++ -*----------------------------------*\
| =========                 |                                                 |
| \\      /  F ield         | foam-extend: Open Source CFD                    |
|  \\    /   O peration     | Version:     3.2                                |
|   \\  /    A nd           | Web:         http://www.foam-extend.org         |
|    \\/     M anipulation  | For copyright notice see file Copyright         |
\*---------------------------------------------------------------------------*/
FoamFile
{
    version     2.0;
    format      ascii;
    class       areaScalarField;
    location    "160";
    object      Ce1;
}
// * * * * * * * * * * * * * * * * * * * * * * * * * * * * * * * * * * * * * //

dimensions      [1 -3 0 0 0 0 0];

internalField   nonuniform List<scalar> 
300
(
5.38825
3.82633
2.20717
1.64038
1.44168
1.34094
1.26953
1.20812
1.15248
1.10276
1.059
1.02039
0.985869
0.955409
0.928266
0.903825
0.881657
0.861364
0.842914
0.826211
0.810795
0.796407
0.782967
0.770426
0.758717
0.747698
0.737325
0.727516
0.718254
0.709525
0.701212
0.693336
0.685794
0.678637
0.671786
0.665278
0.659004
0.653022
0.647248
0.641724
0.63641
0.631304
0.626372
0.621627
0.617026
0.612612
0.608321
0.604207
0.600177
0.596324
0.592534
0.588914
0.585356
0.581952
0.578596
0.575383
0.572208
0.56918
0.566128
0.563259
0.560361
0.557656
0.554908
0.552359
0.549751
0.547359
0.544882
0.542637
0.54029
0.53819
0.535976
0.534032
0.531956
0.530175
0.528246
0.526644
0.524892
0.523488
0.521953
0.520788
0.519519
0.518647
0.517735
0.517232
0.516843
0.516784
0.517008
0.517711
0.518801
0.520573
0.523151
0.526461
0.531486
0.537159
0.547164
0.557734
0.581236
0.591305
0.725769
0.316935
0.111405
0.12676
0.142093
0.151171
0.165688
0.170421
0.190267
0.186185
0.21778
0.0258542
0.0234271
0.244454
0.218286
0.268655
0.238517
0.0279496
0.0175507
0.0226433
0.0272504
0.0215487
0.229028
0.245579
0.338664
0.164344
0.0180919
0.0221617
0.0203291
0.0247817
0.0206811
0.289305
0.193417
0.232366
0.265293
0.019285
0.0254184
0.0219076
0.0312016
0.237283
0.240678
0.269935
0.231607
0.0289318
0.021286
0.0241736
0.0261301
0.032987
0.30802
0.268123
0.292079
0.307119
0.317452
0.0279279
0.025706
0.0408478
0.0414322
0.26793
0.322528
0.319691
0.313107
0.324917
0.0365497
0.0397191
0.0292937
0.0315039
0.321845
0.287574
0.32084
0.292052
0.040979
0.0332723
0.031937
0.0300069
0.326993
0.326848
0.324598
0.339626
0.0381228
0.02451
0.0282615
0.0340197
0.0242503
0.244981
0.318161
0.227818
0.357513
0.340752
0.0375073
0.027812
0.0343979
0.0247813
0.026766
0.030218
0.315867
0.307879
0.261475
0.298088
0.0298004
0.0399902
0.0251944
0.0280766
0.306593
0.285032
0.344413
0.340693
0.0280857
0.0284975
0.0342119
0.0298131
0.0288492
0.277303
0.281003
0.275797
0.229665
0.294586
0.2756
0.0376733
0.030584
0.0348435
0.0246456
0.024799
0.331187
0.315829
0.371742
0.239953
0.282525
0.027275
0.0274007
0.0289657
0.0233581
0.0351141
0.292393
0.26718
0.212655
0.286774
0.0232385
0.0220488
0.030213
0.02128
0.358903
0.238842
0.371659
0.322657
0.340809
0.213681
0.0282815
0.0264993
0.0234005
0.0308242
0.251273
0.259781
0.251518
0.0330436
0.0287942
0.0314223
0.0292349
0.269256
0.271268
0.288901
0.201477
0.19417
0.0270393
0.019702
0.0376806
0.0318099
0.0314488
0.0265726
0.0358815
0.0248627
0.0253784
0.0305705
0.0312952
0.0239239
0.0235522
0.0278918
0.0253094
0.0274117
0.0221397
0.0327515
0.0211636
0.0408863
0.0292705
0.0515751
0.0297955
0.0330894
0.0316107
0.0337819
0.0325743
0.0249105
0.0311351
0.0261197
0.0318729
0.0281368
0.0338416
0.0330276
0.0400136
0.0479794
0.215659
0.614576
0.404662
0.353002
)
;

boundaryField
{
    inlet
    {
        type            calculated;
        value           uniform 0;
    }
    outlet
    {
        type            calculated;
        value           uniform 0;
    }
    sideWall
    {
        type            empty;
    }
}


// ************************************************************************* //
