/*--------------------------------*- C++ -*----------------------------------*\
| =========                 |                                                 |
| \\      /  F ield         | foam-extend: Open Source CFD                    |
|  \\    /   O peration     | Version:     3.2                                |
|   \\  /    A nd           | Web:         http://www.foam-extend.org         |
|    \\/     M anipulation  | For copyright notice see file Copyright         |
\*---------------------------------------------------------------------------*/
FoamFile
{
    version     2.0;
    format      ascii;
    class       areaScalarField;
    location    "160";
    object      Cpre;
}
// * * * * * * * * * * * * * * * * * * * * * * * * * * * * * * * * * * * * * //

dimensions      [1 -3 0 0 0 0 0];

internalField   nonuniform List<scalar> 
300
(
0.04
0.04
0.04
0.04
0.04
0.04
0.04
0.04
0.04
0.04
0.04
0.04
0.04
0.04
0.04
0.04
0.04
0.04
0.04
0.04
0.04
0.04
0.04
0.04
0.04
0.04
0.04
0.04
0.04
0.04
0.04
0.04
0.04
0.04
0.04
0.04
0.04
0.04
0.04
0.04
0.04
0.04
0.04
0.04
0.04
0.04
0.04
0.04
0.04
0.04
0.04
0.04
0.04
0.04
0.04
0.04
0.04
0.04
0.04
0.04
0.04
0.04
0.04
0.04
0.04
0.04
0.04
0.04
0.04
0.04
0.04
0.04
0.04
0.04
0.04
0.04
0.04
0.04
0.04
0.04
0.04
0.04
0.04
0.04
0.04
0.04
0.04
0.04
0.04
0.04
0.04
0.04
0.04
0.04
0.04
0.04
0.04
0.04
0.04
0.0400001
0.0401349
0.0402093
0.0403068
0.0403132
0.040437
0.0403463
0.0406075
0.040333
0.040835
0.0395468
0.0380642
0.0395221
0.0401405
0.040391
0.0391319
0.0408887
0.0383425
0.0389685
0.0386957
0.0376441
0.0391205
0.0393392
0.0399454
0.0390605
0.0394376
0.0390788
0.0380692
0.0377444
0.038326
0.0391278
0.0379191
0.0386034
0.038972
0.0391519
0.0394409
0.0388081
0.0393574
0.0378892
0.0381876
0.0386655
0.0399141
0.0402213
0.039432
0.0394605
0.0401874
0.0377708
0.0377634
0.0392401
0.0398065
0.0385335
0.040836
0.0423755
0.0394837
0.0408763
0.0393267
0.0383094
0.0405334
0.0395033
0.0392787
0.043217
0.0423258
0.0415679
0.0408492
0.0421113
0.0379986
0.0372428
0.0408063
0.0388883
0.0424513
0.0428983
0.0412388
0.0410179
0.0391686
0.0388811
0.0408113
0.0408658
0.0441883
0.0409531
0.0406761
0.041587
0.0384553
0.038143
0.0402478
0.0387823
0.0390632
0.0426696
0.0444417
0.0405895
0.0401138
0.0400429
0.0388284
0.0377992
0.0398677
0.040882
0.0392039
0.041179
0.0398813
0.0408821
0.0400942
0.0410472
0.0382407
0.0373103
0.040937
0.0393624
0.0402386
0.0429676
0.0425376
0.0404182
0.0380333
0.0376434
0.0394517
0.0381627
0.0377796
0.041443
0.0417419
0.0399992
0.0394001
0.0419143
0.0391212
0.0401309
0.0399665
0.0381825
0.0406963
0.0403544
0.0421221
0.0404547
0.0389855
0.0402928
0.0394067
0.0388048
0.0380988
0.0394995
0.0396888
0.038923
0.0400946
0.0399556
0.0405128
0.0387332
0.0387716
0.038525
0.0416791
0.0417178
0.0429535
0.0403452
0.0411332
0.0399083
0.0382756
0.0378924
0.0370828
0.0387253
0.0386754
0.0411725
0.0411679
0.040202
0.0388467
0.037844
0.0395072
0.0389684
0.0395301
0.0380917
0.0406516
0.039057
0.0397729
0.0377138
0.0404418
0.0396364
0.0401394
0.0394424
0.0384721
0.0398471
0.0397144
0.0386348
0.0388885
0.038856
0.0393784
0.0385742
0.0388585
0.0386661
0.0382857
0.0390704
0.0389389
0.040732
0.0394273
0.038918
0.0396802
0.0401754
0.0396297
0.0396714
0.0394366
0.0395425
0.0395575
0.0395531
0.0396293
0.0396396
0.0397216
0.0398211
0.0399518
0.039966
0.0399715
0.0399743
)
;

boundaryField
{
    inlet
    {
        type            calculated;
        value           uniform 0;
    }
    outlet
    {
        type            calculated;
        value           uniform 0;
    }
    sideWall
    {
        type            empty;
    }
}


// ************************************************************************* //
