/*--------------------------------*- C++ -*----------------------------------*\
| =========                 |                                                 |
| \\      /  F ield         | foam-extend: Open Source CFD                    |
|  \\    /   O peration     | Version:     3.2                                |
|   \\  /    A nd           | Web:         http://www.foam-extend.org         |
|    \\/     M anipulation  | For copyright notice see file Copyright         |
\*---------------------------------------------------------------------------*/
FoamFile
{
    version     2.0;
    format      ascii;
    class       areaScalarField;
    location    "160";
    object      Cs;
}
// * * * * * * * * * * * * * * * * * * * * * * * * * * * * * * * * * * * * * //

dimensions      [0 0 0 0 0 0 0];

internalField   nonuniform List<scalar> 
300
(
0.321737
0.321737
0.321737
0.321737
0.321737
0.321737
0.321737
0.321737
0.321737
0.321737
0.321737
0.321737
0.321737
0.321737
0.321737
0.321737
0.321737
0.321737
0.321737
0.321737
0.321737
0.321737
0.321737
0.321737
0.321737
0.321737
0.321737
0.321737
0.321737
0.321737
0.321737
0.321737
0.321737
0.321737
0.321737
0.321737
0.321737
0.321737
0.321737
0.321737
0.321737
0.321737
0.321737
0.321737
0.321737
0.321737
0.321737
0.321737
0.321737
0.321737
0.321737
0.321737
0.321737
0.321737
0.321737
0.321737
0.321737
0.321737
0.321737
0.321737
0.321737
0.321737
0.321737
0.321737
0.321737
0.321737
0.321737
0.321737
0.321737
0.321737
0.321737
0.321737
0.321737
0.321737
0.321737
0.321737
0.321737
0.321737
0.321737
0.321737
0.321737
0.321737
0.321737
0.321737
0.321737
0.321737
0.321737
0.321737
0.321737
0.321737
0.321737
0.321737
0.321737
0.321737
0.321737
0.321737
0.321737
0.321737
0.321737
0.321737
0.321737
0.321737
0.321737
0.321737
0.321737
0.321737
0.321737
0.321737
0.321737
0.0852564
0.0819634
0.321737
0.321737
0.321737
0.321737
0.0735075
0.0716564
0.0710757
0.0710156
0.0695771
0.321737
0.321737
0.321737
0.321737
0.0666224
0.0668404
0.0669371
0.0671247
0.0672571
0.321737
0.321737
0.321737
0.321737
0.0672258
0.0675716
0.067342
0.0676472
0.321737
0.321737
0.321737
0.321737
0.068502
0.0688929
0.0702841
0.0717958
0.073159
0.321737
0.321737
0.321737
0.321737
0.321737
0.0729794
0.0741653
0.0751276
0.0749698
0.321737
0.321737
0.321737
0.321737
0.321737
0.0739539
0.0740006
0.0734899
0.0728926
0.321737
0.321737
0.321737
0.321737
0.0754378
0.0751794
0.0744317
0.0737481
0.321737
0.321737
0.321737
0.321737
0.0733577
0.072501
0.0715615
0.0715587
0.0711923
0.321737
0.321737
0.321737
0.321737
0.321737
0.074608
0.0740767
0.0732934
0.0724392
0.0715576
0.0716683
0.321737
0.321737
0.321737
0.321737
0.0739459
0.0743383
0.0734971
0.0732303
0.321737
0.321737
0.321737
0.321737
0.0730292
0.0727814
0.0729666
0.0728959
0.0736153
0.321737
0.321737
0.321737
0.321737
0.321737
0.321737
0.0767144
0.0765403
0.076246
0.0754882
0.0750417
0.321737
0.321737
0.321737
0.321737
0.321737
0.0745479
0.074867
0.0750541
0.0755184
0.0760937
0.321737
0.321737
0.321737
0.321737
0.072456
0.0729007
0.0736457
0.0746997
0.321737
0.321737
0.321737
0.321737
0.321737
0.321737
0.0759117
0.0761161
0.0773661
0.0780203
0.321737
0.321737
0.321737
0.0754781
0.0750889
0.0747191
0.0746905
0.321737
0.321737
0.321737
0.321737
0.321737
0.0778716
0.0786601
0.079946
0.0799259
0.0795676
0.0784044
0.0782552
0.0779416
0.0786476
0.0792278
0.0791951
0.0786722
0.0785451
0.0788659
0.0790968
0.0793676
0.0800628
0.0810834
0.0825206
0.0847416
0.0863768
0.0876425
0.0868891
0.0871787
0.0870832
0.0861461
0.0863989
0.0881586
0.090811
0.0942976
0.098801
0.104882
0.113115
0.125432
0.144227
0.18478
0.267606
0.321737
0.321737
0.321737
)
;

boundaryField
{
    inlet
    {
        type            calculated;
        value           uniform 0;
    }
    outlet
    {
        type            calculated;
        value           uniform 0;
    }
    sideWall
    {
        type            empty;
    }
}


// ************************************************************************* //
