/*--------------------------------*- C++ -*----------------------------------*\
| =========                 |                                                 |
| \\      /  F ield         | foam-extend: Open Source CFD                    |
|  \\    /   O peration     | Version:     3.2                                |
|   \\  /    A nd           | Web:         http://www.foam-extend.org         |
|    \\/     M anipulation  | For copyright notice see file Copyright         |
\*---------------------------------------------------------------------------*/
FoamFile
{
    version     2.0;
    format      ascii;
    class       areaScalarField;
    location    "160";
    object      Dbed;
}
// * * * * * * * * * * * * * * * * * * * * * * * * * * * * * * * * * * * * * //

dimensions      [0 0 0 0 0 0 0];

internalField   nonuniform List<scalar> 
300
(
0.002175
0.002175
0.002175
0.002175
0.002175
0.002175
0.002175
0.002175
0.002175
0.002175
0.002175
0.002175
0.002175
0.002175
0.002175
0.002175
0.002175
0.002175
0.002175
0.002175
0.002175
0.002175
0.002175
0.002175
0.002175
0.002175
0.002175
0.002175
0.002175
0.002175
0.002175
0.002175
0.002175
0.002175
0.002175
0.002175
0.002175
0.002175
0.002175
0.002175
0.002175
0.002175
0.002175
0.002175
0.002175
0.002175
0.002175
0.002175
0.002175
0.002175
0.002175
0.002175
0.002175
0.002175
0.002175
0.002175
0.002175
0.002175
0.002175
0.002175
0.002175
0.002175
0.002175
0.002175
0.002175
0.002175
0.002175
0.002175
0.002175
0.002175
0.002175
0.002175
0.002175
0.002175
0.002175
0.002175
0.002175
0.002175
0.002175
0.002175
0.002175
0.002175
0.002175
0.002175
0.002175
0.002175
0.002175
0.002175
0.002175
0.002175
0.002175
0.002175
0.002175
0.002175
0.002175
0.002175
0.002175
0.002175
0.002175
0.002175
0.00234666
0.00242082
0.00251609
0.00258729
0.00266906
0.00272947
0.00280691
0.00284759
0.00293602
0.00294167
0.00298942
0.00299107
0.00300381
0.00307388
0.00303747
0.00315087
0.00303637
0.0031855
0.00307435
0.00316666
0.00307063
0.00319852
0.00320552
0.00311639
0.00322221
0.00315357
0.00317468
0.00314681
0.00310627
0.00323659
0.00307668
0.00324997
0.00315373
0.0031957
0.00318083
0.00316876
0.0032578
0.00307342
0.00327755
0.00312285
0.00315783
0.00326818
0.0030875
0.00331058
0.00323436
0.00334448
0.00327881
0.0033477
0.00330741
0.00321892
0.00331593
0.00324969
0.00332621
0.00327469
0.00335352
0.00324805
0.00328527
0.00330567
0.0032365
0.00332048
0.00326991
0.00332297
0.00326841
0.00328898
0.00329508
0.00327943
0.00329862
0.00329484
0.0033273
0.00329531
0.00330752
0.00327906
0.00330471
0.00328274
0.00327233
0.00327935
0.00327809
0.00328299
0.0032574
0.00328482
0.00321389
0.00326203
0.00326695
0.00324263
0.00331027
0.00328836
0.00330628
0.00324775
0.00332982
0.00324068
0.0032459
0.00329186
0.00322743
0.0032901
0.00325749
0.00326061
0.00326073
0.00332653
0.0032633
0.00330013
0.00324501
0.00325142
0.00327346
0.00329229
0.00327928
0.00320656
0.00329005
0.0032341
0.00331281
0.00324069
0.00320181
0.00329351
0.00318773
0.00331142
0.00325847
0.00333558
0.00324427
0.00333055
0.00320505
0.00322319
0.00327514
0.00318917
0.00329849
0.00319748
0.00326197
0.00325037
0.00322698
0.00317171
0.00328523
0.00321434
0.00317692
0.00325913
0.00309417
0.00325573
0.00315002
0.00317186
0.00323696
0.00311336
0.00328951
0.00319333
0.00329328
0.00320333
0.00331243
0.0031876
0.00327805
0.00315241
0.00324163
0.0031754
0.00319822
0.00318878
0.0030699
0.00329153
0.00308931
0.00325067
0.00314949
0.00323414
0.00316844
0.00324859
0.00311805
0.00309409
0.00317669
0.00305145
0.00320626
0.00310986
0.00325502
0.0030366
0.00324947
0.00307273
0.00324557
0.00302249
0.00313568
0.003097
0.00297222
0.00315109
0.00291128
0.0031898
0.00287625
0.00328061
0.00294272
0.00332323
0.00308723
0.00331954
0.00312367
0.00323642
0.00300756
0.00306372
0.00313658
0.0027701
0.00302604
0.00271555
0.00288447
0.00263274
0.00271081
0.00251578
0.00249399
0.00235406
0.002175
0.002175
0.002175
0.002175
)
;

boundaryField
{
    inlet
    {
        type            calculated;
        value           uniform 0;
    }
    outlet
    {
        type            calculated;
        value           uniform 0;
    }
    sideWall
    {
        type            empty;
    }
}


// ************************************************************************* //
