/*--------------------------------*- C++ -*----------------------------------*\
| =========                 |                                                 |
| \\      /  F ield         | foam-extend: Open Source CFD                    |
|  \\    /   O peration     | Version:     3.2                                |
|   \\  /    A nd           | Web:         http://www.foam-extend.org         |
|    \\/     M anipulation  | For copyright notice see file Copyright         |
\*---------------------------------------------------------------------------*/
FoamFile
{
    version     2.0;
    format      ascii;
    class       areaScalarField;
    location    "160";
    object      dd;
}
// * * * * * * * * * * * * * * * * * * * * * * * * * * * * * * * * * * * * * //

dimensions      [0 1 0 0 0 0 0];

internalField   nonuniform List<scalar> 
300
(
0.1
0.1
0.1
0.1
0.1
0.1
0.1
0.1
0.1
0.1
0.1
0.1
0.1
0.1
0.1
0.1
0.1
0.1
0.1
0.1
0.1
0.1
0.1
0.1
0.1
0.1
0.1
0.1
0.1
0.1
0.1
0.1
0.1
0.1
0.1
0.1
0.1
0.1
0.1
0.1
0.1
0.1
0.1
0.1
0.1
0.1
0.1
0.1
0.1
0.1
0.1
0.1
0.1
0.1
0.1
0.1
0.1
0.1
0.1
0.1
0.1
0.1
0.1
0.1
0.1
0.1
0.1
0.1
0.1
0.1
0.1
0.1
0.1
0.1
0.1
0.1
0.1
0.1
0.1
0.1
0.1
0.1
0.1
0.1
0.1
0.1
0.1
0.1
0.1
0.1
0.1
0.1
0.1
0.1
0.1
0.1
0.1
0.1
0.1
0.0978373
0.0927049
0.0879413
0.0844831
0.0814055
0.0787418
0.0763618
0.0742828
0.0723844
0.070763
0.0691805
0.0674959
0.0662581
0.0651841
0.0642673
0.0634307
0.0624786
0.0612223
0.0608147
0.0607721
0.0597314
0.0587383
0.058662
0.0587452
0.0576459
0.0574527
0.0576277
0.057705
0.0578543
0.0579591
0.0579801
0.0570186
0.0571379
0.0574495
0.0579343
0.0582065
0.0580261
0.0582656
0.0579357
0.0583523
0.0585754
0.0586012
0.058925
0.0592211
0.0602482
0.0613192
0.062247
0.062411
0.0626675
0.0627408
0.0623956
0.0622902
0.0621267
0.06291
0.0635274
0.0634272
0.0629224
0.0624162
0.0623083
0.0623119
0.0625882
0.0627722
0.0628027
0.062467
0.0620684
0.0619835
0.0622472
0.0627074
0.0632442
0.0637231
0.0635602
0.0630825
0.0626373
0.0623387
0.0622348
0.0623343
0.0624076
0.0623793
0.0618035
0.0611561
0.0611542
0.0608971
0.0611363
0.0615205
0.0619865
0.0627589
0.0629943
0.063196
0.0628523
0.0623366
0.0617614
0.0611535
0.0612306
0.0612508
0.06111
0.061477
0.062119
0.062767
0.0630222
0.0624718
0.0622945
0.0623706
0.0625006
0.0626975
0.0625442
0.0621601
0.0619935
0.0621182
0.0620706
0.0625499
0.0626053
0.0623841
0.0622827
0.0624446
0.0632349
0.0638882
0.0645116
0.0644056
0.0642254
0.0637547
0.0634729
0.0637383
0.0636556
0.0636804
0.0632853
0.0631812
0.0631573
0.0633618
0.0634808
0.0637737
0.0641315
0.0636215
0.0630032
0.0621571
0.0619167
0.0617729
0.0620738
0.0625699
0.0632548
0.0640346
0.0645715
0.0650873
0.0649587
0.0647484
0.0641339
0.0640189
0.0641453
0.0649041
0.0652916
0.0650896
0.0648749
0.064038
0.0637483
0.0635028
0.0632673
0.0632489
0.0636523
0.0641484
0.0648446
0.0646983
0.0648659
0.0652041
0.0656643
0.0663953
0.0663841
0.0661826
0.0655161
0.0654291
0.0652453
0.0656571
0.0659899
0.0659713
0.0656713
0.0655977
0.0657829
0.0659152
0.0660694
0.0664605
0.0670225
0.0677904
0.0689258
0.0697244
0.0703221
0.0699684
0.0701051
0.0700601
0.0696136
0.069735
0.0705609
0.0717453
0.0732008
0.0749288
0.0770266
0.0795075
0.0826108
0.0863248
0.0917646
0.0977525
0.1
0.1
0.1
)
;

boundaryField
{
    inlet
    {
        type            calculated;
        value           uniform 0;
    }
    outlet
    {
        type            calculated;
        value           uniform 0;
    }
    sideWall
    {
        type            empty;
    }
}


// ************************************************************************* //
