/*--------------------------------*- C++ -*----------------------------------*\
| =========                 |                                                 |
| \\      /  F ield         | foam-extend: Open Source CFD                    |
|  \\    /   O peration     | Version:     3.2                                |
|   \\  /    A nd           | Web:         http://www.foam-extend.org         |
|    \\/     M anipulation  | For copyright notice see file Copyright         |
\*---------------------------------------------------------------------------*/
FoamFile
{
    version     2.0;
    format      ascii;
    class       areaScalarField;
    location    "160";
    object      deltaHs1;
}
// * * * * * * * * * * * * * * * * * * * * * * * * * * * * * * * * * * * * * //

dimensions      [0 1 -1 0 0 0 0];

internalField   nonuniform List<scalar> 
300
(
-0.0007439
-0.000525237
-0.000298561
-0.000219213
-0.000191395
-0.000177293
-0.000167295
-0.000158698
-0.000150909
-0.000143949
-0.000137823
-0.000132417
-0.000127584
-0.00012332
-0.00011952
-0.000116098
-0.000112995
-0.000110154
-0.000107571
-0.000105233
-0.000103074
-0.00010106
-9.91786e-05
-9.7423e-05
-9.57837e-05
-9.42411e-05
-9.27889e-05
-9.14157e-05
-9.01191e-05
-8.8897e-05
-8.77333e-05
-8.66306e-05
-8.55748e-05
-8.45728e-05
-8.36138e-05
-8.27027e-05
-8.18243e-05
-8.09869e-05
-8.01785e-05
-7.94053e-05
-7.86613e-05
-7.79464e-05
-7.7256e-05
-7.65917e-05
-7.59475e-05
-7.53296e-05
-7.47289e-05
-7.4153e-05
-7.35888e-05
-7.30494e-05
-7.25189e-05
-7.2012e-05
-7.15139e-05
-7.10373e-05
-7.05675e-05
-7.01178e-05
-6.96732e-05
-6.92493e-05
-6.88221e-05
-6.84204e-05
-6.80147e-05
-6.7636e-05
-6.72513e-05
-6.68945e-05
-6.65293e-05
-6.61944e-05
-6.58478e-05
-6.55334e-05
-6.52048e-05
-6.49109e-05
-6.4601e-05
-6.43287e-05
-6.40382e-05
-6.37888e-05
-6.35188e-05
-6.32944e-05
-6.30492e-05
-6.28526e-05
-6.26378e-05
-6.24746e-05
-6.2297e-05
-6.21749e-05
-6.20473e-05
-6.19769e-05
-6.19223e-05
-6.19141e-05
-6.19455e-05
-6.20439e-05
-6.21965e-05
-6.24446e-05
-6.28055e-05
-6.32689e-05
-6.39724e-05
-6.47665e-05
-6.61672e-05
-6.7647e-05
-7.09371e-05
-7.23468e-05
-9.11711e-05
-3.3936e-05
-3.93095e-06
-5.32206e-06
-6.30914e-06
-6.6755e-06
-7.37777e-06
-7.2251e-06
-8.20885e-06
-7.3689e-06
-8.93222e-06
8.28333e-06
8.17521e-06
-9.97817e-06
-7.53586e-06
-1.1037e-05
-9.54751e-06
8.24576e-06
8.27906e-06
8.8347e-06
8.43205e-06
8.52996e-06
-7.59213e-06
-6.64368e-06
-1.35392e-05
-2.60069e-06
8.70775e-06
8.21741e-06
8.7422e-06
8.47679e-06
8.73518e-06
-8.92214e-06
-5.11725e-06
-5.70769e-06
-9.66159e-06
8.543e-06
8.13129e-06
8.89448e-06
8.84274e-06
-8.44132e-06
-5.8776e-06
-1.06293e-05
-6.86314e-06
8.1769e-06
8.26633e-06
9.00613e-06
9.02365e-06
8.28039e-06
-9.53416e-06
-5.47602e-06
-8.17973e-06
-1.14347e-05
-9.36195e-06
8.70665e-06
8.41652e-06
8.72645e-06
8.50334e-06
-7.53586e-06
-9.50977e-06
-1.00866e-05
-1.12715e-05
-9.14536e-06
8.19198e-06
7.94793e-06
9.09716e-06
9.43855e-06
-9.88981e-06
-8.3774e-06
-9.98718e-06
-8.68201e-06
8.1297e-06
8.66435e-06
9.15961e-06
9.13974e-06
-9.7031e-06
-1.02509e-05
-1.08342e-05
-1.16382e-05
8.5731e-06
8.76614e-06
9.20268e-06
9.29442e-06
8.69617e-06
-5.86856e-06
-9.76416e-06
-5.46946e-06
-1.2415e-05
-1.10537e-05
8.77561e-06
8.38044e-06
8.90537e-06
9.02565e-06
8.77778e-06
8.43401e-06
-1.0557e-05
-9.39188e-06
-7.37522e-06
-9.25032e-06
8.08258e-06
7.81052e-06
9.05039e-06
9.25834e-06
-9.9974e-06
-8.74896e-06
-1.20669e-05
-1.1765e-05
8.3015e-06
8.76351e-06
9.46981e-06
9.04525e-06
8.44379e-06
-8.42768e-06
-8.89453e-06
-7.87969e-06
-6.75727e-06
-7.87723e-06
-7.65848e-06
7.78879e-06
7.8812e-06
9.23186e-06
8.70765e-06
9.01168e-06
-1.04503e-05
-1.17203e-05
-1.32405e-05
-6.6961e-06
-7.96925e-06
8.34364e-06
7.96743e-06
8.82275e-06
8.93014e-06
8.24619e-06
-1.04896e-05
-6.97629e-06
-6.49071e-06
-9.18388e-06
8.36017e-06
8.49967e-06
8.99684e-06
8.67538e-06
-1.20586e-05
-6.51351e-06
-1.31154e-05
-1.20714e-05
-1.03696e-05
-4.98781e-06
8.51261e-06
8.0675e-06
8.55515e-06
8.0389e-06
-7.60034e-06
-8.60083e-06
-1.02041e-05
8.18409e-06
8.08385e-06
8.89909e-06
8.5666e-06
-7.95044e-06
-9.70575e-06
-9.37511e-06
-5.27724e-06
-5.38762e-06
8.31952e-06
8.32756e-06
8.2995e-06
7.9353e-06
8.76991e-06
8.60482e-06
8.62347e-06
8.66128e-06
8.5206e-06
8.36648e-06
8.46125e-06
8.46371e-06
8.41955e-06
8.42227e-06
8.37375e-06
8.42022e-06
8.34991e-06
8.34577e-06
8.29457e-06
8.14647e-06
8.14684e-06
8.12368e-06
8.34231e-06
8.19405e-06
8.09063e-06
8.3254e-06
8.33746e-06
8.14435e-06
8.05004e-06
7.84666e-06
7.66461e-06
7.42907e-06
7.03624e-06
6.60063e-06
5.75205e-06
4.2962e-06
-1.97704e-05
-7.56135e-05
-4.6225e-05
-3.8992e-05
)
;

boundaryField
{
    inlet
    {
        type            zeroGradient;
    }
    outlet
    {
        type            zeroGradient;
    }
    sideWall
    {
        type            empty;
    }
}


// ************************************************************************* //
