/*--------------------------------*- C++ -*----------------------------------*\
| =========                 |                                                 |
| \\      /  F ield         | foam-extend: Open Source CFD                    |
|  \\    /   O peration     | Version:     3.2                                |
|   \\  /    A nd           | Web:         http://www.foam-extend.org         |
|    \\/     M anipulation  | For copyright notice see file Copyright         |
\*---------------------------------------------------------------------------*/
FoamFile
{
    version     2.0;
    format      ascii;
    class       areaScalarField;
    location    "160";
    object      deltaHb;
}
// * * * * * * * * * * * * * * * * * * * * * * * * * * * * * * * * * * * * * //

dimensions      [0 1 -1 0 0 0 0];

internalField   nonuniform List<scalar> 
300
(
0
0
0
0
0
0
0
0
0
0
0
0
0
0
0
0
0
0
0
0
0
0
0
0
0
0
0
0
0
0
0
0
0
0
0
0
0
0
0
0
0
0
0
0
0
0
0
0
0
0
0
0
0
0
0
0
0
0
0
0
0
0
0
0
0
0
0
0
0
0
0
0
0
0
0
0
0
0
0
0
0
0
0
0
0
0
0
0
0
0
0
0
0
0
0
0
0
0
0
0
0
0
0
0
0
0
0
0
0
0
-4.32624e-05
-4.03174e-05
-1.15952e-06
-3.51941e-06
4.527e-05
4.65193e-05
-0
-0
-0
-4.06395e-05
-4.37915e-05
-2.39602e-05
1.36914e-05
6.309e-05
3.25837e-05
-0
-0
-0
-5.83949e-05
-3.33929e-05
7.03583e-06
-1.37211e-05
5.22089e-05
4.63373e-05
-0
-0
-3.858e-05
-5.61243e-05
-1.60319e-05
1.14283e-05
5.25101e-05
4.83148e-05
-0
-0
-0
-6.04811e-05
-6.39284e-05
-3.62256e-06
1.12566e-05
3.26737e-06
5.35064e-05
5.86393e-05
-0
-0
-5.84719e-05
-4.94025e-05
2.39068e-06
-4.29706e-06
-5.39648e-06
5.50434e-05
5.98275e-05
-0
-0
-5.11711e-05
-5.74149e-05
-8.41537e-06
-5.80798e-06
5.97393e-05
6.39503e-05
-0
-0
-5.37272e-05
-5.34939e-05
-5.18989e-06
-4.50541e-06
5.89176e-05
5.74965e-05
-0
-0
-0
-5.40076e-05
-5.49389e-05
1.93083e-06
-1.38578e-05
-5.09962e-06
6.95685e-05
5.9006e-05
-0
-0
-0
-0
-5.45033e-05
-4.61559e-05
3.45593e-07
-1.14942e-05
5.35417e-05
5.82281e-05
-0
-0
-5.40073e-05
-5.57945e-05
-6.48353e-06
-4.87082e-07
6.04347e-05
5.69851e-05
-0
-0
-0
-5.73871e-05
-5.00926e-05
4.91672e-06
2.54494e-06
-8.67188e-06
-7.93066e-06
6.0153e-05
5.72679e-05
-0
-0
-0
-5.72843e-05
-5.11595e-05
-4.45556e-06
7.58823e-06
8.72837e-06
4.34269e-05
5.35176e-05
-0
-0
-0
-5.0427e-05
-5.12644e-05
1.35062e-05
1.74449e-06
3.7711e-05
4.89653e-05
-0
-0
-5.68698e-05
-5.62346e-05
-4.43091e-06
2.99784e-06
3.21167e-06
1.38338e-05
5.97241e-05
3.93666e-05
-0
-0
-4.94115e-05
-5.64542e-05
9.00931e-06
5.3779e-05
4.22236e-05
-0
-0
-5.30103e-05
-4.35925e-05
-1.67695e-05
1.82927e-06
1.97687e-05
3.961e-05
5.01447e-05
-0
-0
-0
-0
-0
-0
-0
-0
-0
-0
-0
-0
-0
-0
-0
-0
-0
-0
-0
-0
-0
-0
-0
-0
-0
0
0
0
0
0
0
0
0
0
0
0
0
0
0
)
;

boundaryField
{
    inlet
    {
        type            zeroGradient;
    }
    outlet
    {
        type            zeroGradient;
    }
    sideWall
    {
        type            empty;
    }
}


// ************************************************************************* //
