/*--------------------------------*- C++ -*----------------------------------*\
| =========                 |                                                 |
| \\      /  F ield         | foam-extend: Open Source CFD                    |
|  \\    /   O peration     | Version:     3.2                                |
|   \\  /    A nd           | Web:         http://www.foam-extend.org         |
|    \\/     M anipulation  | For copyright notice see file Copyright         |
\*---------------------------------------------------------------------------*/
FoamFile
{
    version     2.0;
    format      ascii;
    class       volScalarField;
    location    "160";
    object      deltaHF;
}
// * * * * * * * * * * * * * * * * * * * * * * * * * * * * * * * * * * * * * //

dimensions      [0 1 0 0 0 0 0];

internalField   uniform 0;

boundaryField
{
    inlet
    {
        type            calculated;
        value           uniform 0;
    }
    outlet
    {
        type            calculated;
        value           uniform 0;
    }
    sideWall
    {
        type            empty;
    }
    bed
    {
        type            calculated;
        value           nonuniform List<scalar> 
300
(
0
0
0
0
0
0
0
0
0
0
0
0
0
0
0
0
0
0
0
0
0
0
0
0
0
0
0
0
0
0
0
0
0
0
0
0
0
0
0
0
0
0
0
0
0
0
0
0
0
0
0
0
0
0
0
0
0
0
0
0
0
0
0
0
0
0
0
0
0
0
0
0
0
0
0
0
0
0
0
0
0
0
0
0
0
0
0
0
0
0
0
0
0
0
0
0
0
0
0
0
-3.93095e-06
-5.32206e-06
-6.30914e-06
-6.6755e-06
-7.37777e-06
-7.2251e-06
-8.20885e-06
-7.3689e-06
-8.93222e-06
8.28333e-06
-3.50872e-05
-5.02956e-05
-8.69538e-06
-1.45564e-05
3.57225e-05
5.4765e-05
8.27906e-06
8.8347e-06
8.43205e-06
-3.21095e-05
-5.13837e-05
-3.06039e-05
1.52142e-07
6.04893e-05
4.12915e-05
8.21741e-06
8.7422e-06
8.47679e-06
-4.96597e-05
-4.2315e-05
1.91858e-06
-1.94288e-05
4.25473e-05
5.48803e-05
8.13129e-06
8.89448e-06
-2.97373e-05
-6.45656e-05
-2.19095e-05
7.98974e-07
4.56469e-05
5.64917e-05
8.26633e-06
9.00613e-06
9.02365e-06
-5.22007e-05
-7.34625e-05
-9.09858e-06
3.07686e-06
-8.16733e-06
4.41444e-05
6.7346e-05
8.41652e-06
8.72645e-06
-4.99686e-05
-5.69383e-05
-7.11909e-06
-1.43837e-05
-1.66679e-05
4.58981e-05
6.80195e-05
7.94793e-06
9.09716e-06
-4.17326e-05
-6.73047e-05
-1.67928e-05
-1.57952e-05
5.10572e-05
7.208e-05
8.66435e-06
9.15961e-06
-4.45875e-05
-6.3197e-05
-1.54408e-05
-1.53396e-05
4.72795e-05
6.60696e-05
8.76614e-06
9.20268e-06
9.29442e-06
-4.53114e-05
-6.08075e-05
-7.83333e-06
-1.93272e-05
-1.75147e-05
5.85149e-05
6.77816e-05
8.38044e-06
8.90537e-06
9.02565e-06
8.77778e-06
-4.60693e-05
-5.67129e-05
-9.04629e-06
-1.88694e-05
4.42914e-05
6.63107e-05
7.81052e-06
9.05039e-06
-4.47489e-05
-6.57919e-05
-1.52325e-05
-1.2554e-05
4.86697e-05
6.52866e-05
8.76351e-06
9.46981e-06
9.04525e-06
-4.89433e-05
-5.85203e-05
-3.97781e-06
-5.33474e-06
-1.54292e-05
-1.58079e-05
5.24945e-05
6.50567e-05
7.8812e-06
9.23186e-06
8.70765e-06
-4.82726e-05
-6.16098e-05
-1.61759e-05
-5.65228e-06
2.03227e-06
3.54576e-05
6.18612e-05
7.96743e-06
8.82275e-06
8.93014e-06
-4.21808e-05
-6.1754e-05
6.52989e-06
-4.74622e-06
2.85271e-05
5.73255e-05
8.49967e-06
8.99684e-06
-4.81944e-05
-6.82932e-05
-1.09444e-05
-1.01175e-05
-8.85971e-06
3.46419e-06
5.47363e-05
4.78792e-05
8.0675e-06
8.55515e-06
-4.13726e-05
-6.40545e-05
4.08479e-07
4.3575e-05
5.04077e-05
8.08385e-06
8.89909e-06
-4.44436e-05
-5.1543e-05
-2.64752e-05
-7.54584e-06
1.44915e-05
3.42224e-05
5.84642e-05
8.32756e-06
8.2995e-06
7.9353e-06
8.76991e-06
8.60482e-06
8.62347e-06
8.66128e-06
8.5206e-06
8.36648e-06
8.46125e-06
8.46371e-06
8.41955e-06
8.42227e-06
8.37375e-06
8.42022e-06
8.34991e-06
8.34577e-06
8.29457e-06
8.14647e-06
8.14684e-06
8.12368e-06
8.34231e-06
8.19405e-06
8.09063e-06
8.3254e-06
8.33746e-06
8.14435e-06
8.05004e-06
7.84666e-06
7.66461e-06
7.42907e-06
7.03624e-06
6.60063e-06
5.75205e-06
4.2962e-06
0
0
0
0
)
;
    }
    topWall
    {
        type            calculated;
        value           uniform 0;
    }
}


// ************************************************************************* //
