/*--------------------------------*- C++ -*----------------------------------*\
| =========                 |                                                 |
| \\      /  F ield         | foam-extend: Open Source CFD                    |
|  \\    /   O peration     | Version:     3.2                                |
|   \\  /    A nd           | Web:         http://www.foam-extend.org         |
|    \\/     M anipulation  | For copyright notice see file Copyright         |
\*---------------------------------------------------------------------------*/
FoamFile
{
    version     2.0;
    format      ascii;
    class       volScalarField;
    location    "160";
    object      DiSSt;
}
// * * * * * * * * * * * * * * * * * * * * * * * * * * * * * * * * * * * * * //

dimensions      [0 2 -1 0 0 0 0];

internalField   nonuniform List<scalar> 
96000
(
0.000134293
0.000107227
8.92923e-05
7.99945e-05
7.69941e-05
7.58668e-05
7.5095e-05
7.43396e-05
7.35384e-05
7.27134e-05
7.19296e-05
7.11954e-05
7.05099e-05
6.98752e-05
6.929e-05
6.87496e-05
6.82455e-05
6.77746e-05
6.73459e-05
6.70831e-05
6.68371e-05
6.65951e-05
6.63571e-05
6.61254e-05
6.59043e-05
6.56897e-05
6.54828e-05
6.52794e-05
6.50848e-05
6.48955e-05
6.47148e-05
6.45369e-05
6.4366e-05
6.41979e-05
6.40371e-05
6.38802e-05
6.37285e-05
6.35802e-05
6.34361e-05
6.3295e-05
6.31596e-05
6.30259e-05
6.2898e-05
6.27702e-05
6.26487e-05
6.25267e-05
6.24119e-05
6.22959e-05
6.21862e-05
6.20755e-05
6.19706e-05
6.18645e-05
6.1765e-05
6.16635e-05
6.15687e-05
6.14708e-05
6.13804e-05
6.1287e-05
6.1193e-05
6.11004e-05
6.10099e-05
6.09215e-05
6.08352e-05
6.07507e-05
6.06685e-05
6.05882e-05
6.05098e-05
6.04336e-05
6.03591e-05
6.02871e-05
6.0217e-05
6.01496e-05
6.00842e-05
6.0022e-05
5.99615e-05
5.99057e-05
5.98513e-05
5.98028e-05
5.97564e-05
5.97171e-05
5.96803e-05
5.96533e-05
5.96298e-05
5.96185e-05
5.9617e-05
5.96181e-05
5.96362e-05
5.96799e-05
5.97287e-05
5.98208e-05
5.9906e-05
6.00845e-05
6.02287e-05
6.05055e-05
6.0845e-05
6.13375e-05
6.23375e-05
6.19655e-05
6.93073e-05
6.04769e-05
4.91829e-05
4.86447e-05
4.89331e-05
4.91859e-05
5.07582e-05
5.06631e-05
5.15784e-05
5.11552e-05
5.22151e-05
5.17488e-05
4.90859e-05
5.25776e-05
5.09437e-05
5.31359e-05
5.18072e-05
5.43294e-05
4.82704e-05
5.19344e-05
5.48569e-05
4.97059e-05
4.91474e-05
5.23358e-05
5.67514e-05
4.70886e-05
5.26076e-05
5.12165e-05
5.20154e-05
5.25795e-05
5.08431e-05
5.49482e-05
4.79526e-05
5.47267e-05
5.08089e-05
5.46724e-05
5.35684e-05
5.00576e-05
5.44425e-05
4.87473e-05
5.59309e-05
5.18748e-05
4.9976e-05
5.26568e-05
4.96459e-05
5.53832e-05
5.30995e-05
5.86343e-05
5.26758e-05
5.46687e-05
5.35513e-05
5.01964e-05
5.33758e-05
4.90018e-05
5.6842e-05
5.52239e-05
5.31534e-05
5.16557e-05
5.01672e-05
5.29097e-05
5.25564e-05
5.49295e-05
5.31219e-05
5.44708e-05
5.14175e-05
5.03861e-05
5.13949e-05
5.41941e-05
5.54429e-05
5.52092e-05
5.7094e-05
5.14136e-05
5.08245e-05
5.08327e-05
5.17515e-05
5.23397e-05
5.50002e-05
5.30713e-05
5.52729e-05
5.02249e-05
4.90727e-05
5.46946e-05
4.97141e-05
5.39456e-05
5.28181e-05
5.25132e-05
5.74264e-05
5.14869e-05
5.48783e-05
5.05289e-05
5.10065e-05
5.04246e-05
4.88893e-05
5.42348e-05
5.27625e-05
5.01619e-05
5.41022e-05
5.4974e-05
5.45704e-05
5.66228e-05
5.00721e-05
5.0246e-05
5.17233e-05
5.34619e-05
5.46519e-05
5.2513e-05
5.11605e-05
5.00073e-05
5.24442e-05
4.97252e-05
5.65907e-05
5.17026e-05
5.05206e-05
5.1505e-05
5.06304e-05
5.56035e-05
5.2196e-05
5.82026e-05
5.13377e-05
5.2319e-05
5.04374e-05
5.00574e-05
5.40322e-05
5.07721e-05
5.60846e-05
4.86114e-05
5.2806e-05
4.99488e-05
5.45896e-05
5.07385e-05
5.1454e-05
5.5152e-05
5.08223e-05
5.15732e-05
4.76767e-05
5.38498e-05
4.80873e-05
5.30816e-05
5.06253e-05
5.24686e-05
5.42189e-05
5.26777e-05
5.60083e-05
5.01553e-05
5.51185e-05
4.80309e-05
5.35731e-05
4.88404e-05
5.64296e-05
5.30159e-05
5.03574e-05
5.33099e-05
4.80354e-05
5.21697e-05
4.88507e-05
5.00556e-05
4.9224e-05
5.4697e-05
4.89564e-05
5.83811e-05
4.9027e-05
5.31495e-05
5.0329e-05
5.02421e-05
5.43556e-05
5.05154e-05
5.20222e-05
4.75254e-05
5.45324e-05
4.8281e-05
5.50186e-05
5.12064e-05
5.25218e-05
4.90196e-05
5.0722e-05
5.00457e-05
5.11579e-05
4.89345e-05
5.14062e-05
5.04522e-05
5.09816e-05
5.45807e-05
5.13685e-05
5.65765e-05
4.82251e-05
5.22964e-05
4.93245e-05
4.76676e-05
4.7742e-05
5.15671e-05
5.08842e-05
5.2631e-05
5.14156e-05
5.45688e-05
5.1486e-05
5.7288e-05
5.27694e-05
6.31937e-05
7.39537e-05
6.08296e-05
5.42261e-05
5.21474e-05
9.29619e-05
0.00013719
0.000149935
0.000162679
0.000172817
0.000179851
0.000184419
0.000186981
0.000188203
0.000188553
0.000188557
0.000188287
0.000187855
0.000187314
0.00018672
0.000186108
0.000185462
0.000184819
0.000184174
0.000183567
0.000182962
0.00018236
0.000181769
0.000181194
0.000180636
0.000180091
0.00017956
0.000179042
0.000178543
0.000178055
0.000177585
0.000177122
0.000176676
0.000176238
0.000175818
0.000175404
0.000175005
0.000174612
0.000174231
0.000173859
0.000173499
0.000173145
0.000172803
0.000172464
0.000172139
0.000171815
0.000171507
0.000171197
0.000170902
0.000170605
0.000170323
0.000170039
0.000169771
0.000169498
0.000169241
0.000168978
0.000168732
0.000168479
0.000168218
0.00016797
0.00016772
0.000167482
0.000167242
0.000167015
0.000166784
0.000166568
0.000166346
0.000166139
0.000165926
0.000165729
0.000165525
0.000165339
0.000165145
0.000164969
0.000164784
0.00016462
0.000164447
0.000164297
0.000164137
0.000164001
0.000163857
0.00016374
0.000163617
0.000163526
0.000163424
0.00016335
0.000163287
0.00016324
0.000163216
0.000163224
0.000163219
0.00016332
0.000163304
0.000163522
0.000163624
0.000164073
0.000164476
0.000164789
0.000166237
0.000146879
0.0001399
0.000155724
0.000155435
0.000154654
0.000152002
0.000151123
0.000149203
0.000148693
0.000147799
0.000144259
0.00014684
0.00014522
0.000145214
0.000145106
0.000144952
0.000140224
0.000140422
0.000146126
0.000139945
0.000139029
0.000142788
0.000145846
0.000135397
0.000131858
0.000142977
0.000138962
0.000141993
0.000139049
0.000141824
0.000135741
0.000135133
0.000141696
0.000140808
0.000144122
0.000137141
0.000138592
0.000138605
0.000137801
0.00014283
0.000137767
0.000141265
0.00014029
0.000140878
0.000144594
0.000144509
0.000143724
0.000140116
0.000145976
0.000141765
0.000143826
0.000141723
0.000142239
0.000147277
0.000142976
0.000142437
0.000141574
0.000144407
0.000145374
0.000146444
0.000145881
0.000146322
0.0001442
0.000141491
0.000142422
0.000145758
0.000146179
0.000145594
0.000146972
0.000143549
0.000140873
0.000142108
0.000143873
0.000144852
0.000145723
0.000145641
0.000145808
0.000143655
0.000139696
0.000140876
0.000141899
0.000140671
0.0001448
0.000141924
0.000145299
0.000142477
0.000142614
0.000143871
0.000140809
0.000141928
0.000140493
0.000140562
0.000143582
0.000141172
0.000143895
0.000144404
0.000144221
0.00014533
0.000139131
0.000135157
0.000142307
0.000143389
0.000145077
0.000143078
0.000143301
0.000141834
0.000143075
0.00014172
0.000140608
0.000143121
0.00013872
0.000141665
0.000141121
0.000144165
0.000143967
0.000144553
0.00014267
0.000138368
0.000142159
0.000139491
0.000142709
0.000142457
0.000143756
0.000140305
0.000137796
0.000142655
0.000142859
0.000143351
0.000139346
0.000142849
0.000139885
0.000140061
0.000139425
0.000139097
0.00014047
0.000140604
0.00014246
0.000139841
0.000141904
0.00013991
0.000142863
0.000140973
0.000141372
0.000138538
0.000135535
0.000141018
0.000141165
0.00014452
0.000136865
0.00014057
0.00013736
0.000138869
0.000141347
0.000140309
0.000140949
0.000141371
0.000141905
0.000140306
0.00013909
0.000133568
0.000141571
0.000136426
0.000140397
0.000137409
0.000138774
0.000137292
0.000135532
0.000139008
0.000137377
0.000142397
0.000138934
0.000140309
0.000136672
0.00014104
0.000137788
0.000140332
0.000137518
0.000141206
0.000137712
0.000141635
0.00013945
0.000140976
0.000135658
0.000131352
0.0001408
0.000135522
0.000137258
0.000141367
0.00014165
0.0001406
0.00014145
0.000141492
0.000142266
0.000143077
0.00014382
0.000146351
0.000153261
0.000148348
0.000136869
0.000138144
0.000147315
7.27215e-05
0.00010317
0.000145052
0.000172421
0.000199423
0.000222697
0.00024177
0.000253407
0.000261135
0.000266909
0.000271188
0.000274374
0.000276787
0.000278667
0.000280086
0.000281127
0.000281892
0.000282457
0.000282871
0.000283118
0.000283227
0.000283241
0.000283192
0.000283093
0.000282937
0.000282737
0.000282503
0.000282249
0.00028198
0.000281691
0.000281383
0.000281064
0.000280735
0.000280406
0.000280072
0.000279732
0.000279386
0.00027904
0.000278693
0.00027835
0.000278006
0.000277664
0.00027732
0.00027698
0.000276642
0.00027631
0.000275979
0.000275651
0.000275324
0.000275002
0.000274682
0.00027437
0.000274058
0.000273752
0.000273446
0.000273147
0.000272848
0.000272558
0.000272267
0.000271984
0.0002717
0.000271426
0.000271149
0.000270882
0.000270613
0.000270355
0.000270093
0.000269843
0.000269589
0.000269348
0.000269102
0.000268872
0.000268636
0.000268416
0.00026819
0.000267983
0.000267769
0.000267577
0.000267378
0.000267204
0.000267023
0.000266872
0.000266715
0.000266598
0.000266469
0.000266364
0.00026627
0.000266202
0.00026615
0.000266156
0.000266176
0.000266275
0.000266416
0.000266698
0.000267067
0.000267763
0.00026824
0.000272238
0.000269697
0.00022716
0.000207166
0.000244722
0.000253745
0.000258462
0.000258251
0.000259218
0.000256792
0.000256688
0.00025496
0.000248379
0.000251315
0.000249674
0.000249282
0.000248663
0.000247507
0.000239103
0.000240078
0.000248275
0.000238309
0.000234546
0.000239768
0.00024638
0.000230044
0.000222777
0.000239631
0.000234302
0.000239587
0.000233375
0.000239521
0.000225639
0.000224016
0.000237046
0.000236694
0.00024105
0.000228702
0.000235761
0.000229453
0.000228222
0.00023802
0.000228519
0.00023556
0.000232503
0.000239706
0.000240976
0.000243842
0.000238183
0.000232687
0.000238311
0.000231606
0.000237243
0.000232249
0.000235616
0.000244428
0.000237262
0.000235027
0.000231117
0.000237432
0.000239437
0.000242012
0.000241863
0.000242322
0.000238103
0.000233815
0.000237705
0.000241327
0.000242492
0.000242585
0.000244202
0.000237353
0.000233857
0.000235604
0.000236818
0.000238625
0.000241138
0.000241434
0.000241424
0.000236741
0.000229767
0.000237481
0.000236071
0.000239523
0.000241073
0.000236195
0.000241984
0.000237421
0.000238555
0.000235661
0.000232569
0.000234922
0.000230203
0.000238118
0.000238704
0.000234274
0.00023849
0.0002406
0.00024104
0.000242463
0.000229789
0.000228018
0.000235108
0.000236485
0.000239497
0.000236547
0.000235436
0.000233093
0.000237398
0.000234205
0.000237407
0.000238321
0.00022921
0.000233968
0.000232396
0.000239353
0.000238883
0.000241964
0.000236239
0.000232464
0.000233181
0.000227937
0.000237456
0.000235607
0.000239196
0.000232767
0.00023311
0.000235187
0.000237109
0.000237778
0.00023177
0.00023921
0.000231481
0.000232426
0.000228098
0.000233189
0.000233463
0.000235043
0.000237848
0.000233724
0.000238577
0.000232921
0.000237813
0.000232431
0.000234565
0.000227671
0.000225885
0.000232775
0.000233045
0.00024058
0.000226458
0.000233379
0.000225341
0.000231881
0.000233397
0.000233468
0.000233769
0.000239363
0.000237943
0.000242779
0.000232411
0.000216557
0.000233473
0.000225448
0.000236132
0.00022779
0.000232783
0.00022542
0.000233332
0.000231849
0.000229337
0.000237751
0.000231905
0.000230839
0.000225758
0.000233211
0.000229315
0.000232475
0.000228841
0.000234849
0.000230011
0.000238157
0.000233289
0.000237672
0.000225597
0.000223431
0.000231499
0.000223337
0.000229324
0.000234846
0.000237145
0.000237221
0.000237602
0.000238116
0.000238298
0.000241445
0.000239832
0.000246817
0.000261237
0.000242168
0.000218369
0.000212498
0.000227304
6.07194e-05
7.73586e-05
0.000105338
0.00014281
0.000173465
0.00020321
0.000231766
0.000258217
0.000280133
0.000299143
0.00031215
0.000321772
0.000329785
0.000336578
0.000342283
0.000347066
0.000351122
0.000354604
0.000357613
0.000360173
0.000362356
0.000364236
0.000365872
0.000367293
0.000368512
0.000369561
0.000370466
0.000371255
0.000371941
0.000372525
0.000373018
0.000373435
0.000373788
0.000374089
0.000374336
0.000374533
0.000374684
0.000374799
0.000374882
0.00037494
0.000374967
0.00037497
0.000374948
0.000374908
0.000374853
0.000374784
0.000374698
0.000374599
0.000374487
0.000374366
0.000374235
0.000374099
0.000373953
0.000373802
0.000373641
0.000373479
0.000373308
0.000373138
0.00037296
0.000372783
0.000372598
0.000372416
0.000372227
0.000372042
0.00037185
0.000371664
0.000371469
0.000371282
0.000371087
0.000370902
0.00037071
0.000370529
0.00037034
0.000370163
0.00036998
0.000369812
0.000369638
0.000369483
0.000369321
0.000369182
0.000369037
0.000368923
0.000368802
0.000368726
0.000368639
0.000368576
0.000368516
0.0003685
0.000368491
0.000368567
0.000368627
0.000368829
0.000369032
0.000369475
0.000369976
0.000370998
0.00037169
0.000377095
0.000373991
0.000315247
0.000277272
0.000315549
0.000339916
0.000350933
0.000356183
0.000361115
0.000360941
0.00036289
0.000361935
0.000354628
0.000357373
0.000356543
0.00035648
0.000355876
0.000354368
0.000344137
0.000343777
0.000353711
0.00034272
0.000334927
0.000340382
0.00034983
0.00033193
0.000326865
0.000340205
0.00033515
0.000341166
0.000333932
0.000340072
0.000322376
0.000325279
0.000335892
0.000336396
0.000341726
0.000326808
0.00033305
0.000325119
0.000325529
0.000336726
0.000324827
0.000331807
0.000328816
0.000337351
0.000340429
0.000344307
0.000338167
0.000331297
0.000334362
0.00032562
0.000331206
0.000325584
0.00033026
0.000342846
0.0003356
0.000330223
0.000324112
0.000330795
0.000334236
0.000338324
0.000339308
0.000340177
0.000335233
0.000328622
0.000331907
0.00033737
0.000340001
0.000341713
0.000344113
0.000336024
0.000328841
0.000328629
0.000330065
0.000332981
0.000337137
0.000338564
0.000338997
0.00033326
0.000323311
0.000331431
0.000331181
0.000333005
0.000338753
0.000333792
0.000340667
0.000336307
0.000336158
0.000331845
0.000326347
0.000327844
0.000322152
0.000330876
0.00033404
0.000329553
0.000334164
0.000338493
0.000340506
0.000342137
0.000326479
0.000322057
0.000328308
0.000331146
0.000335496
0.000332699
0.000330255
0.000327043
0.000331952
0.000328922
0.000334612
0.000336201
0.000324281
0.000328191
0.000326601
0.000335386
0.000336332
0.000340169
0.000334466
0.000328217
0.000326608
0.000319637
0.000330792
0.000330292
0.000334636
0.000328192
0.000328099
0.00033003
0.000329522
0.000334468
0.000327333
0.000336009
0.000327104
0.000326067
0.000319762
0.000325851
0.000327605
0.000330124
0.000335017
0.000330823
0.000336987
0.000330977
0.00033576
0.00032873
0.000329363
0.000321173
0.000323586
0.000326573
0.000314363
0.000338553
0.000321835
0.000327922
0.000317704
0.000323887
0.000326787
0.000327172
0.000328012
0.000334193
0.000335693
0.000340911
0.000331768
0.000317631
0.00032916
0.000319424
0.000331886
0.000323106
0.000327338
0.000317901
0.0003256
0.000325946
0.000319221
0.000335682
0.000328701
0.000326363
0.000318932
0.000327867
0.000323935
0.000327914
0.000323499
0.000331072
0.000326385
0.000336536
0.000332143
0.000336367
0.000321506
0.00032301
0.000325811
0.000315161
0.000320237
0.000328297
0.000333424
0.000336015
0.000336952
0.000338696
0.000338408
0.000341102
0.000340435
0.000332822
0.000374352
0.000351952
0.000306707
0.000289178
0.000302936
5.44163e-05
6.12925e-05
7.52523e-05
9.95011e-05
0.000133542
0.000165556
0.000192909
0.000222567
0.000251138
0.000279282
0.00030381
0.000325655
0.000344586
0.000361079
0.000373937
0.000383773
0.000392404
0.000400055
0.00040686
0.000412853
0.000418158
0.000422892
0.000427145
0.000430965
0.000434386
0.000437462
0.000440239
0.000442761
0.000445052
0.000447122
0.000448998
0.000450703
0.000452257
0.000453682
0.000454977
0.000456153
0.000457224
0.000458203
0.000459098
0.00045992
0.000460666
0.000461345
0.000461962
0.000462526
0.000463042
0.000463512
0.000463938
0.000464322
0.000464669
0.000464983
0.000465266
0.000465524
0.000465751
0.000465955
0.000466133
0.000466292
0.00046643
0.000466553
0.000466655
0.000466744
0.000466814
0.000466875
0.000466919
0.000466957
0.000466979
0.000466996
0.000466998
0.000466997
0.000466983
0.00046697
0.000466945
0.000466922
0.000466888
0.000466858
0.000466818
0.000466788
0.000466748
0.000466723
0.000466689
0.000466674
0.000466651
0.000466657
0.000466655
0.000466699
0.000466732
0.000466797
0.000466847
0.00046696
0.000467078
0.000467298
0.000467483
0.000467864
0.000468225
0.000468906
0.000469641
0.000471058
0.000472131
0.000478772
0.000475216
0.000407224
0.000361032
0.000379155
0.000405399
0.000433331
0.000443729
0.000452779
0.000456265
0.000461172
0.000462267
0.000456251
0.000459456
0.000459787
0.000460665
0.000460698
0.000459591
0.000448716
0.000446919
0.00045812
0.000447474
0.000436993
0.000441568
0.000452698
0.000434737
0.000429976
0.000441254
0.000437295
0.000443445
0.000436446
0.000441982
0.000422085
0.000427071
0.000434794
0.000436491
0.00044276
0.00042725
0.000432121
0.000422911
0.000428766
0.000435381
0.000423158
0.000429384
0.00042657
0.000435778
0.000440183
0.000445081
0.000439167
0.000430098
0.0004322
0.000421884
0.000426408
0.000420052
0.000428123
0.000440125
0.000434069
0.000426634
0.000418467
0.000424331
0.000428376
0.000433576
0.000435682
0.000437229
0.000432278
0.000424077
0.000426199
0.000432374
0.00043642
0.00043988
0.000443477
0.000435375
0.000425491
0.000422724
0.00042354
0.000426761
0.000431992
0.000434574
0.000435838
0.000429985
0.00041776
0.000425298
0.00042547
0.000429011
0.000435073
0.000431271
0.000438933
0.000435261
0.000434598
0.00042942
0.000421761
0.000421663
0.000414868
0.000423355
0.000428061
0.000424245
0.000429108
0.000435245
0.000439189
0.000441434
0.000424667
0.000416913
0.000422438
0.000425831
0.00043114
0.000428908
0.000425537
0.000421557
0.000426441
0.000423671
0.000431569
0.000433063
0.000420563
0.000423266
0.000421665
0.00043142
0.000433681
0.000438369
0.000433097
0.000424955
0.000421849
0.000412975
0.000424229
0.000424715
0.000429509
0.000423382
0.000421907
0.000424537
0.000427049
0.000430715
0.00042393
0.000432877
0.00042364
0.000420698
0.00041255
0.000417325
0.000420661
0.000424372
0.000431056
0.00042804
0.000435401
0.000430231
0.000434745
0.000426812
0.000425808
0.000416403
0.000416617
0.000420487
0.000402337
0.000436162
0.000419356
0.000423976
0.000412146
0.000417041
0.000420307
0.000420921
0.000422037
0.000427444
0.000432322
0.000438376
0.000430944
0.000417279
0.000425818
0.000415887
0.000428631
0.000420306
0.00042346
0.000412509
0.000419027
0.000419949
0.000417445
0.000432978
0.000426188
0.000423587
0.000414107
0.000422985
0.000419405
0.000423824
0.000419178
0.000427432
0.000423819
0.000435162
0.000432321
0.000436301
0.000419754
0.000418283
0.000421412
0.000408812
0.000412104
0.000420721
0.000428616
0.000433518
0.000435738
0.000438982
0.000439032
0.000435361
0.000442607
0.000415727
0.000488668
0.000465757
0.000406494
0.000388693
0.00037633
5.48766e-05
5.26072e-05
5.78097e-05
6.93613e-05
9.02021e-05
0.000120236
0.000156716
0.000180574
0.000207509
0.000235907
0.000263758
0.000292289
0.000318163
0.000342433
0.00036455
0.000383959
0.000401397
0.000416986
0.000430835
0.000441015
0.0004502
0.000458546
0.000466161
0.000473105
0.000479415
0.000485176
0.000490457
0.000495319
0.000499796
0.000503909
0.000507698
0.000511198
0.00051444
0.000517452
0.000520239
0.000522821
0.000525219
0.000527452
0.000529534
0.000531477
0.000533284
0.00053497
0.000536542
0.000538013
0.000539393
0.000540684
0.00054189
0.000543017
0.000544073
0.000545064
0.000545994
0.000546868
0.000547685
0.000548452
0.00054917
0.000549845
0.000550479
0.000551076
0.000551634
0.00055216
0.00055265
0.000553113
0.000553545
0.000553955
0.000554336
0.000554697
0.000555032
0.00055535
0.000555646
0.000555929
0.000556192
0.000556446
0.000556681
0.00055691
0.000557122
0.000557335
0.000557533
0.000557737
0.000557927
0.00055813
0.000558321
0.000558536
0.000558741
0.00055899
0.000559225
0.000559503
0.000559746
0.000560064
0.000560388
0.000560826
0.000561213
0.000561844
0.00056244
0.000563421
0.000564458
0.000566301
0.000567844
0.000575446
0.000571423
0.000499386
0.000455353
0.000448365
0.000463651
0.00050442
0.000522731
0.00053511
0.000542358
0.00055022
0.000554034
0.000550455
0.000554858
0.000556636
0.000558882
0.000560006
0.000559849
0.000549223
0.000546872
0.000558768
0.000549217
0.000537413
0.000541059
0.000552878
0.000535459
0.000529087
0.000540497
0.000538182
0.00054408
0.000538092
0.000542815
0.000521924
0.000524424
0.000532602
0.000535569
0.000542261
0.000527331
0.000530879
0.000520815
0.000526642
0.000532722
0.000521289
0.000526578
0.000524098
0.000533507
0.000538824
0.000544567
0.000539001
0.000529246
0.000530142
0.000518811
0.000521671
0.000514627
0.000525301
0.000535722
0.0005311
0.000522543
0.000512762
0.000517364
0.000521418
0.000527221
0.000530189
0.000532406
0.000527703
0.000518759
0.000519712
0.000524513
0.000530988
0.000535929
0.00054073
0.00053312
0.000521835
0.000516739
0.000516635
0.000519599
0.000525343
0.000528761
0.000530816
0.000525179
0.000511727
0.000518362
0.000518427
0.000522555
0.00052916
0.000527029
0.000535345
0.000532572
0.0005319
0.000526291
0.000517333
0.00051553
0.000507579
0.000513645
0.00052069
0.000517554
0.000522604
0.000530015
0.000535776
0.000538728
0.000521968
0.000512286
0.000516622
0.000519994
0.000525727
0.0005241
0.000520083
0.000515539
0.000520132
0.000517621
0.000525472
0.00052814
0.000516222
0.000517822
0.000516363
0.000526496
0.000529819
0.000535268
0.000530453
0.000521675
0.000517187
0.000506913
0.000517421
0.000518447
0.000523276
0.000517357
0.00051517
0.000517909
0.000521486
0.000525417
0.000519829
0.000528586
0.000519496
0.000514964
0.000505298
0.000508697
0.000512501
0.000517069
0.000525124
0.000524103
0.000532286
0.000528618
0.000532889
0.000524684
0.00052232
0.000511849
0.000510212
0.000514116
0.000503786
0.000532611
0.000516873
0.000519937
0.000507103
0.000510411
0.000513447
0.00051407
0.000515219
0.00051968
0.000527161
0.000534196
0.000528146
0.00051389
0.000521822
0.000512866
0.000525158
0.000517725
0.000519768
0.0005078
0.000512794
0.000513522
0.000518128
0.000528592
0.000522882
0.000520258
0.000509748
0.000517742
0.000514721
0.000518934
0.000514767
0.000522936
0.000520815
0.000532781
0.000531818
0.000535607
0.000518248
0.000514664
0.000517162
0.000503274
0.000504482
0.000513421
0.000522484
0.000529079
0.000532828
0.000537461
0.000538526
0.000536311
0.000544696
0.000501576
0.000601134
0.000578474
0.000513102
0.000482377
0.00045951
6.84577e-05
5.0982e-05
4.93926e-05
5.29879e-05
6.25063e-05
7.97797e-05
0.000106067
0.000138379
0.000171187
0.000193403
0.000218599
0.000245748
0.000272225
0.000300169
0.000326637
0.000351802
0.000375809
0.000397787
0.000418155
0.00043666
0.000453356
0.000468462
0.000482391
0.000494375
0.000504054
0.000512985
0.000521259
0.000528948
0.000536087
0.0005427
0.000548844
0.000554569
0.000559917
0.000564922
0.000569593
0.00057396
0.00057805
0.00058189
0.000585499
0.000588894
0.000592081
0.00059508
0.000597905
0.000600571
0.000603091
0.00060547
0.000607715
0.000609836
0.000611842
0.000613744
0.000615547
0.000617257
0.000618875
0.000620411
0.000621867
0.000623252
0.000624568
0.000625821
0.00062701
0.000628142
0.000629216
0.000630242
0.000631219
0.000632152
0.000633039
0.000633887
0.000634692
0.000635465
0.000636201
0.000636909
0.000637584
0.000638235
0.000638856
0.000639458
0.000640034
0.000640598
0.000641138
0.000641673
0.000642188
0.000642705
0.000643205
0.000643721
0.000644221
0.00064476
0.000645282
0.000645855
0.000646375
0.000646969
0.000647575
0.000648301
0.000648965
0.000649907
0.000650803
0.00065213
0.000653515
0.000655789
0.000657836
0.000666092
0.000661581
0.000589068
0.000546277
0.000524879
0.0005284
0.000557294
0.000582792
0.000610104
0.000620436
0.000630796
0.000637403
0.000636647
0.000642645
0.00064607
0.000649923
0.000652435
0.00065354
0.000643852
0.00064208
0.000654071
0.000646037
0.00063399
0.000637065
0.000648953
0.000632427
0.000625818
0.00063657
0.000636124
0.000641536
0.000636996
0.000640857
0.000619871
0.000620634
0.000628344
0.000632394
0.000639034
0.000625363
0.00062781
0.000617286
0.000622095
0.000628017
0.000617855
0.000622208
0.000620197
0.00062947
0.000635397
0.000641763
0.000636524
0.000627058
0.000626807
0.000615031
0.000616074
0.000608457
0.000618351
0.000629382
0.000626024
0.000616899
0.000606015
0.00060927
0.000613035
0.000619031
0.000622576
0.00062531
0.000620889
0.000611764
0.000611701
0.000615666
0.000623362
0.000629453
0.000635255
0.000628278
0.000616545
0.000609664
0.000608669
0.000611129
0.000617002
0.000620923
0.000623566
0.000618131
0.000604301
0.000609904
0.000609673
0.000613723
0.000620848
0.000620493
0.000629302
0.000627476
0.000627068
0.000621327
0.000611844
0.000608536
0.000599603
0.000602716
0.000611878
0.000609237
0.000614359
0.000622617
0.000629876
0.000633444
0.000617255
0.000606765
0.000609928
0.000613114
0.000618841
0.000617753
0.000613258
0.000608384
0.000612575
0.000610307
0.000618094
0.000621249
0.00061039
0.000611079
0.000609914
0.000620069
0.000624215
0.000630268
0.000625827
0.000617139
0.000611511
0.000600567
0.000609881
0.000611196
0.000615711
0.000609797
0.00060728
0.000609844
0.000613599
0.000618154
0.000614152
0.000622488
0.000613817
0.000608035
0.000597222
0.000599408
0.00060309
0.000608097
0.000617098
0.000618391
0.000626997
0.000625095
0.00062916
0.000621141
0.000617809
0.000606536
0.000603671
0.000607075
0.000610822
0.000627181
0.000613182
0.000614819
0.00060152
0.000603272
0.000605829
0.000606265
0.000607253
0.000610672
0.000620073
0.000628038
0.000622973
0.000609549
0.000616423
0.000609115
0.000620623
0.000614312
0.000615249
0.000602726
0.000606151
0.000606322
0.000613451
0.00062231
0.000618052
0.000615374
0.000604768
0.000611495
0.000609165
0.000612767
0.000609427
0.000617079
0.00061662
0.000628788
0.000629499
0.000633253
0.000615721
0.000610798
0.000612258
0.000597693
0.000596847
0.00060532
0.000615062
0.00062285
0.000627903
0.000633785
0.000636112
0.000641212
0.000645481
0.000588099
0.00071052
0.000688118
0.000622016
0.000580904
0.000555791
0.000108647
6.01572e-05
4.93498e-05
4.66602e-05
4.87461e-05
5.60383e-05
7.00202e-05
9.157e-05
0.000119681
0.000152092
0.00018294
0.000204175
0.00022768
0.000253074
0.000278147
0.000304674
0.000331381
0.000356617
0.000381329
0.000404981
0.000427058
0.000447735
0.0004671
0.00048498
0.000501343
0.000516432
0.00053032
0.000543215
0.00055465
0.000564085
0.000572915
0.000581199
0.000588989
0.000596321
0.000603198
0.000609662
0.000615751
0.000621499
0.000626931
0.000632065
0.000636912
0.000641497
0.000645839
0.000649957
0.000653869
0.00065758
0.000661101
0.000664446
0.000667627
0.000670658
0.000673546
0.000676297
0.000678916
0.000681415
0.000683798
0.000686077
0.000688254
0.000690336
0.000692325
0.000694228
0.000696047
0.000697792
0.000699464
0.000701068
0.000702603
0.000704078
0.000705491
0.000706851
0.000708156
0.000709415
0.000710625
0.000711793
0.000712916
0.000714005
0.000715054
0.000716077
0.000717065
0.000718034
0.000718972
0.0007199
0.000720802
0.00072171
0.000722594
0.000723509
0.000724399
0.000725342
0.000726226
0.000727169
0.000728126
0.000729206
0.000730218
0.000731525
0.000732773
0.000734484
0.00073625
0.000738947
0.000741501
0.000750118
0.000745134
0.000674504
0.000626421
0.000604048
0.000600408
0.000611554
0.00063337
0.000671677
0.000691934
0.000704267
0.000713295
0.00071526
0.000722893
0.000728001
0.000733552
0.000737576
0.000740094
0.000731834
0.000731324
0.000743166
0.000736883
0.000725392
0.000728301
0.00073995
0.000724597
0.000718631
0.000728454
0.000729884
0.000734748
0.000731827
0.000734915
0.000714498
0.000714194
0.00072105
0.000726077
0.000732312
0.000720259
0.000721819
0.000711156
0.00071528
0.000720554
0.000711864
0.000715366
0.00071394
0.000722901
0.000729194
0.000735972
0.000731016
0.000722348
0.000721107
0.000709384
0.000708731
0.000700727
0.000709808
0.000720808
0.000718454
0.000709028
0.000697493
0.000699465
0.000702828
0.000708753
0.000712643
0.000715727
0.000711531
0.00070254
0.000701665
0.000705302
0.000713282
0.000720233
0.000726779
0.000720447
0.000708836
0.00070073
0.000699005
0.000700915
0.000706718
0.000710883
0.000713904
0.000708571
0.000694893
0.000699495
0.000698887
0.00070286
0.000710068
0.000711354
0.000720514
0.000719551
0.00071957
0.000713904
0.000704452
0.000699903
0.000690322
0.000690743
0.00070141
0.000699094
0.000704182
0.00071296
0.000721375
0.00072542
0.000710034
0.000699468
0.000701625
0.00070466
0.000710099
0.000709488
0.000704649
0.000699673
0.000703431
0.000701383
0.000709067
0.000712256
0.000702602
0.000702513
0.000701774
0.00071175
0.000716535
0.000723038
0.000718876
0.000710649
0.000704124
0.000693136
0.000701093
0.000702528
0.000706574
0.000700525
0.00069789
0.000700114
0.000704154
0.000708835
0.000706491
0.000714274
0.00070615
0.000699404
0.000687776
0.000688961
0.000692218
0.000697606
0.000707053
0.000710595
0.000719308
0.000719079
0.000723027
0.000715484
0.000711547
0.000699773
0.000696203
0.000698929
0.000709326
0.000719554
0.000707623
0.000707995
0.000694671
0.000695052
0.000697024
0.00069722
0.000697909
0.000700031
0.000711005
0.000719768
0.000715367
0.000703463
0.000709148
0.000703848
0.00071445
0.000709366
0.000709234
0.000696528
0.000698069
0.000697986
0.000705059
0.000714116
0.00071135
0.00070832
0.000698372
0.000703753
0.000702208
0.000705031
0.00070264
0.000709539
0.000710795
0.000722827
0.000724992
0.000728718
0.00071142
0.000705756
0.000706108
0.000691337
0.000688644
0.000696002
0.000706307
0.000714951
0.000720896
0.000727918
0.000731474
0.000740699
0.000744249
0.000682462
0.00081022
0.000794359
0.000730322
0.000682134
0.000659717
0.000114487
8.83523e-05
6.1248e-05
5.02565e-05
4.58093e-05
4.59544e-05
5.08533e-05
6.13753e-05
7.82058e-05
0.00010164
0.000130381
0.000162165
0.000193619
0.000213635
0.000235437
0.000258984
0.000283023
0.000307548
0.00033355
0.000358588
0.000383288
0.000407591
0.000430701
0.000452703
0.000473841
0.000493732
0.000512314
0.00052981
0.000546245
0.000561364
0.000575389
0.00058856
0.000600822
0.000612336
0.000621646
0.000630443
0.00063877
0.000646668
0.000654166
0.000661276
0.000668013
0.000674412
0.000680494
0.000686287
0.000691809
0.000697064
0.00070207
0.000706843
0.000711398
0.000715753
0.000719916
0.000723895