/*--------------------------------*- C++ -*----------------------------------*\
| =========                 |                                                 |
| \\      /  F ield         | foam-extend: Open Source CFD                    |
|  \\    /   O peration     | Version:     3.2                                |
|   \\  /    A nd           | Web:         http://www.foam-extend.org         |
|    \\/     M anipulation  | For copyright notice see file Copyright         |
\*---------------------------------------------------------------------------*/
FoamFile
{
    version     2.0;
    format      ascii;
    class       areaScalarField;
    location    "160";
    object      Fi1;
}
// * * * * * * * * * * * * * * * * * * * * * * * * * * * * * * * * * * * * * //

dimensions      [0 1 -1 0 0 0 0];

internalField   nonuniform List<scalar> 
300
(
-0.0007439
-0.000525237
-0.000298561
-0.000219213
-0.000191395
-0.000177293
-0.000167295
-0.000158698
-0.000150909
-0.000143949
-0.000137823
-0.000132417
-0.000127584
-0.00012332
-0.00011952
-0.000116098
-0.000112995
-0.000110154
-0.000107571
-0.000105233
-0.000103074
-0.00010106
-9.91786e-05
-9.7423e-05
-9.57837e-05
-9.42411e-05
-9.27889e-05
-9.14157e-05
-9.01191e-05
-8.8897e-05
-8.77333e-05
-8.66306e-05
-8.55748e-05
-8.45728e-05
-8.36138e-05
-8.27027e-05
-8.18243e-05
-8.09869e-05
-8.01785e-05
-7.94053e-05
-7.86613e-05
-7.79464e-05
-7.7256e-05
-7.65917e-05
-7.59475e-05
-7.53296e-05
-7.47289e-05
-7.4153e-05
-7.35888e-05
-7.30494e-05
-7.25189e-05
-7.2012e-05
-7.15139e-05
-7.10373e-05
-7.05675e-05
-7.01178e-05
-6.96732e-05
-6.92493e-05
-6.88221e-05
-6.84204e-05
-6.80146e-05
-6.7636e-05
-6.72513e-05
-6.68945e-05
-6.65293e-05
-6.61944e-05
-6.58478e-05
-6.55334e-05
-6.52048e-05
-6.49109e-05
-6.46009e-05
-6.43287e-05
-6.40381e-05
-6.37887e-05
-6.35187e-05
-6.32943e-05
-6.30491e-05
-6.28525e-05
-6.26376e-05
-6.24745e-05
-6.22968e-05
-6.21746e-05
-6.2047e-05
-6.19766e-05
-6.19219e-05
-6.19136e-05
-6.19449e-05
-6.20433e-05
-6.21957e-05
-6.24436e-05
-6.28043e-05
-6.32674e-05
-6.39705e-05
-6.4764e-05
-6.6164e-05
-6.76425e-05
-7.09305e-05
-7.23361e-05
-9.11504e-05
-2.34572e-05
3.84279e-06
5.41542e-06
6.16539e-06
6.77453e-06
7.14311e-06
7.50732e-06
7.68896e-06
7.9554e-06
8.04463e-06
-7.44564e-06
-7.40171e-06
-1.31189e-05
3.58002e-05
4.97688e-05
8.09422e-06
8.67837e-06
-3.52297e-05
-6.37707e-05
-1.15465e-05
9.17363e-06
-7.57636e-06
3.39749e-05
5.42214e-05
9.06233e-06
9.05402e-06
-4.11615e-05
-6.06988e-05
-9.32177e-06
-1.38317e-05
7.32931e-06
5.22486e-05
4.22015e-05
8.44529e-06
8.84975e-06
-3.69046e-05
-6.52347e-05
-3.95846e-06
4.6435e-05
4.72019e-05
8.21279e-06
8.93143e-06
8.61782e-06
-4.90226e-05
-6.64695e-05
-2.20095e-05
-8.3015e-06
2.98808e-06
5.46106e-05
7.29164e-05
7.86309e-06
8.74563e-06
9.34415e-06
-6.2902e-05
-7.98018e-05
1.32272e-06
8.37212e-06
4.69889e-05
5.84332e-05
8.08288e-06
9.41585e-06
8.7435e-06
-4.85762e-05
-5.80683e-05
-3.20184e-06
-1.69067e-05
4.14636e-05
6.60022e-05
8.13314e-06
8.77554e-06
-4.67018e-05
-6.1954e-05
-6.01899e-06
-9.8024e-06
4.30314e-05
6.12819e-05
8.43223e-06
9.31111e-06
-3.49484e-05
-6.53027e-05
-1.13717e-05
-5.50665e-06
-1.75243e-05
4.5072e-05
6.28149e-05
7.88178e-06
9.05062e-06
9.47559e-06
-4.6535e-05
-6.29078e-05
7.61799e-06
-1.0859e-05
-2.23017e-05
4.26521e-05
6.31583e-05
8.46721e-06
8.84798e-06
8.42489e-06
-4.03491e-05
-5.68363e-05
-1.24865e-05
-1.53338e-05
4.33562e-05
6.47171e-05
7.98058e-06
8.71052e-06
-4.48035e-05
-5.49283e-05
-1.90869e-05
-1.98955e-05
5.89531e-06
4.54791e-05
5.8965e-05
8.13575e-06
9.03131e-06
9.02584e-06
8.15208e-06
-5.31162e-05
-6.10125e-05
8.657e-06
-1.2392e-05
-1.47296e-05
4.36154e-05
5.95444e-05
8.75826e-06
9.15778e-06
8.71022e-06
-4.44922e-05
-6.01146e-05
-1.47146e-05
-1.0732e-05
1.18964e-07
4.40091e-05
5.82483e-05
8.21715e-06
8.77339e-06
-3.89896e-05
-6.20456e-05
-1.56419e-05
-1.4804e-05
5.15787e-05
6.44662e-05
8.41517e-06
8.99023e-06
8.85582e-06
8.98175e-06
-5.21644e-05
-6.52659e-05
2.34573e-06
5.17451e-05
5.75207e-05
7.90928e-06
8.73186e-06
-3.5571e-05
-5.11212e-05
-1.87716e-05
3.27454e-05
6.15064e-05
7.99912e-06
8.65431e-06
8.18885e-06
8.74594e-06
-4.90251e-05
-6.18217e-05
-5.08582e-06
6.52992e-06
-8.44842e-06
-1.03384e-05
-8.40359e-06
-1.89405e-05
-1.10515e-05
-3.06621e-06
3.05989e-06
-9.7086e-06
-9.9145e-06
-7.58248e-06
-5.27983e-06
-1.05596e-05
-8.31007e-06
-1.52104e-05
-1.5263e-05
-1.40433e-05
2.59306e-06
5.48118e-06
-1.54813e-05
4.2462e-06
-5.5153e-07
-8.23978e-06
-8.07665e-06
-7.78385e-06
-7.6602e-06
-7.78679e-06
-6.93188e-06
-7.21606e-06
-6.05381e-06
-5.86514e-06
-3.89878e-06
-2.93945e-05
-7.54104e-05
-4.60929e-05
-3.88842e-05
)
;

boundaryField
{
    inlet
    {
        type            calculated;
        value           uniform -0.000743899;
    }
    outlet
    {
        type            calculated;
        value           uniform -4.3718e-05;
    }
    sideWall
    {
        type            empty;
    }
}


// ************************************************************************* //
