/*--------------------------------*- C++ -*----------------------------------*\
| =========                 |                                                 |
| \\      /  F ield         | foam-extend: Open Source CFD                    |
|  \\    /   O peration     | Version:     3.2                                |
|   \\  /    A nd           | Web:         http://www.foam-extend.org         |
|    \\/     M anipulation  | For copyright notice see file Copyright         |
\*---------------------------------------------------------------------------*/
FoamFile
{
    version     2.0;
    format      ascii;
    class       areaScalarField;
    location    "160";
    object      Fi2;
}
// * * * * * * * * * * * * * * * * * * * * * * * * * * * * * * * * * * * * * //

dimensions      [0 1 -1 0 0 0 0];

internalField   nonuniform List<scalar> 
300
(
-0.0007439
-0.000525237
-0.000298561
-0.000219213
-0.000191395
-0.000177293
-0.000167295
-0.000158698
-0.000150909
-0.000143949
-0.000137823
-0.000132417
-0.000127584
-0.00012332
-0.00011952
-0.000116098
-0.000112995
-0.000110154
-0.000107571
-0.000105233
-0.000103074
-0.00010106
-9.91786e-05
-9.7423e-05
-9.57837e-05
-9.42411e-05
-9.27889e-05
-9.14157e-05
-9.01191e-05
-8.8897e-05
-8.77333e-05
-8.66306e-05
-8.55748e-05
-8.45728e-05
-8.36138e-05
-8.27027e-05
-8.18243e-05
-8.09869e-05
-8.01785e-05
-7.94053e-05
-7.86613e-05
-7.79464e-05
-7.7256e-05
-7.65917e-05
-7.59475e-05
-7.53296e-05
-7.47289e-05
-7.4153e-05
-7.35888e-05
-7.30494e-05
-7.25189e-05
-7.2012e-05
-7.15139e-05
-7.10373e-05
-7.05675e-05
-7.01178e-05
-6.96732e-05
-6.92493e-05
-6.88221e-05
-6.84204e-05
-6.80147e-05
-6.7636e-05
-6.72513e-05
-6.68945e-05
-6.65293e-05
-6.61944e-05
-6.58478e-05
-6.55334e-05
-6.52048e-05
-6.49109e-05
-6.4601e-05
-6.43287e-05
-6.40382e-05
-6.37888e-05
-6.35188e-05
-6.32944e-05
-6.30492e-05
-6.28526e-05
-6.26378e-05
-6.24747e-05
-6.2297e-05
-6.21749e-05
-6.20473e-05
-6.19769e-05
-6.19224e-05
-6.19142e-05
-6.19455e-05
-6.2044e-05
-6.21966e-05
-6.24447e-05
-6.28057e-05
-6.32691e-05
-6.39726e-05
-6.47667e-05
-6.61675e-05
-6.76474e-05
-7.09376e-05
-7.23475e-05
-9.11719e-05
-3.39368e-05
-3.93133e-06
-5.32247e-06
-6.3097e-06
-6.67651e-06
-7.37853e-06
-7.22729e-06
-8.21104e-06
-7.37573e-06
-8.97909e-06
-7.6606e-06
5.04777e-05
8.31832e-06
8.85814e-06
8.71927e-06
-4.23801e-05
-4.67595e-05
2.03451e-06
3.03322e-05
5.24768e-05
8.42876e-06
9.03624e-06
9.1412e-06
-2.3804e-05
-4.81391e-05
-2.11362e-05
-1.21772e-05
4.13588e-05
5.77091e-05
8.74362e-06
8.90093e-06
8.84496e-06
9.11057e-06
-4.59086e-05
-6.50906e-05
-2.00502e-07
5.04728e-05
5.52462e-05
8.4596e-06
8.85483e-06
-3.73092e-05
-5.9708e-05
-9.95795e-06
-1.41281e-05
-1.81484e-05
5.27086e-05
6.93122e-05
8.09426e-06
9.01547e-06
8.93809e-06
-5.03287e-05
-5.31753e-05
-1.36209e-05
-3.23266e-05
5.17186e-05
8.01741e-05
8.32765e-06
9.21063e-06
8.64208e-06
-5.08662e-05
-6.84913e-05
-1.68618e-05
-1.05919e-05
6.26455e-06
4.72741e-05
5.84661e-05
7.99378e-06
9.36028e-06
-6.4636e-05
-7.47171e-05
8.59698e-06
-5.22734e-07
4.71003e-05
6.17993e-05
8.41037e-06
9.20371e-06
-5.61781e-05
-6.69575e-05
1.60431e-05
-1.21233e-05
3.14965e-05
6.42171e-05
8.59851e-06
9.1056e-06
8.82457e-06
-5.13133e-05
-7.84953e-05
-7.7276e-06
3.30399e-06
-6.52237e-06
4.86e-05
5.99232e-05
8.17461e-06
8.91856e-06
9.46132e-06
-4.96424e-05
-7.16486e-05
-2.16271e-05
1.9657e-06
1.42705e-05
4.08024e-05
5.86246e-05
7.95961e-06
9.16364e-06
-4.5385e-05
-5.7696e-05
-1.0619e-05
-5.05848e-06
4.45697e-05
5.30298e-05
8.11408e-06
8.83099e-06
8.40738e-06
-5.06745e-05
-6.46444e-05
-1.92414e-05
-1.07938e-05
1.61804e-06
-3.86893e-06
8.3753e-06
4.41949e-05
5.55233e-05
7.83321e-06
8.82419e-06
-4.34543e-05
-5.47984e-05
-1.23852e-05
-1.42871e-05
-3.0835e-06
4.95556e-05
5.94884e-05
7.98232e-06
8.94474e-06
9.11101e-06
-3.22897e-05
-5.69833e-05
-1.37078e-05
-1.06839e-05
4.07196e-05
6.14949e-05
8.45684e-06
9.04495e-06
-5.14462e-05
-5.05306e-05
3.61885e-06
-7.1923e-06
-1.78975e-05
3.54479e-05
6.876e-05
7.88061e-06
8.43695e-06
-3.84444e-05
-5.5814e-05
-7.79919e-06
3.57503e-05
5.32396e-05
8.11786e-06
8.79534e-06
-3.35121e-05
-5.11907e-06
9.53329e-07
-5.36892e-05
-1.53294e-05
3.48915e-05
6.62733e-05
9.05819e-06
8.57401e-06
8.60725e-06
8.67341e-06
8.52144e-06
8.35196e-06
8.41971e-06
8.44592e-06
8.43551e-06
8.42666e-06
8.35471e-06
8.41115e-06
8.36035e-06
8.35161e-06
8.28938e-06
8.14315e-06
8.14168e-06
8.11983e-06
8.34403e-06
8.20186e-06
8.09813e-06
8.32701e-06
8.33656e-06
8.14372e-06
8.05019e-06
7.84703e-06
7.66502e-06
7.42963e-06
7.0368e-06
6.60122e-06
5.75278e-06
4.29695e-06
-1.97665e-05
-7.5606e-05
-4.62182e-05
-3.89877e-05
)
;

boundaryField
{
    inlet
    {
        type            calculated;
        value           uniform -0.000743899;
    }
    outlet
    {
        type            calculated;
        value           uniform -4.3718e-05;
    }
    sideWall
    {
        type            empty;
    }
}


// ************************************************************************* //
