/*--------------------------------*- C++ -*----------------------------------*\
| =========                 |                                                 |
| \\      /  F ield         | foam-extend: Open Source CFD                    |
|  \\    /   O peration     | Version:     3.2                                |
|   \\  /    A nd           | Web:         http://www.foam-extend.org         |
|    \\/     M anipulation  | For copyright notice see file Copyright         |
\*---------------------------------------------------------------------------*/
FoamFile
{
    version     2.0;
    format      ascii;
    class       areaScalarField;
    location    "160";
    object      He;
}
// * * * * * * * * * * * * * * * * * * * * * * * * * * * * * * * * * * * * * //

dimensions      [0 0 0 0 0 0 0];

internalField   nonuniform List<scalar> 
300
(
0
0
0
0
0
0
0
0
0
0
0
0
0
0
0
0
0
0
0
0
0
0
0
0
0
0
0
0
0
0
0
0
0
0
0
0
0
0
0
0
0
0
0
0
0
0
0
0
0
0
0
0
0
0
0
0
0
0
0
0
0
0
0
0
0
0
0
0
0
0
0
0
0
0
0
0
0
0
0
0
0
0
0
0
0
0
0
0
0
0
0
0
0
0
0
0
0
0
0
0
0
0
0
0
0
0
0
0
0
3.56159e-06
8.84218e-06
0
0
0
0
3.59112e-05
3.44777e-05
4.35809e-05
1.9423e-05
1.94275e-07
0
0
0
0
2.91451e-05
3.45258e-05
4.29695e-05
2.32929e-05
7.41391e-06
0
0
0
0
4.67613e-05
3.63024e-05
4.2833e-05
6.67893e-06
0
0
0
0
2.915e-05
5.30636e-05
5.09921e-05
2.9697e-05
8.90596e-06
0
0
0
0
0
3.70485e-05
5.56971e-05
5.52964e-05
1.71961e-05
0
0
0
0
0
3.362e-05
4.45647e-05
4.1978e-05
2.03441e-05
0
0
0
0
5.6623e-05
5.11573e-05
4.41573e-05
2.09487e-05
0
0
0
0
4.54873e-05
4.32239e-05
4.42323e-05
2.33882e-05
9.97716e-06
0
0
0
0
0
2.72943e-05
3.85358e-05
4.11853e-05
1.4635e-05
9.10091e-06
3.20261e-06
0
0
0
0
3.18978e-05
3.3134e-05
4.16264e-05
2.42853e-05
0
0
0
0
4.76994e-05
5.49543e-05
4.34368e-05
2.82493e-05
1.32455e-05
0
0
0
0
0
0
1.67491e-05
4.26298e-05
4.16238e-05
1.40259e-05
7.71478e-06
0
0
0
0
0
2.79417e-05
4.61071e-05
4.48602e-05
2.50699e-05
9.01475e-06
0
0
0
0
4.32971e-05
5.65841e-05
4.4684e-05
2.70359e-05
0
0
0
0
0
0
1.35027e-05
4.20416e-05
4.50834e-05
2.20307e-06
0
0
0
4.20175e-05
3.72983e-05
3.91463e-05
1.39803e-05
0
0
0
0
0
3.62758e-05
5.01414e-05
4.44395e-05
1.63659e-05
1.18978e-07
5.17655e-06
9.38221e-06
1.15212e-05
1.43334e-05
1.10272e-05
3.53115e-06
1.66401e-06
6.56805e-06
9.28005e-06
7.58982e-06
7.1752e-06
8.67696e-06
1.05969e-05
1.34979e-05
1.4945e-05
1.01886e-05
8.4345e-07
4.81295e-07
5.30868e-06
1.88528e-06
1.27426e-06
6.27694e-06
8.04423e-06
7.82614e-06
7.72277e-06
7.54153e-06
7.21678e-06
6.85476e-06
6.29747e-06
5.42256e-06
3.41457e-06
9.71733e-07
0
0
0
)
;

boundaryField
{
    inlet
    {
        type            calculated;
        value           uniform 0;
    }
    outlet
    {
        type            calculated;
        value           uniform 0;
    }
    sideWall
    {
        type            empty;
    }
}


// ************************************************************************* //
