/*--------------------------------*- C++ -*----------------------------------*\
| =========                 |                                                 |
| \\      /  F ield         | foam-extend: Open Source CFD                    |
|  \\    /   O peration     | Version:     3.2                                |
|   \\  /    A nd           | Web:         http://www.foam-extend.org         |
|    \\/     M anipulation  | For copyright notice see file Copyright         |
\*---------------------------------------------------------------------------*/
FoamFile
{
    version     2.0;
    format      ascii;
    class       volScalarField;
    location    "160";
    object      k;
}
// * * * * * * * * * * * * * * * * * * * * * * * * * * * * * * * * * * * * * //

dimensions      [0 2 -2 0 0 0 0];

internalField   nonuniform List<scalar> 
96000
(
0.178319
0.142008
0.0985161
0.0808966
0.0742543
0.070771
0.0682484
0.0660411
0.064009
0.0621651
0.0605192
0.0590479
0.0577167
0.0565292
0.0554603
0.0544889
0.0536002
0.0527801
0.0520289
0.0513441
0.050708
0.0501106
0.0495493
0.0490227
0.0485284
0.048061
0.0476188
0.0471987
0.0468004
0.0464234
0.0460629
0.04572
0.0453906
0.0450767
0.0447753
0.044488
0.0442101
0.0439444
0.0436871
0.0434403
0.0432021
0.0429727
0.0427505
0.0425361
0.0423278
0.0421274
0.0419321
0.0417445
0.0415603
0.0413838
0.0412098
0.0410433
0.0408793
0.040722
0.0405667
0.0404178
0.0402703
0.0401294
0.0399871
0.0398531
0.0397175
0.0395908
0.0394618
0.039342
0.0392192
0.0391064
0.0389895
0.0388833
0.0387721
0.0386725
0.0385674
0.0384749
0.0383761
0.0382912
0.0381992
0.0381226
0.0380389
0.0379716
0.0378981
0.0378422
0.0377813
0.0377394
0.0376956
0.0376715
0.0376527
0.0376499
0.0376607
0.0376945
0.0377469
0.037832
0.0379556
0.038114
0.0383539
0.0386237
0.0390974
0.0395947
0.0406893
0.0411614
0.0471331
0.0435221
0.0235024
0.0228062
0.0241088
0.024168
0.0249611
0.0248623
0.0257798
0.0254084
0.0264414
0.0264466
0.0250562
0.0268312
0.0259731
0.0273307
0.027028
0.0287228
0.0242778
0.027307
0.0295076
0.0266531
0.0253658
0.0271052
0.0313557
0.0228466
0.0275976
0.0275753
0.0283776
0.0287447
0.0280189
0.0300847
0.0231261
0.0290633
0.026976
0.0298207
0.0299702
0.0270482
0.02983
0.0246142
0.0303878
0.028489
0.0275738
0.0288342
0.027306
0.0306917
0.03037
0.0338275
0.0293824
0.0310382
0.0303019
0.0283467
0.0296452
0.0259677
0.0318268
0.0321213
0.0312395
0.0288296
0.0275523
0.0286006
0.0286134
0.0300939
0.0298237
0.0310346
0.0287759
0.0276173
0.0277367
0.0293058
0.0298693
0.0308853
0.0326954
0.0299807
0.0288282
0.028183
0.0283622
0.0281706
0.0297431
0.0293772
0.0310853
0.0282211
0.0261136
0.029305
0.025856
0.0290346
0.0287206
0.0287549
0.0320259
0.0296668
0.0316735
0.028853
0.0288436
0.0277349
0.0256205
0.0287203
0.0284368
0.0268478
0.0287599
0.0298221
0.0308399
0.0324656
0.0267951
0.0280518
0.0282715
0.0291729
0.0298695
0.0293065
0.0281914
0.0276144
0.028976
0.0262485
0.0313569
0.0288204
0.0278733
0.0278053
0.0274183
0.0302256
0.0293695
0.0330875
0.0288348
0.0304996
0.0275351
0.0270478
0.0294221
0.0278541
0.0305428
0.0258357
0.0288168
0.0267804
0.0300403
0.0282146
0.0287505
0.0307868
0.027766
0.0280459
0.0243305
0.0281196
0.0252758
0.0284267
0.027442
0.0288984
0.029892
0.0292865
0.03103
0.0283024
0.0302387
0.0246953
0.0286844
0.0252362
0.031224
0.0298963
0.0280871
0.0291272
0.0255433
0.0276733
0.0265936
0.0269281
0.0256054
0.029073
0.0262101
0.0331183
0.02533
0.0286394
0.0273882
0.027863
0.0303147
0.0280333
0.028791
0.0243481
0.0289646
0.0241642
0.0295099
0.0276946
0.0292657
0.0257565
0.0269603
0.0264447
0.0274652
0.0258202
0.0271899
0.0268428
0.0274563
0.0296834
0.0286944
0.0312946
0.0243938
0.028532
0.0266072
0.0245246
0.024247
0.0264445
0.0262723
0.0278945
0.0271908
0.0293853
0.0280653
0.0320303
0.0292391
0.0392567
0.054077
0.0422202
0.0320434
0.0292804
0.0457228
0.0704376
0.0777443
0.0777712
0.075762
0.0733601
0.071026
0.0688371
0.0668365
0.0650512
0.063426
0.0619603
0.0606352
0.0594488
0.0583731
0.0573819
0.0564724
0.0556344
0.0548664
0.0541467
0.0534708
0.0528371
0.0522443
0.0516893
0.051166
0.050671
0.0502021
0.0497585
0.0493379
0.0489389
0.048557
0.0481935
0.0478448
0.0475131
0.0471945
0.0468898
0.0465958
0.0463139
0.046042
0.0457811
0.0455289
0.0452862
0.0450507
0.044824
0.0446036
0.0443919
0.0441852
0.0439865
0.0437918
0.0436047
0.043421
0.0432448
0.0430713
0.0429048
0.0427404
0.0425828
0.0424267
0.0422772
0.0421278
0.0419859
0.0418437
0.0417092
0.0415737
0.0414462
0.041317
0.0411963
0.0410731
0.0409588
0.0408414
0.0407334
0.0406218
0.0405203
0.0404146
0.0403198
0.0402204
0.0401325
0.0400402
0.03996
0.039876
0.0398047
0.0397307
0.0396698
0.0396084
0.0395611
0.0395149
0.0394843
0.0394622
0.0394498
0.0394548
0.0394745
0.0395275
0.0395888
0.0397124
0.0398462
0.0400887
0.0403536
0.0408172
0.0414969
0.0424366
0.0409459
0.0378878
0.0342524
0.0321031
0.0310262
0.030166
0.0297424
0.0294557
0.0292926
0.0292753
0.028941
0.0292037
0.0288722
0.0289755
0.029055
0.0292849
0.0285838
0.028957
0.0291789
0.0290248
0.0292405
0.0289299
0.0291959
0.028232
0.0290263
0.0288038
0.0287819
0.0293011
0.0292536
0.0298042
0.029309
0.0297528
0.0287557
0.0292005
0.0298218
0.0295687
0.0298833
0.0295469
0.0301432
0.0295262
0.0295192
0.0298103
0.0296852
0.030213
0.0305156
0.0312406
0.0313944
0.0318576
0.0317991
0.0313528
0.0313084
0.0308069
0.0312866
0.031161
0.031431
0.0317444
0.0310539
0.0308996
0.0307432
0.0309041
0.0309568
0.0311926
0.0311388
0.0308906
0.0308314
0.0305459
0.0306861
0.0307383
0.0313477
0.0314157
0.0316218
0.0314506
0.030922
0.0307195
0.0306467
0.0307019
0.0309875
0.0308235
0.0302639
0.0301779
0.0296356
0.0301334
0.0300222
0.0299795
0.0304601
0.0306106
0.0312228
0.0312798
0.0310933
0.0309784
0.0301167
0.0302221
0.0297382
0.0297056
0.0299263
0.0298498
0.0302029
0.0310088
0.0304911
0.0306392
0.0304562
0.0303219
0.0305603
0.0305082
0.0306292
0.0302301
0.0302229
0.0299789
0.0304585
0.0299517
0.0299855
0.0300992
0.0297721
0.0300635
0.0303661
0.0308723
0.0307795
0.0312407
0.031143
0.0302231
0.030273
0.0301708
0.0304152
0.0297733
0.0303019
0.0297644
0.0298507
0.0298812
0.0299642
0.0303
0.0302045
0.0302546
0.029685
0.0296433
0.0285272
0.0288177
0.0289766
0.0290915
0.0296365
0.029788
0.0303914
0.0304528
0.0305866
0.0297769
0.0301234
0.0291643
0.0294423
0.02993
0.0298226
0.0301247
0.0295712
0.0295368
0.0292007
0.029227
0.0290548
0.0293154
0.0289408
0.0299645
0.0290052
0.0292918
0.0292417
0.0289558
0.0294771
0.0294889
0.029941
0.0294838
0.0296956
0.0285166
0.029205
0.0290233
0.0291961
0.0293487
0.0287362
0.0286698
0.0284312
0.0285966
0.028342
0.0285487
0.0284175
0.0290094
0.0292245
0.0298773
0.0291352
0.0298783
0.0291996
0.0285175
0.0284855
0.0280976
0.0280877
0.0281493
0.0285593
0.0288574
0.0293108
0.0298733
0.0304124
0.0311661
0.033412
0.0368621
0.0386425
0.0378339
0.0350569
0.0150988
0.0289288
0.0427709
0.051652
0.0566799
0.0589914
0.0597321
0.0594858
0.0588411
0.0580294
0.0571557
0.0562923
0.0554562
0.0546683
0.0539161
0.0531955
0.0525181
0.0518832
0.05129
0.0507257
0.0501892
0.0496818
0.049204
0.0487523
0.0483213
0.0479101
0.0475179
0.0471454
0.0467903
0.0464508
0.0461241
0.0458114
0.0455107
0.0452237
0.0449471
0.0446809
0.0444236
0.0441758
0.0439366
0.0437064
0.0434833
0.0432678
0.0430584
0.0428562
0.0426597
0.0424702
0.0422853
0.0421065
0.0419317
0.0417628
0.0415976
0.0414381
0.0412816
0.0411304
0.0409816
0.040838
0.0406965
0.0405602
0.040425
0.040295
0.0401658
0.040042
0.0399186
0.0398007
0.0396829
0.0395708
0.0394581
0.0393514
0.0392438
0.0391424
0.0390399
0.0389438
0.0388463
0.0387556
0.0386634
0.0385782
0.0384918
0.0384126
0.0383327
0.0382603
0.0381879
0.0381233
0.03806
0.0380057
0.0379527
0.0379093
0.037874
0.0378441
0.0378248
0.0378163
0.0378263
0.0378459
0.0378978
0.0379644
0.0380824
0.0382276
0.0384263
0.0389231
0.0388269
0.0365299
0.0389466
0.0370681
0.0348629
0.0335133
0.0322181
0.0316213
0.0308307
0.0306114
0.0301303
0.0296132
0.0299722
0.0293457
0.0294529
0.0291584
0.0292732
0.0282609
0.0295664
0.0290489
0.0285085
0.0286595
0.0290398
0.0289155
0.0275001
0.0293372
0.0283905
0.0283754
0.0285185
0.0284763
0.0288897
0.028261
0.0297909
0.0281977
0.0290317
0.0287859
0.0284838
0.0290237
0.0285262
0.0299817
0.0285083
0.02861
0.0289438
0.0288397
0.0294523
0.0294139
0.0299281
0.0293956
0.0306026
0.0301659
0.0300609
0.0303297
0.0299128
0.0311489
0.0300467
0.0299659
0.0299651
0.0300513
0.0302215
0.0301079
0.0302107
0.0300599
0.0301867
0.0297758
0.0299983
0.030132
0.0301581
0.0298669
0.0299008
0.030066
0.0296751
0.0302092
0.0303391
0.0301407
0.0300194
0.0301222
0.029805
0.0299897
0.0293404
0.0294942
0.0298173
0.0291709
0.0300332
0.0292307
0.029157
0.029473
0.029247
0.0298077
0.0294208
0.0299677
0.0298571
0.029495
0.0299206
0.0292509
0.0290114
0.0294893
0.0291504
0.0292703
0.0296237
0.0287466
0.0297698
0.0295234
0.0296068
0.0295391
0.0294044
0.029428
0.0294196
0.0294987
0.0291551
0.0300958
0.0287002
0.0289131
0.0290884
0.0290152
0.0293198
0.029247
0.0296751
0.0289934
0.0300909
0.0293654
0.0294994
0.029669
0.0293418
0.029624
0.0288061
0.0298374
0.0288349
0.0297256
0.028808
0.029097
0.0292518
0.0289365
0.0292139
0.0288046
0.0295152
0.0281001
0.0289756
0.0282744
0.0285524
0.028516
0.0285546
0.0290382
0.0289312
0.0293373
0.0285393
0.0298019
0.028501
0.0297449
0.0286729
0.0285359
0.0288919
0.0284844
0.0289772
0.0286471
0.0286723
0.0285519
0.0291677
0.0283533
0.0293672
0.0272391
0.0291188
0.0283021
0.0282873
0.0285063
0.0282675
0.02876
0.0284392
0.0291601
0.0281764
0.0294837
0.0281205
0.0286039
0.0277844
0.0283726
0.028084
0.0281302
0.0277166
0.0281147
0.027922
0.0279599
0.0282437
0.0281777
0.0286673
0.0279283
0.0292598
0.0280696
0.0279876
0.0282327
0.0283828
0.0278458
0.0280061
0.0278362
0.0283779
0.0282696
0.02915
0.0288559
0.0303428
0.0301085
0.030318
0.0327843
0.0346543
0.0338365
0.00552737
0.0118407
0.0195543
0.0283668
0.0361684
0.0420775
0.0462296
0.0486715
0.0500083
0.0506173
0.0507638
0.0506555
0.0504099
0.0500931
0.0497268
0.0493359
0.0489385
0.0485431
0.0481533
0.0477654
0.0473855
0.0470183
0.0466658
0.0463256
0.0459941
0.0456731
0.0453633
0.0450661
0.0447802
0.0445031
0.0442342
0.0439747
0.043724
0.0434832
0.0432496
0.0430229
0.042803
0.04259
0.0423839
0.0421846
0.0419907
0.0418024
0.0416191
0.0414412
0.0412683
0.0411009
0.0409371
0.0407781
0.0406225
0.0404715
0.0403239
0.0401808
0.0400405
0.0399041
0.0397701
0.0396401
0.0395123
0.0393886
0.0392662
0.0391477
0.0390302
0.0389167
0.0388042
0.0386958
0.0385881
0.0384845
0.0383812
0.0382821
0.0381832
0.0380886
0.0379941
0.037904
0.0378138
0.037728
0.0376422
0.0375609
0.0374799
0.0374036
0.0373277
0.0372567
0.0371866
0.0371217
0.0370585
0.0370014
0.0369459
0.0368959
0.0368524
0.0368144
0.0367815
0.0367574
0.0367413
0.0367369
0.0367456
0.0367709
0.0368176
0.0368884
0.0369501
0.0372731
0.0368399
0.0345376
0.0375952
0.0375563
0.036323
0.0350064
0.0337294
0.0330385
0.0320549
0.0317632
0.0310549
0.0304313
0.0306467
0.0300435
0.0300771
0.0296216
0.0295908
0.0286767
0.0297779
0.0292758
0.0286266
0.0285765
0.0291409
0.0289818
0.0277177
0.0291033
0.0284279
0.0283793
0.0283719
0.0282814
0.0285296
0.0279265
0.0292137
0.0282808
0.0289729
0.0284628
0.0281202
0.0285476
0.0281047
0.0293403
0.0283412
0.0282349
0.0284944
0.0284535
0.0289907
0.028899
0.0292407
0.0287159
0.029538
0.0292805
0.0292758
0.0296204
0.0293755
0.0304579
0.0296116
0.0293441
0.0290877
0.0294213
0.0297001
0.0296916
0.0297751
0.0295888
0.0296355
0.0291758
0.029398
0.0295852
0.0298376
0.0294723
0.0294966
0.0294367
0.0289296
0.0292928
0.0295151
0.0295503
0.0295464
0.0297392
0.0293731
0.0294343
0.0287212
0.0289865
0.0294112
0.0289392
0.0296831
0.0289682
0.0288184
0.0289835
0.0286474
0.0289994
0.0285689
0.0291263
0.0290675
0.0290341
0.0294657
0.0289959
0.0287146
0.0291513
0.0288738
0.0288648
0.0289392
0.0280999
0.0288942
0.0288764
0.0291092
0.0289904
0.0288254
0.0287569
0.0289012
0.0290059
0.028717
0.0294788
0.0284116
0.0283707
0.0284999
0.0285682
0.0288488
0.0286946
0.0289829
0.0283787
0.0290606
0.028415
0.0289383
0.029181
0.0288987
0.0291224
0.028462
0.0291508
0.0285133
0.0293834
0.0284784
0.0285792
0.0286944
0.0283541
0.02858
0.0282993
0.0289544
0.0280973
0.0288974
0.0281512
0.0282839
0.028069
0.0280342
0.0283467
0.02818
0.0285443
0.0280017
0.0290416
0.0282954
0.0295501
0.0283137
0.0279952
0.0282284
0.0279442
0.0284855
0.0283049
0.028329
0.0282856
0.0288643
0.0282065
0.0288389
0.0271427
0.0285143
0.0279436
0.0278929
0.0280257
0.0277541
0.028103
0.0278993
0.0286071
0.0280348
0.0291775
0.0280137
0.0282411
0.0272777
0.028025
0.0278886
0.0279462
0.0275092
0.0279242
0.0277372
0.0277786
0.0279508
0.0277932
0.028081
0.0274562
0.0284336
0.027664
0.0276993
0.0279593
0.0283899
0.0278556
0.0280607
0.027677
0.0281883
0.027834
0.0287513
0.0281464
0.0297703
0.0290682
0.0281099
0.0291611
0.0313929
0.0320131
0.00217495
0.00492547
0.00829336
0.0131587
0.0193435
0.0257944
0.0314845
0.0360825
0.0395227
0.0418796
0.0434072
0.0443526
0.0449217
0.0452394
0.0453645
0.045368
0.0452962
0.0451751
0.0450174
0.0448354
0.0446369
0.0444299
0.0442188
0.0440034
0.043784
0.0435647
0.0433472
0.043134
0.0429242
0.0427162
0.0425112
0.0423105
0.0421145
0.0419242
0.0417371
0.0415536
0.0413741
0.0411989
0.0410285
0.0408625
0.0406998
0.0405407
0.0403851
0.0402333
0.0400854
0.0399413
0.0397998
0.0396617
0.0395262
0.0393942
0.039265
0.0391391
0.0390155
0.0388947
0.038776
0.0386603
0.0385466
0.038436
0.0383267
0.0382202
0.0381148
0.0380123
0.037911
0.0378127
0.0377154
0.0376209
0.0375272
0.0374364
0.0373463
0.0372593
0.0371729
0.0370896
0.0370068
0.036927
0.0368478
0.0367717
0.0366964
0.0366243
0.0365531
0.0364852
0.0364185
0.0363554
0.0362938
0.0362369
0.0361811
0.0361295
0.0360802
0.0360388
0.0359993
0.0359661
0.0359344
0.0359149
0.0358985
0.0358971
0.035902
0.0359246
0.0359117
0.0361082
0.0355571
0.0334963
0.0359564
0.0368961
0.0367007
0.0357579
0.0347446
0.0340177
0.0330426
0.0326842
0.0318943
0.031219
0.0312666
0.0307275
0.0306783
0.030179
0.0300371
0.0292381
0.0299419
0.0296238
0.0289607
0.0287625
0.0292518
0.0291723
0.0280853
0.028953
0.0286006
0.0285328
0.0284652
0.0283362
0.0284579
0.0278894
0.0288341
0.0283608
0.0288969
0.0284361
0.0280696
0.0283552
0.0279507
0.0288519
0.0282876
0.0281174
0.0282922
0.028278
0.0287381
0.0286391
0.0288633
0.0284306
0.0288956
0.0287547
0.0287757
0.029117
0.0289909
0.0298206
0.0293056
0.0290158
0.0286466
0.028984
0.0292835
0.0293502
0.0294416
0.0292769
0.0292831
0.0288832
0.0289892
0.0291751
0.0295137
0.0292338
0.029255
0.0291109
0.0286019
0.028733
0.0289283
0.0290845
0.0291619
0.0293909
0.0291015
0.0290969
0.0284737
0.0286264
0.0290587
0.0287446
0.0293049
0.0288404
0.0286605
0.0287264
0.0283551
0.0285474
0.0281791
0.0285456
0.0285177
0.0286469
0.0290676
0.0287721
0.0285309
0.0288735
0.0287123
0.0286618
0.0285781
0.027833
0.0283378
0.0284143
0.0286935
0.0286344
0.0284735
0.028357
0.0285235
0.0286382
0.02842
0.0289727
0.0282686
0.0281078
0.0281674
0.0282788
0.0285335
0.0283737
0.0285629
0.0280805
0.0284348
0.0279117
0.0284581
0.0287538
0.0285704
0.0287597
0.0282561
0.0286729
0.0283192
0.0289768
0.0283353
0.0283196
0.0283747
0.0280482
0.0281922
0.0279801
0.0285079
0.0280493
0.0286749
0.0281474
0.028143
0.0279187
0.0278221
0.0279954
0.0277889
0.0280618
0.0277074
0.0284568
0.0281083
0.0291273
0.028177
0.027793
0.0278966
0.0276605
0.0281475
0.0280632
0.0281003
0.028103
0.0285824
0.0281336
0.0285028
0.0272813
0.0280579
0.0277637
0.0277077
0.027786
0.0275298
0.0277553
0.0276027
0.0282319
0.0279136
0.0287674
0.0280198
0.0280372
0.0272628
0.0277892
0.0277613
0.0278181
0.0275215
0.0277788
0.027679
0.0277269
0.0278414
0.0276633
0.027811
0.0272531
0.0279223
0.0274887
0.0274912
0.0277431
0.0282208
0.0279017
0.0281109
0.027693
0.0281101
0.0276748
0.0284669
0.0278313
0.0293391
0.0288077
0.0272993
0.0273116
0.0290132
0.0302024
0.000945263
0.00212323
0.00355461
0.005596
0.00881314
0.0133281
0.0185137
0.0234862
0.0279092
0.0316383
0.0345924
0.0368081
0.0384135
0.0395639
0.0403622
0.0409099
0.0412766
0.0415172
0.04166
0.0417234
0.0417358
0.0417128
0.0416621
0.0415889
0.0414993
0.0413969
0.0412851
0.0411674
0.0410436
0.0409143
0.0407818
0.040648
0.0405137
0.04038
0.0402452
0.0401102
0.0399761
0.0398434
0.0397127
0.0395836
0.0394554
0.0393289
0.0392039
0.0390812
0.0389608
0.0388424
0.0387253
0.0386102
0.0384968
0.0383856
0.0382765
0.0381695
0.0380639
0.0379602
0.037858
0.0377579
0.0376594
0.0375632
0.0374678
0.0373744
0.037282
0.0371916
0.0371022
0.037015
0.0369287
0.0368444
0.0367608
0.0366793
0.0365986
0.0365202
0.0364424
0.0363668
0.0362919
0.0362191
0.036147
0.0360771
0.0360083
0.0359415
0.0358758
0.0358123
0.03575
0.0356903
0.0356318
0.0355767
0.0355225
0.035472
0.0354201
0.0353771
0.0353352
0.0352972
0.0352562
0.0352274
0.0351958
0.0351769
0.0351555
0.0351456
0.0350908
0.0351931
0.034612
0.0328291
0.0345875
0.0358328
0.0363167
0.0359361
0.0352872
0.0346066
0.0337567
0.0333414
0.0325759
0.0318926
0.0318082
0.0313145
0.031193
0.0307047
0.0304872
0.0297754
0.0301639
0.0299601
0.0293322
0.0290517
0.0294026
0.029378
0.0284444
0.0289705
0.0287852
0.0287245
0.0286341
0.028485
0.0285169
0.0279767
0.0286606
0.0284232
0.0288146
0.0284933
0.0281345
0.0283056
0.0279213
0.0285632
0.0282453
0.0280908
0.0282072
0.0282007
0.0285892
0.0284917
0.0286377
0.0282781
0.0285239
0.0284258
0.028443
0.0287454
0.0286876
0.0293211
0.0290236
0.028779
0.0284038
0.0286529
0.0289333
0.0290416
0.0291483
0.0290208
0.0290127
0.0286888
0.0287055
0.0288595
0.0291969
0.0290342
0.0290582
0.0289051
0.0284246
0.0283924
0.0285096
0.0287063
0.028828
0.0290648
0.0288677
0.0288431
0.0283438
0.0283735
0.0287615
0.0285532
0.0289699
0.0286954
0.0285409
0.0285571
0.0281829
0.028268
0.0279607
0.0281659
0.0281399
0.0283129
0.0287127
0.0285448
0.0283667
0.0286345
0.0285602
0.0285164
0.0283521
0.0276978
0.0279953
0.0280834
0.0283462
0.0283474
0.0282148
0.0280851
0.0282227
0.0283377
0.0281799
0.0285857
0.0281233
0.0279442
0.0279598
0.028072
0.0282947
0.0281479
0.0282718
0.0278832
0.0280475
0.0276449
0.0280641
0.0283757
0.0282794
0.0284536
0.0280741
0.0283371
0.0281436
0.0286009
0.0282005
0.0281543
0.0281618
0.0278547
0.02793
0.0277533
0.0281754
0.0279451
0.0284182
0.0281012
0.0280411
0.027854
0.0277247
0.0278007
0.0275683
0.0277529
0.0275109
0.0280551
0.027918
0.0286653
0.0280548
0.0277003
0.0277165
0.0274969
0.0279053
0.0278721
0.0279215
0.0279514
0.0283339
0.0280453
0.0282622
0.0273899
0.0278103
0.0276427
0.0276095
0.0276562
0.0274241
0.0275613
0.0274291
0.027965
0.0277915
0.0284143
0.0279782
0.0279184
0.0273523
0.02765
0.027666
0.027729
0.0275428
0.0277075
0.0276524
0.0277094
0.0277944
0.027622
0.0276811
0.0271663
0.0276304
0.0273845
0.0273531
0.0275771
0.0280249
0.0278935
0.028081
0.0277482
0.0280365
0.0276363
0.0282424
0.0276932
0.0289877
0.0286943
0.0269504
0.0264266
0.027448
0.0287108
0.000496871
0.000983903
0.00159441
0.00241849
0.00373159
0.00589047
0.00914962
0.0131641
0.0173652
0.0213351
0.0249341
0.028064
0.0306657
0.0327748
0.0343983
0.03564
0.0365818
0.0372994
0.0378399
0.0382363
0.0385286
0.038743
0.0388958
0.0389975
0.0390584
0.0390895
0.0390974
0.039087
0.0390601
0.0390207
0.038971
0.0389129
0.0388482
0.0387781
0.0387021
0.038622
0.038539
0.0384541
0.0383678
0.03828
0.0381905
0.0381003
0.0380097
0.0379193
0.0378294
0.0377396
0.0376495
0.03756
0.037471
0.037383
0.0372959
0.0372097
0.0371239
0.0370391
0.036955
0.0368722
0.0367903
0.0367097
0.0366296
0.0365506
0.0364722
0.036395
0.0363187
0.0362437
0.0361693
0.0360961
0.0360236
0.0359524
0.0358819
0.0358129
0.0357446
0.0356777
0.0356114
0.0355464
0.0354823
0.0354195
0.0353578
0.0352974
0.0352379
0.0351799
0.0351229
0.0350678
0.0350135
0.0349619
0.0349105
0.0348625
0.0348116
0.0347678
0.0347258
0.034686
0.0346403
0.034606
0.0345654
0.0345348
0.0344965
0.034464
0.0343854
0.0344158
0.0338403
0.0323121
0.0335324
0.0347375
0.0355348
0.035654
0.0353862
0.0348731
0.0341946
0.0337473
0.0330715
0.032418
0.0322458
0.0317822
0.031604
0.0311485
0.0308829
0.0302394
0.0304172
0.0302546
0.0296753
0.0293594
0.0295814
0.0295702
0.0287586
0.0290795
0.0289626
0.0289112
0.0288134
0.0286574
0.0286291
0.0281123
0.0286132
0.0284832
0.0287644
0.0285492
0.0282256
0.0283205
0.0279494
0.0284118
0.0282161
0.0280945
0.0281758
0.028168
0.0284939
0.0283973
0.0284888
0.0281793
0.0282992
0.0282123
0.0282137
0.0284652
0.028439
0.0289346
0.0287603
0.0285697
0.0282427
0.0283952
0.0286383
0.0287607
0.0288781
0.0287859
0.0287771
0.02852
0.0284889
0.0286069
0.0289068
0.0288331
0.028869
0.0287358
0.0282931
0.0281698
0.0282056
0.0283961
0.0285344
0.0287615
0.0286425
0.028619
0.028231
0.0281849
0.0285113
0.028364
0.0286813
0.0285248
0.0284155
0.0284145
0.0280536
0.0280712
0.0278078
0.0279068
0.0278759
0.0280297
0.028401
0.0283178
0.0281994
0.0284207
0.0283983
0.0283746
0.0281779
0.0276033
0.0277701
0.0278407
0.0280606
0.028097
0.0279965
0.0278711
0.0279729
0.0280807
0.0279679
0.0282799
0.0279651
0.0278087
0.0278057
0.0279063
0.0280959
0.027963
0.0280447
0.0277223
0.0277821
0.0274752
0.027764
0.0280534
0.0280125
0.0281784
0.0278915
0.0280715
0.0279663
0.0282871
0.0280428
0.0280086
0.0279909
0.0277054
0.0277325
0.027575
0.0279162
0.0278104
0.0281739
0.0280018
0.0279457
0.0277977
0.0276601
0.0276754
0.027429
0.0275424
0.0273613
0.0277681
0.0277344
0.0282698
0.0279061
0.0276242
0.0275977
0.0273876
0.0277215
0.0277103
0.0277656
0.0278106
0.0281139
0.0279324
0.0280692
0.0274335
0.0276693
0.0275526
0.0275422
0.0275734
0.0273646
0.0274427
0.0273183
0.0277665
0.0276713
0.0281387
0.0278913
0.0278243
0.0274184
0.0275764
0.0275937
0.0276571
0.027543
0.0276617
0.0276293
0.0276937
0.0277628
0.0276041
0.0276102
0.0271293
0.0274565
0.027306
0.0272605
0.0274507
0.0278483
0.0278355
0.0279994
0.0277765
0.0279581
0.0276308
0.0280685
0.0276314
0.0286946
0.0285672
0.0267134
0.0259951
0.0265018
0.0276016
0.00034182
0.000534352
0.000789554
0.00112399
0.0016322
0.00248551
0.00393219
0.00618719
0.00918273
0.012617
0.0161043
0.0193696
0.0223779
0.0250852
0.0274198
0.0293893
0.031005
0.0323057
0.0333506
0.0341797
0.0348379
0.0353613
0.0357784
0.0361079
0.0363652
0.0365667
0.0367242
0.0368458
0.0369354
0.0369988
0.0370423
0.0370687
0.0370815
0.037082
0.0370723
0.0370541
0.0370285
0.0369969
0.03696
0.0369182
0.0368719
0.0368224
0.03677
0.0367156
0.0366595
0.0366013
0.0365412
0.0364801
0.0364181
0.0363557
0.036293
0.0362297
0.0361657
0.0361017
0.0360375
0.0359737
0.03591
0.0358467
0.0357832
0.03572
0.0356568
0.0355943
0.0355321
0.0354705
0.035409
0.0353482
0.0352876
0.0352278
0.0351684
0.0351099
0.0350518
0.0349944
0.0349375
0.0348814
0.0348259
0.0347712
0.0347173
0.0346642
0.0346118
0.0345602
0.0345094
0.0344599
0.0344109
0.0343637
0.0343165
0.034272
0.0342244
0.0341809
0.0341402
0.0341007
0.0340539
0.0340168
0.033971
0.0339328
0.0338836
0.0338354
0.0337436
0.0337191
0.0331623
0.0318535
0.0327134
0.0337577
0.0346202
0.035073
0.0351301
0.0348587
0.0343751
0.0339349
0.0333762
0.0327847
0.0325633
0.032126
0.0319083
0.0314932
0.0312006
0.0306148
0.0306593
0.0305001
0.0299668
0.0296437
0.0297631
0.0297398
0.0290225
0.0292185
0.0291241
0.029076
0.0289769
0.0288205
0.0287536
0.0282588
0.0286295
0.028543
0.0287443
0.0285913
0.0283096
0.0283581
0.0279993
0.0283371
0.0281987
0.0281054
0.0281658
0.0281531
0.0284256
0.0283277
0.0283781
0.0281041
0.0281522
0.0280653
0.0280477
0.0282486
0.028231
0.0286283
0.028519
0.0283723
0.0281094
0.0281878
0.0283881
0.0285067
0.0286265
0.0285624
0.0285579
0.0283546
0.0283034
0.0283927
0.028646
0.0286267
0.0286757
0.0285703
0.0281679
0.0280028
0.0279749
0.0281377
0.0282743
0.0284821
0.028421
0.0284048
0.0281053
0.0280252
0.0282934
0.0281782
0.0284255
0.0283394
0.0282736
0.0282732
0.0279341
0.0279116
0.0276798
0.0277136
0.0276801
0.0277922
0.028129
0.0280973
0.0280265
0.0282202
0.0282273
0.028221
0.0280197
0.0275141
0.0276041
0.0276514
0.0278238
0.0278735
0.0277985
0.0276849
0.0277578
0.0278543
0.0277729
0.0280238
0.0277995
0.0276759
0.0276697
0.0277578
0.0279174
0.0277956
0.0278497
0.0275746
0.0275777
0.0273391
0.0275348
0.0277817
0.0277678
0.0279252
0.0277054
0.0278408
0.027786
0.0280211
0.0278697
0.0278574
0.0278313
0.0275691
0.0275667
0.0274216
0.0277018
0.0276625
0.0279509
0.0278689
0.0278397
0.0277266
0.0275949
0.0275762
0.0273255
0.0273862
0.0272363
0.0275498
0.0275626
0.0279561
0.0277398
0.0275345
0.0274963
0.0272985
0.0275709
0.0275659
0.027621
0.027673
0.0279145
0.0278012
0.0278982
0.027421
0.0275665
0.0274741
0.0274804
0.0275054
0.0273179
0.0273582
0.0272376
0.0276102
0.0275556
0.0279201
0.0277805
0.0277301
0.0274399
0.027526
0.0275323
0.0275904
0.0275209
0.0276172
0.0275984
0.0276669
0.0277273
0.0275834
0.0275594
0.0271096
0.0273449
0.0272406
0.0271914
0.0273513
0.0276955
0.0277489
0.0278981
0.0277607
0.0278777
0.0276228
0.0279353
0.0276093
0.0284377
0.0284014
0.0265551
0.0257823
0.025947
0.0268228
0.000285607
0.000365888
0.000469265
0.000604524
0.000799959
0.00111715
0.00166664
0.00261186
0.0041113
0.00626655
0.00895159
0.0118791
0.014834
0.0175884
0.0201645
0.0225384
0.0246524
0.0264935
0.0280842
0.0294071
0.0305044
0.0314144
0.0321684
0.0327903
0.0333014
0.0337232
0.0340719
0.0343607
0.0345981
0.034792
0.0349511
0.0350809
0.0351871
0.0352718
0.0353372
0.035388
0.0354259
0.0354532
0.0354705
0.0354798
0.0354816
0.0354772
0.0354672
0.0354525
0.0354334
0.0354102
0.0353834
0.0353538
0.0353215
0.0352873
0.0352512
0.0352131
0.0351732
0.0351321
0.0350898
0.0350468
0.035003
0.0349586
0.0349131
0.0348672
0.0348208
0.0347742
0.0347274
0.0346804
0.034633
0.0345856
0.034538
0.0344906
0.0344433
0.0343963
0.0343493
0.0343024
0.0342558
0.0342093
0.0341633
0.0341176
0.0340723
0.0340273
0.0339827
0.0339385
0.0338948
0.0338517
0.0338088
0.0337672
0.0337251
0.033685
0.0336422
0.0336008
0.0335619
0.0335243
0.033479
0.0334411
0.0333929
0.03335
0.0332941
0.0332349
0.0331371
0.0330696
0.0325374
0.0314135
0.0320444
0.0329165
0.0337222
0.0343325
0.0346212
0.0345972
0.0343183
0.0339389
0.0335036
0.0329959
0.0327549
0.0323478
0.0321091
0.0317347
0.0314323
0.0308997
0.0308627
0.0306928
0.0301992
0.0298849
0.0299269
0.0298804
0.0292364
0.0293549
0.0292634
0.0292127
0.0291139
0.0289594
0.0288685
0.0283954
0.028672
0.0285984
0.0287401
0.0286203
0.0283762
0.0283974
0.0280515
0.0283006
0.0281867
0.0281128
0.0281606
0.0281421
0.0283695
0.0282687
0.0282878
0.0280389
0.0280443
0.0279541
0.0279186
0.0280743
0.0280535
0.0283771
0.0283002
0.0281841
0.0279815
0.0280108
0.028171
0.028276
0.0283915
0.0283473
0.0283483
0.0281873
0.0281312
0.0282004
0.028409
0.0284181
0.0284758
0.0283974
0.0280357
0.0278583
0.0277885
0.0279169
0.0280406
0.028225
0.0282025
0.0281943
0.027963
0.0278745
0.0280951
0.0279962
0.0281919
0.0281466
0.0281153
0.0281231
0.0278096
0.0277658
0.0275592
0.0275547
0.0275202
0.0275914
0.0278905
0.027887
0.0278497
0.0280251
0.028049
0.0280543
0.0278632
0.0274176
0.0274647
0.0274918
0.0276207
0.0276698
0.0276124
0.0275134
0.0275656
0.0276502
0.0275898
0.0277985
0.0276306
0.0275373
0.0275356
0.0276133
0.0277478
0.0276344
0.0276705
0.0274308
0.0274038
0.0272137
0.0273479
0.0275489
0.0275427
0.027689
0.027517
0.027628
0.0276042
0.0277851
0.0276882
0.0276952
0.0276706
0.027432
0.0274136
0.0272789
0.0275133
0.0275093
0.0277455
0.0277177
0.0277173
0.0276352
0.0275157
0.0274806
0.027233
0.0272571
0.027124
0.0273719
0.0274031
0.0277038
0.0275697
0.0274264
0.0273926
0.0272107
0.0274363
0.0274315
0.0274827
0.0275359
0.0277295
0.0276574
0.0277345
0.0273661
0.0274699
0.0273946
0.0274123
0.0274365
0.027268
0.0272853
0.0271682
0.0274782
0.027444
0.0277366
0.0276583
0.0276275
0.0274205
0.0274741
0.0274706
0.0275207
0.0274793
0.0275633
0.0275547
0.0276241
0.0276795
0.0275497
0.0275102
0.0270906
0.0272638
0.0271814
0.0271327
0.027268
0.0275621
0.0276482
0.0277871
0.0277083
0.0277927
0.0276005
0.027826
0.0275975
0.0282113
0.0282152
0.0264382
0.0256772
0.0256251
0.0262883
0.000263423
0.000299149
0.000345476
0.00040044
0.000476537
0.000593313
0.00078933
0.00113481
0.00173123
0.0027079
0.00418144
0.00616557
0.00855404
0.0110673
0.0136065
0.0160033
0.0182437
0.0203375
0.0222626
0.0239828
0.0255047
0.0268329
0.0279651
0.02893
0.0297515
0.0304476
0.0310371
0.0315382
0.0319638
0.0323237
0.0326291
0.032889
0.033111
0.0333001
0.0334589
0.0335938
0.0337081
0.0338052
0.0338866
0.0339539
0.0340091
0.0340545
0.0340907
0.0341195
0.0341408
0.0341562
0.0341659
0.0341709
0.0341713
0.0341679
0.0341608
0.0341503
0.0341368
0.0341208
0.0341024
0.0340821
0.03406
0.0340361
0.0340104
0.0339834
0.0339551
0.0339259
0.0338957
0.0338647
0.0338326
0.0337998
0.0337664
0.0337325
0.0336983
0.0336637
0.0336287
0.0335933
0.0335578
0.033522
0.0334862
0.0334503
0.0334145
0.0333784
0.0333424
0.0333064
0.0332704
0.0332347
0.0331988
0.0331635
0.0331275
0.0330927
0.0330555
0.0330183
0.0329816
0.032947
0.0329051
0.0328681
0.0328194
0.0327741
0.0327144
0.0326479
0.0325487
0.0324467
0.0319419
0.0309741
0.0314645
0.0321906
0.0328971
0.0335446
0.0339651
0.0341414
0.0340521
0.0337868
0.0334766
0.0330624
0.0328228
0.0324538
0.0322124
0.0318758
0.0315773
0.0310962
0.0310114
0.0308288
0.0303701
0.0300737
0.0300593
0.0299874
0.0294021
0.0294708
0.0293751
0.0293177
0.0292192
0.0290669
0.0289621
0.0285112
0.0287189
0.0286446
0.02874
0.0286363
0.0284217
0.028427
0.028095
0.0282798
0.0281743
0.0281119
0.028151
0.0281265
0.0283155
0.0282112
0.0282071
0.0279763
0.0279546
0.0278608
0.0278099
0.0279275
0.0278977
0.028163
0.0281007
0.0280039
0.0278508
0.0278506
0.0279772
0.0280649
0.0281711
0.0281394
0.0281448
0.0280161
0.0279628
0.0280197
0.0281896
0.0282108
0.028271
0.0282147
0.0278919
0.0277185
0.027626
0.0277216
0.0278274
0.027988
0.0279882
0.0279863
0.0278063
0.0277222
0.0279062
0.0278166
0.0279731
0.0279512
0.0279443
0.0279623
0.0276747
0.0276214
0.0274367
0.0274107
0.0273757
0.0274153
0.0276778
0.0276876
0.0276716
0.0278326
0.0278654
0.0278768
0.0277024
0.0273091
0.0273339
0.0273463
0.0274391
0.0274807
0.0274341
0.0273495
0.0273872
0.0274611
0.0274143
0.0275923
0.0274607
0.0273916
0.0273974
0.0274669
0.027581
0.0274738
0.0274978
0.0272858
0.0272432
0.027089
0.027183
0.0273433
0.0273342
0.0274671
0.0273287
0.0274254
0.0274212
0.0275664
0.0275017
0.027522
0.027504
0.0272887
0.0272635
0.0271394
0.0273391
0.0273536
0.0275518
0.027556
0.0275785
0.0275237
0.0274188
0.0273784