/*--------------------------------*- C++ -*----------------------------------*\
| =========                 |                                                 |
| \\      /  F ield         | foam-extend: Open Source CFD                    |
|  \\    /   O peration     | Version:     3.2                                |
|   \\  /    A nd           | Web:         http://www.foam-extend.org         |
|    \\/     M anipulation  | For copyright notice see file Copyright         |
\*---------------------------------------------------------------------------*/
FoamFile
{
    version     2.0;
    format      ascii;
    class       volScalarField;
    location    "160";
    object      Ktemp;
}
// * * * * * * * * * * * * * * * * * * * * * * * * * * * * * * * * * * * * * //

dimensions      [0 2 -2 0 0 0 0];

internalField   nonuniform List<scalar> 
96000
(
0.178319
0.142008
0.0985161
0.0808966
0.0742543
0.070771
0.0682484
0.0660411
0.064009
0.0621651
0.0605192
0.0590479
0.0577167
0.0565292
0.0554603
0.0544889
0.0536002
0.0527801
0.0520289
0.0513441
0.050708
0.0501106
0.0495493
0.0490227
0.0485284
0.048061
0.0476188
0.0471987
0.0468004
0.0464234
0.0460629
0.04572
0.0453906
0.0450767
0.0447753
0.044488
0.0442101
0.0439444
0.0436871
0.0434403
0.0432021
0.0429727
0.0427505
0.0425361
0.0423278
0.0421274
0.0419321
0.0417445
0.0415603
0.0413838
0.0412098
0.0410433
0.0408793
0.040722
0.0405667
0.0404178
0.0402703
0.0401293
0.0399871
0.0398531
0.0397175
0.0395908
0.0394618
0.039342
0.0392192
0.0391064
0.0389894
0.0388832
0.0387721
0.0386725
0.0385674
0.0384749
0.0383761
0.0382912
0.0381991
0.0381226
0.0380388
0.0379716
0.037898
0.0378421
0.0377812
0.0377393
0.0376955
0.0376713
0.0376525
0.0376496
0.0376604
0.0376941
0.0377464
0.0378314
0.0379549
0.0381132
0.0383528
0.0386224
0.0390957
0.0395925
0.0406861
0.0411566
0.047125
0.0435126
0.0234967
0.0228044
0.0241094
0.0241705
0.0249652
0.024868
0.0257877
0.0254181
0.0264441
0.026435
0.0250772
0.0269066
0.0260417
0.0273963
0.0270681
0.0286912
0.0242542
0.0272809
0.0294513
0.0266579
0.0254373
0.0271925
0.0314231
0.0228682
0.0275694
0.027527
0.0283462
0.0287144
0.0280301
0.0301412
0.0231941
0.0291395
0.0269867
0.0297804
0.0299114
0.0270017
0.0298119
0.0246678
0.0305156
0.0285742
0.0275928
0.0287985
0.0272844
0.030616
0.0302575
0.0338121
0.0294951
0.0311476
0.0303455
0.028428
0.0296972
0.025932
0.0317262
0.032046
0.0312357
0.0288915
0.0276161
0.028678
0.028732
0.0301199
0.0297443
0.0309619
0.0287275
0.0276023
0.0277989
0.0294364
0.0299698
0.0309028
0.0326503
0.0298832
0.028746
0.02817
0.0284274
0.0282901
0.0298439
0.0294152
0.0310437
0.0281477
0.0260535
0.0292504
0.0258587
0.029124
0.0287878
0.0288378
0.0321634
0.0297008
0.0315966
0.0287667
0.0288296
0.0276826
0.0255573
0.0287411
0.0285233
0.0269299
0.0288422
0.0298579
0.0307864
0.0323798
0.0267369
0.0280403
0.0283328
0.0293032
0.0299723
0.029322
0.0281729
0.0275681
0.02889
0.0261829
0.0313716
0.0288832
0.0279346
0.0278635
0.0275184
0.0303281
0.029359
0.0330142
0.0288
0.030433
0.0274574
0.027056
0.0294841
0.0279427
0.0306539
0.0259091
0.028827
0.0267482
0.0300078
0.0281704
0.0286747
0.0307737
0.0278417
0.0281302
0.0243861
0.0281351
0.0252456
0.0283754
0.0273755
0.0288791
0.0299675
0.0293743
0.0311009
0.0283791
0.0303167
0.0247229
0.0286282
0.025179
0.0311844
0.0299114
0.0281758
0.0292186
0.0255712
0.027657
0.0265363
0.0268783
0.0256155
0.029152
0.0263225
0.0332309
0.0254
0.0286973
0.0273753
0.0278298
0.0303109
0.0280415
0.0287809
0.0243384
0.0289625
0.024166
0.029515
0.0276865
0.029246
0.0257493
0.0269572
0.0264363
0.0274546
0.025816
0.0271804
0.0268238
0.027448
0.0296666
0.0286695
0.0312424
0.0243776
0.0285201
0.026585
0.024507
0.0242365
0.0264271
0.0262513
0.02787
0.0271646
0.0293553
0.0280343
0.0319934
0.029202
0.0392085
0.0540169
0.042172
0.0320078
0.0292503
0.0457228
0.0704376
0.0777443
0.0777712
0.075762
0.0733601
0.071026
0.0688371
0.0668365
0.0650512
0.063426
0.0619603
0.0606352
0.0594488
0.0583731
0.0573819
0.0564724
0.0556344
0.0548664
0.0541467
0.0534708
0.0528371
0.0522443
0.0516893
0.051166
0.050671
0.0502021
0.0497585
0.0493379
0.0489389
0.048557
0.0481935
0.0478448
0.0475131
0.0471945
0.0468898
0.0465958
0.0463139
0.046042
0.0457811
0.0455289
0.0452862
0.0450507
0.044824
0.0446036
0.0443919
0.0441852
0.0439865
0.0437918
0.0436047
0.043421
0.0432448
0.0430713
0.0429048
0.0427404
0.0425828
0.0424267
0.0422772
0.0421278
0.0419859
0.0418437
0.0417092
0.0415737
0.0414462
0.041317
0.0411963
0.0410731
0.0409588
0.0408414
0.0407334
0.0406218
0.0405203
0.0404146
0.0403198
0.0402204
0.0401325
0.0400402
0.03996
0.039876
0.0398047
0.0397307
0.0396698
0.0396085
0.0395611
0.0395149
0.0394843
0.0394623
0.0394499
0.0394548
0.0394746
0.0395276
0.0395889
0.0397125
0.0398464
0.0400889
0.0403539
0.0408175
0.0414974
0.0424375
0.0409455
0.037887
0.0342498
0.0320994
0.0310219
0.0301611
0.0297373
0.02945
0.0292866
0.0292709
0.0289405
0.0291974
0.0288464
0.0289486
0.0290348
0.0292834
0.0286097
0.0289854
0.0291984
0.0290411
0.0292289
0.0289105
0.0291687
0.0282185
0.029026
0.0288287
0.0288059
0.0293272
0.0292635
0.0297979
0.0292815
0.0297277
0.0287398
0.0292112
0.0298504
0.0295948
0.029912
0.0295382
0.0301108
0.0294859
0.0295082
0.0298164
0.0297157
0.0302428
0.0305592
0.0312751
0.0313742
0.0318191
0.0317577
0.031328
0.0312828
0.0308211
0.0313146
0.0312054
0.0314455
0.0317351
0.0310193
0.0308599
0.0307174
0.0308813
0.0309755
0.0312252
0.0311761
0.030914
0.0308291
0.0305108
0.0306564
0.0307152
0.0313554
0.0314601
0.0316723
0.0314807
0.0309127
0.0306755
0.0306041
0.0306855
0.0309962
0.0308591
0.0302915
0.0302107
0.0296399
0.0301338
0.0299872
0.0299491
0.0304167
0.0305894
0.0312378
0.0313159
0.0311295
0.0310016
0.0301217
0.0302346
0.0297169
0.0296682
0.0298837
0.0298376
0.0302176
0.0310406
0.0305299
0.0306658
0.0304464
0.0302831
0.0305214
0.0304847
0.0306339
0.0302647
0.0302593
0.030001
0.0304756
0.0299303
0.0299493
0.0300635
0.0297538
0.0300443
0.0303623
0.0308826
0.0308161
0.0312773
0.0311822
0.0302358
0.0302618
0.0301319
0.0303737
0.0297492
0.0302841
0.0297776
0.0298677
0.0299136
0.0299956
0.0303251
0.0301855
0.0302271
0.0296561
0.0296143
0.0285312
0.0288325
0.029012
0.0291114
0.0296314
0.0297538
0.0303545
0.0304276
0.0305559
0.0297739
0.0301297
0.0291991
0.0294764
0.0299464
0.0298022
0.0300743
0.0295447
0.0295289
0.0292244
0.0292548
0.029071
0.0293165
0.0289073
0.0299232
0.0289868
0.0292761
0.029255
0.0289821
0.0295082
0.0295035
0.0299593
0.0294876
0.0297004
0.0285214
0.029216
0.0290335
0.0292042
0.0293526
0.0287386
0.0286739
0.0284376
0.0286013
0.028347
0.0285534
0.0284263
0.0290229
0.0292368
0.0298921
0.0291465
0.0298816
0.0292019
0.0285189
0.0284876
0.028101
0.0280951
0.0281571
0.0285674
0.0288652
0.0293188
0.0298839
0.0304205
0.031176
0.0334234
0.0368683
0.0386451
0.0378354
0.0350587
0.0150988
0.0289288
0.0427709
0.051652
0.0566799
0.0589914
0.0597321
0.0594858
0.0588411
0.0580294
0.0571557
0.0562923
0.0554562
0.0546683
0.0539161
0.0531955
0.0525181
0.0518832
0.05129
0.0507257
0.0501892
0.0496818
0.049204
0.0487523
0.0483213
0.0479101
0.0475179
0.0471454
0.0467903
0.0464508
0.0461241
0.0458114
0.0455107
0.0452237
0.0449471
0.0446809
0.0444236
0.0441758
0.0439366
0.0437064
0.0434833
0.0432678
0.0430584
0.0428562
0.0426597
0.0424702
0.0422853
0.0421065
0.0419317
0.0417628
0.0415976
0.0414381
0.0412816
0.0411304
0.0409816
0.040838
0.0406965
0.0405602
0.040425
0.040295
0.0401658
0.040042
0.0399186
0.0398007
0.0396829
0.0395708
0.0394582
0.0393514
0.0392438
0.0391424
0.0390399
0.0389438
0.0388463
0.0387556
0.0386634
0.0385782
0.0384918
0.0384126
0.0383327
0.0382603
0.0381879
0.0381233
0.03806
0.0380057
0.0379527
0.0379094
0.037874
0.0378442
0.0378249
0.0378164
0.0378265
0.0378461
0.037898
0.0379646
0.0380826
0.038228
0.0384268
0.038924
0.0388284
0.0365315
0.0389481
0.0370685
0.0348627
0.0335126
0.032217
0.0316199
0.0308289
0.0306091
0.0301284
0.0296158
0.0299738
0.0293323
0.0294358
0.0291407
0.0292603
0.0282701
0.0295716
0.0290572
0.0285215
0.0286606
0.029032
0.0289008
0.0274889
0.0293289
0.0283944
0.0283909
0.0285267
0.0284848
0.0288905
0.0282513
0.0297759
0.028181
0.0290369
0.0287933
0.0284953
0.0290338
0.0285307
0.0299756
0.0284807
0.0285907
0.0289395
0.0288492
0.0294619
0.0294324
0.0299501
0.0294044
0.0305852
0.0301351
0.0300533
0.030317
0.0299076
0.0311465
0.0300651
0.0299795
0.0299663
0.0300398
0.0302082
0.0300963
0.0301835
0.0300545
0.0302001
0.0297944
0.0300084
0.0301356
0.0301536
0.0298476
0.0298797
0.0300631
0.0296833
0.0302349
0.0303554
0.0301406
0.0300022
0.0300979
0.0297884
0.0299811
0.0293478
0.0295098
0.0298315
0.0291849
0.0300399
0.0292125
0.0291444
0.0294546
0.0292238
0.029802
0.0294298
0.0299877
0.0298588
0.0295015
0.0299324
0.0292476
0.0289969
0.0294718
0.0291345
0.0292668
0.0296345
0.02876
0.0297861
0.0295244
0.0295981
0.0295167
0.0293846
0.0294252
0.0294254
0.0295101
0.0291689
0.0301124
0.0286966
0.0288997
0.029074
0.0290086
0.0293087
0.02923
0.0296734
0.0290067
0.0300992
0.0293787
0.0295182
0.0296701
0.0293287
0.0296042
0.0287834
0.0298165
0.0288358
0.0297271
0.0288151
0.0291059
0.0292708
0.0289388
0.0292004
0.0287855
0.0294928
0.028092
0.0289856
0.0282899
0.0285612
0.0285199
0.0285468
0.0290241
0.0289157
0.0293203
0.0285289
0.0297908
0.0285141
0.0297578
0.0286821
0.0285333
0.028874
0.0284661
0.0289681
0.0286503
0.0286823
0.0285625
0.0291716
0.0283412
0.0293385
0.0272205
0.0291053
0.0282937
0.0282866
0.0285137
0.0282719
0.0287623
0.0284399
0.0291616
0.0281784
0.0294879
0.0281202
0.0286032
0.0277894
0.0283747
0.0280837
0.0281311
0.0277196
0.0281153
0.0279217
0.0279667
0.0282478
0.0281824
0.0286731
0.0279389
0.0292632
0.0280698
0.0279902
0.0282347
0.028384
0.0278499
0.0280108
0.0278412
0.0283835
0.0282755
0.0291565
0.0288625
0.0303525
0.0301153
0.0303255
0.0327909
0.0346612
0.033841
0.00552737
0.0118407
0.0195543
0.0283668
0.0361684
0.0420775
0.0462296
0.0486715
0.0500083
0.0506173
0.0507638
0.0506555
0.0504099
0.0500931
0.0497268
0.0493359
0.0489385
0.0485431
0.0481533
0.0477654
0.0473855
0.0470183
0.0466658
0.0463256
0.0459941
0.0456731
0.0453633
0.0450661
0.0447802
0.0445031
0.0442342
0.0439747
0.043724
0.0434832
0.0432496
0.0430229
0.042803
0.04259
0.0423839
0.0421846
0.0419907
0.0418024
0.0416191
0.0414412
0.0412683
0.0411009
0.0409371
0.0407781
0.0406225
0.0404715
0.0403239
0.0401808
0.0400405
0.0399041
0.0397701
0.0396401
0.0395123
0.0393886
0.0392662
0.0391477
0.0390302
0.0389167
0.0388042
0.0386958
0.0385881
0.0384845
0.0383812
0.0382821
0.0381832
0.0380886
0.0379941
0.037904
0.0378138
0.037728
0.0376422
0.0375609
0.0374799
0.0374036
0.0373277
0.0372567
0.0371866
0.0371218
0.0370585
0.0370015
0.0369459
0.036896
0.0368524
0.0368145
0.0367816
0.0367575
0.0367414
0.036737
0.0367458
0.0367711
0.0368179
0.0368888
0.0369506
0.0372738
0.036841
0.0345392
0.0375971
0.0375574
0.0363236
0.0350067
0.0337295
0.0330383
0.0320543
0.0317623
0.0310541
0.0304343
0.0306492
0.0300366
0.0300654
0.0296083
0.0295783
0.0286796
0.0297783
0.0292782
0.0286367
0.0285846
0.0291353
0.0289721
0.0277089
0.0290918
0.0284271
0.0283908
0.0283782
0.0282876
0.0285319
0.0279229
0.0292038
0.0282703
0.0289695
0.0284651
0.0281268
0.0285544
0.0281108
0.0293393
0.0283249
0.028219
0.0284873
0.0284572
0.0289961
0.0289085
0.0292576
0.0287264
0.029528
0.0292586
0.0292708
0.0296127
0.0293677
0.0304473
0.0296209
0.0293571
0.0290931
0.0294186
0.0296941
0.0296856
0.0297519
0.0295776
0.0296404
0.0291876
0.0294041
0.0295927
0.0298393
0.0294577
0.0294808
0.0294304
0.0289294
0.0293058
0.0295275
0.029554
0.0295422
0.0297221
0.0293587
0.0294212
0.02872
0.0289957
0.0294212
0.0289498
0.0296968
0.0289603
0.0288095
0.0289721
0.0286275
0.028987
0.0285677
0.0291384
0.0290688
0.0290402
0.0294763
0.0289978
0.0287077
0.0291382
0.0288632
0.0288571
0.0289424
0.0281063
0.0289031
0.0288807
0.0291108
0.0289758
0.0288094
0.028751
0.0288986
0.029009
0.0287266
0.0294913
0.0284111
0.0283662
0.0284921
0.0285658
0.0288404
0.0286784
0.0289761
0.0283819
0.0290653
0.028421
0.0289546
0.0291869
0.0288954
0.0291108
0.0284453
0.0291321
0.0285108
0.0293775
0.0284775
0.0285828
0.028706
0.0283607
0.0285737
0.0282862
0.0289373
0.0280904
0.0288993
0.028159
0.0282848
0.0280748
0.0280355
0.0283398
0.0281691
0.0285313
0.0279923
0.0290308
0.0282991
0.0295552
0.0283201
0.0279977
0.0282206
0.0279314
0.0284756
0.0283026
0.0283323
0.0282946
0.0288721
0.0282007
0.0288168
0.0271251
0.0285061
0.027933
0.0278847
0.0280258
0.0277554
0.0281027
0.0278993
0.0286079
0.0280361
0.0291804
0.0280117
0.0282379
0.0272821
0.0280268
0.0278874
0.0279451
0.0275115
0.0279235
0.0277362
0.0277834
0.0279532
0.0277952
0.0280836
0.0274622
0.0284358
0.0276642
0.0277016
0.0279616
0.0283911
0.0278579
0.0280637
0.0276805
0.0281923
0.0278381
0.0287575
0.0281513
0.0297779
0.0290733
0.0281155
0.0291666
0.0314001
0.032019
0.00217495
0.00492547
0.00829336
0.0131587
0.0193435
0.0257944
0.0314845
0.0360825
0.0395227
0.0418796
0.0434072
0.0443526
0.0449217
0.0452394
0.0453645
0.045368
0.0452962
0.0451751
0.0450174
0.0448354
0.0446369
0.0444299
0.0442188
0.0440034
0.043784
0.0435647
0.0433472
0.043134
0.0429242
0.0427162
0.0425112
0.0423105
0.0421145
0.0419242
0.0417371
0.0415536
0.0413741
0.0411989
0.0410285
0.0408625
0.0406998
0.0405407
0.0403851
0.0402333
0.0400854
0.0399413
0.0397998
0.0396617
0.0395262
0.0393942
0.039265
0.0391391
0.0390155
0.0388947
0.038776
0.0386603
0.0385466
0.038436
0.0383267
0.0382202
0.0381148
0.0380123
0.037911
0.0378127
0.0377154
0.0376209
0.0375272
0.0374364
0.0373463
0.0372593
0.0371729
0.0370896
0.0370068
0.036927
0.0368478
0.0367717
0.0366964
0.0366243
0.0365531
0.0364852
0.0364185
0.0363554
0.0362939
0.0362369
0.0361811
0.0361295
0.0360802
0.0360388
0.0359993
0.0359662
0.0359344
0.035915
0.0358986
0.0358973
0.0359022
0.0359249
0.0359121
0.0361088
0.0355579
0.0334974
0.0359583
0.0368976
0.0367016
0.0357585
0.034745
0.0340179
0.0330424
0.0326837
0.0318939
0.0312219
0.0312705
0.0307237
0.0306693
0.0301695
0.0300262
0.0292378
0.0299453
0.0296244
0.0289691
0.0287722
0.0292493
0.0291645
0.028077
0.0289469
0.028599
0.0285414
0.0284712
0.0283415
0.0284608
0.0278885
0.0288273
0.0283524
0.0288902
0.028437
0.028074
0.0283604
0.027957
0.0288511
0.0282761
0.0281036
0.0282851
0.0282799
0.0287415
0.0286444
0.0288771
0.0284399
0.0288909
0.0287392
0.0287717
0.0291116
0.028983
0.0298097
0.0293107
0.0290277
0.0286537
0.0289855
0.0292797
0.0293459
0.0294228
0.0292649
0.0292846
0.0288913
0.0289935
0.0291833
0.0295166
0.0292222
0.0292434
0.0291037
0.0286001
0.02874
0.0289381
0.0290892
0.0291624
0.0293788
0.0290889
0.0290835
0.0284698
0.0286316
0.029066
0.0287533
0.0293156
0.0288369
0.0286531
0.0287181
0.0283383
0.0285341
0.0281752
0.0285531
0.0285206
0.0286523
0.0290761
0.0287758
0.0285278
0.0288623
0.0287038
0.0286546
0.0285787
0.0278371
0.0283444
0.028418
0.028699
0.0286254
0.0284601
0.0283501
0.028519
0.0286385
0.0284276
0.0289807
0.028271
0.0281063
0.0281632
0.0282779
0.0285272
0.0283599
0.028555
0.0280811
0.0284375
0.0279171
0.0284701
0.0287608
0.028571
0.0287517
0.0282429
0.0286593
0.0283136
0.0289713
0.0283327
0.0283222
0.0283834
0.0280552
0.0281891
0.0279706
0.0284963
0.0280422
0.0286761
0.0281513
0.0281426
0.0279236
0.0278257
0.0279915
0.0277803
0.0280512
0.0276988
0.0284507
0.0281095
0.0291311
0.0281805
0.0277979
0.0278933
0.0276506
0.0281381
0.0280594
0.0281018
0.0281111
0.0285913
0.0281302
0.0284855
0.0272683
0.0280527
0.0277548
0.0276998
0.0277845
0.0275303
0.0277546
0.0276027
0.0282326
0.0279145
0.0287692
0.0280178
0.0280347
0.0272654
0.0277906
0.02776
0.0278167
0.0275226
0.0277782
0.0276781
0.0277298
0.0278432
0.0276644
0.0278124
0.0272565
0.0279241
0.0274891
0.0274928
0.0277452
0.0282224
0.0279032
0.028113
0.0276954
0.028113
0.0276777
0.0284723
0.0278349
0.0293449
0.028812
0.0273033
0.0273153
0.0290177
0.0302075
0.000945263
0.00212323
0.00355461
0.005596
0.00881314
0.0133281
0.0185137
0.0234862
0.0279092
0.0316383
0.0345924
0.0368081
0.0384135
0.0395639
0.0403622
0.0409099
0.0412766
0.0415172
0.04166
0.0417234
0.0417358
0.0417128
0.0416621
0.0415889
0.0414993
0.0413969
0.0412851
0.0411674
0.0410436
0.0409143
0.0407818
0.040648
0.0405137
0.04038
0.0402452
0.0401102
0.0399761
0.0398434
0.0397127
0.0395836
0.0394554
0.0393289
0.0392039
0.0390812
0.0389608
0.0388424
0.0387253
0.0386102
0.0384968
0.0383856
0.0382765
0.0381695
0.0380639
0.0379602
0.037858
0.0377579
0.0376594
0.0375632
0.0374678
0.0373744
0.037282
0.0371916
0.0371022
0.037015
0.0369287
0.0368444
0.0367608
0.0366793
0.0365986
0.0365202
0.0364424
0.0363668
0.0362919
0.0362191
0.036147
0.0360771
0.0360083
0.0359415
0.0358758
0.0358123
0.03575
0.0356903
0.0356318
0.0355768
0.0355225
0.035472
0.0354201
0.0353771
0.0353353
0.0352972
0.0352563
0.0352275
0.0351959
0.035177
0.0351557
0.0351458
0.035091
0.0351935
0.0346126
0.03283
0.0345893
0.0358343
0.0363178
0.0359369
0.035288
0.0346071
0.033757
0.0333413
0.0325761
0.0318953
0.031813
0.031313
0.0311866
0.0306986
0.0304781
0.0297736
0.0301651
0.0299601
0.0293387
0.0290613
0.0294026
0.0293724
0.0284369
0.028965
0.0287836
0.0287307
0.028639
0.0284894
0.0285201
0.0279773
0.0286566
0.0284171
0.0288089
0.0284927
0.028137
0.0283091
0.0279271
0.0285634
0.0282376
0.0280797
0.0282008
0.0282014
0.0285907
0.0284942
0.0286474
0.0282861
0.028522
0.0284156
0.0284406
0.0287417
0.0286802
0.0293106
0.0290261
0.0287879
0.0284125
0.0286554
0.0289314
0.0290386
0.0291338
0.0290097
0.0290123
0.0286932
0.0287085
0.0288674
0.0292009
0.0290255
0.02905
0.0288984
0.0284219
0.0283963
0.0285166
0.0287109
0.0288304
0.029057
0.0288576
0.0288308
0.0283397
0.0283754
0.0287659
0.0285597
0.028978
0.0286941
0.0285356
0.0285516
0.0281696
0.0282556
0.027956
0.0281703
0.0281435
0.0283164
0.0287199
0.0285486
0.0283661
0.0286264
0.0285532
0.0285095
0.028351
0.0277002
0.0280003
0.0280874
0.0283516
0.0283422
0.0282041
0.028078
0.0282179
0.0283366
0.0281857
0.0285917
0.0281264
0.0279446
0.0279586
0.0280726
0.0282906
0.0281369
0.0282641
0.0278823
0.0280483
0.027648
0.0280727
0.0283829
0.0282821
0.0284482
0.0280639
0.0283267
0.0281373
0.0285984
0.0281978
0.028156
0.0281686
0.027861
0.0279288
0.0277465
0.0281675
0.0279388
0.0284188
0.0281027
0.0280395
0.0278593
0.0277288
0.0277988
0.0275623
0.0277448
0.0275034
0.02805
0.0279178
0.0286672
0.0280568
0.0277059
0.0277161
0.0274899
0.0278971
0.0278679
0.027922
0.0279577
0.0283421
0.0280436
0.0282504
0.0273799
0.0278047
0.0276345
0.0276017
0.0276537
0.0274237
0.0275601
0.0274289
0.0279654
0.0277919
0.0284148
0.0279763
0.0279165
0.0273534
0.0276507
0.0276646
0.0277273
0.0275429
0.0277068
0.0276513
0.0277108
0.0277954
0.0276224
0.0276814
0.0271681
0.0276316
0.0273845
0.027354
0.0275789
0.0280261
0.0278944
0.0280823
0.0277497
0.0280384
0.0276381
0.0282463
0.0276954
0.0289918
0.0286975
0.0269533
0.0264293
0.0274511
0.0287151
0.000496871
0.000983903
0.00159441
0.00241849
0.00373159
0.00589047
0.00914962
0.0131641
0.0173652
0.0213351
0.0249341
0.028064
0.0306657
0.0327748
0.0343983
0.03564
0.0365818
0.0372994
0.0378399
0.0382363
0.0385286
0.038743
0.0388958
0.0389975
0.0390584
0.0390895
0.0390974
0.039087
0.0390601
0.0390207
0.038971
0.0389129
0.0388482
0.0387781
0.0387021
0.038622
0.038539
0.0384541
0.0383678
0.03828
0.0381905
0.0381003
0.0380097
0.0379193
0.0378294
0.0377396
0.0376495
0.03756
0.037471
0.037383
0.0372959
0.0372097
0.0371239
0.0370391
0.036955
0.0368722
0.0367903
0.0367097
0.0366296
0.0365506
0.0364722
0.036395
0.0363187
0.0362437
0.0361693
0.0360961
0.0360236
0.0359524
0.0358819
0.0358129
0.0357446
0.0356777
0.0356114
0.0355464
0.0354823
0.0354195
0.0353578
0.0352974
0.0352379
0.0351799
0.0351229
0.0350678
0.0350135
0.0349619
0.0349105
0.0348625
0.0348116
0.0347678
0.0347259
0.034686
0.0346404
0.034606
0.0345654
0.0345349
0.0344966
0.0344642
0.0343856
0.0344162
0.0338408
0.0323129
0.0335335
0.0347391
0.035536
0.035655
0.0353871
0.0348738
0.0341952
0.0337475
0.0330719
0.0324206
0.0322511
0.0317823
0.0315996
0.0311445
0.0308753
0.0302364
0.0304173
0.0302542
0.0296804
0.0293685
0.0295827
0.0295662
0.0287518
0.0290743
0.0289608
0.0289158
0.0288177
0.0286612
0.0286326
0.028114
0.0286109
0.0284785
0.0287593
0.0285476
0.028227
0.028323
0.0279548
0.0284133
0.0282111
0.0280855
0.0281699
0.0281678
0.0284941
0.0283982
0.0284955
0.0281863
0.0282993
0.0282058
0.0282123
0.0284622
0.0284317
0.0289251
0.0287617
0.0285765
0.0282522
0.0283979
0.0286373
0.0287585
0.0288663
0.0287759
0.0287756
0.028522
0.0284914
0.0286144
0.0289115
0.0288265
0.028863
0.0287298
0.0282892
0.028172
0.0282108
0.0284007
0.028538
0.0287566
0.0286345
0.028608
0.0282263
0.0281853
0.0285138
0.0283687
0.0286877
0.0285248
0.0284118
0.0284108
0.0280428
0.0280598
0.0278029
0.0279095
0.0278798
0.0280318
0.0284078
0.0283212
0.0282002
0.0284151
0.0283922
0.0283677
0.0281756
0.0276049
0.0277743
0.0278454
0.0280657
0.0280939
0.0279884
0.0278648
0.027968
0.028079
0.0279727
0.0282851
0.0279685
0.0278102
0.027806
0.0279075
0.0280929
0.0279539
0.0280374
0.0277205
0.0277819
0.0274761
0.0277714
0.0280605
0.0280161
0.0281744
0.0278832
0.0280628
0.0279598
0.0282843
0.0280409
0.0280097
0.0279963
0.0277109
0.0277324
0.0275699
0.0279105
0.0278048
0.0281725
0.0280022
0.0279454
0.0278029
0.0276642
0.0276745
0.0274247
0.0275361
0.0273545
0.0277633
0.0277333
0.0282698
0.0279088
0.0276299
0.0275989
0.0273825
0.0277141
0.0277059
0.0277657
0.0278158
0.0281212
0.0279319
0.0280615
0.0274254
0.0276634
0.0275446
0.0275349
0.0275707
0.027364
0.0274415
0.0273182
0.0277668
0.0276713
0.0281383
0.0278895
0.0278229
0.0274189
0.0275764
0.0275923
0.0276553
0.0275423
0.0276608
0.0276281
0.0276942
0.0277633
0.0276041
0.0276099
0.0271303
0.0274574
0.0273057
0.027261
0.0274523
0.0278492
0.0278362
0.0280002
0.0277773
0.0279592
0.0276319
0.028071
0.0276328
0.0286978
0.0285695
0.0267166
0.0259972
0.0265041
0.0276054
0.00034182
0.000534352
0.000789554
0.00112399
0.0016322
0.00248551
0.00393219
0.00618719
0.00918273
0.012617
0.0161043
0.0193696
0.0223779
0.0250852
0.0274198
0.0293893
0.031005
0.0323057
0.0333506
0.0341797
0.0348379
0.0353613
0.0357784
0.0361079
0.0363652
0.0365667
0.0367242
0.0368458
0.0369354
0.0369988
0.0370423
0.0370687
0.0370815
0.037082
0.0370723
0.0370541
0.0370285
0.0369969
0.03696
0.0369182
0.0368719
0.0368224
0.03677
0.0367156
0.0366595
0.0366013
0.0365412
0.0364801
0.0364181
0.0363557
0.036293
0.0362297
0.0361657
0.0361017
0.0360375
0.0359737
0.03591
0.0358467
0.0357832
0.03572
0.0356568
0.0355943
0.0355321
0.0354705
0.035409
0.0353482
0.0352876
0.0352278
0.0351684
0.0351099
0.0350518
0.0349944
0.0349375
0.0348814
0.0348259
0.0347712
0.0347173
0.0346642
0.0346118
0.0345602
0.0345094
0.0344599
0.0344109
0.0343638
0.0343165
0.034272
0.0342244
0.0341809
0.0341402
0.0341007
0.0340539
0.0340168
0.033971
0.0339328
0.0338837
0.0338355
0.0337438
0.0337194
0.0331628
0.0318542
0.0327144
0.0337593
0.0346215
0.035074
0.035131
0.0348595
0.0343758
0.0339354
0.0333765
0.032787
0.0325689
0.0321274
0.0319058
0.0314901
0.0311938
0.0306108
0.0306586
0.0304997
0.0299714
0.0296524
0.0297656
0.0297371
0.0290159
0.0292131
0.0291217
0.0290793
0.0289807
0.0288242
0.0287575
0.0282614
0.0286284
0.028539
0.0287391
0.0285887
0.02831
0.0283604
0.028005
0.0283398
0.0281951
0.0280976
0.0281601
0.028152
0.0284244
0.0283279
0.0283835
0.0281109
0.0281539
0.0280614
0.0280468
0.0282454
0.0282235
0.028619
0.0285196
0.0283781
0.028119
0.0281914
0.0283879
0.0285047
0.028616
0.028553
0.0285554
0.0283555
0.0283058
0.0284002
0.0286515
0.028622
0.0286705
0.0285642
0.0281629
0.0280037
0.0279793
0.0281429
0.0282788
0.0284795
0.0284143
0.0283947
0.0280998
0.0280247
0.028295
0.0281821
0.028431
0.0283403
0.0282714
0.0282706
0.0279247
0.0279008
0.0276747
0.0277153
0.027684
0.027794
0.0281357
0.0281012
0.0280282
0.028216
0.0282215
0.0282137
0.0280163
0.0275152
0.027608
0.0276571
0.0278291
0.0278719
0.0277923
0.0276792
0.0277525
0.0278524
0.0277774
0.028029
0.0278035
0.0276784
0.0276708
0.0277591
0.0279148
0.0277874
0.0278427
0.027572
0.027577
0.0273391
0.0275418
0.0277886
0.027772
0.0279223
0.0276983
0.0278328
0.0277795
0.0280178
0.027868
0.0278581
0.027836
0.0275744
0.0275675
0.0274178
0.0276973
0.0276571
0.0279478
0.0278685
0.0278411
0.0277322
0.0275993
0.027576
0.027322
0.0273808
0.0272299
0.0275448
0.0275608
0.0279558
0.027743
0.0275408
0.0274985
0.0272942
0.0275635
0.0275614
0.0276208
0.0276776
0.0279215
0.0278018
0.0278928
0.0274141
0.0275604
0.0274661
0.0274733
0.0275028
0.0273175
0.0273573
0.0272376
0.0276102
0.0275554
0.0279193
0.0277789
0.0277289
0.02744
0.0275255
0.0275308
0.0275886
0.0275199
0.027616
0.0275971
0.0276669
0.0277275
0.0275831
0.0275589
0.0271103
0.0273455
0.0272402
0.0271918
0.0273527
0.0276963
0.0277494
0.0278986
0.0277613
0.0278784
0.0276234
0.0279365
0.0276103
0.0284405
0.0284036
0.0265573
0.0257838
0.0259487
0.0268253
0.000285607
0.000365888
0.000469265
0.000604524
0.000799959
0.00111715
0.00166664
0.00261186
0.0041113
0.00626655
0.00895159
0.0118791
0.014834
0.0175884
0.0201645
0.0225384
0.0246524
0.0264935
0.0280842
0.0294071
0.0305044
0.0314144
0.0321684
0.0327903
0.0333014
0.0337232
0.0340719
0.0343607
0.0345981
0.034792
0.0349511
0.0350809
0.0351871
0.0352718
0.0353372
0.035388
0.0354259
0.0354532
0.0354705
0.0354798
0.0354816
0.0354772
0.0354672
0.0354525
0.0354334
0.0354102
0.0353834
0.0353538
0.0353215
0.0352873
0.0352512
0.0352131
0.0351732
0.0351321
0.0350898
0.0350468
0.035003
0.0349586
0.0349131
0.0348672
0.0348208
0.0347742
0.0347274
0.0346804
0.034633
0.0345856
0.034538
0.0344906
0.0344433
0.0343963
0.0343493
0.0343024
0.0342558
0.0342093
0.0341633
0.0341176
0.0340723
0.0340273
0.0339827
0.0339385
0.0338948
0.0338517
0.0338088
0.0337672
0.0337251
0.033685
0.0336422
0.0336009
0.0335619
0.0335244
0.033479
0.0334412
0.0333929
0.0333501
0.0332941
0.033235
0.0331373
0.0330698
0.0325378
0.0314142
0.0320454
0.0329181
0.0337237
0.0343338
0.0346224
0.0345983
0.0343193
0.0339399
0.0335043
0.0329982
0.0327607
0.0323504
0.0321089
0.0317328
0.031426
0.030895
0.0308607
0.0306913
0.0302026
0.029893
0.0299307
0.0298795
0.0292309
0.0293497
0.0292603
0.0292143
0.0291163
0.0289625
0.0288725
0.028399
0.0286725
0.0285956
0.0287354
0.0286168
0.0283752
0.0283988
0.0280573
0.0283049
0.0281851
0.0281066
0.0281552
0.0281398
0.0283665
0.0282674
0.0282917
0.0280455
0.0280476
0.027953
0.027919
0.0280717
0.028046
0.0283672
0.0282992
0.0281882
0.0279902
0.0280157
0.0281723
0.0282754
0.0283827
0.0283386
0.0283447
0.0281865
0.0281325
0.0282075
0.0284153
0.0284157
0.0284721
0.0283914
0.0280295
0.0278573
0.0277916
0.027922
0.0280459
0.028225
0.0281978
0.0281858
0.0279567
0.0278725
0.0280951
0.0279988
0.0281966
0.0281485
0.028115
0.0281223
0.0278021
0.0277558
0.0275536
0.0275549
0.0275226
0.0275925
0.0278968
0.0278917
0.0278528
0.028023
0.0280443
0.028047
0.0278587
0.0274176
0.0274677
0.0274977
0.0276264
0.0276699
0.0276082
0.0275083
0.0275597
0.0276474
0.0275932
0.0278032
0.027635
0.027541
0.027538
0.0276154
0.0277463
0.0276273
0.0276636
0.0274272
0.0274016
0.0272131
0.0273537
0.0275553
0.0275478
0.0276877
0.0275116
0.0276214
0.0275979
0.0277809
0.0276855
0.0276946
0.0276741
0.027437
0.0274154
0.0272768
0.0275102
0.0275046
0.0277411
0.0277161
0.0277189
0.0276406
0.0275207
0.0274817
0.0272312
0.0272532
0.0271183
0.0273667
0.0274002
0.0277028
0.0275724
0.0274327
0.0273959
0.0272079
0.0274295
0.0274266
0.0274817
0.0275394
0.0277361
0.0276593
0.0277316
0.0273611
0.0274642
0.0273867
0.0274051
0.0274333
0.027267
0.0272841
0.0271678
0.0274781
0.0274434
0.0277354
0.0276564
0.0276262
0.0274201
0.0274731
0.0274687
0.0275188
0.0274778
0.0275618
0.0275532
0.0276235
0.0276791
0.0275488
0.0275093
0.0270908
0.027264
0.0271808
0.0271327
0.027269
0.0275625
0.0276483
0.0277871
0.0277084
0.0277928
0.0276007
0.0278266
0.027598
0.0282135
0.028217
0.0264396
0.0256784
0.0256265
0.0262899
0.000263423
0.000299149
0.000345476
0.00040044
0.000476537
0.000593313
0.00078933
0.00113481
0.00173123
0.0027079
0.00418144
0.00616557
0.00855404
0.0110673
0.0136065
0.0160033
0.0182437
0.0203375
0.0222626
0.0239828
0.0255047
0.0268329
0.0279651
0.02893
0.0297515
0.0304476
0.0310371
0.0315382
0.0319638
0.0323237
0.0326291
0.032889
0.033111
0.0333001
0.0334589
0.0335938
0.0337081
0.0338052
0.0338866
0.0339539
0.0340091
0.0340545
0.0340907
0.0341195
0.0341408
0.0341562
0.0341659
0.0341709
0.0341713
0.0341679
0.0341608
0.0341503
0.0341368
0.0341208
0.0341024
0.0340821
0.03406
0.0340361
0.0340104
0.0339834
0.0339551
0.0339259
0.0338957
0.0338647
0.0338326
0.0337998
0.0337664
0.0337325
0.0336983
0.0336637
0.0336287
0.0335933
0.0335578
0.033522
0.0334862
0.0334503
0.0334145
0.0333784
0.0333424
0.0333064
0.0332704
0.0332347
0.0331988
0.0331636
0.0331275
0.0330927
0.0330556
0.0330183
0.0329816
0.032947
0.0329052
0.0328681
0.0328194
0.0327742
0.0327144
0.032648
0.0325488
0.032447
0.0319423
0.0309747
0.0314655
0.0321923
0.0328989
0.0335462
0.0339667
0.0341429
0.0340535
0.0337882
0.0334778
0.0330649
0.0328288
0.0324575
0.032214
0.0318753
0.0315716
0.031091
0.031008
0.0308261
0.030372
0.0300812
0.0300642
0.0299883
0.029398
0.029466
0.0293713
0.0293176
0.0292201
0.029069
0.0289662
0.0285158
0.028721
0.0286432
0.0287358
0.0286321
0.0284194
0.0284273
0.0281005
0.0282853
0.0281749
0.0281074
0.0281458
0.0281231
0.0283109
0.0282084
0.0282096
0.0279827
0.0279594
0.027862
0.0278117
0.0279255
0.0278902
0.0281527
0.028098
0.0280061
0.0278582
0.0278564
0.0279801
0.0280658
0.028164
0.0281314
0.0281402
0.0280137
0.0279629
0.0280262
0.0281966
0.0282104
0.0282689
0.0282092
0.0278847
0.0277157
0.0276277
0.0277265
0.0278335
0.0279901
0.0279855
0.0279792
0.0277993
0.0277188
0.0279049
0.0278179
0.0279774
0.027954
0.0279458
0.0279632
0.0276691
0.0276121
0.0274305
0.0274094
0.0273762
0.0274158
0.0276836
0.0276928
0.0276761
0.0278325
0.0278621
0.0278696
0.027697
0.0273077
0.0273358
0.0273521
0.0274453
0.0274824
0.0274318
0.0273448
0.0273809
0.0274572
0.0274164
0.0275961
0.0274651
0.0273962
0.0274011
0.0274699
0.0275805
0.0274679
0.0274911
0.0272812
0.0272396
0.0270875
0.0271875
0.0273494
0.02734
0.0274674
0.0273252
0.0274202
0.0274152
0.0275614
0.0274978
0.0275199
0.0275061
0.0272932
0.0272663
0.027139
0.0273374
0.0273496
0.0275467
0.0275533
0.0275795
0.0275288
0.0274244
0.0273809
0.0271391