/*--------------------------------*- C++ -*----------------------------------*\
| =========                 |                                                 |
| \\      /  F ield         | foam-extend: Open Source CFD                    |
|  \\    /   O peration     | Version:     3.2                                |
|   \\  /    A nd           | Web:         http://www.foam-extend.org         |
|    \\/     M anipulation  | For copyright notice see file Copyright         |
\*---------------------------------------------------------------------------*/
FoamFile
{
    version     2.0;
    format      ascii;
    class       areaScalarField;
    location    "160";
    object      kTempA;
}
// * * * * * * * * * * * * * * * * * * * * * * * * * * * * * * * * * * * * * //

dimensions      [0 2 -2 0 0 0 0];

internalField   nonuniform List<scalar> 
300
(
0.178319
0.142008
0.0985161
0.0808966
0.0742543
0.070771
0.0682484
0.0660411
0.064009
0.0621651
0.0605192
0.0590479
0.0577167
0.0565292
0.0554603
0.0544889
0.0536002
0.0527801
0.0520289
0.0513441
0.050708
0.0501106
0.0495493
0.0490227
0.0485284
0.048061
0.0476188
0.0471987
0.0468004
0.0464234
0.0460629
0.04572
0.0453906
0.0450767
0.0447753
0.044488
0.0442101
0.0439444
0.0436871
0.0434403
0.0432021
0.0429727
0.0427505
0.0425361
0.0423278
0.0421274
0.0419321
0.0417445
0.0415603
0.0413838
0.0412098
0.0410433
0.0408793
0.040722
0.0405667
0.0404178
0.0402703
0.0401293
0.0399871
0.0398531
0.0397175
0.0395908
0.0394618
0.039342
0.0392192
0.0391064
0.0389894
0.0388832
0.0387721
0.0386725
0.0385674
0.0384749
0.0383761
0.0382912
0.0381991
0.0381226
0.0380388
0.0379716
0.037898
0.0378421
0.0377812
0.0377393
0.0376955
0.0376713
0.0376525
0.0376496
0.0376604
0.0376941
0.0377464
0.0378314
0.0379549
0.0381132
0.0383528
0.0386224
0.0390957
0.0395925
0.0406861
0.0411566
0.047125
0.0435126
0.0234967
0.0228044
0.0241094
0.0241705
0.0249652
0.024868
0.0257877
0.0254181
0.0264441
0.026435
0.0250772
0.0269066
0.0260417
0.0273963
0.0270681
0.0286912
0.0242542
0.0272809
0.0294513
0.0266579
0.0254373
0.0271925
0.0314231
0.0228682
0.0275694
0.027527
0.0283462
0.0287144
0.0280301
0.0301412
0.0231941
0.0291395
0.0269867
0.0297804
0.0299114
0.0270017
0.0298119
0.0246678
0.0305156
0.0285742
0.0275928
0.0287985
0.0272844
0.030616
0.0302575
0.0338121
0.0294951
0.0311476
0.0303455
0.028428
0.0296972
0.025932
0.0317262
0.032046
0.0312357
0.0288915
0.0276161
0.028678
0.028732
0.0301199
0.0297443
0.0309619
0.0287275
0.0276023
0.0277989
0.0294364
0.0299698
0.0309028
0.0326503
0.0298832
0.028746
0.02817
0.0284274
0.0282901
0.0298439
0.0294152
0.0310437
0.0281477
0.0260535
0.0292504
0.0258587
0.029124
0.0287878
0.0288378
0.0321634
0.0297008
0.0315966
0.0287667
0.0288296
0.0276826
0.0255573
0.0287411
0.0285233
0.0269299
0.0288422
0.0298579
0.0307864
0.0323798
0.0267369
0.0280403
0.0283328
0.0293032
0.0299723
0.029322
0.0281729
0.0275681
0.02889
0.0261829
0.0313716
0.0288832
0.0279346
0.0278635
0.0275184
0.0303281
0.029359
0.0330142
0.0288
0.030433
0.0274574
0.027056
0.0294841
0.0279427
0.0306539
0.0259091
0.028827
0.0267482
0.0300078
0.0281704
0.0286747
0.0307737
0.0278417
0.0281302
0.0243861
0.0281351
0.0252456
0.0283754
0.0273755
0.0288791
0.0299675
0.0293743
0.0311009
0.0283791
0.0303167
0.0247229
0.0286282
0.025179
0.0311844
0.0299114
0.0281758
0.0292186
0.0255712
0.027657
0.0265363
0.0268783
0.0256155
0.029152
0.0263225
0.0332309
0.0254
0.0286973
0.0273753
0.0278298
0.0303109
0.0280415
0.0287809
0.0243384
0.0289625
0.024166
0.029515
0.0276865
0.029246
0.0257493
0.0269572
0.0264363
0.0274546
0.025816
0.0271804
0.0268238
0.027448
0.0296666
0.0286695
0.0312424
0.0243776
0.0285201
0.026585
0.024507
0.0242365
0.0264271
0.0262513
0.02787
0.0271646
0.0293553
0.0280343
0.0319934
0.029202
0.0392085
0.0540169
0.042172
0.0320078
0.0292503
)
;

boundaryField
{
    inlet
    {
        type            calculated;
        value           uniform 0;
    }
    outlet
    {
        type            calculated;
        value           uniform 0;
    }
    sideWall
    {
        type            empty;
    }
}


// ************************************************************************* //
