/*--------------------------------*- C++ -*----------------------------------*\
| =========                 |                                                 |
| \\      /  F ield         | foam-extend: Open Source CFD                    |
|  \\    /   O peration     | Version:     3.2                                |
|   \\  /    A nd           | Web:         http://www.foam-extend.org         |
|    \\/     M anipulation  | For copyright notice see file Copyright         |
\*---------------------------------------------------------------------------*/
FoamFile
{
    version     2.0;
    format      ascii;
    class       surfaceScalarField;
    location    "160";
    object      meshPhi;
}
// * * * * * * * * * * * * * * * * * * * * * * * * * * * * * * * * * * * * * //

dimensions      [0 3 -1 0 0 0 0];

internalField   nonuniform List<scalar> 
191380
(
0
0
0
0
0
0
0
0
0
0
0
0
0
0
0
0
0
0
0
0
0
0
0
0
0
0
0
0
0
0
0
0
0
0
0
0
0
0
0
0
0
0
0
0
0
0
0
0
0
0
0
0
0
0
0
0
0
0
0
0
0
0
0
0
0
0
0
0
0
0
0
0
0
0
0
0
0
0
0
0
0
0
0
0
0
0
0
0
0
0
0
0
0
0
0
0
0
0
0
0
0
0
0
0
0
0
0
0
0
0
0
0
0
0
0
0
0
0
0
-1.4456e-20
1.28395e-34
-5.78241e-20
-1.28395e-34
-4.33681e-20
-8.32667e-19
-5.78241e-20
-2.56791e-34
-5.78241e-20
0
-7.22801e-20
8.32667e-19
-8.67362e-20
-8.32667e-19
-1.59016e-19
-8.32667e-19
-2.02384e-19
8.32667e-19
-2.74665e-19
0
-2.74665e-19
-8.32667e-19
-4.04769e-19
8.32667e-19
-5.63785e-19
8.32667e-19
-7.08345e-19
-2.95309e-33
-9.1073e-19
8.32667e-19
-1.15648e-18
8.32667e-19
-1.46006e-18
8.32667e-19
-1.85037e-18
-8.32667e-19
-2.38524e-18
0
-3.06468e-18
0
-3.87422e-18
3.33828e-32
-5.00179e-18
-1.66533e-18
-6.43293e-18
0
-8.31222e-18
-1.66533e-18
-1.07553e-17
0
-1.39934e-17
1.66533e-18
-1.83013e-17
0
-2.40837e-17
0
-3.19767e-17
0
-4.02456e-17
0
-8.19079e-17
0
1.08941e-16
0
-1.38615e-15
1.66533e-18
7.40688e-15
-1.66533e-18
-3.97646e-14
0
1.70723e-13
0
-5.13876e-13
1.66529e-18
8.36899e-14
-1.6658e-18
1.18218e-11
-1.5893e-24
-1.23199e-10
-1.67157e-18
-9.76906e-08
0
-3.28157e-07
3.33827e-18
-5.21241e-07
1.6696e-18
-6.15226e-07
1.6683e-18
-6.75909e-07
0
-7.1648e-07
0
-7.51018e-07
0
-7.75549e-07
1.66747e-18
-7.95866e-07
-4.07465e-23
-4.25897e-07
0
-6.90966e-07
0
-2.79691e-06
1.3394e-23
-3.60163e-06
-1.66531e-18
-2.05806e-06
0
-5.18804e-08
1.66424e-18
2.78269e-06
-6.21124e-24
3.82931e-06
3.33949e-18
2.01087e-06
1.65888e-18
8.62564e-07
1.66327e-18
-1.63527e-07
1.66379e-18
-2.67326e-06
-1.66682e-18
-4.12681e-06
-3.69785e-23
-2.80377e-06
-7.34994e-23
7.51344e-07
3.34137e-18
4.04369e-06
2.35703e-23
3.77385e-06
-1.66827e-18
1.66787e-06
5.3444e-23
8.54175e-07
0
-6.03086e-07
0
-3.32055e-06
1.66287e-18
-3.30634e-06
1.66811e-18
-1.45087e-06
0
1.45731e-07
3.33687e-18
3.00573e-06
3.31393e-18
3.99901e-06
-2.29678e-23
2.00263e-06
-1.66071e-18
-9.73179e-08
1.66178e-18
-2.87532e-06
6.36759e-23
-4.50706e-06
1.65742e-18
-2.68447e-06
0
6.32639e-07
1.65946e-18
3.70671e-06
1.66533e-18
4.16437e-06
1.66334e-18
2.05479e-06
0
8.81255e-07
-1.66279e-18
-6.39041e-07
0
-4.21547e-06
-3.85482e-23
-5.19272e-06
3.31596e-18
-2.21815e-06
-1.66582e-18
-2.80898e-07
3.76419e-23
7.78953e-07
-1.26573e-22
3.67917e-06
-1.66605e-18
4.66865e-06
-2.57466e-24
2.32043e-06
-1.66362e-18
-6.03415e-07
1.66057e-18
-3.69524e-06
-1.66544e-18
-4.26628e-06
6.68168e-23
-2.14602e-06
0
-1.31309e-06
0
-3.60586e-08
1.66214e-18
3.57095e-06
0
4.73539e-06
0
2.32653e-06
-3.32857e-18
-3.8996e-07
0
-3.53482e-06
0
-4.81732e-06
-3.32431e-18
-2.91403e-06
0
7.1775e-08
3.32347e-18
3.95235e-06
0
5.08549e-06
0
2.46629e-06
3.32528e-18
-4.39018e-07
0
-3.57193e-06
3.32552e-18
-4.65036e-06
3.32734e-18
-2.73418e-06
0
3.20764e-08
0
3.62315e-06
0
4.69355e-06
3.33193e-18
2.32764e-06
-3.32582e-18
9.13836e-07
-3.32228e-18
-4.44195e-07
0
-3.54341e-06
-2.80987e-24
-4.35768e-06
3.33315e-18
-2.40101e-06
-3.3219e-18
-1.59815e-06
0
1.13536e-07
-3.32678e-18
4.17149e-06
-3.32049e-18
5.04987e-06
0
2.34383e-06
0
8.87435e-07
0
8.8889e-07
0
-4.93237e-07
-2.09279e-22
-3.49439e-06
3.32684e-18
-4.20624e-06
-3.32959e-18
-2.34209e-06
6.64975e-18
-5.60788e-08
3.32784e-18
3.39453e-06
-3.32191e-18
4.6059e-06
0
2.27552e-06
0
-4.7124e-07
-3.32152e-18
-3.6496e-06
0
-4.77884e-06
-3.32227e-18
-2.71828e-06
0
2.10099e-07
3.32369e-18
3.74265e-06
-3.33136e-18
4.68904e-06
0
2.31223e-06
1.23279e-22
9.19291e-07
0
-5.41611e-07
0
-3.67724e-06
0
-4.24047e-06
-3.32117e-18
-1.80124e-06
3.33456e-18
-7.58318e-07
1.72071e-22
-1.29325e-06
3.32726e-18
1.46447e-07
0
3.84784e-06
-3.32069e-18
4.75123e-06
0
2.25809e-06
-3.31857e-18
8.78919e-07
0
-5.46044e-07
0
-3.72923e-06
3.32905e-18
-4.68196e-06
3.32624e-18
-2.4929e-06
0
-6.38976e-07
-4.90775e-23
8.50166e-07
-3.32126e-18
3.36521e-06
-3.33549e-18
4.16922e-06
-3.31885e-18
2.16834e-06
-3.33843e-18
8.63184e-07
0
-3.95685e-07
3.32922e-18
-3.42082e-06
-2.78845e-23
-3.9688e-06
0
-1.34223e-06
0
6.38531e-07
1.6635e-22
2.73818e-06
0
3.78253e-06
-1.24723e-23
2.08015e-06
3.33747e-18
-5.46676e-07
2.00628e-22
-3.8874e-06
-5.4812e-23
-4.88263e-06
-3.32112e-18
-2.51019e-06
3.32747e-18
-1.00522e-06
3.32666e-18
-6.04514e-07
0
1.32187e-06
6.6712e-18
4.00865e-06
0
3.95637e-06
3.34088e-18
1.81431e-06
3.3136e-18
-4.09446e-07
-3.33856e-18
-3.44723e-06
3.31828e-18
-4.2116e-06
-3.3319e-18
-4.95927e-07
-3.32878e-18
3.43403e-06
3.32623e-18
3.80508e-06
3.32848e-18
1.88732e-06
-3.3278e-18
-4.65155e-07
0
-3.28214e-06
3.78027e-23
-4.34145e-06
-1.99346e-24
-2.79932e-06
-3.31563e-18
-6.77198e-07
-2.11961e-23
1.39199e-06
3.31392e-18
3.53151e-06
0
3.97991e-06
0
2.08648e-06
-3.33379e-18
8.25498e-07
-2.63871e-24
8.23853e-07
0
8.5204e-07
3.70683e-24
8.65163e-07
0
8.63112e-07
0
8.61931e-07
-3.31815e-18
8.52036e-07
0
8.43174e-07
6.63698e-18
8.43976e-07
-1.71875e-24
8.4531e-07
-3.31896e-18
8.43325e-07
-3.21667e-24
8.41207e-07
0
8.39979e-07
-3.34141e-18
8.39299e-07
0
8.3687e-07
0
8.33649e-07
0
8.27325e-07
0
8.18686e-07
0
8.14379e-07
-3.32661e-18
8.18534e-07
-3.33712e-18
8.251e-07
-3.27445e-24
8.20704e-07
0
8.17711e-07
-3.32976e-18
8.27062e-07
-2.5206e-24
8.28759e-07
-6.65587e-18
8.17119e-07
-1.95677e-24
8.02468e-07
0
7.85367e-07
3.3405e-18
7.65263e-07
-3.33084e-18
7.39062e-07
3.34651e-18
7.02558e-07
3.0732e-24
6.49572e-07
3.37299e-18
5.59025e-07
-3.34444e-18
3.56651e-07
-3.26695e-24
1.06443e-07
-6.66323e-18
1.23236e-10
0
-1.30783e-11
1.62012e-12
0
0
0
0
0
0
0
0
0
0
0
0
0
0
0
0
0
0
0
0
0
0
0
0
0
0
0
0
0
0
0
0
0
0
0
0
0
0
0
0
0
0
0
0
0
0
0
0
0
0
0
0
0
0
0
0
0
0
0
0
0
0
0
0
0
0
0
0
0
0
0
0
0
0
0
0
0
0
0
0
0
0
0
0
0
0
0
0
0
0
0
0
0
0
0
0
0
0
0
0
0
0
0
0
0
-2.89121e-20
8.32667e-19
-8.67362e-20
0
-5.78241e-20
0
-5.78241e-20
0
-5.78241e-20
0
-1.4456e-19
0
-2.31296e-19
-1.66533e-18
-2.02384e-19
-8.32667e-19
-2.89121e-19
-8.32667e-19
-3.46945e-19
1.66914e-33
-5.49329e-19
-2.05433e-33
-6.64977e-19
-1.66533e-18
-8.3845e-19
8.32667e-19
-1.12757e-18
8.32667e-19
-1.4456e-18
8.32667e-19
-1.87928e-18
-7.44693e-33
-2.45752e-18
2.498e-18
-3.18033e-18
8.32667e-19
-4.04769e-18
-1.5921e-32
-5.29091e-18
2.05433e-32
-6.85216e-18
8.32667e-19
-8.81818e-18
0
-1.12757e-17
8.32667e-19
-1.43982e-17
-8.32667e-19
-1.85326e-17
1.66533e-18
-2.37657e-17
-8.32667e-19
-3.04155e-17
0
-3.90602e-17
-1.66533e-18
-5.01624e-17
1.66533e-18
-6.46184e-17
0
-8.32667e-17
0
-1.07726e-16
0
-1.39963e-16
0
-1.83013e-16
0
-2.3997e-16
-1.66533e-18
-3.19681e-16
0
-4.26279e-16
0
-5.27934e-16
0
-1.32958e-15
-1.66533e-18
2.53382e-15
0
-2.14649e-14
1.88581e-27
8.54725e-14
1.66532e-18
-3.40509e-13
0
1.21457e-12
0
-5.33361e-12
0
3.77404e-11
0
-4.26158e-10
0
-9.73358e-08
-1.68358e-18
-3.2609e-07
8.30542e-24
-5.19164e-07
0
-6.13936e-07
1.66899e-18
-6.74684e-07
0
-7.15368e-07
-1.66839e-18
-7.498e-07
-1.66646e-18
-7.74631e-07
-1.66872e-18
-7.92517e-07
-1.66359e-18
-4.28605e-07
3.01112e-23
-6.99388e-07
0
-2.78149e-06
0
-3.58204e-06
7.43924e-24
-2.05581e-06
-3.32379e-18
-4.82426e-08
1.66511e-18
2.76605e-06
4.40324e-23
3.80594e-06
1.6751e-18
2.01584e-06
3.31118e-18
8.64602e-07
-1.66355e-18
-1.70825e-07
3.32928e-18
-2.66027e-06
1.67017e-18
-4.10312e-06
-1.65861e-18
-2.78676e-06
-3.31718e-18
7.47495e-07
1.67713e-18
4.01283e-06
0
3.75464e-06
0
1.67454e-06
1.10352e-22
8.50689e-07
1.67201e-18
-6.10364e-07
3.31012e-18
-3.29971e-06
1.66326e-18
-3.29282e-06
3.34567e-18
-1.45232e-06
-7.18099e-23
1.55618e-07
-2.70231e-22
2.98897e-06
-1.65213e-18
3.97246e-06
-2.63113e-23
2.00112e-06
6.39817e-23
-1.00499e-07
-1.66172e-18
-2.8644e-06
0
-4.47822e-06
1.6532e-18
-2.67107e-06
-1.67162e-18
6.30713e-07
-1.65705e-18
3.68619e-06
-1.66817e-18
4.14202e-06
1.66434e-18
2.05706e-06
-1.66244e-18
8.76788e-07
0
-6.5464e-07
1.65666e-18
-4.19632e-06
0
-5.16011e-06
3.30835e-18
-2.21987e-06
-1.66888e-18
-2.8481e-07
0
7.90486e-07
1.66558e-18
3.66064e-06
3.33837e-18
4.6389e-06
-1.09769e-23
2.31275e-06
-1.66489e-18
-6.04961e-07
3.31786e-18
-3.67492e-06
-2.25716e-23
-4.24344e-06
-1.66167e-18
-2.15217e-06
6.66086e-18
-1.30891e-06
0
-2.01246e-08
0
3.55078e-06
-3.32687e-18
4.70625e-06
0
2.32336e-06
0
-3.91861e-07
3.32614e-18
-3.51822e-06
0
-4.78976e-06
0
-2.90354e-06
-3.33058e-18
7.9894e-08
3.32211e-18
3.93194e-06
-3.32043e-18
5.05506e-06
0
2.46333e-06
0
-4.38855e-07
-4.97716e-22
-3.55321e-06
3.3265e-18
-4.62435e-06
0
-2.72625e-06
0
3.82507e-08
0
3.60267e-06
-3.31513e-18
4.66498e-06
-3.33731e-18
2.33326e-06
0
9.14611e-07
0
-4.55112e-07
-6.68355e-18
-3.52212e-06
3.31412e-18
-4.33169e-06
3.34009e-18
-2.4064e-06
0
-1.59156e-06
3.32509e-18
1.29491e-07
0
4.14529e-06
0
5.02019e-06
-3.33566e-18
2.35073e-06
0
8.96443e-07
-3.33523e-18
8.79751e-07
0
-5.01625e-07
-3.32236e-18
-3.47469e-06
1.76482e-23
-4.18567e-06
-3.33314e-18
-2.33798e-06
0
-4.62934e-08
-3.32953e-18
3.37707e-06
0
4.5767e-06
4.40873e-23
2.27207e-06
0
-4.73e-07
0
-3.63294e-06
0
-4.75216e-06
-5.75732e-23
-2.70945e-06
3.32859e-18
2.14572e-07
-3.32216e-18
3.72191e-06
0
4.66101e-06
0
2.31552e-06
0
9.17664e-07
3.33645e-18
-5.5307e-07
0
-3.65795e-06
-3.33972e-18
-4.2166e-06
-3.31713e-18
-1.80697e-06
3.3417e-18
-7.66908e-07
3.32468e-18
-1.28012e-06
3.32831e-18
1.61488e-07
0
3.82625e-06
3.31566e-18
4.72348e-06
-3.33959e-18
2.26404e-06
0
8.79377e-07
1.60854e-23
-5.56046e-07
0
-3.71008e-06
1.52437e-22
-4.6557e-06
-3.3264e-18
-2.49193e-06
7.97831e-23
-6.41079e-07
0
8.5569e-07
0
3.35036e-06
-3.34256e-18
4.14495e-06
3.31186e-18
2.16896e-06
-3.34801e-18
8.61047e-07
-3.31136e-18
-4.08419e-07
0
-3.39966e-06
4.56577e-23
-3.943e-06
1.67228e-22
-1.34736e-06
3.33875e-18
6.38809e-07
3.80801e-22
2.72944e-06
-3.34529e-18
3.75915e-06
-4.74422e-23
2.07084e-06
-1.22085e-22
-5.53834e-07
0
-3.87189e-06
-3.34037e-18
-4.85462e-06
-1.68778e-22
-2.50997e-06
-6.6562e-18
-1.00989e-06
0
-5.94737e-07
3.32172e-18
1.32352e-06
3.34258e-18
3.98385e-06
-6.63235e-18
3.93729e-06
-6.2106e-23
1.81174e-06
6.60215e-18
-4.15347e-07
5.60035e-22
-3.42687e-06
0
-4.17703e-06
3.33553e-18
-4.97285e-07
0
3.40512e-06
-3.32588e-18
3.78616e-06
-3.33014e-18
1.88345e-06
-3.32884e-18
-4.67113e-07
3.33423e-18
-3.26645e-06
-3.32309e-18
-4.31899e-06
-3.66522e-23
-2.79138e-06
-1.42001e-23
-6.7625e-07
-3.35917e-18
1.39084e-06
0
3.5181e-06
0
3.95945e-06
-3.30588e-18
2.08486e-06
3.33933e-18
8.30709e-07
7.15313e-24
8.22779e-07
3.33348e-18
8.51348e-07
3.33388e-18
8.64333e-07
6.64014e-18
8.61881e-07
3.34761e-18
8.60463e-07
-3.30926e-18
8.5076e-07
-3.34348e-18
8.42064e-07
0
8.42943e-07
0
8.44363e-07
-3.31075e-18
8.4238e-07
3.34746e-18
8.40109e-07
1.43424e-23
8.38795e-07
3.35133e-18
8.38147e-07
-3.31066e-18
8.35649e-07
-1.73213e-23
8.32243e-07
3.31476e-18
8.25843e-07
-3.33934e-18
8.17391e-07
-1.09434e-23
8.13372e-07
-3.32465e-18
8.17555e-07
3.34338e-18
8.24314e-07
0
8.2009e-07
0
8.16874e-07
-1.02972e-23
8.26136e-07
-3.34309e-18
8.27808e-07
-3.32494e-18
8.16013e-07
0
8.01321e-07
3.32592e-18
7.84261e-07
-3.34614e-18
7.64151e-07
3.32777e-18
7.3794e-07
-1.40662e-23
7.01405e-07
0
6.48339e-07
0
5.56824e-07
3.33323e-18
3.54241e-07
0
1.06023e-07
0
5.45533e-10
-3.33039e-18
-1.81607e-11
3.6358e-12
0
0
0
0
0
0
0
0
0
0
0
0
0
0
0
0
0
0
0
0
0
0
0
0
0
0
0
0
0
0
0
0
0
0
0
0
0
0
0
0
0
0
0
0
0
0
0
0
0
0
0
0
0
0
0
0
0
0
0
0
0
0
0
0
0
0
0
0
0
0
0
0
0
0
0
0
0
0
0
0
0
0
0
0
0
0
0
0
0
0
0
0
0
0
0
0
0
0
0
0
-8.32667e-19
-1.15648e-19
-8.32667e-19
-1.15648e-19
0
-1.73472e-19
-8.32667e-19
-1.73472e-19
0
-1.15648e-19
0
-2.89121e-19
-1.28395e-33
-4.04769e-19
0
-5.20417e-19
-1.54074e-33
-5.78241e-19
0
-8.09538e-19
2.56791e-33
-1.09866e-18
0
-1.38778e-18
-1.66533e-18
-1.9082e-18
8.32667e-19
-2.31296e-18
8.32667e-19
-3.06468e-18
9.50125e-33
-3.98986e-18
-1.25827e-32
-5.20417e-18
-8.32667e-19
-6.64977e-18
-2.05433e-32
-8.55797e-18
8.32667e-19
-1.11601e-17
8.32667e-19
-1.45139e-17
8.32667e-19
-1.86194e-17
-1.66533e-18
-2.38235e-17
-1.45857e-31
-3.06468e-17
9.34718e-32
-3.93782e-17
0
-5.04226e-17
-8.32667e-19
-6.48208e-17
-8.32667e-19
-8.30354e-17
-8.32667e-19
-1.06512e-16
8.32667e-19
-1.36696e-16
0
-1.75554e-16
0
-2.25861e-16
0
-2.91434e-16
0
-3.77302e-16
0
-4.89655e-16
0
-6.40518e-16
1.66533e-18
-8.40705e-16
0
-1.10247e-15
0
-1.59595e-15
0
-1.41033e-15
0
-5.72962e-15
0
7.75514e-15
0
-4.51522e-14
1.66531e-18
1.0235e-13
0
-2.98876e-13
0
9.1695e-13
-1.66504e-18
-6.97774e-12
1.66623e-18
7.9323e-11
0
-8.97431e-10
-1.66619e-18
-9.69154e-08
1.68736e-18
-3.23075e-07
0
-5.15693e-07
0
-6.11134e-07
0
-6.71722e-07
0
-7.12399e-07
-2.05353e-23
-7.46649e-07
-1.35496e-23
-7.71752e-07
6.05064e-23
-7.86263e-07
0
-4.31387e-07
1.66717e-18
-7.0931e-07
-1.66886e-18
-2.75631e-06
0
-3.54949e-06
3.97625e-23
-2.04711e-06
0
-4.18626e-08
0
2.73966e-06
9.19974e-23
3.76876e-06
-1.0585e-22
2.01701e-06
1.10859e-22
8.64179e-07
3.32804e-18
-1.79838e-07
-2.41587e-22
-2.63952e-06
-2.00842e-22
-4.06576e-06
0
-2.75863e-06
0
7.41885e-07
0
3.96673e-06
8.94991e-24
3.72454e-06
0
1.67912e-06
4.95614e-18
8.43258e-07
0
-6.18237e-07
-1.65255e-18
-3.26635e-06
0
-3.26864e-06
-1.67705e-18
-1.44953e-06
1.65238e-18
1.69134e-07
-3.98492e-22
2.96176e-06
0
3.93145e-06
0
1.99457e-06
6.04659e-23
-1.04785e-07
-3.1729e-22
-2.84271e-06
1.67565e-18
-4.43197e-06
1.65021e-18
-2.65005e-06
-1.67534e-18
6.26814e-07
-1.65561e-18
3.65311e-06
1.67105e-18
4.10488e-06
-1.66569e-18
2.05417e-06
-3.32599e-18
8.67517e-07
-1.66419e-18
-6.726e-07
3.31001e-18
-4.16179e-06
0
-5.10768e-06
1.65149e-18
-2.21704e-06
1.6716e-18
-2.87733e-07
0
8.04533e-07
1.66692e-18
3.63005e-06
1.49671e-22
4.59171e-06
0
2.29737e-06
0
-6.0558e-07
3.84758e-22
-3.64031e-06
1.67051e-18
-4.20563e-06
1.66205e-18
-2.1549e-06
-3.33292e-18
-1.2995e-06
2.93082e-23
-1.93479e-10
0
3.51703e-06
0
4.65936e-06
0
2.31327e-06
-3.33523e-18
-3.94706e-07
0
-3.48995e-06
0
-4.74508e-06
0
-2.88338e-06
3.33327e-18
8.99923e-08
-3.32153e-18
3.89597e-06
-3.31924e-18
5.00531e-06
3.32985e-18
2.4533e-06
0
-4.38957e-07
0
-3.52188e-06
0
-4.58179e-06
3.3326e-18
-2.70947e-06
-4.53865e-23
4.66664e-08
0
3.56841e-06
3.31216e-18
4.61922e-06
2.61373e-22
2.33471e-06
0
9.12155e-07
3.32007e-18
-4.68054e-07
0
-3.48839e-06
0
-4.29095e-06
-3.3466e-18
-2.40751e-06
0
-1.57873e-06
0
1.48373e-07
0
4.10261e-06
3.31377e-18
4.97252e-06
0
2.35376e-06
0
9.0555e-07
3.33977e-18
8.66614e-07
0
-5.11655e-07
-3.32109e-18
-3.44138e-06
3.32988e-18
-4.14984e-06
0
-2.32852e-06
0
-3.44713e-08
3.33265e-18
3.3475e-06
3.31776e-18
4.53034e-06
3.32201e-18
2.26204e-06
3.34409e-18
-4.7548e-07
-6.63387e-18
-3.60395e-06
0
-4.70817e-06
-3.31811e-18
-2.69147e-06
3.33018e-18
2.20856e-07
-6.64262e-18
3.6874e-06
-3.34111e-18
4.61573e-06
0
2.31436e-06
3.42023e-22
9.12275e-07
0
-5.6658e-07
0
-3.6248e-06
0
-4.17688e-06
-3.31465e-18
-1.80988e-06
0
-7.75547e-07
0
-1.26092e-06
-3.32989e-18
1.79096e-07
3.3276e-18
3.78997e-06
-1.98874e-22
4.67862e-06
3.34421e-18
2.26582e-06
-3.30627e-18
8.76118e-07
-2.61651e-23
-5.68372e-07
3.31523e-18
-3.67798e-06
-3.33436e-18
-4.61182e-06
0
-2.48397e-06
3.32051e-18
-6.41292e-07
-3.34408e-18
8.61196e-07
3.31305e-18
3.32452e-06
3.34813e-18
4.1053e-06
3.30706e-18
2.16464e-06
3.3559e-18
8.55763e-07
-3.30643e-18
-4.23551e-07
0
-3.36509e-06
3.32456e-18
-3.90167e-06
3.32823e-18
-1.34919e-06
0
6.39978e-07
0
2.71278e-06
6.70508e-18
3.72125e-06
-3.30903e-18
2.05365e-06
3.35461e-18
-5.62567e-07
0
-3.84327e-06
-3.34608e-18
-4.80873e-06
-3.31313e-18
-2.50431e-06
0
-1.01315e-06
-2.31421e-22
-5.8081e-07
3.32036e-18
1.32359e-06
6.69892e-18
3.94546e-06
0
3.90601e-06
3.36138e-18
1.80392e-06
3.72015e-23
-4.22137e-07
-3.35616e-18
-3.39186e-06
-4.05403e-22
-4.12334e-06
0
-4.97696e-07
3.33155e-18
3.36266e-06
1.33488e-22
3.7556e-06
9.29738e-23
1.87389e-06
-3.63502e-23
-4.69504e-07
0
-3.23886e-06
3.32247e-18
-4.28118e-06
7.23807e-23
-2.77657e-06
3.29745e-18
-6.73702e-07
-3.37059e-18
1.38791e-06
3.29343e-18
3.49402e-06
-3.20806e-22
3.92424e-06
0
2.07803e-06
-3.34379e-18
8.35893e-07
2.41257e-23
8.20234e-07
0
8.4841e-07
-3.33679e-18
8.6095e-07
0
8.58599e-07
3.35479e-18
8.56523e-07
3.30253e-18
8.46857e-07
3.34921e-18
8.38828e-07
-3.30375e-18
8.40059e-07
3.53865e-23
8.4144e-07
-3.56232e-23
8.39382e-07
3.35456e-18
8.37071e-07
-3.30629e-18
8.35604e-07
0
8.34769e-07
-6.60839e-18
8.32122e-07
-3.35979e-18
8.28343e-07
0
8.21623e-07
-3.34319e-18
8.13438e-07
3.31455e-18
8.103e-07
3.14199e-23
8.14983e-07
3.34839e-18
8.21623e-07
0
8.17925e-07
0
8.14921e-07
-3.32981e-18
8.23517e-07
3.324e-23
8.24938e-07
-3.32293e-18
8.13057e-07
3.34699e-18
7.98159e-07
-3.32387e-18
7.81098e-07
-6.7018e-18
7.61027e-07
-3.32576e-18
7.34877e-07
-3.3604e-18
6.98401e-07
3.32786e-18
6.45383e-07
-5.64063e-23
5.53e-07
-2.48975e-23
3.50808e-07
-3.28669e-18
1.05502e-07
0
9.69482e-10
-3.33015e-18
-1.2134e-10
6.55149e-12
0
0
0
0
0
0
0
0
0
0
0
0
0
0
0
0
0
0
0
0
0
0
0
0
0
0
0
0
0
0
0
0
0
0
0
0
0
0
0
0
0
0
0
0
0
0
0
0
0
0
0
0
0
0
0
0
0
0
0
0
0
0
0
0
0
0
0
0
0
0
0
0
0
0
0
0
0
0
0
0
0
0
0
0
0
0
0
0
0
0
0
0
0
0
5.13581e-34
-5.78241e-20
0
-1.15648e-19
-8.32667e-19
-2.31296e-19
8.32667e-19
-1.15648e-19
0
-1.73472e-19
8.32667e-19
-4.04769e-19
-1.02716e-33
-5.20417e-19
-8.32667e-19
-6.93889e-19
8.32667e-19
-7.51714e-19
-1.54074e-33
-1.04083e-18
0
-1.27213e-18
0
-1.50343e-18
1.66533e-18
-2.02384e-18
0
-2.60209e-18
-8.32667e-19
-3.29597e-18
0
-4.45246e-18
-1.12988e-32
-5.66676e-18
8.32667e-19
-7.40149e-18
0
-9.54098e-18
0
-1.249e-17
3.13285e-32
-1.60173e-17
1.66533e-18
-2.07589e-17
8.32667e-19
-2.67147e-17
-8.32667e-19
-3.45788e-17
0
-4.45824e-17
1.11447e-31
-5.73615e-17
1.42776e-31
-7.36679e-17
0
-9.45424e-17
0
-1.21315e-16
8.32667e-19
-1.55547e-16
3.86727e-31
-1.9932e-16
0
-2.55525e-16
0
-3.27978e-16
1.66533e-18
-4.21307e-16
0
-5.42101e-16
0
-6.99151e-16
1.66533e-18
-9.05121e-16
0
-1.17481e-15
0
-1.54009e-15
0
-1.99736e-15
0
-2.76879e-15
0
-3.1598e-15
0
-6.61635e-15
0
1.96024e-17
0
-3.18167e-14
0
4.29357e-14
0
-8.4267e-14
0
-4.37349e-13
1.66519e-18
3.81726e-12
0
-2.60469e-11
1.66582e-18
1.81253e-10
0
-1.40467e-09
-1.66385e-18
-9.64052e-08
-3.6342e-23
-3.18865e-07
1.6707e-18
-5.09788e-07
1.6727e-18
-6.0525e-07
-1.67051e-18
-6.65304e-07
0
-7.05753e-07
-4.56321e-23
-7.3952e-07
0
-7.65226e-07
9.77866e-23
-7.75333e-07
1.66264e-18
-4.30865e-07
-1.74176e-23
-7.18517e-07
1.66995e-18
-2.72071e-06
1.66283e-18
-3.50113e-06
-1.66977e-18
-2.02726e-06
1.6621e-18
-2.6408e-08
0
2.70734e-06
-1.65917e-18
3.71385e-06
-3.36829e-18
2.00799e-06
-1.92648e-22
8.54585e-07
0
-1.96393e-07
0
-2.61013e-06
3.35257e-18
-4.01055e-06
-1.65691e-18
-2.71359e-06
1.65682e-18
7.43001e-07
-4.78443e-22
3.90793e-06
-1.64844e-18
3.67775e-06
0
1.67541e-06
-1.65103e-18
8.26125e-07
1.6792e-18
-6.3222e-07
3.30382e-18
-3.22064e-06
-3.33029e-18
-3.22829e-06
1.6806e-18
-1.43609e-06
-1.65163e-18
1.92418e-07
0
2.92736e-06
1.64675e-18
3.87178e-06
0
1.97747e-06
-1.65944e-18
-1.16249e-07
-4.27392e-22
-2.81594e-06
-1.67869e-18
-4.36311e-06
-1.05868e-22
-2.60833e-06
-1.67845e-18
6.28282e-07
4.74904e-22
3.60554e-06
1.67396e-18
4.04684e-06
-1.66769e-18
2.03865e-06
0
8.46146e-07
-1.6653e-18
-6.98496e-07
-6.14769e-22
-4.11197e-06
1.67698e-18
-5.02866e-06
-3.30077e-18
-2.19902e-06
1.67407e-18
-2.80468e-07
-1.6598e-18
8.24917e-07
1.66891e-18
3.58595e-06
-1.67493e-18
4.52271e-06
-3.30732e-18
2.26714e-06
-1.6677e-18
-6.15766e-07
0
-3.59565e-06
0
-4.14569e-06
-1.66291e-18
-2.14416e-06
1.66885e-18
-1.27745e-06
0
2.84675e-08
0
3.46968e-06
0
4.58944e-06
0
2.28832e-06
3.33898e-18
-4.06493e-07
0
-3.45214e-06
0
-4.67844e-06
0
-2.84663e-06
0
1.10481e-07
-1.27366e-21
3.84825e-06
0
4.93028e-06
-1.13161e-22
2.42727e-06
0
-4.47229e-07
0
-3.4806e-06
3.33124e-18
-4.51756e-06
0
-2.67644e-06
3.32348e-18
6.55384e-08
0
3.52441e-06
0
4.55043e-06
-3.3476e-18
2.32354e-06
0
8.99648e-07
0
-4.8798e-07
0
-3.44186e-06
0
-4.22991e-06
3.35201e-18
-2.39736e-06
-3.31761e-18
-1.55263e-06
0
1.76124e-07
0
4.04326e-06
3.31315e-18
4.90011e-06
1.55214e-22
2.34362e-06
0
9.0544e-07
6.68825e-18
8.46331e-07
0
-5.22153e-07
-3.32251e-18
-3.39565e-06
3.33231e-18
-4.09341e-06
-3.34079e-18
-2.30182e-06
-3.32703e-18
-1.37237e-08
0
3.30569e-06
-3.31735e-18
4.46147e-06
0
2.23796e-06
-3.34908e-18
-4.85542e-07
-1.04997e-21
-3.5648e-06
0
-4.64253e-06
0
-2.65714e-06
0
2.37672e-07
-3.32161e-18
3.64313e-06
0
4.54745e-06
0
2.2993e-06
0
8.96253e-07
-3.34464e-18
-5.86564e-07
3.30302e-18
-3.5785e-06
0
-4.11585e-06
0
-1.80055e-06
-1.43294e-22
-7.76087e-07
5.33807e-22
-1.23233e-06
-3.33195e-18
2.00299e-07
0
3.73859e-06
-3.3103e-18
4.61129e-06
0
2.25453e-06
-3.30388e-18
8.60538e-07
-3.36333e-18
-5.87208e-07
0
-3.63047e-06
3.33852e-18
-4.54453e-06
-2.85703e-24
-2.46133e-06
0
-6.31479e-07
3.34816e-18
8.70697e-07
6.62385e-18
3.28613e-06
3.35284e-18
4.04538e-06
3.30509e-18
2.14771e-06
0
8.40082e-07
-3.30402e-18
-4.45445e-07
0
-3.31765e-06
-3.32477e-18
-3.83936e-06
6.65882e-18
-1.34024e-06
0
6.4814e-07
0
2.69058e-06
3.35887e-18
3.66586e-06
3.30747e-18
2.02249e-06
3.36168e-18
-5.80156e-07
1.08114e-21
-3.80458e-06
-5.34597e-22
-4.74051e-06
0
-2.48386e-06
-6.65859e-18
-1.00528e-06
-3.32706e-18
-5.57722e-07
3.32002e-18
1.32244e-06
0
3.89089e-06
0
3.85752e-06
-2.2319e-22
1.78632e-06
1.14507e-22
-4.36395e-07
-3.36083e-18
-3.34911e-06
3.30017e-18
-4.04389e-06
0
-4.82128e-07
3.33298e-18
3.31127e-06
3.32797e-18
3.70792e-06
0
1.853e-06
-3.33258e-18
-4.77577e-07
0
-3.20397e-06
0
-4.22331e-06
3.34416e-18
-2.74196e-06
0
-6.61151e-07
-3.37936e-18
1.38344e-06
-3.28939e-18
3.45549e-06
-3.37847e-18
3.86992e-06
-3.29334e-18
2.05906e-06
-6.6946e-18
8.31597e-07
3.30936e-18
8.10132e-07
-6.67696e-18
8.42183e-07
3.33949e-18
8.54724e-07
3.31717e-18
8.51107e-07
-3.3605e-18
8.47942e-07
-6.59677e-18
8.37616e-07
-3.35354e-18
8.2999e-07
0
8.32784e-07
6.73749e-18
8.3554e-07
-3.30166e-18
8.33167e-07
8.96306e-23
8.29721e-07
3.30309e-18
8.27918e-07
-6.73055e-18
8.27169e-07
3.30032e-18
8.24165e-07
0
8.19659e-07
-9.91967e-18
8.12258e-07
6.69249e-18
8.03931e-07
-3.31222e-18
8.01665e-07
3.32248e-18
8.08475e-07
0
8.16869e-07
0
8.12735e-07
-3.34754e-18
8.09621e-07
-6.65726e-23
8.18282e-07
0
8.18878e-07
3.3219e-18
8.06081e-07
-3.34996e-18
7.90781e-07
0
7.73782e-07
-3.3545e-18
7.53863e-07
3.32514e-18
7.27909e-07
-3.36526e-18
6.91685e-07
3.32739e-18
6.39007e-07
-3.41181e-18
5.46029e-07
-3.31531e-18
3.4504e-07
0
1.04098e-07
3.33165e-18
1.39292e-09
-6.65972e-18
-1.98371e-10
2.84744e-11
0
0
0
0
0
0
0
0
0
0
0
0
0
0
0
0
0
0
0
0
0
0
0
0
0
0
0
0
0
0
0
0
0
0
0
0
0
0
0
0
0
0
0
0
0
0
0
0
0
0
0
0
0
0
0
0
0
0
0
0
0
0
0
0
0
0
0
0
0
0
0
0
0
0
0
0
0
0
0
0
0
0
0
0
0
0
0
0
-8.32667e-19
-1.73472e-19
-8.32667e-19
-1.73472e-19
-8.32667e-19
-1.15648e-19
0
-1.73472e-19
-8.32667e-19
-2.31296e-19
1.66533e-18
-3.46945e-19
8.32667e-19
-4.62593e-19
0
-5.20417e-19
-8.32667e-19
-7.51714e-19
0
-8.09538e-19
0
-1.04083e-18
-8.32667e-19
-1.38778e-18
0
-1.85037e-18
8.32667e-19
-2.42861e-18
-1.66533e-18
-3.00685e-18
8.32667e-19
-3.93204e-18
8.2173e-33
-5.08852e-18
8.32667e-19
-6.59195e-18
0
-8.67362e-18
8.32667e-19
-1.11601e-17
0
-1.4456e-17
-8.32667e-19
-1.86772e-17
8.32667e-19
-2.4344e-17
8.32667e-19
-3.15141e-17
-8.32667e-19
-4.07082e-17
1.66533e-18
-5.25621e-17
8.32667e-19
-6.77699e-17
1.66533e-18
-8.74301e-17
-8.32667e-19
-1.12468e-16
-8.32667e-19
-1.44618e-16
-3.03013e-31
-1.85615e-16
-1.66533e-18
-2.3812e-16
-2.498e-18
-3.05254e-16
8.32667e-19
-3.91527e-16
8.32667e-19
-5.02145e-16
0
-6.44218e-16
0
-8.27232e-16
0
-1.06448e-15
-1.66533e-18
-1.37367e-15
0
-1.7767e-15
0
-2.31175e-15
-1.66533e-18
-3.00396e-15
1.66533e-18
-4.01132e-15
-1.66533e-18
-5.0455e-15
-1.66532e-18
-7.8927e-15
1.66532e-18
-5.95878e-15
0
-2.76503e-14
0
3.71079e-14
0
-2.27343e-13
-1.66525e-18
6.15769e-13
0
-2.12607e-12
-1.66509e-18
7.13595e-12
1.66467e-18
-3.61862e-11
1.66503e-18
2.3011e-10
-4.55011e-24
-1.72382e-09
0
-9.49436e-08
3.38458e-18
-3.13201e-07
0
-5.02464e-07
0
-5.98119e-07
0
-6.57725e-07
0
-6.98001e-07
1.67098e-18
-7.31305e-07
0
-7.57331e-07
8.72561e-23
-7.64486e-07
-9.78082e-23
-4.31756e-07
-1.66857e-18
-7.24036e-07
1.6717e-18
-2.67259e-06
-1.66359e-18
-3.43818e-06
-1.67107e-18
-2.00324e-06
-3.32541e-18
-2.15546e-08
0
2.656e-06
-1.65981e-18
3.64154e-06
-9.563e-23
1.9935e-06
1.65224e-18
8.52463e-07
1.66567e-18
-1.99942e-07
1.66869e-18
-2.56489e-06
-3.86627e-22
-3.93931e-06
-1.65692e-18
-2.66553e-06
3.31381e-18
7.28361e-07
0
3.82758e-06
0
3.61584e-06
1.68332e-18
1.66835e-06
1.6933e-22
8.16386e-07
1.73436e-22
-6.31873e-07
0
-3.15625e-06
-1.66647e-18
-3.17441e-06
-1.14416e-22
-1.42229e-06
1.65155e-18
2.03672e-07
-1.68409e-18
2.87336e-06
-2.62268e-22
3.79403e-06
1.33811e-23
1.95645e-06
-1.66048e-18
-1.11141e-07
1.66412e-18
-2.76253e-06
-1.68149e-18
-4.2785e-06
6.41778e-23
-2.57044e-06
0
6.14146e-07
-1.65651e-18
3.53733e-06
2.90317e-22
3.97096e-06
3.51334e-23
2.0171e-06
-1.6657e-18
8.30817e-07
0
-7.07007e-07
-1.65442e-18
-4.03598e-06
0
-4.92909e-06
-1.51356e-22
-2.17844e-06
1.15828e-22
-2.83468e-07
0
8.29961e-07
-5.01116e-18
3.52022e-06
-1.67708e-18
4.43288e-06
-1.65356e-18
2.235e-06
3.33792e-18
-6.05438e-07
0
-3.52368e-06
1.67517e-18
-4.06699e-06
-3.32843e-18
-2.12898e-06
2.49125e-22
-1.2616e-06
-3.33362e-18
4.28586e-08
0
3.39981e-06
0
4.49938e-06
0
2.26053e-06
0
-4.03379e-07
-3.33346e-18
-3.39067e-06
-3.34333e-18
-4.58887e-06
0
-2.80323e-06
3.33955e-18
1.14683e-07
0
3.7721e-06
0
4.8312e-06
0
2.39711e-06
0
-4.39111e-07
3.3392e-18
-3.41425e-06
0
-4.43109e-06
0
-2.63767e-06
-1.58854e-22
6.91957e-08
0
3.45518e-06
6.45432e-22
4.46066e-06
2.30593e-22
2.30603e-06
-3.33421e-18
8.94599e-07
-3.32357e-18
-4.93185e-07
3.36062e-18
-3.37571e-06
0
-4.15104e-06
3.35667e-18
-2.38092e-06
0
-1.53239e-06
0
1.87522e-07
0
3.95941e-06
3.31327e-18
4.8079e-06
0
2.33103e-06
0
9.13358e-07
3.34841e-18
8.3209e-07
-3.33885e-18
-5.20505e-07
-3.32335e-18
-3.3275e-06
-3.33373e-18
-4.02354e-06
-3.34373e-18
-2.27959e-06
-3.32911e-18
-8.14967e-09
0
3.24204e-06
-3.31826e-18
4.3733e-06
0
2.21073e-06
0
-4.81062e-07
0
-3.50123e-06
3.34597e-18
-4.55368e-06
-3.31842e-18
-2.61625e-06
0
2.39704e-07
3.32442e-18
3.57335e-06
3.34954e-18
4.45815e-06
0
2.27816e-06
0
8.86218e-07
0
-5.9114e-07
3.30248e-18
-3.50901e-06
0
-4.03718e-06
0
-1.78875e-06
0
-7.82145e-07
0
-1.21009e-06
2.50864e-22
2.08801e-07
3.33107e-18
3.66624e-06
3.30876e-18
4.52612e-06
0
2.24011e-06
-3.3023e-18
8.52932e-07
-2.5005e-22
-5.93244e-07
-3.31573e-18
-3.5624e-06
-6.68032e-18
-4.45668e-06
-6.66227e-18
-2.4328e-06
3.32147e-18
-6.29824e-07
-3.35078e-18
8.65511e-07
-1.16882e-21
3.22813e-06
-3.35624e-18
3.96794e-06
0
2.12569e-06
0
8.30896e-07
-2.0111e-22
-4.52213e-07
0
-3.24874e-06
4.40218e-22
-3.76035e-06
-3.33086e-18
-1.32988e-06
3.35039e-18
6.43934e-07
1.08887e-21
2.64863e-06
0
3.5911e-06
-1.91002e-22
1.98564e-06
3.36696e-18
-5.84216e-07
6.61731e-18
-3.74055e-06
-7.32805e-22
-4.64954e-06
3.31054e-18
-2.45719e-06
-6.65914e-18
-1.00375e-06
-3.32655e-18
-5.44136e-07
-3.32026e-18
1.3076e-06
-3.35807e-18
3.81901e-06
0
3.79476e-06
-1.09386e-22
1.76819e-06
-2.35245e-22
-4.31081e-07
1.44866e-21
-3.27802e-06
3.297e-18
-3.95188e-06
-6.56152e-22
-4.78982e-07
3.33576e-18
3.23743e-06
-3.32888e-18
3.6429e-06
0
1.82854e-06
-2.87428e-22
-4.7102e-07
-6.68601e-18
-3.14352e-06
0
-4.14865e-06
0
-2.70849e-06
3.29002e-18
-6.57979e-07
3.06298e-22
1.36655e-06
3.28649e-18
3.39946e-06
-6.58947e-22
3.799e-06
3.29042e-18
2.03652e-06
0
8.35251e-07
-3.30786e-18
8.06605e-07
-6.68067e-18
8.36666e-07
3.34174e-18
8.47082e-07
0
8.41846e-07
-3.36397e-18
8.37372e-07
3.2958e-18
8.27529e-07
-3.35578e-18
8.21622e-07
-8.82405e-23
8.25452e-07
6.74627e-18
8.28067e-07
0
8.25252e-07
3.36343e-18
8.21422e-07
0
8.19258e-07
0
8.18278e-07
-1.21428e-22
8.14675e-07
-6.73735e-18
8.09059e-07
3.30431e-18
8.00994e-07
-3.34768e-18
7.9378e-07
-7.6364e-23
7.94081e-07
-3.32173e-18
8.01753e-07
3.35382e-18
8.10546e-07
3.29979e-18
8.0734e-07
-3.34871e-18
8.03753e-07
3.33109e-18
8.11347e-07
9.10689e-23
8.11396e-07
-1.00331e-22
7.98e-07
9.81314e-23
7.82402e-07
0
7.65548e-07
6.71287e-18
7.4586e-07
-9.0515e-23
7.20176e-07
6.73639e-18
6.84327e-07
0
6.32178e-07
0
5.39194e-07
3.30801e-18
3.40067e-07
1.89237e-23
1.03466e-07
3.33001e-18
2.16924e-09
-5.76654e-25
-1.96684e-10
5.28214e-11
0
0
0
0
0
0
0
0
0
0
0
0
0
0
0
0
0
0
0
0
0
0
0
0
0
0
0
0
0
0
0
0
0
0
0
0
0
0
0
0
0
0
0
0
0
0
0
0
0
0
0
0
0
0
0
0
0
0
0
0
0
0
0
0
0
0
0
0
0
0
0
0
0
0
0
0
0
0
0
0
0
0
0
0
0
0
0
0
0
0
8.32667e-19
-1.15648e-19
0
-2.31296e-19
5.13581e-34
-2.31296e-19
0
-3.46945e-19
8.32667e-19
-4.62593e-19
8.32667e-19
-8.09538e-19
1.66533e-18
-8.09538e-19
2.05433e-33
-1.15648e-18
-8.32667e-19
-1.61908e-18
0
-1.96602e-18
3.59507e-33
-2.54426e-18
0
-3.1225e-18
0
-4.04769e-18
-1.43803e-32
-5.20417e-18
0
-6.7076e-18
-8.32667e-19
-8.90491e-18
8.32667e-19
-1.15648e-17
0
-1.51499e-17
-8.32667e-19
-1.93133e-17
8.32667e-19
-2.50957e-17
-8.32667e-19
-3.26128e-17
8.32667e-19
-4.2096e-17
-8.32667e-19
-5.4586e-17
0
-7.07767e-17
0
-9.12465e-17
1.65887e-31
-1.17614e-16
-2.14163e-31
-1.51615e-16
-8.32667e-19
-1.94983e-16
0
-2.50494e-16
-8.32667e-19
-3.21502e-16
0
-4.12517e-16
-8.32667e-19
-5.29206e-16
8.32667e-19
-6.78393e-16
1.66533e-18
-8.69906e-16
0
-1.11601e-15
-1.66533e-18
-1.43369e-15
0
-1.8447e-15
0
-2.38004e-15
0
-3.07913e-15
0
-4.00432e-15
-1.66533e-18
-5.21354e-15
1.66532e-18
-6.91044e-15
0
-8.94874e-15
0
-1.26142e-14
0
-1.57016e-14
-1.6653e-18
-2.18203e-14
1.66528e-18
-5.31497e-14
0
8.15632e-14
0
-6.03612e-13
0
1.22879e-12
1.66496e-18
3.20262e-13
0
-3.28773e-11
-1.66393e-18
2.77671e-10
0
-2.05159e-09
0
-9.26733e-08
0
-3.04775e-07
-1.67302e-18
-4.90238e-07
0
-5.84497e-07
9.22484e-23
-6.42743e-07
-1.6713e-18
-6.82127e-07
-1.6719e-18
-7.147e-07
-1.66852e-18
-7.4053e-07
1.38082e-22
-7.44547e-07
-7.77188e-23
-4.26659e-07
0
-7.22612e-07
1.67252e-18