/*--------------------------------*- C++ -*----------------------------------*\
| =========                 |                                                 |
| \\      /  F ield         | foam-extend: Open Source CFD                    |
|  \\    /   O peration     | Version:     3.2                                |
|   \\  /    A nd           | Web:         http://www.foam-extend.org         |
|    \\/     M anipulation  | For copyright notice see file Copyright         |
\*---------------------------------------------------------------------------*/
FoamFile
{
    version     2.0;
    format      ascii;
    class       volVectorField;
    location    "160";
    object      meshCentreN;
}
// * * * * * * * * * * * * * * * * * * * * * * * * * * * * * * * * * * * * * //

dimensions      [0 1 0 0 0 0 0];

internalField   nonuniform List<vector> 
96000
(
(0.025 0.01 0.00140625)
(0.075 0.01 0.00140625)
(0.125 0.01 0.00140625)
(0.175 0.01 0.00140625)
(0.225 0.01 0.00140625)
(0.275 0.01 0.00140625)
(0.325 0.01 0.00140625)
(0.375 0.01 0.00140625)
(0.425 0.01 0.00140625)
(0.475 0.01 0.00140625)
(0.525 0.01 0.00140625)
(0.575 0.01 0.00140625)
(0.625 0.01 0.00140625)
(0.675 0.01 0.00140625)
(0.725 0.01 0.00140625)
(0.775 0.01 0.00140625)
(0.825 0.01 0.00140625)
(0.875 0.01 0.00140625)
(0.925 0.01 0.00140625)
(0.975 0.01 0.00140625)
(1.025 0.01 0.00140625)
(1.075 0.01 0.00140625)
(1.125 0.01 0.00140625)
(1.175 0.01 0.00140625)
(1.225 0.01 0.00140625)
(1.275 0.01 0.00140625)
(1.325 0.01 0.00140625)
(1.375 0.01 0.00140625)
(1.425 0.01 0.00140625)
(1.475 0.01 0.00140625)
(1.525 0.01 0.00140625)
(1.575 0.01 0.00140625)
(1.625 0.01 0.00140625)
(1.675 0.01 0.00140625)
(1.725 0.01 0.00140625)
(1.775 0.01 0.00140625)
(1.825 0.01 0.00140625)
(1.875 0.01 0.00140625)
(1.925 0.01 0.00140625)
(1.975 0.01 0.00140625)
(2.025 0.01 0.00140625)
(2.075 0.01 0.00140625)
(2.125 0.01 0.00140625)
(2.175 0.01 0.00140625)
(2.225 0.01 0.00140625)
(2.275 0.01 0.00140625)
(2.325 0.01 0.00140625)
(2.375 0.01 0.00140625)
(2.425 0.01 0.00140625)
(2.475 0.01 0.00140625)
(2.525 0.01 0.00140625)
(2.575 0.01 0.00140625)
(2.625 0.01 0.00140625)
(2.675 0.01 0.00140625)
(2.725 0.01 0.00140625)
(2.775 0.01 0.00140625)
(2.825 0.01 0.00140625)
(2.875 0.01 0.00140625)
(2.925 0.01 0.00140625)
(2.975 0.01 0.00140625)
(3.025 0.01 0.00140625)
(3.075 0.01 0.00140625)
(3.125 0.01 0.00140625)
(3.175 0.01 0.00140625)
(3.225 0.01 0.00140625)
(3.275 0.01 0.00140625)
(3.325 0.01 0.00140625)
(3.375 0.01 0.00140625)
(3.425 0.01 0.00140625)
(3.475 0.01 0.00140625)
(3.525 0.01 0.00140625)
(3.575 0.01 0.00140625)
(3.625 0.01 0.00140625)
(3.675 0.01 0.00140625)
(3.725 0.01 0.00140625)
(3.775 0.01 0.00140625)
(3.825 0.01 0.00140625)
(3.875 0.01 0.00140625)
(3.925 0.01 0.00140625)
(3.975 0.01 0.00140625)
(4.025 0.01 0.00140625)
(4.075 0.01 0.00140625)
(4.125 0.01 0.00140625)
(4.175 0.01 0.00140625)
(4.225 0.01 0.00140625)
(4.275 0.01 0.00140625)
(4.325 0.01 0.00140625)
(4.375 0.01 0.00140625)
(4.425 0.01 0.00140625)
(4.475 0.01 0.00140625)
(4.525 0.01 0.00140625)
(4.575 0.01 0.00140625)
(4.625 0.01 0.00140625)
(4.675 0.01 0.00140625)
(4.725 0.01 0.00140625)
(4.775 0.01 0.00140625)
(4.825 0.01 0.00140623)
(4.875 0.01 0.00140643)
(4.92498 0.01 0.00140373)
(4.97503 0.01 -0.000759256)
(5.02502 0.01 -0.00588267)
(5.07498 0.01 -0.0106433)
(5.125 0.01 -0.0141073)
(5.175 0.01 -0.017185)
(5.225 0.01 -0.0198497)
(5.275 0.01 -0.0222301)
(5.325 0.01 -0.0243095)
(5.375 0.01 -0.0262081)
(5.42499 0.01 -0.02783)
(5.475 0.01 -0.0294135)
(5.525 0.01 -0.0310974)
(5.57499 0.01 -0.0323362)
(5.62501 0.01 -0.0334107)
(5.67499 0.01 -0.0343275)
(5.725 0.01 -0.0351648)
(5.77499 0.01 -0.036117)
(5.82502 0.01 -0.0373719)
(5.87497 0.01 -0.0377804)
(5.92501 0.01 -0.0378254)
(5.975 0.01 -0.0388639)
(6.02501 0.01 -0.0398557)
(6.07498 0.01 -0.0399335)
(6.125 0.01 -0.0398527)
(6.17503 0.01 -0.0409484)
(6.22497 0.01 -0.041143)
(6.27503 0.01 -0.0409687)
(6.32497 0.01 -0.0408911)
(6.37502 0.01 -0.040742)
(6.42498 0.01 -0.0406371)
(6.47501 0.01 -0.0406178)
(6.52501 0.01 -0.0415753)
(6.57498 0.01 -0.0414583)
(6.62503 0.01 -0.0411462)
(6.67497 0.01 -0.0406625)
(6.72503 0.01 -0.0403906)
(6.77498 0.01 -0.0405691)
(6.825 0.01 -0.0403316)
(6.87501 0.01 -0.0406588)
(6.92497 0.01 -0.0402446)
(6.97502 0.01 -0.0400213)
(7.02498 0.01 -0.0399945)
(7.07501 0.01 -0.0396713)
(7.12499 0.01 -0.0393736)
(7.175 0.01 -0.0383477)
(7.225 0.01 -0.0372769)
(7.27499 0.01 -0.0363505)
(7.32502 0.01 -0.0361849)
(7.37498 0.01 -0.0359291)
(7.42502 0.01 -0.0358562)
(7.47499 0.01 -0.0361999)
(7.52501 0.01 -0.0363062)
(7.57501 0.01 -0.0364674)
(7.62498 0.01 -0.0356866)
(7.67501 0.01 -0.0350698)
(7.72499 0.01 -0.0351693)
(7.77501 0.01 -0.0356736)
(7.82499 0.01 -0.0361789)
(7.875 0.01 -0.0362876)
(7.925 0.01 -0.0362835)
(7.975 0.01 -0.0360079)
(8.025 0.01 -0.0358239)
(8.075 0.01 -0.0357938)
(8.12501 0.01 -0.036129)
(8.175 0.01 -0.0365269)
(8.225 0.01 -0.0366118)
(8.27499 0.01 -0.0363484)
(8.325 0.01 -0.0358883)
(8.37499 0.01 -0.0353517)
(8.425 0.01 -0.0348739)
(8.47501 0.01 -0.0350362)
(8.525 0.01 -0.0355132)
(8.575 0.01 -0.0359583)
(8.625 0.01 -0.0362569)
(8.675 0.01 -0.0363607)
(8.72499 0.01 -0.0362618)
(8.775 0.01 -0.0361885)
(8.82499 0.01 -0.0362175)
(8.87501 0.01 -0.0367927)
(8.92499 0.01 -0.0374384)
(8.975 0.01 -0.0374423)
(9.02501 0.01 -0.0376979)
(9.07498 0.01 -0.0374596)
(9.12502 0.01 -0.0370753)
(9.17499 0.01 -0.0366089)
(9.225 0.01 -0.0358379)
(9.275 0.01 -0.0356014)
(9.32499 0.01 -0.0354008)
(9.37501 0.01 -0.0357438)
(9.42499 0.01 -0.0362591)
(9.47501 0.01 -0.0368346)
(9.525 0.01 -0.0374409)
(9.57499 0.01 -0.0373653)
(9.625 0.01 -0.0373453)
(9.675 0.01 -0.0374848)
(9.72499 0.01 -0.0371183)
(9.775 0.01 -0.0364765)
(9.82499 0.01 -0.0358293)
(9.875 0.01 -0.0355749)
(9.92501 0.01 -0.0361232)
(9.97499 0.01 -0.0363009)
(10.025 0.01 -0.0362251)
(10.075 0.01 -0.0360951)
(10.125 0.01 -0.0358989)
(10.175 0.01 -0.0360518)
(10.225 0.01 -0.0364351)
(10.275 0.01 -0.0366015)
(10.325 0.01 -0.0364778)
(10.375 0.01 -0.0365238)
(10.425 0.01 -0.0360466)
(10.475 0.01 -0.0359908)
(10.525 0.01 -0.0362112)
(10.575 0.01 -0.0363125)
(10.625 0.01 -0.0361497)
(10.675 0.01 -0.0353607)
(10.725 0.01 -0.034707)
(10.775 0.01 -0.0340851)
(10.825 0.01 -0.0341899)
(10.875 0.01 -0.0343705)
(10.925 0.01 -0.0348407)
(10.975 0.01 -0.0351215)
(11.025 0.01 -0.0348578)
(11.075 0.01 -0.0349394)
(11.125 0.01 -0.0349157)
(11.175 0.01 -0.0353095)
(11.225 0.01 -0.0354141)
(11.275 0.01 -0.0354375)
(11.325 0.01 -0.0352339)
(11.375 0.01 -0.0351142)
(11.425 0.01 -0.0348217)
(11.475 0.01 -0.0344652)
(11.525 0.01 -0.0349736)
(11.575 0.01 -0.0355924)
(11.625 0.01 -0.0364369)
(11.675 0.01 -0.0366787)
(11.725 0.01 -0.0368218)
(11.775 0.01 -0.0365216)
(11.825 0.01 -0.036025)
(11.875 0.01 -0.0353407)
(11.925 0.01 -0.0345609)
(11.975 0.01 -0.034024)
(12.025 0.01 -0.0335092)
(12.075 0.01 -0.0336366)
(12.125 0.01 -0.0338476)
(12.175 0.01 -0.0344604)
(12.225 0.01 -0.0345761)
(12.275 0.01 -0.0344486)
(12.325 0.01 -0.0336924)
(12.375 0.01 -0.0333048)
(12.425 0.01 -0.0335055)
(12.475 0.01 -0.0337216)
(12.525 0.01 -0.0345559)
(12.575 0.01 -0.0348468)
(12.625 0.01 -0.0350923)
(12.675 0.01 -0.0353275)
(12.725 0.01 -0.0353455)
(12.775 0.01 -0.0349428)
(12.825 0.01 -0.0344461)
(12.875 0.01 -0.0337524)
(12.925 0.01 -0.0338966)
(12.975 0.01 -0.0337297)
(13.025 0.01 -0.033391)
(13.075 0.01 -0.032931)
(13.125 0.01 -0.0322011)
(13.175 0.01 -0.0322112)
(13.225 0.01 -0.0324134)
(13.275 0.01 -0.0330776)
(13.325 0.01 -0.0331661)
(13.375 0.01 -0.0333484)
(13.425 0.01 -0.0329383)
(13.475 0.01 -0.0326056)
(13.525 0.01 -0.0326241)
(13.575 0.01 -0.0329234)
(13.625 0.01 -0.0329968)
(13.675 0.01 -0.032812)
(13.725 0.01 -0.0326796)
(13.775 0.01 -0.0325248)
(13.825 0.01 -0.0321342)
(13.875 0.01 -0.0315715)
(13.925 0.01 -0.0308039)
(13.975 0.01 -0.0296689)
(14.025 0.01 -0.0288705)
(14.075 0.01 -0.0282741)
(14.125 0.01 -0.028625)
(14.175 0.01 -0.0284897)
(14.225 0.01 -0.0285349)
(14.275 0.01 -0.0289793)
(14.325 0.01 -0.0288574)
(14.375 0.01 -0.0280323)
(14.425 0.01 -0.0268473)
(14.475 0.01 -0.0253922)
(14.525 0.01 -0.0236629)
(14.575 0.01 -0.0215657)
(14.625 0.01 -0.019082)
(14.675 0.01 -0.0159801)
(14.725 0.01 -0.012256)
(14.775 0.01 -0.00682258)
(14.825 0.01 -0.000844168)
(14.875 0.01 0.00140368)
(14.925 0.01 0.00140643)
(14.975 0.01 0.00140623)
(0.025 0.01 0.00421875)
(0.075 0.01 0.00421875)
(0.125 0.01 0.00421875)
(0.175 0.01 0.00421875)
(0.225 0.01 0.00421875)
(0.275 0.01 0.00421875)
(0.325 0.01 0.00421875)
(0.375 0.01 0.00421875)
(0.425 0.01 0.00421875)
(0.475 0.01 0.00421875)
(0.525 0.01 0.00421875)
(0.575 0.01 0.00421875)
(0.625 0.01 0.00421875)
(0.675 0.01 0.00421875)
(0.725 0.01 0.00421875)
(0.775 0.01 0.00421875)
(0.825 0.01 0.00421875)
(0.875 0.01 0.00421875)
(0.925 0.01 0.00421875)
(0.975 0.01 0.00421875)
(1.025 0.01 0.00421875)
(1.075 0.01 0.00421875)
(1.125 0.01 0.00421875)
(1.175 0.01 0.00421875)
(1.225 0.01 0.00421875)
(1.275 0.01 0.00421875)
(1.325 0.01 0.00421875)
(1.375 0.01 0.00421875)
(1.425 0.01 0.00421875)
(1.475 0.01 0.00421875)
(1.525 0.01 0.00421875)
(1.575 0.01 0.00421875)
(1.625 0.01 0.00421875)
(1.675 0.01 0.00421875)
(1.725 0.01 0.00421875)
(1.775 0.01 0.00421875)
(1.825 0.01 0.00421875)
(1.875 0.01 0.00421875)
(1.925 0.01 0.00421875)
(1.975 0.01 0.00421875)
(2.025 0.01 0.00421875)
(2.075 0.01 0.00421875)
(2.125 0.01 0.00421875)
(2.175 0.01 0.00421875)
(2.225 0.01 0.00421875)
(2.275 0.01 0.00421875)
(2.325 0.01 0.00421875)
(2.375 0.01 0.00421875)
(2.425 0.01 0.00421875)
(2.475 0.01 0.00421875)
(2.525 0.01 0.00421875)
(2.575 0.01 0.00421875)
(2.625 0.01 0.00421875)
(2.675 0.01 0.00421875)
(2.725 0.01 0.00421875)
(2.775 0.01 0.00421875)
(2.825 0.01 0.00421875)
(2.875 0.01 0.00421875)
(2.925 0.01 0.00421875)
(2.975 0.01 0.00421875)
(3.025 0.01 0.00421875)
(3.075 0.01 0.00421875)
(3.125 0.01 0.00421875)
(3.175 0.01 0.00421875)
(3.225 0.01 0.00421875)
(3.275 0.01 0.00421875)
(3.325 0.01 0.00421875)
(3.375 0.01 0.00421875)
(3.425 0.01 0.00421875)
(3.475 0.01 0.00421875)
(3.525 0.01 0.00421875)
(3.575 0.01 0.00421875)
(3.625 0.01 0.00421875)
(3.675 0.01 0.00421875)
(3.725 0.01 0.00421875)
(3.775 0.01 0.00421875)
(3.825 0.01 0.00421875)
(3.875 0.01 0.00421875)
(3.925 0.01 0.00421875)
(3.975 0.01 0.00421875)
(4.025 0.01 0.00421875)
(4.075 0.01 0.00421875)
(4.125 0.01 0.00421875)
(4.175 0.01 0.00421875)
(4.225 0.01 0.00421875)
(4.275 0.01 0.00421875)
(4.325 0.01 0.00421875)
(4.375 0.01 0.00421875)
(4.425 0.01 0.00421875)
(4.475 0.01 0.00421875)
(4.525 0.01 0.00421875)
(4.575 0.01 0.00421875)
(4.625 0.01 0.00421874)
(4.675 0.01 0.00421874)
(4.725 0.01 0.00421874)
(4.775 0.01 0.00421873)
(4.825 0.01 0.00421864)
(4.875 0.01 0.00421941)
(4.92496 0.01 0.00420797)
(4.97505 0.01 0.00204735)
(5.02504 0.01 -0.00305483)
(5.07496 0.01 -0.00781329)
(5.125 0.01 -0.0112876)
(5.175 0.01 -0.0143656)
(5.225 0.01 -0.0170322)
(5.275 0.01 -0.0194132)
(5.325 0.01 -0.0214938)
(5.37501 0.01 -0.0233925)
(5.42499 0.01 -0.0250162)
(5.47501 0.01 -0.0266015)
(5.525 0.01 -0.0282832)
(5.57499 0.01 -0.0295247)
(5.62501 0.01 -0.0305998)
(5.67499 0.01 -0.031517)
(5.72501 0.01 -0.0323554)
(5.77499 0.01 -0.0333087)
(5.82504 0.01 -0.0345578)
(5.87495 0.01 -0.034969)
(5.92502 0.01 -0.0350215)
(5.975 0.01 -0.0360541)
(6.02501 0.01 -0.0370416)
(6.07497 0.01 -0.0371235)
(6.125 0.01 -0.0370499)
(6.17505 0.01 -0.0381341)
(6.22494 0.01 -0.0383324)
(6.27505 0.01 -0.0381606)
(6.32495 0.01 -0.0380821)
(6.37504 0.01 -0.0379336)
(6.42496 0.01 -0.0378286)
(6.47502 0.01 -0.0378147)
(6.52502 0.01 -0.0387605)
(6.57495 0.01 -0.0386494)
(6.62505 0.01 -0.0383365)
(6.67495 0.01 -0.037855)
(6.72505 0.01 -0.0375844)
(6.77497 0.01 -0.0377579)
(6.825 0.01 -0.0375266)
(6.87503 0.01 -0.037846)
(6.92495 0.01 -0.0374376)
(6.97505 0.01 -0.0372141)
(7.02496 0.01 -0.0371847)
(7.07503 0.01 -0.0368635)
(7.12499 0.01 -0.0365613)
(7.175 0.01 -0.0355391)
(7.225 0.01 -0.0344687)
(7.27498 0.01 -0.0335463)
(7.32504 0.01 -0.0333757)
(7.37496 0.01 -0.0331217)
(7.42504 0.01 -0.03305)
(7.47498 0.01 -0.03339)
(7.52501 0.01 -0.0334986)
(7.57501 0.01 -0.0336536)
(7.62497 0.01 -0.0328791)
(7.67502 0.01 -0.0322648)
(7.72498 0.01 -0.0323626)
(7.77502 0.01 -0.032865)
(7.82498 0.01 -0.0333682)
(7.87501 0.01 -0.0334788)
(7.925 0.01 -0.0334736)
(7.975 0.01 -0.0332)
(8.025 0.01 -0.033016)
(8.07499 0.01 -0.032987)
(8.12501 0.01 -0.0333207)
(8.17499 0.01 -0.0337167)
(8.22501 0.01 -0.0338016)
(8.27499 0.01 -0.0335389)
(8.32501 0.01 -0.0330791)
(8.37499 0.01 -0.0325431)
(8.425 0.01 -0.0320684)
(8.47501 0.01 -0.032229)
(8.525 0.01 -0.0327043)
(8.575 0.01 -0.0331489)
(8.625 0.01 -0.0334473)
(8.675 0.01 -0.0335511)
(8.72499 0.01 -0.0334535)
(8.77501 0.01 -0.0333804)
(8.82498 0.01 -0.0334116)
(8.87503 0.01 -0.0339844)
(8.92499 0.01 -0.034626)
(8.97499 0.01 -0.0346355)
(9.02503 0.01 -0.0348865)
(9.07497 0.01 -0.0346505)
(9.12503 0.01 -0.0342663)
(9.17497 0.01 -0.0337985)
(9.22501 0.01 -0.0330322)
(9.275 0.01 -0.0327926)
(9.32499 0.01 -0.0325948)
(9.37502 0.01 -0.0329356)
(9.42498 0.01 -0.0334502)
(9.47502 0.01 -0.034026)
(9.52499 0.01 -0.0346281)
(9.57499 0.01 -0.0345569)
(9.62501 0.01 -0.0345375)
(9.67501 0.01 -0.0346733)
(9.72499 0.01 -0.0343081)
(9.77501 0.01 -0.0336673)
(9.82499 0.01 -0.0330219)
(9.875 0.01 -0.0327699)
(9.92502 0.01 -0.033312)
(9.97497 0.01 -0.0334909)
(10.025 0.01 -0.0334163)
(10.075 0.01 -0.0332858)
(10.125 0.01 -0.0330917)
(10.175 0.01 -0.0332438)
(10.225 0.01 -0.0336246)
(10.275 0.01 -0.0337906)
(10.325 0.01 -0.0336697)
(10.375 0.01 -0.0337114)
(10.425 0.01 -0.0332398)
(10.475 0.01 -0.0331828)
(10.525 0.01 -0.0334012)
(10.575 0.01 -0.0335019)
(10.625 0.01 -0.0333368)
(10.675 0.01 -0.0325519)
(10.725 0.01 -0.0318972)
(10.775 0.01 -0.0312794)
(10.825 0.01 -0.0313804)
(10.875 0.01 -0.0315623)
(10.925 0.01 -0.03203)
(10.975 0.01 -0.0323086)
(11.025 0.01 -0.0320502)
(11.075 0.01 -0.0321289)
(11.125 0.01 -0.0321084)
(11.175 0.01 -0.0324982)
(11.225 0.01 -0.0326042)
(11.275 0.01 -0.0326265)
(11.325 0.01 -0.0324247)
(11.375 0.01 -0.0323032)
(11.425 0.01 -0.032011)
(11.475 0.01 -0.0316596)
(11.525 0.01 -0.0321635)
(11.575 0.01 -0.0327836)
(11.625 0.01 -0.0336237)
(11.675 0.01 -0.0338689)
(11.725 0.01 -0.0340099)
(11.775 0.01 -0.0337113)
(11.825 0.01 -0.033214)
(11.875 0.01 -0.0325303)
(11.925 0.01 -0.031752)
(11.975 0.01 -0.0312141)
(12.025 0.01 -0.0307029)
(12.075 0.01 -0.0308271)
(12.125 0.01 -0.0310401)
(12.175 0.01 -0.0316477)
(12.225 0.01 -0.0317653)
(12.275 0.01 -0.0316347)
(12.3249 0.01 -0.0308842)
(12.3751 0.01 -0.0304975)
(12.425 0.01 -0.0306949)
(12.475 0.01 -0.030915)
(12.525 0.01 -0.0317425)
(12.575 0.01 -0.0320367)
(12.625 0.01 -0.0322823)
(12.675 0.01 -0.0325166)
(12.725 0.01 -0.0325333)
(12.775 0.01 -0.0321325)
(12.825 0.01 -0.0316346)
(12.875 0.01 -0.030947)
(12.9251 0.01 -0.0310844)
(12.9749 0.01 -0.0309188)
(13.0251 0.01 -0.0305799)
(13.0749 0.01 -0.0301191)
(13.125 0.01 -0.0293947)
(13.175 0.01 -0.0294016)
(13.225 0.01 -0.0296056)
(13.275 0.01 -0.0302637)
(13.325 0.01 -0.0303566)
(13.375 0.01 -0.0305345)
(13.425 0.01 -0.0301283)
(13.475 0.01 -0.0297966)
(13.525 0.01 -0.0298149)
(13.5751 0.01 -0.0301114)
(13.6249 0.01 -0.0301844)
(13.675 0.01 -0.0300012)
(13.725 0.01 -0.0298685)
(13.775 0.01 -0.0297123)
(13.8249 0.01 -0.0293224)
(13.8751 0.01 -0.028759)
(13.925 0.01 -0.0279906)
(13.975 0.01 -0.0268589)
(14.025 0.01 -0.0260598)
(14.075 0.01 -0.0254679)
(14.125 0.01 -0.0258107)
(14.175 0.01 -0.0256791)
(14.225 0.01 -0.0257251)
(14.275 0.01 -0.026164)
(14.325 0.01 -0.0260413)
(14.375 0.01 -0.0252178)
(14.425 0.01 -0.0240323)
(14.475 0.01 -0.0225774)
(14.525 0.01 -0.0208461)
(14.575 0.01 -0.018749)
(14.625 0.01 -0.0162612)
(14.675 0.01 -0.0131599)
(14.7251 0.01 -0.00941979)
(14.7749 0.01 -0.00399035)
(14.825 0.01 0.00196215)
(14.875 0.01 0.00420773)
(14.925 0.01 0.00421943)
(14.975 0.01 0.00421865)
(0.025 0.01 0.00703125)
(0.075 0.01 0.00703125)
(0.125 0.01 0.00703125)
(0.175 0.01 0.00703125)
(0.225 0.01 0.00703125)
(0.275 0.01 0.00703125)
(0.325 0.01 0.00703125)
(0.375 0.01 0.00703125)
(0.425 0.01 0.00703125)
(0.475 0.01 0.00703125)
(0.525 0.01 0.00703125)
(0.575 0.01 0.00703125)
(0.625 0.01 0.00703125)
(0.675 0.01 0.00703125)
(0.725 0.01 0.00703125)
(0.775 0.01 0.00703125)
(0.825 0.01 0.00703125)
(0.875 0.01 0.00703125)
(0.925 0.01 0.00703125)
(0.975 0.01 0.00703125)
(1.025 0.01 0.00703125)
(1.075 0.01 0.00703125)
(1.125 0.01 0.00703125)
(1.175 0.01 0.00703125)
(1.225 0.01 0.00703125)
(1.275 0.01 0.00703125)
(1.325 0.01 0.00703125)
(1.375 0.01 0.00703125)
(1.425 0.01 0.00703125)
(1.475 0.01 0.00703125)
(1.525 0.01 0.00703125)
(1.575 0.01 0.00703125)
(1.625 0.01 0.00703125)
(1.675 0.01 0.00703125)
(1.725 0.01 0.00703125)
(1.775 0.01 0.00703125)
(1.825 0.01 0.00703125)
(1.875 0.01 0.00703125)
(1.925 0.01 0.00703125)
(1.975 0.01 0.00703125)
(2.025 0.01 0.00703125)
(2.075 0.01 0.00703125)
(2.125 0.01 0.00703125)
(2.175 0.01 0.00703125)
(2.225 0.01 0.00703125)
(2.275 0.01 0.00703125)
(2.325 0.01 0.00703125)
(2.375 0.01 0.00703125)
(2.425 0.01 0.00703125)
(2.475 0.01 0.00703125)
(2.525 0.01 0.00703125)
(2.575 0.01 0.00703125)
(2.625 0.01 0.00703125)
(2.675 0.01 0.00703125)
(2.725 0.01 0.00703125)
(2.775 0.01 0.00703125)
(2.825 0.01 0.00703125)
(2.875 0.01 0.00703125)
(2.925 0.01 0.00703125)
(2.975 0.01 0.00703125)
(3.025 0.01 0.00703125)
(3.075 0.01 0.00703125)
(3.125 0.01 0.00703125)
(3.175 0.01 0.00703125)
(3.225 0.01 0.00703125)
(3.275 0.01 0.00703125)
(3.325 0.01 0.00703125)
(3.375 0.01 0.00703125)
(3.425 0.01 0.00703125)
(3.475 0.01 0.00703125)
(3.525 0.01 0.00703125)
(3.575 0.01 0.00703125)
(3.625 0.01 0.00703125)
(3.675 0.01 0.00703125)
(3.725 0.01 0.00703125)
(3.775 0.01 0.00703125)
(3.825 0.01 0.00703125)
(3.875 0.01 0.00703125)
(3.925 0.01 0.00703125)
(3.975 0.01 0.00703125)
(4.025 0.01 0.00703125)
(4.075 0.01 0.00703125)
(4.125 0.01 0.00703125)
(4.175 0.01 0.00703125)
(4.225 0.01 0.00703125)
(4.275 0.01 0.00703125)
(4.325 0.01 0.00703125)
(4.375 0.01 0.00703125)
(4.425 0.01 0.00703124)
(4.475 0.01 0.00703124)
(4.525 0.01 0.00703124)
(4.575 0.01 0.00703124)
(4.625 0.01 0.00703123)
(4.675 0.01 0.00703122)
(4.725 0.01 0.0070312)
(4.775 0.01 0.00703117)
(4.825 0.01 0.00703091)
(4.875 0.01 0.00703246)
(4.92494 0.01 0.00700606)
(4.97506 0.01 0.00484555)
(5.02505 0.01 -0.000225369)
(5.07496 0.01 -0.00497956)
(5.125 0.01 -0.0084666)
(5.175 0.01 -0.0115447)
(5.225 0.01 -0.0142136)
(5.275 0.01 -0.0165951)
(5.32499 0.01 -0.0186773)
(5.37501 0.01 -0.0205757)
(5.42498 0.01 -0.0222019)
(5.47501 0.01 -0.0237895)
(5.525 0.01 -0.0254674)
(5.57498 0.01 -0.0267123)
(5.62501 0.01 -0.0277879)
(5.67498 0.01 -0.0287056)
(5.72501 0.01 -0.0295455)
(5.77498 0.01 -0.0305005)
(5.82505 0.01 -0.0317402)
(5.87493 0.01 -0.0321555)
(5.92503 0.01 -0.0322195)
(5.975 0.01 -0.0332431)
(6.02502 0.01 -0.034224)
(6.07496 0.01 -0.0343121)
(6.125 0.01 -0.03425)
(6.17506 0.01 -0.035316)
(6.22492 0.01 -0.0355199)
(6.27507 0.01 -0.0353518)
(6.32494 0.01 -0.0352718)
(6.37506 0.01 -0.0351242)
(6.42494 0.01 -0.0350189)
(6.47503 0.01 -0.0350135)
(6.52503 0.01 -0.0359415)
(6.57494 0.01 -0.0358391)
(6.62506 0.01 -0.0355253)
(6.67493 0.01 -0.0350468)
(6.72507 0.01 -0.0347784)
(6.77496 0.01 -0.0349442)
(6.82501 0.01 -0.0347223)
(6.87503 0.01 -0.0350297)
(6.92494 0.01 -0.0346301)
(6.97506 0.01 -0.0344065)
(7.02495 0.01 -0.0343728)
(7.07504 0.01 -0.0340548)
(7.12499 0.01 -0.0337456)
(7.17499 0.01 -0.0327292)
(7.225 0.01 -0.0316597)
(7.27498 0.01 -0.0307432)
(7.32505 0.01 -0.0305652)
(7.37494 0.01 -0.0303138)
(7.42505 0.01 -0.0302441)
(7.47497 0.01 -0.0305783)
(7.52502 0.01 -0.0306903)
(7.57501 0.01 -0.0308359)
(7.62496 0.01 -0.030071)
(7.67503 0.01 -0.0294606)
(7.72498 0.01 -0.0295558)
(7.77503 0.01 -0.0300553)
(7.82498 0.01 -0.0305553)
(7.87501 0.01 -0.0306688)
(7.92499 0.01 -0.0306619)
(7.975 0.01 -0.0303914)
(8.025 0.01 -0.0302074)
(8.07499 0.01 -0.0301802)
(8.12502 0.01 -0.0305114)
(8.17499 0.01 -0.0309046)
(8.22501 0.01 -0.0309894)
(8.27499 0.01 -0.0307279)
(8.32501 0.01 -0.0302688)
(8.37499 0.01 -0.0297335)
(8.425 0.01 -0.0292638)
(8.47501 0.01 -0.0294217)
(8.525 0.01 -0.0298943)
(8.57501 0.01 -0.0303381)
(8.62499 0.01 -0.0306361)
(8.67501 0.01 -0.0307398)
(8.72499 0.01 -0.0306443)
(8.77501 0.01 -0.0305716)
(8.82498 0.01 -0.0306065)
(8.87504 0.01 -0.0311754)
(8.92498 0.01 -0.0318108)
(8.97499 0.01 -0.0318286)
(9.02504 0.01 -0.0320724)
(9.07495 0.01 -0.0318397)
(9.12504 0.01 -0.031456)
(9.17496 0.01 -0.0309863)
(9.22501 0.01 -0.0302273)
(9.27501 0.01 -0.029983)
(9.32498 0.01 -0.0297895)
(9.37503 0.01 -0.0301267)
(9.42497 0.01 -0.0306403)
(9.47503 0.01 -0.0312165)
(9.52499 0.01 -0.0318124)
(9.57499 0.01 -0.031748)
(9.62501 0.01 -0.0317296)
(9.67501 0.01 -0.0318598)
(9.72499 0.01 -0.0314964)
(9.77501 0.01 -0.0308569)
(9.82498 0.01 -0.0302143)
(9.87501 0.01 -0.0299662)
(9.92503 0.01 -0.0304987)
(9.97497 0.01 -0.0306795)
(10.025 0.01 -0.0306067)
(10.075 0.01 -0.0304757)
(10.125 0.01 -0.0302848)
(10.175 0.01 -0.0304355)
(10.225 0.01 -0.0308125)
(10.275 0.01 -0.0309777)
(10.325 0.01 -0.0308613)
(10.375 0.01 -0.0308967)
(10.425 0.01 -0.0304335)
(10.475 0.01 -0.030375)
(10.525 0.01 -0.03059)
(10.575 0.01 -0.0306897)
(10.625 0.01 -0.0305209)
(10.675 0.01 -0.0297426)
(10.725 0.01 -0.0290865)
(10.775 0.01 -0.0284751)
(10.825 0.01 -0.0285704)
(10.875 0.01 -0.0287544)
(10.9251 0.01 -0.0292181)
(10.9749 0.01 -0.0294933)
(11.025 0.01 -0.0292428)
(11.075 0.01 -0.029317)
(11.125 0.01 -0.0293016)
(11.175 0.01 -0.0296853)
(11.225 0.01 -0.0297936)
(11.275 0.01 -0.0298144)
(11.3249 0.01 -0.0296151)
(11.3751 0.01 -0.0294908)
(11.4249 0.01 -0.029199)
(11.475 0.01 -0.0288556)
(11.525 0.01 -0.0293528)
(11.575 0.01 -0.0299749)
(11.625 0.01 -0.0308081)
(11.675 0.01 -0.0310587)
(11.725 0.01 -0.0311963)
(11.7749 0.01 -0.0308996)
(11.8251 0.01 -0.0304014)
(11.8749 0.01 -0.0297184)
(11.925 0.01 -0.0289429)
(11.975 0.01 -0.0284033)
(12.025 0.01 -0.0278981)
(12.075 0.01 -0.0280174)
(12.125 0.01 -0.0282334)
(12.175 0.01 -0.0288328)
(12.225 0.01 -0.028953)
(12.2751 0.01 -0.0288179)
(12.3249 0.01 -0.0280759)
(12.3751 0.01 -0.027691)
(12.4249 0.01 -0.0278838)
(12.475 0.01 -0.0281099)
(12.525 0.01 -0.0289269)
(12.575 0.01 -0.0292259)
(12.625 0.01 -0.0294716)
(12.675 0.01 -0.0297043)
(12.725 0.01 -0.0297192)
(12.775 0.01 -0.0293215)
(12.825 0.01 -0.0288218)
(12.8749 0.01 -0.0281436)
(12.9251 0.01 -0.0282704)
(12.9749 0.01 -0.0281064)
(13.0251 0.01 -0.0277676)
(13.0749 0.01 -0.0273056)
(13.1251 0.01 -0.0265899)
(13.175 0.01 -0.0265918)
(13.225 0.01 -0.0267988)
(13.275 0.01 -0.0274475)
(13.325 0.01 -0.0275471)
(13.375 0.01 -0.0277184)
(13.4249 0.01 -0.027318)
(13.4751 0.01 -0.0269881)
(13.5249 0.01 -0.027006)
(13.5751 0.01 -0.0272981)
(13.6249 0.01 -0.0273707)
(13.6751 0.01 -0.02719)
(13.7249 0.01 -0.0270568)
(13.7751 0.01 -0.0268986)
(13.8249 0.01 -0.0265098)
(13.8751 0.01 -0.0259457)
(13.9249 0.01 -0.0251759)
(13.975 0.01 -0.0240497)
(14.025 0.01 -0.023249)
(14.075 0.01 -0.0226642)
(14.125 0.01 -0.0229946)
(14.1749 0.01 -0.022869)
(14.225 0.01 -0.0229163)
(14.275 0.01 -0.0233468)
(14.325 0.01 -0.0232229)
(14.375 0.01 -0.0224022)
(14.425 0.01 -0.0212164)
(14.475 0.01 -0.0197615)
(14.525 0.01 -0.0180282)
(14.575 0.01 -0.0159311)
(14.625 0.01 -0.0134386)
(14.675 0.01 -0.0103377)
(14.7251 0.01 -0.00657907)
(14.7749 0.01 -0.00115545)
(14.825 0.01 0.00475762)
(14.8751 0.01 0.00700548)
(14.925 0.01 0.00703251)
(14.975 0.01 0.00703098)
(0.025 0.01 0.00984375)
(0.075 0.01 0.00984375)
(0.125 0.01 0.00984375)
(0.175 0.01 0.00984375)
(0.225 0.01 0.00984375)
(0.275 0.01 0.00984375)
(0.325 0.01 0.00984375)
(0.375 0.01 0.00984375)
(0.425 0.01 0.00984375)
(0.475 0.01 0.00984375)
(0.525 0.01 0.00984375)
(0.575 0.01 0.00984375)
(0.625 0.01 0.00984375)
(0.675 0.01 0.00984375)
(0.725 0.01 0.00984375)
(0.775 0.01 0.00984375)
(0.825 0.01 0.00984375)
(0.875 0.01 0.00984375)
(0.925 0.01 0.00984375)
(0.975 0.01 0.00984375)
(1.025 0.01 0.00984375)
(1.075 0.01 0.00984375)
(1.125 0.01 0.00984375)
(1.175 0.01 0.00984375)
(1.225 0.01 0.00984375)
(1.275 0.01 0.00984375)
(1.325 0.01 0.00984375)
(1.375 0.01 0.00984375)
(1.425 0.01 0.00984375)
(1.475 0.01 0.00984375)
(1.525 0.01 0.00984375)
(1.575 0.01 0.00984375)
(1.625 0.01 0.00984375)
(1.675 0.01 0.00984375)
(1.725 0.01 0.00984375)
(1.775 0.01 0.00984375)
(1.825 0.01 0.00984375)
(1.875 0.01 0.00984375)
(1.925 0.01 0.00984375)
(1.975 0.01 0.00984375)
(2.025 0.01 0.00984375)
(2.075 0.01 0.00984375)
(2.125 0.01 0.00984375)
(2.175 0.01 0.00984375)
(2.225 0.01 0.00984375)
(2.275 0.01 0.00984375)
(2.325 0.01 0.00984375)
(2.375 0.01 0.00984375)
(2.425 0.01 0.00984375)
(2.475 0.01 0.00984375)
(2.525 0.01 0.00984375)
(2.575 0.01 0.00984375)
(2.625 0.01 0.00984375)
(2.675 0.01 0.00984375)
(2.725 0.01 0.00984375)
(2.775 0.01 0.00984375)
(2.825 0.01 0.00984375)
(2.875 0.01 0.00984375)
(2.925 0.01 0.00984375)
(2.975 0.01 0.00984375)
(3.025 0.01 0.00984375)
(3.075 0.01 0.00984375)
(3.125 0.01 0.00984375)
(3.175 0.01 0.00984375)
(3.225 0.01 0.00984375)
(3.275 0.01 0.00984375)
(3.325 0.01 0.00984375)
(3.375 0.01 0.00984375)
(3.425 0.01 0.00984375)
(3.475 0.01 0.00984375)
(3.525 0.01 0.00984375)
(3.575 0.01 0.00984375)
(3.625 0.01 0.00984375)
(3.675 0.01 0.00984375)
(3.725 0.01 0.00984375)
(3.775 0.01 0.00984375)
(3.825 0.01 0.00984375)
(3.875 0.01 0.00984375)
(3.925 0.01 0.00984375)
(3.975 0.01 0.00984375)
(4.025 0.01 0.00984375)
(4.075 0.01 0.00984375)
(4.125 0.01 0.00984375)
(4.175 0.01 0.00984375)
(4.225 0.01 0.00984375)
(4.275 0.01 0.00984374)
(4.325 0.01 0.00984374)
(4.375 0.01 0.00984374)
(4.425 0.01 0.00984374)
(4.475 0.01 0.00984373)
(4.525 0.01 0.00984372)
(4.575 0.01 0.00984371)
(4.625 0.01 0.0098437)
(4.675 0.01 0.00984367)
(4.725 0.01 0.00984361)
(4.775 0.01 0.00984353)
(4.825 0.01 0.009843)
(4.875 0.01 0.00984523)
(4.92493 0.01 0.00979873)
(4.97506 0.01 0.00763664)
(5.02507 0.01 0.0026052)
(5.07495 0.01 -0.0021427)
(5.12501 0.01 -0.00564417)
(5.17499 0.01 -0.00872236)
(5.225 0.01 -0.0113938)
(5.275 0.01 -0.0137757)
(5.32499 0.01 -0.0158598)
(5.37501 0.01 -0.0177578)
(5.42498 0.01 -0.0193872)
(5.47501 0.01 -0.0209774)
(5.52501 0.01 -0.0226498)
(5.57498 0.01 -0.0238987)
(5.62502 0.01 -0.0249746)
(5.67498 0.01 -0.0258929)
(5.72501 0.01 -0.0267346)
(5.77498 0.01 -0.0276916)
(5.82506 0.01 -0.028919)
(5.87492 0.01 -0.0293395)
(5.92503 0.01 -0.0294183)
(5.97501 0.01 -0.0304306)
(6.02502 0.01 -0.0314028)
(6.07495 0.01 -0.0314989)
(6.125 0.01 -0.0314514)
(6.17507 0.01 -0.0324942)
(6.2249 0.01 -0.0327048)
(6.27508 0.01 -0.0325415)
(6.32493 0.01 -0.0324594)
(6.37507 0.01 -0.0323131)
(6.42493 0.01 -0.0322076)
(6.47503 0.01 -0.032213)
(6.52504 0.01 -0.0331184)
(6.57493 0.01 -0.0330268)
(6.62507 0.01 -0.0327121)
(6.67491 0.01 -0.0322373)
(6.72508 0.01 -0.0319715)
(6.77495 0.01 -0.0321275)
(6.82501 0.01 -0.0319175)
(6.87504 0.01 -0.0322099)
(6.92492 0.01 -0.0318213)
(6.97507 0.01 -0.0315977)
(7.02494 0.01 -0.0315586)
(7.07505 0.01 -0.0312442)
(7.12498 0.01 -0.0309259)
(7.17499 0.01 -0.0299171)
(7.225 0.01 -0.0288492)
(7.27497 0.01 -0.0279402)
(7.32506 0.01 -0.0277529)
(7.37493 0.01 -0.0275047)
(7.42506 0.01 -0.0274376)
(7.47496 0.01 -0.0277645)
(7.52502 0.01 -0.0278805)
(7.57502 0.01 -0.0280143)
(7.62495 0.01 -0.0272614)
(7.67504 0.01 -0.0266564)
(7.72498 0.01 -0.0267482)
(7.77504 0.01 -0.0272438)
(7.82498 0.01 -0.0277398)
(7.87501 0.01 -0.0278569)
(7.92499 0.01 -0.027848)
(7.97499 0.01 -0.0275813)
(8.02501 0.01 -0.0273974)
(8.07499 0.01 -0.0273724)
(8.12502 0.01 -0.0277005)
(8.17499 0.01 -0.02809)
(8.22501 0.01 -0.0281746)
(8.27498 0.01 -0.0279147)
(8.32501 0.01 -0.0274568)
(8.37498 0.01 -0.0269226)
(8.425 0.01 -0.0264593)
(8.47502 0.01 -0.0266138)
(8.525 0.01 -0.0270828)
(8.57501 0.01 -0.0275252)
(8.62499 0.01 -0.0278226)
(8.67501 0.01 -0.0279264)
(8.72498 0.01 -0.0278337)
(8.77501 0.01 -0.0277617)
(8.82497 0.01 -0.0278012)
(8.87505 0.01 -0.028365)
(8.92498 0.01 -0.0289924)
(8.97499 0.01 -0.0290204)
(9.02504 0.01 -0.0292552)
(9.07494 0.01 -0.0290267)
(9.12505 0.01 -0.0286439)
(9.17496 0.01 -0.0281718)
(9.22501 0.01 -0.0274224)
(9.27501 0.01 -0.0271721)
(9.32498 0.01 -0.026984)
(9.37504 0.01 -0.0273166)
(9.42496 0.01 -0.0278287)
(9.47503 0.01 -0.0284052)
(9.52499 0.01 -0.0289936)
(9.57498 0.01 -0.028938)
(9.62501 0.01 -0.0289209)
(9.67501 0.01 -0.0290438)
(9.72498 0.01 -0.0286825)
(9.77501 0.01 -0.0280449)
(9.82498 0.01 -0.0274058)
(9.87501 0.01 -0.0271626)
(9.92503 0.01 -0.027683)
(9.97496 0.01 -0.0278663)
(10.025 0.01 -0.0277958)
(10.075 0.01 -0.0276643)
(10.125 0.01 -0.0274774)
(10.175 0.01 -0.0276263)
(10.225 0.01 -0.0279982)
(10.275 0.01 -0.0281624)
(10.325 0.01 -0.0280518)
(10.375 0.01 -0.0280795)
(10.4249 0.01 -0.0276271)
(10.4751 0.01 -0.0275667)
(10.525 0.01 -0.0277774)
(10.575 0.01 -0.0278754)
(10.625 0.01 -0.027702)
(10.675 0.01 -0.0269321)
(10.725 0.01 -0.0262745)
(10.775 0.01 -0.0256715)
(10.825 0.01 -0.0257596)
(10.8749 0.01 -0.0259461)
(10.9251 0.01 -0.0264043)
(10.9749 0.01 -0.0266751)
(11.025 0.01 -0.0264347)
(11.075 0.01 -0.0265033)
(11.125 0.01 -0.0264944)
(11.175 0.01 -0.0268706)
(11.225 0.01 -0.0269821)
(11.2751 0.01 -0.0270008)
(11.3249 0.01 -0.0268045)
(11.3751 0.01 -0.0266765)
(11.4249 0.01 -0.0263852)
(11.475 0.01 -0.0260521)
(11.525 0.01 -0.026541)
(11.575 0.01 -0.0271656)
(11.625 0.01 -0.0279903)
(11.675 0.01 -0.0282474)
(11.7251 0.01 -0.0283806)
(11.7749 0.01 -0.028086)
(11.8251 0.01 -0.0275866)
(11.8749 0.01 -0.0269043)
(11.9251 0.01 -0.0261327)
(11.975 0.01 -0.0255914)
(12.025 0.01 -0.0250941)
(12.075 0.01 -0.0252074)
(12.125 0.01 -0.025427)
(12.175 0.01 -0.0260157)
(12.2249 0.01 -0.0261388)
(12.2751 0.01 -0.0259982)
(12.3249 0.01 -0.0252669)
(12.3751 0.01 -0.0248848)
(12.4249 0.01 -0.0250719)
(12.4751 0.01 -0.0253054)
(12.525 0.01 -0.0261091)
(12.575 0.01 -0.0264138)
(12.625 0.01 -0.0266594)
(12.675 0.01 -0.0268903)
(12.725 0.01 -0.0269031)
(12.775 0.01 -0.0265093)
(12.825 0.01 -0.0260077)
(12.8749 0.01 -0.0253412)
(12.9251 0.01 -0.0254544)
(12.9749 0.01 -0.0252923)
(13.0251 0.01 -0.0249538)
(13.0749 0.01 -0.0244902)
(13.1251 0.01 -0.0237859)
(13.175 0.01 -0.0237816)
(13.225 0.01 -0.0239922)
(13.275 0.01 -0.0246291)
(13.325 0.01 -0.024737)
(13.3751 0.01 -0.0249001)
(13.4249 0.01 -0.0245071)
(13.4751 0.01 -0.0241797)