/*--------------------------------*- C++ -*----------------------------------*\
| =========                 |                                                 |
| \\      /  F ield         | foam-extend: Open Source CFD                    |
|  \\    /   O peration     | Version:     3.2                                |
|   \\  /    A nd           | Web:         http://www.foam-extend.org         |
|    \\/     M anipulation  | For copyright notice see file Copyright         |
\*---------------------------------------------------------------------------*/
FoamFile
{
    version     2.0;
    format      ascii;
    class       pointVectorField;
    location    "160";
    object      newMeshPoints;
}
// * * * * * * * * * * * * * * * * * * * * * * * * * * * * * * * * * * * * * //

dimensions      [0 1 0 0 0 0 0];

internalField   nonuniform List<vector> 
193242
(
(0 0 0)
(0.05 0 0)
(0.1 0 0)
(0.15 0 0)
(0.2 0 0)
(0.25 0 0)
(0.3 0 0)
(0.35 0 0)
(0.4 0 0)
(0.45 0 0)
(0.5 0 0)
(0.55 0 0)
(0.6 0 0)
(0.65 0 0)
(0.7 0 0)
(0.75 0 0)
(0.8 0 0)
(0.85 0 0)
(0.9 0 0)
(0.95 0 0)
(1 0 0)
(1.05 0 0)
(1.1 0 0)
(1.15 0 0)
(1.2 0 0)
(1.25 0 0)
(1.3 0 0)
(1.35 0 0)
(1.4 0 0)
(1.45 0 0)
(1.5 0 0)
(1.55 0 0)
(1.6 0 0)
(1.65 0 0)
(1.7 0 0)
(1.75 0 0)
(1.8 0 0)
(1.85 0 0)
(1.9 0 0)
(1.95 0 0)
(2 0 0)
(2.05 0 0)
(2.1 0 0)
(2.15 0 0)
(2.2 0 0)
(2.25 0 0)
(2.3 0 0)
(2.35 0 0)
(2.4 0 0)
(2.45 0 0)
(2.5 0 0)
(2.55 0 0)
(2.6 0 0)
(2.65 0 0)
(2.7 0 0)
(2.75 0 0)
(2.8 0 0)
(2.85 0 0)
(2.9 0 0)
(2.95 0 0)
(3 0 0)
(3.05 0 0)
(3.1 0 0)
(3.15 0 0)
(3.2 0 0)
(3.25 0 0)
(3.3 0 0)
(3.35 0 0)
(3.4 0 0)
(3.45 0 0)
(3.5 0 0)
(3.55 0 0)
(3.6 0 0)
(3.65 0 0)
(3.7 0 0)
(3.75 0 0)
(3.8 0 0)
(3.85 0 0)
(3.9 0 0)
(3.95 0 0)
(4 0 0)
(4.05 0 0)
(4.1 0 0)
(4.15 0 0)
(4.2 0 0)
(4.25 0 0)
(4.3 0 0)
(4.35 0 0)
(4.4 0 0)
(4.45 0 0)
(4.5 0 0)
(4.55 0 0)
(4.6 0 0)
(4.65 0 0)
(4.7 0 0)
(4.75 0 0)
(4.8 0 0)
(4.85 0 0)
(4.9 0 0)
(4.95 0 0)
(5 0 -0.00432538)
(5.05 0 -0.0102649)
(5.1 0 -0.0138525)
(5.15 0 -0.0171813)
(5.2 0 -0.0200077)
(5.25 0 -0.0225088)
(5.3 0 -0.0247677)
(5.35 0 -0.0266668)
(5.4 0 -0.0285645)
(5.45 0 -0.0299095)
(5.5 0 -0.0317294)
(5.55 0 -0.0332788)
(5.6 0 -0.0342049)
(5.65 0 -0.0354269)
(5.7 0 -0.0360384)
(5.75 0 -0.0371002)
(5.8 0 -0.0379426)
(5.85 0 -0.0396128)
(5.9 0 -0.0387578)
(5.95 0 -0.0396979)
(6 0 -0.0408393)
(6.05 0 -0.0416842)
(6.1 0 -0.0409919)
(6.15 0 -0.0415178)
(6.2 0 -0.0431904)
(6.25 0 -0.0419042)
(6.3 0 -0.0428404)
(6.35 0 -0.0417495)
(6.4 0 -0.042542)
(6.45 0 -0.0415399)
(6.5 0 -0.0424998)
(6.55 0 -0.043463)
(6.6 0 -0.0422612)
(6.65 0 -0.0428398)
(6.7 0 -0.0412916)
(6.75 0 -0.0422955)
(6.8 0 -0.0416524)
(6.85 0 -0.0418164)
(6.9 0 -0.0423121)
(6.95 0 -0.0409833)
(7 0 -0.041866)
(7.05 0 -0.0409315)
(7.1 0 -0.0412184)
(7.15 0 -0.0403394)
(7.2 0 -0.0391641)
(7.25 0 -0.0381975)
(7.3 0 -0.0373085)
(7.35 0 -0.0378696)
(7.4 0 -0.0367955)
(7.45 0 -0.0377229)
(7.5 0 -0.0374859)
(7.55 0 -0.0379337)
(7.6 0 -0.0378129)
(7.65 0 -0.0363671)
(7.7 0 -0.0365781)
(7.75 0 -0.0365675)
(7.8 0 -0.0375878)
(7.85 0 -0.0375798)
(7.9 0 -0.0378036)
(7.95 0 -0.0375725)
(8 0 -0.0372511)
(8.05 0 -0.0372045)
(8.1 0 -0.0371901)
(8.15 0 -0.0378759)
(8.2 0 -0.0379874)
(8.25 0 -0.0380457)
(8.3 0 -0.03746)
(8.35 0 -0.0371253)
(8.4 0 -0.0363864)
(8.45 0 -0.0361674)
(8.5 0 -0.0367122)
(8.55 0 -0.0371228)
(8.6 0 -0.0376026)
(8.65 0 -0.0377201)
(8.7 0 -0.0378102)
(8.75 0 -0.0375212)
(8.8 0 -0.0376636)
(8.85 0 -0.0375778)
(8.9 0 -0.0388152)
(8.95 0 -0.0388726)
(9 0 -0.038819)
(9.05 0 -0.0393868)
(9.1 0 -0.0383406)
(9.15 0 -0.0386185)
(9.2 0 -0.0374085)
(9.25 0 -0.0370737)
(9.3 0 -0.0369377)
(9.35 0 -0.0366704)
(9.4 0 -0.037625)
(9.45 0 -0.0377019)
(9.5 0 -0.0387753)
(9.55 0 -0.0389177)
(9.6 0 -0.0386211)
(9.65 0 -0.0388773)
(9.7 0 -0.0389027)
(9.75 0 -0.0381433)
(9.8 0 -0.0376187)
(9.85 0 -0.0368473)
(9.9 0 -0.0371083)
(9.95 0 -0.0379481)
(10 0 -0.0374628)
(10.05 0 -0.0377959)
(10.1 0 -0.0372029)
(10.15 0 -0.0374022)
(10.2 0 -0.0375095)
(10.25 0 -0.0381703)
(10.3 0 -0.0378428)
(10.35 0 -0.0379209)
(10.4 0 -0.0379379)
(10.45 0 -0.0369624)
(10.5 0 -0.0378269)
(10.55 0 -0.037405)
(10.6 0 -0.0380297)
(10.65 0 -0.0370811)
(10.7 0 -0.0364491)
(10.75 0 -0.0357744)
(10.8 0 -0.0352023)
(10.85 0 -0.0359864)
(10.9 0 -0.0355629)
(10.95 0 -0.0369278)
(11 0 -0.0361263)
(11.05 0 -0.0363971)
(11.1 0 -0.0362916)
(11.15 0 -0.0363475)
(11.2 0 -0.0370819)
(11.25 0 -0.0365557)
(11.3 0 -0.0371296)
(11.35 0 -0.0361468)
(11.4 0 -0.0368916)
(11.45 0 -0.0355611)
(11.5 0 -0.0361758)
(11.55 0 -0.0365812)
(11.6 0 -0.0374124)
(11.65 0 -0.0382734)
(11.7 0 -0.0378933)
(11.75 0 -0.0385609)
(11.8 0 -0.0372915)
(11.85 0 -0.0375687)
(11.9 0 -0.0359217)
(11.95 0 -0.0360091)
(12 0 -0.034848)
(12.05 0 -0.0349775)
(12.1 0 -0.0351052)
(12.15 0 -0.0353981)
(12.2 0 -0.0363342)
(12.25 0 -0.0356281)
(12.3 0 -0.0360813)
(12.35 0 -0.0341104)
(12.4 0 -0.0353063)
(12.45 0 -0.0345144)
(12.5 0 -0.0357358)
(12.55 0 -0.0361882)
(12.6 0 -0.0363151)
(12.65 0 -0.0366792)
(12.7 0 -0.0367863)
(12.75 0 -0.036716)
(12.8 0 -0.0359795)
(12.85 0 -0.0357238)
(12.9 0 -0.0345871)
(12.95 0 -0.0360163)
(13 0 -0.0342518)
(13.05 0 -0.0353399)
(13.1 0 -0.0333315)
(13.15 0 -0.0338779)
(13.2 0 -0.0333539)
(13.25 0 -0.0342808)
(13.3 0 -0.034687)
(13.35 0 -0.0344547)
(13.4 0 -0.0350547)
(13.45 0 -0.0336312)
(13.5 0 -0.0343889)
(13.55 0 -0.0336685)
(13.6 0 -0.0349889)
(13.65 0 -0.0338156)
(13.7 0 -0.0346186)
(13.75 0 -0.033551)
(13.8 0 -0.0343102)
(13.85 0 -0.0327687)
(13.9 0 -0.0331862)
(13.95 0 -0.0312331)
(14 0 -0.0309153)
(14.05 0 -0.0296359)
(14.1 0 -0.0297199)
(14.15 0 -0.0303432)
(14.2 0 -0.0294466)
(14.25 0 -0.0304331)
(14.3 0 -0.0303397)
(14.35 0 -0.0301903)
(14.4 0 -0.0286879)
(14.45 0 -0.0278216)
(14.5 0 -0.0257769)
(14.55 0 -0.0243656)
(14.6 0 -0.0215812)
(14.65 0 -0.0194038)
(14.7 0 -0.0153747)
(14.75 0 -0.0119757)
(14.8 0 -0.00449506)
(14.85 0 0)
(14.9 0 0)
(14.95 0 0)
(15 0 0)
(0 0.02 0)
(0.05 0.02 0)
(0.1 0.02 0)
(0.15 0.02 0)
(0.2 0.02 0)
(0.25 0.02 0)
(0.3 0.02 0)
(0.35 0.02 0)
(0.4 0.02 0)
(0.45 0.02 0)
(0.5 0.02 0)
(0.55 0.02 0)
(0.6 0.02 0)
(0.65 0.02 0)
(0.7 0.02 0)
(0.75 0.02 0)
(0.8 0.02 0)
(0.85 0.02 0)
(0.9 0.02 0)
(0.95 0.02 0)
(1 0.02 0)
(1.05 0.02 0)
(1.1 0.02 0)
(1.15 0.02 0)
(1.2 0.02 0)
(1.25 0.02 0)
(1.3 0.02 0)
(1.35 0.02 0)
(1.4 0.02 0)
(1.45 0.02 0)
(1.5 0.02 0)
(1.55 0.02 0)
(1.6 0.02 0)
(1.65 0.02 0)
(1.7 0.02 0)
(1.75 0.02 0)
(1.8 0.02 0)
(1.85 0.02 0)
(1.9 0.02 0)
(1.95 0.02 0)
(2 0.02 0)
(2.05 0.02 0)
(2.1 0.02 0)
(2.15 0.02 0)
(2.2 0.02 0)
(2.25 0.02 0)
(2.3 0.02 0)
(2.35 0.02 0)
(2.4 0.02 0)
(2.45 0.02 0)
(2.5 0.02 0)
(2.55 0.02 0)
(2.6 0.02 0)
(2.65 0.02 0)
(2.7 0.02 0)
(2.75 0.02 0)
(2.8 0.02 0)
(2.85 0.02 0)
(2.9 0.02 0)
(2.95 0.02 0)
(3 0.02 0)
(3.05 0.02 0)
(3.1 0.02 0)
(3.15 0.02 0)
(3.2 0.02 0)
(3.25 0.02 0)
(3.3 0.02 0)
(3.35 0.02 0)
(3.4 0.02 0)
(3.45 0.02 0)
(3.5 0.02 0)
(3.55 0.02 0)
(3.6 0.02 0)
(3.65 0.02 0)
(3.7 0.02 0)
(3.75 0.02 0)
(3.8 0.02 0)
(3.85 0.02 0)
(3.9 0.02 0)
(3.95 0.02 0)
(4 0.02 0)
(4.05 0.02 0)
(4.1 0.02 0)
(4.15 0.02 0)
(4.2 0.02 0)
(4.25 0.02 0)
(4.3 0.02 0)
(4.35 0.02 0)
(4.4 0.02 0)
(4.45 0.02 0)
(4.5 0.02 0)
(4.55 0.02 0)
(4.6 0.02 0)
(4.65 0.02 0)
(4.7 0.02 0)
(4.75 0.02 0)
(4.8 0.02 0)
(4.85 0.02 0)
(4.9 0.02 0)
(4.95 0.02 0)
(5 0.02 -0.00432538)
(5.05 0.02 -0.0102649)
(5.1 0.02 -0.0138525)
(5.15 0.02 -0.0171813)
(5.2 0.02 -0.0200077)
(5.25 0.02 -0.0225088)
(5.3 0.02 -0.0247677)
(5.35 0.02 -0.0266668)
(5.4 0.02 -0.0285645)
(5.45 0.02 -0.0299095)
(5.5 0.02 -0.0317294)
(5.55 0.02 -0.0332788)
(5.6 0.02 -0.0342049)
(5.65 0.02 -0.0354269)
(5.7 0.02 -0.0360384)
(5.75 0.02 -0.0371002)
(5.8 0.02 -0.0379426)
(5.85 0.02 -0.0396128)
(5.9 0.02 -0.0387578)
(5.95 0.02 -0.0396979)
(6 0.02 -0.0408393)
(6.05 0.02 -0.0416842)
(6.1 0.02 -0.0409919)
(6.15 0.02 -0.0415178)
(6.2 0.02 -0.0431904)
(6.25 0.02 -0.0419042)
(6.3 0.02 -0.0428404)
(6.35 0.02 -0.0417495)
(6.4 0.02 -0.042542)
(6.45 0.02 -0.0415399)
(6.5 0.02 -0.0424998)
(6.55 0.02 -0.043463)
(6.6 0.02 -0.0422612)
(6.65 0.02 -0.0428398)
(6.7 0.02 -0.0412916)
(6.75 0.02 -0.0422955)
(6.8 0.02 -0.0416524)
(6.85 0.02 -0.0418164)
(6.9 0.02 -0.0423121)
(6.95 0.02 -0.0409833)
(7 0.02 -0.041866)
(7.05 0.02 -0.0409315)
(7.1 0.02 -0.0412184)
(7.15 0.02 -0.0403394)
(7.2 0.02 -0.0391641)
(7.25 0.02 -0.0381975)
(7.3 0.02 -0.0373085)
(7.35 0.02 -0.0378696)
(7.4 0.02 -0.0367955)
(7.45 0.02 -0.0377229)
(7.5 0.02 -0.0374859)
(7.55 0.02 -0.0379337)
(7.6 0.02 -0.0378129)
(7.65 0.02 -0.0363671)
(7.7 0.02 -0.0365781)
(7.75 0.02 -0.0365675)
(7.8 0.02 -0.0375878)
(7.85 0.02 -0.0375798)
(7.9 0.02 -0.0378036)
(7.95 0.02 -0.0375725)
(8 0.02 -0.0372511)
(8.05 0.02 -0.0372045)
(8.1 0.02 -0.0371901)
(8.15 0.02 -0.0378759)
(8.2 0.02 -0.0379874)
(8.25 0.02 -0.0380457)
(8.3 0.02 -0.03746)
(8.35 0.02 -0.0371253)
(8.4 0.02 -0.0363864)
(8.45 0.02 -0.0361674)
(8.5 0.02 -0.0367122)
(8.55 0.02 -0.0371228)
(8.6 0.02 -0.0376026)
(8.65 0.02 -0.0377201)
(8.7 0.02 -0.0378102)
(8.75 0.02 -0.0375212)
(8.8 0.02 -0.0376636)
(8.85 0.02 -0.0375778)
(8.9 0.02 -0.0388152)
(8.95 0.02 -0.0388726)
(9 0.02 -0.038819)
(9.05 0.02 -0.0393868)
(9.1 0.02 -0.0383406)
(9.15 0.02 -0.0386185)
(9.2 0.02 -0.0374085)
(9.25 0.02 -0.0370737)
(9.3 0.02 -0.0369377)
(9.35 0.02 -0.0366704)
(9.4 0.02 -0.037625)
(9.45 0.02 -0.0377019)
(9.5 0.02 -0.0387753)
(9.55 0.02 -0.0389177)
(9.6 0.02 -0.0386211)
(9.65 0.02 -0.0388773)
(9.7 0.02 -0.0389027)
(9.75 0.02 -0.0381433)
(9.8 0.02 -0.0376187)
(9.85 0.02 -0.0368473)
(9.9 0.02 -0.0371083)
(9.95 0.02 -0.0379481)
(10 0.02 -0.0374628)
(10.05 0.02 -0.0377959)
(10.1 0.02 -0.0372029)
(10.15 0.02 -0.0374022)
(10.2 0.02 -0.0375095)
(10.25 0.02 -0.0381703)
(10.3 0.02 -0.0378428)
(10.35 0.02 -0.0379209)
(10.4 0.02 -0.0379379)
(10.45 0.02 -0.0369624)
(10.5 0.02 -0.0378269)
(10.55 0.02 -0.037405)
(10.6 0.02 -0.0380297)
(10.65 0.02 -0.0370811)
(10.7 0.02 -0.0364491)
(10.75 0.02 -0.0357744)
(10.8 0.02 -0.0352023)
(10.85 0.02 -0.0359864)
(10.9 0.02 -0.0355629)
(10.95 0.02 -0.0369278)
(11 0.02 -0.0361263)
(11.05 0.02 -0.0363971)
(11.1 0.02 -0.0362916)
(11.15 0.02 -0.0363475)
(11.2 0.02 -0.0370819)
(11.25 0.02 -0.0365557)
(11.3 0.02 -0.0371296)
(11.35 0.02 -0.0361468)
(11.4 0.02 -0.0368916)
(11.45 0.02 -0.0355611)
(11.5 0.02 -0.0361758)
(11.55 0.02 -0.0365812)
(11.6 0.02 -0.0374124)
(11.65 0.02 -0.0382734)
(11.7 0.02 -0.0378933)
(11.75 0.02 -0.0385609)
(11.8 0.02 -0.0372915)
(11.85 0.02 -0.0375687)
(11.9 0.02 -0.0359217)
(11.95 0.02 -0.0360091)
(12 0.02 -0.034848)
(12.05 0.02 -0.0349775)
(12.1 0.02 -0.0351052)
(12.15 0.02 -0.0353981)
(12.2 0.02 -0.0363342)
(12.25 0.02 -0.0356281)
(12.3 0.02 -0.0360813)
(12.35 0.02 -0.0341104)
(12.4 0.02 -0.0353063)
(12.45 0.02 -0.0345144)
(12.5 0.02 -0.0357358)
(12.55 0.02 -0.0361882)
(12.6 0.02 -0.0363151)
(12.65 0.02 -0.0366792)
(12.7 0.02 -0.0367863)
(12.75 0.02 -0.036716)
(12.8 0.02 -0.0359795)
(12.85 0.02 -0.0357238)
(12.9 0.02 -0.0345871)
(12.95 0.02 -0.0360163)
(13 0.02 -0.0342518)
(13.05 0.02 -0.0353399)
(13.1 0.02 -0.0333315)
(13.15 0.02 -0.0338779)
(13.2 0.02 -0.0333539)
(13.25 0.02 -0.0342808)
(13.3 0.02 -0.034687)
(13.35 0.02 -0.0344547)
(13.4 0.02 -0.0350547)
(13.45 0.02 -0.0336312)
(13.5 0.02 -0.0343889)
(13.55 0.02 -0.0336685)
(13.6 0.02 -0.0349889)
(13.65 0.02 -0.0338156)
(13.7 0.02 -0.0346186)
(13.75 0.02 -0.033551)
(13.8 0.02 -0.0343102)
(13.85 0.02 -0.0327687)
(13.9 0.02 -0.0331862)
(13.95 0.02 -0.0312331)
(14 0.02 -0.0309153)
(14.05 0.02 -0.0296359)
(14.1 0.02 -0.0297199)
(14.15 0.02 -0.0303432)
(14.2 0.02 -0.0294466)
(14.25 0.02 -0.0304331)
(14.3 0.02 -0.0303397)
(14.35 0.02 -0.0301903)
(14.4 0.02 -0.0286879)
(14.45 0.02 -0.0278216)
(14.5 0.02 -0.0257769)
(14.55 0.02 -0.0243656)
(14.6 0.02 -0.0215812)
(14.65 0.02 -0.0194038)
(14.7 0.02 -0.0153747)
(14.75 0.02 -0.0119757)
(14.8 0.02 -0.00449506)
(14.85 0.02 0)
(14.9 0.02 0)
(14.95 0.02 0)
(15 0.02 0)
(0 0 0.0028125)
(0.05 0 0.0028125)
(0.1 0 0.0028125)
(0.15 0 0.0028125)
(0.2 0 0.0028125)
(0.25 0 0.0028125)
(0.3 0 0.0028125)
(0.35 0 0.0028125)
(0.4 0 0.0028125)
(0.45 0 0.0028125)
(0.5 0 0.0028125)
(0.55 0 0.0028125)
(0.6 0 0.0028125)
(0.65 0 0.0028125)
(0.7 0 0.0028125)
(0.75 0 0.0028125)
(0.8 0 0.0028125)
(0.85 0 0.0028125)
(0.9 0 0.0028125)
(0.95 0 0.0028125)
(1 0 0.0028125)
(1.05 0 0.0028125)
(1.1 0 0.0028125)
(1.15 0 0.0028125)
(1.2 0 0.0028125)
(1.25 0 0.0028125)
(1.3 0 0.0028125)
(1.35 0 0.0028125)
(1.4 0 0.0028125)
(1.45 0 0.0028125)
(1.5 0 0.0028125)
(1.55 0 0.0028125)
(1.6 0 0.0028125)
(1.65 0 0.0028125)
(1.7 0 0.0028125)
(1.75 0 0.0028125)
(1.8 0 0.0028125)
(1.85 0 0.0028125)
(1.9 0 0.0028125)
(1.95 0 0.0028125)
(2 0 0.0028125)
(2.05 0 0.0028125)
(2.1 0 0.0028125)
(2.15 0 0.0028125)
(2.2 0 0.0028125)
(2.25 0 0.0028125)
(2.3 0 0.0028125)
(2.35 0 0.0028125)
(2.4 0 0.0028125)
(2.45 0 0.0028125)
(2.5 0 0.0028125)
(2.55 0 0.0028125)
(2.6 0 0.0028125)
(2.65 0 0.0028125)
(2.7 0 0.0028125)
(2.75 0 0.0028125)
(2.8 0 0.0028125)
(2.85 0 0.0028125)
(2.9 0 0.0028125)
(2.95 0 0.0028125)
(3 0 0.0028125)
(3.05 0 0.0028125)
(3.1 0 0.0028125)
(3.15 0 0.0028125)
(3.2 0 0.0028125)
(3.25 0 0.0028125)
(3.3 0 0.0028125)
(3.35 0 0.0028125)
(3.4 0 0.0028125)
(3.45 0 0.0028125)
(3.5 0 0.0028125)
(3.55 0 0.0028125)
(3.6 0 0.0028125)
(3.65 0 0.0028125)
(3.7 0 0.0028125)
(3.75 0 0.0028125)
(3.8 0 0.0028125)
(3.85 0 0.0028125)
(3.9 0 0.0028125)
(3.95 0 0.0028125)
(4 0 0.0028125)
(4.05 0 0.0028125)
(4.1 0 0.0028125)
(4.15 0 0.0028125)
(4.2 0 0.0028125)
(4.25 0 0.0028125)
(4.3 0 0.0028125)
(4.35 0 0.0028125)
(4.4 0 0.0028125)
(4.45 0 0.0028125)
(4.5 0 0.0028125)
(4.55 0 0.0028125)
(4.6 0 0.0028125)
(4.65 0 0.0028125)
(4.7 0 0.0028125)
(4.75 0 0.0028125)
(4.8 0 0.0028125)
(4.85 0 0.00281242)
(4.9 0 0.00281328)
(4.95 0 0.00280164)
(5 0 -0.00150235)
(5.05 0 -0.00742941)
(5.1 0 -0.0110336)
(5.15 0 -0.0143616)
(5.2 0 -0.0171902)
(5.25 0 -0.0196923)
(5.3 0 -0.0219515)
(5.35 0 -0.0238525)
(5.4 0 -0.0257484)
(5.45 0 -0.0270985)
(5.5 0 -0.028916)
(5.55 0 -0.0304655)
(5.6 0 -0.0313962)
(5.65 0 -0.0326144)
(5.7 0 -0.0332307)
(5.75 0 -0.0342893)
(5.8 0 -0.0351365)
(5.85 0 -0.0367929)
(5.9 0 -0.0359562)
(5.95 0 -0.0368889)
(6 0 -0.0380294)
(6.05 0 -0.0388692)
(6.1 0 -0.0381878)
(6.15 0 -0.0387131)
(6.2 0 -0.0403688)
(6.25 0 -0.0391051)
(6.3 0 -0.040023)
(6.35 0 -0.0389492)
(6.4 0 -0.0397256)
(6.45 0 -0.0387392)
(6.5 0 -0.0396914)
(6.55 0 -0.0406458)
(6.6 0 -0.0394607)
(6.65 0 -0.0400218)
(6.7 0 -0.0384932)
(6.75 0 -0.03948)
(6.8 0 -0.0388477)
(6.85 0 -0.0390099)
(6.9 0 -0.0394961)
(6.95 0 -0.0381842)
(7 0 -0.03905)
(7.05 0 -0.038129)
(7.1 0 -0.0384059)
(7.15 0 -0.0375305)
(7.2 0 -0.0363567)
(7.25 0 -0.0353892)
(7.3 0 -0.0345063)
(7.35 0 -0.0350543)
(7.4 0 -0.0339953)
(7.45 0 -0.0349096)
(7.5 0 -0.034681)
(7.55 0 -0.0351237)
(7.6 0 -0.0349992)
(7.65 0 -0.0335652)
(7.7 0 -0.0337685)
(7.75 0 -0.0337632)
(7.8 0 -0.0347751)
(7.85 0 -0.034773)
(7.9 0 -0.0349938)
(7.95 0 -0.0347641)
(8 0 -0.034444)
(8.05 0 -0.0343962)
(8.1 0 -0.0343845)
(8.15 0 -0.0350651)
(8.2 0 -0.0351794)
(8.25 0 -0.0352349)
(8.3 0 -0.0346529)
(8.35 0 -0.0343151)
(8.4 0 -0.0335798)
(8.45 0 -0.0333618)
(8.5 0 -0.0339031)
(8.55 0 -0.0343148)
(8.6 0 -0.0347929)
(8.65 0 -0.034912)
(8.7 0 -0.0350006)
(8.75 0 -0.034715)
(8.8 0 -0.0348541)
(8.85 0 -0.0347744)
(8.9 0 -0.0360017)
(8.95 0 -0.0360642)
(9 0 -0.0360136)
(9.05 0 -0.0365716)
(9.1 0 -0.035538)
(9.15 0 -0.0358038)
(9.2 0 -0.0346035)
(9.25 0 -0.034266)
(9.3 0 -0.0341284)
(9.35 0 -0.0338665)
(9.4 0 -0.0348124)
(9.45 0 -0.0348973)
(9.5 0 -0.0359629)
(9.55 0 -0.0361076)
(9.6 0 -0.0358146)
(9.65 0 -0.036068)
(9.7 0 -0.0360912)
(9.75 0 -0.0353358)
(9.8 0 -0.0348086)
(9.85 0 -0.0340422)
(9.9 0 -0.0343017)
(9.95 0 -0.035134)
(10 0 -0.034658)
(10.05 0 -0.0349834)
(10.1 0 -0.0343975)
(10.15 0 -0.0345927)
(10.2 0 -0.0347029)
(10.25 0 -0.0353572)
(10.3 0 -0.0350356)
(10.35 0 -0.0351119)
(10.4 0 -0.0351245)
(10.45 0 -0.0341605)
(10.5 0 -0.035012)
(10.55 0 -0.0346005)
(10.6 0 -0.0352139)
(10.65 0 -0.0342733)
(10.7 0 -0.0336395)
(10.75 0 -0.032965)
(10.8 0 -0.0323983)
(10.85 0 -0.0331715)
(10.9 0 -0.0327606)
(10.95 0 -0.0341088)
(11 0 -0.0333216)
(11.05 0 -0.033586)
(11.1 0 -0.0334829)
(11.15 0 -0.0335409)
(11.2 0 -0.034267)
(11.25 0 -0.033751)
(11.3 0 -0.034313)
(11.35 0 -0.0333444)
(11.4 0 -0.0340725)
(11.45 0 -0.0327588)
(11.5 0 -0.0333645)
(11.55 0 -0.033773)
(11.6 0 -0.0346027)
(11.65 0 -0.0354587)
(11.7 0 -0.0350888)
(11.75 0 -0.0357431)
(11.8 0 -0.0344888)
(11.85 0 -0.0347505)
(11.9 0 -0.033119)
(11.95 0 -0.0331939)
(12 0 -0.0320434)
(12.05 0 -0.0321677)
(12.1 0 -0.0322962)
(12.15 0 -0.032591)
(12.2 0 -0.0335174)
(12.25 0 -0.0328238)
(12.3 0 -0.0332601)
(12.35 0 -0.0313124)
(12.4 0 -0.0324871)
(12.45 0 -0.0317124)
(12.5 0 -0.0329221)
(12.55 0 -0.0333774)
(12.6 0 -0.0335064)
(12.65 0 -0.0338686)
(12.7 0 -0.0339762)
(12.75 0 -0.0339034)
(12.8 0 -0.0331718)
(12.85 0 -0.0329096)
(12.9 0 -0.0317873)
(12.95 0 -0.0331916)
(13 0 -0.0314535)
(13.05 0 -0.0325155)
(13.1 0 -0.0305313)
(13.15 0 -0.0310628)
(13.2 0 -0.0305496)
(13.25 0 -0.0314682)
(13.3 0 -0.0318743)
(13.35 0 -0.0316482)
(13.4 0 -0.0322352)
(13.45 0 -0.0308293)
(13.5 0 -0.0315715)
(13.55 0 -0.0308663)
(13.6 0 -0.0321668)
(13.65 0 -0.031013)
(13.7 0 -0.0317991)
(13.75 0 -0.0307478)
(13.8 0 -0.0314886)
(13.85 0 -0.0299659)
(13.9 0 -0.0303643)
(13.95 0 -0.0284282)
(14 0 -0.0280995)
(14.05 0 -0.0268297)
(14.1 0 -0.0269108)
(14.15 0 -0.0275253)
(14.2 0 -0.0266421)
(14.25 0 -0.0276162)
(14.3 0 -0.027528)
(14.35 0 -0.0273719)
(14.4 0 -0.0258777)
(14.45 0 -0.0250028)
(14.5 0 -0.0229658)
(14.55 0 -0.0215448)
(14.6 0 -0.0187686)
(14.65 0 -0.0165779)
(14.7 0 -0.0125593)
(14.75 0 -0.00912745)
(14.8 0 -0.00167093)
(14.85 0 0.0028014)
(14.9 0 0.0028133)
(14.95 0 0.00281243)
(15 0 0.0028125)
(0 0.02 0.0028125)
(0.05 0.02 0.0028125)
(0.1 0.02 0.0028125)
(0.15 0.02 0.0028125)
(0.2 0.02 0.0028125)
(0.25 0.02 0.0028125)
(0.3 0.02 0.0028125)
(0.35 0.02 0.0028125)
(0.4 0.02 0.0028125)
(0.45 0.02 0.0028125)
(0.5 0.02 0.0028125)
(0.55 0.02 0.0028125)
(0.6 0.02 0.0028125)
(0.65 0.02 0.0028125)
(0.7 0.02 0.0028125)
(0.75 0.02 0.0028125)
(0.8 0.02 0.0028125)
(0.85 0.02 0.0028125)
(0.9 0.02 0.0028125)
(0.95 0.02 0.0028125)
(1 0.02 0.0028125)
(1.05 0.02 0.0028125)
(1.1 0.02 0.0028125)
(1.15 0.02 0.0028125)
(1.2 0.02 0.0028125)
(1.25 0.02 0.0028125)
(1.3 0.02 0.0028125)
(1.35 0.02 0.0028125)
(1.4 0.02 0.0028125)
(1.45 0.02 0.0028125)
(1.5 0.02 0.0028125)
(1.55 0.02 0.0028125)
(1.6 0.02 0.0028125)
(1.65 0.02 0.0028125)
(1.7 0.02 0.0028125)
(1.75 0.02 0.0028125)
(1.8 0.02 0.0028125)
(1.85 0.02 0.0028125)
(1.9 0.02 0.0028125)
(1.95 0.02 0.0028125)
(2 0.02 0.0028125)
(2.05 0.02 0.0028125)
(2.1 0.02 0.0028125)
(2.15 0.02 0.0028125)
(2.2 0.02 0.0028125)
(2.25 0.02 0.0028125)
(2.3 0.02 0.0028125)
(2.35 0.02 0.0028125)
(2.4 0.02 0.0028125)
(2.45 0.02 0.0028125)
(2.5 0.02 0.0028125)
(2.55 0.02 0.0028125)
(2.6 0.02 0.0028125)
(2.65 0.02 0.0028125)
(2.7 0.02 0.0028125)
(2.75 0.02 0.0028125)
(2.8 0.02 0.0028125)
(2.85 0.02 0.0028125)
(2.9 0.02 0.0028125)
(2.95 0.02 0.0028125)
(3 0.02 0.0028125)
(3.05 0.02 0.0028125)
(3.1 0.02 0.0028125)
(3.15 0.02 0.0028125)
(3.2 0.02 0.0028125)
(3.25 0.02 0.0028125)
(3.3 0.02 0.0028125)
(3.35 0.02 0.0028125)
(3.4 0.02 0.0028125)
(3.45 0.02 0.0028125)
(3.5 0.02 0.0028125)
(3.55 0.02 0.0028125)
(3.6 0.02 0.0028125)
(3.65 0.02 0.0028125)
(3.7 0.02 0.0028125)
(3.75 0.02 0.0028125)
(3.8 0.02 0.0028125)
(3.85 0.02 0.0028125)
(3.9 0.02 0.0028125)
(3.95 0.02 0.0028125)
(4 0.02 0.0028125)
(4.05 0.02 0.0028125)
(4.1 0.02 0.0028125)
(4.15 0.02 0.0028125)
(4.2 0.02 0.0028125)
(4.25 0.02 0.0028125)
(4.3 0.02 0.0028125)
(4.35 0.02 0.0028125)
(4.4 0.02 0.0028125)
(4.45 0.02 0.0028125)
(4.5 0.02 0.0028125)
(4.55 0.02 0.0028125)
(4.6 0.02 0.0028125)
(4.65 0.02 0.0028125)
(4.7 0.02 0.0028125)
(4.75 0.02 0.0028125)
(4.8 0.02 0.0028125)
(4.85 0.02 0.00281242)
(4.9 0.02 0.00281328)
(4.95 0.02 0.00280164)
(5 0.02 -0.00150235)
(5.05 0.02 -0.00742941)
(5.1 0.02 -0.0110336)
(5.15 0.02 -0.0143616)
(5.2 0.02 -0.0171902)
(5.25 0.02 -0.0196923)
(5.3 0.02 -0.0219515)
(5.35 0.02 -0.0238525)
(5.4 0.02 -0.0257484)
(5.45 0.02 -0.0270985)
(5.5 0.02 -0.028916)
(5.55 0.02 -0.0304655)
(5.6 0.02 -0.0313962)
(5.65 0.02 -0.0326144)
(5.7 0.02 -0.0332307)
(5.75 0.02 -0.0342893)
(5.8 0.02 -0.0351365)
(5.85 0.02 -0.0367929)
(5.9 0.02 -0.0359562)
(5.95 0.02 -0.0368889)
(6 0.02 -0.0380294)
(6.05 0.02 -0.0388692)
(6.1 0.02 -0.0381878)
(6.15 0.02 -0.0387131)
(6.2 0.02 -0.0403688)
(6.25 0.02 -0.0391051)
(6.3 0.02 -0.040023)
(6.35 0.02 -0.0389492)
(6.4 0.02 -0.0397256)
(6.45 0.02 -0.0387392)
(6.5 0.02 -0.0396914)
(6.55 0.02 -0.0406458)
(6.6 0.02 -0.0394607)
(6.65 0.02 -0.0400218)
(6.7 0.02 -0.0384932)
(6.75 0.02 -0.03948)
(6.8 0.02 -0.0388477)
(6.85 0.02 -0.0390099)
(6.9 0.02 -0.0394961)
(6.95 0.02 -0.0381842)
(7 0.02 -0.03905)
(7.05 0.02 -0.038129)
(7.1 0.02 -0.0384059)
(7.15 0.02 -0.0375305)
(7.2 0.02 -0.0363567)
(7.25 0.02 -0.0353892)
(7.3 0.02 -0.0345063)
(7.35 0.02 -0.0350543)
(7.4 0.02 -0.0339953)
(7.45 0.02 -0.0349096)
(7.5 0.02 -0.034681)
(7.55 0.02 -0.0351237)
(7.6 0.02 -0.0349992)
(7.65 0.02 -0.0335652)
(7.7 0.02 -0.0337685)
(7.75 0.02 -0.0337632)
(7.8 0.02 -0.0347751)
(7.85 0.02 -0.034773)
(7.9 0.02 -0.0349938)
(7.95 0.02 -0.0347641)
(8 0.02 -0.034444)
(8.05 0.02 -0.0343962)
(8.1 0.02 -0.0343845)
(8.15 0.02 -0.0350651)
(8.2 0.02 -0.0351794)
(8.25 0.02 -0.0352349)
(8.3 0.02 -0.0346529)
(8.35 0.02 -0.0343151)
(8.4 0.02 -0.0335798)
(8.45 0.02 -0.0333618)
(8.5 0.02 -0.0339031)
(8.55 0.02 -0.0343148)
(8.6 0.02 -0.0347929)
(8.65 0.02 -0.034912)
(8.7 0.02 -0.0350006)
(8.75 0.02 -0.034715)
(8.8 0.02 -0.0348541)
(8.85 0.02 -0.0347744)
(8.9 0.02 -0.0360017)
(8.95 0.02 -0.0360642)
(9 0.02 -0.0360136)
(9.05 0.02 -0.0365716)
(9.1 0.02 -0.035538)
(9.15 0.02 -0.0358038)
(9.2 0.02 -0.0346035)
(9.25 0.02 -0.034266)
(9.3 0.02 -0.0341284)
(9.35 0.02 -0.0338665)
(9.4 0.02 -0.0348124)
(9.45 0.02 -0.0348973)
(9.5 0.02 -0.0359629)
(9.55 0.02 -0.0361076)
(9.6 0.02 -0.0358146)
(9.65 0.02 -0.036068)
(9.7 0.02 -0.0360912)
(9.75 0.02 -0.0353358)
(9.8 0.02 -0.0348086)
(9.85 0.02 -0.0340422)
(9.9 0.02 -0.0343017)
(9.95 0.02 -0.035134)
(10 0.02 -0.034658)
(10.05 0.02 -0.0349834)
(10.1 0.02 -0.0343975)
(10.15 0.02 -0.0345927)
(10.2 0.02 -0.0347029)
(10.25 0.02 -0.0353572)
(10.3 0.02 -0.0350356)
(10.35 0.02 -0.0351119)
(10.4 0.02 -0.0351245)
(10.45 0.02 -0.0341605)
(10.5 0.02 -0.035012)
(10.55 0.02 -0.0346005)
(10.6 0.02 -0.0352139)
(10.65 0.02 -0.0342733)
(10.7 0.02 -0.0336395)
(10.75 0.02 -0.032965)
(10.8 0.02 -0.0323983)
(10.85 0.02 -0.0331715)
(10.9 0.02 -0.0327606)
(10.95 0.02 -0.0341088)
(11 0.02 -0.0333216)
(11.05 0.02 -0.033586)
(11.1 0.02 -0.0334829)
(11.15 0.02 -0.0335409)
(11.2 0.02 -0.034267)
(11.25 0.02 -0.033751)
(11.3 0.02 -0.034313)
(11.35 0.02 -0.0333444)
(11.4 0.02 -0.0340725)
(11.45 0.02 -0.0327588)
(11.5 0.02 -0.0333645)
(11.55 0.02 -0.033773)
(11.6 0.02 -0.0346027)
(11.65 0.02 -0.0354587)
(11.7 0.02 -0.0350888)
(11.75 0.02 -0.0357431)
(11.8 0.02 -0.0344888)
(11.85 0.02 -0.0347505)
(11.9 0.02 -0.033119)
(11.95 0.02 -0.0331939)
(12 0.02 -0.0320434)
(12.05 0.02 -0.0321677)
(12.1 0.02 -0.0322962)
(12.15 0.02 -0.032591)
(12.2 0.02 -0.0335174)
(12.25 0.02 -0.0328238)
(12.3 0.02 -0.0332601)
(12.35 0.02 -0.0313124)
(12.4 0.02 -0.0324871)
(12.45 0.02 -0.0317124)
(12.5 0.02 -0.0329221)
(12.55 0.02 -0.0333774)
(12.6 0.02 -0.0335064)
(12.65 0.02 -0.0338686)
(12.7 0.02 -0.0339762)
(12.75 0.02 -0.0339034)
(12.8 0.02 -0.0331718)
(12.85 0.02 -0.0329096)
(12.9 0.02 -0.0317873)
(12.95 0.02 -0.0331916)
(13 0.02 -0.0314535)
(13.05 0.02 -0.0325155)
(13.1 0.02 -0.0305313)
(13.15 0.02 -0.0310628)
(13.2 0.02 -0.0305496)
(13.25 0.02 -0.0314682)
(13.3 0.02 -0.0318743)
(13.35 0.02 -0.0316482)
(13.4 0.02 -0.0322352)
(13.45 0.02 -0.0308293)
(13.5 0.02 -0.0315715)
(13.55 0.02 -0.0308663)
(13.6 0.02 -0.0321668)
(13.65 0.02 -0.031013)
(13.7 0.02 -0.0317991)
(13.75 0.02 -0.0307478)
(13.8 0.02 -0.0314886)
(13.85 0.02 -0.0299659)
(13.9 0.02 -0.0303643)
(13.95 0.02 -0.0284282)
(14 0.02 -0.0280995)
(14.05 0.02 -0.0268297)
(14.1 0.02 -0.0269108)
(14.15 0.02 -0.0275253)
(14.2 0.02 -0.0266421)
(14.25 0.02 -0.0276162)
(14.3 0.02 -0.027528)
(14.35 0.02 -0.0273719)
(14.4 0.02 -0.0258777)
(14.45 0.02 -0.0250028)
(14.5 0.02 -0.0229658)
(14.55 0.02 -0.0215448)
(14.6 0.02 -0.0187686)
(14.65 0.02 -0.0165779)
(14.7 0.02 -0.0125593)
(14.75 0.02 -0.00912745)
(14.8 0.02 -0.00167093)
(14.85 0.02 0.0028014)
(14.9 0.02 0.0028133)
(14.95 0.02 0.00281243)
(15 0.02 0.0028125)
(0 0 0.005625)
(0.05 0 0.005625)
(0.1 0 0.005625)
(0.15 0 0.005625)
(0.2 0 0.005625)
(0.25 0 0.005625)
(0.3 0 0.005625)
(0.35 0 0.005625)
(0.4 0 0.005625)
(0.45 0 0.005625)
(0.5 0 0.005625)
(0.55 0 0.005625)
(0.6 0 0.005625)
(0.65 0 0.005625)
(0.7 0 0.005625)
(0.75 0 0.005625)
(0.8 0 0.005625)
(0.85 0 0.005625)
(0.9 0 0.005625)
(0.95 0 0.005625)
(1 0 0.005625)
(1.05 0 0.005625)
(1.1 0 0.005625)
(1.15 0 0.005625)
(1.2 0 0.005625)
(1.25 0 0.005625)
(1.3 0 0.005625)
(1.35 0 0.005625)
(1.4 0 0.005625)
(1.45 0 0.005625)
(1.5 0 0.005625)
(1.55 0 0.005625)
(1.6 0 0.005625)
(1.65 0 0.005625)
(1.7 0 0.005625)
(1.75 0 0.005625)
(1.8 0 0.005625)
(1.85 0 0.005625)
(1.9 0 0.005625)
(1.95 0 0.005625)
(2 0 0.005625)
(2.05 0 0.005625)
(2.1 0 0.005625)
(2.15 0 0.005625)
(2.2 0 0.005625)
(2.25 0 0.005625)
(2.3 0 0.005625)
(2.35 0 0.005625)
(2.4 0 0.005625)
(2.45 0 0.005625)
(2.5 0 0.005625)
(2.55 0 0.005625)
(2.6 0 0.005625)
(2.65 0 0.005625)
(2.7 0 0.005625)
(2.75 0 0.005625)
(2.8 0 0.005625)
(2.85 0 0.005625)
(2.9 0 0.005625)
(2.95 0 0.005625)
(3 0 0.005625)
(3.05 0 0.005625)
(3.1 0 0.005625)
(3.15 0 0.005625)
(3.2 0 0.005625)
(3.25 0 0.005625)
(3.3 0 0.005625)
(3.35 0 0.005625)
(3.4 0 0.005625)
(3.45 0 0.005625)
(3.5 0 0.005625)
(3.55 0 0.005625)
(3.6 0 0.005625)
(3.65 0 0.005625)
(3.7 0 0.005625)
(3.75 0 0.005625)
(3.8 0 0.005625)
(3.85 0 0.005625)
(3.9 0 0.005625)
(3.95 0 0.005625)
(4 0 0.005625)
(4.05 0 0.005625)
(4.1 0 0.005625)
(4.15 0 0.005625)
(4.2 0 0.005625)
(4.25 0 0.005625)
(4.3 0 0.005625)
(4.35 0 0.005625)
(4.4 0 0.005625)
(4.45 0 0.005625)
(4.5 0 0.005625)
(4.55 0 0.00562499)
(4.6 0 0.00562499)
(4.65 0 0.00562499)
(4.7 0 0.00562498)
(4.75 0 0.00562497)
(4.8 0 0.00562496)
(4.85 0 0.00562467)
(4.9 0 0.00562725)
(4.95 0 0.00558962)
(5 0 0.00131595)
(5.05 0 -0.00458613)
(5.1 0 -0.00821425)
(5.15 0 -0.0115401)
(5.2 0 -0.0143716)
(5.25 0 -0.0168749)
(5.3 0 -0.0191338)
(5.35 0 -0.0210381)
(5.4 0 -0.0229302)
(5.45 0 -0.0242889)
(5.5 0 -0.0261015)
(5.55 0 -0.0276498)
(5.6 0 -0.0285882)
(5.65 0 -0.0297994)
(5.7 0 -0.030424)
(5.75 0 -0.0314768)
(5.8 0 -0.0323331)
(5.85 0 -0.0339638)
(5.9 0 -0.03316)
(5.95 0 -0.0340794)
(6 0 -0.0352183)
(6.05 0 -0.0360486)
(6.1 0 -0.0353869)
(6.15 0 -0.0359119)
(6.2 0 -0.0375364)
(6.25 0 -0.0363135)
(6.3 0 -0.0371974)
(6.35 0 -0.036155)
(6.4 0 -0.0369019)
(6.45 0 -0.0359442)
(6.5 0 -0.0368823)
(6.55 0 -0.0378207)
(6.6 0 -0.0366661)
(6.65 0 -0.0371954)
(6.7 0 -0.035703)
(6.75 0 -0.0366577)
(6.8 0 -0.036045)
(6.85 0 -0.0362039)
(6.9 0 -0.036673)
(6.95 0 -0.0353922)
(7 0 -0.0362269)
(7.05 0 -0.0353301)
(7.1 0 -0.0355885)
(7.15 0 -0.0347198)
(7.2 0 -0.0335491)
(7.25 0 -0.03258)
(7.3 0 -0.0317084)
(7.35 0 -0.0322324)
(7.4 0 -0.0312014)
(7.45 0 -0.0320912)
(7.5 0 -0.0318778)
(7.55 0 -0.0323113)
(7.6 0 -0.0321802)
(7.65 0 -0.0307682)
(7.7 0 -0.0309568)
(7.75 0 -0.0309618)
(7.8 0 -0.031958)
(7.85 0 -0.0319666)
(7.9 0 -0.0321816)
(7.95 0 -0.0319548)
(8 0 -0.031637)
(8.05 0 -0.0315869)
(8.1 0 -0.0315805)
(8.15 0 -0.0322516)
(8.2 0 -0.0323707)
(8.25 0 -0.0324213)
(8.3 0 -0.0318461)
(8.35 0 -0.0315028)
(8.4 0 -0.030774)
(8.45 0 -0.0305578)
(8.5 0 -0.0310928)
(8.55 0 -0.0315065)
(8.6 0 -0.0319812)
(8.65 0 -0.0321031)
(8.7 0 -0.0321888)
(8.75 0 -0.0319095)
(8.8 0 -0.0320429)
(8.85 0 -0.031975)
(8.9 0 -0.0331836)
(8.95 0 -0.0332547)
(9 0 -0.0332097)
(9.05 0 -0.03375)
(9.1 0 -0.0327394)
(9.15 0 -0.0329832)
(9.2 0 -0.0318011)
(9.25 0 -0.0314582)
(9.3 0 -0.0313179)
(9.35 0 -0.031066)
(9.4 0 -0.0319957)
(9.45 0 -0.0320955)
(9.5 0 -0.0331465)
(9.55 0 -0.0332956)
(9.6 0 -0.0330095)
(9.65 0 -0.0332576)
(9.7 0 -0.0332766)
(9.75 0 -0.0325284)
(9.8 0 -0.0319965)
(9.85 0 -0.0312394)
(9.9 0 -0.0314963)
(9.95 0 -0.0323147)
(10 0 -0.0318559)
(10.05 0 -0.0321672)
(10.1 0 -0.0315943)
(10.15 0 -0.031782)
(10.2 0 -0.0318975)
(10.25 0 -0.03254)
(10.3 0 -0.0322292)
(10.35 0 -0.0323023)
(10.4 0 -0.0323071)
(10.45 0 -0.0313645)
(10.5 0 -0.0321918)
(10.55 0 -0.0317994)
(10.6 0 -0.0323921)
(10.65 0 -0.0314661)
(10.7 0 -0.030829)
(10.75 0 -0.0301552)
(10.8 0 -0.0295984)
(10.85 0 -0.0303517)
(10.9 0 -0.0299643)
(10.95 0 -0.0312816)
(11 0 -0.0305202)
(11.05 0 -0.0307727)
(11.1 0 -0.0306739)
(11.15 0 -0.0307361)
(11.2 0 -0.0314474)
(11.25 0 -0.0309502)
(11.3 0 -0.0314905)
(11.35 0 -0.0305478)
(11.4 0 -0.0312454)
(11.45 0 -0.0299626)
(11.5 0 -0.0305514)
(11.55 0 -0.0309655)
(11.6 0 -0.0317929)
(11.65 0 -0.0326395)
(11.7 0 -0.032288)
(11.75 0 -0.0329181)
(11.8 0 -0.0316912)
(11.85 0 -0.0319245)
(11.9 0 -0.0303218)
(11.95 0 -0.0303733)
(12 0 -0.0292429)
(12.05 0 -0.0293574)
(12.1 0 -0.0294873)
(12.15 0 -0.0297859)
(12.2 0 -0.0306945)
(12.25 0 -0.0300236)
(12.3 0 -0.0304296)
(12.35 0 -0.0285248)
(12.4 0 -0.0296602)
(12.45 0 -0.0289172)
(12.5 0 -0.0301053)
(12.55 0 -0.0305653)
(12.6 0 -0.0306979)
(12.65 0 -0.0310565)
(12.7 0 -0.0311652)
(12.75 0 -0.0310882)
(12.8 0 -0.0303657)
(12.85 0 -0.0300915)
(12.9 0 -0.0289962)
(12.95 0 -0.030355)
(13 0 -0.0286651)
(13.05 0 -0.0296796)
(13.1 0 -0.0277398)
(13.15 0 -0.028243)
(13.2 0 -0.0277498)
(13.25 0 -0.0286533)
(13.3 0 -0.0290591)
(13.35 0 -0.0288447)
(13.4 0 -0.0294084)
(13.45 0 -0.0280348)
(13.5 0 -0.0287482)
(13.55 0 -0.0280712)
(13.6 0 -0.0293356)
(13.65 0 -0.0282173)
(13.7 0 -0.0289724)
(13.75 0 -0.0279512)
(13.8 0 -0.0286587)
(13.85 0 -0.0271703)
(13.9 0 -0.0275339)
(13.95 0 -0.0256291)
(14 0 -0.0252797)
(14.05 0 -0.0240276)
(14.1 0 -0.0241034)
(14.15 0 -0.0247021)
(14.2 0 -0.0238442)
(14.25 0 -0.0247952)
(14.3 0 -0.0247165)
(14.35 0 -0.0245489)
(14.4 0 -0.0230701)
(14.45 0 -0.02218)
(14.5 0 -0.0201573)
(14.55 0 -0.0187192)
(14.6 0 -0.0159585)
(14.65 0 -0.0137456)
(14.7 0 -0.00974722)
(14.75 0 -0.00626546)
(14.8 0 0.00114375)
(14.85 0 0.00558884)
(14.9 0 0.00562729)