/*--------------------------------*- C++ -*----------------------------------*\
| =========                 |                                                 |
| \\      /  F ield         | foam-extend: Open Source CFD                    |
|  \\    /   O peration     | Version:     3.2                                |
|   \\  /    A nd           | Web:         http://www.foam-extend.org         |
|    \\/     M anipulation  | For copyright notice see file Copyright         |
\*---------------------------------------------------------------------------*/
FoamFile
{
    version     2.0;
    format      ascii;
    class       pointVectorField;
    location    "160";
    object      newPoints;
}
// * * * * * * * * * * * * * * * * * * * * * * * * * * * * * * * * * * * * * //

dimensions      [0 1 0 0 0 0 0];

internalField   nonuniform List<vector> 
602
(
(0 0 0)
(0.05 0 0)
(0.1 0 0)
(0.15 0 0)
(0.2 0 0)
(0.25 0 0)
(0.3 0 0)
(0.35 0 0)
(0.4 0 0)
(0.45 0 0)
(0.5 0 0)
(0.55 0 0)
(0.6 0 0)
(0.65 0 0)
(0.7 0 0)
(0.75 0 0)
(0.8 0 0)
(0.85 0 0)
(0.9 0 0)
(0.95 0 0)
(1 0 0)
(1.05 0 0)
(1.1 0 0)
(1.15 0 0)
(1.2 0 0)
(1.25 0 0)
(1.3 0 0)
(1.35 0 0)
(1.4 0 0)
(1.45 0 0)
(1.5 0 0)
(1.55 0 0)
(1.6 0 0)
(1.65 0 0)
(1.7 0 0)
(1.75 0 0)
(1.8 0 0)
(1.85 0 0)
(1.9 0 0)
(1.95 0 0)
(2 0 0)
(2.05 0 0)
(2.1 0 0)
(2.15 0 0)
(2.2 0 0)
(2.25 0 0)
(2.3 0 0)
(2.35 0 0)
(2.4 0 0)
(2.45 0 0)
(2.5 0 0)
(2.55 0 0)
(2.6 0 0)
(2.65 0 0)
(2.7 0 0)
(2.75 0 0)
(2.8 0 0)
(2.85 0 0)
(2.9 0 0)
(2.95 0 0)
(3 0 0)
(3.05 0 0)
(3.1 0 0)
(3.15 0 0)
(3.2 0 0)
(3.25 0 0)
(3.3 0 0)
(3.35 0 0)
(3.4 0 0)
(3.45 0 0)
(3.5 0 0)
(3.55 0 0)
(3.6 0 0)
(3.65 0 0)
(3.7 0 0)
(3.75 0 0)
(3.8 0 0)
(3.85 0 0)
(3.9 0 0)
(3.95 0 0)
(4 0 0)
(4.05 0 0)
(4.1 0 0)
(4.15 0 0)
(4.2 0 0)
(4.25 0 0)
(4.3 0 0)
(4.35 0 0)
(4.4 0 0)
(4.45 0 0)
(4.5 0 0)
(4.55 0 0)
(4.6 0 0)
(4.65 0 0)
(4.7 0 0)
(4.75 0 0)
(4.8 0 0)
(4.85 0 0)
(4.9 0 0)
(4.95 0 0)
(5 0 -0.00432538)
(5.05 0 -0.0102649)
(5.1 0 -0.0138525)
(5.15 0 -0.0171813)
(5.2 0 -0.0200077)
(5.25 0 -0.0225088)
(5.3 0 -0.0247677)
(5.35 0 -0.0266668)
(5.4 0 -0.0285645)
(5.45 0 -0.0299095)
(5.5 0 -0.0317294)
(5.55 0 -0.0332788)
(5.6 0 -0.0342049)
(5.65 0 -0.0354269)
(5.7 0 -0.0360384)
(5.75 0 -0.0371002)
(5.8 0 -0.0379426)
(5.85 0 -0.0396128)
(5.9 0 -0.0387578)
(5.95 0 -0.0396979)
(6 0 -0.0408393)
(6.05 0 -0.0416842)
(6.1 0 -0.0409919)
(6.15 0 -0.0415178)
(6.2 0 -0.0431904)
(6.25 0 -0.0419042)
(6.3 0 -0.0428404)
(6.35 0 -0.0417495)
(6.4 0 -0.042542)
(6.45 0 -0.0415399)
(6.5 0 -0.0424998)
(6.55 0 -0.043463)
(6.6 0 -0.0422612)
(6.65 0 -0.0428398)
(6.7 0 -0.0412916)
(6.75 0 -0.0422955)
(6.8 0 -0.0416524)
(6.85 0 -0.0418164)
(6.9 0 -0.0423121)
(6.95 0 -0.0409833)
(7 0 -0.041866)
(7.05 0 -0.0409315)
(7.1 0 -0.0412184)
(7.15 0 -0.0403394)
(7.2 0 -0.0391641)
(7.25 0 -0.0381975)
(7.3 0 -0.0373085)
(7.35 0 -0.0378696)
(7.4 0 -0.0367955)
(7.45 0 -0.0377229)
(7.5 0 -0.0374859)
(7.55 0 -0.0379337)
(7.6 0 -0.0378129)
(7.65 0 -0.0363671)
(7.7 0 -0.0365781)
(7.75 0 -0.0365675)
(7.8 0 -0.0375878)
(7.85 0 -0.0375798)
(7.9 0 -0.0378036)
(7.95 0 -0.0375725)
(8 0 -0.0372511)
(8.05 0 -0.0372045)
(8.1 0 -0.0371901)
(8.15 0 -0.0378759)
(8.2 0 -0.0379874)
(8.25 0 -0.0380457)
(8.3 0 -0.03746)
(8.35 0 -0.0371253)
(8.4 0 -0.0363864)
(8.45 0 -0.0361674)
(8.5 0 -0.0367122)
(8.55 0 -0.0371228)
(8.6 0 -0.0376026)
(8.65 0 -0.0377201)
(8.7 0 -0.0378102)
(8.75 0 -0.0375212)
(8.8 0 -0.0376636)
(8.85 0 -0.0375778)
(8.9 0 -0.0388152)
(8.95 0 -0.0388726)
(9 0 -0.038819)
(9.05 0 -0.0393868)
(9.1 0 -0.0383406)
(9.15 0 -0.0386185)
(9.2 0 -0.0374085)
(9.25 0 -0.0370737)
(9.3 0 -0.0369377)
(9.35 0 -0.0366704)
(9.4 0 -0.037625)
(9.45 0 -0.0377019)
(9.5 0 -0.0387753)
(9.55 0 -0.0389177)
(9.6 0 -0.0386211)
(9.65 0 -0.0388773)
(9.7 0 -0.0389027)
(9.75 0 -0.0381433)
(9.8 0 -0.0376187)
(9.85 0 -0.0368473)
(9.9 0 -0.0371083)
(9.95 0 -0.0379481)
(10 0 -0.0374628)
(10.05 0 -0.0377959)
(10.1 0 -0.0372029)
(10.15 0 -0.0374022)
(10.2 0 -0.0375095)
(10.25 0 -0.0381703)
(10.3 0 -0.0378428)
(10.35 0 -0.0379209)
(10.4 0 -0.0379379)
(10.45 0 -0.0369624)
(10.5 0 -0.0378269)
(10.55 0 -0.037405)
(10.6 0 -0.0380297)
(10.65 0 -0.0370811)
(10.7 0 -0.0364491)
(10.75 0 -0.0357744)
(10.8 0 -0.0352023)
(10.85 0 -0.0359864)
(10.9 0 -0.0355629)
(10.95 0 -0.0369278)
(11 0 -0.0361263)
(11.05 0 -0.0363971)
(11.1 0 -0.0362916)
(11.15 0 -0.0363475)
(11.2 0 -0.0370819)
(11.25 0 -0.0365557)
(11.3 0 -0.0371296)
(11.35 0 -0.0361468)
(11.4 0 -0.0368916)
(11.45 0 -0.0355611)
(11.5 0 -0.0361758)
(11.55 0 -0.0365812)
(11.6 0 -0.0374124)
(11.65 0 -0.0382734)
(11.7 0 -0.0378933)
(11.75 0 -0.0385609)
(11.8 0 -0.0372915)
(11.85 0 -0.0375687)
(11.9 0 -0.0359217)
(11.95 0 -0.0360091)
(12 0 -0.034848)
(12.05 0 -0.0349775)
(12.1 0 -0.0351052)
(12.15 0 -0.0353981)
(12.2 0 -0.0363342)
(12.25 0 -0.0356281)
(12.3 0 -0.0360813)
(12.35 0 -0.0341104)
(12.4 0 -0.0353063)
(12.45 0 -0.0345144)
(12.5 0 -0.0357358)
(12.55 0 -0.0361882)
(12.6 0 -0.0363151)
(12.65 0 -0.0366792)
(12.7 0 -0.0367863)
(12.75 0 -0.036716)
(12.8 0 -0.0359795)
(12.85 0 -0.0357238)
(12.9 0 -0.0345871)
(12.95 0 -0.0360163)
(13 0 -0.0342518)
(13.05 0 -0.0353399)
(13.1 0 -0.0333315)
(13.15 0 -0.0338779)
(13.2 0 -0.0333539)
(13.25 0 -0.0342808)
(13.3 0 -0.034687)
(13.35 0 -0.0344547)
(13.4 0 -0.0350547)
(13.45 0 -0.0336312)
(13.5 0 -0.0343889)
(13.55 0 -0.0336685)
(13.6 0 -0.0349889)
(13.65 0 -0.0338156)
(13.7 0 -0.0346186)
(13.75 0 -0.033551)
(13.8 0 -0.0343102)
(13.85 0 -0.0327687)
(13.9 0 -0.0331862)
(13.95 0 -0.0312331)
(14 0 -0.0309153)
(14.05 0 -0.0296359)
(14.1 0 -0.0297199)
(14.15 0 -0.0303432)
(14.2 0 -0.0294466)
(14.25 0 -0.0304331)
(14.3 0 -0.0303397)
(14.35 0 -0.0301903)
(14.4 0 -0.0286879)
(14.45 0 -0.0278216)
(14.5 0 -0.0257769)
(14.55 0 -0.0243656)
(14.6 0 -0.0215812)
(14.65 0 -0.0194038)
(14.7 0 -0.0153747)
(14.75 0 -0.0119757)
(14.8 0 -0.00449506)
(14.85 0 0)
(14.9 0 0)
(14.95 0 0)
(15 0 0)
(0 0.02 0)
(0.05 0.02 0)
(0.1 0.02 0)
(0.15 0.02 0)
(0.2 0.02 0)
(0.25 0.02 0)
(0.3 0.02 0)
(0.35 0.02 0)
(0.4 0.02 0)
(0.45 0.02 0)
(0.5 0.02 0)
(0.55 0.02 0)
(0.6 0.02 0)
(0.65 0.02 0)
(0.7 0.02 0)
(0.75 0.02 0)
(0.8 0.02 0)
(0.85 0.02 0)
(0.9 0.02 0)
(0.95 0.02 0)
(1 0.02 0)
(1.05 0.02 0)
(1.1 0.02 0)
(1.15 0.02 0)
(1.2 0.02 0)
(1.25 0.02 0)
(1.3 0.02 0)
(1.35 0.02 0)
(1.4 0.02 0)
(1.45 0.02 0)
(1.5 0.02 0)
(1.55 0.02 0)
(1.6 0.02 0)
(1.65 0.02 0)
(1.7 0.02 0)
(1.75 0.02 0)
(1.8 0.02 0)
(1.85 0.02 0)
(1.9 0.02 0)
(1.95 0.02 0)
(2 0.02 0)
(2.05 0.02 0)
(2.1 0.02 0)
(2.15 0.02 0)
(2.2 0.02 0)
(2.25 0.02 0)
(2.3 0.02 0)
(2.35 0.02 0)
(2.4 0.02 0)
(2.45 0.02 0)
(2.5 0.02 0)
(2.55 0.02 0)
(2.6 0.02 0)
(2.65 0.02 0)
(2.7 0.02 0)
(2.75 0.02 0)
(2.8 0.02 0)
(2.85 0.02 0)
(2.9 0.02 0)
(2.95 0.02 0)
(3 0.02 0)
(3.05 0.02 0)
(3.1 0.02 0)
(3.15 0.02 0)
(3.2 0.02 0)
(3.25 0.02 0)
(3.3 0.02 0)
(3.35 0.02 0)
(3.4 0.02 0)
(3.45 0.02 0)
(3.5 0.02 0)
(3.55 0.02 0)
(3.6 0.02 0)
(3.65 0.02 0)
(3.7 0.02 0)
(3.75 0.02 0)
(3.8 0.02 0)
(3.85 0.02 0)
(3.9 0.02 0)
(3.95 0.02 0)
(4 0.02 0)
(4.05 0.02 0)
(4.1 0.02 0)
(4.15 0.02 0)
(4.2 0.02 0)
(4.25 0.02 0)
(4.3 0.02 0)
(4.35 0.02 0)
(4.4 0.02 0)
(4.45 0.02 0)
(4.5 0.02 0)
(4.55 0.02 0)
(4.6 0.02 0)
(4.65 0.02 0)
(4.7 0.02 0)
(4.75 0.02 0)
(4.8 0.02 0)
(4.85 0.02 0)
(4.9 0.02 0)
(4.95 0.02 0)
(5 0.02 -0.00432538)
(5.05 0.02 -0.0102649)
(5.1 0.02 -0.0138525)
(5.15 0.02 -0.0171813)
(5.2 0.02 -0.0200077)
(5.25 0.02 -0.0225088)
(5.3 0.02 -0.0247677)
(5.35 0.02 -0.0266668)
(5.4 0.02 -0.0285645)
(5.45 0.02 -0.0299095)
(5.5 0.02 -0.0317294)
(5.55 0.02 -0.0332788)
(5.6 0.02 -0.0342049)
(5.65 0.02 -0.0354269)
(5.7 0.02 -0.0360384)
(5.75 0.02 -0.0371002)
(5.8 0.02 -0.0379426)
(5.85 0.02 -0.0396128)
(5.9 0.02 -0.0387578)
(5.95 0.02 -0.0396979)
(6 0.02 -0.0408393)
(6.05 0.02 -0.0416842)
(6.1 0.02 -0.0409919)
(6.15 0.02 -0.0415178)
(6.2 0.02 -0.0431904)
(6.25 0.02 -0.0419042)
(6.3 0.02 -0.0428404)
(6.35 0.02 -0.0417495)
(6.4 0.02 -0.042542)
(6.45 0.02 -0.0415399)
(6.5 0.02 -0.0424998)
(6.55 0.02 -0.043463)
(6.6 0.02 -0.0422612)
(6.65 0.02 -0.0428398)
(6.7 0.02 -0.0412916)
(6.75 0.02 -0.0422955)
(6.8 0.02 -0.0416524)
(6.85 0.02 -0.0418164)
(6.9 0.02 -0.0423121)
(6.95 0.02 -0.0409833)
(7 0.02 -0.041866)
(7.05 0.02 -0.0409315)
(7.1 0.02 -0.0412184)
(7.15 0.02 -0.0403394)
(7.2 0.02 -0.0391641)
(7.25 0.02 -0.0381975)
(7.3 0.02 -0.0373085)
(7.35 0.02 -0.0378696)
(7.4 0.02 -0.0367955)
(7.45 0.02 -0.0377229)
(7.5 0.02 -0.0374859)
(7.55 0.02 -0.0379337)
(7.6 0.02 -0.0378129)
(7.65 0.02 -0.0363671)
(7.7 0.02 -0.0365781)
(7.75 0.02 -0.0365675)
(7.8 0.02 -0.0375878)
(7.85 0.02 -0.0375798)
(7.9 0.02 -0.0378036)
(7.95 0.02 -0.0375725)
(8 0.02 -0.0372511)
(8.05 0.02 -0.0372045)
(8.1 0.02 -0.0371901)
(8.15 0.02 -0.0378759)
(8.2 0.02 -0.0379874)
(8.25 0.02 -0.0380457)
(8.3 0.02 -0.03746)
(8.35 0.02 -0.0371253)
(8.4 0.02 -0.0363864)
(8.45 0.02 -0.0361674)
(8.5 0.02 -0.0367122)
(8.55 0.02 -0.0371228)
(8.6 0.02 -0.0376026)
(8.65 0.02 -0.0377201)
(8.7 0.02 -0.0378102)
(8.75 0.02 -0.0375212)
(8.8 0.02 -0.0376636)
(8.85 0.02 -0.0375778)
(8.9 0.02 -0.0388152)
(8.95 0.02 -0.0388726)
(9 0.02 -0.038819)
(9.05 0.02 -0.0393868)
(9.1 0.02 -0.0383406)
(9.15 0.02 -0.0386185)
(9.2 0.02 -0.0374085)
(9.25 0.02 -0.0370737)
(9.3 0.02 -0.0369377)
(9.35 0.02 -0.0366704)
(9.4 0.02 -0.037625)
(9.45 0.02 -0.0377019)
(9.5 0.02 -0.0387753)
(9.55 0.02 -0.0389177)
(9.6 0.02 -0.0386211)
(9.65 0.02 -0.0388773)
(9.7 0.02 -0.0389027)
(9.75 0.02 -0.0381433)
(9.8 0.02 -0.0376187)
(9.85 0.02 -0.0368473)
(9.9 0.02 -0.0371083)
(9.95 0.02 -0.0379481)
(10 0.02 -0.0374628)
(10.05 0.02 -0.0377959)
(10.1 0.02 -0.0372029)
(10.15 0.02 -0.0374022)
(10.2 0.02 -0.0375095)
(10.25 0.02 -0.0381703)
(10.3 0.02 -0.0378428)
(10.35 0.02 -0.0379209)
(10.4 0.02 -0.0379379)
(10.45 0.02 -0.0369624)
(10.5 0.02 -0.0378269)
(10.55 0.02 -0.037405)
(10.6 0.02 -0.0380297)
(10.65 0.02 -0.0370811)
(10.7 0.02 -0.0364491)
(10.75 0.02 -0.0357744)
(10.8 0.02 -0.0352023)
(10.85 0.02 -0.0359864)
(10.9 0.02 -0.0355629)
(10.95 0.02 -0.0369278)
(11 0.02 -0.0361263)
(11.05 0.02 -0.0363971)
(11.1 0.02 -0.0362916)
(11.15 0.02 -0.0363475)
(11.2 0.02 -0.0370819)
(11.25 0.02 -0.0365557)
(11.3 0.02 -0.0371296)
(11.35 0.02 -0.0361468)
(11.4 0.02 -0.0368916)
(11.45 0.02 -0.0355611)
(11.5 0.02 -0.0361758)
(11.55 0.02 -0.0365812)
(11.6 0.02 -0.0374124)
(11.65 0.02 -0.0382734)
(11.7 0.02 -0.0378933)
(11.75 0.02 -0.0385609)
(11.8 0.02 -0.0372915)
(11.85 0.02 -0.0375687)
(11.9 0.02 -0.0359217)
(11.95 0.02 -0.0360091)
(12 0.02 -0.034848)
(12.05 0.02 -0.0349775)
(12.1 0.02 -0.0351052)
(12.15 0.02 -0.0353981)
(12.2 0.02 -0.0363342)
(12.25 0.02 -0.0356281)
(12.3 0.02 -0.0360813)
(12.35 0.02 -0.0341104)
(12.4 0.02 -0.0353063)
(12.45 0.02 -0.0345144)
(12.5 0.02 -0.0357358)
(12.55 0.02 -0.0361882)
(12.6 0.02 -0.0363151)
(12.65 0.02 -0.0366792)
(12.7 0.02 -0.0367863)
(12.75 0.02 -0.036716)
(12.8 0.02 -0.0359795)
(12.85 0.02 -0.0357238)
(12.9 0.02 -0.0345871)
(12.95 0.02 -0.0360163)
(13 0.02 -0.0342518)
(13.05 0.02 -0.0353399)
(13.1 0.02 -0.0333315)
(13.15 0.02 -0.0338779)
(13.2 0.02 -0.0333539)
(13.25 0.02 -0.0342808)
(13.3 0.02 -0.034687)
(13.35 0.02 -0.0344547)
(13.4 0.02 -0.0350547)
(13.45 0.02 -0.0336312)
(13.5 0.02 -0.0343889)
(13.55 0.02 -0.0336685)
(13.6 0.02 -0.0349889)
(13.65 0.02 -0.0338156)
(13.7 0.02 -0.0346186)
(13.75 0.02 -0.033551)
(13.8 0.02 -0.0343102)
(13.85 0.02 -0.0327687)
(13.9 0.02 -0.0331862)
(13.95 0.02 -0.0312331)
(14 0.02 -0.0309153)
(14.05 0.02 -0.0296359)
(14.1 0.02 -0.0297199)
(14.15 0.02 -0.0303432)
(14.2 0.02 -0.0294466)
(14.25 0.02 -0.0304331)
(14.3 0.02 -0.0303397)
(14.35 0.02 -0.0301903)
(14.4 0.02 -0.0286879)
(14.45 0.02 -0.0278216)
(14.5 0.02 -0.0257769)
(14.55 0.02 -0.0243656)
(14.6 0.02 -0.0215812)
(14.65 0.02 -0.0194038)
(14.7 0.02 -0.0153747)
(14.75 0.02 -0.0119757)
(14.8 0.02 -0.00449506)
(14.85 0.02 0)
(14.9 0.02 0)
(14.95 0.02 0)
(15 0.02 0)
)
;

boundaryField
{
    inlet
    {
        type            zeroGradient;
    }
    outlet
    {
        type            zeroGradient;
    }
    sideWall
    {
        type            empty;
    }
    bed
    {
        type            zeroGradient;
    }
    topWall
    {
        type            zeroGradient;
    }
}


// ************************************************************************* //
