/*--------------------------------*- C++ -*----------------------------------*\
| =========                 |                                                 |
| \\      /  F ield         | foam-extend: Open Source CFD                    |
|  \\    /   O peration     | Version:     3.2                                |
|   \\  /    A nd           | Web:         http://www.foam-extend.org         |
|    \\/     M anipulation  | For copyright notice see file Copyright         |
\*---------------------------------------------------------------------------*/
FoamFile
{
    version     2.0;
    format      ascii;
    class       volScalarField;
    location    "160";
    object      nut;
}
// * * * * * * * * * * * * * * * * * * * * * * * * * * * * * * * * * * * * * //

dimensions      [0 2 -1 0 0 0 0];

internalField   nonuniform List<scalar> 
96000
(
0.000133293
0.000106227
8.82923e-05
7.89945e-05
7.59941e-05
7.48668e-05
7.4095e-05
7.33396e-05
7.25384e-05
7.17134e-05
7.09296e-05
7.01954e-05
6.95099e-05
6.88752e-05
6.829e-05
6.77496e-05
6.72455e-05
6.67746e-05
6.63459e-05
6.60831e-05
6.58371e-05
6.55951e-05
6.53571e-05
6.51254e-05
6.49043e-05
6.46897e-05
6.44828e-05
6.42794e-05
6.40848e-05
6.38955e-05
6.37148e-05
6.35369e-05
6.3366e-05
6.31979e-05
6.30371e-05
6.28802e-05
6.27285e-05
6.25802e-05
6.24361e-05
6.2295e-05
6.21596e-05
6.20259e-05
6.1898e-05
6.17702e-05
6.16487e-05
6.15267e-05
6.14119e-05
6.12959e-05
6.11862e-05
6.10755e-05
6.09706e-05
6.08645e-05
6.0765e-05
6.06635e-05
6.05687e-05
6.04708e-05
6.03804e-05
6.0287e-05
6.0193e-05
6.01005e-05
6.00099e-05
5.99216e-05
5.98352e-05
5.97507e-05
5.96685e-05
5.95882e-05
5.95099e-05
5.94336e-05
5.93592e-05
5.92871e-05
5.9217e-05
5.91496e-05
5.90843e-05
5.90221e-05
5.89616e-05
5.89058e-05
5.88515e-05
5.88029e-05
5.87566e-05
5.87173e-05
5.86806e-05
5.86536e-05
5.86301e-05
5.86189e-05
5.86176e-05
5.86188e-05
5.8637e-05
5.86808e-05
5.87298e-05
5.8822e-05
5.89075e-05
5.90863e-05
5.92309e-05
5.95081e-05
5.98483e-05
6.03416e-05
6.13423e-05
6.09725e-05
6.83244e-05
5.93838e-05
4.81996e-05
4.76495e-05
4.79189e-05
4.80408e-05
4.96553e-05
4.95515e-05
5.05506e-05
4.99387e-05
5.11914e-05
5.07757e-05
4.78968e-05
5.14657e-05
4.9213e-05
5.16974e-05
5.06769e-05
5.33112e-05
4.73521e-05
5.17533e-05
5.39996e-05
4.83005e-05
4.81541e-05
5.04352e-05
5.55502e-05
4.69733e-05
5.22005e-05
5.09641e-05
5.18428e-05
5.19692e-05
4.95984e-05
5.32656e-05
4.74038e-05
5.35316e-05
4.97518e-05
5.42971e-05
5.34195e-05
4.82928e-05
5.33525e-05
4.79328e-05
5.46724e-05
5.04614e-05
4.91535e-05
5.22638e-05
4.85571e-05
5.51444e-05
5.27697e-05
5.72707e-05
5.15771e-05
5.25988e-05
5.16509e-05
5.02682e-05
5.24877e-05
4.83788e-05
5.61653e-05
5.52002e-05
5.1992e-05
5.04634e-05
4.95063e-05
5.09831e-05
5.09314e-05
5.40964e-05
5.29537e-05
5.44678e-05
5.03213e-05
4.87975e-05
4.97425e-05
5.21796e-05
5.35162e-05
5.42275e-05
5.68667e-05
5.07948e-05
4.9503e-05
4.95403e-05
5.00836e-05
5.0378e-05
5.30897e-05
5.20588e-05
5.49957e-05
4.99962e-05
4.75997e-05
5.38514e-05
4.81162e-05
5.22259e-05
5.09298e-05
5.05734e-05
5.61265e-05
5.08736e-05
5.4795e-05
4.987e-05
5.0223e-05
4.95388e-05
4.70843e-05
5.28458e-05
5.06674e-05
4.92312e-05
5.25551e-05
5.41205e-05
5.4326e-05
5.66973e-05
4.84263e-05
4.92019e-05
5.01138e-05
5.14429e-05
5.2791e-05
5.15605e-05
5.07317e-05
4.97604e-05
5.23785e-05
4.78056e-05
5.56576e-05
5.03483e-05
4.94114e-05
4.97259e-05
4.95638e-05
5.41981e-05
5.15063e-05
5.72408e-05
5.01834e-05
5.21814e-05
4.86162e-05
4.8506e-05
5.23602e-05
4.99204e-05
5.48489e-05
4.87838e-05
5.20218e-05
4.9522e-05
5.45265e-05
5.02577e-05
5.09616e-05
5.39478e-05
4.97655e-05
4.97965e-05
4.75153e-05
5.27311e-05
4.75301e-05
5.29786e-05
5.03705e-05
5.14743e-05
5.25027e-05
5.07397e-05
5.40121e-05
5.01431e-05
5.39197e-05
4.78244e-05
5.33405e-05
4.76021e-05
5.55919e-05
5.17644e-05
4.97658e-05
5.14034e-05
4.7958e-05
5.16491e-05
4.85501e-05
4.97341e-05
4.76882e-05
5.35722e-05
4.89294e-05
5.71049e-05
4.94338e-05
5.2348e-05
4.9884e-05
5.0032e-05
5.41582e-05
4.9295e-05
5.11655e-05
4.65404e-05
5.35403e-05
4.72429e-05
5.4038e-05
5.0468e-05
5.17087e-05
4.79459e-05
4.98928e-05
4.92639e-05
5.03626e-05
4.81074e-05
5.0623e-05
4.97037e-05
5.02341e-05
5.39299e-05
5.06356e-05
5.567e-05
4.69287e-05
5.14659e-05
4.8457e-05
4.6426e-05
4.69096e-05
5.07854e-05
5.0113e-05
5.18638e-05
5.0641e-05
5.37931e-05
5.06951e-05
5.63874e-05
5.19617e-05
6.23107e-05
7.30786e-05
5.93156e-05
5.2735e-05
5.0671e-05
9.19619e-05
0.00013619
0.000148935
0.000161679
0.000171817
0.000178851
0.000183419
0.000185981
0.000187203
0.000187553
0.000187557
0.000187287
0.000186855
0.000186314
0.00018572
0.000185108
0.000184462
0.000183819
0.000183174
0.000182567
0.000181962
0.00018136
0.000180769
0.000180194
0.000179636
0.000179091
0.00017856
0.000178042
0.000177543
0.000177055
0.000176585
0.000176122
0.000175676
0.000175238
0.000174818
0.000174404
0.000174005
0.000173612
0.000173231
0.000172859
0.000172499
0.000172145
0.000171803
0.000171464
0.000171139
0.000170815
0.000170507
0.000170197
0.000169902
0.000169605
0.000169323
0.000169039
0.000168771
0.000168498
0.000168241
0.000167978
0.000167732
0.000167479
0.000167218
0.00016697
0.00016672
0.000166482
0.000166242
0.000166015
0.000165784
0.000165568
0.000165346
0.000165139
0.000164926
0.000164729
0.000164525
0.000164339
0.000164145
0.000163969
0.000163784
0.000163621
0.000163447
0.000163297
0.000163137
0.000163001
0.000162858
0.00016274
0.000162617
0.000162526
0.000162424
0.00016235
0.000162287
0.00016224
0.000162217
0.000162224
0.000162222
0.000162324
0.000162309
0.000162529
0.000162632
0.000163083
0.000163488
0.000163806
0.000165247
0.000145884
0.000138873
0.000154713
0.000154421
0.000153634
0.000150981
0.000150101
0.000148181
0.000147659
0.000146808
0.00014327
0.000145734
0.000144125
0.000144081
0.000143978
0.000144029
0.000139401
0.000140472
0.000145284
0.000138931
0.000137617
0.000141688
0.00014435
0.000134346
0.00013076
0.000142095
0.000138048
0.000141867
0.000138038
0.000140633
0.000134603
0.000133072
0.000140591
0.000139971
0.000143258
0.000136285
0.000138997
0.0001374
0.000135373
0.000141643
0.000136825
0.000140433
0.000139418
0.000141065
0.000143823
0.000144968
0.000142342
0.000137779
0.000143685
0.000140544
0.00014172
0.000140971
0.000142034
0.000146473
0.000142093
0.000141436
0.000140115
0.000141792
0.000144127
0.000144555
0.000145011
0.000145485
0.000143386
0.00014124
0.000141689
0.000144136
0.000144788
0.000144461
0.000146047
0.00014288
0.0001417
0.000142581
0.000143141
0.000142842
0.000143695
0.000144473
0.000144942
0.000142846
0.000138827
0.000141517
0.000140909
0.000139475
0.000143679
0.000140775
0.000142321
0.000141472
0.00014179
0.000143059
0.000141138
0.00014233
0.0001396
0.000140255
0.000142467
0.00013992
0.000140897
0.000143302
0.000143344
0.000144983
0.000138299
0.00013538
0.000141415
0.000141565
0.000142801
0.000141984
0.000142438
0.000141081
0.000143406
0.000140921
0.000140614
0.000142016
0.000137142
0.000139288
0.000139911
0.000141816
0.000142968
0.000143742
0.000141827
0.000138752
0.000142642
0.00013844
0.000141382
0.000141229
0.000141175
0.000139155
0.00013599
0.000141758
0.000142055
0.00014249
0.000139309
0.000143115
0.000138604
0.000138075
0.00013831
0.000137021
0.000139504
0.000139955
0.00014164
0.000138983
0.000141297
0.000138664
0.000140204
0.000139748
0.00013909
0.000137614
0.000134733
0.000140133
0.000141559
0.000143626
0.000135614
0.000137582
0.000136254
0.000137431
0.000140481
0.000140533
0.000140294
0.000140681
0.000140676
0.000137561
0.000138008
0.000132058
0.000140649
0.000135607
0.000140877
0.000136514
0.000138572
0.000136275
0.000134785
0.000138015
0.00013676
0.000141442
0.000137988
0.000139333
0.000135658
0.000140059
0.000136821
0.000139361
0.000136542
0.000140241
0.00013673
0.000141214
0.000138522
0.000140589
0.000134634
0.000130512
0.00013983
0.000134538
0.000136478
0.000140391
0.000140683
0.000139633
0.000140484
0.000140526
0.000141301
0.000142535
0.000142856
0.000145772
0.000152728
0.000147369
0.000135931
0.000137173
0.000146365
7.17215e-05
0.00010217
0.000144052
0.000171421
0.000198423
0.000221697
0.00024077
0.000252407
0.000260135
0.000265909
0.000270188
0.000273374
0.000275787
0.000277667
0.000279086
0.000280127
0.000280892
0.000281457
0.000281871
0.000282118
0.000282227
0.000282241
0.000282192
0.000282093
0.000281937
0.000281737
0.000281503
0.000281249
0.00028098
0.000280691
0.000280383
0.000280064
0.000279735
0.000279406
0.000279072
0.000278732
0.000278386
0.00027804
0.000277693
0.00027735
0.000277006
0.000276664
0.00027632
0.00027598
0.000275642
0.00027531
0.000274979
0.000274651
0.000274324
0.000274002
0.000273682
0.00027337
0.000273058
0.000272752
0.000272446
0.000272147
0.000271848
0.000271558
0.000271267
0.000270984
0.0002707
0.000270426
0.000270149
0.000269882
0.000269613
0.000269355
0.000269093
0.000268843
0.000268589
0.000268348
0.000268102
0.000267872
0.000267636
0.000267416
0.00026719
0.000266983
0.000266769
0.000266577
0.000266378
0.000266204
0.000266024
0.000265873
0.000265716
0.000265598
0.000265469
0.000265364
0.00026527
0.000265203
0.000265151
0.000265156
0.000265177
0.000265276
0.000265418
0.0002657
0.00026607
0.000266767
0.000267245
0.000271247
0.000268714
0.000226174
0.000206237
0.000243714
0.000252736
0.000257451
0.000257238
0.000258203
0.000255774
0.000255662
0.000253983
0.0002474
0.00025017
0.000248543
0.000248185
0.000247551
0.000246635
0.000238337
0.000239105
0.000247417
0.000237316
0.000233242
0.000238588
0.000245193
0.000229003
0.000220448
0.000238793
0.000233344
0.000238695
0.000232333
0.00023839
0.000224452
0.00022173
0.000235949
0.000235956
0.000240237
0.000227841
0.00023489
0.000228197
0.000226445
0.000236806
0.000227619
0.000234722
0.000231666
0.000238841
0.000240223
0.000242927
0.000236646
0.000230913
0.00023719
0.000230405
0.000236106
0.000231578
0.000233918
0.000243628
0.000236302
0.000233671
0.000229791
0.000236243
0.000238154
0.000240916
0.000241106
0.000241512
0.000237278
0.000232944
0.000236518
0.000240036
0.000241286
0.000241522
0.000243344
0.000236821
0.000233149
0.000234709
0.000235531
0.000237277
0.000239924
0.000240301
0.000240617
0.000236046
0.000228884
0.000236634
0.000235067
0.000238137
0.000239892
0.000235082
0.000240711
0.000236407
0.000237878
0.000234925
0.000231607
0.000234016
0.000229347
0.000237135
0.000237543
0.000232995
0.000237282
0.0002395
0.000240212
0.000241658
0.000228985
0.000228535
0.000233997
0.00023503
0.000238217
0.000235483
0.000234682
0.000232418
0.000236593
0.000233412
0.000238851
0.000237133
0.000227967
0.000232828
0.000231167
0.000238146
0.000237927
0.000241136
0.000235457
0.000232414
0.000232379
0.00022688
0.000236257
0.000234275
0.00023798
0.000231613
0.000229934
0.000234357
0.000236362
0.0002369
0.00023105
0.000238315
0.000230055
0.000231124
0.000226995
0.00023025
0.000232561
0.000234332
0.00023703
0.000232852
0.000237457
0.000231564
0.000236633
0.000231235
0.000233442
0.000226763
0.000223574
0.000231919
0.000232898
0.00023965
0.000225085
0.000232038
0.000224253
0.000230939
0.000232585
0.000232685
0.000232834
0.000238248
0.000236662
0.000239569
0.000231349
0.000213373
0.000232609
0.000224701
0.000235256
0.000226829
0.000231803
0.000224406
0.000232354
0.000230838
0.000228526
0.000236792
0.00023098
0.000229847
0.000224728
0.00023222
0.000228347
0.000231486
0.000227858
0.000233883
0.00022901
0.000237197
0.000232366
0.000236761
0.000224588
0.000222954
0.000230512
0.000222348
0.000228316
0.000233858
0.000236171
0.000236258
0.000236634
0.000237157
0.000237335
0.000240479
0.000238874
0.000247029
0.000260295
0.000241188
0.000217376
0.000211983
0.000226304
5.97194e-05
7.63586e-05
0.000104338
0.00014181
0.000172465
0.00020221
0.000230766
0.000257217
0.000279133
0.000298143
0.00031115
0.000320772
0.000328785
0.000335578
0.000341283
0.000346066
0.000350122
0.000353604
0.000356613
0.000359173
0.000361356
0.000363236
0.000364872
0.000366293
0.000367512
0.000368561
0.000369466
0.000370255
0.000370941
0.000371525
0.000372018
0.000372435
0.000372788
0.000373089
0.000373336
0.000373533
0.000373684
0.000373799
0.000373882
0.00037394
0.000373967
0.00037397
0.000373948
0.000373908
0.000373853
0.000373784
0.000373698
0.000373599
0.000373487
0.000373366
0.000373235
0.000373099
0.000372953
0.000372802
0.000372641
0.000372479
0.000372308
0.000372138
0.00037196
0.000371783
0.000371598
0.000371416
0.000371227
0.000371042
0.00037085
0.000370664
0.000370469
0.000370282
0.000370087
0.000369902
0.00036971
0.000369529
0.00036934
0.000369164
0.00036898
0.000368812
0.000368638
0.000368483
0.000368321
0.000368182
0.000368038
0.000367923
0.000367802
0.000367726
0.000367639
0.000367577
0.000367517
0.0003675
0.000367492
0.000367568
0.000367628
0.000367831
0.000368035
0.000368478
0.00036898
0.000370004
0.000370697
0.000376107
0.000373013
0.00031427
0.000276459
0.00031466
0.000338914
0.000349931
0.000355181
0.000360111
0.000359932
0.000361874
0.000360972
0.000353667
0.000356232
0.000355405
0.000355408
0.000354762
0.000353469
0.000343363
0.000341843
0.00035284
0.000341759
0.000333588
0.000339142
0.000348646
0.000330878
0.000322057
0.000339334
0.000334169
0.000340235
0.00033289
0.000338905
0.000321165
0.000322458
0.000334795
0.000335664
0.000340923
0.000325958
0.000332167
0.00032388
0.000324126
0.00033549
0.000323914
0.000330994
0.000327967
0.000336449
0.000339683
0.000343392
0.000336658
0.000329888
0.000333278
0.000324413
0.000330068
0.000324896
0.000326744
0.000342041
0.000334648
0.00032883
0.000322777
0.000329627
0.000332943
0.000337216
0.000338563
0.000339401
0.000334404
0.000327744
0.000330671
0.000336086
0.000338789
0.000340649
0.000343291
0.000335527
0.000328179
0.000327756
0.000328754
0.000331589
0.00033589
0.000337428
0.000338196
0.000332586
0.000322455
0.000330585
0.000330191
0.000333674
0.000337559
0.000332709
0.000339424
0.000335255
0.000335499
0.000331147
0.000325391
0.000326941
0.000321333
0.000329905
0.000332876
0.000328266
0.000332973
0.000337377
0.000339674
0.000341353
0.000325683
0.000321182
0.000327166
0.000329648
0.000334193
0.00033162
0.000329551
0.000326366
0.000331134
0.000328151
0.000335784
0.000334998
0.000323039
0.000327057
0.000325345
0.00033415
0.000335353
0.000339398
0.00033367
0.000327338
0.000325737
0.000318611
0.000329561
0.000328947
0.00033342
0.000327018
0.000327102
0.000329219
0.000326332
0.000333575
0.000326585
0.00033509
0.000325676
0.000324732
0.000318644
0.000324211
0.000326723
0.000327281
0.000334202
0.000329994
0.000335806
0.000329603
0.000334597
0.000327531
0.000328234
0.000320241
0.000319959
0.000325719
0.0003138
0.00033761
0.000320442
0.000326561
0.000316602
0.000322997
0.000325982
0.000326393
0.000327083
0.000333793
0.000334403
0.000339561
0.000330688
0.000312432
0.00032827
0.000318666
0.000330978
0.000322126
0.000326301
0.000316874
0.000324621
0.000324931
0.000318368
0.000334706
0.000327772
0.00032536
0.000317893
0.000326868
0.000322966
0.000326916
0.000322509
0.000330095
0.000325377
0.000335549
0.000331215
0.000335452
0.000320526
0.000321989
0.00032482
0.000314177
0.000319217
0.000327293
0.000332441
0.000335041
0.000335984
0.000337733
0.000337448
0.000341634
0.000339484
0.000333781
0.00037341
0.000350999
0.000305733
0.00028937
0.000303078
5.34163e-05
6.02925e-05
7.42523e-05
9.85011e-05
0.000132542
0.000164556
0.000191909
0.000221567
0.000250138
0.000278282
0.00030281
0.000324655
0.000343586
0.000360079
0.000372937
0.000382773
0.000391404
0.000399055
0.00040586
0.000411853
0.000417158
0.000421892
0.000426145
0.000429965
0.000433386
0.000436462
0.000439239
0.000441761
0.000444052
0.000446122
0.000447998
0.000449703
0.000451257
0.000452682
0.000453977
0.000455153
0.000456224
0.000457203
0.000458098
0.00045892
0.000459666
0.000460345
0.000460962
0.000461526
0.000462042
0.000462512
0.000462938
0.000463322
0.000463669
0.000463983
0.000464266
0.000464524
0.000464751
0.000464955
0.000465133
0.000465292
0.00046543
0.000465553
0.000465655
0.000465744
0.000465814
0.000465875
0.000465919
0.000465957
0.000465979
0.000465996
0.000465998
0.000465997
0.000465983
0.00046597
0.000465945
0.000465922
0.000465888
0.000465858
0.000465818
0.000465788
0.000465748
0.000465723
0.000465689
0.000465674
0.000465651
0.000465657
0.000465655
0.000465699
0.000465732
0.000465798
0.000465847
0.000465961
0.000466079
0.0004663
0.000466484
0.000466866
0.000467227
0.000467909
0.000468645
0.000470064
0.00047114
0.000477787
0.000474241
0.000406252
0.000360401
0.000378415
0.000404528
0.000432336
0.000442735
0.000451784
0.000455265
0.000460165
0.000461314
0.000455304
0.000458342
0.000458666
0.000459587
0.000459571
0.000458644
0.000447906
0.000445917
0.000457248
0.00044655
0.000435673
0.000440297
0.000451513
0.000433662
0.000429095
0.000440332
0.0004363
0.000442511
0.00043541
0.000440816
0.00042087
0.000425484
0.000433675
0.000435027
0.000441944
0.000426415
0.000431271
0.000421709
0.00042793
0.000434115
0.000422204
0.000428547
0.000425696
0.000434855
0.000439448
0.000444226
0.000437711
0.000428654
0.000431114
0.000420658
0.000425276
0.000419332
0.000423212
0.000439318
0.000433145
0.000425271
0.000417151
0.0004232
0.000427073
0.000432423
0.000434905
0.000436442
0.000431452
0.000423202
0.000424975
0.000431097
0.000435192
0.000438783
0.000442619
0.000434832
0.000424848
0.000421899
0.000422258
0.000425375
0.00043072
0.000433413
0.000434984
0.00042928
0.000416931
0.000424489
0.000424513
0.000428237
0.000433898
0.000430167
0.000437683
0.000434147
0.000433893
0.000428727
0.000420812
0.000420748
0.00041408
0.000422399
0.000426915
0.000422956
0.000427887
0.000434113
0.000438337
0.000440642
0.000423876
0.000416047
0.000421305
0.000424359
0.000429834
0.000427799
0.000424808
0.00042085
0.000425607
0.000422922
0.000430672
0.000431887
0.000419343
0.000422144
0.000420381
0.000430129
0.000432658
0.000437599
0.00043227
0.000424064
0.000420974
0.000411968
0.000423
0.000423391
0.000428302
0.000422185
0.000420914
0.000423729
0.000422719
0.000429789
0.000423171
0.000431977
0.000422257
0.000419373
0.000411419
0.000416254
0.000419774
0.000421365
0.000430224
0.000427222
0.000434209
0.000428875
0.000433596
0.000425593
0.000424647
0.000415446
0.000415835
0.000419627
0.000402373
0.000435214
0.000417974
0.000422611
0.00041102
0.000416223
0.000419499
0.000420138
0.000421128
0.00042851
0.000431042
0.000437128
0.00042984
0.000416198
0.000424887
0.000415098
0.0004277
0.000419324
0.000422403
0.000411464
0.000418042
0.00041893
0.000416554
0.000431984
0.000425242
0.000422582
0.000413065
0.000421979
0.000418431
0.000422825
0.000418177
0.000426447
0.000422809
0.000434159
0.000431407
0.00043539
0.000418794
0.000417255
0.000420423
0.000407833
0.000411078
0.000420034
0.000427624
0.000432536
0.000434765
0.000438017
0.000438073
0.000437242
0.000441663
0.000417354
0.000487735
0.000464814
0.000405528
0.000388147
0.000377106
5.38766e-05
5.16072e-05
5.68097e-05
6.83613e-05
8.92021e-05
0.000119236
0.000155716
0.000179574
0.000206509
0.000234907
0.000262758
0.000291289
0.000317163
0.000341433
0.00036355
0.000382959
0.000400397
0.000415986
0.000429835
0.000440015
0.0004492
0.000457546
0.000465161
0.000472105
0.000478415
0.000484176
0.000489457
0.000494319
0.000498796
0.000502909
0.000506698
0.000510198
0.00051344
0.000516452
0.000519239
0.000521821
0.000524219
0.000526452
0.000528534
0.000530477
0.000532284
0.00053397
0.000535542
0.000537013
0.000538393
0.000539684
0.00054089
0.000542017
0.000543073
0.000544064
0.000544994
0.000545868
0.000546685
0.000547452
0.00054817
0.000548845
0.000549479
0.000550076
0.000550634
0.00055116
0.00055165
0.000552113
0.000552545
0.000552955
0.000553336
0.000553697
0.000554032
0.000554351
0.000554646
0.00055493
0.000555192
0.000555446
0.000555681
0.00055591
0.000556122
0.000556335
0.000556533
0.000556737
0.000556927
0.00055713
0.000557321
0.000557537
0.000557741
0.00055799
0.000558226
0.000558503
0.000558746
0.000559065
0.000559389
0.000559828
0.000560215
0.000560847
0.000561443
0.000562425
0.000563463
0.000565308
0.000566853
0.000574462
0.000570451
0.00049842
0.000454974
0.00044776
0.000462856
0.000503529
0.000521753
0.000534131
0.000541375
0.000549232
0.000553098
0.000549524
0.00055379
0.000555558
0.000557822
0.000558898
0.00055886
0.000548363
0.000545888
0.000557871
0.000548304
0.000536132
0.000539805
0.000551725
0.000534375
0.000528226
0.000539529
0.000537153
0.000543116
0.000537041
0.000541658
0.000520731
0.000523209
0.000531488
0.000534783
0.000541402
0.000526487
0.00053003
0.000519644
0.000525211
0.000531468
0.000520308
0.000525706
0.000523179
0.000532545
0.00053806
0.000543738
0.00053761
0.000527831
0.000529075
0.0005176
0.000520543
0.000513874
0.00051916
0.000534877
0.000530177
0.00052123
0.000511479
0.000516322
0.000520143
0.000526058
0.000529374
0.000531576
0.000526849
0.000517869
0.000518504
0.00052468
0.000529786
0.000534827
0.000539837
0.000532507
0.000521171
0.000515937
0.000515384
0.000518248
0.000524089
0.000527599
0.000529914
0.000524455
0.000510882
0.000517535
0.000517484
0.000521219
0.000528023
0.000525935
0.000534112
0.000531422
0.00053114
0.000525561
0.000516364
0.000514586
0.000506789
0.000514327
0.00051956
0.000516291
0.000521386
0.000528892
0.000534906
0.000537905
0.000521151
0.000511409
0.0005155
0.000518574
0.000524448
0.000522988
0.000519315
0.000514791
0.000519256
0.000516858
0.000524541
0.000526988
0.000515042
0.000516797
0.000515094
0.000525192
0.000528773
0.000534478
0.000529578
0.000520741
0.000516433
0.00050591
0.000516211
0.00051717
0.000522108
0.000516168
0.000514181
0.000517089
0.000520572
0.000524432
0.00051904
0.000527694
0.00051817
0.00051368
0.000504178
0.000507635
0.000511607
0.000516221
0.00052424
0.00052326
0.00053111
0.000527284
0.000531776
0.000523473
0.000521148
0.000510881
0.000509459
0.000513229
0.000504418
0.000531636
0.000515514
0.000518628
0.000505986
0.000509592
0.000512617
0.000513267
0.000514316
0.000521993
0.00052592
0.000532968
0.000527046
0.000512851
0.00052086
0.000512023
0.000524177
0.000516715
0.000518699
0.00050673
0.000511801
0.000512492
0.000517084
0.000527568
0.000521908
0.000519261
0.0005087
0.000516721
0.000513733
0.000517925
0.00051375
0.000521932
0.00051979
0.000531751
0.000530842
0.000534678
0.000517287
0.000513632
0.00051617
0.000502292
0.000503447
0.000512392
0.000521471
0.000528079
0.000531836
0.000536481
0.000537551
0.000538937
0.000543743
0.000503779
0.000600193
0.000577531
0.00051214
0.000481436
0.000461182
6.74577e-05
4.9982e-05
4.83926e-05
5.19879e-05
6.15063e-05
7.87797e-05
0.000105067
0.000137379
0.000170187
0.000192403
0.000217599
0.000244748
0.000271225
0.000299169
0.000325637
0.000350802
0.000374809
0.000396787
0.000417155
0.00043566
0.000452356
0.000467462
0.000481391
0.000493375
0.000503054
0.000511985
0.000520259
0.000527948
0.000535087
0.0005417
0.000547844
0.000553569
0.000558917
0.000563922
0.000568593
0.00057296
0.00057705
0.00058089
0.000584499
0.000587894
0.000591081
0.00059408
0.000596905
0.000599571
0.000602091
0.00060447
0.000606715
0.000608836
0.000610842
0.000612744
0.000614547
0.000616257
0.000617875
0.000619411
0.000620867
0.000622252
0.000623568
0.000624821
0.00062601
0.000627142
0.000628216
0.000629242
0.000630219
0.000631152
0.000632039
0.000632887
0.000633692
0.000634465
0.000635201
0.000635909
0.000636584
0.000637235
0.000637856
0.000638458
0.000639034
0.000639598
0.000640138
0.000640674
0.000641188
0.000641706
0.000642205
0.000642721
0.000643222
0.000643761
0.000644282
0.000644855
0.000645376
0.00064597
0.000646576
0.000647303
0.000647967
0.00064891
0.000649805
0.000651133
0.00065252
0.000654796
0.000656846
0.00066511
0.000660611
0.000588106
0.00054531
0.000524456
0.000527716
0.000556445
0.000581849
0.000609144
0.000619472
0.000629826
0.000636483
0.000635735
0.000641641
0.00064505
0.000648901
0.000651354
0.000652515
0.000642923
0.000641061
0.000653145
0.000645123
0.000632768
0.000635862
0.000647848
0.000631337
0.000624911
0.000635537
0.000635095
0.000640547
0.000635918
0.000639728
0.000618721
0.000619454
0.000627243
0.000631507
0.000638112
0.000624496
0.00062695
0.000616153
0.000620705
0.000626801
0.000616853
0.00062128
0.000619213
0.00062848
0.000634595
0.000640948
0.000635214
0.00062571
0.000625771
0.000613851
0.000614939
0.00060765
0.00061225
0.000628493
0.000625107
0.000615659
0.000604791
0.000608258
0.000611793
0.000617687
0.000621703
0.000624413
0.000619981
0.000610859
0.000610547
0.000616558
0.000622207
0.000628356
0.000634311
0.000627568
0.000615837
0.000608871
0.000607463
0.00060984
0.000615196
0.000619761
0.000622606
0.000617371
0.000603421
0.000609079
0.000608743
0.000612444
0.000619769
0.000619457
0.000628091
0.000626285
0.00062623
0.000620529
0.000610839
0.000607567
0.000598798
0.000605416
0.00061077
0.000608019
0.000612903
0.000621499
0.00062897
0.000632567
0.000616395
0.000605869
0.000608848
0.00061177
0.000617607
0.000616677
0.000612446
0.000607574
0.000611643
0.000609515
0.000617152
0.000620137
0.000609271
0.000610111
0.000608675
0.000618762
0.000623143
0.000629434
0.000624891
0.00061615
0.000610757
0.000599577
0.000608725
0.000609974
0.000614597
0.000608631
0.000606283
0.000608971
0.000612718
0.000617125
0.000613334
0.000621612
0.000612565
0.000606816
0.000596126
0.000598147
0.000602158
0.000607303
0.000616171
0.00061754
0.000625867
0.000623795
0.000628095
0.000619951
0.000616636
0.000605551
0.000602891
0.000606141
0.000610619
0.000626201
0.000611867
0.000613637
0.000600433
0.000602283
0.000604942
0.000605432
0.000606355
0.000614048
0.000618892
0.000626856
0.000621877
0.000608517
0.000615413
0.000608196
0.000619584
0.000613265
0.000614163
0.000601634
0.000605156
0.000605277
0.000612369
0.000621254
0.000617048
0.000614349
0.000603713
0.000610461
0.000608158
0.000611744
0.000608395
0.000616055
0.000615573
0.000627729
0.000628488
0.000632301
0.000614749
0.000609763
0.000611258
0.000596702
0.000595802
0.000604267
0.000614028
0.000621828
0.000626889
0.000632782
0.000635116
0.000644316
0.000644513
0.000590976
0.00070951
0.000687187
0.000621057
0.000579959
0.000558615
0.000107647
5.91572e-05
4.83498e-05
4.56602e-05
4.77461e-05
5.50383e-05
6.90202e-05
9.057e-05
0.000118681
0.000151092
0.00018194
0.000203175
0.00022668
0.000252074
0.000277147
0.000303674
0.000330381
0.000355617
0.000380329
0.000403981
0.000426058
0.000446735
0.0004661
0.00048398
0.000500343
0.000515432
0.00052932
0.000542215
0.00055365
0.000563085
0.000571915
0.000580199
0.000587989
0.000595321
0.000602198
0.000608662
0.000614751
0.000620499
0.000625931
0.000631065
0.000635912
0.000640497
0.000644839
0.000648957
0.000652869
0.00065658
0.000660101
0.000663446
0.000666627
0.000669658
0.000672546
0.000675297
0.000677916
0.000680415
0.000682798
0.000685077
0.000687254
0.000689336
0.000691325
0.000693228
0.000695047
0.000696792
0.000698464
0.000700068
0.000701603
0.000703078
0.000704491
0.000705851
0.000707156
0.000708415
0.000709625
0.000710793
0.000711917
0.000713005
0.000714054
0.000715077
0.000716065
0.000717034
0.000717972
0.0007189
0.000719802
0.00072071
0.000721595
0.000722509
0.0007234
0.000724342
0.000725226
0.00072617
0.000727127
0.000728208
0.00072922
0.000730528
0.000731776
0.000733487
0.000735255
0.000737954
0.000740511
0.000749137
0.000744165
0.000673547
0.000625459
0.000603829
0.000599815
0.000610771
0.000632446
0.000670626
0.00069099
0.000703316
0.000712382
0.000714369
0.000721961
0.000727061
0.000732587
0.000736512
0.000739016
0.000730803
0.000730246
0.000742217
0.00073598
0.000724257
0.000727186
0.000738908
0.000723488
0.000717635
0.000727322
0.000728814
0.000733744
0.000730772
0.000733853
0.000713419
0.000713068
0.000719951
0.000725068
0.00073129
0.000719341
0.000720959
0.000710108
0.000713994
0.00071938
0.000710823
0.000714348
0.000712863
0.000721863
0.00072835
0.00073519
0.000729826
0.000721117
0.000720123
0.000708236
0.00070757
0.000699829
0.000702528
0.000719856
0.000717604
0.000707897
0.00069638
0.000698488
0.000701616
0.000705511
0.000711672
0.000714724
0.00071055
0.000701629
0.000700603
0.000706346
0.000712207
0.000719131
0.000725742
0.000719592
0.000708057
0.000699949
0.000697883
0.00069973
0.000705193
0.000709708
0.000712855
0.000707707
0.000693952
0.000698657
0.000697988
0.000701673
0.000709078
0.000710422
0.000719326
0.000718314
0.000718614
0.000713015
0.000703395
0.000698927
0.000689507
0.000695239
0.000700371
0.000697953
0.000700808
0.000711818
0.000720393
0.000724449
0.000709113
0.000698561
0.000700677
0.000703428
0.00070894
0.000708414
0.000703763
0.000698758
0.000702417
0.000700559
0.00070815
0.000711228
0.000701581
0.000701589
0.00070057
0.000710435
0.00071541
0.000722122
0.000717851
0.000709593
0.000703327
0.000692187
0.000700029
0.000701414
0.000705539
0.000699384
0.000696857
0.000699149
0.000703191
0.000707748
0.000705657
0.000713441
0.000705006
0.000698283
0.00068672
0.000686755
0.000691226
0.00069675
0.000706058
0.000709655
0.000718261
0.00071793
0.000722041
0.000714318
0.000710359
0.000698745
0.000695359
0.000697921
0.000708326
0.000718601
0.000706408
0.000706889
0.000693602
0.000692034
0.000696065
0.000696339
0.000697032
0.000704546
0.000709921
0.000718639
0.000714259
0.000702411
0.000708067
0.000702823
0.000713334
0.000708285
0.000708126
0.000695418
0.000696681
0.00069692
0.000703934
0.000713028
0.000710323
0.000707285
0.000697312
0.000702706
0.00070118
0.000703992
0.000701592
0.000708493
0.000709719
0.000721737
0.000723951
0.000727745
0.000710434
0.000704712
0.000705098
0.000690333
0.000687586
0.000695373
0.000705252
0.000713905
0.000719859
0.000726892
0.000730457
0.000741055
0.000743266
0.000686734
0.000815269
0.000793419
0.000729362
0.000681191
0.000660705
0.000113487
8.73523e-05
6.0248e-05
4.92565e-05
4.48093e-05
4.49544e-05
4.98533e-05
6.03753e-05
7.72058e-05
0.00010064
0.000129381
0.000161165
0.000192619
0.000212635
0.000234437
0.000257984
0.000282023
0.000306548
0.00033255
0.000357588
0.000382288
0.000406591
0.000429701
0.000451703
0.000472841
0.000492732
0.000511314
0.00052881
0.000545245
0.000560364
0.000574389
0.00058756
0.000599822
0.000611336
0.000620646
0.000629443
0.00063777
0.000645668
0.000653166
0.000660276
0.000667013
0.000673412
0.000679494
0.000685287
0.000690809
0.000696064
0.00070107
0.000705843
0.000710398
0.000714753
0.000718916
0.000722895
0.000726698