/*--------------------------------*- C++ -*----------------------------------*\
| =========                 |                                                 |
| \\      /  F ield         | foam-extend: Open Source CFD                    |
|  \\    /   O peration     | Version:     3.2                                |
|   \\  /    A nd           | Web:         http://www.foam-extend.org         |
|    \\/     M anipulation  | For copyright notice see file Copyright         |
\*---------------------------------------------------------------------------*/
FoamFile
{
    version     2.0;
    format      ascii;
    class       volScalarField;
    location    "160";
    object      omega;
}
// * * * * * * * * * * * * * * * * * * * * * * * * * * * * * * * * * * * * * //

dimensions      [0 0 -1 0 0 0 0];

internalField   nonuniform List<scalar> 
96000
(
1337.8
1193.99
994.732
901.562
863.834
843.375
828.244
814.772
802.17
790.562
780.053
770.539
761.828
753.972
746.831
740.281
734.237
728.616
723.428
718.667
714.215
710.009
706.035
702.285
698.747
695.385
692.19
689.14
686.236
683.476
680.827
678.297
675.857
673.525
671.278
669.129
667.043
665.043
663.101
661.232
659.423
657.677
655.981
654.34
652.742
651.201
649.696
648.246
646.82
645.451
644.098
642.8
641.519
640.289
639.072
637.902
636.742
635.631
634.508
633.449
632.375
631.369
630.344
629.39
628.411
627.511
626.576
625.725
624.834
624.035
623.189
622.445
621.649
620.963
620.22
619.6
618.922
618.377
617.781
617.327
616.832
616.491
616.135
615.938
615.785
615.762
615.849
616.124
616.549
617.24
618.242
619.525
621.461
623.632
627.426
631.383
640.017
643.602
689.843
664.299
487.606
478.624
493.243
493.682
501.795
500.82
509.981
506.349
516.521
516.845
503.165
521.342
513.107
526.176
523.276
538.776
495.006
524.98
546.442
519.296
506.731
524.341
564.457
480.749
527.921
527.813
535.49
538.998
532.537
552.898
483.994
542.919
522.421
549.084
550.36
522.405
549.598
499.214
555.817
537.839
528.285
539.881
525.026
556.57
553.345
585.274
546.082
561.429
554.345
536.075
548.211
511.673
566.663
569.695
562.214
540.629
528.314
538.579
538.917
552.025
548.583
559.764
539.128
528.232
530.09
545.532
550.449
559.031
574.947
549.938
539.196
533.73
536.099
534.831
549.435
545.528
560.638
533.75
513.01
544.182
511.233
542.718
539.556
539.931
570.602
548.045
565.56
539.51
539.929
529.297
508.081
539.17
537.21
521.609
539.925
549.432
558.145
572.609
519.838
532.386
535.279
544.303
550.705
544.631
533.62
527.771
540.6
514.24
563.389
540.53
531.36
530.63
527.068
553.724
544.746
578.04
539.546
554.679
526.829
522.593
546.12
531.369
556.854
511.678
539.73
519.871
550.719
533.416
538.293
558.139
530.433
533.392
496.279
533.264
505.064
535.546
525.886
540.313
550.342
544.894
560.987
535.564
553.727
499.751
537.76
504.085
561.665
550.062
533.474
543.848
508.081
528.704
517.954
521.125
508.627
542.687
515.636
579.955
506.533
538.486
525.837
530.258
553.769
532.357
539.595
495.652
540.986
493.873
546.096
529.05
543.626
509.982
521.657
516.788
526.586
510.475
523.929
520.237
526.412
547.344
538.153
562.145
495.922
536.634
518.324
497.04
494.183
516.265
514.371
530.182
523.043
544.077
530.961
568.039
540.16
630.014
739.984
652.743
567.896
543.09
497.193
517.199
492.029
452.319
418.384
393.181
374.395
360.151
348.938
339.83
332.099
325.489
319.734
314.713
310.279
306.293
302.712
299.455
296.5
293.795
291.305
288.999
286.855
284.857
282.986
281.229
279.574
278.014
276.536
275.142
273.813
272.554
271.348
270.203
269.105
268.058
267.051
266.088
265.16
264.27
263.411
262.586
261.787
261.019
260.272
259.555
258.856
258.186
257.528
256.898
256.279
255.685
255.1
254.54
253.988
253.458
252.933
252.433
251.933
251.459
250.983
250.533
250.08
249.653
249.221
248.818
248.407
248.026
247.635
247.275
246.903
246.565
246.214
245.899
245.569
245.278
244.973
244.708
244.433
244.199
243.96
243.761
243.568
243.414
243.282
243.205
243.163
243.157
243.223
243.333
243.593
243.857
244.405
244.919
245.931
246.851
248.939
249.791
256.808
280.674
259.429
221.394
207.893
201.949
199.8
198.15
198.782
198.381
199.413
202.003
200.39
200.327
201.106
201.802
203.326
205.047
205.41
200.84
208.916
210.433
204.18
201.808
210.144
211.936
202.708
208.492
206.54
211.925
209.198
217.744
211.9
204.534
208.618
208.169
216.962
211.285
215.043
212.363
208.454
215.744
210.303
212.923
210.37
212.175
214.412
220.557
225.127
219.583
223.081
217.288
218.533
214.087
212.742
221.199
222.626
221.306
214.595
213.306
212.597
213.479
214.404
217.168
218.711
214.639
211.291
211.667
212.779
214.642
219.875
222.687
218.946
215.418
213.576
212.014
212.509
213.793
215.782
217.996
210.542
210.318
211.21
208.953
212.961
210.874
216.372
217.231
218.65
220.305
216.59
215.736
210.16
208.738
212.304
209.57
208.3
210.703
213.879
220.473
220.51
213.415
213.375
212.421
214.871
215.034
214.275
210.75
212.735
210.678
210.904
217.999
212.865
212.794
209.186
212.398
212.714
217.022
221.874
218.331
218.311
210.81
213.631
211.668
213.958
214.934
209.966
210.134
209.708
215.091
210.661
217.92
215.384
214.626
209.183
204.491
205.907
204.579
209.316
208.324
214.822
213.116
217.913
215.582
216.379
215.028
208.119
207.746
208.389
219.909
213.657
217.031
210.379
207.862
207.972
207.1
205.288
205.727
207.993
210.171
217.335
207.906
213.528
207.498
216.014
212.946
216.355
210.62
206.621
207.792
205.195
211.584
210.637
211.828
204.698
207.799
205.198
207.57
203.568
207.837
204.529
210.974
210.23
216.403
216.226
208.822
211.966
205.575
200.139
199.653
201.594
203.293
205.353
207.435
208.89
212.889
211.511
216.784
250.134
275.845
261.835
239.518
210.519
283.144
296.912
287.41
274.512
260.432
247.127
235.674
226.195
218.23
211.54
205.917
201.083
196.885
193.188
189.898
186.969
184.338
181.963
179.803
177.833
176.026
174.363
172.824
171.391
170.053
168.801
167.629
166.525
165.487
164.504
163.575
162.692
161.856
161.059
160.301
159.576
158.883
158.22
157.585
156.976
156.391
155.828
155.288
154.765
154.263
153.777
153.309
152.855
152.418
151.992
151.582
151.183
150.797
150.421
150.058
149.703
149.361
149.023
148.699
148.377
148.07
147.765
147.474
147.185
146.909
146.634
146.373
146.111
145.864
145.616
145.382
145.146
144.926
144.704
144.497
144.289
144.096
143.903
143.725
143.551
143.389
143.236
143.094
142.965
142.858
142.775
142.699
142.654
142.619
142.646
142.666
142.786
142.884
143.129
143.3
143.787
143.497
144.491
161.512
173.434
152.097
137.942
130.174
125.246
122.466
120.539
119.734
118.631
119.698
119.808
118.071
118.673
117.788
118.69
118.575
123.163
117.409
120.129
122.875
121.715
117.929
120.086
127.217
118.891
121.603
119.477
122.567
121.187
125.911
127.79
119.508
123.039
119.823
125.016
123.563
125.007
127.154
120.387
125.693
123.311
124.488
123.314
122.444
123.198
124.217
131.028
127.18
130.47
128.458
129.169
129.248
123.33
126.812
128.236
130.777
127.925
126.422
125.399
124.675
124.99
125.489
128.779
127.399
125.64
123.782
123.802
123.553
125.306
129.57
129.263
127.969
126.516
125.549
124.032
124.637
124.299
128.861
126.006
124.096
126.117
121.85
124.029
122.442
123.714
125.307
125.235
129.391
127.586
128.604
126.175
123.139
124.515
124.279
121.713
121.852
122.585
125.539
130.264
126.17
125.971
124
124.869
125.395
126.58
124.681
124.908
125.292
121.03
126.83
124.935
125.517
123.117
122.924
123.064
123.137
129.471
126.368
130.022
125.579
125.245
124.481
124.372
127.763
123.038
125.763
121.604
125.934
122.744
125.781
126.4
126.895
126.425
120.829
123.652
119.286
122.62
120.089
123.312
122.714
125.116
125.673
125.855
129.173
122.892
125.961
119.645
126.778
124.514
127.019
125.476
123.169
123.224
122.628
122.426
119.805
121.563
117.74
129.771
121.673
125.889
121.171
124.62
124.071
126.731
125.499
122.061
125.428
118.756
123.837
120.882
126.253
120.937
123.19
119.733
123.387
119.385
122.09
119.073
121.264
121.081
124.354
127.963
121.77
125.873
123.656
121.368
117.905
118.54
117.634
119.659
119.112
121.217
120.8
122.649
115.671
125.703
150.818
156.787
149.518
92.5557
155.067
187.413
200.034
199.201
194.735
189.413
182.689
175.77
169.119
163.149
157.917
153.322
149.274
145.705
142.562
139.776
137.281
135.03
132.987
131.132
129.443
127.896
126.471
125.15
123.923
122.78
121.717
120.72
119.785
118.903
118.073
117.289
116.549
115.846
115.178
114.543
113.938
113.362
112.811
112.284
111.78
111.296
110.833
110.387
109.959
109.546
109.149
108.766
108.396
108.039
107.695
107.361
107.038
106.725
106.423
106.128
105.844
105.566
105.297
105.033
104.779
104.53
104.29
104.053
103.826
103.602
103.386
103.174
102.969
102.767
102.574
102.382
102.199
102.017
101.843
101.671
101.507
101.346
101.191
101.04
100.895
100.756
100.622
100.495
100.376
100.274
100.175
100.088
100.002
99.9415
99.8743
99.8429
99.7913
99.7822
99.6975
99.6774
99.1025
98.7629
109.898
124.602
116.227
107.175
100.038
94.9641
91.7451
89.0582
87.774
86.0312
86.0452
86.0301
84.533
84.6268
83.4972
83.7153
83.5172
86.8156
82.9721
83.7624
85.664
85.9253
83.1267
83.7699
88.4103
83.7757
84.9247
83.3891
84.9573
84.1817
86.9538
88.8527
84.4719
86.3152
83.4876
86.2695
85.9435
86.7752
88.4334
84.4772
87.1679
86.0874
86.7571
86.1668
85.0766
85.1526
85.297
89.5395
87.856
90.2424
89.7402
90.4153
90.7198
86.5733
87.6864
88.458
91.1505
90.1022
89.1791
88.297
87.3952
87.3171
87.2471
89.698
89.4702
88.7796
86.9933
86.5894
85.7485
86.2215
89.2585
90.052
89.8858
89.1055
88.5384
87.05
87.0333
86.3573
89.8934
88.9674
87.6438
88.9585
85.8166
86.6175
85.3901
85.4497
86.4366
86.2723
89.5115
88.9074
90.3551
89.3158
87.1072
87.4733
87.5485
85.5832
84.9779
84.778
86.2798
89.962
88.2623
88.3038
86.7475
86.9229
87.2608
88.5544
87.5957
87.5116
87.791
84.8112
87.8242
87.1404
87.8089
86.3348
85.5652
85.3949
85.05
88.7785
87.233
90.8264
88.545
87.8521
87.3443
87.035
89.1184
86.6091
88.595
85.3735
87.5093
85.632
87.0625
88.011
88.8116
89.1506
85.9973
87.7087
84.234
85.7105
83.5868
85.0543
84.7188
86.0378
86.9634
87.4395
89.9561
86.8706
89.2905
83.8653
87.3644
86.4415
88.2627
88.1914
86.8297
86.7942
86.4785
86.4736
84.3488
84.8979
82.0795
89.2304
85.1237
87.5301
84.6754
86.1591
86.126
88.0456
88.1245
86.2791
88.3644
83.6963
86.1609
83.8385
88.1586
85.3205
86.5298
84.1477
86.5843
84.0279
85.3734
83.2986
83.913
83.7108
85.6598
88.3061
85.1672
88.1648
87.5871
86.7415
83.7912
83.753
82.376
83.4632
82.4838
84.1584
82.9093
84.9578
77.8453
80.0853
95.3809
104.352
105.142
40.717
81.6929
111.692
133.589
145.942
150.942
150.632
148.6
145.712
141.813
137.459
133.086
128.946
125.123
121.641
118.525
115.727
113.205
110.919
108.863
107.003
105.311
103.765
102.342
101.028
99.8132
98.6869
97.6411
96.6648
95.7501
94.8915
94.0856
93.327
92.6129
91.9367
91.2959
90.6881
90.1108
89.5627
89.0406
88.5421
88.0659
87.6103
87.1747
86.7572
86.3573
85.9723
85.6028
85.2468
84.9044
84.5744
84.2565
83.9491
83.6526
83.3654
83.0882
82.8193
82.56
82.3071
82.0626
81.824
81.5934
81.3682
81.1507
80.9378
80.7322
80.5308
80.3361
80.1452
79.9608
79.7797
79.6047
79.4328
79.2665
79.1033
78.945
78.7902
78.6396
78.4925
78.3492
78.2099
78.0734
77.9415
77.8118
77.6865
77.5648
77.4507
77.3429
77.2386
77.1309
77.0324
76.9276
76.833
76.7182
76.6081
76.425
76.223
75.574
74.9768
82.4519
94.1801
92.3815
87.9863
82.7087
78.4772
75.2965
72.5787
71.0271
69.1379
68.5673
68.2167
66.9932
66.7518
65.6677
65.4911
65.2772
67.1468
64.7872
64.8544
66.0186
66.4366
64.61
64.7631
67.4747
64.9522
65.3972
64.3265
65.0793
64.5574
66.2661
67.7085
65.3965
66.306
64.3431
65.827
65.7479
66.2797
67.309
65.1616
66.5968
66.0189
66.4278
66.0867
65.1706
64.9744
64.9528
67.4101
66.6987
68.4063
68.4662
69.136
69.2794
66.707
66.9885
67.3608
69.4807
69.1953
68.7241
68.0852
67.3179
67.095
66.9443
68.4998
68.6512
68.4618
67.1744
66.673
65.7697
65.7767
67.6313
68.5668
68.8784
68.5558
68.2368
67.1448
66.8919
66.3289
68.6599
68.4557
67.7119
68.4315
66.4681
66.6264
65.6328
65.3122
65.7936
65.7274
67.8345
67.7786
69.1821
68.8154
67.3953
67.4559
67.4793
66.1401
65.3876
64.8557
65.6632
68.1119
67.4436
67.616
66.6173
66.5582
66.7525
67.7758
67.2878
67.199
67.2732
65.4536
67.0282
66.7246
67.2695
66.3371
65.58
65.2718
64.9604
67.053
66.3028
69.0784
67.976
67.4799
67.1481
66.9282
68.1204
66.8334
67.8952
65.9285
66.9224
65.6857
66.4245
67.2246
68.0088
68.4867
66.8201
67.6951
65.4249
65.8744
64.2977
64.8721
64.5656
65.2946
66.0827
66.693
68.4329
66.9841
68.2607
64.7428
66.4945
66.0101
67.2972
67.6259
66.8969
66.8835
66.7327
66.7017
65.2689
65.2047
63.4686
67.4147
65.3436
66.7498
64.966
65.6528
65.708
67.0842
67.5337
66.6307
67.6215
64.863
65.9323
64.5148
67.2756
65.7884
66.4819
65.0895
66.4284
64.9063
65.5778
64.1272
64.1234
63.8762
65.0754
66.919
65.3835
67.4081
67.4885
67.1869
65.2483
64.9908
63.6965
64.1758
63.1738
64.1772
63.0148
64.3878
59.0643
58.7316
67.3481
74.7479
78.2452
17.545
41.1421
62.5704
81.8591
98.7997
111.78
118.894
121.865
121.903
120.719
118.878
116.384
113.454
110.385
107.334
104.437
101.727
99.2259
96.9208
94.8227
92.9113
91.1664
89.5649
88.0927
86.7432
85.4997
84.3488
83.2811
82.2854
81.3553
80.4855
79.671
78.9063
78.1874
77.5081
76.8658
76.2584
75.6828
75.1374
74.6189
74.1248
73.6538
73.2042
72.7751
72.365
71.9725
71.5956
71.2343
70.887
70.5536
70.233
69.9244
69.6267
69.3397
69.0625
68.7952
68.5366
68.2872
68.0448
67.8105
67.5827
67.3623
67.1478
66.9404
66.7382
66.5424
66.3514
66.1663
65.9856
65.8104
65.6393
65.4731
65.3107
65.1527
64.9984
64.8478
64.701
64.5574
64.4174
64.2799
64.1461
64.0142
63.8858
63.7587
63.6346
63.5126
63.3921
63.2791
63.1675
63.0501
62.9334
62.8111
62.6882
62.5451
62.3919
62.1708
61.9045
61.2626
60.6748
65.8663
74.5924
75.381
73.8443
70.7055
67.6321
64.7905
62.3536
60.7054
58.8971
58.0368
57.4372
56.3659
55.9192
54.9379
54.5524
54.2987
55.2566
53.7043
53.4963
54.1877
54.469
53.2475
53.2292
54.8448
53.3525
53.4754
52.7218
53.0407
52.6473
53.7257
54.7784
53.4785
53.8809
52.6288
53.4381
53.4038
53.7317
54.3842
53.1457
53.9888
53.6559
53.9027
53.6841
52.9527
52.6683
52.5997
54.0399
53.7274
54.9516
55.222
55.8262
55.9036
54.2621
54.2818
54.4938
56.0198
56.0373
55.8338
55.409
54.8209
54.5786
54.4536
55.43
55.6592
55.647
54.8035
54.332
53.544
53.3788
54.4782
55.2578
55.6989
55.6258
55.4577
54.7153
54.4298
54.0443
55.5383
55.5741
55.177
55.5811
54.3449
54.267
53.4664
53.033
53.2214
53.2016
54.5467
54.6846
55.8673
55.8258
54.9403
54.9433
54.92
54
53.3111
52.7084
53.1474
54.7415
54.4781
54.6619
54.0519
53.9493
54.0811
54.8236
54.5736
54.5215
54.4966
53.3661
54.2561
54.1021
54.4988
53.875
53.2325
52.8962
52.6516
53.8608
53.5304
55.4724
54.9693
54.6811
54.4975
54.3894
55.1112
54.4269
54.9413
53.7735
54.243
53.3676
53.756
54.3724
55.0467
55.5034
54.6221
55.0505
53.6036
53.5893
52.445
52.5801
52.279
52.6643
53.2533
53.85
55.0683
54.3967
54.8747
52.7708
53.7334
53.442
54.3432
54.76
54.3721
54.3996
54.3467
54.2803
53.3261
53.0279
51.9688
54.2269
53.0711
53.9224
52.7612
53.074
53.1353
54.1295
54.6404
54.2281
54.6911
53.0325
53.493
52.6754
54.3542
53.5413
53.9756
53.1792
53.9319
52.9808
53.3088
52.2695
52.0344
51.7716
52.5168
53.7941
53.0533
54.4567
54.7765
54.6942
53.49
53.1757
52.1743
52.2601
51.4115
51.817
50.9308
51.6198
47.8085
46.6649
51.6004
57.0127
60.6712
7.36567
19.6852
32.9474
46.5202
60.67
74.7714
87.0839
95.8235
100.422
102.355
102.539
101.754
100.51
98.8749
96.8218
94.5898
92.3021
90.063
87.9105
85.8714
83.9681
82.2018
80.5613
79.0422
77.6426
76.3489
75.1498
74.0357
72.9977
72.0339
71.1352
70.2946
69.5062
68.765
68.0664
67.4079
66.7863
66.1985
65.6422
65.1138
64.6113
64.1333
63.678
63.2441
62.83
62.4342
62.0548
61.6916
61.3432
61.0091
60.6885
60.3802
60.0832
59.7973
59.5216
59.256
58.9996
58.7524
58.5128
58.2812
58.0567
57.8395
57.6287
57.4247
57.2264
57.0341
56.8471
56.6657
56.4891
56.3177
56.1507
55.9882
55.8297
55.6754
55.5249
55.3778
55.2346
55.0941
54.9572
54.8225
54.6912
54.5614
54.4346
54.3088
54.1852
54.0625
53.94
53.8225
53.7072
53.5854
53.46
53.3294
53.1934
53.0379
52.8665
52.6332
52.3492
51.7446
51.2258
54.9426
61.4923
63.0379
62.8711
61.4412
59.5114
57.2493
55.1996
53.582
51.9597
50.993
50.2552
49.2709
48.7039
47.8212
47.3291
47.0342
47.4482
46.3215
45.9994
46.3984
46.5218
45.6438
45.552
46.5338
45.5719
45.5225
44.9826
45.0646
44.752
45.4362
46.191
45.4101
45.5489
44.7401
45.1974
45.172
45.3612
45.7734
45.0161
45.5448
45.3511
45.49
45.3378
44.7487
44.4478
44.362
45.2274
45.084
45.9617
46.2895
46.8016
46.8606
45.7607
45.7037
45.8739
46.9504
47.0824
47.0106
46.7388
46.3018
46.0866
46.0014
46.6374
46.8546
46.8841
46.3401
45.9438
45.3023
45.0836
45.7423
46.3245
46.7454
46.79
46.7071
46.2154
45.9664
45.7278
46.7086
46.8105
46.5943
46.8309
46.025
45.8716
45.2395
44.7936
44.8257
44.8131
45.686
45.8811
46.8099
46.9116
46.3641
46.379
46.3489
45.6932
45.1128
44.5454
44.7818
45.8353
45.7268
45.8679
45.4933
45.399
45.5079
46.0403
45.9102
45.8855
45.8232
45.095
45.6425
45.5748
45.8477
45.4066
44.8742
44.5554
44.3634
45.0898
44.9856
46.3059
46.0856
45.9241
45.8487
45.8266
46.301
45.9238
46.1665
45.4411
45.6661
45.0295
45.2284
45.7017
46.2569
46.6549
46.1845
46.3918
45.4449
45.2533
44.4148
44.3417
44.0625
44.2438
44.6656
45.1841
46.0583
45.7556
45.8641
44.5641
45.1473
44.974
45.6131
46.0159
45.8064
45.8607
45.8652
45.7844
45.133
44.7777
44.1141
45.47
44.7709
45.285
44.503
44.6212
44.6831
45.4068
45.8832
45.7167
45.9506
44.8951
45.0926
44.6301
45.6779
45.2015
45.4769
45.0237
45.4667
44.8487
44.9885
44.2273
43.9214
43.6662
44.1307
45.0282
44.6717
45.6853
46.0736
46.0861
45.3326
45.0276
44.3084
44.1828
43.5051
43.5585
42.8717
43.0375
40.2633
38.8736
41.8562
45.696
48.8099
3.17539
9.03275
16.33
24.6164
34.1849
45.1597
56.9716
68.3139
77.3733
83.5054
86.8035
88.167
88.3917
87.8905
87.046
85.8887
84.457
82.8318
81.1169
79.3706
77.6519
75.992
74.4082
72.9097
71.4998
70.1794
68.9456
67.7921
66.7125
65.7072
64.7688
63.8896
63.065
62.2891
61.5618
60.878
60.2334
59.6244
59.048
58.5015
57.9828
57.4903
57.022
56.5763
56.1513
55.7454
55.3571
54.9858
54.6304
54.29
53.9636
53.65
53.3484
53.0584
52.7792
52.5105
52.2515
52.0018
51.7603
51.527
51.3013
51.0831
50.8717
50.6672
50.4687
50.2763
50.0895
49.9082
49.7322
49.5611
49.3948
49.2329
49.0753
48.9217
48.772
48.6258
48.4835
48.3438
48.2077
48.0738
47.943
47.8138
47.6873
47.5617
47.4378
47.3146
47.1913
47.0701
46.9521
46.8283
46.6991
46.5647
46.4226
46.2622
46.0841
45.8502
45.568
45.0106
44.5631
47.2921
52.303
53.9606
54.3314
53.9248
52.9105
51.3579
49.7476
48.2499
46.8515
45.8932
45.104
44.1862
43.5557
42.7599
42.2191
41.892
41.9849
41.0933
40.7169
40.9299
40.9292
40.2484
40.1147
40.715
40.0429
39.895
39.4919
39.4384
39.1817
39.6104
40.1498
39.6457
39.6436
39.097
39.355
39.3339
39.4296
39.6881
39.1986
39.5392
39.4286
39.4929
39.3781
38.8929
38.5997
38.508
39.0398
38.973
39.6022
39.9233
40.3399
40.3881
39.6176
39.5375
39.7083
40.4776
40.6422
40.63
40.4585
40.1342
39.9565
39.9052
40.3396
40.5261
40.5552
40.1944
39.8755
39.367
39.1443
39.5488
39.967
40.3187
40.4075
40.3681
40.046
39.8466
39.7132
40.385
40.4969
40.3707
40.5111
39.9666
39.7984
39.3052
38.8884
38.8409
38.8208
39.3998
39.6036
40.3074
40.4594
40.1178
40.1553
40.1385
39.6552
39.1745
38.6772
38.8007
39.5156
39.4638
39.5546
39.3172
39.2405
39.3383
39.7244
39.6549
39.6439
39.5732
39.0866
39.4479
39.4386
39.6217
39.2961
38.8527
38.5665
38.4127
38.8642
38.871
39.7794
39.6865
39.5883
39.58
39.614
39.9519
39.7427
39.8485
39.3781
39.4773
39.01
39.1048
39.4778
39.9313
40.2694
40.0194
40.1161
39.4711
39.2299
38.6024
38.4368
38.1921
38.2539
38.5526
38.9789
39.6195
39.4925
39.4678
38.6025
38.9782
38.8977
39.3576
39.7181
39.6025
39.666
39.7012
39.6205
39.1609
38.8209
38.3909
39.2455
38.8016
39.0999
38.5589
38.5691
38.6346
39.1672
39.5859
39.5392
39.6629
38.9613
39.0387
38.796
39.4744
39.1805
39.3485
39.0927
39.3636
38.9536
38.9829
38.4174
38.1012
37.8696
38.1592
38.803
38.6338
39.3889
39.7788
39.8282
39.3461
39.0781
38.5641
38.352
37.8157
37.6966
37.1459
36.9218
34.8368
33.4692
35.3491
38.0906
40.5973
1.45756
4.18865
7.78889
12.273
17.8525
24.8508
33.431
43.2604
53.2512
62.2672
69.1876
73.708
76.2153
77.2705
77.5409
77.2711
76.6767
75.8548
74.8654
73.6727
72.3682
71.012
69.646
68.2961
66.9787
65.7113
64.5025
63.3545
62.2664
61.2397
60.2731
59.3623
58.5053
57.6963
56.9362
56.2212
55.5466
54.9093
54.3055
53.7347
53.1947
52.6828
52.1964
51.7338
51.2927
50.8721
50.4706
50.0873
49.7207
49.37
49.0338
48.7112
48.4014
48.1039
47.8178
47.5427
47.2778
47.0226
46.7761
46.5383
46.3085
46.0865
45.8718
45.6641
45.4628
45.2677
45.0786
44.8952
44.7172
44.5444
44.3765
44.2131
44.0543
43.8994
43.7488
43.6017
43.4584
43.318
43.1811
43.0465
42.915
42.7852
42.658
42.5318
42.4071
42.283
42.1591
42.0353
41.9146
41.7896
41.659
41.5229
41.3783
41.2167
41.0374
40.808
40.5361
40.0264
39.64
41.6832
45.5742
47.152
47.693
47.7792
47.3651
46.4554
45.3075
44.0159
42.853
41.9694
41.186
40.3336
39.6812
38.9607
38.4084
38.0632
37.9673
37.2176
36.8123
36.9011
36.8108
36.2476
36.0847
36.4463
35.9437
35.74
35.4206
35.2825
35.0671
35.3239
35.7078
35.3574
35.2783
34.8892
35.0234
35.0059
35.0362
35.1926
34.8576
35.076
35.017
35.0295
34.9373
34.5288
34.251
34.155
34.4831
34.4522
34.9034
35.1948
35.5256
35.5641
35.0024
34.9165
35.0893
35.6517
35.8159
35.8269
35.718
35.476
35.3347
35.3092
35.6189
35.7746
35.7912
35.5396
35.2846
34.8864
34.6821
34.9391
35.2373
35.5116
35.6056
35.5852
35.3737
35.2201
35.1598
35.6421
35.7493
35.6669
35.7461
35.3643
35.2034
34.818
34.4448
34.3627
34.337
34.7282
34.9214
35.4479
35.6057
35.3852
35.4357
35.4341
35.0696
34.6723
34.2522
34.3131
34.8125
34.7836
34.8266
34.6663
34.6042
34.697
34.9826
34.9457
34.9388
34.8695
34.532
34.7809
34.8106
34.933
34.6863
34.3134
34.0635
33.9391
34.2273
34.286
34.9225
34.8861
34.8127
34.8405
34.9069
35.1646
35.0548
35.0903
34.7757
34.8011
34.459
34.4947
34.7975
35.1699
35.4568
35.3289
35.3659
34.9136
34.6728
34.1937
33.9904
33.7834
33.7775
33.9906
34.3337
34.8118
34.7689
34.6931
34.0879
34.3345
34.3196
34.6599
34.9785
34.9156
34.9789
35.0275
34.9522
34.6143
34.3119
34.0256
34.59
34.305
34.4631
34.083
34.0305
34.0993
34.4969
34.8574
34.8675
34.9339
34.4504
34.4675
34.3609
34.8192
34.6354
34.7297
34.588
34.7583
34.4851
34.4443
34.0233
33.7205
33.5186
33.6981
34.1703
34.0916
34.6688
35.0347
35.0942
34.7771
34.549
34.1756
33.9424
33.5172
33.3155
32.8689
32.3984
30.7615
29.5089
30.7375
32.7302
34.7156
0.724557
2.0041
3.78192
5.97785
8.86971
12.7119
17.8198
24.4365
32.3844
41.0587
49.5113
56.7614
62.222
65.7149
67.7272
68.6822
68.9584
68.829
68.424
67.8509
67.1198
66.2651
65.2867
64.2377
63.1542
62.0601
60.9734
59.9094
58.8775
57.8822
56.9284
56.0182
55.1531
54.3307
53.5498
52.8107
52.1104
51.4472
50.8177
50.2214
49.6567
49.1214
48.6125
48.1286
47.6669
47.2284
46.8106
46.4122
46.0313
45.6671
45.3181
44.9837
44.6631
44.3556
44.0601
43.7763
43.5031
43.24
42.9863
42.7418
42.5058
42.2781
42.058
41.8452
41.6392
41.4397
41.2465
41.0593
40.8778
40.7016
40.5306
40.3642
40.2026
40.0453
39.8922
39.7429
39.5976
39.4552
39.3164
39.1801
39.0469
38.9156
38.7869
38.6593
38.5334
38.408
38.2829
38.1576
38.0339
37.9078
37.7769
37.6402
37.4946
37.3335
37.1556
36.933
36.6747
36.209
35.8717
37.4242
40.4912
41.9305
42.498
42.7836
42.7056
42.2433
41.511
40.5112
39.5893
38.8085
38.0654
37.2838
36.6418
35.9869
35.4455
35.0959
34.8895
34.2348
33.815
33.8197
33.6675
33.1792
32.9937
33.1995
32.8013
32.565
32.2971
32.1133
31.9213
32.0585
32.3294
32.0671
31.9436
31.6513
31.7026
31.6863
31.6714
31.7584
31.5155
31.6494
31.6213
31.5981
31.5186
31.1674
30.9078
30.808
31.0057
30.9921
31.315
31.5696
31.8273
31.8548
31.4296
31.342
31.5109
31.9322
32.0859
32.102
32.0301
31.8463
31.7354
31.7276
31.9564
32.0865
32.0898
31.9056
31.6984
31.386
31.2071
31.3761
31.5914
31.7979
31.8807
31.8671
31.7253
31.6082
31.5959
31.9562
32.0547
31.9968
32.0348
31.7581
31.6096
31.3076
30.9788
30.886
30.8588
31.1267
31.3019
31.6971
31.8449
31.6931
31.745
31.7543
31.473
31.143
30.7944
30.8206
31.1799
31.1606
31.166
31.0501
30.9972
31.086
31.3015
31.2829
31.2747
31.2103
30.9679
31.1429
31.199
31.2802
31.0901
30.773
30.5572
30.4556
30.6424
30.724
31.1774
31.1667
31.0991
31.1448
31.2267
31.4322
31.3827
31.3834
31.1666
31.1484
30.8976
30.8999
31.1526
31.4625
31.7071
31.648
31.6513
31.3258
31.1017
30.7311
30.5215
30.348
30.3048
30.459
30.7331
31.0958
31.0932
30.9929
30.5574
30.7173
30.746
31.0051
31.2886
31.257
31.3154
31.3675
31.2987
31.0408
30.7787
30.5867
30.973
30.7935
30.8584
30.5917
30.5028
30.5745
30.8757
31.1833
31.22
31.2525
30.9098
30.8929
30.871
31.1937
31.0818
31.1268
31.0525
31.1614
30.9807
30.9058
30.5837
30.3017
30.1297
30.2391
30.5932
30.5635
31.0098
31.3422
31.4
31.1846
30.9905
30.712
30.4873
30.1479
29.912
29.5413
28.9474
27.6119
26.4845
27.3123
28.7926
30.3541
0.395624
0.978313
1.89151
3.02524
4.41865
6.32123
8.95206
12.6109
17.538
23.7837
31.0539
38.6642
45.8649
51.8053
56.239
59.1128
60.8136
61.6825
61.9659
61.9336
61.686
61.2782
60.7501
60.1218
59.4029
58.5971
57.741
56.8609
55.9712
55.0826
54.2058
53.3498
52.5197
51.7193
50.9481
50.2092
49.5025
48.8285
48.1854
47.5724
46.9882
46.4327
45.9031
45.3991
44.9175
44.4595
44.023
43.6067
43.2086
42.8282
42.4635
42.1153
41.7818
41.4623
41.1554
40.8608
40.5772
40.3045
40.0419
39.7891
39.5454
39.3103
39.0832
38.8638
38.6516
38.4464
38.2478
38.0554
37.8691
37.6884
37.513
37.3426
37.1771
37.0161
36.8597
36.7072
36.5587
36.4135
36.272
36.1331
35.9975
35.864
35.7332
35.6037
35.4759
35.3487
35.2221
35.0956
34.969
34.8416
34.7107
34.5736
34.4278
34.268
34.0926
33.8773
33.6333
33.2066
32.9079
34.1
36.5519
37.8399
38.3832
38.7323
38.8207
38.627
38.2009
37.5111
36.8252
36.1721
35.4901
34.7854
34.1768
33.5821
33.0641
32.7187
32.4492
31.865
31.4445
31.3906
31.198
30.7625
30.5596
30.6582
30.3256
30.0691
29.8338
29.625
29.4492
29.5026
29.6917
29.4813
29.3297
29.0961
29.088
29.0698
29.0249
29.0659
28.8813
28.9532
28.94
28.8905
28.8183
28.5093
28.2685
28.1668
28.2797
28.2745
28.5037
28.7206
28.9161
28.9306
28.596
28.5066
28.6671
28.9915
29.1325
29.1461
29.0951
28.9502
28.8608
28.8631
29.0369
29.1481
29.1438
29.0037
28.8305
28.5809
28.4249
28.5385
28.6982
28.8526
28.921
28.9094
28.8108
28.7192
28.7343
29.0109
29.1029
29.0594
29.0702
28.865
28.7293
28.4915
28.2023
28.109
28.0815
28.2664
28.4221
28.7225
28.8553
28.7445
28.7913
28.8064
28.5844
28.3059
28.0166
28.0228
28.2889
28.2766
28.2562
28.169
28.1208
28.2029
28.3665
28.3572
28.3456
28.2878
28.1094
28.234
28.307
28.36
28.2113
27.938
27.7514
27.6664
27.7875
27.8774
28.2056
28.2087
28.1423
28.1945
28.2803
28.4477
28.4339
28.4163
28.2625
28.2188
28.0347
28.0194
28.2367
28.4991
28.7093
28.6892
28.6715
28.4297
28.2256
27.9375
27.7368
27.5948
27.5324
27.6456
27.8643
28.1426
28.1568
28.0453
27.7237
27.824
27.8829
28.0857
28.3394
28.3241
28.376
28.4264
28.3649
28.1637
27.939
27.8102
28.0811
27.9724
27.9781
27.7912
27.6823
27.7561
27.9877
28.25
28.2979
28.308
28.0598
28.0215
28.0527
28.2883
28.2243
28.2383
28.2109
28.2766
28.1588
28.0682
27.8178
27.5578
27.4126
27.4772
27.749
27.7501
28.0963
28.3932
28.4451
28.293
28.1253
27.9106
27.7065
27.4327
27.1888
26.8726
26.232
25.1157
24.1008
24.671
25.7968
27.0257
0.270362
0.517586
0.964902
1.58993
2.35524
3.282
4.53323
6.31032
8.84054
12.3724
17.0868
22.9149
29.5112
36.1921
42.3563
47.3745
51.0942
53.5573
55.0432
55.8405
56.1887
56.2134
56.0667
55.7846
55.408
54.9413
54.4078
53.8006
53.1318
52.4284
51.7027
50.9662
50.2287
49.4999
48.7823
48.0813
47.3998
46.7411
46.1061
45.4947
44.9069
44.3436
43.8037
43.2875
42.793
42.3198
41.8671
41.4345
41.0203
40.6241
40.244
39.8807
39.5328
39.1993
38.8791
38.5717
38.2759
37.9922
37.7194
37.4569
37.204
36.9602
36.7247
36.4974
36.2779
36.0658
35.8607
35.6622
35.47
35.2836
35.1029
34.9275
34.7573
34.5919
34.4312
34.2746
34.1223
33.9735
33.8285
33.6865
33.5478
33.4115
33.2779
33.146
33.0159
32.8866
32.7581
32.63
32.5011
32.3717
32.2406
32.1031
31.9574
31.7992
31.6265
31.4184
31.1871
30.7952
30.5263
31.4478
33.4327
34.5737
35.0754
35.4316
35.593
35.5438
35.3175
34.8825
34.402
33.9002
33.3065
32.6811
32.1206
31.5839
31.097
30.762
30.46
29.9332
29.5202
29.4261
29.2084
28.8135
28.5991
28.622
28.3317
28.0631
27.8486
27.6258
27.4616
27.4558
27.5852
27.4068
27.2373
27.0392
26.9867
26.9632
26.898
26.908
26.7621
26.7877
26.7793
26.7109
26.6415
26.3644
26.1403
26.038
26.0944
26.092
26.2526
26.4346
26.5787
26.58
26.3064
26.2147
26.3618
26.6173
26.7454
26.7539
26.715
26.596
26.5208
26.5274
26.661
26.7575
26.7498
26.6402
26.4921
26.2883
26.1505
26.2274
26.3493
26.4652
26.5202
26.5084
26.4373
26.3631
26.3918
26.6077
26.6946
26.6595
26.6527
26.4974
26.3731
26.1849
25.9308
25.8413
25.8139
25.9417
26.079
26.3102
26.4275
26.3419
26.381
26.3975
26.2191
25.9799
25.7382
25.7322
25.9338
25.9275
25.8922
25.8244
25.7791
25.8528
25.9763
25.9708
25.9557
25.9037
25.77
25.8592
25.9416
25.9748
25.8569
25.6194
25.4572
25.3844
25.462
25.5526
25.7928
25.8043
25.738
25.7905
25.8734
26.0118
26.0189
25.9915
25.8795
25.8213
25.6848
25.6603
25.8516
26.0775
26.2608
26.2654
26.2329
26.0471
25.8609
25.6349
25.4493
25.336
25.2655
25.3508
25.5267
25.7422
25.7634
25.6456
25.4018
25.4592
25.5397
25.7024
25.9308
25.9237
25.9679
26.0142
25.9595
25.8001
25.608
25.5222
25.7157
25.6548
25.6268
25.4954
25.3781
25.4511
25.6317
25.8559
25.9073
25.9025
25.7191
25.67
25.7307
25.9084
25.8771
25.8715
25.8765
25.914
25.8388
25.7431
25.5469
25.307
25.1842
25.2195
25.4335
25.4541
25.7247
25.9876
26.0326
25.9209
25.7735
25.6019
25.4226
25.1978
24.9593
24.6828
24.0397
23.0917
22.1738
22.5713
23.447
24.4209
0.227937
0.324157
0.527217
0.855224
1.30235
1.83275
2.48417
3.31425
4.4982
6.19855
8.63918
12.0288
16.4853
21.8694
27.8148
33.7232
39.0742
43.4185
46.6312
48.8103
50.1636
50.9254
51.2983
51.3934
51.3057
51.1213
50.8489
50.5092
50.1036
49.6541
49.1416
48.5821
47.996
47.3931
46.7782
46.1601
45.5447
44.9369
44.3402
43.7573
43.1894
42.6385
42.1051
41.5909
41.0952
40.6175
40.1576
39.716
39.2916
38.8844
38.493
38.1172
37.7562
37.4098
37.0769
36.7571
36.4491
36.1535
35.8693
35.5959
35.3324
35.0785
34.8333
34.5971
34.3693
34.1494
33.9368
33.7311
33.5321
33.3391
33.1523
32.9712
32.7955
32.6249
32.4592
32.2979
32.141
31.9879
31.8389
31.6931
31.5508
31.4112
31.2743
31.1394
31.0065
30.8747
30.7441
30.614
30.4831
30.3513
30.2194
30.0813
29.9358
29.779
29.609
29.4074
29.1864
28.8258
28.5792
29.2941