/*--------------------------------*- C++ -*----------------------------------*\
| =========                 |                                                 |
| \\      /  F ield         | foam-extend: Open Source CFD                    |
|  \\    /   O peration     | Version:     3.2                                |
|   \\  /    A nd           | Web:         http://www.foam-extend.org         |
|    \\/     M anipulation  | For copyright notice see file Copyright         |
\*---------------------------------------------------------------------------*/
FoamFile
{
    version     2.0;
    format      ascii;
    class       volScalarField;
    location    "160";
    object      p;
}
// * * * * * * * * * * * * * * * * * * * * * * * * * * * * * * * * * * * * * //

dimensions      [1 -1 -2 0 0 0 0];

internalField   nonuniform List<scalar> 
96000
(
-1851.49
-1989.34
-2002.96
-2004.24
-2005.55
-2007.39
-2009.5
-2011.62
-2013.92
-2015.93
-2017.69
-2019.44
-2020.98
-2022.48
-2023.86
-2025.18
-2026.49
-2027.72
-2028.93
-2030.08
-2031.24
-2032.37
-2033.5
-2034.59
-2035.68
-2036.75
-2037.81
-2038.87
-2039.9
-2040.94
-2041.96
-2042.98
-2043.98
-2044.99
-2045.98
-2046.97
-2047.95
-2048.92
-2049.9
-2050.85
-2051.82
-2052.77
-2053.72
-2054.66
-2055.61
-2056.54
-2057.47
-2058.4
-2059.32
-2060.24
-2061.16
-2062.07
-2062.98
-2063.88
-2064.79
-2065.69
-2066.59
-2067.48
-2068.39
-2069.27
-2070.18
-2071.06
-2071.97
-2072.85
-2073.77
-2074.65
-2075.58
-2076.48
-2077.42
-2078.33
-2079.3
-2080.24
-2081.25
-2082.22
-2083.29
-2084.31
-2085.46
-2086.56
-2087.82
-2089.04
-2090.45
-2091.83
-2093.46
-2095.07
-2097.01
-2098.95
-2101.34
-2103.77
-2106.86
-2110.01
-2114.13
-2118.44
-2124.18
-2130.43
-2138.69
-2148.99
-2161.18
-2182.17
-2183.58
-2284.89
-2117.42
-2014.18
-1981.54
-1924.36
-1896.85
-1857.73
-1828.91
-1801.06
-1755.1
-1746.9
-1733.13
-1702.15
-1688.43
-1590.34
-1511.04
-1375.02
-1374.72
-1266.81
-1416.34
-1429.34
-1460.89
-1417.34
-1369.89
-1299.27
-1108.72
-1216.7
-1083.58
-1273.38
-1242.52
-1364.36
-1330.79
-1205.27
-1217.84
-1034.88
-1153.33
-1074.49
-1219.16
-1282.94
-1176.87
-1183.53
-959.496
-985.855
-894.11
-934.797
-1046.18
-1154.76
-1282.92
-1185.82
-1253.86
-1055.05
-968.173
-868.844
-819.658
-949.365
-996.329
-1107.36
-1052.59
-1052.92
-929.415
-809.394
-751.76
-719.119
-768.228
-806.408
-874.334
-849.413
-816.802
-692.532
-627.732
-613.555
-617.9
-694.758
-727.476
-734.578
-652.77
-563.117
-443.704
-446.856
-385.134
-450.28
-573.143
-548.199
-638.671
-541.905
-498.437
-344.417
-253.376
-267.721
-197.568
-287.466
-317.438
-408.933
-463.329
-433.439
-326.483
-231.362
-158.562
-160.821
-192.799
-207.231
-317.474
-257.424
-247.285
-92.583
-24.3131
52.5576
22.1559
-54.0167
-111.29
-256.052
-173.515
-228.206
-83.3149
-18.2459
99.2934
175.913
144.356
224.215
53.3643
74.7439
-52.7786
-6.45196
36.3072
108.95
303.338
300.293
430.351
320.554
367.899
153.675
179.799
179.795
227.907
382.261
385.602
509.229
356.905
375.401
182.166
251.076
199.462
318.509
456.552
530.614
684.587
597.944
686.058
410.555
516.427
463.056
667.799
733.551
760.644
757.231
669.516
660.579
621.655
807.371
802.011
1110.29
1018.48
1266.34
1112.01
1222.77
1132.93
1189.07
1226.1
1173.86
1278.5
1135.67
1257.99
1119.62
1275.78
1126.29
1265.76
1120.81
1256.99
1101.83
1221.57
1068.11
1110.04
1011.4
987.517
1034.02
927.241
999.952
940.516
970.654
873.805
891.684
777.082
785.539
643.183
646.557
450.109
439.05
134.668
-20.9791
48.502
-26.6287
-1881.96
-2015.63
-2029.7
-2031.39
-2032.83
-2034.71
-2036.87
-2039
-2041.33
-2043.35
-2045.13
-2046.88
-2048.43
-2049.92
-2051.31
-2052.63
-2053.94
-2055.17
-2056.39
-2057.54
-2058.7
-2059.83
-2060.96
-2062.05
-2063.14
-2064.22
-2065.28
-2066.34
-2067.37
-2068.41
-2069.43
-2070.45
-2071.45
-2072.46
-2073.45
-2074.44
-2075.42
-2076.39
-2077.37
-2078.33
-2079.29
-2080.24
-2081.2
-2082.14
-2083.08
-2084.01
-2084.94
-2085.87
-2086.8
-2087.72
-2088.63
-2089.54
-2090.46
-2091.36
-2092.27
-2093.16
-2094.07
-2094.96
-2095.86
-2096.75
-2097.65
-2098.54
-2099.44
-2100.33
-2101.24
-2102.13
-2103.06
-2103.95
-2104.9
-2105.81
-2106.78
-2107.72
-2108.73
-2109.7
-2110.77
-2111.79
-2112.94
-2114.04
-2115.3
-2116.51
-2117.93
-2119.3
-2120.94
-2122.55
-2124.49
-2126.44
-2128.82
-2131.25
-2134.34
-2137.5
-2141.61
-2145.92
-2151.66
-2157.92
-2166.19
-2176.5
-2188.68
-2209.72
-2210.27
-2309.96
-2144.64
-2041.8
-2008.73
-1951.54
-1923.83
-1884.76
-1855.83
-1828
-1782.37
-1773.85
-1759.37
-1727.88
-1714.06
-1616.72
-1539.46
-1404.49
-1404.34
-1296.8
-1443.62
-1455.08
-1486.23
-1442.83
-1396.15
-1328.34
-1138.57
-1245.72
-1113.46
-1300.49
-1269.07
-1388.91
-1356.43
-1231.68
-1246.27
-1064.82
-1182.03
-1103.76
-1244.76
-1307.06
-1201.8
-1210.36
-989.351
-1015.27
-924.44
-964.961
-1074.38
-1179.74
-1307.27
-1210.86
-1278.47
-1082.43
-997.281
-899.41
-850.192
-977.819
-1022.11
-1131.67
-1077.81
-1077.89
-956.528
-838.766
-781.772
-748.761
-796.692
-832.639
-899.28
-874.453
-842.917
-721.677
-657.766
-643.12
-646.377
-720.819
-752.347
-759.57
-678.953
-591.852
-473.515
-476.117
-414.945
-478.15
-598.9
-573.748
-663.678
-567.165
-525.088
-374.144
-283.373
-297.13
-227.061
-315.471
-344.888
-434.653
-487.446
-458.322
-353.431
-260.586
-188.62
-189.872
-221.271
-233.686
-342.287
-282.559
-273.12
-121.288
-54.287
22.3094
-7.19872
-82.1372
-137.168
-280.615
-199.09
-253.164
-109.906
-45.8208
69.8253
146.26
114.656
194.741
26.2576
48.5635
-77.2566
-31.5931
10.7866
81.6084
274.178
270.622
400.566
291.057
339.372
128.817
154.66
154.508
201.491
353.928
355.994
479.388
328.286
348.607
157.943
225.782
174.73
292.126
428.588
501.248
654.948
568.232
657.17
385.731
491.949
438.005
638.918
703.917
731.406
728.846
643.271
636.029
596.828
781.213
774.176
1081.14
988.772
1235.9
1083.51
1193.94
1105.56
1160.78
1197.81
1145.4
1249.91
1107.56
1229.94
1091.83
1247.52
1098.17
1237.45
1092.74
1228.5
1073.62
1192.66
1040.08
1081.34
984.026
959.586
1005.94
899.785
971.761
912.178
942.163
845.528
863.272
748.746
756.996
614.724
617.832
420.945
408.806
108.623
-46.9243
21.2486
-53.9518
-1915.14
-2041.62
-2056.01
-2058.09
-2059.84
-2061.88
-2064.12
-2066.31
-2068.66
-2070.71
-2072.5
-2074.27
-2075.82
-2077.33
-2078.73
-2080.05
-2081.37
-2082.61
-2083.83
-2084.98
-2086.15
-2087.28
-2088.41
-2089.51
-2090.6
-2091.67
-2092.74
-2093.8
-2094.83
-2095.87
-2096.89
-2097.91
-2098.92
-2099.92
-2100.91
-2101.9
-2102.89
-2103.86
-2104.84
-2105.79
-2106.76
-2107.71
-2108.66
-2109.61
-2110.55
-2111.48
-2112.41
-2113.34
-2114.27
-2115.19
-2116.1
-2117.01
-2117.93
-2118.83
-2119.74
-2120.63
-2121.54
-2122.43
-2123.33
-2124.22
-2125.13
-2126.01
-2126.92
-2127.8
-2128.72
-2129.61
-2130.53
-2131.43
-2132.37
-2133.28
-2134.26
-2135.19
-2136.2
-2137.18
-2138.24
-2139.27
-2140.42
-2141.52
-2142.78
-2143.99
-2145.41
-2146.78
-2148.42
-2150.03
-2151.97
-2153.91
-2156.3
-2158.73
-2161.82
-2164.98
-2169.1
-2173.41
-2179.15
-2185.42
-2193.68
-2204.01
-2216.15
-2237.28
-2237.5
-2333.72
-2171.52
-2069.16
-2035.68
-1978.72
-1950.68
-1911.7
-1882.61
-1854.85
-1809.6
-1800.74
-1785.71
-1753.6
-1739.37
-1642.72
-1567.6
-1434.06
-1434.53
-1327.38
-1471.07
-1480.85
-1511.6
-1467.96
-1422.04
-1357.04
-1168.72
-1274.82
-1144.31
-1327.75
-1295.9
-1413.21
-1381.48
-1258.03
-1274.46
-1095.03
-1210.65
-1133.78
-1270.45
-1330.75
-1226.51
-1236.65
-1019.29
-1044.63
-955.34
-995.805
-1102.89
-1205.01
-1331.3
-1235.45
-1302.08
-1109.62
-1026.26
-930.105
-881.574
-1006.69
-1048.14
-1155.89
-1102.61
-1102.31
-983.308
-867.973
-811.828
-778.747
-825.625
-859.26
-924.488
-899.216
-868.485
-750.383
-687.51
-672.986
-675.454
-747.296
-777.365
-784.249
-704.58
-620.178
-503.13
-505.759
-445.598
-506.517
-624.817
-599.357
-688.025
-592.01
-551.312
-403.532
-313.331
-326.987
-257.249
-343.828
-372.638
-460.384
-511.133
-482.743
-380.064
-289.636
-218.667
-219.206
-250.053
-260.539
-367.454
-307.365
-298.405
-149.579
-84.1765
-8.38781
-37.194
-110.666
-163.419
-304.867
-224.26
-277.452
-136.234
-73.0513
40.4694
116.296
84.7426
164.811
-1.00399
21.9266
-101.724
-56.416
-14.2165
54.7526
245.112
240.788
370.291
261.279
310.156
103.909
129.541
129.591
175.582
325.667
326.441
449.158
299.171
321.375
133.838
200.833
150.883
266.217
400.727
472.119
624.88
537.947
627.538
361.279
467.601
413.637
610.293
674.252
701.84
699.884
616.802
611.696
572.781
755.076
746.512
1051.9
959.505
1204.46
1054.51
1164.62
1078.24
1132.36
1169.01
1116.81
1220.93
1079.39
1201.9
1064.03
1218.67
1069.97
1209.07
1064.39
1199.51
1045.61
1163.14
1012
1052.36
956.566
931.839
977.712
872.193
943.33
883.565
913.401
817.059
834.605
720.16
728.175
586
588.777
391.45
378.322
82.9478
-71.874
-5.73774
-81.1937
-1948.07
-2067.27
-2082.18
-2085.03
-2086.99
-2089.11
-2091.39
-2093.62
-2095.99
-2098.06
-2099.87
-2101.65
-2103.22
-2104.73
-2106.14
-2107.47
-2108.79
-2110.03
-2111.26
-2112.41
-2113.58
-2114.72
-2115.86
-2116.95
-2118.05
-2119.12
-2120.19
-2121.25
-2122.28
-2123.33
-2124.34
-2125.37
-2126.38
-2127.38
-2128.37
-2129.36
-2130.35
-2131.32
-2132.3
-2133.26
-2134.23
-2135.18
-2136.13
-2137.07
-2138.02
-2138.95
-2139.88
-2140.81
-2141.74
-2142.66
-2143.57
-2144.48
-2145.4
-2146.3
-2147.21
-2148.11
-2149.01
-2149.9
-2150.81
-2151.7
-2152.6
-2153.48
-2154.39
-2155.28
-2156.19
-2157.08
-2158
-2158.9
-2159.85
-2160.76
-2161.73
-2162.67
-2163.68
-2164.65
-2165.72
-2166.74
-2167.89
-2168.99
-2170.25
-2171.47
-2172.88
-2174.26
-2175.89
-2177.5
-2179.45
-2181.39
-2183.78
-2186.21
-2189.3
-2192.46
-2196.58
-2200.89
-2206.63
-2212.9
-2221.16
-2231.5
-2243.57
-2264.77
-2264.92
-2357.01
-2198.12
-2096.57
-2062.54
-2005.87
-1977.47
-1938.61
-1909.35
-1881.66
-1836.77
-1827.56
-1811.97
-1779.39
-1764.67
-1668.74
-1595.61
-1463.77
-1464.45
-1358.46
-1498.57
-1506.69
-1536.92
-1493.22
-1447.9
-1385.22
-1199.34
-1303.75
-1175.63
-1355
-1322.97
-1437.38
-1406.17
-1284.95
-1302.38
-1125.24
-1239.15
-1164.01
-1296.2
-1354.17
-1251.82
-1262.43
-1049.34
-1073.92
-986.42
-1026.7
-1131.51
-1230.58
-1354.64
-1260.47
-1325.38
-1136.8
-1055.12
-960.72
-913.23
-1035.58
-1074.35
-1180.16
-1127.45
-1126.65
-1010.01
-897.153
-841.807
-808.782
-854.546
-886.066
-949.796
-924.075
-894.081
-778.979
-717.162
-702.764
-704.578
-773.836
-802.617
-808.977
-730.247
-648.338
-532.807
-535.25
-476.368
-535.046
-650.604
-625.249
-712.094
-617.056
-577.359
-432.807
-343.522
-356.647
-287.555
-372.289
-400.507
-486.126
-534.941
-507.211
-406.634
-318.566
-248.675
-248.551
-278.685
-287.806
-392.493
-332.345
-323.666
-177.774
-113.95
-39.1825
-67.2323
-139.159
-190.172
-328.739
-249.561
-301.551
-162.571
-100.204
11.1157
86.0486
55.3013
134.618
-28.3066
-4.94919
-126.168
-81.2854
-39.2053
28.2718
215.677
211.199
339.566
232.005
280.369
79.0242
104.345
104.688
149.906
297.118
297.172
418.473
270.482
293.78
109.728
175.724
127.201
240.472
372.958
443.285
594.225
507.886
597.251
337.344
442.957
389.412
581.723
644.667
672.314
670.878
590.366
587.206
548.826
728.573
719.799
1021.61
931.134
1172.35
1025.55
1134.96
1050.84
1103.78
1140.01
1088.35
1191.26
1051.72
1173.47
1036.58
1188.96
1042.3
1180.05
1036.45
1169.96
1018
1132.98
983.932
1023.21
929.138
904.286
948.957
844.721
914.727
854.938
884.383
788.433
805.692
691.505
699.171
557.13
559.452
361.846
347.831
56.1775
-95.1989
-32.7444
-108.419
-1980.38
-2094.04
-2108.12
-2111.95
-2114.23
-2116.42
-2118.72
-2120.94
-2123.33
-2125.4
-2127.24
-2129.03
-2130.6
-2132.13
-2133.54
-2134.88
-2136.21
-2137.45
-2138.68
-2139.84
-2141.02
-2142.16
-2143.29
-2144.39
-2145.49
-2146.57
-2147.64
-2148.7
-2149.74
-2150.78
-2151.8
-2152.83
-2153.83
-2154.84
-2155.83
-2156.82
-2157.81
-2158.78
-2159.76
-2160.72
-2161.69
-2162.64
-2163.6
-2164.54
-2165.48
-2166.42
-2167.35
-2168.28
-2169.2
-2170.12
-2171.04
-2171.95
-2172.87
-2173.77
-2174.68
-2175.57
-2176.48
-2177.37
-2178.28
-2179.17
-2180.07
-2180.96
-2181.86
-2182.75
-2183.66
-2184.55
-2185.48
-2186.37
-2187.32
-2188.23
-2189.2
-2190.14
-2191.15
-2192.12
-2193.19
-2194.22
-2195.37
-2196.47
-2197.73
-2198.94
-2200.36
-2201.73
-2203.37
-2204.98
-2206.92
-2208.87
-2211.25
-2213.69
-2216.78
-2219.94
-2224.06
-2228.37
-2234.11
-2240.38
-2248.62
-2258.97
-2270.95
-2292.21
-2292.17
-2380.09
-2224.58
-2124.07
-2089.43
-2032.91
-2004.21
-1965.45
-1936.06
-1908.43
-1863.91
-1854.31
-1838.1
-1805.19
-1789.91
-1694.8
-1623.64
-1493.61
-1494.08
-1390.09
-1526.05
-1532.58
-1561.99
-1518.71
-1473.73
-1413.08
-1230.53
-1332.66
-1207.12
-1382.2
-1350.13
-1461.47
-1430.87
-1311.96
-1330.04
-1155.8
-1267.61
-1194.28
-1321.91
-1377.48
-1277.26
-1288.17
-1079.56
-1103.22
-1017.66
-1057.57
-1160.15
-1256.15
-1377.76
-1285.59
-1348.58
-1164.03
-1083.99
-991.386
-945.049
-1064.32
-1100.61
-1204.43
-1152.33
-1150.95
-1036.73
-926.364
-871.801
-838.941
-883.399
-912.92
-975.01
-949.034
-919.731
-807.579
-746.939
-732.449
-733.673
-800.41
-827.913
-833.701
-756.014
-676.512
-562.733
-564.572
-507.212
-563.638
-676.131
-651.363
-736.037
-642.218
-603.379
-462.104
-373.952
-386.158
-317.952
-400.824
-428.411
-511.85
-558.744
-531.678
-433.221
-347.504
-278.698
-277.91
-307.347
-315.209
-417.147
-357.536
-348.963
-206.041
-143.719
-70.0636
-97.2723
-167.657
-216.924
-352.545
-274.92
-325.554
-188.96
-127.384
-18.2788
55.7837
25.8482
104.259
-55.5397
-31.9177
-150.518
-106.179
-64.2017
1.91318
185.945
181.862
308.497
202.66
250.49
54.2333
79.1202
79.7786
124.252
268.465
268.161
387.461
242.099
265.856
85.7146
150.58
103.604
214.775
345.183
414.425
563.355
478.168
566.73
313.428
418.135
365.242
553.139
615.065
642.802
641.929
563.998
562.628
524.955
702.09
693.518
990.724
902.596
1140.03
996.665
1105.13
1023.37
1075.08
1110.87
1060.07
1161.25
1024.25
1144.33
1009.28
1159.17
1014.84
1150.29
1008.99
1140.02
990.283
1102.68
955.885
993.945
901.695
876.64
919.84
817.525
885.986
826.46
855.005
759.776
776.6
662.801
669.913
528.319
529.685
332.443
317.378
28.9939
-117.888
-59.7417
-135.656
-2012.15
-2120.63
-2134.68
-2138.84
-2141.49
-2143.77
-2146.09
-2148.33
-2150.69
-2152.77
-2154.61
-2156.4
-2157.99
-2159.52
-2160.94
-2162.29
-2163.62
-2164.87
-2166.1
-2167.27
-2168.45
-2169.59
-2170.73
-2171.83
-2172.93
-2174.01
-2175.08
-2176.15
-2177.18
-2178.23
-2179.25
-2180.28
-2181.29
-2182.3
-2183.29
-2184.28
-2185.27
-2186.24
-2187.22
-2188.18
-2189.15
-2190.1
-2191.06
-2192
-2192.95
-2193.88
-2194.81
-2195.74
-2196.67
-2197.59
-2198.51
-2199.42
-2200.33
-2201.24
-2202.15
-2203.04
-2203.95
-2204.84
-2205.75
-2206.64
-2207.54
-2208.43
-2209.33
-2210.22
-2211.13
-2212.02
-2212.95
-2213.85
-2214.79
-2215.7
-2216.68
-2217.61
-2218.62
-2219.6
-2220.66
-2221.69
-2222.84
-2223.94
-2225.2
-2226.42
-2227.83
-2229.21
-2230.84
-2232.45
-2234.4
-2236.34
-2238.73
-2241.16
-2244.25
-2247.41
-2251.53
-2255.84
-2261.58
-2267.84
-2276.08
-2286.43
-2298.28
-2319.58
-2319.34
-2402.96
-2250.99
-2151.68
-2116.4
-2059.85
-2030.94
-1992.17
-1962.79
-1935.1
-1891.04
-1880.99
-1864.13
-1830.96
-1815.04
-1720.9
-1651.68
-1523.57
-1523.81
-1421.84
-1553.5
-1558.49
-1586.92
-1544.28
-1499.55
-1441.02
-1261.86
-1361.63
-1238.7
-1409.37
-1377.34
-1485.51
-1455.56
-1339.08
-1357.39
-1186.79
-1296.05
-1224.58
-1347.59
-1400.82
-1302.75
-1313.85
-1109.89
-1132.59
-1049.05
-1088.52
-1188.79
-1281.69
-1400.8
-1310.66
-1371.7
-1191.31
-1112.9
-1022.14
-976.967
-1092.96
-1126.92
-1228.69
-1177.21
-1175.23
-1063.45
-955.625
-901.834
-869.214
-912.221
-939.835
-1000.12
-974.088
-945.41
-836.191
-776.783
-762.124
-762.788
-827.014
-853.227
-858.402
-781.856
-704.689
-592.778
-593.879
-538.136
-592.283
-701.659
-677.506
-759.903
-667.424
-629.389
-491.432
-404.446
-415.71
-348.462
-429.442
-456.336
-537.576
-582.452
-556.116
-459.842
-376.464
-308.756
-307.306
-336.001
-342.678
-441.728
-382.804
-374.278
-234.409
-173.484
-101.039
-127.35
-196.181
-243.677
-376.287
-300.283
-349.483
-215.387
-154.593
-47.7222
25.4788
-3.62209
73.5739
-82.5607
-58.9483
-174.794
-131.067
-89.2009
-24.4279
156.124
152.593
277.182
173.31
220.538
29.4904
53.8897
54.8717
98.5899
239.749
239.223
356.26
213.8
237.858
61.7976
125.454
80.0896
189.119
317.394
385.542
532.359
448.642
535.95
289.589
393.206
341.115
524.547
585.43
613.28
612.994
537.658
538.004
501.175
675.574
667.17
959.702
874.048
1107.51
967.768
1075.14
995.8
1046.27
1081.61
1031.76
1131.03
996.736
1114.89
982.127
1129.21
987.306
1120.46
981.39
1109.95
962.553
1072.24
927.817
964.588
874.204
848.951
890.582
790.354
857.12
797.955
825.436
731.274
747.176
634.251
640.286
499.747
499.402
303.313
286.639
2.0962
-140.641
-86.7736
-162.908
-2044.03
-2146.72
-2161.44
-2165.94
-2168.7
-2171.13
-2173.48
-2175.72
-2178.09
-2180.18
-2182
-2183.8
-2185.38
-2186.92
-2188.35
-2189.7
-2191.03
-2192.29
-2193.53
-2194.7
-2195.88
-2197.02
-2198.16
-2199.27
-2200.37
-2201.45
-2202.53
-2203.59
-2204.63
-2205.68
-2206.7
-2207.73
-2208.74
-2209.75
-2210.74
-2211.74
-2212.73
-2213.7
-2214.68
-2215.64
-2216.61
-2217.56
-2218.52
-2219.46
-2220.41
-2221.35
-2222.28
-2223.21
-2224.13
-2225.05
-2225.97
-2226.88
-2227.8
-2228.7
-2229.61
-2230.51
-2231.42
-2232.31
-2233.22
-2234.11
-2235.01
-2235.9
-2236.8
-2237.69
-2238.6
-2239.49
-2240.42
-2241.32
-2242.26
-2243.17
-2244.15
-2245.08
-2246.1
-2247.07
-2248.14
-2249.16
-2250.31
-2251.41
-2252.67
-2253.89
-2255.3
-2256.68
-2258.32
-2259.93
-2261.87
-2263.82
-2266.21
-2268.63
-2271.72
-2274.88
-2279
-2283.31
-2289.04
-2295.3
-2303.52
-2313.86
-2325.56
-2346.88
-2346.42
-2425.68
-2277.37
-2179.35
-2143.39
-2086.81
-2057.69
-2018.81
-1989.5
-1961.63
-1918.22
-1907.6
-1890.1
-1856.7
-1840.08
-1747.06
-1679.7
-1553.66
-1553.65
-1453.67
-1580.97
-1584.46
-1611.87
-1569.86
-1525.39
-1468.96
-1293.34
-1390.64
-1270.41
-1436.56
-1404.61
-1509.51
-1480.24
-1366.27
-1384.69
-1217.93
-1324.49
-1254.89
-1373.28
-1424.19
-1328.3
-1339.5
-1140.32
-1162.04
-1080.56
-1119.55
-1217.45
-1307.23
-1423.78
-1335.73
-1394.74
-1218.61
-1141.84
-1052.99
-1008.95
-1121.59
-1153.31
-1252.9
-1202.08
-1199.5
-1090.19
-984.927
-931.908
-899.58
-941.031
-966.82
-1025.19
-999.217
-971.114
-864.818
-806.652
-791.824
-791.936
-853.655
-878.57
-883.092
-807.771
-732.86
-622.879
-623.245
-569.132
-620.99
-727.227
-703.662
-783.725
-692.668
-655.399
-520.785
-434.992
-445.327
-379.077
-458.141
-484.283
-563.307
-606.089
-580.516
-486.504
-405.437
-338.849
-336.738
-364.653
-370.199
-466.33
-408.1
-399.551
-262.887
-203.263
-132.101
-157.476
-224.723
-270.458
-399.972
-325.642
-373.357
-241.84
-181.83
-77.2078
-4.88404
-33.1112
42.6097
-109.429
-86.0386
-199.027
-155.952
-114.209
-50.7591
126.252
123.265
245.768
143.956
190.515
4.7598
28.6543
29.961
72.9126
210.98
210.275
324.997
185.499
209.851
37.9406
100.348
56.6414
163.503
289.601
356.642
501.263
419.112
505.092
265.801
368.184
317.009
495.958
555.769
583.743
584.06
511.323
513.337
477.446
649.008
640.853
928.538
845.464
1074.82
938.823
1045.01
968.125
1017.34
1052.23
1003.35
1100.68
969.18
1085.34
954.91
1099.11
959.736
1090.52
953.736
1079.73
934.778
1041.66
899.709
935.153
846.652
821.214
861.251
763.13
828.143
769.356
795.773
702.83
717.502
605.784
610.406
471.267
468.88
274.241
255.718
-24.6582
-163.387
-113.832
-190.142
-2075.66
-2173.14
-2188.1
-2193.05
-2196.02
-2198.45
-2200.87
-2203.13
-2205.5
-2207.59
-2209.41
-2211.22
-2212.79
-2214.33
-2215.76
-2217.11
-2218.45
-2219.71
-2220.95
-2222.12
-2223.31
-2224.45
-2225.6
-2226.71
-2227.81
-2228.89
-2229.97
-2231.04
-2232.08
-2233.13
-2234.15
-2235.18
-2236.19
-2237.2
-2238.2
-2239.19
-2240.18
-2241.16
-2242.14
-2243.1
-2244.07
-2245.02
-2245.98
-2246.93
-2247.87
-2248.81
-2249.74
-2250.67
-2251.6
-2252.52
-2253.44
-2254.35
-2255.27
-2256.17
-2257.08
-2257.98
-2258.89
-2259.78
-2260.68
-2261.57
-2262.48
-2263.36
-2264.27
-2265.16
-2266.07
-2266.96
-2267.89
-2268.79
-2269.73
-2270.65
-2271.62
-2272.55
-2273.57
-2274.54
-2275.61
-2276.63
-2277.78
-2278.88
-2280.14
-2281.36
-2282.78
-2284.15
-2285.79
-2287.4
-2289.34
-2291.29
-2293.68
-2296.1
-2299.19
-2302.35
-2306.46
-2310.77
-2316.49
-2322.75
-2330.94
-2341.28
-2352.8
-2374.12
-2373.44
-2448.33
-2303.73
-2207.05
-2170.4
-2113.82
-2084.45
-2045.49
-2016.13
-1988.05
-1945.43
-1934.15
-1916.03
-1882.43
-1865.02
-1773.3
-1707.71
-1583.84
-1583.54
-1485.58
-1608.46
-1610.47
-1636.82
-1595.46
-1551.27
-1496.91
-1324.95
-1419.7
-1302.2
-1463.76
-1431.93
-1533.52
-1504.92
-1393.52
-1411.98
-1249.14
-1352.95
-1285.21
-1398.99
-1447.59
-1353.91
-1365.12
-1170.83
-1191.57
-1112.2
-1150.65
-1246.13
-1332.78
-1446.7
-1360.78
-1417.75
-1245.93
-1170.82
-1083.91
-1040.99
-1150.21
-1179.86
-1277.01
-1226.95
-1223.76
-1116.95
-1014.26
-962.019
-930.003
-969.847
-993.872
-1050.29
-1024.39
-996.848
-893.463
-836.534
-821.551
-821.115
-880.338
-903.952
-907.787
-833.763
-761.019
-653.038
-652.677
-600.182
-649.759
-752.827
-729.845
-807.525
-717.95
-681.419
-550.156
-465.602
-475.001
-409.805
-486.901
-512.252
-589.03
-629.742
-604.891
-513.205
-434.418
-368.97
-366.204
-393.317
-397.77
-490.949
-433.437
-424.772
-291.455
-233.075
-163.235
-187.648
-253.282
-297.264
-423.622
-350.988
-397.196
-268.311
-209.099
-106.728
-35.2983
-62.6281
11.5273
-136.273
-113.178
-223.24
-180.84
-139.234
-77.0866
96.3332
93.9072
214.275
114.583
160.438
-19.9835
3.40154
5.03856
47.2183
182.175
181.332
293.692
157.213
181.817
14.1132
75.2578
33.2391
137.921
261.812
327.725
470.082
389.538
474.23
242.027
343.08
292.909
467.383
526.095
554.195
555.132
484.986
488.626
453.721
622.416
614.565
897.254
816.821
1042
909.818
1014.75
940.333
988.31
1022.74
974.858
1070.22
941.576
1055.68
927.623
1068.89
932.118
1060.45
926.031
1049.4
906.946
1010.98
871.553
905.65
819.031
793.424
831.851
735.864
799.07
740.687
766.017
674.306
687.74
577.275
580.464
442.684
438.415
245.098
224.69
-51.3097
-186.13
-140.9
-217.363
-2107.11
-2199.65
-2214.85
-2220.1
-2223.34
-2225.85
-2228.26
-2230.54
-2232.93
-2235
-2236.83
-2238.64
-2240.21
-2241.76
-2243.19
-2244.53
-2245.87
-2247.13
-2248.37
-2249.55
-2250.74
-2251.89
-2253.03
-2254.14
-2255.25
-2256.33
-2257.41
-2258.48
-2259.52
-2260.57
-2261.6
-2262.63
-2263.64
-2264.65
-2265.65
-2266.65
-2267.64
-2268.61
-2269.6
-2270.56
-2271.53
-2272.48
-2273.44
-2274.39
-2275.33
-2276.27
-2277.2
-2278.14
-2279.06
-2279.98
-2280.9
-2281.81
-2282.73
-2283.63
-2284.55
-2285.44
-2286.35
-2287.25
-2288.15
-2289.04
-2289.95
-2290.83
-2291.74
-2292.63
-2293.54
-2294.43
-2295.36
-2296.26
-2297.2
-2298.12
-2299.09
-2300.02
-2301.04
-2302.01
-2303.08
-2304.1
-2305.25
-2306.35
-2307.62
-2308.83
-2310.25
-2311.62
-2313.26
-2314.87
-2316.81
-2318.76
-2321.15
-2323.57
-2326.65
-2329.81
-2333.92
-2338.23
-2343.94
-2350.19
-2358.35
-2368.68
-2380
-2401.3
-2400.38
-2470.95
-2330.06
-2234.75
-2197.41
-2140.86
-2111.21
-2072.22
-2042.7
-2014.45
-1972.62
-1960.66
-1941.91
-1908.15
-1889.92
-1799.62
-1735.73
-1614.1
-1613.48
-1517.56
-1635.98
-1636.55
-1661.79
-1621.09
-1577.18
-1524.87
-1356.66
-1448.81
-1334.07
-1491
-1459.29
-1557.54
-1529.62
-1420.83
-1439.27
-1280.42
-1381.43
-1315.52
-1424.73
-1471.05
-1379.59
-1390.75
-1201.41
-1221.18
-1143.94
-1181.81
-1274.83
-1358.36
-1469.61
-1385.83
-1440.73
-1273.26
-1199.84
-1114.89
-1073.06
-1178.83
-1206.55
-1301.01
-1251.83
-1248.04
-1143.74
-1043.62
-992.163
-960.458
-998.686
-1020.99
-1075.43
-1049.63
-1022.62
-922.13
-866.428
-851.303
-850.322
-907.066
-929.379
-932.509
-859.826
-789.164
-683.272
-682.164
-631.269
-678.587
-778.467
-756.059
-831.322
-743.276
-707.461
-579.543
-496.272
-504.732
-440.687
-515.694
-540.245
-614.764
-653.433
-629.265
-539.945
-463.403
-399.113
-395.702
-421.997
-425.39
-515.589
-458.825
-450.031
-320.05
-262.921
-194.426
-217.862
-281.861
-324.099
-447.259
-376.333
-421.014
-294.801
-236.401
-136.276
-65.7587
-92.1771
-19.5932
-163.153
-140.359
-247.449
-205.738
-164.287
-103.418
66.3762
64.5213
182.714
85.1895
130.324
-44.7576
-21.8755
-19.9062
21.5016
153.34
152.39
262.36
128.953
153.753
-9.70454
50.1762
9.86069
112.364
234.021
298.79
438.832
359.952
443.365
218.238
317.898
268.795
438.821
496.415
524.64
526.205
458.636
463.864
429.976
595.798
588.281
865.873
788.11
1009.06
880.74
984.37
912.418
959.177
993.146
946.289
1039.66
913.911
1025.92
900.268
1038.56
904.439
1030.28
898.261
1018.96
879.048
980.204
843.344
876.086
791.335
765.575
802.391
708.544
769.907
711.951
736.175
645.711
657.893
548.692
550.481
414.003
407.906
216.014
193.568
-77.8198
-208.958
-167.967
-244.584
-2138.39
-2226.26
-2241.64
-2247.21
-2250.6
-2253.24
-2255.66
-2257.98
-2260.34
-2262.42
-2264.27
-2266.06
-2267.64
-2269.19
-2270.62
-2271.97
-2273.31
-2274.56
-2275.81
-2276.99
-2278.17
-2279.32
-2280.47
-2281.58
-2282.69
-2283.78
-2284.85
-2285.92
-2286.97
-2288.02
-2289.05
-2290.08
-2291.09
-2292.11
-2293.11
-2294.1
-2295.09
-2296.07
-2297.05
-2298.01
-2298.99
-2299.94
-2300.9
-2301.85
-2302.79
-2303.73
-2304.67
-2305.6
-2306.52
-2307.45
-2308.37
-2309.28
-2310.2
-2311.1
-2312.01
-2312.91
-2313.82
-2314.71
-2315.62
-2316.51
-2317.41
-2318.3
-2319.21
-2320.1
-2321.01
-2321.9
-2322.83
-2323.73
-2324.67
-2325.58
-2326.56
-2327.49
-2328.51
-2329.48
-2330.55
-2331.57
-2332.72
-2333.82
-2335.09
-2336.3
-2337.72
-2339.09
-2340.73
-2342.33
-2344.28
-2346.22
-2348.61
-2351.03
-2354.11
-2357.26
-2361.37
-2365.68
-2371.38
-2377.62
-2385.74
-2396.06
-2407.15
-2428.42
-2427.25
-2493.54
-2356.36
-2262.44
-2224.42
-2167.92
-2138
-2098.96
-2069.27
-2040.83
-1999.79
-1987.11
-1967.77
-1933.88
-1914.84
-1825.99
-1763.75
-1644.41
-1643.46
-1549.56
-1663.53
-1662.68
-1686.78
-1646.76
-1603.15
-1552.84
-1388.44
-1477.96
-1365.99
-1518.27
-1486.69
-1581.6
-1554.34
-1448.19
-1466.57
-1311.74
-1409.92
-1345.81
-1450.5
-1494.58
-1405.33
-1416.39
-1232.03
-1250.86
-1175.75
-1213.01
-1303.53
-1383.97
-1492.51
-1410.87
-1463.71
-1300.61
-1228.88
-1145.91
-1105.16
-1207.46
-1233.35
-1324.96
-1276.72
-1272.34
-1170.56
-1073
-1022.33
-990.933
-1027.54
-1048.17
-1100.61
-1074.92
-1048.44
-950.811
-896.327
-881.071
-879.55
-933.841
-954.852
-957.28
-885.949
-817.303
-713.562
-711.7
-662.378
-707.466
-804.151
-782.298
-855.131
-768.648
-733.532
-608.945
-526.989
-534.515
-471.739
-544.489
-568.255
-640.51
-677.175
-653.66
-566.724
-492.386
-429.262
-425.219
-450.681
-453.052
-540.265
-484.272
-475.347
-348.671
-292.789
-225.655
-248.106
-310.455
-350.966
-470.904
-401.685
-444.824
-321.304
-263.733
-165.843
-96.2561
-121.757
-50.7409
-190.075
-167.575
-271.667
-230.648
-189.367
-129.755
36.3912
35.1028
151.095
55.7774
100.19
-69.5699
-47.1773
-44.8788
-4.24187
124.48
123.441
231.011
100.715
125.671
-33.5213
25.1035
-13.5109
86.8219
206.223
269.837
407.526
330.373
412.514
194.419
292.642
244.65
410.271
466.735
495.085
497.276
432.274
439.043
406.195
569.147
561.989
834.414
759.331
976.044
851.583
953.877
884.373
929.947
963.449
917.637
1009.01
886.177
996.068
872.841
1008.15
876.694
1000.02
870.419
988.421
851.073
949.345
815.069
846.461
763.559
737.663
772.871
681.158
740.655
683.141
706.247
617.043
627.956
520.038
520.422
385.252
377.289
187.06
162.339
-104.162
-231.969
-195.044
-271.805
-2169.51
-2252.96
-2268.48
-2274.32
-2277.9
-2280.6
-2283.07
-2285.42
-2287.79
-2289.84
-2291.69
-2293.5
-2295.08
-2296.62
-2298.06
-2299.42
-2300.75
-2302.01
-2303.26
-2304.43
-2305.61
-2306.77
-2307.91
-2309.02
-2310.13
-2311.22
-2312.3
-2313.37
-2314.42
-2315.47
-2316.49
-2317.53
-2318.54
-2319.56
-2320.56
-2321.55
-2322.55
-2323.52
-2324.51
-2325.47
-2326.45
-2327.4
-2328.36
-2329.31
-2330.25
-2331.19
-2332.13
-2333.06
-2333.99
-2334.91
-2335.83
-2336.74
-2337.66
-2338.56
-2339.48
-2340.38
-2341.28
-2342.18
-2343.08
-2343.98
-2344.88
-2345.77
-2346.68
-2347.56
-2348.48
-2349.37
-2350.3
-2351.2
-2352.14
-2353.05
-2354.03
-2354.96
-2355.98
-2356.95
-2358.02
-2359.04
-2360.19
-2361.29
-2362.55
-2363.77
-2365.18
-2366.56
-2368.19
-2369.8
-2371.74
-2373.69
-2376.07
-2378.5
-2381.58
-2384.71
-2388.82
-2393.12
-2398.81
-2405.04
-2413.12
-2423.42
-2434.27
-2455.49
-2454.07
-2516.13
-2382.64
-2290.12
-2251.43
-2194.97
-2164.79
-2125.71
-2095.85
-2067.2
-2026.92
-2013.52
-1993.61
-1959.63
-1939.8
-1852.4
-1791.79
-1674.76
-1673.45
-1581.58
-1691.11
-1688.87
-1711.8
-1672.46
-1629.17
-1580.82
-1420.27
-1507.16
-1397.95
-1545.56
-1514.12
-1605.71
-1579.09
-1475.6
-1493.88
-1343.09
-1438.42
-1376.07
-1476.31
-1518.17
-1431.13
-1442.05
-1262.69
-1280.61
-1207.62
-1244.23
-1332.24
-1409.61
-1515.42
-1435.91
-1486.7
-1327.97
-1257.95
-1176.96
-1137.25
-1236.09
-1260.2
-1348.94
-1301.63
-1296.66
-1197.4
-1102.39
-1052.51
-1021.42
-1056.41
-1075.41
-1125.85
-1100.26
-1074.31
-979.503
-926.227
-910.849
-908.795
-960.66
-980.37
-982.107
-912.129
-845.45
-743.879
-741.278
-693.495
-736.387
-829.882
-808.56
-878.957
-794.061
-759.636
-638.351
-557.741
-564.344
-502.925
-573.288
-596.273
-666.265
-700.97
-678.093
-593.538
-521.362
-459.411
-454.754
-479.369
-480.749
-564.986
-509.779
-500.721
-377.312
-322.673
-256.909
-278.375
-339.06
-377.861
-494.569
-427.041
-468.635
-347.818
-291.093
-195.423
-126.784
-151.365
-81.9064
-217.037
-194.817
-295.899
-255.57
-214.481
-156.106
6.38313
5.65144
119.431
26.3469
70.0431
-94.4297
-72.5041
-69.8796
-30.0092
95.6048
94.4936
199.663
72.4998
97.5847
-57.3413
0.0443692
-36.8824
61.2899
178.42
240.876
376.185
300.803
381.69
170.559
267.308
220.463
381.742
437.069
465.548
468.348
405.906
414.166
382.377
542.463
535.69
802.901
730.492
942.962
822.353
923.284
856.206
900.629
933.658
888.903
978.276
858.365
966.117
845.331
977.65
848.877
969.672
842.502
957.791
823.014
918.406
786.726
816.783
735.705
709.696
743.307
653.706
711.326
654.269
676.249
588.31
597.938
491.316
490.284
356.43
346.591
158.205
131.035
-130.362
-255.153
-222.126
-299.025
-2200.49
-2279.76
-2295.36
-2301.45
-2305.19
-2307.98
-2310.48
-2312.84
-2315.23
-2317.28
-2319.14
-2320.93
-2322.51
-2324.08
-2325.5
-2326.86
-2328.2
-2329.46
-2330.7
-2331.88
-2333.07
-2334.22
-2335.36
-2336.47
-2337.58
-2338.67
-2339.75
-2340.82
-2341.86
-2342.92
-2343.94
-2344.98
-2345.99
-2347.01
-2348.01
-2349.01
-2350
-2350.98
-2351.97
-2352.93
-2353.9
-2354.86
-2355.82
-2356.76
-2357.71
-2358.65
-2359.59
-2360.52
-2361.45
-2362.37
-2363.29
-2364.21
-2365.12
-2366.03
-2366.94
-2367.84
-2368.75
-2369.64
-2370.55
-2371.44
-2372.35
-2373.23
-2374.14
-2375.03
-2375.95
-2376.84
-2377.76
-2378.66
-2379.61
-2380.52
-2381.5