/*--------------------------------*- C++ -*----------------------------------*\
| =========                 |                                                 |
| \\      /  F ield         | foam-extend: Open Source CFD                    |
|  \\    /   O peration     | Version:     3.2                                |
|   \\  /    A nd           | Web:         http://www.foam-extend.org         |
|    \\/     M anipulation  | For copyright notice see file Copyright         |
\*---------------------------------------------------------------------------*/
FoamFile
{
    version     2.0;
    format      ascii;
    class       areaScalarField;
    location    "160";
    object      Pa;
}
// * * * * * * * * * * * * * * * * * * * * * * * * * * * * * * * * * * * * * //

dimensions      [0 0 0 0 0 0 0];

internalField   nonuniform List<scalar> 
300
(
0.5
0.5
0.5
0.5
0.5
0.5
0.5
0.5
0.5
0.5
0.5
0.5
0.5
0.5
0.5
0.5
0.5
0.5
0.5
0.5
0.5
0.5
0.5
0.5
0.5
0.5
0.5
0.5
0.5
0.5
0.5
0.5
0.5
0.5
0.5
0.5
0.5
0.5
0.5
0.5
0.5
0.5
0.5
0.5
0.5
0.5
0.5
0.5
0.5
0.5
0.5
0.5
0.5
0.5
0.5
0.5
0.5
0.5
0.5
0.5
0.5
0.5
0.5
0.5
0.5
0.5
0.5
0.5
0.5
0.5
0.5
0.5
0.5
0.5
0.5
0.5
0.5
0.5
0.5
0.5
0.5
0.5
0.5
0.5
0.5
0.5
0.5
0.5
0.5
0.5
0.5
0.5
0.5
0.5
0.5
0.5
0.5
0.5
0.5
0.5
0.543457
0.562234
0.586351
0.604376
0.625077
0.640373
0.659977
0.670276
0.692664
0.694094
0.706182
0.7066
0.709826
0.727564
0.718347
0.747055
0.71807
0.755822
0.727683
0.751052
0.726741
0.759119
0.760891
0.738326
0.765116
0.747739
0.753082
0.746027
0.735765
0.768757
0.728273
0.772145
0.74778
0.758405
0.754641
0.751585
0.774127
0.727449
0.779126
0.739962
0.748818
0.776753
0.731012
0.787489
0.768193
0.796072
0.779445
0.796886
0.786686
0.764284
0.788844
0.772074
0.791446
0.778402
0.798359
0.771659
0.78108
0.786246
0.768733
0.789996
0.777193
0.790626
0.776812
0.782019
0.783564
0.779602
0.78446
0.783503
0.791721
0.783623
0.786715
0.779509
0.786002
0.780441
0.777806
0.779583
0.779263
0.780503
0.774025
0.780968
0.76301
0.775196
0.776443
0.770285
0.78741
0.781864
0.7864
0.771583
0.79236
0.769792
0.771113
0.782749
0.766439
0.782304
0.774048
0.774837
0.77487
0.791528
0.775519
0.784843
0.770889
0.772512
0.77809
0.782859
0.779565
0.761153
0.782291
0.768128
0.788054
0.769794
0.759951
0.783167
0.756387
0.787701
0.774296
0.793817
0.770702
0.792544
0.760771
0.765366
0.778516
0.756751
0.784427
0.758856
0.775182
0.772244
0.766325
0.752331
0.78107
0.763124
0.753652
0.774462
0.7327
0.773603
0.746841
0.752369
0.768851
0.73756
0.782155
0.757806
0.783109
0.760338
0.787956
0.756355
0.779254
0.747446
0.770032
0.753265
0.759044
0.756654
0.726558
0.782666
0.731472
0.772322
0.746705
0.768138
0.751503
0.771796
0.738747
0.732682
0.753593
0.721886
0.761079
0.736673
0.773424
0.718126
0.772018
0.727274
0.77103
0.714556
0.743209
0.733417
0.701828
0.747112
0.6864
0.756912
0.677531
0.779901
0.694359
0.79069
0.730945
0.789758
0.74017
0.768715
0.710776
0.724991
0.743437
0.650659
0.715453
0.636847
0.679613
0.615884
0.635648
0.586274
0.580757
0.545331
0.5
0.5
0.5
0.5
)
;

boundaryField
{
    inlet
    {
        type            calculated;
        value           uniform 0;
    }
    outlet
    {
        type            calculated;
        value           uniform 0;
    }
    sideWall
    {
        type            empty;
    }
}


// ************************************************************************* //
