/*--------------------------------*- C++ -*----------------------------------*\
| =========                 |                                                 |
| \\      /  F ield         | foam-extend: Open Source CFD                    |
|  \\    /   O peration     | Version:     3.2                                |
|   \\  /    A nd           | Web:         http://www.foam-extend.org         |
|    \\/     M anipulation  | For copyright notice see file Copyright         |
\*---------------------------------------------------------------------------*/
FoamFile
{
    version     2.0;
    format      ascii;
    class       areaScalarField;
    location    "160";
    object      Pc;
}
// * * * * * * * * * * * * * * * * * * * * * * * * * * * * * * * * * * * * * //

dimensions      [0 0 0 0 0 0 0];

internalField   nonuniform List<scalar> 
300
(
0.5
0.5
0.5
0.5
0.5
0.5
0.5
0.5
0.5
0.5
0.5
0.5
0.5
0.5
0.5
0.5
0.5
0.5
0.5
0.5
0.5
0.5
0.5
0.5
0.5
0.5
0.5
0.5
0.5
0.5
0.5
0.5
0.5
0.5
0.5
0.5
0.5
0.5
0.5
0.5
0.5
0.5
0.5
0.5
0.5
0.5
0.5
0.5
0.5
0.5
0.5
0.5
0.5
0.5
0.5
0.5
0.5
0.5
0.5
0.5
0.5
0.5
0.5
0.5
0.5
0.5
0.5
0.5
0.5
0.5
0.5
0.5
0.5
0.5
0.5
0.5
0.5
0.5
0.5
0.5
0.5
0.5
0.5
0.5
0.5
0.5
0.5
0.5
0.5
0.5
0.5
0.5
0.5
0.5
0.5
0.5
0.5
0.5
0.5
0.5
0.456543
0.437766
0.413649
0.395624
0.374923
0.359627
0.340023
0.329724
0.307336
0.305906
0.293818
0.2934
0.290174
0.272436
0.281653
0.252945
0.28193
0.244178
0.272317
0.248948
0.273259
0.240881
0.239109
0.261674
0.234884
0.252261
0.246918
0.253973
0.264235
0.231243
0.271727
0.227855
0.25222
0.241595
0.245359
0.248415
0.225873
0.272551
0.220874
0.260038
0.251182
0.223247
0.268988
0.212511
0.231807
0.203928
0.220555
0.203114
0.213314
0.235716
0.211156
0.227926
0.208554
0.221598
0.201641
0.228341
0.21892
0.213754
0.231267
0.210004
0.222807
0.209374
0.223188
0.217981
0.216436
0.220398
0.21554
0.216497
0.208279
0.216377
0.213285
0.220491
0.213998
0.219559
0.222194
0.220417
0.220737
0.219497
0.225975
0.219032
0.23699
0.224804
0.223557
0.229715
0.21259
0.218136
0.2136
0.228417
0.20764
0.230208
0.228887
0.217251
0.233561
0.217696
0.225952
0.225163
0.22513
0.208472
0.224481
0.215157
0.229111
0.227488
0.22191
0.217141
0.220435
0.238847
0.217709
0.231872
0.211946
0.230206
0.240049
0.216833
0.243613
0.212299
0.225704
0.206183
0.229298
0.207456
0.239229
0.234634
0.221484
0.243249
0.215573
0.241144
0.224818
0.227756
0.233675
0.247669
0.21893
0.236876
0.246348
0.225538
0.2673
0.226397
0.253159
0.247631
0.231149
0.26244
0.217845
0.242194
0.216891
0.239662
0.212044
0.243645
0.220746
0.252554
0.229968
0.246735
0.240956
0.243346
0.273442
0.217334
0.268528
0.227678
0.253295
0.231862
0.248497
0.228204
0.261253
0.267318
0.246407
0.278114
0.238921
0.263327
0.226576
0.281874
0.227982
0.272726
0.22897
0.285444
0.256791
0.266583
0.298172
0.252888
0.3136
0.243088
0.322469
0.220099
0.305641
0.20931
0.269055
0.210242
0.25983
0.231285
0.289224
0.275009
0.256563
0.349341
0.284547
0.363153
0.320387
0.384116
0.364352
0.413726
0.419243
0.454669
0.5
0.5
0.5
0.5
)
;

boundaryField
{
    inlet
    {
        type            calculated;
        value           uniform 0;
    }
    outlet
    {
        type            calculated;
        value           uniform 0;
    }
    sideWall
    {
        type            empty;
    }
}


// ************************************************************************* //
