/*--------------------------------*- C++ -*----------------------------------*\
| =========                 |                                                 |
| \\      /  F ield         | foam-extend: Open Source CFD                    |
|  \\    /   O peration     | Version:     3.2                                |
|   \\  /    A nd           | Web:         http://www.foam-extend.org         |
|    \\/     M anipulation  | For copyright notice see file Copyright         |
\*---------------------------------------------------------------------------*/
FoamFile
{
    version     2.0;
    format      ascii;
    class       volScalarField;
    location    "160";
    object      pd;
}
// * * * * * * * * * * * * * * * * * * * * * * * * * * * * * * * * * * * * * //

dimensions      [1 -1 -2 0 0 0 0];

internalField   nonuniform List<scalar> 
96000
(
-1837.75
-1975.6
-1989.22
-1990.5
-1991.81
-1993.65
-1995.76
-1997.88
-2000.18
-2002.19
-2003.95
-2005.7
-2007.24
-2008.74
-2010.12
-2011.44
-2012.75
-2013.98
-2015.19
-2016.34
-2017.5
-2018.63
-2019.76
-2020.85
-2021.94
-2023.01
-2024.07
-2025.13
-2026.16
-2027.2
-2028.22
-2029.24
-2030.24
-2031.25
-2032.24
-2033.23
-2034.21
-2035.18
-2036.16
-2037.11
-2038.08
-2039.03
-2039.98
-2040.92
-2041.87
-2042.8
-2043.73
-2044.66
-2045.58
-2046.5
-2047.42
-2048.33
-2049.24
-2050.14
-2051.05
-2051.95
-2052.85
-2053.74
-2054.64
-2055.53
-2056.44
-2057.32
-2058.23
-2059.11
-2060.03
-2060.91
-2061.84
-2062.74
-2063.68
-2064.59
-2065.56
-2066.5
-2067.51
-2068.48
-2069.55
-2070.57
-2071.72
-2072.82
-2074.08
-2075.3
-2076.71
-2078.09
-2079.72
-2081.33
-2083.27
-2085.21
-2087.6
-2090.03
-2093.12
-2096.27
-2100.39
-2104.7
-2110.44
-2116.69
-2124.95
-2135.25
-2147.44
-2168.43
-2169.87
-2292.32
-2174.93
-2118.23
-2119.44
-2092.34
-2090.87
-2075.01
-2066.51
-2057.21
-2027.06
-2034.36
-2037.25
-2018.45
-2015.08
-1925.75
-1854.36
-1727.54
-1739.68
-1635.87
-1785.94
-1809.33
-1850.71
-1807.79
-1759.21
-1698.97
-1510.35
-1616.83
-1483.04
-1671.52
-1639.91
-1761.55
-1737.15
-1610.33
-1619.57
-1431.8
-1547.78
-1470.89
-1613.52
-1680.65
-1570.35
-1574.5
-1349.91
-1373.07
-1278.62
-1309.4
-1410.47
-1510.34
-1636.98
-1537.09
-1604.23
-1408.67
-1322.55
-1224.7
-1168.12
-1292.08
-1340.32
-1456.33
-1406.29
-1407.61
-1283.94
-1160.87
-1101.32
-1068.62
-1121.27
-1163.65
-1232.53
-1204.85
-1167.45
-1037.56
-967.979
-955.644
-964.934
-1046.45
-1082.19
-1090.12
-1007.07
-916.352
-797.117
-806.121
-750.846
-816.163
-941.827
-914.635
-1001.16
-899.758
-848.589
-691.862
-598.775
-616.736
-551.761
-647.281
-683.312
-774.362
-828.632
-799.923
-689.163
-587.434
-508.191
-508.192
-545.796
-562.275
-671.888
-610.366
-598.023
-444.47
-379.853
-304.841
-334.17
-410.935
-463.853
-608.124
-527.502
-583.08
-436.652
-363.733
-239.444
-156.659
-189.485
-111.525
-287.109
-268.784
-393.824
-348.08
-304.908
-235.968
-42.3552
-45.5505
86.3014
-22.4545
27.627
-183.411
-162.308
-168.1
-128.047
24.1503
26.1952
152.588
4.86031
29.7156
-155.998
-81.6089
-128.046
-10.2058
125.965
194.301
347.139
261.533
356.818
84.8046
188.641
133.522
330.498
393.444
417.95
412.009
323.843
318.737
284.817
477.518
470.952
781.07
692.615
944.783
797.465
908.12
816.31
865.965
902.124
848.108
956.75
817.168
939.309
798.021
953.458
805.772
946.541
803.101
943.098
793.435
920.67
778.299
828.036
735.226
707.91
755.735
648.514
716.883
658.637
696.837
611.565
643.66
545.953
574.898
456.806
490.482
330.413
372.423
126.43
-7.26407
62.2439
-12.8887
-1840.74
-1974.41
-1988.48
-1990.17
-1991.61
-1993.49
-1995.65
-1997.78
-2000.11
-2002.13
-2003.91
-2005.66
-2007.21
-2008.7
-2010.09
-2011.41
-2012.72
-2013.95
-2015.17
-2016.32
-2017.48
-2018.61
-2019.74
-2020.83
-2021.92
-2023
-2024.06
-2025.12
-2026.15
-2027.19
-2028.21
-2029.23
-2030.23
-2031.24
-2032.23
-2033.22
-2034.2
-2035.17
-2036.15
-2037.11
-2038.07
-2039.02
-2039.98
-2040.92
-2041.86
-2042.79
-2043.72
-2044.65
-2045.58
-2046.49
-2047.41
-2048.32
-2049.23
-2050.14
-2051.05
-2051.94
-2052.85
-2053.74
-2054.64
-2055.53
-2056.43
-2057.32
-2058.22
-2059.11
-2060.02
-2060.91
-2061.84
-2062.73
-2063.68
-2064.59
-2065.56
-2066.5
-2067.51
-2068.48
-2069.55
-2070.57
-2071.72
-2072.82
-2074.08
-2075.29
-2076.71
-2078.08
-2079.72
-2081.33
-2083.27
-2085.21
-2087.6
-2090.03
-2093.12
-2096.28
-2100.39
-2104.7
-2110.44
-2116.7
-2124.96
-2135.28
-2147.46
-2168.5
-2169.16
-2289.97
-2174.52
-2118.19
-2119.08
-2091.97
-2090.31
-2074.51
-2065.91
-2056.64
-2026.84
-2033.84
-2035.99
-2016.71
-2013.24
-1924.67
-1855.32
-1729.57
-1741.8
-1638.39
-1785.82
-1807.62
-1848.55
-1805.83
-1758.08
-1700.55
-1512.74
-1618.41
-1485.47
-1671.19
-1639.01
-1758.71
-1735.29
-1609.3
-1620.56
-1434.3
-1549.06
-1472.7
-1611.7
-1677.28
-1567.86
-1573.91
-1352.31
-1375.04
-1281.47
-1312.12
-1411.23
-1507.93
-1633.89
-1534.7
-1601.43
-1408.6
-1324.23
-1227.78
-1171.22
-1293.13
-1338.68
-1453.2
-1404.05
-1405.13
-1283.59
-1162.81
-1103.9
-1070.84
-1122.3
-1162.42
-1230.02
-1202.44
-1166.12
-1039.26
-970.603
-957.78
-965.965
-1045.06
-1079.6
-1087.66
-1005.82
-917.651
-799.514
-807.942
-753.178
-816.61
-940.113
-912.734
-998.72
-897.557
-847.825
-694.147
-601.356
-618.706
-553.807
-647.844
-683.28
-772.64
-825.314
-797.336
-688.653
-589.21
-510.821
-509.837
-546.8
-561.273
-669.255
-608.052
-596.43
-445.74
-382.368
-307.624
-336.088
-411.577
-462.304
-605.249
-525.621
-580.578
-435.757
-363.863
-241.46
-158.9
-191.733
-113.56
-286.754
-267.479
-390.868
-345.76
-303
-235.84
-44.0614
-47.7579
83.9646
-24.485
26.5615
-180.855
-159.988
-165.944
-126.975
23.2695
24.0592
150.206
3.70681
30.3825
-152.774
-79.4483
-125.359
-9.13673
125.432
192.416
344.963
259.314
355.368
87.4115
191.626
135.894
329.104
391.265
416.167
411.089
325.076
321.647
287.462
478.771
470.594
779.387
690.371
941.816
796.378
906.74
816.37
865.17
901.287
847.142
955.616
816.503
938.706
797.703
952.68
805.117
945.697
802.515
942.075
792.699
919.248
777.733
826.797
735.265
707.477
755.116
648.511
716.2
657.816
695.845
610.793
642.751
545.139
573.876
455.909
489.313
328.961
369.852
127.805
-5.81159
62.4756
-12.7323
-1846.44
-1972.92
-1987.31
-1989.39
-1991.14
-1993.18
-1995.42
-1997.61
-1999.96
-2002.01
-2003.8
-2005.57
-2007.12
-2008.63
-2010.03
-2011.35
-2012.67
-2013.91
-2015.12
-2016.28
-2017.45
-2018.58
-2019.71
-2020.81
-2021.9
-2022.97
-2024.04
-2025.1
-2026.13
-2027.17
-2028.19
-2029.21
-2030.22
-2031.22
-2032.21
-2033.2
-2034.19
-2035.16
-2036.14
-2037.09
-2038.06
-2039.01
-2039.96
-2040.91
-2041.85
-2042.78
-2043.71
-2044.64
-2045.57
-2046.49
-2047.4
-2048.31
-2049.23
-2050.13
-2051.04
-2051.93
-2052.84
-2053.73
-2054.63
-2055.52
-2056.43
-2057.31
-2058.22
-2059.1
-2060.02
-2060.91
-2061.83
-2062.73
-2063.67
-2064.58
-2065.56
-2066.49
-2067.5
-2068.48
-2069.54
-2070.57
-2071.72
-2072.82
-2074.08
-2075.29
-2076.71
-2078.08
-2079.72
-2081.33
-2083.27
-2085.21
-2087.6
-2090.03
-2093.12
-2096.28
-2100.4
-2104.71
-2110.45
-2116.71
-2124.98
-2135.31
-2147.45
-2168.57
-2169.05
-2286.38
-2173.76
-2117.87
-2118.47
-2091.58
-2089.63
-2073.92
-2065.18
-2055.96
-2026.57
-2033.25
-2034.82
-2014.95
-2011.08
-1923.2
-1856.01
-1731.7
-1744.46
-1641.48
-1785.9
-1805.92
-1846.39
-1803.49
-1756.62
-1701.72
-1515.41
-1620.07
-1488.86
-1671
-1638.38
-1755.64
-1732.79
-1608.19
-1621.27
-1437.08
-1550.26
-1475.23
-1610
-1673.45
-1565.14
-1572.77
-1354.78
-1376.97
-1284.86
-1315.51
-1412.3
-1505.8
-1630.44
-1531.85
-1597.62
-1408.32
-1325.77
-1230.94
-1175.16
-1294.6
-1337.28
-1449.96
-1401.37
-1402.1
-1282.9
-1164.57
-1106.52
-1073.4
-1123.78
-1161.56
-1227.74
-1199.73
-1164.23
-1040.52
-972.948
-960.219
-967.587
-1044.07
-1077.15
-1084.87
-1003.99
-918.535
-801.725
-810.139
-756.324
-817.552
-938.531
-910.877
-995.609
-894.924
-846.642
-696.085
-603.909
-621.118
-556.54
-648.751
-683.519
-770.924
-821.562
-794.265
-687.812
-590.803
-513.439
-511.776
-548.094
-560.655
-666.966
-605.399
-594.289
-446.595
-384.785
-310.837
-338.643
-412.605
-461.132
-602.063
-523.324
-577.389
-434.571
-363.643
-243.356
-161.468
-194.191
-116.055
-286.542
-266.605
-387.901
-343.108
-300.578
-235.211
-45.6691
-50.1186
81.1411
-26.784
24.8188
-178.363
-157.642
-163.418
-125.374
22.4658
21.9949
147.447
2.07186
30.628
-149.428
-76.9339
-121.801
-7.5922
124.994
190.788
342.37
256.551
353.175
90.3827
194.749
138.934
327.986
389.061
414.064
409.605
326.105
324.783
290.899
480.026
470.425
777.623
688.579
937.872
794.784
904.875
816.474
864.261
899.936
846.062
954.091
815.782
938.111
797.391
951.32
804.386
944.79
801.653
940.566
792.18
917.234
777.093
825.28
735.2
707.244
754.345
648.363
715.294
656.74
694.595
609.837
641.596
544.085
572.588
454.763
487.833
327.222
367.067
129.444
-3.42506
62.9752
-12.4957
-1851.89
-1971.09
-1985.99
-1988.85
-1990.81
-1992.92
-1995.21
-1997.44
-1999.81
-2001.88
-2003.69
-2005.47
-2007.04
-2008.55
-2009.96
-2011.29
-2012.61
-2013.85
-2015.08
-2016.23
-2017.4
-2018.54
-2019.67
-2020.77
-2021.86
-2022.94
-2024.01
-2025.07
-2026.1
-2027.14
-2028.16
-2029.19
-2030.2
-2031.2
-2032.19
-2033.18
-2034.17
-2035.14
-2036.12
-2037.08
-2038.05
-2038.99
-2039.95
-2040.89
-2041.84
-2042.77
-2043.7
-2044.63
-2045.55
-2046.47
-2047.39
-2048.3
-2049.22
-2050.12
-2051.03
-2051.92
-2052.83
-2053.72
-2054.63
-2055.51
-2056.42
-2057.3
-2058.21
-2059.1
-2060.01
-2060.9
-2061.82
-2062.72
-2063.67
-2064.58
-2065.55
-2066.49
-2067.5
-2068.47
-2069.54
-2070.56
-2071.71
-2072.81
-2074.07
-2075.29
-2076.7
-2078.08
-2079.71
-2081.32
-2083.27
-2085.21
-2087.6
-2090.03
-2093.12
-2096.28
-2100.4
-2104.71
-2110.45
-2116.72
-2124.98
-2135.32
-2147.4
-2168.58
-2169.18
-2282.41
-2172.69
-2117.55
-2117.75
-2091.15
-2088.86
-2073.28
-2064.38
-2055.24
-2026.24
-2032.6
-2033.55
-2013.25
-2008.89
-1921.74
-1856.56
-1733.97
-1746.82
-1645.04
-1786.03
-1804.28
-1844.15
-1801.26
-1755.13
-1702.32
-1518.53
-1621.54
-1492.7
-1670.79
-1637.98
-1752.44
-1729.9
-1607.63
-1621.72
-1439.84
-1551.34
-1477.94
-1608.34
-1669.31
-1563
-1571.1
-1357.34
-1378.8
-1288.39
-1318.92
-1413.46
-1503.99
-1626.3
-1529.43
-1593.5
-1408
-1327.18
-1234
-1179.37
-1296.1
-1336.06
-1446.76
-1398.7
-1398.96
-1282.11
-1166.3
-1109.05
-1076.01
-1125.24
-1160.87
-1225.54
-1197.1
-1162.34
-1041.66
-975.204
-962.563
-969.24
-1043.12
-1074.91
-1082.1
-1002.2
-919.244
-803.998
-812.17
-759.557
-818.645
-936.789
-909.279
-992.201
-892.469
-845.28
-697.901
-606.694
-623.322
-559.374
-649.746
-683.847
-769.206
-817.924
-791.217
-686.886
-592.26
-516.011
-513.73
-549.216
-560.43
-664.536
-602.907
-592.119
-447.346
-387.066
-314.125
-341.231
-413.573
-460.461
-598.491
-521.144
-573.99
-433.361
-363.333
-245.239
-164.327
-196.169
-118.81
-286.354
-265.942
-384.902
-340.484
-298.138
-234.19
-47.6364
-52.222
77.8765
-28.5613
22.524
-175.852
-155.359
-160.873
-123.517
21.3839
20.2324
144.251
0.883295
30.5318
-146.075
-74.567
-118.086
-5.87882
124.646
189.475
339.209
254.04
350.333
93.87
197.587
142.112
326.944
386.949
412.013
408.093
327.188
327.775
294.441
480.905
471.226
774.828
687.696
933.268
793.225
902.679
816.505
863.218
898.392
845.144
951.89
815.548
937.127
797.437
949.114
804.191
943.251
801.213
938.51
792.064
914.588
776.474
823.595
735.148
707.219
753.045
648.328
714.232
655.669
693.099
608.731
640.206
542.973
571.131
453.487
486.103
325.409
364.295
129.898
0.531357
63.4519
-12.2431
-1856.72
-1970.37
-1984.46
-1988.29
-1990.56
-1992.76
-1995.05
-1997.28
-1999.67
-2001.74
-2003.57
-2005.37
-2006.94
-2008.47
-2009.88
-2011.22
-2012.55
-2013.79
-2015.02
-2016.18
-2017.36
-2018.5
-2019.63
-2020.73
-2021.83
-2022.91
-2023.98
-2025.04
-2026.07
-2027.12
-2028.14
-2029.16
-2030.17
-2031.18
-2032.17
-2033.16
-2034.15
-2035.12
-2036.1
-2037.06
-2038.03
-2038.98
-2039.93
-2040.88
-2041.82
-2042.76
-2043.69
-2044.62
-2045.54
-2046.46
-2047.38
-2048.29
-2049.2
-2050.11
-2051.02
-2051.91
-2052.82
-2053.71
-2054.62
-2055.51
-2056.41
-2057.29
-2058.2
-2059.09
-2060
-2060.89
-2061.82
-2062.71
-2063.66
-2064.57
-2065.54
-2066.48
-2067.49
-2068.46
-2069.53
-2070.56
-2071.7
-2072.81
-2074.07
-2075.28
-2076.7
-2078.07
-2079.71
-2081.32
-2083.26
-2085.21
-2087.59
-2090.02
-2093.12
-2096.28
-2100.39
-2104.71
-2110.45
-2116.72
-2124.97
-2135.31
-2147.3
-2168.54
-2169.19
-2278.27
-2171.5
-2117.31
-2117.04
-2090.6
-2088.04
-2072.56
-2063.55
-2054.46
-2025.87
-2031.87
-2032.12
-2011.53
-2006.62
-1920.29
-1857.12
-1736.36
-1748.85
-1649.13
-1786.13
-1802.66
-1841.6
-1799.23
-1753.62
-1702.59
-1522.19
-1622.98
-1496.69
-1670.5
-1637.64
-1749.16
-1726.98
-1607.14
-1621.87
-1442.94
-1552.37
-1480.65
-1606.62
-1665.03
-1560.97
-1569.38
-1360.04
-1380.62
-1292.04
-1322.29
-1414.62
-1502.15
-1621.91
-1527.08
-1589.26
-1407.71
-1328.58
-1237.06
-1183.72
-1297.43
-1334.86
-1443.53
-1396.04
-1395.76
-1281.3
-1168.04
-1111.58
-1078.72
-1126.61
-1160.19
-1223.22
-1194.55
-1160.49
-1042.78
-977.58
-964.804
-970.846
-1042.18
-1072.68
-1079.31
-1000.48
-919.952
-806.515
-814.018
-762.833
-819.78
-934.752
-907.873
-988.643
-890.106
-843.886
-699.726
-609.713
-625.36
-562.278
-650.792
-684.179
-767.453
-814.267
-788.146
-685.956
-593.707
-518.585
-515.691
-550.342
-560.321
-661.705
-600.612
-589.976
-448.157
-389.32
-317.474
-343.805
-414.523
-459.782
-594.845
-519.005
-570.473
-432.174
-363.033
-247.15
-167.207
-198.152
-121.727
-286.078
-265.343
-381.794
-337.863
-295.696
-233.03
-49.8915
-54.0628
74.2779
-30.3908
20.1552
-173.242
-153.092
-158.323
-121.617
20.2072
18.7445
140.745
0.0256295
30.134
-142.607
-72.2211
-114.289
-4.11575
124.291
188.155
335.853
251.9
347.269
97.3802
200.254
145.342
325.905
384.834
409.992
406.658
328.36
330.695
298.08
481.8
472.474
771.447
686.662
928.469
791.732
900.302
816.454
862.075
896.716
844.412
949.352
815.515
935.44
797.658
946.847
804.215
940.973
801.262
936.073
791.85
911.812
775.871
821.795
735.069
707.11
751.378
648.563
713.045
654.762
691.252
607.601
638.642
541.819
569.429
452.283
483.95
323.826
361.569
129.864
5.07457
63.9314
-12.0044
-1861.01
-1969.48
-1983.54
-1987.7
-1990.35
-1992.63
-1994.95
-1997.18
-1999.55
-2001.63
-2003.46
-2005.26
-2006.84
-2008.38
-2009.8
-2011.15
-2012.48
-2013.73
-2014.96
-2016.13
-2017.31
-2018.45
-2019.59
-2020.69
-2021.79
-2022.87
-2023.94
-2025
-2026.04
-2027.09
-2028.11
-2029.14
-2030.15
-2031.15
-2032.15
-2033.14
-2034.13
-2035.1
-2036.08
-2037.04
-2038.01
-2038.96
-2039.92
-2040.86
-2041.8
-2042.74
-2043.67
-2044.6
-2045.53
-2046.45
-2047.37
-2048.28
-2049.19
-2050.09
-2051.01
-2051.9
-2052.81
-2053.7
-2054.61
-2055.49
-2056.4
-2057.28
-2058.19
-2059.08
-2059.99
-2060.88
-2061.81
-2062.71
-2063.65
-2064.56
-2065.53
-2066.47
-2067.48
-2068.46
-2069.52
-2070.55
-2071.7
-2072.8
-2074.06
-2075.27
-2076.69
-2078.07
-2079.7
-2081.31
-2083.25
-2085.2
-2087.59
-2090.02
-2093.11
-2096.27
-2100.39
-2104.7
-2110.44
-2116.71
-2124.94
-2135.29
-2147.16
-2168.44
-2169.16
-2273.97
-2170.24
-2117.15
-2116.4
-2089.94
-2087.19
-2071.7
-2062.73
-2053.57
-2025.48
-2031.05
-2030.58
-2009.77
-2004.23
-1918.88
-1857.66
-1738.85
-1750.95
-1653.32
-1786.21
-1801.05
-1838.9
-1797.27
-1752.09
-1702.9
-1525.96
-1624.44
-1500.75
-1670.16
-1637.34
-1745.81
-1724.01
-1606.71
-1621.69
-1446.45
-1553.35
-1483.37
-1604.85
-1660.74
-1558.96
-1567.59
-1362.83
-1382.48
-1295.8
-1325.71
-1415.75
-1500.27
-1617.43
-1524.67
-1584.92
-1407.44
-1329.99
-1240.18
-1188.15
-1298.64
-1333.7
-1440.27
-1393.35
-1392.52
-1280.47
-1169.81
-1114.12
-1081.53
-1127.92
-1159.54
-1220.76
-1192.05
-1158.65
-1043.89
-980.014
-967.02
-972.449
-1041.24
-1070.44
-1076.46
-998.814
-920.646
-809.14
-815.83
-766.158
-820.943
-932.68
-906.464
-984.981
-887.763
-842.47
-701.569
-612.786
-627.421
-565.271
-651.894
-684.499
-765.682
-810.499
-785.02
-685.034
-595.152
-521.177
-517.676
-551.433
-560.252
-658.781
-598.375
-587.837
-449.052
-391.546
-320.891
-346.395
-415.475
-459.092
-591.123
-516.85
-566.854
-430.99
-362.74
-249.096
-170.122
-200.144
-124.96
-285.57
-264.778
-378.59
-335.215
-293.242
-231.835
-52.2226
-55.8226
70.4461
-32.2043
17.7355
-170.574
-150.814
-155.756
-119.706
18.982
17.3483
137.073
-0.72246
29.6904
-139.021
-69.841
-110.406
-2.30621
123.927
186.832
332.394
249.98
343.961
100.975
202.823
148.618
324.876
382.702
407.979
405.258
329.585
333.587
301.825
482.665
473.672
767.953
685.634
923.487
790.229
897.78
816.317
860.837
894.933
843.67
946.611
815.447
933.447
798.032
944.433
804.178
938.651
801.189
933.502
791.626
908.902
775.247
819.906
734.937
706.964
749.57
648.819
711.742
653.842
689.225
606.633
636.755
540.827
567.37
451.33
481.301
322.539
358.557
130.054
9.51055
64.3671
-11.7817
-1865.41
-1968.1
-1982.82
-1987.32
-1990.08
-1992.51
-1994.86
-1997.1
-1999.47
-2001.55
-2003.38
-2005.17
-2006.76
-2008.29
-2009.73
-2011.07
-2012.41
-2013.66
-2014.9
-2016.08
-2017.26
-2018.4
-2019.54
-2020.65
-2021.75
-2022.83
-2023.9
-2024.97
-2026.01
-2027.06
-2028.08
-2029.11
-2030.12
-2031.13
-2032.12
-2033.12
-2034.1
-2035.08
-2036.06
-2037.02
-2037.99
-2038.94
-2039.9
-2040.84
-2041.79
-2042.72
-2043.66
-2044.59
-2045.51
-2046.43
-2047.35
-2048.26
-2049.18
-2050.08
-2050.99
-2051.89
-2052.8
-2053.69
-2054.59
-2055.48
-2056.39
-2057.27
-2058.18
-2059.07
-2059.98
-2060.87
-2061.8
-2062.7
-2063.64
-2064.55
-2065.53
-2066.46
-2067.47
-2068.45
-2069.51
-2070.54
-2071.69
-2072.79
-2074.05
-2075.27
-2076.68
-2078.06
-2079.69
-2081.3
-2083.25
-2085.2
-2087.59
-2090.01
-2093.1
-2096.26
-2100.38
-2104.69
-2110.42
-2116.69
-2124.9
-2135.26
-2146.97
-2168.29
-2169.08
-2269.58
-2168.96
-2117.04
-2115.76
-2089.28
-2086.34
-2070.75
-2061.88
-2052.53
-2025.14
-2030.17
-2028.97
-2007.96
-2001.72
-1917.5
-1858.17
-1741.45
-1753.11
-1657.55
-1786.28
-1799.46
-1836.16
-1795.29
-1750.57
-1703.18
-1529.86
-1625.92
-1504.9
-1669.8
-1637.06
-1742.4
-1720.99
-1606.34
-1621.42
-1450.08
-1554.3
-1486.06
-1603.06
-1656.44
-1557
-1565.72
-1365.68
-1384.38
-1299.64
-1329.17
-1416.88
-1498.37
-1612.84
-1522.22
-1580.49
-1407.17
-1331.41
-1243.36
-1192.61
-1299.82
-1332.6
-1436.93
-1390.62
-1389.22
-1279.64
-1171.6
-1116.69
-1084.4
-1129.2
-1158.92
-1218.22
-1189.6
-1156.8
-1045
-982.457
-969.244
-974.058
-1040.31
-1068.19
-1073.56
-997.192
-921.312
-811.805
-817.675
-769.521
-822.135
-930.609
-905.03
-981.241
-885.428
-841.033
-703.417
-615.893
-629.524
-568.341
-653.045
-684.807
-763.888
-806.636
-781.824
-684.12
-596.583
-523.783
-519.679
-552.496
-560.207
-655.852
-596.142
-585.637
-450.037
-393.757
-324.365
-349.007
-416.418
-458.411
-587.324
-514.665
-563.148
-429.797
-362.45
-251.066
-173.087
-202.143
-128.456
-284.884
-264.24
-375.317
-332.538
-290.776
-230.61
-54.5877
-57.6244
66.5366
-33.9962
15.2685
-167.877
-148.522
-153.174
-117.787
17.7243
15.9649
133.367
-1.44001
29.27
-135.35
-67.4226
-106.449
-0.448393
123.572
185.515
328.863
248.086
340.594
104.632
205.312
151.927
323.87
380.567
405.972
403.885
330.841
336.459
305.639
483.49
474.92
764.338
684.589
918.352
788.687
895.126
816.086
859.506
893.052
842.85
943.755
815.342
931.362
798.36
941.885
804.118
936.221
801.07
930.807
791.37
905.87
774.591
817.943
734.744
706.776
747.691
649.025
710.34
652.844
687.116
605.732
634.628
539.929
565.072
450.484
478.435
321.33
355.356
130.331
13.9127
64.7646
-11.5425
-1869.56
-1967.04
-1982
-1986.95
-1989.91
-1992.35
-1994.77
-1997.03
-1999.4
-2001.49
-2003.31
-2005.12
-2006.69
-2008.22
-2009.66
-2011.01
-2012.35
-2013.6
-2014.85
-2016.02
-2017.2
-2018.35
-2019.5
-2020.6
-2021.71
-2022.79
-2023.87
-2024.93
-2025.98
-2027.02
-2028.05
-2029.08
-2030.09
-2031.1
-2032.1
-2033.09
-2034.08
-2035.06
-2036.04
-2037
-2037.97
-2038.92
-2039.88
-2040.82
-2041.77
-2042.71
-2043.64
-2044.57
-2045.5
-2046.42
-2047.34
-2048.25
-2049.16
-2050.07
-2050.98
-2051.88
-2052.78
-2053.68
-2054.58
-2055.47
-2056.38
-2057.26
-2058.17
-2059.06
-2059.97
-2060.86
-2061.79
-2062.69
-2063.63
-2064.54
-2065.52
-2066.45
-2067.46
-2068.44
-2069.51
-2070.53
-2071.68
-2072.78
-2074.04
-2075.26
-2076.67
-2078.05
-2079.69
-2081.3
-2083.24
-2085.19
-2087.58
-2090
-2093.08
-2096.25
-2100.36
-2104.67
-2110.4
-2116.66
-2124.85
-2135.2
-2146.75
-2168.09
-2168.97
-2265.14
-2167.67
-2116.93
-2115.11
-2088.64
-2085.49
-2069.83
-2060.92
-2051.36
-2024.81
-2029.21
-2027.29
-2006.11
-1999.09
-1916.18
-1858.64
-1744.12
-1755.31
-1661.84
-1786.34
-1797.89
-1833.4
-1793.29
-1749.06
-1703.44
-1533.85
-1627.42
-1509.1
-1669.42
-1636.8
-1738.97
-1717.94
-1605.98
-1621.13
-1453.76
-1555.25
-1488.73
-1601.25
-1652.14
-1555.06
-1563.81
-1368.58
-1386.33
-1303.56
-1332.65
-1417.99
-1496.45
-1608.18
-1519.74
-1575.99
-1406.89
-1332.83
-1246.57
-1197.09
-1300.97
-1331.61
-1433.44
-1387.85
-1385.89
-1278.79
-1173.38
-1119.26
-1087.31
-1130.44
-1158.34
-1215.67
-1187.16
-1154.95
-1046.1
-984.893
-971.472
-975.668
-1039.38
-1065.94
-1070.63
-995.614
-921.941
-814.507
-819.56
-772.902
-823.351
-928.529
-903.583
-977.444
-883.104
-839.585
-705.264
-619.045
-631.657
-571.492
-654.224
-685.103
-762.059
-802.763
-778.575
-683.213
-597.991
-526.392
-521.689
-553.542
-560.182
-652.913
-593.927
-583.365
-451.087
-395.973
-327.88
-351.635
-417.352
-457.735
-583.472
-512.443
-559.376
-428.588
-362.161
-253.051
-176.09
-204.157
-132.054
-284.149
-263.723
-371.993
-329.838
-288.305
-229.362
-56.9824
-59.4406
62.5677
-35.7821
12.7742
-165.172
-146.228
-150.583
-115.865
16.4499
14.6075
129.646
-2.11087
28.8555
-131.622
-64.9696
-102.436
1.45012
123.233
184.201
325.277
246.177
337.247
108.317
207.728
155.252
322.894
378.442
403.978
402.543
332.12
339.31
309.472
484.302
476.211
760.624
683.504
913.098
787.092
892.352
815.751
858.088
891.077
841.965
940.799
815.198
929.181
798.632
939.237
804.026
933.682
800.911
928
791.064
902.742
773.893
815.915
734.483
706.538
745.744
649.188
708.849
651.786
684.922
604.757
632.42
538.997
562.722
449.546
475.642
320.062
352.027
130.652
18.2728
65.1372
-11.2925
-1873.53
-1966.07
-1981.27
-1986.52
-1989.76
-1992.26
-1994.67
-1996.95
-1999.35
-2001.42
-2003.25
-2005.06
-2006.63
-2008.18
-2009.61
-2010.95
-2012.29
-2013.55
-2014.79
-2015.97
-2017.16
-2018.3
-2019.45
-2020.56
-2021.67
-2022.75
-2023.83
-2024.9
-2025.94
-2026.99
-2028.02
-2029.05
-2030.06
-2031.07
-2032.07
-2033.06
-2034.05
-2035.03
-2036.02
-2036.97
-2037.95
-2038.9
-2039.86
-2040.8
-2041.75
-2042.69
-2043.62
-2044.55
-2045.48
-2046.4
-2047.32
-2048.23
-2049.15
-2050.05
-2050.97
-2051.86
-2052.77
-2053.66
-2054.57
-2055.46
-2056.36
-2057.25
-2058.16
-2059.05
-2059.96
-2060.85
-2061.78
-2062.68
-2063.62
-2064.53
-2065.51
-2066.44
-2067.45
-2068.43
-2069.5
-2070.52
-2071.67
-2072.77
-2074.03
-2075.25
-2076.66
-2078.04
-2079.67
-2081.28
-2083.23
-2085.17
-2087.57
-2089.99
-2093.07
-2096.23
-2100.34
-2104.65
-2110.36
-2116.62
-2124.79
-2135.13
-2146.49
-2167.84
-2168.81
-2260.7
-2166.36
-2116.81
-2114.45
-2088.03
-2084.62
-2068.93
-2059.89
-2050.16
-2024.44
-2028.18
-2025.55
-2004.23
-1996.39
-1914.91
-1859.1
-1746.83
-1757.52
-1666.16
-1786.41
-1796.35
-1830.6
-1791.3
-1747.56
-1703.69
-1537.9
-1628.94
-1513.35
-1669.05
-1636.55
-1735.51
-1714.87
-1605.65
-1620.8
-1457.47
-1556.17
-1491.35
-1599.43
-1647.85
-1553.14
-1561.87
-1371.51
-1388.31
-1307.53
-1336.15
-1419.08
-1494.53
-1603.47
-1517.21
-1571.43
-1406.59
-1334.24
-1249.8
-1201.58
-1302.1
-1330.75
-1429.81
-1385.05
-1382.53
-1277.93
-1175.16
-1121.83
-1090.22
-1131.67
-1157.77
-1213.11
-1184.73
-1153.1
-1047.2
-987.314
-973.699
-977.272
-1038.46
-1063.7
-1067.69
-994.072
-922.527
-817.257
-821.469
-776.283
-824.581
-926.444
-902.121
-973.604
-880.791
-838.131
-707.106
-622.232
-633.82
-574.764
-655.396
-685.386
-760.206
-798.898
-775.292
-682.309
-599.369
-528.992
-523.701
-554.566
-560.168
-649.962
-591.733
-581.101
-452.135
-398.187
-331.416
-354.27
-418.275
-457.059
-579.579
-510.188
-555.542
-427.357
-361.87
-255.039
-179.118
-206.185
-135.669
-283.422
-263.214
-368.634
-327.119
-285.833
-228.094
-59.3906
-61.2607
58.5578
-37.5562
10.2736
-162.467
-143.934
-147.989
-113.942
15.171
13.2747
125.926
-2.72241
28.4452
-127.853
-62.4845
-98.3816
3.3868
122.909
182.892
321.656
244.291
333.926
112.011
210.084
158.579
321.95
376.334
402.003
401.232
333.416
342.137
313.304
485.105
477.523
756.834
682.373
907.752
785.438
889.468
815.308
856.587
889.018
841.022
937.762
815.008
926.911
798.854
936.507
803.894
931.06
800.707
925.105
790.706
899.532
773.148
813.829
734.152
706.244
743.738
649.3
707.275
650.672
682.652
603.719
630.136
537.999
560.341
448.517
472.816
318.851
348.588
131.082
22.4892
65.4655
-11.0511
-1877.33
-1965.2
-1980.58
-1986.15
-1989.54
-1992.18
-1994.6
-1996.92
-1999.27
-2001.36
-2003.21
-2005
-2006.58
-2008.13
-2009.56
-2010.91
-2012.25
-2013.5
-2014.75
-2015.93
-2017.11
-2018.26
-2019.41
-2020.52
-2021.63
-2022.71
-2023.79
-2024.86
-2025.91
-2026.96
-2027.98
-2029.02
-2030.03
-2031.04
-2032.04
-2033.04
-2034.03
-2035.01
-2035.99
-2036.95
-2037.93
-2038.88
-2039.84
-2040.78
-2041.73
-2042.67
-2043.6
-2044.54
-2045.46
-2046.38
-2047.31
-2048.22
-2049.13
-2050.04
-2050.95
-2051.85
-2052.76
-2053.65
-2054.55
-2055.45
-2056.35
-2057.24
-2058.15
-2059.03
-2059.95
-2060.84
-2061.77
-2062.66
-2063.61
-2064.52
-2065.5
-2066.43
-2067.44
-2068.42
-2069.49
-2070.51
-2071.66
-2072.76
-2074.02
-2075.24
-2076.65
-2078.03
-2079.66
-2081.27
-2083.21
-2085.16
-2087.55
-2089.97
-2093.05
-2096.21
-2100.31
-2104.62
-2110.32
-2116.57
-2124.71
-2135.04
-2146.19
-2167.56
-2168.62
-2256.27
-2165.03
-2116.67
-2113.77
-2087.4
-2083.76
-2068.03
-2058.85
-2048.92
-2024.05
-2027.09
-2023.75
-2002.33
-1993.69
-1913.66
-1859.54
-1749.56
-1759.73
-1670.48
-1786.48
-1794.83
-1827.8
-1789.3
-1746.08
-1703.91
-1541.99
-1630.47
-1517.62
-1668.67
-1636.31
-1732.06
-1711.79
-1605.33
-1620.44
-1461.2
-1557.09
-1493.93
-1597.6
-1643.59
-1551.25
-1559.91
-1374.46
-1390.32
-1311.54
-1339.64
-1420.15
-1492.6
-1598.71
-1514.64
-1566.84
-1406.27
-1335.65
-1253.04
-1206.05
-1303.19
-1329.96
-1426.1
-1382.22
-1379.16
-1277.06
-1176.92
-1124.4
-1093.11
-1132.89
-1157.24
-1210.56
-1182.32
-1151.27
-1048.28
-989.719
-975.916
-978.867
-1037.54
-1061.46
-1064.76
-992.557
-923.083
-820.038
-823.394
-779.653
-825.822
-924.366
-900.645
-969.737
-878.49
-836.676
-708.937
-625.442
-636.009
-578.175
-656.535
-685.651
-758.328
-795.044
-771.984
-681.404
-600.717
-531.581
-525.713
-555.57
-560.16
-647.01
-589.566
-578.867
-453.184
-400.396
-334.962
-356.904
-419.184
-456.385
-575.667
-507.91
-551.668
-426.111
-361.585
-257.033
-182.171
-208.227
-139.284
-282.704
-262.707
-365.249
-324.385
-283.358
-226.803
-61.8016
-63.0903
54.5119
-39.3288
7.76574
-159.785
-141.645
-145.393
-112.016
13.8997
11.9691
122.226
-3.27573
28.0505
-124.054
-59.968
-94.2982
5.35976
122.607
181.597
318.006
242.429
330.63
115.689
212.384
161.9
321.039
374.251
400.054
399.948
334.735
344.943
317.131
485.904
478.851
752.992
681.197
902.336
783.724
886.485
814.76
855.012
886.886
840.018
934.651
814.763
924.562
799.028
933.705
803.71
928.352
800.441
922.125
790.295
896.257
772.352
811.689
733.749
705.894
741.685
649.357
705.628
649.504
680.316
602.625
627.776
536.942
557.897
447.435
469.912
317.794
345.047
131.679
26.543
65.814
-10.8107
-1880.97
-1964.42
-1979.94
-1985.77
-1989.36
-1992.06
-1994.52
-1996.88
-1999.24
-2001.3
-2003.15
-2004.96
-2006.54
-2008.08
-2009.52
-2010.87
-2012.21
-2013.47
-2014.71
-2015.89
-2017.07
-2018.22
-2019.37
-2020.48
-2021.59
-2022.68
-2023.76
-2024.83
-2025.87
-2026.93
-2027.95
-2028.99
-2030
-2031.01
-2032.01
-2033.01
-2034
-2034.98
-2035.97
-2036.93
-2037.9
-2038.86
-2039.82
-2040.76
-2041.71
-2042.65
-2043.58
-2044.52
-2045.44
-2046.37
-2047.29
-2048.2
-2049.12
-2050.02
-2050.94
-2051.83
-2052.74
-2053.64
-2054.54
-2055.43
-2056.34
-2057.22
-2058.13
-2059.02
-2059.94
-2060.83
-2061.75
-2062.65
-2063.6
-2064.51
-2065.48
-2066.42
-2067.43
-2068.41
-2069.47
-2070.5
-2071.65
-2072.75
-2074.01
-2075.23
-2076.64
-2078.02
-2079.65
-2081.26
-2083.2
-2085.15
-2087.53
-2089.96
-2093.04
-2096.18
-2100.28
-2104.59
-2110.28
-2116.51
-2124.62
-2134.94
-2145.85
-2167.23
-2168.4
-2251.86
-2163.68
-2116.51
-2113.07
-2086.77
-2082.89
-2067.13
-2057.8
-2047.66
-2023.62
-2025.95
-2021.92
-2000.41
-1990.99
-1912.43
-1859.97
-1752.31
-1761.94
-1674.78
-1786.56
-1793.35
-1825
-1787.32
-1744.62
-1704.13
-1546.1
-1632
-1521.89
-1668.29
-1636.08
-1728.61
-1708.71
-1605.02
-1620.07
-1464.93
-1557.98
-1496.45
-1595.77
-1639.37
-1549.38
-1557.93
-1377.41
-1392.36
-1315.57
-1343.13
-1421.2
-1490.68
-1593.95
-1512.05
-1562.24
-1405.94
-1337.05
-1256.28
-1210.49
-1304.27
-1329.19
-1422.39
-1379.38
-1375.78
-1276.19
-1178.68
-1126.96
-1096
-1134.1
-1156.72
-1208.03
-1179.94
-1149.46
-1049.36
-992.112
-978.129
-980.455
-1036.64
-1059.23
-1061.86
-991.08
-923.631
-822.83
-825.342
-783.005
-827.075
-922.309
-899.164
-965.861
-876.206
-835.227
-710.755
-628.667
-638.227
-581.701
-657.655
-685.9
-756.43
-791.212
-768.693
-680.513
-602.044
-534.163
-527.733
-556.567
-560.171
-644.082
-587.441
-576.675
-454.24
-402.611
-338.524
-359.55
-420.094
-455.724
-571.757
-505.615
-547.771
-424.856
-361.311
-259.033
-185.246
-210.292
-142.901
-282.004
-262.203
-361.854
-321.65
-280.913
-225.526
-64.2268
-64.942
50.4378
-41.1045
5.25683
-157.141
-139.375
-142.813
-110.096
12.6411
10.6956
118.56
-3.77651
27.6734
-120.239
-57.4275
-90.2032
7.35258
122.315
180.303
314.339
240.59
327.372
119.331
214.605
165.194
320.165
372.204
398.149
398.692
336.068
347.711
320.929
486.68
480.188
749.113
679.979
896.871
781.951
883.411
814.1
853.352
884.669
838.936
931.465
814.44
922.116
799.114
930.818
803.456
925.565
800.105
919.06
789.802
892.908
771.502
809.499
733.275
705.489
739.591
649.356
703.914
648.286
677.921
601.473
625.345
535.828
555.392
446.306
466.958
316.86
341.427
132.399
30.3973
66.1383
-10.5589
-1884.47
-1963.74
-1979.33
-1985.42
-1989.17
-1991.95
-1994.46
-1996.82
-1999.2
-2001.25
-2003.12
-2004.91
-2006.49
-2008.05
-2009.48
-2010.83
-2012.17
-2013.43
-2014.68
-2015.86
-2017.04
-2018.19
-2019.34
-2020.45
-2021.56
-2022.64
-2023.72
-2024.79
-2025.84
-2026.89
-2027.92
-2028.96
-2029.97
-2030.99
-2031.99
-2032.99
-2033.98
-2034.96
-2035.94
-2036.91
-2037.88
-2038.83
-2039.79
-2040.74
-2041.69
-2042.63
-2043.57
-2044.5
-2045.43
-2046.35
-2047.27
-2048.18
-2049.1
-2050.01
-2050.92
-2051.82
-2052.73
-2053.62
-2054.53
-2055.42
-2056.32
-2057.21