/*--------------------------------*- C++ -*----------------------------------*\
| =========                 |                                                 |
| \\      /  F ield         | foam-extend: Open Source CFD                    |
|  \\    /   O peration     | Version:     3.2                                |
|   \\  /    A nd           | Web:         http://www.foam-extend.org         |
|    \\/     M anipulation  | For copyright notice see file Copyright         |
\*---------------------------------------------------------------------------*/
FoamFile
{
    version     2.0;
    format      ascii;
    class       areaScalarField;
    location    "160";
    object      Pef;
}
// * * * * * * * * * * * * * * * * * * * * * * * * * * * * * * * * * * * * * //

dimensions      [0 0 0 0 0 0 0];

internalField   nonuniform List<scalar> 
300
(
0.996918
0.992009
0.963813
0.922379
0.894485
0.875779
0.860155
0.844908
0.829479
0.814262
0.799664
0.785783
0.772535
0.76016
0.748572
0.737671
0.727392
0.717649
0.708509
0.7
0.691946
0.684255
0.676915
0.669931
0.663291
0.656937
0.650862
0.645032
0.639452
0.634126
0.628993
0.624073
0.619313
0.61475
0.61034
0.606113
0.602002
0.598052
0.594208
0.590504
0.586915
0.583443
0.580068
0.5768
0.573612
0.570536
0.567529
0.564632
0.561778
0.559037
0.556327
0.553727
0.55116
0.548693
0.546252
0.543905
0.541576
0.539347
0.537092
0.534964
0.532807
0.530788
0.528729
0.526814
0.524847
0.523038
0.521161
0.519453
0.517663
0.516058
0.514361
0.512867
0.511268
0.509893
0.508401
0.507158
0.505798
0.504705
0.503509
0.502599
0.501607
0.500924
0.500209
0.499815
0.499509
0.499463
0.499639
0.50019
0.501045
0.502431
0.504443
0.507017
0.510906
0.515268
0.522891
0.530846
0.548173
0.555564
0.644106
0.609842
0.286684
0.262544
0.284115
0.282642
0.294907
0.291969
0.306223
0.299648
0.314865
0.31765
0.292489
0.321798
0.307201
0.326963
0.323378
0.351775
0.278944
0.320585
0.365678
0.318064
0.296045
0.3182
0.395891
0.252853
0.322793
0.331615
0.338252
0.353084
0.3317
0.378169
0.256425
0.348865
0.319269
0.359972
0.374716
0.316839
0.367976
0.280126
0.372581
0.348805
0.322985
0.350543
0.31998
0.377867
0.370828
0.431447
0.366146
0.385408
0.378795
0.340577
0.366331
0.300104
0.39294
0.40864
0.39263
0.357304
0.329073
0.34762
0.346555
0.36957
0.363839
0.386965
0.354308
0.330436
0.3335
0.358533
0.367194
0.380572
0.417563
0.372214
0.351882
0.342023
0.344789
0.341699
0.36525
0.359434
0.389661
0.344269
0.303204
0.358878
0.301895
0.351873
0.350827
0.343457
0.404904
0.363202
0.396498
0.351785
0.353276
0.336999
0.293479
0.347504
0.346785
0.316422
0.345349
0.36418
0.380334
0.41218
0.319632
0.335095
0.344159
0.356187
0.369873
0.357236
0.343705
0.328348
0.352545
0.305305
0.390708
0.356469
0.33278
0.335597
0.322095
0.372079
0.354119
0.417657
0.354322
0.378069
0.334496
0.316991
0.36371
0.334434
0.381349
0.301513
0.34591
0.316971
0.367157
0.344699
0.342096
0.386553
0.336119
0.342296
0.275856
0.334693
0.291111
0.338725
0.328373
0.344569
0.371929
0.354556
0.388776
0.34148
0.376102
0.282077
0.342872
0.288473
0.384146
0.375645
0.335162
0.361571
0.294176
0.331451
0.312062
0.317822
0.294763
0.352693
0.304745
0.41894
0.295701
0.338362
0.330226
0.323011
0.38012
0.334872
0.35318
0.273079
0.351121
0.271594
0.35578
0.334019
0.353557
0.302689
0.311877
0.312184
0.32101
0.301366
0.314027
0.316871
0.317074
0.363393
0.341381
0.39122
0.275307
0.340675
0.315626
0.273963
0.269242
0.30112
0.301016
0.32374
0.314401
0.346161
0.0164303
0.111608
0.127986
0.357513
0.693526
0.572029
0.405654
0.358098
)
;

boundaryField
{
    inlet
    {
        type            calculated;
        value           uniform 0;
    }
    outlet
    {
        type            calculated;
        value           uniform 0;
    }
    sideWall
    {
        type            empty;
    }
}


// ************************************************************************* //
