/*--------------------------------*- C++ -*----------------------------------*\
| =========                 |                                                 |
| \\      /  F ield         | foam-extend: Open Source CFD                    |
|  \\    /   O peration     | Version:     3.2                                |
|   \\  /    A nd           | Web:         http://www.foam-extend.org         |
|    \\/     M anipulation  | For copyright notice see file Copyright         |
\*---------------------------------------------------------------------------*/
FoamFile
{
    version     2.0;
    format      ascii;
    class       surfaceScalarField;
    location    "160";
    object      phi;
}
// * * * * * * * * * * * * * * * * * * * * * * * * * * * * * * * * * * * * * //

dimensions      [0 3 -1 0 0 0 0];

internalField   nonuniform List<scalar> 
191380
(
6.20162e-05
3.92338e-05
4.34317e-05
1.85845e-05
3.68831e-05
6.54858e-06
3.4861e-05
2.0221e-06
3.39662e-05
8.94832e-07
3.33299e-05
6.36251e-07
3.27754e-05
5.54469e-07
3.22528e-05
5.22661e-07
3.17611e-05
4.917e-07
3.13152e-05
4.45891e-07
3.09158e-05
3.99335e-07
3.05513e-05
3.64534e-07
3.0221e-05
3.30295e-07
2.99228e-05
2.98262e-07
2.96509e-05
2.71859e-07
2.94014e-05
2.49541e-07
2.91694e-05
2.31982e-07
2.89547e-05
2.14697e-07
2.87583e-05
1.96377e-07
2.85779e-05
1.80401e-07
2.84077e-05
1.70206e-07
2.82466e-05
1.61136e-07
2.80941e-05
1.5247e-07
2.79505e-05
1.43554e-07
2.78145e-05
1.3601e-07
2.76852e-05
1.29328e-07
2.75619e-05
1.2326e-07
2.74442e-05
1.17762e-07
2.73324e-05
1.11734e-07
2.72255e-05
1.06909e-07
2.71233e-05
1.02234e-07
2.7025e-05
9.83276e-08
2.69306e-05
9.43929e-08
2.68399e-05
9.06608e-08
2.6753e-05
8.69259e-08
2.66692e-05
8.37899e-08
2.65883e-05
8.09218e-08
2.65103e-05
7.80051e-08
2.64346e-05
7.56673e-08
2.63619e-05
7.27279e-08
2.62913e-05
7.05271e-08
2.62232e-05
6.81697e-08
2.6157e-05
6.61799e-08
2.60928e-05
6.42467e-08
2.60305e-05
6.22788e-08
2.59701e-05
6.04221e-08
2.59115e-05
5.85624e-08
2.58544e-05
5.71016e-08
2.57989e-05
5.54658e-08
2.57449e-05
5.40424e-08
2.56922e-05
5.26809e-08
2.56411e-05
5.1122e-08
2.55912e-05
4.98906e-08
2.55427e-05
4.85052e-08
2.54952e-05
4.74646e-08
2.5449e-05
4.6212e-08
2.54039e-05
4.51243e-08
2.53594e-05
4.44352e-08
2.5316e-05
4.34923e-08
2.52736e-05
4.23719e-08
2.52322e-05
4.14058e-08
2.51919e-05
4.02283e-08
2.51526e-05
3.93898e-08
2.51143e-05
3.82368e-08
2.5077e-05
3.73636e-08
2.50408e-05
3.6202e-08
2.50053e-05
3.54676e-08
2.49711e-05
3.42108e-08
2.49375e-05
3.35463e-08
2.49054e-05
3.21044e-08
2.4874e-05
3.14334e-08
2.48442e-05
2.9827e-08
2.4815e-05
2.91297e-08
2.47877e-05
2.73341e-08
2.47611e-05
2.65718e-08
2.47369e-05
2.42693e-08
2.47133e-05
2.35416e-08
2.46927e-05
2.05771e-08
2.46731e-05
1.96514e-08
2.46571e-05
1.59981e-08
2.46423e-05
1.47451e-08
2.46325e-05
9.86178e-09
2.46242e-05
8.24685e-09
2.46231e-05
1.11041e-09
2.46237e-05
-6.09014e-10
2.46322e-05
-8.50024e-09
2.46461e-05
-1.39032e-08
2.46713e-05
-2.51912e-08
2.47032e-05
-3.19055e-08
2.47541e-05
-5.08485e-08
2.48144e-05
-6.02746e-08
2.49051e-05
-9.07409e-08
2.50102e-05
-1.05143e-07
2.5173e-05
-1.62746e-07
2.53768e-05
-2.03844e-07
2.5716e-05
-3.39184e-07
2.60443e-05
-3.28254e-07
2.73324e-05
-1.28813e-06
2.81567e-05
-8.24194e-07
2.00086e-05
8.1477e-06
1.55157e-05
4.49148e-06
1.76737e-05
-2.15889e-06
1.84049e-05
-7.31432e-07
1.89928e-05
-5.87916e-07
1.92553e-05
-2.62448e-07
1.96294e-05
-3.74021e-07
1.98312e-05
-2.01461e-07
1.99723e-05
-1.42298e-07
2.04993e-05
-5.24914e-07
1.98793e-05
6.24558e-07
1.98222e-05
4.92047e-08
2.0198e-05
-3.83635e-07
2.00626e-05
1.37322e-07
2.06618e-05
-5.99505e-07
2.09752e-05
-3.04858e-07
2.06712e-05
3.1321e-07
1.95031e-05
1.16136e-06
2.23858e-05
-2.88572e-06
2.11298e-05
1.25928e-06
1.98088e-05
1.31501e-06
1.97968e-05
1.76736e-09
2.18621e-05
-2.0725e-06
2.02267e-05
1.63849e-06
1.87654e-05
1.47778e-06
2.21709e-05
-3.39719e-06
2.07437e-05
1.42098e-06
2.23907e-05
-1.64666e-06
2.09562e-05
1.43853e-06
2.19761e-05
-1.02831e-06
1.95569e-05
2.41627e-06
1.927e-05
2.90155e-07
2.16534e-05
-2.38872e-06
2.08197e-05
8.41651e-07
2.31474e-05
-2.31596e-06
2.0953e-05
2.19262e-06
2.18532e-05
-8.9833e-07
2.04672e-05
1.38267e-06
1.99665e-05
4.88149e-07
2.20555e-05
-2.09419e-06
2.01533e-05
1.90295e-06
2.17282e-05
-1.56704e-06
2.09412e-05
7.9522e-07
2.19432e-05
-1.00595e-06
2.29724e-05
-1.02795e-06
2.34215e-05
-4.38793e-07
2.27146e-05
7.01376e-07
2.08251e-05
1.87644e-06
2.24992e-05
-1.67061e-06
2.06854e-05
1.8169e-06
2.12507e-05
-5.72145e-07
2.05115e-05
7.46719e-07
2.15249e-05
-1.00048e-06
2.39831e-05
-2.45574e-06
2.27323e-05
1.25178e-06
2.19167e-05
8.07139e-07
2.02539e-05
1.65506e-06
2.0863e-05
-6.01994e-07
2.07457e-05
1.16619e-07
2.13344e-05
-5.98248e-07
2.21934e-05
-8.51288e-07
2.25054e-05
-3.00214e-07
2.22525e-05
2.51637e-07
2.09565e-05
1.29618e-06
2.07892e-05
1.60241e-07
2.08206e-05
-4.24816e-08
2.15456e-05
-7.28175e-07
2.18396e-05
-2.9896e-07
2.30685e-05
-1.22129e-06
2.2878e-05
2.02087e-07
2.17055e-05
1.17051e-06
2.14446e-05
2.598e-07
2.09425e-05
4.93749e-07
2.07813e-05
1.50973e-07
2.09674e-05
-1.87417e-07
2.1567e-05
-6.02638e-07
2.19979e-05
-4.21871e-07
2.22846e-05
-2.75418e-07
2.03565e-05
1.92078e-06
2.13108e-05
-9.56439e-07
2.11956e-05
1.2142e-07
2.01579e-05
1.02773e-06
2.17442e-05
-1.59743e-06
2.08099e-05
9.40358e-07
2.21517e-05
-1.34361e-06
2.19095e-05
2.3264e-07
2.231e-05
-3.89562e-07
2.26268e-05
-3.05106e-07
2.1135e-05
1.48425e-06
2.15141e-05
-3.86056e-07
2.02408e-05
1.27775e-06
2.0891e-05
-6.44196e-07
2.14175e-05
-5.33914e-07
2.04126e-05
9.97626e-07
2.0517e-05
-1.04173e-07
2.16651e-05
-1.15431e-06
2.23329e-05
-6.61666e-07
2.33626e-05
-1.01764e-06
2.19362e-05
1.42535e-06
2.04302e-05
1.50625e-06
2.14163e-05
-9.92525e-07
2.07753e-05
6.30659e-07
2.1629e-05
-8.55662e-07
2.13085e-05
3.18624e-07
2.14557e-05
-1.3808e-07
2.09245e-05
5.4224e-07
2.16464e-05
-7.27037e-07
2.11768e-05
4.69012e-07
2.15559e-05
-3.7194e-07
2.25462e-05
-9.97042e-07
2.03394e-05
2.19829e-06
2.10899e-05
-7.44433e-07
2.01752e-05
9.21104e-07
2.1326e-05
-1.15759e-06
2.17558e-05
-4.39953e-07
2.28771e-05
-1.11323e-06
2.29257e-05
-3.75629e-08
2.13874e-05
1.53154e-06
2.23289e-05
-9.441e-07
2.02055e-05
2.12869e-06
2.15038e-05
-1.30549e-06
2.08809e-05
6.13233e-07
2.13639e-05
-4.80512e-07
2.07085e-05
6.58199e-07
1.99447e-05
7.60355e-07
2.15269e-05
-1.57716e-06
2.10487e-05
4.87714e-07
2.248e-05
-1.43406e-06
2.10179e-05
1.46252e-06
2.29541e-05
-1.92817e-06
2.12091e-05
1.73609e-06
2.06072e-05
5.916e-07
1.96265e-05
9.86855e-07
1.96737e-05
-4.65681e-08
2.09867e-05
-1.3103e-06
2.02939e-05
7.02236e-07
2.21945e-05
-1.89754e-06
2.10491e-05
1.14985e-06
2.24971e-05
-1.45252e-06
2.11545e-05
1.33184e-06
2.22357e-05
-1.07867e-06
2.13314e-05
9.08607e-07
2.12398e-05
8.66941e-08
2.04495e-05
7.88525e-07
1.98927e-05
5.6845e-07
2.14248e-05
-1.52445e-06
2.08423e-05
5.82435e-07
2.37104e-05
-2.86381e-06
2.05671e-05
3.13404e-06
2.14844e-05
-9.32659e-07
1.98533e-05
1.63551e-06
2.04128e-05
-5.44247e-07
2.09814e-05
-5.61901e-07
2.06994e-05
2.81625e-07
2.05123e-05
1.88205e-07
2.06301e-05
-1.23943e-07
2.08827e-05
-2.61222e-07
2.11024e-05
-2.21441e-07
2.18685e-05
-7.65848e-07
1.90591e-05
2.80886e-06
2.22097e-05
-3.14709e-06
2.01413e-05
2.07589e-06
2.28324e-05
-2.69185e-06
2.12056e-05
1.62283e-06
2.17049e-05
-4.99623e-07
1.9937e-05
1.76783e-06
2.03607e-05
-4.23804e-07
2.07039e-05
-3.43404e-07
1.99749e-05
7.28731e-07
2.24159e-05
-2.44131e-06
2.08363e-05
1.57927e-06
2.16272e-05
-7.91096e-07
1.9485e-05
2.14211e-06
2.1464e-05
-1.97921e-06
2.00986e-05
1.36519e-06
2.1341e-05
-1.24268e-06
1.9795e-05
1.54585e-06
2.16843e-05
-1.88954e-06
2.02459e-05
1.43811e-06
2.23578e-05
-2.11213e-06
2.15946e-05
7.62876e-07
2.27451e-05
-1.15079e-06
2.086e-05
1.88499e-06
1.98511e-05
1.00885e-06
2.16606e-05
-1.80972e-06
1.94523e-05
2.20814e-06
1.95463e-05
-9.41128e-08
1.98303e-05
-2.84079e-07
2.10569e-05
-1.22689e-06
2.07782e-05
2.7851e-07
2.16121e-05
-8.34052e-07
2.13146e-05
2.97344e-07
2.21901e-05
-8.75552e-07
2.20687e-05
1.21432e-07
2.31673e-05
-1.09843e-06
2.39444e-05
-7.76045e-07
3.06627e-05
-6.71644e-06
2.92272e-05
1.43613e-06
2.28667e-05
6.36036e-06
2.1304e-05
1.5627e-06
7.62445e-07
8.94817e-05
5.10022e-05
7.65994e-05
3.14667e-05
6.8042e-05
1.5106e-05
6.32813e-05
6.78276e-06
6.03139e-05
3.86221e-06
5.82033e-05
2.74693e-06
5.65594e-05
2.19828e-06
5.5187e-05
1.89511e-06
5.40282e-05
1.65055e-06
5.30422e-05
1.4318e-06
5.21841e-05
1.25747e-06
5.14251e-05
1.12354e-06
5.07532e-05
1.00215e-06
5.01583e-05
8.93196e-07
4.96219e-05
8.08289e-07
4.91339e-05
7.37567e-07
4.86864e-05
6.7939e-07
4.82767e-05
6.24397e-07
4.78994e-05
5.73714e-07
4.75473e-05
5.32519e-07
4.72174e-05
5.00086e-07
4.69083e-05
4.70269e-07
4.66186e-05
4.42189e-07
4.6347e-05
4.15122e-07
4.60909e-05
3.92137e-07
4.58485e-05
3.71703e-07
4.56189e-05
3.52846e-07
4.54008e-05
3.35857e-07
4.51944e-05
3.18167e-07
4.49976e-05
3.03715e-07
4.48099e-05
2.89923e-07
4.46302e-05
2.77964e-07
4.44584e-05
2.66276e-07
4.42939e-05
2.55162e-07
4.41363e-05
2.44467e-07
4.39849e-05
2.35195e-07
4.38391e-05
2.26752e-07
4.36988e-05
2.18253e-07
4.35634e-05
2.1112e-07
4.34331e-05
2.02976e-07
4.33073e-05
1.96382e-07
4.31857e-05
1.89792e-07
4.3068e-05
1.83836e-07
4.29539e-05
1.7832e-07
4.28436e-05
1.72602e-07
4.27366e-05
1.67377e-07
4.26331e-05
1.62095e-07
4.25324e-05
1.57828e-07
4.24346e-05
1.53213e-07
4.23396e-05
1.49108e-07
4.22471e-05
1.45158e-07
4.21573e-05
1.40921e-07
4.20699e-05
1.37303e-07
4.19848e-05
1.33556e-07
4.19019e-05
1.30391e-07
4.18211e-05
1.27015e-07
4.17423e-05
1.23909e-07
4.16656e-05
1.21111e-07
4.15911e-05
1.18e-07
4.15185e-05
1.1498e-07
4.14477e-05
1.12195e-07
4.13788e-05
1.09171e-07
4.13115e-05
1.06652e-07
4.1246e-05
1.03752e-07
4.11822e-05
1.01178e-07
4.11201e-05
9.82772e-08
4.10596e-05
9.60058e-08
4.10009e-05
9.29519e-08
4.09436e-05
9.08162e-08
4.08883e-05
8.74036e-08
4.08345e-05
8.52015e-08
4.07829e-05
8.14433e-08
4.07329e-05
7.91374e-08
4.06853e-05
7.49461e-08
4.06394e-05
7.24812e-08
4.05965e-05
6.71302e-08
4.05554e-05
6.46204e-08
4.05182e-05
5.78011e-08
4.04832e-05
5.46981e-08
4.04529e-05
4.62441e-08
4.04254e-05
4.22968e-08
4.04043e-05
3.09576e-08
4.03866e-05
2.59303e-08
4.03781e-05
9.64215e-09
4.03743e-05
3.1316e-09
4.03817e-05
-1.58957e-08
4.03968e-05
-2.8992e-08
4.04273e-05
-5.57129e-08
4.04692e-05
-7.38216e-08
4.05394e-05
-1.21051e-07
4.06233e-05
-1.44152e-07
4.07529e-05
-2.20365e-07
4.09074e-05
-2.59653e-07
4.11403e-05
-3.9557e-07
4.14313e-05
-4.94885e-07
4.18946e-05
-8.02429e-07
4.24474e-05
-8.81069e-07
4.39795e-05
-2.82027e-06
4.53592e-05
-2.20356e-06
3.72873e-05
1.62192e-05
3.0245e-05
1.15317e-05
3.04873e-05
-2.40325e-06
3.08731e-05
-1.1185e-06
3.13325e-05
-1.04849e-06
3.15883e-05
-5.19364e-07
3.20368e-05
-8.23761e-07
3.23008e-05
-4.66375e-07
3.25808e-05
-4.25618e-07
3.31631e-05
-1.10452e-06
3.26781e-05
1.11791e-06
3.26494e-05
6.25371e-08
3.29875e-05
-7.41342e-07
3.30505e-05
7.21025e-08
3.36148e-05
-1.16747e-06
3.40268e-05
-7.00275e-07
3.3524e-05
8.39447e-07
3.26836e-05
1.99672e-06
3.52394e-05
-5.44357e-06
3.46633e-05
1.84269e-06
3.32672e-05
2.69811e-06
3.30144e-05
2.30924e-07
3.48711e-05
-3.94626e-06
3.35723e-05
2.94119e-06
3.24372e-05
2.64374e-06
3.49795e-05
-5.92027e-06
3.43316e-05
2.06216e-06
3.56073e-05
-2.91882e-06
3.48276e-05
2.22549e-06
3.56155e-05
-1.83703e-06
3.3422e-05
4.59618e-06
3.29395e-05
7.74124e-07
3.46521e-05
-4.11114e-06
3.44203e-05
1.09014e-06
3.64383e-05
-4.30737e-06
3.49943e-05
3.63809e-06
3.55471e-05
-1.44793e-06
3.42677e-05
2.65119e-06
3.39104e-05
8.166e-07
3.55346e-05
-3.73184e-06
3.41252e-05
3.31428e-06
3.51734e-05
-2.59469e-06
3.47547e-05
1.23626e-06
3.56331e-05
-1.88666e-06
3.67189e-05
-2.10922e-06
3.76809e-05
-1.38522e-06
3.7158e-05
1.20515e-06
3.55795e-05
3.42233e-06
3.6656e-05
-2.74538e-06
3.51395e-05
3.33724e-06
3.52058e-05
-6.49997e-07
3.4346e-05
1.62511e-06
3.53275e-05
-1.95225e-06
3.77236e-05
-4.84411e-06
3.7243e-05
1.73385e-06
3.6291e-05
1.73881e-06
3.45002e-05
3.42309e-06
3.46761e-05
-7.71756e-07
3.45318e-05
2.56685e-07
3.50303e-05
-1.11271e-06
3.58541e-05
-1.65492e-06
3.63747e-05
-7.91656e-07
3.6157e-05
4.72542e-07
3.50115e-05
2.44359e-06
3.46099e-05
5.45243e-07
3.4567e-05
-2.71062e-08
3.52139e-05
-1.38562e-06
3.56858e-05
-7.7902e-07
3.70224e-05
-2.53741e-06
3.70662e-05
1.88757e-07
3.60689e-05
2.17073e-06
3.54972e-05
8.3132e-07
3.48578e-05
1.11443e-06
3.45471e-05
4.35698e-07
3.47095e-05
-3.57772e-07
3.52888e-05
-1.18807e-06
3.58574e-05
-9.70004e-07
3.59778e-05
-3.67242e-07
3.42267e-05
3.6662e-06
3.47327e-05
-1.46319e-06
3.46127e-05
2.52317e-07
3.40437e-05
1.57548e-06
3.52902e-05
-2.86994e-06
3.48038e-05
1.43213e-06
3.5935e-05
-2.4814e-06
3.59958e-05
1.55931e-07
3.65439e-05
-9.11536e-07
3.66583e-05
-3.89788e-07
3.53526e-05
2.78309e-06
3.52821e-05
-3.24552e-07
3.40884e-05
2.48056e-06
3.446e-05
-1.00742e-06
3.48877e-05
-9.81317e-07
3.41081e-05
1.75663e-06
3.40877e-05
-8.78993e-08
3.5088e-05
-2.16433e-06
3.60483e-05
-1.60457e-06
3.72432e-05
-2.1833e-06
3.61192e-05
2.55277e-06
3.47246e-05
2.90257e-06
3.52039e-05
-1.48839e-06
3.47025e-05
1.10536e-06
3.5407e-05
-1.569e-06
3.52259e-05
4.95196e-07
3.5157e-05
-4.84272e-08
3.46034e-05
1.12393e-06
3.51709e-05
-1.29788e-06
3.48316e-05
8.09956e-07
3.5397e-05
-9.25918e-07
3.62846e-05
-1.90386e-06
3.45385e-05
3.92046e-06
3.47923e-05
-9.92522e-07
3.40216e-05
1.70044e-06
3.49577e-05
-2.10685e-06
3.55818e-05
-1.07909e-06
3.68151e-05
-2.32495e-06
3.6893e-05
-8.77358e-08
3.58344e-05
2.58425e-06
3.62146e-05
-1.32478e-06
3.42564e-05
4.09686e-06
3.51649e-05
-2.23312e-06
3.47871e-05
9.64804e-07
3.50864e-05
-7.80831e-07
3.44851e-05
1.26164e-06
3.39321e-05
1.30778e-06
3.4789e-05
-2.41917e-06
3.4579e-05
7.21985e-07
3.5914e-05
-2.76973e-06
3.50145e-05
2.36418e-06
3.66269e-05
-3.5278e-06
3.53671e-05
2.97468e-06
3.45566e-05
1.37634e-06
3.33263e-05
2.22229e-06
3.30823e-05
1.97205e-07
3.38465e-05
-2.06584e-06
3.35856e-05
9.86532e-07
3.52495e-05
-3.55206e-06
3.47866e-05
1.61983e-06
3.61431e-05
-2.82452e-06
3.53485e-05
2.09848e-06
3.61888e-05
-1.91925e-06
3.5514e-05
1.58809e-06
3.52347e-05
3.56228e-07
3.42352e-05
1.78634e-06
3.36319e-05
1.19663e-06
3.43915e-05
-2.26504e-06
3.44264e-05
5.50127e-07
3.72086e-05
-5.64011e-06
3.49966e-05
5.32574e-06
3.53387e-05
-1.30939e-06
3.38112e-05
3.16439e-06
3.38658e-05
-5.69973e-07
3.42305e-05
-9.07693e-07
3.40622e-05
4.53822e-07
3.37834e-05
4.69022e-07
3.39293e-05
-2.85552e-07
3.44086e-05
-7.62977e-07
3.51512e-05
-9.71962e-07
3.52808e-05
-8.96449e-07
3.2886e-05
5.20487e-06
3.53149e-05
-5.56266e-06
3.4022e-05
3.38927e-06
3.62033e-05
-4.87147e-06
3.52458e-05
2.57512e-06
3.54507e-05
-7.0346e-07
3.40273e-05
3.19188e-06
3.38788e-05
-2.74484e-07
3.36429e-05
-1.06213e-07
3.3547e-05
8.26071e-07
3.55478e-05
-4.4408e-06
3.46764e-05
2.45173e-06
3.50256e-05
-1.13924e-06
3.30594e-05
4.10925e-06
3.44307e-05
-3.34951e-06
3.35732e-05
2.22373e-06
3.43806e-05
-2.04887e-06
3.32059e-05
2.72166e-06
3.46291e-05
-3.31153e-06
3.3817e-05
2.25161e-06
3.55973e-05
-3.89095e-06
3.54144e-05
9.47166e-07
3.6289e-05
-2.02444e-06
3.48381e-05
3.33688e-06
3.40621e-05
1.78561e-06
3.50036e-05
-2.75058e-06
3.30101e-05
4.20248e-06
3.25604e-05
3.5652e-07
3.26761e-05
-3.98799e-07
3.37713e-05
-2.32099e-06
3.39229e-05
1.28082e-07
3.47002e-05
-1.61031e-06
3.47364e-05
2.62253e-07
3.5566e-05
-1.70399e-06
3.5915e-05
-2.26455e-07
3.67889e-05
-1.97104e-06
3.8764e-05
-2.74901e-06
4.62475e-05
-1.41975e-05
4.6506e-05
1.17806e-06
4.09068e-05
1.19592e-05
3.74763e-05
4.99322e-06
2.61666e-06
9.94287e-05
5.28234e-05
9.34365e-05
3.74589e-05
8.60997e-05
2.24429e-05
8.00867e-05
1.27957e-05
7.57095e-05
8.23943e-06
7.24369e-05
6.01949e-06
6.99182e-05
4.71697e-06
6.79141e-05
3.89918e-06
6.62808e-05
3.28388e-06
6.49103e-05
2.80234e-06
6.37256e-05
2.44215e-06
6.2691e-05
2.15812e-06
6.17843e-05
1.90885e-06
6.0986e-05
1.69152e-06
6.02685e-05
1.52581e-06
5.96186e-05
1.38744e-06
5.9027e-05
1.27098e-06
5.84879e-05
1.16347e-06
5.79938e-05
1.06787e-06
5.7535e-05
9.91298e-07
5.71075e-05
9.27603e-07
5.67087e-05
8.69051e-07
5.63363e-05
8.14607e-07
5.59877e-05
7.63727e-07
5.56595e-05
7.20361e-07
5.53495e-05
6.81613e-07
5.50567e-05
6.45679e-07
5.47792e-05
6.13338e-07
5.45168e-05
5.8061e-07
5.42669e-05
5.53566e-07
5.4029e-05
5.27888e-07
5.38017e-05
5.05257e-07
5.35845e-05
4.83407e-07
5.3377e-05
4.62679e-07
5.31784e-05
4.43109e-07
5.29877e-05
4.25863e-07
5.28043e-05
4.10149e-07
5.26281e-05
3.94445e-07
5.24583e-05
3.80978e-07
5.2295e-05
3.66295e-07
5.21373e-05
3.53996e-07
5.19851e-05
3.42023e-07
5.1838e-05
3.30924e-07
5.16956e-05
3.20787e-07
5.15579e-05
3.10268e-07
5.14245e-05
3.00766e-07
5.12954e-05
2.91168e-07
5.117e-05
2.83262e-07
5.10483e-05
2.74877e-07
5.09301e-05
2.67328e-07
5.08152e-05
2.60056e-07
5.07036e-05
2.52493e-07
5.05951e-05
2.45821e-07
5.04895e-05
2.39133e-07
5.03867e-05
2.33211e-07
5.02865e-05
2.27199e-07
5.0189e-05
2.21481e-07
5.0094e-05
2.1607e-07
5.00017e-05
2.10262e-07
4.99118e-05
2.04915e-07
4.98242e-05
1.99819e-07
4.97388e-05
1.9456e-07
4.96556e-05
1.89859e-07
4.95745e-05
1.84862e-07
4.94955e-05
1.8012e-07
4.94187e-05
1.75151e-07
4.93438e-05
1.70881e-07
4.9271e-05
1.65732e-07
4.92002e-05
1.61661e-07
4.91316e-05
1.56004e-07
4.9065e-05
1.51791e-07
4.90008e-05
1.45618e-07
4.89387e-05
1.4121e-07
4.88793e-05
1.34341e-07
4.88221e-05
1.29674e-07
4.87683e-05
1.2096e-07
4.87168e-05
1.16104e-07
4.86695e-05
1.05094e-07
4.86251e-05
9.91694e-08
4.85858e-05
8.54947e-08
4.855e-05
7.8123e-08
4.85211e-05
5.97977e-08
4.84967e-05
5.04141e-08
4.84817e-05
2.45932e-08
4.84733e-05
1.15687e-08
4.84775e-05
-2.01499e-08
4.849e-05
-4.14433e-08
4.85192e-05
-8.48985e-08
4.85621e-05
-1.16755e-07
4.86359e-05
-1.9485e-07
4.87257e-05
-2.33925e-07
4.8865e-05
-3.59709e-07
4.90336e-05
-4.28265e-07
4.92854e-05
-6.47354e-07
4.96004e-05
-8.09902e-07
5.00976e-05
-1.29958e-06
5.07002e-05
-1.48369e-06
5.22648e-05
-4.38492e-06
5.33273e-05
-3.26562e-06
4.69529e-05
2.25933e-05
3.99666e-05
1.85149e-05
3.82435e-05
-6.83577e-07
3.80234e-05
-9.01161e-07
3.8164e-05
-1.19213e-06
3.82623e-05
-6.20609e-07
3.86366e-05
-1.20119e-06
3.8848e-05
-6.80667e-07
3.91638e-05
-7.47658e-07
3.96658e-05
-1.60378e-06
3.93506e-05
1.44312e-06
3.93162e-05
7.17108e-08
3.95247e-05
-9.82361e-07
3.972e-05
-1.31892e-07
4.02147e-05
-1.66858e-06
4.06003e-05
-1.05948e-06
4.01897e-05
1.2872e-06
3.97678e-05
2.41745e-06
4.1633e-05
-7.30833e-06
4.14913e-05
1.99343e-06
4.02323e-05
3.93635e-06
3.99183e-05
5.07533e-07
4.13238e-05
-5.37984e-06
4.06066e-05
3.66403e-06
3.98943e-05
3.40213e-06
4.14034e-05
-7.39928e-06
4.13303e-05
2.13068e-06
4.21845e-05
-3.76561e-06
4.19267e-05
2.49113e-06
4.24287e-05
-2.37236e-06
4.09472e-05
6.05343e-06
4.02897e-05
1.42891e-06
4.11521e-05
-4.98706e-06
4.15242e-05
7.45232e-07
4.3032e-05
-5.77413e-06
4.22206e-05
4.45596e-06
4.24962e-05
-1.7192e-06
4.1641e-05
3.48467e-06
4.12457e-05
1.1657e-06
4.21522e-05
-4.65942e-06
4.14641e-05
4.00629e-06
4.20508e-05
-3.14828e-06
4.19087e-05
1.41547e-06
4.26321e-05
-2.60714e-06
4.36595e-05
-3.12737e-06
4.46028e-05
-2.31055e-06
4.43751e-05
1.3983e-06
4.33687e-05
4.3763e-06
4.37667e-05
-3.14613e-06
4.26919e-05
4.41496e-06
4.2469e-05
-4.41163e-07
4.19024e-05
2.22226e-06
4.26691e-05
-2.67171e-06
4.44571e-05
-6.61679e-06
4.44823e-05
1.70935e-06
4.35594e-05
2.62707e-06
4.19959e-05
4.94874e-06
4.18736e-05
-6.46691e-07
4.17548e-05
3.66079e-07
4.21549e-05
-1.53272e-06
4.28803e-05
-2.34663e-06
4.34156e-05
-1.27998e-06
4.32596e-05
6.38596e-07
4.23605e-05
3.34548e-06
4.1801e-05
1.07648e-06
4.16968e-05
3.24217e-08
4.22242e-05
-1.93318e-06
4.28048e-05
-1.36974e-06
4.40224e-05
-3.71896e-06
4.42396e-05
2.12278e-08
4.34946e-05
2.92581e-06
4.27805e-05
1.54554e-06
4.21153e-05
1.74825e-06
4.17293e-05
7.7916e-07
4.18393e-05
-4.84592e-07
4.23267e-05
-1.68384e-06
4.29042e-05
-1.51321e-06
4.29387e-05
-3.56047e-07
4.15712e-05
5.03228e-06
4.17489e-05
-1.63846e-06
4.16227e-05
3.91508e-07
4.12779e-05
1.88652e-06
4.20752e-05
-3.70801e-06
4.19883e-05
1.52013e-06
4.28922e-05
-3.39808e-06
4.3155e-05
-1.25769e-07
4.36837e-05
-1.39757e-06
4.37508e-05
-4.09217e-07
4.28066e-05
3.72429e-06
4.24252e-05
4.76947e-08
4.14113e-05
3.50766e-06
4.15286e-05
-1.11473e-06
4.17864e-05
-1.27246e-06
4.12021e-05
2.30509e-06
4.11493e-05
-4.45518e-08
4.19574e-05
-2.98421e-06
4.30262e-05
-2.64378e-06
4.41086e-05
-3.21934e-06
4.33832e-05
3.28818e-06
4.22769e-05
4.0114e-06
4.22609e-05
-1.50143e-06
4.1928e-05
1.39433e-06
4.24169e-05
-2.07591e-06
4.23985e-05
5.07292e-07
4.22393e-05
1.45297e-07
4.17902e-05
1.61828e-06
4.21651e-05
-1.67154e-06
4.2033e-05
9.47371e-07
4.24316e-05
-1.31098e-06
4.29771e-05
-2.48251e-06
4.19383e-05
4.91953e-06
4.18116e-05
-8.62883e-07
4.12686e-05
2.25207e-06
4.19589e-05
-2.81639e-06
4.26434e-05
-1.78111e-06
4.36952e-05
-3.34049e-06
4.39653e-05
-3.12964e-07
4.3407e-05
3.14077e-06
4.31837e-05
-1.0983e-06
4.17043e-05
5.58859e-06
4.21694e-05
-2.73032e-06
4.19669e-05
1.12344e-06
4.21012e-05
-9.23067e-07
4.17154e-05
1.64763e-06
4.12758e-05
1.74191e-06
4.1607e-05
-2.72452e-06
4.1693e-05
6.75627e-07
4.26493e-05
-3.72171e-06
4.23402e-05
2.67857e-06
4.34059e-05
-4.57839e-06
4.26077e-05
3.73832e-06
4.17518e-05
2.19088e-06
4.06699e-05
3.30602e-06
4.02129e-05
6.53024e-07
4.04806e-05
-2.31689e-06
4.05908e-05
9.14279e-07
4.18009e-05
-4.745e-06
4.18847e-05
1.54476e-06
4.2882e-05
-3.85042e-06
4.25656e-05
2.36895e-06
4.31657e-05
-2.52498e-06
4.27421e-05
2.01498e-06
4.23621e-05
7.22224e-07
4.1598e-05
2.55046e-06
4.1042e-05
1.79099e-06
4.1159e-05
-2.35074e-06
4.16157e-05
1.01195e-07
4.3686e-05
-7.70358e-06
4.24297e-05
6.54703e-06
4.23219e-05
-1.2553e-06
4.11272e-05
4.35946e-06
4.09368e-05
-3.37075e-07
4.11501e-05
-1.09047e-06
4.10099e-05
6.03642e-07
4.0749e-05
7.32237e-07
4.08565e-05
-4.20559e-07
4.12711e-05
-1.21546e-06
4.18903e-05
-1.6059e-06
4.2024e-05
-1.03272e-06
4.06904e-05
6.54139e-06
4.19029e-05
-6.75104e-06
4.14199e-05
3.90743e-06
4.28315e-05
-6.2762e-06
4.24506e-05
2.95081e-06
4.24217e-05
-6.72042e-07
4.12997e-05
4.31685e-06
4.09342e-05
9.44021e-08
4.06292e-05
2.02055e-07
4.06838e-05
7.75372e-07
4.20361e-05
-5.78921e-06
4.18027e-05
2.6884e-06
4.17761e-05
-1.10977e-06
4.03487e-05
5.5396e-06
4.09994e-05
-3.99725e-06
4.06338e-05
2.59242e-06
4.10077e-05
-2.41958e-06
4.03175e-05
3.41524e-06
4.11619e-05
-4.15236e-06
4.0903e-05
2.51439e-06
4.21824e-05
-5.16618e-06
4.24287e-05
7.04861e-07
4.3077e-05
-2.66965e-06
4.21788e-05
4.2376e-06
4.14668e-05
2.50036e-06
4.16565e-05
-2.93817e-06
4.0192e-05
5.66893e-06
3.94788e-05
1.07238e-06
3.94921e-05
-4.09276e-07
4.02929e-05
-3.11878e-06
4.06546e-05
-2.30536e-07
4.1298e-05
-2.25055e-06
4.1657e-05
-9.35259e-08
4.23112e-05
-2.35518e-06
4.29824e-05
-8.9469e-07
4.36458e-05
-2.63149e-06
4.59698e-05
-5.06916e-06
5.27007e-05
-2.0925e-05
5.42476e-05
-3.68345e-07
5.04648e-05
1.57416e-05
4.64947e-05
8.96338e-06
5.01168e-06
0.000102569
5.15048e-05
0.00010099
3.9038e-05
9.72211e-05
2.62113e-05
9.20747e-05
1.79422e-05
8.73721e-05
1.2942e-05
8.34179e-05
9.97369e-06
8.01889e-05
7.94595e-06
7.75791e-05
6.50898e-06
7.54536e-05
5.40943e-06
7.36819e-05
4.57402e-06
7.2183e-05
3.94099e-06
7.08943e-05
3.44682e-06
6.97719e-05
3.0313e-06
6.87849e-05
2.67851e-06
6.78983e-05
2.4124e-06
6.70986e-05
2.18716e-06
6.63751e-05
1.99448e-06
6.57184e-05
1.8202e-06
6.51175e-05
1.66873e-06
6.45613e-05
1.5475e-06
6.40455e-05
1.44342e-06
6.35665e-05
1.34807e-06
6.31205e-05
1.26053e-06
6.27036e-05
1.18064e-06
6.23117e-05
1.11228e-06
6.19425e-05
1.05078e-06
6.15946e-05
9.93627e-07
6.12657e-05
9.42213e-07
6.09549e-05
8.91403e-07
6.06594e-05
8.49088e-07
6.03784e-05
8.08928e-07
6.01104e-05
7.73168e-07
5.9855e-05
7.38875e-07
5.96111e-05
7.06502e-07
5.93779e-05
6.76374e-07
5.91542e-05
6.49502e-07
5.89394e-05
6.24953e-07
5.87333e-05
6.00558e-07
5.8535e-05
5.79344e-07
5.83443e-05
5.56943e-07
5.81605e-05
5.37807e-07
5.79831e-05
5.1941e-07
5.78119e-05
5.02134e-07
5.76463e-05
4.86417e-07
5.74864e-05
4.70175e-07
5.73315e-05
4.556e-07
5.71818e-05
4.40936e-07
5.70364e-05
4.2865e-07
5.68955e-05
4.15808e-07
5.67586e-05
4.04141e-07
5.66258e-05
3.92904e-07
5.64968e-05
3.8146e-07
5.63715e-05
3.71178e-07
5.62496e-05
3.61049e-07
5.61309e-05
3.51836e-07
5.60154e-05
3.42741e-07
5.5903e-05
3.33895e-07
5.57935e-05
3.25554e-07
5.56871e-05
3.16675e-07
5.55833e-05
3.08648e-07
5.54823e-05
3.00838e-07
5.53839e-05
2.93011e-07
5.5288e-05
2.85723e-07
5.51945e-05
2.78324e-07
5.51036e-05
2.7105e-07
5.5015e-05
2.63739e-07
5.49288e-05
2.57113e-07
5.48449e-05
2.49617e-07
5.47633e-05
2.43255e-07
5.46842e-05
2.35128e-07
5.46074e-05
2.28555e-07
5.45333e-05
2.19762e-07
5.44616e-05
2.1291e-07
5.43928e-05
2.03151e-07
5.43265e-05
1.95945e-07
5.42638e-05
1.83657e-07
5.42038e-05
1.76085e-07
5.41482e-05
1.60689e-07
5.40959e-05
1.51544e-07
5.40489e-05
1.32427e-07
5.40059e-05
1.2119e-07
5.397e-05
9.56493e-08
5.39391e-05
8.13454e-08
5.39178e-05
4.58296e-08
5.39035e-05
2.58589e-08
5.39033e-05
-1.9863e-08
5.39118e-05
-5.00098e-08
5.39368e-05
-1.0983e-07
5.39767e-05
-1.56705e-07
5.40483e-05
-2.66403e-07
5.41371e-05
-3.22759e-07
5.42759e-05
-4.98556e-07
5.44458e-05
-5.98074e-07
5.46993e-05
-9.00948e-07
5.50165e-05
-1.12705e-06
5.55138e-05
-1.79686e-06
5.61201e-05
-2.08998e-06
5.7619e-05
-5.88398e-06
5.83024e-05
-3.94842e-06
5.34822e-05
2.74129e-05
4.72494e-05
2.47434e-05
4.42741e-05
2.28581e-06
4.34462e-05
-7.91065e-08
4.31932e-05
-9.45583e-07
4.30768e-05
-5.10791e-07
4.33051e-05
-1.43671e-06
4.34111e-05
-7.93157e-07
4.37016e-05
-1.04906e-06
4.40671e-05
-1.96982e-06
4.38823e-05
1.63715e-06
4.3855e-05
6.33309e-08
4.39548e-05
-1.13049e-06
4.42192e-05
-4.16104e-07
4.4611e-05
-2.07584e-06
4.49905e-05
-1.40667e-06
4.47016e-05
1.63098e-06
4.45809e-05
2.54723e-06
4.57909e-05
-8.50877e-06
4.59453e-05
1.85562e-06
4.49121e-05
4.94015e-06
4.46262e-05
7.38184e-07
4.56251e-05
-6.42376e-06
4.52685e-05
4.01957e-06
4.48791e-05
3.8503e-06
4.56399e-05
-8.11327e-06
4.59927e-05
1.78157e-06
4.65055e-05
-4.26125e-06
4.66241e-05
2.38645e-06
4.68737e-05
-2.66766e-06
4.58478e-05
7.03905e-06
4.52501e-05
2.01316e-06
4.56439e-05
-5.40421e-06
4.62942e-05
1.2935e-07
4.72938e-05
-6.71406e-06
4.69918e-05
4.77506e-06
4.70768e-05
-1.79266e-06
4.65239e-05
4.01071e-06
4.61975e-05
1.42326e-06
4.65629e-05
-5.06655e-06
4.63417e-05
4.22602e-06
4.66351e-05
-3.39406e-06
4.67079e-05
1.40066e-06
4.72957e-05
-3.17942e-06
4.82468e-05
-4.05703e-06
4.91402e-05
-3.17813e-06
4.90223e-05
1.46642e-06
4.8461e-05
4.8586e-06
4.8458e-05
-3.16118e-06
4.7753e-05
5.11266e-06
4.73604e-05
-6.89229e-08
4.70297e-05
2.5971e-06
4.76563e-05
-3.22935e-06
4.89158e-05
-7.84609e-06
4.9197e-05
1.43836e-06
4.83541e-05
3.42532e-06
4.70921e-05
6.15083e-06
4.67717e-05
-3.37092e-07
4.6675e-05
4.40791e-07
4.69786e-05
-1.86504e-06
4.75962e-05
-2.91684e-06
4.80807e-05
-1.69455e-06
4.7963e-05
7.81165e-07
4.73098e-05
4.01049e-06
4.66963e-05
1.65219e-06
4.65485e-05
1.13601e-07
4.69251e-05
-2.34656e-06
4.75427e-05
-2.00781e-06
4.85855e-05
-4.71405e-06
4.89144e-05
-2.32626e-07
4.84253e-05
3.44094e-06
4.76838e-05
2.29528e-06
4.70399e-05
2.35087e-06
4.66275e-05
1.12732e-06
4.66803e-05
-5.7039e-07
4.70284e-05
-2.05085e-06
4.7553e-05
-1.99374e-06
4.7541e-05
-2.75314e-07
4.65767e-05
6.00777e-06
4.65262e-05
-1.57545e-06
4.6402e-05
5.35602e-07
4.61868e-05
2.05526e-06
4.65711e-05
-4.15337e-06
4.67834e-05
1.29764e-06
4.74793e-05
-4.12008e-06
4.7861e-05
-5.3519e-07
4.83374e-05
-1.81465e-06
4.84028e-05
-4.02173e-07
4.78055e-05
4.33176e-06
4.72311e-05
6.2215e-07
4.63867e-05
4.3724e-06
4.63228e-05
-1.04042e-06
4.64402e-05
-1.43551e-06
4.6008e-05
2.68079e-06
4.59433e-05
-6.51541e-09
4.65628e-05
-3.62446e-06
4.76437e-05
-3.68288e-06
4.85834e-05
-4.09009e-06
4.81031e-05
3.79248e-06
4.72813e-05
4.84331e-06
4.70033e-05
-1.2626e-06
4.68174e-05
1.51459e-06
4.70778e-05
-2.37061e-06
4.71702e-05
3.98029e-07
4.69871e-05
3.72703e-07
4.66764e-05
1.99724e-06
4.68794e-05
-1.85948e-06
4.68454e-05
9.97384e-07
4.71518e-05
-1.59737e-06
4.73991e-05
-2.7761e-06
4.68144e-05
5.44314e-06
4.64973e-05
-5.55111e-07
4.61752e-05
2.57478e-06
4.66517e-05
-3.32151e-06
4.73367e-05
-2.48729e-06
4.82537e-05
-4.20616e-06
4.85425e-05
-5.34446e-07
4.82786e-05
3.41604e-06
4.78196e-05
-6.23734e-07
4.6807e-05
6.61997e-06
4.68976e-05
-2.86835e-06
4.68002e-05
1.15355e-06
4.68214e-05
-9.66952e-07
4.65103e-05
1.94892e-06
4.61889e-05
2.05383e-06
4.62928e-05
-2.79001e-06
4.65701e-05
4.58159e-07
4.7081e-05
-4.21559e-06
4.71933e-05
2.5819e-06
4.78685e-05
-5.23172e-06
4.73917e-05
4.16769e-06
4.65487e-05
2.97158e-06
4.5582e-05
4.26378e-06
4.50893e-05
1.1375e-06
4.51129e-05
-2.31825e-06
4.53958e-05
6.86742e-07
4.61703e-05
-5.48829e-06
4.66105e-05
1.12212e-06
4.72443e-05
-4.52289e-06
4.7305e-05
2.23999e-06
4.77068e-05
-2.94715e-06
4.74857e-05
2.22815e-06
4.70881e-05
1.09671e-06
4.6448e-05
3.19178e-06
4.60392e-05
2.2543e-06
4.59605e-05
-2.22352e-06
4.65827e-05
-5.03424e-07
4.78521e-05
-8.95869e-06
4.72809e-05
7.07546e-06
4.69042e-05
-9.58054e-07
4.60336e-05
5.21448e-06
4.57257e-05
2.22473e-08
4.5832e-05
-1.14913e-06
4.57127e-05
7.43862e-07
4.54748e-05
9.78191e-07
4.55429e-05
-5.23555e-07
4.58359e-05
-1.56628e-06
4.64083e-05
-2.2129e-06
4.64703e-05
-1.10726e-06
4.58697e-05
7.14643e-06
4.62734e-05
-7.11623e-06
4.6344e-05
3.89118e-06
4.71978e-05
-7.11106e-06
4.72066e-05
2.94637e-06
4.70145e-05
-4.69871e-07
4.61486e-05
5.18901e-06
4.5703e-05
5.46143e-07
4.54312e-05
4.81362e-07
4.55704e-05
6.44761e-07
4.63403e-05
-6.54986e-06
4.64345e-05
2.60308e-06
4.61326e-05
-8.00595e-07
4.53265e-05
6.35155e-06
4.54779e-05
-4.14246e-06
4.53774e-05
2.70034e-06
4.53894e-05
-2.42392e-06
4.51783e-05
3.63391e-06
4.55154e-05
-4.4815e-06
4.56385e-05
2.39999e-06
4.65277e-05
-6.04605e-06
4.70388e-05
2.03348e-07
4.75083e-05
-3.13055e-06
4.68934e-05
4.85896e-06
4.62738e-05
3.12475e-06
4.61099e-05
-2.76906e-06
4.50913e-05
6.69282e-06
4.42664e-05
1.90254e-06
4.4203e-05
-3.39856e-07
4.46773e-05
-3.5861e-06
4.51728e-05
-7.18634e-07
4.56801e-05
-2.7506e-06
4.62248e-05
-6.31044e-07
4.67692e-05
-2.89254e-06
4.76371e-05
-1.75594e-06
4.82091e-05
-3.19712e-06
5.06618e-05
-7.51486e-06
5.6405e-05
-2.66624e-05
5.85543e-05
-2.51622e-06
5.63089e-05
1.79866e-05
5.26003e-05
1.26721e-05
7.5637e-06
0.000103461
4.92935e-05
0.000103822
3.86773e-05
0.000102648
2.73852e-05
9.99309e-05
2.06595e-05
9.61977e-05
1.66751e-05
9.24624e-05
1.3709e-05
8.90194e-05
1.1389e-05
8.59781e-05