/*--------------------------------*- C++ -*----------------------------------*\
| =========                 |                                                 |
| \\      /  F ield         | foam-extend: Open Source CFD                    |
|  \\    /   O peration     | Version:     3.2                                |
|   \\  /    A nd           | Web:         http://www.foam-extend.org         |
|    \\/     M anipulation  | For copyright notice see file Copyright         |
\*---------------------------------------------------------------------------*/
FoamFile
{
    version     2.0;
    format      ascii;
    class       areaVectorField;
    location    "160";
    object      PointNormalVector;
}
// * * * * * * * * * * * * * * * * * * * * * * * * * * * * * * * * * * * * * //

dimensions      [0 0 0 0 0 0 0];

internalField   nonuniform List<vector> 
300
(
(-0 -0 0.001)
(-0 -0 0.001)
(-0 -0 0.001)
(-0 -0 0.001)
(-0 -0 0.001)
(-0 -0 0.001)
(-0 -0 0.001)
(-0 -0 0.001)
(-0 -0 0.001)
(-0 -0 0.001)
(-0 -0 0.001)
(-0 -0 0.001)
(-0 -0 0.001)
(-0 -0 0.001)
(-0 -0 0.001)
(-0 -0 0.001)
(-0 -0 0.001)
(-0 -0 0.001)
(-0 -0 0.001)
(-0 -0 0.001)
(-0 -0 0.001)
(-0 -0 0.001)
(-0 -0 0.001)
(-0 -0 0.001)
(-0 -0 0.001)
(-0 -0 0.001)
(-0 -0 0.001)
(-0 -0 0.001)
(-0 -0 0.001)
(-0 -0 0.001)
(-0 -0 0.001)
(-0 -0 0.001)
(-0 -0 0.001)
(-0 -0 0.001)
(-0 -0 0.001)
(-0 -0 0.001)
(-0 -0 0.001)
(-0 -0 0.001)
(-0 -0 0.001)
(-0 -0 0.001)
(-0 -0 0.001)
(-0 -0 0.001)
(-0 -0 0.001)
(-0 -0 0.001)
(-0 -0 0.001)
(-0 -0 0.001)
(-0 -0 0.001)
(-0 -0 0.001)
(-0 -0 0.001)
(-0 -0 0.001)
(-0 -0 0.001)
(-0 -0 0.001)
(-0 -0 0.001)
(-0 -0 0.001)
(-0 -0 0.001)
(-0 -0 0.001)
(-0 -0 0.001)
(-0 -0 0.001)
(-0 -0 0.001)
(-0 -0 0.001)
(-0 -0 0.001)
(-0 -0 0.001)
(-0 -0 0.001)
(-0 -0 0.001)
(-0 -0 0.001)
(-0 -0 0.001)
(-0 -0 0.001)
(-0 -0 0.001)
(-0 -0 0.001)
(-0 -0 0.001)
(-0 -0 0.001)
(-0 -0 0.001)
(-0 -0 0.001)
(-0 -0 0.001)
(-0 -0 0.001)
(-0 -0 0.001)
(-0 -0 0.001)
(-0 -0 0.001)
(-0 -0 0.001)
(-0 -0 0.001)
(-0 -0 0.001)
(-0 -0 0.001)
(-0 -0 0.001)
(-0 -0 0.001)
(-0 -0 0.001)
(-0 -0 0.001)
(-0 -0 0.001)
(-0 -0 0.001)
(-0 -0 0.001)
(-0 -0 0.001)
(-0 -0 0.001)
(-0 -0 0.001)
(-0 -0 0.001)
(-0 -0 0.001)
(-0 -0 0.001)
(-0 -0 0.001)
(-0 -0 0.001)
(-0 -0 0.001)
(-0 -0 0.001)
(8.65075e-05 6.77626e-21 0.001)
(0.00011879 -1.35525e-20 0.001)
(7.17523e-05 -0 0.001)
(6.65758e-05 6.77626e-21 0.001)
(5.65289e-05 -0 0.001)
(5.00208e-05 -0 0.001)
(4.51797e-05 -0 0.001)
(3.79803e-05 -0 0.001)
(3.79551e-05 -0 0.001)
(2.69005e-05 -0 0.001)
(3.63974e-05 -0 0.001)
(3.09882e-05 -0 0.001)
(1.85223e-05 -1.69407e-21 0.001)
(2.44393e-05 -3.38813e-21 0.001)
(1.22309e-05 -0 0.001)
(2.1235e-05 -1.69407e-21 0.001)
(1.68473e-05 -0 0.001)
(3.34052e-05 -3.38813e-21 0.001)
(-1.70999e-05 -0 0.001)
(1.88022e-05 -0 0.001)
(2.28282e-05 -1.69407e-21 0.001)
(1.68962e-05 -0 0.001)
(-1.38452e-05 -0 0.001)
(1.05175e-05 8.47033e-22 0.001)
(3.34534e-05 -0 0.001)
(-2.5725e-05 -0 0.001)
(1.87249e-05 -1.69407e-21 0.001)
(-2.18183e-05 -0 0.001)
(1.5849e-05 -0 0.001)
(-2.00408e-05 -0 0.001)
(1.91983e-05 -0 0.001)
(1.92638e-05 -0 0.001)
(-2.40366e-05 -1.69407e-21 0.001)
(1.15716e-05 -8.47033e-22 0.001)
(-3.09644e-05 -0 0.001)
(2.0079e-05 -1.69407e-21 0.001)
(-1.28629e-05 -0 0.001)
(3.28099e-06 4.23516e-22 0.001)
(9.91341e-06 -0 0.001)
(-2.65754e-05 -0 0.001)
(1.76531e-05 1.69407e-21 0.001)
(-1.86887e-05 1.69407e-21 0.001)
(5.73645e-06 -4.23516e-22 0.001)
(-1.75792e-05 -0 0.001)
(-2.3506e-05 -1.69407e-21 0.001)
(-1.93314e-05 -0 0.001)
(-1.77814e-05 -1.69407e-21 0.001)
(1.12223e-05 -0 0.001)
(-2.14824e-05 -0 0.001)
(1.85488e-05 -1.69407e-21 0.001)
(-4.73918e-06 -0 0.001)
(8.95562e-06 -8.47033e-22 0.001)
(-2.41626e-06 -0 0.001)
(-2.89162e-05 -0 0.001)
(4.22035e-06 4.23516e-22 0.001)
(-2.12136e-07 -0 0.001)
(2.04052e-05 -0 0.001)
(-1.58756e-07 -0 0.001)
(4.4764e-06 -0 0.001)
(-4.6235e-06 -0 0.001)
(-6.42765e-06 -0 0.001)
(-9.31273e-07 -0 0.001)
(-2.88196e-07 -0 0.001)
(1.37148e-05 -0 0.001)
(2.23017e-06 -0 0.001)
(1.16601e-06 1.05879e-22 0.001)
(-1.17134e-05 -0 0.001)
(-6.69433e-06 -0 0.001)
(-1.47772e-05 -0 0.001)
(-4.37942e-06 -0 0.001)
(1.08942e-05 8.47033e-22 0.001)
(8.21274e-06 -0 0.001)
(9.59548e-06 8.47033e-22 0.001)
(2.35092e-06 -0 0.001)
(1.80234e-06 -2.11758e-22 0.001)
(-5.78092e-06 -4.23516e-22 0.001)
(2.84806e-06 2.11758e-22 0.001)
(-1.71602e-06 -0 0.001)
(2.47474e-05 3.38813e-21 0.001)
(1.148e-06 -0 0.001)
(-1.07025e-06 -0 0.001)
(1.13555e-05 -0 0.001)
(-2.09252e-05 -0 0.001)
(5.55913e-06 -0 0.001)
(-2.42012e-05 1.69407e-21 0.001)
(-6.69535e-06 -0 0.001)
(-2.72051e-06 -0 0.001)
(-5.34608e-06 -4.23516e-22 0.001)
(1.90926e-05 -1.69407e-21 0.001)
(1.53735e-06 -0 0.001)
(2.14699e-05 -0 0.001)
(2.84775e-06 -0 0.001)
(-5.93341e-06 4.23516e-22 0.001)
(5.12511e-06 -0 0.001)
(5.07876e-07 -0 0.001)
(-1.5188e-05 -0 0.001)
(-1.04928e-05 -0 0.001)
(-1.54265e-05 -0 0.001)
(5.21963e-06 -0 0.001)
(1.67951e-05 -0 0.001)
(-9.70526e-06 -0 0.001)
(6.66154e-06 -0 0.001)
(-1.18598e-05 -8.47033e-22 0.001)
(3.98556e-06 4.23516e-22 0.001)
(2.14552e-06 -2.11758e-22 0.001)
(1.32167e-05 -0 0.001)
(-6.55068e-06 8.47033e-22 0.001)
(1.56343e-06 -2.11758e-22 0.001)
(3.38794e-07 2.64698e-23 0.001)
(-1.95097e-05 -0 0.001)
(1.72905e-05 -0 0.001)
(-8.43908e-06 -0 0.001)
(1.24948e-05 -0 0.001)
(-1.89721e-05 -0 0.001)
(-1.26393e-05 -0 0.001)
(-1.34949e-05 -1.69407e-21 0.001)
(-1.1441e-05 8.47033e-22 0.001)
(1.56821e-05 -1.69407e-21 0.001)
(-8.47179e-06 8.47033e-22 0.001)
(2.72996e-05 -0 0.001)
(-1.60306e-05 -1.69407e-21 0.001)
(5.41618e-06 4.23516e-22 0.001)
(-2.10979e-06 2.11758e-22 0.001)
(1.11757e-06 -0 0.001)
(1.46872e-05 1.69407e-21 0.001)
(-1.05229e-05 -0 0.001)
(1.14779e-05 -0 0.001)
(-1.96553e-05 1.69407e-21 0.001)
(1.48945e-05 -0 0.001)
(-2.66088e-05 -0 0.001)
(1.22934e-05 -0 0.001)
(8.10865e-06 -0 0.001)
(1.66238e-05 -0 0.001)
(1.72188e-05 -0 0.001)
(-7.60037e-06 -8.47033e-22 0.001)
(1.33503e-05 1.69407e-21 0.001)
(-2.53866e-05 -0 0.001)
(5.54348e-06 4.23516e-22 0.001)
(-3.29409e-05 -0 0.001)
(1.7492e-06 2.11758e-22 0.001)
(-2.32226e-05 -0 0.001)
(2.59021e-06 -0 0.001)
(2.55366e-06 -0 0.001)
(5.85775e-06 -0 0.001)
(1.87226e-05 -0 0.001)
(-1.41225e-05 -0 0.001)
(9.0644e-06 8.47033e-22 0.001)
(-3.9417e-05 -0 0.001)
(2.39172e-05 -0 0.001)
(-1.58373e-05 -0 0.001)
(2.44281e-05 -0 0.001)
(9.04732e-06 -0 0.001)
(2.5382e-06 -0 0.001)
(7.28194e-06 8.47033e-22 0.001)
(2.14114e-06 2.11758e-22 0.001)
(-1.40612e-06 1.05879e-22 0.001)
(-1.47295e-05 -0 0.001)
(-5.11332e-06 -0 0.001)
(-2.27352e-05 -0 0.001)
(2.85858e-05 -0 0.001)
(-3.52905e-05 -0 0.001)
(2.17623e-05 -1.69407e-21 0.001)
(-4.01693e-05 -3.38813e-21 0.001)
(1.09294e-05 -8.47033e-22 0.001)
(-1.04803e-05 -0 0.001)
(1.85381e-05 -0 0.001)
(8.12363e-06 8.47033e-22 0.001)
(-4.64615e-06 -4.23516e-22 0.001)
(1.19989e-05 -8.47033e-22 0.001)
(-2.8469e-05 -0 0.001)
(1.51539e-05 -0 0.001)
(-1.44082e-05 -0 0.001)
(2.64081e-05 -0 0.001)
(-2.34651e-05 1.69407e-21 0.001)
(1.60584e-05 -0 0.001)
(-2.13511e-05 -0 0.001)
(1.51837e-05 -0 0.001)
(-3.0829e-05 -0 0.001)
(8.34907e-06 -8.47033e-22 0.001)
(-3.90625e-05 -3.38813e-21 0.001)
(-6.3551e-06 -0 0.001)
(-2.55875e-05 -0 0.001)
(1.67872e-06 -0 0.001)
(1.24675e-05 1.69407e-21 0.001)
(-1.79332e-05 -0 0.001)
(1.97312e-05 -0 0.001)
(-1.869e-06 -2.11758e-22 0.001)
(-2.9874e-06 -0 0.001)
(-3.00482e-05 -0 0.001)
(-1.73272e-05 1.69407e-21 0.001)
(-4.08936e-05 -0 0.001)
(-2.82257e-05 3.38813e-21 0.001)
(-5.56878e-05 -6.77626e-21 0.001)
(-4.35487e-05 3.38813e-21 0.001)
(-8.05816e-05 -6.77626e-21 0.001)
(-6.79796e-05 6.77626e-21 0.001)
(-0.000149613 -0 0.001)
(-8.99012e-05 -6.77626e-21 0.001)
(-0 -0 0.001)
(-0 -0 0.001)
(-0 -0 0.001)
)
;

boundaryField
{
    inlet
    {
        type            calculated;
        value           uniform (0 0 0);
    }
    outlet
    {
        type            calculated;
        value           uniform (0 0 0);
    }
    sideWall
    {
        type            empty;
    }
}


// ************************************************************************* //
