/*--------------------------------*- C++ -*----------------------------------*\
| =========                 |                                                 |
| \\      /  F ield         | foam-extend: Open Source CFD                    |
|  \\    /   O peration     | Version:     3.2                                |
|   \\  /    A nd           | Web:         http://www.foam-extend.org         |
|    \\/     M anipulation  | For copyright notice see file Copyright         |
\*---------------------------------------------------------------------------*/
FoamFile
{
    version     2.0;
    format      ascii;
    class       areaScalarField;
    location    "160";
    object      Pva;
}
// * * * * * * * * * * * * * * * * * * * * * * * * * * * * * * * * * * * * * //

dimensions      [0 0 0 0 0 0 0];

internalField   nonuniform List<scalar> 
300
(
0.463285
0.463285
0.463285
0.463285
0.463285
0.463285
0.463285
0.463285
0.463285
0.463285
0.463285
0.463285
0.463285
0.463285
0.463285
0.463285
0.463285
0.463285
0.463285
0.463285
0.463285
0.463285
0.463285
0.463285
0.463285
0.463285
0.463285
0.463285
0.463285
0.463285
0.463285
0.463285
0.463285
0.463285
0.463285
0.463285
0.463285
0.463285
0.463285
0.463285
0.463285
0.463285
0.463285
0.463285
0.463285
0.463285
0.463285
0.463285
0.463285
0.463285
0.463285
0.463285
0.463285
0.463285
0.463285
0.463285
0.463285
0.463285
0.463285
0.463285
0.463285
0.463285
0.463285
0.463285
0.463285
0.463285
0.463285
0.463285
0.463285
0.463285
0.463285
0.463285
0.463285
0.463285
0.463285
0.463285
0.463285
0.463285
0.463285
0.463285
0.463285
0.463285
0.463285
0.463285
0.463285
0.463285
0.463285
0.463285
0.463285
0.463285
0.463285
0.463285
0.463285
0.463285
0.463285
0.463285
0.463285
0.463285
0.463285
0.463285
0.506785
0.525754
0.550273
0.568714
0.590016
0.605839
0.626227
0.636986
0.66049
0.661997
0.674759
0.675201
0.678615
0.697448
0.687649
0.718258
0.687354
0.72766
0.697575
0.722542
0.696571
0.731202
0.733107
0.708923
0.737654
0.718991
0.724719
0.717158
0.706189
0.741577
0.698203
0.745231
0.719035
0.730434
0.726392
0.723114
0.747371
0.697325
0.752773
0.710671
0.720147
0.750208
0.70112
0.761828
0.740969
0.771147
0.753117
0.772031
0.760958
0.736758
0.763298
0.745155
0.766121
0.751989
0.773634
0.744707
0.754886
0.760481
0.741551
0.764547
0.750683
0.765231
0.750271
0.755903
0.757575
0.753288
0.758546
0.757509
0.76642
0.757639
0.760989
0.753186
0.760217
0.754195
0.751345
0.753267
0.752921
0.754262
0.747261
0.754765
0.735386
0.748525
0.749872
0.743225
0.761743
0.755734
0.760648
0.744625
0.767114
0.742692
0.744117
0.756693
0.739078
0.756211
0.747286
0.748137
0.748172
0.76621
0.748874
0.758961
0.743876
0.745627
0.751652
0.756812
0.753248
0.733389
0.756197
0.740898
0.762441
0.742695
0.732097
0.757146
0.728266
0.762058
0.747553
0.768696
0.743674
0.767313
0.732978
0.737923
0.752113
0.728658
0.75851
0.73092
0.74851
0.745338
0.738956
0.723913
0.754875
0.735509
0.72533
0.747732
0.702919
0.746805
0.718029
0.723954
0.741678
0.708105
0.75605
0.729791
0.757082
0.732512
0.762335
0.728232
0.752911
0.718678
0.742951
0.724915
0.731122
0.728554
0.696376
0.756603
0.70161
0.745422
0.717884
0.740909
0.723026
0.744855
0.709373
0.7029
0.725267
0.691408
0.733309
0.707158
0.746612
0.687414
0.745094
0.697139
0.744028
0.683626
0.714143
0.703684
0.670156
0.718319
0.653898
0.728831
0.644585
0.753611
0.662276
0.765301
0.701048
0.764289
0.710894
0.741532
0.679621
0.69471
0.714387
0.616522
0.684578
0.602186
0.646769
0.58054
0.600944
0.550195
0.54457
0.508673
0.463285
0.463285
0.463285
0.463285
)
;

boundaryField
{
    inlet
    {
        type            calculated;
        value           uniform 0;
    }
    outlet
    {
        type            calculated;
        value           uniform 0;
    }
    sideWall
    {
        type            empty;
    }
}


// ************************************************************************* //
