/*--------------------------------*- C++ -*----------------------------------*\
| =========                 |                                                 |
| \\      /  F ield         | foam-extend: Open Source CFD                    |
|  \\    /   O peration     | Version:     3.2                                |
|   \\  /    A nd           | Web:         http://www.foam-extend.org         |
|    \\/     M anipulation  | For copyright notice see file Copyright         |
\*---------------------------------------------------------------------------*/
FoamFile
{
    version     2.0;
    format      ascii;
    class       areaScalarField;
    location    "160";
    object      Pvc;
}
// * * * * * * * * * * * * * * * * * * * * * * * * * * * * * * * * * * * * * //

dimensions      [0 0 0 0 0 0 0];

internalField   nonuniform List<scalar> 
300
(
0.536715
0.536715
0.536715
0.536715
0.536715
0.536715
0.536715
0.536715
0.536715
0.536715
0.536715
0.536715
0.536715
0.536715
0.536715
0.536715
0.536715
0.536715
0.536715
0.536715
0.536715
0.536715
0.536715
0.536715
0.536715
0.536715
0.536715
0.536715
0.536715
0.536715
0.536715
0.536715
0.536715
0.536715
0.536715
0.536715
0.536715
0.536715
0.536715
0.536715
0.536715
0.536715
0.536715
0.536715
0.536715
0.536715
0.536715
0.536715
0.536715
0.536715
0.536715
0.536715
0.536715
0.536715
0.536715
0.536715
0.536715
0.536715
0.536715
0.536715
0.536715
0.536715
0.536715
0.536715
0.536715
0.536715
0.536715
0.536715
0.536715
0.536715
0.536715
0.536715
0.536715
0.536715
0.536715
0.536715
0.536715
0.536715
0.536715
0.536715
0.536715
0.536715
0.536715
0.536715
0.536715
0.536715
0.536715
0.536715
0.536715
0.536715
0.536715
0.536715
0.536715
0.536715
0.536715
0.536715
0.536715
0.536715
0.536715
0.536715
0.493215
0.474246
0.449727
0.431286
0.409984
0.394161
0.373773
0.363014
0.33951
0.338003
0.325241
0.324799
0.321385
0.302552
0.312351
0.281742
0.312646
0.27234
0.302425
0.277458
0.303429
0.268798
0.266893
0.291077
0.262346
0.281009
0.275281
0.282842
0.293811
0.258423
0.301797
0.254769
0.280965
0.269566
0.273608
0.276886
0.252629
0.302675
0.247227
0.289329
0.279853
0.249792
0.29888
0.238172
0.259031
0.228853
0.246883
0.227969
0.239042
0.263242
0.236702
0.254845
0.233879
0.248011
0.226366
0.255293
0.245114
0.239519
0.258449
0.235453
0.249317
0.234769
0.249729
0.244097
0.242425
0.246712
0.241454
0.242491
0.23358
0.242361
0.239011
0.246814
0.239783
0.245805
0.248655
0.246733
0.247079
0.245738
0.252739
0.245235
0.264614
0.251475
0.250128
0.256775
0.238257
0.244266
0.239352
0.255375
0.232886
0.257308
0.255883
0.243307
0.260922
0.243789
0.252714
0.251863
0.251828
0.23379
0.251126
0.241039
0.256124
0.254373
0.248348
0.243188
0.246752
0.266611
0.243803
0.259102
0.237559
0.257305
0.267903
0.242854
0.271734
0.237942
0.252447
0.231304
0.256326
0.232687
0.267022
0.262077
0.247887
0.271342
0.24149
0.26908
0.25149
0.254662
0.261044
0.276087
0.245125
0.264491
0.27467
0.252268
0.297081
0.253195
0.281971
0.276046
0.258322
0.291895
0.24395
0.270209
0.242918
0.267488
0.237665
0.271768
0.247089
0.281322
0.257049
0.275085
0.268878
0.271446
0.303624
0.243397
0.29839
0.254578
0.282116
0.259091
0.276974
0.255145
0.290627
0.2971
0.274733
0.308592
0.266691
0.292842
0.253388
0.312586
0.254906
0.302861
0.255972
0.316374
0.285857
0.296316
0.329844
0.281681
0.346102
0.271169
0.355415
0.246389
0.337724
0.234699
0.298952
0.235711
0.289106
0.258468
0.320379
0.30529
0.285613
0.383478
0.315422
0.397814
0.353231
0.41946
0.399056
0.449805
0.45543
0.491327
0.536715
0.536715
0.536715
0.536715
)
;

boundaryField
{
    inlet
    {
        type            calculated;
        value           uniform 0;
    }
    outlet
    {
        type            calculated;
        value           uniform 0;
    }
    sideWall
    {
        type            empty;
    }
}


// ************************************************************************* //
