/*--------------------------------*- C++ -*----------------------------------*\
| =========                 |                                                 |
| \\      /  F ield         | foam-extend: Open Source CFD                    |
|  \\    /   O peration     | Version:     3.2                                |
|   \\  /    A nd           | Web:         http://www.foam-extend.org         |
|    \\/     M anipulation  | For copyright notice see file Copyright         |
\*---------------------------------------------------------------------------*/
FoamFile
{
    version     2.0;
    format      ascii;
    class       areaVectorField;
    location    "160";
    object      q_bed;
}
// * * * * * * * * * * * * * * * * * * * * * * * * * * * * * * * * * * * * * //

dimensions      [0 2 -1 0 0 0 0];

internalField   nonuniform List<vector> 
300
(
(0.00422331 0 0)
(0.00366695 0 0)
(0.00284074 0 0)
(0.00239534 0 0)
(0.00219593 0 0)
(0.00208258 0 0)
(0.00199645 0 0)
(0.00191823 0 0)
(0.00184387 0 0)
(0.00177447 0 0)
(0.00171103 0 0)
(0.00165319 0 0)
(0.00159999 0 0)
(0.00155189 0 0)
(0.00150811 0 0)
(0.00146796 0 0)
(0.00143095 0 0)
(0.0013966 0 0)
(0.00136498 0 0)
(0.00133604 0 0)
(0.00130907 0 0)
(0.00128369 0 0)
(0.00125979 0 0)
(0.00123733 0 0)
(0.00121624 0 0)
(0.00119627 0 0)
(0.00117738 0 0)
(0.00115943 0 0)
(0.0011424 0 0)
(0.0011263 0 0)
(0.00111091 0 0)
(0.00109627 0 0)
(0.00108222 0 0)
(0.00106885 0 0)
(0.00105602 0 0)
(0.0010438 0 0)
(0.00103199 1.49527e-42 0)
(0.00102072 0 0)
(0.00100981 0 0)
(0.00099936 0 0)
(0.00098929 0 0)
(0.000979599 -9.44361e-42 0)
(0.000970228 0 0)
(0.000961199 0 0)
(0.000952433 -1.66339e-41 0)
(0.000944016 0 0)
(0.000935825 0 0)
(0.000927965 2.95835e-41 0)
(0.000920258 0 0)
(0.000912884 5.48587e-41 0)
(0.000905625 5.29921e-41 0)
(0.000898685 5.10097e-41 0)
(0.000891861 -9.86028e-41 0)
(0.000885329 0 0)
(0.000878885 0 0)
(0.000872713 -1.78104e-40 0)
(0.000866609 -1.72206e-40 0)
(0.000860786 0 0)
(0.000854916 0 0)
(0.000849394 0 0)
(0.000843814 0 0)
(0.000838606 0 0)
(0.000833313 0 0)
(0.000828401 1.0672e-39 0)
(0.000823374 1.03578e-39 0)
(0.000818762 0 0)
(0.000813987 -1.94178e-39 0)
(0.000809656 1.86183e-39 0)
(0.000805128 0 0)
(0.000801079 0 0)
(0.000796807 3.37242e-39 0)
(0.000793054 -6.36781e-39 0)
(0.000789048 0 0)
(0.00078561 0 0)
(0.000781887 0 0)
(0.000778793 -1.01978e-38 0)
(0.000775412 0 0)
(0.000772701 0 0)
(0.000769738 1.67012e-38 0)
(0.000767487 -2.69638e-38 0)
(0.000765038 2.57098e-38 0)
(0.000763353 0 0)
(0.000761593 0 0)
(0.000760622 0 0)
(0.000759869 0 0)
(0.000759755 0 0)
(0.000760187 7.29229e-38 0)
(0.000761545 0 0)
(0.000763649 0 0)
(0.000767069 1.35329e-36 0)
(0.000772046 0 0)
(0.000778434 0 0)
(0.000788132 0 0)
(0.000799076 3.42419e-35 0)
(0.000818371 0 0)
(0.000838736 0 0)
(0.000883924 -9.90615e-33 0)
(0.000903536 0 0)
(0.0011565 -3.03714e-29 0)
(0.00106334 -6.46488e-23 -9.19866e-05)
(0.000317239 2.78699e-23 -3.76847e-05)
(0.000276225 -4.19348e-27 -1.98198e-05)
(0.000312417 2.60028e-24 -2.07994e-05)
(0.00030977 -4.37786e-27 -1.75109e-05)
(0.000330949 0 -1.65543e-05)
(0.000325736 -2.29827e-27 -1.47166e-05)
(0.000350832 2.22759e-27 -1.33247e-05)
(0.000339151 0 -1.28725e-05)
(0.000366228 -1.67513e-27 -9.85171e-06)
(0 0 0)
(0 0 0)
(0.000378339 -3.77118e-25 -7.00771e-06)
(0.000352311 4.74288e-24 -8.61024e-06)
(0.000388456 0 -4.75117e-06)
(0.000382108 1.67577e-24 -8.11408e-06)
(0 0 0)
(0 0 0)
(0 0 0)
(0 0 0)
(0 0 0)
(0.000331866 0 -5.60728e-06)
(0.000370953 3.03648e-27 5.13591e-06)
(0.000525234 -3.45725e-24 -5.52415e-06)
(0.000260586 5.44861e-27 -8.71749e-06)
(0 0 0)
(0 0 0)
(0 0 0)
(0 0 0)
(0 0 0)
(0.000487876 0 -9.36641e-06)
(0.000265678 0 -5.11797e-06)
(0.000428385 5.81901e-25 1.02969e-05)
(0.000374361 1.40814e-24 -4.33196e-06)
(0 0 0)
(0 0 0)
(0 0 0)
(0 0 0)
(0.000304557 0 -3.0192e-06)
(0.000474737 0 1.26163e-05)
(0.000430181 -4.59422e-24 -7.59402e-06)
(0.000379941 1.67221e-24 7.10062e-06)
(0 0 0)
(0 0 0)
(0 0 0)
(0 0 0)
(0 0 0)
(0.000462759 0 -5.19322e-06)
(0.000500763 0 1.07576e-05)
(0.000490392 8.77118e-24 -9.09618e-06)
(0.000413588 0 1.96007e-06)
(0.000464287 7.48354e-25 -4.15797e-06)
(0 0 0)
(0 0 0)
(0 0 0)
(0 0 0)
(0.000445881 -7.64642e-28 -9.09831e-06)
(0.000391436 0 6.21429e-08)
(0.000427279 0 -1.91267e-06)
(0.000424769 1.08277e-27 1.96392e-06)
(0.00047021 0 3.02235e-06)
(0 0 0)
(0 0 0)
(0 0 0)
(0 0 0)
(0.000399403 -6.19602e-26 -4.6571e-07)
(0.000447119 0 5.23727e-06)
(0.000465307 -2.42364e-27 3.11492e-06)
(0.000492273 0 7.27443e-06)
(0 0 0)
(0 0 0)
(0 0 0)
(0 0 0)
(0.000420875 0 -9.89444e-07)
(0.000415173 4.09638e-25 -7.48284e-07)
(0.000461469 7.99596e-25 2.66772e-06)
(0.000450551 -1.814e-25 -1.2832e-06)
(0 0 0)
(0 0 0)
(0 0 0)
(0 0 0)
(0 0 0)
(0.000433269 0 9.06624e-06)
(0.000433092 0 -2.40762e-06)
(0.000418047 -2.08556e-24 1.01173e-05)
(0.000543113 0 3.63633e-06)
(0.000457685 0 1.24514e-06)
(0 0 0)
(0 0 0)
(0 0 0)
(0 0 0)
(0 0 0)
(0 0 0)
(0.000424968 0 -2.17801e-06)
(0.000368465 0 -1.87134e-07)
(0.000422231 0 6.41286e-06)
(0.000459195 0 4.81822e-06)
(0 0 0)
(0 0 0)
(0 0 0)
(0 0 0)
(0.000419846 0 -2.79682e-06)
(0.000442515 1.01235e-24 5.24814e-06)
(0.000471157 -1.31821e-24 -1.87782e-06)
(0.000446369 2.38172e-25 -9.57693e-07)
(0 0 0)
(0 0 0)
(0 0 0)
(0 0 0)
(0 0 0)
(0.000444088 0 -7.67851e-06)
(0.000397995 0 3.35871e-06)
(0.000404495 0 -5.05408e-06)
(0.000378106 0 7.17346e-06)
(0.000474752 0 6.00054e-06)
(0.000439545 -3.61012e-25 5.9316e-06)
(0 0 0)
(0 0 0)
(0 0 0)
(0 0 0)
(0 0 0)
(0.000458038 -5.04753e-25 -2.48081e-06)
(0.000401355 -3.32172e-25 8.46775e-07)
(0.000494121 0 -5.52212e-07)
(0.000342287 -2.25605e-24 -5.02723e-06)
(0.00042364 0 4.45793e-06)
(0 0 0)
(0 0 0)
(0 0 0)
(0 0 0)
(0 0 0)
(0.000404517 0 -3.28009e-06)
(0.000416961 2.49273e-27 -6.93148e-06)
(0.000297899 0 -5.12947e-06)
(0.000402357 1.25926e-25 3.05806e-06)
(0 0 0)
(0 0 0)
(0 0 0)
(0 0 0)
(0.000473973 -3.45413e-25 -8.29074e-07)
(0.000438845 -3.25949e-27 1.01911e-05)
(0.000509799 -5.23066e-28 -1.32049e-06)
(0.000415608 0 -1.06132e-06)
(0.000483924 -7.10388e-28 -2.83471e-06)
(0.000308475 0 -5.77544e-06)
(0 0 0)
(0 0 0)
(0 0 0)
(0 0 0)
(0.000402186 0 6.36957e-06)
(0.000455532 2.68365e-27 -1.11278e-05)
(0.000329254 0 -2.97886e-06)
(0 0 0)
(0 0 0)
(0 0 0)
(0 0 0)
(0.000435646 0 6.41686e-06)
(0.000347149 0 1.77508e-06)
(0.000572412 2.75306e-27 1.30139e-05)
(0.000332479 -1.82233e-27 -9.50417e-06)
(0.000407845 0 1.4393e-05)
(0 0 0)
(0 0 0)
(0 0 0)
(0 0 0)
(0 0 0)
(0 0 0)
(0 0 0)
(0 0 0)
(0 0 0)
(0 0 0)
(0 0 0)
(0 0 0)
(0 0 0)
(0 0 0)
(0 0 0)
(0 0 0)
(0 0 0)
(0 0 0)
(0 0 0)
(0 0 0)
(0 0 0)
(0 0 0)
(0 0 0)
(0 0 0)
(0 0 0)
(0 0 0)
(0 0 0)
(0 0 0)
(0 0 0)
(0 0 0)
(0 0 0)
(0 0 0)
(1.01953e-05 1.76409e-26 4.43992e-07)
(8.82725e-05 -1.36701e-24 7.11314e-06)
(0.000102004 1.20758e-24 6.93418e-06)
(0.000427891 0 6.4018e-05)
(0.00127541 2.63616e-23 0.000114661)
(0.000947465 7.4496e-29 0)
(0.000544211 0 0)
(0.000446818 1.7154e-32 0)
)
;

boundaryField
{
    inlet
    {
        type            zeroGradient;
    }
    outlet
    {
        type            zeroGradient;
    }
    sideWall
    {
        type            empty;
    }
}


// ************************************************************************* //
