/*--------------------------------*- C++ -*----------------------------------*\
| =========                 |                                                 |
| \\      /  F ield         | foam-extend: Open Source CFD                    |
|  \\    /   O peration     | Version:     3.2                                |
|   \\  /    A nd           | Web:         http://www.foam-extend.org         |
|    \\/     M anipulation  | For copyright notice see file Copyright         |
\*---------------------------------------------------------------------------*/
FoamFile
{
    version     2.0;
    format      ascii;
    class       edgeScalarField;
    location    "160";
    object      q_f;
}
// * * * * * * * * * * * * * * * * * * * * * * * * * * * * * * * * * * * * * //

dimensions      [0 3 -1 0 0 0 0];

internalField   nonuniform List<scalar> 
299
(
7.89026e-05
6.50769e-05
5.23607e-05
4.59126e-05
4.27851e-05
4.07904e-05
3.91469e-05
3.7621e-05
3.61833e-05
3.4855e-05
3.36422e-05
3.25318e-05
3.15188e-05
3.05999e-05
2.97606e-05
2.89891e-05
2.82756e-05
2.76158e-05
2.70102e-05
2.64511e-05
2.59276e-05
2.54348e-05
2.49712e-05
2.45357e-05
2.41251e-05
2.37365e-05
2.3368e-05
2.30183e-05
2.2687e-05
2.2372e-05
2.20718e-05
2.1785e-05
2.15107e-05
2.12487e-05
2.09982e-05
2.07579e-05
2.05271e-05
2.03053e-05
2.00917e-05
1.98865e-05
1.96889e-05
1.94983e-05
1.93143e-05
1.91363e-05
1.89645e-05
1.87984e-05
1.86379e-05
1.84822e-05
1.83314e-05
1.81851e-05
1.80431e-05
1.79055e-05
1.77719e-05
1.76421e-05
1.7516e-05
1.73932e-05
1.7274e-05
1.7157e-05
1.70431e-05
1.69321e-05
1.68242e-05
1.67192e-05
1.66171e-05
1.65178e-05
1.64214e-05
1.63275e-05
1.62364e-05
1.61478e-05
1.60621e-05
1.59789e-05
1.58986e-05
1.5821e-05
1.57466e-05
1.5675e-05
1.56068e-05
1.55421e-05
1.54811e-05
1.54244e-05
1.53723e-05
1.53253e-05
1.52839e-05
1.52495e-05
1.52221e-05
1.52049e-05
1.51962e-05
1.51994e-05
1.52173e-05
1.52519e-05
1.53072e-05
1.53911e-05
1.55048e-05
1.56657e-05
1.58721e-05
1.61745e-05
1.65711e-05
1.72266e-05
1.78746e-05
2.06003e-05
2.22397e-05
1.388e-05
5.9631e-06
5.9005e-06
6.23372e-06
6.41631e-06
6.5743e-06
6.77157e-06
6.90481e-06
7.05761e-06
3.66416e-06
0
3.78462e-06
7.30822e-06
7.40906e-06
7.7068e-06
3.82178e-06
0
0
0
0
3.31933e-06
7.02903e-06
8.96254e-06
7.86061e-06
2.60702e-06
0
0
0
0
4.8797e-06
7.53693e-06
6.94228e-06
8.02889e-06
3.74463e-06
0
0
0
3.04565e-06
7.79451e-06
9.05148e-06
8.10256e-06
3.79978e-06
0
0
0
0
4.62811e-06
9.63664e-06
9.91354e-06
9.04063e-06
8.77897e-06
4.64297e-06
0
0
0
4.45927e-06
8.37404e-06
8.18719e-06
8.52057e-06
8.94994e-06
4.70215e-06
0
0
0
3.99404e-06
8.46552e-06
9.12468e-06
9.57644e-06
4.92303e-06
0
0
0
4.20886e-06
8.3605e-06
8.7665e-06
9.1203e-06
4.50552e-06
0
0
0
0
4.3333e-06
8.66463e-06
8.51271e-06
9.61311e-06
1.00081e-05
4.57689e-06
0
0
0
0
0
4.24975e-06
7.93438e-06
7.90742e-06
8.81502e-06
4.59235e-06
0
0
0
4.19861e-06
8.62401e-06
9.13707e-06
9.17531e-06
4.46389e-06
0
0
0
0
4.44163e-06
8.4216e-06
8.02535e-06
7.82702e-06
8.52969e-06
9.14375e-06
4.39579e-06
0
0
0
0
4.5807e-06
8.594e-06
8.95477e-06
8.36453e-06
7.6599e-06
4.23666e-06
0
0
0
0
4.04539e-06
8.21549e-06
7.14963e-06
7.00318e-06
4.02381e-06
0
0
0
4.74102e-06
9.12941e-06
9.48773e-06
9.2541e-06
8.99542e-06
7.92475e-06
3.08517e-06
0
0
0
4.02269e-06
8.579e-06
7.84919e-06
3.29261e-06
0
0
0
4.3567e-06
7.82843e-06
9.19686e-06
9.05193e-06
7.40705e-06
4.0802e-06
0
0
0
0
0
0
0
0
0
0
0
0
0
0
0
0
0
0
0
0
0
0
0
0
0
0
0
0
0
0
0
1.0208e-07
9.86739e-07
1.90804e-06
5.33445e-06
1.7162e-05
2.22735e-05
1.49168e-05
9.91029e-06
)
;

boundaryField
{
    inlet
    {
        type            calculated;
        value           uniform -8.44662e-05;
    }
    outlet
    {
        type            calculated;
        value           uniform 1.02097e-05;
    }
    sideWall
    {
        type            empty;
    }
}


// ************************************************************************* //
