/*--------------------------------*- C++ -*----------------------------------*\
| =========                 |                                                 |
| \\      /  F ield         | foam-extend: Open Source CFD                    |
|  \\    /   O peration     | Version:     3.2                                |
|   \\  /    A nd           | Web:         http://www.foam-extend.org         |
|    \\/     M anipulation  | For copyright notice see file Copyright         |
\*---------------------------------------------------------------------------*/
FoamFile
{
    version     2.0;
    format      ascii;
    class       areaScalarField;
    location    "160";
    object      SSd1;
}
// * * * * * * * * * * * * * * * * * * * * * * * * * * * * * * * * * * * * * //

dimensions      [0 1 -2 -1 0 0 0];

internalField   nonuniform List<scalar> 
300
(
0.000615578
0.000615578
0.000615578
0.000615578
0.000615578
0.000615578
0.000615578
0.000615578
0.000615578
0.000615578
0.000615578
0.000615578
0.000615578
0.000615578
0.000615578
0.000615578
0.000615578
0.000615578
0.000615578
0.000615578
0.000615578
0.000615578
0.000615578
0.000615578
0.000615578
0.000615578
0.000615578
0.000615578
0.000615578
0.000615578
0.000615578
0.000615578
0.000615578
0.000615578
0.000615578
0.000615578
0.000615578
0.000615578
0.000615578
0.000615578
0.000615578
0.000615578
0.000615578
0.000615578
0.000615578
0.000615578
0.000615578
0.000615578
0.000615578
0.000615578
0.000615578
0.000615578
0.000615578
0.000615578
0.000615578
0.000615578
0.000615578
0.000615578
0.000615578
0.000615578
0.000615578
0.000615578
0.000615578
0.000615578
0.000615578
0.000615578
0.000615578
0.000615578
0.000615578
0.000615578
0.000615578
0.000615578
0.000615578
0.000615578
0.000615578
0.000615578
0.000615578
0.000615578
0.000615578
0.000615578
0.000615578
0.000615578
0.000615578
0.000615578
0.000615578
0.000615578
0.000615578
0.000615578
0.000615578
0.000615578
0.000615578
0.000615578
0.000615578
0.000615578
0.000615578
0.000615578
0.000615578
0.000615578
0.000615578
0.00061558
0.000613672
0.000611145
0.000611195
0.000609504
0.000610108
0.000607477
0.000610122
0.000605373
0.000610874
0.000623202
0.000599597
0.000633184
0.000635017
0.000599707
0.000583225
0.000607685
0.000572909
0.000616149
0.000624319
0.000595279
0.000621535
0.0006239
0.000592196
0.000582741
0.000586801
0.000580667
0.000601913
0.000608
0.000608887
0.000624159
0.000596406
0.000574296
0.000577065
0.000584041
0.000586774
0.000618126
0.000643028
0.000607228
0.000568929
0.000574787
0.000592555
0.000593656
0.000585621
0.000619966
0.000636559
0.000604721
0.000607775
0.000617574
0.000591875
0.00056954
0.000604032
0.000623224
0.000589098
0.000670767
0.000646032
0.000608034
0.000655554
0.000583295
0.000580333
0.000637759
0.000623563
0.000612432
0.000649314
0.00067522
0.000617233
0.000597585
0.000602948
0.000577641
0.000626958
0.000635296
0.000657889
0.000653221
0.000634165
0.000631601
0.000602907
0.000602937
0.000650772
0.000609894
0.000652882
0.000676762
0.000611828
0.000601845
0.000648624
0.000577554
0.000578388
0.000628761
0.000655919
0.00060375
0.000648699
0.000630643
0.000623291
0.000610754
0.000645487
0.000600974
0.000581773
0.000609632
0.000592363
0.000604702
0.000631341
0.000650391
0.000618627
0.000599615
0.000604375
0.000580922
0.000596441
0.000633972
0.000687081
0.000652548
0.000603654
0.000600826
0.000633767
0.00056586
0.000561742
0.000613958
0.000618864
0.000593642
0.000585636
0.000669452
0.000615028
0.000631709
0.00064686
0.000627343
0.000600352
0.000598575
0.000623272
0.000599168
0.000580156
0.000643612
0.000614993
0.000629453
0.000617063
0.00062566
0.00058929
0.000575575
0.000594091
0.000595148
0.000650923
0.00060744
0.000635957
0.000608894
0.000615593
0.000616002
0.000634715
0.000599409
0.000609786
0.000590708
0.000597322
0.000604786
0.000591322
0.000577765
0.000573205
0.000606634
0.000609172
0.000648153
0.000632356
0.000604521
0.000583638
0.000581252
0.000589766
0.000569915
0.000605174
0.000584892
0.00064432
0.00061154
0.00064006
0.000635513
0.000649543
0.000626898
0.000602688
0.000642465
0.000636887
0.000608455
0.000616307
0.000617823
0.000628857
0.000611186
0.000613741
0.000616588
0.000599375
0.000628318
0.000615328
0.000666384
0.000624762
0.000615068
0.000633203
0.000649914
0.000635088
0.000627526
0.000626087
0.000622862
0.000625474
0.000619946
0.000622968
0.000618063
0.000619819
0.00061626
0.000614837
0.000615056
0.00061514
0.000615183
)
;

boundaryField
{
    inlet
    {
        type            calculated;
        value           uniform 0;
    }
    outlet
    {
        type            calculated;
        value           uniform 0;
    }
    sideWall
    {
        type            empty;
    }
}


// ************************************************************************* //
