/*--------------------------------*- C++ -*----------------------------------*\
| =========                 |                                                 |
| \\      /  F ield         | foam-extend: Open Source CFD                    |
|  \\    /   O peration     | Version:     3.2                                |
|   \\  /    A nd           | Web:         http://www.foam-extend.org         |
|    \\/     M anipulation  | For copyright notice see file Copyright         |
\*---------------------------------------------------------------------------*/
FoamFile
{
    version     2.0;
    format      ascii;
    class       areaScalarField;
    location    "160";
    object      SSe1;
}
// * * * * * * * * * * * * * * * * * * * * * * * * * * * * * * * * * * * * * //

dimensions      [0 1 -2 -1 0 0 0];

internalField   nonuniform List<scalar> 
300
(
0.0445057
0.0316045
0.0182307
0.0135491
0.0119079
0.0110759
0.010486
0.00997874
0.00951922
0.00910856
0.00874711
0.00842819
0.00814304
0.00789145
0.00766725
0.00746538
0.00728228
0.00711466
0.00696227
0.0068243
0.00669697
0.00657813
0.00646712
0.00636353
0.00626682
0.0061758
0.00609013
0.0060091
0.00593261
0.0058605
0.00579184
0.00572678
0.00566449
0.00560538
0.00554879
0.00549503
0.00544321
0.0053938
0.00534611
0.00530049
0.0052566
0.00521442
0.00517368
0.00513449
0.00509648
0.00506003
0.00502458
0.0049906
0.00495732
0.00492549
0.00489419
0.00486429
0.0048349
0.00480678
0.00477906
0.00475253
0.0047263
0.00470129
0.00467608
0.00465238
0.00462844
0.0046061
0.00458341
0.00456236
0.00454081
0.00452105
0.0045006
0.00448205
0.00446266
0.00444532
0.00442704
0.00441097
0.00439383
0.00437912
0.00436319
0.00434995
0.00433548
0.00432388
0.00431121
0.00430158
0.0042911
0.0042839
0.00427637
0.00427221
0.004269
0.00426851
0.00427036
0.00427617
0.00428517
0.00429981
0.0043211
0.00434844
0.00438995
0.0044368
0.00451945
0.00460675
0.00480087
0.00488404
0.00599467
0.0026178
0.000845598
0.000925146
0.000983434
0.00100336
0.0010454
0.00103376
0.00109444
0.00104014
0.00113788
0.000134486
0.000117259
0.0012219
0.00107963
0.00125089
0.00114653
0.000121185
8.44444e-05
9.49019e-05
0.000126828
9.20113e-05
0.00106947
0.00101588
0.00139101
0.000736182
7.30438e-05
9.58399e-05
8.61226e-05
0.000107869
9.35114e-05
0.00115057
0.000898323
0.00091105
0.0011471
8.00033e-05
0.000107028
9.33512e-05
0.000121306
0.00110527
0.000915707
0.00120192
0.000997481
0.000111219
9.79072e-05
8.86045e-05
0.000104164
0.000116178
0.00117029
0.000940659
0.00107448
0.00124419
0.00115639
0.000109531
9.25227e-05
0.000155906
0.000144336
0.00105265
0.00121663
0.00117841
0.00124535
0.00117733
0.000140236
0.000143504
0.000112581
0.000118345
0.00120073
0.00109185
0.00119219
0.00108988
0.000147306
0.000124099
0.000117472
0.000113976
0.00120665
0.0012364
0.00124213
0.00128959
0.000144959
9.26916e-05
0.000109924
0.000128392
9.87536e-05
0.00094809
0.00122471
0.000900252
0.00131088
0.00128093
0.000138158
0.000109304
0.000123282
9.81297e-05
0.000105401
0.000113147
0.00126835
0.00115509
0.00101691
0.0011554
0.000115491
0.000143881
9.73685e-05
0.000104149
0.00120847
0.0011158
0.00131632
0.00127506
0.000106652
0.000116925
0.000128363
0.000118878
0.00010547
0.00109806
0.00115854
0.00103076
0.000960421
0.00107871
0.00107071
0.000134103
0.000120646
0.000124772
0.000101277
0.00010002
0.00126343
0.00131884
0.00138154
0.000993645
0.00109346
0.000106893
0.000110078
0.00012307
8.81148e-05
0.000142927
0.00123595
0.00103726
0.000972241
0.00111742
0.000100841
9.36677e-05
0.00012011
9.5592e-05
0.00134741
0.000993191
0.0013894
0.00132821
0.00124652
0.00089369
0.000107542
0.000114726
9.25687e-05
0.000130491
0.00103974
0.00108521
0.00117524
0.000123773
0.000132225
0.000123107
0.000126926
0.0010736
0.00115628
0.00113438
0.000901123
0.000887785
0.000114322
9.3566e-05
0.00015465
0.000143357
0.000122635
0.000127828
0.000140758
0.000115882
9.99724e-05
0.000148842
0.000137674
0.000109096
0.000119553
0.000120909
0.000134806
0.000114393
0.000121096
0.000124187
0.000109996
0.000147677
0.000134665
0.000187086
0.000132566
0.000131619
0.000155855
0.000158716
0.000143178
0.00014701
0.000151135
0.000159909
0.000173262
0.00018163
0.00020783
0.000228626
0.000280448
0.000362784
0.00178129
0.00507625
0.00334241
0.00291571
)
;

boundaryField
{
    inlet
    {
        type            calculated;
        value           uniform 0;
    }
    outlet
    {
        type            calculated;
        value           uniform 0;
    }
    sideWall
    {
        type            empty;
    }
}


// ************************************************************************* //
