/*--------------------------------*- C++ -*----------------------------------*\
| =========                 |                                                 |
| \\      /  F ield         | foam-extend: Open Source CFD                    |
|  \\    /   O peration     | Version:     3.2                                |
|   \\  /    A nd           | Web:         http://www.foam-extend.org         |
|    \\/     M anipulation  | For copyright notice see file Copyright         |
\*---------------------------------------------------------------------------*/
FoamFile
{
    version     2.0;
    format      ascii;
    class       areaScalarField;
    location    "160";
    object      tau;
}
// * * * * * * * * * * * * * * * * * * * * * * * * * * * * * * * * * * * * * //

dimensions      [1 1 2 0 0 0 0];

internalField   nonuniform List<scalar> 
300
(
53.2817
42.4321
29.4366
24.1719
22.1872
21.1464
20.3926
19.7331
19.1259
18.5749
18.0831
17.6435
17.2457
16.8909
16.5715
16.2813
16.0157
15.7707
15.5462
15.3416
15.1515
14.9731
14.8053
14.648
14.5003
14.3606
14.2285
14.103
13.984
13.8713
13.7636
13.6612
13.5627
13.4689
13.3789
13.293
13.21
13.1306
13.0537
12.98
12.9088
12.8402
12.7738
12.7098
12.6475
12.5877
12.5293
12.4733
12.4182
12.3655
12.3135
12.2637
12.2147
12.1677
12.1213
12.0768
12.0328
11.9906
11.9481
11.9081
11.8676
11.8297
11.7912
11.7554
11.7187
11.685
11.65
11.6183
11.5851
11.5554
11.5239
11.4963
11.4668
11.4414
11.4139
11.391
11.366
11.3459
11.3239
11.3072
11.2891
11.2765
11.2634
11.2562
11.2506
11.2498
11.253
11.2631
11.2788
11.3042
11.3411
11.3884
11.4601
11.5407
11.6822
11.8308
12.1579
12.2989
14.0832
13.0041
7.02231
6.81423
7.20335
7.221
7.45764
7.42801
7.70161
7.58944
7.8958
7.8956
7.4978
8.04941
7.77508
8.16404
8.06518
8.54877
7.2421
8.16622
8.81341
7.97916
7.61605
8.12118
9.36154
6.81186
8.2196
8.21601
8.48616
8.60251
8.39322
9.01744
6.93185
8.68885
8.035
8.87848
8.93706
8.08758
8.92534
7.37374
9.10846
8.51667
8.22283
8.58584
8.15476
9.16363
9.05297
10.1263
8.84245
9.3103
9.031
8.46767
8.85504
7.72966
9.47576
9.60226
9.36388
8.65164
8.25139
8.55088
8.56999
8.97439
8.85746
9.24799
8.60242
8.26457
8.32188
8.80534
8.9344
9.19909
9.73387
8.91893
8.59679
8.4345
8.51094
8.46006
8.89704
8.76115
9.25072
8.39491
7.79048
8.75892
7.74678
8.72804
8.60162
8.59647
9.58977
8.84912
9.4094
8.5788
8.63442
8.2883
7.64762
8.61047
8.53383
8.03196
8.59242
8.89785
9.17644
9.66641
8.00057
8.39544
8.48231
8.76548
8.93682
8.72613
8.40028
8.23216
8.63538
7.84006
9.40469
8.65021
8.34895
8.31106
8.20873
9.04319
8.73651
9.83466
8.60845
9.10843
8.21539
8.10431
8.82439
8.35138
9.14748
7.71854
8.58304
7.97003
8.96504
8.4318
8.58151
9.21163
8.33818
8.40899
7.27074
8.37834
7.52285
8.47879
8.19306
8.64956
8.98161
8.78357
9.27042
8.4532
9.03693
7.37039
8.53093
7.52071
9.34886
8.96364
8.42003
8.70849
7.61673
8.24791
7.9219
8.04268
7.67391
8.71697
7.85545
9.90108
7.56141
8.55361
8.15297
8.30161
9.06853
8.39211
8.60026
7.27012
8.6553
7.22409
8.82848
8.27917
8.73982
7.69544
8.05749
7.90184
8.20641
7.71853
8.12523
8.01716
8.2101
8.87603
8.57691
9.3354
7.29013
8.53091
7.94816
7.32619
7.24809
7.90309
7.85099
8.33568
8.12538
8.78098
8.38666
9.57141
8.73746
11.7308
16.1596
12.6167
9.57538
8.74984
)
;

boundaryField
{
    inlet
    {
        type            calculated;
        value           uniform 0;
    }
    outlet
    {
        type            calculated;
        value           uniform 0;
    }
    sideWall
    {
        type            empty;
    }
}


// ************************************************************************* //
