/*--------------------------------*- C++ -*----------------------------------*\
| =========                 |                                                 |
| \\      /  F ield         | foam-extend: Open Source CFD                    |
|  \\    /   O peration     | Version:     3.2                                |
|   \\  /    A nd           | Web:         http://www.foam-extend.org         |
|    \\/     M anipulation  | For copyright notice see file Copyright         |
\*---------------------------------------------------------------------------*/
FoamFile
{
    version     2.0;
    format      ascii;
    class       areaScalarField;
    location    "160";
    object      tauCSS2;
}
// * * * * * * * * * * * * * * * * * * * * * * * * * * * * * * * * * * * * * //

dimensions      [1 1 2 0 0 0 0];

internalField   nonuniform List<scalar> 
300
(
0.126764
0.126764
0.126764
0.126764
0.126764
0.126764
0.126764
0.126764
0.126764
0.126764
0.126764
0.126764
0.126764
0.126764
0.126764
0.126764
0.126764
0.126764
0.126764
0.126764
0.126764
0.126764
0.126764
0.126764
0.126764
0.126764
0.126764
0.126764
0.126764
0.126764
0.126764
0.126764
0.126764
0.126764
0.126764
0.126764
0.126764
0.126764
0.126764
0.126764
0.126764
0.126764
0.126764
0.126764
0.126764
0.126764
0.126764
0.126764
0.126764
0.126764
0.126764
0.126764
0.126764
0.126764
0.126764
0.126764
0.126764
0.126764
0.126764
0.126764
0.126764
0.126764
0.126764
0.126764
0.126764
0.126764
0.126764
0.126764
0.126764
0.126764
0.126764
0.126764
0.126764
0.126764
0.126764
0.126764
0.126764
0.126764
0.126764
0.126764
0.126764
0.126764
0.126764
0.126764
0.126764
0.126764
0.126764
0.126764
0.126764
0.126764
0.126764
0.126764
0.126764
0.126764
0.126764
0.126764
0.126764
0.126764
0.126764
0.109484
0.102874
0.112481
0.113529
0.115555
0.116862
0.117832
0.119271
0.119276
0.121473
0.451288
0.473644
0.12313
0.121961
0.124369
0.122595
0.540377
0.539615
0.588828
0.557592
0.565443
0.123451
0.129451
0.124706
0.120172
0.636192
0.592496
0.629597
0.592703
0.624968
0.122997
0.122984
0.131413
0.124499
0.635275
0.584812
0.617566
0.599853
0.124824
0.1319
0.123302
0.130385
0.590112
0.607915
0.601099
0.584847
0.572637
0.124567
0.130923
0.123125
0.127686
0.125012
0.560925
0.574137
0.53934
0.54419
0.122759
0.126795
0.125889
0.127664
0.128014
0.552275
0.551382
0.543206
0.557594
0.126536
0.129039
0.128066
0.129631
0.544274
0.533371
0.541003
0.544835
0.126305
0.126412
0.127889
0.126208
0.557434
0.540953
0.568915
0.570883
0.562834
0.130816
0.125677
0.131445
0.128066
0.127294
0.551138
0.534302
0.555138
0.544295
0.567454
0.574257
0.125762
0.126665
0.129711
0.128803
0.564567
0.54422
0.540498
0.565224
0.125462
0.129067
0.125985
0.126345
0.547065
0.566005
0.557602
0.559198
0.570542
0.123373
0.128405
0.124317
0.13044
0.129218
0.129384
0.540963
0.51993
0.541859
0.517393
0.556823
0.125705
0.127175
0.126546
0.123886
0.128809
0.537395
0.561123
0.53089
0.561969
0.5258
0.125178
0.123505
0.123387
0.128242
0.551276
0.581116
0.549062
0.573337
0.126422
0.131257
0.126258
0.126265
0.125619
0.123091
0.548881
0.528326
0.558697
0.503363
0.129836
0.121963
0.124994
0.538237
0.53705
0.544038
0.547227
0.129622
0.127759
0.131164
0.121139
0.133563
0.506085
0.550089
0.501542
0.518477
0.497872
0.513663
0.524893
0.513574
0.541066
0.502716
0.526348
0.497175
0.537846
0.504296
0.532443
0.501807
0.533313
0.496516
0.523537
0.485976
0.490596
0.464148
0.460346
0.480656
0.454034
0.474794
0.474216
0.483794
0.461017
0.459335
0.430548
0.421523
0.384349
0.364281
0.311635
0.268534
0.172787
0.126764
0.126764
0.126764
)
;

boundaryField
{
    inlet
    {
        type            calculated;
        value           uniform 0;
    }
    outlet
    {
        type            calculated;
        value           uniform 0;
    }
    sideWall
    {
        type            empty;
    }
}


// ************************************************************************* //
