/*--------------------------------*- C++ -*----------------------------------*\
| =========                 |                                                 |
| \\      /  F ield         | foam-extend: Open Source CFD                    |
|  \\    /   O peration     | Version:     3.2                                |
|   \\  /    A nd           | Web:         http://www.foam-extend.org         |
|    \\/     M anipulation  | For copyright notice see file Copyright         |
\*---------------------------------------------------------------------------*/
FoamFile
{
    version     2.0;
    format      ascii;
    class       areaScalarField;
    location    "160";
    object      Tb;
}
// * * * * * * * * * * * * * * * * * * * * * * * * * * * * * * * * * * * * * //

dimensions      [0 0 1 0 0 0 0];

internalField   nonuniform List<scalar> 
300
(
0.01
0.01
0.01
0.01
0.01
0.01
0.01
0.01
0.01
0.01
0.01
0.01
0.01
0.01
0.01
0.01
0.01
0.01
0.01
0.01
0.01
0.01
0.01
0.01
0.01
0.01
0.01
0.01
0.01
0.01
0.01
0.01
0.01
0.01
0.01
0.01
0.01
0.01
0.01
0.01
0.01
0.01
0.01
0.01
0.01
0.01
0.01
0.01
0.01
0.01
0.01
0.01
0.01
0.01
0.01
0.01
0.01
0.01
0.01
0.01
0.01
0.01
0.01
0.01
0.01
0.01
0.01
0.01
0.01
0.01
0.01
0.01
0.01
0.01
0.01
0.01
0.01
0.01
0.01
0.01
0.01
0.01
0.01
0.01
0.01
0.01
0.01
0.01
0.01
0.01
0.01
0.01
0.01
0.01
0.01
0.01
0.01
0.01
0.01
0.01
0.01
0.01
0.01
0.01
0.01
45.76
47.02
50.75
47.76
46.03
49.58
48.02
50.43
51.1
51.81
53.56
54.66
54.85
54.99
54.33
54.23
54.21
53.71
53.71
53.87
53.95
53.69
54.05
52.85
53.35
52.62
52.12
51.42
50.54
49.85
51.19
50.55
50.57
51.08
52.85
51.24
51.32
50.99
51.43
50.6
49.28
49.16
48.18
48.23
49.78
49.8
49.57
50.19
49.13
49.88
49.78
50.25
50.67
50.54
51.18
50.34
51.63
51.28
50.84
51.09
50.65
49.86
49.59
49.64
48.79
49.85
50.45
50.63
52
51.35
51.9
50.66
50.48
50.18
50.48
49.86
49.53
49.37
49.68
49.71
48.81
49.24
48.94
49.4
49.57
48.29
47.83
48.38
48.83
48.72
47.99
48.88
49.42
50.27
51.05
51.42
50.82
50.94
50.32
50.16
50.4
50.44
50.2
50.54
50.19
49.79
49.7
50.19
50.19
49.96
50.39
50.23
49.55
49.56
49.81
50.63
50.61
50.7
50.35
49.42
49.46
49.66
50.2
50.22
50.19
49.54
49.69
49.75
50.42
50.93
50.55
50.5
50.29
50.41
50.04
50.42
50.46
49.66
49.65
49.81
50.82
50.54
50.29
49.63
49.72
49.88
49.77
50.83
50.59
49.85
49.22
49.78
50.33
49.54
49.41
49.86
49.58
49.55
48.57
47.61
47.31
48.64
47.87
47.81
47.05
48.81
46.66
46.21
46.53
45.4
46.72
44.22
47.95
46.89
46.47
46.34
46.17
48.66
42.25
45.85
40.24
46.75
44.96
42.43
39.06
35.57
16.82
0.01
0.01
0.01
0.01
0.01
0.01
0.01
0.01
)
;

boundaryField
{
    inlet
    {
        type            calculated;
        value           uniform 0;
    }
    outlet
    {
        type            calculated;
        value           uniform 0;
    }
    sideWall
    {
        type            empty;
    }
}


// ************************************************************************* //
