/*--------------------------------*- C++ -*----------------------------------*\
| =========                 |                                                 |
| \\      /  F ield         | foam-extend: Open Source CFD                    |
|  \\    /   O peration     | Version:     3.2                                |
|   \\  /    A nd           | Web:         http://www.foam-extend.org         |
|    \\/     M anipulation  | For copyright notice see file Copyright         |
\*---------------------------------------------------------------------------*/
FoamFile
{
    version     2.0;
    format      ascii;
    class       areaScalarField;
    location    "160";
    object      thetaB;
}
// * * * * * * * * * * * * * * * * * * * * * * * * * * * * * * * * * * * * * //

dimensions      [0 0 0 0 0 0 0];

internalField   nonuniform List<scalar> 
300
(
0.990736
0.788995
0.547354
0.44946
0.412555
0.393202
0.379187
0.366923
0.355633
0.345388
0.336243
0.328069
0.320673
0.314075
0.308136
0.302739
0.297802
0.293245
0.289072
0.285267
0.281732
0.278414
0.275295
0.272369
0.269623
0.267026
0.264569
0.262235
0.260022
0.257927
0.255925
0.25402
0.252189
0.250445
0.248771
0.247174
0.245631
0.244154
0.242725
0.241353
0.24003
0.238755
0.237521
0.23633
0.235172
0.234059
0.232974
0.231932
0.230908
0.229928
0.228961
0.228036
0.227124
0.226251
0.225388
0.22456
0.223741
0.222958
0.222167
0.221423
0.22067
0.219966
0.219249
0.218583
0.217901
0.217274
0.216625
0.216035
0.215417
0.214864
0.21428
0.213766
0.213217
0.212745
0.212234
0.211808
0.211343
0.21097
0.210561
0.21025
0.209912
0.209679
0.209436
0.209302
0.209198
0.209182
0.209242
0.20943
0.209721
0.210193
0.21088
0.21176
0.213093
0.214592
0.217223
0.219986
0.226067
0.228689
0.261866
0.241803
0.130575
0.126706
0.133941
0.13427
0.13867
0.138119
0.143206
0.14112
0.146817
0.146813
0.139416
0.149673
0.144572
0.151805
0.149966
0.158958
0.134662
0.151845
0.163879
0.148367
0.141615
0.151008
0.174071
0.126662
0.152838
0.152771
0.157794
0.159958
0.156066
0.167673
0.128893
0.161563
0.149405
0.165089
0.166178
0.150383
0.16596
0.13711
0.169366
0.158362
0.152898
0.159648
0.151632
0.170391
0.168334
0.188291
0.164419
0.173119
0.167925
0.157451
0.164653
0.143728
0.176195
0.178547
0.174115
0.160871
0.153429
0.158998
0.159353
0.166873
0.164698
0.17196
0.159956
0.153674
0.15474
0.163729
0.166129
0.171051
0.180995
0.165841
0.159851
0.156834
0.158255
0.157309
0.165434
0.162908
0.172011
0.156098
0.144859
0.162866
0.144046
0.162292
0.159941
0.159845
0.178315
0.164543
0.174961
0.159517
0.160551
0.154115
0.142202
0.160106
0.158681
0.149349
0.15977
0.165449
0.17063
0.17974
0.148765
0.156107
0.157723
0.162988
0.166174
0.162256
0.156197
0.153071
0.160569
0.145781
0.174874
0.160845
0.155243
0.154538
0.152636
0.168152
0.162449
0.182869
0.160068
0.169365
0.152759
0.150694
0.164083
0.155288
0.170091
0.143521
0.159596
0.148197
0.166699
0.156784
0.159567
0.171284
0.155043
0.156359
0.135194
0.15579
0.139882
0.157657
0.152344
0.160833
0.167007
0.163324
0.172377
0.157182
0.168035
0.137047
0.158627
0.139842
0.173836
0.166673
0.156565
0.161928
0.141628
0.153364
0.147302
0.149548
0.142691
0.162086
0.146067
0.184104
0.140599
0.159048
0.151599
0.154363
0.168623
0.156046
0.159916
0.135183
0.160939
0.134327
0.16416
0.153946
0.162511
0.143091
0.149823
0.146929
0.152593
0.143521
0.151083
0.149074
0.152661
0.165044
0.159482
0.173585
0.135555
0.158626
0.147791
0.136225
0.134773
0.146952
0.145984
0.154996
0.151086
0.163276
0.155944
0.177974
0.162467
0.218127
0.300476
0.234599
0.178048
0.162697
)
;

boundaryField
{
    inlet
    {
        type            calculated;
        value           uniform 0;
    }
    outlet
    {
        type            calculated;
        value           uniform 0;
    }
    sideWall
    {
        type            empty;
    }
}


// ************************************************************************* //
