/*--------------------------------*- C++ -*----------------------------------*\
| =========                 |                                                 |
| \\      /  F ield         | foam-extend: Open Source CFD                    |
|  \\    /   O peration     | Version:     3.2                                |
|   \\  /    A nd           | Web:         http://www.foam-extend.org         |
|    \\/     M anipulation  | For copyright notice see file Copyright         |
\*---------------------------------------------------------------------------*/
FoamFile
{
    version     2.0;
    format      ascii;
    class       areaScalarField;
    location    "160";
    object      thetaCB;
}
// * * * * * * * * * * * * * * * * * * * * * * * * * * * * * * * * * * * * * //

dimensions      [0 0 0 0 0 0 0];

internalField   nonuniform List<scalar> 
300
(
0.0497301
0.0497301
0.0497301
0.0497301
0.0497301
0.0497301
0.0497301
0.0497301
0.0497301
0.0497301
0.0497301
0.0497301
0.0497301
0.0497301
0.0497301
0.0497301
0.0497301
0.0497301
0.0497301
0.0497301
0.0497301
0.0497301
0.0497301
0.0497301
0.0497301
0.0497301
0.0497301
0.0497301
0.0497301
0.0497301
0.0497301
0.0497301
0.0497301
0.0497301
0.0497301
0.0497301
0.0497301
0.0497301
0.0497301
0.0497301
0.0497301
0.0497301
0.0497301
0.0497301
0.0497301
0.0497301
0.0497301
0.0497301
0.0497301
0.0497301
0.0497301
0.0497301
0.0497301
0.0497301
0.0497301
0.0497301
0.0497301
0.0497301
0.0497301
0.0497301
0.0497301
0.0497301
0.0497301
0.0497301
0.0497301
0.0497301
0.0497301
0.0497301
0.0497301
0.0497301
0.0497301
0.0497301
0.0497301
0.0497301
0.0497301
0.0497301
0.0497301
0.0497301
0.0497301
0.0497301
0.0497301
0.0497301
0.0497301
0.0497301
0.0497301
0.0497301
0.0497301
0.0497301
0.0497301
0.0497301
0.0497301
0.0497301
0.0497301
0.0497301
0.0497301
0.0497301
0.0497301
0.0497301
0.0497301
0.0429512
0.040358
0.0441271
0.044538
0.0453328
0.0458458
0.0462264
0.0467906
0.0467926
0.0476548
0.177043
0.185813
0.0483047
0.047846
0.0487907
0.0480946
0.211993
0.211694
0.231001
0.218747
0.221827
0.0484305
0.0507845
0.0489227
0.0471443
0.249582
0.23244
0.246995
0.232521
0.245179
0.0482524
0.0482473
0.0515542
0.0488415
0.249222
0.229425
0.242275
0.235326
0.0489693
0.0517451
0.048372
0.051151
0.231505
0.238489
0.235815
0.229439
0.224649
0.0488684
0.0513618
0.0483027
0.0500921
0.049043
0.220054
0.225237
0.211586
0.213489
0.0481589
0.0497423
0.0493871
0.0500833
0.0502208
0.216661
0.21631
0.213103
0.218747
0.0496409
0.0506228
0.0502412
0.0508551
0.213522
0.209245
0.212239
0.213742
0.0495501
0.0495921
0.0501716
0.049512
0.218685
0.212219
0.223189
0.223961
0.220803
0.0513198
0.049304
0.0515666
0.0502412
0.0499381
0.216215
0.20961
0.217784
0.21353
0.222615
0.225285
0.0493374
0.0496913
0.0508863
0.0505301
0.221483
0.213501
0.212041
0.221741
0.0492194
0.0506339
0.0494248
0.0495659
0.214617
0.222047
0.218751
0.219377
0.223827
0.0484
0.050374
0.0487704
0.0511724
0.0506931
0.050758
0.212223
0.203972
0.212575
0.202976
0.218445
0.049315
0.0498914
0.0496446
0.0486012
0.0505324
0.210823
0.220132
0.208271
0.220464
0.206275
0.0491081
0.0484516
0.0484056
0.0503102
0.216269
0.227975
0.2154
0.224924
0.0495962
0.0514929
0.0495318
0.0495346
0.0492811
0.0482892
0.215329
0.207265
0.21918
0.197472
0.0509354
0.0478469
0.0490359
0.211154
0.210688
0.213429
0.214681
0.0508515
0.0501207
0.0514562
0.0475237
0.0523975
0.19854
0.215803
0.196758
0.203402
0.195318
0.201513
0.205919
0.201478
0.212263
0.197218
0.20649
0.195045
0.211
0.197838
0.208881
0.196862
0.209222
0.194786
0.205387
0.190651
0.192464
0.182088
0.180597
0.188564
0.17812
0.186265
0.186038
0.189795
0.18086
0.1802
0.168907
0.165366
0.150782
0.14291
0.122256
0.105347
0.0677855
0.0497301
0.0497301
0.0497301
)
;

boundaryField
{
    inlet
    {
        type            calculated;
        value           uniform 0;
    }
    outlet
    {
        type            calculated;
        value           uniform 0;
    }
    sideWall
    {
        type            empty;
    }
}


// ************************************************************************* //
