/*--------------------------------*- C++ -*----------------------------------*\
| =========                 |                                                 |
| \\      /  F ield         | foam-extend: Open Source CFD                    |
|  \\    /   O peration     | Version:     3.2                                |
|   \\  /    A nd           | Web:         http://www.foam-extend.org         |
|    \\/     M anipulation  | For copyright notice see file Copyright         |
\*---------------------------------------------------------------------------*/
FoamFile
{
    version     2.0;
    format      ascii;
    class       areaScalarField;
    location    "160";
    object      thetaC2SS2;
}
// * * * * * * * * * * * * * * * * * * * * * * * * * * * * * * * * * * * * * //

dimensions      [0 0 0 0 0 0 0];

internalField   nonuniform List<scalar> 
300
(
0.032144
0.032144
0.032144
0.032144
0.032144
0.032144
0.032144
0.032144
0.032144
0.032144
0.032144
0.032144
0.032144
0.032144
0.032144
0.032144
0.032144
0.032144
0.032144
0.032144
0.032144
0.032144
0.032144
0.032144
0.032144
0.032144
0.032144
0.032144
0.032144
0.032144
0.032144
0.032144
0.032144
0.032144
0.032144
0.032144
0.032144
0.032144
0.032144
0.032144
0.032144
0.032144
0.032144
0.032144
0.032144
0.032144
0.032144
0.032144
0.032144
0.032144
0.032144
0.032144
0.032144
0.032144
0.032144
0.032144
0.032144
0.032144
0.032144
0.032144
0.032144
0.032144
0.032144
0.032144
0.032144
0.032144
0.032144
0.032144
0.032144
0.032144
0.032144
0.032144
0.032144
0.032144
0.032144
0.032144
0.032144
0.032144
0.032144
0.032144
0.032144
0.032144
0.032144
0.032144
0.032144
0.032144
0.032144
0.032144
0.032144
0.032144
0.032144
0.032144
0.032144
0.032144
0.032144
0.032144
0.032144
0.032144
0.032144
0.032144
0.032144
0.032144
0.032144
0.032144
0.032144
0.032144
0.032144
0.032144
0.032144
0.121303
0.126177
0.032144
0.032144
0.032144
0.032144
0.140692
0.144326
0.145505
0.145628
0.148639
0.032144
0.032144
0.032144
0.032144
0.155231
0.154725
0.154501
0.15407
0.153767
0.032144
0.032144
0.032144
0.032144
0.153838
0.153051
0.153573
0.15288
0.032144
0.032144
0.032144
0.032144
0.150972
0.150115
0.147144
0.144046
0.141362
0.032144
0.032144
0.032144
0.032144
0.032144
0.14171
0.139444
0.137658
0.137947
0.032144
0.032144
0.032144
0.032144
0.032144
0.139842
0.139754
0.140725
0.141878
0.032144
0.032144
0.032144
0.032144
0.137092
0.137563
0.138945
0.140233
0.032144
0.032144
0.032144
0.032144
0.140979
0.142645
0.144518
0.144523
0.145267
0.032144
0.032144
0.032144
0.032144
0.032144
0.138616
0.139611
0.141103
0.142767
0.144525
0.144302
0.032144
0.032144
0.032144
0.032144
0.139857
0.139119
0.140711
0.141224
0.032144
0.032144
0.032144
0.032144
0.141613
0.142095
0.141735
0.141872
0.140486
0.032144
0.032144
0.032144
0.032144
0.032144
0.032144
0.13481
0.135117
0.135638
0.137
0.137815
0.032144
0.032144
0.032144
0.032144
0.032144
0.138728
0.138137
0.137792
0.136945
0.13591
0.032144
0.032144
0.032144
0.032144
0.142733
0.141863
0.140428
0.138446
0.032144
0.032144
0.032144
0.032144
0.032144
0.032144
0.136236
0.13587
0.133675
0.132554
0.032144
0.032144
0.032144
0.137018
0.137729
0.13841
0.138463
0.032144
0.032144
0.032144
0.032144
0.032144
0.132807
0.131476
0.129361
0.129393
0.129976
0.131904
0.132156
0.132688
0.131497
0.130534
0.130587
0.131455
0.131668
0.131133
0.13075
0.130304
0.129172
0.127546
0.125325
0.12204
0.11973
0.118001
0.119024
0.118629
0.118759
0.120051
0.119699
0.11731
0.113884
0.109673
0.104674
0.098605
0.0914278
0.0824502
0.0717057
0.0559686
0.038646
0.032144
0.032144
0.032144
)
;

boundaryField
{
    inlet
    {
        type            calculated;
        value           uniform 0;
    }
    outlet
    {
        type            calculated;
        value           uniform 0;
    }
    sideWall
    {
        type            empty;
    }
}


// ************************************************************************* //
