/*--------------------------------*- C++ -*----------------------------------*\
| =========                 |                                                 |
| \\      /  F ield         | foam-extend: Open Source CFD                    |
|  \\    /   O peration     | Version:     3.2                                |
|   \\  /    A nd           | Web:         http://www.foam-extend.org         |
|    \\/     M anipulation  | For copyright notice see file Copyright         |
\*---------------------------------------------------------------------------*/
FoamFile
{
    version     2.0;
    format      ascii;
    class       areaScalarField;
    location    "160";
    object      thetaC2SS1;
}
// * * * * * * * * * * * * * * * * * * * * * * * * * * * * * * * * * * * * * //

dimensions      [0 0 0 0 0 0 0];

internalField   nonuniform List<scalar> 
300
(
0.0551061
0.0551061
0.0551061
0.0551061
0.0551061
0.0551061
0.0551061
0.0551061
0.0551061
0.0551061
0.0551061
0.0551061
0.0551061
0.0551061
0.0551061
0.0551061
0.0551061
0.0551061
0.0551061
0.0551061
0.0551061
0.0551061
0.0551061
0.0551061
0.0551061
0.0551061
0.0551061
0.0551061
0.0551061
0.0551061
0.0551061
0.0551061
0.0551061
0.0551061
0.0551061
0.0551061
0.0551061
0.0551061
0.0551061
0.0551061
0.0551061
0.0551061
0.0551061
0.0551061
0.0551061
0.0551061
0.0551061
0.0551061
0.0551061
0.0551061
0.0551061
0.0551061
0.0551061
0.0551061
0.0551061
0.0551061
0.0551061
0.0551061
0.0551061
0.0551061
0.0551061
0.0551061
0.0551061
0.0551061
0.0551061
0.0551061
0.0551061
0.0551061
0.0551061
0.0551061
0.0551061
0.0551061
0.0551061
0.0551061
0.0551061
0.0551061
0.0551061
0.0551061
0.0551061
0.0551061
0.0551061
0.0551061
0.0551061
0.0551061
0.0551061
0.0551061
0.0551061
0.0551061
0.0551061
0.0551061
0.0551061
0.0551061
0.0551061
0.0551061
0.0551061
0.0551061
0.0551061
0.0551061
0.0551061
0.0551061
0.0551061
0.0551061
0.0551061
0.0551061
0.0551061
0.0551061
0.0551061
0.0551061
0.0551061
0.207957
0.216312
0.0551061
0.0551061
0.0551061
0.0551061
0.241195
0.247426
0.249447
0.249658
0.25482
0.0551061
0.0551061
0.0551061
0.0551061
0.266121
0.265253
0.26487
0.26413
0.26361
0.0551061
0.0551061
0.0551061
0.0551061
0.263733
0.262383
0.263278
0.26209
0.0551061
0.0551061
0.0551061
0.0551061
0.258819
0.257351
0.252257
0.246945
0.242344
0.0551061
0.0551061
0.0551061
0.0551061
0.0551061
0.24294
0.239056
0.235994
0.236491
0.0551061
0.0551061
0.0551061
0.0551061
0.0551061
0.239739
0.239588
0.241253
0.24323
0.0551061
0.0551061
0.0551061
0.0551061
0.235023
0.235831
0.2382
0.240408
0.0551061
0.0551061
0.0551061
0.0551061
0.241688
0.244543
0.247754
0.247764
0.249039
0.0551061
0.0551061
0.0551061
0.0551061
0.0551061
0.237637
0.239342
0.241899
0.244752
0.247767
0.247385
0.0551061
0.0551061
0.0551061
0.0551061
0.239765
0.238499
0.241229
0.242108
0.0551061
0.0551061
0.0551061
0.0551061
0.242775
0.243601
0.242983
0.243219
0.240842
0.0551061
0.0551061
0.0551061
0.0551061
0.0551061
0.0551061
0.231112
0.231638
0.232532
0.234866
0.236264
0.0551061
0.0551061
0.0551061
0.0551061
0.0551061
0.237829
0.236815
0.236225
0.234772
0.232997
0.0551061
0.0551061
0.0551061
0.0551061
0.244695
0.243203
0.240742
0.237345
0.0551061
0.0551061
0.0551061
0.0551061
0.0551061
0.0551061
0.233556
0.232929
0.229166
0.227244
0.0551061
0.0551061
0.0551061
0.234898
0.236115
0.237284
0.237375
0.0551061
0.0551061
0.0551061
0.0551061
0.0551061
0.227678
0.225396
0.22177
0.221826
0.222825
0.226131
0.226562
0.227473
0.225431
0.22378
0.223873
0.225361
0.225726
0.224807
0.224151
0.223386
0.221446
0.218659
0.214851
0.20922
0.205259
0.202295
0.204049
0.203371
0.203594
0.205809
0.205207
0.201111
0.195237
0.188018
0.179448
0.169044
0.156739
0.141349
0.122929
0.0959498
0.0662528
0.0551061
0.0551061
0.0551061
)
;

boundaryField
{
    inlet
    {
        type            calculated;
        value           uniform 0;
    }
    outlet
    {
        type            calculated;
        value           uniform 0;
    }
    sideWall
    {
        type            empty;
    }
}


// ************************************************************************* //
