/*--------------------------------*- C++ -*----------------------------------*\
| =========                 |                                                 |
| \\      /  F ield         | foam-extend: Open Source CFD                    |
|  \\    /   O peration     | Version:     3.2                                |
|   \\  /    A nd           | Web:         http://www.foam-extend.org         |
|    \\/     M anipulation  | For copyright notice see file Copyright         |
\*---------------------------------------------------------------------------*/
FoamFile
{
    version     2.0;
    format      ascii;
    class       areaScalarField;
    location    "160";
    object      thetaSS1;
}
// * * * * * * * * * * * * * * * * * * * * * * * * * * * * * * * * * * * * * //

dimensions      [0 0 0 0 0 0 0];

internalField   nonuniform List<scalar> 
300
(
27.0486
21.5408
14.9436
12.2709
11.2634
10.735
10.3524
10.0176
9.70932
9.42963
9.17996
8.95679
8.75486
8.57473
8.4126
8.26525
8.13045
8.00605
7.8921
7.78823
7.69173
7.60112
7.51598
7.4361
7.36113
7.29021
7.22314
7.15943
7.099
7.04181
6.98714
6.93513
6.88515
6.83754
6.79182
6.74824
6.70609
6.66579
6.62676
6.58932
6.5532
6.51839
6.48469
6.45217
6.42056
6.39017
6.36055
6.3321
6.30416
6.27738
6.25099
6.22572
6.20085
6.177
6.15344
6.13085
6.10847
6.08709
6.06551
6.04519
6.02462
6.0054
5.98584
5.96766
5.94903
5.93192
5.91419
5.89808
5.88122
5.86611
5.85017
5.83614
5.82115
5.80827
5.79431
5.7827
5.76999
5.7598
5.74864
5.74016
5.73093
5.72457
5.71793
5.71426
5.71142
5.71099
5.71262
5.71775
5.7257
5.7386
5.75735
5.78138
5.81776
5.85868
5.93053
6.00596
6.17197
6.24356
7.14936
6.6016
3.5649
3.45927
3.65681
3.66577
3.78589
3.77085
3.90975
3.85281
4.00833
4.00823
3.80628
4.08631
3.94704
4.1445
4.09432
4.33981
3.67648
4.14561
4.47416
4.05065
3.86631
4.12274
4.75242
3.45807
4.17271
4.17089
4.30803
4.36709
4.26084
4.57773
3.51898
4.41092
4.07899
4.50719
4.53693
4.10569
4.53098
3.7433
4.62394
4.32352
4.17435
4.35863
4.13979
4.65195
4.59577
5.14063
4.4889
4.7264
4.58462
4.29864
4.49529
3.92399
4.8104
4.87462
4.7536
4.39204
4.18885
4.34088
4.35059
4.55588
4.49652
4.69477
4.36705
4.19554
4.22463
4.47006
4.53558
4.66995
4.94143
4.52772
4.36419
4.2818
4.32061
4.29478
4.51661
4.44763
4.69616
4.2617
3.95486
4.4465
3.93268
4.43082
4.36664
4.36402
4.86828
4.49229
4.77671
4.35506
4.38329
4.20758
3.88234
4.37113
4.33223
4.07745
4.36197
4.51702
4.65845
4.90719
4.06152
4.26197
4.30607
4.44983
4.53681
4.42985
4.26443
4.17908
4.38378
3.98003
4.77432
4.39131
4.23837
4.21914
4.16719
4.59081
4.43512
4.9926
4.37011
4.62393
4.17057
4.11418
4.47973
4.23961
4.64375
3.91834
4.35721
4.04601
4.55113
4.28043
4.35643
4.67631
4.23291
4.26885
3.69101
4.25329
3.819
4.30428
4.15923
4.39098
4.55955
4.45901
4.70616
4.2913
4.58763
3.7416
4.33076
3.81791
4.74598
4.55042
4.27446
4.4209
3.86666
4.18708
4.02158
4.08289
3.89569
4.4252
3.98785
5.02631
3.83858
4.34227
4.13888
4.21434
4.60367
4.26028
4.36595
3.6907
4.39389
3.66733
4.48181
4.20295
4.4368
3.90662
4.09041
4.01139
4.16601
3.91834
4.1248
4.06994
4.16788
4.50595
4.3541
4.73915
3.70086
4.33075
4.03491
3.71917
3.67952
4.01203
3.98558
4.23164
4.12488
4.45769
4.25752
4.85896
4.4356
5.9552
8.20346
6.40491
4.86097
4.44189
)
;

boundaryField
{
    inlet
    {
        type            calculated;
        value           uniform 0;
    }
    outlet
    {
        type            calculated;
        value           uniform 0;
    }
    sideWall
    {
        type            empty;
    }
}


// ************************************************************************* //
