/*--------------------------------*- C++ -*----------------------------------*\
| =========                 |                                                 |
| \\      /  F ield         | foam-extend: Open Source CFD                    |
|  \\    /   O peration     | Version:     3.2                                |
|   \\  /    A nd           | Web:         http://www.foam-extend.org         |
|    \\/     M anipulation  | For copyright notice see file Copyright         |
\*---------------------------------------------------------------------------*/
FoamFile
{
    version     2.0;
    format      ascii;
    class       areaScalarField;
    location    "160";
    object      thetaSS2;
}
// * * * * * * * * * * * * * * * * * * * * * * * * * * * * * * * * * * * * * //

dimensions      [0 0 0 0 0 0 0];

internalField   nonuniform List<scalar> 
300
(
13.5109
10.7597
7.46437
6.12937
5.6261
5.36217
5.17105
5.0038
4.84983
4.71012
4.58541
4.47394
4.37308
4.2831
4.20211
4.12851
4.06118
3.99904
3.94213
3.89024
3.84204
3.79678
3.75425
3.71435
3.6769
3.64148
3.60798
3.57615
3.54597
3.5174
3.49009
3.46411
3.43915
3.41537
3.39253
3.37076
3.34971
3.32958
3.31008
3.29138
3.27334
3.25595
3.23912
3.22288
3.20709
3.19191
3.17711
3.1629
3.14894
3.13557
3.12239
3.10977
3.09734
3.08543
3.07366
3.06237
3.0512
3.04052
3.02974
3.01959
3.00932
2.99971
2.98994
2.98086
2.97156
2.96301
2.95415
2.9461
2.93768
2.93014
2.92217
2.91517
2.90768
2.90125
2.89427
2.88847
2.88213
2.87703
2.87146
2.86723
2.86261
2.85944
2.85612
2.85429
2.85287
2.85265
2.85347
2.85603
2.86
2.86645
2.87581
2.88781
2.90598
2.92643
2.96232
2.99999
3.08292
3.11868
3.57112
3.29751
1.78068
1.72791
1.82658
1.83106
1.89106
1.88355
1.95293
1.92449
2.00217
2.00212
1.90125
2.04112
1.97156
2.07019
2.04512
2.16775
1.83641
2.07074
2.23485
2.02331
1.93123
2.05932
2.37384
1.72731
2.08428
2.08337
2.15187
2.18137
2.1283
2.28659
1.75774
2.20327
2.03747
2.25135
2.26621
2.0508
2.26323
1.86979
2.30967
2.15961
2.0851
2.17715
2.06783
2.32366
2.2956
2.56776
2.24222
2.36085
2.29003
2.14718
2.24541
1.96004
2.40281
2.43489
2.37444
2.19383
2.09234
2.16828
2.17313
2.27567
2.24602
2.34505
2.18135
2.09568
2.11021
2.23281
2.26553
2.33265
2.46826
2.26161
2.17992
2.13877
2.15815
2.14525
2.25606
2.2216
2.34574
2.12873
1.97546
2.22104
1.96438
2.21321
2.18115
2.17984
2.43172
2.24391
2.38598
2.17536
2.18946
2.1017
1.93924
2.18339
2.16396
2.0367
2.17882
2.25626
2.32691
2.45115
2.02874
2.12887
2.15089
2.2227
2.26615
2.21272
2.13009
2.08746
2.18971
1.98804
2.38479
2.19347
2.11708
2.10747
2.08152
2.29312
2.21535
2.49382
2.18288
2.30966
2.08321
2.05504
2.23764
2.1177
2.31956
1.95722
2.17644
2.02099
2.2733
2.13809
2.17605
2.33583
2.11435
2.1323
1.84367
2.12453
1.9076
2.15
2.07755
2.1933
2.27751
2.22729
2.35074
2.14351
2.29153
1.86894
2.16322
1.90706
2.37063
2.27295
2.1351
2.20825
1.93141
2.09146
2.00879
2.03942
1.94591
2.2104
1.99194
2.51066
1.91738
2.16897
2.06738
2.10507
2.29954
2.12802
2.1808
1.84351
2.19476
1.83184
2.23867
2.09938
2.21619
1.95136
2.04317
2.0037
2.08093
1.95722
2.06035
2.03294
2.08187
2.25073
2.17488
2.36722
1.84859
2.16322
2.01545
1.85773
1.83793
2.00402
1.99081
2.11371
2.06039
2.22663
2.12664
2.42706
2.21559
2.97464
4.09765
3.19927
2.42807
2.21873
)
;

boundaryField
{
    inlet
    {
        type            calculated;
        value           uniform 0;
    }
    outlet
    {
        type            calculated;
        value           uniform 0;
    }
    sideWall
    {
        type            empty;
    }
}


// ************************************************************************* //
