/*--------------------------------*- C++ -*----------------------------------*\
| =========                 |                                                 |
| \\      /  F ield         | foam-extend: Open Source CFD                    |
|  \\    /   O peration     | Version:     3.2                                |
|   \\  /    A nd           | Web:         http://www.foam-extend.org         |
|    \\/     M anipulation  | For copyright notice see file Copyright         |
\*---------------------------------------------------------------------------*/
FoamFile
{
    version     2.0;
    format      ascii;
    class       areaScalarField;
    location    "160";
    object      thetaCSS2;
}
// * * * * * * * * * * * * * * * * * * * * * * * * * * * * * * * * * * * * * //

dimensions      [0 0 0 0 0 0 0];

internalField   nonuniform List<scalar> 
300
(
0.032144
0.032144
0.032144
0.032144
0.032144
0.032144
0.032144
0.032144
0.032144
0.032144
0.032144
0.032144
0.032144
0.032144
0.032144
0.032144
0.032144
0.032144
0.032144
0.032144
0.032144
0.032144
0.032144
0.032144
0.032144
0.032144
0.032144
0.032144
0.032144
0.032144
0.032144
0.032144
0.032144
0.032144
0.032144
0.032144
0.032144
0.032144
0.032144
0.032144
0.032144
0.032144
0.032144
0.032144
0.032144
0.032144
0.032144
0.032144
0.032144
0.032144
0.032144
0.032144
0.032144
0.032144
0.032144
0.032144
0.032144
0.032144
0.032144
0.032144
0.032144
0.032144
0.032144
0.032144
0.032144
0.032144
0.032144
0.032144
0.032144
0.032144
0.032144
0.032144
0.032144
0.032144
0.032144
0.032144
0.032144
0.032144
0.032144
0.032144
0.032144
0.032144
0.032144
0.032144
0.032144
0.032144
0.032144
0.032144
0.032144
0.032144
0.032144
0.032144
0.032144
0.032144
0.032144
0.032144
0.032144
0.032144
0.032144
0.0277623
0.0260861
0.0285223
0.0287879
0.0293017
0.0296333
0.0298792
0.0302439
0.0302452
0.0308025
0.114435
0.120104
0.0312226
0.0309261
0.0315368
0.0310868
0.137026
0.136833
0.149311
0.141391
0.143382
0.0313039
0.0328255
0.0316221
0.0304726
0.161322
0.150242
0.15965
0.150294
0.158476
0.0311888
0.0311855
0.033323
0.0315696
0.161089
0.148293
0.156599
0.152107
0.0316522
0.0334464
0.0312661
0.0330624
0.149637
0.154152
0.152423
0.148302
0.145206
0.031587
0.0331987
0.0312213
0.032378
0.0316998
0.142236
0.145586
0.136763
0.137993
0.0311284
0.0321518
0.0319223
0.0323723
0.0324612
0.140043
0.139816
0.137743
0.141391
0.0320863
0.032721
0.0324743
0.0328711
0.138014
0.135249
0.137184
0.138156
0.0320276
0.0320548
0.0324293
0.032003
0.141351
0.137172
0.144262
0.144761
0.14272
0.0331715
0.0318686
0.033331
0.0324743
0.0322784
0.139754
0.135485
0.140769
0.138019
0.143892
0.145617
0.0318901
0.0321188
0.0328913
0.0326611
0.14316
0.138
0.137056
0.143326
0.0318138
0.0327282
0.0319466
0.0320378
0.138721
0.143524
0.141393
0.141798
0.144675
0.0312842
0.0325601
0.0315236
0.0330762
0.0327664
0.0328083
0.137174
0.131841
0.137401
0.131197
0.141196
0.0318757
0.0322482
0.0320887
0.0314143
0.0326625
0.13627
0.142286
0.13462
0.142501
0.133329
0.0317419
0.0313175
0.0312878
0.0325189
0.139789
0.147356
0.139228
0.145384
0.0320574
0.0332834
0.0320158
0.0320176
0.0318537
0.0312126
0.139182
0.13397
0.141671
0.12764
0.032923
0.0309267
0.0316953
0.136483
0.136182
0.137954
0.138763
0.0328688
0.0323964
0.0332597
0.0307178
0.0338681
0.12833
0.139488
0.127178
0.131472
0.126248
0.130252
0.133099
0.130229
0.1372
0.127476
0.133468
0.126071
0.136384
0.127876
0.135014
0.127245
0.135234
0.125904
0.132755
0.123231
0.124403
0.117696
0.116732
0.121882
0.115131
0.120396
0.120249
0.122678
0.116902
0.116475
0.109176
0.106887
0.0974609
0.0923723
0.0790226
0.0680932
0.0438144
0.032144
0.032144
0.032144
)
;

boundaryField
{
    inlet
    {
        type            calculated;
        value           uniform 0;
    }
    outlet
    {
        type            calculated;
        value           uniform 0;
    }
    sideWall
    {
        type            empty;
    }
}


// ************************************************************************* //
