/*--------------------------------*- C++ -*----------------------------------*\
| =========                 |                                                 |
| \\      /  F ield         | foam-extend: Open Source CFD                    |
|  \\    /   O peration     | Version:     3.2                                |
|   \\  /    A nd           | Web:         http://www.foam-extend.org         |
|    \\/     M anipulation  | For copyright notice see file Copyright         |
\*---------------------------------------------------------------------------*/
FoamFile
{
    version     2.0;
    format      ascii;
    class       areaScalarField;
    location    "160";
    object      thetaC2B;
}
// * * * * * * * * * * * * * * * * * * * * * * * * * * * * * * * * * * * * * //

dimensions      [0 0 0 0 0 0 0];

internalField   nonuniform List<scalar> 
300
(
0.0497301
0.0497301
0.0497301
0.0497301
0.0497301
0.0497301
0.0497301
0.0497301
0.0497301
0.0497301
0.0497301
0.0497301
0.0497301
0.0497301
0.0497301
0.0497301
0.0497301
0.0497301
0.0497301
0.0497301
0.0497301
0.0497301
0.0497301
0.0497301
0.0497301
0.0497301
0.0497301
0.0497301
0.0497301
0.0497301
0.0497301
0.0497301
0.0497301
0.0497301
0.0497301
0.0497301
0.0497301
0.0497301
0.0497301
0.0497301
0.0497301
0.0497301
0.0497301
0.0497301
0.0497301
0.0497301
0.0497301
0.0497301
0.0497301
0.0497301
0.0497301
0.0497301
0.0497301
0.0497301
0.0497301
0.0497301
0.0497301
0.0497301
0.0497301
0.0497301
0.0497301
0.0497301
0.0497301
0.0497301
0.0497301
0.0497301
0.0497301
0.0497301
0.0497301
0.0497301
0.0497301
0.0497301
0.0497301
0.0497301
0.0497301
0.0497301
0.0497301
0.0497301
0.0497301
0.0497301
0.0497301
0.0497301
0.0497301
0.0497301
0.0497301
0.0497301
0.0497301
0.0497301
0.0497301
0.0497301
0.0497301
0.0497301
0.0497301
0.0497301
0.0497301
0.0497301
0.0497301
0.0497301
0.0497301
0.0497301
0.0497301
0.0497301
0.0497301
0.0497301
0.0497301
0.0497301
0.0497301
0.0497301
0.0497301
0.187669
0.195209
0.0497301
0.0497301
0.0497301
0.0497301
0.217665
0.223288
0.225112
0.225303
0.229961
0.0497301
0.0497301
0.0497301
0.0497301
0.24016
0.239376
0.23903
0.238362
0.237893
0.0497301
0.0497301
0.0497301
0.0497301
0.238004
0.236786
0.237593
0.236521
0.0497301
0.0497301
0.0497301
0.0497301
0.23357
0.232245
0.227647
0.222854
0.218702
0.0497301
0.0497301
0.0497301
0.0497301
0.0497301
0.21924
0.215734
0.212971
0.213419
0.0497301
0.0497301
0.0497301
0.0497301
0.0497301
0.216351
0.216215
0.217717
0.219501
0.0497301
0.0497301
0.0497301
0.0497301
0.212095
0.212824
0.214962
0.216955
0.0497301
0.0497301
0.0497301
0.0497301
0.218109
0.220686
0.223584
0.223593
0.224744
0.0497301
0.0497301
0.0497301
0.0497301
0.0497301
0.214454
0.215992
0.218301
0.220875
0.223596
0.223251
0.0497301
0.0497301
0.0497301
0.0497301
0.216374
0.215232
0.217696
0.218489
0.0497301
0.0497301
0.0497301
0.0497301
0.21909
0.219836
0.219278
0.219491
0.217346
0.0497301
0.0497301
0.0497301
0.0497301
0.0497301
0.0497301
0.208566
0.20904
0.209847
0.211954
0.213215
0.0497301
0.0497301
0.0497301
0.0497301
0.0497301
0.214627
0.213712
0.21318
0.211869
0.210267
0.0497301
0.0497301
0.0497301
0.0497301
0.220824
0.219477
0.217256
0.214191
0.0497301
0.0497301
0.0497301
0.0497301
0.0497301
0.0497301
0.210771
0.210205
0.206809
0.205075
0.0497301
0.0497301
0.0497301
0.211982
0.213081
0.214135
0.214217
0.0497301
0.0497301
0.0497301
0.0497301
0.0497301
0.205466
0.203407
0.200135
0.200185
0.201087
0.20407
0.204459
0.205282
0.203439
0.201949
0.202033
0.203375
0.203705
0.202876
0.202284
0.201594
0.199843
0.197328
0.193891
0.188809
0.185235
0.18256
0.184143
0.183531
0.183732
0.185731
0.185188
0.181491
0.17619
0.169676
0.161942
0.152552
0.141449
0.127559
0.110936
0.0865893
0.0597894
0.0497301
0.0497301
0.0497301
)
;

boundaryField
{
    inlet
    {
        type            calculated;
        value           uniform 0;
    }
    outlet
    {
        type            calculated;
        value           uniform 0;
    }
    sideWall
    {
        type            empty;
    }
}


// ************************************************************************* //
