/*--------------------------------*- C++ -*----------------------------------*\
| =========                 |                                                 |
| \\      /  F ield         | foam-extend: Open Source CFD                    |
|  \\    /   O peration     | Version:     3.2                                |
|   \\  /    A nd           | Web:         http://www.foam-extend.org         |
|    \\/     M anipulation  | For copyright notice see file Copyright         |
\*---------------------------------------------------------------------------*/
FoamFile
{
    version     2.0;
    format      ascii;
    class       areaScalarField;
    location    "160";
    object      thetaBinit;
}
// * * * * * * * * * * * * * * * * * * * * * * * * * * * * * * * * * * * * * //

dimensions      [0 0 0 0 0 0 0];

internalField   nonuniform List<scalar> 
300
(
0.990735
0.788995
0.547354
0.44946
0.412556
0.393203
0.379188
0.366923
0.355633
0.345388
0.336243
0.328069
0.320673
0.314075
0.308136
0.302739
0.297802
0.293245
0.289072
0.285266
0.281733
0.278413
0.275295
0.272368
0.269623
0.267024
0.264569
0.262234
0.260022
0.257926
0.255925
0.254018
0.252189
0.250443
0.248771
0.247172
0.245631
0.244152
0.242725
0.241351
0.240031
0.238752
0.237521
0.236326
0.235172
0.234054
0.232973
0.231925
0.230906
0.22992
0.228958
0.228025
0.227119
0.226237
0.225379
0.224541
0.223726
0.222928
0.222146
0.221384
0.220638
0.219912
0.219203
0.21851
0.217833
0.217173
0.216528
0.215896
0.215278
0.214673
0.214082
0.213504
0.212938
0.212384
0.211841
0.211312
0.210792
0.210284
0.209789
0.209303
0.208831
0.208368
0.207918
0.20748
0.207057
0.206645
0.206253
0.205872
0.205516
0.205178
0.204869
0.204597
0.204361
0.204202
0.204101
0.204125
0.204539
0.204598
0.20914
0.204161
0.187939
0.189025
0.195492
0.196003
0.196298
0.196141
0.195995
0.195704
0.195366
0.195137
0.194905
0.194523
0.194165
0.193846
0.193519
0.193204
0.192889
0.192579
0.19227
0.191963
0.191662
0.191362
0.191064
0.19077
0.190479
0.190189
0.189901
0.189616
0.189334
0.189055
0.188777
0.188503
0.18823
0.187959
0.18769
0.187423
0.187156
0.186894
0.186634
0.186375
0.186121
0.185869
0.185619
0.185373
0.18513
0.184891
0.184656
0.184423
0.184194
0.183966
0.183739
0.183513
0.183288
0.183064
0.182842
0.182621
0.182402
0.182185
0.18197
0.181756
0.181544
0.181333
0.181124
0.180916
0.18071
0.180505
0.180302
0.180101
0.179901
0.179703
0.179506
0.179312
0.179118
0.178925
0.178734
0.178543
0.178355
0.178167
0.177981
0.177796
0.177613
0.17743
0.177249
0.17707
0.176891
0.176713
0.176537
0.176363
0.176189
0.176017
0.175846
0.175675
0.175506
0.175338
0.175171
0.175005
0.174841
0.174677
0.174514
0.174353
0.174192
0.174032
0.173872
0.173714
0.173557
0.173401
0.173246
0.173091
0.172937
0.172785
0.172632
0.172481
0.172332
0.172183
0.172035
0.171889
0.171743
0.171598
0.171454
0.17131
0.171166
0.171023
0.170879
0.170738
0.170597
0.170456
0.170317
0.170179
0.170041
0.169905
0.169768
0.169632
0.169496
0.169361
0.169226
0.169093
0.168961
0.168829
0.168697
0.168567
0.168436
0.168307
0.168177
0.168048
0.167919
0.167792
0.167664
0.167538
0.167413
0.167288
0.167163
0.16704
0.166916
0.166794
0.166671
0.16655
0.166429
0.166308
0.166187
0.166067
0.165948
0.165828
0.165711
0.165592
0.165475
0.165358
0.165244
0.165129
0.165016
0.164902
0.164793
0.164679
0.16457
0.164455
0.164344
0.164226
0.164113
0.163991
0.163874
0.163746
0.163623
0.163487
0.163352
0.163205
0.163059
0.162886
0.162609
0.162444
0.162199
0.161966
0.161606
0.161245
0.160665
0.160211
0.158134
0.160464
0.167301
0.167267
0.164748
0.164575
)
;

boundaryField
{
    inlet
    {
        type            calculated;
        value           uniform 0;
    }
    outlet
    {
        type            calculated;
        value           uniform 0;
    }
    sideWall
    {
        type            empty;
    }
}


// ************************************************************************* //
