/*--------------------------------*- C++ -*----------------------------------*\
| =========                 |                                                 |
| \\      /  F ield         | foam-extend: Open Source CFD                    |
|  \\    /   O peration     | Version:     3.2                                |
|   \\  /    A nd           | Web:         http://www.foam-extend.org         |
|    \\/     M anipulation  | For copyright notice see file Copyright         |
\*---------------------------------------------------------------------------*/
FoamFile
{
    version     2.0;
    format      ascii;
    class       areaScalarField;
    location    "160";
    object      thetaSS2init;
}
// * * * * * * * * * * * * * * * * * * * * * * * * * * * * * * * * * * * * * //

dimensions      [0 0 0 0 0 0 0];

internalField   nonuniform List<scalar> 
300
(
13.5108
10.7597
7.46437
6.12937
5.62611
5.36218
5.17106
5.0038
4.84983
4.71012
4.58541
4.47393
4.37307
4.28309
4.20211
4.12851
4.06118
3.99903
3.94213
3.89023
3.84205
3.79677
3.75425
3.71434
3.6769
3.64146
3.60798
3.57613
3.54598
3.51738
3.4901
3.46409
3.43915
3.41534
3.39254
3.37073
3.34972
3.32954
3.31009
3.29134
3.27334
3.25591
3.23912
3.22282
3.20708
3.19183
3.1771
3.16281
3.14892
3.13546
3.12234
3.10962
3.09726
3.08523
3.07353
3.06211
3.051
3.04011
3.02945
3.01905
3.00889
2.99898
2.98931
2.97986
2.97063
2.96163
2.95283
2.94421
2.93579
2.92754
2.91948
2.91159
2.90388
2.89632
2.88892
2.88169
2.87461
2.86769
2.86093
2.8543
2.84786
2.84155
2.83542
2.82945
2.82367
2.81806
2.81271
2.80751
2.80266
2.79805
2.79384
2.79013
2.78691
2.78474
2.78337
2.78369
2.78934
2.79014
2.85208
2.78418
2.56296
2.57777
2.66596
2.67294
2.67695
2.67481
2.67282
2.66885
2.66424
2.66112
2.65796
2.65274
2.64787
2.64351
2.63905
2.63476
2.63046
2.62623
2.62202
2.61784
2.61373
2.60964
2.60558
2.60156
2.59759
2.59364
2.58972
2.58583
2.58199
2.57818
2.57439
2.57065
2.56693
2.56324
2.55956
2.55592
2.55229
2.5487
2.54516
2.54164
2.53816
2.53473
2.53133
2.52796
2.52466
2.5214
2.51819
2.51502
2.51188
2.50878
2.50569
2.5026
2.49954
2.49648
2.49345
2.49044
2.48746
2.48449
2.48155
2.47865
2.47574
2.47287
2.47002
2.46719
2.46437
2.46159
2.45882
2.45607
2.45335
2.45065
2.44796
2.44531
2.44266
2.44003
2.43743
2.43483
2.43226
2.4297
2.42716
2.42464
2.42214
2.41964
2.41718
2.41473
2.41229
2.40987
2.40747
2.4051
2.40273
2.40037
2.39804
2.39572
2.39341
2.39111
2.38884
2.38658
2.38434
2.38211
2.37989
2.37768
2.37549
2.37331
2.37113
2.36897
2.36683
2.3647
2.36258
2.36047
2.35838
2.3563
2.35422
2.35216
2.35012
2.34809
2.34608
2.34408
2.34209
2.34011
2.33815
2.33618
2.33422
2.33227
2.33032
2.32839
2.32646
2.32454
2.32264
2.32076
2.31888
2.31702
2.31516
2.31331
2.31145
2.30961
2.30777
2.30596
2.30415
2.30235
2.30056
2.29878
2.29699
2.29523
2.29346
2.2917
2.28995
2.28821
2.28647
2.28475
2.28304
2.28134
2.27963
2.27795
2.27626
2.2746
2.27292
2.27127
2.26962
2.26797
2.26632
2.26469
2.26306
2.26143
2.25983
2.25821
2.25662
2.25502
2.25346
2.25189
2.25036
2.24881
2.24731
2.24576
2.24428
2.2427
2.2412
2.23958
2.23804
2.23638
2.23479
2.23304
2.23136
2.22951
2.22766
2.22566
2.22367
2.22131
2.21752
2.21528
2.21194
2.20876
2.20385
2.19893
2.19102
2.18483
2.1565
2.18828
2.28151
2.28105
2.2467
2.24434
)
;

boundaryField
{
    inlet
    {
        type            calculated;
        value           uniform 0;
    }
    outlet
    {
        type            calculated;
        value           uniform 0;
    }
    sideWall
    {
        type            empty;
    }
}


// ************************************************************************* //
