/*--------------------------------*- C++ -*----------------------------------*\
| =========                 |                                                 |
| \\      /  F ield         | foam-extend: Open Source CFD                    |
|  \\    /   O peration     | Version:     3.2                                |
|   \\  /    A nd           | Web:         http://www.foam-extend.org         |
|    \\/     M anipulation  | For copyright notice see file Copyright         |
\*---------------------------------------------------------------------------*/
FoamFile
{
    version     2.0;
    format      ascii;
    class       areaScalarField;
    location    "160";
    object      totH1;
}
// * * * * * * * * * * * * * * * * * * * * * * * * * * * * * * * * * * * * * //

dimensions      [0 0 0 0 0 0 0];

internalField   nonuniform List<scalar> 
300
(
0
0
0
0
0
0
0
0
0
0
0
0
0
0
0
0
0
0
0
0
0
0
0
0
0
0
0
0
0
0
0
0
0
0
0
0
0
0
0
0
0
0
0
0
0
0
0
0
0
0
0
0
0
0
0
0
0
0
0
0
0
0
0
0
0
0
0
0
0
0
0
0
0
0
0
0
0
0
0
0
0
0
0
0
0
0
0
0
0
0
0
0
0
0
0
0
0
0
0
-0.00216365
-0.00729839
-0.0120639
-0.015523
-0.0186012
-0.0212654
-0.0236457
-0.025725
-0.0276235
-0.0292412
-0.0308159
-0.0324953
-0.0337424
-0.034843
-0.0357685
-0.036588
-0.0375189
-0.0387463
-0.0391417
-0.0392085
-0.0402684
-0.0412687
-0.0413667
-0.0412927
-0.0423745
-0.0425438
-0.0423388
-0.042252
-0.0421225
-0.0420335
-0.0420332
-0.0430199
-0.0428984
-0.0425675
-0.042063
-0.041761
-0.0419311
-0.0417277
-0.0420983
-0.041685
-0.0414428
-0.0414074
-0.0410692
-0.0407399
-0.0397008
-0.0386511
-0.0377441
-0.0376021
-0.0373788
-0.0373112
-0.0376288
-0.0377185
-0.0378644
-0.0370409
-0.0364173
-0.0365556
-0.0370939
-0.037624
-0.0377347
-0.0377091
-0.0374207
-0.0372224
-0.0371607
-0.037491
-0.0379113
-0.0380176
-0.0377858
-0.037338
-0.0367786
-0.0362717
-0.0364032
-0.0368733
-0.0373417
-0.0376657
-0.0377996
-0.0377092
-0.0376143
-0.0376187
-0.038165
-0.0387996
-0.0388224
-0.039093
-0.0388648
-0.0385134
-0.0380581
-0.037263
-0.0370145
-0.0367994
-0.037111
-0.0376222
-0.038224
-0.0388374
-0.0387662
-0.0387807
-0.0389344
-0.0385452
-0.0378896
-0.0372293
-0.0369456
-0.0374866
-0.0376812
-0.0376294
-0.0375334
-0.0373477
-0.0374782
-0.037835
-0.0379726
-0.0378384
-0.0379012
-0.0374369
-0.037404
-0.0376549
-0.0377602
-0.0375765
-0.0367739
-0.0361206
-0.0354814
-0.0355546
-0.035733
-0.0362313
-0.0365194
-0.0362622
-0.0363774
-0.0363624
-0.0367362
-0.0368277
-0.0368382
-0.0366031
-0.0364743
-0.0362013
-0.0358594
-0.0363869
-0.0370334
-0.0378851
-0.0381042
-0.0382238
-0.0378934
-0.0373854
-0.0367181
-0.035967
-0.0354668
-0.03496
-0.0350639
-0.0352604
-0.0358751
-0.0359748
-0.0358145
-0.0350508
-0.0347062
-0.0349512
-0.0351688
-0.0359825
-0.0362491
-0.0364688
-0.0366936
-0.0367371
-0.0363748
-0.0358926
-0.035177
-0.0353101
-0.0351425
-0.0347901
-0.0342979
-0.0335603
-0.0335996
-0.0338173
-0.0344788
-0.0345615
-0.0347432
-0.0343286
-0.033999
-0.0340252
-0.034327
-0.0343957
-0.0342078
-0.0340772
-0.0339234
-0.0335308
-0.0329669
-0.0321961
-0.0310592
-0.0302654
-0.0296771
-0.0300311
-0.0298896
-0.029938
-0.0303851
-0.0302587
-0.0294311
-0.0282469
-0.0267915
-0.0250637
-0.0229662
-0.0204856
-0.0173829
-0.0136698
-0.00823197
-0.00224656
0
0
0
)
;

boundaryField
{
    inlet
    {
        type            calculated;
        value           uniform 0;
    }
    outlet
    {
        type            calculated;
        value           uniform 0;
    }
    sideWall
    {
        type            empty;
    }
}


// ************************************************************************* //
