/*--------------------------------*- C++ -*----------------------------------*\
| =========                 |                                                 |
| \\      /  F ield         | foam-extend: Open Source CFD                    |
|  \\    /   O peration     | Version:     3.2                                |
|   \\  /    A nd           | Web:         http://www.foam-extend.org         |
|    \\/     M anipulation  | For copyright notice see file Copyright         |
\*---------------------------------------------------------------------------*/
FoamFile
{
    version     2.0;
    format      ascii;
    class       areaScalarField;
    location    "160";
    object      totH;
}
// * * * * * * * * * * * * * * * * * * * * * * * * * * * * * * * * * * * * * //

dimensions      [0 0 0 0 0 0 0];

internalField   nonuniform List<scalar> 
300
(
0
0
0
0
0
0
0
0
0
0
0
0
0
0
0
0
0
0
0
0
0
0
0
0
0
0
0
0
0
0
0
0
0
0
0
0
0
0
0
0
0
0
0
0
0
0
0
0
0
0
0
0
0
0
0
0
0
0
0
0
0
0
0
0
0
0
0
0
0
0
0
0
0
0
0
0
0
0
0
0
0
0
0
0
0
0
0
0
0
0
0
0
0
0
0
0
0
0
0
-0.00216269
-0.00729512
-0.0120587
-0.0155169
-0.0185945
-0.0212582
-0.0236382
-0.0257172
-0.0276156
-0.029237
-0.0308195
-0.0325041
-0.0337419
-0.0348159
-0.0357327
-0.0365693
-0.0375214
-0.0387777
-0.0391853
-0.0392279
-0.0402686
-0.0412617
-0.041338
-0.0412548
-0.0423541
-0.0425473
-0.0423723
-0.042295
-0.0421457
-0.0420409
-0.0420199
-0.0429814
-0.0428621
-0.0425505
-0.0420657
-0.0417935
-0.0419739
-0.0417344
-0.0420643
-0.0416477
-0.0414246
-0.0413988
-0.041075
-0.0407789
-0.0397518
-0.0386808
-0.037753
-0.037589
-0.0373325
-0.0372592
-0.0376044
-0.0377098
-0.0378733
-0.03709
-0.0364726
-0.0365728
-0.0370776
-0.0375838
-0.0376917
-0.0376881
-0.0374118
-0.0372278
-0.0371973
-0.037533
-0.0379316
-0.0380165
-0.0377528
-0.0372926
-0.0367558
-0.0362769
-0.0364398
-0.0369175
-0.0373627
-0.0376613
-0.0377652
-0.0376657
-0.0375924
-0.0376207
-0.0381965
-0.0388439
-0.0388458
-0.0391029
-0.0388637
-0.0384795
-0.0380135
-0.0372411
-0.0370057
-0.036804
-0.0371477
-0.0376634
-0.0382386
-0.0388465
-0.0387694
-0.0387492
-0.03889
-0.038523
-0.037881
-0.037233
-0.0369778
-0.0375282
-0.0377055
-0.0376294
-0.0374994
-0.0373025
-0.0374558
-0.0378399
-0.0380065
-0.0378818
-0.0379294
-0.0374501
-0.0373947
-0.0376159
-0.0377173
-0.0375554
-0.0367651
-0.0361118
-0.0354884
-0.0355944
-0.0357746
-0.0362453
-0.0365271
-0.0362617
-0.0363444
-0.0363196
-0.0367147
-0.0368188
-0.0368427
-0.0366382
-0.0365192
-0.0362263
-0.0358685
-0.0363785
-0.0369968
-0.0378429
-0.0380833
-0.0382271
-0.0379262
-0.0374301
-0.0367452
-0.0359654
-0.0354285
-0.0349127
-0.0350413
-0.0352516
-0.0358661
-0.0359811
-0.0358547
-0.0350959
-0.0347084
-0.0349104
-0.0351251
-0.035962
-0.0362517
-0.0364972
-0.0367327
-0.0367511
-0.0363477
-0.0358516
-0.0351554
-0.0353017
-0.0351341
-0.0347959
-0.0343357
-0.0336047
-0.0336159
-0.0338174
-0.0344839
-0.0345709
-0.0347547
-0.0343429
-0.0340101
-0.0340287
-0.0343287
-0.0344023
-0.0342171
-0.0340848
-0.0339306
-0.0335395
-0.0329775
-0.0322096
-0.0310742
-0.0302756
-0.0296779
-0.0300316
-0.0298949
-0.0299399
-0.0303864
-0.030265
-0.0294391
-0.0282547
-0.0267992
-0.0250712
-0.0229734
-0.0204925
-0.0173892
-0.0136752
-0.00823538
-0.00224753
0
0
0
)
;

boundaryField
{
    inlet
    {
        type            calculated;
        value           uniform 0;
    }
    outlet
    {
        type            calculated;
        value           uniform 0;
    }
    sideWall
    {
        type            empty;
    }
}


// ************************************************************************* //
