/*--------------------------------*- C++ -*----------------------------------*\
| =========                 |                                                 |
| \\      /  F ield         | foam-extend: Open Source CFD                    |
|  \\    /   O peration     | Version:     3.2                                |
|   \\  /    A nd           | Web:         http://www.foam-extend.org         |
|    \\/     M anipulation  | For copyright notice see file Copyright         |
\*---------------------------------------------------------------------------*/
FoamFile
{
    version     2.0;
    format      ascii;
    class       areaScalarField;
    location    "160";
    object      tVolA;
}
// * * * * * * * * * * * * * * * * * * * * * * * * * * * * * * * * * * * * * //

dimensions      [0 3 0 0 0 0 0];

internalField   nonuniform List<scalar> 
300
(
0
0
0
0
0
0
0
0
0
0
0
0
0
0
0
0
0
0
0
0
0
0
0
0
0
0
0
0
0
0
0
0
0
0
0
0
0
0
0
0
0
0
0
0
0
0
0
0
0
0
0
0
0
0
0
0
0
0
0
0
0
0
0
0
0
0
0
0
0
0
0
0
0
0
0
0
0
0
0
0
0
0
0
0
0
0
0
0
0
0
0
0
0
0
0
0
0
0
0
0
4.73137e-05
4.63572e-05
4.65951e-05
4.63743e-05
4.65212e-05
4.63147e-05
4.65562e-05
4.61461e-05
4.67605e-05
4.58227e-05
4.55603e-05
4.47364e-05
4.42724e-05
4.48612e-05
4.36335e-05
4.48884e-05
4.20807e-05
4.42125e-05
4.23925e-05
4.31763e-05
4.09159e-05
4.29227e-05
4.31086e-05
4.08958e-05
4.24009e-05
4.14115e-05
4.17859e-05
4.14892e-05
4.09285e-05
4.30101e-05
3.98544e-05
4.26247e-05
4.1317e-05
4.2344e-05
4.22624e-05
4.19157e-05
4.35433e-05
4.04344e-05
4.39771e-05
4.16402e-05
4.22153e-05
4.42132e-05
4.14932e-05
4.58608e-05
4.54278e-05
4.80028e-05
4.7008e-05
4.84346e-05
4.78068e-05
4.59768e-05
4.75545e-05
4.63011e-05
4.81686e-05
4.77123e-05
4.90704e-05
4.68747e-05
4.71526e-05
4.74291e-05
4.6214e-05
4.78598e-05
4.71286e-05
4.80214e-05
4.6828e-05
4.69154e-05
4.69444e-05
4.69245e-05
4.76175e-05
4.79194e-05
4.88458e-05
4.81232e-05
4.79596e-05
4.71752e-05
4.73836e-05
4.69697e-05
4.68814e-05
4.70161e-05
4.69738e-05
4.66039e-05
4.56508e-05
4.61485e-05
4.47817e-05
4.5759e-05
4.6167e-05
4.61301e-05
4.78132e-05
4.7614e-05
4.80778e-05
4.67753e-05
4.7771e-05
4.58859e-05
4.54975e-05
4.63167e-05
4.53013e-05
4.62598e-05
4.59525e-05
4.64827e-05
4.69724e-05
4.82579e-05
4.67475e-05
4.72719e-05
4.63856e-05
4.66378e-05
4.71757e-05
4.73403e-05
4.68326e-05
4.54335e-05
4.69321e-05
4.59739e-05
4.76845e-05
4.6508e-05
4.57061e-05
4.72054e-05
4.54904e-05
4.81994e-05
4.77709e-05
4.95994e-05
4.78631e-05
4.92359e-05
4.67545e-05
4.6835e-05
4.7928e-05
4.64151e-05
4.83474e-05
4.62679e-05
4.73012e-05
4.70832e-05
4.67977e-05
4.59162e-05
4.81471e-05
4.7165e-05
4.61482e-05
4.71489e-05
4.37389e-05
4.62471e-05
4.4365e-05
4.49248e-05
4.63614e-05
4.48043e-05
4.84023e-05
4.7174e-05
4.93254e-05
4.75893e-05
4.93677e-05
4.6719e-05
4.82121e-05
4.60642e-05
4.82095e-05
4.73462e-05
4.76322e-05
4.73208e-05
4.46019e-05
4.8239e-05
4.45305e-05
4.71228e-05
4.53919e-05
4.71899e-05
4.6426e-05
4.83182e-05
4.59201e-05
4.56284e-05
4.7308e-05
4.54035e-05
4.86459e-05
4.6943e-05
4.94261e-05
4.50323e-05
4.87437e-05
4.54825e-05
4.88564e-05
4.51101e-05
4.71156e-05
4.62301e-05
4.39663e-05
4.72521e-05
4.31067e-05
4.81551e-05
4.2853e-05
5.05044e-05
4.49201e-05
5.27384e-05
4.88863e-05
5.37485e-05
4.97479e-05
5.1982e-05
4.76265e-05
4.83609e-05
4.98121e-05
4.3517e-05
4.91173e-05
4.41127e-05
4.84759e-05
4.47823e-05
4.78205e-05
4.5596e-05
4.71152e-05
4.71958e-05
0
0
0
0
)
;

boundaryField
{
    inlet
    {
        type            calculated;
        value           uniform 0;
    }
    outlet
    {
        type            calculated;
        value           uniform 0;
    }
    sideWall
    {
        type            empty;
    }
}


// ************************************************************************* //
