/*--------------------------------*- C++ -*----------------------------------*\
| =========                 |                                                 |
| \\      /  F ield         | foam-extend: Open Source CFD                    |
|  \\    /   O peration     | Version:     3.2                                |
|   \\  /    A nd           | Web:         http://www.foam-extend.org         |
|    \\/     M anipulation  | For copyright notice see file Copyright         |
\*---------------------------------------------------------------------------*/
FoamFile
{
    version     2.0;
    format      ascii;
    class       areaScalarField;
    location    "160";
    object      tVolC;
}
// * * * * * * * * * * * * * * * * * * * * * * * * * * * * * * * * * * * * * //

dimensions      [0 3 0 0 0 0 0];

internalField   nonuniform List<scalar> 
300
(
0
0
0
0
0
0
0
0
0
0
0
0
0
0
0
0
0
0
0
0
0
0
0
0
0
0
0
0
0
0
0
0
0
0
0
0
0
0
0
0
0
0
0
0
0
0
0
0
0
0
0
0
0
0
0
0
0
0
0
0
0
0
0
0
0
0
0
0
0
0
0
0
0
0
0
0
0
0
0
0
0
0
0
0
0
0
0
0
0
0
0
0
0
0
0
0
0
0
0
0
4.60468e-05
4.18156e-05
3.80812e-05
3.5168e-05
3.23262e-05
3.01325e-05
2.77878e-05
2.62984e-05
2.40362e-05
2.33962e-05
2.19606e-05
2.152e-05
2.0967e-05
1.94607e-05
1.98196e-05
1.76078e-05
1.91405e-05
1.65473e-05
1.83788e-05
1.65798e-05
1.78231e-05
1.57789e-05
1.5694e-05
1.67914e-05
1.50799e-05
1.61852e-05
1.58721e-05
1.6363e-05
1.70283e-05
1.49881e-05
1.7227e-05
1.45719e-05
1.61448e-05
1.5627e-05
1.59188e-05
1.60499e-05
1.47187e-05
1.75506e-05
1.4443e-05
1.69525e-05
1.64051e-05
1.47214e-05
1.76881e-05
1.43376e-05
1.58808e-05
1.42458e-05
1.54099e-05
1.4302e-05
1.50177e-05
1.64274e-05
1.47469e-05
1.58351e-05
1.47048e-05
1.57358e-05
1.43581e-05
1.60691e-05
1.53106e-05
1.49382e-05
1.61067e-05
1.47391e-05
1.56524e-05
1.47327e-05
1.55868e-05
1.515e-05
1.50222e-05
1.53684e-05
1.51572e-05
1.53398e-05
1.48866e-05
1.53941e-05
1.50631e-05
1.5459e-05
1.49455e-05
1.53082e-05
1.55152e-05
1.54002e-05
1.5415e-05
1.51836e-05
1.54401e-05
1.49944e-05
1.61138e-05
1.53732e-05
1.53995e-05
1.59374e-05
1.4955e-05
1.53896e-05
1.51286e-05
1.6042e-05
1.45027e-05
1.58973e-05
1.56454e-05
1.48927e-05
1.5993e-05
1.49133e-05
1.55401e-05
1.56486e-05
1.58105e-05
1.47247e-05
1.56762e-05
1.50131e-05
1.59711e-05
1.59106e-05
1.5587e-05
1.5212e-05
1.53416e-05
1.65165e-05
1.51312e-05
1.60776e-05
1.48574e-05
1.61126e-05
1.67257e-05
1.51411e-05
1.69736e-05
1.50496e-05
1.61322e-05
1.49246e-05
1.64973e-05
1.49308e-05
1.70326e-05
1.66337e-05
1.57965e-05
1.72843e-05
1.53926e-05
1.7033e-05
1.58926e-05
1.6087e-05
1.65318e-05
1.75115e-05
1.56344e-05
1.69607e-05
1.74755e-05
1.5907e-05
1.84857e-05
1.56795e-05
1.74222e-05
1.713e-05
1.61474e-05
1.84692e-05
1.56176e-05
1.74664e-05
1.58266e-05
1.7378e-05
1.53908e-05
1.7435e-05
1.58221e-05
1.80316e-05
1.66797e-05
1.79665e-05
1.75173e-05
1.76309e-05
1.94466e-05
1.55183e-05
1.89385e-05
1.60935e-05
1.78382e-05
1.6502e-05
1.77847e-05
1.65511e-05
1.88133e-05
1.92861e-05
1.79203e-05
2.02647e-05
1.76916e-05
1.94396e-05
1.67744e-05
2.04774e-05
1.66758e-05
1.97592e-05
1.68083e-05
2.08764e-05
1.88595e-05
1.94672e-05
2.16398e-05
1.85294e-05
2.2816e-05
1.79166e-05
2.36285e-05
1.65122e-05
2.29068e-05
1.61736e-05
2.08468e-05
1.65763e-05
2.02315e-05
1.81189e-05
2.24516e-05
2.12522e-05
1.9915e-05
2.70677e-05
2.2631e-05
2.91416e-05
2.64749e-05
3.23567e-05
3.17552e-05
3.72765e-05
3.94029e-05
4.55863e-05
0
0
0
0
)
;

boundaryField
{
    inlet
    {
        type            calculated;
        value           uniform 0;
    }
    outlet
    {
        type            calculated;
        value           uniform 0;
    }
    sideWall
    {
        type            empty;
    }
}


// ************************************************************************* //
