/*--------------------------------*- C++ -*----------------------------------*\
| =========                 |                                                 |
| \\      /  F ield         | foam-extend: Open Source CFD                    |
|  \\    /   O peration     | Version:     3.2                                |
|   \\  /    A nd           | Web:         http://www.foam-extend.org         |
|    \\/     M anipulation  | For copyright notice see file Copyright         |
\*---------------------------------------------------------------------------*/
FoamFile
{
    version     2.0;
    format      ascii;
    class       areaScalarField;
    location    "160";
    object      tVol;
}
// * * * * * * * * * * * * * * * * * * * * * * * * * * * * * * * * * * * * * //

dimensions      [0 3 0 0 0 0 0];

internalField   nonuniform List<scalar> 
300
(
0.0001
0.0001
0.0001
0.0001
0.0001
0.0001
0.0001
0.0001
0.0001
0.0001
0.0001
0.0001
0.0001
0.0001
0.0001
0.0001
0.0001
0.0001
0.0001
0.0001
0.0001
0.0001
0.0001
0.0001
0.0001
0.0001
0.0001
0.0001
0.0001
0.0001
0.0001
0.0001
0.0001
0.0001
0.0001
0.0001
0.0001
0.0001
0.0001
0.0001
0.0001
0.0001
0.0001
0.0001
0.0001
0.0001
0.0001
0.0001
0.0001
0.0001
0.0001
0.0001
0.0001
0.0001
0.0001
0.0001
0.0001
0.0001
0.0001
0.0001
0.0001
0.0001
0.0001
0.0001
0.0001
0.0001
0.0001
0.0001
0.0001
0.0001
0.0001
0.0001
0.0001
0.0001
0.0001
0.0001
0.0001
0.0001
0.0001
0.0001
0.0001
0.0001
0.0001
0.0001
0.0001
0.0001
0.0001
0.0001
0.0001
0.0001
0.0001
0.0001
0.0001
0.0001
0.0001
0.0001
0.0001
0.0001
0.0001
9.82027e-05
9.33567e-05
8.81674e-05
8.46701e-05
8.15355e-05
7.88402e-05
7.64397e-05
7.43363e-05
7.24365e-05
7.07886e-05
6.92263e-05
6.75283e-05
6.62695e-05
6.52036e-05
6.42721e-05
6.3445e-05
6.24875e-05
6.12565e-05
6.08236e-05
6.07829e-05
5.97469e-05
5.87466e-05
5.86676e-05
5.87484e-05
5.76781e-05
5.74717e-05
5.76378e-05
5.77188e-05
5.78615e-05
5.79707e-05
5.79908e-05
5.70291e-05
5.71544e-05
5.74534e-05
5.79621e-05
5.82182e-05
5.80309e-05
5.82659e-05
5.79386e-05
5.83729e-05
5.85845e-05
5.86115e-05
5.8926e-05
5.92303e-05
6.02649e-05
6.13306e-05
6.22568e-05
6.24149e-05
6.26819e-05
6.27516e-05
6.23963e-05
6.22927e-05
6.21269e-05
6.29363e-05
6.3528e-05
6.34272e-05
6.29355e-05
6.24162e-05
6.23089e-05
6.23126e-05
6.25895e-05
6.27722e-05
6.28027e-05
6.24729e-05
6.20685e-05
6.19835e-05
6.22514e-05
6.27088e-05
6.32511e-05
6.37237e-05
6.3564e-05
6.30847e-05
6.26402e-05
6.23388e-05
6.22349e-05
6.23353e-05
6.24079e-05
6.23794e-05
6.18225e-05
6.11562e-05
6.11542e-05
6.0901e-05
6.11497e-05
6.15214e-05
6.20047e-05
6.27603e-05
6.29946e-05
6.31969e-05
6.28638e-05
6.23367e-05
6.17756e-05
6.11537e-05
6.12317e-05
6.12516e-05
6.111e-05
6.14841e-05
6.21224e-05
6.27745e-05
6.3023e-05
6.24806e-05
6.22975e-05
6.2372e-05
6.2505e-05
6.2698e-05
6.25443e-05
6.21655e-05
6.19948e-05
6.21182e-05
6.20706e-05
6.25618e-05
6.26147e-05
6.23863e-05
6.22875e-05
6.24558e-05
6.32399e-05
6.38941e-05
6.45159e-05
6.44135e-05
6.42277e-05
6.37784e-05
6.34811e-05
6.37392e-05
6.36558e-05
6.36805e-05
6.32921e-05
6.31847e-05
6.31615e-05
6.3374e-05
6.34878e-05
6.37962e-05
6.41364e-05
6.36236e-05
6.30119e-05
6.21663e-05
6.19184e-05
6.17784e-05
6.20938e-05
6.25709e-05
6.32891e-05
6.40347e-05
6.45889e-05
6.50875e-05
6.49589e-05
6.47495e-05
6.41451e-05
6.40253e-05
6.4148e-05
6.49545e-05
6.53103e-05
6.50978e-05
6.48942e-05
6.40406e-05
6.37485e-05
6.35045e-05
6.32674e-05
6.3249e-05
6.36592e-05
6.41492e-05
6.48613e-05
6.47247e-05
6.49063e-05
6.52196e-05
6.57172e-05
6.63993e-05
6.63877e-05
6.6194e-05
6.55182e-05
6.54298e-05
6.525e-05
6.56837e-05
6.59975e-05
6.59782e-05
6.56942e-05
6.56158e-05
6.57914e-05
6.59302e-05
6.6077e-05
6.64921e-05
6.70249e-05
6.78421e-05
6.89272e-05
6.97472e-05
7.03222e-05
6.99739e-05
7.01164e-05
7.00738e-05
6.96137e-05
6.97353e-05
7.05927e-05
7.1756e-05
7.3262e-05
7.49586e-05
7.71459e-05
7.95829e-05
8.28786e-05
8.6524e-05
9.2786e-05
9.81467e-05
0.0001
0.0001
0.0001
)
;

boundaryField
{
    inlet
    {
        type            calculated;
        value           uniform 0;
    }
    outlet
    {
        type            calculated;
        value           uniform 0;
    }
    sideWall
    {
        type            empty;
    }
}


// ************************************************************************* //
