/*--------------------------------*- C++ -*----------------------------------*\
| =========                 |                                                 |
| \\      /  F ield         | foam-extend: Open Source CFD                    |
|  \\    /   O peration     | Version:     3.2                                |
|   \\  /    A nd           | Web:         http://www.foam-extend.org         |
|    \\/     M anipulation  | For copyright notice see file Copyright         |
\*---------------------------------------------------------------------------*/
FoamFile
{
    version     2.0;
    format      ascii;
    class       volVectorField;
    location    "160";
    object      U;
}
// * * * * * * * * * * * * * * * * * * * * * * * * * * * * * * * * * * * * * //

dimensions      [0 1 -1 0 0 0 0];

internalField   nonuniform List<vector> 
96000
(
(1.32717 0 0.0321533)
(0.866773 0 0.0115995)
(0.682511 0 0.00215826)
(0.62946 0 -0.00047468)
(0.610066 0 -0.00049265)
(0.597607 0 -0.000216272)
(0.587443 0 -0.000121822)
(0.577914 0 -5.61348e-05)
(0.568828 0 -1.26412e-05)
(0.560457 0 4.18516e-06)
(0.552982 0 9.43575e-06)
(0.546239 0 1.89409e-05)
(0.540038 0 2.37664e-05)
(0.534485 0 2.67479e-05)
(0.529437 0 2.74818e-05)
(0.52482 0 2.73468e-05)
(0.520558 0 2.83062e-05)
(0.516579 0 2.81083e-05)
(0.512918 0 2.91769e-05)
(0.509602 0 2.94405e-05)
(0.506498 0 2.91087e-05)
(0.503554 0 2.85148e-05)
(0.500766 0 2.77817e-05)
(0.498136 0 2.64628e-05)
(0.49566 0 2.54995e-05)
(0.493301 0 2.46245e-05)
(0.491062 0 2.38972e-05)
(0.488917 0 2.32065e-05)
(0.486877 0 2.2109e-05)
(0.484942 0 2.14502e-05)
(0.483079 0 2.0654e-05)
(0.481304 0 2.01735e-05)
(0.479585 0 1.9504e-05)
(0.477946 0 1.8908e-05)
(0.476362 0 1.81797e-05)
(0.474855 0 1.76903e-05)
(0.473383 6.85896e-40 1.72191e-05)
(0.471979 0 1.66725e-05)
(0.470607 0 1.63869e-05)
(0.469292 0 1.56733e-05)
(0.468018 0 1.53934e-05)
(0.466787 -4.50007e-39 1.48585e-05)
(0.465592 0 1.45816e-05)
(0.464436 0 1.4185e-05)
(0.463306 -8.09187e-39 1.38243e-05)
(0.462222 0 1.34327e-05)
(0.461158 0 1.30616e-05)
(0.460139 1.46706e-38 1.28213e-05)
(0.459128 0 1.24732e-05)
(0.458167 2.75368e-38 1.22071e-05)
(0.457206 2.67574e-38 1.19645e-05)
(0.456295 2.59047e-38 1.15658e-05)
(0.455387 -5.03591e-38 1.13863e-05)
(0.454523 0 1.10245e-05)
(0.45366 0 1.09135e-05)
(0.452838 -9.24554e-38 1.05758e-05)
(0.452014 -8.98693e-38 1.03733e-05)
(0.451236 0 1.05571e-05)
(0.450432 0 1.05368e-05)
(0.449693 0 1.023e-05)
(0.448922 0 1.00701e-05)
(0.448224 0 9.69264e-06)
(0.447488 0 9.60441e-06)
(0.446828 0 9.20287e-06)
(0.446123 5.62664e-37 9.09895e-06)
(0.445505 -5.44251e-37 8.68557e-06)
(0.44483 0 8.655e-06)
(0.44425 0 8.16339e-06)
(0.443606 1.00661e-36 8.18367e-06)
(0.443066 0 7.57755e-06)
(0.442455 0 7.63304e-06)
(0.441959 3.58573e-36 6.93786e-06)
(0.441384 0 7.01807e-06)
(0.440935 0 6.2296e-06)
(0.440399 6.46485e-36 6.30882e-06)
(0.440005 0 5.28984e-06)
(0.439519 0 5.4675e-06)
(0.439186 0 4.12956e-06)
(0.438768 -9.98718e-36 4.32338e-06)
(0.43851 0 2.69872e-06)
(0.438175 1.60297e-35 2.8416e-06)
(0.438012 0 6.65645e-07)
(0.437796 0 1.29774e-06)
(0.437751 0 -1.73362e-06)
(0.437722 9.87971e-36 -1.15643e-06)
(0.437809 -1.09336e-35 -4.95661e-06)
(0.437986 0 -6.16264e-06)
(0.438351 0 -1.08331e-05)
(0.438823 0 -1.20056e-05)
(0.439558 0 -1.88272e-05)
(0.440549 1.34786e-33 -2.10231e-05)
(0.4418 0 -3.17587e-05)
(0.44367 5.19583e-33 -3.41703e-05)
(0.445657 0 -5.63959e-05)
(0.449385 0 -7.1504e-05)
(0.452894 -1.25312e-31 -0.000120925)
(0.461787 0 -0.000108661)
(0.462918 0 -0.00054492)
(0.515089 0 0.000947699)
(0.472527 -1.38556e-23 -0.0367042)
(0.250872 0 -0.028468)
(0.296121 0 -0.0235151)
(0.326492 0 -0.0227024)
(0.328935 -4.25051e-28 -0.0191705)
(0.343183 -3.37916e-24 -0.017626)
(0.341549 1.53877e-24 -0.0159888)
(0.355057 -1.14644e-28 -0.0139471)
(0.34863 -3.58268e-24 -0.0136488)
(0.363469 0 -0.0101719)
(0.363692 0 -0.0133208)
(0.342061 7.46679e-24 -0.0123245)
(0.364299 2.629e-24 -0.00898169)
(0.349763 0 -0.00912985)
(0.36877 -8.55785e-25 -0.00427912)
(0.363432 1.29789e-24 -0.0057687)
(0.392613 0 -0.00452507)
(0.331082 0 -0.00961258)
(0.378775 -3.69284e-24 0.00442119)
(0.401722 1.1695e-25 -0.0067673)
(0.357432 4.85926e-24 -0.00903425)
(0.34256 3.15705e-24 -0.00823415)
(0.364504 -2.80716e-24 0.00251417)
(0.414813 0 -0.00192029)
(0.300331 0 -0.00667883)
(0.386121 -7.35945e-24 0.00984382)
(0.378813 2.40458e-24 -0.00575539)
(0.385248 0 0.00725877)
(0.38813 0 -0.00564092)
(0.373515 0 0.0043889)
(0.396994 7.92164e-24 -0.00753328)
(0.301208 5.66217e-24 -0.00589361)
(0.39451 2.93167e-24 0.00865404)
(0.361903 7.35722e-25 -0.00139269)
(0.402085 7.71922e-24 0.0133618)
(0.40033 1.91362e-24 -0.0060732)
(0.363701 2.57194e-24 0.00322588)
(0.401426 -6.405e-25 -0.00228725)
(0.322717 2.48128e-24 -0.00486856)
(0.400534 7.26342e-24 0.008284)
(0.37057 -9.58938e-25 -0.00430477)
(0.367947 0 0.0078621)
(0.390027 1.41225e-24 0.000645229)
(0.366252 0 0.00594117)
(0.412295 -3.99138e-24 0.0086036)
(0.402465 -9.55412e-25 0.00670189)
(0.43287 3.61107e-24 0.00565931)
(0.365148 2.31148e-24 -0.00535578)
(0.393954 0 0.0066028)
(0.388684 -8.2537e-24 -0.00525603)
(0.364303 0 0.00202089)
(0.387573 -6.96254e-28 -0.000688652)
(0.34498 0 0.00249699)
(0.427047 9.26114e-24 0.0116175)
(0.41619 0 -0.00217817)
(0.39981 0 -0.00197989)
(0.370414 0 -0.00847647)
(0.360087 1.45884e-29 -0.00111834)
(0.374999 0 -0.0016348)
(0.369128 0 0.00142605)
(0.393678 -2.97361e-24 0.00406045)
(0.395135 -6.95137e-30 0.0028201)
(0.409086 -5.08706e-26 0.000936489)
(0.379388 0 -0.0053663)
(0.368005 2.22515e-25 -0.00321911)
(0.366227 0 -0.00275396)
(0.378844 -3.45232e-24 0.00286253)
(0.384702 -9.3485e-25 0.00305655)
(0.399781 -2.5874e-24 0.00762958)
(0.42209 9.61722e-25 0.00443759)
(0.39165 -1.62662e-24 -0.00283999)
(0.383562 0 -0.00387579)
(0.374232 1.02517e-24 -0.00546831)
(0.371991 0 -0.00316733)
(0.364917 0 -0.00168074)
(0.385459 -1.84062e-24 0.00246826)
(0.382019 0 0.00114943)
(0.408898 0 0.00273281)
(0.376412 0 -0.00718505)
(0.356002 -4.20145e-25 -0.00100569)
(0.400007 -2.06955e-26 1.54238e-05)
(0.344904 1.27887e-24 -0.00539707)
(0.384353 0 0.00458779)
(0.376507 0 -0.00233149)
(0.374564 3.05839e-24 0.00773711)
(0.407788 0 0.00354255)
(0.380449 0 0.00312305)
(0.416195 0 0.00448532)
(0.381292 2.88552e-24 -0.0053579)
(0.382012 3.78248e-25 -0.00088813)
(0.374321 0 -0.00662851)
(0.350977 0 -0.0017563)
(0.387928 0 -0.000188506)
(0.373014 0 -0.00334152)
(0.353642 -4.39772e-26 -0.00103974)
(0.380462 0 0.00526842)
(0.39183 0 0.00591006)
(0.405734 -3.88971e-24 0.0080557)
(0.425108 0 -0.000461178)
(0.353538 -1.56571e-24 -0.00609265)
(0.378048 -7.45625e-25 0.000212973)
(0.372686 1.91158e-24 -0.00416365)
(0.376584 0 0.00288738)
(0.385442 5.61605e-25 -0.000334218)
(0.383899 1.14519e-25 0.00151002)
(0.375787 0 -0.00233058)
(0.373508 0 0.00235398)
(0.394861 -3.43794e-25 -0.000229251)
(0.35563 -5.89202e-26 -0.000842145)
(0.416234 -2.43036e-24 0.00510739)
(0.372964 0 -0.00699348)
(0.36681 2.17411e-28 0.00187633)
(0.369346 3.56272e-24 -0.00364036)
(0.360063 0 0.00516993)
(0.393552 2.91434e-25 0.00467413)
(0.385118 -2.97131e-24 0.00701362)
(0.432919 1.64487e-24 0.00763742)
(0.373421 0 -0.00405888)
(0.404651 0 0.0023733)
(0.369889 7.93452e-25 -0.00939656)
(0.363054 2.39305e-27 0.00263047)
(0.388828 1.03949e-24 -0.00387963)
(0.362057 -8.15682e-25 -0.000375057)
(0.397214 0 0.000184684)
(0.335566 0 -0.00370348)
(0.389119 1.31571e-24 0.00480526)
(0.361689 1.66555e-24 -0.00136179)
(0.404541 0 0.00748503)
(0.377393 0 -0.00462201)
(0.388873 0 0.00833712)
(0.406657 0 -0.00559458)
(0.359805 -1.64461e-24 -0.00465846)
(0.370586 -3.07702e-24 -0.00565262)
(0.324637 0 -0.00448864)
(0.387294 6.78001e-25 0.00397045)
(0.347156 -3.22319e-24 -0.00232804)
(0.393164 -7.21509e-24 0.00901095)
(0.376128 8.76886e-25 -0.00204845)
(0.389634 0 0.00907492)
(0.390648 -2.84648e-25 -0.00214559)
(0.378485 4.91921e-28 0.00703578)
(0.40111 4.70384e-25 -0.000420212)
(0.364835 -3.47558e-29 -0.001105)
(0.395419 -1.8141e-25 -0.000989556)
(0.325467 0 -0.00329365)
(0.397094 3.32951e-24 0.00658564)
(0.345622 -1.69797e-24 -0.00209052)
(0.420644 -7.93804e-24 0.0138755)
(0.390053 -3.71428e-24 -0.00901069)
(0.364955 0 0.00315427)
(0.382489 0 -0.007434)
(0.341336 9.53298e-25 -0.00134725)
(0.380391 -3.99136e-25 0.000627634)
(0.366262 0 -0.00183654)
(0.372699 1.71521e-25 -0.00150321)
(0.349178 1.13655e-25 -0.0016576)
(0.389759 -4.35986e-24 0.00356437)
(0.341264 9.79069e-25 0.000504049)
(0.429677 0 0.00910095)
(0.32535 6.65705e-25 -0.00626903)
(0.385312 1.10961e-23 0.0134654)
(0.370877 0 -0.00439557)
(0.378955 9.01844e-24 0.0138509)
(0.404522 -7.79301e-25 -0.00283213)
(0.370496 -9.88787e-25 0.00362714)
(0.387142 6.25337e-26 -0.0054148)
(0.32903 -5.75243e-25 -0.00285068)
(0.398699 -3.16566e-25 0.00214911)
(0.326187 -6.1759e-28 -0.00307648)
(0.402913 -1.80847e-27 0.0100288)
(0.371413 -1.01625e-24 -0.00397285)
(0.39448 -9.06674e-25 0.00546796)
(0.348996 1.88763e-24 -0.00716935)
(0.371628 0 0.00766148)
(0.364296 1.58385e-28 -0.00431038)
(0.377351 0 0.00744956)
(0.355226 8.9293e-25 -0.00382336)
(0.375158 6.17628e-24 0.0108286)
(0.369835 5.5911e-25 -0.00176611)
(0.374658 4.14037e-24 0.013343)
(0.400188 -3.80712e-25 0.00355794)
(0.382469 3.45097e-24 0.00920023)
(0.418131 -7.06228e-27 0.00130167)
(0.323768 6.55325e-25 -0.00297281)
(0.392254 -9.0825e-25 0.00609649)
(0.36367 4.99983e-26 -0.00517779)
(0.341523 1.2312e-25 0.000866991)
(0.342819 0 0.0011923)
(0.371731 2.90748e-24 0.0108194)
(0.36542 0 0.00694414)
(0.384155 0 0.0154577)
(0.371755 2.27834e-24 0.0112221)
(0.397584 0 0.0219475)
(0.376334 -2.36441e-24 0.0168453)
(0.42184 0 0.033598)
(0.381126 -7.14635e-24 0.0257501)
(0.483202 2.02565e-23 0.068391)
(0.583701 -1.28295e-23 0.0543814)
(0.45472 0 0.0042239)
(0.3753 0 -0.000155372)
(0.370075 1.39478e-29 4.9253e-05)
(1.70578 0 0.0462012)
(1.46484 0 0.0262865)
(1.26354 0 0.0112045)
(1.15627 0 0.00443932)
(1.09376 0 0.00223491)
(1.05073 0 0.00149982)
(1.01871 0 0.00123663)
(0.992302 0 0.00111526)
(0.969883 0 0.00100515)
(0.951121 0 0.000888222)
(0.934835 0 0.000786348)
(0.920592 0 0.000708092)
(0.907863 0 0.00063532)
(0.896694 0 0.00056857)
(0.886713 0 0.000515453)
(0.877623 0 0.000471214)
(0.869355 0 0.000435567)
(0.861721 0 0.000401402)
(0.854784 0 0.000366661)
(0.84831 0 0.00033735)
(0.842259 0 0.000317221)
(0.836584 0 0.000299202)
(0.831265 0 0.00028213)
(0.826285 0 0.000265189)
(0.821607 0 0.000250802)
(0.817179 0 0.000238054)
(0.812989 0 0.000226377)
(0.809015 0 0.000215848)
(0.805237 0 0.000204612)
(0.801673 -4.60938e-39 0.000195497)
(0.798242 4.37485e-39 0.000186764)
(0.794997 0 0.000179306)
(0.791857 0 0.000171945)
(0.788884 7.58792e-39 0.000164936)
(0.786009 0 0.000158069)
(0.783282 0 0.000152197)
(0.780625 1.66303e-39 0.000146847)
(0.778098 0 0.000141443)
(0.775637 4.91156e-38 0.000136992)
(0.773285 0 0.000131703)
(0.771003 0 0.000127537)
(0.768813 -1.09332e-38 0.000123278)
(0.766676 -8.42666e-38 0.000119518)
(0.764631 -1.63131e-37 0.00011599)
(0.76262 -1.96746e-38 0.000112341)
(0.760709 0 0.000108968)
(0.758817 0 0.000105559)
(0.757027 -2.49517e-37 0.000102849)
(0.755236 -5.52426e-37 9.98689e-05)
(0.753551 6.69573e-38 9.72479e-05)
(0.751855 -4.55503e-37 9.47277e-05)
(0.750265 -9.46297e-37 9.19525e-05)
(0.748661 -1.22509e-37 8.96449e-05)
(0.747158 0 8.71888e-05)
(0.745635 0 8.51989e-05)
(0.744212 -2.25217e-37 8.29851e-05)
(0.74276 1.5312e-36 8.09881e-05)
(0.741413 0 7.92988e-05)
(0.740031 0 7.73716e-05)
(0.738766 -6.3605e-36 7.53937e-05)
(0.737447 0 7.36078e-05)
(0.736252 0 7.15835e-05)
(0.734992 -1.17415e-35 6.99927e-05)
(0.733865 0 6.80383e-05)
(0.732659 1.39126e-36 6.63923e-05)
(0.7316 -1.35133e-36 6.44295e-05)
(0.730446 2.10835e-35 6.30002e-05)
(0.729454 0 6.09113e-05)
(0.728351 4.23993e-35 5.95809e-05)
(0.727425 0 5.72174e-05)
(0.726377 0 5.58467e-05)
(0.725522 8.11929e-35 5.32287e-05)
(0.724532 7.01009e-35 5.17875e-05)
(0.723754 0 4.88678e-05)
(0.722828 1.46208e-34 4.73039e-05)
(0.722135 0 4.3561e-05)
(0.721289 0 4.19917e-05)
(0.72069 -2.15741e-34 3.71921e-05)
(0.719948 -2.58507e-35 3.5223e-05)
(0.719464 0 2.92849e-05)
(0.718852 4.30505e-35 2.67208e-05)
(0.718507 0 1.87727e-05)
(0.718077 5.26638e-34 1.52845e-05)
(0.717906 3.40848e-34 3.56409e-06)
(0.717745 3.30458e-35 -1.84726e-07)
(0.717804 1.80531e-35 -1.29867e-05)
(0.717975 0 -2.27389e-05)
(0.718382 0 -4.14138e-05)
(0.719009 4.23339e-33 -5.36241e-05)
(0.719936 0 -8.61836e-05)
(0.721435 2.46208e-33 -0.000102591)
(0.723005 -3.53297e-32 -0.000155369)
(0.725953 9.54512e-33 -0.000181961)
(0.728602 -2.40651e-31 -0.000278475)
(0.734173 0 -0.000348235)
(0.738946 -2.44711e-31 -0.000572775)
(0.750951 4.91997e-30 -0.000592835)
(0.757229 0 -0.00205966)
(0.811069 -2.82388e-26 -0.00193007)
(0.801094 -3.04246e-23 -0.0557949)
(0.534333 0 -0.0557459)
(0.52914 -3.09937e-24 -0.0414315)
(0.548527 0 -0.0380743)
(0.547909 -8.50176e-24 -0.032606)
(0.562042 0 -0.0292338)
(0.560047 2.88549e-24 -0.0266238)
(0.576622 -3.44584e-24 -0.0229947)
(0.570253 -3.34388e-24 -0.0226253)
(0.588183 0 -0.0170918)
(0.590482 2.65777e-24 -0.0213533)
(0.569911 7.84987e-29 -0.020799)
(0.591054 8.91742e-24 -0.014988)
(0.579487 0 -0.0155742)
(0.598953 0 -0.0077982)
(0.595564 0 -0.00988796)
(0.622667 0 -0.00634725)
(0.562061 1.22435e-23 -0.0154813)
(0.608615 0 0.00629362)
(0.636048 -2.82617e-25 -0.0106486)
(0.603601 4.20971e-24 -0.0147313)
(0.575244 5.67562e-24 -0.0135551)
(0.598529 -5.36696e-24 0.00273131)
(0.64619 0 -0.00274264)
(0.546963 6.31062e-24 -0.0115792)
(0.616354 0 0.0137686)
(0.614293 -1.45104e-27 -0.0079896)
(0.623474 -7.16637e-24 0.0114183)
(0.62888 0 -0.00872166)
(0.619395 0 0.00698052)
(0.642641 7.19505e-24 -0.0113514)
(0.548578 3.51747e-27 -0.0112674)
(0.627513 -2.62056e-24 0.0123128)
(0.597948 2.15329e-24 -0.00205132)
(0.641038 7.29386e-27 0.0194662)
(0.644428 -3.07589e-24 -0.00782422)
(0.61188 5.27452e-24 0.00575344)
(0.644682 0 -0.00326735)
(0.571859 4.63745e-24 -0.009212)
(0.641641 2.70889e-23 0.0121495)
(0.616225 0 -0.00689677)
(0.612079 0 0.0129724)
(0.630096 -1.19157e-24 0.00153732)
(0.613238 7.70334e-24 0.010709)
(0.652213 6.12818e-28 0.0142169)
(0.652899 -1.95695e-24 0.0105736)
(0.68971 5.96853e-24 0.00856659)
(0.626903 -4.85816e-28 -0.0092657)
(0.650678 0 0.0102774)
(0.643921 -8.16684e-24 -0.00882756)
(0.617661 1.00189e-25 0.00318569)
(0.633334 -3.85427e-24 -0.000217844)
(0.590191 0 0.00419976)
(0.668855 0 0.0167925)
(0.669253 -7.70361e-25 -0.00217575)
(0.661229 0 -0.00279565)
(0.624155 8.07024e-24 -0.0138595)
(0.609496 1.87647e-25 -0.00236978)
(0.61915 0 -0.00357014)
(0.61367 -3.037e-25 0.00242101)
(0.635748 -2.34335e-24 0.00695503)
(0.640272 1.03598e-29 0.00444505)
(0.657092 0 0.00217614)
(0.628312 0 -0.00761255)
(0.61778 3.28505e-25 -0.00520299)
(0.608959 0 -0.00539524)
(0.623325 0 0.00384558)
(0.627608 0 0.004683)
(0.647648 -3.91865e-24 0.0122907)
(0.672031 3.15399e-24 0.00796897)
(0.648515 0 -0.00348243)
(0.637092 0 -0.00591553)
(0.621888 -3.12099e-28 -0.00941255)
(0.618501 0 -0.00553045)
(0.608662 4.18501e-25 -0.00349837)
(0.629265 -1.91445e-24 0.00348876)
(0.627604 3.40251e-25 0.00179842)
(0.654875 0 0.00511219)
(0.622086 0 -0.0106798)
(0.599797 -4.19148e-25 -0.00167251)
(0.634244 -5.41526e-26 -0.00020633)
(0.591202 -2.11074e-24 -0.00911973)
(0.62633 0 0.00650329)
(0.621955 0 -0.00383681)
(0.622049 -3.82953e-27 0.0116975)
(0.653702 0 0.00542713)
(0.634925 0 0.00590542)
(0.667754 -1.63035e-24 0.00788774)
(0.633131 5.5453e-24 -0.00814313)
(0.632047 7.62766e-25 -0.00109858)
(0.617977 0 -0.0104766)
(0.597192 0 -0.00357169)
(0.624496 0 -0.00105237)
(0.617296 0 -0.00520678)
(0.596198 -2.76375e-26 -0.00207793)
(0.618666 0 0.0080483)
(0.631669 0 0.00948102)
(0.652826 -6.69374e-24 0.0126588)
(0.674341 0 0.000319718)
(0.610488 -6.12999e-24 -0.00909308)
(0.626314 0 0.000492602)
(0.618244 3.26817e-24 -0.00776319)
(0.623447 3.12043e-24 0.00392077)
(0.631672 1.19033e-24 -0.00101477)
(0.631307 1.74044e-25 0.00284194)
(0.617762 0 -0.00283522)
(0.6152 0 0.00457544)
(0.635679 0 0.000267386)
(0.601156 -6.56865e-26 -0.00205271)
(0.660218 -3.76045e-24 0.00729921)
(0.623821 0 -0.0113984)
(0.615737 5.10187e-24 0.00290422)
(0.612825 0 -0.00658676)
(0.603866 0 0.00842469)
(0.636289 0 0.00806663)
(0.633352 0 0.0111708)
(0.680337 0 0.0122219)
(0.627516 0 -0.00624728)
(0.659162 3.01154e-24 0.0047854)
(0.61662 9.98669e-25 -0.0142614)
(0.608992 -2.73016e-24 0.00334838)
(0.633435 0 -0.00689138)
(0.609935 6.81991e-29 -0.00133628)
(0.638073 0 0.000105993)
(0.587039 -1.18308e-24 -0.0062951)
(0.630317 2.6986e-27 0.00826804)
(0.597225 -2.12602e-27 -0.00221281)
(0.644438 6.87313e-24 0.0120327)
(0.621933 0 -0.00689992)
(0.634547 0 0.0130365)
(0.655102 0 -0.00924143)
(0.612205 0 -0.00764463)
(0.615759 5.79654e-24 -0.00931731)
(0.567438 0 -0.00880277)
(0.617111 1.11529e-24 0.0060781)
(0.579532 5.39919e-24 -0.00297456)
(0.62678 0 0.014612)
(0.613447 9.298e-25 -0.00313882)
(0.634025 0 0.013845)
(0.638566 -2.51853e-25 -0.00351253)
(0.629749 5.6471e-24 0.011093)
(0.651116 9.51358e-25 -0.000771343)
(0.61837 -8.08968e-25 -0.00175445)
(0.639539 -2.82926e-25 -0.000734994)
(0.574355 4.41862e-24 -0.00565791)
(0.631176 6.24532e-24 0.0104202)
(0.578716 -3.24314e-24 -0.00313515)
(0.661231 -8.91247e-24 0.0205946)
(0.64157 -6.99157e-24 -0.0146798)
(0.618368 -7.44348e-24 0.00457225)
(0.629066 6.83279e-24 -0.0121283)
(0.586821 1.45959e-24 -0.00218379)
(0.613728 -1.33575e-24 0.00107918)
(0.604815 0 -0.00262757)
(0.608551 0 -0.00208122)
(0.586514 0 -0.00312744)
(0.623353 -7.71886e-24 0.00463963)
(0.592027 -1.89199e-24 0.000481539)
(0.673332 0 0.0142535)
(0.567518 -4.22498e-26 -0.0103885)
(0.6235 2.00067e-23 0.0212473)
(0.610037 0 -0.00692904)
(0.621409 0 0.0222118)
(0.648167 0 -0.00401907)
(0.620213 -1.99292e-24 0.00637945)
(0.632121 1.60328e-25 -0.00806041)
(0.582885 0 -0.00427109)
(0.623707 0 0.00314168)
(0.565507 -1.31504e-24 -0.00498609)
(0.639072 2.88315e-27 0.0153994)
(0.610406 -6.35812e-28 -0.00631479)
(0.640955 -1.592e-24 0.00870294)
(0.587109 1.65112e-24 -0.0114889)
(0.607041 -2.86604e-24 0.0124087)
(0.598134 -3.72699e-24 -0.00693857)
(0.614878 -2.33926e-24 0.0119001)
(0.589121 1.94564e-24 -0.00570613)
(0.609083 6.50212e-24 0.0164975)
(0.60523 8.142e-25 -0.00228414)
(0.612644 0 0.0215356)
(0.639992 -7.01957e-25 0.00604628)
(0.629279 0 0.0150026)
(0.657462 -2.16717e-27 0.00247304)
(0.582744 4.2819e-25 -0.00504193)
(0.633811 0 0.00962941)
(0.602899 2.34295e-25 -0.00750156)
(0.580081 -2.55704e-25 0.00181391)
(0.568332 0 0.00222416)
(0.59864 5.54496e-24 0.016692)
(0.593989 0 0.0114761)
(0.618389 0 0.0247244)
(0.605827 4.63892e-24 0.018198)
(0.635312 -1.05065e-23 0.0345261)
(0.617641 0 0.0278345)
(0.664913 -1.06744e-23 0.0522625)
(0.626569 -1.34539e-23 0.0421098)
(0.747875 3.73449e-23 0.101052)
(0.878987 -1.09996e-25 0.0811939)
(0.78466 0 0.00932985)
(0.684384 0 0.00325461)
(0.637533 2.7486e-28 0.00155166)
(1.79256 0 0.0536381)
(1.73299 0 0.0366391)
(1.59333 0 0.0192325)
(1.46852 0 0.00965788)
(1.37903 0 0.00580162)
(1.31285 0 0.00415539)
(1.26267 0 0.00326436)
(1.22332 0 0.00273858)
(1.19139 0 0.00234263)
(1.16526 0 0.00201869)
(1.14267 0 0.00177253)
(1.12313 0 0.00157726)
(1.10589 0 0.00140066)
(1.09088 0 0.00124402)
(1.07751 0 0.00112343)
(1.06537 0 0.0010235)
(1.0544 0 0.00094065)
(1.04434 0 0.000863064)
(1.03523 0 0.000793038)
(1.02677 0 0.000736815)
(1.01891 0 0.000691076)
(1.01158 0 0.000648893)
(1.00473 0 0.000609333)
(0.998338 0 0.000571694)
(0.992335 0 0.000539673)
(0.986668 0 0.00051117)
(0.981316 2.5541e-38 0.000484801)
(0.976255 0 0.000461066)
(0.971452 1.14351e-38 0.000436641)
(0.966922 -5.41625e-39 0.000416576)
(0.96257 2.57126e-38 0.000397489)
(0.958459 0 0.000380813)
(0.95449 0 0.000364618)
(0.950738 -6.24637e-38 0.000349221)
(0.947113 0 0.000334524)
(0.943674 0 0.000321688)
(0.940333 0 0.000310007)
(0.937154 0 0.000298285)
(0.934067 5.76828e-38 0.000288349)
(0.931117 -2.21816e-37 0.000277242)
(0.928258 0 0.000268093)
(0.925515 4.11093e-37 0.000259078)
(0.922843 -9.89598e-38 0.000250821)
(0.920287 5.74545e-37 0.000243239)
(0.917777 7.39654e-37 0.000235364)
(0.915392 0 0.000228208)
(0.913034 0 0.000220968)
(0.910803 -3.34571e-37 0.000215074)
(0.908575 -6.48585e-37 0.000208754)
(0.906477 2.51404e-36 0.000203103)
(0.904371 -3.05425e-36 0.000197662)
(0.902393 -1.18538e-36 0.000191909)
(0.900403 0 0.000186914)
(0.898536 -4.46878e-36 0.000181827)
(0.896647 8.6822e-36 0.000177428)
(0.894882 0 0.000172849)
(0.893083 2.05357e-36 0.000168576)
(0.891414 0 0.000164605)
(0.889705 0 0.000160262)
(0.888136 7.57004e-36 0.000156169)
(0.886505 -2.94901e-35 0.000152337)
(0.885023 0 0.000148281)
(0.883466 -4.19296e-35 0.000144782)
(0.882068 5.45678e-35 0.000140912)
(0.880579 0 0.000137356)
(0.879265 0 0.000133492)
(0.877841 2.51761e-35 0.000130323)
(0.876608 -9.80404e-35 0.000126285)
(0.875248 2.38866e-34 0.000123284)
(0.874095 -1.85831e-34 0.000118806)
(0.872802 0 0.000115702)
(0.871735 -2.62744e-34 0.000110789)
(0.870512 8.49696e-35 0.000107538)
(0.869537 -3.2784e-34 0.000102062)
(0.86839 -4.78024e-34 9.86032e-05)
(0.867514 0 9.1626e-05)
(0.866464 0 8.80648e-05)
(0.865697 -1.38559e-33 7.92038e-05)
(0.864768 1.06456e-33 7.48263e-05)
(0.864132 0 6.38252e-05)
(0.863355 1.87228e-33 5.83224e-05)
(0.862878 0 4.35537e-05)
(0.862309 7.73571e-34 3.65923e-05)
(0.862031 -1.87927e-33 1.563e-05)
(0.861753 3.19582e-33 5.61057e-06)
(0.861757 0 -1.86473e-05)
(0.861877 -4.43449e-33 -3.58448e-05)
(0.862235 -1.64384e-33 -7.11184e-05)
(0.862873 2.43694e-33 -9.55826e-05)
(0.863815 0 -0.000157851)
(0.865439 3.82577e-32 -0.000188454)
(0.867081 6.28172e-32 -0.000288917)
(0.87032 0 -0.00034209)
(0.873168 4.3409e-31 -0.000518916)
(0.879231 0 -0.000649464)
(0.884376 0 -0.00104654)
(0.897198 -1.59093e-29 -0.00118479)
(0.90477 3.29254e-28 -0.00353822)
(0.956887 -2.15852e-27 -0.00407947)
(0.951987 1.53388e-27 -0.0611882)
(0.726565 2.6914e-23 -0.0706666)
(0.67572 -3.90977e-24 -0.0516482)
(0.677211 0 -0.0468142)
(0.67141 -3.81637e-24 -0.039925)
(0.680585 0 -0.0354118)
(0.677715 -2.73185e-24 -0.0324116)
(0.692556 0 -0.0277673)
(0.686901 0 -0.027343)
(0.703734 1.32598e-24 -0.0208953)
(0.707193 2.50435e-24 -0.0251744)
(0.689849 -5.1676e-24 -0.0244906)
(0.706406 -3.01214e-28 -0.0176283)
(0.697753 0 -0.0186589)
(0.715694 3.24272e-24 -0.0101768)
(0.714591 1.07483e-24 -0.0125569)
(0.735139 4.56236e-24 -0.00797008)
(0.690027 1.06152e-23 -0.0185017)
(0.724378 0 0.00584056)
(0.753597 -3.74205e-25 -0.0122377)
(0.727766 3.54019e-24 -0.0162778)
(0.698423 3.49619e-29 -0.0153755)
(0.716969 4.82618e-24 0.00223314)
(0.759272 0 -0.00313374)
(0.686974 6.18902e-24 -0.0147413)
(0.732234 0 0.0142682)
(0.735028 1.63819e-27 -0.00898628)
(0.742715 -7.41988e-24 0.0124849)
(0.751076 0 -0.00958175)
(0.742733 -1.12587e-24 0.00808726)
(0.767108 6.51578e-24 -0.0116886)
(0.691206 -1.17218e-23 -0.0128175)
(0.739587 5.52908e-27 0.0122945)
(0.723021 6.0165e-25 -0.00278609)
(0.760266 -2.41907e-23 0.021008)
(0.768083 -2.41627e-24 -0.00852515)
(0.738277 0 0.00676115)
(0.768697 8.72057e-25 -0.00271655)
(0.711075 4.26124e-24 -0.00990014)
(0.756455 9.972e-24 0.0123058)
(0.744044 3.06201e-24 -0.00692058)
(0.737509 0 0.0141702)
(0.754108 -1.94957e-24 0.00153985)
(0.739084 7.19572e-24 0.0121934)
(0.774396 6.82679e-24 0.0162493)
(0.777956 2.07085e-24 0.0120506)
(0.810172 0 0.0103508)
(0.767983 -4.05263e-24 -0.00840548)
(0.779112 5.47548e-24 0.0109613)
(0.775498 0 -0.00976997)
(0.749162 1.4653e-25 0.00361854)
(0.762097 -1.50308e-24 -0.000259531)
(0.728448 -8.24719e-25 0.00403212)
(0.787331 0 0.0179468)
(0.795266 -7.69368e-25 -0.00223079)
(0.790583 0 -0.00223019)
(0.756428 1.39228e-23 -0.0146156)
(0.739659 1.08212e-26 -0.00281837)
(0.746377 0 -0.00418314)
(0.741086 2.90075e-28 0.00246884)
(0.760722 0 0.00697297)
(0.765772 1.6502e-25 0.00419206)
(0.781133 0 0.00252552)
(0.758501 0 -0.00795759)
(0.747116 0 -0.00518892)
(0.735589 0 -0.00541613)
(0.747893 0 0.00433585)
(0.753066 0 0.00477856)
(0.772933 -2.7138e-24 0.0126811)
(0.796584 4.65899e-29 0.00841536)
(0.780594 0 -0.0037337)
(0.768089 0 -0.00612342)
(0.750581 -1.01685e-24 -0.00974709)
(0.746374 -6.29411e-25 -0.00575256)
(0.736051 7.72054e-25 -0.00406486)
(0.753735 -9.52998e-25 0.0032418)
(0.754062 2.08465e-25 0.00108214)
(0.777199 -1.54721e-25 0.00507952)
(0.751274 0 -0.011678)
(0.727626 -8.27457e-25 -0.00185707)
(0.755834 -3.31445e-26 3.29707e-05)
(0.72142 -1.75932e-24 -0.0100616)
(0.747291 0 0.00748436)
(0.746888 0 -0.00390409)
(0.747265 -5.12296e-24 0.0128495)
(0.778464 -1.26333e-24 0.00625819)
(0.763785 -9.80278e-25 0.00583116)
(0.791972 -2.82472e-24 0.00818291)
(0.764879 0 -0.00885903)
(0.761162 7.56232e-25 -0.000992051)
(0.746062 2.22399e-24 -0.0116859)
(0.726331 -1.54955e-25 -0.00426273)
(0.746174 0 -0.000903301)
(0.742018 2.0076e-24 -0.00552117)
(0.723269 4.03058e-28 -0.00239421)
(0.740304 0 0.00879514)
(0.754341 0 0.0100161)
(0.776935 -5.6203e-24 0.0132523)
(0.796222 -1.02867e-24 0.000730316)
(0.748091 -2.60488e-24 -0.0093374)
(0.753259 -4.7712e-25 0.00086458)
(0.745714 0 -0.0079953)
(0.749258 2.73815e-24 0.00433237)
(0.757881 -5.85123e-25 -0.0014999)
(0.757976 2.23495e-25 0.00261155)
(0.744588 0 -0.0036394)
(0.740675 0 0.00487755)
(0.759646 0 0.000693983)
(0.7334 6.4724e-26 -0.00212992)
(0.774721 -4.13847e-24 0.00769063)
(0.753631 0 -0.011383)
(0.743234 2.32524e-24 0.00324808)
(0.739235 -3.45473e-24 -0.00735295)
(0.729627 0 0.00956325)
(0.760489 0 0.00903289)
(0.759074 -4.03584e-24 0.0117772)
(0.798588 0 0.0128111)
(0.765613 0 -0.00627129)
(0.7841 2.84183e-24 0.0053057)
(0.746802 0 -0.0154472)
(0.736415 0 0.0041412)
(0.75894 0 -0.00709809)
(0.737209 6.80077e-25 -0.00154531)
(0.760331 0 1.90312e-05)
(0.723771 -1.94362e-24 -0.00734864)
(0.749299 -1.98497e-24 0.00843135)
(0.72587 -2.43525e-24 -0.00299537)
(0.762392 6.66936e-24 0.0124585)
(0.750417 0 -0.00633416)
(0.7579 0 0.0139392)
(0.780168 0 -0.00956039)
(0.741615 0 -0.00800286)
(0.743176 1.07152e-23 -0.0103937)
(0.701645 0 -0.0104819)
(0.73171 1.01992e-24 0.00578405)
(0.705347 4.09066e-24 -0.00411422)
(0.742717 -6.4156e-24 0.0153542)
(0.737227 1.53589e-24 -0.00246751)
(0.755078 0 0.0161372)
(0.763217 -2.04614e-25 -0.00284767)
(0.755913 0 0.012514)
(0.777511 0 -0.000773871)
(0.747905 7.01959e-29 -0.00184258)
(0.763172 0 -0.000528199)
(0.71511 -6.35597e-27 -0.00684694)
(0.747566 0 0.0108322)
(0.708432 0 -0.00368421)
(0.776955 0 0.0212015)
(0.768923 0 -0.0145948)
(0.746356 -1.23478e-23 0.00556789)
(0.756202 6.699e-24 -0.0135814)
(0.71554 1.06165e-24 -0.00332683)
(0.736375 -5.60358e-25 0.000556792)
(0.728492 0 -0.00307849)
(0.730737 0 -0.00192151)
(0.712604 -1.39571e-25 -0.00293771)
(0.741085 0 0.00540861)
(0.720988 -1.81576e-24 0.000292479)
(0.778415 -2.08231e-24 0.0152347)
(0.711999 4.62054e-26 -0.0111348)
(0.743217 3.52554e-26 0.0220413)
(0.737385 2.69861e-24 -0.006263)
(0.743536 0 0.024164)
(0.771933 -1.65559e-24 -0.00386161)
(0.747033 0 0.00720435)
(0.758372 1.07158e-25 -0.00889343)
(0.712859 0 -0.00506612)
(0.742593 0 0.00397248)
(0.698561 0 -0.00608642)
(0.752068 1.58019e-23 0.0157521)
(0.737022 2.09639e-24 -0.00667893)
(0.760328 0 0.00994697)
(0.716242 0 -0.0117909)
(0.726133 -3.73252e-24 0.0124533)
(0.722075 -1.00851e-24 -0.00727408)
(0.733255 -2.76421e-24 0.013589)
(0.714189 0 -0.00611612)
(0.727659 0 0.0183159)
(0.727742 0 -0.00132752)
(0.732489 0 0.0235166)
(0.761236 0 0.00720826)
(0.75288 6.51725e-24 0.0170884)
(0.779261 -1.5872e-26 0.0035748)
(0.723229 1.29911e-25 -0.00534794)
(0.751462 2.21803e-24 0.0104927)
(0.728213 0 -0.00796029)
(0.705745 -2.69957e-25 0.00251157)
(0.690078 0 0.00264367)
(0.714963 0 0.0191092)
(0.712387 0 0.0135917)
(0.734866 0 0.0283197)
(0.727312 0 0.0220432)
(0.754624 -2.14251e-23 0.040184)
(0.741302 0 0.0331422)
(0.785669 -1.14362e-23 0.0609982)
(0.753236 1.29714e-23 0.0493878)
(0.863524 3.33858e-23 0.109785)
(1.00088 1.62148e-23 0.0893472)
(0.949661 0 0.015611)
(0.85653 0 0.00688102)
(0.78766 2.62778e-28 0.00374044)
(1.81929 0 0.051766)
(1.81904 0 0.0393094)
(1.77529 0 0.0256073)
(1.68193 0 0.0157438)
(1.59188 0 0.0106345)
(1.51468 0 0.00790674)
(1.45128 0 0.00619254)
(1.39989 0 0.00506982)
(1.35846 0 0.00423186)
(1.32434 0 0.00358884)
(1.29547 0 0.00310828)
(1.27103 0 0.00273339)
(1.24966 0 0.0024123)
(1.23111 0 0.00213676)
(1.21457 0 0.00192899)
(1.19959 0 0.00175306)
(1.18614 0 0.00160231)
(1.17387 0 0.00146433)
(1.16278 0 0.00134293)
(1.15251 0 0.00124617)
(1.143 0 0.00116453)
(1.13417 0 0.0010896)
(1.12597 0 0.00102024)
(1.11832 0 0.000956029)
(1.11114 -1.46975e-38 0.000901245)
(1.10438 -1.38278e-38 0.000852236)
(1.09802 3.90669e-38 0.000806727)
(1.09201 4.93234e-38 0.000765773)
(1.08632 -3.49773e-38 0.000724737)
(1.08096 -8.82985e-38 0.000690696)
(1.07582 1.048e-37 0.000658408)
(1.07097 0 0.000629809)
(1.06629 0 0.000602295)
(1.06188 7.26559e-38 0.000576232)
(1.05763 0 0.000551777)
(1.05359 0 0.000530111)
(1.04967 0 0.000510357)
(1.04595 0 0.000490664)
(1.04234 0 0.000473663)
(1.0389 2.25356e-37 0.0004554)
(1.03556 0 0.000439945)
(1.03237 4.17231e-37 0.000425009)
(1.02926 0 0.000411064)
(1.02628 7.76511e-37 0.000398368)
(1.02337 7.49714e-37 0.000385207)
(1.02059 0 0.000373353)
(1.01786 2.79918e-36 0.000361396)
(1.01527 0 0.000351473)
(1.01269 0 0.000341022)
(1.01026 7.62808e-36 0.000331573)
(1.00783 2.47062e-36 0.00032247)
(1.00554 0 0.000313095)
(1.00324 -9.30217e-36 0.000304746)
(1.00108 -4.51671e-36 0.000296453)
(0.998903 8.77095e-36 0.000289009)
(0.996864 1.70883e-35 0.000281561)
(0.994794 3.31931e-35 0.000274398)
(0.992868 -3.24207e-35 0.000267598)
(0.990899 -3.15623e-35 0.000260336)
(0.989086 1.53584e-35 0.00025373)
(0.987209 -2.99264e-35 0.000247367)
(0.985497 -5.83207e-35 0.0002409)
(0.983706 -2.83802e-35 0.000234996)
(0.982091 5.54303e-35 0.000228869)
(0.98038 1.07982e-34 0.00022294)
(0.978862 0 0.000216863)
(0.977226 0 0.000211492)
(0.9758 -9.999e-35 0.000205228)
(0.974239 1.95211e-34 0.000200088)
(0.972904 1.90318e-34 0.000193248)
(0.97142 0 0.000187928)
(0.970181 3.61069e-34 0.00018049)
(0.968776 -7.03542e-34 0.00017493)
(0.96764 -3.40982e-34 0.000166662)
(0.966322 -6.67587e-34 0.000160793)
(0.965293 0 0.000150335)
(0.964082 0 0.000144194)
(0.963172 -1.20015e-33 0.000131027)
(0.962093 -3.50865e-33 0.000123567)
(0.961324 0 0.000107208)
(0.960409 6.47492e-33 9.79852e-05)