/*--------------------------------*- C++ -*----------------------------------*\
| =========                 |                                                 |
| \\      /  F ield         | foam-extend: Open Source CFD                    |
|  \\    /   O peration     | Version:     3.2                                |
|   \\  /    A nd           | Web:         http://www.foam-extend.org         |
|    \\/     M anipulation  | For copyright notice see file Copyright         |
\*---------------------------------------------------------------------------*/
FoamFile
{
    version     2.0;
    format      ascii;
    class       areaVectorField;
    location    "160";
    object      Ub2;
}
// * * * * * * * * * * * * * * * * * * * * * * * * * * * * * * * * * * * * * //

dimensions      [0 1 -1 0 0 0 0];

internalField   nonuniform List<vector> 
300
(
(1.94961 0 0)
(1.70115 0 0)
(1.35641 0 0)
(1.19512 0 0)
(1.12979 0 0)
(1.09436 0 0)
(1.06816 0 0)
(1.04483 0 0)
(1.023 0 0)
(1.0029 0 0)
(0.984699 0 0)
(0.96822 0 0)
(0.953131 0 0)
(0.939524 0 0)
(0.927153 0 0)
(0.915807 0 0)
(0.905338 0 0)
(0.8956 0 0)
(0.886613 0 0)
(0.878364 0 0)
(0.870651 0 0)
(0.863365 0 0)
(0.856479 0 0)
(0.849983 0 0)
(0.843854 0 0)
(0.838028 0 0)
(0.832492 0 0)
(0.827208 0 0)
(0.822176 0 0)
(0.817394 0 0)
(0.812803 0 0)
(0.80842 0 0)
(0.804192 0 0)
(0.800151 0 0)
(0.796257 0 0)
(0.792532 0 0)
(0.788919 1.14307e-39 0)
(0.785453 0 0)
(0.782086 0 0)
(0.778848 0 0)
(0.775714 0 0)
(0.772687 -7.44892e-39 0)
(0.769748 0 0)
(0.766905 0 0)
(0.764135 -1.33453e-38 0)
(0.761465 0 0)
(0.758856 0 0)
(0.756344 2.41123e-38 0)
(0.753873 0 0)
(0.751499 4.51604e-38 0)
(0.749154 4.38363e-38 0)
(0.746905 4.23946e-38 0)
(0.744686 -8.23313e-38 0)
(0.742554 0 0)
(0.740444 0 0)
(0.738417 -1.50697e-37 0)
(0.736406 -1.46333e-37 0)
(0.734481 0 0)
(0.732534 0 0)
(0.730698 0 0)
(0.728836 0 0)
(0.727094 0 0)
(0.725317 0 0)
(0.723664 9.32274e-37 0)
(0.721967 9.08216e-37 0)
(0.720406 0 0)
(0.718785 -1.71467e-36 0)
(0.717311 1.64948e-36 0)
(0.715766 0 0)
(0.714381 0 0)
(0.712916 3.01735e-36 0)
(0.711625 -5.71398e-36 0)
(0.710245 0 0)
(0.709057 0 0)
(0.707768 0 0)
(0.706695 -9.25368e-36 0)
(0.705519 0 0)
(0.704575 0 0)
(0.703541 1.52649e-35 0)
(0.702754 -2.46896e-35 0)
(0.701896 2.35879e-35 0)
(0.701305 0 0)
(0.700688 0 0)
(0.700346 0 0)
(0.700082 0 0)
(0.700041 0 0)
(0.700193 6.71678e-35 0)
(0.70067 0 0)
(0.701408 0 0)
(0.702605 1.23956e-33 0)
(0.704343 0 0)
(0.706566 0 0)
(0.709924 0 0)
(0.713688 3.05829e-32 0)
(0.720265 0 0)
(0.727126 0 0)
(0.742079 -8.31649e-30 0)
(0.748454 0 0)
(0.826305 -2.17001e-26 0)
(0.80243 -4.87862e-20 -0.0694162)
(0.509257 4.4739e-20 -0.0604944)
(0.484187 -7.35065e-24 -0.0347416)
(0.50605 4.2119e-21 -0.0336907)
(0.504378 -7.12818e-24 -0.0285119)
(0.516451 0 -0.0258333)
(0.51343 -3.62257e-24 -0.0231966)
(0.527247 3.34774e-24 -0.020025)
(0.520877 0 -0.01977)
(0.535281 -2.44837e-24 -0.0143993)
(0.537833 3.28395e-25 -0.0194926)
(0.513451 4.87994e-21 -0.0158818)
(0.541067 -5.39321e-22 -0.0100218)
(0.527785 7.10514e-21 -0.0128987)
(0.54676 0 -0.00668737)
(0.543787 2.38483e-21 -0.0115473)
(0.569535 -4.49514e-21 -0.00960132)
(0.500339 -1.09905e-23 -0.0167371)
(0.538206 0 0.00907578)
(0.583072 0 -0.0113884)
(0.538396 3.64651e-21 -0.012312)
(0.515892 0 -0.00871662)
(0.536503 4.39162e-24 0.00742799)
(0.610562 -4.01891e-21 -0.00642159)
(0.47428 9.91677e-24 -0.0158663)
(0.539936 0 0.0139669)
(0.551358 0 -0.0102841)
(0.554496 -3.22217e-24 0.0119216)
(0.571 0 -0.00931739)
(0.549317 0 0.0109173)
(0.593713 0 -0.0113983)
(0.476813 0 -0.00918523)
(0.565105 7.67617e-22 0.0135832)
(0.539618 2.02974e-21 -0.00624425)
(0.574181 0 0.0177771)
(0.591445 8.98341e-21 -0.012121)
(0.534981 0 0.00670516)
(0.584645 0 -0.00257107)
(0.500343 0 -0.00496011)
(0.586389 0 0.0155835)
(0.567572 -6.06153e-21 -0.0100194)
(0.541361 2.38266e-21 0.0101173)
(0.568209 -1.71712e-21 -0.0031892)
(0.538228 6.83079e-22 0.00990985)
(0.590378 -2.12325e-21 0.013718)
(0.585243 0 0.0109732)
(0.640162 7.09726e-21 0.011223)
(0.58164 0 -0.00652734)
(0.59795 0 0.0128454)
(0.595789 1.06563e-20 -0.0110512)
(0.558863 0 0.00264855)
(0.583264 9.40127e-22 -0.00522349)
(0.519285 -3.41452e-22 0.00151843)
(0.60516 -3.72973e-21 0.017643)
(0.620585 1.69739e-21 -0.00301768)
(0.606692 2.24473e-22 -0.000406237)
(0.574295 -9.84858e-25 -0.0117186)
(0.547421 0 8.69066e-05)
(0.565666 0 -0.00253214)
(0.564071 1.43787e-24 0.00260798)
(0.58553 0 0.00376358)
(0.580525 3.55928e-25 0.000541168)
(0.601617 0 0.000436205)
(0.571041 -3.22537e-21 -0.00809084)
(0.548887 5.6997e-22 -0.00145003)
(0.551148 -8.55007e-23 -0.000642647)
(0.573916 0 0.00672249)
(0.583173 -3.03756e-24 0.00390395)
(0.595282 0 0.00879662)
(0.627018 3.25122e-25 0.00263062)
(0.588064 0 -0.00642686)
(0.568926 -1.72968e-21 -0.0049039)
(0.560238 0 -0.00566793)
(0.561763 0 -0.00132066)
(0.559163 5.51709e-22 -0.0010078)
(0.581442 1.00748e-21 0.00336127)
(0.57687 -2.32259e-22 -0.00164296)
(0.602424 -1.83005e-25 0.000860058)
(0.563013 0 -0.0138217)
(0.522337 1.56705e-25 -0.000722812)
(0.575028 0 0.00027158)
(0.522144 0 -0.00589707)
(0.566662 0 0.0118575)
(0.56812 0 -0.00315826)
(0.560153 -2.7945e-21 0.0135564)
(0.617292 0 0.00413299)
(0.579924 0 0.00157769)
(0.609116 1.11972e-24 0.00309669)
(0.570545 -9.26202e-21 -0.010487)
(0.569422 0 -0.00118373)
(0.555732 0 -0.0122208)
(0.513854 5.18305e-22 -0.00130959)
(0.5651 1.25834e-24 0.00305058)
(0.563961 0 -0.00289036)
(0.535899 0 -0.00027217)
(0.562659 0 0.00854568)
(0.580276 0 0.00608869)
(0.594317 6.05959e-24 0.0090231)
(0.624699 0 -0.00307727)
(0.538654 0 -0.00919684)
(0.552699 2.20019e-24 0.00513471)
(0.561415 0 -0.00373989)
(0.571746 1.30799e-21 0.0067808)
(0.586227 -1.64015e-21 -0.00233644)
(0.575033 3.06824e-22 -0.00123374)
(0.561031 0 -0.00731389)
(0.546155 1.0976e-21 0.00363777)
(0.569138 -3.5855e-22 -0.00103617)
(0.524695 -1.39924e-22 -0.000361579)
(0.603355 2.24762e-21 0.0116206)
(0.573325 0 -0.00991308)
(0.550393 0 0.00464481)
(0.554687 0 -0.00693069)
(0.540236 0 0.0102494)
(0.587199 0 0.00742179)
(0.571225 -4.69165e-22 0.00770861)
(0.62825 3.30595e-21 0.00744713)
(0.572302 4.22163e-24 -0.00861867)
(0.591743 0 0.00464764)
(0.553436 1.14441e-20 -0.0153777)
(0.534891 0 0.00869969)
(0.579561 -6.3867e-22 -0.003139)
(0.552296 -4.57094e-22 0.00116523)
(0.596298 0 -0.000666402)
(0.522442 -3.44347e-21 -0.00767319)
(0.563622 0 0.00593095)
(0.536298 1.29069e-24 -0.00608511)
(0.581874 1.77531e-21 0.0117833)
(0.56209 0 -0.00853941)
(0.558131 -1.94455e-21 0.0145756)
(0.601995 8.76308e-21 -0.00748986)
(0.553856 0 -0.00449102)
(0.560592 3.3514e-24 -0.00931917)
(0.496981 0 -0.00855741)
(0.553246 1.7315e-22 0.00420487)
(0.510996 -1.03736e-24 -0.00667567)
(0.55467 0 0.0142172)
(0.546323 -7.31616e-25 -0.00315605)
(0.560002 0 0.0181823)
(0.586471 -4.27398e-22 -0.00102586)
(0.569613 -4.23076e-24 0.0132279)
(0.603466 -6.19171e-25 -0.00156311)
(0.560109 0 -0.00143033)
(0.592141 -8.69247e-25 -0.00346861)
(0.503274 0 -0.00942258)
(0.559506 8.65772e-22 0.00836344)
(0.509245 -3.12579e-21 -0.00445499)
(0.595294 0 0.0231402)
(0.592544 0 -0.0148653)
(0.552237 0 0.00874597)
(0.5798 3.41574e-24 -0.0141634)
(0.515083 0 -0.00466012)
(0.549549 2.5411e-25 -0.00132433)
(0.532112 0 -0.00404355)
(0.536645 2.47518e-25 -0.00123919)
(0.514691 0 0.000292077)
(0.568448 0 0.00837297)
(0.524243 0 0.00268062)
(0.628797 3.02424e-24 0.0142958)
(0.517446 -2.83613e-24 -0.0147916)
(0.55471 0 0.019576)
(0.549201 1.09984e-25 -0.0115483)
(0.539869 -3.01945e-22 0.0215889)
(0.594905 1.69202e-25 -0.0067634)
(0.552407 -3.60757e-24 0.0054118)
(0.571383 0 -0.0105731)
(0.493639 -2.30954e-22 -0.00392687)
(0.568033 2.33317e-22 0.00263891)
(0.492138 1.0544e-21 -0.00586279)
(0.570673 0 0.0162616)
(0.55309 0 -0.00846928)
(0.569806 1.30152e-24 0.00812948)
(0.523436 0 -0.0137881)
(0.529968 0 0.0125045)
(0.532283 0 -0.00855891)
(0.538846 -1.46435e-21 0.01148)
(0.521686 -3.89565e-21 -0.00790558)
(0.53165 -3.66745e-21 0.0164063)
(0.536539 -1.66305e-21 -0.00445465)
(0.534014 0 0.0208971)
(0.579327 -5.46983e-25 0.00367493)
(0.557855 0 0.0141745)
(0.60554 -6.1241e-22 -0.00113475)
(0.496016 -5.11507e-25 -0.00609442)
(0.557549 0 0.0100055)
(0.535865 2.94346e-26 -0.0106533)
(0.494154 0 0.000985273)
(0.489324 -1.03592e-22 0.00149863)
(0.519411 0 0.015605)
(0.52003 1.47733e-21 0.00900851)
(0.540331 1.18619e-21 0.0220961)
(0.532305 3.26051e-24 0.0150208)
(0.56016 0 0.0311909)
(0.285566 4.94113e-22 0.012436)
(0.363986 -5.63678e-21 0.0293306)
(0.366781 4.34217e-21 0.0249336)
(0.550801 0 0.0824069)
(0.846334 1.74929e-20 0.0760864)
(0.762252 5.99334e-26 0)
(0.617398 0 0)
(0.574225 2.20454e-29 0)
)
;

boundaryField
{
    inlet
    {
        type            calculated;
        value           uniform (0 0 0);
    }
    outlet
    {
        type            calculated;
        value           uniform (0 0 0);
    }
    sideWall
    {
        type            empty;
    }
}


// ************************************************************************* //
