/*--------------------------------*- C++ -*----------------------------------*\
| =========                 |                                                 |
| \\      /  F ield         | foam-extend: Open Source CFD                    |
|  \\    /   O peration     | Version:     3.2                                |
|   \\  /    A nd           | Web:         http://www.foam-extend.org         |
|    \\/     M anipulation  | For copyright notice see file Copyright         |
\*---------------------------------------------------------------------------*/
FoamFile
{
    version     2.0;
    format      ascii;
    class       areaScalarField;
    location    "160";
    object      Uf;
}
// * * * * * * * * * * * * * * * * * * * * * * * * * * * * * * * * * * * * * //

dimensions      [0 1 -1 0 0 0 0];

internalField   nonuniform List<scalar> 
300
(
0.231291
0.206404
0.171915
0.155785
0.149252
0.14571
0.143089
0.140756
0.138574
0.136563
0.134743
0.133095
0.131587
0.130226
0.128989
0.127854
0.126807
0.125833
0.124935
0.12411
0.123339
0.12261
0.121921
0.121272
0.120659
0.120076
0.119523
0.118994
0.118491
0.118013
0.117554
0.117115
0.116693
0.116289
0.115899
0.115527
0.115165
0.114819
0.114482
0.114158
0.113845
0.113542
0.113248
0.112964
0.112687
0.11242
0.112159
0.111908
0.111661
0.111423
0.111189
0.110964
0.110742
0.110529
0.110318
0.110115
0.109914
0.109721
0.109527
0.109343
0.109157
0.108983
0.108805
0.10864
0.10847
0.108314
0.108152
0.108005
0.10785
0.107711
0.107565
0.107436
0.107298
0.107179
0.10705
0.106943
0.106825
0.106731
0.106627
0.106549
0.106463
0.106404
0.106342
0.106308
0.106281
0.106277
0.106293
0.10634
0.106414
0.106534
0.106707
0.10693
0.107265
0.107642
0.108299
0.108985
0.11048
0.111117
0.118901
0.114253
0.0839584
0.0827123
0.085046
0.0851536
0.0865422
0.0863737
0.0879563
0.0873237
0.0890687
0.0890534
0.0867362
0.0898442
0.0883884
0.090658
0.0901134
0.0927759
0.085301
0.0904669
0.0939968
0.0894279
0.0873567
0.0903203
0.0970923
0.0828279
0.0909441
0.0908741
0.0922164
0.0928134
0.0917008
0.0950913
0.0834161
0.0934978
0.0899778
0.0945204
0.0947281
0.0900028
0.0945705
0.0860251
0.0956801
0.0925866
0.0909826
0.0929492
0.0904728
0.0958373
0.0952746
0.100716
0.0940666
0.0966658
0.0954131
0.0923494
0.0943883
0.088202
0.0975596
0.09805
0.0968024
0.0930991
0.091021
0.0927546
0.0928417
0.0950578
0.0944632
0.0963772
0.0928345
0.0909983
0.0913219
0.093973
0.0948205
0.0962852
0.0989701
0.0946834
0.0928645
0.0919293
0.0923483
0.0921251
0.0946212
0.0939392
0.0965045
0.0918929
0.0884085
0.0936756
0.0880773
0.093473
0.0929319
0.0930125
0.0982295
0.0943941
0.09736
0.0928979
0.0929993
0.0911305
0.0875625
0.0928565
0.0925039
0.0898831
0.0930197
0.0946434
0.0961037
0.0985593
0.0895604
0.0917175
0.0921946
0.0937601
0.0948245
0.0937901
0.0919341
0.0909419
0.0930967
0.0886277
0.0970128
0.0930857
0.0915444
0.0914279
0.0908598
0.0953857
0.0938494
0.0995202
0.0929516
0.0955505
0.0907591
0.0900932
0.094049
0.0915577
0.0958967
0.0881631
0.0929952
0.0895793
0.0948807
0.0919299
0.0927492
0.0960839
0.091392
0.0918643
0.0855327
0.0918723
0.0870268
0.0922638
0.0906236
0.0930792
0.0948169
0.0938737
0.0965933
0.0922698
0.0953678
0.0861212
0.092674
0.086912
0.0967229
0.0947282
0.0919388
0.0936246
0.0875864
0.0910885
0.0892237
0.0897969
0.0876622
0.093518
0.0888636
0.0998462
0.0872926
0.0927857
0.0906234
0.0913725
0.0953586
0.0917194
0.0929208
0.085449
0.0932135
0.0851457
0.0940983
0.091137
0.0936686
0.0878907
0.0899286
0.0890555
0.0907546
0.0880046
0.0903002
0.0897058
0.0907437
0.0943398
0.0927408
0.0968128
0.0855177
0.0924987
0.0893056
0.0857444
0.0852699
0.0890401
0.0887434
0.0914385
0.0902739
0.0938435
0.0917077
0.0979695
0.0935981
0.108455
0.127299
0.112479
0.0979915
0.0936754
)
;

boundaryField
{
    inlet
    {
        type            calculated;
        value           uniform 0;
    }
    outlet
    {
        type            calculated;
        value           uniform 0;
    }
    sideWall
    {
        type            empty;
    }
}


// ************************************************************************* //
