/*--------------------------------*- C++ -*----------------------------------*\
| =========                 |                                                 |
| \\      /  F ield         | foam-extend: Open Source CFD                    |
|  \\    /   O peration     | Version:     3.2                                |
|   \\  /    A nd           | Web:         http://www.foam-extend.org         |
|    \\/     M anipulation  | For copyright notice see file Copyright         |
\*---------------------------------------------------------------------------*/
FoamFile
{
    version     2.0;
    format      ascii;
    class       areaScalarField;
    location    "160";
    object      Uf2;
}
// * * * * * * * * * * * * * * * * * * * * * * * * * * * * * * * * * * * * * //

dimensions      [0 1 -1 0 0 0 0];

internalField   nonuniform List<scalar> 
300
(
0.132756
0.0866851
0.0682514
0.0629461
0.0610066
0.0597607
0.0587443
0.0577914
0.0568828
0.0560457
0.0552982
0.0546239
0.0540038
0.0534485
0.0529437
0.052482
0.0520558
0.0516579
0.0512918
0.0509602
0.0506498
0.0503554
0.0500766
0.0498136
0.049566
0.0493301
0.0491062
0.0488917
0.0486877
0.0484942
0.0483079
0.0481304
0.0479585
0.0477946
0.0476362
0.0474855
0.0473383
0.0471979
0.0470607
0.0469292
0.0468018
0.0466787
0.0465592
0.0464436
0.0463306
0.0462222
0.0461158
0.0460139
0.0459128
0.0458167
0.0457206
0.0456295
0.0455387
0.0454523
0.0453659
0.0452838
0.0452014
0.0451236
0.0450431
0.0449692
0.0448922
0.0448223
0.0447487
0.0446827
0.0446122
0.0445503
0.0444829
0.0444248
0.0443604
0.0443063
0.0442452
0.0441955
0.0441379
0.044093
0.0440393
0.0439998
0.0439511
0.0439177
0.0438756
0.0438497
0.0438159
0.0437994
0.0437774
0.0437725
0.0437693
0.0437774
0.0437944
0.0438301
0.0438763
0.0439486
0.0440462
0.0441693
0.0443537
0.0445489
0.044917
0.0452609
0.0461399
0.0462332
0.0514172
0.0472843
0.0251514
0.0296656
0.0327414
0.0330052
0.0344599
0.0343248
0.0357194
0.0351465
0.0365544
0.0363712
0.0342947
0.0368927
0.0358314
0.0381204
0.0373845
0.0396293
0.0330253
0.0372075
0.0393074
0.0354255
0.0345204
0.0374061
0.0427603
0.0308938
0.0388657
0.037683
0.0377882
0.0379314
0.0369712
0.0399108
0.0308019
0.0406677
0.0370817
0.0403806
0.0395361
0.0353854
0.0395162
0.0327459
0.0414778
0.0383868
0.0375826
0.0391849
0.0363575
0.0401472
0.038947
0.0426325
0.0367868
0.0402668
0.0401644
0.0379041
0.0397046
0.0346766
0.0419364
0.0403439
0.0391986
0.0371199
0.0366162
0.0386995
0.038415
0.0402521
0.0395857
0.0403704
0.0370171
0.0361857
0.0367815
0.0388106
0.0398863
0.0410103
0.0423625
0.0385603
0.0374151
0.0368427
0.0373536
0.0374077
0.0399698
0.0392807
0.0411599
0.0373916
0.0348554
0.0389962
0.0339493
0.0385789
0.0382639
0.038781
0.0424629
0.0389819
0.0417439
0.037797
0.0375456
0.0364842
0.0341385
0.0383762
0.0378052
0.0365629
0.0395099
0.0401191
0.040672
0.0420102
0.0344918
0.0372178
0.0374009
0.0385882
0.0399329
0.0394491
0.037888
0.0370505
0.0386144
0.0344512
0.0409756
0.0373505
0.0371992
0.0378808
0.0373558
0.0407539
0.0393561
0.043417
0.0369538
0.0394823
0.035976
0.0358238
0.0390646
0.0369723
0.0409979
0.0349175
0.0398404
0.0364854
0.0401954
0.0369381
0.0378162
0.040142
0.0361835
0.0377381
0.033502
0.0396776
0.0350111
0.0388294
0.0366132
0.0382483
0.0390377
0.0384825
0.0412876
0.0378954
0.0407932
0.0332945
0.0398166
0.0340569
0.0409341
0.0384854
0.0372993
0.0396582
0.0351104
0.0383374
0.0362628
0.0364641
0.0344259
0.0395362
0.0354913
0.0446269
0.0339911
0.0396646
0.037703
0.0379718
0.040129
0.0367555
0.0386059
0.0328702
0.039816
0.0325344
0.0400878
0.0368889
0.0392386
0.0347981
0.0370598
0.0362726
0.0375537
0.0353473
0.0373266
0.0367343
0.0371578
0.0395559
0.0377416
0.0413522
0.032049
0.038865
0.0360282
0.0338666
0.0339792
0.0368146
0.03613
0.0379805
0.0366949
0.0392795
0.0371014
0.0416953
0.0375458
0.0480978
0.0579504
0.0448804
0.0369922
0.0364914
)
;

boundaryField
{
    inlet
    {
        type            calculated;
        value           uniform 0;
    }
    outlet
    {
        type            calculated;
        value           uniform 0;
    }
    sideWall
    {
        type            empty;
    }
}


// ************************************************************************* //
