/*--------------------------------*- C++ -*----------------------------------*\
| =========                 |                                                 |
| \\      /  F ield         | foam-extend: Open Source CFD                    |
|  \\    /   O peration     | Version:     3.2                                |
|   \\  /    A nd           | Web:         http://www.foam-extend.org         |
|    \\/     M anipulation  | For copyright notice see file Copyright         |
\*---------------------------------------------------------------------------*/
FoamFile
{
    version     2.0;
    format      ascii;
    class       areaVectorField;
    location    "160";
    object      uNormal;
}
// * * * * * * * * * * * * * * * * * * * * * * * * * * * * * * * * * * * * * //

dimensions      [0 0 0 0 0 0 0];

internalField   nonuniform List<vector> 
300
(
(-0 -0 1)
(-0 -0 1)
(-0 -0 1)
(-0 -0 1)
(-0 -0 1)
(-0 -0 1)
(-0 -0 1)
(-0 -0 1)
(-0 -0 1)
(-0 -0 1)
(-0 -0 1)
(-0 -0 1)
(-0 -0 1)
(-0 -0 1)
(-0 -0 1)
(-0 -0 1)
(-0 -0 1)
(-0 -0 1)
(-0 -0 1)
(-0 -0 1)
(-0 -0 1)
(-0 -0 1)
(-0 -0 1)
(-0 -0 1)
(-0 -0 1)
(-0 -0 1)
(-0 -0 1)
(-0 -0 1)
(-0 -0 1)
(-0 -0 1)
(-0 -0 1)
(-0 -0 1)
(-0 -0 1)
(-0 -0 1)
(-0 -0 1)
(-0 -0 1)
(-0 -0 1)
(-0 -0 1)
(-0 -0 1)
(-0 -0 1)
(-0 -0 1)
(-0 -0 1)
(-0 -0 1)
(-0 -0 1)
(-0 -0 1)
(-0 -0 1)
(-0 -0 1)
(-0 -0 1)
(-0 -0 1)
(-0 -0 1)
(-0 -0 1)
(-0 -0 1)
(-0 -0 1)
(-0 -0 1)
(-0 -0 1)
(-0 -0 1)
(-0 -0 1)
(-0 -0 1)
(-0 -0 1)
(-0 -0 1)
(-0 -0 1)
(-0 -0 1)
(-0 -0 1)
(-0 -0 1)
(-0 -0 1)
(-0 -0 1)
(-0 -0 1)
(-0 -0 1)
(-0 -0 1)
(-0 -0 1)
(-0 -0 1)
(-0 -0 1)
(-0 -0 1)
(-0 -0 1)
(-0 -0 1)
(-0 -0 1)
(-0 -0 1)
(-0 -0 1)
(-0 -0 1)
(-0 -0 1)
(-0 -0 1)
(-0 -0 1)
(-0 -0 1)
(-0 -0 1)
(-0 -0 1)
(-0 -0 1)
(-0 -0 1)
(-0 -0 1)
(-0 -0 1)
(-0 -0 1)
(-0 -0 1)
(-0 -0 1)
(-0 -0 1)
(-0 -0 1)
(-0 -0 1)
(-0 -0 1)
(-0 -0 1)
(-0 -0 1)
(-0 -0 1)
(0.0861856 6.75105e-18 0.996279)
(0.11796 -1.34579e-17 0.993018)
(0.0715683 -0 0.997436)
(0.0664287 6.7613e-18 0.997791)
(0.0564388 -0 0.998406)
(0.0499584 -0 0.998751)
(0.0451336 -0 0.998981)
(0.037953 -0 0.99928)
(0.0379278 -0 0.99928)
(0.0268907 -0 0.999638)
(0.0363733 -0 0.999338)
(0.0309734 -0 0.99952)
(0.0185191 -1.69378e-18 0.999829)
(0.024432 -3.38712e-18 0.999701)
(0.01223 -0 0.999925)
(0.0212302 -1.69368e-18 0.999775)
(0.0168449 -0 0.999858)
(0.0333865 -3.38624e-18 0.999443)
(-0.0170974 -0 0.999854)
(0.0187989 -0 0.999823)
(0.0228223 -1.69362e-18 0.99974)
(0.0168938 -0 0.999857)
(-0.0138439 -0 0.999904)
(0.0105169 8.46986e-19 0.999945)
(0.0334347 -0 0.999441)
(-0.0257165 -0 0.999669)
(0.0187216 -1.69377e-18 0.999825)
(-0.0218131 -0 0.999762)
(0.015847 -0 0.999874)
(-0.0200368 -0 0.999799)
(0.0191948 -0 0.999816)
(0.0192602 -0 0.999815)
(-0.0240297 -1.69358e-18 0.999711)
(0.0115708 -8.46976e-19 0.999933)
(-0.0309495 -0 0.999521)
(0.020075 -1.69372e-18 0.999798)
(-0.0128619 -0 0.999917)
(0.00328097 4.23514e-19 0.999995)
(0.00991293 -0 0.999951)
(-0.026566 -0 0.999647)
(0.0176503 1.6938e-18 0.999844)
(-0.0186855 1.69377e-18 0.999825)
(0.00573636 -4.2351e-19 0.999984)
(-0.0175765 -0 0.999846)
(-0.0234995 -1.6936e-18 0.999724)
(-0.0193278 -0 0.999813)
(-0.0177786 -1.6938e-18 0.999842)
(0.0112216 -0 0.999937)
(-0.0214775 -0 0.999769)
(0.0185456 -1.69377e-18 0.999828)
(-0.00473912 -0 0.999989)
(0.00895526 -8.46999e-19 0.99996)
(-0.00241625 -0 0.999997)
(-0.0289041 -0 0.999582)
(0.00422032 4.23513e-19 0.999991)
(-0.000212136 -0 1)
(0.020401 -0 0.999792)
(-0.000158756 -0 1)
(0.00447635 -0 0.99999)
(-0.00462345 -0 0.999989)
(-0.00642751 -0 0.999979)
(-0.000931273 -0 1)
(-0.000288196 -0 1)
(0.0137135 -0 0.999906)
(0.00223016 -0 0.999998)
(0.00116601 1.05879e-19 0.999999)
(-0.0117126 -0 0.999931)
(-0.00669418 -0 0.999978)
(-0.0147756 -0 0.999891)
(-0.00437938 -0 0.99999)
(0.0108935 8.46983e-19 0.999941)
(0.00821246 -0 0.999966)
(0.00959504 8.46994e-19 0.999954)
(0.00235091 -0 0.999997)
(0.00180234 -2.11758e-19 0.999998)
(-0.00578082 -4.23509e-19 0.999983)
(0.00284805 2.11757e-19 0.999996)
(-0.00171601 -0 0.999999)
(0.0247398 3.38709e-18 0.999694)
(0.001148 -0 0.999999)
(-0.00107025 -0 0.999999)
(0.0113547 -0 0.999936)
(-0.0209206 -0 0.999781)
(0.00555905 -0 0.999985)
(-0.0241941 1.69357e-18 0.999707)
(-0.0066952 -0 0.999978)
(-0.0027205 -0 0.999996)
(-0.005346 -4.2351e-19 0.999986)
(0.0190891 -1.69376e-18 0.999818)
(0.00153735 -0 0.999999)
(0.0214649 -0 0.99977)
(0.00284774 -0 0.999996)
(-0.00593331 4.23509e-19 0.999982)
(0.00512504 -0 0.999987)
(0.000507876 -0 1)
(-0.0151863 -0 0.999885)
(-0.0104922 -0 0.999945)
(-0.0154246 -0 0.999881)
(0.00521956 -0 0.999986)
(0.0167927 -0 0.999859)
(-0.00970481 -0 0.999953)
(0.00666139 -0 0.999978)
(-0.011859 -8.46973e-19 0.99993)
(0.00398552 4.23513e-19 0.999992)
(0.00214551 -2.11758e-19 0.999998)
(0.0132155 -0 0.999913)
(-0.00655054 8.47015e-19 0.999979)
(0.00156343 -2.11758e-19 0.999999)
(0.000338794 2.64698e-20 1)
(-0.019506 -0 0.99981)
(0.0172879 -0 0.999851)
(-0.00843878 -0 0.999964)
(0.0124938 -0 0.999922)
(-0.0189687 -0 0.99982)
(-0.0126383 -0 0.99992)
(-0.0134937 -1.69391e-18 0.999909)
(-0.0114402 8.46978e-19 0.999935)
(0.0156801 -1.69386e-18 0.999877)
(-0.00847148 8.47003e-19 0.999964)
(0.0272895 -0 0.999628)
(-0.0160285 -1.69385e-18 0.999872)
(0.0054161 4.2351e-19 0.999985)
(-0.00210978 2.11758e-19 0.999998)
(0.00111756 -0 0.999999)
(0.0146856 1.69388e-18 0.999892)
(-0.0105223 -0 0.999945)
(0.0114771 -0 0.999934)
(-0.0196515 1.69374e-18 0.999807)
(0.0148928 -0 0.999889)
(-0.0265994 -0 0.999646)
(0.0122925 -0 0.999924)
(0.00810838 -0 0.999967)
(0.0166215 -0 0.999862)
(0.0172162 -0 0.999852)
(-0.00760015 -8.47008e-19 0.999971)
(0.0133491 1.69391e-18 0.999911)
(-0.0253784 -0 0.999678)
(0.0055434 4.2351e-19 0.999985)
(-0.032923 -0 0.999458)
(0.0017492 2.11758e-19 0.999998)
(-0.0232164 -0 0.99973)
(0.00259021 -0 0.999997)
(0.00255365 -0 0.999997)
(0.00585765 -0 0.999983)
(0.0187193 -0 0.999825)
(-0.0141211 -0 0.9999)
(0.00906403 8.46998e-19 0.999959)
(-0.0393864 -0 0.999224)
(0.0239103 -0 0.999714)
(-0.0158354 -0 0.999875)
(0.0244208 -0 0.999702)
(0.00904695 -0 0.999959)
(0.00253819 -0 0.999997)
(0.00728175 8.4701e-19 0.999973)
(0.00214114 2.11758e-19 0.999998)
(-0.00140612 1.05879e-19 0.999999)
(-0.0147279 -0 0.999892)
(-0.00511325 -0 0.999987)
(-0.0227293 -0 0.999742)
(0.0285741 -0 0.999592)
(-0.0352685 -0 0.999378)
(0.0217572 -1.69366e-18 0.999763)
(-0.0401369 -3.3854e-18 0.999194)
(0.0109288 -8.46982e-19 0.99994)
(-0.0104797 -0 0.999945)
(0.0185349 -0 0.999828)
(0.00812336 8.47005e-19 0.999967)
(-0.0046461 -4.23512e-19 0.999989)
(0.0119981 -8.46972e-19 0.999928)
(-0.0284575 -0 0.999595)
(0.0151522 -0 0.999885)
(-0.0144067 -0 0.999896)
(0.0263988 -0 0.999651)
(-0.0234586 1.6936e-18 0.999725)
(0.0160563 -0 0.999871)
(-0.0213463 -0 0.999772)
(0.0151819 -0 0.999885)
(-0.0308143 -0 0.999525)
(0.00834878 -8.47003e-19 0.999965)
(-0.0390328 -3.38555e-18 0.999238)
(-0.00635498 -0 0.99998)
(-0.0255791 -0 0.999673)
(0.00167872 -0 0.999999)
(0.0124665 1.69393e-18 0.999922)
(-0.0179303 -0 0.999839)
(0.0197274 -0 0.999805)
(-0.001869 -2.11758e-19 0.999998)
(-0.00298738 -0 0.999996)
(-0.0300347 -0 0.999549)
(-0.0173246 1.69381e-18 0.99985)
(-0.0408594 -0 0.999165)
(-0.0282144 3.38678e-18 0.999602)
(-0.0556016 -6.76578e-18 0.998453)
(-0.0435075 3.38492e-18 0.999053)
(-0.0803213 -6.75437e-18 0.996769)
(-0.0678231 6.76066e-18 0.997697)
(-0.147966 -0 0.988992)
(-0.0895401 -6.74904e-18 0.995983)
(-0 -0 1)
(-0 -0 1)
(-0 -0 1)
)
;

boundaryField
{
    inlet
    {
        type            calculated;
        value           uniform (0 0 0);
    }
    outlet
    {
        type            calculated;
        value           uniform (0 0 0);
    }
    sideWall
    {
        type            empty;
    }
}


// ************************************************************************* //
