/*--------------------------------*- C++ -*----------------------------------*\
| =========                 |                                                 |
| \\      /  F ield         | foam-extend: Open Source CFD                    |
|  \\    /   O peration     | Version:     3.2                                |
|   \\  /    A nd           | Web:         http://www.foam-extend.org         |
|    \\/     M anipulation  | For copyright notice see file Copyright         |
\*---------------------------------------------------------------------------*/
FoamFile
{
    version     2.0;
    format      ascii;
    class       areaVectorField;
    location    "160";
    object      Utau;
}
// * * * * * * * * * * * * * * * * * * * * * * * * * * * * * * * * * * * * * //

dimensions      [0 1 -1 0 0 0 0];

internalField   nonuniform List<vector> 
300
(
(2.31223 0 0)
(2.06385 0 0)
(1.71914 0 0)
(1.55785 0 0)
(1.49252 0 0)
(1.4571 0 0)
(1.43089 0 0)
(1.40756 0 0)
(1.38574 0 0)
(1.36563 0 0)
(1.34743 0 0)
(1.33095 0 0)
(1.31587 0 0)
(1.30226 0 0)
(1.28989 0 0)
(1.27854 0 0)
(1.26807 0 0)
(1.25833 0 0)
(1.24935 0 0)
(1.2411 0 0)
(1.23339 0 0)
(1.2261 0 0)
(1.21921 0 0)
(1.21272 0 0)
(1.20659 0 0)
(1.20076 0 0)
(1.19523 0 0)
(1.18994 0 0)
(1.18491 0 0)
(1.18013 0 0)
(1.17554 0 0)
(1.17115 0 0)
(1.16693 0 0)
(1.16289 0 0)
(1.15899 0 0)
(1.15527 0 0)
(1.15165 1.66864e-39 0)
(1.14819 0 0)
(1.14482 0 0)
(1.14158 0 0)
(1.13845 0 0)
(1.13542 -1.09458e-38 0)
(1.13248 0 0)
(1.12964 0 0)
(1.12687 -1.96803e-38 0)
(1.1242 0 0)
(1.12159 0 0)
(1.11908 3.56762e-38 0)
(1.11661 0 0)
(1.11423 6.69585e-38 0)
(1.11189 6.50614e-38 0)
(1.10964 6.29835e-38 0)
(1.10742 -1.22435e-37 0)
(1.10529 0 0)
(1.10318 0 0)
(1.10115 -2.24723e-37 0)
(1.09914 -2.18413e-37 0)
(1.09721 0 0)
(1.09527 0 0)
(1.09343 0 0)
(1.09157 0 0)
(1.08983 0 0)
(1.08805 0 0)
(1.0864 1.39957e-36 0)
(1.0847 1.36453e-36 0)
(1.08314 0 0)
(1.08152 -2.57998e-36 0)
(1.08005 2.48359e-36 0)
(1.0785 0 0)
(1.07711 0 0)
(1.07565 4.55259e-36 0)
(1.07436 -8.62655e-36 0)
(1.07298 0 0)
(1.07179 0 0)
(1.0705 0 0)
(1.06943 -1.40034e-35 0)
(1.06825 0 0)
(1.06731 0 0)
(1.06627 2.31352e-35 0)
(1.06549 -3.74333e-35 0)
(1.06463 3.57779e-35 0)
(1.06404 0 0)
(1.06342 0 0)
(1.06308 0 0)
(1.06281 0 0)
(1.06277 0 0)
(1.06293 1.01964e-34 0)
(1.0634 0 0)
(1.06414 0 0)
(1.06534 1.87951e-33 0)
(1.06707 0 0)
(1.0693 0 0)
(1.07265 0 0)
(1.07642 4.61265e-32 0)
(1.08299 0 0)
(1.08985 0 0)
(1.1048 -1.23815e-29 0)
(1.11117 0 0)
(1.18901 -3.12253e-26 0)
(1.13823 -6.92024e-20 -0.0984658)
(0.833704 7.32422e-20 -0.0990355)
(0.824987 -1.25245e-23 -0.0591947)
(0.848581 7.06281e-21 -0.0564949)
(0.850179 -1.20153e-23 -0.0480597)
(0.864341 0 -0.0432351)
(0.862856 -6.08799e-24 -0.0389836)
(0.878929 5.58073e-24 -0.033382)
(0.872608 0 -0.03312)
(0.890365 -4.07252e-24 -0.0239512)
(0.889944 4.25664e-24 -0.0323916)
(0.866946 -8.73572e-24 -0.0268651)
(0.898287 -8.95389e-22 -0.0166384)
(0.883614 1.18954e-20 -0.0215949)
(0.906505 0 -0.0110874)
(0.900928 3.95111e-21 -0.0191312)
(0.927627 0 -0.015628)
(0.852532 -6.00372e-21 -0.028479)
(0.904488 0 0.0154667)
(0.939801 0 -0.0176704)
(0.894044 3.17731e-21 -0.0204095)
(0.873442 0 -0.0147579)
(0.903116 7.39258e-24 0.0125038)
(0.97084 -6.39037e-21 -0.0102108)
(0.827802 1.73086e-23 -0.0276928)
(0.909124 7.05385e-24 0.0233872)
(0.908581 -2.34648e-21 -0.0170131)
(0.921917 1.04045e-23 0.0201147)
(0.928017 -1.13921e-23 -0.0147081)
(0.916816 0 0.0183737)
(0.950723 0 -0.0182523)
(0.833986 0 -0.0160657)
(0.934708 1.26967e-21 0.0224672)
(0.899709 3.3842e-21 -0.0104111)
(0.944744 0 0.0292534)
(0.94709 -2.20491e-22 -0.0190166)
(0.899929 0 0.0115757)
(0.945699 -6.01454e-22 -0.00310282)
(0.860194 0 -0.00852746)
(0.956463 0 0.0254184)
(0.925703 -9.88628e-21 -0.0163415)
(0.909665 4.00365e-21 0.0170005)
(0.929477 4.24499e-22 -0.0053319)
(0.904557 0 0.0159014)
(0.958071 -1.43585e-20 0.0225204)
(0.952561 0 0.0184144)
(1.007 1.54861e-21 0.0179059)
(0.940593 0 -0.0105556)
(0.966434 0 0.0207613)
(0.953914 1.70618e-20 -0.017694)
(0.923482 0 0.00437655)
(0.943844 1.52132e-21 -0.0084527)
(0.882012 0 0.00213117)
(0.975154 0 0.0281978)
(0.98048 1.97003e-21 -0.00413797)
(0.968024 0 0.000205352)
(0.930783 -1.5962e-24 -0.0189929)
(0.910203 0 0.0001445)
(0.927519 0 -0.00415194)
(0.928407 2.36659e-24 0.00429249)
(0.950558 0 0.00610985)
(0.944632 1.07375e-25 0.00087971)
(0.963762 0 0.000277753)
(0.92825 0 -0.0127308)
(0.909977 1.05471e-24 -0.0020294)
(0.913217 -1.41669e-22 -0.00106482)
(0.939661 0 0.0110066)
(0.948172 -4.93873e-24 0.00634738)
(0.962747 0 0.0142267)
(0.989691 1.08036e-24 0.00433428)
(0.946774 2.37317e-21 -0.0103143)
(0.928601 0 -0.00762636)
(0.91925 8.24959e-22 -0.00882064)
(0.92348 0 -0.00217103)
(0.92124 9.08959e-22 -0.00166039)
(0.946189 1.63948e-21 0.00546984)
(0.939386 -3.78214e-22 -0.00267543)
(0.965042 0 0.00165603)
(0.918647 1.13984e-21 -0.0227341)
(0.884058 0 -0.0010149)
(0.936753 0 0.00100256)
(0.880715 0 -0.0100009)
(0.934522 0 0.0195551)
(0.929289 0 -0.00516604)
(0.929849 -4.63884e-21 0.0225035)
(0.982268 0 0.00657663)
(0.943937 0 0.00256799)
(0.973585 -6.48582e-22 0.00520486)
(0.928809 -1.98408e-21 -0.0177334)
(0.929974 1.10278e-24 -0.0014297)
(0.911094 0 -0.0195611)
(0.87562 0 -0.00249355)
(0.928547 5.77651e-22 0.00550945)
(0.925016 0 -0.00474081)
(0.898817 0 -0.000456488)
(0.93009 0 0.0141262)
(0.946382 0 0.00993015)
(0.96092 0 0.0148236)
(0.985579 0 -0.00514436)
(0.895471 0 -0.0150395)
(0.917118 0 0.00890087)
(0.921921 0 -0.00614141)
(0.937532 2.1448e-21 0.011119)
(0.948217 -2.65293e-21 -0.00377917)
(0.937896 5.00439e-22 -0.00201227)
(0.91926 0 -0.0121496)
(0.909377 5.40196e-21 0.00595704)
(0.930956 -8.7548e-22 -0.00145549)
(0.886271 8.33367e-23 -0.000300263)
(0.969939 0 0.0189233)
(0.930704 0 -0.0160923)
(0.915407 0 0.0077252)
(0.914178 0 -0.0114225)
(0.908434 0 0.0172349)
(0.95378 0 0.0120551)
(0.938408 -7.70745e-22 0.0126637)
(0.995137 -9.74081e-23 0.0113853)
(0.9294 -3.36743e-21 -0.0145749)
(0.955442 6.3006e-21 0.0080943)
(0.907252 0 -0.0247676)
(0.900813 -4.52748e-21 0.0144405)
(0.940473 -1.03639e-21 -0.00509377)
(0.915568 -7.57748e-22 0.00193165)
(0.958948 0 -0.00107169)
(0.881529 -5.81026e-21 -0.0129472)
(0.929897 0 0.00978523)
(0.895734 0 -0.0102811)
(0.948601 1.10209e-20 0.018645)
(0.919192 0 -0.0136909)
(0.927144 1.52317e-23 0.0246702)
(0.960761 0 -0.011811)
(0.913889 0 -0.0074104)
(0.918497 5.49107e-24 -0.0152689)
(0.85518 0 -0.0147252)
(0.918697 2.87526e-22 0.00698243)
(0.870191 5.07616e-23 -0.0116173)
(0.922309 -5.23002e-24 0.0234143)
(0.906217 1.27531e-21 -0.0050236)
(0.93027 -1.46797e-23 0.0306439)
(0.948162 -6.90984e-22 -0.00165853)
(0.938482 -6.97052e-24 0.021794)
(0.965905 -9.91042e-25 -0.0025019)
(0.922693 0 -0.00235624)
(0.953661 -1.39995e-24 -0.0055863)
(0.861058 0 -0.0161212)
(0.926643 0 0.0130865)
(0.869079 2.67613e-21 -0.00787768)
(0.966439 0 0.0380941)
(0.946993 0 -0.0226494)
(0.919269 0 0.0145588)
(0.935928 5.51377e-24 -0.0228629)
(0.875827 0 -0.00792388)
(0.91088 4.94393e-25 -0.002312)
(0.892209 2.36414e-21 -0.00649702)
(0.897957 8.74472e-22 -0.00192265)
(0.876619 1.90952e-22 0.00123264)
(0.935075 0 0.0137732)
(0.888614 0 0.00454377)
(0.998204 4.80093e-24 0.0226943)
(0.872545 -4.78244e-24 -0.0249424)
(0.927268 0 0.0327237)
(0.906015 4.86711e-21 -0.019717)
(0.912945 -3.02586e-20 0.0366724)
(0.953529 -7.40134e-22 -0.0104215)
(0.917139 0 0.00961187)
(0.929044 0 -0.0172227)
(0.854459 1.84529e-21 -0.00694131)
(0.932124 -4.82801e-22 0.00433078)
(0.851395 -1.81866e-22 -0.0102158)
(0.940585 6.10909e-24 0.0267776)
(0.911264 -3.78687e-24 -0.0138092)
(0.936587 0 0.0134945)
(0.878592 5.04519e-24 -0.0232019)
(0.899029 7.04763e-21 0.0210958)
(0.890439 0 -0.014299)
(0.907333 0 0.0193726)
(0.879942 0 -0.0133607)
(0.902566 3.59781e-24 0.0278252)
(0.897026 9.73123e-22 -0.00748933)
(0.906729 -1.84561e-20 0.0354191)
(0.943379 -2.58857e-24 0.00599527)
(0.927098 0 0.0237221)
(0.96812 0 -0.00162521)
(0.855108 -2.91895e-21 -0.010661)
(0.924832 -2.02061e-24 0.0165852)
(0.892875 0 -0.0176175)
(0.857442 -1.19668e-22 0.00160256)
(0.852694 -4.33302e-25 0.00254734)
(0.889996 3.3959e-24 0.0267428)
(0.8873 5.43517e-22 0.0153745)
(0.913619 0 0.0373612)
(0.90238 -1.42396e-22 0.0254703)
(0.936981 -1.35437e-20 0.0521784)
(0.916208 1.58531e-21 0.0398997)
(0.976527 -1.51228e-20 0.0786901)
(0.933825 1.10552e-20 0.063481)
(1.07258 0 0.160471)
(1.26787 2.62057e-20 0.113983)
(1.12474 8.8435e-26 0)
(0.979915 0 0)
(0.936754 3.59634e-29 0)
)
;

boundaryField
{
    inlet
    {
        type            calculated;
        value           uniform (0 0 0);
    }
    outlet
    {
        type            calculated;
        value           uniform (0 0 0);
    }
    sideWall
    {
        type            empty;
    }
}


// ************************************************************************* //
