/*--------------------------------*- C++ -*----------------------------------*\
| =========                 |                                                 |
| \\      /  F ield         | foam-extend: Open Source CFD                    |
|  \\    /   O peration     | Version:     3.2                                |
|   \\  /    A nd           | Web:         http://www.foam-extend.org         |
|    \\/     M anipulation  | For copyright notice see file Copyright         |
\*---------------------------------------------------------------------------*/
FoamFile
{
    version     2.0;
    format      ascii;
    class       areaScalarField;
    location    "160";
    object      volC;
}
// * * * * * * * * * * * * * * * * * * * * * * * * * * * * * * * * * * * * * //

dimensions      [0 3 0 0 0 0 0];

internalField   nonuniform List<scalar> 
300
(
5.36715e-05
5.36715e-05
5.36715e-05
5.36715e-05
5.36715e-05
5.36715e-05
5.36715e-05
5.36715e-05
5.36715e-05
5.36715e-05
5.36715e-05
5.36715e-05
5.36715e-05
5.36715e-05
5.36715e-05
5.36715e-05
5.36715e-05
5.36715e-05
5.36715e-05
5.36715e-05
5.36715e-05
5.36715e-05
5.36715e-05
5.36715e-05
5.36715e-05
5.36715e-05
5.36715e-05
5.36715e-05
5.36715e-05
5.36715e-05
5.36715e-05
5.36715e-05
5.36715e-05
5.36715e-05
5.36715e-05
5.36715e-05
5.36715e-05
5.36715e-05
5.36715e-05
5.36715e-05
5.36715e-05
5.36715e-05
5.36715e-05
5.36715e-05
5.36715e-05
5.36715e-05
5.36715e-05
5.36715e-05
5.36715e-05
5.36715e-05
5.36715e-05
5.36715e-05
5.36715e-05
5.36715e-05
5.36715e-05
5.36715e-05
5.36715e-05
5.36715e-05
5.36715e-05
5.36715e-05
5.36715e-05
5.36715e-05
5.36715e-05
5.36715e-05
5.36715e-05
5.36715e-05
5.36715e-05
5.36715e-05
5.36715e-05
5.36715e-05
5.36715e-05
5.36715e-05
5.36715e-05
5.36715e-05
5.36715e-05
5.36715e-05
5.36715e-05
5.36715e-05
5.36715e-05
5.36715e-05
5.36715e-05
5.36715e-05
5.36715e-05
5.36715e-05
5.36715e-05
5.36715e-05
5.36715e-05
5.36715e-05
5.36715e-05
5.36715e-05
5.36715e-05
5.36715e-05
5.36715e-05
5.36715e-05
5.36715e-05
5.36715e-05
5.36715e-05
5.36715e-05
5.36715e-05
5.27069e-05
4.60429e-05
4.18102e-05
3.8075e-05
3.51612e-05
3.2319e-05
3.0125e-05
2.77801e-05
2.62904e-05
2.40281e-05
2.34037e-05
2.19672e-05
2.15303e-05
2.09746e-05
1.94525e-05
1.98115e-05
1.75991e-05
1.91321e-05
1.6554e-05
1.83907e-05
1.65868e-05
1.7831e-05
1.5786e-05
1.56858e-05
1.67823e-05
1.50708e-05
1.61766e-05
1.5879e-05
1.63737e-05
1.70363e-05
1.49972e-05
1.72323e-05
1.45632e-05
1.61363e-05
1.56181e-05
1.59104e-05
1.60578e-05
1.47309e-05
1.75594e-05
1.44345e-05
1.69443e-05
1.63962e-05
1.47128e-05
1.76795e-05
1.43431e-05
1.58883e-05
1.42553e-05
1.54198e-05
1.43078e-05
1.50092e-05
1.64195e-05
1.47381e-05
1.58258e-05
1.46961e-05
1.57497e-05
1.43707e-05
1.60769e-05
1.53204e-05
1.493e-05
1.60986e-05
1.47297e-05
1.56436e-05
1.47242e-05
1.55947e-05
1.51587e-05
1.50325e-05
1.53775e-05
1.51485e-05
1.53317e-05
1.48778e-05
1.53849e-05
1.50713e-05
1.54669e-05
1.49556e-05
1.53189e-05
1.55066e-05
1.53917e-05
1.54056e-05
1.51745e-05
1.54486e-05
1.50059e-05
1.61212e-05
1.53795e-05
1.54094e-05
1.59289e-05
1.49471e-05
1.53806e-05
1.51191e-05
1.60333e-05
1.45127e-05
1.59035e-05
1.56538e-05
1.49026e-05
1.60038e-05
1.49045e-05
1.55316e-05
1.56397e-05
1.5802e-05
1.47165e-05
1.5682e-05
1.50199e-05
1.59815e-05
1.59201e-05
1.55785e-05
1.5204e-05
1.53329e-05
1.65071e-05
1.51415e-05
1.60871e-05
1.4865e-05
1.61213e-05
1.67351e-05
1.5133e-05
1.69654e-05
1.50406e-05
1.61231e-05
1.49165e-05
1.64891e-05
1.49394e-05
1.70385e-05
1.66393e-05
1.58072e-05
1.72971e-05
1.53844e-05
1.70243e-05
1.58835e-05
1.60783e-05
1.65235e-05
1.75207e-05
1.56383e-05
1.69728e-05
1.74864e-05
1.59141e-05
1.8477e-05
1.56713e-05
1.74134e-05
1.71211e-05
1.61567e-05
1.84748e-05
1.56301e-05
1.74734e-05
1.58182e-05
1.73695e-05
1.53818e-05
1.74261e-05
1.58131e-05
1.80231e-05
1.6684e-05
1.7976e-05
1.75255e-05
1.76229e-05
1.94387e-05
1.55096e-05
1.893e-05
1.6103e-05
1.78492e-05
1.65106e-05
1.77765e-05
1.65431e-05
1.88046e-05
1.92779e-05
1.79116e-05
2.02561e-05
1.77035e-05
1.9451e-05
1.67817e-05
2.04865e-05
1.66865e-05
1.97666e-05
1.68133e-05
2.08878e-05
1.88694e-05
1.94735e-05
2.16476e-05
1.85373e-05
2.28257e-05
1.79235e-05
2.36361e-05
1.65198e-05
2.29121e-05
1.61829e-05
2.08541e-05
1.65889e-05
2.02383e-05
1.81254e-05
2.2461e-05
2.12624e-05
1.99232e-05
2.70757e-05
2.26388e-05
2.91493e-05
2.64827e-05
3.23637e-05
3.17624e-05
3.72826e-05
3.94088e-05
4.55902e-05
5.26768e-05
5.36715e-05
5.36715e-05
5.36715e-05
)
;

boundaryField
{
    inlet
    {
        type            calculated;
        value           uniform 0;
    }
    outlet
    {
        type            calculated;
        value           uniform 0;
    }
    sideWall
    {
        type            empty;
    }
}


// ************************************************************************* //
