/*--------------------------------*- C++ -*----------------------------------*\
| =========                 |                                                 |
| \\      /  F ield         | foam-extend: Open Source CFD                    |
|  \\    /   O peration     | Version:     3.2                                |
|   \\  /    A nd           | Web:         http://www.foam-extend.org         |
|    \\/     M anipulation  | For copyright notice see file Copyright         |
\*---------------------------------------------------------------------------*/
FoamFile
{
    version     2.0;
    format      ascii;
    class       areaScalarField;
    location    "160";
    object      zDimA;
}
// * * * * * * * * * * * * * * * * * * * * * * * * * * * * * * * * * * * * * //

dimensions      [0 1 0 0 0 0 0];

internalField   nonuniform List<scalar> 
300
(
0.0028125
0.0028125
0.0028125
0.0028125
0.0028125
0.0028125
0.0028125
0.0028125
0.0028125
0.0028125
0.0028125
0.0028125
0.0028125
0.0028125
0.0028125
0.0028125
0.0028125
0.0028125
0.0028125
0.0028125
0.0028125
0.0028125
0.0028125
0.0028125
0.0028125
0.0028125
0.0028125
0.0028125
0.0028125
0.0028125
0.0028125
0.0028125
0.0028125
0.0028125
0.0028125
0.0028125
0.0028125
0.0028125
0.0028125
0.0028125
0.0028125
0.0028125
0.0028125
0.0028125
0.0028125
0.0028125
0.0028125
0.0028125
0.0028125
0.0028125
0.0028125
0.0028125
0.0028125
0.0028125
0.0028125
0.0028125
0.0028125
0.0028125
0.0028125
0.0028125
0.0028125
0.0028125
0.0028125
0.0028125
0.0028125
0.0028125
0.0028125
0.0028125
0.0028125
0.0028125
0.0028125
0.0028125
0.0028125
0.0028125
0.0028125
0.0028125
0.0028125
0.0028125
0.0028125
0.0028125
0.0028125
0.0028125
0.0028125
0.0028125
0.0028125
0.0028125
0.0028125
0.0028125
0.0028125
0.0028125
0.0028125
0.0028125
0.0028125
0.0028125
0.0028125
0.0028125
0.0028125
0.00281328
0.00281328
0.00712702
0.00876251
0.00642307
0.00614771
0.00564614
0.00531854
0.00507543
0.00471527
0.00471205
0.0041611
0.00463092
0.00436284
0.00373945
0.00403072
0.00342401
0.00386949
0.00365322
0.00447629
0.00365666
0.00374178
0.00395043
0.00365471
0.00349637
0.00332999
0.0044773
0.00408535
0.00373534
0.00389123
0.00359277
0.00380281
0.00376069
0.00377162
0.00400234
0.00337909
0.00434658
0.00380232
0.00344784
0.00296875
0.00330216
0.00412791
0.00368179
0.00373701
0.0030894
0.0036879
0.00398267
0.00377487
0.00369123
0.00336327
0.00387427
0.00372759
0.00304193
0.00325275
0.00293456
0.00424766
0.00301287
0.00281488
0.00382453
0.00281473
0.00303061
0.00303953
0.00312848
0.00285493
0.00281999
0.00349132
0.00292223
0.00286629
0.00339277
0.00314489
0.0035455
0.00302462
0.00335036
0.00321971
0.00328772
0.00292726
0.00289826
0.00309528
0.00294863
0.00288914
0.00404071
0.00287082
0.00285895
0.00337321
0.00384885
0.00308055
0.00401499
0.00314245
0.00294524
0.0030712
0.00375852
0.00288948
0.00387804
0.00295488
0.00310312
0.00306271
0.00283469
0.00356696
0.00333475
0.00357645
0.00306611
0.00364636
0.00329004
0.00313785
0.00339839
0.00300467
0.00291675
0.00346744
0.0031347
0.00288534
0.00282593
0.00377739
0.00366643
0.00322643
0.00342921
0.00375639
0.00344159
0.00348408
0.00337612
0.00358817
0.00322588
0.00416727
0.00360626
0.00307553
0.00291425
0.00286464
0.00354097
0.00333084
0.00337859
0.00378518
0.00354714
0.00413273
0.00341696
0.00321671
0.00363946
0.00367065
0.00318457
0.00347206
0.00407206
0.00307991
0.00444969
0.00289011
0.00396567
0.00293405
0.00293747
0.00310192
0.00374319
0.00351036
0.00325745
0.00476894
0.00399395
0.0035939
0.00402344
0.00326606
0.00293766
0.00317285
0.00291771
0.00288283
0.00354412
0.00306992
0.00393656
0.00422909
0.00456288
0.00388647
0.00480866
0.00334667
0.00332839
0.00373128
0.00321883
0.00303879
0.00340642
0.00422538
0.00355962
0.00352263
0.00412262
0.00397587
0.00360553
0.00387074
0.00356236
0.00434428
0.00322029
0.00475801
0.00313357
0.00408562
0.00289018
0.00343245
0.00370111
0.00379101
0.00290519
0.00296777
0.0043126
0.00368507
0.00485572
0.00423209
0.00559703
0.00500332
0.00684448
0.00624724
0.0103048
0.00729646
0.0028133
0.0028133
0.0028125
)
;

boundaryField
{
    inlet
    {
        type            calculated;
        value           uniform 0;
    }
    outlet
    {
        type            calculated;
        value           uniform 0;
    }
    sideWall
    {
        type            empty;
    }
}


// ************************************************************************* //
