/*--------------------------------*- C++ -*----------------------------------*\
| =========                 |                                                 |
| \\      /  F ield         | foam-extend: Open Source CFD                    |
|  \\    /   O peration     | Version:     3.2                                |
|   \\  /    A nd           | Web:         http://www.foam-extend.org         |
|    \\/     M anipulation  | For copyright notice see file Copyright         |
\*---------------------------------------------------------------------------*/
FoamFile
{
    version     2.0;
    format      ascii;
    class       volScalarField;
    location    "160";
    object      zDim;
}
// * * * * * * * * * * * * * * * * * * * * * * * * * * * * * * * * * * * * * //

dimensions      [0 1 0 0 0 0 0];

internalField   nonuniform List<scalar> 
96000
(
0.0028125
0.0028125
0.0028125
0.0028125
0.0028125
0.0028125
0.0028125
0.0028125
0.0028125
0.0028125
0.0028125
0.0028125
0.0028125
0.0028125
0.0028125
0.0028125
0.0028125
0.0028125
0.0028125
0.0028125
0.0028125
0.0028125
0.0028125
0.0028125
0.0028125
0.0028125
0.0028125
0.0028125
0.0028125
0.0028125
0.0028125
0.0028125
0.0028125
0.0028125
0.0028125
0.0028125
0.0028125
0.0028125
0.0028125
0.0028125
0.0028125
0.0028125
0.0028125
0.0028125
0.0028125
0.0028125
0.0028125
0.0028125
0.0028125
0.0028125
0.0028125
0.0028125
0.0028125
0.0028125
0.0028125
0.0028125
0.0028125
0.0028125
0.0028125
0.0028125
0.0028125
0.0028125
0.0028125
0.0028125
0.0028125
0.0028125
0.0028125
0.0028125
0.0028125
0.0028125
0.0028125
0.0028125
0.0028125
0.0028125
0.0028125
0.0028125
0.0028125
0.0028125
0.0028125
0.0028125
0.0028125
0.0028125
0.0028125
0.0028125
0.0028125
0.0028125
0.0028125
0.0028125
0.0028125
0.0028125
0.0028125
0.0028125
0.0028125
0.0028125
0.0028125
0.0028125
0.0028125
0.00281328
0.00281328
0.00712702
0.00876251
0.00642307
0.00614771
0.00564614
0.00531854
0.00507543
0.00471527
0.00471205
0.0041611
0.00463092
0.00436284
0.00373945
0.00403072
0.00342401
0.00386949
0.00365322
0.00447629
0.00365666
0.00374178
0.00395043
0.00365471
0.00349637
0.00332999
0.0044773
0.00408535
0.00373534
0.00389123
0.00359277
0.00380281
0.00376069
0.00377162
0.00400234
0.00337909
0.00434658
0.00380232
0.00344784
0.00296875
0.00330216
0.00412791
0.00368179
0.00373701
0.0030894
0.0036879
0.00398267
0.00377487
0.00369123
0.00336327
0.00387427
0.00372759
0.00304193
0.00325275
0.00293456
0.00424766
0.00301287
0.00281488
0.00382453
0.00281473
0.00303061
0.00303953
0.00312848
0.00285493
0.00281999
0.00349132
0.00292223
0.00286629
0.00339277
0.00314489
0.0035455
0.00302462
0.00335036
0.00321971
0.00328772
0.00292726
0.00289826
0.00309528
0.00294863
0.00288914
0.00404071
0.00287082
0.00285895
0.00337321
0.00384885
0.00308055
0.00401499
0.00314245
0.00294524
0.0030712
0.00375852
0.00288948
0.00387804
0.00295488
0.00310312
0.00306271
0.00283469
0.00356696
0.00333475
0.00357645
0.00306611
0.00364636
0.00329004
0.00313785
0.00339839
0.00300467
0.00291675
0.00346744
0.0031347
0.00288534
0.00282593
0.00377739
0.00366643
0.00322643
0.00342921
0.00375639
0.00344159
0.00348408
0.00337612
0.00358817
0.00322588
0.00416727
0.00360626
0.00307553
0.00291425
0.00286464
0.00354097
0.00333084
0.00337859
0.00378518
0.00354714
0.00413273
0.00341696
0.00321671
0.00363946
0.00367065
0.00318457
0.00347206
0.00407206
0.00307991
0.00444969
0.00289011
0.00396567
0.00293405
0.00293747
0.00310192
0.00374319
0.00351036
0.00325745
0.00476894
0.00399395
0.0035939
0.00402344
0.00326606
0.00293766
0.00317285
0.00291771
0.00288283
0.00354412
0.00306992
0.00393656
0.00422909
0.00456288
0.00388647
0.00480866
0.00334667
0.00332839
0.00373128
0.00321883
0.00303879
0.00340642
0.00422538
0.00355962
0.00352263
0.00412262
0.00397587
0.00360553
0.00387074
0.00356236
0.00434428
0.00322029
0.00475801
0.00313357
0.00408562
0.00289018
0.00343245
0.00370111
0.00379101
0.00290519
0.00296777
0.0043126
0.00368507
0.00485572
0.00423209
0.00559703
0.00500332
0.00684448
0.00624724
0.0103048
0.00729646
0.0028133
0.0028133
0.0028125
0.0028125
0.0028125
0.0028125
0.0028125
0.0028125
0.0028125
0.0028125
0.0028125
0.0028125
0.0028125
0.0028125
0.0028125
0.0028125
0.0028125
0.0028125
0.0028125
0.0028125
0.0028125
0.0028125
0.0028125
0.0028125
0.0028125
0.0028125
0.0028125
0.0028125
0.0028125
0.0028125
0.0028125
0.0028125
0.0028125
0.0028125
0.0028125
0.0028125
0.0028125
0.0028125
0.0028125
0.0028125
0.0028125
0.0028125
0.0028125
0.0028125
0.0028125
0.0028125
0.0028125
0.0028125
0.0028125
0.0028125
0.0028125
0.0028125
0.0028125
0.0028125
0.0028125
0.0028125
0.0028125
0.0028125
0.0028125
0.0028125
0.0028125
0.0028125
0.0028125
0.0028125
0.0028125
0.0028125
0.0028125
0.0028125
0.0028125
0.0028125
0.0028125
0.0028125
0.0028125
0.0028125
0.0028125
0.0028125
0.0028125
0.0028125
0.0028125
0.0028125
0.0028125
0.0028125
0.0028125
0.0028125
0.0028125
0.0028125
0.0028125
0.0028125
0.0028125
0.0028125
0.0028125
0.0028125
0.0028125
0.0028125
0.0028125
0.00281249
0.00281249
0.00281249
0.00281247
0.00281254
0.00281483
0.00282561
0.00709198
0.00874536
0.00644743
0.00614732
0.00565014
0.00532075
0.00507654
0.00471862
0.00471037
0.00416826
0.00462705
0.00436399
0.00374638
0.0040262
0.00343135
0.0038653
0.00365971
0.00445986
0.00363295
0.00372894
0.00395002
0.00365098
0.00348232
0.00332623
0.00445688
0.00405533
0.0037095
0.00386801
0.00357068
0.00378145
0.00374722
0.00376354
0.00397973
0.0033557
0.00431881
0.00377703
0.00343507
0.00296497
0.00329225
0.00410391
0.00365785
0.00371995
0.00307578
0.0036861
0.00398133
0.00377677
0.00368079
0.00334583
0.00385285
0.00370814
0.00303177
0.00324593
0.00294358
0.00423097
0.00300033
0.00281175
0.0038133
0.00281702
0.0030272
0.00303894
0.00312714
0.00285712
0.00281563
0.0034846
0.00292773
0.00286424
0.00338888
0.00315013
0.0035411
0.00302194
0.00334524
0.00322207
0.00328636
0.00293079
0.00289747
0.00309102
0.00294457
0.00287913
0.00402676
0.00288053
0.0028545
0.00336197
0.00383219
0.00306435
0.00400271
0.0031453
0.00294811
0.00306244
0.00374637
0.00290165
0.00386738
0.00296114
0.00309812
0.0030585
0.00283356
0.0035627
0.00333921
0.00356915
0.00306231
0.00363769
0.00327806
0.00312752
0.00338908
0.00299837
0.00292085
0.00345966
0.00312804
0.00288279
0.00282221
0.00375996
0.00364744
0.00321255
0.0034145
0.0037478
0.00344431
0.00348432
0.00336669
0.00357314
0.00320722
0.00414448
0.00358858
0.00306583
0.00291215
0.00286703
0.00353088
0.00331685
0.00336287
0.00376522
0.0035247
0.00410993
0.00340193
0.00322156
0.00363716
0.00366585
0.00317073
0.0034551
0.00405188
0.00305926
0.00442865
0.00287206
0.00395096
0.00292479
0.00293877
0.00310371
0.00373149
0.00349386
0.00323656
0.00473533
0.00396233
0.00356995
0.00400495
0.00327216
0.00294104
0.0031707
0.0029197
0.00288793
0.0035377
0.00308038
0.00391336
0.00419542
0.00452651
0.00385041
0.00477569
0.00332298
0.00331298
0.00371836
0.00322098
0.00302962
0.00339053
0.00420037
0.0035367
0.00350034
0.00409564
0.00394949
0.00358175
0.00384795
0.00353746
0.00431833
0.00319398
0.00473514
0.00314851
0.0040719
0.00288321
0.00342193
0.00368105
0.00377192
0.0028997
0.00297903
0.00430187
0.00369773
0.00484552
0.00424662
0.00558628
0.00502295
0.00683066
0.00629382
0.0102712
0.00725977
0.00282589
0.00281486
0.00281257
0.0028125
0.0028125
0.0028125
0.0028125
0.0028125
0.0028125
0.0028125
0.0028125
0.0028125
0.0028125
0.0028125
0.0028125
0.0028125
0.0028125
0.0028125
0.0028125
0.0028125
0.0028125
0.0028125
0.0028125
0.0028125
0.0028125
0.0028125
0.0028125
0.0028125
0.0028125
0.0028125
0.0028125
0.0028125
0.0028125
0.0028125
0.0028125
0.0028125
0.0028125
0.0028125
0.0028125
0.0028125
0.0028125
0.0028125
0.0028125
0.0028125
0.0028125
0.0028125
0.0028125
0.0028125
0.0028125
0.0028125
0.0028125
0.0028125
0.0028125
0.0028125
0.0028125
0.0028125
0.0028125
0.0028125
0.0028125
0.0028125
0.0028125
0.0028125
0.0028125
0.0028125
0.0028125
0.0028125
0.0028125
0.0028125
0.0028125
0.0028125
0.0028125
0.0028125
0.0028125
0.0028125
0.0028125
0.0028125
0.0028125
0.0028125
0.0028125
0.0028125
0.0028125
0.0028125
0.0028125
0.0028125
0.0028125
0.0028125
0.0028125
0.0028125
0.0028125
0.0028125
0.0028125
0.0028125
0.00281249
0.00281249
0.00281249
0.00281249
0.00281248
0.00281247
0.00281243
0.00281268
0.00281659
0.00285164
0.00704992
0.00871603
0.00647781
0.00614599
0.00565476
0.00532331
0.00507731
0.00472328
0.00470691
0.00417884
0.00462117
0.00436389
0.00375634
0.00401881
0.00344215
0.00385906
0.00367058
0.00443284
0.00359612
0.0037118
0.00394911
0.00364329
0.00346034
0.0033237
0.00442354
0.00400933
0.00367031
0.00383253
0.00353709
0.00374862
0.00372902
0.0037487
0.00394523
0.00331986
0.00427668
0.00373901
0.00341464
0.00296081
0.00327566
0.00406772
0.00362161
0.00369341
0.00305503
0.00368181
0.0039792
0.00377973
0.00366657
0.00331898
0.00382032
0.00367917
0.00301586
0.00323592
0.00295506
0.00420581
0.00298242
0.0028189
0.0037962
0.00282965
0.00302204
0.00303755
0.00312536
0.00286079
0.00281068
0.00347455
0.00293541
0.00286061
0.0033826
0.00315799
0.00353432
0.00301923
0.003338
0.00322552
0.00328396
0.00293592
0.00289593
0.00308463
0.00293873
0.00286476
0.00400552
0.0028936
0.00284862
0.00334386
0.00380666
0.00303983
0.00398305
0.00315111
0.00295232
0.00305013
0.00372789
0.00292038
0.00385143
0.00296931
0.00309052
0.00305248
0.00283073
0.00355587
0.00334608
0.00355874
0.00305847
0.00362364
0.00325941
0.00311186
0.00337462
0.00298944
0.00292762
0.00344736
0.00311745
0.00287978
0.00282101
0.00373407
0.00361881
0.00319138
0.00339166
0.00373352
0.00344896
0.00348445
0.00335374
0.00355022
0.00317928
0.0041092
0.00356088
0.003052
0.00290866
0.00287208
0.00351507
0.00329537
0.00333848
0.00373524
0.00349012
0.00407484
0.00338087
0.00322919
0.00363453
0.00365711
0.0031498
0.00342835
0.00402111
0.00302756
0.00439645
0.00284524
0.0039281
0.00291215
0.00294076
0.00310744
0.00371234
0.00346887
0.00320398
0.00468443
0.00391499
0.00353296
0.0039781
0.00327962
0.00294628
0.00316745
0.00292254
0.00289474
0.00352785
0.00309561
0.00387971
0.0041433
0.00447099
0.00379555
0.0047246
0.00328799
0.00328947
0.0036998
0.00322276
0.00301608
0.0033654
0.00416229
0.0035021
0.00346678
0.00405417
0.00390896
0.00354577
0.00381321
0.00349945
0.00427854
0.00315378
0.00469943
0.00317252
0.00405099
0.00287469
0.00340498
0.00365055
0.00374366
0.00289045
0.00299448
0.00428483
0.00371637
0.00482946
0.0042677
0.00556909
0.00505054
0.00680851
0.00635481
0.0102156
0.00722045
0.00285248
0.00281663
0.00281281
0.0028125
0.0028125
0.0028125
0.0028125
0.0028125
0.0028125
0.0028125
0.0028125
0.0028125
0.0028125
0.0028125
0.0028125
0.0028125
0.0028125
0.0028125
0.0028125
0.0028125
0.0028125
0.0028125
0.0028125
0.0028125
0.0028125
0.0028125
0.0028125
0.0028125
0.0028125
0.0028125
0.0028125
0.0028125
0.0028125
0.0028125
0.0028125
0.0028125
0.0028125
0.0028125
0.0028125
0.0028125
0.0028125
0.0028125
0.0028125
0.0028125
0.0028125
0.0028125
0.0028125
0.0028125
0.0028125
0.0028125
0.0028125
0.0028125
0.0028125
0.0028125
0.0028125
0.0028125
0.0028125
0.0028125
0.0028125
0.0028125
0.0028125
0.0028125
0.0028125
0.0028125
0.0028125
0.0028125
0.0028125
0.0028125
0.0028125
0.0028125
0.0028125
0.0028125
0.0028125
0.0028125
0.0028125
0.0028125
0.0028125
0.0028125
0.0028125
0.0028125
0.0028125
0.0028125
0.0028125
0.0028125
0.0028125
0.0028125
0.0028125
0.0028125
0.0028125
0.0028125
0.00281249
0.00281249
0.00281249
0.00281249
0.00281248
0.00281248
0.00281247
0.00281246
0.00281241
0.00281293
0.0028179
0.00288871
0.00700277
0.00867632
0.00651214
0.00614422
0.00565977
0.00532614
0.00507782
0.00472895
0.00470221
0.00419197
0.00461367
0.00436269
0.00376896
0.00400961
0.00345586
0.00385164
0.00368481
0.00439801
0.00354967
0.00369231
0.00394772
0.0036329
0.00343238
0.0033225
0.0043804
0.0039518
0.00362179
0.00378865
0.00349567
0.00370749
0.00370776
0.00372873
0.00390222
0.00327532
0.00422441
0.00369201
0.00338895
0.00295701
0.00325434
0.00402261
0.00357662
0.00366066
0.00302953
0.00367613
0.00397674
0.00378361
0.00365009
0.0032854
0.00378
0.00364363
0.00299614
0.00322389
0.00296859
0.00417466
0.0029613
0.00283548
0.00377499
0.00284789
0.00301594
0.00303587
0.00312378
0.00286592
0.00281357
0.00346239
0.00294505
0.00285635
0.00337484
0.00316801
0.00352592
0.00301684
0.00332938
0.00323013
0.00328126
0.00294263
0.0028944
0.00307683
0.002932
0.0028477
0.00397902
0.00290948
0.00284237
0.00332095
0.00377481
0.00300963
0.00395794
0.00315959
0.00295795
0.00303583
0.00370504
0.00294441
0.00383198
0.00297907
0.00308103
0.00304548
0.00282678
0.00354774
0.00335516
0.0035462
0.00305492
0.00360571
0.00323601
0.0030928
0.0033568
0.00297909
0.00293656
0.00343185
0.00310404
0.00287682
0.00282965
0.00370221
0.00358344
0.0031655
0.00336298
0.00371516
0.00345505
0.00348437
0.0033384
0.00352159
0.00314523
0.00406496
0.00352602
0.00303565
0.0029042
0.0028794
0.00349507
0.00326862
0.00330803
0.00369864
0.00344694
0.00403078
0.00335585
0.00323891
0.00363188
0.00364545
0.00312394
0.00339455
0.00398335
0.00298818
0.00435619
0.00282922
0.00389889
0.00289736
0.00294332
0.00311284
0.00368777
0.00343817
0.00316311
0.00462069
0.00385649
0.00348641
0.00394525
0.00328791
0.00295331
0.00316361
0.00292619
0.00290295
0.0035156
0.00311415
0.00383893
0.00407758
0.00440171
0.00372715
0.00466015
0.00324534
0.00326039
0.0036773
0.00322421
0.00299951
0.00333359
0.00411471
0.00345928
0.00342539
0.00400212
0.00385814
0.0035011
0.00376975
0.00345188
0.00422864
0.00310356
0.00465454
0.00320357
0.00402484
0.00286533
0.00338307
0.00361232
0.00370864
0.00287866
0.00301278
0.00426306
0.00373934
0.00480914
0.00429354
0.00554727
0.00508386
0.0067806
0.00642569
0.010142
0.00717964
0.00289045
0.0028179
0.00281325
0.0028125
0.0028125
0.0028125
0.0028125
0.0028125
0.0028125
0.0028125
0.0028125
0.0028125
0.0028125
0.0028125
0.0028125
0.0028125
0.0028125
0.0028125
0.0028125
0.0028125
0.0028125
0.0028125
0.0028125
0.0028125
0.0028125
0.0028125
0.0028125
0.0028125
0.0028125
0.0028125
0.0028125
0.0028125
0.0028125
0.0028125
0.0028125
0.0028125
0.0028125
0.0028125
0.0028125
0.0028125
0.0028125
0.0028125
0.0028125
0.0028125
0.0028125
0.0028125
0.0028125
0.0028125
0.0028125
0.0028125
0.0028125
0.0028125
0.0028125
0.0028125
0.0028125
0.0028125
0.0028125
0.0028125
0.0028125
0.0028125
0.0028125
0.0028125
0.0028125
0.0028125
0.0028125
0.0028125
0.0028125
0.0028125
0.0028125
0.0028125
0.0028125
0.0028125
0.0028125
0.0028125
0.0028125
0.0028125
0.0028125
0.0028125
0.0028125
0.0028125
0.0028125
0.0028125
0.0028125
0.0028125
0.0028125
0.0028125
0.0028125
0.0028125
0.0028125
0.00281249
0.00281249
0.00281249
0.00281249
0.00281248
0.00281248
0.00281247
0.00281246
0.00281246
0.00281242
0.0028133
0.00281818
0.0029339
0.00695196
0.00862822
0.00654862
0.00614265
0.00566521
0.00532944
0.00507846
0.00473556
0.00469711
0.00420738
0.00460529
0.0043603
0.00378304
0.00399881
0.00347114
0.00384332
0.00370081
0.00435749
0.00349592
0.0036711
0.00394519
0.00362032
0.00339962
0.003322
0.00433004
0.00388623
0.0035669
0.00373879
0.00344856
0.00366041
0.0036843
0.00370477
0.00385316
0.00322484
0.0041651
0.00363854
0.00335931
0.00295303
0.00322973
0.00397126
0.00352552
0.00362345
0.00300005
0.00366925
0.00397338
0.00378732
0.00363172
0.00324675
0.00373406
0.00360347
0.00297379
0.00320994
0.00298296
0.00413857
0.00293743
0.00285403
0.00375061
0.00286811
0.0030092
0.00303353
0.00312177
0.00287157
0.00282416
0.00344809
0.00295521
0.00285116
0.00336576
0.00317914
0.00351607
0.00301431
0.00331925
0.0032343
0.00327742
0.00294974
0.00289266
0.00306794
0.00292492
0.00282847
0.00394808
0.00292612
0.00283542
0.00329438
0.00373849
0.00297575
0.00392868
0.00316923
0.00296389
0.00301977
0.0036784
0.00297125
0.00381002
0.00298998
0.00306945
0.00303709
0.00282338
0.00353813
0.00336512
0.00353192
0.00305151
0.00358489
0.0032087
0.00307086
0.00333597
0.00296716
0.00294615
0.00341373
0.00308832
0.00287369
0.00284351
0.00366545
0.00354261
0.00313622
0.00332971
0.00369389
0.00346162
0.00348357
0.00332112
0.00348868
0.00310639
0.00401348
0.00348588
0.00301731
0.00289888
0.0028885
0.00347246
0.00323781
0.00327284
0.00365707
0.00339704
0.00398017
0.00332828
0.00324975
0.00362912
0.00363177
0.00309438
0.00335519
0.00394029
0.00294273
0.00431022
0.00284925
0.00386525
0.00288161
0.0029457
0.00311806
0.00365831
0.00340353
0.00311667
0.00454782
0.00379061
0.00343313
0.0039079
0.00329557
0.00296106
0.0031591
0.00292995
0.00291127
0.0035012
0.00313405
0.00379322
0.00400203
0.00432317
0.0036499
0.00458622
0.00319725
0.0032271
0.00365149
0.00322489
0.00298051
0.00329691
0.00406007
0.00341053
0.00337854
0.00394242
0.00380023
0.00345064
0.00372034
0.00339795
0.00417157
0.00304613
0.0046027
0.00323824
0.00399453
0.00285514
0.00335752
0.00356818
0.00366832
0.00286485
0.00303212
0.00423753
0.00376446
0.00478558
0.00432188
0.00552208
0.00512032
0.00674902
0.0065018
0.0100544
0.00713744
0.00293687
0.00281803
0.00281393
0.0028125
0.0028125
0.0028125
0.0028125
0.0028125
0.0028125
0.0028125
0.0028125
0.0028125
0.0028125
0.0028125
0.0028125
0.0028125
0.0028125
0.0028125
0.0028125
0.0028125
0.0028125
0.0028125
0.0028125
0.0028125
0.0028125
0.0028125
0.0028125
0.0028125
0.0028125
0.0028125
0.0028125
0.0028125
0.0028125
0.0028125
0.0028125
0.0028125
0.0028125
0.0028125
0.0028125
0.0028125
0.0028125
0.0028125
0.0028125
0.0028125
0.0028125
0.0028125
0.0028125
0.0028125
0.0028125
0.0028125
0.0028125
0.0028125
0.0028125
0.0028125
0.0028125
0.0028125
0.0028125
0.0028125
0.0028125
0.0028125
0.0028125
0.0028125
0.0028125
0.0028125
0.0028125
0.0028125
0.0028125
0.0028125
0.0028125
0.0028125
0.0028125
0.0028125
0.0028125
0.0028125
0.0028125
0.0028125
0.0028125
0.0028125
0.0028125
0.0028125
0.0028125
0.0028125
0.0028125
0.0028125
0.0028125
0.0028125
0.0028125
0.0028125
0.00281249
0.00281249
0.00281249
0.00281249
0.00281249
0.00281248
0.00281248
0.00281247
0.00281247
0.00281249
0.00281249
0.00281379
0.00281694
0.00298486
0.00689856
0.00857331
0.00658565
0.00614144
0.00567063
0.00533275
0.00507883
0.00474235
0.00469131
0.0042238
0.00459608
0.00435724
0.00379847
0.00398757
0.00348755
0.00383488
0.00371777
0.00431413
0.00343827
0.00364988
0.00394187
0.00360695
0.00336378
0.00332214
0.00427549
0.00381668
0.00350939
0.00368662
0.00339909
0.00361
0.00365974
0.00367855
0.00380106
0.00317177
0.00410239
0.00358182
0.00332803
0.0029495
0.00320334
0.00391626
0.00347151
0.00358491
0.00296874
0.00366231
0.00396955
0.00379097
0.00361299
0.00320606
0.00368552
0.00356087
0.00295049
0.00319516
0.00299836
0.00409995
0.00291323
0.00287425
0.0037248
0.00288964
0.00300244
0.00303126
0.00312021
0.00287817
0.00283632
0.00343329
0.00296637
0.00284631
0.00335628
0.00319102
0.0035054
0.00301216
0.00330913
0.00323928
0.00327388
0.00295778
0.00289108
0.00305825
0.00291824
0.00281907
0.00391529
0.00294439
0.00282916
0.00326612
0.00369972
0.00294019
0.00389711
0.00318023
0.00297103
0.00300372
0.00365018
0.00300016
0.00378677
0.00300197
0.00305698
0.00302894
0.00282904
0.00352874
0.00337615
0.00351663
0.00304828
0.00356269
0.00317992
0.0030489
0.0033147
0.00295529
0.00295636
0.00339427
0.00307159
0.00287132
0.00285829
0.00362691
0.00349999
0.00310656
0.00329417
0.00367115
0.00346837
0.00348234
0.00330339
0.00345455
0.00306679
0.00395898
0.0034437
0.00299875
0.00289319
0.00289866
0.00344872
0.00320567
0.00323643
0.00361457
0.00334457
0.00392634
0.00329989
0.00326136
0.0036264
0.00361732
0.00306377
0.00331401
0.00389612
0.00289505
0.00426143
0.00289163
0.00382869
0.00286595
0.00294897
0.00312434
0.00362695
0.00336785
0.00306798
0.00446987
0.00372151
0.00337675
0.00386878
0.00330318
0.00296991
0.00315472
0.00293451
0.0029204
0.00348637
0.003155
0.00374582
0.00392151
0.00424032
0.00356834
0.00450742
0.00314763
0.00319276
0.00362452
0.00322563
0.00296094
0.00325865
0.00400242
0.00335979
0.00333004
0.00387924
0.00373914
0.00339779
0.00366835
0.00334152
0.00411173
0.00298625
0.00454852
0.00327631
0.00396268
0.00284513
0.00333068
0.00352163
0.00362614
0.00285166
0.00305315
0.004211
0.00379189
0.00476146
0.00435275
0.0054963
0.00515957
0.00671702
0.00658099
0.00995719
0.00709477
0.00298962
0.00281657
0.00281489
0.0028125
0.0028125
0.0028125
0.0028125
0.0028125
0.0028125
0.0028125
0.0028125
0.0028125
0.0028125
0.0028125
0.0028125
0.0028125
0.0028125
0.0028125
0.0028125
0.0028125
0.0028125
0.0028125
0.0028125
0.0028125
0.0028125
0.0028125
0.0028125
0.0028125
0.0028125
0.0028125
0.0028125
0.0028125
0.0028125
0.0028125
0.0028125
0.0028125
0.0028125
0.0028125
0.0028125
0.0028125
0.0028125
0.0028125
0.0028125
0.0028125
0.0028125
0.0028125
0.0028125
0.0028125
0.0028125
0.0028125
0.0028125
0.0028125
0.0028125
0.0028125
0.0028125
0.0028125
0.0028125
0.0028125
0.0028125
0.0028125
0.0028125
0.0028125
0.0028125
0.0028125
0.0028125
0.0028125
0.0028125
0.0028125
0.0028125
0.0028125
0.0028125
0.0028125
0.0028125
0.0028125
0.0028125
0.0028125
0.0028125
0.0028125
0.0028125
0.0028125
0.0028125
0.0028125
0.0028125
0.0028125
0.0028125
0.0028125
0.0028125
0.0028125
0.00281249
0.00281249
0.00281249
0.00281249
0.00281248
0.00281248
0.00281248
0.00281248
0.00281249
0.00281255
0.00281264
0.00281444
0.00281386
0.00303975
0.00684341
0.00851286
0.00662211
0.00614096
0.00567617
0.00533634
0.00507936
0.00474952
0.00468571
0.00424105
0.00458613
0.00435325
0.00381452
0.00397628
0.00350446
0.00382661
0.00373471
0.00426906
0.00337816
0.00362908
0.00393722
0.00359314
0.00332572
0.00332252
0.00421836
0.00374528
0.00345084
0.00363359
0.00334889
0.00355778
0.00363461
0.00365086
0.00374758
0.00311793
0.00403823
0.00352346
0.00329606
0.00294642
0.0031765
0.0038595
0.00341598
0.00354629
0.00293652
0.00365543
0.00396502
0.00379393
0.00359413
0.00316422
0.00363586
0.00351745
0.00292727
0.00317975
0.00301398
0.00405955
0.00288905
0.00289502
0.00369824
0.00291182
0.00299592
0.0030291
0.00311888
0.00288505
0.00284898
0.00341788
0.00297764
0.00284172
0.00334651
0.00320317
0.0034942
0.00301005
0.00329825
0.00324392
0.00327024
0.00296629
0.00289022
0.00304819
0.00291206
0.00283151
0.00388069
0.00296285
0.00282315
0.00323711
0.00365984
0.00290441
0.00386428
0.00319182
0.00297857
0.0029877
0.00362084
0.00302991
0.00376305
0.00301441
0.0030435
0.00302041
0.00284161
0.00351947
0.00338749
0.00350065
0.00304507
0.00353941
0.00314995
0.00302669
0.00329286
0.0029435
0.00296648
0.00337405
0.00305419
0.00286919
0.00287264
0.00358685
0.003456
0.00307705
0.00325747
0.00364776
0.00347487
0.0034804
0.00328519
0.00341903
0.00302679
0.00390249
0.0034003
0.00298048
0.00288731
0.0029097
0.00342427
0.00317276
0.00319893
0.00357158
0.00329062
0.00387048
0.00327162
0.00327322
0.00362369
0.00360226
0.00303262
0.00327122
0.0038515
0.00285106
0.00421113
0.00293466
0.00379038
0.00285043
0.00295181
0.00313008
0.00359403
0.00333191
0.00301871
0.00438896
0.00365118
0.00331878
0.0038284
0.00330988
0.00297935
0.0031502
0.00293894
0.00292934
0.0034709
0.00317558
0.00369793
0.00383829
0.00415569
0.00348509
0.00442591
0.00309731
0.00315773
0.00359659
0.00322593
0.00294084
0.00321932
0.00394276
0.00330803
0.00328091
0.00381415
0.00367654
0.00334414
0.00361506
0.00328371
0.00405023
0.00292458
0.00449263
0.00331508
0.00392941
0.00283491
0.00330251
0.00347327
0.00358234
0.00283863
0.00307396
0.00418329
0.00381952
0.00473663
0.00438402
0.00546996
0.00519932
0.00668507
0.00665976
0.0098524
0.00705131
0.00304668
0.00281313
0.00281617
0.0028125
0.0028125
0.0028125
0.0028125
0.0028125
0.0028125
0.0028125
0.0028125
0.0028125
0.0028125
0.0028125
0.0028125
0.0028125
0.0028125
0.0028125
0.0028125
0.0028125
0.0028125
0.0028125
0.0028125
0.0028125
0.0028125
0.0028125
0.0028125
0.0028125
0.0028125
0.0028125
0.0028125
0.0028125
0.0028125
0.0028125
0.0028125
0.0028125
0.0028125
0.0028125
0.0028125
0.0028125
0.0028125
0.0028125
0.0028125
0.0028125
0.0028125
0.0028125
0.0028125
0.0028125
0.0028125
0.0028125
0.0028125
0.0028125
0.0028125
0.0028125
0.0028125
0.0028125
0.0028125
0.0028125
0.0028125
0.0028125
0.0028125
0.0028125
0.0028125
0.0028125
0.0028125
0.0028125
0.0028125
0.0028125
0.0028125
0.0028125
0.0028125
0.0028125
0.0028125
0.0028125
0.0028125
0.0028125
0.0028125
0.0028125
0.0028125
0.0028125
0.0028125
0.0028125
0.0028125
0.0028125
0.0028125
0.0028125
0.0028125
0.0028125
0.00281249
0.00281249
0.00281249
0.00281249
0.00281249
0.00281249
0.00281249
0.0028125
0.00281254
0.00281265
0.00281289
0.00281527
0.00280992
0.00309718
0.00678726
0.00844793
0.00665705
0.00614129
0.00568178
0.00534019
0.00508019
0.00475694
0.00468072
0.00425918
0.00457598
0.00434823
0.00383056
0.003965
0.00352134
0.00381863
0.00375108
0.00422349
0.00331667
0.003609
0.00393118
0.00357922
0.0032862
0.00332295
0.00416001
0.00367365
0.00339282
0.00358084
0.00329887
0.00350514
0.00360952
0.00362238
0.00369387
0.00306468
0.00397416
0.00346486
0.00326417
0.00294342
0.00314994
0.0038025
0.00336054
0.00350838
0.00290364
0.00364886
0.0039598
0.00379597
0.00357553
0.00312208
0.00358612
0.00347418
0.00290482
0.00316387
0.00302945
0.00401804
0.00286517
0.00291536
0.00367138
0.00293398
0.00298996
0.00302698
0.00311745
0.00289188
0.00286185
0.00340205
0.00298845
0.00283723
0.00333668
0.00321533
0.00348278
0.00300797
0.00328699
0.00324756
0.00326598
0.00297452
0.00288989
0.00303818
0.00290703
0.00285579
0.00384502
0.00298053
0.00282656
0.00320792
0.00361994
0.00286949
0.00383097
0.00320327
0.00298592
0.00297188
0.00359072
0.00305927
0.00373948
0.00302758
0.00302916
0.00301147
0.00285449
0.0035101
0.0033984
0.00348433
0.00304214
0.00351601
0.00311944
0.00300462
0.00327058
0.00293155
0.00297577
0.00335339
0.00303651
0.00286746
0.00288603
0.00354593
0.00341126
0.0030482
0.00321992
0.00362432
0.0034808
0.00347773
0.00326694
0.0033833
0.00298691
0.00384457
0.0033566
0.00296249
0.00288141
0.00292157
0.00340038
0.00313971
0.00316115
0.00352878
0.00323587
0.00381385
0.00324411
0.00328495
0.00362108
0.00358736
0.0030016
0.00322775
0.003807
0.0028585
0.00416049
0.00297723
0.00375158
0.00283618
0.00295437
0.00313439
0.00355952
0.00329649
0.00297015
0.00430697
0.00358152
0.00326065
0.00378749
0.00331497
0.00298874
0.00314574
0.00294323
0.00293761
0.00345496
0.003195
0.0036505
0.00375406
0.00407138
0.00340252
0.00434369
0.0030475
0.00312267
0.00356786
0.00322573
0.00292059
0.00317993
0.00388227
0.00325633
0.00323221
0.00374839
0.00361387
0.00329103
0.00356187
0.00322621
0.00398853
0.00286263
0.004436
0.00335281
0.00389532
0.00282458
0.00327387
0.00342391
0.00353761
0.00282937
0.00309373
0.00415485
0.00384631
0.00471153
0.00441463
0.00544357
0.00523836
0.00665389
0.0067358
0.0097419
0.00700709
0.0031067
0.00281042
0.00281782
0.0028125
0.0028125
0.0028125
0.0028125
0.0028125
0.0028125
0.0028125
0.0028125
0.0028125
0.0028125
0.0028125
0.0028125
0.0028125
0.0028125
0.0028125
0.0028125
0.0028125
0.0028125
0.0028125
0.0028125
0.0028125
0.0028125
0.0028125
0.0028125
0.0028125
0.0028125
0.0028125
0.0028125
0.0028125
0.0028125
0.0028125
0.0028125
0.0028125
0.0028125
0.0028125
0.0028125
0.0028125
0.0028125
0.0028125
0.0028125
0.0028125
0.0028125
0.0028125
0.0028125
0.0028125
0.0028125
0.0028125
0.0028125
0.0028125
0.0028125
0.0028125
0.0028125
0.0028125
0.0028125
0.0028125
0.0028125
0.0028125
0.0028125
0.0028125
0.0028125
0.0028125
0.0028125
0.0028125
0.0028125
0.0028125
0.0028125
0.0028125
0.0028125
0.0028125
0.0028125
0.0028125
0.0028125
0.0028125
0.0028125
0.0028125
0.0028125
0.0028125
0.0028125
0.0028125
0.0028125
0.0028125
0.0028125
0.0028125
0.0028125
0.0028125
0.00281249
0.00281249
0.00281249
0.00281249
0.00281249
0.0028125
0.00281251
0.00281254
0.00281261
0.0028128
0.00281326
0.00281632
0.00281047
0.003156
0.00673072
0.00837957
0.00668987
0.00614239
0.00568717
0.0053439
0.00508087
0.00476396
0.0046757
0.00427723
0.00456577
0.00434248
0.0038467
0.00395428
0.00353815
0.00381122
0.0037665
0.00417887
0.0032557
0.0035906
0.00392424
0.00356595
0.0032461
0.00332333
0.00410186
0.00360382
0.00333726
0.00353022
0.00325075
0.00345335
0.00358484
0.00359382
0.0036413
0.00301354
0.00391189
0.00340759
0.00323339
0.00294072
0.00312383
0.00374618
0.00330668
0.00347276
0.00287123
0.00364309
0.00395404
0.00379724
0.00355793
0.00308131
0.00353765
0.00343168
0.00288361
0.00314796
0.00304511
0.00397666
0.00284312
0.00293539
0.00364498
0.00295561
0.0029844
0.003025
0.00311636
0.00289912
0.00287517
0.00338679
0.00299933
0.00283805
0.00332715
0.00322704
0.00347119
0.00300633
0.00327659
0.00325153
0.00326228
0.00298289
0.00288981
0.00302802
0.00290318
0.00288025
0.00381006
0.00299857
0.00284029
0.00317949
0.00358062
0.00284762
0.00379787
0.00321477
0.00299394
0.00295749
0.00356125
0.00308804
0.00371634
0.00304122
0.00301469
0.00300342
0.00286872
0.00350165
0.00340904
0.00346795
0.00303912
0.003493
0.00308996
0.00298481
0.00324967
0.00292063
0.00298449
0.00333275
0.00301915
0.00286662
0.00289927
0.00350627
0.00336838
0.00302183
0.00318274
0.00360124
0.00348581
0.00347444
0.0032497
0.00334946
0.00294981
0.00378814
0.00331445
0.00294576
0.0028754
0.00293322
0.00337741
0.00310819
0.00312559
0.00348887
0.00318315
0.00375824
0.003218
0.00329615
0.00361822
0.00357297
0.00297236
0.00318627
0.00376529
0.00291335
0.00411081
0.00301811
0.00371274
0.00282343
0.00295778
0.00313902
0.00352564
0.00326321
0.00292381
0.00422592
0.00351453
0.0032043
0.00374772
0.00331926
0.00299837
0.00314185
0.0029481
0.00294596
0.00343973
0.00321358
0.00360522
0.00367146
0.00398992
0.00332262
0.00426314
0.00300073
0.00308976
0.00353987
0.00322572
0.00290152
0.0031426
0.00382353
0.00320723
0.00318624
0.00368442
0.00355319
0.00324008
0.00351063
0.00317121
0.00392948
0.00284954
0.00438185
0.00339047
0.00386239
0.00281501
0.00324639
0.00337594
0.00349448
0.00283339
0.00311386
0.0041279
0.00387337
0.00468827
0.00444559
0.00541928
0.00527752
0.00662573
0.0068091
0.00962863
0.0069631
0.00316886
0.00281285
0.0028199
0.0028125
0.0028125
0.0028125
0.0028125
0.0028125
0.0028125
0.0028125
0.0028125
0.0028125
0.0028125
0.0028125
0.0028125
0.0028125
0.0028125
0.0028125
0.0028125
0.0028125
0.0028125
0.0028125
0.0028125
0.0028125
0.0028125
0.0028125
0.0028125
0.0028125
0.0028125
0.0028125
0.0028125
0.0028125
0.0028125
0.0028125
0.0028125
0.0028125
0.0028125
0.0028125
0.0028125
0.0028125
0.0028125
0.0028125
0.0028125
0.0028125
0.0028125
0.0028125