/*--------------------------------*- C++ -*----------------------------------*\
| =========                 |                                                 |
| \\      /  F ield         | foam-extend: Open Source CFD                    |
|  \\    /   O peration     | Version:     3.2                                |
|   \\  /    A nd           | Web:         http://www.foam-extend.org         |
|    \\/     M anipulation  | For copyright notice see file Copyright         |
\*---------------------------------------------------------------------------*/
FoamFile
{
    version     2.0;
    format      ascii;
    class       surfaceScalarField;
    location    "83";
    object      AdSS2;
}
// * * * * * * * * * * * * * * * * * * * * * * * * * * * * * * * * * * * * * //

dimensions      [0 3 -1 0 0 0 0];

internalField   nonuniform List<scalar> 
10482
(
9.23846e-06
1.0022e-05
6.60185e-06
3.13747e-07
6.26661e-06
-1.98761e-06
6.22713e-06
-2.28338e-06
6.20453e-06
-2.30026e-06
6.16333e-06
-2.28166e-06
6.14746e-06
-2.30699e-06
6.12847e-06
-2.30387e-06
6.12755e-06
-2.32194e-06
6.12616e-06
-2.32147e-06
6.13411e-06
-2.33081e-06
6.14145e-06
-2.3302e-06
6.15637e-06
-2.33778e-06
6.17125e-06
-2.33775e-06
6.18931e-06
-2.34092e-06
6.20896e-06
-2.34251e-06
6.23063e-06
-2.34453e-06
6.25273e-06
-2.34496e-06
6.27646e-06
-2.3466e-06
6.3021e-06
-2.3485e-06
6.32886e-06
-2.34962e-06
6.35626e-06
-2.35027e-06
6.3844e-06
-2.35099e-06
6.41284e-06
-2.35131e-06
6.44179e-06
-2.35182e-06
6.4699e-06
-2.35096e-06
6.4952e-06
-2.34817e-06
6.51682e-06
-2.34448e-06
6.53502e-06
-2.34106e-06
6.55021e-06
-2.33805e-06
6.56288e-06
-2.33554e-06
6.57341e-06
-2.33339e-06
6.58217e-06
-2.33162e-06
6.58945e-06
-2.33013e-06
6.5955e-06
-2.32892e-06
6.60054e-06
-2.3279e-06
6.60475e-06
-2.32707e-06
6.60828e-06
-2.32638e-06
6.61124e-06
-2.32582e-06
6.61373e-06
-2.32536e-06
6.61584e-06
-2.32497e-06
6.61763e-06
-2.32465e-06
6.61918e-06
-2.32441e-06
6.6205e-06
-2.32418e-06
6.62161e-06
-2.32397e-06
6.62253e-06
-2.32379e-06
6.62333e-06
-2.32366e-06
6.62401e-06
-2.32355e-06
6.62461e-06
-2.32346e-06
6.62512e-06
-2.32338e-06
6.62557e-06
-2.32331e-06
6.62596e-06
-2.32325e-06
6.6263e-06
-2.3232e-06
6.6266e-06
-2.32316e-06
6.62686e-06
-2.32312e-06
6.62708e-06
-2.32309e-06
6.62728e-06
-2.32306e-06
6.62745e-06
-2.32303e-06
6.62759e-06
-2.32301e-06
6.62772e-06
-2.32299e-06
6.62783e-06
-2.32297e-06
6.62793e-06
-2.32296e-06
6.62801e-06
-2.32295e-06
6.62808e-06
-2.32293e-06
6.62815e-06
-2.32292e-06
6.6282e-06
-2.32292e-06
6.62825e-06
-2.32291e-06
6.62829e-06
-2.3229e-06
6.62832e-06
-2.3229e-06
6.62835e-06
-2.32289e-06
6.62838e-06
-2.32289e-06
6.6284e-06
-2.32288e-06
6.62842e-06
-2.32288e-06
6.62844e-06
-2.32288e-06
6.62845e-06
-2.32288e-06
6.62847e-06
-2.32287e-06
6.62848e-06
-2.32287e-06
6.62849e-06
-2.32287e-06
6.62849e-06
-2.32287e-06
6.6285e-06
-2.32287e-06
6.62851e-06
-2.32287e-06
6.62851e-06
-2.32287e-06
6.62852e-06
-2.32287e-06
6.62852e-06
-2.32287e-06
6.62852e-06
-2.32287e-06
6.62853e-06
-2.32286e-06
6.62853e-06
-2.32286e-06
6.62853e-06
-2.32286e-06
6.62853e-06
-2.32286e-06
6.62853e-06
-2.32286e-06
6.62854e-06
-2.32286e-06
6.62854e-06
-2.32286e-06
6.62854e-06
-2.32286e-06
6.62854e-06
-2.32286e-06
6.62854e-06
-2.32286e-06
6.62854e-06
-2.32286e-06
6.62854e-06
-2.32286e-06
6.62854e-06
-2.32286e-06
6.62854e-06
-2.32286e-06
6.62854e-06
-2.32286e-06
6.62854e-06
-2.32286e-06
6.62854e-06
-2.32286e-06
6.62854e-06
-2.32286e-06
6.62854e-06
-2.32286e-06
6.62854e-06
-2.32286e-06
6.62854e-06
-2.32286e-06
6.62854e-06
-2.32286e-06
6.62854e-06
-2.32286e-06
6.62854e-06
-2.32286e-06
6.62854e-06
-2.32286e-06
6.62854e-06
-2.32286e-06
6.62854e-06
-2.32286e-06
6.62854e-06
-2.32286e-06
6.62854e-06
-2.32286e-06
6.62854e-06
-2.32286e-06
6.62854e-06
-2.32286e-06
6.62854e-06
-2.32286e-06
6.62854e-06
-2.32286e-06
6.62854e-06
-2.32286e-06
6.62854e-06
-2.32286e-06
6.62854e-06
-2.32286e-06
6.62854e-06
-2.32286e-06
6.62854e-06
-2.32286e-06
6.62854e-06
-2.32286e-06
6.62854e-06
-2.32286e-06
6.62854e-06
-2.32286e-06
6.62854e-06
-2.32286e-06
6.62854e-06
-2.32286e-06
6.62854e-06
-2.32286e-06
6.62854e-06
-2.32286e-06
6.62854e-06
-2.32286e-06
6.62854e-06
-2.32286e-06
6.62854e-06
-2.32286e-06
6.62854e-06
-2.32286e-06
6.62854e-06
-2.32286e-06
6.62854e-06
-2.32286e-06
6.62854e-06
-2.32286e-06
6.62854e-06
-2.32286e-06
6.62854e-06
-2.32286e-06
6.62854e-06
-2.32286e-06
6.62854e-06
-2.32286e-06
6.62854e-06
-2.32286e-06
6.62854e-06
-2.32286e-06
6.62854e-06
-2.32286e-06
6.62854e-06
-2.32286e-06
6.62854e-06
-2.32286e-06
6.62854e-06
-2.32286e-06
6.62854e-06
-2.32286e-06
6.62854e-06
-2.32286e-06
6.62854e-06
-2.32286e-06
6.62854e-06
-2.32286e-06
6.62854e-06
-2.32286e-06
6.62854e-06
-2.32286e-06
6.62854e-06
-2.32286e-06
6.62854e-06
-2.32286e-06
6.62854e-06
-2.32286e-06
6.62854e-06
-2.32286e-06
6.62854e-06
-2.32286e-06
6.62854e-06
-2.32286e-06
6.62854e-06
-2.32286e-06
6.62854e-06
-2.32286e-06
6.62854e-06
-2.32286e-06
6.62854e-06
-2.32286e-06
6.62854e-06
-2.32286e-06
6.62854e-06
-2.32286e-06
6.62854e-06
-2.32286e-06
6.62854e-06
-2.32286e-06
6.62854e-06
-2.32286e-06
6.62854e-06
-2.32286e-06
6.62854e-06
-2.32286e-06
6.62854e-06
-2.32286e-06
6.62854e-06
-2.32286e-06
6.62854e-06
-2.32286e-06
6.62854e-06
-2.32286e-06
6.62854e-06
-2.32286e-06
6.62854e-06
-2.32286e-06
6.62854e-06
-2.32286e-06
6.62854e-06
-2.32286e-06
6.62854e-06
-2.32286e-06
6.62854e-06
-2.32286e-06
6.62854e-06
-2.32286e-06
6.62854e-06
-2.32286e-06
6.62854e-06
-2.32286e-06
6.62854e-06
-2.32286e-06
6.62854e-06
-2.32286e-06
6.62854e-06
-2.32286e-06
6.62854e-06
-2.32286e-06
6.62854e-06
-2.32286e-06
6.62854e-06
-2.32286e-06
6.62854e-06
-2.32286e-06
6.62854e-06
-2.32286e-06
6.62854e-06
-2.32286e-06
6.62854e-06
-2.32286e-06
6.62854e-06
-2.32286e-06
6.62854e-06
-2.32286e-06
6.62854e-06
-2.32286e-06
6.62854e-06
-2.32286e-06
6.62854e-06
-2.32286e-06
6.62854e-06
-2.32286e-06
6.62854e-06
-2.32286e-06
6.62854e-06
-2.32286e-06
6.62854e-06
-2.32286e-06
6.62854e-06
-2.32286e-06
6.62854e-06
-2.32286e-06
6.62854e-06
-2.32286e-06
6.62854e-06
-2.32286e-06
6.62854e-06
-2.32286e-06
6.62854e-06
-2.32286e-06
6.62854e-06
-2.32286e-06
6.62854e-06
-2.32286e-06
6.62854e-06
-2.32286e-06
6.62854e-06
-2.32286e-06
6.62854e-06
-2.32286e-06
6.62854e-06
-2.32286e-06
6.62854e-06
-2.32286e-06
6.62854e-06
-2.32286e-06
6.62854e-06
-2.32286e-06
6.62854e-06
-2.32286e-06
6.62854e-06
-2.32286e-06
6.62854e-06
-2.32286e-06
6.62854e-06
-2.32286e-06
6.62854e-06
-2.32286e-06
6.62854e-06
-2.32286e-06
6.62854e-06
-2.32286e-06
6.62854e-06
-2.32286e-06
6.62854e-06
-2.32286e-06
6.62854e-06
-2.32286e-06
6.62854e-06
-2.32286e-06
6.62854e-06
-2.32286e-06
6.62854e-06
-2.32286e-06
6.62854e-06
-2.32286e-06
6.62854e-06
-2.32286e-06
6.62854e-06
-2.32286e-06
6.62854e-06
-2.32286e-06
6.62854e-06
-2.32286e-06
6.62854e-06
-2.32286e-06
6.62854e-06
-2.32286e-06
6.62854e-06
-2.32286e-06
6.62854e-06
-2.32286e-06
6.62854e-06
-2.32286e-06
6.62854e-06
-2.32286e-06
6.62854e-06
-2.32286e-06
6.62854e-06
-2.32286e-06
6.62854e-06
-2.32286e-06
6.62854e-06
-2.32286e-06
6.62854e-06
-2.32286e-06
6.62854e-06
-2.32286e-06
6.62854e-06
-2.32286e-06
6.62854e-06
-2.32286e-06
6.62854e-06
-2.32286e-06
6.62854e-06
-2.32286e-06
6.62854e-06
-2.32286e-06
6.62854e-06
-2.32286e-06
6.62854e-06
-2.32286e-06
6.62854e-06
-2.32286e-06
6.62854e-06
-2.32286e-06
6.62854e-06
-2.32286e-06
6.62854e-06
-2.32286e-06
6.62854e-06
-2.32286e-06
6.62854e-06
-2.32286e-06
6.62854e-06
-2.32286e-06
6.62854e-06
-2.32286e-06
6.62854e-06
-2.32286e-06
6.62854e-06
-2.32286e-06
6.62854e-06
-2.32286e-06
6.62854e-06
-2.32286e-06
6.62854e-06
-2.32286e-06
6.62854e-06
-2.32286e-06
6.62854e-06
-2.32286e-06
6.62854e-06
-2.32286e-06
6.62854e-06
-2.32286e-06
6.62854e-06
-2.32286e-06
6.62854e-06
-2.32286e-06
6.62854e-06
-2.32286e-06
6.62854e-06
-2.32286e-06
6.62854e-06
-2.32286e-06
6.62854e-06
-2.32286e-06
6.62854e-06
-2.32286e-06
6.62854e-06
-2.32286e-06
6.62854e-06
-2.32286e-06
6.62854e-06
-2.32286e-06
6.62854e-06
-2.32286e-06
6.62854e-06
-2.32286e-06
6.62854e-06
-2.32286e-06
6.62854e-06
-2.32286e-06
6.62854e-06
-2.32286e-06
6.62854e-06
-2.32286e-06
6.62854e-06
-2.32286e-06
6.62854e-06
-2.32286e-06
6.62854e-06
-2.32286e-06
6.62854e-06
-2.32286e-06
6.62854e-06
-2.32286e-06
6.62854e-06
-2.32286e-06
6.62854e-06
-2.32286e-06
6.62854e-06
-2.32286e-06
6.62854e-06
-2.32286e-06
6.62854e-06
-2.32286e-06
6.62855e-06
-2.32287e-06
6.62855e-06
-2.32286e-06
-2.32285e-06
1.62237e-05
1.53817e-05
1.34998e-05
3.03759e-06
1.25624e-05
-1.05022e-06
1.23086e-05
-2.02955e-06
1.21315e-05
-2.12315e-06
1.19977e-05
-2.1479e-06
1.19146e-05
-2.22387e-06
1.18605e-05
-2.2498e-06
1.18329e-05
-2.29429e-06
1.18226e-05
-2.3112e-06
1.18242e-05
-2.33237e-06
1.18328e-05
-2.33882e-06
1.18525e-05
-2.35752e-06
1.18757e-05
-2.36097e-06
1.19054e-05
-2.37056e-06
1.19391e-05
-2.37618e-06
1.19769e-05
-2.38237e-06
1.20168e-05
-2.38484e-06
1.20591e-05
-2.38897e-06
1.21054e-05
-2.39481e-06
1.21543e-05
-2.39844e-06
1.22048e-05
-2.40084e-06
1.22569e-05
-2.40307e-06
1.231e-05
-2.40441e-06
1.23645e-05
-2.40631e-06
1.24177e-05
-2.40416e-06
1.24659e-05
-2.39637e-06
1.25077e-05
-2.38629e-06
1.25434e-05
-2.37678e-06
1.25737e-05
-2.3683e-06
1.25992e-05
-2.36107e-06
1.26207e-05
-2.35484e-06
1.26387e-05
-2.34961e-06
1.26537e-05
-2.34518e-06
1.26663e-05
-2.34151e-06
1.26768e-05
-2.33843e-06
1.26856e-05
-2.3359e-06
1.2693e-05
-2.33379e-06
1.26993e-05
-2.33205e-06
1.27045e-05
-2.33061e-06
1.2709e-05
-2.32941e-06
1.27127e-05
-2.32843e-06
1.2716e-05
-2.32766e-06
1.27188e-05
-2.32696e-06
1.27211e-05
-2.32631e-06
1.27231e-05
-2.32574e-06
1.27247e-05
-2.32533e-06
1.27262e-05
-2.32498e-06
1.27274e-05
-2.3247e-06
1.27285e-05
-2.32445e-06
1.27294e-05
-2.32425e-06
1.27302e-05
-2.32406e-06
1.27309e-05
-2.32391e-06
1.27316e-05
-2.32377e-06
1.27321e-05
-2.32365e-06
1.27325e-05
-2.32355e-06
1.27329e-05
-2.32346e-06
1.27333e-05
-2.32338e-06
1.27336e-05
-2.32331e-06
1.27339e-05
-2.32325e-06
1.27341e-05
-2.3232e-06
1.27343e-05
-2.32315e-06
1.27345e-05
-2.32312e-06
1.27346e-05
-2.32308e-06
1.27347e-05
-2.32305e-06
1.27348e-05
-2.32303e-06
1.27349e-05
-2.323e-06
1.2735e-05
-2.32299e-06
1.27351e-05
-2.32297e-06
1.27352e-05
-2.32295e-06
1.27352e-05
-2.32294e-06
1.27353e-05
-2.32293e-06
1.27353e-05
-2.32292e-06
1.27353e-05
-2.32291e-06
1.27354e-05
-2.32291e-06
1.27354e-05
-2.3229e-06
1.27354e-05
-2.32289e-06
1.27354e-05
-2.32289e-06
1.27354e-05
-2.32289e-06
1.27355e-05
-2.32288e-06
1.27355e-05
-2.32288e-06
1.27355e-05
-2.32288e-06
1.27355e-05
-2.32288e-06
1.27355e-05
-2.32287e-06
1.27355e-05
-2.32287e-06
1.27355e-05
-2.32287e-06
1.27355e-05
-2.32287e-06
1.27355e-05
-2.32287e-06
1.27355e-05
-2.32287e-06
1.27355e-05
-2.32287e-06
1.27355e-05
-2.32287e-06
1.27355e-05
-2.32287e-06
1.27355e-05
-2.32286e-06
1.27355e-05
-2.32286e-06
1.27355e-05
-2.32286e-06
1.27355e-05
-2.32286e-06
1.27355e-05
-2.32286e-06
1.27355e-05
-2.32286e-06
1.27355e-05
-2.32286e-06
1.27355e-05
-2.32286e-06
1.27355e-05
-2.32286e-06
1.27355e-05
-2.32286e-06
1.27355e-05
-2.32286e-06
1.27355e-05
-2.32286e-06
1.27355e-05
-2.32286e-06
1.27355e-05
-2.32286e-06
1.27355e-05
-2.32286e-06
1.27355e-05
-2.32286e-06
1.27355e-05
-2.32286e-06
1.27355e-05
-2.32286e-06
1.27355e-05
-2.32286e-06
1.27355e-05
-2.32286e-06
1.27355e-05
-2.32286e-06
1.27355e-05
-2.32286e-06
1.27355e-05
-2.32286e-06
1.27355e-05
-2.32286e-06
1.27355e-05
-2.32286e-06
1.27355e-05
-2.32286e-06
1.27355e-05
-2.32286e-06
1.27355e-05
-2.32286e-06
1.27355e-05
-2.32286e-06
1.27355e-05
-2.32286e-06
1.27355e-05
-2.32286e-06
1.27355e-05
-2.32286e-06
1.27355e-05
-2.32286e-06
1.27355e-05
-2.32286e-06
1.27355e-05
-2.32286e-06
1.27355e-05
-2.32286e-06
1.27355e-05
-2.32286e-06
1.27355e-05
-2.32286e-06
1.27355e-05
-2.32286e-06
1.27355e-05
-2.32286e-06
1.27355e-05
-2.32286e-06
1.27355e-05
-2.32286e-06
1.27355e-05
-2.32286e-06
1.27355e-05
-2.32286e-06
1.27355e-05
-2.32286e-06
1.27355e-05
-2.32286e-06
1.27355e-05
-2.32286e-06
1.27355e-05
-2.32286e-06
1.27355e-05
-2.32286e-06
1.27355e-05
-2.32286e-06
1.27355e-05
-2.32286e-06
1.27355e-05
-2.32286e-06
1.27355e-05
-2.32286e-06
1.27355e-05
-2.32286e-06
1.27355e-05
-2.32286e-06
1.27355e-05
-2.32286e-06
1.27355e-05
-2.32286e-06
1.27355e-05
-2.32286e-06
1.27355e-05
-2.32286e-06
1.27355e-05
-2.32286e-06
1.27355e-05
-2.32286e-06
1.27355e-05
-2.32286e-06
1.27355e-05
-2.32286e-06
1.27355e-05
-2.32286e-06
1.27355e-05
-2.32286e-06
1.27355e-05
-2.32286e-06
1.27355e-05
-2.32286e-06
1.27355e-05
-2.32286e-06
1.27355e-05
-2.32286e-06
1.27355e-05
-2.32286e-06
1.27355e-05
-2.32286e-06
1.27355e-05
-2.32286e-06
1.27355e-05
-2.32286e-06
1.27355e-05
-2.32286e-06
1.27355e-05
-2.32286e-06
1.27355e-05
-2.32286e-06
1.27355e-05
-2.32286e-06
1.27355e-05
-2.32286e-06
1.27355e-05
-2.32286e-06
1.27355e-05
-2.32286e-06
1.27355e-05
-2.32286e-06
1.27355e-05
-2.32286e-06
1.27355e-05
-2.32286e-06
1.27355e-05
-2.32286e-06
1.27355e-05
-2.32286e-06
1.27355e-05
-2.32286e-06
1.27355e-05
-2.32286e-06
1.27355e-05
-2.32286e-06
1.27355e-05
-2.32286e-06
1.27355e-05
-2.32286e-06
1.27355e-05
-2.32286e-06
1.27355e-05
-2.32286e-06
1.27355e-05
-2.32286e-06
1.27355e-05
-2.32286e-06
1.27355e-05
-2.32286e-06
1.27355e-05
-2.32286e-06
1.27355e-05
-2.32286e-06
1.27355e-05
-2.32286e-06
1.27355e-05
-2.32286e-06
1.27355e-05
-2.32286e-06
1.27355e-05
-2.32286e-06
1.27355e-05
-2.32286e-06
1.27355e-05
-2.32286e-06
1.27355e-05
-2.32286e-06
1.27355e-05
-2.32286e-06
1.27355e-05
-2.32286e-06
1.27355e-05
-2.32286e-06
1.27355e-05
-2.32286e-06
1.27355e-05
-2.32286e-06
1.27355e-05
-2.32286e-06
1.27355e-05
-2.32286e-06
1.27355e-05
-2.32286e-06
1.27355e-05
-2.32286e-06
1.27355e-05
-2.32286e-06
1.27355e-05
-2.32286e-06
1.27355e-05
-2.32286e-06
1.27355e-05
-2.32286e-06
1.27355e-05
-2.32286e-06
1.27355e-05
-2.32286e-06
1.27355e-05
-2.32286e-06
1.27355e-05
-2.32286e-06
1.27355e-05
-2.32286e-06
1.27355e-05
-2.32286e-06
1.27355e-05
-2.32286e-06
1.27355e-05
-2.32286e-06
1.27355e-05
-2.32286e-06
1.27355e-05
-2.32286e-06
1.27355e-05
-2.32286e-06
1.27355e-05
-2.32286e-06
1.27355e-05
-2.32286e-06
1.27355e-05
-2.32286e-06
1.27355e-05
-2.32286e-06
1.27355e-05
-2.32286e-06
1.27355e-05
-2.32286e-06
1.27355e-05
-2.32286e-06
1.27355e-05
-2.32286e-06
1.27355e-05
-2.32286e-06
1.27355e-05
-2.32286e-06
1.27355e-05
-2.32286e-06
1.27355e-05
-2.32286e-06
1.27355e-05
-2.32286e-06
1.27355e-05
-2.32286e-06
1.27355e-05
-2.32286e-06
1.27355e-05
-2.32286e-06
1.27355e-05
-2.32286e-06
1.27355e-05
-2.32286e-06
1.27355e-05
-2.32286e-06
1.27355e-05
-2.32286e-06
1.27355e-05
-2.32286e-06
1.27355e-05
-2.32286e-06
1.27355e-05
-2.32286e-06
1.27355e-05
-2.32286e-06
1.27355e-05
-2.32286e-06
1.27355e-05
-2.32286e-06
1.27355e-05
-2.32286e-06
1.27355e-05
-2.32286e-06
1.27355e-05
-2.32286e-06
1.27355e-05
-2.32286e-06
1.27355e-05
-2.32286e-06
1.27355e-05
-2.32286e-06
1.27355e-05
-2.32286e-06
1.27355e-05
-2.32286e-06
1.27355e-05
-2.32286e-06
1.27355e-05
-2.32286e-06
1.27355e-05
-2.32286e-06
1.27355e-05
-2.32286e-06
1.27355e-05
-2.32286e-06
1.27355e-05
-2.32286e-06
1.27355e-05
-2.32286e-06
1.27355e-05
-2.32286e-06
1.27355e-05
-2.32286e-06
1.27355e-05
-2.32286e-06
1.27355e-05
-2.32286e-06
1.27355e-05
-2.32286e-06
1.27355e-05
-2.32286e-06
1.27355e-05
-2.32286e-06
1.27355e-05
-2.32286e-06
1.27355e-05
-2.32286e-06
1.27355e-05
-2.32286e-06
1.27355e-05
-2.32286e-06
1.27355e-05
-2.32286e-06
1.27355e-05
-2.32286e-06
1.27355e-05
-2.32286e-06
1.27355e-05
-2.32286e-06
1.27355e-05
-2.32286e-06
1.27355e-05
-2.32286e-06
1.27355e-05
-2.32286e-06
1.27355e-05
-2.32286e-06
1.27355e-05
-2.32286e-06
1.27355e-05
-2.32286e-06
1.27355e-05
-2.32286e-06
1.27355e-05
-2.32286e-06
1.27355e-05
-2.32286e-06
1.27355e-05
-2.32286e-06
1.27355e-05
-2.32286e-06
1.27355e-05
-2.32286e-06
1.27355e-05
-2.32286e-06
1.27355e-05
-2.32286e-06
1.27355e-05
-2.32286e-06
1.27355e-05
-2.32286e-06
1.27355e-05
-2.32286e-06
1.27355e-05
-2.32286e-06
1.27355e-05
-2.32286e-06
1.27355e-05
-2.32286e-06
1.27355e-05
-2.32286e-06
1.27355e-05
-2.32287e-06
1.27355e-05
-2.32286e-06
-2.32284e-06
1.97368e-05
1.72282e-05
1.7484e-05
5.29034e-06
1.62917e-05
1.42127e-07
1.57655e-05
-1.50339e-06
1.53973e-05
-1.75497e-06
1.51803e-05
-1.93082e-06
1.50332e-05
-2.07685e-06
1.49411e-05
-2.15767e-06
1.48842e-05
-2.23743e-06
1.48575e-05
-2.28445e-06
1.48463e-05
-2.32113e-06
1.48498e-05
-2.34239e-06
1.48656e-05
-2.37333e-06
1.48882e-05
-2.38352e-06
1.49198e-05
-2.40221e-06
1.49571e-05
-2.41349e-06
1.50004e-05
-2.42557e-06
1.5047e-05
-2.43146e-06
1.50967e-05
-2.43874e-06
1.51515e-05
-2.44957e-06
1.52097e-05
-2.45666e-06
1.52705e-05
-2.4616e-06
1.53333e-05
-2.4659e-06
1.53978e-05
-2.46888e-06
1.54642e-05
-2.47269e-06
1.55289e-05
-2.46892e-06
1.55877e-05
-2.45513e-06
1.5639e-05
-2.43766e-06
1.56833e-05
-2.42099e-06
1.5721e-05
-2.40604e-06
1.5753e-05
-2.3931e-06
1.57801e-05
-2.3819e-06
1.58029e-05
-2.3724e-06
1.5822e-05
-2.36433e-06
1.58381e-05
-2.35758e-06
1.58516e-05
-2.35192e-06
1.58629e-05
-2.34722e-06
1.58724e-05
-2.34331e-06
1.58804e-05
-2.34006e-06
1.58872e-05
-2.33737e-06
1.58929e-05
-2.33514e-06
1.58978e-05
-2.33328e-06
1.5902e-05
-2.33183e-06
1.59055e-05
-2.33053e-06
1.59085e-05
-2.32932e-06
1.59111e-05
-2.32826e-06
1.59132e-05
-2.32747e-06
1.5915e-05
-2.32683e-06
1.59166e-05
-2.32629e-06
1.5918e-05
-2.32583e-06
1.59192e-05
-2.32544e-06
1.59202e-05
-2.3251e-06
1.59211e-05
-2.3248e-06
1.59219e-05
-2.32455e-06
1.59226e-05
-2.32433e-06
1.59232e-05
-2.32413e-06
1.59237e-05
-2.32397e-06
1.59241e-05
-2.32382e-06
1.59245e-05
-2.32369e-06
1.59248e-05
-2.32358e-06
1.59251e-05
-2.32349e-06
1.59254e-05
-2.3234e-06
1.59256e-05
-2.32333e-06
1.59258e-05
-2.32327e-06
1.59259e-05
-2.32321e-06
1.59261e-05
-2.32317e-06
1.59262e-05
-2.32313e-06
1.59263e-05
-2.32309e-06
1.59264e-05
-2.32306e-06
1.59265e-05
-2.32303e-06
1.59265e-05
-2.32301e-06
1.59266e-05
-2.32299e-06
1.59267e-05
-2.32297e-06
1.59267e-05
-2.32296e-06
1.59267e-05
-2.32294e-06
1.59268e-05
-2.32293e-06
1.59268e-05
-2.32292e-06
1.59268e-05
-2.32291e-06
1.59268e-05
-2.32291e-06
1.59269e-05
-2.3229e-06
1.59269e-05
-2.3229e-06
1.59269e-05
-2.32289e-06
1.59269e-05
-2.32289e-06
1.59269e-05
-2.32288e-06
1.59269e-05
-2.32288e-06
1.59269e-05
-2.32288e-06
1.59269e-05
-2.32288e-06
1.59269e-05
-2.32287e-06
1.59269e-05
-2.32287e-06
1.59269e-05
-2.32287e-06
1.59269e-05
-2.32287e-06
1.5927e-05
-2.32287e-06
1.5927e-05
-2.32287e-06
1.5927e-05
-2.32287e-06
1.5927e-05
-2.32287e-06
1.5927e-05
-2.32287e-06
1.5927e-05
-2.32287e-06
1.5927e-05
-2.32286e-06
1.5927e-05
-2.32286e-06
1.5927e-05
-2.32286e-06
1.5927e-05
-2.32286e-06
1.5927e-05
-2.32286e-06
1.5927e-05
-2.32286e-06
1.5927e-05
-2.32286e-06
1.5927e-05
-2.32286e-06
1.5927e-05
-2.32286e-06
1.5927e-05
-2.32286e-06
1.5927e-05
-2.32286e-06
1.5927e-05
-2.32286e-06
1.5927e-05
-2.32286e-06
1.5927e-05
-2.32286e-06
1.5927e-05
-2.32286e-06
1.5927e-05
-2.32286e-06
1.5927e-05
-2.32286e-06
1.5927e-05
-2.32286e-06
1.5927e-05
-2.32286e-06
1.5927e-05
-2.32286e-06
1.5927e-05
-2.32286e-06
1.5927e-05
-2.32286e-06
1.5927e-05
-2.32286e-06
1.5927e-05
-2.32286e-06
1.5927e-05
-2.32286e-06
1.5927e-05
-2.32286e-06
1.5927e-05
-2.32286e-06
1.5927e-05
-2.32286e-06
1.5927e-05
-2.32286e-06
1.5927e-05
-2.32286e-06
1.5927e-05
-2.32286e-06
1.5927e-05
-2.32286e-06
1.5927e-05
-2.32286e-06
1.5927e-05
-2.32286e-06
1.5927e-05
-2.32286e-06
1.5927e-05
-2.32286e-06
1.5927e-05
-2.32286e-06
1.5927e-05
-2.32286e-06
1.5927e-05
-2.32286e-06
1.5927e-05
-2.32286e-06
1.5927e-05
-2.32286e-06
1.5927e-05
-2.32286e-06
1.5927e-05
-2.32286e-06
1.5927e-05
-2.32286e-06
1.5927e-05
-2.32286e-06
1.5927e-05
-2.32286e-06
1.5927e-05
-2.32286e-06
1.5927e-05
-2.32286e-06
1.5927e-05
-2.32286e-06
1.5927e-05
-2.32286e-06
1.5927e-05
-2.32286e-06
1.5927e-05
-2.32286e-06
1.5927e-05
-2.32286e-06
1.5927e-05
-2.32286e-06
1.5927e-05
-2.32286e-06
1.5927e-05
-2.32286e-06
1.5927e-05
-2.32286e-06
1.5927e-05
-2.32286e-06
1.5927e-05
-2.32286e-06
1.5927e-05
-2.32286e-06
1.5927e-05
-2.32286e-06
1.5927e-05
-2.32286e-06
1.5927e-05
-2.32286e-06
1.5927e-05
-2.32286e-06
1.5927e-05
-2.32286e-06
1.5927e-05
-2.32286e-06
1.5927e-05
-2.32286e-06
1.5927e-05
-2.32286e-06
1.5927e-05
-2.32286e-06
1.5927e-05
-2.32286e-06
1.5927e-05
-2.32286e-06
1.5927e-05
-2.32286e-06
1.5927e-05
-2.32286e-06
1.5927e-05
-2.32286e-06
1.5927e-05
-2.32286e-06
1.5927e-05
-2.32286e-06
1.5927e-05
-2.32286e-06
1.5927e-05
-2.32286e-06
1.5927e-05
-2.32286e-06
1.5927e-05
-2.32286e-06
1.5927e-05
-2.32286e-06
1.5927e-05
-2.32286e-06
1.5927e-05
-2.32286e-06
1.5927e-05
-2.32286e-06
1.5927e-05
-2.32286e-06
1.5927e-05
-2.32286e-06
1.5927e-05
-2.32286e-06
1.5927e-05
-2.32286e-06
1.5927e-05
-2.32286e-06
1.5927e-05
-2.32286e-06
1.5927e-05
-2.32286e-06
1.5927e-05
-2.32286e-06
1.5927e-05
-2.32286e-06
1.5927e-05
-2.32286e-06
1.5927e-05
-2.32286e-06
1.5927e-05
-2.32286e-06
1.5927e-05
-2.32286e-06
1.5927e-05
-2.32286e-06
1.5927e-05
-2.32286e-06
1.5927e-05
-2.32286e-06
1.5927e-05
-2.32286e-06
1.5927e-05
-2.32286e-06
1.5927e-05
-2.32286e-06
1.5927e-05
-2.32286e-06
1.5927e-05
-2.32286e-06
1.5927e-05
-2.32286e-06
1.5927e-05
-2.32286e-06
1.5927e-05
-2.32286e-06
1.5927e-05
-2.32286e-06
1.5927e-05
-2.32286e-06
1.5927e-05
-2.32286e-06
1.5927e-05
-2.32286e-06
1.5927e-05
-2.32286e-06
1.5927e-05
-2.32286e-06
1.5927e-05
-2.32286e-06
1.5927e-05
-2.32286e-06
1.5927e-05
-2.32286e-06
1.5927e-05
-2.32286e-06
1.5927e-05
-2.32286e-06
1.5927e-05
-2.32286e-06
1.5927e-05
-2.32286e-06
1.5927e-05
-2.32286e-06
1.5927e-05
-2.32286e-06
1.5927e-05
-2.32286e-06
1.5927e-05
-2.32286e-06
1.5927e-05
-2.32286e-06
1.5927e-05
-2.32286e-06
1.5927e-05
-2.32286e-06
1.5927e-05
-2.32286e-06
1.5927e-05
-2.32286e-06
1.5927e-05
-2.32286e-06
1.5927e-05
-2.32286e-06
1.5927e-05
-2.32286e-06
1.5927e-05
-2.32286e-06
1.5927e-05
-2.32286e-06
1.5927e-05
-2.32286e-06
1.5927e-05
-2.32286e-06
1.5927e-05
-2.32286e-06
1.5927e-05
-2.32286e-06
1.5927e-05
-2.32286e-06
1.5927e-05
-2.32286e-06
1.5927e-05
-2.32286e-06
1.5927e-05
-2.32286e-06
1.5927e-05
-2.32286e-06
1.5927e-05
-2.32286e-06
1.5927e-05
-2.32286e-06
1.5927e-05
-2.32286e-06
1.5927e-05
-2.32286e-06
1.5927e-05
-2.32286e-06
1.5927e-05
-2.32286e-06
1.5927e-05
-2.32286e-06
1.5927e-05
-2.32286e-06
1.5927e-05
-2.32286e-06
1.5927e-05
-2.32286e-06
1.5927e-05
-2.32286e-06
1.5927e-05
-2.32286e-06
1.5927e-05
-2.32286e-06
1.5927e-05
-2.32286e-06
1.5927e-05
-2.32286e-06
1.5927e-05
-2.32286e-06
1.5927e-05
-2.32286e-06
1.5927e-05
-2.32286e-06
1.5927e-05
-2.32286e-06
1.5927e-05
-2.32286e-06
1.5927e-05
-2.32286e-06
1.5927e-05
-2.32286e-06
1.5927e-05
-2.32286e-06
1.5927e-05
-2.32286e-06
1.5927e-05
-2.32286e-06
1.5927e-05
-2.32286e-06
1.5927e-05
-2.32286e-06
1.5927e-05
-2.32286e-06
1.5927e-05
-2.32286e-06
1.5927e-05
-2.32286e-06
1.5927e-05
-2.32286e-06
1.5927e-05
-2.32286e-06
1.5927e-05
-2.32286e-06
1.5927e-05
-2.32286e-06
1.5927e-05
-2.32286e-06
1.5927e-05
-2.32286e-06
1.5927e-05
-2.32286e-06
1.5927e-05
-2.32286e-06
1.5927e-05
-2.32286e-06
1.5927e-05
-2.32286e-06
1.5927e-05
-2.32286e-06
1.5927e-05
-2.32286e-06
1.5927e-05
-2.32286e-06
1.5927e-05
-2.32286e-06
1.5927e-05
-2.32286e-06
1.5927e-05
-2.32286e-06
1.5927e-05
-2.32286e-06
1.5927e-05
-2.32286e-06
1.5927e-05
-2.32286e-06
1.5927e-05
-2.32286e-06
1.5927e-05
-2.32286e-06
1.5927e-05
-2.32286e-06
1.5927e-05
-2.32286e-06
1.5927e-05
-2.32286e-06
1.5927e-05
-2.32286e-06
1.5927e-05
-2.32286e-06
1.5927e-05
-2.32287e-06
1.5927e-05
-2.32286e-06
-2.32284e-06
2.15415e-05
1.727e-05
2.01943e-05
6.63756e-06
1.91058e-05
1.23068e-06
1.83187e-05
-7.16363e-07
1.776e-05
-1.19626e-06
1.74378e-05
-1.60859e-06
1.72157e-05
-1.85476e-06
1.70791e-05
-2.02109e-06
1.69896e-05
-2.14791e-06
1.69397e-05
-2.23453e-06
1.69109e-05
-2.29231e-06
1.69039e-05
-2.33543e-06
1.69112e-05
-2.38066e-06
1.69286e-05
-2.40085e-06
1.69571e-05
-2.4308e-06
1.6993e-05
-2.44939e-06
1.70367e-05
-2.46924e-06
1.70851e-05
-2.47986e-06
1.71374e-05
-2.49105e-06
1.71955e-05
-2.50762e-06
1.72578e-05
-2.51898e-06
1.73233e-05
-2.52714e-06
1.73915e-05
-2.53404e-06
1.74619e-05
-2.53928e-06
1.75345e-05
-2.54529e-06
1.76048e-05
-2.53925e-06
1.76684e-05
-2.51868e-06
1.77241e-05
-2.49342e-06
1.77724e-05
-2.46926e-06
1.78138e-05
-2.44746e-06
1.78491e-05
-2.42843e-06
1.78791e-05
-2.41188e-06
1.79045e-05
-2.39775e-06
1.79258e-05
-2.3857e-06
1.79438e-05
-2.37557e-06
1.7959e-05
-2.36705e-06
1.79717e-05
-2.35995e-06
1.79824e-05
-2.35403e-06
1.79915e-05
-2.34911e-06
1.79991e-05
-2.34501e-06
1.80056e-05
-2.3416e-06
1.80111e-05
-2.33876e-06
1.80158e-05
-2.33653e-06
1.80198e-05
-2.33456e-06
1.80232e-05
-2.33272e-06
1.8026e-05
-2.33111e-06
1.80284e-05
-2.32989e-06
1.80305e-05
-2.3289e-06
1.80323e-05
-2.32808e-06
1.80339e-05
-2.32737e-06
1.80352e-05
-2.32677e-06
1.80363e-05
-2.32626e-06
1.80373e-05
-2.32581e-06
1.80382e-05
-2.32542e-06
1.8039e-05
-2.32508e-06
1.80396e-05
-2.32479e-06
1.80402e-05
-2.32453e-06
1.80407e-05
-2.32431e-06
1.80411e-05
-2.32412e-06
1.80415e-05
-2.32395e-06
1.80418e-05
-2.32381e-06
1.80421e-05
-2.32368e-06
1.80423e-05
-2.32357e-06
1.80425e-05
-2.32348e-06
1.80427e-05
-2.32339e-06
1.80429e-05
-2.32332e-06
1.8043e-05
-2.32326e-06
1.80431e-05
-2.32321e-06
1.80432e-05
-2.32316e-06
1.80433e-05
-2.32312e-06
1.80434e-05
-2.32308e-06
1.80434e-05
-2.32305e-06
1.80435e-05
-2.32303e-06
1.80435e-05
-2.32301e-06
1.80436e-05
-2.32299e-06
1.80436e-05
-2.32297e-06
1.80436e-05
-2.32295e-06
1.80437e-05
-2.32294e-06
1.80437e-05
-2.32293e-06
1.80437e-05
-2.32292e-06
1.80437e-05
-2.32291e-06
1.80437e-05
-2.32291e-06
1.80438e-05
-2.3229e-06
1.80438e-05
-2.32289e-06
1.80438e-05
-2.32289e-06
1.80438e-05
-2.32289e-06
1.80438e-05
-2.32288e-06
1.80438e-05
-2.32288e-06
1.80438e-05
-2.32288e-06
1.80438e-05
-2.32288e-06
1.80438e-05
-2.32287e-06
1.80438e-05
-2.32287e-06
1.80438e-05
-2.32287e-06
1.80438e-05
-2.32287e-06
1.80438e-05
-2.32287e-06
1.80438e-05
-2.32287e-06
1.80438e-05
-2.32287e-06
1.80438e-05
-2.32287e-06
1.80438e-05
-2.32287e-06
1.80438e-05
-2.32286e-06
1.80438e-05
-2.32286e-06
1.80438e-05
-2.32286e-06
1.80438e-05
-2.32286e-06
1.80438e-05
-2.32286e-06
1.80438e-05
-2.32286e-06
1.80438e-05
-2.32286e-06
1.80438e-05
-2.32286e-06
1.80438e-05
-2.32286e-06
1.80438e-05
-2.32286e-06
1.80438e-05
-2.32286e-06
1.80438e-05
-2.32286e-06
1.80438e-05
-2.32286e-06
1.80438e-05
-2.32286e-06
1.80438e-05
-2.32286e-06
1.80438e-05
-2.32286e-06
1.80438e-05
-2.32286e-06
1.80438e-05
-2.32286e-06
1.80438e-05
-2.32286e-06
1.80438e-05
-2.32286e-06
1.80438e-05
-2.32286e-06
1.80438e-05
-2.32286e-06
1.80438e-05
-2.32286e-06
1.80438e-05
-2.32286e-06
1.80438e-05
-2.32286e-06
1.80438e-05
-2.32286e-06
1.80438e-05
-2.32286e-06
1.80438e-05
-2.32286e-06
1.80438e-05
-2.32286e-06
1.80438e-05
-2.32286e-06
1.80438e-05
-2.32286e-06
1.80438e-05
-2.32286e-06
1.80438e-05
-2.32286e-06
1.80438e-05
-2.32286e-06
1.80438e-05
-2.32286e-06
1.80438e-05
-2.32286e-06
1.80438e-05
-2.32286e-06
1.80438e-05
-2.32286e-06
1.80438e-05
-2.32286e-06
1.80438e-05
-2.32286e-06
1.80438e-05
-2.32286e-06
1.80438e-05
-2.32286e-06
1.80438e-05
-2.32286e-06
1.80438e-05
-2.32286e-06
1.80438e-05
-2.32286e-06
1.80438e-05
-2.32286e-06
1.80438e-05
-2.32286e-06
1.80438e-05
-2.32286e-06
1.80438e-05
-2.32286e-06
1.80438e-05
-2.32286e-06
1.80438e-05
-2.32286e-06
1.80438e-05
-2.32286e-06
1.80438e-05
-2.32286e-06
1.80438e-05
-2.32286e-06
1.80438e-05
-2.32286e-06
1.80438e-05
-2.32286e-06
1.80438e-05
-2.32286e-06
1.80438e-05
-2.32286e-06
1.80438e-05
-2.32286e-06
1.80438e-05
-2.32286e-06
1.80438e-05
-2.32286e-06
1.80438e-05
-2.32286e-06
1.80438e-05
-2.32286e-06
1.80438e-05
-2.32286e-06
1.80438e-05
-2.32286e-06
1.80438e-05
-2.32286e-06
1.80438e-05
-2.32286e-06
1.80438e-05
-2.32286e-06
1.80438e-05
-2.32286e-06
1.80438e-05
-2.32286e-06
1.80438e-05
-2.32286e-06
1.80438e-05
-2.32286e-06
1.80438e-05
-2.32286e-06
1.80438e-05
-2.32286e-06
1.80438e-05
-2.32286e-06
1.80438e-05
-2.32286e-06
1.80438e-05
-2.32286e-06
1.80438e-05
-2.32286e-06
1.80438e-05
-2.32286e-06
1.80438e-05
-2.32286e-06
1.80438e-05
-2.32286e-06
1.80438e-05
-2.32286e-06
1.80438e-05
-2.32286e-06
1.80438e-05
-2.32286e-06
1.80438e-05
-2.32286e-06
1.80438e-05
-2.32286e-06
1.80438e-05
-2.32286e-06
1.80438e-05
-2.32286e-06
1.80438e-05
-2.32286e-06
1.80438e-05
-2.32286e-06
1.80438e-05
-2.32286e-06
1.80438e-05
-2.32286e-06
1.80438e-05
-2.32286e-06
1.80438e-05
-2.32286e-06
1.80438e-05
-2.32286e-06
1.80438e-05
-2.32286e-06
1.80438e-05
-2.32286e-06
1.80438e-05
-2.32286e-06
1.80438e-05
-2.32286e-06
1.80438e-05
-2.32286e-06
1.80438e-05
-2.32286e-06
1.80438e-05
-2.32286e-06
1.80438e-05
-2.32286e-06
1.80438e-05
-2.32286e-06
1.80438e-05
-2.32286e-06
1.80438e-05
-2.32286e-06
1.80438e-05
-2.32286e-06
1.80438e-05
-2.32286e-06
1.80438e-05
-2.32286e-06
1.80438e-05
-2.32286e-06
1.80438e-05
-2.32286e-06
1.80438e-05
-2.32286e-06
1.80438e-05
-2.32286e-06
1.80438e-05
-2.32286e-06
1.80438e-05
-2.32286e-06
1.80438e-05
-2.32286e-06
1.80438e-05
-2.32286e-06
1.80438e-05
-2.32286e-06
1.80438e-05
-2.32286e-06
1.80438e-05
-2.32286e-06
1.80438e-05
-2.32286e-06
1.80438e-05
-2.32286e-06
1.80438e-05
-2.32286e-06
1.80438e-05
-2.32286e-06
1.80438e-05
-2.32286e-06
1.80438e-05
-2.32286e-06
1.80438e-05
-2.32286e-06
1.80438e-05
-2.32286e-06
1.80438e-05
-2.32286e-06
1.80438e-05
-2.32286e-06
1.80438e-05
-2.32286e-06
1.80438e-05
-2.32286e-06
1.80438e-05
-2.32286e-06
1.80438e-05
-2.32286e-06
1.80438e-05
-2.32286e-06
1.80438e-05
-2.32286e-06
1.80438e-05
-2.32286e-06
1.80438e-05
-2.32286e-06
1.80438e-05
-2.32286e-06
1.80438e-05
-2.32286e-06
1.80438e-05
-2.32286e-06
1.80438e-05
-2.32286e-06
1.80438e-05
-2.32286e-06
1.80438e-05
-2.32286e-06
1.80438e-05
-2.32286e-06
1.80438e-05
-2.32286e-06
1.80438e-05
-2.32286e-06
1.80438e-05
-2.32286e-06
1.80438e-05
-2.32286e-06
1.80438e-05
-2.32286e-06
1.80438e-05
-2.32286e-06
1.80438e-05
-2.32286e-06
1.80438e-05
-2.32286e-06
1.80438e-05
-2.32286e-06
1.80438e-05
-2.32286e-06
1.80438e-05
-2.32286e-06
1.80438e-05
-2.32286e-06
1.80438e-05
-2.32286e-06
1.80438e-05
-2.32286e-06
1.80438e-05
-2.32286e-06
1.80438e-05
-2.32286e-06
1.80438e-05
-2.32286e-06
1.80438e-05
-2.32286e-06
1.80438e-05
-2.32286e-06
1.80438e-05
-2.32286e-06
1.80438e-05
-2.32286e-06
1.80438e-05
-2.32286e-06
1.80438e-05
-2.32286e-06
1.80438e-05
-2.32286e-06
1.80438e-05
-2.32286e-06
1.80438e-05
-2.32286e-06
1.80438e-05
-2.32286e-06
1.80438e-05
-2.32286e-06
1.80438e-05
-2.32286e-06
1.80438e-05
-2.32286e-06
1.80438e-05
-2.32286e-06
1.80438e-05
-2.32286e-06
1.80438e-05
-2.32286e-06
1.80438e-05
-2.32286e-06