/*--------------------------------*- C++ -*----------------------------------*\
| =========                 |                                                 |
| \\      /  F ield         | foam-extend: Open Source CFD                    |
|  \\    /   O peration     | Version:     3.2                                |
|   \\  /    A nd           | Web:         http://www.foam-extend.org         |
|    \\/     M anipulation  | For copyright notice see file Copyright         |
\*---------------------------------------------------------------------------*/
FoamFile
{
    version     2.0;
    format      ascii;
    class       surfaceScalarField;
    location    "83";
    object      AdSS1;
}
// * * * * * * * * * * * * * * * * * * * * * * * * * * * * * * * * * * * * * //

dimensions      [0 3 -1 0 0 0 0];

internalField   nonuniform List<scalar> 
10482
(
9.23846e-06
1.05326e-05
6.60185e-06
8.24379e-07
6.26661e-06
-1.47698e-06
6.22713e-06
-1.77275e-06
6.20453e-06
-1.78963e-06
6.16333e-06
-1.77103e-06
6.14746e-06
-1.79635e-06
6.12847e-06
-1.79324e-06
6.12755e-06
-1.81131e-06
6.12616e-06
-1.81084e-06
6.13411e-06
-1.82018e-06
6.14145e-06
-1.81957e-06
6.15637e-06
-1.82715e-06
6.17125e-06
-1.82712e-06
6.18931e-06
-1.83029e-06
6.20896e-06
-1.83187e-06
6.23063e-06
-1.8339e-06
6.25273e-06
-1.83432e-06
6.27646e-06
-1.83596e-06
6.3021e-06
-1.83787e-06
6.32886e-06
-1.83898e-06
6.35626e-06
-1.83964e-06
6.3844e-06
-1.84036e-06
6.41284e-06
-1.84068e-06
6.44179e-06
-1.84118e-06
6.4699e-06
-1.84033e-06
6.4952e-06
-1.83754e-06
6.51682e-06
-1.83385e-06
6.53502e-06
-1.83043e-06
6.55021e-06
-1.82742e-06
6.56288e-06
-1.8249e-06
6.57341e-06
-1.82276e-06
6.58217e-06
-1.82099e-06
6.58945e-06
-1.8195e-06
6.5955e-06
-1.81829e-06
6.60054e-06
-1.81727e-06
6.60475e-06
-1.81644e-06
6.60828e-06
-1.81575e-06
6.61124e-06
-1.81519e-06
6.61373e-06
-1.81472e-06
6.61584e-06
-1.81434e-06
6.61763e-06
-1.81402e-06
6.61918e-06
-1.81378e-06
6.6205e-06
-1.81355e-06
6.62161e-06
-1.81334e-06
6.62253e-06
-1.81315e-06
6.62333e-06
-1.81302e-06
6.62401e-06
-1.81292e-06
6.62461e-06
-1.81282e-06
6.62512e-06
-1.81275e-06
6.62557e-06
-1.81268e-06
6.62596e-06
-1.81262e-06
6.6263e-06
-1.81257e-06
6.6266e-06
-1.81253e-06
6.62686e-06
-1.81249e-06
6.62708e-06
-1.81245e-06
6.62728e-06
-1.81243e-06
6.62745e-06
-1.8124e-06
6.62759e-06
-1.81238e-06
6.62772e-06
-1.81236e-06
6.62783e-06
-1.81234e-06
6.62793e-06
-1.81233e-06
6.62801e-06
-1.81231e-06
6.62808e-06
-1.8123e-06
6.62815e-06
-1.81229e-06
6.6282e-06
-1.81228e-06
6.62825e-06
-1.81228e-06
6.62829e-06
-1.81227e-06
6.62832e-06
-1.81227e-06
6.62835e-06
-1.81226e-06
6.62838e-06
-1.81226e-06
6.6284e-06
-1.81225e-06
6.62842e-06
-1.81225e-06
6.62844e-06
-1.81225e-06
6.62845e-06
-1.81224e-06
6.62847e-06
-1.81224e-06
6.62848e-06
-1.81224e-06
6.62849e-06
-1.81224e-06
6.62849e-06
-1.81224e-06
6.6285e-06
-1.81224e-06
6.62851e-06
-1.81224e-06
6.62851e-06
-1.81224e-06
6.62852e-06
-1.81223e-06
6.62852e-06
-1.81223e-06
6.62852e-06
-1.81223e-06
6.62853e-06
-1.81223e-06
6.62853e-06
-1.81223e-06
6.62853e-06
-1.81223e-06
6.62853e-06
-1.81223e-06
6.62853e-06
-1.81223e-06
6.62854e-06
-1.81223e-06
6.62854e-06
-1.81223e-06
6.62854e-06
-1.81223e-06
6.62854e-06
-1.81223e-06
6.62854e-06
-1.81223e-06
6.62854e-06
-1.81223e-06
6.62854e-06
-1.81223e-06
6.62854e-06
-1.81223e-06
6.62854e-06
-1.81223e-06
6.62854e-06
-1.81223e-06
6.62854e-06
-1.81223e-06
6.62854e-06
-1.81223e-06
6.62854e-06
-1.81223e-06
6.62854e-06
-1.81223e-06
6.62854e-06
-1.81223e-06
6.62854e-06
-1.81223e-06
6.62854e-06
-1.81223e-06
6.62854e-06
-1.81223e-06
6.62854e-06
-1.81223e-06
6.62854e-06
-1.81223e-06
6.62854e-06
-1.81223e-06
6.62854e-06
-1.81223e-06
6.62854e-06
-1.81223e-06
6.62854e-06
-1.81223e-06
6.62854e-06
-1.81223e-06
6.62854e-06
-1.81223e-06
6.62854e-06
-1.81223e-06
6.62854e-06
-1.81223e-06
6.62854e-06
-1.81223e-06
6.62854e-06
-1.81223e-06
6.62854e-06
-1.81223e-06
6.62854e-06
-1.81223e-06
6.62854e-06
-1.81223e-06
6.62854e-06
-1.81223e-06
6.62854e-06
-1.81223e-06
6.62854e-06
-1.81223e-06
6.62854e-06
-1.81223e-06
6.62854e-06
-1.81223e-06
6.62854e-06
-1.81223e-06
6.62854e-06
-1.81223e-06
6.62854e-06
-1.81223e-06
6.62854e-06
-1.81223e-06
6.62854e-06
-1.81223e-06
6.62854e-06
-1.81223e-06
6.62854e-06
-1.81223e-06
6.62854e-06
-1.81223e-06
6.62854e-06
-1.81223e-06
6.62854e-06
-1.81223e-06
6.62854e-06
-1.81223e-06
6.62854e-06
-1.81223e-06
6.62854e-06
-1.81223e-06
6.62854e-06
-1.81223e-06
6.62854e-06
-1.81223e-06
6.62854e-06
-1.81223e-06
6.62854e-06
-1.81223e-06
6.62854e-06
-1.81223e-06
6.62854e-06
-1.81223e-06
6.62854e-06
-1.81223e-06
6.62854e-06
-1.81223e-06
6.62854e-06
-1.81223e-06
6.62854e-06
-1.81223e-06
6.62854e-06
-1.81223e-06
6.62854e-06
-1.81223e-06
6.62854e-06
-1.81223e-06
6.62854e-06
-1.81223e-06
6.62854e-06
-1.81223e-06
6.62854e-06
-1.81223e-06
6.62854e-06
-1.81223e-06
6.62854e-06
-1.81223e-06
6.62854e-06
-1.81223e-06
6.62854e-06
-1.81223e-06
6.62854e-06
-1.81223e-06
6.62854e-06
-1.81223e-06
6.62854e-06
-1.81223e-06
6.62854e-06
-1.81223e-06
6.62854e-06
-1.81223e-06
6.62854e-06
-1.81223e-06
6.62854e-06
-1.81223e-06
6.62854e-06
-1.81223e-06
6.62854e-06
-1.81223e-06
6.62854e-06
-1.81223e-06
6.62854e-06
-1.81223e-06
6.62854e-06
-1.81223e-06
6.62854e-06
-1.81223e-06
6.62854e-06
-1.81223e-06
6.62854e-06
-1.81223e-06
6.62854e-06
-1.81223e-06
6.62854e-06
-1.81223e-06
6.62854e-06
-1.81223e-06
6.62854e-06
-1.81223e-06
6.62854e-06
-1.81223e-06
6.62854e-06
-1.81223e-06
6.62854e-06
-1.81223e-06
6.62854e-06
-1.81223e-06
6.62854e-06
-1.81223e-06
6.62854e-06
-1.81223e-06
6.62854e-06
-1.81223e-06
6.62854e-06
-1.81223e-06
6.62854e-06
-1.81223e-06
6.62854e-06
-1.81223e-06
6.62854e-06
-1.81223e-06
6.62854e-06
-1.81223e-06
6.62854e-06
-1.81223e-06
6.62854e-06
-1.81223e-06
6.62854e-06
-1.81223e-06
6.62854e-06
-1.81223e-06
6.62854e-06
-1.81223e-06
6.62854e-06
-1.81223e-06
6.62854e-06
-1.81223e-06
6.62854e-06
-1.81223e-06
6.62854e-06
-1.81223e-06
6.62854e-06
-1.81223e-06
6.62854e-06
-1.81223e-06
6.62854e-06
-1.81223e-06
6.62854e-06
-1.81223e-06
6.62854e-06
-1.81223e-06
6.62854e-06
-1.81223e-06
6.62854e-06
-1.81223e-06
6.62854e-06
-1.81223e-06
6.62854e-06
-1.81223e-06
6.62854e-06
-1.81223e-06
6.62854e-06
-1.81223e-06
6.62854e-06
-1.81223e-06
6.62854e-06
-1.81223e-06
6.62854e-06
-1.81223e-06
6.62854e-06
-1.81223e-06
6.62854e-06
-1.81223e-06
6.62854e-06
-1.81223e-06
6.62854e-06
-1.81223e-06
6.62854e-06
-1.81223e-06
6.62854e-06
-1.81223e-06
6.62854e-06
-1.81223e-06
6.62854e-06
-1.81223e-06
6.62854e-06
-1.81223e-06
6.62854e-06
-1.81223e-06
6.62854e-06
-1.81223e-06
6.62854e-06
-1.81223e-06
6.62854e-06
-1.81223e-06
6.62854e-06
-1.81223e-06
6.62854e-06
-1.81223e-06
6.62854e-06
-1.81223e-06
6.62854e-06
-1.81223e-06
6.62854e-06
-1.81223e-06
6.62854e-06
-1.81223e-06
6.62854e-06
-1.81223e-06
6.62854e-06
-1.81223e-06
6.62854e-06
-1.81223e-06
6.62854e-06
-1.81223e-06
6.62854e-06
-1.81223e-06
6.62854e-06
-1.81223e-06
6.62854e-06
-1.81223e-06
6.62854e-06
-1.81223e-06
6.62854e-06
-1.81223e-06
6.62854e-06
-1.81223e-06
6.62854e-06
-1.81223e-06
6.62854e-06
-1.81223e-06
6.62854e-06
-1.81223e-06
6.62854e-06
-1.81223e-06
6.62854e-06
-1.81223e-06
6.62854e-06
-1.81223e-06
6.62854e-06
-1.81223e-06
6.62854e-06
-1.81223e-06
6.62854e-06
-1.81223e-06
6.62854e-06
-1.81223e-06
6.62854e-06
-1.81223e-06
6.62854e-06
-1.81223e-06
6.62854e-06
-1.81223e-06
6.62854e-06
-1.81223e-06
6.62854e-06
-1.81223e-06
6.62854e-06
-1.81223e-06
6.62854e-06
-1.81223e-06
6.62854e-06
-1.81223e-06
6.62854e-06
-1.81223e-06
6.62854e-06
-1.81223e-06
6.62854e-06
-1.81223e-06
6.62854e-06
-1.81223e-06
6.62854e-06
-1.81223e-06
6.62854e-06
-1.81223e-06
6.62854e-06
-1.81223e-06
6.62854e-06
-1.81223e-06
6.62854e-06
-1.81223e-06
6.62854e-06
-1.81223e-06
6.62854e-06
-1.81223e-06
6.62854e-06
-1.81223e-06
6.62854e-06
-1.81223e-06
6.62854e-06
-1.81223e-06
6.62854e-06
-1.81223e-06
6.62854e-06
-1.81223e-06
6.62854e-06
-1.81223e-06
6.62854e-06
-1.81223e-06
6.62854e-06
-1.81223e-06
6.62854e-06
-1.81223e-06
6.62854e-06
-1.81223e-06
6.62854e-06
-1.81223e-06
6.62854e-06
-1.81223e-06
6.62854e-06
-1.81223e-06
6.62854e-06
-1.81223e-06
6.62854e-06
-1.81223e-06
6.62854e-06
-1.81223e-06
6.62854e-06
-1.81223e-06
6.62854e-06
-1.81223e-06
6.62854e-06
-1.81223e-06
6.62854e-06
-1.81223e-06
6.62854e-06
-1.81223e-06
6.62854e-06
-1.81223e-06
6.62854e-06
-1.81223e-06
6.62854e-06
-1.81223e-06
6.62855e-06
-1.81223e-06
6.62855e-06
-1.81223e-06
-1.81222e-06
1.62237e-05
1.58923e-05
1.34998e-05
3.54822e-06
1.25624e-05
-5.39592e-07
1.23086e-05
-1.51891e-06
1.21315e-05
-1.61252e-06
1.19977e-05
-1.63727e-06
1.19146e-05
-1.71324e-06
1.18605e-05
-1.73917e-06
1.18329e-05
-1.78366e-06
1.18226e-05
-1.80057e-06
1.18242e-05
-1.82174e-06
1.18328e-05
-1.82819e-06
1.18525e-05
-1.84689e-06
1.18757e-05
-1.85034e-06
1.19054e-05
-1.85993e-06
1.19391e-05
-1.86555e-06
1.19769e-05
-1.87174e-06
1.20168e-05
-1.8742e-06
1.20591e-05
-1.87834e-06
1.21054e-05
-1.88417e-06
1.21543e-05
-1.88781e-06
1.22048e-05
-1.89021e-06
1.22569e-05
-1.89243e-06
1.231e-05
-1.89378e-06
1.23645e-05
-1.89568e-06
1.24177e-05
-1.89353e-06
1.24659e-05
-1.88573e-06
1.25077e-05
-1.87566e-06
1.25434e-05
-1.86615e-06
1.25737e-05
-1.85767e-06
1.25992e-05
-1.85044e-06
1.26207e-05
-1.84421e-06
1.26387e-05
-1.83898e-06
1.26537e-05
-1.83455e-06
1.26663e-05
-1.83088e-06
1.26768e-05
-1.8278e-06
1.26856e-05
-1.82526e-06
1.2693e-05
-1.82316e-06
1.26993e-05
-1.82142e-06
1.27045e-05
-1.81998e-06
1.2709e-05
-1.81878e-06
1.27127e-05
-1.81779e-06
1.2716e-05
-1.81703e-06
1.27188e-05
-1.81633e-06
1.27211e-05
-1.81568e-06
1.27231e-05
-1.81511e-06
1.27247e-05
-1.81469e-06
1.27262e-05
-1.81435e-06
1.27274e-05
-1.81407e-06
1.27285e-05
-1.81382e-06
1.27294e-05
-1.81361e-06
1.27302e-05
-1.81343e-06
1.27309e-05
-1.81328e-06
1.27316e-05
-1.81314e-06
1.27321e-05
-1.81302e-06
1.27325e-05
-1.81292e-06
1.27329e-05
-1.81283e-06
1.27333e-05
-1.81275e-06
1.27336e-05
-1.81268e-06
1.27339e-05
-1.81262e-06
1.27341e-05
-1.81257e-06
1.27343e-05
-1.81252e-06
1.27345e-05
-1.81248e-06
1.27346e-05
-1.81245e-06
1.27347e-05
-1.81242e-06
1.27348e-05
-1.8124e-06
1.27349e-05
-1.81237e-06
1.2735e-05
-1.81235e-06
1.27351e-05
-1.81234e-06
1.27352e-05
-1.81232e-06
1.27352e-05
-1.81231e-06
1.27353e-05
-1.8123e-06
1.27353e-05
-1.81229e-06
1.27353e-05
-1.81228e-06
1.27354e-05
-1.81227e-06
1.27354e-05
-1.81227e-06
1.27354e-05
-1.81226e-06
1.27354e-05
-1.81226e-06
1.27354e-05
-1.81225e-06
1.27355e-05
-1.81225e-06
1.27355e-05
-1.81225e-06
1.27355e-05
-1.81225e-06
1.27355e-05
-1.81224e-06
1.27355e-05
-1.81224e-06
1.27355e-05
-1.81224e-06
1.27355e-05
-1.81224e-06
1.27355e-05
-1.81224e-06
1.27355e-05
-1.81224e-06
1.27355e-05
-1.81224e-06
1.27355e-05
-1.81223e-06
1.27355e-05
-1.81223e-06
1.27355e-05
-1.81223e-06
1.27355e-05
-1.81223e-06
1.27355e-05
-1.81223e-06
1.27355e-05
-1.81223e-06
1.27355e-05
-1.81223e-06
1.27355e-05
-1.81223e-06
1.27355e-05
-1.81223e-06
1.27355e-05
-1.81223e-06
1.27355e-05
-1.81223e-06
1.27355e-05
-1.81223e-06
1.27355e-05
-1.81223e-06
1.27355e-05
-1.81223e-06
1.27355e-05
-1.81223e-06
1.27355e-05
-1.81223e-06
1.27355e-05
-1.81223e-06
1.27355e-05
-1.81223e-06
1.27355e-05
-1.81223e-06
1.27355e-05
-1.81223e-06
1.27355e-05
-1.81223e-06
1.27355e-05
-1.81223e-06
1.27355e-05
-1.81223e-06
1.27355e-05
-1.81223e-06
1.27355e-05
-1.81223e-06
1.27355e-05
-1.81223e-06
1.27355e-05
-1.81223e-06
1.27355e-05
-1.81223e-06
1.27355e-05
-1.81223e-06
1.27355e-05
-1.81223e-06
1.27355e-05
-1.81223e-06
1.27355e-05
-1.81223e-06
1.27355e-05
-1.81223e-06
1.27355e-05
-1.81223e-06
1.27355e-05
-1.81223e-06
1.27355e-05
-1.81223e-06
1.27355e-05
-1.81223e-06
1.27355e-05
-1.81223e-06
1.27355e-05
-1.81223e-06
1.27355e-05
-1.81223e-06
1.27355e-05
-1.81223e-06
1.27355e-05
-1.81223e-06
1.27355e-05
-1.81223e-06
1.27355e-05
-1.81223e-06
1.27355e-05
-1.81223e-06
1.27355e-05
-1.81223e-06
1.27355e-05
-1.81223e-06
1.27355e-05
-1.81223e-06
1.27355e-05
-1.81223e-06
1.27355e-05
-1.81223e-06
1.27355e-05
-1.81223e-06
1.27355e-05
-1.81223e-06
1.27355e-05
-1.81223e-06
1.27355e-05
-1.81223e-06
1.27355e-05
-1.81223e-06
1.27355e-05
-1.81223e-06
1.27355e-05
-1.81223e-06
1.27355e-05
-1.81223e-06
1.27355e-05
-1.81223e-06
1.27355e-05
-1.81223e-06
1.27355e-05
-1.81223e-06
1.27355e-05
-1.81223e-06
1.27355e-05
-1.81223e-06
1.27355e-05
-1.81223e-06
1.27355e-05
-1.81223e-06
1.27355e-05
-1.81223e-06
1.27355e-05
-1.81223e-06
1.27355e-05
-1.81223e-06
1.27355e-05
-1.81223e-06
1.27355e-05
-1.81223e-06
1.27355e-05
-1.81223e-06
1.27355e-05
-1.81223e-06
1.27355e-05
-1.81223e-06
1.27355e-05
-1.81223e-06
1.27355e-05
-1.81223e-06
1.27355e-05
-1.81223e-06
1.27355e-05
-1.81223e-06
1.27355e-05
-1.81223e-06
1.27355e-05
-1.81223e-06
1.27355e-05
-1.81223e-06
1.27355e-05
-1.81223e-06
1.27355e-05
-1.81223e-06
1.27355e-05
-1.81223e-06
1.27355e-05
-1.81223e-06
1.27355e-05
-1.81223e-06
1.27355e-05
-1.81223e-06
1.27355e-05
-1.81223e-06
1.27355e-05
-1.81223e-06
1.27355e-05
-1.81223e-06
1.27355e-05
-1.81223e-06
1.27355e-05
-1.81223e-06
1.27355e-05
-1.81223e-06
1.27355e-05
-1.81223e-06
1.27355e-05
-1.81223e-06
1.27355e-05
-1.81223e-06
1.27355e-05
-1.81223e-06
1.27355e-05
-1.81223e-06
1.27355e-05
-1.81223e-06
1.27355e-05
-1.81223e-06
1.27355e-05
-1.81223e-06
1.27355e-05
-1.81223e-06
1.27355e-05
-1.81223e-06
1.27355e-05
-1.81223e-06
1.27355e-05
-1.81223e-06
1.27355e-05
-1.81223e-06
1.27355e-05
-1.81223e-06
1.27355e-05
-1.81223e-06
1.27355e-05
-1.81223e-06
1.27355e-05
-1.81223e-06
1.27355e-05
-1.81223e-06
1.27355e-05
-1.81223e-06
1.27355e-05
-1.81223e-06
1.27355e-05
-1.81223e-06
1.27355e-05
-1.81223e-06
1.27355e-05
-1.81223e-06
1.27355e-05
-1.81223e-06
1.27355e-05
-1.81223e-06
1.27355e-05
-1.81223e-06
1.27355e-05
-1.81223e-06
1.27355e-05
-1.81223e-06
1.27355e-05
-1.81223e-06
1.27355e-05
-1.81223e-06
1.27355e-05
-1.81223e-06
1.27355e-05
-1.81223e-06
1.27355e-05
-1.81223e-06
1.27355e-05
-1.81223e-06
1.27355e-05
-1.81223e-06
1.27355e-05
-1.81223e-06
1.27355e-05
-1.81223e-06
1.27355e-05
-1.81223e-06
1.27355e-05
-1.81223e-06
1.27355e-05
-1.81223e-06
1.27355e-05
-1.81223e-06
1.27355e-05
-1.81223e-06
1.27355e-05
-1.81223e-06
1.27355e-05
-1.81223e-06
1.27355e-05
-1.81223e-06
1.27355e-05
-1.81223e-06
1.27355e-05
-1.81223e-06
1.27355e-05
-1.81223e-06
1.27355e-05
-1.81223e-06
1.27355e-05
-1.81223e-06
1.27355e-05
-1.81223e-06
1.27355e-05
-1.81223e-06
1.27355e-05
-1.81223e-06
1.27355e-05
-1.81223e-06
1.27355e-05
-1.81223e-06
1.27355e-05
-1.81223e-06
1.27355e-05
-1.81223e-06
1.27355e-05
-1.81223e-06
1.27355e-05
-1.81223e-06
1.27355e-05
-1.81223e-06
1.27355e-05
-1.81223e-06
1.27355e-05
-1.81223e-06
1.27355e-05
-1.81223e-06
1.27355e-05
-1.81223e-06
1.27355e-05
-1.81223e-06
1.27355e-05
-1.81223e-06
1.27355e-05
-1.81223e-06
1.27355e-05
-1.81223e-06
1.27355e-05
-1.81223e-06
1.27355e-05
-1.81223e-06
1.27355e-05
-1.81223e-06
1.27355e-05
-1.81223e-06
1.27355e-05
-1.81223e-06
1.27355e-05
-1.81223e-06
1.27355e-05
-1.81223e-06
1.27355e-05
-1.81223e-06
1.27355e-05
-1.81223e-06
1.27355e-05
-1.81223e-06
1.27355e-05
-1.81223e-06
1.27355e-05
-1.81223e-06
1.27355e-05
-1.81223e-06
1.27355e-05
-1.81223e-06
1.27355e-05
-1.81223e-06
1.27355e-05
-1.81223e-06
1.27355e-05
-1.81223e-06
1.27355e-05
-1.81223e-06
1.27355e-05
-1.81223e-06
1.27355e-05
-1.81223e-06
1.27355e-05
-1.81223e-06
1.27355e-05
-1.81223e-06
1.27355e-05
-1.81223e-06
1.27355e-05
-1.81223e-06
1.27355e-05
-1.81223e-06
1.27355e-05
-1.81223e-06
1.27355e-05
-1.81223e-06
1.27355e-05
-1.81223e-06
1.27355e-05
-1.81223e-06
1.27355e-05
-1.81223e-06
1.27355e-05
-1.81223e-06
1.27355e-05
-1.81223e-06
1.27355e-05
-1.81223e-06
1.27355e-05
-1.81223e-06
1.27355e-05
-1.81223e-06
1.27355e-05
-1.81223e-06
1.27355e-05
-1.81223e-06
1.27355e-05
-1.81223e-06
1.27355e-05
-1.81223e-06
1.27355e-05
-1.81223e-06
1.27355e-05
-1.81223e-06
1.27355e-05
-1.81223e-06
1.27355e-05
-1.81223e-06
1.27355e-05
-1.81223e-06
1.27355e-05
-1.81223e-06
1.27355e-05
-1.81223e-06
1.27355e-05
-1.81223e-06
1.27355e-05
-1.81223e-06
1.27355e-05
-1.81224e-06
1.27355e-05
-1.81223e-06
-1.81221e-06
1.97368e-05
1.77389e-05
1.7484e-05
5.80097e-06
1.62917e-05
6.52759e-07
1.57655e-05
-9.92757e-07
1.53973e-05
-1.24434e-06
1.51803e-05
-1.42018e-06
1.50332e-05
-1.56622e-06
1.49411e-05
-1.64704e-06
1.48842e-05
-1.7268e-06
1.48575e-05
-1.77382e-06
1.48463e-05
-1.8105e-06
1.48498e-05
-1.83176e-06
1.48656e-05
-1.8627e-06
1.48882e-05
-1.87288e-06
1.49198e-05
-1.89158e-06
1.49571e-05
-1.90286e-06
1.50004e-05
-1.91494e-06
1.5047e-05
-1.92082e-06
1.50967e-05
-1.92811e-06
1.51515e-05
-1.93893e-06
1.52097e-05
-1.94603e-06
1.52705e-05
-1.95097e-06
1.53333e-05
-1.95526e-06
1.53978e-05
-1.95825e-06
1.54642e-05
-1.96206e-06
1.55289e-05
-1.95829e-06
1.55877e-05
-1.9445e-06
1.5639e-05
-1.92703e-06
1.56833e-05
-1.91036e-06
1.5721e-05
-1.89541e-06
1.5753e-05
-1.88247e-06
1.57801e-05
-1.87127e-06
1.58029e-05
-1.86177e-06
1.5822e-05
-1.8537e-06
1.58381e-05
-1.84695e-06
1.58516e-05
-1.84128e-06
1.58629e-05
-1.83659e-06
1.58724e-05
-1.83267e-06
1.58804e-05
-1.82943e-06
1.58872e-05
-1.82674e-06
1.58929e-05
-1.8245e-06
1.58978e-05
-1.82265e-06
1.5902e-05
-1.8212e-06
1.59055e-05
-1.8199e-06
1.59085e-05
-1.81869e-06
1.59111e-05
-1.81763e-06
1.59132e-05
-1.81684e-06
1.5915e-05
-1.81619e-06
1.59166e-05
-1.81566e-06
1.5918e-05
-1.8152e-06
1.59192e-05
-1.81481e-06
1.59202e-05
-1.81447e-06
1.59211e-05
-1.81417e-06
1.59219e-05
-1.81392e-06
1.59226e-05
-1.8137e-06
1.59232e-05
-1.8135e-06
1.59237e-05
-1.81333e-06
1.59241e-05
-1.81319e-06
1.59245e-05
-1.81306e-06
1.59248e-05
-1.81295e-06
1.59251e-05
-1.81286e-06
1.59254e-05
-1.81277e-06
1.59256e-05
-1.8127e-06
1.59258e-05
-1.81264e-06
1.59259e-05
-1.81258e-06
1.59261e-05
-1.81254e-06
1.59262e-05
-1.81249e-06
1.59263e-05
-1.81246e-06
1.59264e-05
-1.81243e-06
1.59265e-05
-1.8124e-06
1.59265e-05
-1.81238e-06
1.59266e-05
-1.81236e-06
1.59267e-05
-1.81234e-06
1.59267e-05
-1.81233e-06
1.59267e-05
-1.81231e-06
1.59268e-05
-1.8123e-06
1.59268e-05
-1.81229e-06
1.59268e-05
-1.81228e-06
1.59268e-05
-1.81228e-06
1.59269e-05
-1.81227e-06
1.59269e-05
-1.81226e-06
1.59269e-05
-1.81226e-06
1.59269e-05
-1.81226e-06
1.59269e-05
-1.81225e-06
1.59269e-05
-1.81225e-06
1.59269e-05
-1.81225e-06
1.59269e-05
-1.81224e-06
1.59269e-05
-1.81224e-06
1.59269e-05
-1.81224e-06
1.59269e-05
-1.81224e-06
1.59269e-05
-1.81224e-06
1.5927e-05
-1.81224e-06
1.5927e-05
-1.81224e-06
1.5927e-05
-1.81223e-06
1.5927e-05
-1.81223e-06
1.5927e-05
-1.81223e-06
1.5927e-05
-1.81223e-06
1.5927e-05
-1.81223e-06
1.5927e-05
-1.81223e-06
1.5927e-05
-1.81223e-06
1.5927e-05
-1.81223e-06
1.5927e-05
-1.81223e-06
1.5927e-05
-1.81223e-06
1.5927e-05
-1.81223e-06
1.5927e-05
-1.81223e-06
1.5927e-05
-1.81223e-06
1.5927e-05
-1.81223e-06
1.5927e-05
-1.81223e-06
1.5927e-05
-1.81223e-06
1.5927e-05
-1.81223e-06
1.5927e-05
-1.81223e-06
1.5927e-05
-1.81223e-06
1.5927e-05
-1.81223e-06
1.5927e-05
-1.81223e-06
1.5927e-05
-1.81223e-06
1.5927e-05
-1.81223e-06
1.5927e-05
-1.81223e-06
1.5927e-05
-1.81223e-06
1.5927e-05
-1.81223e-06
1.5927e-05
-1.81223e-06
1.5927e-05
-1.81223e-06
1.5927e-05
-1.81223e-06
1.5927e-05
-1.81223e-06
1.5927e-05
-1.81223e-06
1.5927e-05
-1.81223e-06
1.5927e-05
-1.81223e-06
1.5927e-05
-1.81223e-06
1.5927e-05
-1.81223e-06
1.5927e-05
-1.81223e-06
1.5927e-05
-1.81223e-06
1.5927e-05
-1.81223e-06
1.5927e-05
-1.81223e-06
1.5927e-05
-1.81223e-06
1.5927e-05
-1.81223e-06
1.5927e-05
-1.81223e-06
1.5927e-05
-1.81223e-06
1.5927e-05
-1.81223e-06
1.5927e-05
-1.81223e-06
1.5927e-05
-1.81223e-06
1.5927e-05
-1.81223e-06
1.5927e-05
-1.81223e-06
1.5927e-05
-1.81223e-06
1.5927e-05
-1.81223e-06
1.5927e-05
-1.81223e-06
1.5927e-05
-1.81223e-06
1.5927e-05
-1.81223e-06
1.5927e-05
-1.81223e-06
1.5927e-05
-1.81223e-06
1.5927e-05
-1.81223e-06
1.5927e-05
-1.81223e-06
1.5927e-05
-1.81223e-06
1.5927e-05
-1.81223e-06
1.5927e-05
-1.81223e-06
1.5927e-05
-1.81223e-06
1.5927e-05
-1.81223e-06
1.5927e-05
-1.81223e-06
1.5927e-05
-1.81223e-06
1.5927e-05
-1.81223e-06
1.5927e-05
-1.81223e-06
1.5927e-05
-1.81223e-06
1.5927e-05
-1.81223e-06
1.5927e-05
-1.81223e-06
1.5927e-05
-1.81223e-06
1.5927e-05
-1.81223e-06
1.5927e-05
-1.81223e-06
1.5927e-05
-1.81223e-06
1.5927e-05
-1.81223e-06
1.5927e-05
-1.81223e-06
1.5927e-05
-1.81223e-06
1.5927e-05
-1.81223e-06
1.5927e-05
-1.81223e-06
1.5927e-05
-1.81223e-06
1.5927e-05
-1.81223e-06
1.5927e-05
-1.81223e-06
1.5927e-05
-1.81223e-06
1.5927e-05
-1.81223e-06
1.5927e-05
-1.81223e-06
1.5927e-05
-1.81223e-06
1.5927e-05
-1.81223e-06
1.5927e-05
-1.81223e-06
1.5927e-05
-1.81223e-06
1.5927e-05
-1.81223e-06
1.5927e-05
-1.81223e-06
1.5927e-05
-1.81223e-06
1.5927e-05
-1.81223e-06
1.5927e-05
-1.81223e-06
1.5927e-05
-1.81223e-06
1.5927e-05
-1.81223e-06
1.5927e-05
-1.81223e-06
1.5927e-05
-1.81223e-06
1.5927e-05
-1.81223e-06
1.5927e-05
-1.81223e-06
1.5927e-05
-1.81223e-06
1.5927e-05
-1.81223e-06
1.5927e-05
-1.81223e-06
1.5927e-05
-1.81223e-06
1.5927e-05
-1.81223e-06
1.5927e-05
-1.81223e-06
1.5927e-05
-1.81223e-06
1.5927e-05
-1.81223e-06
1.5927e-05
-1.81223e-06
1.5927e-05
-1.81223e-06
1.5927e-05
-1.81223e-06
1.5927e-05
-1.81223e-06
1.5927e-05
-1.81223e-06
1.5927e-05
-1.81223e-06
1.5927e-05
-1.81223e-06
1.5927e-05
-1.81223e-06
1.5927e-05
-1.81223e-06
1.5927e-05
-1.81223e-06
1.5927e-05
-1.81223e-06
1.5927e-05
-1.81223e-06
1.5927e-05
-1.81223e-06
1.5927e-05
-1.81223e-06
1.5927e-05
-1.81223e-06
1.5927e-05
-1.81223e-06
1.5927e-05
-1.81223e-06
1.5927e-05
-1.81223e-06
1.5927e-05
-1.81223e-06
1.5927e-05
-1.81223e-06
1.5927e-05
-1.81223e-06
1.5927e-05
-1.81223e-06
1.5927e-05
-1.81223e-06
1.5927e-05
-1.81223e-06
1.5927e-05
-1.81223e-06
1.5927e-05
-1.81223e-06
1.5927e-05
-1.81223e-06
1.5927e-05
-1.81223e-06
1.5927e-05
-1.81223e-06
1.5927e-05
-1.81223e-06
1.5927e-05
-1.81223e-06
1.5927e-05
-1.81223e-06
1.5927e-05
-1.81223e-06
1.5927e-05
-1.81223e-06
1.5927e-05
-1.81223e-06
1.5927e-05
-1.81223e-06
1.5927e-05
-1.81223e-06
1.5927e-05
-1.81223e-06
1.5927e-05
-1.81223e-06
1.5927e-05
-1.81223e-06
1.5927e-05
-1.81223e-06
1.5927e-05
-1.81223e-06
1.5927e-05
-1.81223e-06
1.5927e-05
-1.81223e-06
1.5927e-05
-1.81223e-06
1.5927e-05
-1.81223e-06
1.5927e-05
-1.81223e-06
1.5927e-05
-1.81223e-06
1.5927e-05
-1.81223e-06
1.5927e-05
-1.81223e-06
1.5927e-05
-1.81223e-06
1.5927e-05
-1.81223e-06
1.5927e-05
-1.81223e-06
1.5927e-05
-1.81223e-06
1.5927e-05
-1.81223e-06
1.5927e-05
-1.81223e-06
1.5927e-05
-1.81223e-06
1.5927e-05
-1.81223e-06
1.5927e-05
-1.81223e-06
1.5927e-05
-1.81223e-06
1.5927e-05
-1.81223e-06
1.5927e-05
-1.81223e-06
1.5927e-05
-1.81223e-06
1.5927e-05
-1.81223e-06
1.5927e-05
-1.81223e-06
1.5927e-05
-1.81223e-06
1.5927e-05
-1.81223e-06
1.5927e-05
-1.81223e-06
1.5927e-05
-1.81223e-06
1.5927e-05
-1.81223e-06
1.5927e-05
-1.81223e-06
1.5927e-05
-1.81223e-06
1.5927e-05
-1.81223e-06
1.5927e-05
-1.81223e-06
1.5927e-05
-1.81223e-06
1.5927e-05
-1.81223e-06
1.5927e-05
-1.81223e-06
1.5927e-05
-1.81223e-06
1.5927e-05
-1.81223e-06
1.5927e-05
-1.81223e-06
1.5927e-05
-1.81223e-06
1.5927e-05
-1.81223e-06
1.5927e-05
-1.81223e-06
1.5927e-05
-1.81223e-06
1.5927e-05
-1.81223e-06
1.5927e-05
-1.81223e-06
1.5927e-05
-1.81223e-06
1.5927e-05
-1.81223e-06
1.5927e-05
-1.81223e-06
1.5927e-05
-1.81223e-06
1.5927e-05
-1.81223e-06
1.5927e-05
-1.81223e-06
1.5927e-05
-1.81223e-06
1.5927e-05
-1.81223e-06
1.5927e-05
-1.81223e-06
1.5927e-05
-1.81223e-06
1.5927e-05
-1.81223e-06
1.5927e-05
-1.81224e-06
1.5927e-05
-1.81223e-06
-1.81221e-06
2.15415e-05
1.77807e-05
2.01943e-05
7.14819e-06
1.91058e-05
1.74132e-06
1.83187e-05
-2.05731e-07
1.776e-05
-6.85633e-07
1.74378e-05
-1.09796e-06
1.72157e-05
-1.34413e-06
1.70791e-05
-1.51046e-06
1.69896e-05
-1.63728e-06
1.69397e-05
-1.7239e-06
1.69109e-05
-1.78168e-06
1.69039e-05
-1.8248e-06
1.69112e-05
-1.87003e-06
1.69286e-05
-1.89021e-06
1.69571e-05
-1.92017e-06
1.6993e-05
-1.93876e-06
1.70367e-05
-1.9586e-06
1.70851e-05
-1.96923e-06
1.71374e-05
-1.98041e-06
1.71955e-05
-1.99699e-06
1.72578e-05
-2.00834e-06
1.73233e-05
-2.01651e-06
1.73915e-05
-2.02341e-06
1.74619e-05
-2.02865e-06
1.75345e-05
-2.03466e-06
1.76048e-05
-2.02862e-06
1.76684e-05
-2.00805e-06
1.77241e-05
-1.98278e-06
1.77724e-05
-1.95863e-06
1.78138e-05
-1.93683e-06
1.78491e-05
-1.9178e-06
1.78791e-05
-1.90125e-06
1.79045e-05
-1.88712e-06
1.79258e-05
-1.87507e-06
1.79438e-05
-1.86494e-06
1.7959e-05
-1.85642e-06
1.79717e-05
-1.84932e-06
1.79824e-05
-1.8434e-06
1.79915e-05
-1.83847e-06
1.79991e-05
-1.83438e-06
1.80056e-05
-1.83097e-06
1.80111e-05
-1.82813e-06
1.80158e-05
-1.8259e-06
1.80198e-05
-1.82392e-06
1.80232e-05
-1.82209e-06
1.8026e-05
-1.82048e-06
1.80284e-05
-1.81925e-06
1.80305e-05
-1.81827e-06
1.80323e-05
-1.81745e-06
1.80339e-05
-1.81674e-06
1.80352e-05
-1.81614e-06
1.80363e-05
-1.81562e-06
1.80373e-05
-1.81518e-06
1.80382e-05
-1.81479e-06
1.8039e-05
-1.81445e-06
1.80396e-05
-1.81416e-06
1.80402e-05
-1.8139e-06
1.80407e-05
-1.81368e-06
1.80411e-05
-1.81349e-06
1.80415e-05
-1.81332e-06
1.80418e-05
-1.81318e-06
1.80421e-05
-1.81305e-06
1.80423e-05
-1.81294e-06
1.80425e-05
-1.81285e-06
1.80427e-05
-1.81276e-06
1.80429e-05
-1.81269e-06
1.8043e-05
-1.81263e-06
1.80431e-05
-1.81257e-06
1.80432e-05
-1.81253e-06
1.80433e-05
-1.81249e-06
1.80434e-05
-1.81245e-06
1.80434e-05
-1.81242e-06
1.80435e-05
-1.8124e-06
1.80435e-05
-1.81237e-06
1.80436e-05
-1.81235e-06
1.80436e-05
-1.81234e-06
1.80436e-05
-1.81232e-06
1.80437e-05
-1.81231e-06
1.80437e-05
-1.8123e-06
1.80437e-05
-1.81229e-06
1.80437e-05
-1.81228e-06
1.80437e-05
-1.81227e-06
1.80438e-05
-1.81227e-06
1.80438e-05
-1.81226e-06
1.80438e-05
-1.81226e-06
1.80438e-05
-1.81225e-06
1.80438e-05
-1.81225e-06
1.80438e-05
-1.81225e-06
1.80438e-05
-1.81225e-06
1.80438e-05
-1.81224e-06
1.80438e-05
-1.81224e-06
1.80438e-05
-1.81224e-06
1.80438e-05
-1.81224e-06
1.80438e-05
-1.81224e-06
1.80438e-05
-1.81224e-06
1.80438e-05
-1.81224e-06
1.80438e-05
-1.81223e-06
1.80438e-05
-1.81223e-06
1.80438e-05
-1.81223e-06
1.80438e-05
-1.81223e-06
1.80438e-05
-1.81223e-06
1.80438e-05
-1.81223e-06
1.80438e-05
-1.81223e-06
1.80438e-05
-1.81223e-06
1.80438e-05
-1.81223e-06
1.80438e-05
-1.81223e-06
1.80438e-05
-1.81223e-06
1.80438e-05
-1.81223e-06
1.80438e-05
-1.81223e-06
1.80438e-05
-1.81223e-06
1.80438e-05
-1.81223e-06
1.80438e-05
-1.81223e-06
1.80438e-05
-1.81223e-06
1.80438e-05
-1.81223e-06
1.80438e-05
-1.81223e-06
1.80438e-05
-1.81223e-06
1.80438e-05
-1.81223e-06
1.80438e-05
-1.81223e-06
1.80438e-05
-1.81223e-06
1.80438e-05
-1.81223e-06
1.80438e-05
-1.81223e-06
1.80438e-05
-1.81223e-06
1.80438e-05
-1.81223e-06
1.80438e-05
-1.81223e-06
1.80438e-05
-1.81223e-06
1.80438e-05
-1.81223e-06
1.80438e-05
-1.81223e-06
1.80438e-05
-1.81223e-06
1.80438e-05
-1.81223e-06
1.80438e-05
-1.81223e-06
1.80438e-05
-1.81223e-06
1.80438e-05
-1.81223e-06
1.80438e-05
-1.81223e-06
1.80438e-05
-1.81223e-06
1.80438e-05
-1.81223e-06
1.80438e-05
-1.81223e-06
1.80438e-05
-1.81223e-06
1.80438e-05
-1.81223e-06
1.80438e-05
-1.81223e-06
1.80438e-05
-1.81223e-06
1.80438e-05
-1.81223e-06
1.80438e-05
-1.81223e-06
1.80438e-05
-1.81223e-06
1.80438e-05
-1.81223e-06
1.80438e-05
-1.81223e-06
1.80438e-05
-1.81223e-06
1.80438e-05
-1.81223e-06
1.80438e-05
-1.81223e-06
1.80438e-05
-1.81223e-06
1.80438e-05
-1.81223e-06
1.80438e-05
-1.81223e-06
1.80438e-05
-1.81223e-06
1.80438e-05
-1.81223e-06
1.80438e-05
-1.81223e-06
1.80438e-05
-1.81223e-06
1.80438e-05
-1.81223e-06
1.80438e-05
-1.81223e-06
1.80438e-05
-1.81223e-06
1.80438e-05
-1.81223e-06
1.80438e-05
-1.81223e-06
1.80438e-05
-1.81223e-06
1.80438e-05
-1.81223e-06
1.80438e-05
-1.81223e-06
1.80438e-05
-1.81223e-06
1.80438e-05
-1.81223e-06
1.80438e-05
-1.81223e-06
1.80438e-05
-1.81223e-06
1.80438e-05
-1.81223e-06
1.80438e-05
-1.81223e-06
1.80438e-05
-1.81223e-06
1.80438e-05
-1.81223e-06
1.80438e-05
-1.81223e-06
1.80438e-05
-1.81223e-06
1.80438e-05
-1.81223e-06
1.80438e-05
-1.81223e-06
1.80438e-05
-1.81223e-06
1.80438e-05
-1.81223e-06
1.80438e-05
-1.81223e-06
1.80438e-05
-1.81223e-06
1.80438e-05
-1.81223e-06
1.80438e-05
-1.81223e-06
1.80438e-05
-1.81223e-06
1.80438e-05
-1.81223e-06
1.80438e-05
-1.81223e-06
1.80438e-05
-1.81223e-06
1.80438e-05
-1.81223e-06
1.80438e-05
-1.81223e-06
1.80438e-05
-1.81223e-06
1.80438e-05
-1.81223e-06
1.80438e-05
-1.81223e-06
1.80438e-05
-1.81223e-06
1.80438e-05
-1.81223e-06
1.80438e-05
-1.81223e-06
1.80438e-05
-1.81223e-06
1.80438e-05
-1.81223e-06
1.80438e-05
-1.81223e-06
1.80438e-05
-1.81223e-06
1.80438e-05
-1.81223e-06
1.80438e-05
-1.81223e-06
1.80438e-05
-1.81223e-06
1.80438e-05
-1.81223e-06
1.80438e-05
-1.81223e-06
1.80438e-05
-1.81223e-06
1.80438e-05
-1.81223e-06
1.80438e-05
-1.81223e-06
1.80438e-05
-1.81223e-06
1.80438e-05
-1.81223e-06
1.80438e-05
-1.81223e-06
1.80438e-05
-1.81223e-06
1.80438e-05
-1.81223e-06
1.80438e-05
-1.81223e-06
1.80438e-05
-1.81223e-06
1.80438e-05
-1.81223e-06
1.80438e-05
-1.81223e-06
1.80438e-05
-1.81223e-06
1.80438e-05
-1.81223e-06
1.80438e-05
-1.81223e-06
1.80438e-05
-1.81223e-06
1.80438e-05
-1.81223e-06
1.80438e-05
-1.81223e-06
1.80438e-05
-1.81223e-06
1.80438e-05
-1.81223e-06
1.80438e-05
-1.81223e-06
1.80438e-05
-1.81223e-06
1.80438e-05
-1.81223e-06
1.80438e-05
-1.81223e-06
1.80438e-05
-1.81223e-06
1.80438e-05
-1.81223e-06
1.80438e-05
-1.81223e-06
1.80438e-05
-1.81223e-06
1.80438e-05
-1.81223e-06
1.80438e-05
-1.81223e-06
1.80438e-05
-1.81223e-06
1.80438e-05
-1.81223e-06
1.80438e-05
-1.81223e-06
1.80438e-05
-1.81223e-06
1.80438e-05
-1.81223e-06
1.80438e-05
-1.81223e-06
1.80438e-05
-1.81223e-06
1.80438e-05
-1.81223e-06
1.80438e-05
-1.81223e-06
1.80438e-05
-1.81223e-06
1.80438e-05
-1.81223e-06
1.80438e-05
-1.81223e-06
1.80438e-05
-1.81223e-06
1.80438e-05
-1.81223e-06
1.80438e-05
-1.81223e-06
1.80438e-05
-1.81223e-06
1.80438e-05
-1.81223e-06
1.80438e-05
-1.81223e-06
1.80438e-05
-1.81223e-06
1.80438e-05
-1.81223e-06
1.80438e-05
-1.81223e-06
1.80438e-05
-1.81223e-06
1.80438e-05
-1.81223e-06
1.80438e-05
-1.81223e-06
1.80438e-05
-1.81223e-06
1.80438e-05
-1.81223e-06
1.80438e-05
-1.81223e-06
1.80438e-05
-1.81223e-06
1.80438e-05
-1.81223e-06
1.80438e-05
-1.81223e-06
1.80438e-05
-1.81223e-06
1.80438e-05
-1.81223e-06
1.80438e-05
-1.81223e-06
1.80438e-05
-1.81223e-06
1.80438e-05
-1.81223e-06
1.80438e-05
-1.81223e-06
1.80438e-05
-1.81223e-06
1.80438e-05
-1.81223e-06
1.80438e-05
-1.81223e-06
1.80438e-05
-1.81223e-06
1.80438e-05
-1.81223e-06
1.80438e-05
-1.81223e-06
1.80438e-05
-1.81223e-06
1.80438e-05
-1.81223e-06
1.80438e-05
-1.81223e-06
1.80438e-05
-1.81223e-06