/*--------------------------------*- C++ -*----------------------------------*\
| =========                 |                                                 |
| \\      /  F ield         | foam-extend: Open Source CFD                    |
|  \\    /   O peration     | Version:     3.2                                |
|   \\  /    A nd           | Web:         http://www.foam-extend.org         |
|    \\/     M anipulation  | For copyright notice see file Copyright         |
\*---------------------------------------------------------------------------*/
FoamFile
{
    version     2.0;
    format      ascii;
    class       areaVectorField;
    location    "83";
    object      aMeshCentre;
}
// * * * * * * * * * * * * * * * * * * * * * * * * * * * * * * * * * * * * * //

dimensions      [0 0 0 0 0 0 0];

internalField   nonuniform List<vector> 
300
(
(0.025 0.01 -0.000125)
(0.075 0.01 -0.000375)
(0.125 0.01 -0.000625)
(0.175 0.01 -0.000875)
(0.225 0.01 -0.001125)
(0.275 0.01 -0.001375)
(0.325 0.01 -0.001625)
(0.375 0.01 -0.001875)
(0.425 0.01 -0.002125)
(0.475 0.01 -0.002375)
(0.525 0.01 -0.002625)
(0.575 0.01 -0.002875)
(0.625 0.01 -0.003125)
(0.675 0.01 -0.003375)
(0.725 0.01 -0.003625)
(0.775 0.01 -0.003875)
(0.825 0.01 -0.004125)
(0.875 0.01 -0.004375)
(0.925 0.01 -0.004625)
(0.975 0.01 -0.004875)
(1.025 0.01 -0.005125)
(1.075 0.01 -0.005375)
(1.125 0.01 -0.005625)
(1.175 0.01 -0.005875)
(1.225 0.01 -0.006125)
(1.275 0.01 -0.006375)
(1.325 0.01 -0.006625)
(1.375 0.01 -0.006875)
(1.425 0.01 -0.007125)
(1.475 0.01 -0.007375)
(1.525 0.01 -0.007625)
(1.575 0.01 -0.007875)
(1.625 0.01 -0.008125)
(1.675 0.01 -0.008375)
(1.725 0.01 -0.008625)
(1.775 0.01 -0.008875)
(1.825 0.01 -0.009125)
(1.875 0.01 -0.009375)
(1.925 0.01 -0.009625)
(1.975 0.01 -0.009875)
(2.025 0.01 -0.010125)
(2.075 0.01 -0.010375)
(2.125 0.01 -0.010625)
(2.175 0.01 -0.010875)
(2.225 0.01 -0.011125)
(2.275 0.01 -0.011375)
(2.325 0.01 -0.011625)
(2.375 0.01 -0.011875)
(2.425 0.01 -0.012125)
(2.475 0.01 -0.012375)
(2.525 0.01 -0.012625)
(2.575 0.01 -0.012875)
(2.625 0.01 -0.013125)
(2.675 0.01 -0.013375)
(2.725 0.01 -0.013625)
(2.775 0.01 -0.013875)
(2.825 0.01 -0.014125)
(2.875 0.01 -0.014375)
(2.925 0.01 -0.014625)
(2.975 0.01 -0.014875)
(3.025 0.01 -0.015125)
(3.075 0.01 -0.015375)
(3.125 0.01 -0.015625)
(3.175 0.01 -0.015875)
(3.225 0.01 -0.016125)
(3.275 0.01 -0.016375)
(3.325 0.01 -0.016625)
(3.375 0.01 -0.016875)
(3.425 0.01 -0.017125)
(3.475 0.01 -0.017375)
(3.525 0.01 -0.017625)
(3.575 0.01 -0.017875)
(3.625 0.01 -0.018125)
(3.675 0.01 -0.018375)
(3.725 0.01 -0.018625)
(3.775 0.01 -0.018875)
(3.825 0.01 -0.019125)
(3.875 0.01 -0.019375)
(3.925 0.01 -0.019625)
(3.975 0.01 -0.019875)
(4.025 0.01 -0.020125)
(4.075 0.01 -0.020375)
(4.125 0.01 -0.020625)
(4.175 0.01 -0.020875)
(4.225 0.01 -0.021125)
(4.275 0.01 -0.021375)
(4.325 0.01 -0.021625)
(4.375 0.01 -0.021875)
(4.425 0.01 -0.022125)
(4.475 0.01 -0.022375)
(4.525 0.01 -0.022625)
(4.575 0.01 -0.022875)
(4.625 0.01 -0.023125)
(4.675 0.01 -0.023375)
(4.725 0.01 -0.023625)
(4.775 0.01 -0.023875)
(4.825 0.01 -0.024125)
(4.875 0.01 -0.024375)
(4.925 0.01 -0.024625)
(4.975 0.01 -0.024875)
(5.025 0.01 -0.025125)
(5.075 0.01 -0.025375)
(5.125 0.01 -0.025625)
(5.175 0.01 -0.025875)
(5.225 0.01 -0.026125)
(5.275 0.01 -0.026375)
(5.325 0.01 -0.026625)
(5.375 0.01 -0.026875)
(5.425 0.01 -0.027125)
(5.475 0.01 -0.027375)
(5.525 0.01 -0.027625)
(5.575 0.01 -0.027875)
(5.625 0.01 -0.028125)
(5.675 0.01 -0.028375)
(5.725 0.01 -0.028625)
(5.775 0.01 -0.028875)
(5.825 0.01 -0.029125)
(5.875 0.01 -0.029375)
(5.925 0.01 -0.029625)
(5.975 0.01 -0.029875)
(6.025 0.01 -0.030125)
(6.075 0.01 -0.030375)
(6.125 0.01 -0.030625)
(6.175 0.01 -0.030875)
(6.225 0.01 -0.031125)
(6.275 0.01 -0.031375)
(6.325 0.01 -0.031625)
(6.375 0.01 -0.031875)
(6.425 0.01 -0.032125)
(6.475 0.01 -0.032375)
(6.525 0.01 -0.032625)
(6.575 0.01 -0.032875)
(6.625 0.01 -0.033125)
(6.675 0.01 -0.033375)
(6.725 0.01 -0.033625)
(6.775 0.01 -0.033875)
(6.825 0.01 -0.034125)
(6.875 0.01 -0.034375)
(6.925 0.01 -0.034625)
(6.975 0.01 -0.034875)
(7.025 0.01 -0.035125)
(7.075 0.01 -0.035375)
(7.125 0.01 -0.035625)
(7.175 0.01 -0.035875)
(7.225 0.01 -0.036125)
(7.275 0.01 -0.036375)
(7.325 0.01 -0.036625)
(7.375 0.01 -0.036875)
(7.425 0.01 -0.037125)
(7.475 0.01 -0.037375)
(7.525 0.01 -0.037625)
(7.575 0.01 -0.037875)
(7.625 0.01 -0.038125)
(7.675 0.01 -0.038375)
(7.725 0.01 -0.038625)
(7.775 0.01 -0.038875)
(7.825 0.01 -0.039125)
(7.875 0.01 -0.039375)
(7.925 0.01 -0.039625)
(7.975 0.01 -0.039875)
(8.025 0.01 -0.040125)
(8.075 0.01 -0.040375)
(8.125 0.01 -0.040625)
(8.175 0.01 -0.040875)
(8.225 0.01 -0.041125)
(8.275 0.01 -0.041375)
(8.325 0.01 -0.041625)
(8.375 0.01 -0.041875)
(8.425 0.01 -0.042125)
(8.475 0.01 -0.042375)
(8.525 0.01 -0.042625)
(8.575 0.01 -0.042875)
(8.625 0.01 -0.043125)
(8.675 0.01 -0.043375)
(8.725 0.01 -0.043625)
(8.775 0.01 -0.043875)
(8.825 0.01 -0.044125)
(8.875 0.01 -0.044375)
(8.925 0.01 -0.044625)
(8.975 0.01 -0.044875)
(9.025 0.01 -0.045125)
(9.075 0.01 -0.045375)
(9.125 0.01 -0.045625)
(9.175 0.01 -0.045875)
(9.225 0.01 -0.046125)
(9.275 0.01 -0.046375)
(9.325 0.01 -0.046625)
(9.375 0.01 -0.046875)
(9.425 0.01 -0.047125)
(9.475 0.01 -0.047375)
(9.525 0.01 -0.047625)
(9.575 0.01 -0.047875)
(9.625 0.01 -0.048125)
(9.675 0.01 -0.048375)
(9.725 0.01 -0.048625)
(9.775 0.01 -0.048875)
(9.825 0.01 -0.049125)
(9.875 0.01 -0.049375)
(9.925 0.01 -0.049625)
(9.975 0.01 -0.049875)
(10.025 0.01 -0.050125)
(10.075 0.01 -0.050375)
(10.125 0.01 -0.050625)
(10.175 0.01 -0.050875)
(10.225 0.01 -0.051125)
(10.275 0.01 -0.051375)
(10.325 0.01 -0.051625)
(10.375 0.01 -0.051875)
(10.425 0.01 -0.052125)
(10.475 0.01 -0.052375)
(10.525 0.01 -0.052625)
(10.575 0.01 -0.052875)
(10.625 0.01 -0.053125)
(10.675 0.01 -0.053375)
(10.725 0.01 -0.053625)
(10.775 0.01 -0.053875)
(10.825 0.01 -0.054125)
(10.875 0.01 -0.054375)
(10.925 0.01 -0.054625)
(10.975 0.01 -0.054875)
(11.025 0.01 -0.055125)
(11.075 0.01 -0.055375)
(11.125 0.01 -0.055625)
(11.175 0.01 -0.055875)
(11.225 0.01 -0.056125)
(11.275 0.01 -0.056375)
(11.325 0.01 -0.056625)
(11.375 0.01 -0.056875)
(11.425 0.01 -0.057125)
(11.475 0.01 -0.057375)
(11.525 0.01 -0.057625)
(11.575 0.01 -0.057875)
(11.625 0.01 -0.058125)
(11.675 0.01 -0.058375)
(11.725 0.01 -0.058625)
(11.775 0.01 -0.058875)
(11.825 0.01 -0.059125)
(11.875 0.01 -0.059375)
(11.925 0.01 -0.059625)
(11.975 0.01 -0.059875)
(12.025 0.01 -0.060125)
(12.075 0.01 -0.060375)
(12.125 0.01 -0.060625)
(12.175 0.01 -0.060875)
(12.225 0.01 -0.061125)
(12.275 0.01 -0.061375)
(12.325 0.01 -0.061625)
(12.375 0.01 -0.061875)
(12.425 0.01 -0.062125)
(12.475 0.01 -0.062375)
(12.525 0.01 -0.062625)
(12.575 0.01 -0.062875)
(12.625 0.01 -0.063125)
(12.675 0.01 -0.063375)
(12.725 0.01 -0.063625)
(12.775 0.01 -0.063875)
(12.825 0.01 -0.064125)
(12.875 0.01 -0.064375)
(12.925 0.01 -0.064625)
(12.975 0.01 -0.064875)
(13.025 0.01 -0.065125)
(13.075 0.01 -0.065375)
(13.125 0.01 -0.065625)
(13.175 0.01 -0.065875)
(13.225 0.01 -0.066125)
(13.275 0.01 -0.066375)
(13.325 0.01 -0.066625)
(13.375 0.01 -0.066875)
(13.425 0.01 -0.067125)
(13.475 0.01 -0.067375)
(13.525 0.01 -0.067625)
(13.575 0.01 -0.067875)
(13.625 0.01 -0.068125)
(13.675 0.01 -0.068375)
(13.725 0.01 -0.068625)
(13.775 0.01 -0.068875)
(13.825 0.01 -0.069125)
(13.875 0.01 -0.069375)
(13.925 0.01 -0.069625)
(13.975 0.01 -0.069875)
(14.025 0.01 -0.070125)
(14.075 0.01 -0.070375)
(14.125 0.01 -0.070625)
(14.175 0.01 -0.070875)
(14.225 0.01 -0.071125)
(14.275 0.01 -0.071375)
(14.325 0.01 -0.071625)
(14.375 0.01 -0.071875)
(14.425 0.01 -0.072125)
(14.475 0.01 -0.072375)
(14.525 0.01 -0.072625)
(14.575 0.01 -0.072875)
(14.625 0.01 -0.073125)
(14.675 0.01 -0.073375)
(14.725 0.01 -0.073625)
(14.775 0.01 -0.073875)
(14.825 0.01 -0.074125)
(14.875 0.01 -0.074375)
(14.925 0.01 -0.074625)
(14.975 0.01 -0.074875)
)
;

boundaryField
{
    inlet
    {
        type            calculated;
        value           uniform (0 0 0);
    }
    outlet
    {
        type            calculated;
        value           uniform (0 0 0);
    }
    sideWall
    {
        type            empty;
    }
}


// ************************************************************************* //
