/*--------------------------------*- C++ -*----------------------------------*\
| =========                 |                                                 |
| \\      /  F ield         | foam-extend: Open Source CFD                    |
|  \\    /   O peration     | Version:     3.2                                |
|   \\  /    A nd           | Web:         http://www.foam-extend.org         |
|    \\/     M anipulation  | For copyright notice see file Copyright         |
\*---------------------------------------------------------------------------*/
FoamFile
{
    version     2.0;
    format      ascii;
    class       areaVectorField;
    location    "83";
    object      aUf;
}
// * * * * * * * * * * * * * * * * * * * * * * * * * * * * * * * * * * * * * //

dimensions      [0 1 -1 0 0 0 0];

internalField   nonuniform List<vector> 
300
(
(0.932397 -1.48078e-25 0.0216727)
(0.745117 2.29219e-25 8.17048e-05)
(0.641309 9.1993e-26 -0.00343732)
(0.642665 0 -0.003433)
(0.632404 -1.08217e-26 -0.0033167)
(0.6326 -9.05531e-27 -0.00320389)
(0.627672 -1.1601e-26 -0.00319724)
(0.627485 -3.65778e-27 -0.00314896)
(0.625698 0 -0.00316229)
(0.626391 -9.51137e-28 -0.00314142)
(0.626531 0 -0.00315693)
(0.627699 4.66303e-29 -0.00315171)
(0.628843 -6.77033e-28 -0.00316666)
(0.63068 -1.70717e-27 -0.00317081)
(0.632385 0 -0.00318139)
(0.634553 0 -0.00319159)
(0.636742 0 -0.0032036)
(0.639195 1.94648e-27 -0.0032145)
(0.641613 0 -0.00322853)
(0.644279 0 -0.00324248)
(0.647058 0 -0.00325645)
(0.649921 2.72196e-27 -0.00327043)
(0.652846 0 -0.00328525)
(0.655808 0 -0.00329961)
(0.658792 0 -0.00331405)
(0.66179 3.12373e-27 -0.00332751)
(0.664556 -2.88949e-27 -0.00333869)
(0.666964 0 -0.00334736)
(0.668988 0 -0.00335476)
(0.670685 1.89481e-27 -0.00336099)
(0.672093 -1.61513e-27 -0.00336639)
(0.673267 0 -0.00337093)
(0.674238 0 -0.00337484)
(0.675048 0 -0.00337811)
(0.67572 -8.11731e-28 -0.00338091)
(0.676281 0 -0.00338326)
(0.676749 0 -0.00338527)
(0.677141 0 -0.00338696)
(0.67747 0 -0.0033884)
(0.677747 0 -0.00338961)
(0.677981 0 -0.00339065)
(0.678179 -9.10555e-43 -0.00339153)
(0.678348 0 -0.00339231)
(0.678494 0 -0.00339293)
(0.678617 0 -0.00339346)
(0.67872 0 -0.00339392)
(0.678807 6.32177e-35 -0.00339433)
(0.678882 0 -0.00339466)
(0.678946 0 -0.00339496)
(0.679002 0 -0.00339521)
(0.679051 0 -0.00339543)
(0.679094 -9.15359e-43 -0.00339563)
(0.679131 0 -0.00339579)
(0.679163 3.90261e-29 -0.00339594)
(0.679191 0 -0.00339606)
(0.679215 0 -0.00339617)
(0.679237 -9.1607e-43 -0.00339627)
(0.679255 0 -0.00339635)
(0.679271 -1.914e-29 -0.00339642)
(0.679285 0 -0.00339648)
(0.679297 0 -0.00339654)
(0.679308 1.24564e-29 -0.00339658)
(0.679317 0 -0.00339662)
(0.679325 -9.16505e-43 -0.00339666)
(0.679332 0 -0.00339669)
(0.679338 0 -0.00339671)
(0.679343 -9.16593e-43 -0.00339674)
(0.679347 0 -0.00339675)
(0.679351 -9.16634e-43 -0.00339677)
(0.679355 0 -0.00339679)
(0.679357 -3.38414e-30 -0.0033968)
(0.67936 -9.16677e-43 -0.00339681)
(0.679362 0 -0.00339682)
(0.679364 2.17913e-30 -0.00339683)
(0.679365 0 -0.00339683)
(0.679367 0 -0.00339684)
(0.679368 -9.16717e-43 -0.00339685)
(0.679369 0 -0.00339685)
(0.67937 -9.16727e-43 -0.00339685)
(0.679371 0 -0.00339686)
(0.679371 0 -0.00339686)
(0.679372 0 -0.00339686)
(0.679372 0 -0.00339686)
(0.679373 0 -0.00339687)
(0.679373 0 -0.00339687)
(0.679374 -3.67936e-31 -0.00339687)
(0.679374 0 -0.00339687)
(0.679374 0 -0.00339687)
(0.679374 2.34554e-31 -0.00339687)
(0.679374 0 -0.00339687)
(0.679375 0 -0.00339687)
(0.679375 0 -0.00339687)
(0.679375 0 -0.00339687)
(0.679375 0 -0.00339687)
(0.679375 0 -0.00339688)
(0.679375 0 -0.00339688)
(0.679375 0 -0.00339688)
(0.679375 0 -0.00339688)
(0.679375 0 -0.00339688)
(0.679375 0 -0.00339688)
(0.679375 0 -0.00339688)
(0.679375 -3.03421e-32 -0.00339688)
(0.679375 0 -0.00339688)
(0.679375 0 -0.00339688)
(0.679375 2.02258e-32 -0.00339688)
(0.679375 0 -0.00339688)
(0.679375 0 -0.00339688)
(0.679375 0 -0.00339688)
(0.679375 0 -0.00339688)
(0.679375 0 -0.00339688)
(0.679375 0 -0.00339688)
(0.679375 0 -0.00339688)
(0.679375 0 -0.00339688)
(0.679375 0 -0.00339688)
(0.679375 0 -0.00339688)
(0.679375 0 -0.00339688)
(0.679375 0 -0.00339688)
(0.679375 -3.22474e-33 -0.00339688)
(0.679375 0 -0.00339688)
(0.679375 2.38435e-33 -0.00339688)
(0.679375 0 -0.00339688)
(0.679375 0 -0.00339688)
(0.679375 0 -0.00339688)
(0.679375 0 -0.00339688)
(0.679375 0 -0.00339688)
(0.679375 0 -0.00339688)
(0.679375 0 -0.00339688)
(0.679375 0 -0.00339688)
(0.679375 0 -0.00339688)
(0.679375 0 -0.00339688)
(0.679375 0 -0.00339688)
(0.679375 3.64425e-34 -0.00339688)
(0.679375 0 -0.00339688)
(0.679375 0 -0.00339688)
(0.679375 0 -0.00339688)
(0.679375 0 -0.00339688)
(0.679375 0 -0.00339688)
(0.679375 0 -0.00339688)
(0.679375 0 -0.00339688)
(0.679375 0 -0.00339688)
(0.679375 0 -0.00339688)
(0.679375 0 -0.00339688)
(0.679375 0 -0.00339688)
(0.679375 0 -0.00339688)
(0.679375 0 -0.00339688)
(0.679375 0 -0.00339688)
(0.679375 0 -0.00339688)
(0.679375 0 -0.00339688)
(0.679375 0 -0.00339688)
(0.679375 0 -0.00339688)
(0.679375 0 -0.00339688)
(0.679375 0 -0.00339688)
(0.679375 0 -0.00339688)
(0.679375 0 -0.00339688)
(0.679375 0 -0.00339688)
(0.679375 0 -0.00339688)
(0.679375 0 -0.00339688)
(0.679375 0 -0.00339688)
(0.679375 0 -0.00339688)
(0.679375 0 -0.00339688)
(0.679375 0 -0.00339688)
(0.679375 0 -0.00339688)
(0.679375 0 -0.00339688)
(0.679375 0 -0.00339688)
(0.679375 0 -0.00339688)
(0.679375 0 -0.00339688)
(0.679375 0 -0.00339688)
(0.679375 0 -0.00339688)
(0.679375 0 -0.00339688)
(0.679375 0 -0.00339688)
(0.679375 0 -0.00339688)
(0.679375 0 -0.00339688)
(0.679375 0 -0.00339688)
(0.679375 0 -0.00339688)
(0.679375 0 -0.00339688)
(0.679375 0 -0.00339688)
(0.679375 0 -0.00339688)
(0.679375 0 -0.00339688)
(0.679375 0 -0.00339688)
(0.679375 0 -0.00339688)
(0.679375 0 -0.00339688)
(0.679375 0 -0.00339688)
(0.679375 0 -0.00339688)
(0.679375 0 -0.00339688)
(0.679375 0 -0.00339688)
(0.679375 0 -0.00339688)
(0.679375 0 -0.00339688)
(0.679375 0 -0.00339688)
(0.679375 0 -0.00339688)
(0.679375 0 -0.00339688)
(0.679375 0 -0.00339688)
(0.679375 0 -0.00339688)
(0.679375 0 -0.00339688)
(0.679375 0 -0.00339688)
(0.679375 0 -0.00339688)
(0.679375 0 -0.00339688)
(0.679375 0 -0.00339688)
(0.679375 0 -0.00339688)
(0.679375 0 -0.00339688)
(0.679375 0 -0.00339688)
(0.679375 0 -0.00339688)
(0.679375 0 -0.00339688)
(0.679375 0 -0.00339688)
(0.679375 0 -0.00339688)
(0.679375 0 -0.00339688)
(0.679375 0 -0.00339688)
(0.679375 0 -0.00339688)
(0.679375 0 -0.00339688)
(0.679375 0 -0.00339688)
(0.679375 0 -0.00339688)
(0.679375 0 -0.00339688)
(0.679375 0 -0.00339688)
(0.679375 0 -0.00339688)
(0.679375 0 -0.00339688)
(0.679375 0 -0.00339688)
(0.679375 0 -0.00339688)
(0.679375 0 -0.00339688)
(0.679375 0 -0.00339688)
(0.679375 0 -0.00339688)
(0.679375 0 -0.00339688)
(0.679375 0 -0.00339688)
(0.679375 0 -0.00339688)
(0.679375 0 -0.00339688)
(0.679375 0 -0.00339688)
(0.679375 0 -0.00339688)
(0.679375 0 -0.00339688)
(0.679375 0 -0.00339688)
(0.679375 0 -0.00339688)
(0.679375 0 -0.00339688)
(0.679375 0 -0.00339688)
(0.679375 0 -0.00339688)
(0.679375 0 -0.00339688)
(0.679375 0 -0.00339688)
(0.679375 0 -0.00339688)
(0.679375 0 -0.00339688)
(0.679375 0 -0.00339688)
(0.679375 0 -0.00339688)
(0.679375 0 -0.00339688)
(0.679375 0 -0.00339688)
(0.679375 0 -0.00339688)
(0.679375 0 -0.00339688)
(0.679375 0 -0.00339688)
(0.679375 0 -0.00339688)
(0.679375 0 -0.00339688)
(0.679375 0 -0.00339688)
(0.679375 0 -0.00339688)
(0.679375 0 -0.00339688)
(0.679375 0 -0.00339688)
(0.679375 0 -0.00339688)
(0.679375 0 -0.00339688)
(0.679375 0 -0.00339688)
(0.679375 0 -0.00339688)
(0.679375 0 -0.00339688)
(0.679375 0 -0.00339688)
(0.679375 0 -0.00339688)
(0.679375 0 -0.00339688)
(0.679375 0 -0.00339688)
(0.679375 0 -0.00339688)
(0.679375 0 -0.00339688)
(0.679375 0 -0.00339688)
(0.679375 0 -0.00339688)
(0.679375 0 -0.00339688)
(0.679375 0 -0.00339688)
(0.679375 0 -0.00339688)
(0.679375 0 -0.00339688)
(0.679375 0 -0.00339688)
(0.679375 0 -0.00339688)
(0.679375 0 -0.00339688)
(0.679375 2.66924e-35 -0.00339688)
(0.679375 0 -0.00339688)
(0.679375 0 -0.00339688)
(0.679375 0 -0.00339688)
(0.679375 0 -0.00339688)
(0.679375 0 -0.00339688)
(0.679375 0 -0.00339688)
(0.679375 0 -0.00339688)
(0.679375 0 -0.00339688)
(0.679375 0 -0.00339688)
(0.679375 0 -0.00339688)
(0.679375 0 -0.00339688)
(0.679375 0 -0.00339688)
(0.679375 2.01261e-35 -0.00339688)
(0.679375 0 -0.00339688)
(0.679375 0 -0.00339688)
(0.679375 0 -0.00339688)
(0.679375 0 -0.00339688)
(0.679375 0 -0.00339688)
(0.679375 0 -0.00339688)
(0.679375 0 -0.00339688)
(0.679375 0 -0.00339688)
(0.679375 0 -0.00339688)
(0.679375 0 -0.00339688)
(0.679375 0 -0.00339688)
(0.679375 0 -0.00339688)
(0.679375 0 -0.00339688)
(0.679375 0 -0.00339688)
(0.679375 0 -0.00339688)
(0.679375 0 -0.00339688)
(0.679376 0 -0.00339688)
(0.679375 0 -0.00340349)
)
;

boundaryField
{
    inlet
    {
        type            calculated;
        value           uniform (0 0 0);
    }
    outlet
    {
        type            calculated;
        value           uniform (0 0 0);
    }
    sideWall
    {
        type            empty;
    }
}


// ************************************************************************* //
