/*--------------------------------*- C++ -*----------------------------------*\
| =========                 |                                                 |
| \\      /  F ield         | foam-extend: Open Source CFD                    |
|  \\    /   O peration     | Version:     3.2                                |
|   \\  /    A nd           | Web:         http://www.foam-extend.org         |
|    \\/     M anipulation  | For copyright notice see file Copyright         |
\*---------------------------------------------------------------------------*/
FoamFile
{
    version     2.0;
    format      ascii;
    class       areaScalarField;
    location    "83";
    object      Ce2;
}
// * * * * * * * * * * * * * * * * * * * * * * * * * * * * * * * * * * * * * //

dimensions      [1 -3 0 0 0 0 0];

internalField   nonuniform List<scalar> 
300
(
0.828235
0.41889
0.264955
0.266674
0.253847
0.254087
0.248071
0.247845
0.245687
0.246522
0.246692
0.248104
0.249492
0.251732
0.253822
0.256498
0.259218
0.262288
0.265339
0.268729
0.272293
0.275997
0.279815
0.283717
0.287684
0.291707
0.295452
0.298737
0.301517
0.303861
0.305815
0.30745
0.308808
0.309943
0.310886
0.311676
0.312335
0.312888
0.313353
0.313745
0.314075
0.314355
0.314595
0.314801
0.314976
0.315122
0.315245
0.315352
0.315443
0.315523
0.315592
0.315653
0.315705
0.315751
0.315791
0.315826
0.315856
0.315882
0.315905
0.315925
0.315942
0.315957
0.31597
0.315981
0.315991
0.315999
0.316007
0.316013
0.316019
0.316023
0.316027
0.316031
0.316034
0.316037
0.316039
0.316041
0.316043
0.316044
0.316045
0.316046
0.316047
0.316048
0.316049
0.316049
0.31605
0.31605
0.316051
0.316051
0.316051
0.316052
0.316052
0.316052
0.316052
0.316052
0.316052
0.316052
0.316053
0.316053
0.316053
0.316053
0.316053
0.316053
0.316053
0.316053
0.316053
0.316053
0.316053
0.316053
0.316053
0.316053
0.316053
0.316053
0.316053
0.316053
0.316053
0.316053
0.316053
0.316053
0.316053
0.316053
0.316053
0.316053
0.316053
0.316053
0.316053
0.316053
0.316053
0.316053
0.316053
0.316053
0.316053
0.316053
0.316053
0.316053
0.316053
0.316053
0.316053
0.316053
0.316053
0.316053
0.316053
0.316053
0.316053
0.316053
0.316053
0.316053
0.316053
0.316053
0.316053
0.316053
0.316053
0.316053
0.316053
0.316053
0.316053
0.316053
0.316053
0.316053
0.316053
0.316053
0.316053
0.316053
0.316053
0.316053
0.316053
0.316053
0.316053
0.316053
0.316053
0.316053
0.316053
0.316053
0.316053
0.316053
0.316053
0.316053
0.316053
0.316053
0.316053
0.316053
0.316053
0.316053
0.316053
0.316053
0.316053
0.316053
0.316053
0.316053
0.316053
0.316053
0.316053
0.316053
0.316053
0.316053
0.316053
0.316053
0.316053
0.316053
0.316053
0.316053
0.316053
0.316053
0.316053
0.316053
0.316053
0.316053
0.316053
0.316053
0.316053
0.316053
0.316053
0.316053
0.316053
0.316053
0.316053
0.316053
0.316053
0.316053
0.316053
0.316053
0.316053
0.316053
0.316053
0.316053
0.316053
0.316053
0.316053
0.316053
0.316053
0.316053
0.316053
0.316053
0.316053
0.316053
0.316053
0.316053
0.316053
0.316053
0.316053
0.316053
0.316053
0.316053
0.316053
0.316053
0.316053
0.316053
0.316053
0.316053
0.316053
0.316053
0.316053
0.316053
0.316053
0.316053
0.316053
0.316053
0.316053
0.316053
0.316053
0.316053
0.316053
0.316053
0.316053
0.316053
0.316053
0.316053
0.316053
0.316053
0.316053
0.316053
0.316053
0.316053
0.316053
0.316053
0.316053
0.316053
0.316053
0.316053
0.316053
0.316053
0.316053
0.316053
0.316053
0.316053
0.316053
0.316053
0.316053
0.316053
0.316053
0.316053
0.316053
0.316053
0.316053
0.316053
0.316053
0.316053
0.316053
0.316053
0.316054
0.316052
)
;

boundaryField
{
    inlet
    {
        type            calculated;
        value           uniform 0;
    }
    outlet
    {
        type            calculated;
        value           uniform 0;
    }
    sideWall
    {
        type            empty;
    }
}


// ************************************************************************* //
