/*--------------------------------*- C++ -*----------------------------------*\
| =========                 |                                                 |
| \\      /  F ield         | foam-extend: Open Source CFD                    |
|  \\    /   O peration     | Version:     3.2                                |
|   \\  /    A nd           | Web:         http://www.foam-extend.org         |
|    \\/     M anipulation  | For copyright notice see file Copyright         |
\*---------------------------------------------------------------------------*/
FoamFile
{
    version     2.0;
    format      ascii;
    class       areaScalarField;
    location    "83";
    object      deltaHb;
}
// * * * * * * * * * * * * * * * * * * * * * * * * * * * * * * * * * * * * * //

dimensions      [0 1 -1 0 0 0 0];

internalField   nonuniform List<scalar> 
300
(
0
0
0
0
0
0
0
0
0
0
0
0
0
0
0
0
0
0
0
0
0
0
0
0
0
0
0
0
0
0
0
0
0
0
0
0
0
0
0
0
0
0
0
0
0
0
0
0
0
0
0
0
0
0
0
0
0
0
0
0
0
0
0
0
0
0
0
0
0
0
-2.02952e-10
-1.75299e-10
-1.51343e-10
-1.30632e-10
-1.12724e-10
-9.7252e-11
-8.38546e-11
-7.22915e-11
-6.23102e-11
-5.37161e-11
-4.62985e-11
-3.98995e-11
-3.43762e-11
-2.96164e-11
-2.55099e-11
-2.19746e-11
-1.89206e-11
-1.62754e-11
-1.40711e-11
-1.21913e-11
-1.04748e-11
-8.89887e-12
-7.58554e-12
-6.60962e-12
-5.75296e-12
-4.94567e-12
-4.25917e-12
-3.71798e-12
-3.25846e-12
-2.73672e-12
-2.20755e-12
-1.81354e-12
-1.57799e-12
-1.40296e-12
-1.23824e-12
-1.08681e-12
-9.51025e-13
-8.29053e-13
-7.20659e-13
-6.24714e-13
-5.3992e-13
-4.65679e-13
-4.01094e-13
-3.44482e-13
-2.95482e-13
-2.533e-13
-2.16942e-13
-1.85804e-13
-1.59123e-13
-1.36317e-13
-1.16557e-13
-9.96521e-14
-8.52479e-14
-7.23477e-14
-6.0723e-14
-5.04736e-14
-4.13453e-14
-3.29939e-14
-2.54061e-14
-1.85799e-14
-1.21531e-14
-6.44216e-15
-1.62846e-15
2.85964e-15
6.62015e-15
9.40101e-15
1.13514e-14
1.2376e-14
1.25561e-14
1.19348e-14
1.08177e-14
9.07482e-15
6.75425e-15
4.67303e-15
2.86493e-15
1.11237e-15
-4.51985e-16
-1.78281e-15
-2.92178e-15
-3.95267e-15
-4.66417e-15
-5.35871e-15
-6.1585e-15
-6.32318e-15
-6.01315e-15
-5.46011e-15
-4.48021e-15
-3.20712e-15
-1.52369e-15
8.22872e-17
1.24516e-15
2.52984e-15
3.68408e-15
4.37474e-15
4.7918e-15
4.95056e-15
4.89813e-15
4.62195e-15
4.2767e-15
3.5263e-15
2.20089e-15
1.01622e-15
-1.58171e-16
-1.51881e-15
-2.80607e-15
-3.93923e-15
-4.75408e-15
-5.24229e-15
-5.19058e-15
-4.9723e-15
-4.87877e-15
-4.25909e-15
-3.43143e-15
-2.7746e-15
-2.18038e-15
-1.74457e-15
-1.42073e-15
-1.25754e-15
-1.01697e-15
-1.02864e-15
-1.50366e-15
-1.62039e-15
-1.5891e-15
-1.73277e-15
-1.81017e-15
-1.86528e-15
-1.81754e-15
-1.69223e-15
-1.26886e-15
-8.97072e-16
-8.51766e-16
-3.61533e-16
2.82133e-16
6.78546e-16
1.01175e-15
1.20391e-15
1.30691e-15
1.28271e-15
1.36319e-15
1.18224e-15
5.01667e-16
1.5167e-16
-1.55128e-16
-8.02486e-16
-1.60707e-15
-2.64937e-15
-3.83411e-15
-5.17407e-15
-6.34954e-15
-7.58927e-15
-9.0398e-15
-9.80655e-15
-1.00897e-14
-1.02188e-14
-1.00001e-14
-9.56165e-15
-8.86994e-15
-7.97944e-15
-6.65702e-15
-5.16525e-15
-3.66664e-15
-1.31346e-15
1.60946e-15
4.61724e-15
7.7282e-15
1.06779e-14
1.32934e-14
1.53058e-14
1.67778e-14
1.73209e-14
1.67204e-14
1.58253e-14
1.45262e-14
1.26402e-14
1.04992e-14
8.15827e-15
5.80529e-15
3.50572e-15
1.57251e-15
-2.44976e-16
-2.14802e-15
-3.36327e-15
-4.0983e-15
-4.67832e-15
-4.95829e-15
-5.05576e-15
-4.96042e-15
-4.77391e-15
-4.32371e-15
-3.93566e-15
-3.86069e-15
-3.37475e-15
-2.71034e-15
-2.1896e-15
-1.6506e-15
-1.16746e-15
-6.9772e-16
-3.19693e-16
1.59355e-16
4.1156e-16
2.10862e-16
3.41639e-16
5.68035e-16
6.05217e-16
6.31196e-16
6.26082e-16
5.94737e-16
5.92373e-16
6.48609e-16
7.22601e-16
1.1301e-16
3.58247e-16
1.18296e-17
7.07482e-16
-4.98563e-16
1.39417e-15
0
0
0
0
0
0
0
0
0
0
0
0
0
0
)
;

boundaryField
{
    inlet
    {
        type            zeroGradient;
    }
    outlet
    {
        type            zeroGradient;
    }
    sideWall
    {
        type            empty;
    }
}


// ************************************************************************* //
