/*--------------------------------*- C++ -*----------------------------------*\
| =========                 |                                                 |
| \\      /  F ield         | foam-extend: Open Source CFD                    |
|  \\    /   O peration     | Version:     3.2                                |
|   \\  /    A nd           | Web:         http://www.foam-extend.org         |
|    \\/     M anipulation  | For copyright notice see file Copyright         |
\*---------------------------------------------------------------------------*/
FoamFile
{
    version     2.0;
    format      ascii;
    class       volScalarField;
    location    "83";
    object      DiSSt;
}
// * * * * * * * * * * * * * * * * * * * * * * * * * * * * * * * * * * * * * //

dimensions      [0 2 -1 0 0 0 0];

internalField   nonuniform List<scalar> 
5400
(
3.26127e-05
2.61441e-05
2.25492e-05
2.25963e-05
2.22401e-05
2.22469e-05
2.20758e-05
2.20693e-05
2.20072e-05
2.20313e-05
2.20362e-05
2.20767e-05
2.21164e-05
2.21802e-05
2.22394e-05
2.23147e-05
2.23907e-05
2.24758e-05
2.25597e-05
2.26522e-05
2.27487e-05
2.2848e-05
2.29494e-05
2.30522e-05
2.31557e-05
2.32596e-05
2.33555e-05
2.3439e-05
2.35092e-05
2.3568e-05
2.36168e-05
2.36575e-05
2.36911e-05
2.37192e-05
2.37425e-05
2.37619e-05
2.37781e-05
2.37917e-05
2.38031e-05
2.38127e-05
2.38208e-05
2.38277e-05
2.38335e-05
2.38386e-05
2.38429e-05
2.38464e-05
2.38494e-05
2.3852e-05
2.38543e-05
2.38562e-05
2.38579e-05
2.38594e-05
2.38607e-05
2.38618e-05
2.38627e-05
2.38636e-05
2.38643e-05
2.3865e-05
2.38655e-05
2.3866e-05
2.38664e-05
2.38668e-05
2.38671e-05
2.38674e-05
2.38676e-05
2.38678e-05
2.3868e-05
2.38682e-05
2.38683e-05
2.38684e-05
2.38685e-05
2.38686e-05
2.38687e-05
2.38687e-05
2.38688e-05
2.38688e-05
2.38689e-05
2.38689e-05
2.3869e-05
2.3869e-05
2.3869e-05
2.3869e-05
2.3869e-05
2.38691e-05
2.38691e-05
2.38691e-05
2.38691e-05
2.38691e-05
2.38691e-05
2.38691e-05
2.38691e-05
2.38691e-05
2.38691e-05
2.38691e-05
2.38691e-05
2.38691e-05
2.38691e-05
2.38691e-05
2.38691e-05
2.38691e-05
2.38691e-05
2.38691e-05
2.38691e-05
2.38691e-05
2.38691e-05
2.38691e-05
2.38691e-05
2.38691e-05
2.38691e-05
2.38691e-05
2.38691e-05
2.38691e-05
2.38691e-05
2.38691e-05
2.38691e-05
2.38691e-05
2.38691e-05
2.38691e-05
2.38691e-05
2.38691e-05
2.38691e-05
2.38691e-05
2.38691e-05
2.38691e-05
2.38691e-05
2.38691e-05
2.38691e-05
2.38691e-05
2.38691e-05
2.38691e-05
2.38691e-05
2.38691e-05
2.38691e-05
2.38691e-05
2.38691e-05
2.38691e-05
2.38691e-05
2.38691e-05
2.38691e-05
2.38691e-05
2.38691e-05
2.38691e-05
2.38691e-05
2.38691e-05
2.38691e-05
2.38691e-05
2.38691e-05
2.38691e-05
2.38691e-05
2.38691e-05
2.38691e-05
2.38691e-05
2.38691e-05
2.38691e-05
2.38691e-05
2.38691e-05
2.38691e-05
2.38691e-05
2.38691e-05
2.38691e-05
2.38691e-05
2.38691e-05
2.38691e-05
2.38691e-05
2.38691e-05
2.38691e-05
2.38691e-05
2.38691e-05
2.38691e-05
2.38691e-05
2.38691e-05
2.38691e-05
2.38691e-05
2.38691e-05
2.38691e-05
2.38691e-05
2.38691e-05
2.38691e-05
2.38691e-05
2.38691e-05
2.38691e-05
2.38691e-05
2.38691e-05
2.38691e-05
2.38691e-05
2.38691e-05
2.38691e-05
2.38691e-05
2.38691e-05
2.38691e-05
2.38691e-05
2.38691e-05
2.38691e-05
2.38691e-05
2.38691e-05
2.38691e-05
2.38691e-05
2.38691e-05
2.38691e-05
2.38691e-05
2.38691e-05
2.38691e-05
2.38691e-05
2.38691e-05
2.38691e-05
2.38691e-05
2.38691e-05
2.38691e-05
2.38691e-05
2.38691e-05
2.38691e-05
2.38691e-05
2.38691e-05
2.38691e-05
2.38691e-05
2.38691e-05
2.38691e-05
2.38691e-05
2.38691e-05
2.38691e-05
2.38691e-05
2.38691e-05
2.38691e-05
2.38691e-05
2.38691e-05
2.38691e-05
2.38691e-05
2.38691e-05
2.38691e-05
2.38691e-05
2.38691e-05
2.38691e-05
2.38691e-05
2.38691e-05
2.38691e-05
2.38691e-05
2.38691e-05
2.38691e-05
2.38691e-05
2.38691e-05
2.38691e-05
2.38691e-05
2.38691e-05
2.38691e-05
2.38691e-05
2.38691e-05
2.38691e-05
2.38691e-05
2.38691e-05
2.38691e-05
2.38691e-05
2.38691e-05
2.38691e-05
2.38691e-05
2.38691e-05
2.38691e-05
2.38691e-05
2.38691e-05
2.38691e-05
2.38691e-05
2.38691e-05
2.38691e-05
2.38691e-05
2.38691e-05
2.38691e-05
2.38691e-05
2.38691e-05
2.38691e-05
2.38691e-05
2.38691e-05
2.38691e-05
2.38691e-05
2.38691e-05
2.38691e-05
2.38691e-05
2.38691e-05
2.38691e-05
2.38691e-05
2.38691e-05
2.38691e-05
2.38691e-05
2.38691e-05
2.38691e-05
2.38691e-05
2.38691e-05
2.38691e-05
2.38691e-05
2.38691e-05
2.38691e-05
2.38691e-05
2.38691e-05
2.38691e-05
2.38691e-05
2.38691e-05
2.38691e-05
2.38691e-05
2.38691e-05
2.38691e-05
2.38692e-05
2.38691e-05
3.1162e-05
4.10921e-05
4.45873e-05
4.7216e-05
4.88857e-05
4.97144e-05
5.03327e-05
5.07058e-05
5.1095e-05
5.13972e-05
5.17004e-05
5.1995e-05
5.22843e-05
5.25857e-05
5.28747e-05
5.31643e-05
5.34566e-05
5.37471e-05
5.40412e-05
5.4333e-05
5.46214e-05
5.49061e-05
5.51852e-05
5.54567e-05
5.57175e-05
5.59551e-05
5.61564e-05
5.63165e-05
5.64411e-05
5.65373e-05
5.66121e-05
5.66703e-05
5.6716e-05
5.67522e-05
5.67812e-05
5.68046e-05
5.68239e-05
5.68398e-05
5.68532e-05
5.68644e-05
5.68739e-05
5.68819e-05
5.68889e-05
5.68948e-05
5.69e-05
5.69044e-05
5.69082e-05
5.69114e-05
5.69143e-05
5.69169e-05
5.69191e-05
5.69211e-05
5.69229e-05
5.69245e-05
5.69259e-05
5.69271e-05
5.69282e-05
5.69291e-05
5.69299e-05
5.69307e-05
5.69313e-05
5.69318e-05
5.69323e-05
5.69327e-05
5.69331e-05
5.69334e-05
5.69336e-05
5.69339e-05
5.69341e-05
5.69342e-05
5.69344e-05
5.69345e-05
5.69346e-05
5.69347e-05
5.69348e-05
5.69349e-05
5.69349e-05
5.6935e-05
5.6935e-05
5.69351e-05
5.69351e-05
5.69351e-05
5.69352e-05
5.69352e-05
5.69352e-05
5.69352e-05
5.69352e-05
5.69352e-05
5.69353e-05
5.69353e-05
5.69353e-05
5.69353e-05
5.69353e-05
5.69353e-05
5.69353e-05
5.69353e-05
5.69353e-05
5.69353e-05
5.69353e-05
5.69353e-05
5.69353e-05
5.69353e-05
5.69353e-05
5.69353e-05
5.69353e-05
5.69353e-05
5.69353e-05
5.69353e-05
5.69353e-05
5.69353e-05
5.69353e-05
5.69353e-05
5.69353e-05
5.69353e-05
5.69353e-05
5.69353e-05
5.69353e-05
5.69353e-05
5.69353e-05
5.69353e-05
5.69353e-05
5.69353e-05
5.69353e-05
5.69353e-05
5.69353e-05
5.69353e-05
5.69353e-05
5.69353e-05
5.69353e-05
5.69353e-05
5.69353e-05
5.69353e-05
5.69353e-05
5.69353e-05
5.69353e-05
5.69353e-05
5.69353e-05
5.69353e-05
5.69353e-05
5.69353e-05
5.69353e-05
5.69353e-05
5.69353e-05
5.69353e-05
5.69353e-05
5.69353e-05
5.69353e-05
5.69353e-05
5.69353e-05
5.69353e-05
5.69353e-05
5.69353e-05
5.69353e-05
5.69353e-05
5.69353e-05
5.69353e-05
5.69353e-05
5.69353e-05
5.69353e-05
5.69353e-05
5.69353e-05
5.69353e-05
5.69353e-05
5.69353e-05
5.69353e-05
5.69353e-05
5.69353e-05
5.69353e-05
5.69353e-05
5.69353e-05
5.69353e-05
5.69353e-05
5.69353e-05
5.69353e-05
5.69353e-05
5.69353e-05
5.69353e-05
5.69353e-05
5.69353e-05
5.69353e-05
5.69353e-05
5.69353e-05
5.69353e-05
5.69353e-05
5.69353e-05
5.69353e-05
5.69353e-05
5.69353e-05
5.69353e-05
5.69353e-05
5.69353e-05
5.69353e-05
5.69353e-05
5.69353e-05
5.69353e-05
5.69353e-05
5.69353e-05
5.69353e-05
5.69353e-05
5.69353e-05
5.69353e-05
5.69353e-05
5.69353e-05
5.69353e-05
5.69353e-05
5.69353e-05
5.69353e-05
5.69353e-05
5.69353e-05
5.69353e-05
5.69353e-05
5.69353e-05
5.69353e-05
5.69353e-05
5.69353e-05
5.69353e-05
5.69353e-05
5.69353e-05
5.69353e-05
5.69353e-05
5.69353e-05
5.69353e-05
5.69353e-05
5.69353e-05
5.69353e-05
5.69353e-05
5.69353e-05
5.69353e-05
5.69353e-05
5.69353e-05
5.69353e-05
5.69353e-05
5.69353e-05
5.69353e-05
5.69353e-05
5.69353e-05
5.69353e-05
5.69353e-05
5.69353e-05
5.69353e-05
5.69353e-05
5.69353e-05
5.69353e-05
5.69353e-05
5.69353e-05
5.69353e-05
5.69353e-05
5.69353e-05
5.69353e-05
5.69353e-05
5.69353e-05
5.69353e-05
5.69353e-05
5.69353e-05
5.69353e-05
5.69353e-05
5.69353e-05
5.69353e-05
5.69353e-05
5.69353e-05
5.69353e-05
5.69353e-05
5.69353e-05
5.69353e-05
5.69353e-05
5.69353e-05
5.69353e-05
5.69353e-05
5.69353e-05
5.69353e-05
5.69353e-05
5.69353e-05
5.69353e-05
5.69353e-05
5.69353e-05
5.69353e-05
5.69353e-05
5.69353e-05
5.69353e-05
5.69353e-05
5.69353e-05
5.69353e-05
5.69353e-05
5.69353e-05
5.69353e-05
5.69353e-05
5.69353e-05
5.69353e-05
5.69353e-05
5.69353e-05
5.69353e-05
5.69353e-05
5.69353e-05
5.69353e-05
5.69353e-05
5.69353e-05
5.69353e-05
5.69353e-05
5.69353e-05
5.69353e-05
2.85796e-05
4.46666e-05
5.2355e-05
6.08744e-05
6.74807e-05
7.07933e-05
7.29722e-05
7.47305e-05
7.60663e-05
7.72628e-05
7.82287e-05
7.91367e-05
7.99588e-05
8.0717e-05
8.14439e-05
8.21206e-05
8.27746e-05
8.34076e-05
8.40183e-05
8.4608e-05
8.51743e-05
8.57174e-05
8.62347e-05
8.67222e-05
8.7179e-05
8.75698e-05
8.78612e-05
8.80685e-05
8.8214e-05
8.83162e-05
8.83874e-05
8.84369e-05
8.8471e-05
8.84945e-05
8.85108e-05
8.85224e-05
8.85309e-05
8.85376e-05
8.85429e-05
8.85475e-05
8.85515e-05
8.85552e-05
8.85586e-05
8.85618e-05
8.85647e-05
8.85673e-05
8.85696e-05
8.85719e-05
8.85741e-05
8.85762e-05
8.85781e-05
8.85799e-05
8.85815e-05
8.8583e-05
8.85844e-05
8.85856e-05
8.85866e-05
8.85875e-05
8.85884e-05
8.85891e-05
8.85897e-05
8.85903e-05
8.85908e-05
8.85912e-05
8.85915e-05
8.85919e-05
8.85921e-05
8.85924e-05
8.85926e-05
8.85927e-05
8.85929e-05
8.8593e-05
8.85931e-05
8.85932e-05
8.85933e-05
8.85934e-05
8.85934e-05
8.85935e-05
8.85935e-05
8.85936e-05
8.85936e-05
8.85936e-05
8.85937e-05
8.85937e-05
8.85937e-05
8.85937e-05
8.85937e-05
8.85938e-05
8.85938e-05
8.85938e-05
8.85938e-05
8.85938e-05
8.85938e-05
8.85938e-05
8.85938e-05
8.85938e-05
8.85938e-05
8.85938e-05
8.85938e-05
8.85938e-05
8.85938e-05
8.85938e-05
8.85938e-05
8.85938e-05
8.85938e-05
8.85938e-05
8.85938e-05
8.85938e-05
8.85938e-05
8.85938e-05
8.85938e-05
8.85938e-05
8.85938e-05
8.85938e-05
8.85938e-05
8.85938e-05
8.85938e-05
8.85938e-05
8.85938e-05
8.85938e-05
8.85938e-05
8.85938e-05
8.85938e-05
8.85938e-05
8.85938e-05
8.85938e-05
8.85938e-05
8.85938e-05
8.85938e-05
8.85938e-05
8.85938e-05
8.85938e-05
8.85938e-05
8.85938e-05
8.85938e-05
8.85938e-05
8.85938e-05
8.85938e-05
8.85938e-05
8.85938e-05
8.85938e-05
8.85938e-05
8.85938e-05
8.85938e-05
8.85938e-05
8.85938e-05
8.85938e-05
8.85938e-05
8.85938e-05
8.85938e-05
8.85938e-05
8.85938e-05
8.85938e-05
8.85938e-05
8.85938e-05
8.85938e-05
8.85938e-05
8.85938e-05
8.85938e-05
8.85938e-05
8.85938e-05
8.85938e-05
8.85938e-05
8.85938e-05
8.85938e-05
8.85938e-05
8.85938e-05
8.85938e-05
8.85938e-05
8.85938e-05
8.85938e-05
8.85938e-05
8.85938e-05
8.85938e-05
8.85938e-05
8.85938e-05
8.85938e-05
8.85938e-05
8.85938e-05
8.85938e-05
8.85938e-05
8.85938e-05
8.85938e-05
8.85938e-05
8.85938e-05
8.85938e-05
8.85938e-05
8.85938e-05
8.85938e-05
8.85938e-05
8.85938e-05
8.85938e-05
8.85938e-05
8.85938e-05
8.85938e-05
8.85938e-05
8.85938e-05
8.85938e-05
8.85938e-05
8.85938e-05
8.85938e-05
8.85938e-05
8.85938e-05
8.85938e-05
8.85938e-05
8.85938e-05
8.85938e-05
8.85938e-05
8.85938e-05
8.85938e-05
8.85938e-05
8.85938e-05
8.85938e-05
8.85938e-05
8.85938e-05
8.85938e-05
8.85938e-05
8.85938e-05
8.85938e-05
8.85938e-05
8.85938e-05
8.85938e-05
8.85938e-05
8.85938e-05
8.85938e-05
8.85938e-05
8.85938e-05
8.85938e-05
8.85938e-05
8.85938e-05
8.85938e-05
8.85938e-05
8.85938e-05
8.85938e-05
8.85938e-05
8.85938e-05
8.85938e-05
8.85938e-05
8.85938e-05
8.85938e-05
8.85938e-05
8.85938e-05
8.85938e-05
8.85938e-05
8.85938e-05
8.85938e-05
8.85938e-05
8.85938e-05
8.85938e-05
8.85938e-05
8.85938e-05
8.85938e-05
8.85938e-05
8.85938e-05
8.85938e-05
8.85938e-05
8.85938e-05
8.85938e-05
8.85938e-05
8.85938e-05
8.85938e-05
8.85938e-05
8.85938e-05
8.85938e-05
8.85938e-05
8.85938e-05
8.85938e-05
8.85938e-05
8.85938e-05
8.85938e-05
8.85938e-05
8.85938e-05
8.85938e-05
8.85938e-05
8.85938e-05
8.85938e-05
8.85938e-05
8.85938e-05
8.85938e-05
8.85938e-05
8.85938e-05
8.85938e-05
8.85938e-05
8.85938e-05
8.85938e-05
8.85938e-05
8.85938e-05
8.85938e-05
8.85938e-05
8.85938e-05
8.85938e-05
8.85938e-05
8.85938e-05
8.85938e-05
8.85938e-05
8.85938e-05
8.85938e-05
8.85938e-05
8.85938e-05
8.85938e-05
2.73172e-05
3.89743e-05
4.90645e-05
6.16771e-05
7.25318e-05
8.03719e-05
8.66796e-05
9.06186e-05
9.37537e-05
9.64471e-05
9.86623e-05
0.00010063
0.000102363
0.00010394
0.000105387
0.000106704
0.000107944
0.000109109
0.000110209
0.000111247
0.000112223
0.000113138
0.000113989
0.000114772
0.000115484
0.000116064
0.000116474
0.000116748
0.000116926
0.000117036
0.0001171
0.000117134
0.000117148
0.000117149
0.000117143
0.000117134
0.000117124
0.000117114
0.000117105
0.000117098
0.000117092
0.000117088
0.000117085
0.000117082
0.000117081
0.00011708
0.000117079
0.000117079
0.00011708
0.000117081
0.000117082
0.000117083
0.000117084
0.000117085
0.000117086
0.000117087
0.000117088
0.000117089
0.00011709
0.000117091
0.000117091
0.000117092
0.000117092
0.000117093
0.000117093
0.000117093
0.000117094
0.000117094
0.000117094
0.000117094
0.000117094
0.000117094
0.000117095
0.000117095
0.000117095
0.000117095
0.000117095
0.000117095
0.000117095
0.000117095
0.000117095
0.000117095
0.000117095
0.000117095
0.000117095
0.000117095
0.000117095
0.000117095
0.000117095
0.000117095
0.000117095
0.000117095
0.000117095
0.000117095
0.000117095
0.000117095
0.000117095
0.000117095
0.000117095
0.000117095
0.000117095
0.000117095
0.000117095
0.000117095
0.000117095
0.000117095
0.000117095
0.000117095
0.000117095
0.000117095
0.000117095
0.000117095
0.000117095
0.000117095
0.000117095
0.000117095
0.000117095
0.000117095
0.000117095
0.000117095
0.000117095
0.000117095
0.000117095
0.000117095
0.000117095
0.000117095
0.000117095
0.000117095
0.000117095
0.000117095
0.000117095
0.000117095
0.000117095
0.000117095
0.000117095
0.000117095
0.000117095
0.000117095
0.000117095
0.000117095
0.000117095
0.000117095
0.000117095
0.000117095
0.000117095
0.000117095
0.000117095
0.000117095
0.000117095
0.000117095
0.000117095
0.000117095
0.000117095
0.000117095
0.000117095
0.000117095
0.000117095
0.000117095
0.000117095
0.000117095
0.000117095
0.000117095
0.000117095
0.000117095
0.000117095
0.000117095
0.000117095
0.000117095
0.000117095
0.000117095
0.000117095
0.000117095
0.000117095
0.000117095
0.000117095
0.000117095
0.000117095
0.000117095
0.000117095
0.000117095
0.000117095
0.000117095
0.000117095
0.000117095
0.000117095
0.000117095
0.000117095
0.000117095
0.000117095
0.000117095
0.000117095
0.000117095
0.000117095
0.000117095
0.000117095
0.000117095
0.000117095
0.000117095
0.000117095
0.000117095
0.000117095
0.000117095
0.000117095
0.000117095
0.000117095
0.000117095
0.000117095
0.000117095
0.000117095
0.000117095
0.000117095
0.000117095
0.000117095
0.000117095
0.000117095
0.000117095
0.000117095
0.000117095
0.000117095
0.000117095
0.000117095
0.000117095
0.000117095
0.000117095
0.000117095
0.000117095
0.000117095
0.000117095
0.000117095
0.000117095
0.000117095
0.000117095
0.000117095
0.000117095
0.000117095
0.000117095
0.000117095
0.000117095
0.000117095
0.000117095
0.000117095
0.000117095
0.000117095
0.000117095
0.000117095
0.000117095
0.000117095
0.000117095
0.000117095
0.000117095
0.000117095
0.000117095
0.000117095
0.000117095
0.000117095
0.000117095
0.000117095
0.000117095
0.000117095
0.000117095
0.000117095
0.000117095
0.000117095
0.000117095
0.000117095
0.000117095
0.000117095
0.000117095
0.000117095
0.000117095
0.000117095
0.000117095
0.000117095
0.000117095
0.000117095
0.000117095
0.000117095
0.000117095
0.000117095
0.000117095
0.000117095
0.000117095
0.000117095
0.000117095
0.000117095
0.000117095
0.000117095
0.000117095
0.000117095
0.000117095
0.000117095
0.000117095
0.000117095
0.000117095
0.000117095
0.000117095
0.000117095
0.000117095
0.000117095
0.000117095
2.88106e-05
3.3669e-05
4.58265e-05
5.73159e-05
6.71614e-05
7.85125e-05
8.85727e-05
9.64518e-05
0.0001031
0.000108539
0.000112484
0.000115913
0.000118923
0.000121641
0.000124087
0.000126298
0.000128348
0.000130244
0.000132013
0.000133658
0.000135183
0.000136596
0.00013789
0.000139064
0.00014011
0.000140949
0.000141545
0.00014195
0.000142217
0.000142386
0.000142486
0.000142541
0.000142565
0.000142569
0.000142563
0.000142552
0.000142539
0.000142526
0.000142515
0.000142505
0.000142498
0.000142492
0.000142489
0.000142486
0.000142485
0.000142484
0.000142484
0.000142485
0.000142487
0.000142489
0.000142491
0.000142493
0.000142495
0.000142497
0.000142499
0.000142501
0.000142503
0.000142505
0.000142506
0.000142507
0.000142508
0.000142509
0.00014251
0.000142511
0.000142511
0.000142512
0.000142512
0.000142513
0.000142513
0.000142513
0.000142514
0.000142514
0.000142514
0.000142514
0.000142514
0.000142515
0.000142515
0.000142515
0.000142515
0.000142515
0.000142515
0.000142515
0.000142515
0.000142515
0.000142515
0.000142515
0.000142515
0.000142515
0.000142515
0.000142515
0.000142515
0.000142515
0.000142515
0.000142515
0.000142515
0.000142515
0.000142515
0.000142515
0.000142515
0.000142515
0.000142515
0.000142515
0.000142515
0.000142515
0.000142515
0.000142515
0.000142515
0.000142515
0.000142515
0.000142515
0.000142515
0.000142515
0.000142515
0.000142515
0.000142515
0.000142515
0.000142515
0.000142515
0.000142515
0.000142515
0.000142515
0.000142515
0.000142515
0.000142515
0.000142515
0.000142515
0.000142515
0.000142515
0.000142515
0.000142515
0.000142515
0.000142515
0.000142515
0.000142515
0.000142515
0.000142515
0.000142515
0.000142515
0.000142515
0.000142515
0.000142515
0.000142515
0.000142515
0.000142515
0.000142515
0.000142515
0.000142515
0.000142515
0.000142515
0.000142515
0.000142515
0.000142515
0.000142515
0.000142515
0.000142515
0.000142515
0.000142515
0.000142515
0.000142515
0.000142515
0.000142515
0.000142515
0.000142515
0.000142515
0.000142515
0.000142515
0.000142515
0.000142515
0.000142515
0.000142515
0.000142515
0.000142515
0.000142515
0.000142515
0.000142515
0.000142515
0.000142515
0.000142515
0.000142515
0.000142515
0.000142515
0.000142515
0.000142515
0.000142515
0.000142515
0.000142515
0.000142515
0.000142515
0.000142515
0.000142515
0.000142515
0.000142515
0.000142515
0.000142515
0.000142515
0.000142515
0.000142515
0.000142515
0.000142515
0.000142515
0.000142515
0.000142515
0.000142515
0.000142515
0.000142515
0.000142515
0.000142515
0.000142515
0.000142515
0.000142515
0.000142515
0.000142515
0.000142515
0.000142515
0.000142515
0.000142515
0.000142515
0.000142515
0.000142515
0.000142515
0.000142515
0.000142515
0.000142515
0.000142515
0.000142515
0.000142515
0.000142515
0.000142515
0.000142515
0.000142515
0.000142515
0.000142515
0.000142515
0.000142515
0.000142515
0.000142515
0.000142515
0.000142515
0.000142515
0.000142515
0.000142515
0.000142515
0.000142515
0.000142515
0.000142515
0.000142515
0.000142515
0.000142515
0.000142515
0.000142515
0.000142515
0.000142515
0.000142515
0.000142515
0.000142515
0.000142515
0.000142515
0.000142515
0.000142515
0.000142515
0.000142515
0.000142515
0.000142515
0.000142515
0.000142515
0.000142515
0.000142515
0.000142515
0.000142515
0.000142515
0.000142515
0.000142515
0.000142515
0.000142515
0.000142515
0.000142515
0.000142515
0.000142515
0.000142515
0.000142515
0.000142515
0.000142515
0.000142515
0.000142515
0.000142515
0.000142515
0.000142515
0.000142515
0.000142515
0.000142515
0.000142515
0.000142515
0.000142515
0.000142515
0.000142515
0.000142515
0.000142515
0.000142515
0.000142515
0.000142515
3.58154e-05
3.18752e-05
3.92905e-05
5.15016e-05
5.88233e-05
7.08242e-05
8.22016e-05
9.27411e-05
0.000102401
0.000110578
0.000117738
0.000123652
0.000129086
0.000133552
0.00013724
0.000140575
0.000143642
0.000146467
0.000149083
0.000151494
0.000153714
0.000155753
0.000157608
0.000159281
0.000160762
0.000161966
0.000162856
0.000163496
0.000163948
0.000164262
0.000164478
0.000164623
0.000164718
0.000164781
0.000164821
0.000164848
0.000164867
0.000164881
0.000164892
0.000164903
0.000164913
0.000164922
0.000164932
0.000164942
0.000164951
0.000164959
0.000164967
0.000164975
0.000164984
0.000164992
0.000164999
0.000165006
0.000165012
0.000165018
0.000165023
0.000165028
0.000165032
0.000165036
0.000165039
0.000165042
0.000165045
0.000165047
0.000165049
0.000165051
0.000165052
0.000165054
0.000165055
0.000165056
0.000165056
0.000165057
0.000165058
0.000165058
0.000165059
0.000165059
0.00016506
0.00016506
0.00016506
0.00016506
0.00016506
0.000165061
0.000165061
0.000165061
0.000165061
0.000165061
0.000165061
0.000165061
0.000165061
0.000165061
0.000165061
0.000165061
0.000165061
0.000165061
0.000165061
0.000165061
0.000165061
0.000165062
0.000165062
0.000165062
0.000165062
0.000165062
0.000165062
0.000165062
0.000165062
0.000165062
0.000165062
0.000165062
0.000165062
0.000165062
0.000165062
0.000165062
0.000165062
0.000165062
0.000165062
0.000165062
0.000165062
0.000165062
0.000165062
0.000165062
0.000165062
0.000165062
0.000165062
0.000165062
0.000165062
0.000165062
0.000165062
0.000165062
0.000165062
0.000165062
0.000165062
0.000165062
0.000165062
0.000165062
0.000165062
0.000165062
0.000165062
0.000165062
0.000165062
0.000165062
0.000165062
0.000165062
0.000165062
0.000165062
0.000165062
0.000165062
0.000165062
0.000165062
0.000165062
0.000165062
0.000165062
0.000165062
0.000165062
0.000165062
0.000165062
0.000165062
0.000165062
0.000165062
0.000165062
0.000165062
0.000165062
0.000165062
0.000165062
0.000165062
0.000165062
0.000165062
0.000165062
0.000165062
0.000165062
0.000165062
0.000165062
0.000165062
0.000165062
0.000165062
0.000165062
0.000165062
0.000165062
0.000165062
0.000165062
0.000165062
0.000165062
0.000165062
0.000165062
0.000165062
0.000165062
0.000165062
0.000165062
0.000165062
0.000165062
0.000165062
0.000165062
0.000165062
0.000165062
0.000165062
0.000165062
0.000165062
0.000165062
0.000165062
0.000165062
0.000165062
0.000165062
0.000165062
0.000165062
0.000165062
0.000165062
0.000165062
0.000165062
0.000165062
0.000165062
0.000165062
0.000165062
0.000165062
0.000165062
0.000165062
0.000165062
0.000165062
0.000165062
0.000165062
0.000165062
0.000165062
0.000165062
0.000165062
0.000165062
0.000165062
0.000165062
0.000165062
0.000165062
0.000165062
0.000165062
0.000165062
0.000165062
0.000165062
0.000165062
0.000165062
0.000165062
0.000165062
0.000165062
0.000165062
0.000165062
0.000165062
0.000165062
0.000165062
0.000165062
0.000165062
0.000165062
0.000165062
0.000165062
0.000165062
0.000165062
0.000165062
0.000165062
0.000165062
0.000165062
0.000165062
0.000165062
0.000165062
0.000165062
0.000165062
0.000165062
0.000165062
0.000165062
0.000165062
0.000165062
0.000165062
0.000165062
0.000165062
0.000165062
0.000165062
0.000165062
0.000165062
0.000165062
0.000165062
0.000165062
0.000165062
0.000165062
0.000165062
0.000165062
0.000165062
0.000165062
0.000165062
0.000165062
0.000165062
0.000165062
0.000165062
0.000165062
0.000165062
0.000165062
0.000165062
0.000165062
0.000165062
0.000165062
0.000165062
0.000165062
0.000165062
0.000165062
0.000165062
0.000165062
0.000165062
0.000165062
0.000165062
0.000165062
0.000165062
5.17532e-05
3.49713e-05
3.50189e-05
4.26136e-05
5.38011e-05
6.35264e-05
7.25082e-05
8.36174e-05
9.48579e-05
0.000105013
0.000114714
0.000122992
0.000130697
0.000137277
0.000143201
0.000148274
0.00015294
0.000157414
0.000161306
0.000164634
0.000167684
0.000170477
0.000173011
0.000175298
0.000177351
0.000179075
0.0001804
0.000181405
0.000182165
0.000182739
0.000183174
0.000183504
0.000183756
0.000183951
0.000184104
0.000184227
0.000184328
0.000184412
0.000184484
0.000184547
0.000184602
0.000184651
0.000184695
0.000184734
0.000184768
0.000184798
0.000184826
0.000184851
0.000184874
0.000184895
0.000184914
0.000184931
0.000184946
0.000184959
0.000184971
0.000184981
0.000184991
0.000184999
0.000185006
0.000185012
0.000185018
0.000185022
0.000185027
0.00018503
0.000185033
0.000185036
0.000185038
0.00018504
0.000185042
0.000185043
0.000185045
0.000185046
0.000185047
0.000185048
0.000185048
0.000185049
0.00018505
0.00018505
0.00018505
0.000185051
0.000185051
0.000185051
0.000185052
0.000185052
0.000185052
0.000185052
0.000185052
0.000185052
0.000185052
0.000185052
0.000185052
0.000185052
0.000185053
0.000185053
0.000185053
0.000185053
0.000185053
0.000185053
0.000185053
0.000185053
0.000185053
0.000185053
0.000185053
0.000185053
0.000185053
0.000185053
0.000185053
0.000185053
0.000185053
0.000185053
0.000185053
0.000185053
0.000185053
0.000185053
0.000185053
0.000185053
0.000185053
0.000185053
0.000185053
0.000185053
0.000185053
0.000185053
0.000185053
0.000185053
0.000185053
0.000185053
0.000185053
0.000185053
0.000185053
0.000185053
0.000185053
0.000185053
0.000185053
0.000185053
0.000185053
0.000185053
0.000185053
0.000185053
0.000185053
0.000185053
0.000185053
0.000185053
0.000185053
0.000185053
0.000185053
0.000185053
0.000185053
0.000185053
0.000185053
0.000185053
0.000185053
0.000185053
0.000185053
0.000185053
0.000185053
0.000185053
0.000185053
0.000185053
0.000185053
0.000185053
0.000185053
0.000185053
0.000185053
0.000185053
0.000185053
0.000185053
0.000185053
0.000185053
0.000185053
0.000185053
0.000185053
0.000185053
0.000185053
0.000185053
0.000185053
0.000185053
0.000185053
0.000185053
0.000185053
0.000185053
0.000185053
0.000185053
0.000185053
0.000185053
0.000185053
0.000185053
0.000185053
0.000185053
0.000185053
0.000185053
0.000185053
0.000185053
0.000185053
0.000185053
0.000185053
0.000185053
0.000185053
0.000185053
0.000185053
0.000185053
0.000185053
0.000185053
0.000185053
0.000185053
0.000185053
0.000185053
0.000185053
0.000185053
0.000185053
0.000185053
0.000185053
0.000185053
0.000185053
0.000185053
0.000185053
0.000185053
0.000185053
0.000185053
0.000185053
0.000185053
0.000185053
0.000185053
0.000185053
0.000185053
0.000185053
0.000185053
0.000185053
0.000185053
0.000185053
0.000185053
0.000185053
0.000185053
0.000185053
0.000185053
0.000185053
0.000185053
0.000185053
0.000185053
0.000185053
0.000185053
0.000185053
0.000185053
0.000185053
0.000185053
0.000185053
0.000185053
0.000185053
0.000185053
0.000185053
0.000185053
0.000185053
0.000185053
0.000185053
0.000185053
0.000185053
0.000185053
0.000185053
0.000185053
0.000185053
0.000185053
0.000185053
0.000185053
0.000185053
0.000185053
0.000185053
0.000185053
0.000185053
0.000185053
0.000185053
0.000185053
0.000185053
0.000185053
0.000185053
0.000185053
0.000185053
0.000185053
0.000185053
0.000185053
0.000185053
0.000185053
0.000185053
0.000185053
0.000185053
0.000185053
0.000185053
0.000185053
0.000185053
0.000185053
0.000185053
0.000185053
0.000185053
0.000185053
0.000185053
0.000185053
0.000185053
0.000185053
0.000185053
0.000185053
0.000185053
0.000185053
8.18325e-05
4.66082e-05
3.7566e-05
3.83386e-05
4.58451e-05
5.72618e-05
6.4175e-05
7.42779e-05
8.43406e-05
9.4964e-05
0.00010601
0.000115969
0.000125588
0.00013412
0.000142112
0.000149101
0.000155354
0.00016129
0.00016659
0.00017145
0.000175777
0.000179513
0.000182784
0.000185582
0.000188899
0.000192384
0.000194296
0.000195811
0.000197015
0.000197977
0.00019875
0.000199374
0.000199882
0.000200299
0.000200643
0.000200932
0.000201176
0.000201384
0.000201563
0.000201717
0.000201852
0.000201969
0.000202072
0.000202162
0.00020224
0.000202308
0.000202369
0.000202422
0.00020247
0.000202513
0.00020255
0.000202584
0.000202613
0.000202639
0.000202661
0.000202681
0.000202699
0.000202714
0.000202727
0.000202739
0.000202749
0.000202757
0.000202765
0.000202771
0.000202777
0.000202782
0.000202786
0.00020279
0.000202793
0.000202796
0.000202798
0.0002028
0.000202802
0.000202804
0.000202805
0.000202806
0.000202807
0.000202808
0.000202809
0.000202809
0.00020281
0.00020281
0.000202811
0.000202811
0.000202811
0.000202811
0.000202812
0.000202812
0.000202812
0.000202812
0.000202812
0.000202812
0.000202812
0.000202813
0.000202813
0.000202813
0.000202813
0.000202813
0.000202813
0.000202813
0.000202813
0.000202813
0.000202813
0.000202813
0.000202813
0.000202813
0.000202813
0.000202813
0.000202813
0.000202813
0.000202813
0.000202813
0.000202813
0.000202813
0.000202813
0.000202813
0.000202813
0.000202813
0.000202813
0.000202813
0.000202813
0.000202813
0.000202813
0.000202813
0.000202813
0.000202813
0.000202813
0.000202813
0.000202813
0.000202813
0.000202813
0.000202813
0.000202813
0.000202813
0.000202813
0.000202813
0.000202813
0.000202813
0.000202813
0.000202813
0.000202813
0.000202813
0.000202813
0.000202813
0.000202813
0.000202813
0.000202813
0.000202813
0.000202813
0.000202813
0.000202813
0.000202813
0.000202813
0.000202813
0.000202813
0.000202813
0.000202813
0.000202813
0.000202813
0.000202813
0.000202813
0.000202813
0.000202813
0.000202813
0.000202813
0.000202813
0.000202813
0.000202813
0.000202813
0.000202813
0.000202813
0.000202813
0.000202813
0.000202813
0.000202813
0.000202813
0.000202813
0.000202813
0.000202813
0.000202813
0.000202813
0.000202813
0.000202813
0.000202813
0.000202813
0.000202813
0.000202813
0.000202813
0.000202813
0.000202813
0.000202813
0.000202813
0.000202813
0.000202813
0.000202813
0.000202813
0.000202813
0.000202813
0.000202813
0.000202813
0.000202813
0.000202813
0.000202813
0.000202813
0.000202813
0.000202813
0.000202813
0.000202813
0.000202813
0.000202813
0.000202813
0.000202813
0.000202813
0.000202813
0.000202813
0.000202813
0.000202813
0.000202813
0.000202813
0.000202813
0.000202813
0.000202813
0.000202813
0.000202813
0.000202813
0.000202813
0.000202813
0.000202813
0.000202813
0.000202813
0.000202813
0.000202813
0.000202813
0.000202813
0.000202813
0.000202813
0.000202813
0.000202813
0.000202813
0.000202813
0.000202813
0.000202813
0.000202813
0.000202813
0.000202813
0.000202813
0.000202813
0.000202813
0.000202813
0.000202813
0.000202813
0.000202813
0.000202813
0.000202813
0.000202813
0.000202813
0.000202813
0.000202813
0.000202813
0.000202813
0.000202813
0.000202813
0.000202813
0.000202813
0.000202813
0.000202813
0.000202813
0.000202813
0.000202813
0.000202813
0.000202813
0.000202813
0.000202813
0.000202813
0.000202813
0.000202813
0.000202813
0.000202813
0.000202813
0.000202813
0.000202813
0.000202813
0.000202813
0.000202813
0.000202813
0.000202813
0.000202813
0.000202813
0.000202813
0.000202813
0.000202813
0.000202813
0.000202813
0.000202813
0.000202813
0.000202813
0.000202813
0.000202813
0.000202813
0.000202813
0.000135438
6.93485e-05
4.95743e-05
4.15658e-05
4.17524e-05
4.85993e-05
5.92109e-05
6.81816e-05
7.52318e-05
8.46236e-05
9.47881e-05
0.000105082
0.00011578
0.000125676
0.000135293
0.00014409
0.000152062
0.000159264
0.000165878
0.000172171
0.000177711
0.000182426
0.000186734
0.000191054
0.000196965
0.000202124
0.000204759
0.000206923
0.000208711
0.000210194
0.000211431
0.000212466
0.000213334
0.000214067
0.000214688