/*--------------------------------*- C++ -*----------------------------------*\
| =========                 |                                                 |
| \\      /  F ield         | foam-extend: Open Source CFD                    |
|  \\    /   O peration     | Version:     3.2                                |
|   \\  /    A nd           | Web:         http://www.foam-extend.org         |
|    \\/     M anipulation  | For copyright notice see file Copyright         |
\*---------------------------------------------------------------------------*/
FoamFile
{
    version     2.0;
    format      ascii;
    class       areaScalarField;
    location    "83";
    object      Fi;
}
// * * * * * * * * * * * * * * * * * * * * * * * * * * * * * * * * * * * * * //

dimensions      [0 1 -1 0 0 0 0];

internalField   nonuniform List<scalar> 
300
(
-3.74045e-05
-1.5523e-05
-7.28677e-06
-7.37881e-06
-6.69213e-06
-6.70499e-06
-6.38288e-06
-6.37077e-06
-6.25525e-06
-6.29993e-06
-6.30903e-06
-6.38463e-06
-6.45896e-06
-6.57888e-06
-6.69079e-06
-6.83404e-06
-6.97967e-06
-7.14402e-06
-7.30731e-06
-7.48878e-06
-7.67957e-06
-7.87784e-06
-8.08218e-06
-8.29104e-06
-8.50341e-06
-8.71872e-06
-8.91911e-06
-9.09493e-06
-9.24373e-06
-9.36916e-06
-9.47371e-06
-9.56121e-06
-9.63389e-06
-9.69463e-06
-9.74511e-06
-9.78737e-06
-9.82263e-06
-9.85226e-06
-9.87711e-06
-9.89808e-06
-9.91578e-06
-9.93076e-06
-9.94356e-06
-9.95462e-06
-9.96397e-06
-9.97179e-06
-9.97838e-06
-9.98407e-06
-9.98897e-06
-9.99324e-06
-9.99695e-06
-1.00002e-05
-1.0003e-05
-1.00055e-05
-1.00076e-05
-1.00094e-05
-1.00111e-05
-1.00125e-05
-1.00137e-05
-1.00148e-05
-1.00157e-05
-1.00165e-05
-1.00172e-05
-1.00178e-05
-1.00183e-05
-1.00187e-05
-1.00191e-05
-1.00195e-05
-1.00198e-05
-1.002e-05
-1.00204e-05
-1.00206e-05
-1.00207e-05
-1.00209e-05
-1.0021e-05
-1.00211e-05
-1.00211e-05
-1.00212e-05
-1.00213e-05
-1.00213e-05
-1.00213e-05
-1.00214e-05
-1.00214e-05
-1.00214e-05
-1.00215e-05
-1.00215e-05
-1.00215e-05
-1.00215e-05
-1.00215e-05
-1.00215e-05
-1.00216e-05
-1.00216e-05
-1.00216e-05
-1.00216e-05
-1.00216e-05
-1.00216e-05
-1.00216e-05
-1.00216e-05
-1.00216e-05
-1.00216e-05
-1.00216e-05
-1.00216e-05
-1.00216e-05
-1.00216e-05
-1.00216e-05
-1.00216e-05
-1.00216e-05
-1.00216e-05
-1.00216e-05
-1.00216e-05
-1.00216e-05
-1.00216e-05
-1.00216e-05
-1.00216e-05
-1.00216e-05
-1.00216e-05
-1.00216e-05
-1.00216e-05
-1.00216e-05
-1.00216e-05
-1.00216e-05
-1.00216e-05
-1.00216e-05
-1.00216e-05
-1.00216e-05
-1.00216e-05
-1.00216e-05
-1.00216e-05
-1.00216e-05
-1.00216e-05
-1.00216e-05
-1.00216e-05
-1.00216e-05
-1.00216e-05
-1.00216e-05
-1.00216e-05
-1.00216e-05
-1.00216e-05
-1.00216e-05
-1.00216e-05
-1.00216e-05
-1.00216e-05
-1.00216e-05
-1.00216e-05
-1.00216e-05
-1.00216e-05
-1.00216e-05
-1.00216e-05
-1.00216e-05
-1.00216e-05
-1.00216e-05
-1.00216e-05
-1.00216e-05
-1.00216e-05
-1.00216e-05
-1.00216e-05
-1.00216e-05
-1.00216e-05
-1.00216e-05
-1.00216e-05
-1.00216e-05
-1.00216e-05
-1.00216e-05
-1.00216e-05
-1.00216e-05
-1.00216e-05
-1.00216e-05
-1.00216e-05
-1.00216e-05
-1.00216e-05
-1.00216e-05
-1.00216e-05
-1.00216e-05
-1.00216e-05
-1.00216e-05
-1.00216e-05
-1.00216e-05
-1.00216e-05
-1.00216e-05
-1.00216e-05
-1.00216e-05
-1.00216e-05
-1.00216e-05
-1.00216e-05
-1.00216e-05
-1.00216e-05
-1.00216e-05
-1.00216e-05
-1.00216e-05
-1.00216e-05
-1.00216e-05
-1.00216e-05
-1.00216e-05
-1.00216e-05
-1.00216e-05
-1.00216e-05
-1.00216e-05
-1.00216e-05
-1.00216e-05
-1.00216e-05
-1.00216e-05
-1.00216e-05
-1.00216e-05
-1.00216e-05
-1.00216e-05
-1.00216e-05
-1.00216e-05
-1.00216e-05
-1.00216e-05
-1.00216e-05
-1.00216e-05
-1.00216e-05
-1.00216e-05
-1.00216e-05
-1.00216e-05
-1.00216e-05
-1.00216e-05
-1.00216e-05
-1.00216e-05
-1.00216e-05
-1.00216e-05
-1.00216e-05
-1.00216e-05
-1.00216e-05
-1.00216e-05
-1.00216e-05
-1.00216e-05
-1.00216e-05
-1.00216e-05
-1.00216e-05
-1.00216e-05
-1.00216e-05
-1.00216e-05
-1.00216e-05
-1.00216e-05
-1.00216e-05
-1.00216e-05
-1.00216e-05
-1.00216e-05
-1.00216e-05
-1.00216e-05
-1.00216e-05
-1.00216e-05
-1.00216e-05
-1.00216e-05
-1.00216e-05
-1.00216e-05
-1.00216e-05
-1.00216e-05
-1.00216e-05
-1.00216e-05
-1.00216e-05
-1.00216e-05
-1.00216e-05
-1.00216e-05
-1.00216e-05
-1.00216e-05
-1.00216e-05
-1.00216e-05
-1.00216e-05
-1.00216e-05
-1.00216e-05
-1.00216e-05
-1.00216e-05
-1.00216e-05
-1.00216e-05
-1.00216e-05
-1.00216e-05
-1.00216e-05
-1.00216e-05
-1.00216e-05
-1.00216e-05
-1.00216e-05
-1.00216e-05
-1.00216e-05
-1.00216e-05
-1.00216e-05
-1.00216e-05
-1.00216e-05
-1.00216e-05
-1.00216e-05
-1.00216e-05
-1.00216e-05
-1.00216e-05
-1.00216e-05
-1.00216e-05
-1.00216e-05
-1.00216e-05
-1.00216e-05
-1.00216e-05
-1.00216e-05
-1.00216e-05
-1.00216e-05
-1.00216e-05
-1.00216e-05
-1.00216e-05
-1.00216e-05
-1.00216e-05
-1.00216e-05
-1.00216e-05
)
;

boundaryField
{
    inlet
    {
        type            calculated;
        value           uniform 0;
    }
    outlet
    {
        type            calculated;
        value           uniform 0;
    }
    sideWall
    {
        type            empty;
    }
}


// ************************************************************************* //
