/*--------------------------------*- C++ -*----------------------------------*\
| =========                 |                                                 |
| \\      /  F ield         | foam-extend: Open Source CFD                    |
|  \\    /   O peration     | Version:     3.2                                |
|   \\  /    A nd           | Web:         http://www.foam-extend.org         |
|    \\/     M anipulation  | For copyright notice see file Copyright         |
\*---------------------------------------------------------------------------*/
FoamFile
{
    version     2.0;
    format      ascii;
    class       volScalarField;
    location    "83";
    object      k;
}
// * * * * * * * * * * * * * * * * * * * * * * * * * * * * * * * * * * * * * //

dimensions      [0 2 -2 0 0 0 0];

internalField   nonuniform List<scalar> 
5400
(
0.0289944
0.0185066
0.0137096
0.0137677
0.0133315
0.0133398
0.0131327
0.0131249
0.0130503
0.0130792
0.0130851
0.0131339
0.0131818
0.0132589
0.0133307
0.0134223
0.013515
0.0136193
0.0137226
0.0138369
0.0139565
0.0140803
0.0142073
0.0143365
0.0144673
0.0145992
0.0147215
0.0148284
0.0149186
0.0149943
0.0150573
0.01511
0.0151536
0.0151901
0.0152203
0.0152456
0.0152667
0.0152844
0.0152992
0.0153118
0.0153223
0.0153313
0.0153389
0.0153455
0.0153511
0.0153557
0.0153597
0.0153631
0.015366
0.0153685
0.0153707
0.0153727
0.0153743
0.0153758
0.0153771
0.0153782
0.0153791
0.01538
0.0153807
0.0153813
0.0153819
0.0153824
0.0153828
0.0153831
0.0153834
0.0153837
0.0153839
0.0153841
0.0153843
0.0153845
0.0153846
0.0153847
0.0153848
0.0153849
0.015385
0.015385
0.0153851
0.0153851
0.0153852
0.0153852
0.0153852
0.0153853
0.0153853
0.0153853
0.0153853
0.0153853
0.0153853
0.0153854
0.0153854
0.0153854
0.0153854
0.0153854
0.0153854
0.0153854
0.0153854
0.0153854
0.0153854
0.0153854
0.0153854
0.0153854
0.0153854
0.0153854
0.0153854
0.0153854
0.0153854
0.0153854
0.0153854
0.0153854
0.0153854
0.0153854
0.0153854
0.0153854
0.0153854
0.0153854
0.0153854
0.0153854
0.0153854
0.0153854
0.0153854
0.0153854
0.0153854
0.0153854
0.0153854
0.0153854
0.0153854
0.0153854
0.0153854
0.0153854
0.0153854
0.0153854
0.0153854
0.0153854
0.0153854
0.0153854
0.0153854
0.0153854
0.0153854
0.0153854
0.0153854
0.0153854
0.0153854
0.0153854
0.0153854
0.0153854
0.0153854
0.0153854
0.0153854
0.0153854
0.0153854
0.0153854
0.0153854
0.0153854
0.0153854
0.0153854
0.0153854
0.0153854
0.0153854
0.0153854
0.0153854
0.0153854
0.0153854
0.0153854
0.0153854
0.0153854
0.0153854
0.0153854
0.0153854
0.0153854
0.0153854
0.0153854
0.0153854
0.0153854
0.0153854
0.0153854
0.0153854
0.0153854
0.0153854
0.0153854
0.0153854
0.0153854
0.0153854
0.0153854
0.0153854
0.0153854
0.0153854
0.0153854
0.0153854
0.0153854
0.0153854
0.0153854
0.0153854
0.0153854
0.0153854
0.0153854
0.0153854
0.0153854
0.0153854
0.0153854
0.0153854
0.0153854
0.0153854
0.0153854
0.0153854
0.0153854
0.0153854
0.0153854
0.0153854
0.0153854
0.0153854
0.0153854
0.0153854
0.0153854
0.0153854
0.0153854
0.0153854
0.0153854
0.0153854
0.0153854
0.0153854
0.0153854
0.0153854
0.0153854
0.0153854
0.0153854
0.0153854
0.0153854
0.0153854
0.0153854
0.0153854
0.0153854
0.0153854
0.0153854
0.0153854
0.0153854
0.0153854
0.0153854
0.0153854
0.0153854
0.0153854
0.0153854
0.0153854
0.0153854
0.0153854
0.0153854
0.0153854
0.0153854
0.0153854
0.0153854
0.0153854
0.0153854
0.0153854
0.0153854
0.0153854
0.0153854
0.0153854
0.0153854
0.0153854
0.0153854
0.0153854
0.0153854
0.0153854
0.0153854
0.0153854
0.0153854
0.0153854
0.0153854
0.0153854
0.0153854
0.0153854
0.0153854
0.0153854
0.0153854
0.0153854
0.0153854
0.0153854
0.0153854
0.0153854
0.0153854
0.0153854
0.0153854
0.0153854
0.0153854
0.0153854
0.0153854
0.0153854
0.0153854
0.0153854
0.0153854
0.0153854
0.0153854
0.0153854
0.0153854
0.0153854
0.0153854
0.0153854
0.0153854
0.0153854
0.0153854
0.0153854
0.0153854
0.0108492
0.0133746
0.0129748
0.0131476
0.0128927
0.012891
0.0127716
0.01278
0.0127525
0.012797
0.0128298
0.0128938
0.0129649
0.0130469
0.0131365
0.0132348
0.0133374
0.0134489
0.0135614
0.013679
0.0138004
0.0139245
0.0140504
0.0141765
0.0143028
0.0144257
0.014535
0.0146281
0.0147057
0.0147704
0.0148239
0.0148683
0.014905
0.0149356
0.0149609
0.0149821
0.0149998
0.0150146
0.0150271
0.0150376
0.0150465
0.015054
0.0150605
0.015066
0.0150707
0.0150748
0.0150781
0.015081
0.0150836
0.0150857
0.0150876
0.0150893
0.0150908
0.015092
0.0150931
0.0150941
0.0150949
0.0150956
0.0150963
0.0150968
0.0150973
0.0150977
0.0150981
0.0150984
0.0150986
0.0150989
0.0150991
0.0150993
0.0150994
0.0150995
0.0150996
0.0150997
0.0150998
0.0150999
0.0151
0.0151
0.0151001
0.0151001
0.0151001
0.0151002
0.0151002
0.0151002
0.0151002
0.0151003
0.0151003
0.0151003
0.0151003
0.0151003
0.0151003
0.0151003
0.0151003
0.0151003
0.0151003
0.0151003
0.0151003
0.0151003
0.0151003
0.0151003
0.0151003
0.0151003
0.0151003
0.0151003
0.0151003
0.0151004
0.0151004
0.0151004
0.0151004
0.0151004
0.0151004
0.0151004
0.0151004
0.0151004
0.0151004
0.0151004
0.0151004
0.0151004
0.0151004
0.0151004
0.0151004
0.0151004
0.0151004
0.0151004
0.0151004
0.0151004
0.0151004
0.0151004
0.0151004
0.0151004
0.0151004
0.0151004
0.0151004
0.0151004
0.0151004
0.0151004
0.0151004
0.0151004
0.0151004
0.0151004
0.0151004
0.0151004
0.0151004
0.0151004
0.0151004
0.0151004
0.0151004
0.0151004
0.0151004
0.0151004
0.0151004
0.0151004
0.0151004
0.0151004
0.0151004
0.0151004
0.0151004
0.0151004
0.0151004
0.0151004
0.0151004
0.0151004
0.0151004
0.0151004
0.0151004
0.0151004
0.0151004
0.0151004
0.0151004
0.0151004
0.0151004
0.0151004
0.0151004
0.0151004
0.0151004
0.0151004
0.0151004
0.0151004
0.0151004
0.0151004
0.0151004
0.0151004
0.0151004
0.0151004
0.0151004
0.0151004
0.0151004
0.0151004
0.0151004
0.0151004
0.0151004
0.0151004
0.0151004
0.0151004
0.0151004
0.0151004
0.0151004
0.0151004
0.0151004
0.0151004
0.0151004
0.0151004
0.0151004
0.0151004
0.0151004
0.0151004
0.0151004
0.0151004
0.0151004
0.0151004
0.0151004
0.0151004
0.0151004
0.0151004
0.0151004
0.0151004
0.0151004
0.0151004
0.0151004
0.0151004
0.0151004
0.0151004
0.0151004
0.0151004
0.0151004
0.0151004
0.0151004
0.0151004
0.0151004
0.0151004
0.0151004
0.0151004
0.0151004
0.0151004
0.0151004
0.0151004
0.0151004
0.0151004
0.0151004
0.0151004
0.0151004
0.0151004
0.0151004
0.0151004
0.0151004
0.0151004
0.0151004
0.0151004
0.0151004
0.0151004
0.0151004
0.0151004
0.0151004
0.0151004
0.0151004
0.0151004
0.0151004
0.0151004
0.0151004
0.0151004
0.0151004
0.0151004
0.0151004
0.0151004
0.0151004
0.0151004
0.0151004
0.0151004
0.0151004
0.0151004
0.0151004
0.0151004
0.0151004
0.0151004
0.0151004
0.0151004
0.0151004
0.0151004
0.0151004
0.0151004
0.0151004
0.0151004
0.0151004
0.0151004
0.0151004
0.0151004
0.0151004
0.0151004
0.0151004
0.0151004
0.0151004
0.0151004
0.0151004
0.0151004
0.0151004
0.0151004
0.0151004
0.0151004
0.0151004
0.0151004
0.0151004
0.0151004
0.00498096
0.00837911
0.0101295
0.010937
0.0110985
0.0112881
0.0113197
0.0114109
0.0114598
0.011549
0.011618
0.0117111
0.0118049
0.0119021
0.0120066
0.0121124
0.0122222
0.0123374
0.0124535
0.0125709
0.0126896
0.012809
0.0129279
0.0130451
0.0131605
0.0132673
0.0133562
0.0134281
0.013486
0.0135328
0.0135705
0.0136012
0.0136262
0.0136466
0.0136633
0.0136771
0.0136886
0.0136983
0.0137064
0.0137132
0.013719
0.0137239
0.0137282
0.0137318
0.013735
0.0137377
0.01374
0.0137419
0.0137436
0.0137452
0.0137465
0.0137476
0.0137487
0.0137496
0.0137503
0.013751
0.0137516
0.0137521
0.0137526
0.013753
0.0137533
0.0137536
0.0137539
0.0137541
0.0137543
0.0137544
0.0137546
0.0137547
0.0137548
0.0137549
0.013755
0.0137551
0.0137551
0.0137552
0.0137552
0.0137552
0.0137553
0.0137553
0.0137553
0.0137554
0.0137554
0.0137554
0.0137554
0.0137554
0.0137554
0.0137554
0.0137554
0.0137554
0.0137555
0.0137555
0.0137555
0.0137555
0.0137555
0.0137555
0.0137555
0.0137555
0.0137555
0.0137555
0.0137555
0.0137555
0.0137555
0.0137555
0.0137555
0.0137555
0.0137555
0.0137555
0.0137555
0.0137555
0.0137555
0.0137555
0.0137555
0.0137555
0.0137555
0.0137555
0.0137555
0.0137555
0.0137555
0.0137555
0.0137555
0.0137555
0.0137555
0.0137555
0.0137555
0.0137555
0.0137555
0.0137555
0.0137555
0.0137555
0.0137555
0.0137555
0.0137555
0.0137555
0.0137555
0.0137555
0.0137555
0.0137555
0.0137555
0.0137555
0.0137555
0.0137555
0.0137555
0.0137555
0.0137555
0.0137555
0.0137555
0.0137555
0.0137555
0.0137555
0.0137555
0.0137555
0.0137555
0.0137555
0.0137555
0.0137555
0.0137555
0.0137555
0.0137555
0.0137555
0.0137555
0.0137555
0.0137555
0.0137555
0.0137555
0.0137555
0.0137555
0.0137555
0.0137555
0.0137555
0.0137555
0.0137555
0.0137555
0.0137555
0.0137555
0.0137555
0.0137555
0.0137555
0.0137555
0.0137555
0.0137555
0.0137555
0.0137555
0.0137555
0.0137555
0.0137555
0.0137555
0.0137555
0.0137555
0.0137555
0.0137555
0.0137555
0.0137555
0.0137555
0.0137555
0.0137555
0.0137555
0.0137555
0.0137555
0.0137555
0.0137555
0.0137555
0.0137555
0.0137555
0.0137555
0.0137555
0.0137555
0.0137555
0.0137555
0.0137555
0.0137555
0.0137555
0.0137555
0.0137555
0.0137555
0.0137555
0.0137555
0.0137555
0.0137555
0.0137555
0.0137555
0.0137555
0.0137555
0.0137555
0.0137555
0.0137555
0.0137555
0.0137555
0.0137555
0.0137555
0.0137555
0.0137555
0.0137555
0.0137555
0.0137555
0.0137555
0.0137555
0.0137555
0.0137555
0.0137555
0.0137555
0.0137555
0.0137555
0.0137555
0.0137555
0.0137555
0.0137555
0.0137555
0.0137555
0.0137555
0.0137555
0.0137555
0.0137555
0.0137555
0.0137555
0.0137555
0.0137555
0.0137555
0.0137555
0.0137555
0.0137555
0.0137555
0.0137555
0.0137555
0.0137555
0.0137555
0.0137555
0.0137555
0.0137555
0.0137555
0.0137555
0.0137555
0.0137555
0.0137555
0.0137555
0.0137555
0.0137555
0.0137555
0.0137555
0.0137555
0.0137555
0.0137555
0.0137555
0.0137555
0.0137555
0.0137555
0.0137555
0.0137555
0.0137555
0.0137555
0.0137555
0.0137555
0.0137555
0.0137555
0.0137555
0.0137555
0.0137555
0.0137555
0.0137555
0.0137555
0.0137555
0.0137555
0.00258501
0.00477535
0.00706544
0.00844336
0.00921311
0.00969781
0.00995012
0.0101546
0.0102967
0.0104413
0.0105599
0.0106886
0.0108087
0.0109308
0.0110529
0.0111713
0.0112924
0.0114148
0.0115372
0.011658
0.0117775
0.0118955
0.0120108
0.012122
0.0122286
0.0123211
0.0123917
0.0124444
0.0124839
0.0125137
0.0125363
0.0125536
0.0125667
0.0125769
0.0125849
0.0125913
0.0125964
0.0126006
0.0126042
0.0126072
0.0126097
0.0126119
0.0126138
0.0126155
0.012617
0.0126183
0.0126194
0.0126204
0.0126213
0.0126221
0.0126228
0.0126235
0.012624
0.0126246
0.012625
0.0126254
0.0126257
0.012626
0.0126263
0.0126265
0.0126267
0.0126269
0.0126271
0.0126272
0.0126273
0.0126274
0.0126275
0.0126276
0.0126276
0.0126277
0.0126277
0.0126278
0.0126278
0.0126279
0.0126279
0.0126279
0.0126279
0.0126279
0.0126279
0.012628
0.012628
0.012628
0.012628
0.012628
0.012628
0.012628
0.012628
0.012628
0.012628
0.012628
0.012628
0.012628
0.012628
0.012628
0.012628
0.012628
0.012628
0.012628
0.012628
0.012628
0.012628
0.012628
0.012628
0.012628
0.012628
0.012628
0.012628
0.012628
0.012628
0.012628
0.012628
0.012628
0.012628
0.012628
0.012628
0.012628
0.012628
0.012628
0.012628
0.012628
0.012628
0.012628
0.012628
0.012628
0.012628
0.012628
0.012628
0.012628
0.012628
0.012628
0.012628
0.012628
0.012628
0.012628
0.012628
0.012628
0.012628
0.012628
0.012628
0.012628
0.012628
0.012628
0.012628
0.012628
0.012628
0.012628
0.012628
0.012628
0.012628
0.012628
0.012628
0.012628
0.012628
0.012628
0.012628
0.012628
0.012628
0.012628
0.012628
0.012628
0.012628
0.012628
0.012628
0.012628
0.012628
0.012628
0.012628
0.012628
0.012628
0.012628
0.012628
0.012628
0.012628
0.012628
0.012628
0.012628
0.012628
0.012628
0.012628
0.012628
0.012628
0.012628
0.012628
0.012628
0.012628
0.012628
0.012628
0.012628
0.012628
0.012628
0.012628
0.012628
0.012628
0.012628
0.012628
0.012628
0.012628
0.012628
0.012628
0.012628
0.012628
0.012628
0.012628
0.012628
0.012628
0.012628
0.012628
0.012628
0.012628
0.012628
0.012628
0.012628
0.012628
0.012628
0.012628
0.012628
0.012628
0.012628
0.012628
0.012628
0.012628
0.012628
0.012628
0.012628
0.012628
0.012628
0.012628
0.012628
0.012628
0.012628
0.012628
0.012628
0.012628
0.012628
0.012628
0.012628
0.012628
0.012628
0.012628
0.012628
0.012628
0.012628
0.012628
0.012628
0.012628
0.012628
0.012628
0.012628
0.012628
0.012628
0.012628
0.012628
0.012628
0.012628
0.012628
0.012628
0.012628
0.012628
0.012628
0.012628
0.012628
0.012628
0.012628
0.012628
0.012628
0.012628
0.012628
0.012628
0.012628
0.012628
0.012628
0.012628
0.012628
0.012628
0.012628
0.012628
0.012628
0.012628
0.012628
0.012628
0.012628
0.012628
0.012628
0.012628
0.012628
0.012628
0.012628
0.012628
0.012628
0.012628
0.012628
0.012628
0.012628
0.012628
0.012628
0.012628
0.012628
0.012628
0.012628
0.012628
0.00151453
0.00271388
0.00445973
0.00593199
0.00718297
0.00801387
0.00854025
0.00891562
0.00918216
0.00940723
0.00958534
0.00975634
0.00990758
0.0100579
0.0102015
0.010337
0.0104723
0.0106047
0.0107352
0.0108618
0.0109844
0.0111031
0.0112165
0.0113234
0.0114217
0.0115001
0.0115535
0.0115886
0.0116113
0.0116256
0.0116342
0.0116388
0.0116409
0.0116415
0.0116411
0.0116403
0.0116393
0.0116383
0.0116374
0.0116366
0.011636
0.0116356
0.0116352
0.011635
0.0116349
0.0116348
0.0116348
0.0116348
0.0116349
0.011635
0.0116351
0.0116353
0.0116354
0.0116355
0.0116357
0.0116358
0.0116359
0.011636
0.0116361
0.0116362
0.0116362
0.0116363
0.0116364
0.0116364
0.0116364
0.0116365
0.0116365
0.0116365
0.0116366
0.0116366
0.0116366
0.0116366
0.0116366
0.0116366
0.0116366
0.0116367
0.0116367
0.0116367
0.0116367
0.0116367
0.0116367
0.0116367
0.0116367
0.0116367
0.0116367
0.0116367
0.0116367
0.0116367
0.0116367
0.0116367
0.0116367
0.0116367
0.0116367
0.0116367
0.0116367
0.0116367
0.0116367
0.0116367
0.0116367
0.0116367
0.0116367
0.0116367
0.0116367
0.0116367
0.0116367
0.0116367
0.0116367
0.0116367
0.0116367
0.0116367
0.0116367
0.0116367
0.0116367
0.0116367
0.0116367
0.0116367
0.0116367
0.0116367
0.0116367
0.0116367
0.0116367
0.0116367
0.0116367
0.0116367
0.0116367
0.0116367
0.0116367
0.0116367
0.0116367
0.0116367
0.0116367
0.0116367
0.0116367
0.0116367
0.0116367
0.0116367
0.0116367
0.0116367
0.0116367
0.0116367
0.0116367
0.0116367
0.0116367
0.0116367
0.0116367
0.0116367
0.0116367
0.0116367
0.0116367
0.0116367
0.0116367
0.0116367
0.0116367
0.0116367
0.0116367
0.0116367
0.0116367
0.0116367
0.0116367
0.0116367
0.0116367
0.0116367
0.0116367
0.0116367
0.0116367
0.0116367
0.0116367
0.0116367
0.0116367
0.0116367
0.0116367
0.0116367
0.0116367
0.0116367
0.0116367
0.0116367
0.0116367
0.0116367
0.0116367
0.0116367
0.0116367
0.0116367
0.0116367
0.0116367
0.0116367
0.0116367
0.0116367
0.0116367
0.0116367
0.0116367
0.0116367
0.0116367
0.0116367
0.0116367
0.0116367
0.0116367
0.0116367
0.0116367
0.0116367
0.0116367
0.0116367
0.0116367
0.0116367
0.0116367
0.0116367
0.0116367
0.0116367
0.0116367
0.0116367
0.0116367
0.0116367
0.0116367
0.0116367
0.0116367
0.0116367
0.0116367
0.0116367
0.0116367
0.0116367
0.0116367
0.0116367
0.0116367
0.0116367
0.0116367
0.0116367
0.0116367
0.0116367
0.0116367
0.0116367
0.0116367
0.0116367
0.0116367
0.0116367
0.0116367
0.0116367
0.0116367
0.0116367
0.0116367
0.0116367
0.0116367
0.0116367
0.0116367
0.0116367
0.0116367
0.0116367
0.0116367
0.0116367
0.0116367
0.0116367
0.0116367
0.0116367
0.0116367
0.0116367
0.0116367
0.0116367
0.0116367
0.0116367
0.0116367
0.0116367
0.0116367
0.0116367
0.0116367
0.0116367
0.0116367
0.0116367
0.0116367
0.0116367
0.0116367
0.0116367
0.0116367
0.0116367
0.0116367
0.0116367
0.0116367
0.0116367
0.0116367
0.0116367
0.0116367
0.0116367
0.0116367
0.0116367
0.0116367
0.0116367
0.0116367
0.0116367
0.0116367
0.0116367
0.0116367
0.0116367
0.0116367
0.0116367
0.0116367
0.0116367
0.0116367
0.0116367
0.0116367
0.0116367
0.0116367
0.0116367
0.0116367
0.0010504
0.00163984
0.0026504
0.00385061
0.00515273
0.00619385
0.00701276
0.00760139
0.0080273
0.00836263
0.00862313
0.00885249
0.00904848
0.0092325
0.00940134
0.00955892
0.00971071
0.00985515
0.00999553
0.0101296
0.0102571
0.0103781
0.0104908
0.0105938
0.0106828
0.0107463
0.0107836
0.0108032
0.0108112
0.010812
0.0108081
0.0108017
0.010794
0.0107859
0.0107781
0.0107708
0.0107642
0.0107585
0.0107536
0.0107494
0.010746
0.0107431
0.0107407
0.0107387
0.0107371
0.0107358
0.0107347
0.0107339
0.0107332
0.0107327
0.0107323
0.010732
0.0107317
0.0107315
0.0107314
0.0107313
0.0107312
0.0107311
0.010731
0.010731
0.0107309
0.0107309
0.0107308
0.0107308
0.0107308
0.0107308
0.0107308
0.0107307
0.0107307
0.0107307
0.0107307
0.0107307
0.0107307
0.0107307
0.0107307
0.0107307
0.0107307
0.0107307
0.0107307
0.0107307
0.0107307
0.0107307
0.0107306
0.0107306
0.0107306
0.0107306
0.0107306
0.0107306
0.0107306
0.0107306
0.0107306
0.0107306
0.0107306
0.0107306
0.0107306
0.0107306
0.0107306
0.0107306
0.0107306
0.0107306
0.0107306
0.0107306
0.0107306
0.0107306
0.0107306
0.0107306
0.0107306
0.0107306
0.0107306
0.0107306
0.0107306
0.0107306
0.0107306
0.0107306
0.0107306
0.0107306
0.0107306
0.0107306
0.0107306
0.0107306
0.0107306
0.0107306
0.0107306
0.0107306
0.0107306
0.0107306
0.0107306
0.0107306
0.0107306
0.0107306
0.0107306
0.0107306
0.0107306
0.0107306
0.0107306
0.0107306
0.0107306
0.0107306
0.0107306
0.0107306
0.0107306
0.0107306
0.0107306
0.0107306
0.0107306
0.0107306
0.0107306
0.0107306
0.0107306
0.0107306
0.0107306
0.0107306
0.0107306
0.0107306
0.0107306
0.0107306
0.0107306
0.0107306
0.0107306
0.0107306
0.0107306
0.0107306
0.0107306
0.0107306
0.0107306
0.0107306
0.0107306
0.0107306
0.0107306
0.0107306
0.0107306
0.0107306
0.0107306
0.0107306
0.0107306
0.0107306
0.0107306
0.0107306
0.0107306
0.0107306
0.0107306
0.0107306
0.0107306
0.0107306
0.0107306
0.0107306
0.0107306
0.0107306
0.0107306
0.0107306
0.0107306
0.0107306
0.0107306
0.0107306
0.0107306
0.0107306
0.0107306
0.0107306
0.0107306
0.0107306
0.0107306
0.0107306
0.0107306
0.0107306
0.0107306
0.0107306
0.0107306
0.0107306
0.0107306
0.0107306
0.0107306
0.0107306
0.0107306
0.0107306
0.0107306
0.0107306
0.0107306
0.0107306
0.0107306
0.0107306
0.0107306
0.0107306
0.0107306
0.0107306
0.0107306
0.0107306
0.0107306
0.0107306
0.0107306
0.0107306
0.0107306
0.0107306
0.0107306
0.0107306
0.0107306
0.0107306
0.0107306
0.0107306
0.0107306
0.0107306
0.0107306
0.0107306
0.0107306
0.0107306
0.0107306
0.0107306
0.0107306
0.0107306
0.0107306
0.0107306
0.0107306
0.0107306
0.0107306
0.0107306
0.0107306
0.0107306
0.0107306
0.0107306
0.0107306
0.0107306
0.0107306
0.0107306
0.0107306
0.0107306
0.0107306
0.0107306
0.0107306
0.0107306
0.0107306
0.0107306
0.0107306
0.0107306
0.0107306
0.0107306
0.0107306
0.0107306
0.0107306
0.0107306
0.0107306
0.0107306
0.0107306
0.0107306
0.0107306
0.0107306
0.0107306
0.0107306
0.0107306
0.0107306
0.0107306
0.0107306
0.0107306
0.0107306
0.0107306
0.0107306
0.0107306
0.0107306
0.0107306
0.0107306
0.0107306
0.0107306
0.000852206
0.00109186
0.00157857
0.00237344
0.00344682
0.00445126
0.00540396
0.00616738
0.00677803
0.00725215
0.00762078
0.00792869
0.00818522
0.00841429
0.00861724
0.00880354
0.00897731
0.00913882
0.00929241
0.00943562
0.00956918
0.00969358
0.00980603
0.00990475
0.00998216
0.0100294
0.0100527
0.0100595
0.0100557
0.0100455
0.0100317
0.0100164
0.0100007
0.00998564
0.00997167
0.00995911
0.00994803
0.00993845
0.00993023
0.0099233
0.00991745
0.00991257
0.00990851
0.00990512
0.00990227
0.00989991
0.00989798
0.00989642
0.00989516
0.00989414
0.00989331
0.00989264
0.00989208
0.00989162
0.00989124
0.00989092
0.00989066
0.00989043
0.00989024
0.00989008
0.00988995
0.00988983
0.00988973
0.00988965
0.00988957
0.00988951
0.00988946
0.00988941
0.00988937
0.00988933
0.0098893
0.00988928
0.00988926
0.00988924
0.00988922
0.0098892
0.00988919
0.00988918
0.00988917
0.00988916
0.00988915
0.00988915
0.00988914
0.00988914
0.00988913
0.00988913
0.00988913
0.00988912
0.00988912
0.00988912
0.00988912
0.00988912
0.00988911
0.00988911
0.00988911
0.00988911
0.00988911
0.00988911
0.00988911
0.00988911
0.00988911
0.00988911
0.00988911
0.00988911
0.00988911
0.00988911
0.00988911
0.00988911
0.00988911
0.00988911
0.00988911
0.00988911
0.00988911
0.00988911
0.00988911
0.00988911
0.00988911
0.00988911
0.00988911
0.00988911
0.00988911
0.00988911
0.00988911
0.00988911
0.00988911
0.00988911
0.00988911
0.00988911
0.00988911
0.00988911
0.00988911
0.00988911
0.00988911
0.00988911
0.00988911
0.00988911
0.00988911
0.00988911
0.00988911
0.00988911
0.00988911
0.00988911
0.00988911
0.00988911
0.00988911
0.00988911
0.00988911
0.00988911
0.00988911
0.00988911
0.00988911
0.00988911
0.00988911
0.00988911
0.00988911
0.00988911
0.00988911
0.00988911
0.00988911
0.00988911
0.00988911
0.00988911
0.00988911
0.00988911
0.00988911
0.00988911
0.00988911
0.00988911
0.00988911
0.00988911
0.00988911
0.00988911
0.00988911
0.00988911
0.00988911
0.00988911
0.00988911
0.00988911
0.00988911
0.00988911
0.00988911
0.00988911
0.00988911
0.00988911
0.00988911
0.00988911
0.00988911
0.00988911
0.00988911
0.00988911
0.00988911
0.00988911
0.00988911
0.00988911
0.00988911
0.00988911
0.00988911
0.00988911
0.00988911
0.00988911
0.00988911
0.00988911
0.00988911
0.00988911
0.00988911
0.00988911
0.00988911
0.00988911
0.00988911
0.00988911
0.00988911
0.00988911
0.00988911
0.00988911
0.00988911
0.00988911
0.00988911
0.00988911
0.00988911
0.00988911
0.00988911
0.00988911
0.00988911
0.00988911
0.00988911
0.00988911
0.00988911
0.00988911
0.00988911
0.00988911
0.00988911
0.00988911
0.00988911
0.00988911
0.00988911
0.00988911
0.00988911
0.00988911
0.00988911
0.00988911
0.00988911
0.00988911
0.00988911
0.00988911
0.00988911
0.00988911
0.00988911
0.00988911
0.00988911
0.00988911
0.00988911
0.00988911
0.00988911
0.00988911
0.00988911
0.00988911
0.00988911
0.00988911
0.00988911
0.00988911
0.00988911
0.00988911
0.00988911
0.00988911
0.00988911
0.00988911
0.00988911
0.00988911
0.00988911
0.00988911
0.00988911
0.00988911
0.00988911
0.00988911
0.00988911
0.00988911
0.00988911
0.00988911
0.00988911
0.00988911
0.00988911
0.00988911
0.00988911
0.00988911
0.00988911
0.00988911
0.00988911
0.00988911
0.00988911
0.00988911
0.00988911
0.00988911
0.00988911
0.00988911
0.00988911
0.00988911
0.00988911
0.00988911
0.00988911
0.00988911
0.000769731
0.000863393
0.0010557
0.0014723
0.00217847
0.00302545
0.00391284
0.00471562
0.00543865
0.00604171
0.00653923
0.00694602
0.00728151
0.00757111
0.00782066
0.00804369
0.00824608
0.00843123
0.00860232
0.00875833
0.00890048
0.00902925
0.00914096
0.00923284
0.00929712
0.00933191
0.00934477
0.0093425
0.00933048
0.00931275
0.00929213
0.0092706
0.00924946
0.00922958
0.00921141
0.00919521
0.00918101
0.00916875
0.00915827
0.0091494
0.00914192
0.00913567
0.00913044
0.00912606
0.00912236
0.0091193
0.00911678
0.00911473
0.00911307
0.00911171
0.00911059
0.00910967
0.00910891
0.00910828
0.00910775
0.00910731
0.00910694
0.00910662
0.00910636
0.00910613
0.00910594
0.00910578
0.00910564
0.00910552
0.00910542
0.00910533
0.00910525
0.00910519
0.00910513
0.00910508
0.00910504
0.009105
0.00910497
0.00910494
0.00910492
0.0091049
0.00910488
0.00910486
0.00910485
0.00910484
0.00910483
0.00910482
0.00910481
0.00910481
0.0091048
0.0091048
0.00910479
0.00910479
0.00910478
0.00910478
0.00910478
0.00910478
0.00910478
0.00910477
0.00910477
0.00910477
0.00910477
0.00910477
0.00910477
0.00910477
0.00910477
0.00910477
0.00910477
0.00910477
0.00910477
0.00910477
0.00910477
0.00910477
0.00910477
0.00910477
0.00910477
0.00910477
0.00910476
0.00910476
0.00910476
0.00910476
0.00910476
0.00910476
0.00910476
0.00910476
0.00910476
0.00910476
0.00910476
0.00910476
0.00910476
0.00910476
0.00910476
0.00910476
0.00910476
0.00910476
0.00910476
0.00910476
0.00910476
0.00910476
0.00910476
0.00910476
0.00910476
0.00910476
0.00910476
0.00910476
0.00910476
0.00910476
0.00910476
0.00910476
0.00910476
0.00910476
0.00910476
0.00910476
0.00910476
0.00910476
0.00910476
0.00910476
0.00910476
0.00910476
0.00910476
0.00910476
0.00910476
0.00910476
0.00910476
0.00910476
0.00910476
0.00910476
0.00910476
0.00910476
0.00910476
0.00910476
0.00910476
0.00910476
0.00910476
0.00910476
0.00910476
0.00910476
0.00910476
0.00910476
0.00910476
0.00910476
0.00910476
0.00910476
0.00910476
0.00910476
0.00910476
0.00910476
0.00910476
0.00910476
0.00910476
0.00910476
0.00910476
0.00910476
0.00910476
0.00910476
0.00910476
0.00910476
0.00910476
0.00910476
0.00910476
0.00910476
0.00910476
0.00910476
0.00910476
0.00910476
0.00910476
0.00910476
0.00910476
0.00910476
0.00910476
0.00910476
0.00910476
0.00910476
0.00910476
0.00910476
0.00910476
0.00910476
0.00910476
0.00910476
0.00910476
0.00910476
0.00910476
0.00910476
0.00910476
0.00910476
0.00910476
0.00910476
0.00910476
0.00910476
0.00910476
0.00910476
0.00910476
0.00910476
0.00910476
0.00910476
0.00910476
0.00910476
0.00910476
0.00910476
0.00910476
0.00910476
0.00910476
0.00910476
0.00910476
0.00910476
0.00910476
0.00910476
0.00910476
0.00910476
0.00910476
0.00910476
0.00910476
0.00910476
0.00910476
0.00910476
0.00910476
0.00910476
0.00910476
0.00910476
0.00910476
0.00910476
0.00910476
0.00910476
0.00910476
0.00910476
0.00910476
0.00910476
0.00910476
0.00910476
0.00910476
0.00910476
0.00910476
0.00910476
0.00910476
0.00910476
0.00910476
0.00910476
0.00910476
0.00910476
0.00910476
0.00910476
0.00910476
0.00910476
0.00910476
0.00910476
0.00910476
0.00910476
0.00910476
0.00910476
0.00910476
0.00910476
0.00910476
0.00910476
0.00910476
0.00910476
0.00910476
0.00910476
0.00910476
0.00910476
0.00910476
0.00910476
0.00910476
0.00910476
0.00910476
0.00910476
0.000737019
0.000774598
0.00084182
0.0010186
0.00138508
0.00197214
0.00270002
0.00343506
0.00414609
0.00479426
0.00537789
0.00588044
0.00630932
0.0066737
0.00698435
0.00725583
0.00749524
0.0077109
0.00790483
0.0080783
0.00823171
0.00836535
0.00847527
0.00855876
0.00861345
0.00864348
0.00865145
0.00864487
0.00862897
0.00860771
0.00858393
0.00855958
0.00853595
0.00851387
0.0084938
0.00847596
0.00846034
0.00844687
0.00843535
0.00842562
0.00841741
0.00841053
0.00840478
0.00839995
0.00839588
0.00839249
0.00838973
0.00838748
0.00838565
0.00838415
0.00838292
0.00838191
0.00838108
0.00838038
0.00837981
0.00837932
0.00837892
0.00837858
0.00837829
0.00837805
0.00837785
0.00837767
0.00837752
0.00837739
0.00837729
0.00837719
0.00837711
0.00837704
0.00837698
0.00837693
0.00837688
0.00837685
0.00837681
0.00837678
0.00837676
0.00837674
0.00837672
0.0083767
0.00837669
0.00837668
0.00837666
0.00837666
0.00837665
0.00837664
0.00837663
0.00837663
0.00837662
0.00837662
0.00837662
0.00837661
0.00837661
0.00837661
0.00837661
0.00837661
0.00837661
0.0083766
0.0083766
0.0083766
0.0083766
0.0083766
0.0083766
0.0083766
0.0083766
0.0083766
0.0083766
0.0083766
0.0083766
0.0083766
0.0083766
0.0083766
0.0083766
0.0083766
0.0083766
0.0083766
0.0083766
0.0083766
0.0083766
0.0083766
0.0083766
0.0083766
0.0083766
0.0083766
0.0083766
0.0083766
0.0083766
0.0083766
0.0083766
0.0083766
0.0083766
0.0083766
0.0083766
0.0083766
0.0083766
0.0083766
0.0083766
0.0083766
0.0083766
0.0083766
0.0083766
0.0083766
0.0083766
0.0083766
0.0083766
0.0083766
0.0083766
0.0083766
0.0083766
0.0083766
0.0083766
0.0083766
0.0083766
0.0083766
0.0083766
0.0083766
0.0083766
0.0083766
0.0083766
0.0083766
0.0083766
0.0083766
0.0083766
0.0083766
0.0083766
0.0083766
0.0083766
0.0083766
0.0083766
0.0083766
0.0083766
0.0083766
0.0083766
0.0083766
0.0083766
0.0083766
0.0083766
0.0083766
0.0083766
0.0083766
0.0083766
0.0083766
0.0083766
0.0083766
0.0083766
0.0083766
0.0083766
0.0083766
0.0083766
0.0083766
0.0083766
0.0083766
0.0083766
0.0083766
0.0083766
0.0083766
0.0083766
0.0083766
0.0083766
0.0083766
0.0083766
0.0083766
0.0083766
0.0083766
0.0083766
0.0083766
0.0083766
0.0083766
0.0083766
0.0083766
0.0083766
0.0083766
0.0083766
0.0083766
0.0083766
0.0083766
0.0083766
0.0083766
0.0083766
0.0083766
0.0083766
0.0083766
0.0083766
0.0083766
0.0083766
0.0083766
0.0083766
0.0083766
0.0083766
0.0083766
0.0083766
0.0083766
0.0083766
0.0083766
0.0083766
0.0083766
0.0083766
0.0083766
0.0083766
0.0083766
0.0083766
0.0083766
0.0083766
0.0083766
0.0083766
0.0083766
0.0083766
0.0083766
0.0083766
0.0083766
0.0083766
0.0083766
0.0083766
0.0083766
0.0083766
0.0083766
0.0083766
0.0083766
0.0083766
0.0083766
0.0083766
0.0083766
0.0083766
0.0083766
0.0083766
0.0083766
0.0083766
0.0083766
0.0083766
0.0083766
0.0083766
0.0083766
0.0083766
0.0083766
0.0083766
0.0083766
0.0083766
0.0083766
0.0083766
0.0083766
0.0083766
0.0083766
0.0083766
0.0083766
0.0083766
0.0083766
0.0083766
0.0083766
0.0083766
0.0083766
0.0083766
0.0083766
0.0083766
0.0083766
0.0083766
0.0083766
0.0083766
0.0083766
0.0083766
0.0083766
0.0083766
0.0083766
0.000724478
0.000740805
0.000763269
0.00082806
0.000985368
0.0013072
0.00179782
0.00239375
0.00303472
0.00364725
0.0042372
0.00477825
0.0052704
0.00570566
0.00608715
0.0064187
0.00670486
0.00695791
0.00718015
0.00737587
0.00754357
0.00768286
0.00779182
0.00787124
0.00792749
0.00796027
0.00796969
0.00796428
0.00794949
0.00792931
0.00790654
0.00788314
0.00786036
0.00783903
0.00781961
0.00780232
0.00778717
0.00777411
0.00776294
0.0077535
0.00774554
0.00773888
0.00773331
0.00772863
0.00772469
0.00772143
0.00771878
0.00771664
0.0077149
0.00771349
0.00771235
0.00771141
0.00771064
0.00771001
0.00770949
0.00770906
0.00770871
0.00770841
0.00770816
0.00770795
0.00770778
0.00770763
0.00770751
0.0077074
0.00770731
0.00770723
0.00770717
0.00770711
0.00770706
0.00770702
0.00770698
0.00770695
0.00770692
0.0077069
0.00770688
0.00770686
0.00770684
0.00770683
0.00770682
0.00770681
0.0077068
0.00770679
0.00770679
0.00770678
0.00770678
0.00770677
0.00770677
0.00770676
0.00770676
0.00770676
0.00770676
0.00770676
0.00770675
0.00770675
0.00770675
0.00770675
0.00770675
0.00770675
0.00770675
0.00770675
0.00770675
0.00770675
0.00770675
0.00770675
0.00770675
0.00770675
0.00770675
0.00770675
0.00770675
0.00770675
0.00770675
0.00770675
0.00770675
0.00770675
0.00770675
0.00770675
0.00770675
0.00770674
0.00770674
0.00770674
0.00770674
0.00770674
0.00770674
0.00770674
0.00770674
0.00770674
0.00770674
0.00770674
0.00770674
0.00770674
0.00770674
0.00770674
0.00770674
0.00770674
0.00770674
0.00770674
0.00770674
0.00770674
0.00770674
0.00770674
0.00770674
0.00770674
0.00770674
0.00770674
0.00770674
0.00770674
0.00770674
0.00770674
0.00770674
0.00770674
0.00770674
0.00770674
0.00770674
0.00770674
0.00770674
0.00770674