/*--------------------------------*- C++ -*----------------------------------*\
| =========                 |                                                 |
| \\      /  F ield         | foam-extend: Open Source CFD                    |
|  \\    /   O peration     | Version:     3.2                                |
|   \\  /    A nd           | Web:         http://www.foam-extend.org         |
|    \\/     M anipulation  | For copyright notice see file Copyright         |
\*---------------------------------------------------------------------------*/
FoamFile
{
    version     2.0;
    format      ascii;
    class       areaScalarField;
    location    "83";
    object      kTempA;
}
// * * * * * * * * * * * * * * * * * * * * * * * * * * * * * * * * * * * * * //

dimensions      [0 2 -2 0 0 0 0];

internalField   nonuniform List<scalar> 
300
(
0.0289944
0.0185066
0.0137096
0.0137677
0.0133315
0.0133398
0.0131327
0.0131249
0.0130503
0.0130792
0.0130851
0.0131339
0.0131818
0.0132589
0.0133307
0.0134223
0.013515
0.0136193
0.0137226
0.0138369
0.0139565
0.0140803
0.0142073
0.0143365
0.0144673
0.0145992
0.0147215
0.0148284
0.0149186
0.0149943
0.0150573
0.01511
0.0151536
0.0151901
0.0152203
0.0152456
0.0152667
0.0152844
0.0152992
0.0153118
0.0153223
0.0153313
0.0153389
0.0153455
0.0153511
0.0153557
0.0153597
0.0153631
0.015366
0.0153685
0.0153707
0.0153727
0.0153743
0.0153758
0.0153771
0.0153782
0.0153791
0.01538
0.0153807
0.0153813
0.0153819
0.0153824
0.0153828
0.0153831
0.0153834
0.0153837
0.0153839
0.0153841
0.0153843
0.0153845
0.0153846
0.0153847
0.0153848
0.0153849
0.015385
0.015385
0.0153851
0.0153851
0.0153852
0.0153852
0.0153852
0.0153853
0.0153853
0.0153853
0.0153853
0.0153853
0.0153853
0.0153854
0.0153854
0.0153854
0.0153854
0.0153854
0.0153854
0.0153854
0.0153854
0.0153854
0.0153854
0.0153854
0.0153854
0.0153854
0.0153854
0.0153854
0.0153854
0.0153854
0.0153854
0.0153854
0.0153854
0.0153854
0.0153854
0.0153854
0.0153854
0.0153854
0.0153854
0.0153854
0.0153854
0.0153854
0.0153854
0.0153854
0.0153854
0.0153854
0.0153854
0.0153854
0.0153854
0.0153854
0.0153854
0.0153854
0.0153854
0.0153854
0.0153854
0.0153854
0.0153854
0.0153854
0.0153854
0.0153854
0.0153854
0.0153854
0.0153854
0.0153854
0.0153854
0.0153854
0.0153854
0.0153854
0.0153854
0.0153854
0.0153854
0.0153854
0.0153854
0.0153854
0.0153854
0.0153854
0.0153854
0.0153854
0.0153854
0.0153854
0.0153854
0.0153854
0.0153854
0.0153854
0.0153854
0.0153854
0.0153854
0.0153854
0.0153854
0.0153854
0.0153854
0.0153854
0.0153854
0.0153854
0.0153854
0.0153854
0.0153854
0.0153854
0.0153854
0.0153854
0.0153854
0.0153854
0.0153854
0.0153854
0.0153854
0.0153854
0.0153854
0.0153854
0.0153854
0.0153854
0.0153854
0.0153854
0.0153854
0.0153854
0.0153854
0.0153854
0.0153854
0.0153854
0.0153854
0.0153854
0.0153854
0.0153854
0.0153854
0.0153854
0.0153854
0.0153854
0.0153854
0.0153854
0.0153854
0.0153854
0.0153854
0.0153854
0.0153854
0.0153854
0.0153854
0.0153854
0.0153854
0.0153854
0.0153854
0.0153854
0.0153854
0.0153854
0.0153854
0.0153854
0.0153854
0.0153854
0.0153854
0.0153854
0.0153854
0.0153854
0.0153854
0.0153854
0.0153854
0.0153854
0.0153854
0.0153854
0.0153854
0.0153854
0.0153854
0.0153854
0.0153854
0.0153854
0.0153854
0.0153854
0.0153854
0.0153854
0.0153854
0.0153854
0.0153854
0.0153854
0.0153854
0.0153854
0.0153854
0.0153854
0.0153854
0.0153854
0.0153854
0.0153854
0.0153854
0.0153854
0.0153854
0.0153854
0.0153854
0.0153854
0.0153854
0.0153854
0.0153854
0.0153854
0.0153854
0.0153854
0.0153854
0.0153854
0.0153854
0.0153854
0.0153854
0.0153854
0.0153854
0.0153854
0.0153854
0.0153854
0.0153854
0.0153854
0.0153854
0.0153854
0.0153854
0.0153854
0.0153854
0.0153854
0.0153854
0.0153854
0.0153854
0.0153854
0.0153854
0.0153854
0.0153854
0.0153854
0.0153854
0.0153854
0.0153854
0.0153854
0.0153854
0.0153854
0.0153854
0.0153854
0.0153854
0.0153854
)
;

boundaryField
{
    inlet
    {
        type            calculated;
        value           uniform 0;
    }
    outlet
    {
        type            calculated;
        value           uniform 0;
    }
    sideWall
    {
        type            empty;
    }
}


// ************************************************************************* //
