/*--------------------------------*- C++ -*----------------------------------*\
| =========                 |                                                 |
| \\      /  F ield         | foam-extend: Open Source CFD                    |
|  \\    /   O peration     | Version:     3.2                                |
|   \\  /    A nd           | Web:         http://www.foam-extend.org         |
|    \\/     M anipulation  | For copyright notice see file Copyright         |
\*---------------------------------------------------------------------------*/
FoamFile
{
    version     2.0;
    format      ascii;
    class       volScalarField;
    location    "83";
    object      nut;
}
// * * * * * * * * * * * * * * * * * * * * * * * * * * * * * * * * * * * * * //

dimensions      [0 2 -1 0 0 0 0];

internalField   nonuniform List<scalar> 
5400
(
3.16127e-05
2.51441e-05
2.15492e-05
2.15963e-05
2.12401e-05
2.12469e-05
2.10758e-05
2.10693e-05
2.10072e-05
2.10313e-05
2.10362e-05
2.10767e-05
2.11164e-05
2.11802e-05
2.12394e-05
2.13147e-05
2.13907e-05
2.14758e-05
2.15597e-05
2.16522e-05
2.17487e-05
2.1848e-05
2.19494e-05
2.20522e-05
2.21557e-05
2.22596e-05
2.23555e-05
2.2439e-05
2.25092e-05
2.2568e-05
2.26168e-05
2.26575e-05
2.26911e-05
2.27192e-05
2.27425e-05
2.27619e-05
2.27781e-05
2.27917e-05
2.28031e-05
2.28127e-05
2.28208e-05
2.28277e-05
2.28335e-05
2.28386e-05
2.28429e-05
2.28464e-05
2.28494e-05
2.2852e-05
2.28543e-05
2.28562e-05
2.28579e-05
2.28594e-05
2.28607e-05
2.28618e-05
2.28627e-05
2.28636e-05
2.28643e-05
2.2865e-05
2.28655e-05
2.2866e-05
2.28664e-05
2.28668e-05
2.28671e-05
2.28674e-05
2.28676e-05
2.28678e-05
2.2868e-05
2.28682e-05
2.28683e-05
2.28684e-05
2.28685e-05
2.28686e-05
2.28687e-05
2.28687e-05
2.28688e-05
2.28688e-05
2.28689e-05
2.28689e-05
2.2869e-05
2.2869e-05
2.2869e-05
2.2869e-05
2.2869e-05
2.28691e-05
2.28691e-05
2.28691e-05
2.28691e-05
2.28691e-05
2.28691e-05
2.28691e-05
2.28691e-05
2.28691e-05
2.28691e-05
2.28691e-05
2.28691e-05
2.28691e-05
2.28691e-05
2.28691e-05
2.28691e-05
2.28691e-05
2.28691e-05
2.28691e-05
2.28691e-05
2.28691e-05
2.28691e-05
2.28691e-05
2.28691e-05
2.28691e-05
2.28691e-05
2.28691e-05
2.28691e-05
2.28691e-05
2.28691e-05
2.28691e-05
2.28691e-05
2.28691e-05
2.28691e-05
2.28691e-05
2.28691e-05
2.28691e-05
2.28691e-05
2.28691e-05
2.28691e-05
2.28691e-05
2.28691e-05
2.28691e-05
2.28691e-05
2.28691e-05
2.28691e-05
2.28691e-05
2.28691e-05
2.28691e-05
2.28691e-05
2.28691e-05
2.28691e-05
2.28691e-05
2.28691e-05
2.28691e-05
2.28691e-05
2.28691e-05
2.28691e-05
2.28691e-05
2.28691e-05
2.28691e-05
2.28691e-05
2.28691e-05
2.28691e-05
2.28691e-05
2.28691e-05
2.28691e-05
2.28691e-05
2.28691e-05
2.28691e-05
2.28691e-05
2.28691e-05
2.28691e-05
2.28691e-05
2.28691e-05
2.28691e-05
2.28691e-05
2.28691e-05
2.28691e-05
2.28691e-05
2.28691e-05
2.28691e-05
2.28691e-05
2.28691e-05
2.28691e-05
2.28691e-05
2.28691e-05
2.28691e-05
2.28691e-05
2.28691e-05
2.28691e-05
2.28691e-05
2.28691e-05
2.28691e-05
2.28691e-05
2.28691e-05
2.28691e-05
2.28691e-05
2.28691e-05
2.28691e-05
2.28691e-05
2.28691e-05
2.28691e-05
2.28691e-05
2.28691e-05
2.28691e-05
2.28691e-05
2.28691e-05
2.28691e-05
2.28691e-05
2.28691e-05
2.28691e-05
2.28691e-05
2.28691e-05
2.28691e-05
2.28691e-05
2.28691e-05
2.28691e-05
2.28691e-05
2.28691e-05
2.28691e-05
2.28691e-05
2.28691e-05
2.28691e-05
2.28691e-05
2.28691e-05
2.28691e-05
2.28691e-05
2.28691e-05
2.28691e-05
2.28691e-05
2.28691e-05
2.28691e-05
2.28691e-05
2.28691e-05
2.28691e-05
2.28691e-05
2.28691e-05
2.28691e-05
2.28691e-05
2.28691e-05
2.28691e-05
2.28691e-05
2.28691e-05
2.28691e-05
2.28691e-05
2.28691e-05
2.28691e-05
2.28691e-05
2.28691e-05
2.28691e-05
2.28691e-05
2.28691e-05
2.28691e-05
2.28691e-05
2.28691e-05
2.28691e-05
2.28691e-05
2.28691e-05
2.28691e-05
2.28691e-05
2.28691e-05
2.28691e-05
2.28691e-05
2.28691e-05
2.28691e-05
2.28691e-05
2.28691e-05
2.28691e-05
2.28691e-05
2.28691e-05
2.28691e-05
2.28691e-05
2.28691e-05
2.28691e-05
2.28691e-05
2.28691e-05
2.28691e-05
2.28691e-05
2.28691e-05
2.28691e-05
2.28691e-05
2.28691e-05
2.28691e-05
2.28691e-05
2.28691e-05
2.28691e-05
2.28691e-05
2.28691e-05
2.28691e-05
2.28691e-05
2.28691e-05
2.28691e-05
2.28691e-05
2.28691e-05
2.28691e-05
2.28691e-05
2.28691e-05
2.28691e-05
2.28691e-05
2.28691e-05
2.28691e-05
2.28691e-05
2.28691e-05
2.28691e-05
2.28691e-05
2.28691e-05
2.28691e-05
2.28691e-05
2.28691e-05
2.28691e-05
2.28691e-05
2.28691e-05
2.28691e-05
2.28691e-05
2.28692e-05
2.28691e-05
3.0162e-05
4.00921e-05
4.35873e-05
4.6216e-05
4.78857e-05
4.87144e-05
4.93327e-05
4.97058e-05
5.0095e-05
5.03972e-05
5.07004e-05
5.0995e-05
5.12843e-05
5.15857e-05
5.18747e-05
5.21643e-05
5.24566e-05
5.27471e-05
5.30412e-05
5.3333e-05
5.36214e-05
5.39061e-05
5.41852e-05
5.44567e-05
5.47175e-05
5.49551e-05
5.51564e-05
5.53165e-05
5.54411e-05
5.55373e-05
5.56121e-05
5.56703e-05
5.5716e-05
5.57522e-05
5.57812e-05
5.58046e-05
5.58239e-05
5.58398e-05
5.58532e-05
5.58644e-05
5.58739e-05
5.58819e-05
5.58889e-05
5.58948e-05
5.59e-05
5.59044e-05
5.59082e-05
5.59114e-05
5.59143e-05
5.59169e-05
5.59191e-05
5.59211e-05
5.59229e-05
5.59245e-05
5.59259e-05
5.59271e-05
5.59282e-05
5.59291e-05
5.59299e-05
5.59307e-05
5.59313e-05
5.59318e-05
5.59323e-05
5.59327e-05
5.59331e-05
5.59334e-05
5.59336e-05
5.59339e-05
5.59341e-05
5.59342e-05
5.59344e-05
5.59345e-05
5.59346e-05
5.59347e-05
5.59348e-05
5.59349e-05
5.59349e-05
5.5935e-05
5.5935e-05
5.59351e-05
5.59351e-05
5.59351e-05
5.59352e-05
5.59352e-05
5.59352e-05
5.59352e-05
5.59352e-05
5.59352e-05
5.59353e-05
5.59353e-05
5.59353e-05
5.59353e-05
5.59353e-05
5.59353e-05
5.59353e-05
5.59353e-05
5.59353e-05
5.59353e-05
5.59353e-05
5.59353e-05
5.59353e-05
5.59353e-05
5.59353e-05
5.59353e-05
5.59353e-05
5.59353e-05
5.59353e-05
5.59353e-05
5.59353e-05
5.59353e-05
5.59353e-05
5.59353e-05
5.59353e-05
5.59353e-05
5.59353e-05
5.59353e-05
5.59353e-05
5.59353e-05
5.59353e-05
5.59353e-05
5.59353e-05
5.59353e-05
5.59353e-05
5.59353e-05
5.59353e-05
5.59353e-05
5.59353e-05
5.59353e-05
5.59353e-05
5.59353e-05
5.59353e-05
5.59353e-05
5.59353e-05
5.59353e-05
5.59353e-05
5.59353e-05
5.59353e-05
5.59353e-05
5.59353e-05
5.59353e-05
5.59353e-05
5.59353e-05
5.59353e-05
5.59353e-05
5.59353e-05
5.59353e-05
5.59353e-05
5.59353e-05
5.59353e-05
5.59353e-05
5.59353e-05
5.59353e-05
5.59353e-05
5.59353e-05
5.59353e-05
5.59353e-05
5.59353e-05
5.59353e-05
5.59353e-05
5.59353e-05
5.59353e-05
5.59353e-05
5.59353e-05
5.59353e-05
5.59353e-05
5.59353e-05
5.59353e-05
5.59353e-05
5.59353e-05
5.59353e-05
5.59353e-05
5.59353e-05
5.59353e-05
5.59353e-05
5.59353e-05
5.59353e-05
5.59353e-05
5.59353e-05
5.59353e-05
5.59353e-05
5.59353e-05
5.59353e-05
5.59353e-05
5.59353e-05
5.59353e-05
5.59353e-05
5.59353e-05
5.59353e-05
5.59353e-05
5.59353e-05
5.59353e-05
5.59353e-05
5.59353e-05
5.59353e-05
5.59353e-05
5.59353e-05
5.59353e-05
5.59353e-05
5.59353e-05
5.59353e-05
5.59353e-05
5.59353e-05
5.59353e-05
5.59353e-05
5.59353e-05
5.59353e-05
5.59353e-05
5.59353e-05
5.59353e-05
5.59353e-05
5.59353e-05
5.59353e-05
5.59353e-05
5.59353e-05
5.59353e-05
5.59353e-05
5.59353e-05
5.59353e-05
5.59353e-05
5.59353e-05
5.59353e-05
5.59353e-05
5.59353e-05
5.59353e-05
5.59353e-05
5.59353e-05
5.59353e-05
5.59353e-05
5.59353e-05
5.59353e-05
5.59353e-05
5.59353e-05
5.59353e-05
5.59353e-05
5.59353e-05
5.59353e-05
5.59353e-05
5.59353e-05
5.59353e-05
5.59353e-05
5.59353e-05
5.59353e-05
5.59353e-05
5.59353e-05
5.59353e-05
5.59353e-05
5.59353e-05
5.59353e-05
5.59353e-05
5.59353e-05
5.59353e-05
5.59353e-05
5.59353e-05
5.59353e-05
5.59353e-05
5.59353e-05
5.59353e-05
5.59353e-05
5.59353e-05
5.59353e-05
5.59353e-05
5.59353e-05
5.59353e-05
5.59353e-05
5.59353e-05
5.59353e-05
5.59353e-05
5.59353e-05
5.59353e-05
5.59353e-05
5.59353e-05
5.59353e-05
5.59353e-05
5.59353e-05
5.59353e-05
5.59353e-05
5.59353e-05
5.59353e-05
5.59353e-05
5.59353e-05
5.59353e-05
5.59353e-05
5.59353e-05
5.59353e-05
5.59353e-05
5.59353e-05
5.59353e-05
5.59353e-05
5.59353e-05
5.59353e-05
5.59353e-05
5.59353e-05
5.59353e-05
5.59353e-05
5.59353e-05
5.59353e-05
5.59353e-05
5.59353e-05
5.59353e-05
5.59353e-05
2.75796e-05
4.36666e-05
5.1355e-05
5.98744e-05
6.64807e-05
6.97933e-05
7.19722e-05
7.37305e-05
7.50663e-05
7.62628e-05
7.72287e-05
7.81367e-05
7.89588e-05
7.9717e-05
8.04439e-05
8.11206e-05
8.17746e-05
8.24076e-05
8.30183e-05
8.3608e-05
8.41743e-05
8.47174e-05
8.52347e-05
8.57222e-05
8.6179e-05
8.65698e-05
8.68612e-05
8.70685e-05
8.7214e-05
8.73162e-05
8.73874e-05
8.74369e-05
8.7471e-05
8.74945e-05
8.75108e-05
8.75224e-05
8.75309e-05
8.75376e-05
8.75429e-05
8.75475e-05
8.75515e-05
8.75552e-05
8.75586e-05
8.75618e-05
8.75647e-05
8.75673e-05
8.75696e-05
8.75719e-05
8.75741e-05
8.75762e-05
8.75781e-05
8.75799e-05
8.75815e-05
8.7583e-05
8.75844e-05
8.75856e-05
8.75866e-05
8.75875e-05
8.75884e-05
8.75891e-05
8.75897e-05
8.75903e-05
8.75908e-05
8.75912e-05
8.75915e-05
8.75919e-05
8.75921e-05
8.75924e-05
8.75926e-05
8.75927e-05
8.75929e-05
8.7593e-05
8.75931e-05
8.75932e-05
8.75933e-05
8.75934e-05
8.75934e-05
8.75935e-05
8.75935e-05
8.75936e-05
8.75936e-05
8.75936e-05
8.75937e-05
8.75937e-05
8.75937e-05
8.75937e-05
8.75937e-05
8.75938e-05
8.75938e-05
8.75938e-05
8.75938e-05
8.75938e-05
8.75938e-05
8.75938e-05
8.75938e-05
8.75938e-05
8.75938e-05
8.75938e-05
8.75938e-05
8.75938e-05
8.75938e-05
8.75938e-05
8.75938e-05
8.75938e-05
8.75938e-05
8.75938e-05
8.75938e-05
8.75938e-05
8.75938e-05
8.75938e-05
8.75938e-05
8.75938e-05
8.75938e-05
8.75938e-05
8.75938e-05
8.75938e-05
8.75938e-05
8.75938e-05
8.75938e-05
8.75938e-05
8.75938e-05
8.75938e-05
8.75938e-05
8.75938e-05
8.75938e-05
8.75938e-05
8.75938e-05
8.75938e-05
8.75938e-05
8.75938e-05
8.75938e-05
8.75938e-05
8.75938e-05
8.75938e-05
8.75938e-05
8.75938e-05
8.75938e-05
8.75938e-05
8.75938e-05
8.75938e-05
8.75938e-05
8.75938e-05
8.75938e-05
8.75938e-05
8.75938e-05
8.75938e-05
8.75938e-05
8.75938e-05
8.75938e-05
8.75938e-05
8.75938e-05
8.75938e-05
8.75938e-05
8.75938e-05
8.75938e-05
8.75938e-05
8.75938e-05
8.75938e-05
8.75938e-05
8.75938e-05
8.75938e-05
8.75938e-05
8.75938e-05
8.75938e-05
8.75938e-05
8.75938e-05
8.75938e-05
8.75938e-05
8.75938e-05
8.75938e-05
8.75938e-05
8.75938e-05
8.75938e-05
8.75938e-05
8.75938e-05
8.75938e-05
8.75938e-05
8.75938e-05
8.75938e-05
8.75938e-05
8.75938e-05
8.75938e-05
8.75938e-05
8.75938e-05
8.75938e-05
8.75938e-05
8.75938e-05
8.75938e-05
8.75938e-05
8.75938e-05
8.75938e-05
8.75938e-05
8.75938e-05
8.75938e-05
8.75938e-05
8.75938e-05
8.75938e-05
8.75938e-05
8.75938e-05
8.75938e-05
8.75938e-05
8.75938e-05
8.75938e-05
8.75938e-05
8.75938e-05
8.75938e-05
8.75938e-05
8.75938e-05
8.75938e-05
8.75938e-05
8.75938e-05
8.75938e-05
8.75938e-05
8.75938e-05
8.75938e-05
8.75938e-05
8.75938e-05
8.75938e-05
8.75938e-05
8.75938e-05
8.75938e-05
8.75938e-05
8.75938e-05
8.75938e-05
8.75938e-05
8.75938e-05
8.75938e-05
8.75938e-05
8.75938e-05
8.75938e-05
8.75938e-05
8.75938e-05
8.75938e-05
8.75938e-05
8.75938e-05
8.75938e-05
8.75938e-05
8.75938e-05
8.75938e-05
8.75938e-05
8.75938e-05
8.75938e-05
8.75938e-05
8.75938e-05
8.75938e-05
8.75938e-05
8.75938e-05
8.75938e-05
8.75938e-05
8.75938e-05
8.75938e-05
8.75938e-05
8.75938e-05
8.75938e-05
8.75938e-05
8.75938e-05
8.75938e-05
8.75938e-05
8.75938e-05
8.75938e-05
8.75938e-05
8.75938e-05
8.75938e-05
8.75938e-05
8.75938e-05
8.75938e-05
8.75938e-05
8.75938e-05
8.75938e-05
8.75938e-05
8.75938e-05
8.75938e-05
8.75938e-05
8.75938e-05
8.75938e-05
8.75938e-05
8.75938e-05
8.75938e-05
8.75938e-05
8.75938e-05
8.75938e-05
8.75938e-05
8.75938e-05
8.75938e-05
8.75938e-05
8.75938e-05
8.75938e-05
8.75938e-05
8.75938e-05
8.75938e-05
8.75938e-05
8.75938e-05
8.75938e-05
8.75938e-05
8.75938e-05
8.75938e-05
8.75938e-05
8.75938e-05
8.75938e-05
8.75938e-05
2.63172e-05
3.79743e-05
4.80645e-05
6.06771e-05
7.15318e-05
7.93719e-05
8.56796e-05
8.96186e-05
9.27537e-05
9.54471e-05
9.76623e-05
9.963e-05
0.000101363
0.00010294
0.000104387
0.000105704
0.000106944
0.000108109
0.000109209
0.000110247
0.000111223
0.000112138
0.000112989
0.000113772
0.000114484
0.000115064
0.000115474
0.000115748
0.000115926
0.000116036
0.0001161
0.000116134
0.000116148
0.000116149
0.000116143
0.000116134
0.000116124
0.000116114
0.000116105
0.000116098
0.000116092
0.000116088
0.000116085
0.000116082
0.000116081
0.00011608
0.000116079
0.000116079
0.00011608
0.000116081
0.000116082
0.000116083
0.000116084
0.000116085
0.000116086
0.000116087
0.000116088
0.000116089
0.00011609
0.000116091
0.000116091
0.000116092
0.000116092
0.000116093
0.000116093
0.000116093
0.000116094
0.000116094
0.000116094
0.000116094
0.000116094
0.000116094
0.000116095
0.000116095
0.000116095
0.000116095
0.000116095
0.000116095
0.000116095
0.000116095
0.000116095
0.000116095
0.000116095
0.000116095
0.000116095
0.000116095
0.000116095
0.000116095
0.000116095
0.000116095
0.000116095
0.000116095
0.000116095
0.000116095
0.000116095
0.000116095
0.000116095
0.000116095
0.000116095
0.000116095
0.000116095
0.000116095
0.000116095
0.000116095
0.000116095
0.000116095
0.000116095
0.000116095
0.000116095
0.000116095
0.000116095
0.000116095
0.000116095
0.000116095
0.000116095
0.000116095
0.000116095
0.000116095
0.000116095
0.000116095
0.000116095
0.000116095
0.000116095
0.000116095
0.000116095
0.000116095
0.000116095
0.000116095
0.000116095
0.000116095
0.000116095
0.000116095
0.000116095
0.000116095
0.000116095
0.000116095
0.000116095
0.000116095
0.000116095
0.000116095
0.000116095
0.000116095
0.000116095
0.000116095
0.000116095
0.000116095
0.000116095
0.000116095
0.000116095
0.000116095
0.000116095
0.000116095
0.000116095
0.000116095
0.000116095
0.000116095
0.000116095
0.000116095
0.000116095
0.000116095
0.000116095
0.000116095
0.000116095
0.000116095
0.000116095
0.000116095
0.000116095
0.000116095
0.000116095
0.000116095
0.000116095
0.000116095
0.000116095
0.000116095
0.000116095
0.000116095
0.000116095
0.000116095
0.000116095
0.000116095
0.000116095
0.000116095
0.000116095
0.000116095
0.000116095
0.000116095
0.000116095
0.000116095
0.000116095
0.000116095
0.000116095
0.000116095
0.000116095
0.000116095
0.000116095
0.000116095
0.000116095
0.000116095
0.000116095
0.000116095
0.000116095
0.000116095
0.000116095
0.000116095
0.000116095
0.000116095
0.000116095
0.000116095
0.000116095
0.000116095
0.000116095
0.000116095
0.000116095
0.000116095
0.000116095
0.000116095
0.000116095
0.000116095
0.000116095
0.000116095
0.000116095
0.000116095
0.000116095
0.000116095
0.000116095
0.000116095
0.000116095
0.000116095
0.000116095
0.000116095
0.000116095
0.000116095
0.000116095
0.000116095
0.000116095
0.000116095
0.000116095
0.000116095
0.000116095
0.000116095
0.000116095
0.000116095
0.000116095
0.000116095
0.000116095
0.000116095
0.000116095
0.000116095
0.000116095
0.000116095
0.000116095
0.000116095
0.000116095
0.000116095
0.000116095
0.000116095
0.000116095
0.000116095
0.000116095
0.000116095
0.000116095
0.000116095
0.000116095
0.000116095
0.000116095
0.000116095
0.000116095
0.000116095
0.000116095
0.000116095
0.000116095
0.000116095
0.000116095
0.000116095
0.000116095
0.000116095
0.000116095
0.000116095
0.000116095
0.000116095
0.000116095
0.000116095
0.000116095
0.000116095
0.000116095
0.000116095
0.000116095
0.000116095
0.000116095
0.000116095
0.000116095
0.000116095
0.000116095
0.000116095
0.000116095
0.000116095
0.000116095
0.000116095
0.000116095
0.000116095
2.78106e-05
3.2669e-05
4.48265e-05
5.63159e-05
6.61614e-05
7.75125e-05
8.75727e-05
9.54518e-05
0.0001021
0.000107539
0.000111484
0.000114913
0.000117923
0.000120641
0.000123087
0.000125298
0.000127348
0.000129244
0.000131013
0.000132658
0.000134183
0.000135596
0.00013689
0.000138064
0.00013911
0.000139949
0.000140545
0.00014095
0.000141217
0.000141386
0.000141486
0.000141541
0.000141565
0.000141569
0.000141563
0.000141552
0.000141539
0.000141526
0.000141515
0.000141505
0.000141498
0.000141492
0.000141489
0.000141486
0.000141485
0.000141484
0.000141484
0.000141485
0.000141487
0.000141489
0.000141491
0.000141493
0.000141495
0.000141497
0.000141499
0.000141501
0.000141503
0.000141505
0.000141506
0.000141507
0.000141508
0.000141509
0.00014151
0.000141511
0.000141511
0.000141512
0.000141512
0.000141513
0.000141513
0.000141513
0.000141514
0.000141514
0.000141514
0.000141514
0.000141514
0.000141515
0.000141515
0.000141515
0.000141515
0.000141515
0.000141515
0.000141515
0.000141515
0.000141515
0.000141515
0.000141515
0.000141515
0.000141515
0.000141515
0.000141515
0.000141515
0.000141515
0.000141515
0.000141515
0.000141515
0.000141515
0.000141515
0.000141515
0.000141515
0.000141515
0.000141515
0.000141515
0.000141515
0.000141515
0.000141515
0.000141515
0.000141515
0.000141515
0.000141515
0.000141515
0.000141515
0.000141515
0.000141515
0.000141515
0.000141515
0.000141515
0.000141515
0.000141515
0.000141515
0.000141515
0.000141515
0.000141515
0.000141515
0.000141515
0.000141515
0.000141515
0.000141515
0.000141515
0.000141515
0.000141515
0.000141515
0.000141515
0.000141515
0.000141515
0.000141515
0.000141515
0.000141515
0.000141515
0.000141515
0.000141515
0.000141515
0.000141515
0.000141515
0.000141515
0.000141515
0.000141515
0.000141515
0.000141515
0.000141515
0.000141515
0.000141515
0.000141515
0.000141515
0.000141515
0.000141515
0.000141515
0.000141515
0.000141515
0.000141515
0.000141515
0.000141515
0.000141515
0.000141515
0.000141515
0.000141515
0.000141515
0.000141515
0.000141515
0.000141515
0.000141515
0.000141515
0.000141515
0.000141515
0.000141515
0.000141515
0.000141515
0.000141515
0.000141515
0.000141515
0.000141515
0.000141515
0.000141515
0.000141515
0.000141515
0.000141515
0.000141515
0.000141515
0.000141515
0.000141515
0.000141515
0.000141515
0.000141515
0.000141515
0.000141515
0.000141515
0.000141515
0.000141515
0.000141515
0.000141515
0.000141515
0.000141515
0.000141515
0.000141515
0.000141515
0.000141515
0.000141515
0.000141515
0.000141515
0.000141515
0.000141515
0.000141515
0.000141515
0.000141515
0.000141515
0.000141515
0.000141515
0.000141515
0.000141515
0.000141515
0.000141515
0.000141515
0.000141515
0.000141515
0.000141515
0.000141515
0.000141515
0.000141515
0.000141515
0.000141515
0.000141515
0.000141515
0.000141515
0.000141515
0.000141515
0.000141515
0.000141515
0.000141515
0.000141515
0.000141515
0.000141515
0.000141515
0.000141515
0.000141515
0.000141515
0.000141515
0.000141515
0.000141515
0.000141515
0.000141515
0.000141515
0.000141515
0.000141515
0.000141515
0.000141515
0.000141515
0.000141515
0.000141515
0.000141515
0.000141515
0.000141515
0.000141515
0.000141515
0.000141515
0.000141515
0.000141515
0.000141515
0.000141515
0.000141515
0.000141515
0.000141515
0.000141515
0.000141515
0.000141515
0.000141515
0.000141515
0.000141515
0.000141515
0.000141515
0.000141515
0.000141515
0.000141515
0.000141515
0.000141515
0.000141515
0.000141515
0.000141515
0.000141515
0.000141515
0.000141515
0.000141515
0.000141515
0.000141515
0.000141515
0.000141515
0.000141515
0.000141515
0.000141515
0.000141515
0.000141515
0.000141515
3.48154e-05
3.08752e-05
3.82905e-05
5.05016e-05
5.78233e-05
6.98242e-05
8.12016e-05
9.17411e-05
0.000101401
0.000109578
0.000116738
0.000122652
0.000128086
0.000132552
0.00013624
0.000139575
0.000142642
0.000145467
0.000148083
0.000150494
0.000152714
0.000154753
0.000156608
0.000158281
0.000159762
0.000160966
0.000161856
0.000162496
0.000162948
0.000163262
0.000163478
0.000163623
0.000163718
0.000163781
0.000163821
0.000163848
0.000163867
0.000163881
0.000163892
0.000163903
0.000163913
0.000163922
0.000163932
0.000163942
0.000163951
0.000163959
0.000163967
0.000163975
0.000163984
0.000163992
0.000163999
0.000164006
0.000164012
0.000164018
0.000164023
0.000164028
0.000164032
0.000164036
0.000164039
0.000164042
0.000164045
0.000164047
0.000164049
0.000164051
0.000164052
0.000164054
0.000164055
0.000164056
0.000164056
0.000164057
0.000164058
0.000164058
0.000164059
0.000164059
0.00016406
0.00016406
0.00016406
0.00016406
0.00016406
0.000164061
0.000164061
0.000164061
0.000164061
0.000164061
0.000164061
0.000164061
0.000164061
0.000164061
0.000164061
0.000164061
0.000164061
0.000164061
0.000164061
0.000164061
0.000164061
0.000164062
0.000164062
0.000164062
0.000164062
0.000164062
0.000164062
0.000164062
0.000164062
0.000164062
0.000164062
0.000164062
0.000164062
0.000164062
0.000164062
0.000164062
0.000164062
0.000164062
0.000164062
0.000164062
0.000164062
0.000164062
0.000164062
0.000164062
0.000164062
0.000164062
0.000164062
0.000164062
0.000164062
0.000164062
0.000164062
0.000164062
0.000164062
0.000164062
0.000164062
0.000164062
0.000164062
0.000164062
0.000164062
0.000164062
0.000164062
0.000164062
0.000164062
0.000164062
0.000164062
0.000164062
0.000164062
0.000164062
0.000164062
0.000164062
0.000164062
0.000164062
0.000164062
0.000164062
0.000164062
0.000164062
0.000164062
0.000164062
0.000164062
0.000164062
0.000164062
0.000164062
0.000164062
0.000164062
0.000164062
0.000164062
0.000164062
0.000164062
0.000164062
0.000164062
0.000164062
0.000164062
0.000164062
0.000164062
0.000164062
0.000164062
0.000164062
0.000164062
0.000164062
0.000164062
0.000164062
0.000164062
0.000164062
0.000164062
0.000164062
0.000164062
0.000164062
0.000164062
0.000164062
0.000164062
0.000164062
0.000164062
0.000164062
0.000164062
0.000164062
0.000164062
0.000164062
0.000164062
0.000164062
0.000164062
0.000164062
0.000164062
0.000164062
0.000164062
0.000164062
0.000164062
0.000164062
0.000164062
0.000164062
0.000164062
0.000164062
0.000164062
0.000164062
0.000164062
0.000164062
0.000164062
0.000164062
0.000164062
0.000164062
0.000164062
0.000164062
0.000164062
0.000164062
0.000164062
0.000164062
0.000164062
0.000164062
0.000164062
0.000164062
0.000164062
0.000164062
0.000164062
0.000164062
0.000164062
0.000164062
0.000164062
0.000164062
0.000164062
0.000164062
0.000164062
0.000164062
0.000164062
0.000164062
0.000164062
0.000164062
0.000164062
0.000164062
0.000164062
0.000164062
0.000164062
0.000164062
0.000164062
0.000164062
0.000164062
0.000164062
0.000164062
0.000164062
0.000164062
0.000164062
0.000164062
0.000164062
0.000164062
0.000164062
0.000164062
0.000164062
0.000164062
0.000164062
0.000164062
0.000164062
0.000164062
0.000164062
0.000164062
0.000164062
0.000164062
0.000164062
0.000164062
0.000164062
0.000164062
0.000164062
0.000164062
0.000164062
0.000164062
0.000164062
0.000164062
0.000164062
0.000164062
0.000164062
0.000164062
0.000164062
0.000164062
0.000164062
0.000164062
0.000164062
0.000164062
0.000164062
0.000164062
0.000164062
0.000164062
0.000164062
0.000164062
0.000164062
0.000164062
0.000164062
0.000164062
0.000164062
0.000164062
5.07532e-05
3.39713e-05
3.40189e-05
4.16136e-05
5.28011e-05
6.25264e-05
7.15082e-05
8.26174e-05
9.38579e-05
0.000104013
0.000113714
0.000121992
0.000129697
0.000136277
0.000142201
0.000147274
0.00015194
0.000156414
0.000160306
0.000163634
0.000166684
0.000169477
0.000172011
0.000174298
0.000176351
0.000178075
0.0001794
0.000180405
0.000181165
0.000181739
0.000182174
0.000182504
0.000182756
0.000182951
0.000183104
0.000183227
0.000183328
0.000183412
0.000183484
0.000183547
0.000183602
0.000183651
0.000183695
0.000183734
0.000183768
0.000183798
0.000183826
0.000183851
0.000183874
0.000183895
0.000183914
0.000183931
0.000183946
0.000183959
0.000183971
0.000183981
0.000183991
0.000183999
0.000184006
0.000184012
0.000184018
0.000184022
0.000184027
0.00018403
0.000184033
0.000184036
0.000184038
0.00018404
0.000184042
0.000184043
0.000184045
0.000184046
0.000184047
0.000184048
0.000184048
0.000184049
0.00018405
0.00018405
0.00018405
0.000184051
0.000184051
0.000184051
0.000184052
0.000184052
0.000184052
0.000184052
0.000184052
0.000184052
0.000184052
0.000184052
0.000184052
0.000184052
0.000184053
0.000184053
0.000184053
0.000184053
0.000184053
0.000184053
0.000184053
0.000184053
0.000184053
0.000184053
0.000184053
0.000184053
0.000184053
0.000184053
0.000184053
0.000184053
0.000184053
0.000184053
0.000184053
0.000184053
0.000184053
0.000184053
0.000184053
0.000184053
0.000184053
0.000184053
0.000184053
0.000184053
0.000184053
0.000184053
0.000184053
0.000184053
0.000184053
0.000184053
0.000184053
0.000184053
0.000184053
0.000184053
0.000184053
0.000184053
0.000184053
0.000184053
0.000184053
0.000184053
0.000184053
0.000184053
0.000184053
0.000184053
0.000184053
0.000184053
0.000184053
0.000184053
0.000184053
0.000184053
0.000184053
0.000184053
0.000184053
0.000184053
0.000184053
0.000184053
0.000184053
0.000184053
0.000184053
0.000184053
0.000184053
0.000184053
0.000184053
0.000184053
0.000184053
0.000184053
0.000184053
0.000184053
0.000184053
0.000184053
0.000184053
0.000184053
0.000184053
0.000184053
0.000184053
0.000184053
0.000184053
0.000184053
0.000184053
0.000184053
0.000184053
0.000184053
0.000184053
0.000184053
0.000184053
0.000184053
0.000184053
0.000184053
0.000184053
0.000184053
0.000184053
0.000184053
0.000184053
0.000184053
0.000184053
0.000184053
0.000184053
0.000184053
0.000184053
0.000184053
0.000184053
0.000184053
0.000184053
0.000184053
0.000184053
0.000184053
0.000184053
0.000184053
0.000184053
0.000184053
0.000184053
0.000184053
0.000184053
0.000184053
0.000184053
0.000184053
0.000184053
0.000184053
0.000184053
0.000184053
0.000184053
0.000184053
0.000184053
0.000184053
0.000184053
0.000184053
0.000184053
0.000184053
0.000184053
0.000184053
0.000184053
0.000184053
0.000184053
0.000184053
0.000184053
0.000184053
0.000184053
0.000184053
0.000184053
0.000184053
0.000184053
0.000184053
0.000184053
0.000184053
0.000184053
0.000184053
0.000184053
0.000184053
0.000184053
0.000184053
0.000184053
0.000184053
0.000184053
0.000184053
0.000184053
0.000184053
0.000184053
0.000184053
0.000184053
0.000184053
0.000184053
0.000184053
0.000184053
0.000184053
0.000184053
0.000184053
0.000184053
0.000184053
0.000184053
0.000184053
0.000184053
0.000184053
0.000184053
0.000184053
0.000184053
0.000184053
0.000184053
0.000184053
0.000184053
0.000184053
0.000184053
0.000184053
0.000184053
0.000184053
0.000184053
0.000184053
0.000184053
0.000184053
0.000184053
0.000184053
0.000184053
0.000184053
0.000184053
0.000184053
0.000184053
0.000184053
0.000184053
0.000184053
0.000184053
0.000184053
0.000184053
0.000184053
0.000184053
0.000184053
8.08325e-05
4.56082e-05
3.6566e-05
3.73386e-05
4.48451e-05
5.62618e-05
6.3175e-05
7.32779e-05
8.33406e-05
9.3964e-05
0.00010501
0.000114969
0.000124588
0.00013312
0.000141112
0.000148101
0.000154354
0.00016029
0.00016559
0.00017045
0.000174777
0.000178513
0.000181784
0.000184582
0.000187899
0.000191384
0.000193296
0.000194811
0.000196015
0.000196977
0.00019775
0.000198374
0.000198882
0.000199299
0.000199643
0.000199932
0.000200176
0.000200384
0.000200563
0.000200717
0.000200852
0.000200969
0.000201072
0.000201162
0.00020124
0.000201308
0.000201369
0.000201422
0.00020147
0.000201513
0.00020155
0.000201584
0.000201613
0.000201639
0.000201661
0.000201681
0.000201699
0.000201714
0.000201727
0.000201739
0.000201749
0.000201757
0.000201765
0.000201771
0.000201777
0.000201782
0.000201786
0.00020179
0.000201793
0.000201796
0.000201798
0.0002018
0.000201802
0.000201804
0.000201805
0.000201806
0.000201807
0.000201808
0.000201809
0.000201809
0.00020181
0.00020181
0.000201811
0.000201811
0.000201811
0.000201811
0.000201812
0.000201812
0.000201812
0.000201812
0.000201812
0.000201812
0.000201812
0.000201813
0.000201813
0.000201813
0.000201813
0.000201813
0.000201813
0.000201813
0.000201813
0.000201813
0.000201813
0.000201813
0.000201813
0.000201813
0.000201813
0.000201813
0.000201813
0.000201813
0.000201813
0.000201813
0.000201813
0.000201813
0.000201813
0.000201813
0.000201813
0.000201813
0.000201813
0.000201813
0.000201813
0.000201813
0.000201813
0.000201813
0.000201813
0.000201813
0.000201813
0.000201813
0.000201813
0.000201813
0.000201813
0.000201813
0.000201813
0.000201813
0.000201813
0.000201813
0.000201813
0.000201813
0.000201813
0.000201813
0.000201813
0.000201813
0.000201813
0.000201813
0.000201813
0.000201813
0.000201813
0.000201813
0.000201813
0.000201813
0.000201813
0.000201813
0.000201813
0.000201813
0.000201813
0.000201813
0.000201813
0.000201813
0.000201813
0.000201813
0.000201813
0.000201813
0.000201813
0.000201813
0.000201813
0.000201813
0.000201813
0.000201813
0.000201813
0.000201813
0.000201813
0.000201813
0.000201813
0.000201813
0.000201813
0.000201813
0.000201813
0.000201813
0.000201813
0.000201813
0.000201813
0.000201813
0.000201813
0.000201813
0.000201813
0.000201813
0.000201813
0.000201813
0.000201813
0.000201813
0.000201813
0.000201813
0.000201813
0.000201813
0.000201813
0.000201813
0.000201813
0.000201813
0.000201813
0.000201813
0.000201813
0.000201813
0.000201813
0.000201813
0.000201813
0.000201813
0.000201813
0.000201813
0.000201813
0.000201813
0.000201813
0.000201813
0.000201813
0.000201813
0.000201813
0.000201813
0.000201813
0.000201813
0.000201813
0.000201813
0.000201813
0.000201813
0.000201813
0.000201813
0.000201813
0.000201813
0.000201813
0.000201813
0.000201813
0.000201813
0.000201813
0.000201813
0.000201813
0.000201813
0.000201813
0.000201813
0.000201813
0.000201813
0.000201813
0.000201813
0.000201813
0.000201813
0.000201813
0.000201813
0.000201813
0.000201813
0.000201813
0.000201813
0.000201813
0.000201813
0.000201813
0.000201813
0.000201813
0.000201813
0.000201813
0.000201813
0.000201813
0.000201813
0.000201813
0.000201813
0.000201813
0.000201813
0.000201813
0.000201813
0.000201813
0.000201813
0.000201813
0.000201813
0.000201813
0.000201813
0.000201813
0.000201813
0.000201813
0.000201813
0.000201813
0.000201813
0.000201813
0.000201813
0.000201813
0.000201813
0.000201813
0.000201813
0.000201813
0.000201813
0.000201813
0.000201813
0.000201813
0.000201813
0.000201813
0.000201813
0.000201813
0.000201813
0.000201813
0.000201813
0.000201813
0.000201813
0.000201813
0.000201813
0.000201813
0.000201813
0.000134438
6.83485e-05
4.85743e-05
4.05658e-05
4.07524e-05
4.75993e-05
5.82109e-05
6.71816e-05
7.42318e-05
8.36236e-05
9.37881e-05
0.000104082
0.00011478
0.000124676
0.000134293
0.00014309
0.000151062
0.000158264
0.000164878
0.000171171
0.000176711
0.000181426
0.000185734
0.000190054
0.000195965
0.000201124
0.000203759
0.000205923
0.000207711
0.000209194
0.000210431
0.000211466
0.000212334
0.000213067
0.000213688