/*--------------------------------*- C++ -*----------------------------------*\
| =========                 |                                                 |
| \\      /  F ield         | foam-extend: Open Source CFD                    |
|  \\    /   O peration     | Version:     3.2                                |
|   \\  /    A nd           | Web:         http://www.foam-extend.org         |
|    \\/     M anipulation  | For copyright notice see file Copyright         |
\*---------------------------------------------------------------------------*/
FoamFile
{
    version     2.0;
    format      ascii;
    class       volScalarField;
    location    "83";
    object      omega;
}
// * * * * * * * * * * * * * * * * * * * * * * * * * * * * * * * * * * * * * //

dimensions      [0 0 -1 0 0 0 0];

internalField   nonuniform List<scalar> 
5400
(
917.176
736.024
636.201
637.503
627.659
627.846
623.121
622.941
621.228
621.892
622.027
623.146
624.243
626.005
627.639
629.719
631.819
634.172
636.492
639.05
641.718
644.466
647.273
650.117
652.983
655.862
658.519
660.832
662.777
664.407
665.76
666.888
667.822
668.6
669.246
669.785
670.234
670.612
670.928
671.194
671.419
671.609
671.771
671.911
672.03
672.129
672.212
672.284
672.346
672.4
672.447
672.488
672.524
672.555
672.582
672.605
672.626
672.643
672.659
672.672
672.684
672.694
672.703
672.71
672.717
672.723
672.728
672.732
672.736
672.739
672.742
672.744
672.746
672.748
672.749
672.751
672.752
672.753
672.754
672.754
672.755
672.756
672.756
672.756
672.757
672.757
672.757
672.758
672.758
672.758
672.758
672.758
672.758
672.758
672.758
672.759
672.759
672.759
672.759
672.759
672.759
672.759
672.759
672.759
672.759
672.759
672.759
672.759
672.759
672.759
672.759
672.759
672.759
672.759
672.759
672.759
672.759
672.759
672.759
672.759
672.759
672.759
672.759
672.759
672.759
672.759
672.759
672.759
672.759
672.759
672.759
672.759
672.759
672.759
672.759
672.759
672.759
672.759
672.759
672.759
672.759
672.759
672.759
672.759
672.759
672.759
672.759
672.759
672.759
672.759
672.759
672.759
672.759
672.759
672.759
672.759
672.759
672.759
672.759
672.759
672.759
672.759
672.759
672.759
672.759
672.759
672.759
672.759
672.759
672.759
672.759
672.759
672.759
672.759
672.759
672.759
672.759
672.759
672.759
672.759
672.759
672.759
672.759
672.759
672.759
672.759
672.759
672.759
672.759
672.759
672.759
672.759
672.759
672.759
672.759
672.759
672.759
672.759
672.759
672.759
672.759
672.759
672.759
672.759
672.759
672.759
672.759
672.759
672.759
672.759
672.759
672.759
672.759
672.759
672.759
672.759
672.759
672.759
672.759
672.759
672.759
672.759
672.759
672.759
672.759
672.759
672.759
672.759
672.759
672.759
672.759
672.759
672.759
672.759
672.759
672.759
672.759
672.759
672.759
672.759
672.759
672.759
672.759
672.759
672.759
672.759
672.759
672.759
672.759
672.759
672.759
672.759
672.759
672.759
672.759
672.759
672.759
672.759
672.759
672.759
672.759
672.759
672.759
672.759
672.759
672.759
672.759
672.759
672.759
672.759
672.759
672.759
672.759
672.759
672.759
672.759
672.759
672.759
672.759
672.759
672.759
672.759
672.759
672.759
672.759
672.759
672.759
672.759
672.759
672.759
672.759
672.759
672.759
672.759
672.759
672.759
672.759
672.759
672.759
672.758
359.696
331.662
290.981
277.297
265.641
261.31
256.786
254.937
252.932
252.236
251.581
251.433
251.443
251.679
252.035
252.56
253.153
253.884
254.636
255.471
256.377
257.338
258.341
259.374
260.436
261.527
262.557
263.482
264.285
264.976
265.563
266.062
266.482
266.836
267.134
267.385
267.595
267.772
267.921
268.047
268.153
268.243
268.319
268.385
268.441
268.488
268.527
268.56
268.589
268.614
268.635
268.654
268.67
268.684
268.696
268.707
268.716
268.724
268.731
268.737
268.742
268.746
268.75
268.753
268.756
268.759
268.761
268.763
268.765
268.766
268.767
268.768
268.769
268.77
268.771
268.771
268.772
268.772
268.773
268.773
268.773
268.774
268.774
268.774
268.774
268.774
268.774
268.774
268.774
268.775
268.775
268.775
268.775
268.775
268.775
268.775
268.775
268.775
268.775
268.775
268.775
268.775
268.775
268.775
268.775
268.775
268.775
268.775
268.775
268.775
268.775
268.775
268.775
268.775
268.775
268.775
268.775
268.775
268.775
268.775
268.775
268.775
268.775
268.775
268.775
268.775
268.775
268.775
268.775
268.775
268.775
268.775
268.775
268.775
268.775
268.775
268.775
268.775
268.775
268.775
268.775
268.775
268.775
268.775
268.775
268.775
268.775
268.775
268.775
268.775
268.775
268.775
268.775
268.775
268.775
268.775
268.775
268.775
268.775
268.775
268.775
268.775
268.775
268.775
268.775
268.775
268.775
268.775
268.775
268.775
268.775
268.775
268.775
268.775
268.775
268.775
268.775
268.775
268.775
268.775
268.775
268.775
268.775
268.775
268.775
268.775
268.775
268.775
268.775
268.775
268.775
268.775
268.775
268.775
268.775
268.775
268.775
268.775
268.775
268.775
268.775
268.775
268.775
268.775
268.775
268.775
268.775
268.775
268.775
268.775
268.775
268.775
268.775
268.775
268.775
268.775
268.775
268.775
268.775
268.775
268.775
268.775
268.775
268.775
268.775
268.775
268.775
268.775
268.775
268.775
268.775
268.775
268.775
268.775
268.775
268.775
268.775
268.775
268.775
268.775
268.775
268.775
268.775
268.775
268.775
268.775
268.775
268.775
268.775
268.775
268.775
268.775
268.775
268.775
268.775
268.775
268.775
268.775
268.775
268.775
268.775
268.775
268.775
268.775
268.775
268.775
268.775
268.775
268.775
268.775
268.775
268.775
268.775
268.775
268.775
268.775
268.775
268.775
268.775
268.775
268.775
268.775
268.775
268.775
268.775
268.775
268.775
268.775
268.775
268.775
268.775
268.775
268.775
268.775
268.775
268.775
268.775
268.775
268.775
268.775
180.603
191.889
186.801
177.026
166.943
161.736
157.279
154.765
152.662
151.437
150.436
149.88
149.506
149.305
149.254
149.313
149.462
149.712
150.009
150.355
150.753
151.196
151.674
152.179
152.711
153.255
153.764
154.225
154.631
154.986
155.292
155.555
155.779
155.97
156.133
156.27
156.386
156.484
156.567
156.637
156.696
156.746
156.788
156.824
156.855
156.881
156.903
156.922
156.937
156.951
156.963
156.973
156.981
156.989
156.995
157.001
157.006
157.01
157.014
157.017
157.02
157.022
157.024
157.026
157.027
157.029
157.03
157.031
157.032
157.032
157.033
157.034
157.034
157.035
157.035
157.035
157.035
157.036
157.036
157.036
157.036
157.036
157.036
157.037
157.037
157.037
157.037
157.037
157.037
157.037
157.037
157.037
157.037
157.037
157.037
157.037
157.037
157.037
157.037
157.037
157.037
157.037
157.037
157.037
157.037
157.037
157.037
157.037
157.037
157.037
157.037
157.037
157.037
157.037
157.037
157.037
157.037
157.037
157.037
157.037
157.037
157.037
157.037
157.037
157.037
157.037
157.037
157.037
157.037
157.037
157.037
157.037
157.037
157.037
157.037
157.037
157.037
157.037
157.037
157.037
157.037
157.037
157.037
157.037
157.037
157.037
157.037
157.037
157.037
157.037
157.037
157.037
157.037
157.037
157.037
157.037
157.037
157.037
157.037
157.037
157.037
157.037
157.037
157.037
157.037
157.037
157.037
157.037
157.037
157.037
157.037
157.037
157.037
157.037
157.037
157.037
157.037
157.037
157.037
157.037
157.037
157.037
157.037
157.037
157.037
157.037
157.037
157.037
157.037
157.037
157.037
157.037
157.037
157.037
157.037
157.037
157.037
157.037
157.037
157.037
157.037
157.037
157.037
157.037
157.037
157.037
157.037
157.037
157.037
157.037
157.037
157.037
157.037
157.037
157.037
157.037
157.037
157.037
157.037
157.037
157.037
157.037
157.037
157.037
157.037
157.037
157.037
157.037
157.037
157.037
157.037
157.037
157.037
157.037
157.037
157.037
157.037
157.037
157.037
157.037
157.037
157.037
157.037
157.037
157.037
157.037
157.037
157.037
157.037
157.037
157.037
157.037
157.037
157.037
157.037
157.037
157.037
157.037
157.037
157.037
157.037
157.037
157.037
157.037
157.037
157.037
157.037
157.037
157.037
157.037
157.037
157.037
157.037
157.037
157.037
157.037
157.037
157.037
157.037
157.037
157.037
157.037
157.037
157.037
157.037
157.037
157.037
157.037
157.037
157.037
157.037
157.037
157.037
157.037
157.037
157.037
157.037
157.037
157.037
157.037
98.2249
125.752
131.552
129.094
124.42
120.195
116.132
113.309
111.012
109.394
108.127
107.283
106.634
106.186
105.884
105.685
105.591
105.587
105.643
105.744
105.891
106.079
106.3
106.546
106.815
107.081
107.311
107.513
107.689
107.844
107.978
108.095
108.196
108.283
108.357
108.42
108.474
108.519
108.558
108.591
108.618
108.641
108.661
108.677
108.692
108.704
108.714
108.722
108.729
108.735
108.741
108.745
108.749
108.752
108.755
108.758
108.76
108.762
108.763
108.764
108.766
108.767
108.768
108.768
108.769
108.77
108.77
108.77
108.771
108.771
108.771
108.772
108.772
108.772
108.772
108.772
108.772
108.773
108.773
108.773
108.773
108.773
108.773
108.773
108.773
108.773
108.773
108.773
108.773
108.773
108.773
108.773
108.773
108.773
108.773
108.773
108.773
108.773
108.773
108.773
108.773
108.773
108.773
108.773
108.773
108.773
108.773
108.773
108.773
108.773
108.773
108.773
108.773
108.773
108.773
108.773
108.773
108.773
108.773
108.773
108.773
108.773
108.773
108.773
108.773
108.773
108.773
108.773
108.773
108.773
108.773
108.773
108.773
108.773
108.773
108.773
108.773
108.773
108.773
108.773
108.773
108.773
108.773
108.773
108.773
108.773
108.773
108.773
108.773
108.773
108.773
108.773
108.773
108.773
108.773
108.773
108.773
108.773
108.773
108.773
108.773
108.773
108.773
108.773
108.773
108.773
108.773
108.773
108.773
108.773
108.773
108.773
108.773
108.773
108.773
108.773
108.773
108.773
108.773
108.773
108.773
108.773
108.773
108.773
108.773
108.773
108.773
108.773
108.773
108.773
108.773
108.773
108.773
108.773
108.773
108.773
108.773
108.773
108.773
108.773
108.773
108.773
108.773
108.773
108.773
108.773
108.773
108.773
108.773
108.773
108.773
108.773
108.773
108.773
108.773
108.773
108.773
108.773
108.773
108.773
108.773
108.773
108.773
108.773
108.773
108.773
108.773
108.773
108.773
108.773
108.773
108.773
108.773
108.773
108.773
108.773
108.773
108.773
108.773
108.773
108.773
108.773
108.773
108.773
108.773
108.773
108.773
108.773
108.773
108.773
108.773
108.773
108.773
108.773
108.773
108.773
108.773
108.773
108.773
108.773
108.773
108.773
108.773
108.773
108.773
108.773
108.773
108.773
108.773
108.773
108.773
108.773
108.773
108.773
108.773
108.773
108.773
108.773
108.773
108.773
108.773
108.773
108.773
108.773
108.773
108.773
108.773
108.773
108.773
108.773
108.773
108.773
108.773
108.773
108.773
108.773
108.773
108.773
108.773
108.773
54.4588
83.0721
96.4535
98.2016
98.3137
96.663
93.9357
91.458
89.2143
87.4389
85.9792
84.9018
84.0173
83.3703
82.8801
82.4996
82.2338
82.052
81.9401
81.8779
81.8608
81.8843
81.9384
82.0155
82.1056
82.1734
82.2048
82.2179
82.2234
82.2264
82.2282
82.2296
82.2306
82.2316
82.2324
82.2331
82.2337
82.2341
82.2344
82.2346
82.2347
82.2347
82.2344
82.2342
82.234
82.2339
82.2336
82.2333
82.2329
82.2326
82.2323
82.232
82.2317
82.2315
82.2312
82.231
82.2308
82.2306
82.2304
82.2303
82.2302
82.2301
82.23
82.2299
82.2298
82.2297
82.2297
82.2296
82.2296
82.2295
82.2295
82.2295
82.2294
82.2294
82.2294
82.2294
82.2294
82.2294
82.2293
82.2293
82.2293
82.2293
82.2293
82.2293
82.2293
82.2293
82.2293
82.2293
82.2293
82.2293
82.2293
82.2293
82.2293
82.2293
82.2293
82.2293
82.2293
82.2293
82.2293
82.2293
82.2293
82.2293
82.2293
82.2293
82.2293
82.2293
82.2293
82.2293
82.2293
82.2293
82.2293
82.2293
82.2293
82.2293
82.2293
82.2293
82.2293
82.2293
82.2293
82.2293
82.2293
82.2293
82.2293
82.2293
82.2293
82.2293
82.2293
82.2293
82.2293
82.2293
82.2293
82.2293
82.2293
82.2293
82.2293
82.2293
82.2293
82.2293
82.2293
82.2293
82.2293
82.2293
82.2293
82.2293
82.2293
82.2293
82.2293
82.2293
82.2293
82.2293
82.2293
82.2293
82.2293
82.2293
82.2293
82.2293
82.2293
82.2293
82.2293
82.2293
82.2293
82.2293
82.2293
82.2293
82.2293
82.2293
82.2293
82.2293
82.2293
82.2293
82.2293
82.2293
82.2293
82.2293
82.2293
82.2293
82.2293
82.2293
82.2293
82.2293
82.2293
82.2293
82.2293
82.2293
82.2293
82.2293
82.2293
82.2293
82.2293
82.2293
82.2293
82.2293
82.2293
82.2293
82.2293
82.2293
82.2293
82.2293
82.2293
82.2293
82.2293
82.2293
82.2293
82.2293
82.2293
82.2293
82.2293
82.2293
82.2293
82.2293
82.2293
82.2293
82.2293
82.2293
82.2293
82.2293
82.2293
82.2293
82.2293
82.2293
82.2293
82.2293
82.2293
82.2293
82.2293
82.2293
82.2293
82.2293
82.2293
82.2293
82.2293
82.2293
82.2293
82.2293
82.2293
82.2293
82.2293
82.2293
82.2293
82.2293
82.2293
82.2293
82.2293
82.2293
82.2293
82.2293
82.2293
82.2293
82.2293
82.2293
82.2293
82.2293
82.2293
82.2293
82.2293
82.2293
82.2293
82.2293
82.2293
82.2293
82.2293
82.2293
82.2293
82.2293
82.2293
82.2293
82.2293
82.2293
82.2293
82.2293
82.2293
82.2293
82.2293
82.2293
82.2293
82.2293
82.2293
82.2293
82.2293
82.2293
82.2293
82.2293
82.2293
82.2293
82.2293
82.2293
82.2293
82.2293
82.2293
82.2293
82.2293
82.2293
82.2293
82.2293
82.2293
82.2293
82.2293
82.2293
82.2293
82.2293
30.1705
53.1119
69.2183
76.2472
79.4778
79.2374
78.6793
77.3784
75.6934
74.1154
72.6533
71.4713
70.4502
69.6521
69.0059
68.4858
68.0775
67.7482
67.4993
67.3088
67.1651
67.0623
66.9876
66.9307
66.8671
66.7608
66.6244
66.4828
66.3479
66.2245
66.1138
66.0161
65.9304
65.856
65.7916
65.7363
65.6889
65.6483
65.6137
65.5842
65.559
65.5375
65.5191
65.5033
65.4898
65.4784
65.4686
65.4601
65.4528
65.4466
65.4412
65.4365
65.4325
65.4289
65.4259
65.4233
65.421
65.419
65.4173
65.4158
65.4145
65.4133
65.4124
65.4115
65.4108
65.4102
65.4096
65.4091
65.4087
65.4084
65.4081
65.4078
65.4076
65.4074
65.4072
65.4071
65.4069
65.4068
65.4067
65.4066
65.4066
65.4065
65.4065
65.4064
65.4064
65.4063
65.4063
65.4063
65.4063
65.4063
65.4062
65.4062
65.4062
65.4062
65.4062
65.4062
65.4062
65.4062
65.4062
65.4062
65.4062
65.4062
65.4062
65.4062
65.4062
65.4062
65.4061
65.4061
65.4061
65.4061
65.4061
65.4061
65.4061
65.4061
65.4061
65.4061
65.4061
65.4061
65.4061
65.4061
65.4061
65.4061
65.4061
65.4061
65.4061
65.4061
65.4061
65.4061
65.4061
65.4061
65.4061
65.4061
65.4061
65.4061
65.4061
65.4061
65.4061
65.4061
65.4061
65.4061
65.4061
65.4061
65.4061
65.4061
65.4061
65.4061
65.4061
65.4061
65.4061
65.4061
65.4061
65.4061
65.4061
65.4061
65.4061
65.4061
65.4061
65.4061
65.4061
65.4061
65.4061
65.4061
65.4061
65.4061
65.4061
65.4061
65.4061
65.4061
65.4061
65.4061
65.4061
65.4061
65.4061
65.4061
65.4061
65.4061
65.4061
65.4061
65.4061
65.4061
65.4061
65.4061
65.4061
65.4061
65.4061
65.4061
65.4061
65.4061
65.4061
65.4061
65.4061
65.4061
65.4061
65.4061
65.4061
65.4061
65.4061
65.4061
65.4061
65.4061
65.4061
65.4061
65.4061
65.4061
65.4061
65.4061
65.4061
65.4061
65.4061
65.4061
65.4061
65.4061
65.4061
65.4061
65.4061
65.4061
65.4061
65.4061
65.4061
65.4061
65.4061
65.4061
65.4061
65.4061
65.4061
65.4061
65.4061
65.4061
65.4061
65.4061
65.4061
65.4061
65.4061
65.4061
65.4061
65.4061
65.4061
65.4061
65.4061
65.4061
65.4061
65.4061
65.4061
65.4061
65.4061
65.4061
65.4061
65.4061
65.4061
65.4061
65.4061
65.4061
65.4061
65.4061
65.4061
65.4061
65.4061
65.4061
65.4061
65.4061
65.4061
65.4061
65.4061
65.4061
65.4061
65.4061
65.4061
65.4061
65.4061
65.4061
65.4061
65.4061
65.4061
65.4061
65.4061
65.4061
65.4061
65.4061
65.4061
65.4061
65.4061
65.4061
65.4061
65.4061
65.4061
65.4061
65.4061
65.4061
65.4061
65.4061
65.4061
65.4061
65.4061
65.4061
65.4061
65.4061
65.4061
65.4061
65.4061
65.4061
16.7912
32.1408
46.4029
57.0352
63.7944
65.8874
66.5418
66.2555
65.6643
64.705
63.553
62.4828
61.4762
60.6263
59.8856
59.2708
58.759
58.3204
57.9637
57.663
57.4092
57.197
57.008
56.8265
56.604
56.3214
56.0349
55.7603
55.5056
55.2742
55.0668
54.8832
54.7218
54.5811
54.4591
54.354
54.2637
54.1864
54.1203
54.064
54.0159
53.975
53.94
53.9102
53.8846
53.8629
53.8443
53.8285
53.8149
53.8033
53.7933
53.7846
53.7772
53.7708
53.7652
53.7604
53.7563
53.7527
53.7496
53.7469
53.7446
53.7425
53.7408
53.7393
53.738
53.7369
53.7359
53.735
53.7343
53.7337
53.7331
53.7327
53.7323
53.7319
53.7316
53.7314
53.7311
53.7309
53.7308
53.7306
53.7305
53.7304
53.7303
53.7302
53.7301
53.7301
53.73
53.73
53.73
53.7299
53.7299
53.7299
53.7298
53.7298
53.7298
53.7298
53.7298
53.7298
53.7298
53.7298
53.7298
53.7298
53.7297
53.7297
53.7297
53.7297
53.7297
53.7297
53.7297
53.7297
53.7297
53.7297
53.7297
53.7297
53.7297
53.7297
53.7297
53.7297
53.7297
53.7297
53.7297
53.7297
53.7297
53.7297
53.7297
53.7297
53.7297
53.7297
53.7297
53.7297
53.7297
53.7297
53.7297
53.7297
53.7297
53.7297
53.7297
53.7297
53.7297
53.7297
53.7297
53.7297
53.7297
53.7297
53.7297
53.7297
53.7297
53.7297
53.7297
53.7297
53.7297
53.7297
53.7297
53.7297
53.7297
53.7297
53.7297
53.7297
53.7297
53.7297
53.7297
53.7297
53.7297
53.7297
53.7297
53.7297
53.7297
53.7297
53.7297
53.7297
53.7297
53.7297
53.7297
53.7297
53.7297
53.7297
53.7297
53.7297
53.7297
53.7297
53.7297
53.7297
53.7297
53.7297
53.7297
53.7297
53.7297
53.7297
53.7297
53.7297
53.7297
53.7297
53.7297
53.7297
53.7297
53.7297
53.7297
53.7297
53.7297
53.7297
53.7297
53.7297
53.7297
53.7297
53.7297
53.7297
53.7297
53.7297
53.7297
53.7297
53.7297
53.7297
53.7297
53.7297
53.7297
53.7297
53.7297
53.7297
53.7297
53.7297
53.7297
53.7297
53.7297
53.7297
53.7297
53.7297
53.7297
53.7297
53.7297
53.7297
53.7297
53.7297
53.7297
53.7297
53.7297
53.7297
53.7297
53.7297
53.7297
53.7297
53.7297
53.7297
53.7297
53.7297
53.7297
53.7297
53.7297
53.7297
53.7297
53.7297
53.7297
53.7297
53.7297
53.7297
53.7297
53.7297
53.7297
53.7297
53.7297
53.7297
53.7297
53.7297
53.7297
53.7297
53.7297
53.7297
53.7297
53.7297
53.7297
53.7297
53.7297
53.7297
53.7297
53.7297
53.7297
53.7297
53.7297
53.7297
53.7297
53.7297
53.7297
53.7297
53.7297
53.7297
53.7297
53.7297
53.7297
53.7297
53.7297
53.7297
53.7297
53.7297
53.7297
53.7297
53.7297
53.7297
53.7297
53.7297
53.7297
53.7297
9.52254
18.9306
28.871
39.431
48.5776
53.7745
56.4155
57.1309
57.1221
56.8597
56.3735
55.6825
54.8855
54.1284
53.4018
52.7588
52.196
51.7001
51.27
50.883
50.5354
50.2225
49.9174
49.5954
49.2009
48.7602
48.3443
47.9568
47.6009
47.2783
46.9893
46.7328
46.5073
46.3103
46.1393
45.9917
45.8647
45.7559
45.6629
45.5835
45.5158
45.4581
45.4088
45.3667
45.3308
45.3002
45.2741
45.2518
45.2328
45.2165
45.2025
45.1905
45.1802
45.1713
45.1636
45.1569
45.1512
45.1463
45.142
45.1383
45.1351
45.1323
45.13
45.1279
45.1261
45.1246
45.1232
45.1221
45.1211
45.1202
45.1195
45.1189
45.1183
45.1178
45.1174
45.1171
45.1168
45.1165
45.1163
45.1161
45.1159
45.1158
45.1156
45.1155
45.1154
45.1154
45.1153
45.1152
45.1152
45.1151
45.1151
45.1151
45.115
45.115
45.115
45.115
45.115
45.1149
45.1149
45.1149
45.1149
45.1149
45.1149
45.1149
45.1149
45.1149
45.1149
45.1149
45.1149
45.1149
45.1149
45.1149
45.1149
45.1149
45.1149
45.1149
45.1149
45.1149
45.1149
45.1149
45.1149
45.1149
45.1149
45.1149
45.1149
45.1149
45.1149
45.1149
45.1149
45.1149
45.1149
45.1149
45.1149
45.1149
45.1149
45.1149
45.1149
45.1149
45.1149
45.1149
45.1149
45.1149
45.1149
45.1149
45.1149
45.1149
45.1149
45.1149
45.1149
45.1149
45.1149
45.1149
45.1149
45.1149
45.1149
45.1149
45.1149
45.1149
45.1149
45.1149
45.1149
45.1149
45.1149
45.1149
45.1149
45.1149
45.1149
45.1149
45.1149
45.1149
45.1149
45.1149
45.1149
45.1149
45.1149
45.1149
45.1149
45.1149
45.1149
45.1149
45.1149
45.1149
45.1149
45.1149
45.1149
45.1149
45.1149
45.1149
45.1149
45.1149
45.1149
45.1149
45.1149
45.1149
45.1149
45.1149
45.1149
45.1149
45.1149
45.1149
45.1149
45.1149
45.1149
45.1149
45.1149
45.1149
45.1149
45.1149
45.1149
45.1149
45.1149
45.1149
45.1149
45.1149
45.1149
45.1149
45.1149
45.1149
45.1149
45.1149
45.1149
45.1149
45.1149
45.1149
45.1149
45.1149
45.1149
45.1149
45.1149
45.1149
45.1149
45.1149
45.1149
45.1149
45.1149
45.1149
45.1149
45.1149
45.1149
45.1149
45.1149
45.1149
45.1149
45.1149
45.1149
45.1149
45.1149
45.1149
45.1149
45.1149
45.1149
45.1149
45.1149
45.1149
45.1149
45.1149
45.1149
45.1149
45.1149
45.1149
45.1149
45.1149
45.1149
45.1149
45.1149
45.1149
45.1149
45.1149
45.1149
45.1149
45.1149
45.1149
45.1149
45.1149
45.1149
45.1149
45.1149
45.1149
45.1149
45.1149
45.1149
45.1149
45.1149
45.1149
45.1149
45.1149
45.1149
45.1149
45.1149
45.1149
45.1149
45.1149
45.1149
45.1149
45.1149
45.1149
45.1149
45.1149
45.1149
45.1149
5.48223
11.3331
17.3306
25.1098
33.9877
41.432
46.3834
48.8522
49.8835
50.1345
50.0039
49.7799
49.4188
48.9286
48.3573
47.7901
47.2436
46.7424
46.2774
45.8364
45.4129
44.9999
44.5656
44.0819
43.5274
42.976
42.4592
41.981
41.5432
41.147
40.7921
40.4774
40.2005
39.9587
39.7487
39.5672
39.4111
39.2772
39.1627
39.0649
38.9814
38.9103
38.8496
38.7978
38.7535
38.7158
38.6836
38.6562
38.6328
38.6128
38.5957
38.5809
38.5683
38.5574
38.548
38.54
38.533
38.527
38.5218
38.5173
38.5135
38.5101
38.5073
38.5048
38.5026
38.5008
38.4992
38.4978
38.4966
38.4956
38.4947
38.4939
38.4933
38.4927
38.4922
38.4918
38.4914
38.4911
38.4908
38.4906
38.4904
38.4902
38.4901
38.4899
38.4898
38.4897
38.4896
38.4896
38.4895
38.4894
38.4894
38.4894
38.4893
38.4893
38.4893
38.4892
38.4892
38.4892
38.4892
38.4892
38.4892
38.4892
38.4892
38.4892
38.4891
38.4891
38.4891
38.4891
38.4891
38.4891
38.4891
38.4891
38.4891
38.4891
38.4891
38.4891
38.4891
38.4891
38.4891
38.4891
38.4891
38.4891
38.4891
38.4891
38.4891
38.4891
38.4891
38.4891
38.4891
38.4891
38.4891
38.4891
38.4891
38.4891
38.4891
38.4891
38.4891
38.4891
38.4891
38.4891
38.4891
38.4891
38.4891
38.4891
38.4891
38.4891
38.4891
38.4891
38.4891
38.4891
38.4891
38.4891
38.4891
38.4891
38.4891
38.4891
38.4891
38.4891
38.4891
38.4891
38.4891
38.4891
38.4891
38.4891
38.4891
38.4891
38.4891
38.4891
38.4891
38.4891
38.4891
38.4891
38.4891
38.4891
38.4891
38.4891
38.4891
38.4891
38.4891
38.4891
38.4891
38.4891
38.4891
38.4891
38.4891
38.4891
38.4891
38.4891
38.4891
38.4891
38.4891
38.4891
38.4891
38.4891
38.4891
38.4891
38.4891
38.4891
38.4891
38.4891
38.4891
38.4891
38.4891
38.4891
38.4891
38.4891
38.4891
38.4891
38.4891
38.4891
38.4891
38.4891
38.4891
38.4891
38.4891
38.4891
38.4891
38.4891
38.4891
38.4891
38.4891
38.4891
38.4891
38.4891
38.4891
38.4891
38.4891
38.4891
38.4891
38.4891
38.4891
38.4891
38.4891
38.4891
38.4891
38.4891
38.4891
38.4891
38.4891
38.4891
38.4891
38.4891
38.4891
38.4891
38.4891
38.4891
38.4891
38.4891
38.4891
38.4891
38.4891
38.4891
38.4891
38.4891
38.4891
38.4891
38.4891
38.4891
38.4891
38.4891
38.4891
38.4891
38.4891
38.4891
38.4891
38.4891
38.4891
38.4891
38.4891
38.4891
38.4891
38.4891
38.4891
38.4891
38.4891
38.4891
38.4891
38.4891
38.4891
38.4891
38.4891
38.4891
38.4891
38.4891
38.4891
38.4891
38.4891
38.4891
38.4891
38.4891
38.4891
38.4891
38.4891
38.4891
38.4891
38.4891
38.4891
38.4891
38.4891
38.4891
3.44181
6.69567
10.6147
15.4237
21.9361
29.3435
35.8276
40.2219
42.8293
44.0287
44.4995
44.5805
44.4457
44.2559
43.9869
43.6293
43.1912
42.7459
42.2884
41.8274
41.3437
40.8275
40.2552
39.6198
38.9643
38.3457
37.7586
37.2137
36.7151
36.2642
35.8611
35.504
35.1902
34.9163
34.6785
34.4731
34.2963
34.1446
34.0148
33.9039
33.8092
33.7285
33.6596
33.6008
33.5506
33.5077
33.4713
33.4402
33.4137
33.391
33.3716
33.355
33.3407
33.3284
33.3179
33.3088
33.301
33.2943
33.2884
33.2834
33.2791
33.2754
33.2722
33.2694
33.2671
33.265
33.2632
33.2617
33.2604
33.2592
33.2582
33.2574
33.2566
33.256
33.2555
33.255
33.2546
33.2542
33.2539
33.2537
33.2535
33.2533
33.2531
33.2529
33.2528
33.2527
33.2526
33.2525
33.2525
33.2524
33.2524
33.2523
33.2523
33.2522
33.2522
33.2522
33.2522
33.2522
33.2521
33.2521
33.2521
33.2521
33.2521
33.2521
33.2521
33.2521
33.2521
33.2521
33.2521
33.2521
33.2521
33.2521
33.2521
33.2521
33.2521
33.2521
33.2521
33.2521
33.2521
33.2521
33.2521
33.2521
33.2521
33.2521
33.2521
33.2521
33.2521
33.2521
33.2521
33.2521
33.2521
33.2521
33.2521
33.2521
33.2521
33.2521
33.2521
33.2521
33.2521
33.2521
33.2521
33.2521
33.2521
33.2521
33.2521
33.2521
33.2521
33.2521
33.2521
33.2521
33.2521
33.2521
33.2521
33.2521
33.2521
33.2521
33.2521
33.2521
33.2521
33.2521
33.2521
33.2521
33.2521
33.2521
33.2521
33.2521
33.2521
33.2521
33.2521
33.2521
33.2521
33.2521
33.2521
33.2521
33.2521
33.2521
33.2521
33.2521
33.2521
33.2521
33.2521
33.2521
33.2521
33.2521
33.2521
33.2521
33.2521
33.2521
33.2521
33.2521
33.2521
33.2521
33.2521
33.2521
33.2521
33.2521
33.2521
33.2521
33.2521
33.2521
33.2521
33.2521
33.2521
33.2521
33.2521
33.2521
33.2521
33.2521
33.2521
33.2521
33.2521
33.2521
33.2521
33.2521
33.2521
33.2521
33.2521
33.2521
33.2521
33.2521
33.2521
33.2521
33.2521
33.2521
33.2521
33.2521
33.2521
33.2521
33.2521
33.2521
33.2521
33.2521
33.2521
33.2521
33.2521
33.2521
33.2521
33.2521
33.2521
33.2521
33.2521
33.2521
33.2521
33.2521
33.2521
33.2521
33.2521
33.2521
33.2521
33.2521
33.2521
33.2521
33.2521
33.2521
33.2521
33.2521
33.2521
33.2521
33.2521
33.2521
33.2521
33.2521
33.2521
33.2521
33.2521
33.2521
33.2521
33.2521
33.2521
33.2521
33.2521
33.2521
33.2521
33.2521
33.2521
33.2521
33.2521
33.2521
33.2521
33.2521
33.2521
33.2521
33.2521
33.2521
33.2521
33.2521
33.2521
33.2521
33.2521
33.2521
33.2521
33.2521
33.2521
33.2521
33.2521
33.2521
33.2521
33.252
33.252
33.2521
2.32804
4.16385
6.44465
9.72598
13.7932
19.282
25.4829
31.0547
35.1906
37.7208
39.1827
39.8374
40.0742
40.0837
39.9602
39.7788
39.5358
39.2226
38.8254
38.372
37.8489
37.2422
36.5602
35.8429
35.1572
34.5003
33.8714
33.285
32.748
32.2634
31.8311
31.449
31.1137
30.8214
30.5679
30.3489
30.1603
29.9985
29.86
29.7416
29.6405
29.5542
29.4806
29.4177
29.3639
29.3181
29.2791
29.2459
29.2176
29.1933
29.1726
29.1549
29.1397
29.1266
29.1154
29.1058
29.0975
29.0904
29.0843
29.079
29.0744
29.0705
29.0672
29.0642
29.0617
29.0596
29.0577
29.0561
29.0547
29.0535
29.0525
29.0516
29.0508
29.0502
29.0496
29.0491
29.0487
29.0483
29.048
29.0477
29.0475
29.0473
29.0471
29.047
29.0468
29.0467
29.0466
29.0465
29.0465
29.0464
29.0464
29.0463
29.0463
29.0462
29.0462
29.0462
29.0462
29.0461
29.0461
29.0461
29.0461
29.0461
29.0461
29.0461
29.0461
29.0461
29.0461
29.046
29.046
29.046
29.046
29.046
29.046
29.046
29.046
29.046
29.046
29.046
29.046
29.046
29.046
29.046
29.046
29.046
29.046
29.046
29.046
29.046
29.046
29.046
29.046
29.046
29.046
29.046
29.046
29.046
29.046
29.046
29.046
29.046
29.046
29.046
29.046
29.046
29.046
29.046
29.046
29.046
29.046
29.046
29.046
29.046
29.046
29.046
29.046
29.046
29.046
29.046
29.046
29.046
29.046
29.046
29.046
29.046
29.046
29.046
29.046
29.046
29.046
29.046
29.046
29.046
29.046
29.046
29.046
29.046
29.046
29.046
29.046
29.046
29.046
29.046
29.046
29.046
29.046
29.046
29.046
29.046
29.046
29.046
29.046
29.046
29.046
29.046
29.046
29.046
29.046
29.046
29.046
29.046
29.046
29.046
29.046
29.046
29.046
29.046
29.046
29.046
29.046
29.046
29.046
29.046
29.046
29.046
29.046
29.046
29.046
29.046
29.046
29.046
29.046
29.046
29.046
29.046
29.046
29.046
29.046
29.046
29.046
29.046
29.046
29.046
29.046
29.046
29.046
29.046
29.046
29.046
29.046
29.046
29.046
29.046
29.046
29.046
29.046
29.046
29.046
29.046
29.046
29.046
29.046
29.046
29.046
29.046
29.046
29.046
29.046
29.046
29.046
29.046
29.046
29.046
29.046
29.046
29.046
29.046
29.046
29.046
29.046
29.046
29.046
29.046
29.046
29.046
29.046
29.046
29.046
29.046
29.046
29.046
29.046
29.046
29.046
29.046
29.046
29.046
29.046
29.046
29.046
29.046
29.046
29.046
29.046
29.046
29.046
29.046
29.046
29.046
29.046
29.046
1.6265
2.87734
4.13666
6.12343
8.97674
12.4713
17.0261
22.2212
27.0867
30.8841
33.4547
34.9983
35.87
36.2646
36.3813
36.3291
36.1704
35.9145
35.5648
35.1296
34.5998
33.967
33.2694
32.5673
31.8855
31.2164
30.5727
29.9703
29.4189
28.9225
28.481
28.0918
27.7509
27.454
27.1965
26.9741
26.7825
26.6181
26.4771
26.3566
26.2535
26.1656
26.0905
26.0262
25.9713
25.9245
25.8846
25.8507
25.8217
25.797
25.7759
25.7578
25.7423
25.729
25.7177
25.7079
25.6995
25.6923
25.6861
25.6808
25.6762
25.6723
25.6689
25.666
25.6634
25.6613
25.6594
25.6578
25.6564
25.6552
25.6542
25.6533
25.6525
25.6519
25.6513
25.6508
25.6504
25.65
25.6497
25.6494
25.6492
25.649
25.6488
25.6487
25.6485
25.6484
25.6483
25.6482
25.6482
25.6481
25.6481
25.648
25.648
25.6479
25.6479
25.6479
25.6479
25.6478
25.6478
25.6478
25.6478
25.6478
25.6478
25.6478
25.6478
25.6478
25.6478
25.6478
25.6478
25.6478
25.6477
25.6477
25.6477
25.6477
25.6477
25.6477
25.6477
25.6477
25.6477
25.6477
25.6477
25.6477
25.6477
25.6477
25.6477
25.6477
25.6477
25.6477
25.6477
25.6477
25.6477
25.6477
25.6477
25.6477
25.6477
25.6477
25.6477
25.6477
25.6477
25.6477
25.6477
25.6477
25.6477
25.6477
25.6477
25.6477
25.6477
25.6477
25.6477
25.6477
25.6477
25.6477
25.6477
25.6477
25.6477
25.6477
25.6477
25.6477
25.6477
25.6477
25.6477
25.6477
25.6477
25.6477
25.6477
25.6477
25.6477
25.6477
25.6477
25.6477
25.6477
25.6477
25.6477
25.6477
25.6477
25.6477
25.6477
25.6477
25.6477
25.6477
25.6477
25.6477
25.6477
25.6477
25.6477
25.6477
25.6477
25.6477
25.6477
25.6477
25.6477
25.6477
25.6477
25.6477
25.6477
25.6477
25.6477
25.6477
25.6477
25.6477
25.6477
25.6477
25.6477
25.6477
25.6477
25.6477
25.6477
25.6477
25.6477
25.6477
25.6477
25.6477
25.6477
25.6477
25.6477
25.6477
25.6477
25.6477
25.6477
25.6477
25.6477
25.6477
25.6477
25.6477
25.6477
25.6477
25.6477
25.6477
25.6477
25.6477
25.6477
25.6477
25.6477
25.6477
25.6477
25.6477
25.6477
25.6477
25.6477
25.6477
25.6477
25.6477
25.6477
25.6477
25.6477
25.6477
25.6477
25.6477
25.6477
25.6477
25.6477
25.6477
25.6477
25.6477
25.6477
25.6477
25.6477
25.6477
25.6477
25.6477
25.6477
25.6477
25.6477
25.6477
25.6477
25.6477
25.6477
25.6477
25.6477
25.6477
25.6477
25.6477
25.6477
25.6477
25.6477
25.6477
25.6477
25.6477
25.6477
25.6477
25.6477
25.6477
25.6477
25.6477
25.6477
25.6477
25.6477
25.6477
25.6477
25.6477
25.6477
25.6477
25.6477
25.6477
25.6477
25.6477
25.6477
25.6477
25.6477
25.6477
1.17973
2.1244
2.93497
4.08477
5.87488
8.39742
11.3428
15.1466
19.4825
23.7247
27.2197
29.7608
31.4076
32.3995
32.9404
33.1462
33.1401
32.9531
32.6259
32.1804
31.6358
31.0201
30.3607
29.6941
29.027
28.3686
27.7341
27.14
26.5976
26.1112
25.68
25.3007
24.9689
24.6799
24.4292
24.2124
24.0255
23.8648
23.7269
23.6088
23.5078
23.4214
23.3474
23.2842
23.23
23.1839
23.1447
23.1112
23.0827
23.0583
23.0375
23.0197
23.0045
22.9915
22.9803
22.9708
22.9626
22.9555
22.9495
22.9443
22.9399
22.9361
22.9328
22.9299
22.9275
22.9254
22.9236
22.9221
22.9207
22.9196
22.9186
22.9177
22.917
22.9163
22.9158
22.9153
22.9149
22.9146
22.9142
22.914
22.9138
22.9136