/*--------------------------------*- C++ -*----------------------------------*\
| =========                 |                                                 |
| \\      /  F ield         | foam-extend: Open Source CFD                    |
|  \\    /   O peration     | Version:     3.2                                |
|   \\  /    A nd           | Web:         http://www.foam-extend.org         |
|    \\/     M anipulation  | For copyright notice see file Copyright         |
\*---------------------------------------------------------------------------*/
FoamFile
{
    version     2.0;
    format      ascii;
    class       volScalarField;
    location    "83";
    object      p;
}
// * * * * * * * * * * * * * * * * * * * * * * * * * * * * * * * * * * * * * //

dimensions      [1 -1 -2 0 0 0 0];

internalField   nonuniform List<scalar> 
5400
(
2348.48
2296.06
2307.39
2290.05
2289.7
2280.34
2277.16
2270.3
2266.48
2260.81
2256.77
2251.78
2247.66
2243.09
2238.92
2234.6
2230.44
2226.2
2222.08
2217.9
2213.73
2209.5
2205.24
2200.91
2196.53
2192.04
2187.45
2182.74
2177.93
2173.03
2168.06
2163.02
2157.93
2152.8
2147.63
2142.43
2137.2
2131.95
2126.68
2121.4
2116.11
2110.81
2105.49
2100.17
2094.84
2089.51
2084.18
2078.84
2073.49
2068.15
2062.8
2057.45
2052.1
2046.74
2041.39
2036.03
2030.68
2025.32
2019.96
2014.6
2009.24
2003.88
1998.52
1993.16
1987.8
1982.43
1977.07
1971.71
1966.35
1960.98
1955.62
1950.26
1944.89
1939.53
1934.17
1928.81
1923.44
1918.08
1912.72
1907.35
1901.99
1896.62
1891.26
1885.9
1880.53
1875.17
1869.81
1864.44
1859.08
1853.72
1848.35
1842.99
1837.63
1832.26
1826.9
1821.53
1816.17
1810.81
1805.44
1800.08
1794.72
1789.35
1783.99
1778.63
1773.26
1767.9
1762.53
1757.17
1751.81
1746.44
1741.08
1735.72
1730.35
1724.99
1719.62
1714.26
1708.9
1703.53
1698.17
1692.81
1687.44
1682.08
1676.72
1671.35
1665.99
1660.62
1655.26
1649.9
1644.53
1639.17
1633.81
1628.44
1623.08
1617.72
1612.35
1606.99
1601.62
1596.26
1590.9
1585.53
1580.17
1574.81
1569.44
1564.08
1558.71
1553.35
1547.99
1542.62
1537.26
1531.9
1526.53
1521.17
1515.81
1510.44
1505.08
1499.71
1494.35
1488.99
1483.62
1478.26
1472.9
1467.53
1462.17
1456.81
1451.44
1446.08
1440.71
1435.35
1429.99
1424.62
1419.26
1413.9
1408.53
1403.17
1397.8
1392.44
1387.08
1381.71
1376.35
1370.99
1365.62
1360.26
1354.9
1349.53
1344.17
1338.8
1333.44
1328.08
1322.71
1317.35
1311.99
1306.62
1301.26
1295.9
1290.53
1285.17
1279.8
1274.44
1269.08
1263.71
1258.35
1252.99
1247.62
1242.26
1236.89
1231.53
1226.17
1220.8
1215.44
1210.08
1204.71
1199.35
1193.99
1188.62
1183.26
1177.89
1172.53
1167.17
1161.8
1156.44
1151.08
1145.71
1140.35
1134.99
1129.62
1124.26
1118.89
1113.53
1108.17
1102.8
1097.44
1092.08
1086.71
1081.35
1075.98
1070.62
1065.26
1059.89
1054.53
1049.17
1043.8
1038.44
1033.08
1027.71
1022.35
1016.98
1011.62
1006.26
1000.89
995.53
990.166
984.803
979.439
974.075
968.712
963.348
957.984
952.621
947.257
941.893
936.53
931.166
925.802
920.439
915.075
909.711
904.348
898.984
893.62
888.257
882.893
877.529
872.166
866.802
861.438
856.075
850.711
845.347
839.984
834.62
829.256
823.893
818.529
813.165
807.802
802.438
797.074
791.711
786.347
780.983
775.62
770.256
764.892
759.529
754.165
748.801
743.438
738.074
732.71
727.346
2332.1
2279.89
2291.15
2273.78
2273.42
2264.06
2260.88
2254.02
2250.2
2244.53
2240.48
2235.49
2231.37
2226.8
2222.64
2218.31
2214.16
2209.92
2205.79
2201.62
2197.44
2193.21
2188.96
2184.63
2180.24
2175.76
2171.17
2166.45
2161.64
2156.74
2151.77
2146.73
2141.65
2136.51
2131.34
2126.14
2120.91
2115.66
2110.4
2105.12
2099.82
2094.52
2089.21
2083.89
2078.56
2073.23
2067.89
2062.55
2057.21
2051.86
2046.51
2041.16
2035.81
2030.46
2025.1
2019.75
2014.39
2009.03
2003.67
1998.31
1992.95
1987.59
1982.23
1976.87
1971.51
1966.15
1960.79
1955.42
1950.06
1944.7
1939.34
1933.97
1928.61
1923.25
1917.88
1912.52
1907.16
1901.79
1896.43
1891.07
1885.7
1880.34
1874.98
1869.61
1864.25
1858.89
1853.52
1848.16
1842.8
1837.43
1832.07
1826.7
1821.34
1815.98
1810.61
1805.25
1799.89
1794.52
1789.16
1783.8
1778.43
1773.07
1767.7
1762.34
1756.98
1751.61
1746.25
1740.89
1735.52
1730.16
1724.79
1719.43
1714.07
1708.7
1703.34
1697.98
1692.61
1687.25
1681.89
1676.52
1671.16
1665.79
1660.43
1655.07
1649.7
1644.34
1638.98
1633.61
1628.25
1622.89
1617.52
1612.16
1606.79
1601.43
1596.07
1590.7
1585.34
1579.98
1574.61
1569.25
1563.88
1558.52
1553.16
1547.79
1542.43
1537.07
1531.7
1526.34
1520.98
1515.61
1510.25
1504.88
1499.52
1494.16
1488.79
1483.43
1478.07
1472.7
1467.34
1461.98
1456.61
1451.25
1445.88
1440.52
1435.16
1429.79
1424.43
1419.07
1413.7
1408.34
1402.97
1397.61
1392.25
1386.88
1381.52
1376.16
1370.79
1365.43
1360.07
1354.7
1349.34
1343.97
1338.61
1333.25
1327.88
1322.52
1317.16
1311.79
1306.43
1301.07
1295.7
1290.34
1284.97
1279.61
1274.25
1268.88
1263.52
1258.16
1252.79
1247.43
1242.06
1236.7
1231.34
1225.97
1220.61
1215.25
1209.88
1204.52
1199.16
1193.79
1188.43
1183.06
1177.7
1172.34
1166.97
1161.61
1156.25
1150.88
1145.52
1140.16
1134.79
1129.43
1124.06
1118.7
1113.34
1107.97
1102.61
1097.25
1091.88
1086.52
1081.15
1075.79
1070.43
1065.06
1059.7
1054.34
1048.97
1043.61
1038.25
1032.88
1027.52
1022.15
1016.79
1011.43
1006.06
1000.7
995.336
989.973
984.609
979.245
973.882
968.518
963.154
957.791
952.427
947.063
941.7
936.336
930.972
925.609
920.245
914.881
909.518
904.154
898.79
893.427
888.063
882.699
877.336
871.972
866.608
861.245
855.881
850.517
845.154
839.79
834.426
829.063
823.699
818.335
812.972
807.608
802.244
796.881
791.517
786.153
780.79
775.426
770.062
764.699
759.335
753.971
748.608
743.244
737.88
732.517
727.153
721.789
716.426
711.062
2315.51
2263.76
2274.93
2257.53
2257.16
2247.79
2244.61
2237.74
2233.92
2228.25
2224.2
2219.21
2215.09
2210.52
2206.35
2202.03
2197.87
2193.63
2189.51
2185.33
2181.16
2176.93
2172.67
2168.34
2163.95
2159.47
2154.88
2150.17
2145.36
2140.46
2135.49
2130.45
2125.36
2120.23
2115.06
2109.85
2104.63
2099.38
2094.11
2088.83
2083.54
2078.24
2072.92
2067.6
2062.28
2056.94
2051.61
2046.27
2040.92
2035.58
2030.23
2024.88
2019.53
2014.17
2008.82
2003.46
1998.11
1992.75
1987.39
1982.03
1976.67
1971.31
1965.95
1960.59
1955.23
1949.86
1944.5
1939.14
1933.78
1928.41
1923.05
1917.69
1912.33
1906.96
1901.6
1896.24
1890.87
1885.51
1880.15
1874.78
1869.42
1864.06
1858.69
1853.33
1847.96
1842.6
1837.24
1831.87
1826.51
1821.15
1815.78
1810.42
1805.06
1799.69
1794.33
1788.97
1783.6
1778.24
1772.87
1767.51
1762.15
1756.78
1751.42
1746.06
1740.69
1735.33
1729.96
1724.6
1719.24
1713.87
1708.51
1703.15
1697.78
1692.42
1687.06
1681.69
1676.33
1670.96
1665.6
1660.24
1654.87
1649.51
1644.15
1638.78
1633.42
1628.06
1622.69
1617.33
1611.96
1606.6
1601.24
1595.87
1590.51
1585.15
1579.78
1574.42
1569.05
1563.69
1558.33
1552.96
1547.6
1542.24
1536.87
1531.51
1526.15
1520.78
1515.42
1510.05
1504.69
1499.33
1493.96
1488.6
1483.24
1477.87
1472.51
1467.15
1461.78
1456.42
1451.05
1445.69
1440.33
1434.96
1429.6
1424.24
1418.87
1413.51
1408.14
1402.78
1397.42
1392.05
1386.69
1381.33
1375.96
1370.6
1365.24
1359.87
1354.51
1349.14
1343.78
1338.42
1333.05
1327.69
1322.33
1316.96
1311.6
1306.24
1300.87
1295.51
1290.14
1284.78
1279.42
1274.05
1268.69
1263.33
1257.96
1252.6
1247.23
1241.87
1236.51
1231.14
1225.78
1220.42
1215.05
1209.69
1204.33
1198.96
1193.6
1188.23
1182.87
1177.51
1172.14
1166.78
1161.42
1156.05
1150.69
1145.33
1139.96
1134.6
1129.23
1123.87
1118.51
1113.14
1107.78
1102.42
1097.05
1091.69
1086.32
1080.96
1075.6
1070.23
1064.87
1059.51
1054.14
1048.78
1043.42
1038.05
1032.69
1027.32
1021.96
1016.6
1011.23
1005.87
1000.51
995.143
989.779
984.415
979.052
973.688
968.324
962.961
957.597
952.233
946.87
941.506
936.142
930.779
925.415
920.051
914.688
909.324
903.96
898.597
893.233
887.869
882.506
877.142
871.778
866.415
861.051
855.687
850.324
844.96
839.596
834.233
828.869
823.505
818.142
812.778
807.414
802.051
796.687
791.323
785.96
780.596
775.232
769.869
764.505
759.141
753.778
748.414
743.05
737.687
732.323
726.959
721.596
716.232
710.868
705.505
700.141
694.778
2298.94
2247.67
2258.73
2241.29
2240.9
2231.52
2228.33
2221.46
2217.64
2211.97
2207.92
2202.93
2198.81
2194.23
2190.07
2185.74
2181.59
2177.34
2173.22
2169.05
2164.87
2160.64
2156.39
2152.05
2147.67
2143.18
2138.59
2133.88
2129.07
2124.17
2119.2
2114.16
2109.07
2103.94
2098.77
2093.57
2088.34
2083.09
2077.83
2072.55
2067.26
2061.95
2056.64
2051.32
2045.99
2040.66
2035.32
2029.98
2024.64
2019.29
2013.95
2008.6
2003.24
1997.89
1992.53
1987.18
1981.82
1976.46
1971.1
1965.75
1960.39
1955.02
1949.66
1944.3
1938.94
1933.58
1928.22
1922.85
1917.49
1912.13
1906.77
1901.4
1896.04
1890.68
1885.31
1879.95
1874.59
1869.22
1863.86
1858.5
1853.13
1847.77
1842.41
1837.04
1831.68
1826.32
1820.95
1815.59
1810.23
1804.86
1799.5
1794.14
1788.77
1783.41
1778.04
1772.68
1767.32
1761.95
1756.59
1751.23
1745.86
1740.5
1735.13
1729.77
1724.41
1719.04
1713.68
1708.32
1702.95
1697.59
1692.23
1686.86
1681.5
1676.13
1670.77
1665.41
1660.04
1654.68
1649.32
1643.95
1638.59
1633.23
1627.86
1622.5
1617.13
1611.77
1606.41
1601.04
1595.68
1590.32
1584.95
1579.59
1574.23
1568.86
1563.5
1558.13
1552.77
1547.41
1542.04
1536.68
1531.32
1525.95
1520.59
1515.22
1509.86
1504.5
1499.13
1493.77
1488.41
1483.04
1477.68
1472.32
1466.95
1461.59
1456.22
1450.86
1445.5
1440.13
1434.77
1429.41
1424.04
1418.68
1413.32
1407.95
1402.59
1397.22
1391.86
1386.5
1381.13
1375.77
1370.41
1365.04
1359.68
1354.31
1348.95
1343.59
1338.22
1332.86
1327.5
1322.13
1316.77
1311.41
1306.04
1300.68
1295.31
1289.95
1284.59
1279.22
1273.86
1268.5
1263.13
1257.77
1252.41
1247.04
1241.68
1236.31
1230.95
1225.59
1220.22
1214.86
1209.5
1204.13
1198.77
1193.4
1188.04
1182.68
1177.31
1171.95
1166.59
1161.22
1155.86
1150.5
1145.13
1139.77
1134.4
1129.04
1123.68
1118.31
1112.95
1107.59
1102.22
1096.86
1091.5
1086.13
1080.77
1075.4
1070.04
1064.68
1059.31
1053.95
1048.59
1043.22
1037.86
1032.49
1027.13
1021.77
1016.4
1011.04
1005.68
1000.31
994.949
989.585
984.222
978.858
973.494
968.131
962.767
957.403
952.04
946.676
941.312
935.949
930.585
925.221
919.858
914.494
909.13
903.767
898.403
893.039
887.676
882.312
876.948
871.585
866.221
860.857
855.494
850.13
844.766
839.403
834.039
828.675
823.312
817.948
812.584
807.221
801.857
796.493
791.13
785.766
780.402
775.039
769.675
764.311
758.948
753.584
748.22
742.857
737.493
732.129
726.766
721.402
716.038
710.675
705.311
699.947
694.584
689.22
683.856
678.493
2282.25
2231.65
2242.56
2225.04
2224.64
2215.26
2212.07
2205.19
2201.36
2195.69
2191.64
2186.65
2182.53
2177.95
2173.79
2169.46
2165.3
2161.06
2156.94
2152.76
2148.59
2144.36
2140.1
2135.77
2131.38
2126.9
2122.31
2117.59
2112.79
2107.88
2102.91
2097.88
2092.79
2087.66
2082.49
2077.28
2072.06
2066.81
2061.54
2056.26
2050.97
2045.67
2040.35
2035.03
2029.71
2024.37
2019.04
2013.7
2008.35
2003.01
1997.66
1992.31
1986.96
1981.6
1976.25
1970.89
1965.54
1960.18
1954.82
1949.46
1944.1
1938.74
1933.38
1928.02
1922.66
1917.29
1911.93
1906.57
1901.21
1895.85
1890.48
1885.12
1879.76
1874.39
1869.03
1863.67
1858.3
1852.94
1847.58
1842.21
1836.85
1831.49
1826.12
1820.76
1815.4
1810.03
1804.67
1799.31
1793.94
1788.58
1783.21
1777.85
1772.49
1767.12
1761.76
1756.4
1751.03
1745.67
1740.31
1734.94
1729.58
1724.21
1718.85
1713.49
1708.12
1702.76
1697.4
1692.03
1686.67
1681.3
1675.94
1670.58
1665.21
1659.85
1654.49
1649.12
1643.76
1638.4
1633.03
1627.67
1622.3
1616.94
1611.58
1606.21
1600.85
1595.49
1590.12
1584.76
1579.4
1574.03
1568.67
1563.3
1557.94
1552.58
1547.21
1541.85
1536.49
1531.12
1525.76
1520.39
1515.03
1509.67
1504.3
1498.94
1493.58
1488.21
1482.85
1477.49
1472.12
1466.76
1461.39
1456.03
1450.67
1445.3
1439.94
1434.58
1429.21
1423.85
1418.49
1413.12
1407.76
1402.39
1397.03
1391.67
1386.3
1380.94
1375.58
1370.21
1364.85
1359.48
1354.12
1348.76
1343.39
1338.03
1332.67
1327.3
1321.94
1316.58
1311.21
1305.85
1300.48
1295.12
1289.76
1284.39
1279.03
1273.67
1268.3
1262.94
1257.58
1252.21
1246.85
1241.48
1236.12
1230.76
1225.39
1220.03
1214.67
1209.3
1203.94
1198.57
1193.21
1187.85
1182.48
1177.12
1171.76
1166.39
1161.03
1155.67
1150.3
1144.94
1139.57
1134.21
1128.85
1123.48
1118.12
1112.76
1107.39
1102.03
1096.67
1091.3
1085.94
1080.57
1075.21
1069.85
1064.48
1059.12
1053.76
1048.39
1043.03
1037.66
1032.3
1026.94
1021.57
1016.21
1010.85
1005.48
1000.12
994.755
989.392
984.028
978.664
973.301
967.937
962.573
957.21
951.846
946.482
941.119
935.755
930.391
925.028
919.664
914.3
908.937
903.573
898.209
892.846
887.482
882.118
876.755
871.391
866.027
860.664
855.3
849.936
844.573
839.209
833.845
828.482
823.118
817.754
812.391
807.027
801.663
796.3
790.936
785.572
780.209
774.845
769.481
764.118
758.754
753.39
748.027
742.663
737.299
731.936
726.572
721.208
715.845
710.481
705.117
699.754
694.39
689.026
683.663
678.299
672.935
667.572
662.208
2265.67
2215.5
2226.41
2208.78
2208.37
2199
2195.8
2188.92
2185.09
2179.42
2175.37
2170.37
2166.25
2161.67
2157.51
2153.18
2149.02
2144.78
2140.65
2136.48
2132.3
2128.07
2123.81
2119.48
2115.09
2110.61
2106.02
2101.31
2096.5
2091.6
2086.63
2081.59
2076.5
2071.37
2066.2
2061
2055.77
2050.52
2045.26
2039.98
2034.69
2029.38
2024.07
2018.75
2013.42
2008.09
2002.75
1997.41
1992.07
1986.72
1981.38
1976.03
1970.67
1965.32
1959.97
1954.61
1949.25
1943.89
1938.54
1933.18
1927.82
1922.46
1917.09
1911.73
1906.37
1901.01
1895.65
1890.29
1884.92
1879.56
1874.2
1868.83
1863.47
1858.11
1852.75
1847.38
1842.02
1836.66
1831.29
1825.93
1820.57
1815.2
1809.84
1804.47
1799.11
1793.75
1788.38
1783.02
1777.66
1772.29
1766.93
1761.57
1756.2
1750.84
1745.48
1740.11
1734.75
1729.38
1724.02
1718.66
1713.29
1707.93
1702.57
1697.2
1691.84
1686.47
1681.11
1675.75
1670.38
1665.02
1659.66
1654.29
1648.93
1643.57
1638.2
1632.84
1627.47
1622.11
1616.75
1611.38
1606.02
1600.66
1595.29
1589.93
1584.57
1579.2
1573.84
1568.47
1563.11
1557.75
1552.38
1547.02
1541.66
1536.29
1530.93
1525.56
1520.2
1514.84
1509.47
1504.11
1498.75
1493.38
1488.02
1482.66
1477.29
1471.93
1466.56
1461.2
1455.84
1450.47
1445.11
1439.75
1434.38
1429.02
1423.66
1418.29
1412.93
1407.56
1402.2
1396.84
1391.47
1386.11
1380.75
1375.38
1370.02
1364.65
1359.29
1353.93
1348.56
1343.2
1337.84
1332.47
1327.11
1321.75
1316.38
1311.02
1305.65
1300.29
1294.93
1289.56
1284.2
1278.84
1273.47
1268.11
1262.75
1257.38
1252.02
1246.65
1241.29
1235.93
1230.56
1225.2
1219.84
1214.47
1209.11
1203.74
1198.38
1193.02
1187.65
1182.29
1176.93
1171.56
1166.2
1160.84
1155.47
1150.11
1144.74
1139.38
1134.02
1128.65
1123.29
1117.93
1112.56
1107.2
1101.84
1096.47
1091.11
1085.74
1080.38
1075.02
1069.65
1064.29
1058.93
1053.56
1048.2
1042.83
1037.47
1032.11
1026.74
1021.38
1016.02
1010.65
1005.29
999.926
994.562
989.198
983.835
978.471
973.107
967.744
962.38
957.016
951.653
946.289
940.925
935.562
930.198
924.834
919.471
914.107
908.743
903.38
898.016
892.652
887.289
881.925
876.561
871.198
865.834
860.47
855.107
849.743
844.379
839.016
833.652
828.288
822.925
817.561
812.197
806.834
801.47
796.106
790.743
785.379
780.015
774.652
769.288
763.924
758.561
753.197
747.833
742.47
737.106
731.742
726.379
721.015
715.651
710.288
704.924
699.56
694.197
688.833
683.469
678.106
672.742
667.378
662.015
656.651
651.287
645.924
2249.2
2199.28
2210.26
2192.51
2192.1
2182.73
2179.53
2172.65
2168.82
2163.15
2159.09
2154.1
2149.97
2145.39
2141.23
2136.9
2132.74
2128.5
2124.37
2120.2
2116.02
2111.79
2107.53
2103.2
2098.81
2094.32
2089.73
2085.02
2080.21
2075.31
2070.34
2065.31
2060.22
2055.08
2049.92
2044.71
2039.49
2034.24
2028.97
2023.69
2018.4
2013.1
2007.78
2002.46
1997.14
1991.8
1986.47
1981.13
1975.79
1970.44
1965.09
1959.74
1954.39
1949.04
1943.68
1938.32
1932.97
1927.61
1922.25
1916.89
1911.53
1906.17
1900.81
1895.45
1890.09
1884.73
1879.36
1874
1868.64
1863.28
1857.91
1852.55
1847.19
1841.82
1836.46
1831.1
1825.73
1820.37
1815.01
1809.64
1804.28
1798.92
1793.55
1788.19
1782.83
1777.46
1772.1
1766.74
1761.37
1756.01
1750.64
1745.28
1739.92
1734.55
1729.19
1723.83
1718.46
1713.1
1707.74
1702.37
1697.01
1691.64
1686.28
1680.92
1675.55
1670.19
1664.83
1659.46
1654.1
1648.74
1643.37
1638.01
1632.64
1627.28
1621.92
1616.55
1611.19
1605.83
1600.46
1595.1
1589.74
1584.37
1579.01
1573.64
1568.28
1562.92
1557.55
1552.19
1546.83
1541.46
1536.1
1530.73
1525.37
1520.01
1514.64
1509.28
1503.92
1498.55
1493.19
1487.83
1482.46
1477.1
1471.73
1466.37
1461.01
1455.64
1450.28
1444.92
1439.55
1434.19
1428.83
1423.46
1418.1
1412.73
1407.37
1402.01
1396.64
1391.28
1385.92
1380.55
1375.19
1369.82
1364.46
1359.1
1353.73
1348.37
1343.01
1337.64
1332.28
1326.92
1321.55
1316.19
1310.82
1305.46
1300.1
1294.73
1289.37
1284.01
1278.64
1273.28
1267.92
1262.55
1257.19
1251.82
1246.46
1241.1
1235.73
1230.37
1225.01
1219.64
1214.28
1208.91
1203.55
1198.19
1192.82
1187.46
1182.1
1176.73
1171.37
1166.01
1160.64
1155.28
1149.91
1144.55
1139.19
1133.82
1128.46
1123.1
1117.73
1112.37
1107.01
1101.64
1096.28
1090.91
1085.55
1080.19
1074.82
1069.46
1064.1
1058.73
1053.37
1048
1042.64
1037.28
1031.91
1026.55
1021.19
1015.82
1010.46
1005.1
999.732
994.368
989.005
983.641
978.277
972.914
967.55
962.186
956.823
951.459
946.095
940.732
935.368
930.004
924.641
919.277
913.913
908.55
903.186
897.822
892.459
887.095
881.731
876.368
871.004
865.64
860.277
854.913
849.549
844.186
838.822
833.458
828.095
822.731
817.367
812.004
806.64
801.276
795.913
790.549
785.185
779.822
774.458
769.094
763.731
758.367
753.003
747.64
742.276
736.912
731.549
726.185
720.821
715.458
710.094
704.73
699.367
694.003
688.639
683.276
677.912
672.548
667.185
661.821
656.457
651.094
645.73
640.366
635.003
629.639
2232.71
2183.1
2194.06
2176.23
2175.83
2166.45
2163.26
2156.38
2152.55
2146.87
2142.82
2137.82
2133.69
2129.12
2124.95
2120.62
2116.46
2112.22
2108.09
2103.91
2099.74
2095.5
2091.25
2086.91
2082.53
2078.04
2073.45
2068.74
2063.93
2059.03
2054.06
2049.02
2043.93
2038.8
2033.63
2028.43
2023.2
2017.95
2012.69
2007.41
2002.12
1996.81
1991.5
1986.18
1980.85
1975.52
1970.18
1964.84
1959.5
1954.15
1948.81
1943.46
1938.1
1932.75
1927.4
1922.04
1916.68
1911.33
1905.97
1900.61
1895.25
1889.89
1884.53
1879.16
1873.8
1868.44
1863.08
1857.72
1852.35
1846.99
1841.63
1836.27
1830.9
1825.54
1820.18
1814.81
1809.45
1804.09
1798.72
1793.36
1788
1782.63
1777.27
1771.91
1766.54
1761.18
1755.81
1750.45
1745.09
1739.72
1734.36
1729
1723.63
1718.27
1712.91
1707.54
1702.18
1696.81
1691.45
1686.09
1680.72
1675.36
1670
1664.63
1659.27
1653.91
1648.54
1643.18
1637.81
1632.45
1627.09
1621.72
1616.36
1611
1605.63
1600.27
1594.91
1589.54
1584.18
1578.81
1573.45
1568.09
1562.72
1557.36
1552
1546.63
1541.27
1535.9
1530.54
1525.18
1519.81
1514.45
1509.09
1503.72
1498.36
1493
1487.63
1482.27
1476.9
1471.54
1466.18
1460.81
1455.45
1450.09
1444.72
1439.36
1434
1428.63
1423.27
1417.9
1412.54
1407.18
1401.81
1396.45
1391.09
1385.72
1380.36
1374.99
1369.63
1364.27
1358.9
1353.54
1348.18
1342.81
1337.45
1332.09
1326.72
1321.36
1315.99
1310.63
1305.27
1299.9
1294.54
1289.18
1283.81
1278.45
1273.09
1267.72
1262.36
1256.99
1251.63
1246.27
1240.9
1235.54
1230.18
1224.81
1219.45
1214.08
1208.72
1203.36
1197.99
1192.63
1187.27
1181.9
1176.54
1171.18
1165.81
1160.45
1155.08
1149.72
1144.36
1138.99
1133.63
1128.27
1122.9
1117.54
1112.18
1106.81
1101.45
1096.08
1090.72
1085.36
1079.99
1074.63
1069.27
1063.9
1058.54
1053.17
1047.81
1042.45
1037.08
1031.72
1026.36
1020.99
1015.63
1010.27
1004.9
999.538
994.175
988.811
983.447
978.084
972.72
967.356
961.993
956.629
951.265
945.902
940.538
935.174
929.811
924.447
919.083
913.72
908.356
902.992
897.629
892.265
886.901
881.538
876.174
870.81
865.447
860.083
854.719
849.356
843.992
838.628
833.265
827.901
822.537
817.174
811.81
806.446
801.083
795.719
790.355
784.992
779.628
774.264
768.901
763.537
758.173
752.81
747.446
742.082
736.719
731.355
725.991
720.628
715.264
709.9
704.537
699.173
693.809
688.446
683.082
677.718
672.355
666.991
661.627
656.264
650.9
645.536
640.173
634.809
629.445
624.082
618.718
613.354
2216.19
2166.93
2177.8
2159.96
2159.56
2150.18
2146.98
2140.11
2136.28
2130.6
2126.54
2121.55
2117.42
2112.84
2108.67
2104.34
2100.18
2095.94
2091.81
2087.63
2083.46
2079.22
2074.97
2070.63
2066.24
2061.76
2057.17
2052.45
2047.64
2042.74
2037.77
2032.74
2027.65
2022.51
2017.35
2012.14
2006.92
2001.67
1996.41
1991.12
1985.83
1980.53
1975.22
1969.89
1964.57
1959.23
1953.9
1948.56
1943.22
1937.87
1932.52
1927.17
1921.82
1916.47
1911.11
1905.76
1900.4
1895.04
1889.68
1884.32
1878.96
1873.6
1868.24
1862.88
1857.52
1852.16
1846.79
1841.43
1836.07
1830.71
1825.34
1819.98
1814.62
1809.25
1803.89
1798.53
1793.17
1787.8
1782.44
1777.07
1771.71
1766.35
1760.98
1755.62
1750.26
1744.89
1739.53
1734.17
1728.8
1723.44
1718.08
1712.71
1707.35
1701.98
1696.62
1691.26
1685.89
1680.53
1675.17
1669.8
1664.44
1659.08
1653.71
1648.35
1642.98
1637.62
1632.26
1626.89
1621.53
1616.17
1610.8
1605.44
1600.08
1594.71
1589.35
1583.98
1578.62
1573.26
1567.89
1562.53
1557.17
1551.8
1546.44
1541.08
1535.71
1530.35
1524.98
1519.62
1514.26
1508.89
1503.53
1498.17
1492.8
1487.44
1482.07
1476.71
1471.35
1465.98
1460.62
1455.26
1449.89
1444.53
1439.17
1433.8
1428.44
1423.07
1417.71
1412.35
1406.98
1401.62
1396.26
1390.89
1385.53
1380.17
1374.8
1369.44
1364.07
1358.71
1353.35
1347.98
1342.62
1337.26
1331.89
1326.53
1321.16
1315.8
1310.44
1305.07
1299.71
1294.35
1288.98
1283.62
1278.26
1272.89
1267.53
1262.16
1256.8
1251.44
1246.07
1240.71
1235.35
1229.98
1224.62
1219.26
1213.89
1208.53
1203.16
1197.8
1192.44
1187.07
1181.71
1176.35
1170.98
1165.62
1160.25
1154.89
1149.53
1144.16
1138.8
1133.44
1128.07
1122.71
1117.35
1111.98
1106.62
1101.25
1095.89
1090.53
1085.16
1079.8
1074.44
1069.07
1063.71
1058.35
1052.98
1047.62
1042.25
1036.89
1031.53
1026.16
1020.8
1015.44
1010.07
1004.71
999.345
993.981
988.617
983.254
977.89
972.526
967.163
961.799
956.435
951.072
945.708
940.344
934.981
929.617
924.253
918.89
913.526
908.162
902.799
897.435
892.071
886.708
881.344
875.98
870.617
865.253
859.889
854.526
849.162
843.798
838.435
833.071
827.707
822.344
816.98
811.616
806.253
800.889
795.525
790.162
784.798
779.434
774.071
768.707
763.343
757.98
752.616
747.252
741.889
736.525
731.161
725.798
720.434
715.07
709.707
704.343
698.979
693.616
688.252
682.888
677.525
672.161
666.797
661.434
656.07
650.706
645.343
639.979
634.615
629.252
623.888
618.524
613.161
607.797
602.433
597.07
2199.71
2150.73
2161.56
2143.69
2143.27
2133.89
2130.72
2123.83
2120
2114.32
2110.27
2105.27
2101.14
2096.57
2092.4
2088.06
2083.9
2079.66
2075.53
2071.36
2067.18
2062.94
2058.68
2054.35
2049.96
2045.48
2040.88
2036.17
2031.36
2026.46
2021.49
2016.45
2011.36
2006.23
2001.06
1995.86
1990.63
1985.39
1980.12
1974.84
1969.55
1964.24
1958.93
1953.61
1948.28
1942.95
1937.61
1932.27
1926.93
1921.59
1916.24
1910.89
1905.54
1900.18
1894.83
1889.47
1884.11
1878.76
1873.4
1868.04
1862.68
1857.32
1851.96
1846.6
1841.23
1835.87
1830.51
1825.15
1819.78
1814.42
1809.06
1803.7
1798.33
1792.97
1787.61
1782.24
1776.88
1771.52
1766.15
1760.79
1755.43
1750.06
1744.7
1739.34
1733.97
1728.61
1723.25
1717.88
1712.52
1707.15
1701.79
1696.43
1691.06
1685.7
1680.34
1674.97
1669.61
1664.25
1658.88
1653.52
1648.15
1642.79
1637.43
1632.06
1626.7
1621.34
1615.97
1610.61
1605.25
1599.88
1594.52
1589.15
1583.79
1578.43
1573.06
1567.7
1562.34
1556.97
1551.61
1546.25
1540.88
1535.52
1530.15
1524.79
1519.43
1514.06
1508.7
1503.34
1497.97
1492.61
1487.24
1481.88
1476.52
1471.15
1465.79
1460.43
1455.06
1449.7
1444.34
1438.97
1433.61
1428.24
1422.88
1417.52
1412.15
1406.79
1401.43
1396.06
1390.7
1385.34
1379.97
1374.61
1369.24
1363.88
1358.52
1353.15
1347.79
1342.43
1337.06
1331.7
1326.33
1320.97
1315.61
1310.24
1304.88
1299.52
1294.15
1288.79
1283.43
1278.06
1272.7
1267.33
1261.97
1256.61
1251.24
1245.88
1240.52
1235.15
1229.79
1224.43
1219.06
1213.7
1208.33
1202.97
1197.61
1192.24
1186.88
1181.52
1176.15
1170.79
1165.42
1160.06
1154.7
1149.33
1143.97
1138.61
1133.24
1127.88
1122.52
1117.15
1111.79
1106.42
1101.06
1095.7
1090.33
1084.97
1079.61
1074.24
1068.88
1063.52
1058.15
1052.79
1047.42
1042.06
1036.7
1031.33
1025.97
1020.61
1015.24
1009.88
1004.51
999.151
993.787
988.424
983.06
977.696
972.333
966.969
961.605
956.242
950.878
945.514
940.151
934.787
929.423
924.06
918.696
913.332
907.969
902.605
897.241
891.878
886.514
881.15
875.787
870.423
865.059
859.696
854.332
848.968
843.605
838.241
832.877
827.514
822.15
816.786
811.423
806.059
800.695
795.332
789.968
784.604
779.241
773.877
768.513
763.15
757.786
752.422
747.059
741.695
736.331
730.968
725.604
720.24
714.877
709.513
704.149
698.786
693.422
688.058
682.695
677.331
671.967
666.604
661.24
655.876
650.513
645.149
639.785
634.422
629.058
623.694
618.331
612.967
607.603
602.24
596.876
591.512
586.149
580.785
2183.31
2134.48
2145.3
2127.41
2126.99
2117.61
2114.44
2107.55
2103.72
2098.05
2093.99
2089
2084.87
2080.29
2076.12
2071.79
2067.63
2063.38
2059.25
2055.08
2050.9
2046.66
2042.41
2038.08
2033.68
2029.19
2024.6
2019.89
2015.08
2010.18
2005.2
2000.17
1995.08
1989.95
1984.78
1979.58
1974.35
1969.1
1963.84
1958.56
1953.26
1947.96
1942.65
1937.33
1932
1926.67
1921.33
1915.99
1910.65
1905.3
1899.95
1894.6
1889.25
1883.9
1878.54
1873.19
1867.83
1862.47
1857.11
1851.75
1846.39
1841.03
1835.67
1830.31
1824.95
1819.59
1814.23
1808.86
1803.5
1798.14
1792.77
1787.41
1782.05
1776.69
1771.32
1765.96
1760.6
1755.23
1749.87
1744.51
1739.14
1733.78
1728.42
1723.05
1717.69
1712.32
1706.96
1701.6
1696.23
1690.87
1685.51
1680.14
1674.78
1669.42
1664.05
1658.69
1653.32
1647.96
1642.6
1637.23
1631.87
1626.51
1621.14
1615.78
1610.42
1605.05
1599.69
1594.32
1588.96
1583.6
1578.23
1572.87
1567.51
1562.14
1556.78
1551.42
1546.05
1540.69
1535.32
1529.96
1524.6
1519.23
1513.87
1508.51
1503.14
1497.78
1492.41
1487.05
1481.69
1476.32
1470.96
1465.6
1460.23
1454.87
1449.51
1444.14
1438.78
1433.41
1428.05
1422.69
1417.32
1411.96
1406.6
1401.23
1395.87
1390.51
1385.14
1379.78
1374.41
1369.05
1363.69
1358.32
1352.96
1347.6
1342.23
1336.87
1331.5
1326.14
1320.78
1315.41
1310.05
1304.69
1299.32
1293.96
1288.6
1283.23
1277.87
1272.5
1267.14
1261.78
1256.41
1251.05
1245.69
1240.32
1234.96
1229.6
1224.23
1218.87
1213.5
1208.14
1202.78
1197.41
1192.05
1186.69
1181.32
1175.96
1170.59
1165.23
1159.87
1154.5
1149.14
1143.78
1138.41
1133.05
1127.69
1122.32
1116.96
1111.59
1106.23
1100.87
1095.5
1090.14
1084.78
1079.41
1074.05
1068.69
1063.32
1057.96
1052.59
1047.23
1041.87
1036.5
1031.14
1025.78
1020.41
1015.05
1009.68
1004.32
998.958
993.594
988.23
982.867
977.503
972.139
966.776
961.412
956.048
950.685
945.321
939.957
934.594
929.23
923.866
918.503
913.139
907.775
902.412
897.048
891.684
886.321
880.957
875.593
870.23
864.866
859.502
854.139
848.775
843.411
838.048
832.684
827.32
821.957
816.593
811.229
805.866
800.502
795.138
789.775
784.411
779.047
773.684
768.32
762.956
757.593
752.229
746.865
741.502
736.138
730.774
725.411
720.047
714.683
709.32
703.956
698.592
693.229
687.865
682.501
677.138
671.774
666.41
661.047
655.683
650.319
644.956
639.592
634.228
628.865
623.501
618.137
612.774
607.41
602.046
596.683
591.319
585.955
580.592
575.228
569.864
564.501
2166.97
2118.22
2129.02
2111.11
2110.69
2101.32
2098.15
2091.27
2087.45
2081.77
2077.71
2072.72
2068.59
2064.01
2059.84
2055.51
2051.35
2047.1
2042.98
2038.8
2034.62
2030.39
2026.13
2021.8
2017.4
2012.91
2008.32
2003.6
1998.79
1993.89
1988.92
1983.88
1978.8
1973.66
1968.49
1963.29
1958.07
1952.82
1947.55
1942.27
1936.98
1931.67
1926.36
1921.04
1915.71
1910.38
1905.05
1899.71
1894.36
1889.02
1883.67
1878.32
1872.97
1867.61
1862.26
1856.9
1851.54
1846.19
1840.83
1835.47
1830.11
1824.75
1819.39
1814.03
1808.66
1803.3
1797.94
1792.58
1787.22
1781.85
1776.49
1771.13
1765.76
1760.4
1755.04
1749.67
1744.31
1738.95
1733.58
1728.22
1722.86
1717.49
1712.13
1706.77
1701.4
1696.04
1690.68
1685.31
1679.95
1674.59
1669.22
1663.86
1658.49
1653.13
1647.77
1642.4
1637.04
1631.68
1626.31
1620.95
1615.59
1610.22
1604.86
1599.49
1594.13
1588.77
1583.4
1578.04
1572.68
1567.31
1561.95
1556.59
1551.22
1545.86
1540.49
1535.13
1529.77
1524.4
1519.04
1513.68
1508.31
1502.95
1497.58
1492.22
1486.86
1481.49
1476.13
1470.77
1465.4
1460.04
1454.68
1449.31
1443.95
1438.58
1433.22
1427.86
1422.49
1417.13
1411.77
1406.4
1401.04
1395.68
1390.31
1384.95
1379.58
1374.22
1368.86
1363.49
1358.13
1352.77
1347.4
1342.04
1336.67
1331.31
1325.95
1320.58
1315.22
1309.86
1304.49
1299.13
1293.77
1288.4
1283.04
1277.67
1272.31
1266.95
1261.58
1256.22
1250.86
1245.49
1240.13
1234.77
1229.4
1224.04
1218.67
1213.31
1207.95
1202.58
1197.22
1191.86
1186.49
1181.13
1175.76
1170.4
1165.04
1159.67
1154.31
1148.95
1143.58
1138.22
1132.86
1127.49
1122.13
1116.76
1111.4
1106.04
1100.67
1095.31
1089.95
1084.58
1079.22
1073.86
1068.49
1063.13
1057.76
1052.4
1047.04
1041.67
1036.31
1030.95
1025.58
1020.22
1014.85
1009.49
1004.13
998.764
993.4
988.037
982.673
977.309
971.946
966.582
961.218
955.855
950.491
945.127
939.764
934.4
929.036
923.673
918.309
912.945
907.582
902.218
896.854
891.491
886.127
880.763
875.4
870.036
864.672
859.309
853.945
848.581
843.218
837.854
832.49
827.127
821.763
816.399
811.036
805.672
800.308
794.945
789.581
784.217
778.854
773.49
768.126
762.763
757.399
752.035
746.672
741.308
735.944
730.581
725.217
719.853
714.49
709.126
703.762
698.399
693.035
687.671
682.308
676.944
671.58
666.217
660.853
655.489
650.126
644.762
639.398
634.035
628.671
623.307
617.944
612.58
607.216
601.853
596.489
591.125
585.762
580.398
575.034
569.671
564.307
558.943
553.58
548.216
2150.65
2101.98
2112.74
2094.81
2094.39
2085.03
2081.87
2074.98
2071.16
2065.49
2061.43
2056.44
2052.31
2047.73
2043.56
2039.23
2035.07
2030.83
2026.7
2022.53
2018.35
2014.11
2009.86
2005.52
2001.12
1996.63
1992.04
1987.32
1982.51
1977.61
1972.64
1967.6
1962.51
1957.38
1952.21
1947.01
1941.78
1936.53
1931.27
1925.99
1920.69
1915.39
1910.08
1904.76
1899.43
1894.1
1888.76
1883.42
1878.08
1872.73
1867.38
1862.03
1856.68
1851.33
1845.97
1840.62
1835.26
1829.9
1824.54
1819.18
1813.82
1808.46
1803.1
1797.74
1792.38
1787.02
1781.66
1776.29
1770.93
1765.57
1760.21
1754.84
1749.48
1744.12
1738.75
1733.39
1728.03
1722.66
1717.3
1711.94
1706.57
1701.21
1695.85
1690.48
1685.12
1679.76
1674.39
1669.03
1663.66
1658.3
1652.94
1647.57
1642.21
1636.85