/*--------------------------------*- C++ -*----------------------------------*\
| =========                 |                                                 |
| \\      /  F ield         | foam-extend: Open Source CFD                    |
|  \\    /   O peration     | Version:     3.2                                |
|   \\  /    A nd           | Web:         http://www.foam-extend.org         |
|    \\/     M anipulation  | For copyright notice see file Copyright         |
\*---------------------------------------------------------------------------*/
FoamFile
{
    version     2.0;
    format      ascii;
    class       surfaceScalarField;
    location    "83";
    object      phi;
}
// * * * * * * * * * * * * * * * * * * * * * * * * * * * * * * * * * * * * * //

dimensions      [0 3 -1 0 0 0 0];

internalField   nonuniform List<scalar> 
10482
(
9.23846e-06
1.23449e-05
6.60185e-06
2.63661e-06
6.26661e-06
3.35248e-07
6.22713e-06
3.94784e-08
6.20453e-06
2.25973e-08
6.16333e-06
4.11977e-08
6.14746e-06
1.58758e-08
6.12847e-06
1.89916e-08
6.12755e-06
9.1834e-10
6.12616e-06
1.39027e-09
6.13411e-06
-7.9519e-09
6.14145e-06
-7.33651e-09
6.15637e-06
-1.49202e-08
6.17125e-06
-1.48874e-08
6.18931e-06
-1.80612e-08
6.20896e-06
-1.96438e-08
6.23063e-06
-2.16731e-08
6.25273e-06
-2.20944e-08
6.27646e-06
-2.37344e-08
6.3021e-06
-2.56427e-08
6.32886e-06
-2.67547e-08
6.35626e-06
-2.74076e-08
6.3844e-06
-2.81309e-08
6.41284e-06
-2.8445e-08
6.44179e-06
-2.89534e-08
6.4699e-06
-2.81016e-08
6.4952e-06
-2.53087e-08
6.51682e-06
-2.16174e-08
6.53502e-06
-1.82008e-08
6.55021e-06
-1.51865e-08
6.56288e-06
-1.26743e-08
6.57341e-06
-1.05284e-08
6.58217e-06
-8.76223e-09
6.58945e-06
-7.27179e-09
6.5955e-06
-6.05587e-09
6.60054e-06
-5.03877e-09
6.60475e-06
-4.21207e-09
6.60828e-06
-3.52298e-09
6.61124e-06
-2.96156e-09
6.61373e-06
-2.4933e-09
6.61584e-06
-2.10949e-09
6.61763e-06
-1.79247e-09
6.61918e-06
-1.5496e-09
6.6205e-06
-1.31856e-09
6.62161e-06
-1.10608e-09
6.62253e-06
-9.24755e-10
6.62333e-06
-7.9481e-10
6.62401e-06
-6.85043e-10
6.62461e-06
-5.9478e-10
6.62512e-06
-5.15858e-10
6.62557e-06
-4.49756e-10
6.62596e-06
-3.90966e-10
6.6263e-06
-3.40875e-10
6.6266e-06
-2.96279e-10
6.62686e-06
-2.5807e-10
6.62708e-06
-2.24184e-10
6.62728e-06
-1.95075e-10
6.62745e-06
-1.69357e-10
6.62759e-06
-1.47221e-10
6.62772e-06
-1.27723e-10
6.62783e-06
-1.10915e-10
6.62793e-06
-9.61513e-11
6.62801e-06
-8.3411e-11
6.62808e-06
-7.22478e-11
6.62815e-06
-6.26099e-11
6.6282e-06
-5.41845e-11
6.62825e-06
-4.69097e-11
6.62829e-06
-4.05635e-11
6.62832e-06
-3.50851e-11
6.62835e-06
-3.03154e-11
6.62838e-06
-2.61993e-11
6.6284e-06
-2.26218e-11
6.62842e-06
-1.95363e-11
6.62844e-06
-1.6858e-11
6.62845e-06
-1.45516e-11
6.62847e-06
-1.25519e-11
6.62848e-06
-1.08241e-11
6.62849e-06
-9.32977e-12
6.62849e-06
-8.04284e-12
6.6285e-06
-6.93321e-12
6.62851e-06
-5.97705e-12
6.62851e-06
-5.1502e-12
6.62852e-06
-4.4382e-12
6.62852e-06
-3.82288e-12
6.62852e-06
-3.29384e-12
6.62853e-06
-2.83648e-12
6.62853e-06
-2.44339e-12
6.62853e-06
-2.09941e-12
6.62853e-06
-1.82008e-12
6.62853e-06
-1.57954e-12
6.62854e-06
-1.35521e-12
6.62854e-06
-1.14461e-12
6.62854e-06
-9.72833e-13
6.62854e-06
-8.55602e-13
6.62854e-06
-7.45543e-13
6.62854e-06
-6.40193e-13
6.62854e-06
-5.45336e-13
6.62854e-06
-4.79629e-13
6.62854e-06
-4.28507e-13
6.62854e-06
-3.62684e-13
6.62854e-06
-2.85485e-13
6.62854e-06
-2.31523e-13
6.62854e-06
-2.03265e-13
6.62854e-06
-1.82245e-13
6.62854e-06
-1.60885e-13
6.62854e-06
-1.41366e-13
6.62854e-06
-1.23783e-13
6.62854e-06
-1.07978e-13
6.62854e-06
-9.39572e-14
6.62854e-06
-8.15316e-14
6.62854e-06
-7.06007e-14
6.62854e-06
-6.09878e-14
6.62854e-06
-5.2593e-14
6.62854e-06
-4.52239e-14
6.62854e-06
-3.89222e-14
6.62854e-06
-3.34198e-14
6.62854e-06
-2.86853e-14
6.62854e-06
-2.46047e-14
6.62854e-06
-2.1102e-14
6.62854e-06
-1.8087e-14
6.62854e-06
-1.55073e-14
6.62854e-06
-1.32743e-14
6.62854e-06
-1.13143e-14
6.62854e-06
-9.61605e-15
6.62854e-06
-8.14474e-15
6.62854e-06
-6.81996e-15
6.62854e-06
-5.69699e-15
6.62854e-06
-4.64628e-15
6.62854e-06
-3.74224e-15
6.62854e-06
-2.92639e-15
6.62854e-06
-2.21298e-15
6.62854e-06
-1.56138e-15
6.62854e-06
-9.73979e-16
6.62854e-06
-4.436e-16
6.62854e-06
-5.50843e-17
6.62854e-06
2.76979e-16
6.62854e-06
5.13276e-16
6.62854e-06
6.65795e-16
6.62854e-06
7.34519e-16
6.62854e-06
7.28756e-16
6.62854e-06
6.51782e-16
6.62854e-06
5.36011e-16
6.62854e-06
4.18123e-16
6.62854e-06
2.75755e-16
6.62854e-06
1.26509e-16
6.62854e-06
4.19787e-18
6.62854e-06
-1.17751e-16
6.62854e-06
-2.03786e-16
6.62854e-06
-2.92726e-16
6.62854e-06
-3.67598e-16
6.62854e-06
-4.42912e-16
6.62854e-06
-4.99654e-16
6.62854e-06
-5.15674e-16
6.62854e-06
-5.20843e-16
6.62854e-06
-5.17668e-16
6.62854e-06
-4.70284e-16
6.62854e-06
-3.95261e-16
6.62854e-06
-2.8917e-16
6.62854e-06
-1.73802e-16
6.62854e-06
-4.33343e-17
6.62854e-06
1.08608e-16
6.62854e-06
2.22415e-16
6.62854e-06
3.01107e-16
6.62854e-06
3.56493e-16
6.62854e-06
3.88631e-16
6.62854e-06
3.97786e-16
6.62854e-06
3.87789e-16
6.62854e-06
3.58748e-16
6.62854e-06
3.02165e-16
6.62854e-06
2.29249e-16
6.62854e-06
1.64722e-16
6.62854e-06
6.46168e-17
6.62854e-06
-5.34258e-17
6.62854e-06
-1.70122e-16
6.62854e-06
-2.82239e-16
6.62854e-06
-3.79326e-16
6.62854e-06
-4.52085e-16
6.62854e-06
-4.958e-16
6.62854e-06
-5.1901e-16
6.62854e-06
-5.08042e-16
6.62854e-06
-4.4326e-16
6.62854e-06
-3.87644e-16
6.62854e-06
-3.3617e-16
6.62854e-06
-2.81465e-16
6.62854e-06
-2.33461e-16
6.62854e-06
-1.95643e-16
6.62854e-06
-1.70615e-16
6.62854e-06
-1.56237e-16
6.62854e-06
-1.61188e-16
6.62854e-06
-1.67068e-16
6.62854e-06
-1.45246e-16
6.62854e-06
-1.48006e-16
6.62854e-06
-1.63672e-16
6.62854e-06
-1.71973e-16
6.62854e-06
-1.77357e-16
6.62854e-06
-1.78449e-16
6.62854e-06
-1.7189e-16
6.62854e-06
-1.58141e-16
6.62854e-06
-1.47189e-16
6.62854e-06
-1.21297e-16
6.62854e-06
-5.56699e-17
6.62854e-06
-1.06157e-17
6.62854e-06
2.48734e-17
6.62854e-06
6.10346e-17
6.62854e-06
8.8498e-17
6.62854e-06
1.06407e-16
6.62854e-06
1.15556e-16
6.62854e-06
1.15406e-16
6.62854e-06
9.6054e-17
6.62854e-06
7.58382e-17
6.62854e-06
8.39184e-17
6.62854e-06
6.23122e-17
6.62854e-06
2.07008e-17
6.62854e-06
-2.65603e-17
6.62854e-06
-8.88483e-17
6.62854e-06
-1.66234e-16
6.62854e-06
-2.58748e-16
6.62854e-06
-3.6083e-16
6.62854e-06
-4.75715e-16
6.62854e-06
-5.78088e-16
6.62854e-06
-6.31312e-16
6.62854e-06
-6.84976e-16
6.62854e-06
-7.2258e-16
6.62854e-06
-7.26224e-16
6.62854e-06
-7.05818e-16
6.62854e-06
-6.63138e-16
6.62854e-06
-6.04206e-16
6.62854e-06
-5.27957e-16
6.62854e-06
-4.44173e-16
6.62854e-06
-3.32714e-16
6.62854e-06
-1.5915e-16
6.62854e-06
2.83448e-17
6.62854e-06
2.40779e-16
6.62854e-06
4.81331e-16
6.62854e-06
7.24663e-16
6.62854e-06
9.53099e-16
6.62854e-06
1.14806e-15
6.62854e-06
1.29176e-15
6.62854e-06
1.36174e-15
6.62854e-06
1.36882e-15
6.62854e-06
1.34166e-15
6.62854e-06
1.23489e-15
6.62854e-06
1.07119e-15
6.62854e-06
8.77074e-16
6.62854e-06
6.57081e-16
6.62854e-06
4.1256e-16
6.62854e-06
1.26101e-16
6.62854e-06
-3.0366e-16
6.62854e-06
-1.18258e-15
6.62854e-06
-2.81234e-15
6.62854e-06
-5.39159e-15
6.62854e-06
-8.38034e-15
6.62854e-06
-9.05526e-15
6.62854e-06
-5.39932e-15
6.62854e-06
-1.10968e-15
6.62854e-06
1.49596e-15
6.62854e-06
4.44115e-15
6.62854e-06
7.49684e-15
6.62854e-06
8.22335e-15
6.62854e-06
5.52567e-15
6.62854e-06
2.02876e-15
6.62854e-06
4.74224e-16
6.62854e-06
2.64048e-16
6.62854e-06
2.47548e-16
6.62854e-06
2.60364e-16
6.62854e-06
2.7388e-16
6.62854e-06
2.8266e-16
6.62854e-06
2.83276e-16
6.62854e-06
2.65032e-16
6.62854e-06
2.4282e-16
6.62854e-06
2.44501e-16
6.62854e-06
2.18383e-16
6.62854e-06
1.79277e-16
6.62854e-06
1.41752e-16
6.62854e-06
1.04294e-16
6.62854e-06
6.28843e-17
6.62854e-06
2.83316e-17
6.62854e-06
-1.47852e-17
6.62854e-06
-5.03942e-17
6.62854e-06
-1.05775e-16
6.62854e-06
-8.25261e-17
6.62854e-06
-1.46503e-16
6.62854e-06
-1.06311e-16
6.62854e-06
-2.35228e-16
6.62854e-06
-7.12167e-17
6.62854e-06
-3.68445e-16
6.62854e-06
8.73967e-17
6.62854e-06
-6.6006e-16
6.62854e-06
5.31258e-16
6.62854e-06
-1.40284e-15
6.62854e-06
1.75426e-15
6.62854e-06
-3.24525e-15
6.62854e-06
4.86428e-15
6.62854e-06
-8.22647e-15
6.62854e-06
1.20775e-14
6.62854e-06
-2.9917e-14
6.62854e-06
-7.3285e-14
6.62855e-06
-3.43174e-12
6.62855e-06
1.89078e-12
1.29496e-11
1.62237e-05
1.77045e-05
1.34998e-05
5.36045e-06
1.25624e-05
1.27264e-06
1.23086e-05
2.93315e-07
1.21315e-05
1.99707e-07
1.19977e-05
1.74965e-07
1.19146e-05
9.89885e-08
1.18605e-05
7.30588e-08
1.18329e-05
2.85702e-08
1.18226e-05
1.16645e-08
1.18242e-05
-9.50735e-09
1.18328e-05
-1.59604e-08
1.18525e-05
-3.46553e-08
1.18757e-05
-3.8113e-08
1.19054e-05
-4.76951e-08
1.19391e-05
-5.33175e-08
1.19769e-05
-5.95088e-08
1.20168e-05
-6.19745e-08
1.20591e-05
-6.61089e-08
1.21054e-05
-7.19449e-08
1.21543e-05
-7.55774e-08
1.22048e-05
-7.79763e-08
1.22569e-05
-8.02039e-08
1.231e-05
-8.15486e-08
1.23645e-05
-8.34485e-08
1.24177e-05
-8.12977e-08
1.24659e-05
-7.35047e-08
1.25077e-05
-6.34308e-08
1.25434e-05
-5.39167e-08
1.25737e-05
-4.54422e-08
1.25992e-05
-3.82062e-08
1.26207e-05
-3.19783e-08
1.26387e-05
-2.67496e-08
1.26537e-05
-2.23194e-08
1.26663e-05
-1.86454e-08
1.26768e-05
-1.5569e-08
1.26856e-05
-1.30348e-08
1.2693e-05
-1.09264e-08
1.26993e-05
-9.18926e-09
1.27045e-05
-7.74661e-09
1.2709e-05
-6.55219e-09
1.27127e-05
-5.56392e-09
1.2716e-05
-4.79757e-09
1.27188e-05
-4.09739e-09
1.27211e-05
-3.44538e-09
1.27231e-05
-2.88142e-09
1.27247e-05
-2.46351e-09
1.27262e-05
-2.12166e-09
1.27274e-05
-1.83747e-09
1.27285e-05
-1.59247e-09
1.27294e-05
-1.38462e-09
1.27302e-05
-1.20251e-09
1.27309e-05
-1.04604e-09
1.27316e-05
-9.08535e-10
1.27321e-05
-7.89988e-10
1.27325e-05
-6.85942e-10
1.27329e-05
-5.96066e-10
1.27333e-05
-5.17329e-10
1.27336e-05
-4.49241e-10
1.27339e-05
-3.89678e-10
1.27341e-05
-3.38131e-10
1.27343e-05
-2.931e-10
1.27345e-05
-2.54116e-10
1.27346e-05
-2.20108e-10
1.27347e-05
-1.90666e-10
1.27348e-05
-1.6502e-10
1.27349e-05
-1.42823e-10
1.2735e-05
-1.23516e-10
1.27351e-05
-1.06815e-10
1.27352e-05
-9.23078e-11
1.27352e-05
-7.97659e-11
1.27353e-05
-6.88859e-11
1.27353e-05
-5.94869e-11
1.27353e-05
-5.1341e-11
1.27354e-05
-4.43152e-11
1.27354e-05
-3.82325e-11
1.27354e-05
-3.29723e-11
1.27354e-05
-2.84257e-11
1.27354e-05
-2.45057e-11
1.27355e-05
-2.1127e-11
1.27355e-05
-1.82138e-11
1.27355e-05
-1.56968e-11
1.27355e-05
-1.3527e-11
1.27355e-05
-1.1654e-11
1.27355e-05
-1.0041e-11
1.27355e-05
-8.64889e-12
1.27355e-05
-7.4504e-12
1.27355e-05
-6.40546e-12
1.27355e-05
-5.53511e-12
1.27355e-05
-4.79083e-12
1.27355e-05
-4.12554e-12
1.27355e-05
-3.5145e-12
1.27355e-05
-2.99757e-12
1.27355e-05
-2.62772e-12
1.27355e-05
-2.2899e-12
1.27355e-05
-1.96621e-12
1.27355e-05
-1.67876e-12
1.27355e-05
-1.45659e-12
1.27355e-05
-1.27329e-12
1.27355e-05
-1.07228e-12
1.27355e-05
-8.69605e-13
1.27355e-05
-7.18367e-13
1.27355e-05
-6.261e-13
1.27355e-05
-5.56401e-13
1.27355e-05
-4.90296e-13
1.27355e-05
-4.30454e-13
1.27355e-05
-3.76798e-13
1.27355e-05
-3.28751e-13
1.27355e-05
-2.86163e-13
1.27355e-05
-2.48484e-13
1.27355e-05
-2.15323e-13
1.27355e-05
-1.86196e-13
1.27355e-05
-1.60748e-13
1.27355e-05
-1.38443e-13
1.27355e-05
-1.19248e-13
1.27355e-05
-1.02528e-13
1.27355e-05
-8.80984e-14
1.27355e-05
-7.56454e-14
1.27355e-05
-6.49301e-14
1.27355e-05
-5.57046e-14
1.27355e-05
-4.7779e-14
1.27355e-05
-4.09303e-14
1.27355e-05
-3.49686e-14
1.27355e-05
-2.97961e-14
1.27355e-05
-2.53044e-14
1.27355e-05
-2.13203e-14
1.27355e-05
-1.79108e-14
1.27355e-05
-1.47904e-14
1.27355e-05
-1.2089e-14
1.27355e-05
-9.67842e-15
1.27355e-05
-7.55784e-15
1.27355e-05
-5.65336e-15
1.27355e-05
-3.95929e-15
1.27355e-05
-2.43245e-15
1.27355e-05
-1.24208e-15
1.27355e-05
-2.35567e-16
1.27355e-05
5.27095e-16
1.27355e-05
1.06252e-15
1.27355e-05
1.37552e-15
1.27355e-05
1.48942e-15
1.27355e-05
1.41867e-15
1.27355e-05
1.2226e-15
1.27355e-05
9.80115e-16
1.27355e-05
6.76614e-16
1.27355e-05
3.47888e-16
1.27355e-05
6.08128e-17
1.27355e-05
-2.31998e-16
1.27355e-05
-4.50349e-16
1.27355e-05
-6.66602e-16
1.27355e-05
-8.57489e-16
1.27355e-05
-1.04359e-15
1.27355e-05
-1.19099e-15
1.27355e-05
-1.26844e-15
1.27355e-05
-1.2992e-15
1.27355e-05
-1.30107e-15
1.27355e-05
-1.20851e-15
1.27355e-05
-1.04217e-15
1.27355e-05
-8.01768e-16
1.27355e-05
-5.21621e-16
1.27355e-05
-2.06287e-16
1.27355e-05
1.47255e-16
1.27355e-05
4.36671e-16
1.27355e-05
6.55898e-16
1.27355e-05
8.19077e-16
1.27355e-05
9.22847e-16
1.27355e-05
9.69768e-16
1.27355e-05
9.67623e-16
1.27355e-05
9.13551e-16
1.27355e-05
7.99881e-16
1.27355e-05
6.40276e-16
1.27355e-05
4.71516e-16
1.27355e-05
2.33946e-16
1.27355e-05
-4.49002e-17
1.27355e-05
-3.30509e-16
1.27355e-05
-6.11312e-16
1.27355e-05
-8.60908e-16
1.27355e-05
-1.0574e-15
1.27355e-05
-1.1863e-15
1.27355e-05
-1.25471e-15
1.27355e-05
-1.24734e-15
1.27355e-05
-1.13394e-15
1.27355e-05
-1.01509e-15
1.27355e-05
-8.89582e-16
1.27355e-05
-7.58727e-16
1.27355e-05
-6.39407e-16
1.27355e-05
-5.44118e-16
1.27355e-05
-4.74534e-16
1.27355e-05
-4.31072e-16
1.27355e-05
-4.26855e-16
1.27355e-05
-4.3185e-16
1.27355e-05
-3.98578e-16
1.27355e-05
-4.04715e-16
1.27355e-05
-4.29346e-16
1.27355e-05
-4.45725e-16
1.27355e-05
-4.57668e-16
1.27355e-05
-4.58374e-16
1.27355e-05
-4.446e-16
1.27355e-05
-4.15065e-16
1.27355e-05
-3.79323e-16
1.27355e-05
-3.15873e-16
1.27355e-05
-1.8495e-16
1.27355e-05
-7.65143e-17
1.27355e-05
1.6923e-17
1.27355e-05
1.08776e-16
1.27355e-05
1.82708e-16
1.27355e-05
2.33665e-16
1.27355e-05
2.62779e-16
1.27355e-05
2.67498e-16
1.27355e-05
2.36539e-16
1.27355e-05
1.94215e-16
1.27355e-05
1.90086e-16
1.27355e-05
1.35524e-16
1.27355e-05
4.22742e-17
1.27355e-05
-7.13129e-17
1.27355e-05
-2.20935e-16
1.27355e-05
-4.10034e-16
1.27355e-05
-6.3639e-16
1.27355e-05
-8.8986e-16
1.27355e-05
-1.16743e-15
1.27355e-05
-1.42603e-15
1.27355e-05
-1.59884e-15
1.27355e-05
-1.75368e-15
1.27355e-05
-1.85963e-15
1.27355e-05
-1.89158e-15
1.27355e-05
-1.8619e-15
1.27355e-05
-1.7783e-15
1.27355e-05
-1.64634e-15
1.27355e-05
-1.47233e-15
1.27355e-05
-1.26482e-15
1.27355e-05
-9.91791e-16
1.27355e-05
-5.96831e-16
1.27355e-05
-1.45503e-16
1.27355e-05
3.81012e-16
1.27355e-05
9.76401e-16
1.27355e-05
1.59244e-15
1.27355e-05
2.18524e-15
1.27355e-05
2.70829e-15
1.27355e-05
3.11867e-15
1.27355e-05
3.3675e-15
1.27355e-05
3.46034e-15
1.27355e-05
3.44012e-15
1.27355e-05
3.23925e-15
1.27355e-05
2.90031e-15
1.27355e-05
2.46402e-15
1.27355e-05
1.94471e-15
1.27355e-05
1.33987e-15
1.27355e-05
6.10067e-16
1.27355e-05
-4.2569e-16
1.27355e-05
-2.21385e-15
1.27355e-05
-5.14335e-15
1.27355e-05
-9.3073e-15
1.27355e-05
-1.36375e-14
1.27355e-05
-1.42434e-14
1.27355e-05
-8.59725e-15
1.27355e-05
-1.86806e-15
1.27355e-05
2.59385e-15
1.27355e-05
7.32116e-15
1.27355e-05
1.18253e-14
1.27355e-05
1.26739e-14
1.27355e-05
8.49552e-15
1.27355e-05
3.1745e-15
1.27355e-05
6.99709e-16
1.27355e-05
2.72777e-16
1.27355e-05
2.25204e-16
1.27355e-05
2.57197e-16
1.27355e-05
3.0279e-16
1.27355e-05
3.43869e-16
1.27355e-05
3.71611e-16
1.27355e-05
3.68041e-16
1.27355e-05
3.52185e-16
1.27355e-05
3.68499e-16
1.27355e-05
3.40678e-16
1.27355e-05
2.90223e-16
1.27355e-05
2.36421e-16
1.27355e-05
1.81193e-16
1.27355e-05
1.17303e-16
1.27355e-05
6.19118e-17
1.27355e-05
-7.96526e-18
1.27355e-05
-6.78991e-17
1.27355e-05
-1.56624e-16
1.27355e-05
-1.29758e-16
1.27355e-05
-2.26739e-16
1.27355e-05
-1.7325e-16
1.27355e-05
-3.63058e-16
1.27355e-05
-1.3121e-16
1.27355e-05
-5.61653e-16
1.27355e-05
9.06114e-17
1.27355e-05
-9.84519e-16
1.27355e-05
7.23842e-16
1.27355e-05
-2.05225e-15
1.27355e-05
2.4832e-15
1.27355e-05
-4.68486e-15
1.27355e-05
6.94758e-15
1.27355e-05
-1.19809e-14
1.27355e-05
1.57794e-14
1.27355e-05
-5.74486e-14
1.27355e-05
-2.61496e-13
1.27355e-05
-5.4456e-12
1.27355e-05
2.16489e-12
1.85318e-11
1.97368e-05
1.95511e-05
1.7484e-05
7.6132e-06
1.62917e-05
2.46499e-06
1.57655e-05
8.19473e-07
1.53973e-05
5.67894e-07
1.51803e-05
3.92047e-07
1.50332e-05
2.46015e-07
1.49411e-05
1.65187e-07
1.48842e-05
8.54277e-08
1.48575e-05
3.84116e-08
1.48463e-05
1.72834e-09
1.48498e-05
-1.95255e-08
1.48656e-05
-5.04706e-08
1.48882e-05
-6.06546e-08
1.49198e-05
-7.93522e-08
1.49571e-05
-9.06263e-08
1.50004e-05
-1.02712e-07
1.5047e-05
-1.08593e-07
1.50967e-05
-1.15877e-07
1.51515e-05
-1.26704e-07
1.52097e-05
-1.33801e-07
1.52705e-05
-1.38736e-07
1.53333e-05
-1.43033e-07
1.53978e-05
-1.46015e-07
1.54642e-05
-1.49831e-07
1.55289e-05
-1.46058e-07
1.55877e-05
-1.32268e-07
1.5639e-05
-1.14796e-07
1.56833e-05
-9.81317e-08
1.5721e-05
-8.31771e-08
1.5753e-05
-7.02382e-08
1.57801e-05
-5.90398e-08
1.58029e-05
-4.95429e-08
1.5822e-05
-4.14688e-08
1.58381e-05
-3.47178e-08
1.58516e-05
-2.90535e-08
1.58629e-05
-2.43557e-08
1.58724e-05
-2.04441e-08
1.58804e-05
-1.72029e-08
1.58872e-05
-1.4512e-08
1.58929e-05
-1.22737e-08
1.58978e-05
-1.04177e-08
1.5902e-05
-8.96828e-09
1.59055e-05
-7.66887e-09
1.59085e-05
-6.45729e-09
1.59111e-05
-5.40255e-09
1.59132e-05
-4.60735e-09
1.5915e-05
-3.964e-09
1.59166e-05
-3.42776e-09
1.5918e-05
-2.96833e-09
1.59192e-05
-2.57704e-09
1.59202e-05
-2.23644e-09
1.59211e-05
-1.94309e-09
1.59219e-05
-1.6868e-09
1.59226e-05
-1.46533e-09
1.59232e-05
-1.27187e-09
1.59237e-05
-1.10446e-09
1.59241e-05
-9.58331e-10
1.59245e-05
-8.31769e-10
1.59248e-05
-7.2137e-10
1.59251e-05
-6.25703e-10
1.59254e-05
-5.42323e-10
1.59256e-05
-4.70056e-10
1.59258e-05
-4.07133e-10
1.59259e-05
-3.52604e-10
1.59261e-05
-3.05176e-10
1.59262e-05
-2.64093e-10
1.59263e-05
-2.284e-10
1.59264e-05
-1.97501e-10
1.59265e-05
-1.70687e-10
1.59265e-05
-1.4749e-10
1.59266e-05
-1.27382e-10
1.59267e-05
-1.10001e-10
1.59267e-05
-9.49456e-11
1.59267e-05
-8.19524e-11
1.59268e-05
-7.07097e-11
1.59268e-05
-6.09847e-11
1.59268e-05
-5.25807e-11
1.59268e-05
-4.53315e-11
1.59269e-05
-3.90837e-11
1.59269e-05
-3.3695e-11
1.59269e-05
-2.9041e-11
1.59269e-05
-2.50275e-11
1.59269e-05
-2.1564e-11
1.59269e-05
-1.85798e-11
1.59269e-05
-1.60056e-11
1.59269e-05
-1.3788e-11
1.59269e-05
-1.18579e-11
1.59269e-05
-1.02359e-11
1.59269e-05
-8.85128e-12
1.59269e-05
-7.62988e-12
1.5927e-05
-6.51895e-12
1.5927e-05
-5.56894e-12
1.5927e-05
-4.86071e-12
1.5927e-05
-4.2277e-12
1.5927e-05
-3.65275e-12
1.5927e-05
-3.14493e-12
1.5927e-05
-2.7174e-12
1.5927e-05
-2.33201e-12
1.5927e-05
-1.94619e-12
1.5927e-05
-1.60398e-12
1.5927e-05
-1.33882e-12
1.5927e-05
-1.16369e-12
1.5927e-05
-1.0296e-12
1.5927e-05
-9.05966e-13
1.5927e-05
-7.94791e-13
1.5927e-05
-6.95455e-13
1.5927e-05
-6.06734e-13
1.5927e-05
-5.28155e-13
1.5927e-05
-4.58706e-13
1.5927e-05
-3.97592e-13
1.5927e-05
-3.43942e-13
1.5927e-05
-2.97063e-13
1.5927e-05
-2.55998e-13
1.5927e-05
-2.20568e-13
1.5927e-05
-1.89737e-13
1.5927e-05
-1.63099e-13
1.5927e-05
-1.40105e-13
1.5927e-05
-1.20302e-13
1.5927e-05
-1.03253e-13
1.5927e-05
-8.85908e-14
1.5927e-05
-7.59318e-14
1.5927e-05
-6.49443e-14
1.5927e-05
-5.54099e-14
1.5927e-05
-4.7122e-14
1.5927e-05
-3.97995e-14
1.5927e-05
-3.35065e-14
1.5927e-05
-2.77956e-14
1.5927e-05
-2.28231e-14
1.5927e-05
-1.83997e-14
1.5927e-05
-1.44953e-14
1.5927e-05
-1.10046e-14
1.5927e-05
-7.91409e-15
1.5927e-05
-5.12665e-15
1.5927e-05
-2.88967e-15
1.5927e-05
-9.97248e-16
1.5927e-05
4.71182e-16
1.5927e-05
1.53528e-15
1.5927e-05
2.20443e-15
1.5927e-05
2.51148e-15
1.5927e-05
2.49388e-15
1.5927e-05
2.23359e-15
1.5927e-05
1.84654e-15
1.5927e-05
1.34162e-15
1.5927e-05
7.8932e-16
1.5927e-05
2.8114e-16
1.5927e-05
-2.36008e-16
1.5927e-05
-6.43716e-16
1.5927e-05
-1.03651e-15
1.5927e-05
-1.38742e-15
1.5927e-05
-1.71808e-15
1.5927e-05
-1.99074e-15
1.5927e-05
-2.16712e-15
1.5927e-05
-2.25453e-15
1.5927e-05
-2.27473e-15
1.5927e-05
-2.14414e-15
1.5927e-05
-1.88295e-15
1.5927e-05
-1.49249e-15
1.5927e-05
-1.01592e-15
1.5927e-05
-4.76699e-16
1.5927e-05
1.16124e-16
1.5927e-05
6.27591e-16
1.5927e-05
1.04246e-15
1.5927e-05
1.35916e-15
1.5927e-05
1.57611e-15
1.5927e-05
1.69308e-15
1.5927e-05
1.72234e-15
1.5927e-05
1.66229e-15
1.5927e-05
1.50453e-15
1.5927e-05
1.25938e-15
1.5927e-05
9.69291e-16
1.5927e-05
5.71402e-16
1.5927e-05
1.02604e-16
1.5927e-05
-3.91704e-16
1.5927e-05
-8.82106e-16
1.5927e-05
-1.32903e-15
1.5927e-05
-1.69168e-15
1.5927e-05
-1.9437e-15
1.5927e-05
-2.08374e-15
1.5927e-05
-2.09661e-15
1.5927e-05
-1.95428e-15
1.5927e-05
-1.77176e-15
1.5927e-05
-1.56101e-15
1.5927e-05
-1.33814e-15
1.5927e-05
-1.12937e-15
1.5927e-05
-9.58603e-16
1.5927e-05
-8.29265e-16
1.5927e-05
-7.4659e-16
1.5927e-05
-7.19541e-16
1.5927e-05
-7.17096e-16
1.5927e-05
-6.83158e-16
1.5927e-05
-6.97346e-16
1.5927e-05
-7.33177e-16
1.5927e-05
-7.63264e-16
1.5927e-05
-7.85763e-16
1.5927e-05
-7.92944e-16
1.5927e-05
-7.75025e-16
1.5927e-05
-7.31141e-16
1.5927e-05
-6.6406e-16
1.5927e-05
-5.58163e-16
1.5927e-05
-3.63736e-16
1.5927e-05
-1.84787e-16
1.5927e-05
-1.63193e-17
1.5927e-05
1.46352e-16
1.5927e-05
2.82264e-16
1.5927e-05
3.79002e-16
1.5927e-05
4.38396e-16
1.5927e-05
4.56284e-16
1.5927e-05
4.21579e-16
1.5927e-05
3.61377e-16
1.5927e-05
3.29835e-16
1.5927e-05
2.30872e-16
1.5927e-05
7.85588e-17
1.5927e-05
-1.18018e-16
1.5927e-05
-3.75559e-16
1.5927e-05
-7.04515e-16
1.5927e-05
-1.09829e-15
1.5927e-05
-1.54463e-15
1.5927e-05
-2.02747e-15
1.5927e-05
-2.49104e-15
1.5927e-05
-2.8469e-15
1.5927e-05
-3.15299e-15
1.5927e-05
-3.36701e-15
1.5927e-05
-3.46067e-15
1.5927e-05
-3.44293e-15
1.5927e-05
-3.33063e-15
1.5927e-05
-3.12834e-15
1.5927e-05
-2.84746e-15
1.5927e-05
-2.49299e-15
1.5927e-05
-2.02877e-15
1.5927e-05
-1.38191e-15
1.5927e-05
-6.18232e-16
1.5927e-05
2.9034e-16
1.5927e-05
1.32342e-15
1.5927e-05
2.41352e-15
1.5927e-05
3.48349e-15
1.5927e-05
4.45637e-15
1.5927e-05
5.25101e-15
1.5927e-05
5.79363e-15
1.5927e-05
6.0671e-15
1.5927e-05
6.11462e-15
1.5927e-05
5.86435e-15
1.5927e-05
5.3712e-15
1.5927e-05
4.68675e-15
1.5927e-05
3.838e-15
1.5927e-05
2.82146e-15
1.5927e-05
1.5832e-15
1.5927e-05
-1.01781e-16
1.5927e-05
-2.70799e-15
1.5927e-05
-6.58425e-15
1.5927e-05
-1.16056e-14
1.5927e-05
-1.62917e-14
1.5927e-05
-1.64757e-14
1.5927e-05
-9.9354e-15
1.5927e-05
-2.22507e-15
1.5927e-05
3.19894e-15
1.5927e-05
8.7383e-15
1.5927e-05
1.35782e-14
1.5927e-05
1.41263e-14
1.5927e-05
9.27296e-15
1.5927e-05
3.36217e-15
1.5927e-05
5.7849e-16
1.5927e-05
3.85065e-17
1.5927e-05
-1.60501e-17
1.5927e-05
5.35259e-17
1.5927e-05
1.50369e-16
1.5927e-05
2.4606e-16
1.5927e-05
3.23075e-16
1.5927e-05
3.61954e-16
1.5927e-05
3.76803e-16
1.5927e-05
4.20002e-16
1.5927e-05
4.07218e-16
1.5927e-05
3.66753e-16
1.5927e-05
3.1435e-16
1.5927e-05
2.56533e-16
1.5927e-05
1.84081e-16
1.5927e-05
1.19603e-16
1.5927e-05
3.50735e-17
1.5927e-05
-3.73401e-17
1.5927e-05
-1.4531e-16
1.5927e-05
-1.24689e-16
1.5927e-05
-2.40636e-16
1.5927e-05
-1.86028e-16
1.5927e-05
-4.02394e-16
1.5927e-05
-1.50813e-16
1.5927e-05
-6.31491e-16
1.5927e-05
8.53573e-17
1.5927e-05
-1.10609e-15
1.5927e-05
7.78502e-16
1.5927e-05
-2.28938e-15
1.5927e-05
2.71617e-15
1.5927e-05
-5.1985e-15
1.5927e-05
7.62799e-15
1.5927e-05
-1.34491e-14
1.5927e-05
1.55796e-14
1.5927e-05
-7.94566e-14
1.5927e-05
-4.36218e-13
1.5927e-05
-5.7992e-12
1.5927e-05
2.79218e-12
1.71063e-11
2.15415e-05
1.95929e-05
2.01943e-05
8.96042e-06
1.91058e-05
3.55355e-06
1.83187e-05
1.6065e-06
1.776e-05
1.1266e-06
1.74378e-05
7.14271e-07
1.72157e-05
4.68105e-07
1.70791e-05
3.01775e-07
1.69896e-05
1.74952e-07
1.69397e-05
8.83348e-08
1.69109e-05
3.05533e-08
1.69039e-05
-1.25695e-08
1.69112e-05
-5.77985e-08
1.69286e-05
-7.79838e-08
1.69571e-05
-1.07942e-07
1.6993e-05
-1.26531e-07
1.70367e-05
-1.46373e-07
1.70851e-05
-1.57003e-07
1.71374e-05
-1.68184e-07
1.71955e-05
-1.84761e-07
1.72578e-05
-1.96114e-07
1.73233e-05
-2.04282e-07
1.73915e-05
-2.11177e-07
1.74619e-05
-2.16423e-07
1.75345e-05
-2.22427e-07
1.76048e-05
-2.16388e-07
1.76684e-05
-1.9582e-07
1.77241e-05
-1.70553e-07
1.77724e-05
-1.46395e-07
1.78138e-05
-1.24598e-07
1.78491e-05
-1.05568e-07
1.78791e-05
-8.90212e-08
1.79045e-05
-7.48923e-08
1.79258e-05
-6.28423e-08
1.79438e-05
-5.27107e-08
1.7959e-05
-4.41904e-08
1.79717e-05
-3.70905e-08
1.79824e-05
-3.11692e-08
1.79915e-05
-2.62435e-08
1.79991e-05
-2.21505e-08
1.80056e-05
-1.87352e-08
1.80111e-05
-1.58974e-08
1.80158e-05
-1.36695e-08
1.80198e-05
-1.16946e-08
1.80232e-05
-9.85574e-09
1.8026e-05
-8.24928e-09
1.80284e-05
-7.02425e-09
1.80305e-05
-6.03785e-09
1.80323e-05
-5.21493e-09
1.80339e-05
-4.51241e-09
1.80352e-05
-3.91314e-09
1.80363e-05
-3.39354e-09
1.80373e-05
-2.94574e-09
1.80382e-05
-2.55585e-09
1.8039e-05
-2.21876e-09
1.80396e-05
-1.9251e-09
1.80402e-05
-1.67085e-09
1.80407e-05
-1.44938e-09
1.80411e-05
-1.25747e-09
1.80415e-05
-1.09036e-09
1.80418e-05
-9.45481e-10
1.80421e-05
-8.1938e-10
1.80423e-05
-7.10041e-10
1.80425e-05
-6.14942e-10
1.80427e-05
-5.32499e-10
1.80429e-05
-4.60856e-10
1.8043e-05
-3.98808e-10
1.80431e-05
-3.44876e-10
1.80432e-05
-2.98201e-10
1.80433e-05
-2.5772e-10
1.80434e-05
-2.22688e-10
1.80434e-05
-1.92335e-10
1.80435e-05
-1.66089e-10
1.80435e-05
-1.43364e-10
1.80436e-05
-1.23745e-10
1.80436e-05
-1.06774e-10
1.80436e-05
-9.20931e-11
1.80437e-05
-7.94078e-11
1.80437e-05
-6.84627e-11
1.80437e-05
-5.90292e-11
1.80437e-05
-5.08915e-11
1.80437e-05
-4.38646e-11
1.80438e-05
-3.78035e-11
1.80438e-05
-3.25742e-11
1.80438e-05
-2.8067e-11
1.80438e-05
-2.41799e-11
1.80438e-05
-2.08303e-11
1.80438e-05
-1.79185e-11
1.80438e-05
-1.54603e-11
1.80438e-05
-1.33622e-11
1.80438e-05
-1.15218e-11
1.80438e-05
-9.85892e-12
1.80438e-05
-8.43179e-12
1.80438e-05
-7.33966e-12
1.80438e-05
-6.37147e-12
1.80438e-05
-5.51778e-12
1.80438e-05
-4.78403e-12
1.80438e-05
-4.13664e-12
1.80438e-05
-3.51589e-12
1.80438e-05
-2.91061e-12
1.80438e-05
-2.41187e-12
1.80438e-05
-2.031e-12
1.80438e-05
-1.76305e-12
1.80438e-05
-1.5553e-12
1.80438e-05
-1.36675e-12
1.80438e-05
-1.1981e-12
1.80438e-05
-1.04787e-12
1.80438e-05
-9.13988e-13
1.80438e-05
-7.95542e-13
1.80438e-05
-6.90958e-13
1.80438e-05
-5.98955e-13
1.80438e-05
-5.18223e-13
1.80438e-05
-4.47684e-13
1.80438e-05
-3.85917e-13
1.80438e-05
-3.32555e-13
1.80438e-05
-2.86146e-13
1.80438e-05
-2.46027e-13
1.80438e-05
-2.11391e-13
1.80438e-05
-1.81559e-13
1.80438e-05
-1.55873e-13
1.80438e-05
-1.33776e-13
1.80438e-05
-1.14709e-13
1.80438e-05
-9.81872e-14
1.80438e-05
-8.3852e-14
1.80438e-05
-7.13782e-14
1.80438e-05
-6.03783e-14
1.80438e-05
-5.08985e-14
1.80438e-05
-4.23255e-14
1.80438e-05
-3.48348e-14
1.80438e-05
-2.8174e-14
1.80438e-05
-2.22776e-14
1.80438e-05
-1.70101e-14
1.80438e-05
-1.2355e-14
1.80438e-05
-8.151e-15
1.80438e-05
-4.72182e-15
1.80438e-05
-1.81262e-15
1.80438e-05
4.78222e-16
1.80438e-05
2.16768e-15
1.80438e-05
3.27059e-15
1.80438e-05
3.82447e-15
1.80438e-05
3.89029e-15
1.80438e-05
3.57465e-15
1.80438e-05
3.02528e-15
1.80438e-05
2.28843e-15
1.80438e-05
1.471e-15
1.80438e-05
6.94335e-16
1.80438e-05
-9.87675e-17
1.80438e-05
-7.43171e-16
1.80438e-05
-1.35721e-15
1.80438e-05
-1.9075e-15
1.80438e-05
-2.4163e-15
1.80438e-05
-2.84498e-15
1.80438e-05
-3.15034e-15
1.80438e-05
-3.31871e-15
1.80438e-05
-3.37548e-15
1.80438e-05
-3.21931e-15
1.80438e-05
-2.86507e-15
1.80438e-05
-2.31797e-15
1.80438e-05
-1.62872e-15
1.80438e-05
-8.4008e-16
1.80438e-05
1.83976e-17
1.80438e-05
7.90532e-16
1.80438e-05
1.44018e-15
1.80438e-05
1.94999e-15
1.80438e-05
2.31549e-15
1.80438e-05
2.53345e-15
1.80438e-05
2.61895e-15
1.80438e-05
2.57314e-15
1.80438e-05
2.38692e-15
1.80438e-05
2.06524e-15
1.80438e-05
1.65176e-15
1.80438e-05
1.08414e-15
1.80438e-05
4.09388e-16
1.80438e-05
-3.18913e-16
1.80438e-05
-1.0501e-15
1.80438e-05
-1.72886e-15
1.80438e-05
-2.29106e-15
1.80438e-05
-2.6977e-15
1.80438e-05
-2.93371e-15
1.80438e-05
-2.98491e-15
1.80438e-05
-2.82682e-15
1.80438e-05
-2.58564e-15
1.80438e-05
-2.28609e-15
1.80438e-05
-1.96232e-15
1.80438e-05
-1.65242e-15
1.80438e-05
-1.39347e-15
1.80438e-05
-1.19335e-15
1.80438e-05
-1.06105e-15
1.80438e-05
-1.00395e-15
1.80438e-05
-9.90348e-16
1.80438e-05
-9.59876e-16
1.80438e-05
-9.8667e-16
1.80438e-05
-1.03887e-15
1.80438e-05
-1.08936e-15
1.80438e-05
-1.12958e-15
1.80438e-05
-1.14966e-15
1.80438e-05
-1.13418e-15
1.80438e-05
-1.07989e-15
1.80438e-05
-9.8347e-16
1.80438e-05
-8.30677e-16
1.80438e-05
-5.73973e-16
1.80438e-05
-3.19413e-16
1.80438e-05
-6.63088e-17
1.80438e-05
1.76703e-16
1.80438e-05
3.85849e-16
1.80438e-05
5.39272e-16
1.80438e-05
6.3913e-16
1.80438e-05
6.76842e-16
1.80438e-05
6.45484e-16
1.80438e-05
5.70488e-16
1.80438e-05
5.06746e-16
1.80438e-05
3.58306e-16
1.80438e-05
1.38781e-16
1.80438e-05
-1.5109e-16
1.80438e-05
-5.33047e-16
1.80438e-05
-1.02104e-15
1.80438e-05
-1.60727e-15
1.80438e-05
-2.2779e-15
1.80438e-05
-3.00199e-15
1.80438e-05
-3.70945e-15
1.80438e-05
-4.29521e-15
1.80438e-05
-4.79684e-15
1.80438e-05
-5.15729e-15
1.80438e-05
-5.34612e-15
1.80438e-05
-5.36769e-15
1.80438e-05
-5.2429e-15
1.80438e-05
-4.98007e-15
1.80438e-05
-4.59407e-15
1.80438e-05
-4.08467e-15
1.80438e-05
-3.41407e-15
1.80438e-05
-2.49806e-15
1.80438e-05
-1.39124e-15
1.80438e-05
-6.00514e-17
1.80438e-05
1.46549e-15
1.80438e-05
3.09994e-15
1.80438e-05
4.73146e-15
1.80438e-05
6.24712e-15
1.80438e-05
7.5239e-15
1.80438e-05
8.45689e-15
1.80438e-05
8.99934e-15
1.80438e-05
9.18232e-15
1.80438e-05
8.9346e-15
1.80438e-05
8.32072e-15
1.80438e-05
7.40186e-15
1.80438e-05
6.21969e-15
1.80438e-05
4.77496e-15
1.80438e-05
3.00852e-15
1.80438e-05
6.76869e-16
1.80438e-05
-2.67648e-15
1.80438e-05
-7.32153e-15
1.80438e-05
-1.29227e-14
1.80438e-05
-1.77082e-14
1.80438e-05
-1.75297e-14
1.80438e-05
-1.05841e-14
1.80438e-05
-2.47263e-15
1.80438e-05
3.45946e-15
1.80438e-05
9.36306e-15
1.80438e-05
1.41685e-14
1.80438e-05
1.43663e-14
1.80438e-05
9.17881e-15
1.80438e-05
3.10914e-15
1.80438e-05
2.48087e-16
1.80438e-05
-3.31535e-16
1.80438e-05
-3.66443e-16
1.80438e-05
-2.43333e-16
1.80438e-05
-8.10046e-17
1.80438e-05
8.33937e-17
1.80438e-05
2.23825e-16
1.80438e-05
3.19625e-16
1.80438e-05
3.80383e-16
1.80438e-05
4.57992e-16
1.80438e-05
4.70058e-16
1.80438e-05
4.4802e-16
1.80438e-05
4.04878e-16
1.80438e-05
3.50738e-16
1.80438e-05
2.75801e-16
1.80438e-05
2.06019e-16
1.80438e-05
1.1173e-16
1.80438e-05
2.99365e-17
1.80438e-05
-9.06478e-17
1.80438e-05
-8.26769e-17
1.80438e-05
-2.11847e-16
1.80438e-05
-1.64947e-16
1.80438e-05
-3.93265e-16
1.80438e-05
-1.45626e-16
1.80438e-05
-6.40286e-16
1.80438e-05
8.09689e-17
1.80438e-05
-1.13301e-15
1.80438e-05
7.74004e-16
1.80438e-05
-2.34e-15
1.80438e-05
2.72887e-15
1.80438e-05
-5.29998e-15
1.80438e-05
7.67957e-15
1.80438e-05
-1.38782e-14
1.80438e-05
1.39078e-14
1.80438e-05
-9.59926e-14
1.80438e-05