/*--------------------------------*- C++ -*----------------------------------*\
| =========                 |                                                 |
| \\      /  F ield         | foam-extend: Open Source CFD                    |
|  \\    /   O peration     | Version:     3.2                                |
|   \\  /    A nd           | Web:         http://www.foam-extend.org         |
|    \\/     M anipulation  | For copyright notice see file Copyright         |
\*---------------------------------------------------------------------------*/
FoamFile
{
    version     2.0;
    format      ascii;
    class       volVectorField;
    location    "83";
    object      q_b_slide;
}
// * * * * * * * * * * * * * * * * * * * * * * * * * * * * * * * * * * * * * //

dimensions      [0 2 -1 0 0 0 0];

internalField   uniform (0 0 0);

boundaryField
{
    inlet
    {
        type            calculated;
        value           uniform (0 0 0);
    }
    outlet
    {
        type            calculated;
        value           uniform (0 0 0);
    }
    sideWall
    {
        type            empty;
    }
    bed
    {
        type            calculated;
        value           nonuniform List<vector> 
300
(
(0.000474013 -7.52908e-29 -2.37006e-06)
(0.00032726 1.00677e-28 -1.6363e-06)
(0.000225307 3.23193e-29 -1.12654e-06)
(0.000226697 0 -1.13349e-06)
(0.000216187 -2.23967e-26 -1.08094e-06)
(0.000216387 -5.92599e-27 -1.08194e-06)
(0.000211349 -8.40009e-27 -1.05674e-06)
(0.000211158 -1.64505e-27 -1.05579e-06)
(0.000209333 0 -1.04667e-06)
(0.00021004 -1.34462e-27 -1.0502e-06)
(0.000210184 0 -1.05092e-06)
(0.000211376 1.88498e-27 -1.05688e-06)
(0.000212545 -2.28833e-31 -1.06273e-06)
(0.000214423 2.50578e-27 -1.07211e-06)
(0.000216167 0 -1.08083e-06)
(0.000218386 0 -1.09193e-06)
(0.000220628 2.91896e-27 -1.10314e-06)
(0.00022314 -2.7379e-27 -1.1157e-06)
(0.000225618 3.04695e-27 -1.12809e-06)
(0.00022835 0 -1.14175e-06)
(0.000231197 0 -1.15599e-06)
(0.000234129 -3.17524e-27 -1.17065e-06)
(0.000237122 0 -1.18561e-06)
(0.00024015 0 -1.20075e-06)
(0.000243198 0 -1.21599e-06)
(0.000246255 -2.92398e-27 -1.23128e-06)
(0.000249072 -1.08296e-30 -1.24536e-06)
(0.000251519 0 -1.2576e-06)
(0.000253574 0 -1.26787e-06)
(0.000255294 -1.21823e-27 -1.27647e-06)
(0.000256719 -6.16931e-31 -1.2836e-06)
(0.000257906 0 -1.28953e-06)
(0.000258888 0 -1.29444e-06)
(0.000259706 0 -1.29853e-06)
(0.000260383 -3.12794e-31 -1.30192e-06)
(0.000260949 0 -1.30475e-06)
(0.000261421 0 -1.3071e-06)
(0.000261816 0 -1.30908e-06)
(0.000262147 0 -1.31074e-06)
(0.000262426 0 -1.31213e-06)
(0.000262661 0 -1.31331e-06)
(0.00026286 -1.04702e-28 -1.3143e-06)
(0.00026303 0 -1.31515e-06)
(0.000263177 -7.6069e-29 -1.31589e-06)
(0.000263301 0 -1.31651e-06)
(0.000263405 0 -1.31702e-06)
(0.000263492 -4.81416e-29 -1.31746e-06)
(0.000263567 0 -1.31784e-06)
(0.000263632 -3.74423e-29 -1.31816e-06)
(0.000263689 0 -1.31844e-06)
(0.000263738 0 -1.31869e-06)
(0.000263781 -2.58279e-29 -1.3189e-06)
(0.000263818 0 -1.31909e-06)
(0.00026385 -2.01602e-29 -1.31925e-06)
(0.000263879 0 -1.31939e-06)
(0.000263903 0 -1.31952e-06)
(0.000263925 -1.37563e-29 -1.31962e-06)
(0.000263943 0 -1.31972e-06)
(0.000263959 -7.43767e-33 -1.3198e-06)
(0.000263973 0 -1.31987e-06)
(0.000263986 0 -1.31993e-06)
(0.000263996 -6.91847e-30 -1.31998e-06)
(0.000264005 0 -1.32003e-06)
(0.000264013 -5.22687e-30 -1.32007e-06)
(0.00026402 0 -1.3201e-06)
(0.000264026 0 -1.32013e-06)
(0.000264031 -3.4109e-30 -1.32016e-06)
(0.000264036 0 -1.32018e-06)
(0.00026404 -2.55112e-30 -1.3202e-06)
(0.000264043 0 -1.32022e-06)
(0.000264046 1.90189e-30 -1.32023e-06)
(0.000264048 -1.64015e-30 -1.32024e-06)
(0.000264051 0 -1.32025e-06)
(0.000264052 -1.21943e-30 -1.32026e-06)
(0.000264054 0 -1.32027e-06)
(0.000264055 0 -1.32028e-06)
(0.000264057 -7.81362e-31 -1.32028e-06)
(0.000264058 0 -1.32029e-06)
(0.000264059 -5.79318e-31 -1.32029e-06)
(0.000264059 0 -1.3203e-06)
(0.00026406 0 -1.3203e-06)
(0.000264061 0 -1.3203e-06)
(0.000264061 0 -1.32031e-06)
(0.000264061 0 -1.32031e-06)
(0.000264062 0 -1.32031e-06)
(0.000264062 2.0258e-31 -1.32031e-06)
(0.000264062 0 -1.32031e-06)
(0.000264063 0 -1.32031e-06)
(0.000264063 9.11677e-35 -1.32031e-06)
(0.000264063 0 -1.32032e-06)
(0.000264063 0 -1.32032e-06)
(0.000264063 0 -1.32032e-06)
(0.000264063 0 -1.32032e-06)
(0.000264064 0 -1.32032e-06)
(0.000264064 0 -1.32032e-06)
(0.000264064 0 -1.32032e-06)
(0.000264064 0 -1.32032e-06)
(0.000264064 0 -1.32032e-06)
(0.000264064 0 -1.32032e-06)
(0.000264064 0 -1.32032e-06)
(0.000264064 0 -1.32032e-06)
(0.000264064 1.39665e-32 -1.32032e-06)
(0.000264064 0 -1.32032e-06)
(0.000264064 0 -1.32032e-06)
(0.000264064 7.86149e-36 -1.32032e-06)
(0.000264064 0 -1.32032e-06)
(0.000264064 0 -1.32032e-06)
(0.000264064 0 -1.32032e-06)
(0.000264064 0 -1.32032e-06)
(0.000264064 0 -1.32032e-06)
(0.000264064 0 -1.32032e-06)
(0.000264064 0 -1.32032e-06)
(0.000264064 0 -1.32032e-06)
(0.000264064 0 -1.32032e-06)
(0.000264064 0 -1.32032e-06)
(0.000264064 0 -1.32032e-06)
(0.000264064 0 -1.32032e-06)
(0.000264064 1.62092e-33 -1.32032e-06)
(0.000264064 0 -1.32032e-06)
(0.000264064 9.26765e-37 -1.32032e-06)
(0.000264064 0 -1.32032e-06)
(0.000264064 0 -1.32032e-06)
(0.000264064 0 -1.32032e-06)
(0.000264064 0 -1.32032e-06)
(0.000264064 0 -1.32032e-06)
(0.000264064 0 -1.32032e-06)
(0.000264064 0 -1.32032e-06)
(0.000264064 0 -1.32032e-06)
(0.000264064 0 -1.32032e-06)
(0.000264064 0 -1.32032e-06)
(0.000264064 0 -1.32032e-06)
(0.000264064 1.41647e-37 -1.32032e-06)
(0.000264064 0 -1.32032e-06)
(0.000264064 0 -1.32032e-06)
(0.000264064 0 -1.32032e-06)
(0.000264064 0 -1.32032e-06)
(0.000264064 0 -1.32032e-06)
(0.000264064 0 -1.32032e-06)
(0.000264064 0 -1.32032e-06)
(0.000264064 0 -1.32032e-06)
(0.000264064 0 -1.32032e-06)
(0.000264064 0 -1.32032e-06)
(0.000264064 0 -1.32032e-06)
(0.000264064 0 -1.32032e-06)
(0.000264064 0 -1.32032e-06)
(0.000264064 0 -1.32032e-06)
(0.000264064 0 -1.32032e-06)
(0.000264064 0 -1.32032e-06)
(0.000264064 0 -1.32032e-06)
(0.000264064 0 -1.32032e-06)
(0.000264064 0 -1.32032e-06)
(0.000264064 0 -1.32032e-06)
(0.000264064 0 -1.32032e-06)
(0.000264064 0 -1.32032e-06)
(0.000264064 0 -1.32032e-06)
(0.000264064 0 -1.32032e-06)
(0.000264064 0 -1.32032e-06)
(0.000264064 0 -1.32032e-06)
(0.000264064 0 -1.32032e-06)
(0.000264064 0 -1.32032e-06)
(0.000264064 0 -1.32032e-06)
(0.000264064 0 -1.32032e-06)
(0.000264064 0 -1.32032e-06)
(0.000264064 0 -1.32032e-06)
(0.000264064 0 -1.32032e-06)
(0.000264064 0 -1.32032e-06)
(0.000264064 0 -1.32032e-06)
(0.000264064 0 -1.32032e-06)
(0.000264064 0 -1.32032e-06)
(0.000264064 0 -1.32032e-06)
(0.000264064 0 -1.32032e-06)
(0.000264064 0 -1.32032e-06)
(0.000264064 0 -1.32032e-06)
(0.000264064 0 -1.32032e-06)
(0.000264064 0 -1.32032e-06)
(0.000264064 0 -1.32032e-06)
(0.000264064 0 -1.32032e-06)
(0.000264064 0 -1.32032e-06)
(0.000264064 0 -1.32032e-06)
(0.000264064 0 -1.32032e-06)
(0.000264064 0 -1.32032e-06)
(0.000264064 0 -1.32032e-06)
(0.000264064 0 -1.32032e-06)
(0.000264064 0 -1.32032e-06)
(0.000264064 0 -1.32032e-06)
(0.000264064 0 -1.32032e-06)
(0.000264064 0 -1.32032e-06)
(0.000264064 0 -1.32032e-06)
(0.000264064 0 -1.32032e-06)
(0.000264064 0 -1.32032e-06)
(0.000264064 0 -1.32032e-06)
(0.000264064 0 -1.32032e-06)
(0.000264064 0 -1.32032e-06)
(0.000264064 0 -1.32032e-06)
(0.000264064 0 -1.32032e-06)
(0.000264064 0 -1.32032e-06)
(0.000264064 0 -1.32032e-06)
(0.000264064 0 -1.32032e-06)
(0.000264064 0 -1.32032e-06)
(0.000264064 0 -1.32032e-06)
(0.000264064 0 -1.32032e-06)
(0.000264064 0 -1.32032e-06)
(0.000264064 0 -1.32032e-06)
(0.000264064 0 -1.32032e-06)
(0.000264064 0 -1.32032e-06)
(0.000264064 0 -1.32032e-06)
(0.000264064 0 -1.32032e-06)
(0.000264064 0 -1.32032e-06)
(0.000264064 0 -1.32032e-06)
(0.000264064 0 -1.32032e-06)
(0.000264064 0 -1.32032e-06)
(0.000264064 0 -1.32032e-06)
(0.000264064 0 -1.32032e-06)
(0.000264064 0 -1.32032e-06)
(0.000264064 0 -1.32032e-06)
(0.000264064 0 -1.32032e-06)
(0.000264064 0 -1.32032e-06)
(0.000264064 0 -1.32032e-06)
(0.000264064 0 -1.32032e-06)
(0.000264064 0 -1.32032e-06)
(0.000264064 0 -1.32032e-06)
(0.000264064 0 -1.32032e-06)
(0.000264064 0 -1.32032e-06)
(0.000264064 0 -1.32032e-06)
(0.000264064 0 -1.32032e-06)
(0.000264064 0 -1.32032e-06)
(0.000264064 0 -1.32032e-06)
(0.000264064 0 -1.32032e-06)
(0.000264064 0 -1.32032e-06)
(0.000264064 0 -1.32032e-06)
(0.000264064 0 -1.32032e-06)
(0.000264064 0 -1.32032e-06)
(0.000264064 0 -1.32032e-06)
(0.000264064 0 -1.32032e-06)
(0.000264064 0 -1.32032e-06)
(0.000264064 0 -1.32032e-06)
(0.000264064 0 -1.32032e-06)
(0.000264064 0 -1.32032e-06)
(0.000264064 0 -1.32032e-06)
(0.000264064 0 -1.32032e-06)
(0.000264064 0 -1.32032e-06)
(0.000264064 0 -1.32032e-06)
(0.000264064 0 -1.32032e-06)
(0.000264064 0 -1.32032e-06)
(0.000264064 0 -1.32032e-06)
(0.000264064 0 -1.32032e-06)
(0.000264064 0 -1.32032e-06)
(0.000264064 0 -1.32032e-06)
(0.000264064 0 -1.32032e-06)
(0.000264064 0 -1.32032e-06)
(0.000264064 0 -1.32032e-06)
(0.000264064 0 -1.32032e-06)
(0.000264064 0 -1.32032e-06)
(0.000264064 0 -1.32032e-06)
(0.000264064 0 -1.32032e-06)
(0.000264064 0 -1.32032e-06)
(0.000264064 0 -1.32032e-06)
(0.000264064 0 -1.32032e-06)
(0.000264064 0 -1.32032e-06)
(0.000264064 0 -1.32032e-06)
(0.000264064 0 -1.32032e-06)
(0.000264064 0 -1.32032e-06)
(0.000264064 0 -1.32032e-06)
(0.000264064 0 -1.32032e-06)
(0.000264064 0 -1.32032e-06)
(0.000264064 0 -1.32032e-06)
(0.000264064 0 -1.32032e-06)
(0.000264064 0 -1.32032e-06)
(0.000264064 1.0375e-38 -1.32032e-06)
(0.000264064 0 -1.32032e-06)
(0.000264064 0 -1.32032e-06)
(0.000264064 0 -1.32032e-06)
(0.000264064 0 -1.32032e-06)
(0.000264064 0 -1.32032e-06)
(0.000264064 0 -1.32032e-06)
(0.000264064 0 -1.32032e-06)
(0.000264064 0 -1.32032e-06)
(0.000264064 0 -1.32032e-06)
(0.000264064 0 -1.32032e-06)
(0.000264064 0 -1.32032e-06)
(0.000264064 0 -1.32032e-06)
(0.000264064 -8.10092e-35 -1.32032e-06)
(0.000264064 0 -1.32032e-06)
(0.000264064 0 -1.32032e-06)
(0.000264064 0 -1.32032e-06)
(0.000264064 0 -1.32032e-06)
(0.000264064 0 -1.32032e-06)
(0.000264064 0 -1.32032e-06)
(0.000264064 0 -1.32032e-06)
(0.000264064 0 -1.32032e-06)
(0.000264064 0 -1.32032e-06)
(0.000264064 0 -1.32032e-06)
(0.000264064 0 -1.32032e-06)
(0.000264064 0 -1.32032e-06)
(0.000264064 0 -1.32032e-06)
(0.000264064 0 -1.32032e-06)
(0.000264064 0 -1.32032e-06)
(0.000264064 0 -1.32032e-06)
(0.000264065 0 -1.32032e-06)
(0.000264064 0 -1.32032e-06)
)
;
    }
    topWall
    {
        type            calculated;
        value           uniform (0 0 0);
    }
}


// ************************************************************************* //
