/*--------------------------------*- C++ -*----------------------------------*\
| =========                 |                                                 |
| \\      /  F ield         | foam-extend: Open Source CFD                    |
|  \\    /   O peration     | Version:     3.2                                |
|   \\  /    A nd           | Web:         http://www.foam-extend.org         |
|    \\/     M anipulation  | For copyright notice see file Copyright         |
\*---------------------------------------------------------------------------*/
FoamFile
{
    version     2.0;
    format      ascii;
    class       edgeScalarField;
    location    "83";
    object      q_f;
}
// * * * * * * * * * * * * * * * * * * * * * * * * * * * * * * * * * * * * * //

dimensions      [0 3 -1 0 0 0 0];

internalField   nonuniform List<scalar> 
299
(
8.01283e-06
5.52574e-06
4.5201e-06
4.4289e-06
4.3258e-06
4.27741e-06
4.22512e-06
4.20496e-06
4.19378e-06
4.20229e-06
4.21565e-06
4.23927e-06
4.26973e-06
4.30595e-06
4.34558e-06
4.39019e-06
4.43774e-06
4.48764e-06
4.53974e-06
4.59553e-06
4.65332e-06
4.71257e-06
4.77278e-06
4.83354e-06
4.89459e-06
4.95333e-06
5.00597e-06
5.05099e-06
5.08874e-06
5.12019e-06
5.14632e-06
5.168e-06
5.186e-06
5.20095e-06
5.21339e-06
5.22376e-06
5.23243e-06
5.2397e-06
5.2458e-06
5.25094e-06
5.25528e-06
5.25897e-06
5.26214e-06
5.26485e-06
5.26712e-06
5.26903e-06
5.27066e-06
5.27206e-06
5.27328e-06
5.27433e-06
5.27525e-06
5.27605e-06
5.27675e-06
5.27736e-06
5.27788e-06
5.27834e-06
5.27874e-06
5.27909e-06
5.27939e-06
5.27966e-06
5.27988e-06
5.28008e-06
5.28025e-06
5.2804e-06
5.28053e-06
5.28064e-06
5.28074e-06
5.28082e-06
5.28089e-06
5.28096e-06
5.28101e-06
5.28106e-06
5.2811e-06
5.28113e-06
5.28116e-06
5.28119e-06
5.28121e-06
5.28123e-06
5.28124e-06
5.28126e-06
5.28127e-06
5.28128e-06
5.28129e-06
5.2813e-06
5.28131e-06
5.28131e-06
5.28132e-06
5.28132e-06
5.28132e-06
5.28133e-06
5.28133e-06
5.28133e-06
5.28134e-06
5.28134e-06
5.28134e-06
5.28134e-06
5.28134e-06
5.28134e-06
5.28134e-06
5.28134e-06
5.28134e-06
5.28134e-06
5.28134e-06
5.28135e-06
5.28135e-06
5.28135e-06
5.28135e-06
5.28135e-06
5.28135e-06
5.28135e-06
5.28135e-06
5.28135e-06
5.28135e-06
5.28135e-06
5.28135e-06
5.28135e-06
5.28135e-06
5.28135e-06
5.28135e-06
5.28135e-06
5.28135e-06
5.28135e-06
5.28135e-06
5.28135e-06
5.28135e-06
5.28135e-06
5.28135e-06
5.28135e-06
5.28135e-06
5.28135e-06
5.28135e-06
5.28135e-06
5.28135e-06
5.28135e-06
5.28135e-06
5.28135e-06
5.28135e-06
5.28135e-06
5.28135e-06
5.28135e-06
5.28135e-06
5.28135e-06
5.28135e-06
5.28135e-06
5.28135e-06
5.28135e-06
5.28135e-06
5.28135e-06
5.28135e-06
5.28135e-06
5.28135e-06
5.28135e-06
5.28135e-06
5.28135e-06
5.28135e-06
5.28135e-06
5.28135e-06
5.28135e-06
5.28135e-06
5.28135e-06
5.28135e-06
5.28135e-06
5.28135e-06
5.28135e-06
5.28135e-06
5.28135e-06
5.28135e-06
5.28135e-06
5.28135e-06
5.28135e-06
5.28135e-06
5.28135e-06
5.28135e-06
5.28135e-06
5.28135e-06
5.28135e-06
5.28135e-06
5.28135e-06
5.28135e-06
5.28135e-06
5.28135e-06
5.28135e-06
5.28135e-06
5.28135e-06
5.28135e-06
5.28135e-06
5.28135e-06
5.28135e-06
5.28135e-06
5.28135e-06
5.28135e-06
5.28135e-06
5.28135e-06
5.28135e-06
5.28135e-06
5.28135e-06
5.28135e-06
5.28135e-06
5.28135e-06
5.28135e-06
5.28135e-06
5.28135e-06
5.28135e-06
5.28135e-06
5.28135e-06
5.28135e-06
5.28135e-06
5.28135e-06
5.28135e-06
5.28135e-06
5.28135e-06
5.28135e-06
5.28135e-06
5.28135e-06
5.28135e-06
5.28135e-06
5.28135e-06
5.28135e-06
5.28135e-06
5.28135e-06
5.28135e-06
5.28135e-06
5.28135e-06
5.28135e-06
5.28135e-06
5.28135e-06
5.28135e-06
5.28135e-06
5.28135e-06
5.28135e-06
5.28135e-06
5.28135e-06
5.28135e-06
5.28135e-06
5.28135e-06
5.28135e-06
5.28135e-06
5.28135e-06
5.28135e-06
5.28135e-06
5.28135e-06
5.28135e-06
5.28135e-06
5.28135e-06
5.28135e-06
5.28135e-06
5.28135e-06
5.28135e-06
5.28135e-06
5.28135e-06
5.28135e-06
5.28135e-06
5.28135e-06
5.28135e-06
5.28135e-06
5.28135e-06
5.28135e-06
5.28135e-06
5.28135e-06
5.28135e-06
5.28135e-06
5.28135e-06
5.28135e-06
5.28135e-06
5.28135e-06
5.28135e-06
5.28135e-06
5.28135e-06
5.28135e-06
5.28135e-06
5.28135e-06
5.28135e-06
5.28135e-06
5.28135e-06
5.28135e-06
5.28135e-06
5.28135e-06
5.28135e-06
5.28135e-06
5.28135e-06
5.28135e-06
5.28135e-06
5.28135e-06
5.28135e-06
5.28135e-06
5.28135e-06
5.28135e-06
5.28135e-06
5.28135e-06
5.28135e-06
5.28135e-06
5.28135e-06
5.28135e-06
5.28135e-06
5.28135e-06
5.28135e-06
5.28135e-06
5.28135e-06
5.28135e-06
)
;

boundaryField
{
    inlet
    {
        type            calculated;
        value           uniform 0;
    }
    outlet
    {
        type            calculated;
        value           uniform 0;
    }
    sideWall
    {
        type            empty;
    }
}


// ************************************************************************* //
