/*--------------------------------*- C++ -*----------------------------------*\
| =========                 |                                                 |
| \\      /  F ield         | foam-extend: Open Source CFD                    |
|  \\    /   O peration     | Version:     3.2                                |
|   \\  /    A nd           | Web:         http://www.foam-extend.org         |
|    \\/     M anipulation  | For copyright notice see file Copyright         |
\*---------------------------------------------------------------------------*/
FoamFile
{
    version     2.0;
    format      ascii;
    class       areaScalarField;
    location    "83";
    object      SSe1;
}
// * * * * * * * * * * * * * * * * * * * * * * * * * * * * * * * * * * * * * //

dimensions      [0 1 -2 -1 0 0 0];

internalField   nonuniform List<scalar> 
300
(
0.00261951
0.0013285
0.000842564
0.000847995
0.000807481
0.000808239
0.000789234
0.00078852
0.000781704
0.000784341
0.000784878
0.000789338
0.000793723
0.000800799
0.000807401
0.000815853
0.000824445
0.000834142
0.000843776
0.000854483
0.00086574
0.000877438
0.000889494
0.000901816
0.000914346
0.000927049
0.000938872
0.000949246
0.000958025
0.000965425
0.000971594
0.000976756
0.000981045
0.000984628
0.000987606
0.0009901
0.00099218
0.000993928
0.000995394
0.000996631
0.000997676
0.00099856
0.000999315
0.000999968
0.00100052
0.00100098
0.00100137
0.00100171
0.00100199
0.00100225
0.00100246
0.00100266
0.00100282
0.00100297
0.00100309
0.0010032
0.0010033
0.00100338
0.00100345
0.00100352
0.00100357
0.00100362
0.00100366
0.00100369
0.00100372
0.00100375
0.00100377
0.00100379
0.00100381
0.00100383
0.00100384
0.00100385
0.00100386
0.00100387
0.00100388
0.00100388
0.00100389
0.00100389
0.0010039
0.0010039
0.0010039
0.0010039
0.00100391
0.00100391
0.00100391
0.00100391
0.00100391
0.00100391
0.00100391
0.00100392
0.00100392
0.00100392
0.00100392
0.00100392
0.00100392
0.00100392
0.00100392
0.00100392
0.00100392
0.00100392
0.00100392
0.00100392
0.00100392
0.00100392
0.00100392
0.00100392
0.00100392
0.00100392
0.00100392
0.00100392
0.00100392
0.00100392
0.00100392
0.00100392
0.00100392
0.00100392
0.00100392
0.00100392
0.00100392
0.00100392
0.00100392
0.00100392
0.00100392
0.00100392
0.00100392
0.00100392
0.00100392
0.00100392
0.00100392
0.00100392
0.00100392
0.00100392
0.00100392
0.00100392
0.00100392
0.00100392
0.00100392
0.00100392
0.00100392
0.00100392
0.00100392
0.00100392
0.00100392
0.00100392
0.00100392
0.00100392
0.00100392
0.00100392
0.00100392
0.00100392
0.00100392
0.00100392
0.00100392
0.00100392
0.00100392
0.00100392
0.00100392
0.00100392
0.00100392
0.00100392
0.00100392
0.00100392
0.00100392
0.00100392
0.00100392
0.00100392
0.00100392
0.00100392
0.00100392
0.00100392
0.00100392
0.00100392
0.00100392
0.00100392
0.00100392
0.00100392
0.00100392
0.00100392
0.00100392
0.00100392
0.00100392
0.00100392
0.00100392
0.00100392
0.00100392
0.00100392
0.00100392
0.00100392
0.00100392
0.00100392
0.00100392
0.00100392
0.00100392
0.00100392
0.00100392
0.00100392
0.00100392
0.00100392
0.00100392
0.00100392
0.00100392
0.00100392
0.00100392
0.00100392
0.00100392
0.00100392
0.00100392
0.00100392
0.00100392
0.00100392
0.00100392
0.00100392
0.00100392
0.00100392
0.00100392
0.00100392
0.00100392
0.00100392
0.00100392
0.00100392
0.00100392
0.00100392
0.00100392
0.00100392
0.00100392
0.00100392
0.00100392
0.00100392
0.00100392
0.00100392
0.00100392
0.00100392
0.00100392
0.00100392
0.00100392
0.00100392
0.00100392
0.00100392
0.00100392
0.00100392
0.00100392
0.00100392
0.00100392
0.00100392
0.00100392
0.00100392
0.00100392
0.00100392
0.00100392
0.00100392
0.00100392
0.00100392
0.00100392
0.00100392
0.00100392
0.00100392
0.00100392
0.00100392
0.00100392
0.00100392
0.00100392
0.00100392
0.00100392
0.00100392
0.00100392
0.00100392
0.00100392
0.00100392
0.00100392
0.00100392
0.00100392
0.00100392
0.00100392
0.00100392
0.00100392
0.00100392
0.00100392
0.00100392
0.00100392
0.00100392
0.00100392
0.00100392
0.00100392
0.00100392
0.00100392
0.00100392
0.00100392
0.00100392
0.00100392
0.00100392
0.00100392
0.00100392
0.00100392
0.00100392
0.00100392
0.00100392
0.00100392
0.00100392
0.00100392
0.00100392
)
;

boundaryField
{
    inlet
    {
        type            calculated;
        value           uniform 0;
    }
    outlet
    {
        type            calculated;
        value           uniform 0;
    }
    sideWall
    {
        type            empty;
    }
}


// ************************************************************************* //
