/*--------------------------------*- C++ -*----------------------------------*\
| =========                 |                                                 |
| \\      /  F ield         | foam-extend: Open Source CFD                    |
|  \\    /   O peration     | Version:     3.2                                |
|   \\  /    A nd           | Web:         http://www.foam-extend.org         |
|    \\/     M anipulation  | For copyright notice see file Copyright         |
\*---------------------------------------------------------------------------*/
FoamFile
{
    version     2.0;
    format      ascii;
    class       areaScalarField;
    location    "83";
    object      tau;
}
// * * * * * * * * * * * * * * * * * * * * * * * * * * * * * * * * * * * * * //

dimensions      [1 1 2 0 0 0 0];

internalField   nonuniform List<scalar> 
300
(
8.66354
5.52978
4.09644
4.11378
3.98346
3.98592
3.92406
3.92173
3.89942
3.90805
3.90981
3.9244
3.93872
3.96176
3.98321
4.01057
4.03829
4.06946
4.10031
4.13446
4.1702
4.20719
4.24513
4.28374
4.32282
4.36225
4.39879
4.43073
4.45766
4.4803
4.49913
4.51486
4.5279
4.53879
4.54783
4.55538
4.56169
4.56698
4.57141
4.57515
4.57831
4.58098
4.58326
4.58524
4.5869
4.58829
4.58947
4.59048
4.59135
4.59211
4.59277
4.59335
4.59385
4.59429
4.59467
4.595
4.59529
4.59554
4.59575
4.59594
4.59611
4.59625
4.59637
4.59648
4.59657
4.59665
4.59672
4.59678
4.59683
4.59688
4.59692
4.59695
4.59698
4.59701
4.59703
4.59705
4.59706
4.59708
4.59709
4.5971
4.59711
4.59712
4.59712
4.59713
4.59713
4.59714
4.59714
4.59714
4.59715
4.59715
4.59715
4.59715
4.59715
4.59716
4.59716
4.59716
4.59716
4.59716
4.59716
4.59716
4.59716
4.59716
4.59716
4.59716
4.59716
4.59716
4.59716
4.59716
4.59716
4.59716
4.59716
4.59716
4.59716
4.59716
4.59716
4.59716
4.59716
4.59716
4.59716
4.59716
4.59716
4.59716
4.59716
4.59716
4.59716
4.59716
4.59716
4.59716
4.59716
4.59716
4.59716
4.59716
4.59716
4.59716
4.59716
4.59716
4.59716
4.59716
4.59716
4.59716
4.59716
4.59716
4.59716
4.59716
4.59716
4.59716
4.59716
4.59716
4.59716
4.59716
4.59716
4.59716
4.59716
4.59716
4.59716
4.59716
4.59716
4.59716
4.59716
4.59716
4.59716
4.59716
4.59716
4.59716
4.59716
4.59716
4.59716
4.59716
4.59716
4.59716
4.59716
4.59716
4.59716
4.59716
4.59716
4.59716
4.59716
4.59716
4.59716
4.59716
4.59716
4.59716
4.59716
4.59716
4.59716
4.59716
4.59716
4.59716
4.59716
4.59716
4.59716
4.59716
4.59716
4.59716
4.59716
4.59716
4.59716
4.59716
4.59716
4.59716
4.59716
4.59716
4.59716
4.59716
4.59716
4.59716
4.59716
4.59716
4.59716
4.59716
4.59716
4.59716
4.59716
4.59716
4.59716
4.59716
4.59716
4.59716
4.59716
4.59716
4.59716
4.59716
4.59716
4.59716
4.59716
4.59716
4.59716
4.59716
4.59716
4.59716
4.59716
4.59716
4.59716
4.59716
4.59716
4.59716
4.59716
4.59716
4.59716
4.59716
4.59716
4.59716
4.59716
4.59716
4.59716
4.59716
4.59716
4.59716
4.59716
4.59716
4.59716
4.59716
4.59716
4.59716
4.59716
4.59716
4.59716
4.59716
4.59716
4.59716
4.59716
4.59716
4.59716
4.59716
4.59716
4.59716
4.59716
4.59716
4.59716
4.59716
4.59716
4.59716
4.59716
4.59716
4.59716
4.59716
4.59716
4.59716
4.59716
4.59716
4.59716
4.59716
4.59716
4.59716
4.59716
4.59716
4.59716
4.59716
4.59716
4.59716
4.59716
4.59716
4.59716
4.59716
4.59716
4.59716
4.59716
4.59716
4.59717
4.59716
)
;

boundaryField
{
    inlet
    {
        type            calculated;
        value           uniform 0;
    }
    outlet
    {
        type            calculated;
        value           uniform 0;
    }
    sideWall
    {
        type            empty;
    }
}


// ************************************************************************* //
