/*--------------------------------*- C++ -*----------------------------------*\
| =========                 |                                                 |
| \\      /  F ield         | foam-extend: Open Source CFD                    |
|  \\    /   O peration     | Version:     3.2                                |
|   \\  /    A nd           | Web:         http://www.foam-extend.org         |
|    \\/     M anipulation  | For copyright notice see file Copyright         |
\*---------------------------------------------------------------------------*/
FoamFile
{
    version     2.0;
    format      ascii;
    class       volScalarField;
    location    "83";
    object      testS;
}
// * * * * * * * * * * * * * * * * * * * * * * * * * * * * * * * * * * * * * //

dimensions      [0 0 0 0 0 0 0];

internalField   uniform 0;

boundaryField
{
    inlet
    {
        type            calculated;
        value           uniform 0;
    }
    outlet
    {
        type            calculated;
        value           uniform 0;
    }
    sideWall
    {
        type            empty;
    }
    bed
    {
        type            calculated;
        value           nonuniform List<scalar> 
300
(
1.85845
0.942528
0.59777
0.601623
0.572879
0.573417
0.559934
0.559428
0.554592
0.556462
0.556843
0.560008
0.563119
0.568139
0.572823
0.57882
0.584915
0.591795
0.59863
0.606226
0.614212
0.622511
0.631065
0.639807
0.648697
0.657709
0.666097
0.673457
0.679685
0.684935
0.689312
0.692975
0.696017
0.698559
0.700672
0.702441
0.703917
0.705158
0.706198
0.707075
0.707816
0.708443
0.708979
0.709442
0.709833
0.710161
0.710437
0.710675
0.71088
0.711059
0.711214
0.711349
0.711467
0.71157
0.711659
0.711737
0.711805
0.711863
0.711915
0.711959
0.711998
0.712031
0.71206
0.712085
0.712107
0.712126
0.712143
0.712157
0.712169
0.71218
0.712189
0.712197
0.712203
0.712209
0.712214
0.712219
0.712223
0.712226
0.712229
0.712231
0.712233
0.712235
0.712237
0.712238
0.712239
0.71224
0.712241
0.712242
0.712242
0.712243
0.712243
0.712244
0.712244
0.712244
0.712245
0.712245
0.712245
0.712245
0.712245
0.712245
0.712246
0.712246
0.712246
0.712246
0.712246
0.712246
0.712246
0.712246
0.712246
0.712246
0.712246
0.712246
0.712246
0.712246
0.712246
0.712246
0.712246
0.712246
0.712246
0.712246
0.712246
0.712246
0.712246
0.712246
0.712246
0.712246
0.712246
0.712246
0.712246
0.712246
0.712246
0.712246
0.712246
0.712246
0.712246
0.712246
0.712246
0.712246
0.712246
0.712246
0.712246
0.712246
0.712246
0.712246
0.712246
0.712246
0.712246
0.712246
0.712246
0.712246
0.712246
0.712246
0.712246
0.712246
0.712246
0.712246
0.712246
0.712246
0.712246
0.712246
0.712246
0.712246
0.712246
0.712246
0.712246
0.712246
0.712246
0.712246
0.712246
0.712246
0.712246
0.712246
0.712246
0.712246
0.712246
0.712246
0.712246
0.712246
0.712246
0.712246
0.712246
0.712246
0.712246
0.712246
0.712246
0.712246
0.712246
0.712246
0.712246
0.712246
0.712246
0.712246
0.712246
0.712246
0.712246
0.712246
0.712246
0.712246
0.712246
0.712246
0.712246
0.712246
0.712246
0.712246
0.712246
0.712246
0.712246
0.712246
0.712246
0.712246
0.712246
0.712246
0.712246
0.712246
0.712246
0.712246
0.712246
0.712246
0.712246
0.712246
0.712246
0.712246
0.712246
0.712246
0.712246
0.712246
0.712246
0.712246
0.712246
0.712246
0.712246
0.712246
0.712246
0.712246
0.712246
0.712246
0.712246
0.712246
0.712246
0.712246
0.712246
0.712246
0.712246
0.712246
0.712246
0.712246
0.712246
0.712246
0.712246
0.712246
0.712246
0.712246
0.712246
0.712246
0.712246
0.712246
0.712246
0.712246
0.712246
0.712246
0.712246
0.712246
0.712246
0.712246
0.712246
0.712246
0.712246
0.712246
0.712246
0.712246
0.712246
0.712246
0.712246
0.712246
0.712246
0.712246
0.712246
0.712246
0.712246
0.712246
0.712246
0.712246
0.712246
0.712246
0.712246
0.712246
0.712246
0.712246
0.712246
0.712246
0.712246
0.712246
0.712246
0.712246
0.712246
0.712246
0.712246
0.712246
0.712248
0.712245
)
;
    }
    topWall
    {
        type            calculated;
        value           uniform 0;
    }
}


// ************************************************************************* //
