/*--------------------------------*- C++ -*----------------------------------*\
| =========                 |                                                 |
| \\      /  F ield         | foam-extend: Open Source CFD                    |
|  \\    /   O peration     | Version:     3.2                                |
|   \\  /    A nd           | Web:         http://www.foam-extend.org         |
|    \\/     M anipulation  | For copyright notice see file Copyright         |
\*---------------------------------------------------------------------------*/
FoamFile
{
    version     2.0;
    format      ascii;
    class       areaScalarField;
    location    "83";
    object      thetaSS2;
}
// * * * * * * * * * * * * * * * * * * * * * * * * * * * * * * * * * * * * * //

dimensions      [0 0 0 0 0 0 0];

internalField   nonuniform List<scalar> 
300
(
14.6457
9.34807
6.925
6.95432
6.73402
6.73818
6.63361
6.62966
6.59194
6.60654
6.60952
6.63418
6.65838
6.69734
6.73359
6.77985
6.82671
6.8794
6.93155
6.98927
7.0497
7.11223
7.17637
7.24164
7.30769
7.37436
7.43613
7.49012
7.53565
7.57393
7.60576
7.63235
7.6544
7.6728
7.68807
7.70085
7.7115
7.72045
7.72795
7.73427
7.73961
7.74412
7.74798
7.75131
7.75413
7.75648
7.75847
7.76018
7.76166
7.76294
7.76406
7.76503
7.76588
7.76662
7.76726
7.76782
7.7683
7.76873
7.76909
7.76941
7.76969
7.76993
7.77014
7.77032
7.77048
7.77061
7.77073
7.77083
7.77092
7.771
7.77106
7.77112
7.77117
7.77121
7.77125
7.77128
7.77131
7.77133
7.77135
7.77137
7.77138
7.7714
7.77141
7.77142
7.77143
7.77143
7.77144
7.77144
7.77145
7.77145
7.77146
7.77146
7.77146
7.77146
7.77147
7.77147
7.77147
7.77147
7.77147
7.77147
7.77147
7.77147
7.77147
7.77147
7.77147
7.77148
7.77148
7.77148
7.77148
7.77148
7.77148
7.77148
7.77148
7.77148
7.77148
7.77148
7.77148
7.77148
7.77148
7.77148
7.77148
7.77148
7.77148
7.77148
7.77148
7.77148
7.77148
7.77148
7.77148
7.77148
7.77148
7.77148
7.77148
7.77148
7.77148
7.77148
7.77148
7.77148
7.77148
7.77148
7.77148
7.77148
7.77148
7.77148
7.77148
7.77148
7.77148
7.77148
7.77148
7.77148
7.77148
7.77148
7.77148
7.77148
7.77148
7.77148
7.77148
7.77148
7.77148
7.77148
7.77148
7.77148
7.77148
7.77148
7.77148
7.77148
7.77148
7.77148
7.77148
7.77148
7.77148
7.77148
7.77148
7.77148
7.77148
7.77148
7.77148
7.77148
7.77148
7.77148
7.77148
7.77148
7.77148
7.77148
7.77148
7.77148
7.77148
7.77148
7.77148
7.77148
7.77148
7.77148
7.77148
7.77148
7.77148
7.77148
7.77148
7.77148
7.77148
7.77148
7.77148
7.77148
7.77148
7.77148
7.77148
7.77148
7.77148
7.77148
7.77148
7.77148
7.77148
7.77148
7.77148
7.77148
7.77148
7.77148
7.77148
7.77148
7.77148
7.77148
7.77148
7.77148
7.77148
7.77148
7.77148
7.77148
7.77148
7.77148
7.77148
7.77148
7.77148
7.77148
7.77148
7.77148
7.77148
7.77148
7.77148
7.77148
7.77148
7.77148
7.77148
7.77148
7.77148
7.77148
7.77148
7.77148
7.77148
7.77148
7.77148
7.77148
7.77148
7.77148
7.77148
7.77148
7.77148
7.77148
7.77148
7.77148
7.77148
7.77148
7.77148
7.77148
7.77148
7.77148
7.77148
7.77148
7.77148
7.77148
7.77148
7.77148
7.77148
7.77148
7.77148
7.77148
7.77148
7.77148
7.77148
7.77148
7.77148
7.77148
7.77148
7.77148
7.77148
7.77148
7.77148
7.77148
7.77148
7.77148
7.77148
7.77148
7.77148
7.77148
7.77148
7.77148
7.77148
7.77148
7.77148
7.77148
7.77149
7.77147
)
;

boundaryField
{
    inlet
    {
        type            calculated;
        value           uniform 0;
    }
    outlet
    {
        type            calculated;
        value           uniform 0;
    }
    sideWall
    {
        type            empty;
    }
}


// ************************************************************************* //
