/*--------------------------------*- C++ -*----------------------------------*\
| =========                 |                                                 |
| \\      /  F ield         | foam-extend: Open Source CFD                    |
|  \\    /   O peration     | Version:     3.2                                |
|   \\  /    A nd           | Web:         http://www.foam-extend.org         |
|    \\/     M anipulation  | For copyright notice see file Copyright         |
\*---------------------------------------------------------------------------*/
FoamFile
{
    version     2.0;
    format      ascii;
    class       areaScalarField;
    location    "83";
    object      thetaSS1;
}
// * * * * * * * * * * * * * * * * * * * * * * * * * * * * * * * * * * * * * //

dimensions      [0 0 0 0 0 0 0];

internalField   nonuniform List<scalar> 
300
(
22.1004
14.1063
10.4499
10.4941
10.1617
10.168
10.0102
10.0042
9.9473
9.96933
9.97382
10.011
10.0476
10.1063
10.161
10.2309
10.3016
10.3811
10.4598
10.5469
10.6381
10.7324
10.8292
10.9277
11.0274
11.128
11.2212
11.3027
11.3714
11.4291
11.4772
11.5173
11.5506
11.5783
11.6014
11.6207
11.6367
11.6502
11.6615
11.6711
11.6791
11.686
11.6918
11.6968
11.701
11.7046
11.7076
11.7102
11.7124
11.7143
11.716
11.7175
11.7188
11.7199
11.7209
11.7217
11.7224
11.7231
11.7236
11.7241
11.7245
11.7249
11.7252
11.7255
11.7257
11.7259
11.7261
11.7263
11.7264
11.7265
11.7266
11.7267
11.7268
11.7268
11.7269
11.7269
11.727
11.727
11.727
11.7271
11.7271
11.7271
11.7271
11.7271
11.7272
11.7272
11.7272
11.7272
11.7272
11.7272
11.7272
11.7272
11.7272
11.7272
11.7272
11.7272
11.7272
11.7272
11.7272
11.7272
11.7272
11.7272
11.7272
11.7272
11.7272
11.7272
11.7272
11.7272
11.7272
11.7272
11.7272
11.7272
11.7272
11.7272
11.7272
11.7272
11.7272
11.7272
11.7272
11.7272
11.7272
11.7272
11.7272
11.7272
11.7272
11.7272
11.7272
11.7272
11.7272
11.7272
11.7272
11.7272
11.7272
11.7272
11.7272
11.7272
11.7272
11.7272
11.7272
11.7272
11.7272
11.7272
11.7272
11.7272
11.7272
11.7272
11.7272
11.7272
11.7272
11.7272
11.7272
11.7272
11.7272
11.7272
11.7272
11.7272
11.7272
11.7272
11.7272
11.7272
11.7272
11.7272
11.7272
11.7272
11.7272
11.7272
11.7272
11.7272
11.7272
11.7272
11.7272
11.7272
11.7272
11.7272
11.7272
11.7272
11.7272
11.7272
11.7272
11.7272
11.7272
11.7272
11.7272
11.7272
11.7272
11.7272
11.7272
11.7272
11.7272
11.7272
11.7272
11.7272
11.7272
11.7272
11.7272
11.7272
11.7272
11.7272
11.7272
11.7272
11.7272
11.7272
11.7272
11.7272
11.7272
11.7272
11.7272
11.7272
11.7272
11.7272
11.7272
11.7272
11.7272
11.7272
11.7272
11.7272
11.7272
11.7272
11.7272
11.7272
11.7272
11.7272
11.7272
11.7272
11.7272
11.7272
11.7272
11.7272
11.7272
11.7272
11.7272
11.7272
11.7272
11.7272
11.7272
11.7272
11.7272
11.7272
11.7272
11.7272
11.7272
11.7272
11.7272
11.7272
11.7272
11.7272
11.7272
11.7272
11.7272
11.7272
11.7272
11.7272
11.7272
11.7272
11.7272
11.7272
11.7272
11.7272
11.7272
11.7272
11.7272
11.7272
11.7272
11.7272
11.7272
11.7272
11.7272
11.7272
11.7272
11.7272
11.7272
11.7272
11.7272
11.7272
11.7272
11.7272
11.7272
11.7272
11.7272
11.7272
11.7272
11.7272
11.7272
11.7272
11.7272
11.7272
11.7272
11.7272
11.7272
11.7272
11.7272
11.7272
11.7272
11.7272
11.7272
11.7272
11.7272
11.7272
11.7272
11.7272
)
;

boundaryField
{
    inlet
    {
        type            calculated;
        value           uniform 0;
    }
    outlet
    {
        type            calculated;
        value           uniform 0;
    }
    sideWall
    {
        type            empty;
    }
}


// ************************************************************************* //
