/*--------------------------------*- C++ -*----------------------------------*\
| =========                 |                                                 |
| \\      /  F ield         | foam-extend: Open Source CFD                    |
|  \\    /   O peration     | Version:     3.2                                |
|   \\  /    A nd           | Web:         http://www.foam-extend.org         |
|    \\/     M anipulation  | For copyright notice see file Copyright         |
\*---------------------------------------------------------------------------*/
FoamFile
{
    version     2.0;
    format      ascii;
    class       areaScalarField;
    location    "83";
    object      thetaSS1init;
}
// * * * * * * * * * * * * * * * * * * * * * * * * * * * * * * * * * * * * * //

dimensions      [0 0 0 0 0 0 0];

internalField   nonuniform List<scalar> 
300
(
22.1126
14.0592
10.4901
10.5504
10.225
10.1991
10.0237
10.0081
9.95287
9.97071
9.9778
10.012
10.0518
10.1066
10.1654
10.2318
10.3051
10.3829
10.4626
10.549
10.6407
10.7347
10.8317
10.93
11.0299
11.1303
11.2234
11.3045
11.373
11.4305
11.4785
11.5185
11.5517
11.5794
11.6024
11.6215
11.6375
11.6509
11.6621
11.6715
11.6794
11.6861
11.6919
11.6969
11.7011
11.7046
11.7076
11.7102
11.7124
11.7143
11.716
11.7175
11.7188
11.7199
11.7209
11.7217
11.7224
11.7231
11.7236
11.7241
11.7245
11.7249
11.7252
11.7255
11.7257
11.7259
11.7261
11.7263
11.7264
11.7265
11.7266
11.7267
11.7268
11.7268
11.7269
11.7269
11.727
11.727
11.727
11.7271
11.7271
11.7271
11.7271
11.7271
11.7271
11.7271
11.7272
11.7272
11.7272
11.7272
11.7272
11.7272
11.7272
11.7272
11.7272
11.7272
11.7272
11.7272
11.7272
11.7272
11.7272
11.7272
11.7272
11.7272
11.7272
11.7272
11.7272
11.7272
11.7272
11.7272
11.7272
11.7272
11.7272
11.7272
11.7272
11.7272
11.7272
11.7272
11.7272
11.7272
11.7272
11.7272
11.7272
11.7272
11.7272
11.7272
11.7272
11.7272
11.7272
11.7272
11.7272
11.7272
11.7272
11.7272
11.7272
11.7272
11.7272
11.7272
11.7272
11.7272
11.7272
11.7272
11.7272
11.7272
11.7272
11.7272
11.7272
11.7272
11.7272
11.7272
11.7272
11.7272
11.7272
11.7272
11.7272
11.7272
11.7272
11.7272
11.7272
11.7272
11.7272
11.7272
11.7272
11.7272
11.7272
11.7272
11.7272
11.7272
11.7272
11.7272
11.7272
11.7272
11.7272
11.7272
11.7272
11.7272
11.7272
11.7272
11.7272
11.7272
11.7272
11.7272
11.7272
11.7272
11.7272
11.7272
11.7272
11.7272
11.7272
11.7272
11.7272
11.7272
11.7272
11.7272
11.7272
11.7272
11.7272
11.7272
11.7272
11.7272
11.7272
11.7272
11.7272
11.7272
11.7272
11.7272
11.7272
11.7272
11.7272
11.7272
11.7272
11.7272
11.7272
11.7272
11.7272
11.7272
11.7272
11.7272
11.7272
11.7272
11.7272
11.7272
11.7272
11.7272
11.7272
11.7272
11.7272
11.7272
11.7272
11.7272
11.7272
11.7272
11.7272
11.7272
11.7272
11.7272
11.7272
11.7272
11.7272
11.7272
11.7272
11.7272
11.7272
11.7272
11.7272
11.7272
11.7272
11.7272
11.7272
11.7272
11.7272
11.7272
11.7272
11.7272
11.7272
11.7272
11.7272
11.7272
11.7272
11.7272
11.7272
11.7272
11.7272
11.7272
11.7272
11.7272
11.7272
11.7272
11.7272
11.7272
11.7272
11.7272
11.7272
11.7272
11.7272
11.7272
11.7272
11.7272
11.7272
11.7272
11.7272
11.7272
11.7272
11.7272
11.7272
11.7272
11.7272
11.7272
11.7272
11.7272
11.7272
11.7272
11.7272
11.7272
11.7272
11.7272
11.7272
11.7272
11.7272
11.7272
)
;

boundaryField
{
    inlet
    {
        type            calculated;
        value           uniform 0;
    }
    outlet
    {
        type            calculated;
        value           uniform 0;
    }
    sideWall
    {
        type            empty;
    }
}


// ************************************************************************* //
