/*--------------------------------*- C++ -*----------------------------------*\
| =========                 |                                                 |
| \\      /  F ield         | foam-extend: Open Source CFD                    |
|  \\    /   O peration     | Version:     3.2                                |
|   \\  /    A nd           | Web:         http://www.foam-extend.org         |
|    \\/     M anipulation  | For copyright notice see file Copyright         |
\*---------------------------------------------------------------------------*/
FoamFile
{
    version     2.0;
    format      ascii;
    class       areaScalarField;
    location    "83";
    object      thetaBinit;
}
// * * * * * * * * * * * * * * * * * * * * * * * * * * * * * * * * * * * * * //

dimensions      [0 0 0 0 0 0 0];

internalField   nonuniform List<scalar> 
300
(
0.632603
0.40221
0.300104
0.301829
0.292519
0.291778
0.286759
0.286313
0.284734
0.285244
0.285447
0.286424
0.287564
0.289133
0.290815
0.292713
0.29481
0.297036
0.299315
0.30179
0.304412
0.307101
0.309877
0.312687
0.315546
0.318419
0.321081
0.323401
0.325361
0.327007
0.328379
0.329523
0.330474
0.331266
0.331924
0.332472
0.332929
0.333311
0.333631
0.3339
0.334128
0.33432
0.334485
0.334627
0.334748
0.334849
0.334934
0.335008
0.335071
0.335127
0.335175
0.335217
0.335253
0.335285
0.335313
0.335337
0.335358
0.335377
0.335393
0.335406
0.335418
0.335429
0.335438
0.335446
0.335452
0.335458
0.335463
0.335468
0.335472
0.335475
0.335478
0.33548
0.335482
0.335484
0.335486
0.335487
0.335488
0.335489
0.33549
0.33549
0.335491
0.335492
0.335492
0.335493
0.335493
0.335493
0.335493
0.335494
0.335494
0.335494
0.335494
0.335494
0.335494
0.335494
0.335494
0.335494
0.335494
0.335494
0.335494
0.335494
0.335495
0.335495
0.335495
0.335495
0.335495
0.335495
0.335495
0.335495
0.335495
0.335495
0.335495
0.335495
0.335495
0.335495
0.335495
0.335495
0.335495
0.335495
0.335495
0.335495
0.335495
0.335495
0.335495
0.335495
0.335495
0.335495
0.335495
0.335495
0.335495
0.335495
0.335495
0.335495
0.335495
0.335495
0.335495
0.335495
0.335495
0.335495
0.335495
0.335495
0.335495
0.335495
0.335495
0.335495
0.335495
0.335495
0.335495
0.335495
0.335495
0.335495
0.335495
0.335495
0.335495
0.335495
0.335495
0.335495
0.335495
0.335495
0.335495
0.335495
0.335495
0.335495
0.335495
0.335495
0.335495
0.335495
0.335495
0.335495
0.335495
0.335495
0.335495
0.335495
0.335495
0.335495
0.335495
0.335495
0.335495
0.335495
0.335495
0.335495
0.335495
0.335495
0.335495
0.335495
0.335495
0.335495
0.335495
0.335495
0.335495
0.335495
0.335495
0.335495
0.335495
0.335495
0.335495
0.335495
0.335495
0.335495
0.335495
0.335495
0.335495
0.335495
0.335495
0.335495
0.335495
0.335495
0.335495
0.335495
0.335495
0.335495
0.335495
0.335495
0.335495
0.335495
0.335495
0.335495
0.335495
0.335495
0.335495
0.335495
0.335495
0.335495
0.335495
0.335495
0.335495
0.335495
0.335495
0.335495
0.335495
0.335495
0.335495
0.335495
0.335495
0.335495
0.335495
0.335495
0.335495
0.335495
0.335495
0.335495
0.335495
0.335495
0.335495
0.335495
0.335495
0.335495
0.335495
0.335495
0.335495
0.335495
0.335495
0.335495
0.335495
0.335495
0.335495
0.335495
0.335495
0.335495
0.335495
0.335495
0.335495
0.335495
0.335495
0.335495
0.335495
0.335495
0.335495
0.335495
0.335495
0.335495
0.335495
0.335495
0.335495
0.335495
0.335495
0.335495
0.335495
0.335495
0.335495
0.335495
0.335495
0.335495
0.335495
0.335495
0.335495
0.335495
0.335495
0.335495
0.335495
0.335495
0.335495
0.335495
0.335495
0.335495
0.335495
0.335495
0.335495
0.335495
0.335495
0.335494
)
;

boundaryField
{
    inlet
    {
        type            calculated;
        value           uniform 0;
    }
    outlet
    {
        type            calculated;
        value           uniform 0;
    }
    sideWall
    {
        type            empty;
    }
}


// ************************************************************************* //
