/*--------------------------------*- C++ -*----------------------------------*\
| =========                 |                                                 |
| \\      /  F ield         | foam-extend: Open Source CFD                    |
|  \\    /   O peration     | Version:     3.2                                |
|   \\  /    A nd           | Web:         http://www.foam-extend.org         |
|    \\/     M anipulation  | For copyright notice see file Copyright         |
\*---------------------------------------------------------------------------*/
FoamFile
{
    version     2.0;
    format      ascii;
    class       areaScalarField;
    location    "83";
    object      thetaB;
}
// * * * * * * * * * * * * * * * * * * * * * * * * * * * * * * * * * * * * * //

dimensions      [0 0 0 0 0 0 0];

internalField   nonuniform List<scalar> 
300
(
0.632255
0.403557
0.298953
0.300219
0.290708
0.290888
0.286374
0.286203
0.284575
0.285205
0.285334
0.286398
0.287443
0.289125
0.29069
0.292687
0.29471
0.296984
0.299236
0.301728
0.304336
0.307036
0.309805
0.312622
0.315474
0.318352
0.321019
0.323349
0.325315
0.326967
0.328341
0.329489
0.330441
0.331235
0.331895
0.332447
0.332906
0.333293
0.333616
0.333889
0.33412
0.334315
0.334481
0.334625
0.334747
0.334848
0.334934
0.335008
0.335072
0.335127
0.335175
0.335217
0.335254
0.335286
0.335313
0.335337
0.335358
0.335377
0.335393
0.335406
0.335418
0.335429
0.335438
0.335446
0.335452
0.335458
0.335463
0.335468
0.335472
0.335475
0.335478
0.33548
0.335482
0.335484
0.335486
0.335487
0.335488
0.335489
0.33549
0.335491
0.335491
0.335492
0.335492
0.335493
0.335493
0.335494
0.335494
0.335494
0.335494
0.335494
0.335495
0.335495
0.335495
0.335495
0.335495
0.335495
0.335495
0.335495
0.335495
0.335495
0.335495
0.335495
0.335495
0.335495
0.335495
0.335495
0.335495
0.335495
0.335495
0.335495
0.335495
0.335495
0.335495
0.335495
0.335495
0.335495
0.335495
0.335495
0.335495
0.335495
0.335495
0.335495
0.335495
0.335495
0.335495
0.335495
0.335495
0.335495
0.335495
0.335495
0.335495
0.335495
0.335495
0.335495
0.335495
0.335495
0.335495
0.335495
0.335495
0.335495
0.335495
0.335495
0.335495
0.335495
0.335495
0.335495
0.335495
0.335495
0.335495
0.335495
0.335495
0.335495
0.335495
0.335495
0.335495
0.335495
0.335495
0.335495
0.335495
0.335495
0.335495
0.335495
0.335495
0.335495
0.335495
0.335495
0.335495
0.335495
0.335495
0.335495
0.335495
0.335495
0.335495
0.335495
0.335495
0.335495
0.335495
0.335495
0.335495
0.335495
0.335495
0.335495
0.335495
0.335495
0.335495
0.335495
0.335495
0.335495
0.335495
0.335495
0.335495
0.335495
0.335495
0.335495
0.335495
0.335495
0.335495
0.335495
0.335495
0.335495
0.335495
0.335495
0.335495
0.335495
0.335495
0.335495
0.335495
0.335495
0.335495
0.335495
0.335495
0.335495
0.335495
0.335495
0.335495
0.335495
0.335495
0.335495
0.335495
0.335495
0.335495
0.335495
0.335495
0.335495
0.335495
0.335495
0.335495
0.335495
0.335495
0.335495
0.335495
0.335495
0.335495
0.335495
0.335495
0.335495
0.335495
0.335495
0.335495
0.335495
0.335495
0.335495
0.335495
0.335495
0.335495
0.335495
0.335495
0.335495
0.335495
0.335495
0.335495
0.335495
0.335495
0.335495
0.335495
0.335495
0.335495
0.335495
0.335495
0.335495
0.335495
0.335495
0.335495
0.335495
0.335495
0.335495
0.335495
0.335495
0.335495
0.335495
0.335495
0.335495
0.335495
0.335495
0.335495
0.335495
0.335495
0.335495
0.335495
0.335495
0.335495
0.335495
0.335495
0.335495
0.335495
0.335495
0.335495
0.335495
0.335495
0.335495
0.335495
0.335495
0.335495
0.335495
0.335495
0.335495
0.335495
0.335496
0.335496
0.335495
)
;

boundaryField
{
    inlet
    {
        type            calculated;
        value           uniform 0;
    }
    outlet
    {
        type            calculated;
        value           uniform 0;
    }
    sideWall
    {
        type            empty;
    }
}


// ************************************************************************* //
