/*--------------------------------*- C++ -*----------------------------------*\
| =========                 |                                                 |
| \\      /  F ield         | foam-extend: Open Source CFD                    |
|  \\    /   O peration     | Version:     3.2                                |
|   \\  /    A nd           | Web:         http://www.foam-extend.org         |
|    \\/     M anipulation  | For copyright notice see file Copyright         |
\*---------------------------------------------------------------------------*/
FoamFile
{
    version     2.0;
    format      ascii;
    class       areaScalarField;
    location    "83";
    object      thetaSS2init;
}
// * * * * * * * * * * * * * * * * * * * * * * * * * * * * * * * * * * * * * //

dimensions      [0 0 0 0 0 0 0];

internalField   nonuniform List<scalar> 
300
(
14.6537
9.31685
6.95166
6.99162
6.77597
6.75879
6.64254
6.63221
6.59564
6.60745
6.61215
6.63479
6.66119
6.69753
6.73648
6.78046
6.82904
6.88059
6.93339
6.99071
7.05145
7.11373
7.17804
7.24314
7.30937
7.37591
7.43759
7.49132
7.53673
7.57484
7.60662
7.63314
7.65517
7.67351
7.68874
7.70144
7.71202
7.72087
7.72829
7.73453
7.7398
7.74425
7.74807
7.75137
7.75416
7.7565
7.75847
7.76018
7.76165
7.76294
7.76405
7.76502
7.76587
7.76661
7.76725
7.76781
7.7683
7.76872
7.76909
7.76941
7.76969
7.76993
7.77014
7.77032
7.77048
7.77062
7.77073
7.77084
7.77092
7.771
7.77107
7.77112
7.77117
7.77121
7.77125
7.77128
7.7713
7.77133
7.77135
7.77136
7.77138
7.77139
7.7714
7.77141
7.77142
7.77142
7.77143
7.77143
7.77144
7.77144
7.77144
7.77144
7.77145
7.77145
7.77145
7.77145
7.77145
7.77145
7.77145
7.77145
7.77146
7.77146
7.77146
7.77146
7.77146
7.77146
7.77146
7.77146
7.77146
7.77146
7.77146
7.77146
7.77146
7.77146
7.77146
7.77147
7.77147
7.77147
7.77147
7.77147
7.77147
7.77147
7.77146
7.77146
7.77146
7.77146
7.77146
7.77146
7.77146
7.77146
7.77146
7.77146
7.77146
7.77146
7.77146
7.77146
7.77146
7.77146
7.77146
7.77146
7.77146
7.77146
7.77146
7.77146
7.77146
7.77146
7.77146
7.77146
7.77146
7.77146
7.77146
7.77146
7.77146
7.77146
7.77146
7.77146
7.77146
7.77146
7.77146
7.77146
7.77146
7.77146
7.77146
7.77146
7.77146
7.77146
7.77146
7.77146
7.77146
7.77146
7.77146
7.77146
7.77146
7.77146
7.77146
7.77146
7.77146
7.77146
7.77146
7.77146
7.77146
7.77146
7.77146
7.77146
7.77146
7.77146
7.77146
7.77146
7.77146
7.77146
7.77146
7.77146
7.77146
7.77146
7.77146
7.77146
7.77146
7.77146
7.77146
7.77146
7.77146
7.77146
7.77146
7.77146
7.77146
7.77146
7.77146
7.77146
7.77146
7.77146
7.77146
7.77146
7.77146
7.77146
7.77146
7.77146
7.77146
7.77146
7.77146
7.77146
7.77146
7.77146
7.77146
7.77146
7.77146
7.77146
7.77146
7.77146
7.77146
7.77146
7.77146
7.77146
7.77146
7.77146
7.77146
7.77146
7.77146
7.77146
7.77146
7.77146
7.77146
7.77146
7.77146
7.77146
7.77146
7.77146
7.77146
7.77146
7.77146
7.77146
7.77146
7.77146
7.77146
7.77146
7.77146
7.77146
7.77146
7.77146
7.77146
7.77146
7.77146
7.77146
7.77146
7.77146
7.77146
7.77146
7.77146
7.77146
7.77146
7.77146
7.77146
7.77146
7.77146
7.77146
7.77146
7.77146
7.77146
7.77146
7.77146
7.77146
7.77146
7.77146
7.77146
7.77146
7.77146
7.77146
7.77146
7.77146
7.77146
7.77146
7.77146
7.77146
7.77146
7.77146
7.77146
7.77146
7.77146
7.77146
7.77147
7.77145
)
;

boundaryField
{
    inlet
    {
        type            calculated;
        value           uniform 0;
    }
    outlet
    {
        type            calculated;
        value           uniform 0;
    }
    sideWall
    {
        type            empty;
    }
}


// ************************************************************************* //
