/*--------------------------------*- C++ -*----------------------------------*\
| =========                 |                                                 |
| \\      /  F ield         | foam-extend: Open Source CFD                    |
|  \\    /   O peration     | Version:     3.2                                |
|   \\  /    A nd           | Web:         http://www.foam-extend.org         |
|    \\/     M anipulation  | For copyright notice see file Copyright         |
\*---------------------------------------------------------------------------*/
FoamFile
{
    version     2.0;
    format      ascii;
    class       volVectorField;
    location    "83";
    object      U;
}
// * * * * * * * * * * * * * * * * * * * * * * * * * * * * * * * * * * * * * //

dimensions      [0 1 -1 0 0 0 0];

internalField   nonuniform List<vector> 
5400
(
(0.332972 -5.28808e-26 0.0077396)
(0.215924 6.64243e-26 2.36768e-05)
(0.18455 2.64729e-26 -0.000989161)
(0.189303 0 -0.00101122)
(0.185532 -3.17482e-27 -0.000973035)
(0.186036 -2.663e-27 -0.000942202)
(0.184222 -3.40489e-27 -0.00093839)
(0.184313 -1.07441e-27 -0.000924955)
(0.183621 0 -0.000928024)
(0.183871 -2.79198e-28 -0.000922135)
(0.183817 0 -0.000926205)
(0.184145 1.36797e-29 -0.000924603)
(0.184404 -1.98535e-28 -0.000928601)
(0.184937 -5.00602e-28 -0.000929791)
(0.185365 0 -0.00093253)
(0.185978 0 -0.000935409)
(0.186572 0 -0.000938687)
(0.187257 5.70234e-28 -0.000941709)
(0.187915 0 -0.000945566)
(0.188671 0 -0.000949527)
(0.189458 0 -0.000953484)
(0.190272 7.96884e-28 -0.000957454)
(0.191106 0 -0.000961686)
(0.191956 0 -0.000965801)
(0.192816 0 -0.00096996)
(0.193692 9.14249e-28 -0.000973892)
(0.194503 -8.45698e-28 -0.00097717)
(0.195208 0 -0.000979712)
(0.195801 0 -0.000981879)
(0.196299 5.54581e-28 -0.00098371)
(0.196713 -4.72729e-28 -0.000985301)
(0.197059 0 -0.000986641)
(0.197345 0 -0.000987795)
(0.197584 0 -0.000988761)
(0.197782 -2.37592e-28 -0.000989588)
(0.197948 0 -0.00099028)
(0.198085 0 -0.000990871)
(0.1982 0 -0.000991366)
(0.198296 0 -0.000991789)
(0.198378 0 -0.000992143)
(0.198446 0 -0.000992448)
(0.198504 -2.66521e-43 -0.000992707)
(0.198554 0 -0.000992936)
(0.198597 0 -0.00099312)
(0.198633 0 -0.000993277)
(0.198663 0 -0.000993409)
(0.198689 1.8504e-35 -0.000993529)
(0.198711 0 -0.000993629)
(0.19873 0 -0.000993716)
(0.198746 0 -0.000993791)
(0.198761 0 -0.000993857)
(0.198773 -2.67929e-43 -0.000993913)
(0.198784 0 -0.000993963)
(0.198794 1.14231e-29 -0.000994005)
(0.198802 0 -0.000994042)
(0.198809 0 -0.000994074)
(0.198816 -2.68138e-43 -0.000994102)
(0.198821 0 -0.000994126)
(0.198826 -5.60238e-30 -0.000994147)
(0.19883 0 -0.000994166)
(0.198833 0 -0.000994181)
(0.198837 3.64604e-30 -0.000994195)
(0.198839 0 -0.000994207)
(0.198842 -2.68265e-43 -0.000994217)
(0.198844 0 -0.000994226)
(0.198845 0 -0.000994233)
(0.198847 -2.68291e-43 -0.00099424)
(0.198848 0 -0.000994246)
(0.198849 -2.68303e-43 -0.000994251)
(0.19885 0 -0.000994255)
(0.198851 -9.90552e-31 -0.000994259)
(0.198852 -2.68316e-43 -0.000994262)
(0.198852 0 -0.000994264)
(0.198853 6.37842e-31 -0.000994267)
(0.198853 0 -0.000994269)
(0.198854 0 -0.000994271)
(0.198854 -2.68327e-43 -0.000994272)
(0.198854 0 -0.000994273)
(0.198855 -2.6833e-43 -0.000994275)
(0.198855 0 -0.000994276)
(0.198855 0 -0.000994276)
(0.198855 0 -0.000994277)
(0.198855 0 -0.000994278)
(0.198856 0 -0.000994278)
(0.198856 0 -0.000994279)
(0.198856 -1.07697e-31 -0.000994279)
(0.198856 0 -0.00099428)
(0.198856 0 -0.00099428)
(0.198856 6.86547e-32 -0.00099428)
(0.198856 0 -0.00099428)
(0.198856 0 -0.00099428)
(0.198856 0 -0.000994281)
(0.198856 0 -0.000994281)
(0.198856 0 -0.000994281)
(0.198856 0 -0.000994281)
(0.198856 0 -0.000994281)
(0.198856 0 -0.000994281)
(0.198856 0 -0.000994281)
(0.198856 0 -0.000994281)
(0.198856 0 -0.000994281)
(0.198856 0 -0.000994281)
(0.198856 -8.88101e-33 -0.000994281)
(0.198856 0 -0.000994281)
(0.198856 0 -0.000994281)
(0.198856 5.91978e-33 -0.000994281)
(0.198856 0 -0.000994282)
(0.198856 0 -0.000994282)
(0.198856 0 -0.000994282)
(0.198856 0 -0.000994282)
(0.198856 0 -0.000994282)
(0.198856 0 -0.000994282)
(0.198856 0 -0.000994282)
(0.198856 0 -0.000994282)
(0.198856 0 -0.000994282)
(0.198856 0 -0.000994282)
(0.198856 0 -0.000994282)
(0.198856 0 -0.000994282)
(0.198856 -9.44251e-34 -0.000994282)
(0.198856 0 -0.000994282)
(0.198856 6.9811e-34 -0.000994282)
(0.198856 0 -0.000994282)
(0.198856 0 -0.000994282)
(0.198856 0 -0.000994282)
(0.198856 0 -0.000994282)
(0.198856 0 -0.000994282)
(0.198856 0 -0.000994282)
(0.198856 0 -0.000994282)
(0.198856 0 -0.000994282)
(0.198856 0 -0.000994282)
(0.198856 0 -0.000994282)
(0.198856 0 -0.000994282)
(0.198856 1.06953e-34 -0.000994282)
(0.198856 0 -0.000994282)
(0.198856 0 -0.000994282)
(0.198856 0 -0.000994282)
(0.198856 0 -0.000994282)
(0.198856 0 -0.000994282)
(0.198856 0 -0.000994282)
(0.198856 0 -0.000994282)
(0.198856 0 -0.000994282)
(0.198856 0 -0.000994282)
(0.198856 0 -0.000994282)
(0.198856 0 -0.000994282)
(0.198856 0 -0.000994282)
(0.198856 0 -0.000994282)
(0.198856 0 -0.000994282)
(0.198856 0 -0.000994282)
(0.198856 0 -0.000994282)
(0.198856 0 -0.000994282)
(0.198856 0 -0.000994282)
(0.198856 0 -0.000994282)
(0.198856 0 -0.000994282)
(0.198856 0 -0.000994282)
(0.198856 0 -0.000994282)
(0.198856 0 -0.000994282)
(0.198856 0 -0.000994282)
(0.198856 0 -0.000994282)
(0.198856 0 -0.000994282)
(0.198856 0 -0.000994282)
(0.198856 0 -0.000994282)
(0.198856 0 -0.000994282)
(0.198856 0 -0.000994282)
(0.198856 0 -0.000994282)
(0.198856 0 -0.000994282)
(0.198856 0 -0.000994282)
(0.198856 0 -0.000994282)
(0.198856 0 -0.000994282)
(0.198856 0 -0.000994282)
(0.198856 0 -0.000994282)
(0.198856 0 -0.000994282)
(0.198856 0 -0.000994282)
(0.198856 0 -0.000994282)
(0.198856 0 -0.000994282)
(0.198856 0 -0.000994282)
(0.198856 0 -0.000994282)
(0.198856 0 -0.000994282)
(0.198856 0 -0.000994282)
(0.198856 0 -0.000994282)
(0.198856 0 -0.000994282)
(0.198856 0 -0.000994282)
(0.198856 0 -0.000994282)
(0.198856 0 -0.000994282)
(0.198856 0 -0.000994282)
(0.198856 0 -0.000994282)
(0.198856 0 -0.000994282)
(0.198856 0 -0.000994282)
(0.198856 0 -0.000994282)
(0.198856 0 -0.000994282)
(0.198856 0 -0.000994282)
(0.198856 0 -0.000994282)
(0.198856 0 -0.000994282)
(0.198856 0 -0.000994282)
(0.198856 0 -0.000994282)
(0.198856 0 -0.000994282)
(0.198856 0 -0.000994282)
(0.198856 0 -0.000994282)
(0.198856 0 -0.000994282)
(0.198856 0 -0.000994282)
(0.198856 0 -0.000994282)
(0.198856 0 -0.000994282)
(0.198856 0 -0.000994282)
(0.198856 0 -0.000994282)
(0.198856 0 -0.000994282)
(0.198856 0 -0.000994282)
(0.198856 0 -0.000994282)
(0.198856 0 -0.000994282)
(0.198856 0 -0.000994282)
(0.198856 0 -0.000994282)
(0.198856 0 -0.000994282)
(0.198856 0 -0.000994282)
(0.198856 0 -0.000994282)
(0.198856 0 -0.000994282)
(0.198856 0 -0.000994282)
(0.198856 0 -0.000994282)
(0.198856 0 -0.000994282)
(0.198856 0 -0.000994282)
(0.198856 0 -0.000994282)
(0.198856 0 -0.000994282)
(0.198856 0 -0.000994282)
(0.198856 0 -0.000994282)
(0.198856 0 -0.000994282)
(0.198856 0 -0.000994282)
(0.198856 0 -0.000994282)
(0.198856 0 -0.000994282)
(0.198856 0 -0.000994282)
(0.198856 0 -0.000994282)
(0.198856 0 -0.000994282)
(0.198856 0 -0.000994282)
(0.198856 0 -0.000994282)
(0.198856 0 -0.000994282)
(0.198856 0 -0.000994282)
(0.198856 0 -0.000994282)
(0.198856 0 -0.000994282)
(0.198856 0 -0.000994282)
(0.198856 0 -0.000994282)
(0.198856 0 -0.000994282)
(0.198856 0 -0.000994282)
(0.198856 0 -0.000994282)
(0.198856 0 -0.000994282)
(0.198856 0 -0.000994282)
(0.198856 0 -0.000994282)
(0.198856 0 -0.000994282)
(0.198856 0 -0.000994282)
(0.198856 0 -0.000994282)
(0.198856 0 -0.000994282)
(0.198856 0 -0.000994282)
(0.198856 0 -0.000994282)
(0.198856 0 -0.000994282)
(0.198856 0 -0.000994282)
(0.198856 0 -0.000994282)
(0.198856 0 -0.000994282)
(0.198856 0 -0.000994282)
(0.198856 0 -0.000994282)
(0.198856 0 -0.000994282)
(0.198856 0 -0.000994282)
(0.198856 0 -0.000994282)
(0.198856 0 -0.000994282)
(0.198856 0 -0.000994282)
(0.198856 0 -0.000994282)
(0.198856 0 -0.000994282)
(0.198856 0 -0.000994282)
(0.198856 0 -0.000994282)
(0.198856 0 -0.000994282)
(0.198856 0 -0.000994282)
(0.198856 0 -0.000994282)
(0.198856 0 -0.000994282)
(0.198856 0 -0.000994282)
(0.198856 0 -0.000994282)
(0.198856 7.88062e-36 -0.000994282)
(0.198856 0 -0.000994282)
(0.198856 0 -0.000994282)
(0.198856 0 -0.000994282)
(0.198856 0 -0.000994282)
(0.198856 0 -0.000994282)
(0.198856 0 -0.000994282)
(0.198856 0 -0.000994282)
(0.198856 0 -0.000994282)
(0.198856 0 -0.000994282)
(0.198856 0 -0.000994282)
(0.198856 0 -0.000994282)
(0.198856 0 -0.000994282)
(0.198856 5.80425e-36 -0.000994282)
(0.198856 0 -0.000994282)
(0.198856 0 -0.000994282)
(0.198856 0 -0.000994282)
(0.198856 0 -0.000994282)
(0.198856 0 -0.000994282)
(0.198856 0 -0.000994282)
(0.198856 0 -0.000994282)
(0.198856 0 -0.000994282)
(0.198856 0 -0.000994282)
(0.198856 0 -0.000994282)
(0.198856 0 -0.000994282)
(0.198856 0 -0.000994282)
(0.198856 0 -0.000994282)
(0.198856 0 -0.000994282)
(0.198856 0 -0.000994282)
(0.198856 0 -0.000994284)
(0.198857 0 -0.000994282)
(0.198856 0 -0.000996218)
(0.530078 -2.39077e-25 0.0128079)
(0.437787 1.6173e-25 0.0020699)
(0.37653 6.86671e-26 -0.00112247)
(0.375124 0 -0.0017544)
(0.364549 0 -0.00174534)
(0.362668 8.85507e-27 -0.00172149)
(0.357632 -6.36429e-27 -0.00174247)
(0.356947 4.21987e-27 -0.00174598)
(0.354898 2.9576e-27 -0.00176521)
(0.354928 0 -0.0017711)
(0.354536 0 -0.00178322)
(0.354837 0 -0.00178646)
(0.355187 1.93793e-28 -0.00180098)
(0.355927 1.5144e-37 -0.00180574)
(0.356643 4.54231e-28 -0.00181511)
(0.357665 0 -0.0018235)
(0.358689 9.29163e-28 -0.00183236)
(0.359915 1.07072e-27 -0.00183963)
(0.361098 1.18629e-27 -0.00184829)
(0.362449 0 -0.00185872)
(0.36388 0 -0.00186806)
(0.365374 0 -0.0018769)
(0.366918 0 -0.00188599)
(0.368496 0 -0.0018946)
(0.370107 0 -0.00190379)
(0.371764 0 -0.00191067)
(0.373299 -2.02838e-27 -0.00191331)
(0.374654 0 -0.00191349)
(0.375809 0 -0.00191308)
(0.376796 0 -0.00191254)
(0.377625 -1.2023e-27 -0.00191206)
(0.378327 0 -0.0019116)
(0.378913 -8.70068e-28 -0.00191122)
(0.379406 0 -0.00191089)
(0.379816 -6.18617e-28 -0.00191064)
(0.380161 0 -0.00191044)
(0.380448 -4.36678e-28 -0.0019103)
(0.38069 0 -0.0019102)
(0.380893 0 -0.00191014)
(0.381064 0 -0.0019101)
(0.381208 -2.19789e-28 -0.00191008)
(0.38133 -3.71658e-28 -0.00191009)
(0.381434 0 -0.00191014)
(0.381525 -2.74095e-28 -0.00191015)
(0.381601 -1.15619e-28 -0.00191013)
(0.381665 0 -0.0019101)
(0.381719 -1.62849e-28 -0.00191012)
(0.381765 0 -0.00191014)
(0.381805 -1.20089e-28 -0.00191016)
(0.38184 0 -0.00191019)
(0.38187 0 -0.00191021)
(0.381896 -7.73996e-29 -0.00191023)
(0.381918 0 -0.00191024)
(0.381938 -2.90114e-29 -0.00191026)
(0.381955 0 -0.00191027)
(0.38197 0 -0.00191028)
(0.381983 -3.77475e-29 -0.00191029)
(0.381994 0 -0.00191029)
(0.382004 -2.83515e-29 -0.0019103)
(0.382012 0 -0.0019103)
(0.382019 0 -0.00191031)
(0.382026 -9.2217e-30 -0.00191031)
(0.382031 0 -0.00191031)
(0.382036 -1.38349e-29 -0.00191032)
(0.38204 0 -0.00191032)
(0.382044 0 -0.00191032)
(0.382047 -8.97104e-30 -0.00191032)
(0.38205 0 -0.00191032)
(0.382052 -3.35532e-30 -0.00191033)
(0.382054 0 -0.00191033)
(0.382056 0 -0.00191033)
(0.382057 -4.33163e-30 -0.00191033)
(0.382058 0 -0.00191033)
(0.382059 -1.61529e-30 -0.00191033)
(0.38206 0 -0.00191033)
(0.382061 0 -0.00191033)
(0.382062 -2.07733e-30 -0.00191033)
(0.382063 0 -0.00191033)
(0.382063 -1.54497e-30 -0.00191033)
(0.382064 0 -0.00191033)
(0.382064 0 -0.00191033)
(0.382064 0 -0.00191033)
(0.382065 0 -0.00191033)
(0.382065 0 -0.00191033)
(0.382065 0 -0.00191033)
(0.382065 0 -0.00191033)
(0.382065 0 -0.00191033)
(0.382066 2.02509e-31 -0.00191033)
(0.382066 1.74279e-31 -0.00191033)
(0.382066 0 -0.00191033)
(0.382066 0 -0.00191033)
(0.382066 0 -0.00191033)
(0.382066 0 -0.00191033)
(0.382066 0 -0.00191033)
(0.382066 0 -0.00191033)
(0.382066 0 -0.00191033)
(0.382066 0 -0.00191033)
(0.382066 0 -0.00191033)
(0.382066 0 -0.00191033)
(0.382066 0 -0.00191033)
(0.382066 0 -0.00191033)
(0.382066 0 -0.00191033)
(0.382066 0 -0.00191033)
(0.382066 1.64738e-32 -0.00191033)
(0.382066 1.45194e-32 -0.00191033)
(0.382066 0 -0.00191033)
(0.382066 0 -0.00191033)
(0.382066 0 -0.00191033)
(0.382066 0 -0.00191033)
(0.382066 0 -0.00191033)
(0.382066 0 -0.00191033)
(0.382066 0 -0.00191033)
(0.382066 0 -0.00191033)
(0.382066 0 -0.00191033)
(0.382066 0 -0.00191033)
(0.382066 0 -0.00191033)
(0.382066 0 -0.00191033)
(0.382066 0 -0.00191033)
(0.382066 2.0029e-33 -0.00191033)
(0.382066 1.72347e-33 -0.00191033)
(0.382066 0 -0.00191033)
(0.382066 0 -0.00191033)
(0.382066 0 -0.00191033)
(0.382066 0 -0.00191033)
(0.382066 0 -0.00191033)
(0.382066 0 -0.00191033)
(0.382066 0 -0.00191033)
(0.382066 0 -0.00191033)
(0.382066 0 -0.00191033)
(0.382066 0 -0.00191033)
(0.382066 0 -0.00191033)
(0.382066 2.60779e-34 -0.00191033)
(0.382066 0 -0.00191033)
(0.382066 0 -0.00191033)
(0.382066 1.41842e-34 -0.00191033)
(0.382066 0 -0.00191033)
(0.382066 0 -0.00191033)
(0.382066 0 -0.00191033)
(0.382066 -3.69033e-35 -0.00191033)
(0.382066 0 -0.00191033)
(0.382066 0 -0.00191033)
(0.382066 0 -0.00191033)
(0.382066 0 -0.00191033)
(0.382066 0 -0.00191033)
(0.382066 0 -0.00191033)
(0.382066 0 -0.00191033)
(0.382066 0 -0.00191033)
(0.382066 0 -0.00191033)
(0.382066 0 -0.00191033)
(0.382066 0 -0.00191033)
(0.382066 0 -0.00191033)
(0.382066 0 -0.00191033)
(0.382066 0 -0.00191033)
(0.382066 0 -0.00191033)
(0.382066 0 -0.00191033)
(0.382066 0 -0.00191033)
(0.382066 0 -0.00191033)
(0.382066 0 -0.00191033)
(0.382066 0 -0.00191033)
(0.382066 0 -0.00191033)
(0.382066 0 -0.00191033)
(0.382066 0 -0.00191033)
(0.382066 0 -0.00191033)
(0.382066 0 -0.00191033)
(0.382066 0 -0.00191033)
(0.382066 0 -0.00191033)
(0.382066 0 -0.00191033)
(0.382066 0 -0.00191033)
(0.382066 0 -0.00191033)
(0.382066 0 -0.00191033)
(0.382066 0 -0.00191033)
(0.382066 0 -0.00191033)
(0.382066 0 -0.00191033)
(0.382066 0 -0.00191033)
(0.382066 0 -0.00191033)
(0.382066 0 -0.00191033)
(0.382066 0 -0.00191033)
(0.382066 0 -0.00191033)
(0.382066 0 -0.00191033)
(0.382066 0 -0.00191033)
(0.382066 0 -0.00191033)
(0.382066 0 -0.00191033)
(0.382066 0 -0.00191033)
(0.382066 0 -0.00191033)
(0.382066 0 -0.00191033)
(0.382066 0 -0.00191033)
(0.382066 0 -0.00191033)
(0.382066 0 -0.00191033)
(0.382066 0 -0.00191033)
(0.382066 0 -0.00191033)
(0.382066 0 -0.00191033)
(0.382066 0 -0.00191033)
(0.382066 0 -0.00191033)
(0.382066 0 -0.00191033)
(0.382066 0 -0.00191033)
(0.382066 0 -0.00191033)
(0.382066 0 -0.00191033)
(0.382066 0 -0.00191033)
(0.382066 0 -0.00191033)
(0.382066 0 -0.00191033)
(0.382066 0 -0.00191033)
(0.382066 0 -0.00191033)
(0.382066 0 -0.00191033)
(0.382066 0 -0.00191033)
(0.382066 0 -0.00191033)
(0.382066 0 -0.00191033)
(0.382066 0 -0.00191033)
(0.382066 0 -0.00191033)
(0.382066 0 -0.00191033)
(0.382066 0 -0.00191033)
(0.382066 0 -0.00191033)
(0.382066 0 -0.00191033)
(0.382066 0 -0.00191033)
(0.382066 0 -0.00191033)
(0.382066 0 -0.00191033)
(0.382066 0 -0.00191033)
(0.382066 0 -0.00191033)
(0.382066 0 -0.00191033)
(0.382066 0 -0.00191033)
(0.382066 0 -0.00191033)
(0.382066 0 -0.00191033)
(0.382066 0 -0.00191033)
(0.382066 0 -0.00191033)
(0.382066 0 -0.00191033)
(0.382066 0 -0.00191033)
(0.382066 0 -0.00191033)
(0.382066 0 -0.00191033)
(0.382066 0 -0.00191033)
(0.382066 0 -0.00191033)
(0.382066 0 -0.00191033)
(0.382066 0 -0.00191033)
(0.382066 0 -0.00191033)
(0.382066 0 -0.00191033)
(0.382066 0 -0.00191033)
(0.382066 0 -0.00191033)
(0.382066 0 -0.00191033)
(0.382066 0 -0.00191033)
(0.382066 0 -0.00191033)
(0.382066 0 -0.00191033)
(0.382066 0 -0.00191033)
(0.382066 0 -0.00191033)
(0.382066 0 -0.00191033)
(0.382066 0 -0.00191033)
(0.382066 0 -0.00191033)
(0.382066 0 -0.00191033)
(0.382066 0 -0.00191033)
(0.382066 0 -0.00191033)
(0.382066 0 -0.00191033)
(0.382066 0 -0.00191033)
(0.382066 0 -0.00191033)
(0.382066 0 -0.00191033)
(0.382066 0 -0.00191033)
(0.382066 0 -0.00191033)
(0.382066 0 -0.00191033)
(0.382066 0 -0.00191033)
(0.382066 0 -0.00191033)
(0.382066 0 -0.00191033)
(0.382066 0 -0.00191033)
(0.382066 0 -0.00191033)
(0.382066 0 -0.00191033)
(0.382066 0 -0.00191033)
(0.382066 0 -0.00191033)
(0.382066 0 -0.00191033)
(0.382066 0 -0.00191033)
(0.382066 0 -0.00191033)
(0.382066 0 -0.00191033)
(0.382066 0 -0.00191033)
(0.382066 0 -0.00191033)
(0.382066 -6.26388e-37 -0.00191033)
(0.382066 0 -0.00191033)
(0.382066 0 -0.00191033)
(0.382066 0 -0.00191033)
(0.382066 0 -0.00191033)
(0.382066 0 -0.00191033)
(0.382066 0 -0.00191033)
(0.382066 0 -0.00191033)
(0.382066 0 -0.00191033)
(0.382066 0 -0.00191033)
(0.382066 0 -0.00191033)
(0.382066 0 -0.00191033)
(0.382066 0 -0.00191033)
(0.382066 0 -0.00191033)
(0.382066 0 -0.00191033)
(0.382066 0 -0.00191033)
(0.382066 0 -0.00191033)
(0.382066 0 -0.00191033)
(0.382066 0 -0.00191033)
(0.382066 0 -0.00191033)
(0.382066 0 -0.00191033)
(0.382066 0 -0.00191033)
(0.382066 0 -0.00191033)
(0.382066 0 -0.00191033)
(0.382066 0 -0.00191033)
(0.382066 0 -0.00191033)
(0.382066 0 -0.00191033)
(0.382066 0 -0.00191033)
(0.382066 0 -0.00191033)
(0.382066 0 -0.00191034)
(0.382066 0 -0.00191033)
(0.382066 0 -0.00190824)
(0.617755 0 0.01654)
(0.560985 0 0.00367742)
(0.492229 0 -0.000642419)
(0.483281 0 -0.00192892)
(0.463743 2.47106e-26 -0.00198264)
(0.459477 1.46249e-26 -0.00203787)
(0.451735 1.06733e-26 -0.00210404)
(0.449991 7.13252e-27 -0.00214071)
(0.446668 1.07458e-26 -0.00218397)
(0.446252 0 -0.0022113)
(0.445297 0 -0.0022347)
(0.445411 0 -0.00224683)
(0.445628 1.22481e-27 -0.00227243)
(0.446278 -7.58831e-28 -0.00228195)
(0.447035 -2.65283e-28 -0.00229915)
(0.448143 -8.40308e-29 -0.00231275)
(0.449296 0 -0.00232723)
(0.450717 6.84973e-28 -0.00233817)
(0.452107 0 -0.00235065)
(0.453695 -1.10226e-27 -0.0023667)
(0.455396 2.68862e-27 -0.00238036)
(0.457186 1.53289e-27 -0.00239279)
(0.459045 0 -0.00240521)
(0.460953 0 -0.00241675)
(0.462915 0 -0.00242931)
(0.464934 0 -0.00243656)
(0.466801 0 -0.00243531)
(0.468459 2.01903e-27 -0.00242996)
(0.469884 0 -0.00242412)
(0.471111 0 -0.00241867)
(0.472149 0 -0.00241391)
(0.473032 0 -0.00240973)
(0.473773 -1.01325e-27 -0.0024062)
(0.474399 0 -0.00240319)
(0.474923 0 -0.00240069)
(0.475363 0 -0.00239861)
(0.475732 -5.18272e-28 -0.00239691)
(0.476043 -4.36502e-28 -0.00239552)
(0.476303 0 -0.00239439)
(0.476523 0 -0.00239348)
(0.476709 -2.6119e-28 -0.00239273)
(0.476867 -4.40079e-28 -0.00239213)
(0.477001 0 -0.00239172)
(0.477117 -3.22996e-28 -0.00239132)
(0.477215 -1.36947e-28 -0.00239091)
(0.477297 -1.14113e-28 -0.00239053)
(0.477366 -1.91427e-28 -0.00239028)
(0.477426 0 -0.0023901)
(0.477477 -1.39466e-28 -0.00238996)
(0.477521 -5.99149e-29 -0.00238983)
(0.477559 0 -0.00238973)
(0.477593 -8.90401e-29 -0.00238964)
(0.477622 0 -0.00238957)
(0.477647 -6.65021e-29 -0.0023895)
(0.477668 0 -0.00238944)
(0.477687 0 -0.00238939)
(0.477703 -4.31102e-29 -0.00238935)
(0.477718 0 -0.00238931)
(0.47773 -3.23366e-29 -0.00238928)
(0.477741 0 -0.00238925)
(0.47775 0 -0.00238922)
(0.477758 -2.10156e-29 -0.0023892)
(0.477765 0 -0.00238918)
(0.477771 -1.57597e-29 -0.00238916)
(0.477776 0 -0.00238915)
(0.47778 0 -0.00238913)
(0.477784 -1.02186e-29 -0.00238912)
(0.477788 0 -0.00238911)
(0.477791 -3.82284e-30 -0.0023891)
(0.477793 0 -0.00238909)
(0.477795 0 -0.00238909)
(0.477797 -4.93807e-30 -0.00238908)
(0.477799 0 -0.00238908)
(0.4778 -3.68438e-30 -0.00238907)
(0.477801 0 -0.00238907)
(0.477803 0 -0.00238907)
(0.477803 -2.37078e-30 -0.00238906)
(0.477804 0 -0.00238906)
(0.477805 -8.82006e-31 -0.00238906)
(0.477805 0 -0.00238906)
(0.477806 0 -0.00238906)
(0.477806 0 -0.00238905)
(0.477807 0 -0.00238905)
(0.477807 0 -0.00238905)
(0.477807 0 -0.00238905)
(0.477808 0 -0.00238905)
(0.477808 0 -0.00238905)
(0.477808 2.31656e-31 -0.00238905)
(0.477808 0 -0.00238905)
(0.477808 0 -0.00238905)
(0.477808 1.49356e-31 -0.00238905)
(0.477808 0 -0.00238905)
(0.477809 0 -0.00238905)
(0.477809 0 -0.00238905)
(0.477809 0 -0.00238905)
(0.477809 0 -0.00238905)
(0.477809 0 -0.00238905)
(0.477809 0 -0.00238905)
(0.477809 0 -0.00238905)
(0.477809 0 -0.00238905)
(0.477809 0 -0.00238905)
(0.477809 0 -0.00238905)
(0.477809 0 -0.00238905)
(0.477809 1.85084e-32 -0.00238905)
(0.477809 0 -0.00238905)
(0.477809 1.42765e-32 -0.00238905)
(0.477809 0 -0.00238905)
(0.477809 0 -0.00238905)
(0.477809 0 -0.00238905)
(0.477809 0 -0.00238905)
(0.477809 0 -0.00238905)
(0.477809 0 -0.00238905)
(0.477809 0 -0.00238905)
(0.477809 0 -0.00238905)
(0.477809 0 -0.00238905)
(0.477809 0 -0.00238905)
(0.477809 0 -0.00238905)
(0.477809 0 -0.00238905)
(0.477809 2.25806e-33 -0.00238905)
(0.477809 0 -0.00238905)
(0.477809 0 -0.00238905)
(0.477809 1.43963e-33 -0.00238905)
(0.477809 0 -0.00238905)
(0.477809 0 -0.00238905)
(0.477809 0 -0.00238905)
(0.477809 0 -0.00238905)
(0.477809 0 -0.00238905)
(0.477809 0 -0.00238905)
(0.477809 0 -0.00238905)
(0.477809 0 -0.00238905)
(0.477809 0 -0.00238905)
(0.477809 0 -0.00238905)
(0.477809 0 -0.00238905)
(0.477809 0 -0.00238905)
(0.477809 1.46916e-34 -0.00238905)
(0.477809 0 -0.00238905)
(0.477809 0 -0.00238905)
(0.477809 3.84098e-35 -0.00238905)
(0.477809 -1.02185e-35 -0.00238905)
(0.477809 0 -0.00238905)
(0.477809 0 -0.00238905)
(0.477809 0 -0.00238905)
(0.477809 0 -0.00238905)
(0.477809 0 -0.00238905)
(0.477809 0 -0.00238905)
(0.477809 0 -0.00238905)
(0.477809 0 -0.00238905)
(0.477809 0 -0.00238905)
(0.477809 0 -0.00238905)
(0.477809 0 -0.00238905)
(0.477809 0 -0.00238905)
(0.477809 0 -0.00238905)
(0.477809 0 -0.00238905)
(0.477809 0 -0.00238905)
(0.477809 0 -0.00238905)
(0.477809 0 -0.00238905)
(0.477809 0 -0.00238905)
(0.477809 0 -0.00238905)
(0.477809 0 -0.00238905)
(0.477809 0 -0.00238905)
(0.477809 0 -0.00238905)
(0.477809 0 -0.00238905)
(0.477809 0 -0.00238905)
(0.477809 0 -0.00238905)
(0.477809 0 -0.00238905)
(0.477809 0 -0.00238905)
(0.477809 0 -0.00238905)
(0.477809 0 -0.00238905)
(0.477809 0 -0.00238905)
(0.477809 0 -0.00238905)
(0.477809 0 -0.00238905)
(0.477809 0 -0.00238905)
(0.477809 0 -0.00238905)
(0.477809 0 -0.00238905)
(0.477809 0 -0.00238905)
(0.477809 0 -0.00238905)
(0.477809 0 -0.00238905)
(0.477809 0 -0.00238905)
(0.477809 0 -0.00238905)
(0.477809 0 -0.00238905)
(0.477809 0 -0.00238905)
(0.477809 0 -0.00238905)
(0.477809 0 -0.00238905)
(0.477809 0 -0.00238905)
(0.477809 0 -0.00238905)
(0.477809 0 -0.00238905)
(0.477809 0 -0.00238905)
(0.477809 0 -0.00238905)
(0.477809 0 -0.00238905)
(0.477809 0 -0.00238905)
(0.477809 0 -0.00238905)
(0.477809 0 -0.00238905)
(0.477809 0 -0.00238905)
(0.477809 0 -0.00238905)
(0.477809 0 -0.00238905)
(0.477809 0 -0.00238905)
(0.477809 0 -0.00238905)
(0.477809 0 -0.00238905)
(0.477809 0 -0.00238905)
(0.477809 0 -0.00238905)
(0.477809 0 -0.00238905)
(0.477809 0 -0.00238905)
(0.477809 0 -0.00238905)
(0.477809 0 -0.00238905)
(0.477809 0 -0.00238905)
(0.477809 0 -0.00238905)
(0.477809 0 -0.00238905)
(0.477809 0 -0.00238905)
(0.477809 0 -0.00238905)
(0.477809 0 -0.00238905)
(0.477809 0 -0.00238905)
(0.477809 0 -0.00238905)
(0.477809 0 -0.00238905)
(0.477809 0 -0.00238905)
(0.477809 0 -0.00238905)
(0.477809 0 -0.00238905)
(0.477809 0 -0.00238905)
(0.477809 0 -0.00238905)
(0.477809 0 -0.00238905)
(0.477809 0 -0.00238905)
(0.477809 0 -0.00238905)
(0.477809 0 -0.00238905)
(0.477809 0 -0.00238905)
(0.477809 0 -0.00238905)
(0.477809 0 -0.00238905)
(0.477809 0 -0.00238905)
(0.477809 0 -0.00238905)
(0.477809 0 -0.00238905)
(0.477809 0 -0.00238905)
(0.477809 0 -0.00238905)
(0.477809 0 -0.00238905)
(0.477809 0 -0.00238905)
(0.477809 0 -0.00238905)
(0.477809 0 -0.00238905)
(0.477809 0 -0.00238905)
(0.477809 0 -0.00238905)
(0.477809 0 -0.00238905)
(0.477809 0 -0.00238905)
(0.477809 0 -0.00238905)
(0.477809 0 -0.00238905)
(0.477809 0 -0.00238905)
(0.477809 0 -0.00238905)
(0.477809 0 -0.00238905)
(0.477809 0 -0.00238905)
(0.477809 0 -0.00238905)
(0.477809 0 -0.00238905)
(0.477809 0 -0.00238905)
(0.477809 0 -0.00238905)
(0.477809 0 -0.00238905)
(0.477809 0 -0.00238905)
(0.477809 0 -0.00238905)
(0.477809 0 -0.00238905)
(0.477809 0 -0.00238905)
(0.477809 0 -0.00238905)
(0.477809 -1.29583e-35 -0.00238905)
(0.477809 0 -0.00238905)
(0.477809 0 -0.00238905)
(0.477809 0 -0.00238905)
(0.477809 0 -0.00238905)
(0.477809 0 -0.00238905)
(0.477809 0 -0.00238905)
(0.477809 0 -0.00238905)
(0.477809 0 -0.00238905)
(0.477809 0 -0.00238905)
(0.477809 0 -0.00238905)
(0.477809 0 -0.00238905)
(0.477809 0 -0.00238905)
(0.477809 0 -0.00238905)
(0.477809 0 -0.00238905)
(0.477809 0 -0.00238905)
(0.477809 0 -0.00238905)
(0.477809 0 -0.00238905)
(0.477809 0 -0.00238905)
(0.477809 0 -0.00238905)
(0.477809 0 -0.00238905)
(0.477809 0 -0.00238905)
(0.477809 0 -0.00238905)
(0.477809 0 -0.00238905)
(0.477809 0 -0.00238905)
(0.477809 0 -0.00238905)
(0.477809 0 -0.00238905)
(0.477809 0 -0.00238905)
(0.477809 0 -0.00238905)
(0.477809 0 -0.00238905)
(0.477809 0 -0.00238905)
(0.477809 0 -0.00238905)
(0.477809 0 -0.00238905)
(0.477809 0 -0.00238905)
(0.477809 0 -0.00238905)
(0.477809 0 -0.00238905)
(0.477809 0 -0.00238905)
(0.477809 0 -0.00238905)
(0.477809 0 -0.00238905)
(0.477809 0 -0.00238905)
(0.477809 0 -0.00238905)
(0.477809 0 -0.00238905)
(0.477809 0 -0.00238905)
(0.477809 0 -0.00238905)
(0.477809 0 -0.00238904)
(0.477809 0 -0.00239005)
(0.652159 0 0.0163926)
(0.635156 0 0.0055199)
(0.580497 0 0.000160702)
(0.563885 0 -0.0016443)
(0.536314 4.97152e-26 -0.00187066)
(0.528689 1.92944e-26 -0.00211688)
(0.517957 2.85238e-26 -0.00225261)
(0.514735 9.90792e-27 -0.00235393)
(0.510192 1.53163e-26 -0.00243091)
(0.509059 5.54733e-27 -0.00248878)
(0.507413 0 -0.00252553)
(0.507174 0 -0.00255521)
(0.507105 2.11709e-27 -0.00259206)
(0.507539 0 -0.00260863)
(0.508193 0 -0.00263603)
(0.509224 7.50413e-28 -0.00265555)
(0.510368 -3.25796e-28 -0.00267675)
(0.511828 0 -0.002692)
(0.513285 1.88177e-28 -0.00270833)
(0.514959 -4.54386e-28 -0.00273024)
(0.516771 1.48062e-27 -0.00274835)
(0.518695 9.6944e-28 -0.00276435)
(0.520707 0 -0.00277988)
(0.522781 1.35105e-27 -0.00279421)
(0.524934 1.58672e-27 -0.00280985)
(0.527136 1.78429e-27 -0.00281619)
(0.529154 -1.82607e-27 -0.0028093)
(0.530948 1.73937e-27 -0.00279695)
(0.5325 1.58633e-27 -0.00278431)
(0.533843 1.41431e-27 -0.00277267)
(0.534986 0 -0.00276243)
(0.535962 0 -0.00275347)
(0.536785 9.31015e-28 -0.00274581)
(0.537483 0 -0.00273927)
(0.538068 0 -0.00273379)
(0.538562 0 -0.0027292)
(0.538976 0 -0.0027254)
(0.539326 -4.10513e-28 -0.00272226)
(0.53962 0 -0.00271967)
(0.539868 0 -0.00271755)
(0.540078 0 -0.00271579)
(0.540256 -4.1274e-28 -0.00271435)
(0.540407 0 -0.00271328)
(0.540538 -3.02078e-28 -0.00271231)
(0.540649 0 -0.00271134)
(0.540742 -1.07299e-28 -0.00271049)
(0.54082 -1.78603e-28 -0.00270987)
(0.540887 0 -0.0027094)
(0.540944 -1.28611e-28 -0.00270901)
(0.540994 -5.50227e-29 -0.00270869)
(0.541037 -4.72082e-29 -0.00270841)
(0.541074 -8.12274e-29 -0.00270817)
(0.541106 0 -0.00270796)
(0.541134 -6.03689e-29 -0.00270778)
(0.541159 -2.60584e-29 -0.00270762)
(0.54118 0 -0.00270749)
(0.541198 -3.89327e-29 -0.00270737)
(0.541214 0 -0.00270726)
(0.541227 -2.91356e-29 -0.00270717)
(0.541239 0 -0.0027071)
(0.541249 0 -0.00270703)
(0.541258 -1.88935e-29 -0.00270697)
(0.541266 0 -0.00270692)
(0.541273 -1.41565e-29 -0.00270687)
(0.541278 0 -0.00270683)
(0.541283 0 -0.0027068)
(0.541288 -9.17394e-30 -0.00270677)
(0.541292 0 -0.00270674)
(0.541295 -6.86406e-30 -0.00270672)
(0.541298 0 -0.0027067)
(0.5413 0 -0.00270668)
(0.541302 -4.43476e-30 -0.00270667)
(0.541304 0 -0.00270666)
(0.541305 -1.65504e-30 -0.00270665)
(0.541307 0 -0.00270664)
(0.541308 0 -0.00270663)
(0.541309 -2.13143e-30 -0.00270662)
(0.54131 0 -0.00270661)
(0.541311 -7.93341e-31 -0.00270661)
(0.541311 0 -0.0027066)
(0.541312 0 -0.0027066)
(0.541312 0 -0.0027066)
(0.541313 0 -0.00270659)
(0.541313 0 -0.00270659)
(0.541313 0 -0.00270659)
(0.541314 0 -0.00270659)
(0.541314 0 -0.00270659)
(0.541314 0 -0.00270658)
(0.541314 0 -0.00270658)
(0.541314 0 -0.00270658)
(0.541314 1.34548e-31 -0.00270658)
(0.541315 0 -0.00270658)
(0.541315 0 -0.00270658)
(0.541315 8.44888e-32 -0.00270658)
(0.541315 0 -0.00270658)
(0.541315 0 -0.00270658)
(0.541315 0 -0.00270658)
(0.541315 0 -0.00270658)
(0.541315 0 -0.00270658)
(0.541315 0 -0.00270658)
(0.541315 0 -0.00270658)
(0.541315 0 -0.00270658)
(0.541315 0 -0.00270658)
(0.541315 0 -0.00270658)
(0.541315 0 -0.00270658)
(0.541315 1.26779e-32 -0.00270658)
(0.541315 0 -0.00270658)
(0.541315 0 -0.00270658)
(0.541315 8.4904e-33 -0.00270658)
(0.541315 0 -0.00270658)
(0.541315 0 -0.00270658)
(0.541315 0 -0.00270658)
(0.541315 0 -0.00270658)
(0.541315 0 -0.00270658)
(0.541315 0 -0.00270658)
(0.541315 0 -0.00270658)
(0.541315 0 -0.00270658)
(0.541315 0 -0.00270658)
(0.541315 0 -0.00270658)
(0.541315 0 -0.00270658)
(0.541315 0 -0.00270658)
(0.541315 1.29985e-33 -0.00270658)
(0.541315 0 -0.00270658)
(0.541315 0 -0.00270658)
(0.541315 8.39197e-34 -0.00270658)
(0.541315 0 -0.00270658)
(0.541315 0 -0.00270658)
(0.541315 0 -0.00270658)
(0.541315 0 -0.00270658)
(0.541315 0 -0.00270658)
(0.541315 0 -0.00270658)
(0.541315 0 -0.00270658)
(0.541315 0 -0.00270658)
(0.541315 0 -0.00270658)
(0.541315 0 -0.00270658)
(0.541315 0 -0.00270658)
(0.541315 0 -0.00270658)
(0.541315 4.48284e-35 -0.00270658)
(0.541315 0 -0.00270658)
(0.541315 -1.1088e-35 -0.00270658)
(0.541315 0 -0.00270658)
(0.541315 0 -0.00270658)
(0.541315 0 -0.00270658)
(0.541315 0 -0.00270658)
(0.541315 0 -0.00270658)
(0.541315 0 -0.00270658)
(0.541315 0 -0.00270658)
(0.541315 0 -0.00270658)
(0.541315 0 -0.00270658)
(0.541315 0 -0.00270658)
(0.541315 0 -0.00270658)
(0.541315 -4.39355e-36 -0.00270658)
(0.541315 0 -0.00270658)
(0.541315 0 -0.00270658)
(0.541315 0 -0.00270658)
(0.541315 0 -0.00270658)
(0.541315 0 -0.00270658)
(0.541315 0 -0.00270658)
(0.541315 0 -0.00270658)
(0.541315 0 -0.00270658)
(0.541315 0 -0.00270658)
(0.541315 0 -0.00270658)
(0.541315 0 -0.00270658)
(0.541315 0 -0.00270658)
(0.541315 0 -0.00270658)
(0.541315 0 -0.00270658)
(0.541315 0 -0.00270658)
(0.541315 0 -0.00270658)
(0.541315 0 -0.00270658)
(0.541315 0 -0.00270658)
(0.541315 0 -0.00270658)
(0.541315 0 -0.00270658)
(0.541315 0 -0.00270658)
(0.541315 0 -0.00270658)
(0.541315 0 -0.00270658)
(0.541315 0 -0.00270658)
(0.541315 0 -0.00270658)
(0.541315 0 -0.00270658)
(0.541315 0 -0.00270658)