/*--------------------------------*- C++ -*----------------------------------*\
| =========                 |                                                 |
| \\      /  F ield         | foam-extend: Open Source CFD                    |
|  \\    /   O peration     | Version:     3.2                                |
|   \\  /    A nd           | Web:         http://www.foam-extend.org         |
|    \\/     M anipulation  | For copyright notice see file Copyright         |
\*---------------------------------------------------------------------------*/
FoamFile
{
    version     2.0;
    format      ascii;
    class       areaVectorField;
    location    "83";
    object      Ub2;
}
// * * * * * * * * * * * * * * * * * * * * * * * * * * * * * * * * * * * * * //

dimensions      [0 1 -1 0 0 0 0];

internalField   nonuniform List<vector> 
300
(
(0.768887 -1.22128e-25 -0.00384444)
(0.581657 1.78939e-25 -0.00290829)
(0.477867 6.85478e-26 -0.00238934)
(0.479223 0 -0.00239612)
(0.468962 -4.85838e-23 -0.00234481)
(0.469157 -1.28484e-23 -0.00234579)
(0.464229 -1.84509e-23 -0.00232115)
(0.464043 -3.61517e-24 -0.00232021)
(0.462255 0 -0.00231128)
(0.462948 -2.96366e-24 -0.00231474)
(0.463089 0 -0.00231544)
(0.464256 4.14007e-24 -0.00232128)
(0.4654 -5.01065e-28 -0.002327)
(0.467237 5.46021e-24 -0.00233619)
(0.468942 0 -0.00234471)
(0.47111 0 -0.00235555)
(0.473299 6.26186e-24 -0.0023665)
(0.475752 -5.83742e-24 -0.00237876)
(0.47817 6.45763e-24 -0.00239085)
(0.480836 0 -0.00240418)
(0.483616 0 -0.00241808)
(0.486479 -6.59758e-24 -0.00243239)
(0.489403 0 -0.00244701)
(0.492365 0 -0.00246182)
(0.495349 0 -0.00247674)
(0.498347 -5.91726e-24 -0.00249174)
(0.501113 -2.17884e-27 -0.00250557)
(0.503521 0 -0.00251761)
(0.505545 0 -0.00252773)
(0.507242 -2.42049e-24 -0.00253621)
(0.50865 -1.22236e-27 -0.00254325)
(0.509824 0 -0.00254912)
(0.510796 0 -0.00255398)
(0.511605 0 -0.00255803)
(0.512277 -6.1539e-28 -0.00256139)
(0.512838 0 -0.00256419)
(0.513306 0 -0.00256653)
(0.513698 0 -0.00256849)
(0.514027 0 -0.00257014)
(0.514304 0 -0.00257152)
(0.514538 0 -0.00257269)
(0.514736 -2.05028e-25 -0.00257368)
(0.514905 0 -0.00257452)
(0.515051 -1.48871e-25 -0.00257525)
(0.515174 0 -0.00257587)
(0.515277 0 -0.00257638)
(0.515364 -9.416e-26 -0.00257682)
(0.515439 0 -0.00257719)
(0.515503 -7.32141e-26 -0.00257752)
(0.515559 0 -0.0025778)
(0.515608 0 -0.00257804)
(0.515651 -5.04896e-26 -0.00257825)
(0.515688 0 -0.00257844)
(0.51572 -3.9405e-26 -0.0025786)
(0.515748 0 -0.00257874)
(0.515773 0 -0.00257886)
(0.515794 -2.68842e-26 -0.00257897)
(0.515812 0 -0.00257906)
(0.515828 -1.45347e-29 -0.00257914)
(0.515842 0 -0.00257921)
(0.515854 0 -0.00257927)
(0.515865 -1.35191e-26 -0.00257932)
(0.515874 0 -0.00257937)
(0.515882 -1.02133e-26 -0.00257941)
(0.515889 0 -0.00257944)
(0.515895 0 -0.00257947)
(0.5159 -6.66467e-27 -0.0025795)
(0.515904 0 -0.00257952)
(0.515908 -4.98464e-27 -0.00257954)
(0.515912 0 -0.00257956)
(0.515914 3.71607e-27 -0.00257957)
(0.515917 -3.20464e-27 -0.00257958)
(0.515919 0 -0.0025796)
(0.515921 -2.3826e-27 -0.0025796)
(0.515923 0 -0.00257961)
(0.515924 0 -0.00257962)
(0.515925 -1.52666e-27 -0.00257963)
(0.515926 0 -0.00257963)
(0.515927 -1.13189e-27 -0.00257964)
(0.515928 0 -0.00257964)
(0.515928 0 -0.00257964)
(0.515929 0 -0.00257965)
(0.51593 0 -0.00257965)
(0.51593 0 -0.00257965)
(0.51593 0 -0.00257965)
(0.515931 3.95805e-28 -0.00257965)
(0.515931 0 -0.00257965)
(0.515931 0 -0.00257966)
(0.515931 1.78125e-31 -0.00257966)
(0.515931 0 -0.00257966)
(0.515932 0 -0.00257966)
(0.515932 0 -0.00257966)
(0.515932 0 -0.00257966)
(0.515932 0 -0.00257966)
(0.515932 0 -0.00257966)
(0.515932 0 -0.00257966)
(0.515932 0 -0.00257966)
(0.515932 0 -0.00257966)
(0.515932 0 -0.00257966)
(0.515932 0 -0.00257966)
(0.515932 0 -0.00257966)
(0.515932 2.7288e-29 -0.00257966)
(0.515932 0 -0.00257966)
(0.515932 0 -0.00257966)
(0.515932 1.53599e-32 -0.00257966)
(0.515932 0 -0.00257966)
(0.515932 0 -0.00257966)
(0.515932 0 -0.00257966)
(0.515932 0 -0.00257966)
(0.515932 0 -0.00257966)
(0.515932 0 -0.00257966)
(0.515933 0 -0.00257966)
(0.515933 0 -0.00257966)
(0.515933 0 -0.00257966)
(0.515933 0 -0.00257966)
(0.515933 0 -0.00257966)
(0.515933 0 -0.00257966)
(0.515933 3.16698e-30 -0.00257966)
(0.515933 0 -0.00257966)
(0.515933 1.81073e-33 -0.00257966)
(0.515933 0 -0.00257966)
(0.515933 0 -0.00257966)
(0.515933 0 -0.00257966)
(0.515933 0 -0.00257966)
(0.515933 0 -0.00257966)
(0.515933 0 -0.00257966)
(0.515933 0 -0.00257966)
(0.515933 0 -0.00257966)
(0.515933 0 -0.00257966)
(0.515933 0 -0.00257966)
(0.515933 0 -0.00257966)
(0.515933 2.76752e-34 -0.00257966)
(0.515933 0 -0.00257966)
(0.515933 0 -0.00257966)
(0.515933 0 -0.00257966)
(0.515933 0 -0.00257966)
(0.515933 0 -0.00257966)
(0.515933 0 -0.00257966)
(0.515933 0 -0.00257966)
(0.515933 0 -0.00257966)
(0.515933 0 -0.00257966)
(0.515933 0 -0.00257966)
(0.515933 0 -0.00257966)
(0.515933 0 -0.00257966)
(0.515933 0 -0.00257966)
(0.515933 0 -0.00257966)
(0.515933 0 -0.00257966)
(0.515933 0 -0.00257966)
(0.515933 0 -0.00257966)
(0.515933 0 -0.00257966)
(0.515933 0 -0.00257966)
(0.515933 0 -0.00257966)
(0.515933 0 -0.00257966)
(0.515933 0 -0.00257966)
(0.515933 0 -0.00257966)
(0.515933 0 -0.00257966)
(0.515933 0 -0.00257966)
(0.515933 0 -0.00257966)
(0.515933 0 -0.00257966)
(0.515933 0 -0.00257966)
(0.515933 0 -0.00257966)
(0.515933 0 -0.00257966)
(0.515933 0 -0.00257966)
(0.515933 0 -0.00257966)
(0.515933 0 -0.00257966)
(0.515933 0 -0.00257966)
(0.515933 0 -0.00257966)
(0.515933 0 -0.00257966)
(0.515933 0 -0.00257966)
(0.515933 0 -0.00257966)
(0.515933 0 -0.00257966)
(0.515933 0 -0.00257966)
(0.515933 0 -0.00257966)
(0.515933 0 -0.00257966)
(0.515933 0 -0.00257966)
(0.515933 0 -0.00257966)
(0.515933 0 -0.00257966)
(0.515933 0 -0.00257966)
(0.515933 0 -0.00257966)
(0.515933 0 -0.00257966)
(0.515933 0 -0.00257966)
(0.515933 0 -0.00257966)
(0.515933 0 -0.00257966)
(0.515933 0 -0.00257966)
(0.515933 0 -0.00257966)
(0.515933 0 -0.00257966)
(0.515933 0 -0.00257966)
(0.515933 0 -0.00257966)
(0.515933 0 -0.00257966)
(0.515933 0 -0.00257966)
(0.515933 0 -0.00257966)
(0.515933 0 -0.00257966)
(0.515933 0 -0.00257966)
(0.515933 0 -0.00257966)
(0.515933 0 -0.00257966)
(0.515933 0 -0.00257966)
(0.515933 0 -0.00257966)
(0.515933 0 -0.00257966)
(0.515933 0 -0.00257966)
(0.515933 0 -0.00257966)
(0.515933 0 -0.00257966)
(0.515933 0 -0.00257966)
(0.515933 0 -0.00257966)
(0.515933 0 -0.00257966)
(0.515933 0 -0.00257966)
(0.515933 0 -0.00257966)
(0.515933 0 -0.00257966)
(0.515933 0 -0.00257966)
(0.515933 0 -0.00257966)
(0.515933 0 -0.00257966)
(0.515933 0 -0.00257966)
(0.515933 0 -0.00257966)
(0.515933 0 -0.00257966)
(0.515933 0 -0.00257966)
(0.515933 0 -0.00257966)
(0.515933 0 -0.00257966)
(0.515933 0 -0.00257966)
(0.515933 0 -0.00257966)
(0.515933 0 -0.00257966)
(0.515933 0 -0.00257966)
(0.515933 0 -0.00257966)
(0.515933 0 -0.00257966)
(0.515933 0 -0.00257966)
(0.515933 0 -0.00257966)
(0.515933 0 -0.00257966)
(0.515933 0 -0.00257966)
(0.515933 0 -0.00257966)
(0.515933 0 -0.00257966)
(0.515933 0 -0.00257966)
(0.515933 0 -0.00257966)
(0.515933 0 -0.00257966)
(0.515933 0 -0.00257966)
(0.515933 0 -0.00257966)
(0.515933 0 -0.00257966)
(0.515933 0 -0.00257966)
(0.515933 0 -0.00257966)
(0.515933 0 -0.00257966)
(0.515933 0 -0.00257966)
(0.515933 0 -0.00257966)
(0.515933 0 -0.00257966)
(0.515933 0 -0.00257966)
(0.515933 0 -0.00257966)
(0.515933 0 -0.00257966)
(0.515933 0 -0.00257966)
(0.515933 0 -0.00257966)
(0.515933 0 -0.00257966)
(0.515933 0 -0.00257966)
(0.515933 0 -0.00257966)
(0.515933 0 -0.00257966)
(0.515933 0 -0.00257966)
(0.515933 0 -0.00257966)
(0.515933 0 -0.00257966)
(0.515933 0 -0.00257966)
(0.515933 0 -0.00257966)
(0.515933 0 -0.00257966)
(0.515933 0 -0.00257966)
(0.515933 0 -0.00257966)
(0.515933 0 -0.00257966)
(0.515933 0 -0.00257966)
(0.515933 0 -0.00257966)
(0.515933 0 -0.00257966)
(0.515933 0 -0.00257966)
(0.515933 0 -0.00257966)
(0.515933 0 -0.00257966)
(0.515933 0 -0.00257966)
(0.515933 0 -0.00257966)
(0.515933 0 -0.00257966)
(0.515933 0 -0.00257966)
(0.515933 2.02708e-35 -0.00257966)
(0.515933 0 -0.00257966)
(0.515933 0 -0.00257966)
(0.515933 0 -0.00257966)
(0.515933 0 -0.00257966)
(0.515933 0 -0.00257966)
(0.515933 0 -0.00257966)
(0.515933 0 -0.00257966)
(0.515933 0 -0.00257966)
(0.515933 0 -0.00257966)
(0.515933 0 -0.00257966)
(0.515933 0 -0.00257966)
(0.515933 0 -0.00257966)
(0.515933 -1.58277e-31 -0.00257966)
(0.515933 0 -0.00257966)
(0.515933 0 -0.00257966)
(0.515933 0 -0.00257966)
(0.515933 0 -0.00257966)
(0.515933 0 -0.00257966)
(0.515933 0 -0.00257966)
(0.515933 0 -0.00257966)
(0.515933 0 -0.00257966)
(0.515933 0 -0.00257966)
(0.515933 0 -0.00257966)
(0.515933 0 -0.00257966)
(0.515933 0 -0.00257966)
(0.515933 0 -0.00257966)
(0.515933 0 -0.00257966)
(0.515933 0 -0.00257966)
(0.515933 0 -0.00257966)
(0.515933 0 -0.00257967)
(0.515932 0 -0.00257966)
)
;

boundaryField
{
    inlet
    {
        type            calculated;
        value           uniform (0 0 0);
    }
    outlet
    {
        type            calculated;
        value           uniform (0 0 0);
    }
    sideWall
    {
        type            empty;
    }
}


// ************************************************************************* //
