/*--------------------------------*- C++ -*----------------------------------*\
| =========                 |                                                 |
| \\      /  F ield         | foam-extend: Open Source CFD                    |
|  \\    /   O peration     | Version:     3.2                                |
|   \\  /    A nd           | Web:         http://www.foam-extend.org         |
|    \\/     M anipulation  | For copyright notice see file Copyright         |
\*---------------------------------------------------------------------------*/
FoamFile
{
    version     2.0;
    format      ascii;
    class       areaScalarField;
    location    "83";
    object      Uf;
}
// * * * * * * * * * * * * * * * * * * * * * * * * * * * * * * * * * * * * * //

dimensions      [0 1 -1 0 0 0 0];

internalField   nonuniform List<scalar> 
300
(
0.0932648
0.0745117
0.0641318
0.0642674
0.0632413
0.0632608
0.062768
0.0627493
0.0625706
0.0626398
0.0626539
0.0627707
0.0628851
0.0630688
0.0632393
0.0634561
0.063675
0.0639203
0.0641621
0.0644287
0.0647067
0.064993
0.0652854
0.0655816
0.06588
0.0661798
0.0664564
0.0666972
0.0668997
0.0670694
0.0672101
0.0673275
0.0674247
0.0675057
0.0675728
0.067629
0.0676757
0.067715
0.0677479
0.0677756
0.0677989
0.0678187
0.0678356
0.0678502
0.0678625
0.0678728
0.0678815
0.067889
0.0678955
0.0679011
0.067906
0.0679102
0.0679139
0.0679171
0.0679199
0.0679224
0.0679245
0.0679264
0.067928
0.0679294
0.0679306
0.0679316
0.0679326
0.0679333
0.067934
0.0679346
0.0679351
0.0679356
0.067936
0.0679363
0.0679366
0.0679368
0.0679371
0.0679372
0.0679374
0.0679375
0.0679377
0.0679378
0.0679378
0.0679379
0.067938
0.067938
0.0679381
0.0679381
0.0679382
0.0679382
0.0679382
0.0679383
0.0679383
0.0679383
0.0679383
0.0679383
0.0679383
0.0679383
0.0679383
0.0679384
0.0679384
0.0679384
0.0679384
0.0679384
0.0679384
0.0679384
0.0679384
0.0679384
0.0679384
0.0679384
0.0679384
0.0679384
0.0679384
0.0679384
0.0679384
0.0679384
0.0679384
0.0679384
0.0679384
0.0679384
0.0679384
0.0679384
0.0679384
0.0679384
0.0679384
0.0679384
0.0679384
0.0679384
0.0679384
0.0679384
0.0679384
0.0679384
0.0679384
0.0679384
0.0679384
0.0679384
0.0679384
0.0679384
0.0679384
0.0679384
0.0679384
0.0679384
0.0679384
0.0679384
0.0679384
0.0679384
0.0679384
0.0679384
0.0679384
0.0679384
0.0679384
0.0679384
0.0679384
0.0679384
0.0679384
0.0679384
0.0679384
0.0679384
0.0679384
0.0679384
0.0679384
0.0679384
0.0679384
0.0679384
0.0679384
0.0679384
0.0679384
0.0679384
0.0679384
0.0679384
0.0679384
0.0679384
0.0679384
0.0679384
0.0679384
0.0679384
0.0679384
0.0679384
0.0679384
0.0679384
0.0679384
0.0679384
0.0679384
0.0679384
0.0679384
0.0679384
0.0679384
0.0679384
0.0679384
0.0679384
0.0679384
0.0679384
0.0679384
0.0679384
0.0679384
0.0679384
0.0679384
0.0679384
0.0679384
0.0679384
0.0679384
0.0679384
0.0679384
0.0679384
0.0679384
0.0679384
0.0679384
0.0679384
0.0679384
0.0679384
0.0679384
0.0679384
0.0679384
0.0679384
0.0679384
0.0679384
0.0679384
0.0679384
0.0679384
0.0679384
0.0679384
0.0679384
0.0679384
0.0679384
0.0679384
0.0679384
0.0679384
0.0679384
0.0679384
0.0679384
0.0679384
0.0679384
0.0679384
0.0679384
0.0679384
0.0679384
0.0679384
0.0679384
0.0679384
0.0679384
0.0679384
0.0679384
0.0679384
0.0679384
0.0679384
0.0679384
0.0679384
0.0679384
0.0679384
0.0679384
0.0679384
0.0679384
0.0679384
0.0679384
0.0679384
0.0679384
0.0679384
0.0679384
0.0679384
0.0679384
0.0679384
0.0679384
0.0679384
0.0679384
0.0679384
0.0679384
0.0679384
0.0679384
0.0679384
0.0679384
0.0679384
0.0679384
0.0679384
0.0679384
0.0679384
0.0679384
0.0679384
0.0679384
0.0679384
0.0679384
0.0679384
0.0679384
0.0679384
0.0679384
0.0679384
0.0679384
0.0679384
0.0679384
0.0679384
0.0679384
0.0679384
0.0679384
0.0679384
0.0679384
0.0679384
0.0679384
0.0679384
0.0679384
0.0679384
0.0679384
0.0679384
0.0679384
0.0679384
0.0679383
)
;

boundaryField
{
    inlet
    {
        type            calculated;
        value           uniform 0;
    }
    outlet
    {
        type            calculated;
        value           uniform 0;
    }
    sideWall
    {
        type            empty;
    }
}


// ************************************************************************* //
