/*--------------------------------*- C++ -*----------------------------------*\
| =========                 |                                                 |
| \\      /  F ield         | foam-extend: Open Source CFD                    |
|  \\    /   O peration     | Version:     3.2                                |
|   \\  /    A nd           | Web:         http://www.foam-extend.org         |
|    \\/     M anipulation  | For copyright notice see file Copyright         |
\*---------------------------------------------------------------------------*/
FoamFile
{
    version     2.0;
    format      ascii;
    class       areaScalarField;
    location    "83";
    object      Uf2;
}
// * * * * * * * * * * * * * * * * * * * * * * * * * * * * * * * * * * * * * //

dimensions      [0 1 -1 0 0 0 0];

internalField   nonuniform List<scalar> 
300
(
0.0333062
0.0215924
0.0184553
0.0189305
0.0185534
0.0186038
0.0184224
0.0184316
0.0183623
0.0183874
0.0183819
0.0184147
0.0184406
0.018494
0.0185367
0.018598
0.0186574
0.0187259
0.0187917
0.0188673
0.018946
0.0190274
0.0191109
0.0191959
0.0192819
0.0193694
0.0194505
0.0195211
0.0195803
0.0196302
0.0196716
0.0197062
0.0197348
0.0197587
0.0197785
0.019795
0.0198087
0.0198203
0.0198299
0.019838
0.0198449
0.0198507
0.0198556
0.0198599
0.0198636
0.0198666
0.0198691
0.0198713
0.0198732
0.0198749
0.0198763
0.0198776
0.0198787
0.0198796
0.0198805
0.0198812
0.0198818
0.0198824
0.0198828
0.0198832
0.0198836
0.0198839
0.0198842
0.0198844
0.0198846
0.0198848
0.0198849
0.0198851
0.0198852
0.0198853
0.0198854
0.0198854
0.0198855
0.0198855
0.0198856
0.0198856
0.0198857
0.0198857
0.0198857
0.0198857
0.0198858
0.0198858
0.0198858
0.0198858
0.0198858
0.0198858
0.0198858
0.0198858
0.0198858
0.0198859
0.0198859
0.0198859
0.0198859
0.0198859
0.0198859
0.0198859
0.0198859
0.0198859
0.0198859
0.0198859
0.0198859
0.0198859
0.0198859
0.0198859
0.0198859
0.0198859
0.0198859
0.0198859
0.0198859
0.0198859
0.0198859
0.0198859
0.0198859
0.0198859
0.0198859
0.0198859
0.0198859
0.0198859
0.0198859
0.0198859
0.0198859
0.0198859
0.0198859
0.0198859
0.0198859
0.0198859
0.0198859
0.0198859
0.0198859
0.0198859
0.0198859
0.0198859
0.0198859
0.0198859
0.0198859
0.0198859
0.0198859
0.0198859
0.0198859
0.0198859
0.0198859
0.0198859
0.0198859
0.0198859
0.0198859
0.0198859
0.0198859
0.0198859
0.0198859
0.0198859
0.0198859
0.0198859
0.0198859
0.0198859
0.0198859
0.0198859
0.0198859
0.0198859
0.0198859
0.0198859
0.0198859
0.0198859
0.0198859
0.0198859
0.0198859
0.0198859
0.0198859
0.0198859
0.0198859
0.0198859
0.0198859
0.0198859
0.0198859
0.0198859
0.0198859
0.0198859
0.0198859
0.0198859
0.0198859
0.0198859
0.0198859
0.0198859
0.0198859
0.0198859
0.0198859
0.0198859
0.0198859
0.0198859
0.0198859
0.0198859
0.0198859
0.0198859
0.0198859
0.0198859
0.0198859
0.0198859
0.0198859
0.0198859
0.0198859
0.0198859
0.0198859
0.0198859
0.0198859
0.0198859
0.0198859
0.0198859
0.0198859
0.0198859
0.0198859
0.0198859
0.0198859
0.0198859
0.0198859
0.0198859
0.0198859
0.0198859
0.0198859
0.0198859
0.0198859
0.0198859
0.0198859
0.0198859
0.0198859
0.0198859
0.0198859
0.0198859
0.0198859
0.0198859
0.0198859
0.0198859
0.0198859
0.0198859
0.0198859
0.0198859
0.0198859
0.0198859
0.0198859
0.0198859
0.0198859
0.0198859
0.0198859
0.0198859
0.0198859
0.0198859
0.0198859
0.0198859
0.0198859
0.0198859
0.0198859
0.0198859
0.0198859
0.0198859
0.0198859
0.0198859
0.0198859
0.0198859
0.0198859
0.0198859
0.0198859
0.0198859
0.0198859
0.0198859
0.0198859
0.0198859
0.0198859
0.0198859
0.0198859
0.0198859
0.0198859
0.0198859
0.0198859
0.0198859
0.0198859
0.0198859
0.0198859
0.0198859
0.0198859
0.0198859
0.0198859
0.0198859
0.0198859
0.0198859
0.0198859
0.0198859
0.0198859
0.0198859
0.0198859
0.0198859
0.0198859
0.0198859
0.0198859
0.0198859
0.0198859
0.0198859
0.0198859
0.0198859
0.0198859
0.0198859
0.0198859
0.0198859
)
;

boundaryField
{
    inlet
    {
        type            calculated;
        value           uniform 0;
    }
    outlet
    {
        type            calculated;
        value           uniform 0;
    }
    sideWall
    {
        type            empty;
    }
}


// ************************************************************************* //
