/*--------------------------------*- C++ -*----------------------------------*\
| =========                 |                                                 |
| \\      /  F ield         | foam-extend: Open Source CFD                    |
|  \\    /   O peration     | Version:     3.2                                |
|   \\  /    A nd           | Web:         http://www.foam-extend.org         |
|    \\/     M anipulation  | For copyright notice see file Copyright         |
\*---------------------------------------------------------------------------*/
FoamFile
{
    version     2.0;
    format      ascii;
    class       areaVectorField;
    location    "83";
    object      Utau;
}
// * * * * * * * * * * * * * * * * * * * * * * * * * * * * * * * * * * * * * //

dimensions      [0 1 -1 0 0 0 0];

internalField   nonuniform List<vector> 
300
(
(0.932265 -1.48078e-25 -0.00466132)
(0.745098 2.29219e-25 -0.00372549)
(0.64131 9.1993e-26 -0.00320655)
(0.642666 0 -0.00321333)
(0.632405 -6.55162e-23 -0.00316203)
(0.6326 -1.73244e-23 -0.003163)
(0.627672 -2.49469e-23 -0.00313836)
(0.627486 -4.88849e-24 -0.00313743)
(0.625698 0 -0.00312849)
(0.626391 -4.00997e-24 -0.00313195)
(0.626532 0 -0.00313266)
(0.627699 5.59759e-24 -0.0031385)
(0.628843 -6.77033e-28 -0.00314422)
(0.63068 7.37023e-24 -0.0031534)
(0.632385 0 -0.00316192)
(0.634553 0 -0.00317277)
(0.636742 8.42425e-24 -0.00318371)
(0.639195 -7.84284e-24 -0.00319597)
(0.641613 8.66491e-24 -0.00320807)
(0.644279 0 -0.0032214)
(0.647058 0 -0.00323529)
(0.649921 -8.81418e-24 -0.00324961)
(0.652846 0 -0.00326423)
(0.655808 0 -0.00327904)
(0.658792 0 -0.00329396)
(0.66179 -7.85794e-24 -0.00330895)
(0.664556 -2.88949e-27 -0.00332278)
(0.666964 0 -0.00333482)
(0.668988 0 -0.00334494)
(0.670685 -3.20042e-24 -0.00335343)
(0.672093 -1.61513e-27 -0.00336046)
(0.673267 0 -0.00336633)
(0.674239 0 -0.00337119)
(0.675048 0 -0.00337524)
(0.67572 -8.11731e-28 -0.0033786)
(0.676281 0 -0.00338141)
(0.676749 0 -0.00338374)
(0.677141 0 -0.00338571)
(0.67747 0 -0.00338735)
(0.677747 0 -0.00338874)
(0.677981 0 -0.00338991)
(0.678179 -2.7013e-25 -0.00339089)
(0.678348 0 -0.00339174)
(0.678494 -1.96113e-25 -0.00339247)
(0.678617 0 -0.00339308)
(0.67872 0 -0.0033936)
(0.678807 -1.24022e-25 -0.00339403)
(0.678882 0 -0.00339441)
(0.678946 -9.6427e-26 -0.00339473)
(0.679002 0 -0.00339501)
(0.679051 0 -0.00339526)
(0.679094 -6.6493e-26 -0.00339547)
(0.679131 0 -0.00339565)
(0.679163 -5.18933e-26 -0.00339581)
(0.679191 0 -0.00339595)
(0.679215 0 -0.00339608)
(0.679237 -3.54032e-26 -0.00339618)
(0.679255 0 -0.00339628)
(0.679271 -1.914e-29 -0.00339636)
(0.679285 0 -0.00339643)
(0.679297 0 -0.00339649)
(0.679308 -1.78024e-26 -0.00339654)
(0.679317 0 -0.00339659)
(0.679325 -1.34491e-26 -0.00339662)
(0.679332 0 -0.00339666)
(0.679338 0 -0.00339669)
(0.679343 -8.77611e-27 -0.00339671)
(0.679347 0 -0.00339674)
(0.679351 -6.56381e-27 -0.00339676)
(0.679355 0 -0.00339677)
(0.679357 4.89334e-27 -0.00339679)
(0.67936 -4.21987e-27 -0.0033968)
(0.679362 0 -0.00339681)
(0.679364 -3.1374e-27 -0.00339682)
(0.679365 0 -0.00339683)
(0.679367 0 -0.00339683)
(0.679368 -2.0103e-27 -0.00339684)
(0.679369 0 -0.00339685)
(0.67937 -1.49047e-27 -0.00339685)
(0.679371 0 -0.00339685)
(0.679371 0 -0.00339686)
(0.679372 0 -0.00339686)
(0.679372 0 -0.00339686)
(0.679373 0 -0.00339686)
(0.679373 0 -0.00339687)
(0.679374 5.21193e-28 -0.00339687)
(0.679374 0 -0.00339687)
(0.679374 0 -0.00339687)
(0.679374 2.34554e-31 -0.00339687)
(0.679374 0 -0.00339687)
(0.679375 0 -0.00339687)
(0.679375 0 -0.00339687)
(0.679375 0 -0.00339687)
(0.679375 0 -0.00339687)
(0.679375 0 -0.00339687)
(0.679375 0 -0.00339688)
(0.679375 0 -0.00339688)
(0.679375 0 -0.00339688)
(0.679375 0 -0.00339688)
(0.679375 0 -0.00339688)
(0.679375 0 -0.00339688)
(0.679375 3.59326e-29 -0.00339688)
(0.679375 0 -0.00339688)
(0.679375 0 -0.00339688)
(0.679375 2.02258e-32 -0.00339688)
(0.679375 0 -0.00339688)
(0.679375 0 -0.00339688)
(0.679375 0 -0.00339688)
(0.679375 0 -0.00339688)
(0.679375 0 -0.00339688)
(0.679375 0 -0.00339688)
(0.679375 0 -0.00339688)
(0.679375 0 -0.00339688)
(0.679375 0 -0.00339688)
(0.679375 0 -0.00339688)
(0.679375 0 -0.00339688)
(0.679375 0 -0.00339688)
(0.679375 4.17025e-30 -0.00339688)
(0.679375 0 -0.00339688)
(0.679375 2.38435e-33 -0.00339688)
(0.679375 0 -0.00339688)
(0.679375 0 -0.00339688)
(0.679375 0 -0.00339688)
(0.679375 0 -0.00339688)
(0.679375 0 -0.00339688)
(0.679375 0 -0.00339688)
(0.679375 0 -0.00339688)
(0.679375 0 -0.00339688)
(0.679375 0 -0.00339688)
(0.679375 0 -0.00339688)
(0.679375 0 -0.00339688)
(0.679375 3.64425e-34 -0.00339688)
(0.679375 0 -0.00339688)
(0.679375 0 -0.00339688)
(0.679375 0 -0.00339688)
(0.679375 0 -0.00339688)
(0.679375 0 -0.00339688)
(0.679375 0 -0.00339688)
(0.679375 0 -0.00339688)
(0.679375 0 -0.00339688)
(0.679375 0 -0.00339688)
(0.679375 0 -0.00339688)
(0.679375 0 -0.00339688)
(0.679375 0 -0.00339688)
(0.679375 0 -0.00339688)
(0.679375 0 -0.00339688)
(0.679375 0 -0.00339688)
(0.679375 0 -0.00339688)
(0.679375 0 -0.00339688)
(0.679375 0 -0.00339688)
(0.679375 0 -0.00339688)
(0.679375 0 -0.00339688)
(0.679375 0 -0.00339688)
(0.679375 0 -0.00339688)
(0.679375 0 -0.00339688)
(0.679375 0 -0.00339688)
(0.679375 0 -0.00339688)
(0.679375 0 -0.00339688)
(0.679375 0 -0.00339688)
(0.679375 0 -0.00339688)
(0.679375 0 -0.00339688)
(0.679375 0 -0.00339688)
(0.679375 0 -0.00339688)
(0.679375 0 -0.00339688)
(0.679375 0 -0.00339688)
(0.679375 0 -0.00339688)
(0.679375 0 -0.00339688)
(0.679375 0 -0.00339688)
(0.679375 0 -0.00339688)
(0.679375 0 -0.00339688)
(0.679375 0 -0.00339688)
(0.679375 0 -0.00339688)
(0.679375 0 -0.00339688)
(0.679375 0 -0.00339688)
(0.679375 0 -0.00339688)
(0.679375 0 -0.00339688)
(0.679375 0 -0.00339688)
(0.679375 0 -0.00339688)
(0.679375 0 -0.00339688)
(0.679375 0 -0.00339688)
(0.679375 0 -0.00339688)
(0.679375 0 -0.00339688)
(0.679375 0 -0.00339688)
(0.679375 0 -0.00339688)
(0.679375 0 -0.00339688)
(0.679375 0 -0.00339688)
(0.679375 0 -0.00339688)
(0.679375 0 -0.00339688)
(0.679375 0 -0.00339688)
(0.679375 0 -0.00339688)
(0.679375 0 -0.00339688)
(0.679375 0 -0.00339688)
(0.679375 0 -0.00339688)
(0.679375 0 -0.00339688)
(0.679375 0 -0.00339688)
(0.679375 0 -0.00339688)
(0.679375 0 -0.00339688)
(0.679375 0 -0.00339688)
(0.679375 0 -0.00339688)
(0.679375 0 -0.00339688)
(0.679375 0 -0.00339688)
(0.679375 0 -0.00339688)
(0.679375 0 -0.00339688)
(0.679375 0 -0.00339688)
(0.679375 0 -0.00339688)
(0.679375 0 -0.00339688)
(0.679375 0 -0.00339688)
(0.679375 0 -0.00339688)
(0.679375 0 -0.00339688)
(0.679375 0 -0.00339688)
(0.679375 0 -0.00339688)
(0.679375 0 -0.00339688)
(0.679375 0 -0.00339688)
(0.679375 0 -0.00339688)
(0.679375 0 -0.00339688)
(0.679375 0 -0.00339688)
(0.679375 0 -0.00339688)
(0.679375 0 -0.00339688)
(0.679375 0 -0.00339688)
(0.679375 0 -0.00339688)
(0.679375 0 -0.00339688)
(0.679375 0 -0.00339688)
(0.679375 0 -0.00339688)
(0.679375 0 -0.00339688)
(0.679375 0 -0.00339688)
(0.679375 0 -0.00339688)
(0.679375 0 -0.00339688)
(0.679375 0 -0.00339688)
(0.679375 0 -0.00339688)
(0.679375 0 -0.00339688)
(0.679375 0 -0.00339688)
(0.679375 0 -0.00339688)
(0.679375 0 -0.00339688)
(0.679375 0 -0.00339688)
(0.679375 0 -0.00339688)
(0.679375 0 -0.00339688)
(0.679375 0 -0.00339688)
(0.679375 0 -0.00339688)
(0.679375 0 -0.00339688)
(0.679375 0 -0.00339688)
(0.679375 0 -0.00339688)
(0.679375 0 -0.00339688)
(0.679375 0 -0.00339688)
(0.679375 0 -0.00339688)
(0.679375 0 -0.00339688)
(0.679375 0 -0.00339688)
(0.679375 0 -0.00339688)
(0.679375 0 -0.00339688)
(0.679375 0 -0.00339688)
(0.679375 0 -0.00339688)
(0.679375 0 -0.00339688)
(0.679375 0 -0.00339688)
(0.679375 0 -0.00339688)
(0.679375 0 -0.00339688)
(0.679375 0 -0.00339688)
(0.679375 0 -0.00339688)
(0.679375 0 -0.00339688)
(0.679375 0 -0.00339688)
(0.679375 0 -0.00339688)
(0.679375 0 -0.00339688)
(0.679375 0 -0.00339688)
(0.679375 0 -0.00339688)
(0.679375 0 -0.00339688)
(0.679375 0 -0.00339688)
(0.679375 0 -0.00339688)
(0.679375 0 -0.00339688)
(0.679375 0 -0.00339688)
(0.679375 0 -0.00339688)
(0.679375 2.66924e-35 -0.00339688)
(0.679375 0 -0.00339688)
(0.679375 0 -0.00339688)
(0.679375 0 -0.00339688)
(0.679375 0 -0.00339688)
(0.679375 0 -0.00339688)
(0.679375 0 -0.00339688)
(0.679375 0 -0.00339688)
(0.679375 0 -0.00339688)
(0.679375 0 -0.00339688)
(0.679375 0 -0.00339688)
(0.679375 0 -0.00339688)
(0.679375 0 -0.00339688)
(0.679375 -2.08418e-31 -0.00339688)
(0.679375 0 -0.00339688)
(0.679375 0 -0.00339688)
(0.679375 0 -0.00339688)
(0.679375 0 -0.00339688)
(0.679375 0 -0.00339688)
(0.679375 0 -0.00339688)
(0.679375 0 -0.00339688)
(0.679375 0 -0.00339688)
(0.679375 0 -0.00339688)
(0.679375 0 -0.00339688)
(0.679375 0 -0.00339688)
(0.679375 0 -0.00339688)
(0.679375 0 -0.00339688)
(0.679375 0 -0.00339688)
(0.679375 0 -0.00339688)
(0.679375 0 -0.00339688)
(0.679376 0 -0.00339688)
(0.679375 0 -0.00339687)
)
;

boundaryField
{
    inlet
    {
        type            calculated;
        value           uniform (0 0 0);
    }
    outlet
    {
        type            calculated;
        value           uniform (0 0 0);
    }
    sideWall
    {
        type            empty;
    }
}


// ************************************************************************* //
