/*--------------------------------*- C++ -*----------------------------------*\
| =========                 |                                                 |
| \\      /  F ield         | foam-extend: Open Source CFD                    |
|  \\    /   O peration     | Version:     3.2                                |
|   \\  /    A nd           | Web:         http://www.foam-extend.org         |
|    \\/     M anipulation  | For copyright notice see file Copyright         |
\*---------------------------------------------------------------------------*/
FoamFile
{
    version     2.0;
    format      ascii;
    class       surfaceScalarField;
    location    "37";
    object      AdSS1;
}
// * * * * * * * * * * * * * * * * * * * * * * * * * * * * * * * * * * * * * //

dimensions      [0 3 -1 0 0 0 0];

internalField   nonuniform List<scalar> 
191380
(
6.20161e-05
2.38444e-05
4.34317e-05
3.19499e-06
3.68831e-05
-8.84083e-06
3.4861e-05
-1.33674e-05
3.39661e-05
-1.44946e-05
3.33299e-05
-1.47532e-05
3.27754e-05
-1.4835e-05
3.22528e-05
-1.48668e-05
3.17611e-05
-1.48978e-05
3.13152e-05
-1.49436e-05
3.09158e-05
-1.49901e-05
3.05513e-05
-1.50249e-05
3.0221e-05
-1.50592e-05
2.99227e-05
-1.50912e-05
2.96509e-05
-1.51176e-05
2.94013e-05
-1.51399e-05
2.91694e-05
-1.51575e-05
2.89547e-05
-1.51748e-05
2.87583e-05
-1.51931e-05
2.85779e-05
-1.52091e-05
2.84077e-05
-1.52192e-05
2.82465e-05
-1.52283e-05
2.8094e-05
-1.5237e-05
2.79505e-05
-1.52459e-05
2.78145e-05
-1.52534e-05
2.76852e-05
-1.52601e-05
2.75619e-05
-1.52662e-05
2.74441e-05
-1.52717e-05
2.73324e-05
-1.52777e-05
2.72255e-05
-1.52825e-05
2.71233e-05
-1.52872e-05
2.70249e-05
-1.52911e-05
2.69305e-05
-1.52951e-05
2.68399e-05
-1.52988e-05
2.67529e-05
-1.53025e-05
2.66691e-05
-1.53057e-05
2.65882e-05
-1.53085e-05
2.65102e-05
-1.53114e-05
2.64345e-05
-1.53138e-05
2.63618e-05
-1.53167e-05
2.62913e-05
-1.53189e-05
2.62231e-05
-1.53213e-05
2.61569e-05
-1.53233e-05
2.60926e-05
-1.53252e-05
2.60303e-05
-1.53272e-05
2.59698e-05
-1.5329e-05
2.59113e-05
-1.53309e-05
2.58541e-05
-1.53323e-05
2.57986e-05
-1.5334e-05
2.57444e-05
-1.53353e-05
2.56917e-05
-1.53367e-05
2.56405e-05
-1.53382e-05
2.55905e-05
-1.53395e-05
2.55418e-05
-1.53408e-05
2.54942e-05
-1.53419e-05
2.54477e-05
-1.5343e-05
2.54023e-05
-1.5344e-05
2.53575e-05
-1.53447e-05
2.53137e-05
-1.53456e-05
2.52708e-05
-1.53466e-05
2.5229e-05
-1.53476e-05
2.51881e-05
-1.53486e-05
2.5148e-05
-1.53494e-05
2.51089e-05
-1.53503e-05
2.50706e-05
-1.53512e-05
2.50331e-05
-1.5352e-05
2.49963e-05
-1.53527e-05
2.49603e-05
-1.53534e-05
2.4925e-05
-1.53541e-05
2.48904e-05
-1.53548e-05
2.48565e-05
-1.53555e-05
2.48232e-05
-1.53562e-05
2.47905e-05
-1.53568e-05
2.47585e-05
-1.53574e-05
2.4727e-05
-1.5358e-05
2.46961e-05
-1.53586e-05
2.46657e-05
-1.53591e-05
2.4636e-05
-1.53597e-05
2.46067e-05
-1.53602e-05
2.45779e-05
-1.53607e-05
2.45496e-05
-1.53612e-05
2.45218e-05
-1.53616e-05
2.44945e-05
-1.53621e-05
2.44675e-05
-1.53625e-05
2.44411e-05
-1.5363e-05
2.44151e-05
-1.53635e-05
2.43895e-05
-1.53638e-05
2.43643e-05
-1.53643e-05
2.43395e-05
-1.53646e-05
2.4315e-05
-1.5365e-05
2.4291e-05
-1.53654e-05
2.42673e-05
-1.53658e-05
2.4244e-05
-1.53662e-05
2.4221e-05
-1.53665e-05
2.41984e-05
-1.53668e-05
2.41761e-05
-1.53672e-05
2.41541e-05
-1.53675e-05
2.41325e-05
-1.53678e-05
2.41111e-05
-1.53681e-05
2.40901e-05
-1.53684e-05
2.40693e-05
-1.53687e-05
2.40489e-05
-1.5369e-05
2.40287e-05
-1.53693e-05
2.40088e-05
-1.53696e-05
2.39892e-05
-1.53698e-05
2.39698e-05
-1.53701e-05
2.39507e-05
-1.53704e-05
2.39319e-05
-1.53706e-05
2.39133e-05
-1.53709e-05
2.38949e-05
-1.53711e-05
2.38768e-05
-1.53713e-05
2.38589e-05
-1.53716e-05
2.38413e-05
-1.53718e-05
2.38238e-05
-1.5372e-05
2.38066e-05
-1.53723e-05
2.37897e-05
-1.53725e-05
2.37729e-05
-1.53727e-05
2.37563e-05
-1.53729e-05
2.374e-05
-1.53731e-05
2.37238e-05
-1.53733e-05
2.37079e-05
-1.53735e-05
2.36921e-05
-1.53737e-05
2.36765e-05
-1.53739e-05
2.36612e-05
-1.53741e-05
2.3646e-05
-1.53743e-05
2.3631e-05
-1.53745e-05
2.36162e-05
-1.53747e-05
2.36016e-05
-1.53748e-05
2.35871e-05
-1.5375e-05
2.35728e-05
-1.53751e-05
2.35586e-05
-1.53752e-05
2.35445e-05
-1.53753e-05
2.35305e-05
-1.53755e-05
2.35165e-05
-1.53756e-05
2.35028e-05
-1.53757e-05
2.34891e-05
-1.53758e-05
2.34756e-05
-1.5376e-05
2.34623e-05
-1.53761e-05
2.34492e-05
-1.53763e-05
2.34362e-05
-1.53765e-05
2.34235e-05
-1.53767e-05
2.34109e-05
-1.53769e-05
2.33986e-05
-1.53771e-05
2.33864e-05
-1.53773e-05
2.33744e-05
-1.53775e-05
2.33626e-05
-1.53776e-05
2.33509e-05
-1.53777e-05
2.33393e-05
-1.53779e-05
2.33277e-05
-1.5378e-05
2.33163e-05
-1.5378e-05
2.3305e-05
-1.53781e-05
2.32937e-05
-1.53782e-05
2.32826e-05
-1.53783e-05
2.32714e-05
-1.53783e-05
2.32604e-05
-1.53784e-05
2.32495e-05
-1.53785e-05
2.32386e-05
-1.53786e-05
2.32279e-05
-1.53787e-05
2.32172e-05
-1.53788e-05
2.32067e-05
-1.53789e-05
2.31963e-05
-1.5379e-05
2.3186e-05
-1.53792e-05
2.31758e-05
-1.53793e-05
2.31658e-05
-1.53794e-05
2.31558e-05
-1.53795e-05
2.3146e-05
-1.53796e-05
2.31362e-05
-1.53797e-05
2.31266e-05
-1.53798e-05
2.3117e-05
-1.53799e-05
2.31075e-05
-1.538e-05
2.30981e-05
-1.53801e-05
2.30888e-05
-1.53802e-05
2.30796e-05
-1.53802e-05
2.30705e-05
-1.53803e-05
2.30615e-05
-1.53804e-05
2.30525e-05
-1.53805e-05
2.30436e-05
-1.53806e-05
2.30348e-05
-1.53807e-05
2.30261e-05
-1.53807e-05
2.30174e-05
-1.53808e-05
2.30088e-05
-1.53809e-05
2.30004e-05
-1.5381e-05
2.29919e-05
-1.5381e-05
2.29836e-05
-1.53811e-05
2.29753e-05
-1.53812e-05
2.29672e-05
-1.53813e-05
2.2959e-05
-1.53813e-05
2.2951e-05
-1.53814e-05
2.2943e-05
-1.53815e-05
2.29351e-05
-1.53816e-05
2.29273e-05
-1.53816e-05
2.29195e-05
-1.53817e-05
2.29118e-05
-1.53818e-05
2.29042e-05
-1.53818e-05
2.28967e-05
-1.53819e-05
2.28892e-05
-1.5382e-05
2.28817e-05
-1.5382e-05
2.28744e-05
-1.53821e-05
2.28671e-05
-1.53822e-05
2.28598e-05
-1.53822e-05
2.28526e-05
-1.53823e-05
2.28455e-05
-1.53823e-05
2.28385e-05
-1.53824e-05
2.28315e-05
-1.53825e-05
2.28245e-05
-1.53825e-05
2.28177e-05
-1.53826e-05
2.28108e-05
-1.53826e-05
2.28041e-05
-1.53827e-05
2.27973e-05
-1.53827e-05
2.27907e-05
-1.53828e-05
2.27841e-05
-1.53829e-05
2.27775e-05
-1.53829e-05
2.27711e-05
-1.5383e-05
2.27646e-05
-1.5383e-05
2.27582e-05
-1.53831e-05
2.27519e-05
-1.53831e-05
2.27456e-05
-1.53832e-05
2.27394e-05
-1.53832e-05
2.27332e-05
-1.53833e-05
2.27271e-05
-1.53833e-05
2.2721e-05
-1.53834e-05
2.2715e-05
-1.53834e-05
2.2709e-05
-1.53835e-05
2.27031e-05
-1.53835e-05
2.26972e-05
-1.53836e-05
2.26913e-05
-1.53836e-05
2.26855e-05
-1.53837e-05
2.26798e-05
-1.53837e-05
2.26741e-05
-1.53838e-05
2.26684e-05
-1.53838e-05
2.26628e-05
-1.53838e-05
2.26573e-05
-1.53839e-05
2.26518e-05
-1.53839e-05
2.26463e-05
-1.5384e-05
2.26408e-05
-1.5384e-05
2.26355e-05
-1.53841e-05
2.26301e-05
-1.53841e-05
2.26248e-05
-1.53842e-05
2.26195e-05
-1.53842e-05
2.26143e-05
-1.53842e-05
2.26091e-05
-1.53843e-05
2.2604e-05
-1.53843e-05
2.25989e-05
-1.53843e-05
2.25938e-05
-1.53844e-05
2.25888e-05
-1.53844e-05
2.25838e-05
-1.53845e-05
2.25789e-05
-1.53845e-05
2.2574e-05
-1.53846e-05
2.25691e-05
-1.53846e-05
2.25643e-05
-1.53846e-05
2.25595e-05
-1.53847e-05
2.25547e-05
-1.53847e-05
2.255e-05
-1.53847e-05
2.25453e-05
-1.53848e-05
2.25407e-05
-1.53848e-05
2.25361e-05
-1.53849e-05
2.25315e-05
-1.53849e-05
2.2527e-05
-1.53849e-05
2.25224e-05
-1.53849e-05
2.2518e-05
-1.5385e-05
2.25135e-05
-1.5385e-05
2.25091e-05
-1.53851e-05
2.25047e-05
-1.53851e-05
2.25004e-05
-1.53852e-05
2.24961e-05
-1.53851e-05
2.24918e-05
-1.53852e-05
2.24876e-05
-1.53852e-05
2.24834e-05
-1.53853e-05
2.24792e-05
-1.53852e-05
2.24751e-05
-1.53854e-05
2.24709e-05
-1.53853e-05
2.24669e-05
-1.53854e-05
2.24628e-05
-1.53854e-05
2.24588e-05
-1.53855e-05
2.24547e-05
-1.53854e-05
2.24508e-05
-1.53855e-05
2.24468e-05
-1.53855e-05
2.2443e-05
-1.53856e-05
2.2439e-05
-1.53855e-05
2.24352e-05
-1.53856e-05
2.24313e-05
-1.53856e-05
2.24276e-05
-1.53857e-05
2.24237e-05
-1.53856e-05
2.242e-05
-1.53857e-05
2.24162e-05
-1.53857e-05
2.24125e-05
-1.53857e-05
2.24088e-05
-1.53857e-05
2.24051e-05
-1.53857e-05
2.24014e-05
-1.53858e-05
2.23976e-05
-1.53857e-05
2.2394e-05
-1.53858e-05
2.23903e-05
-1.53857e-05
2.23865e-05
-1.53857e-05
2.23831e-05
-1.5386e-05
2.23794e-05
-1.53857e-05
2.23764e-05
-1.53865e-05
2.23738e-05
-1.53869e-05
2.23689e-05
-1.53845e-05
2.23675e-05
-1.53881e-05
-1.53685e-05
8.94816e-05
3.56128e-05
7.65994e-05
1.60772e-05
6.80419e-05
-2.83325e-07
6.32813e-05
-8.60673e-06
6.03139e-05
-1.15272e-05
5.82032e-05
-1.26425e-05
5.65594e-05
-1.31912e-05
5.5187e-05
-1.34944e-05
5.40281e-05
-1.37389e-05
5.30422e-05
-1.39577e-05
5.21841e-05
-1.4132e-05
5.14251e-05
-1.42659e-05
5.07532e-05
-1.43873e-05
5.01583e-05
-1.44963e-05
4.96219e-05
-1.45812e-05
4.91338e-05
-1.46519e-05
4.86864e-05
-1.47101e-05
4.82767e-05
-1.47651e-05
4.78994e-05
-1.48157e-05
4.75473e-05
-1.48569e-05
4.72174e-05
-1.48894e-05
4.69082e-05
-1.49192e-05
4.66185e-05
-1.49473e-05
4.63469e-05
-1.49743e-05
4.60908e-05
-1.49973e-05
4.58484e-05
-1.50178e-05
4.56188e-05
-1.50366e-05
4.54008e-05
-1.50536e-05
4.51943e-05
-1.50713e-05
4.49975e-05
-1.50857e-05
4.48098e-05
-1.50995e-05
4.46302e-05
-1.51115e-05
4.44583e-05
-1.51232e-05
4.42938e-05
-1.51343e-05
4.41362e-05
-1.5145e-05
4.39848e-05
-1.51543e-05
4.3839e-05
-1.51627e-05
4.36987e-05
-1.51712e-05
4.35632e-05
-1.51783e-05
4.3433e-05
-1.51865e-05
4.33071e-05
-1.5193e-05
4.31855e-05
-1.51996e-05
4.30678e-05
-1.52056e-05
4.29537e-05
-1.52111e-05
4.28433e-05
-1.52168e-05
4.27363e-05
-1.5222e-05
4.26327e-05
-1.52273e-05
4.25319e-05
-1.52315e-05
4.2434e-05
-1.52361e-05
4.23389e-05
-1.52402e-05
4.22463e-05
-1.52441e-05
4.21563e-05
-1.52483e-05
4.20687e-05
-1.52519e-05
4.19834e-05
-1.52555e-05
4.19002e-05
-1.52587e-05
4.18191e-05
-1.52619e-05
4.17399e-05
-1.52648e-05
4.16628e-05
-1.52676e-05
4.15878e-05
-1.52706e-05
4.15145e-05
-1.52733e-05
4.1443e-05
-1.52761e-05
4.13731e-05
-1.52787e-05
4.13048e-05
-1.52811e-05
4.1238e-05
-1.52835e-05
4.11727e-05
-1.52859e-05
4.11089e-05
-1.52881e-05
4.10463e-05
-1.52902e-05
4.09851e-05
-1.52922e-05
4.0925e-05
-1.52941e-05
4.08662e-05
-1.5296e-05
4.08086e-05
-1.52979e-05
4.07521e-05
-1.52997e-05
4.06967e-05
-1.53014e-05
4.06423e-05
-1.5303e-05
4.05889e-05
-1.53047e-05
4.05366e-05
-1.53062e-05
4.04852e-05
-1.53077e-05
4.04347e-05
-1.53092e-05
4.03851e-05
-1.53106e-05
4.03365e-05
-1.5312e-05
4.02886e-05
-1.53133e-05
4.02416e-05
-1.53146e-05
4.01954e-05
-1.53159e-05
4.01499e-05
-1.53171e-05
4.01052e-05
-1.53183e-05
4.00613e-05
-1.53196e-05
4.00181e-05
-1.53206e-05
3.99756e-05
-1.53218e-05
3.99337e-05
-1.53228e-05
3.98925e-05
-1.53238e-05
3.9852e-05
-1.53249e-05
3.98121e-05
-1.53258e-05
3.97728e-05
-1.53269e-05
3.97341e-05
-1.53278e-05
3.9696e-05
-1.53287e-05
3.96584e-05
-1.53296e-05
3.96214e-05
-1.53305e-05
3.9585e-05
-1.53313e-05
3.95491e-05
-1.53322e-05
3.95137e-05
-1.5333e-05
3.94788e-05
-1.53338e-05
3.94444e-05
-1.53346e-05
3.94105e-05
-1.53353e-05
3.9377e-05
-1.53361e-05
3.93441e-05
-1.53369e-05
3.93115e-05
-1.53375e-05
3.92795e-05
-1.53383e-05
3.92478e-05
-1.5339e-05
3.92166e-05
-1.53396e-05
3.91858e-05
-1.53403e-05
3.91554e-05
-1.53409e-05
3.91254e-05
-1.53416e-05
3.90958e-05
-1.53422e-05
3.90665e-05
-1.53428e-05
3.90377e-05
-1.53434e-05
3.90092e-05
-1.5344e-05
3.89811e-05
-1.53446e-05
3.89534e-05
-1.53452e-05
3.8926e-05
-1.53457e-05
3.88989e-05
-1.53462e-05
3.88722e-05
-1.53468e-05
3.88458e-05
-1.53473e-05
3.88198e-05
-1.53478e-05
3.8794e-05
-1.53484e-05
3.87687e-05
-1.53489e-05
3.87436e-05
-1.53494e-05
3.87189e-05
-1.53499e-05
3.86944e-05
-1.53504e-05
3.86702e-05
-1.53508e-05
3.86462e-05
-1.53511e-05
3.86224e-05
-1.53514e-05
3.85987e-05
-1.53517e-05
3.85752e-05
-1.5352e-05
3.85519e-05
-1.53522e-05
3.85288e-05
-1.53526e-05
3.85059e-05
-1.53529e-05
3.84833e-05
-1.53533e-05
3.8461e-05
-1.53538e-05
3.8439e-05
-1.53543e-05
3.84173e-05
-1.53548e-05
3.8396e-05
-1.53554e-05
3.8375e-05
-1.5356e-05
3.83544e-05
-1.53565e-05
3.83342e-05
-1.5357e-05
3.83142e-05
-1.53575e-05
3.82944e-05
-1.53579e-05
3.82749e-05
-1.53582e-05
3.82556e-05
-1.53585e-05
3.82365e-05
-1.53588e-05
3.82175e-05
-1.5359e-05
3.81986e-05
-1.53592e-05
3.81798e-05
-1.53594e-05
3.81611e-05
-1.53596e-05
3.81426e-05
-1.53598e-05
3.81241e-05
-1.536e-05
3.81058e-05
-1.53602e-05
3.80877e-05
-1.53605e-05
3.80698e-05
-1.53608e-05
3.8052e-05
-1.53611e-05
3.80344e-05
-1.53614e-05
3.80171e-05
-1.53617e-05
3.79999e-05
-1.5362e-05
3.79829e-05
-1.53623e-05
3.79661e-05
-1.53626e-05
3.79495e-05
-1.53629e-05
3.79331e-05
-1.53632e-05
3.79168e-05
-1.53634e-05
3.79007e-05
-1.53637e-05
3.78848e-05
-1.5364e-05
3.7869e-05
-1.53642e-05
3.78534e-05
-1.53644e-05
3.78379e-05
-1.53647e-05
3.78225e-05
-1.53649e-05
3.78073e-05
-1.53651e-05
3.77922e-05
-1.53653e-05
3.77772e-05
-1.53655e-05
3.77624e-05
-1.53658e-05
3.77478e-05
-1.5366e-05
3.77332e-05
-1.53662e-05
3.77188e-05
-1.53664e-05
3.77045e-05
-1.53666e-05
3.76904e-05
-1.53668e-05
3.76764e-05
-1.5367e-05
3.76625e-05
-1.53672e-05
3.76487e-05
-1.53674e-05
3.76351e-05
-1.53676e-05
3.76216e-05
-1.53678e-05
3.76082e-05
-1.5368e-05
3.75949e-05
-1.53682e-05
3.75817e-05
-1.53684e-05
3.75687e-05
-1.53686e-05
3.75558e-05
-1.53688e-05
3.7543e-05
-1.5369e-05
3.75303e-05
-1.53691e-05
3.75177e-05
-1.53693e-05
3.75052e-05
-1.53695e-05
3.74928e-05
-1.53697e-05
3.74806e-05
-1.53698e-05
3.74684e-05
-1.537e-05
3.74564e-05
-1.53702e-05
3.74444e-05
-1.53703e-05
3.74326e-05
-1.53705e-05
3.74208e-05
-1.53707e-05
3.74092e-05
-1.53708e-05
3.73976e-05
-1.5371e-05
3.73862e-05
-1.53711e-05
3.73748e-05
-1.53713e-05
3.73636e-05
-1.53714e-05
3.73524e-05
-1.53716e-05
3.73413e-05
-1.53717e-05
3.73303e-05
-1.53719e-05
3.73194e-05
-1.5372e-05
3.73086e-05
-1.53722e-05
3.72979e-05
-1.53723e-05
3.72873e-05
-1.53724e-05
3.72768e-05
-1.53726e-05
3.72663e-05
-1.53727e-05
3.7256e-05
-1.53729e-05
3.72457e-05
-1.5373e-05
3.72355e-05
-1.53731e-05
3.72254e-05
-1.53733e-05
3.72153e-05
-1.53734e-05
3.72054e-05
-1.53735e-05
3.71955e-05
-1.53737e-05
3.71857e-05
-1.53738e-05
3.7176e-05
-1.53739e-05
3.71664e-05
-1.5374e-05
3.71568e-05
-1.53742e-05
3.71474e-05
-1.53743e-05
3.7138e-05
-1.53744e-05
3.71286e-05
-1.53745e-05
3.71194e-05
-1.53746e-05
3.71102e-05
-1.53748e-05
3.71011e-05
-1.53749e-05
3.70921e-05
-1.5375e-05
3.70831e-05
-1.53751e-05
3.70742e-05
-1.53752e-05
3.70654e-05
-1.53753e-05
3.70566e-05
-1.53754e-05
3.7048e-05
-1.53756e-05
3.70393e-05
-1.53757e-05
3.70308e-05
-1.53758e-05
3.70223e-05
-1.53759e-05
3.70139e-05
-1.5376e-05
3.70056e-05
-1.53761e-05
3.69973e-05
-1.53762e-05
3.69891e-05
-1.53763e-05
3.69809e-05
-1.53764e-05
3.69728e-05
-1.53765e-05
3.69648e-05
-1.53766e-05
3.69568e-05
-1.53767e-05
3.69489e-05
-1.53768e-05
3.69411e-05
-1.53769e-05
3.69333e-05
-1.5377e-05
3.69255e-05
-1.5377e-05
3.69179e-05
-1.53772e-05
3.69103e-05
-1.53772e-05
3.69027e-05
-1.53774e-05
3.68952e-05
-1.53774e-05
3.68878e-05
-1.53776e-05
3.68804e-05
-1.53776e-05
3.68731e-05
-1.53778e-05
3.68658e-05
-1.53778e-05
3.68586e-05
-1.5378e-05
3.68514e-05
-1.53779e-05
3.68444e-05
-1.53782e-05
3.68373e-05
-1.53781e-05
3.68303e-05
-1.53783e-05
3.68233e-05
-1.53782e-05
3.68165e-05
-1.53785e-05
3.68096e-05
-1.53784e-05
3.68029e-05
-1.53787e-05
3.67961e-05
-1.53786e-05
3.67894e-05
-1.53788e-05
3.67827e-05
-1.53787e-05
3.67762e-05
-1.5379e-05
3.67696e-05
-1.53788e-05
3.67631e-05
-1.53792e-05
3.67566e-05
-1.5379e-05
3.67503e-05
-1.53793e-05
3.67438e-05
-1.53791e-05
3.67375e-05
-1.53794e-05
3.67312e-05
-1.53793e-05
3.6725e-05
-1.53795e-05
3.67187e-05
-1.53794e-05
3.67126e-05
-1.53796e-05
3.67064e-05
-1.53796e-05
3.67002e-05
-1.53796e-05
3.66941e-05
-1.53797e-05
3.6688e-05
-1.53796e-05
3.66819e-05
-1.53797e-05
3.66758e-05
-1.53796e-05
3.66695e-05
-1.53795e-05
3.66636e-05
-1.53801e-05
3.66573e-05
-1.53794e-05
3.66518e-05
-1.5381e-05
3.66471e-05
-1.53821e-05
3.66403e-05
-1.53778e-05
3.6636e-05
-1.53838e-05
-1.53487e-05
9.94287e-05
3.74341e-05
9.34365e-05
2.20693e-05
8.60996e-05
7.05359e-06
8.00867e-05
-2.59377e-06
7.57094e-05
-7.15002e-06
7.24369e-05
-9.36999e-06
6.99182e-05
-1.06725e-05
6.79141e-05
-1.14903e-05
6.62808e-05
-1.21056e-05
6.49103e-05
-1.25871e-05
6.37256e-05
-1.29473e-05
6.2691e-05
-1.32314e-05
6.17843e-05
-1.34806e-05
6.0986e-05
-1.3698e-05
6.02684e-05
-1.38636e-05
5.96186e-05
-1.4002e-05
5.9027e-05
-1.41184e-05
5.84879e-05
-1.4226e-05
5.79937e-05
-1.43216e-05
5.7535e-05
-1.43982e-05
5.71074e-05
-1.44618e-05
5.67087e-05
-1.45204e-05
5.63362e-05
-1.45748e-05
5.59876e-05
-1.46257e-05
5.56594e-05
-1.46691e-05
5.53495e-05
-1.47079e-05
5.50566e-05
-1.47438e-05
5.47792e-05
-1.47761e-05
5.45167e-05
-1.48088e-05
5.42669e-05
-1.48359e-05
5.40289e-05
-1.48615e-05
5.38016e-05
-1.48842e-05
5.35845e-05
-1.4906e-05
5.33769e-05
-1.49268e-05
5.31783e-05
-1.49463e-05
5.29876e-05
-1.49636e-05
5.28042e-05
-1.49793e-05
5.2628e-05
-1.4995e-05
5.24581e-05
-1.50084e-05
5.22948e-05
-1.50231e-05
5.21371e-05
-1.50354e-05
5.19849e-05
-1.50474e-05
5.18377e-05
-1.50584e-05
5.16952e-05
-1.50686e-05
5.15575e-05
-1.50791e-05
5.14241e-05
-1.50886e-05
5.12949e-05
-1.50981e-05
5.11694e-05
-1.5106e-05
5.10476e-05
-1.51143e-05
5.09293e-05
-1.51218e-05
5.08142e-05
-1.5129e-05
5.07025e-05
-1.51365e-05
5.05938e-05
-1.51431e-05
5.04879e-05
-1.51497e-05
5.03848e-05
-1.51555e-05
5.02842e-05
-1.51613e-05
5.01863e-05
-1.51669e-05
5.00908e-05
-1.51721e-05
4.99979e-05
-1.51777e-05
4.99073e-05
-1.51827e-05
4.98188e-05
-1.51876e-05
4.97324e-05
-1.51923e-05
4.9648e-05
-1.51967e-05
4.95655e-05
-1.5201e-05
4.94849e-05
-1.52053e-05
4.9406e-05
-1.52092e-05
4.93288e-05
-1.5213e-05
4.92533e-05
-1.52166e-05
4.91792e-05
-1.52201e-05
4.91068e-05
-1.52235e-05
4.90357e-05
-1.52269e-05
4.89662e-05
-1.52301e-05
4.8898e-05
-1.52332e-05
4.8831e-05
-1.5236e-05
4.87654e-05
-1.5239e-05
4.8701e-05
-1.52418e-05
4.86378e-05
-1.52445e-05
4.85757e-05
-1.52472e-05
4.85148e-05
-1.52497e-05
4.8455e-05
-1.52522e-05
4.83963e-05
-1.52546e-05
4.83385e-05
-1.52568e-05
4.82818e-05
-1.52592e-05
4.8226e-05
-1.52613e-05
4.81712e-05
-1.52635e-05
4.81173e-05
-1.52657e-05
4.80643e-05
-1.52675e-05
4.80121e-05
-1.52696e-05
4.79609e-05
-1.52715e-05
4.79104e-05
-1.52733e-05
4.78607e-05
-1.52753e-05
4.78118e-05
-1.52769e-05
4.77637e-05
-1.52787e-05
4.77163e-05
-1.52805e-05
4.76696e-05
-1.5282e-05
4.76237e-05
-1.52837e-05
4.75784e-05
-1.52852e-05
4.75338e-05
-1.52867e-05
4.74899e-05
-1.52883e-05
4.74466e-05
-1.52897e-05
4.74039e-05
-1.52912e-05
4.73619e-05
-1.52926e-05
4.73204e-05
-1.52939e-05
4.72796e-05
-1.52953e-05
4.72393e-05
-1.52966e-05
4.71995e-05
-1.52978e-05
4.71603e-05
-1.52991e-05
4.71217e-05
-1.53003e-05
4.70835e-05
-1.53015e-05
4.70459e-05
-1.53027e-05
4.70088e-05
-1.53038e-05
4.69722e-05
-1.53049e-05
4.6936e-05
-1.53061e-05
4.69004e-05
-1.53071e-05
4.68652e-05
-1.53082e-05
4.68304e-05
-1.53093e-05
4.67961e-05
-1.53103e-05
4.67623e-05
-1.53113e-05
4.67289e-05
-1.53123e-05
4.66959e-05
-1.53132e-05
4.66633e-05
-1.53142e-05
4.66311e-05
-1.53151e-05
4.65994e-05
-1.53161e-05
4.6568e-05
-1.5317e-05
4.65371e-05
-1.53179e-05
4.65065e-05
-1.53189e-05
4.64763e-05
-1.53198e-05
4.64465e-05
-1.53205e-05
4.6417e-05
-1.53212e-05
4.63877e-05
-1.53219e-05
4.63586e-05
-1.53224e-05
4.63298e-05
-1.53228e-05
4.63012e-05
-1.53233e-05
4.62727e-05
-1.53238e-05
4.62446e-05
-1.53244e-05
4.62167e-05
-1.53251e-05
4.61892e-05
-1.53258e-05
4.6162e-05
-1.53266e-05
4.61353e-05
-1.53276e-05
4.61089e-05
-1.53285e-05
4.6083e-05
-1.53295e-05
4.60576e-05
-1.53305e-05
4.60325e-05
-1.53314e-05
4.60079e-05
-1.53324e-05
4.59836e-05
-1.53332e-05
4.59596e-05
-1.53339e-05
4.59359e-05
-1.53345e-05
4.59124e-05
-1.5335e-05
4.58891e-05
-1.53355e-05
4.58659e-05
-1.53359e-05
4.58429e-05
-1.53362e-05
4.58201e-05
-1.53365e-05
4.57973e-05
-1.53369e-05
4.57748e-05
-1.53372e-05
4.57524e-05
-1.53376e-05
4.57301e-05
-1.5338e-05
4.57081e-05
-1.53385e-05
4.56863e-05
-1.53389e-05
4.56647e-05
-1.53395e-05
4.56433e-05
-1.534e-05
4.56222e-05
-1.53406e-05
4.56014e-05
-1.53411e-05
4.55807e-05
-1.53417e-05
4.55603e-05
-1.53422e-05
4.55401e-05
-1.53427e-05
4.55202e-05
-1.53432e-05
4.55004e-05
-1.53437e-05
4.54809e-05
-1.53442e-05
4.54615e-05
-1.53446e-05
4.54423e-05
-1.5345e-05
4.54233e-05
-1.53454e-05
4.54045e-05
-1.53458e-05
4.53858e-05
-1.53462e-05
4.53673e-05
-1.53466e-05
4.5349e-05
-1.5347e-05
4.53309e-05
-1.53474e-05
4.53129e-05
-1.53478e-05
4.5295e-05
-1.53482e-05
4.52774e-05
-1.53485e-05
4.52599e-05
-1.53489e-05
4.52426e-05
-1.53493e-05
4.52254e-05
-1.53496e-05
4.52084e-05
-1.535e-05
4.51915e-05
-1.53504e-05
4.51748e-05
-1.53507e-05
4.51582e-05
-1.53511e-05
4.51418e-05
-1.53514e-05
4.51256e-05
-1.53518e-05
4.51095e-05
-1.53521e-05
4.50935e-05
-1.53524e-05
4.50777e-05
-1.53528e-05
4.5062e-05
-1.53531e-05
4.50464e-05
-1.53534e-05
4.5031e-05
-1.53537e-05
4.50157e-05
-1.5354e-05
4.50006e-05
-1.53544e-05
4.49856e-05
-1.53546e-05
4.49707e-05
-1.53549e-05
4.4956e-05
-1.53552e-05
4.49413e-05
-1.53555e-05
4.49268e-05
-1.53558e-05
4.49125e-05
-1.53561e-05
4.48982e-05
-1.53564e-05
4.48841e-05
-1.53567e-05
4.48701e-05
-1.5357e-05
4.48562e-05
-1.53572e-05
4.48424e-05
-1.53575e-05
4.48287e-05
-1.53578e-05
4.48152e-05
-1.5358e-05
4.48018e-05
-1.53583e-05
4.47884e-05
-1.53585e-05
4.47752e-05
-1.53588e-05
4.47621e-05
-1.53591e-05
4.47491e-05
-1.53593e-05
4.47362e-05
-1.53596e-05
4.47235e-05
-1.53598e-05
4.47108e-05
-1.536e-05
4.46982e-05
-1.53603e-05
4.46858e-05
-1.53605e-05
4.46734e-05
-1.53608e-05
4.46611e-05
-1.5361e-05
4.4649e-05
-1.53612e-05
4.46369e-05
-1.53615e-05
4.46249e-05
-1.53617e-05
4.46131e-05
-1.53619e-05
4.46013e-05
-1.53621e-05
4.45896e-05
-1.53623e-05
4.4578e-05
-1.53626e-05
4.45665e-05
-1.53628e-05
4.45551e-05
-1.5363e-05
4.45438e-05
-1.53632e-05
4.45326e-05
-1.53634e-05
4.45215e-05
-1.53636e-05
4.45105e-05
-1.53638e-05
4.44995e-05
-1.5364e-05
4.44886e-05
-1.53643e-05
4.44779e-05
-1.53644e-05
4.44672e-05
-1.53647e-05
4.44566e-05
-1.53648e-05
4.4446e-05
-1.5365e-05
4.44356e-05
-1.53652e-05
4.44252e-05
-1.53654e-05
4.4415e-05
-1.53656e-05
4.44048e-05
-1.53658e-05
4.43946e-05
-1.53659e-05
4.43846e-05
-1.53662e-05
4.43746e-05
-1.53663e-05
4.43648e-05
-1.53665e-05
4.43549e-05
-1.53667e-05
4.43452e-05
-1.53669e-05
4.43356e-05
-1.5367e-05
4.4326e-05
-1.53672e-05
4.43165e-05
-1.53673e-05
4.4307e-05
-1.53676e-05
4.42977e-05
-1.53677e-05
4.42884e-05
-1.53679e-05
4.42791e-05
-1.5368e-05
4.427e-05
-1.53683e-05
4.42609e-05
-1.53683e-05
4.42519e-05
-1.53686e-05
4.4243e-05
-1.53686e-05
4.42341e-05
-1.53689e-05
4.42253e-05
-1.53689e-05
4.42166e-05
-1.53693e-05
4.42078e-05
-1.53692e-05
4.41993e-05
-1.53696e-05
4.41907e-05
-1.53695e-05
4.41823e-05
-1.53699e-05
4.41738e-05
-1.53698e-05
4.41655e-05
-1.53702e-05
4.41571e-05
-1.53701e-05
4.4149e-05
-1.53705e-05
4.41407e-05
-1.53703e-05
4.41327e-05
-1.53708e-05
4.41246e-05
-1.53706e-05
4.41167e-05
-1.53711e-05
4.41086e-05
-1.53708e-05
4.41008e-05
-1.53713e-05
4.40929e-05
-1.53711e-05
4.40852e-05
-1.53716e-05
4.40775e-05
-1.53714e-05
4.40699e-05
-1.53718e-05
4.40622e-05
-1.53716e-05
4.40547e-05
-1.5372e-05
4.40471e-05
-1.53718e-05
4.40396e-05
-1.53721e-05
4.40321e-05
-1.53721e-05
4.40247e-05
-1.53722e-05
4.40173e-05
-1.53723e-05
4.40099e-05
-1.53722e-05
4.40025e-05
-1.53724e-05
4.39951e-05
-1.53722e-05
4.39876e-05
-1.5372e-05
4.39804e-05
-1.53729e-05
4.39727e-05
-1.53717e-05
4.39658e-05
-1.53741e-05
4.39597e-05
-1.5376e-05
4.3952e-05
-1.53701e-05
4.39464e-05
-1.53782e-05
-1.53303e-05
0.000102569
3.61155e-05
0.00010099
2.36483e-05
9.72211e-05
1.08221e-05
9.20747e-05
2.55263e-06
8.73721e-05
-2.44742e-06
8.34179e-05
-5.4158e-06
8.01889e-05
-7.44347e-06
7.75791e-05
-8.88052e-06
7.54535e-05
-9.98e-06
7.36819e-05
-1.08155e-05
7.2183e-05
-1.14484e-05
7.08943e-05
-1.19427e-05
6.97719e-05
-1.23581e-05
6.87849e-05
-1.2711e-05
6.78983e-05
-1.2977e-05
6.70986e-05
-1.32023e-05
6.63751e-05
-1.33949e-05
6.57183e-05
-1.35693e-05
6.51175e-05
-1.37207e-05
6.45613e-05
-1.3842e-05
6.40454e-05
-1.3946e-05
6.35664e-05
-1.40414e-05
6.31205e-05
-1.41289e-05
6.27036e-05
-1.42088e-05
6.23116e-05
-1.42771e-05
6.19425e-05
-1.43387e-05
6.15945e-05
-1.43958e-05
6.12656e-05
-1.44473e-05
6.09548e-05
-1.4498e-05
6.06593e-05
-1.45404e-05
6.03783e-05
-1.45805e-05
6.01104e-05
-1.46163e-05
5.98549e-05
-1.46505e-05
5.96111e-05
-1.4683e-05
5.93778e-05
-1.4713e-05
5.91541e-05
-1.474e-05
5.89393e-05
-1.47644e-05
5.87332e-05
-1.47889e-05
5.85348e-05
-1.481e-05
5.83441e-05
-1.48325e-05
5.81603e-05
-1.48515e-05
5.79829e-05
-1.487e-05
5.78116e-05
-1.48872e-05
5.7646e-05
-1.49029e-05
5.7486e-05
-1.49191e-05
5.73311e-05
-1.49337e-05
5.71812e-05
-1.49483e-05
5.70358e-05
-1.49605e-05
5.68947e-05
-1.49733e-05
5.67578e-05
-1.49849e-05
5.66248e-05
-1.4996e-05
5.64956e-05
-1.50074e-05
5.637e-05
-1.50175e-05
5.62479e-05
-1.50275e-05
5.61289e-05
-1.50366e-05
5.6013e-05
-1.50454e-05
5.59001e-05
-1.5054e-05
5.57901e-05
-1.50622e-05
5.5683e-05
-1.50706e-05
5.55786e-05
-1.50782e-05
5.54766e-05
-1.50856e-05
5.53772e-05
-1.50929e-05
5.528e-05
-1.50995e-05
5.51851e-05
-1.51061e-05
5.50924e-05
-1.51126e-05
5.50018e-05
-1.51186e-05
5.49131e-05
-1.51243e-05
5.48263e-05
-1.51298e-05
5.47414e-05
-1.51351e-05
5.46582e-05
-1.51404e-05
5.45768e-05
-1.51454e-05
5.4497e-05
-1.51504e-05
5.44189e-05
-1.5155e-05
5.43422e-05
-1.51593e-05
5.4267e-05
-1.51639e-05
5.41933e-05
-1.51681e-05
5.4121e-05
-1.51721e-05
5.405e-05
-1.51763e-05
5.39804e-05
-1.518e-05
5.3912e-05
-1.51838e-05
5.38449e-05
-1.51874e-05
5.37789e-05
-1.51909e-05
5.37141e-05
-1.51944e-05
5.36504e-05
-1.51976e-05
5.35879e-05
-1.52009e-05
5.35264e-05
-1.52042e-05
5.34659e-05
-1.5207e-05
5.34065e-05
-1.52102e-05
5.3348e-05
-1.5213e-05
5.32904e-05
-1.52158e-05
5.32339e-05
-1.52187e-05
5.31782e-05
-1.52212e-05
5.31233e-05
-1.52239e-05
5.30694e-05
-1.52265e-05
5.30163e-05
-1.52288e-05
5.2964e-05
-1.52314e-05
5.29125e-05
-1.52337e-05
5.28617e-05
-1.5236e-05
5.28118e-05
-1.52384e-05
5.27625e-05
-1.52405e-05
5.2714e-05
-1.52427e-05
5.26662e-05
-1.52448e-05
5.26191e-05
-1.52467e-05
5.25727e-05
-1.52488e-05
5.25269e-05
-1.52508e-05
5.24817e-05
-1.52526e-05
5.24372e-05
-1.52547e-05
5.23934e-05
-1.52564e-05
5.23501e-05
-1.52582e-05
5.23074e-05
-1.526e-05
5.22652e-05
-1.52617e-05
5.22237e-05
-1.52634e-05
5.21827e-05
-1.52651e-05
5.21422e-05
-1.52667e-05
5.21023e-05
-1.52683e-05
5.20629e-05
-1.52699e-05
5.20241e-05
-1.52714e-05
5.19857e-05
-1.5273e-05
5.19478e-05
-1.52744e-05
5.19104e-05
-1.52758e-05
5.18735e-05
-1.52773e-05
5.18371e-05
-1.52787e-05
5.18011e-05
-1.52801e-05
5.17656e-05
-1.52815e-05
5.17305e-05
-1.52829e-05
5.16959e-05
-1.52843e-05
5.16617e-05
-1.52856e-05
5.16279e-05
-1.52867e-05
5.15944e-05
-1.52878e-05
5.15612e-05
-1.52887e-05
5.15283e-05
-1.52894e-05
5.14956e-05
-1.52902e-05
5.14632e-05
-1.52909e-05
5.1431e-05
-1.52917e-05
5.13992e-05
-1.52926e-05
5.13677e-05
-1.52936e-05
5.13366e-05
-1.52947e-05
5.13059e-05
-1.5296e-05
5.12757e-05
-1.52974e-05
5.1246e-05
-1.52988e-05
5.12168e-05
-1.53003e-05
5.1188e-05
-1.53018e-05
5.11598e-05
-1.53032e-05
5.11319e-05
-1.53045e-05
5.11045e-05
-1.53057e-05
5.10774e-05
-1.53068e-05
5.10505e-05
-1.53077e-05
5.1024e-05
-1.53085e-05
5.09976e-05
-1.53091e-05
5.09714e-05
-1.53097e-05
5.09454e-05
-1.53102e-05
5.09196e-05
-1.53107e-05
5.08939e-05
-1.53112e-05
5.08684e-05
-1.53117e-05
5.08431e-05
-1.53123e-05
5.0818e-05
-1.53129e-05
5.07931e-05
-1.53136e-05
5.07685e-05
-1.53143e-05
5.07441e-05
-1.53151e-05
5.072e-05
-1.53159e-05
5.06962e-05
-1.53167e-05
5.06727e-05
-1.53176e-05
5.06494e-05
-1.53184e-05
5.06264e-05
-1.53192e-05
5.06036e-05
-1.532e-05
5.05811e-05
-1.53207e-05
5.05588e-05
-1.53214e-05
5.05367e-05
-1.53221e-05
5.05149e-05
-1.53227e-05
5.04932e-05
-1.53234e-05
5.04718e-05
-1.5324e-05
5.04506e-05
-1.53246e-05
5.04295e-05
-1.53252e-05
5.04087e-05
-1.53258e-05
5.0388e-05
-1.53263e-05
5.03675e-05
-1.53269e-05
5.03472e-05
-1.53275e-05
5.03271e-05
-1.53281e-05
5.03072e-05
-1.53286e-05
5.02875e-05
-1.53292e-05
5.02679e-05
-1.53297e-05
5.02486e-05
-1.53303e-05
5.02294e-05
-1.53308e-05
5.02104e-05
-1.53314e-05
5.01916e-05
-1.53319e-05
5.01729e-05
-1.53324e-05
5.01544e-05
-1.53329e-05
5.01361e-05
-1.53334e-05
5.01179e-05
-1.53339e-05
5.00999e-05
-1.53344e-05
5.00821e-05
-1.53349e-05
5.00644e-05
-1.53354e-05
5.00469e-05
-1.53359e-05
5.00295e-05
-1.53364e-05
5.00123e-05
-1.53368e-05
4.99953e-05
-1.53373e-05
4.99784e-05
-1.53377e-05
4.99616e-05
-1.53382e-05
4.9945e-05
-1.53386e-05
4.99285e-05
-1.53391e-05
4.99122e-05
-1.53395e-05
4.9896e-05
-1.53399e-05
4.98799e-05
-1.53403e-05
4.9864e-05
-1.53408e-05
4.98482e-05
-1.53412e-05
4.98326e-05
-1.53416e-05
4.98171e-05
-1.5342e-05
4.98017e-05
-1.53424e-05
4.97864e-05
-1.53428e-05
4.97713e-05
-1.53432e-05
4.97563e-05
-1.53435e-05
4.97414e-05
-1.53439e-05
4.97267e-05
-1.53443e-05
4.97121e-05
-1.53447e-05
4.96976e-05
-1.53451e-05
4.96832e-05
-1.53454e-05
4.96689e-05
-1.53458e-05
4.96548e-05
-1.53462e-05
4.96407e-05
-1.53465e-05
4.96268e-05
-1.53469e-05
4.9613e-05
-1.53472e-05
4.95993e-05
-1.53476e-05
4.95858e-05
-1.53479e-05
4.95723e-05
-1.53482e-05
4.95589e-05
-1.53486e-05
4.95457e-05
-1.53489e-05
4.95325e-05
-1.53492e-05
4.95195e-05
-1.53496e-05
4.95066e-05
-1.53498e-05
4.94937e-05
-1.53502e-05
4.9481e-05
-1.53505e-05
4.94684e-05
-1.53508e-05
4.94559e-05
-1.53511e-05
4.94435e-05
-1.53514e-05
4.94311e-05
-1.53517e-05
4.94189e-05
-1.5352e-05
4.94068e-05
-1.53523e-05
4.93948e-05
-1.53526e-05
4.93828e-05
-1.53529e-05
4.9371e-05
-1.53532e-05
4.93592e-05
-1.53535e-05
4.93476e-05
-1.53538e-05
4.9336e-05
-1.5354e-05
4.93245e-05
-1.53543e-05
4.93132e-05
-1.53546e-05
4.93019e-05
-1.53549e-05
4.92907e-05
-1.53551e-05
4.92795e-05
-1.53554e-05
4.92685e-05
-1.53556e-05
4.92576e-05
-1.5356e-05
4.92467e-05
-1.53561e-05
4.92359e-05
-1.53565e-05
4.92252e-05
-1.53566e-05
4.92146e-05
-1.5357e-05
4.92041e-05
-1.53571e-05
4.91936e-05
-1.53575e-05
4.91832e-05
-1.53576e-05
4.9173e-05
-1.5358e-05
4.91627e-05
-1.53581e-05
4.91526e-05
-1.53585e-05
4.91425e-05
-1.53585e-05
4.91326e-05
-1.5359e-05
4.91226e-05
-1.5359e-05
4.91128e-05
-1.53595e-05
4.91031e-05
-1.53594e-05
4.90934e-05
-1.53599e-05
4.90838e-05
-1.53599e-05
4.90743e-05
-1.53604e-05
4.90648e-05
-1.53603e-05
4.90554e-05
-1.53609e-05
4.9046e-05
-1.53607e-05
4.90368e-05
-1.53613e-05
4.90276e-05
-1.53611e-05
4.90185e-05
-1.53617e-05
4.90094e-05
-1.53615e-05
4.90005e-05
-1.53622e-05
4.89915e-05
-1.53618e-05
4.89827e-05
-1.53626e-05