/*--------------------------------*- C++ -*----------------------------------*\
| =========                 |                                                 |
| \\      /  F ield         | foam-extend: Open Source CFD                    |
|  \\    /   O peration     | Version:     3.2                                |
|   \\  /    A nd           | Web:         http://www.foam-extend.org         |
|    \\/     M anipulation  | For copyright notice see file Copyright         |
\*---------------------------------------------------------------------------*/
FoamFile
{
    version     2.0;
    format      ascii;
    class       areaVectorField;
    location    "37";
    object      aUf;
}
// * * * * * * * * * * * * * * * * * * * * * * * * * * * * * * * * * * * * * //

dimensions      [0 1 -1 0 0 0 0];

internalField   nonuniform List<vector> 
300
(
(2.31223 0 0.0560184)
(2.06385 0 0.0276193)
(1.71914 0 0.00543644)
(1.55785 0 -0.00117481)
(1.49252 0 -0.00120525)
(1.4571 0 -0.000527332)
(1.43089 0 -0.000296719)
(1.40756 0 -0.000136733)
(1.38574 0 -3.07885e-05)
(1.36563 0 1.01937e-05)
(1.34743 0 2.29959e-05)
(1.33095 0 4.6151e-05)
(1.31587 0 5.79095e-05)
(1.30226 0 6.51715e-05)
(1.28989 0 6.69567e-05)
(1.27854 0 6.66249e-05)
(1.26807 0 6.89559e-05)
(1.25833 0 6.84718e-05)
(1.24935 0 7.10718e-05)
(1.2411 0 7.17066e-05)
(1.23338 0 7.08823e-05)
(1.2261 0 6.94367e-05)
(1.21921 0 6.76332e-05)
(1.21271 0 6.44294e-05)
(1.20659 0 6.20614e-05)
(1.20076 0 5.99459e-05)
(1.19523 0 5.81502e-05)
(1.18994 0 5.64906e-05)
(1.18491 0 5.37941e-05)
(1.18012 0 5.22164e-05)
(1.17554 0 5.02484e-05)
(1.17115 0 4.91109e-05)
(1.16693 0 4.74431e-05)
(1.16288 0 4.60312e-05)
(1.15899 0 4.42117e-05)
(1.15526 0 4.30595e-05)
(1.15165 0 4.18726e-05)
(1.14818 0 4.05931e-05)
(1.14482 0 3.98332e-05)
(1.14157 0 3.81643e-05)
(1.13845 0 3.74079e-05)
(1.13541 0 3.61919e-05)
(1.13248 0 3.54285e-05)
(1.12963 0 3.45654e-05)
(1.12687 0 3.35939e-05)
(1.12419 0 3.27363e-05)
(1.12159 0 3.17368e-05)
(1.11906 0 3.12742e-05)
(1.1166 0 3.03136e-05)
(1.11421 0 2.98048e-05)
(1.11188 0 2.90867e-05)
(1.10961 0 2.82691e-05)
(1.10741 0 2.77053e-05)
(1.10525 0 2.70116e-05)
(1.10316 0 2.65829e-05)
(1.1011 0 2.59105e-05)
(1.0991 0 2.56625e-05)
(1.09714 0 2.59409e-05)
(1.09521 0 2.57946e-05)
(1.09333 0 2.53435e-05)
(1.09149 0 2.47557e-05)
(1.08969 0 2.42053e-05)
(1.08793 0 2.37575e-05)
(1.0862 0 2.32316e-05)
(1.08452 0 2.27279e-05)
(1.08287 0 2.22974e-05)
(1.08126 0 2.18865e-05)
(1.07968 0 2.14808e-05)
(1.07812 0 2.1081e-05)
(1.0766 0 2.06563e-05)
(1.07511 0 2.02699e-05)
(1.07365 0 1.98785e-05)
(1.07222 0 1.95446e-05)
(1.07081 0 1.92415e-05)
(1.06943 0 1.88321e-05)
(1.06808 0 1.85437e-05)
(1.06674 0 1.8221e-05)
(1.06544 0 1.78725e-05)
(1.06415 0 1.76211e-05)
(1.06289 0 1.7279e-05)
(1.06165 0 1.70324e-05)
(1.06043 0 1.67558e-05)
(1.05924 0 1.64555e-05)
(1.05806 0 1.62349e-05)
(1.0569 0 1.59314e-05)
(1.05576 0 1.56732e-05)
(1.05464 0 1.54988e-05)
(1.05353 0 1.51929e-05)
(1.05245 0 1.50038e-05)
(1.05138 0 1.47639e-05)
(1.05032 0 1.45215e-05)
(1.04929 0 1.43474e-05)
(1.04827 0 1.40904e-05)
(1.04726 0 1.39058e-05)
(1.04627 0 1.37408e-05)
(1.0453 0 1.34836e-05)
(1.04434 0 1.33374e-05)
(1.04339 0 1.3135e-05)
(1.04245 0 1.29265e-05)
(1.04153 0 1.27885e-05)
(1.04063 0 1.25865e-05)
(1.03973 0 1.2426e-05)
(1.03885 0 1.22729e-05)
(1.03798 0 1.20768e-05)
(1.03712 0 1.19375e-05)
(1.03628 0 1.17859e-05)
(1.03544 0 1.15945e-05)
(1.03462 0 1.14861e-05)
(1.03381 0 1.13229e-05)
(1.033 0 1.11681e-05)
(1.03221 0 1.10527e-05)
(1.03143 0 1.08906e-05)
(1.03066 0 1.07548e-05)
(1.0299 0 1.06337e-05)
(1.02915 0 1.04828e-05)
(1.02841 0 1.03666e-05)
(1.02767 0 1.02463e-05)
(1.02695 0 1.00973e-05)
(1.02624 0 9.98976e-06)
(1.02553 0 9.87066e-06)
(1.02483 0 9.73625e-06)
(1.02415 0 9.6325e-06)
(1.02346 0 9.5186e-06)
(1.02279 0 9.37656e-06)
(1.02213 0 9.2732e-06)
(1.02147 0 9.12905e-06)
(1.02082 0 9.00671e-06)
(1.02018 0 8.91006e-06)
(1.01954 0 8.7963e-06)
(1.01891 0 8.71595e-06)
(1.01829 0 8.66714e-06)
(1.01767 0 8.59722e-06)
(1.01706 0 8.54681e-06)
(1.01646 0 8.50817e-06)
(1.01586 0 8.44199e-06)
(1.01528 0 8.37836e-06)
(1.01469 0 8.30765e-06)
(1.01412 0 8.20859e-06)
(1.01355 0 8.10876e-06)
(1.013 0 7.99574e-06)
(1.01244 0 7.85979e-06)
(1.0119 0 7.73688e-06)
(1.01136 0 7.60812e-06)
(1.01083 0 7.47007e-06)
(1.0103 0 7.36099e-06)
(1.00978 0 7.25945e-06)
(1.00927 0 7.15926e-06)
(1.00876 0 7.08652e-06)
(1.00825 0 7.02328e-06)
(1.00775 0 6.96243e-06)
(1.00725 0 6.92416e-06)
(1.00675 0 6.88297e-06)
(1.00626 0 6.84178e-06)
(1.00578 0 6.81119e-06)
(1.0053 0 6.7695e-06)
(1.00482 0 6.71639e-06)
(1.00435 0 6.67162e-06)
(1.00388 0 6.61228e-06)
(1.00342 0 6.54282e-06)
(1.00297 0 6.47966e-06)
(1.00251 0 6.41154e-06)
(1.00207 0 6.33447e-06)
(1.00162 0 6.2671e-06)
(1.00119 0 6.19589e-06)
(1.00075 0 6.1241e-06)
(1.00032 0 6.06044e-06)
(0.999898 0 5.99613e-06)
(0.999477 0 5.92973e-06)
(0.99906 0 5.87796e-06)
(0.998647 0 5.82229e-06)
(0.998238 0 5.76434e-06)
(0.997833 0 5.71469e-06)
(0.997431 0 5.66832e-06)
(0.997033 0 5.61317e-06)
(0.996639 0 5.56513e-06)
(0.996248 0 5.51665e-06)
(0.995861 0 5.46724e-06)
(0.995477 0 5.41936e-06)
(0.995097 0 5.37362e-06)
(0.994721 0 5.32057e-06)
(0.994348 0 5.27705e-06)
(0.993978 0 5.23062e-06)
(0.993612 0 5.17953e-06)
(0.993249 0 5.13098e-06)
(0.992889 0 5.09078e-06)
(0.992532 0 5.04045e-06)
(0.992179 0 4.99619e-06)
(0.991829 0 4.95329e-06)
(0.991482 0 4.91013e-06)
(0.991138 0 4.86492e-06)
(0.990797 0 4.82576e-06)
(0.990459 0 4.77962e-06)
(0.990124 0 4.73868e-06)
(0.989792 0 4.69962e-06)
(0.989463 0 4.65943e-06)
(0.989137 0 4.61433e-06)
(0.988813 0 4.58178e-06)
(0.988493 0 4.53964e-06)
(0.988174 0 4.50186e-06)
(0.987859 0 4.46087e-06)
(0.987547 0 4.42757e-06)
(0.987237 0 4.38487e-06)
(0.986929 0 4.35315e-06)
(0.986625 0 4.31217e-06)
(0.986323 0 4.27969e-06)
(0.986023 0 4.23988e-06)
(0.985726 0 4.21151e-06)
(0.985432 0 4.16797e-06)
(0.98514 0 4.13964e-06)
(0.98485 0 4.10144e-06)
(0.984563 0 4.07335e-06)
(0.984278 0 4.03172e-06)
(0.983995 0 4.00798e-06)
(0.983716 0 3.96844e-06)
(0.983437 0 3.94175e-06)
(0.983162 0 3.90378e-06)
(0.982889 0 3.87872e-06)
(0.982618 0 3.83826e-06)
(0.982349 0 3.81701e-06)
(0.982082 0 3.77678e-06)
(0.981818 0 3.75473e-06)
(0.981556 0 3.71584e-06)
(0.981295 0 3.6972e-06)
(0.981037 0 3.65507e-06)
(0.980781 0 3.63749e-06)
(0.980527 0 3.59708e-06)
(0.980275 0 3.58026e-06)
(0.980026 0 3.53747e-06)
(0.979777 0 3.52441e-06)
(0.979532 0 3.48232e-06)
(0.979287 0 3.46881e-06)
(0.979046 0 3.42696e-06)
(0.978805 0 3.41542e-06)
(0.978568 0 3.37142e-06)
(0.978331 0 3.36223e-06)
(0.978097 0 3.31765e-06)
(0.977864 0 3.30917e-06)
(0.977634 0 3.26368e-06)
(0.977404 0 3.26035e-06)
(0.977178 0 3.21201e-06)
(0.976952 0 3.20998e-06)
(0.976729 0 3.16065e-06)
(0.976506 0 3.1636e-06)
(0.976287 0 3.10873e-06)
(0.976068 0 3.11611e-06)
(0.975852 0 3.05896e-06)
(0.975636 0 3.07045e-06)
(0.975424 0 3.00978e-06)
(0.975211 0 3.02659e-06)
(0.975002 0 2.96088e-06)
(0.974793 0 2.98305e-06)
(0.974587 0 2.91346e-06)
(0.974381 0 2.94109e-06)
(0.974178 0 2.86361e-06)
(0.973975 0 2.89994e-06)
(0.973775 0 2.81745e-06)
(0.973576 0 2.86e-06)
(0.973379 0 2.77009e-06)
(0.973182 0 2.82109e-06)
(0.972988 0 2.72433e-06)
(0.972795 0 2.78297e-06)
(0.972603 0 2.67834e-06)
(0.972414 0 2.74496e-06)
(0.972225 0 2.63161e-06)
(0.972038 0 2.71016e-06)
(0.971851 0 2.58704e-06)
(0.971668 0 2.67455e-06)
(0.971483 0 2.54339e-06)
(0.971304 0 2.64032e-06)
(0.971121 0 2.50177e-06)
(0.970946 0 2.60483e-06)
(0.970764 0 2.46126e-06)
(0.970593 0 2.57017e-06)
(0.970412 0 2.42321e-06)
(0.970245 0 2.5361e-06)
(0.970065 0 2.38853e-06)
(0.969903 0 2.50039e-06)
(0.969723 0 2.35847e-06)
(0.969566 0 2.46267e-06)
(0.969385 0 2.33424e-06)
(0.969233 0 2.42119e-06)
(0.969052 0 2.31772e-06)
(0.968905 0 2.37865e-06)
(0.968723 0 2.31195e-06)
(0.968582 0 2.33429e-06)
(0.968398 0 2.32065e-06)
(0.968261 0 2.28822e-06)
(0.968076 0 2.34531e-06)
(0.967943 0 2.24318e-06)
(0.967757 0 2.39584e-06)
(0.967626 0 2.20406e-06)
(0.96744 0 2.43435e-06)
(0.967309 0 2.26872e-06)
(0.967118 0 2.05421e-06)
(0.96701 0 2.04555e-06)
(0.966786 0 1.69049e-06)
(0.966766 0 5.8395e-07)
(0.966446 0 5.75463e-06)
(0.966563 0 -2.36314e-06)
(0.96594 0 0.000228968)
)
;

boundaryField
{
    inlet
    {
        type            calculated;
        value           uniform (0 0 0);
    }
    outlet
    {
        type            calculated;
        value           uniform (0 0 0);
    }
    sideWall
    {
        type            empty;
    }
}


// ************************************************************************* //
