/*--------------------------------*- C++ -*----------------------------------*\
| =========                 |                                                 |
| \\      /  F ield         | foam-extend: Open Source CFD                    |
|  \\    /   O peration     | Version:     3.2                                |
|   \\  /    A nd           | Web:         http://www.foam-extend.org         |
|    \\/     M anipulation  | For copyright notice see file Copyright         |
\*---------------------------------------------------------------------------*/
FoamFile
{
    version     2.0;
    format      ascii;
    class       areaScalarField;
    location    "37";
    object      SSe1;
}
// * * * * * * * * * * * * * * * * * * * * * * * * * * * * * * * * * * * * * //

dimensions      [0 1 -2 -1 0 0 0];

internalField   nonuniform List<scalar> 
300
(
0.0445056
0.0316045
0.0182307
0.0135491
0.0119079
0.0110759
0.010486
0.00997873
0.00951922
0.00910855
0.00874712
0.00842817
0.00814304
0.00789143
0.00766726
0.00746535
0.00728228
0.00711463
0.00696226
0.00682426
0.00669696
0.00657808
0.00646711
0.00636348
0.00626682
0.00617576
0.00609013
0.00600906
0.00593262
0.00586045
0.00579186
0.00572672
0.00566451
0.00560531
0.0055488
0.00549496
0.00544323
0.00539372
0.00534613
0.00530039
0.00525661
0.00521431
0.0051737
0.00513436
0.00509649
0.00505987
0.00502457
0.00499041
0.00495728
0.00492525
0.0048941
0.00486396
0.00483472
0.00480633
0.00477877
0.00475191
0.00472583
0.00470032
0.00467537
0.00465107
0.00462737
0.00460431
0.00458183
0.0045599
0.00453852
0.00451767
0.0044973
0.0044774
0.00445795
0.00443894
0.00442036
0.00440219
0.00438442
0.00436702
0.00434998
0.00433331
0.00431696
0.00430097
0.00428529
0.00426991
0.00425485
0.00424006
0.00422556
0.00421134
0.00419737
0.00418369
0.00417024
0.00415702
0.00414406
0.0041313
0.00411879
0.00410649
0.00409439
0.00408252
0.00407083
0.00405933
0.00404804
0.00403691
0.00402598
0.00401522
0.00400463
0.00399421
0.00398395
0.00397384
0.0039639
0.0039541
0.00394445
0.00393496
0.00392559
0.00391638
0.00390729
0.00389833
0.00388951
0.00388081
0.00387223
0.00386378
0.00385544
0.00384722
0.00383912
0.00383112
0.00382323
0.00381546
0.00380778
0.0038002
0.00379273
0.00378534
0.00377805
0.00377084
0.00376371
0.00375667
0.00374971
0.00374282
0.00373602
0.00372931
0.00372268
0.00371614
0.0037097
0.00370335
0.00369709
0.00369092
0.00368483
0.00367883
0.00367291
0.00366705
0.00366127
0.00365554
0.00364988
0.00364427
0.00363871
0.0036332
0.00362775
0.00362235
0.003617
0.00361172
0.00360648
0.00360131
0.00359619
0.00359113
0.00358612
0.00358118
0.00357629
0.00357146
0.00356668
0.00356196
0.00355728
0.00355266
0.00354808
0.00354355
0.00353907
0.00353463
0.00353024
0.00352589
0.00352159
0.00351733
0.00351311
0.00350893
0.0035048
0.00350071
0.00349665
0.00349264
0.00348867
0.00348474
0.00348084
0.00347699
0.00347317
0.00346939
0.00346564
0.00346193
0.00345826
0.00345462
0.00345102
0.00344745
0.00344391
0.00344041
0.00343694
0.0034335
0.0034301
0.00342672
0.00342338
0.00342007
0.00341679
0.00341353
0.00341031
0.00340712
0.00340395
0.00340082
0.00339771
0.00339463
0.00339158
0.00338856
0.00338556
0.00338259
0.00337964
0.00337673
0.00337383
0.00337097
0.00336812
0.00336531
0.00336251
0.00335975
0.003357
0.00335428
0.00335158
0.00334891
0.00334625
0.00334363
0.00334102
0.00333844
0.00333587
0.00333334
0.00333082
0.00332832
0.00332584
0.00332339
0.00332095
0.00331855
0.00331615
0.00331378
0.00331142
0.00330909
0.00330677
0.00330448
0.0033022
0.00329995
0.0032977
0.00329549
0.00329327
0.0032911
0.00328892
0.00328678
0.00328464
0.00328254
0.00328043
0.00327836
0.00327629
0.00327425
0.00327221
0.0032702
0.0032682
0.00326622
0.00326425
0.0032623
0.00326037
0.00325845
0.00325655
0.00325465
0.00325279
0.00325092
0.0032491
0.00324724
0.00324546
0.00324361
0.00324188
0.00324004
0.00323836
0.00323653
0.00323489
0.00323306
0.00323148
0.00322965
0.00322812
0.00322628
0.0032248
0.00322296
0.00322153
0.00321968
0.0032183
0.00321643
0.00321509
0.00321322
0.00321189
0.00321002
0.0032087
0.00320678
0.00320569
0.00320344
0.00320323
0.00320002
0.00320119
0.00319494
)
;

boundaryField
{
    inlet
    {
        type            calculated;
        value           uniform 0;
    }
    outlet
    {
        type            calculated;
        value           uniform 0;
    }
    sideWall
    {
        type            empty;
    }
}


// ************************************************************************* //
