/*--------------------------------*- C++ -*----------------------------------*\
| =========                 |                                                 |
| \\      /  F ield         | foam-extend: Open Source CFD                    |
|  \\    /   O peration     | Version:     3.2                                |
|   \\  /    A nd           | Web:         http://www.foam-extend.org         |
|    \\/     M anipulation  | For copyright notice see file Copyright         |
\*---------------------------------------------------------------------------*/
FoamFile
{
    version     2.0;
    format      ascii;
    class       areaScalarField;
    location    "37";
    object      thetaB;
}
// * * * * * * * * * * * * * * * * * * * * * * * * * * * * * * * * * * * * * //

dimensions      [0 0 0 0 0 0 0];

internalField   nonuniform List<scalar> 
300
(
0.990735
0.788995
0.547354
0.449459
0.412555
0.393202
0.379187
0.366923
0.355633
0.345388
0.336243
0.328069
0.320673
0.314074
0.308136
0.302738
0.297802
0.293245
0.289072
0.285266
0.281732
0.278412
0.275295
0.272368
0.269623
0.267024
0.264569
0.262234
0.260022
0.257926
0.255925
0.254018
0.252189
0.250443
0.248771
0.247172
0.245631
0.244152
0.242725
0.24135
0.240031
0.238752
0.237521
0.236326
0.235172
0.234054
0.232974
0.231926
0.230907
0.22992
0.228958
0.228025
0.227119
0.226237
0.225379
0.224541
0.223726
0.222928
0.222145
0.221382
0.220636
0.219909
0.219199
0.218506
0.217828
0.217167
0.21652
0.215887
0.215267
0.21466
0.214066
0.213485
0.212915
0.212357
0.211809
0.211273
0.210747
0.210231
0.209724
0.209227
0.20874
0.20826
0.20779
0.207328
0.206874
0.206428
0.20599
0.205559
0.205135
0.204718
0.204309
0.203906
0.203509
0.203119
0.202735
0.202357
0.201986
0.201619
0.201258
0.200903
0.200553
0.200209
0.199869
0.199535
0.199205
0.19888
0.19856
0.198244
0.197933
0.197626
0.197323
0.197024
0.19673
0.19644
0.196153
0.195871
0.195592
0.195316
0.195045
0.194777
0.194512
0.194251
0.193993
0.193738
0.193487
0.193238
0.192992
0.192749
0.192509
0.192271
0.192036
0.191803
0.191573
0.191346
0.191122
0.1909
0.190682
0.190467
0.190254
0.190045
0.189838
0.189634
0.189432
0.189233
0.189036
0.188841
0.188648
0.188457
0.188267
0.188079
0.187893
0.187709
0.187526
0.187345
0.187166
0.186989
0.186813
0.18664
0.186469
0.186299
0.186131
0.185965
0.185801
0.185639
0.185478
0.185319
0.185162
0.185006
0.184852
0.184699
0.184547
0.184397
0.184249
0.184102
0.183956
0.183812
0.183669
0.183528
0.183388
0.183249
0.183112
0.182976
0.182841
0.182707
0.182575
0.182444
0.182314
0.182185
0.182058
0.181931
0.181806
0.181682
0.181559
0.181438
0.181317
0.181197
0.181079
0.180962
0.180845
0.18073
0.180615
0.180502
0.18039
0.180278
0.180168
0.180059
0.17995
0.179843
0.179736
0.17963
0.179526
0.179422
0.179319
0.179217
0.179115
0.179015
0.178915
0.178817
0.178719
0.178622
0.178526
0.178431
0.178336
0.178242
0.178149
0.178057
0.177965
0.177875
0.177785
0.177696
0.177607
0.177519
0.177432
0.177346
0.17726
0.177175
0.177091
0.177008
0.176924
0.176843
0.176761
0.17668
0.1766
0.17652
0.176441
0.176363
0.176285
0.176208
0.176131
0.176056
0.17598
0.175906
0.175832
0.175758
0.175685
0.175613
0.175541
0.17547
0.175399
0.175329
0.17526
0.175191
0.175122
0.175054
0.174987
0.17492
0.174854
0.174787
0.174723
0.174657
0.174594
0.174529
0.174467
0.174402
0.174342
0.174277
0.174219
0.174154
0.174098
0.174033
0.173979
0.173914
0.173861
0.173796
0.173745
0.173679
0.17363
0.173564
0.173516
0.173449
0.173402
0.173336
0.173289
0.17322
0.173181
0.173101
0.173094
0.17298
0.173021
0.172799
)
;

boundaryField
{
    inlet
    {
        type            calculated;
        value           uniform 0;
    }
    outlet
    {
        type            calculated;
        value           uniform 0;
    }
    sideWall
    {
        type            empty;
    }
}


// ************************************************************************* //
