/*--------------------------------*- C++ -*----------------------------------*\
| =========                 |                                                 |
| \\      /  F ield         | foam-extend: Open Source CFD                    |
|  \\    /   O peration     | Version:     3.2                                |
|   \\  /    A nd           | Web:         http://www.foam-extend.org         |
|    \\/     M anipulation  | For copyright notice see file Copyright         |
\*---------------------------------------------------------------------------*/
FoamFile
{
    version     2.0;
    format      ascii;
    class       edgeScalarField;
    location    "37";
    object      q_f;
}
// * * * * * * * * * * * * * * * * * * * * * * * * * * * * * * * * * * * * * //

dimensions      [0 3 -1 0 0 0 0];

internalField   nonuniform List<scalar> 
299
(
7.89026e-05
6.50769e-05
5.23607e-05
4.59126e-05
4.27851e-05
4.07904e-05
3.91468e-05
3.7621e-05
3.61833e-05
3.4855e-05
3.36422e-05
3.25318e-05
3.15187e-05
3.05999e-05
2.97606e-05
2.89891e-05
2.82755e-05
2.76158e-05
2.70101e-05
2.6451e-05
2.59275e-05
2.54346e-05
2.49711e-05
2.45356e-05
2.4125e-05
2.37364e-05
2.33679e-05
2.30182e-05
2.26869e-05
2.2372e-05
2.20717e-05
2.17849e-05
2.15106e-05
2.12486e-05
2.0998e-05
2.07578e-05
2.05269e-05
2.03051e-05
2.00915e-05
1.98863e-05
1.96887e-05
1.94981e-05
1.9314e-05
1.91361e-05
1.89642e-05
1.8798e-05
1.86374e-05
1.84817e-05
1.83307e-05
1.81843e-05
1.80421e-05
1.79043e-05
1.77704e-05
1.76404e-05
1.75138e-05
1.73907e-05
1.72706e-05
1.71531e-05
1.70384e-05
1.69265e-05
1.68175e-05
1.67113e-05
1.66077e-05
1.65067e-05
1.64081e-05
1.63119e-05
1.62179e-05
1.6126e-05
1.60362e-05
1.59483e-05
1.58625e-05
1.57785e-05
1.56963e-05
1.56158e-05
1.55371e-05
1.54599e-05
1.53843e-05
1.53102e-05
1.52376e-05
1.51665e-05
1.50967e-05
1.50282e-05
1.49611e-05
1.48952e-05
1.48305e-05
1.47671e-05
1.47048e-05
1.46436e-05
1.45835e-05
1.45244e-05
1.44664e-05
1.44094e-05
1.43533e-05
1.42983e-05
1.42441e-05
1.41909e-05
1.41385e-05
1.40869e-05
1.40363e-05
1.39864e-05
1.39373e-05
1.3889e-05
1.38415e-05
1.37947e-05
1.37486e-05
1.37032e-05
1.36585e-05
1.36145e-05
1.35711e-05
1.35284e-05
1.34863e-05
1.34448e-05
1.34039e-05
1.33636e-05
1.33239e-05
1.32848e-05
1.32462e-05
1.32081e-05
1.31706e-05
1.31335e-05
1.3097e-05
1.3061e-05
1.30255e-05
1.29904e-05
1.29558e-05
1.29216e-05
1.28879e-05
1.28545e-05
1.28215e-05
1.27889e-05
1.27567e-05
1.27248e-05
1.26934e-05
1.26623e-05
1.26317e-05
1.26015e-05
1.25718e-05
1.25424e-05
1.25135e-05
1.2485e-05
1.24569e-05
1.24292e-05
1.24018e-05
1.23748e-05
1.23481e-05
1.23216e-05
1.22954e-05
1.22695e-05
1.22438e-05
1.22184e-05
1.21932e-05
1.21682e-05
1.21436e-05
1.21191e-05
1.2095e-05
1.20711e-05
1.20475e-05
1.20242e-05
1.20011e-05
1.19783e-05
1.19558e-05
1.19335e-05
1.19114e-05
1.18897e-05
1.18681e-05
1.18468e-05
1.18257e-05
1.18048e-05
1.17842e-05
1.17637e-05
1.17435e-05
1.17235e-05
1.17036e-05
1.1684e-05
1.16646e-05
1.16454e-05
1.16263e-05
1.16075e-05
1.15888e-05
1.15704e-05
1.15521e-05
1.1534e-05
1.15161e-05
1.14983e-05
1.14808e-05
1.14634e-05
1.14462e-05
1.14291e-05
1.14122e-05
1.13955e-05
1.13789e-05
1.13625e-05
1.13462e-05
1.13301e-05
1.13142e-05
1.12984e-05
1.12827e-05
1.12672e-05
1.12519e-05
1.12367e-05
1.12216e-05
1.12067e-05
1.11919e-05
1.11772e-05
1.11627e-05
1.11483e-05
1.1134e-05
1.11199e-05
1.11059e-05
1.1092e-05
1.10782e-05
1.10646e-05
1.10511e-05
1.10377e-05
1.10244e-05
1.10113e-05
1.09982e-05
1.09853e-05
1.09725e-05
1.09598e-05
1.09472e-05
1.09348e-05
1.09224e-05
1.09102e-05
1.0898e-05
1.0886e-05
1.0874e-05
1.08622e-05
1.08504e-05
1.08388e-05
1.08273e-05
1.08158e-05
1.08045e-05
1.07933e-05
1.07821e-05
1.07711e-05
1.07601e-05
1.07492e-05
1.07385e-05
1.07278e-05
1.07172e-05
1.07067e-05
1.06963e-05
1.06859e-05
1.06757e-05
1.06655e-05
1.06554e-05
1.06454e-05
1.06355e-05
1.06257e-05
1.0616e-05
1.06063e-05
1.05967e-05
1.05872e-05
1.05778e-05
1.05684e-05
1.05591e-05
1.05499e-05
1.05408e-05
1.05317e-05
1.05227e-05
1.05138e-05
1.0505e-05
1.04962e-05
1.04875e-05
1.04789e-05
1.04703e-05
1.04619e-05
1.04534e-05
1.04451e-05
1.04368e-05
1.04286e-05
1.04204e-05
1.04123e-05
1.04043e-05
1.03963e-05
1.03884e-05
1.03806e-05
1.03728e-05
1.03651e-05
1.03573e-05
1.03498e-05
1.03421e-05
1.03347e-05
1.03271e-05
1.03197e-05
1.03123e-05
1.0305e-05
1.02976e-05
1.02903e-05
1.0283e-05
1.02757e-05
1.02682e-05
1.02614e-05
1.02537e-05
1.02481e-05
1.02403e-05
1.02356e-05
1.0224e-05
)
;

boundaryField
{
    inlet
    {
        type            calculated;
        value           uniform 0;
    }
    outlet
    {
        type            calculated;
        value           uniform 0;
    }
    sideWall
    {
        type            empty;
    }
}


// ************************************************************************* //
